{
	 "smiles": "ClC(=O)C1=NOC(=C1)C1=CC=CC=C1", 
	 "Tm": 360.15, 
	 "num_atms": 20, 
	 "gaussian": { 
		 "optdone": 1, 
		 "sigma_profile": "yes", 
		 "theory": "DFT", 
		 "functional": "B3LYP", 
		 "basiset": "6-31G**", 
		 "properties": { 
			 "R2extent": 4644.4234, 
			 "electric_dipole_moment_norm": 5.24773971344, 
			 "electric_quadrupole_moment_norm": 6.88400119916, 
			 "total_energy": -1050.02173425, 
			 "HOMO_LUMO_gap": 0.16456, 
			 "cosmo_polarized_energy": -8.71, 
			 "cosmo_cavitation_energy": 27.89, 
			 "cosmo_dispersion_energy": -20.61, 
			 "cosmo_repulsion_energy": 1.61, 
			 "cosmo_total_nonelectrostatic_energy": 8.89, 
			 "SMD_solvation_energy": 5.17 
		},
		"coords": [
			{
				"x": -0.4667234462,
				"y": -4.1118114537,
				"z": 2.5297629688,
				"element": "Cl" 
			},
			{
				"x": -1.6250122655,
				"y": -2.9222614303,
				"z": 1.8485081472,
				"element": "C" 
			},
			{
				"x": -2.8053483584,
				"y": -3.0485145823,
				"z": 1.9944781613,
				"element": "O" 
			},
			{
				"x": -1.005461149,
				"y": -1.8003595391,
				"z": 1.1101241886,
				"element": "C" 
			},
			{
				"x": 0.2995649335,
				"y": -1.6747226287,
				"z": 0.9571261493,
				"element": "N" 
			},
			{
				"x": 0.4599297645,
				"y": -0.5193641871,
				"z": 0.2237042615,
				"element": "O" 
			},
			{
				"x": -0.7509002337,
				"y": 0.0394194564,
				"z": -0.0575740762,
				"element": "C" 
			},
			{
				"x": -1.7283748548,
				"y": -0.746204865,
				"z": 0.4905669581,
				"element": "C" 
			},
			{
				"x": -0.7565737528,
				"y": 1.2767949945,
				"z": -0.8328053223,
				"element": "C" 
			},
			{
				"x": 0.4476937811,
				"y": 1.8570855794,
				"z": -1.2660920386,
				"element": "C" 
			},
			{
				"x": 0.428272667,
				"y": 3.0376852618,
				"z": -2.0048431652,
				"element": "C" 
			},
			{
				"x": -0.7854172992,
				"y": 3.6522807504,
				"z": -2.3198306927,
				"element": "C" 
			},
			{
				"x": -1.9860556432,
				"y": 3.0799239867,
				"z": -1.8917418063,
				"element": "C" 
			},
			{
				"x": -1.9746144816,
				"y": 1.9003108875,
				"z": -1.1531686482,
				"element": "C" 
			},
			{
				"x": -2.7984101841,
				"y": -0.6202013583,
				"z": 0.4725075089,
				"element": "H" 
			},
			{
				"x": 1.3902692037,
				"y": 1.3798646911,
				"z": -1.0214880538,
				"element": "H" 
			},
			{
				"x": 1.3638610796,
				"y": 3.4786710944,
				"z": -2.3352937399,
				"element": "H" 
			},
			{
				"x": -0.7966831436,
				"y": 4.5726493106,
				"z": -2.8959541777,
				"element": "H" 
			},
			{
				"x": -2.9326902561,
				"y": 3.5534637329,
				"z": -2.1337789261,
				"element": "H" 
			},
			{
				"x": -2.9117263612,
				"y": 1.4618902989,
				"z": -0.8242076967,
				"element": "H" 
			}
		],
		 "valence_orbital": [ 
			{
				"type": "occ",
				"energy": -0.32059,
				"method": "rhf"
			},
			{
				"type": "occ",
				"energy": -0.31473,
				"method": "rhf"
			},
			{
				"type": "occ",
				"energy": -0.30419,
				"method": "rhf"
			},
			{
				"type": "occ",
				"energy": -0.27357,
				"method": "rhf"
			},
			{
				"type": "occ",
				"energy": -0.25036,
				"method": "rhf"
			},
			{
				"type": "unocc",
				"energy": -0.0858,
				"method": "rhf"
			},
			{
				"type": "unocc",
				"energy": -0.05868,
				"method": "rhf"
			},
			{
				"type": "unocc",
				"energy": -0.02254,
				"method": "rhf"
			},
			{
				"type": "unocc",
				"energy": 0.01867,
				"method": "rhf"
			},
			{
				"type": "unocc",
				"energy": 0.03153,
				"method": "rhf"
			}
		],
		"cosmo_sigma_profile": { 
			"-0.025": 0.0,
			"-0.024": 0.0,
			"-0.023": 0.0,
			"-0.022": 0.0,
			"-0.021": 0.0,
			"-0.02": 0.0,
			"-0.019": 0.0,
			"-0.018": 0.0,
			"-0.017": 0.0,
			"-0.016": 0.0,
			"-0.015": 0.0,
			"-0.014": 0.0,
			"-0.013": 0.0,
			"-0.012": 0.0,
			"-0.011": 0.0325852708348,
			"-0.01": 1.87537786966,
			"-0.009": 2.34463849011,
			"-0.008": 2.45789078843,
			"-0.007": 5.39197982163,
			"-0.006": 12.8310339432,
			"-0.005": 14.7353134496,
			"-0.004": 13.5832564653,
			"-0.003": 14.4922073819,
			"-0.002": 19.1079107274,
			"-0.001": 19.4336845785,
			"0.0": 18.418911165,
			"0.001": 15.1756782044,
			"0.002": 17.0621109515,
			"0.003": 22.736910589,
			"0.004": 19.3783872871,
			"0.005": 6.89656303583,
			"0.006": 5.20828934398,
			"0.007": 5.68484220203,
			"0.008": 5.4892878396,
			"0.009": 2.73113512296,
			"0.01": 0.975454423648,
			"0.011": 1.30379002957,
			"0.012": 0.753166888696,
			"0.013": 0.00205456703996,
			"0.014": 0.0,
			"0.015": 0.0,
			"0.016": 0.0,
			"0.017": 0.0,
			"0.018": 0.0,
			"0.019": 0.0,
			"0.02": 0.0,
			"0.021": 0.0,
			"0.022": 0.0,
			"0.023": 0.0,
			"0.024": 0.0,
			"0.025": 0.0
		}
	}
}
