{
	 "smiles": "C1CC2=C3C1=CC=C(C3=CC=C2)C1=C(N=C2C=CC=CC2=N1)C1=CC=CC=C1", 
	 "Tm": 435.15, 
	 "num_atms": 46, 
	 "gaussian": { 
		 "optdone": 1, 
		 "sigma_profile": "yes", 
		 "theory": "DFT", 
		 "functional": "B3LYP", 
		 "basiset": "6-31G**", 
		 "properties": { 
			 "R2extent": 11286.9932, 
			 "electric_dipole_moment_norm": 1.30669173871, 
			 "electric_quadrupole_moment_norm": 14.7923359234, 
			 "total_energy": -1111.14537738, 
			 "HOMO_LUMO_gap": 0.13098, 
			 "cosmo_polarized_energy": -11.22, 
			 "cosmo_cavitation_energy": 48.69, 
			 "cosmo_dispersion_energy": -34.1, 
			 "cosmo_repulsion_energy": 2.55, 
			 "cosmo_total_nonelectrostatic_energy": 17.14, 
			 "SMD_solvation_energy": 4.68 
		},
		"coords": [
			{
				"x": -1.1814456469,
				"y": -0.4708397248,
				"z": 4.0969925327,
				"element": "C" 
			},
			{
				"x": -0.311845098,
				"y": 0.6907096086,
				"z": 4.6897506011,
				"element": "C" 
			},
			{
				"x": 0.4144401898,
				"y": 1.2825487686,
				"z": 3.4940262005,
				"element": "C" 
			},
			{
				"x": 0.0370197435,
				"y": 0.575191794,
				"z": 2.3294848068,
				"element": "C" 
			},
			{
				"x": -0.8920172334,
				"y": -0.451357845,
				"z": 2.6072187628,
				"element": "C" 
			},
			{
				"x": -1.360695909,
				"y": -1.2177936757,
				"z": 1.5637650767,
				"element": "C" 
			},
			{
				"x": -0.896831115,
				"y": -0.9415127508,
				"z": 0.2530222153,
				"element": "C" 
			},
			{
				"x": 0.021787095,
				"y": 0.0618963291,
				"z": -0.037694747,
				"element": "C" 
			},
			{
				"x": 0.5332691177,
				"y": 0.8677061144,
				"z": 1.0356367484,
				"element": "C" 
			},
			{
				"x": 1.455511542,
				"y": 1.9487328958,
				"z": 0.9534894488,
				"element": "C" 
			},
			{
				"x": 1.8192369463,
				"y": 2.6429158621,
				"z": 2.0934848479,
				"element": "C" 
			},
			{
				"x": 1.3089322547,
				"y": 2.3225959144,
				"z": 3.3809947558,
				"element": "C" 
			},
			{
				"x": 0.4989179243,
				"y": 0.2318672271,
				"z": -1.4396842982,
				"element": "C" 
			},
			{
				"x": -0.4004604689,
				"y": 0.3231005555,
				"z": -2.5779184768,
				"element": "C" 
			},
			{
				"x": 0.0686442492,
				"y": 0.2685096634,
				"z": -3.8134592773,
				"element": "N" 
			},
			{
				"x": 1.4133946481,
				"y": 0.2033682362,
				"z": -3.9997039295,
				"element": "C" 
			},
			{
				"x": 1.9455017905,
				"y": 0.1419691209,
				"z": -5.3132322402,
				"element": "C" 
			},
			{
				"x": 3.3106014247,
				"y": 0.1339390572,
				"z": -5.4988006833,
				"element": "C" 
			},
			{
				"x": 4.1923679432,
				"y": 0.1876439469,
				"z": -4.3882674281,
				"element": "C" 
			},
			{
				"x": 3.7004656875,
				"y": 0.2387674666,
				"z": -3.1023293629,
				"element": "C" 
			},
			{
				"x": 2.2990477198,
				"y": 0.2381414798,
				"z": -2.8838032245,
				"element": "C" 
			},
			{
				"x": 1.8097900193,
				"y": 0.2293920612,
				"z": -1.6147268184,
				"element": "N" 
			},
			{
				"x": -1.8739758973,
				"y": 0.5146506054,
				"z": -2.4597826,
				"element": "C" 
			},
			{
				"x": -2.4400321548,
				"y": 1.3730945529,
				"z": -1.5035011934,
				"element": "C" 
			},
			{
				"x": -3.8177834855,
				"y": 1.5828246903,
				"z": -1.4685341178,
				"element": "C" 
			},
			{
				"x": -4.6528681798,
				"y": 0.9319559516,
				"z": -2.3788921234,
				"element": "C" 
			},
			{
				"x": -4.0989602757,
				"y": 0.0807007996,
				"z": -3.3376431816,
				"element": "C" 
			},
			{
				"x": -2.7207111153,
				"y": -0.1183026082,
				"z": -3.3842040091,
				"element": "C" 
			},
			{
				"x": -2.2478979885,
				"y": -0.3187827286,
				"z": 4.2992909413,
				"element": "H" 
			},
			{
				"x": -0.9176117012,
				"y": -1.4373194369,
				"z": 4.5417184949,
				"element": "H" 
			},
			{
				"x": 0.3930128087,
				"y": 0.3193409875,
				"z": 5.4424100347,
				"element": "H" 
			},
			{
				"x": -0.9339911093,
				"y": 1.4403836692,
				"z": 5.1920467235,
				"element": "H" 
			},
			{
				"x": -2.0724847538,
				"y": -2.0240014103,
				"z": 1.7183571632,
				"element": "H" 
			},
			{
				"x": -1.2744767357,
				"y": -1.5497597902,
				"z": -0.5634006925,
				"element": "H" 
			},
			{
				"x": 1.8867401307,
				"y": 2.2166216477,
				"z": -0.0033184096,
				"element": "H" 
			},
			{
				"x": 2.5256978808,
				"y": 3.4638805276,
				"z": 2.0036452237,
				"element": "H" 
			},
			{
				"x": 1.6289723978,
				"y": 2.897351942,
				"z": 4.2461183978,
				"element": "H" 
			},
			{
				"x": 1.2497724713,
				"y": 0.1137164759,
				"z": -6.1457553075,
				"element": "H" 
			},
			{
				"x": 3.7213201823,
				"y": 0.0905634284,
				"z": -6.5033199448,
				"element": "H" 
			},
			{
				"x": 5.2649343475,
				"y": 0.1835792639,
				"z": -4.5591421013,
				"element": "H" 
			},
			{
				"x": 4.3528617483,
				"y": 0.2676101576,
				"z": -2.2354418518,
				"element": "H" 
			},
			{
				"x": -1.8016245805,
				"y": 1.8888707908,
				"z": -0.7944601095,
				"element": "H" 
			},
			{
				"x": -4.2385306481,
				"y": 2.2585808237,
				"z": -0.7294767607,
				"element": "H" 
			},
			{
				"x": -5.7269421698,
				"y": 1.091015758,
				"z": -2.3445076928,
				"element": "H" 
			},
			{
				"x": -4.7409087991,
				"y": -0.4255884773,
				"z": -4.0530390322,
				"element": "H" 
			},
			{
				"x": -2.2803451972,
				"y": -0.7602797263,
				"z": -4.1396133616,
				"element": "H" 
			}
		],
		 "valence_orbital": [ 
			{
				"type": "occ",
				"energy": -0.24485,
				"method": "rhf"
			},
			{
				"type": "occ",
				"energy": -0.23873,
				"method": "rhf"
			},
			{
				"type": "occ",
				"energy": -0.23569,
				"method": "rhf"
			},
			{
				"type": "occ",
				"energy": -0.22828,
				"method": "rhf"
			},
			{
				"type": "occ",
				"energy": -0.19887,
				"method": "rhf"
			},
			{
				"type": "unocc",
				"energy": -0.06789,
				"method": "rhf"
			},
			{
				"type": "unocc",
				"energy": -0.04363,
				"method": "rhf"
			},
			{
				"type": "unocc",
				"energy": -0.02134,
				"method": "rhf"
			},
			{
				"type": "unocc",
				"energy": -0.00841,
				"method": "rhf"
			},
			{
				"type": "unocc",
				"energy": 0.00441,
				"method": "rhf"
			}
		],
		"cosmo_sigma_profile": { 
			"-0.025": 0.0,
			"-0.024": 0.0,
			"-0.023": 0.0,
			"-0.022": 0.0,
			"-0.021": 0.0,
			"-0.02": 0.0,
			"-0.019": 0.0,
			"-0.018": 0.0,
			"-0.017": 0.0,
			"-0.016": 0.0,
			"-0.015": 0.0,
			"-0.014": 0.0,
			"-0.013": 0.0,
			"-0.012": 0.0,
			"-0.011": 0.0,
			"-0.01": 0.0,
			"-0.009": 0.0,
			"-0.008": 0.0,
			"-0.007": 1.72172318467,
			"-0.006": 14.5760749431,
			"-0.005": 28.7347010757,
			"-0.004": 39.9152021104,
			"-0.003": 37.9354867528,
			"-0.002": 38.7034317487,
			"-0.001": 32.8593299508,
			"0.0": 27.0342817574,
			"0.001": 26.1897487962,
			"0.002": 30.3324557364,
			"0.003": 32.3534537668,
			"0.004": 31.5904114703,
			"0.005": 25.9596166344,
			"0.006": 9.27347447767,
			"0.007": 3.31116075798,
			"0.008": 2.27983005648,
			"0.009": 2.03991566138,
			"0.01": 2.02031135046,
			"0.011": 1.92733156043,
			"0.012": 1.41555512549,
			"0.013": 0.984375402637,
			"0.014": 0.243379236763,
			"0.015": 0.0,
			"0.016": 0.0,
			"0.017": 0.0,
			"0.018": 0.0,
			"0.019": 0.0,
			"0.02": 0.0,
			"0.021": 0.0,
			"0.022": 0.0,
			"0.023": 0.0,
			"0.024": 0.0,
			"0.025": 0.0
		}
	}
}
