{
	 "smiles": "CNC(=O)OC1=CC(C)=CC(C)=C1", 
	 "Tm": 372.15, 
	 "num_atms": 26, 
	 "gaussian": { 
		 "optdone": 1, 
		 "sigma_profile": "yes", 
		 "theory": "DFT", 
		 "functional": "B3LYP", 
		 "basiset": "6-31G**", 
		 "properties": { 
			 "R2extent": 3712.8482, 
			 "electric_dipole_moment_norm": 2.26159851654, 
			 "electric_quadrupole_moment_norm": 15.2017763235, 
			 "total_energy": -594.131540213, 
			 "HOMO_LUMO_gap": 0.23053, 
			 "cosmo_polarized_energy": -10.39, 
			 "cosmo_cavitation_energy": 29.92, 
			 "cosmo_dispersion_energy": -21.78, 
			 "cosmo_repulsion_energy": 1.77, 
			 "cosmo_total_nonelectrostatic_energy": 9.9, 
			 "SMD_solvation_energy": 6.22 
		},
		"coords": [
			{
				"x": -4.8306596245,
				"y": -1.0610174802,
				"z": -2.689185259,
				"element": "C" 
			},
			{
				"x": -3.479344235,
				"y": -1.3707617682,
				"z": -2.266821798,
				"element": "N" 
			},
			{
				"x": -2.6351966973,
				"y": -0.4203817232,
				"z": -1.7821567945,
				"element": "C" 
			},
			{
				"x": -2.8965793173,
				"y": 0.7537556747,
				"z": -1.6170695773,
				"element": "O" 
			},
			{
				"x": -1.4253208998,
				"y": -1.0204976736,
				"z": -1.5072234178,
				"element": "O" 
			},
			{
				"x": -0.3697494524,
				"y": -0.2854508176,
				"z": -0.9711392619,
				"element": "C" 
			},
			{
				"x": 0.8904439776,
				"y": -0.5824983231,
				"z": -1.4864889601,
				"element": "C" 
			},
			{
				"x": 2.02530807,
				"y": 0.0389753003,
				"z": -0.9567659774,
				"element": "C" 
			},
			{
				"x": 3.401754529,
				"y": -0.3030314855,
				"z": -1.4785030661,
				"element": "C" 
			},
			{
				"x": 1.8588059062,
				"y": 0.9630318886,
				"z": 0.0821044719,
				"element": "C" 
			},
			{
				"x": 0.5944665592,
				"y": 1.2661324222,
				"z": 0.6001640496,
				"element": "C" 
			},
			{
				"x": 0.4337810538,
				"y": 2.2907075654,
				"z": 1.6996076748,
				"element": "C" 
			},
			{
				"x": -0.5323472602,
				"y": 0.6251395708,
				"z": 0.0705048248,
				"element": "C" 
			},
			{
				"x": -5.0158862077,
				"y": -0.0115268355,
				"z": -2.4586188411,
				"element": "H" 
			},
			{
				"x": -5.5625635923,
				"y": -1.6770999916,
				"z": -2.1552212386,
				"element": "H" 
			},
			{
				"x": -4.9617172824,
				"y": -1.2135856636,
				"z": -3.7669323747,
				"element": "H" 
			},
			{
				"x": -3.1110130673,
				"y": -2.3027828503,
				"z": -2.3771368032,
				"element": "H" 
			},
			{
				"x": 0.9708439262,
				"y": -1.3030525468,
				"z": -2.2947824431,
				"element": "H" 
			},
			{
				"x": 4.1025818937,
				"y": 0.5231477265,
				"z": -1.3266273341,
				"element": "H" 
			},
			{
				"x": 3.3788360625,
				"y": -0.5359210126,
				"z": -2.547560836,
				"element": "H" 
			},
			{
				"x": 3.8145469129,
				"y": -1.1799375406,
				"z": -0.9638666692,
				"element": "H" 
			},
			{
				"x": 2.734190464,
				"y": 1.4580321702,
				"z": 0.4967960485,
				"element": "H" 
			},
			{
				"x": 1.3703622022,
				"y": 2.4445698723,
				"z": 2.2432821871,
				"element": "H" 
			},
			{
				"x": 0.1257753924,
				"y": 3.2613085859,
				"z": 1.2915828973,
				"element": "H" 
			},
			{
				"x": -0.3319798393,
				"y": 1.9874114375,
				"z": 2.4206013855,
				"element": "H" 
			},
			{
				"x": -1.5225394744,
				"y": 0.8481334978,
				"z": 0.4468571126,
				"element": "H" 
			}
		],
		 "valence_orbital": [ 
			{
				"type": "occ",
				"energy": -0.30517,
				"method": "rhf"
			},
			{
				"type": "occ",
				"energy": -0.27278,
				"method": "rhf"
			},
			{
				"type": "occ",
				"energy": -0.25727,
				"method": "rhf"
			},
			{
				"type": "occ",
				"energy": -0.2304,
				"method": "rhf"
			},
			{
				"type": "occ",
				"energy": -0.22497,
				"method": "rhf"
			},
			{
				"type": "unocc",
				"energy": 0.00556,
				"method": "rhf"
			},
			{
				"type": "unocc",
				"energy": 0.00878,
				"method": "rhf"
			},
			{
				"type": "unocc",
				"energy": 0.06053,
				"method": "rhf"
			},
			{
				"type": "unocc",
				"energy": 0.09054,
				"method": "rhf"
			},
			{
				"type": "unocc",
				"energy": 0.10251,
				"method": "rhf"
			}
		],
		"cosmo_sigma_profile": { 
			"-0.025": 0.0,
			"-0.024": 0.0,
			"-0.023": 0.0,
			"-0.022": 0.0,
			"-0.021": 0.0,
			"-0.02": 0.0,
			"-0.019": 0.0,
			"-0.018": 0.0,
			"-0.017": 0.0,
			"-0.016": 0.0,
			"-0.015": 0.262948728454,
			"-0.014": 0.953594100951,
			"-0.013": 1.31421310377,
			"-0.012": 0.83533936583,
			"-0.011": 0.435551496852,
			"-0.01": 1.22388458488,
			"-0.009": 1.03748900725,
			"-0.008": 0.99852424675,
			"-0.007": 0.636224453483,
			"-0.006": 2.02253838468,
			"-0.005": 10.7552717151,
			"-0.004": 26.2101320029,
			"-0.003": 24.2762824493,
			"-0.002": 27.3476318639,
			"-0.001": 23.0010178651,
			"0.0": 27.0627248832,
			"0.001": 17.5967770144,
			"0.002": 11.1676886599,
			"0.003": 11.2075714734,
			"0.004": 12.0093563815,
			"0.005": 10.6109728196,
			"0.006": 8.48933952626,
			"0.007": 2.53179032704,
			"0.008": 1.04920168575,
			"0.009": 2.05138307262,
			"0.01": 1.8421974475,
			"0.011": 1.91294269387,
			"0.012": 2.69740657555,
			"0.013": 4.59552178241,
			"0.014": 0.125821173013,
			"0.015": 0.0,
			"0.016": 0.0,
			"0.017": 0.0,
			"0.018": 0.0,
			"0.019": 0.0,
			"0.02": 0.0,
			"0.021": 0.0,
			"0.022": 0.0,
			"0.023": 0.0,
			"0.024": 0.0,
			"0.025": 0.0
		}
	}
}
