{
	 "smiles": "CCNCC(O)=O", 
	 "Tm": 457.15, 
	 "num_atms": 16, 
	 "gaussian": { 
		 "optdone": 1, 
		 "sigma_profile": "yes", 
		 "theory": "DFT", 
		 "functional": "B3LYP", 
		 "basiset": "6-31G**", 
		 "properties": { 
			 "R2extent": 1593.2377, 
			 "electric_dipole_moment_norm": 2.25180790477, 
			 "electric_quadrupole_moment_norm": 5.33387449046, 
			 "total_energy": -363.054091496, 
			 "HOMO_LUMO_gap": 0.23274, 
			 "cosmo_polarized_energy": -9.96, 
			 "cosmo_cavitation_energy": 19.42, 
			 "cosmo_dispersion_energy": -14.35, 
			 "cosmo_repulsion_energy": 1.25, 
			 "cosmo_total_nonelectrostatic_energy": 6.33, 
			 "SMD_solvation_energy": 2.69 
		},
		"coords": [
			{
				"x": 2.992650288,
				"y": 0.2802699766,
				"z": 2.7696726564,
				"element": "C" 
			},
			{
				"x": 1.6441645084,
				"y": -0.4431485291,
				"z": 2.9146162917,
				"element": "C" 
			},
			{
				"x": 0.4728972176,
				"y": 0.2340352292,
				"z": 2.3578158934,
				"element": "N" 
			},
			{
				"x": 0.4831202286,
				"y": 0.3862288095,
				"z": 0.9111647014,
				"element": "C" 
			},
			{
				"x": -0.7590414889,
				"y": 1.0840318674,
				"z": 0.3911343686,
				"element": "C" 
			},
			{
				"x": -1.162091693,
				"y": 2.0830194836,
				"z": 1.2149254638,
				"element": "O" 
			},
			{
				"x": -1.312255481,
				"y": 0.8379601242,
				"z": -0.6561576903,
				"element": "O" 
			},
			{
				"x": 3.2719397955,
				"y": 0.4260223847,
				"z": 1.7209829931,
				"element": "H" 
			},
			{
				"x": 3.7929438222,
				"y": -0.2976899652,
				"z": 3.2446635009,
				"element": "H" 
			},
			{
				"x": 2.9627696263,
				"y": 1.2653936321,
				"z": 3.2497707429,
				"element": "H" 
			},
			{
				"x": 1.7062410235,
				"y": -1.4351576182,
				"z": 2.4484817975,
				"element": "H" 
			},
			{
				"x": 1.4408117043,
				"y": -0.6175515936,
				"z": 3.9779084083,
				"element": "H" 
			},
			{
				"x": 0.3441249161,
				"y": 1.1423646816,
				"z": 2.7950272005,
				"element": "H" 
			},
			{
				"x": 0.5144538713,
				"y": -0.5990122512,
				"z": 0.4363178348,
				"element": "H" 
			},
			{
				"x": 1.3414552792,
				"y": 0.9578808454,
				"z": 0.5052440672,
				"element": "H" 
			},
			{
				"x": -1.9436836181,
				"y": 2.480452923,
				"z": 0.79563177,
				"element": "H" 
			}
		],
		 "valence_orbital": [ 
			{
				"type": "occ",
				"energy": -0.36473,
				"method": "rhf"
			},
			{
				"type": "occ",
				"energy": -0.34461,
				"method": "rhf"
			},
			{
				"type": "occ",
				"energy": -0.32016,
				"method": "rhf"
			},
			{
				"type": "occ",
				"energy": -0.27671,
				"method": "rhf"
			},
			{
				"type": "occ",
				"energy": -0.22347,
				"method": "rhf"
			},
			{
				"type": "unocc",
				"energy": 0.00927,
				"method": "rhf"
			},
			{
				"type": "unocc",
				"energy": 0.06922,
				"method": "rhf"
			},
			{
				"type": "unocc",
				"energy": 0.09288,
				"method": "rhf"
			},
			{
				"type": "unocc",
				"energy": 0.11684,
				"method": "rhf"
			},
			{
				"type": "unocc",
				"energy": 0.12998,
				"method": "rhf"
			}
		],
		"cosmo_sigma_profile": { 
			"-0.025": 0.0,
			"-0.024": 0.0,
			"-0.023": 0.0,
			"-0.022": 0.0,
			"-0.021": 0.0,
			"-0.02": 0.0,
			"-0.019": 0.117112386146,
			"-0.018": 0.762670341497,
			"-0.017": 0.821489062216,
			"-0.016": 1.09082173304,
			"-0.015": 0.825997183489,
			"-0.014": 0.564395186895,
			"-0.013": 0.393746315827,
			"-0.012": 0.800367395031,
			"-0.011": 0.803736090254,
			"-0.01": 0.673876405045,
			"-0.009": 0.886266044093,
			"-0.008": 1.66449984297,
			"-0.007": 2.38011470477,
			"-0.006": 4.01029712569,
			"-0.005": 6.83009336055,
			"-0.004": 10.9921568654,
			"-0.003": 18.4559944927,
			"-0.002": 16.5922653331,
			"-0.001": 14.7760220277,
			"0.0": 13.2733280605,
			"0.001": 10.2105693424,
			"0.002": 6.3342294299,
			"0.003": 2.59137532072,
			"0.004": 3.20656355417,
			"0.005": 3.65371497566,
			"0.006": 3.78384570668,
			"0.007": 3.77977608392,
			"0.008": 2.52255997652,
			"0.009": 2.72935773357,
			"0.01": 3.06797257534,
			"0.011": 4.49453878647,
			"0.012": 4.92684474631,
			"0.013": 1.0552642356,
			"0.014": 0.700909283188,
			"0.015": 0.748909558532,
			"0.016": 0.276707792849,
			"0.017": 0.312400412198,
			"0.018": 0.0,
			"0.019": 0.0,
			"0.02": 0.0,
			"0.021": 0.0,
			"0.022": 0.0,
			"0.023": 0.0,
			"0.024": 0.0,
			"0.025": 0.0
		}
	}
}
