{
	 "smiles": "OC(=O)C1=CC(Cl)=CN=C1", 
	 "Tm": 443.15, 
	 "num_atms": 14, 
	 "gaussian": { 
		 "optdone": 1, 
		 "sigma_profile": "yes", 
		 "theory": "DFT", 
		 "functional": "B3LYP", 
		 "basiset": "6-31G**", 
		 "properties": { 
			 "R2extent": 1961.5544, 
			 "electric_dipole_moment_norm": 1.32296982959, 
			 "electric_quadrupole_moment_norm": 8.72454495318, 
			 "total_energy": -896.448125124, 
			 "HOMO_LUMO_gap": 0.19943, 
			 "cosmo_polarized_energy": -9.46, 
			 "cosmo_cavitation_energy": 21.19, 
			 "cosmo_dispersion_energy": -15.91, 
			 "cosmo_repulsion_energy": 1.29, 
			 "cosmo_total_nonelectrostatic_energy": 6.57, 
			 "SMD_solvation_energy": 3.35 
		},
		"coords": [
			{
				"x": -1.5831081787,
				"y": 2.1598357536,
				"z": 0.6903595054,
				"element": "O" 
			},
			{
				"x": -0.47845049,
				"y": 1.4603057467,
				"z": 1.0370203765,
				"element": "C" 
			},
			{
				"x": 0.1742900703,
				"y": 1.7099474021,
				"z": 2.0292500521,
				"element": "O" 
			},
			{
				"x": -0.1623508619,
				"y": 0.3687773307,
				"z": 0.0752320404,
				"element": "C" 
			},
			{
				"x": 0.9606887506,
				"y": -0.4272574153,
				"z": 0.325827696,
				"element": "C" 
			},
			{
				"x": 1.2482641541,
				"y": -1.442601907,
				"z": -0.575580331,
				"element": "C" 
			},
			{
				"x": 2.6346243152,
				"y": -2.4838585655,
				"z": -0.3358559993,
				"element": "Cl" 
			},
			{
				"x": 0.4194532815,
				"y": -1.6339027701,
				"z": -1.6872024649,
				"element": "C" 
			},
			{
				"x": -0.652772794,
				"y": -0.8745740859,
				"z": -1.9273068938,
				"element": "N" 
			},
			{
				"x": -0.9356945772,
				"y": 0.1056518003,
				"z": -1.0626979868,
				"element": "C" 
			},
			{
				"x": -1.6991913623,
				"y": 2.839781369,
				"z": 1.3749096713,
				"element": "H" 
			},
			{
				"x": 1.5724385515,
				"y": -0.2400521827,
				"z": 1.2010934262,
				"element": "H" 
			},
			{
				"x": 0.6369204096,
				"y": -2.4268219363,
				"z": -2.3987691424,
				"element": "H" 
			},
			{
				"x": -1.8120112687,
				"y": 0.7090694606,
				"z": -1.2792799498,
				"element": "H" 
			}
		],
		 "valence_orbital": [ 
			{
				"type": "occ",
				"energy": -0.33352,
				"method": "rhf"
			},
			{
				"type": "occ",
				"energy": -0.30523,
				"method": "rhf"
			},
			{
				"type": "occ",
				"energy": -0.30057,
				"method": "rhf"
			},
			{
				"type": "occ",
				"energy": -0.27479,
				"method": "rhf"
			},
			{
				"type": "occ",
				"energy": -0.27257,
				"method": "rhf"
			},
			{
				"type": "unocc",
				"energy": -0.07314,
				"method": "rhf"
			},
			{
				"type": "unocc",
				"energy": -0.04447,
				"method": "rhf"
			},
			{
				"type": "unocc",
				"energy": 0.01668,
				"method": "rhf"
			},
			{
				"type": "unocc",
				"energy": 0.03164,
				"method": "rhf"
			},
			{
				"type": "unocc",
				"energy": 0.06691,
				"method": "rhf"
			}
		],
		"cosmo_sigma_profile": { 
			"-0.025": 0.0,
			"-0.024": 0.0,
			"-0.023": 0.0,
			"-0.022": 0.0,
			"-0.021": 0.0,
			"-0.02": 0.0,
			"-0.019": 0.478191205621,
			"-0.018": 1.16565683611,
			"-0.017": 0.66106176264,
			"-0.016": 1.0708571213,
			"-0.015": 0.603968357338,
			"-0.014": 0.146357396198,
			"-0.013": 0.612132309907,
			"-0.012": 1.49291030881,
			"-0.011": 0.869210088133,
			"-0.01": 0.383248848994,
			"-0.009": 1.02348218625,
			"-0.008": 4.17707734532,
			"-0.007": 4.48413011292,
			"-0.006": 4.88519575935,
			"-0.005": 5.08693872102,
			"-0.004": 8.10231333538,
			"-0.003": 11.8817772328,
			"-0.002": 19.782822087,
			"-0.001": 22.1388026929,
			"0.0": 11.324529356,
			"0.001": 10.2008604248,
			"0.002": 10.4709885661,
			"0.003": 12.2428750282,
			"0.004": 10.3557262735,
			"0.005": 3.91529827817,
			"0.006": 4.69150044061,
			"0.007": 2.83442787531,
			"0.008": 1.69749421114,
			"0.009": 3.46803299248,
			"0.01": 3.84228306705,
			"0.011": 5.17829634101,
			"0.012": 1.52373871066,
			"0.013": 1.2003118914,
			"0.014": 0.608932875401,
			"0.015": 0.433985134218,
			"0.016": 0.0,
			"0.017": 0.0,
			"0.018": 0.0,
			"0.019": 0.0,
			"0.02": 0.0,
			"0.021": 0.0,
			"0.022": 0.0,
			"0.023": 0.0,
			"0.024": 0.0,
			"0.025": 0.0
		}
	}
}
