{
	 "smiles": "CC(=O)CC(=O)N1CCOCC1", 
	 "Tm": 342.15, 
	 "num_atms": 25, 
	 "gaussian": { 
		 "optdone": 1, 
		 "sigma_profile": "yes", 
		 "theory": "DFT", 
		 "functional": "B3LYP", 
		 "basiset": "6-31G**", 
		 "properties": { 
			 "R2extent": 3385.98, 
			 "electric_dipole_moment_norm": 1.11739739126, 
			 "electric_quadrupole_moment_norm": 9.17406674055, 
			 "total_energy": -593.10022366, 
			 "HOMO_LUMO_gap": 0.21331, 
			 "cosmo_polarized_energy": -13.0, 
			 "cosmo_cavitation_energy": 27.05, 
			 "cosmo_dispersion_energy": -19.67, 
			 "cosmo_repulsion_energy": 1.58, 
			 "cosmo_total_nonelectrostatic_energy": 8.96, 
			 "SMD_solvation_energy": 5.06 
		},
		"coords": [
			{
				"x": 3.2969010425,
				"y": 0.274140178,
				"z": 4.1781235865,
				"element": "C" 
			},
			{
				"x": 1.8929837638,
				"y": -0.1126831477,
				"z": 3.7742495058,
				"element": "C" 
			},
			{
				"x": 1.5140585363,
				"y": -1.2687124878,
				"z": 3.7136888543,
				"element": "O" 
			},
			{
				"x": 0.961850606,
				"y": 1.0432086676,
				"z": 3.3916959584,
				"element": "C" 
			},
			{
				"x": 1.2563257458,
				"y": 1.4706972232,
				"z": 1.9440016058,
				"element": "C" 
			},
			{
				"x": 2.1070014091,
				"y": 2.3275770495,
				"z": 1.714075644,
				"element": "O" 
			},
			{
				"x": 0.5627359648,
				"y": 0.8424090718,
				"z": 0.9503191655,
				"element": "N" 
			},
			{
				"x": 0.7970242626,
				"y": 1.2684823599,
				"z": -0.4354148147,
				"element": "C" 
			},
			{
				"x": -0.4673012194,
				"y": 1.0495787934,
				"z": -1.2575126787,
				"element": "C" 
			},
			{
				"x": -0.9049273612,
				"y": -0.3091297705,
				"z": -1.2671223405,
				"element": "O" 
			},
			{
				"x": -0.4999786385,
				"y": -1.0693269413,
				"z": -0.1344528452,
				"element": "C" 
			},
			{
				"x": -0.4130927058,
				"y": -0.2419337813,
				"z": 1.1459732331,
				"element": "C" 
			},
			{
				"x": 3.6977098918,
				"y": 1.0061872706,
				"z": 3.4685871348,
				"element": "H" 
			},
			{
				"x": 3.9331756126,
				"y": -0.6101827953,
				"z": 4.2317419242,
				"element": "H" 
			},
			{
				"x": 3.2726096038,
				"y": 0.7643057309,
				"z": 5.1593253565,
				"element": "H" 
			},
			{
				"x": -0.0721835733,
				"y": 0.7290757889,
				"z": 3.5411644448,
				"element": "H" 
			},
			{
				"x": 1.1733903366,
				"y": 1.9224175919,
				"z": 4.0038364939,
				"element": "H" 
			},
			{
				"x": 1.0773863382,
				"y": 2.3239239373,
				"z": -0.4271098458,
				"element": "H" 
			},
			{
				"x": 1.6383740032,
				"y": 0.7129875839,
				"z": -0.8712448295,
				"element": "H" 
			},
			{
				"x": -0.285536748,
				"y": 1.3357708578,
				"z": -2.2988454204,
				"element": "H" 
			},
			{
				"x": -1.2691056438,
				"y": 1.6963500455,
				"z": -0.868716406,
				"element": "H" 
			},
			{
				"x": 0.4740678467,
				"y": -1.5478387525,
				"z": -0.3196903832,
				"element": "H" 
			},
			{
				"x": -1.2411968172,
				"y": -1.8641929738,
				"z": -0.0060308836,
				"element": "H" 
			},
			{
				"x": -0.0961287835,
				"y": -0.8901683438,
				"z": 1.9659729568,
				"element": "H" 
			},
			{
				"x": -1.4062434733,
				"y": 0.1646568437,
				"z": 1.3867845832,
				"element": "H" 
			}
		],
		 "valence_orbital": [ 
			{
				"type": "occ",
				"energy": -0.31288,
				"method": "rhf"
			},
			{
				"type": "occ",
				"energy": -0.26572,
				"method": "rhf"
			},
			{
				"type": "occ",
				"energy": -0.25634,
				"method": "rhf"
			},
			{
				"type": "occ",
				"energy": -0.25004,
				"method": "rhf"
			},
			{
				"type": "occ",
				"energy": -0.24434,
				"method": "rhf"
			},
			{
				"type": "unocc",
				"energy": -0.03103,
				"method": "rhf"
			},
			{
				"type": "unocc",
				"energy": 0.02669,
				"method": "rhf"
			},
			{
				"type": "unocc",
				"energy": 0.08004,
				"method": "rhf"
			},
			{
				"type": "unocc",
				"energy": 0.09911,
				"method": "rhf"
			},
			{
				"type": "unocc",
				"energy": 0.10894,
				"method": "rhf"
			}
		],
		"cosmo_sigma_profile": { 
			"-0.025": 0.0,
			"-0.024": 0.0,
			"-0.023": 0.0,
			"-0.022": 0.0,
			"-0.021": 0.0,
			"-0.02": 0.0,
			"-0.019": 0.0,
			"-0.018": 0.0,
			"-0.017": 0.0,
			"-0.016": 0.0,
			"-0.015": 0.0,
			"-0.014": 0.0,
			"-0.013": 0.0,
			"-0.012": 0.0,
			"-0.011": 0.0,
			"-0.01": 0.0,
			"-0.009": 0.0,
			"-0.008": 0.180082409292,
			"-0.007": 5.03538000146,
			"-0.006": 11.0230148006,
			"-0.005": 25.8067601101,
			"-0.004": 33.3008220592,
			"-0.003": 26.8983774115,
			"-0.002": 19.8403387479,
			"-0.001": 15.0142561875,
			"0.0": 7.6949139655,
			"0.001": 5.62109142532,
			"0.002": 5.17451435814,
			"0.003": 5.42650488823,
			"0.004": 4.55259508294,
			"0.005": 4.06854607379,
			"0.006": 3.48273825042,
			"0.007": 4.35324772397,
			"0.008": 4.72407774477,
			"0.009": 3.68778027623,
			"0.01": 4.2942288047,
			"0.011": 6.46042982372,
			"0.012": 5.36797739541,
			"0.013": 5.7906900971,
			"0.014": 3.67246655237,
			"0.015": 0.147048272708,
			"0.016": 0.0,
			"0.017": 0.0,
			"0.018": 0.0,
			"0.019": 0.0,
			"0.02": 0.0,
			"0.021": 0.0,
			"0.022": 0.0,
			"0.023": 0.0,
			"0.024": 0.0,
			"0.0": 0.0
		}
	}
}
