{
	 "smiles": "CCCCCCCCCCCCCCCCCCN", 
	 "Tm": 327.65, 
	 "num_atms": 58, 
	 "gaussian": { 
		 "optdone": 1, 
		 "sigma_profile": "yes", 
		 "theory": "DFT", 
		 "functional": "B3LYP", 
		 "basiset": "6-31G**", 
		 "properties": { 
			 "R2extent": 14275.263, 
			 "electric_dipole_moment_norm": 1.25814282973, 
			 "electric_quadrupole_moment_norm": 10.6872498909, 
			 "total_energy": -764.214983153, 
			 "HOMO_LUMO_gap": 0.29957, 
			 "cosmo_polarized_energy": -5.48, 
			 "cosmo_cavitation_energy": 55.31, 
			 "cosmo_dispersion_energy": -37.28, 
			 "cosmo_repulsion_energy": 3.05, 
			 "cosmo_total_nonelectrostatic_energy": 21.08, 
			 "SMD_solvation_energy": 5.78 
		},
		"coords": [
			{
				"x": -0.256536349,
				"y": 0.9770552322,
				"z": -6.8730168136,
				"element": "C" 
			},
			{
				"x": 0.8564164327,
				"y": 0.2639350649,
				"z": -6.0965149688,
				"element": "C" 
			},
			{
				"x": 0.4173161096,
				"y": -0.4888437786,
				"z": -4.8273599437,
				"element": "C" 
			},
			{
				"x": -0.1643352368,
				"y": 0.3784102209,
				"z": -3.6881480622,
				"element": "C" 
			},
			{
				"x": -1.6928622908,
				"y": 0.5494093028,
				"z": -3.7141327475,
				"element": "C" 
			},
			{
				"x": -2.2639382163,
				"y": 1.3354310914,
				"z": -2.5216506895,
				"element": "C" 
			},
			{
				"x": -1.8757269269,
				"y": 2.8222843533,
				"z": -2.4941244629,
				"element": "C" 
			},
			{
				"x": -2.5685771508,
				"y": 3.6420858229,
				"z": -1.3926343562,
				"element": "C" 
			},
			{
				"x": -2.1684231755,
				"y": 3.2638452207,
				"z": 0.0412729332,
				"element": "C" 
			},
			{
				"x": -2.8371395316,
				"y": 4.1540382308,
				"z": 1.098007031,
				"element": "C" 
			},
			{
				"x": -2.4178507743,
				"y": 3.8990370433,
				"z": 2.5571885608,
				"element": "C" 
			},
			{
				"x": -2.785849336,
				"y": 2.5052971981,
				"z": 3.1190467563,
				"element": "C" 
			},
			{
				"x": -1.681321326,
				"y": 1.4327872571,
				"z": 3.0371886139,
				"element": "C" 
			},
			{
				"x": -0.5341301267,
				"y": 1.6523281702,
				"z": 4.0357253043,
				"element": "C" 
			},
			{
				"x": 0.6240845929,
				"y": 0.6457901494,
				"z": 3.9190518223,
				"element": "C" 
			},
			{
				"x": 0.2539494718,
				"y": -0.8003396109,
				"z": 4.2829288438,
				"element": "C" 
			},
			{
				"x": 1.4126525909,
				"y": -1.8077117281,
				"z": 4.1739715626,
				"element": "C" 
			},
			{
				"x": 2.5905414877,
				"y": -1.5656588333,
				"z": 5.126913993,
				"element": "C" 
			},
			{
				"x": 2.1707321474,
				"y": -1.6631951997,
				"z": 6.5309159125,
				"element": "N" 
			},
			{
				"x": 0.1310787272,
				"y": 1.4069035369,
				"z": -7.8030339556,
				"element": "H" 
			},
			{
				"x": -1.0636554776,
				"y": 0.2845691646,
				"z": -7.1390384498,
				"element": "H" 
			},
			{
				"x": -0.6977168412,
				"y": 1.7955067629,
				"z": -6.2957126332,
				"element": "H" 
			},
			{
				"x": 1.6296310269,
				"y": 0.9953818753,
				"z": -5.8230978118,
				"element": "H" 
			},
			{
				"x": 1.3476358923,
				"y": -0.4546907853,
				"z": -6.7657941045,
				"element": "H" 
			},
			{
				"x": -0.3091748431,
				"y": -1.2683349511,
				"z": -5.0986360982,
				"element": "H" 
			},
			{
				"x": 1.2965936197,
				"y": -1.0230446702,
				"z": -4.4456045125,
				"element": "H" 
			},
			{
				"x": 0.1015335422,
				"y": -0.0780785646,
				"z": -2.7248613355,
				"element": "H" 
			},
			{
				"x": 0.3284187671,
				"y": 1.3598187063,
				"z": -3.6970380313,
				"element": "H" 
			},
			{
				"x": -2.1491884722,
				"y": -0.44989293,
				"z": -3.7266522655,
				"element": "H" 
			},
			{
				"x": -2.0069114952,
				"y": 1.0342149291,
				"z": -4.6468596651,
				"element": "H" 
			},
			{
				"x": -1.947433811,
				"y": 0.8480202326,
				"z": -1.5896090078,
				"element": "H" 
			},
			{
				"x": -3.360281965,
				"y": 1.2621149474,
				"z": -2.5447198521,
				"element": "H" 
			},
			{
				"x": -2.1229211246,
				"y": 3.2651730511,
				"z": -3.4691351239,
				"element": "H" 
			},
			{
				"x": -0.7879608082,
				"y": 2.9240961767,
				"z": -2.3825228818,
				"element": "H" 
			},
			{
				"x": -3.6586692465,
				"y": 3.5452340269,
				"z": -1.5014113552,
				"element": "H" 
			},
			{
				"x": -2.3435488218,
				"y": 4.7058267862,
				"z": -1.5505798398,
				"element": "H" 
			},
			{
				"x": -2.4241532705,
				"y": 2.2145079307,
				"z": 0.2294783317,
				"element": "H" 
			},
			{
				"x": -1.0753300422,
				"y": 3.3366100104,
				"z": 0.1414343621,
				"element": "H" 
			},
			{
				"x": -3.9284407585,
				"y": 4.0430296548,
				"z": 1.0187034017,
				"element": "H" 
			},
			{
				"x": -2.6249114889,
				"y": 5.2048370454,
				"z": 0.8555440244,
				"element": "H" 
			},
			{
				"x": -2.8953220609,
				"y": 4.6688858465,
				"z": 3.1759552805,
				"element": "H" 
			},
			{
				"x": -1.3374716087,
				"y": 4.0702723586,
				"z": 2.6577451361,
				"element": "H" 
			},
			{
				"x": -3.0776638829,
				"y": 2.6063169707,
				"z": 4.1729211329,
				"element": "H" 
			},
			{
				"x": -3.682580362,
				"y": 2.1408253595,
				"z": 2.5999846785,
				"element": "H" 
			},
			{
				"x": -2.1370265834,
				"y": 0.4517334694,
				"z": 3.2194821745,
				"element": "H" 
			},
			{
				"x": -1.2697744446,
				"y": 1.3925792155,
				"z": 2.0203441894,
				"element": "H" 
			},
			{
				"x": -0.9394230558,
				"y": 1.6219470169,
				"z": 5.0578914183,
				"element": "H" 
			},
			{
				"x": -0.1280374199,
				"y": 2.6636315401,
				"z": 3.9042210333,
				"element": "H" 
			},
			{
				"x": 1.0226281554,
				"y": 0.6698070015,
				"z": 2.8942511148,
				"element": "H" 
			},
			{
				"x": 1.4431019835,
				"y": 0.986960362,
				"z": 4.5658077423,
				"element": "H" 
			},
			{
				"x": -0.5562805879,
				"y": -1.1454590801,
				"z": 3.6295139926,
				"element": "H" 
			},
			{
				"x": -0.1588395538,
				"y": -0.8274807731,
				"z": 5.301316253,
				"element": "H" 
			},
			{
				"x": 1.0232829031,
				"y": -2.8138621861,
				"z": 4.3690949739,
				"element": "H" 
			},
			{
				"x": 1.7956518865,
				"y": -1.8059935013,
				"z": 3.144045202,
				"element": "H" 
			},
			{
				"x": 3.0826855359,
				"y": -0.6096048391,
				"z": 4.8741780832,
				"element": "H" 
			},
			{
				"x": 3.3388797233,
				"y": -2.3480092041,
				"z": 4.9525936511,
				"element": "H" 
			},
			{
				"x": 1.6079217788,
				"y": -0.8538794409,
				"z": 6.7816769831,
				"element": "H" 
			},
			{
				"x": 2.9869720925,
				"y": -1.6316582594,
				"z": 7.1366944748,
				"element": "H" 
			}
		],
		 "valence_orbital": [ 
			{
				"type": "occ",
				"energy": -0.30071,
				"method": "rhf"
			},
			{
				"type": "occ",
				"energy": -0.29952,
				"method": "rhf"
			},
			{
				"type": "occ",
				"energy": -0.29571,
				"method": "rhf"
			},
			{
				"type": "occ",
				"energy": -0.29253,
				"method": "rhf"
			},
			{
				"type": "occ",
				"energy": -0.22787,
				"method": "rhf"
			},
			{
				"type": "unocc",
				"energy": 0.0717,
				"method": "rhf"
			},
			{
				"type": "unocc",
				"energy": 0.0858,
				"method": "rhf"
			},
			{
				"type": "unocc",
				"energy": 0.0897,
				"method": "rhf"
			},
			{
				"type": "unocc",
				"energy": 0.09982,
				"method": "rhf"
			},
			{
				"type": "unocc",
				"energy": 0.10408,
				"method": "rhf"
			}
		],
		"cosmo_sigma_profile": { 
			"-0.025": 0.0,
			"-0.024": 0.0,
			"-0.023": 0.0,
			"-0.022": 0.0,
			"-0.021": 0.0,
			"-0.02": 0.0,
			"-0.019": 0.0,
			"-0.018": 0.0,
			"-0.017": 0.0,
			"-0.016": 0.0,
			"-0.015": 0.0,
			"-0.014": 0.0,
			"-0.013": 0.0,
			"-0.012": 0.0,
			"-0.011": 0.0,
			"-0.01": 0.198535076912,
			"-0.009": 1.49815534794,
			"-0.008": 2.50088860094,
			"-0.007": 2.75352406094,
			"-0.006": 2.9071597693,
			"-0.005": 2.89361824502,
			"-0.004": 3.58862838241,
			"-0.003": 6.68773955425,
			"-0.002": 44.3564566649,
			"-0.001": 98.1391368009,
			"0.0": 112.944388821,
			"0.001": 91.0301536098,
			"0.002": 37.1261672438,
			"0.003": 2.18295188571,
			"0.004": 1.50133761834,
			"0.005": 0.446238177147,
			"0.006": 1.06314850359,
			"0.007": 0.888138965914,
			"0.008": 0.637968526338,
			"0.009": 0.983154321468,
			"0.01": 0.778693205247,
			"0.011": 0.441268821145,
			"0.012": 0.811641528328,
			"0.013": 0.533190241182,
			"0.014": 0.875884473349,
			"0.015": 0.532985422161,
			"0.016": 0.33448563166,
			"0.017": 0.859555449181,
			"0.018": 0.576364883044,
			"0.019": 0.478590106623,
			"0.02": 0.467439250017,
			"0.021": 0.124335815359,
			"0.022": 0.0,
			"0.023": 0.0,
			"0.024": 0.0,
			"0.025": 0.0
		}
	}
}
