{
	 "smiles": "CC1=NN(N=C1C(=O)NNC(=S)NC1=CC=CC=C1)C1=CC=CC=C1", 
	 "Tm": 479.15, 
	 "num_atms": 41, 
	 "gaussian": { 
		 "optdone": 1, 
		 "sigma_profile": "yes", 
		 "theory": "DFT", 
		 "functional": "B3LYP", 
		 "basiset": "6-31G**", 
		 "properties": { 
			 "R2extent": 13005.2806, 
			 "electric_dipole_moment_norm": 7.0679413877, 
			 "electric_quadrupole_moment_norm": 15.653602969, 
			 "total_energy": -1459.33868194, 
			 "HOMO_LUMO_gap": 0.15223, 
			 "cosmo_polarized_energy": -22.55, 
			 "cosmo_cavitation_energy": 48.39, 
			 "cosmo_dispersion_energy": -34.33, 
			 "cosmo_repulsion_energy": 2.57, 
			 "cosmo_total_nonelectrostatic_energy": 16.63, 
			 "SMD_solvation_energy": 6.82 
		},
		"coords": [
			{
				"x": -2.0892674627,
				"y": -3.295683937,
				"z": 4.2928806459,
				"element": "C" 
			},
			{
				"x": -1.1800895938,
				"y": -2.9958512075,
				"z": 3.1479503807,
				"element": "C" 
			},
			{
				"x": 0.1407649355,
				"y": -3.1461374978,
				"z": 3.2299036101,
				"element": "N" 
			},
			{
				"x": 0.5987739312,
				"y": -2.7975943034,
				"z": 2.0168464142,
				"element": "N" 
			},
			{
				"x": -0.3371369308,
				"y": -2.4200550454,
				"z": 1.1512479664,
				"element": "N" 
			},
			{
				"x": -1.4812246566,
				"y": -2.5332442989,
				"z": 1.8398588492,
				"element": "C" 
			},
			{
				"x": -2.8344635723,
				"y": -2.2760671979,
				"z": 1.2895028921,
				"element": "C" 
			},
			{
				"x": -3.834045968,
				"y": -2.7057317544,
				"z": 1.8530431211,
				"element": "O" 
			},
			{
				"x": -2.9331114428,
				"y": -1.6349238152,
				"z": 0.0695117879,
				"element": "N" 
			},
			{
				"x": -1.9454770604,
				"y": -0.7776685499,
				"z": -0.4097500394,
				"element": "N" 
			},
			{
				"x": -2.2835774719,
				"y": 0.3939553671,
				"z": -1.0361190063,
				"element": "C" 
			},
			{
				"x": -3.8727183755,
				"y": 0.9089406257,
				"z": -1.1702608245,
				"element": "S" 
			},
			{
				"x": -1.1615042515,
				"y": 1.0444010126,
				"z": -1.4912149858,
				"element": "N" 
			},
			{
				"x": -1.039795075,
				"y": 2.2246864696,
				"z": -2.2645813564,
				"element": "C" 
			},
			{
				"x": 0.0825986355,
				"y": 3.0314731676,
				"z": -2.0277790623,
				"element": "C" 
			},
			{
				"x": 0.3033102966,
				"y": 4.1738095539,
				"z": -2.7939018649,
				"element": "C" 
			},
			{
				"x": -0.5973743969,
				"y": 4.5296289656,
				"z": -3.7987049423,
				"element": "C" 
			},
			{
				"x": -1.7123239269,
				"y": 3.7229695476,
				"z": -4.033603196,
				"element": "C" 
			},
			{
				"x": -1.9379843547,
				"y": 2.5700143213,
				"z": -3.2826956875,
				"element": "C" 
			},
			{
				"x": 1.9836191585,
				"y": -2.8392986995,
				"z": 1.690903235,
				"element": "C" 
			},
			{
				"x": 2.3881448744,
				"y": -2.7108527828,
				"z": 0.3590520449,
				"element": "C" 
			},
			{
				"x": 3.7479302331,
				"y": -2.7482386128,
				"z": 0.0561117564,
				"element": "C" 
			},
			{
				"x": 4.6956562057,
				"y": -2.9181271619,
				"z": 1.067532032,
				"element": "C" 
			},
			{
				"x": 4.2750392477,
				"y": -3.0524468242,
				"z": 2.3923680087,
				"element": "C" 
			},
			{
				"x": 2.9198434188,
				"y": -3.0126986756,
				"z": 2.7145347057,
				"element": "C" 
			},
			{
				"x": -2.685969537,
				"y": -2.4177243716,
				"z": 4.5568809934,
				"element": "H" 
			},
			{
				"x": -2.7977356975,
				"y": -4.0828301384,
				"z": 4.0229569573,
				"element": "H" 
			},
			{
				"x": -1.5035538519,
				"y": -3.6082257698,
				"z": 5.1594676153,
				"element": "H" 
			},
			{
				"x": -3.8673976808,
				"y": -1.324501989,
				"z": -0.2031737346,
				"element": "H" 
			},
			{
				"x": -1.0762249766,
				"y": -1.24975059,
				"z": -0.626367537,
				"element": "H" 
			},
			{
				"x": -0.296483262,
				"y": 0.7596112404,
				"z": -1.0482232549,
				"element": "H" 
			},
			{
				"x": 0.7787384889,
				"y": 2.7655949024,
				"z": -1.2352916887,
				"element": "H" 
			},
			{
				"x": 1.1769754392,
				"y": 4.7881389361,
				"z": -2.5970142286,
				"element": "H" 
			},
			{
				"x": -0.4316703264,
				"y": 5.4233505178,
				"z": -4.39231797,
				"element": "H" 
			},
			{
				"x": -2.4168708965,
				"y": 3.9854353787,
				"z": -4.8173903406,
				"element": "H" 
			},
			{
				"x": -2.8013383905,
				"y": 1.9482231937,
				"z": -3.47554018,
				"element": "H" 
			},
			{
				"x": 1.644929884,
				"y": -2.5967936486,
				"z": -0.420364616,
				"element": "H" 
			},
			{
				"x": 4.064803503,
				"y": -2.6518013241,
				"z": -0.977950215,
				"element": "H" 
			},
			{
				"x": 5.7531990954,
				"y": -2.9490534044,
				"z": 0.8244996645,
				"element": "H" 
			},
			{
				"x": 5.0046787338,
				"y": -3.1865535636,
				"z": 3.1851175589,
				"element": "H" 
			},
			{
				"x": 2.5779330777,
				"y": -3.1147780363,
				"z": 3.7368744913,
				"element": "H" 
			}
		],
		 "valence_orbital": [ 
			{
				"type": "occ",
				"energy": -0.25763,
				"method": "rhf"
			},
			{
				"type": "occ",
				"energy": -0.24507,
				"method": "rhf"
			},
			{
				"type": "occ",
				"energy": -0.22776,
				"method": "rhf"
			},
			{
				"type": "occ",
				"energy": -0.22286,
				"method": "rhf"
			},
			{
				"type": "occ",
				"energy": -0.2179,
				"method": "rhf"
			},
			{
				"type": "unocc",
				"energy": -0.06567,
				"method": "rhf"
			},
			{
				"type": "unocc",
				"energy": -0.03327,
				"method": "rhf"
			},
			{
				"type": "unocc",
				"energy": -0.02498,
				"method": "rhf"
			},
			{
				"type": "unocc",
				"energy": -0.01495,
				"method": "rhf"
			},
			{
				"type": "unocc",
				"energy": -0.00666,
				"method": "rhf"
			}
		],
		"cosmo_sigma_profile": { 
			"-0.025": 0.0,
			"-0.024": 0.0,
			"-0.023": 0.0,
			"-0.022": 0.0,
			"-0.021": 0.0,
			"-0.02": 0.0,
			"-0.019": 0.0,
			"-0.018": 0.00381956235666,
			"-0.017": 0.623835469116,
			"-0.016": 1.91694744387,
			"-0.015": 1.88561138815,
			"-0.014": 1.45558951361,
			"-0.013": 1.92798006062,
			"-0.012": 1.95933490223,
			"-0.011": 1.59646502807,
			"-0.01": 1.66392597667,
			"-0.009": 2.26457211699,
			"-0.008": 2.04007798399,
			"-0.007": 5.62722622029,
			"-0.006": 17.7540656905,
			"-0.005": 25.4477778261,
			"-0.004": 28.195908975,
			"-0.003": 29.0224941518,
			"-0.002": 31.1014593085,
			"-0.001": 34.5902373268,
			"0.0": 27.5863196546,
			"0.001": 24.7510567944,
			"0.002": 27.9567615731,
			"0.003": 25.8889282098,
			"0.004": 27.3408565078,
			"0.005": 19.3373150674,
			"0.006": 10.6511549564,
			"0.007": 8.98913844997,
			"0.008": 8.26887065021,
			"0.009": 6.67263368534,
			"0.01": 5.67461100059,
			"0.011": 3.07189821457,
			"0.012": 3.6566524058,
			"0.013": 1.9081168893,
			"0.014": 0.0450405579972,
			"0.015": 0.0,
			"0.016": 0.0,
			"0.017": 0.0,
			"0.018": 0.0,
			"0.019": 0.0,
			"0.02": 0.0,
			"0.021": 0.0,
			"0.022": 0.0,
			"0.023": 0.0,
			"0.024": 0.0,
			"0.025": 0.0
		}
	}
}
