{
	 "smiles": "CC(C)C1=NC2=C(C=CC=C2)C(=C1)C(O)=O", 
	 "Tm": 415.15, 
	 "num_atms": 29, 
	 "gaussian": { 
		 "optdone": 1, 
		 "sigma_profile": "yes", 
		 "theory": "DFT", 
		 "functional": "B3LYP", 
		 "basiset": "6-31G**", 
		 "properties": { 
			 "R2extent": 3972.0181, 
			 "electric_dipole_moment_norm": 1.41676789207, 
			 "electric_quadrupole_moment_norm": 9.29391622568, 
			 "total_energy": -708.454773398, 
			 "HOMO_LUMO_gap": 0.15624, 
			 "cosmo_polarized_energy": -10.01, 
			 "cosmo_cavitation_energy": 32.34, 
			 "cosmo_dispersion_energy": -23.37, 
			 "cosmo_repulsion_energy": 1.82, 
			 "cosmo_total_nonelectrostatic_energy": 10.8, 
			 "SMD_solvation_energy": 5.13 
		},
		"coords": [
			{
				"x": 0.3765466894,
				"y": 3.6200701234,
				"z": 1.3467047873,
				"element": "C" 
			},
			{
				"x": 0.4602493466,
				"y": 2.1663736855,
				"z": 1.8485018681,
				"element": "C" 
			},
			{
				"x": -0.6051714251,
				"y": 1.8837787304,
				"z": 2.9241357638,
				"element": "C" 
			},
			{
				"x": 0.3798033418,
				"y": 1.1705599515,
				"z": 0.7021241527,
				"element": "C" 
			},
			{
				"x": 1.4280514138,
				"y": 0.3945032254,
				"z": 0.4997997997,
				"element": "N" 
			},
			{
				"x": 1.3946879715,
				"y": -0.5125933051,
				"z": -0.5199067157,
				"element": "C" 
			},
			{
				"x": 0.2710576692,
				"y": -0.6757519612,
				"z": -1.3988886663,
				"element": "C" 
			},
			{
				"x": 0.3538976129,
				"y": -1.6552092599,
				"z": -2.4261337243,
				"element": "C" 
			},
			{
				"x": 1.4888071287,
				"y": -2.4252154431,
				"z": -2.5678708137,
				"element": "C" 
			},
			{
				"x": 2.5944642463,
				"y": -2.2628061557,
				"z": -1.70075564,
				"element": "C" 
			},
			{
				"x": 2.5464957061,
				"y": -1.3241345312,
				"z": -0.6967706466,
				"element": "C" 
			},
			{
				"x": -0.8528641766,
				"y": 0.1831869719,
				"z": -1.152213226,
				"element": "C" 
			},
			{
				"x": -0.7824573409,
				"y": 1.0883219168,
				"z": -0.1115509861,
				"element": "C" 
			},
			{
				"x": -2.0952877358,
				"y": 0.1312545973,
				"z": -1.9822507418,
				"element": "C" 
			},
			{
				"x": -3.0308704877,
				"y": 1.0278591816,
				"z": -1.5762321636,
				"element": "O" 
			},
			{
				"x": -2.3068388302,
				"y": -0.6057817391,
				"z": -2.9260251838,
				"element": "O" 
			},
			{
				"x": 0.5046608018,
				"y": 4.3188063796,
				"z": 2.1802467558,
				"element": "H" 
			},
			{
				"x": -0.5945076109,
				"y": 3.8325558677,
				"z": 0.8850270479,
				"element": "H" 
			},
			{
				"x": 1.154378039,
				"y": 3.8299200885,
				"z": 0.6059637032,
				"element": "H" 
			},
			{
				"x": 1.4489478368,
				"y": 2.0112226388,
				"z": 2.2930641082,
				"element": "H" 
			},
			{
				"x": -1.6199547417,
				"y": 2.0191888412,
				"z": 2.5328270175,
				"element": "H" 
			},
			{
				"x": -0.5247200123,
				"y": 0.8604048448,
				"z": 3.3036015211,
				"element": "H" 
			},
			{
				"x": -0.4841914097,
				"y": 2.5694187831,
				"z": 3.7695293824,
				"element": "H" 
			},
			{
				"x": -0.4870935679,
				"y": -1.7850718758,
				"z": -3.0925928024,
				"element": "H" 
			},
			{
				"x": 1.5332071241,
				"y": -3.1684248842,
				"z": -3.3588419216,
				"element": "H" 
			},
			{
				"x": 3.4784601714,
				"y": -2.8804399147,
				"z": -1.8307321771,
				"element": "H" 
			},
			{
				"x": 3.3727872235,
				"y": -1.1685827279,
				"z": -0.0111384674,
				"element": "H" 
			},
			{
				"x": -1.6230942088,
				"y": 1.7416295242,
				"z": 0.0849443348,
				"element": "H" 
			},
			{
				"x": -3.7829507753,
				"y": 0.9058564464,
				"z": -2.178466366,
				"element": "H" 
			}
		],
		 "valence_orbital": [ 
			{
				"type": "occ",
				"energy": -0.30597,
				"method": "rhf"
			},
			{
				"type": "occ",
				"energy": -0.28711,
				"method": "rhf"
			},
			{
				"type": "occ",
				"energy": -0.25327,
				"method": "rhf"
			},
			{
				"type": "occ",
				"energy": -0.24915,
				"method": "rhf"
			},
			{
				"type": "occ",
				"energy": -0.23303,
				"method": "rhf"
			},
			{
				"type": "unocc",
				"energy": -0.07679,
				"method": "rhf"
			},
			{
				"type": "unocc",
				"energy": -0.01785,
				"method": "rhf"
			},
			{
				"type": "unocc",
				"energy": -0.00301,
				"method": "rhf"
			},
			{
				"type": "unocc",
				"energy": 0.05103,
				"method": "rhf"
			},
			{
				"type": "unocc",
				"energy": 0.07322,
				"method": "rhf"
			}
		],
		"cosmo_sigma_profile": { 
			"-0.025": 0.0,
			"-0.024": 0.0,
			"-0.023": 0.0,
			"-0.022": 0.0,
			"-0.021": 0.0,
			"-0.02": 0.0,
			"-0.019": 0.229764043615,
			"-0.018": 0.69877242274,
			"-0.017": 1.07902715647,
			"-0.016": 0.827844514219,
			"-0.015": 0.62205059969,
			"-0.014": 0.864717306601,
			"-0.013": 0.42181805311,
			"-0.012": 0.663363985038,
			"-0.011": 0.840421593664,
			"-0.01": 0.586330872905,
			"-0.009": 0.470387893868,
			"-0.008": 0.755427593296,
			"-0.007": 1.8682338047,
			"-0.006": 8.16072762832,
			"-0.005": 9.75415825373,
			"-0.004": 14.316246948,
			"-0.003": 22.9127184177,
			"-0.002": 23.180859863,
			"-0.001": 26.027595122,
			"0.0": 35.5556157843,
			"0.001": 28.7547563203,
			"0.002": 15.9231999134,
			"0.003": 18.2053670432,
			"0.004": 14.1404403806,
			"0.005": 5.78271088596,
			"0.006": 4.49418806513,
			"0.007": 3.71869515612,
			"0.008": 3.69762205261,
			"0.009": 2.40838254225,
			"0.01": 3.45546505203,
			"0.011": 3.38678560904,
			"0.012": 1.44571706854,
			"0.013": 0.545103160333,
			"0.014": 0.845816899772,
			"0.015": 0.249636953804,
			"0.016": 0.0,
			"0.017": 0.0,
			"0.018": 0.0,
			"0.019": 0.0,
			"0.02": 0.0,
			"0.021": 0.0,
			"0.022": 0.0,
			"0.023": 0.0,
			"0.024": 0.0,
			"0.025": 0.0
		}
	}
}
