{
	 "smiles": "CC1=CC(=NN1C1=C(Cl)C=C(Cl)C=C1)C(O)=O", 
	 "Tm": 473.15, 
	 "num_atms": 25, 
	 "gaussian": { 
		 "optdone": 1, 
		 "sigma_profile": "yes", 
		 "theory": "DFT", 
		 "functional": "B3LYP", 
		 "basiset": "6-31G**", 
		 "properties": { 
			 "R2extent": 6391.2283, 
			 "electric_dipole_moment_norm": 6.38611891684, 
			 "electric_quadrupole_moment_norm": 27.8104284165, 
			 "total_energy": -1604.32220536, 
			 "HOMO_LUMO_gap": 0.20717, 
			 "cosmo_polarized_energy": -14.48, 
			 "cosmo_cavitation_energy": 34.12, 
			 "cosmo_dispersion_energy": -24.14, 
			 "cosmo_repulsion_energy": 1.89, 
			 "cosmo_total_nonelectrostatic_energy": 11.87, 
			 "SMD_solvation_energy": 6.17 
		},
		"coords": [
			{
				"x": 1.7056976182,
				"y": 1.0879420187,
				"z": -1.9165399094,
				"element": "C" 
			},
			{
				"x": 1.4562279927,
				"y": 1.6122888973,
				"z": -0.539567297,
				"element": "C" 
			},
			{
				"x": 2.1800411054,
				"y": 2.4920589965,
				"z": 0.2393638451,
				"element": "C" 
			},
			{
				"x": 1.4719771651,
				"y": 2.5775973256,
				"z": 1.4567989656,
				"element": "C" 
			},
			{
				"x": 0.3825491886,
				"y": 1.8085073181,
				"z": 1.4524847739,
				"element": "N" 
			},
			{
				"x": 0.3735073837,
				"y": 1.2321303681,
				"z": 0.2274328845,
				"element": "N" 
			},
			{
				"x": -0.6396551776,
				"y": 0.2820396789,
				"z": -0.0867610724,
				"element": "C" 
			},
			{
				"x": -1.6607684099,
				"y": 0.5598898351,
				"z": -1.0073895624,
				"element": "C" 
			},
			{
				"x": -1.7559258456,
				"y": 2.1137953606,
				"z": -1.8005072681,
				"element": "Cl" 
			},
			{
				"x": -2.6415373497,
				"y": -0.3915969609,
				"z": -1.2894577279,
				"element": "C" 
			},
			{
				"x": -2.604516792,
				"y": -1.6182246765,
				"z": -0.628963269,
				"element": "C" 
			},
			{
				"x": -3.8370017039,
				"y": -2.8099441771,
				"z": -0.9813372994,
				"element": "Cl" 
			},
			{
				"x": -1.611759463,
				"y": -1.9090374008,
				"z": 0.3075130909,
				"element": "C" 
			},
			{
				"x": -0.634972335,
				"y": -0.953313765,
				"z": 0.5680769854,
				"element": "C" 
			},
			{
				"x": 1.8009318823,
				"y": 3.3810893817,
				"z": 2.6629971014,
				"element": "C" 
			},
			{
				"x": 0.9090372925,
				"y": 3.2643388724,
				"z": 3.6718401912,
				"element": "O" 
			},
			{
				"x": 2.7823469391,
				"y": 4.0821961607,
				"z": 2.7472084078,
				"element": "O" 
			},
			{
				"x": 1.6438659919,
				"y": -0.0049505261,
				"z": -1.9494255096,
				"element": "H" 
			},
			{
				"x": 0.9849282201,
				"y": 1.4842302304,
				"z": -2.6392081323,
				"element": "H" 
			},
			{
				"x": 2.7060373603,
				"y": 1.3808457655,
				"z": -2.2411057915,
				"element": "H" 
			},
			{
				"x": 3.0954535527,
				"y": 3.0014623477,
				"z": -0.0187062712,
				"element": "H" 
			},
			{
				"x": -3.4259899388,
				"y": -0.1694741772,
				"z": -2.0021087018,
				"element": "H" 
			},
			{
				"x": -1.6030719607,
				"y": -2.8652320867,
				"z": 0.8172145438,
				"element": "H" 
			},
			{
				"x": 0.1488243869,
				"y": -1.1502460814,
				"z": 1.2914636537,
				"element": "H" 
			},
			{
				"x": 0.2026728967,
				"y": 2.6598072944,
				"z": 3.3817833688,
				"element": "H" 
			}
		],
		 "valence_orbital": [ 
			{
				"type": "occ",
				"energy": -0.28971,
				"method": "rhf"
			},
			{
				"type": "occ",
				"energy": -0.28311,
				"method": "rhf"
			},
			{
				"type": "occ",
				"energy": -0.26871,
				"method": "rhf"
			},
			{
				"type": "occ",
				"energy": -0.26485,
				"method": "rhf"
			},
			{
				"type": "occ",
				"energy": -0.26286,
				"method": "rhf"
			},
			{
				"type": "unocc",
				"energy": -0.05569,
				"method": "rhf"
			},
			{
				"type": "unocc",
				"energy": -0.04983,
				"method": "rhf"
			},
			{
				"type": "unocc",
				"energy": -0.03228,
				"method": "rhf"
			},
			{
				"type": "unocc",
				"energy": -0.0132,
				"method": "rhf"
			},
			{
				"type": "unocc",
				"energy": 0.01479,
				"method": "rhf"
			}
		],
		"cosmo_sigma_profile": { 
			"-0.025": 0.0,
			"-0.024": 0.0,
			"-0.023": 0.0,
			"-0.022": 0.0,
			"-0.021": 0.0,
			"-0.02": 0.0,
			"-0.019": 0.0,
			"-0.018": 0.0,
			"-0.017": 0.0,
			"-0.016": 0.0,
			"-0.015": 0.0711632207347,
			"-0.014": 0.750095734192,
			"-0.013": 0.395048242919,
			"-0.012": 0.839823248273,
			"-0.011": 0.43636790078,
			"-0.01": 0.741092017275,
			"-0.009": 2.72868556269,
			"-0.008": 7.35483379848,
			"-0.007": 8.07099156513,
			"-0.006": 10.9007868961,
			"-0.005": 13.4332436776,
			"-0.004": 15.3027756965,
			"-0.003": 20.2663543098,
			"-0.002": 22.9340158793,
			"-0.001": 27.1273943405,
			"0.0": 29.5025395181,
			"0.001": 24.7994130285,
			"0.002": 23.0250864871,
			"0.003": 22.2572360512,
			"0.004": 12.4907375505,
			"0.005": 4.13617779594,
			"0.006": 3.28292331474,
			"0.007": 3.87426521148,
			"0.008": 3.13893449192,
			"0.009": 3.68087608228,
			"0.01": 5.26737343815,
			"0.011": 5.04039227579,
			"0.012": 5.19067345638,
			"0.013": 1.52619737877,
			"0.014": 0.0705263166803,
			"0.015": 0.0,
			"0.016": 0.0,
			"0.017": 0.0,
			"0.018": 0.0,
			"0.019": 0.0,
			"0.02": 0.0,
			"0.021": 0.0,
			"0.022": 0.0,
			"0.023": 0.0,
			"0.024": 0.0,
			"0.025": 0.0
		}
	}
}
