{
	 "smiles": "CC=CC(=O)N1C(CC2=CC=CC=C2)COC1=O", 
	 "Tm": 357.65, 
	 "num_atms": 33, 
	 "gaussian": { 
		 "optdone": 1, 
		 "sigma_profile": "yes", 
		 "theory": "DFT", 
		 "functional": "B3LYP", 
		 "basiset": "6-31G**", 
		 "properties": { 
			 "R2extent": 6000.5374, 
			 "electric_dipole_moment_norm": 2.72446846376, 
			 "electric_quadrupole_moment_norm": 19.1836856433, 
			 "total_energy": -822.964326671, 
			 "HOMO_LUMO_gap": 0.2008, 
			 "cosmo_polarized_energy": -14.1, 
			 "cosmo_cavitation_energy": 36.81, 
			 "cosmo_dispersion_energy": -25.67, 
			 "cosmo_repulsion_energy": 1.99, 
			 "cosmo_total_nonelectrostatic_energy": 13.14, 
			 "SMD_solvation_energy": 7.69 
		},
		"coords": [
			{
				"x": -3.6302671741,
				"y": 3.3166082909,
				"z": 3.2960219947,
				"element": "C" 
			},
			{
				"x": -2.8020187907,
				"y": 2.5982361514,
				"z": 2.2791475975,
				"element": "C" 
			},
			{
				"x": -3.1919836024,
				"y": 1.4931050318,
				"z": 1.629747262,
				"element": "C" 
			},
			{
				"x": -2.380406175,
				"y": 0.6877560116,
				"z": 0.7005015314,
				"element": "C" 
			},
			{
				"x": -2.6128484626,
				"y": -0.5030894608,
				"z": 0.5348508883,
				"element": "O" 
			},
			{
				"x": -1.2591474973,
				"y": 1.2547090103,
				"z": 0.0343595304,
				"element": "N" 
			},
			{
				"x": -0.3556814413,
				"y": 0.3333502077,
				"z": -0.6818922024,
				"element": "C" 
			},
			{
				"x": 0.4405102844,
				"y": -0.5954204763,
				"z": 0.2517456311,
				"element": "C" 
			},
			{
				"x": 1.3700235084,
				"y": -1.5090809898,
				"z": -0.5211457585,
				"element": "C" 
			},
			{
				"x": 0.8542698618,
				"y": -2.6056800267,
				"z": -1.2290152379,
				"element": "C" 
			},
			{
				"x": 1.694624915,
				"y": -3.4379459003,
				"z": -1.9679332953,
				"element": "C" 
			},
			{
				"x": 3.0688399357,
				"y": -3.1896834709,
				"z": -2.0097516276,
				"element": "C" 
			},
			{
				"x": 3.59510443,
				"y": -2.1065842585,
				"z": -1.3052702665,
				"element": "C" 
			},
			{
				"x": 2.7504229578,
				"y": -1.2738136484,
				"z": -0.5677736742,
				"element": "C" 
			},
			{
				"x": 0.5234526214,
				"y": 1.3358430516,
				"z": -1.4459336296,
				"element": "C" 
			},
			{
				"x": -0.2394026752,
				"y": 2.5516662547,
				"z": -1.4948592995,
				"element": "O" 
			},
			{
				"x": -1.2366295818,
				"y": 2.5298611114,
				"z": -0.573123628,
				"element": "C" 
			},
			{
				"x": -1.9526349328,
				"y": 3.4750814116,
				"z": -0.366766999,
				"element": "O" 
			},
			{
				"x": -3.8125242386,
				"y": 4.3487892174,
				"z": 2.9715098331,
				"element": "H" 
			},
			{
				"x": -4.5946698409,
				"y": 2.8284753966,
				"z": 3.4598232523,
				"element": "H" 
			},
			{
				"x": -3.103138223,
				"y": 3.3805320417,
				"z": 4.2561910837,
				"element": "H" 
			},
			{
				"x": -1.8272427066,
				"y": 3.0266851915,
				"z": 2.065439968,
				"element": "H" 
			},
			{
				"x": -4.1481322609,
				"y": 1.0261709608,
				"z": 1.8515227405,
				"element": "H" 
			},
			{
				"x": -0.9482459523,
				"y": -0.2782367342,
				"z": -1.3712756478,
				"element": "H" 
			},
			{
				"x": -0.2751319083,
				"y": -1.187694974,
				"z": 0.8272182379,
				"element": "H" 
			},
			{
				"x": 1.0092419255,
				"y": 0.0200784212,
				"z": 0.9581511466,
				"element": "H" 
			},
			{
				"x": -0.2128304843,
				"y": -2.8115136303,
				"z": -1.1899319191,
				"element": "H" 
			},
			{
				"x": 1.2778095436,
				"y": -4.2844727119,
				"z": -2.5062987775,
				"element": "H" 
			},
			{
				"x": 3.7241665189,
				"y": -3.8397560896,
				"z": -2.5821348583,
				"element": "H" 
			},
			{
				"x": 4.6634185157,
				"y": -1.910287657,
				"z": -1.3249194389,
				"element": "H" 
			},
			{
				"x": 3.1702475081,
				"y": -0.4385731531,
				"z": -0.0119870996,
				"element": "H" 
			},
			{
				"x": 1.4635817565,
				"y": 1.5358176227,
				"z": -0.9195502712,
				"element": "H" 
			},
			{
				"x": 0.7470216654,
				"y": 1.0255677969,
				"z": -2.467267067,
				"element": "H" 
			}
		],
		 "valence_orbital": [ 
			{
				"type": "occ",
				"energy": -0.27914,
				"method": "rhf"
			},
			{
				"type": "occ",
				"energy": -0.2687,
				"method": "rhf"
			},
			{
				"type": "occ",
				"energy": -0.26103,
				"method": "rhf"
			},
			{
				"type": "occ",
				"energy": -0.25669,
				"method": "rhf"
			},
			{
				"type": "occ",
				"energy": -0.24952,
				"method": "rhf"
			},
			{
				"type": "unocc",
				"energy": -0.04872,
				"method": "rhf"
			},
			{
				"type": "unocc",
				"energy": -0.0108,
				"method": "rhf"
			},
			{
				"type": "unocc",
				"energy": -0.00824,
				"method": "rhf"
			},
			{
				"type": "unocc",
				"energy": 0.03209,
				"method": "rhf"
			},
			{
				"type": "unocc",
				"energy": 0.07133,
				"method": "rhf"
			}
		],
		"cosmo_sigma_profile": { 
			"-0.025": 0.0,
			"-0.024": 0.0,
			"-0.023": 0.0,
			"-0.022": 0.0,
			"-0.021": 0.0,
			"-0.02": 0.0,
			"-0.019": 0.0,
			"-0.018": 0.0,
			"-0.017": 0.0,
			"-0.016": 0.0,
			"-0.015": 0.0,
			"-0.014": 0.0,
			"-0.013": 0.0,
			"-0.012": 0.0,
			"-0.011": 0.0,
			"-0.01": 0.0,
			"-0.009": 0.0,
			"-0.008": 0.803987426942,
			"-0.007": 7.85572616014,
			"-0.006": 17.3145718475,
			"-0.005": 28.2863335152,
			"-0.004": 31.0871911731,
			"-0.003": 29.4366431566,
			"-0.002": 25.8447368009,
			"-0.001": 25.3414861675,
			"0.0": 18.1964658072,
			"0.001": 12.5232757441,
			"0.002": 13.4039921499,
			"0.003": 12.9112352537,
			"0.004": 11.129986524,
			"0.005": 12.6375957044,
			"0.006": 10.1188726043,
			"0.007": 4.19248137156,
			"0.008": 4.773866297,
			"0.009": 5.88783166661,
			"0.01": 4.78988665839,
			"0.011": 7.14332500907,
			"0.012": 6.53877080467,
			"0.013": 1.77700981659,
			"0.014": 0.034027508566,
			"0.015": 0.0,
			"0.016": 0.0,
			"0.017": 0.0,
			"0.018": 0.0,
			"0.019": 0.0,
			"0.02": 0.0,
			"0.021": 0.0,
			"0.022": 0.0,
			"0.023": 0.0,
			"0.024": 0.0,
			"0.025": 0.0
		}
	}
}
