{
	 "smiles": "C[N+](C)(C)CC([O-])=O", 
	 "Tm": 574.15, 
	 "num_atms": 19, 
	 "gaussian": { 
		 "optdone": 1, 
		 "sigma_profile": "yes", 
		 "theory": "DFT", 
		 "functional": "B3LYP", 
		 "basiset": "6-31G**", 
		 "properties": { 
			 "R2extent": 1295.6874, 
			 "electric_dipole_moment_norm": 10.6867497547, 
			 "electric_quadrupole_moment_norm": 20.7176593031, 
			 "total_energy": -402.312059555, 
			 "HOMO_LUMO_gap": 0.20797, 
			 "cosmo_polarized_energy": -36.03, 
			 "cosmo_cavitation_energy": 20.76, 
			 "cosmo_dispersion_energy": -15.01, 
			 "cosmo_repulsion_energy": 1.21, 
			 "cosmo_total_nonelectrostatic_energy": 6.97, 
			 "SMD_solvation_energy": 6.37 
		},
		"coords": [
			{
				"x": -0.828894011,
				"y": 1.8065627886,
				"z": 1.4057957117,
				"element": "C" 
			},
			{
				"x": -0.3811863113,
				"y": 0.4201179038,
				"z": 1.0126490815,
				"element": "N" 
			},
			{
				"x": 0.5040531939,
				"y": -0.1557005949,
				"z": 2.0906344284,
				"element": "C" 
			},
			{
				"x": -1.5866284311,
				"y": -0.4544633954,
				"z": 0.8528273049,
				"element": "C" 
			},
			{
				"x": 0.395053142,
				"y": 0.4853070804,
				"z": -0.3112142065,
				"element": "C" 
			},
			{
				"x": 1.672524451,
				"y": 1.4170226863,
				"z": -0.1265069695,
				"element": "C" 
			},
			{
				"x": 2.6780298017,
				"y": 0.8049893066,
				"z": 0.2890169964,
				"element": "O" 
			},
			{
				"x": 1.4422806827,
				"y": 2.6245995707,
				"z": -0.3435067456,
				"element": "O" 
			},
			{
				"x": -1.2933826929,
				"y": 1.7541038846,
				"z": 2.3919903301,
				"element": "H" 
			},
			{
				"x": -1.549763585,
				"y": 2.1540747716,
				"z": 0.6650967619,
				"element": "H" 
			},
			{
				"x": 0.0365705343,
				"y": 2.4680151145,
				"z": 1.3781297781,
				"element": "H" 
			},
			{
				"x": 1.4408585957,
				"y": 0.4007017826,
				"z": 2.0998118848,
				"element": "H" 
			},
			{
				"x": 0.7234870452,
				"y": -1.1922788257,
				"z": 1.8329435802,
				"element": "H" 
			},
			{
				"x": -0.0300264017,
				"y": -0.1057895697,
				"z": 3.0410775064,
				"element": "H" 
			},
			{
				"x": -2.1337791107,
				"y": -0.4960888807,
				"z": 1.797740653,
				"element": "H" 
			},
			{
				"x": -2.2232314849,
				"y": -0.0375772684,
				"z": 0.0719087717,
				"element": "H" 
			},
			{
				"x": -1.2606959753,
				"y": -1.4548952413,
				"z": 0.5668180166,
				"element": "H" 
			},
			{
				"x": 0.6689122392,
				"y": -0.5451877163,
				"z": -0.5488649656,
				"element": "H" 
			},
			{
				"x": -0.3035816819,
				"y": 0.8873866026,
				"z": -1.0485479186,
				"element": "H" 
			}
		],
		 "valence_orbital": [ 
			{
				"type": "occ",
				"energy": -0.34678,
				"method": "rhf"
			},
			{
				"type": "occ",
				"energy": -0.33844,
				"method": "rhf"
			},
			{
				"type": "occ",
				"energy": -0.2037,
				"method": "rhf"
			},
			{
				"type": "occ",
				"energy": -0.19193,
				"method": "rhf"
			},
			{
				"type": "occ",
				"energy": -0.1881,
				"method": "rhf"
			},
			{
				"type": "unocc",
				"energy": 0.01987,
				"method": "rhf"
			},
			{
				"type": "unocc",
				"energy": 0.05612,
				"method": "rhf"
			},
			{
				"type": "unocc",
				"energy": 0.077,
				"method": "rhf"
			},
			{
				"type": "unocc",
				"energy": 0.07853,
				"method": "rhf"
			},
			{
				"type": "unocc",
				"energy": 0.0956,
				"method": "rhf"
			}
		],
		"cosmo_sigma_profile": { 
			"-0.025": 0.0,
			"-0.024": 0.0,
			"-0.023": 0.0,
			"-0.022": 0.0,
			"-0.021": 0.0,
			"-0.02": 0.0,
			"-0.019": 0.0,
			"-0.018": 0.0,
			"-0.017": 0.0,
			"-0.016": 0.0,
			"-0.015": 0.0,
			"-0.014": 0.0,
			"-0.013": 0.0632382095691,
			"-0.012": 0.698328229794,
			"-0.011": 2.14987641079,
			"-0.01": 4.34605607921,
			"-0.009": 7.50127714684,
			"-0.008": 12.7190154931,
			"-0.007": 14.8159174356,
			"-0.006": 14.6788908465,
			"-0.005": 18.2311137081,
			"-0.004": 19.5252317295,
			"-0.003": 8.56017099434,
			"-0.002": 2.72433394544,
			"-0.001": 1.87741824172,
			"0.0": 2.01151280957,
			"0.001": 2.18757565686,
			"0.002": 1.46497867854,
			"0.003": 0.849105579069,
			"0.004": 1.58959969962,
			"0.005": 2.35371835009,
			"0.006": 1.46736689129,
			"0.007": 1.44788793236,
			"0.008": 2.1000210241,
			"0.009": 1.91948820798,
			"0.01": 1.62792895479,
			"0.011": 1.98450908478,
			"0.012": 2.55945804425,
			"0.013": 1.689269036,
			"0.014": 2.38274864451,
			"0.015": 3.86277707037,
			"0.016": 8.03751000677,
			"0.017": 7.07451976766,
			"0.018": 3.8710220527,
			"0.019": 3.05478647318,
			"0.02": 0.0706504880747,
			"0.021": 0.0,
			"0.022": 0.0,
			"0.023": 0.0,
			"0.024": 0.0,
			"0.025": 0.0
		}
	}
}
