{
	 "smiles": "CC1=NC(=NC(Cl)=C1Cl)C1=NC=CC=C1", 
	 "Tm": 401.15, 
	 "num_atms": 22, 
	 "gaussian": { 
		 "optdone": 1, 
		 "sigma_profile": "yes", 
		 "theory": "DFT", 
		 "functional": "B3LYP", 
		 "basiset": "6-31G**", 
		 "properties": { 
			 "R2extent": 5773.3323, 
			 "electric_dipole_moment_norm": 3.81487444354, 
			 "electric_quadrupole_moment_norm": 14.9074560653, 
			 "total_energy": -1469.92139909, 
			 "HOMO_LUMO_gap": 0.179, 
			 "cosmo_polarized_energy": -10.94, 
			 "cosmo_cavitation_energy": 30.59, 
			 "cosmo_dispersion_energy": -22.79, 
			 "cosmo_repulsion_energy": 1.78, 
			 "cosmo_total_nonelectrostatic_energy": 9.58, 
			 "SMD_solvation_energy": 1.38 
		},
		"coords": [
			{
				"x": 2.3277285278,
				"y": 0.3631486709,
				"z": 2.4395408198,
				"element": "C" 
			},
			{
				"x": 1.4112345722,
				"y": -0.6382409393,
				"z": 1.7947199272,
				"element": "C" 
			},
			{
				"x": 0.7932602604,
				"y": -0.2755441519,
				"z": 0.6653971276,
				"element": "N" 
			},
			{
				"x": -0.0285783291,
				"y": -1.1567314602,
				"z": 0.0760076899,
				"element": "C" 
			},
			{
				"x": -0.2845274735,
				"y": -2.3900332274,
				"z": 0.5338933623,
				"element": "N" 
			},
			{
				"x": 0.3180156604,
				"y": -2.7584470613,
				"z": 1.6449534271,
				"element": "C" 
			},
			{
				"x": -0.0252428707,
				"y": -4.3695280368,
				"z": 2.2302066691,
				"element": "Cl" 
			},
			{
				"x": 1.1958495558,
				"y": -1.9165209603,
				"z": 2.341165378,
				"element": "C" 
			},
			{
				"x": 1.9932597755,
				"y": -2.4004157075,
				"z": 3.809297604,
				"element": "Cl" 
			},
			{
				"x": -0.7023256081,
				"y": -0.7204931318,
				"z": -1.1826796624,
				"element": "C" 
			},
			{
				"x": -1.5247494092,
				"y": -1.6014811101,
				"z": -1.7736700122,
				"element": "N" 
			},
			{
				"x": -2.1336613513,
				"y": -1.225484352,
				"z": -2.8988512861,
				"element": "C" 
			},
			{
				"x": -1.9630389102,
				"y": 0.0286733877,
				"z": -3.4927094289,
				"element": "C" 
			},
			{
				"x": -1.1077131131,
				"y": 0.9383763822,
				"z": -2.8737603333,
				"element": "C" 
			},
			{
				"x": -0.4635766866,
				"y": 0.5622142139,
				"z": -1.6979377953,
				"element": "C" 
			},
			{
				"x": 2.3373282093,
				"y": 1.275138448,
				"z": 1.8425291995,
				"element": "H" 
			},
			{
				"x": 3.3459536687,
				"y": -0.0318142075,
				"z": 2.5184106392,
				"element": "H" 
			},
			{
				"x": 1.9983070102,
				"y": 0.5970171097,
				"z": 3.4572823187,
				"element": "H" 
			},
			{
				"x": -2.7938319053,
				"y": -1.9625259232,
				"z": -3.3532803399,
				"element": "H" 
			},
			{
				"x": -2.4865770423,
				"y": 0.2776217556,
				"z": -4.4103962816,
				"element": "H" 
			},
			{
				"x": -0.9436456014,
				"y": 1.9247419186,
				"z": -3.297940101,
				"element": "H" 
			},
			{
				"x": 0.2110310604,
				"y": 1.2295283826,
				"z": -1.1761789217,
				"element": "H" 
			}
		],
		 "valence_orbital": [ 
			{
				"type": "occ",
				"energy": -0.29397,
				"method": "rhf"
			},
			{
				"type": "occ",
				"energy": -0.2853,
				"method": "rhf"
			},
			{
				"type": "occ",
				"energy": -0.27052,
				"method": "rhf"
			},
			{
				"type": "occ",
				"energy": -0.25189,
				"method": "rhf"
			},
			{
				"type": "occ",
				"energy": -0.25048,
				"method": "rhf"
			},
			{
				"type": "unocc",
				"energy": -0.07148,
				"method": "rhf"
			},
			{
				"type": "unocc",
				"energy": -0.05168,
				"method": "rhf"
			},
			{
				"type": "unocc",
				"energy": -0.02239,
				"method": "rhf"
			},
			{
				"type": "unocc",
				"energy": 0.00364,
				"method": "rhf"
			},
			{
				"type": "unocc",
				"energy": 0.00891,
				"method": "rhf"
			}
		],
		"cosmo_sigma_profile": { 
			"-0.025": 0.0,
			"-0.024": 0.0,
			"-0.023": 0.0,
			"-0.022": 0.0,
			"-0.021": 0.0,
			"-0.02": 0.0,
			"-0.019": 0.0,
			"-0.018": 0.0,
			"-0.017": 0.0,
			"-0.016": 0.0,
			"-0.015": 0.0,
			"-0.014": 0.0,
			"-0.013": 0.0,
			"-0.012": 0.0,
			"-0.011": 0.0,
			"-0.01": 0.0,
			"-0.009": 0.0,
			"-0.008": 1.03238895365,
			"-0.007": 5.50302508184,
			"-0.006": 13.0492378243,
			"-0.005": 16.6940089249,
			"-0.004": 19.0218507998,
			"-0.003": 22.7673810219,
			"-0.002": 22.8246201359,
			"-0.001": 22.7492987019,
			"0.0": 17.7259752903,
			"0.001": 26.0465478261,
			"0.002": 26.247443021,
			"0.003": 20.9640598562,
			"0.004": 10.7455729762,
			"0.005": 5.16180220233,
			"0.006": 3.31016377641,
			"0.007": 3.85376793479,
			"0.008": 1.70822331079,
			"0.009": 1.6076787352,
			"0.01": 2.20597499595,
			"0.011": 0.52001181978,
			"0.012": 0.959888125425,
			"0.013": 0.844333940178,
			"0.014": 1.50752001439,
			"0.015": 1.16359174368,
			"0.016": 0.687032783381,
			"0.017": 0.816089068897,
			"0.018": 0.870714097456,
			"0.019": 0.587213380463,
			"0.02": 0.0,
			"0.021": 0.0,
			"0.022": 0.0,
			"0.023": 0.0,
			"0.024": 0.0,
			"0.025": 0.0
		}
	}
}
