{
	 "smiles": "OC(=O)C1=CC(=NC=C1)N1CCOCC1", 
	 "Tm": 453.15, 
	 "num_atms": 27, 
	 "gaussian": { 
		 "optdone": 1, 
		 "sigma_profile": "yes", 
		 "theory": "DFT", 
		 "functional": "B3LYP", 
		 "basiset": "6-31G**", 
		 "properties": { 
			 "R2extent": 4603.2335, 
			 "electric_dipole_moment_norm": 4.59986959924, 
			 "electric_quadrupole_moment_norm": 23.6264125461, 
			 "total_energy": -723.453972994, 
			 "HOMO_LUMO_gap": 0.15588, 
			 "cosmo_polarized_energy": -17.64, 
			 "cosmo_cavitation_energy": 29.89, 
			 "cosmo_dispersion_energy": -22.35, 
			 "cosmo_repulsion_energy": 1.75, 
			 "cosmo_total_nonelectrostatic_energy": 9.3, 
			 "SMD_solvation_energy": 4.53 
		},
		"coords": [
			{
				"x": -2.6318399326,
				"y": -4.402782603,
				"z": -0.3045907355,
				"element": "O" 
			},
			{
				"x": -2.8474469586,
				"y": -3.5536060603,
				"z": -1.3441812437,
				"element": "C" 
			},
			{
				"x": -3.3736689753,
				"y": -3.9479938724,
				"z": -2.3561254473,
				"element": "O" 
			},
			{
				"x": -2.3988744568,
				"y": -2.1314945068,
				"z": -1.14732955,
				"element": "C" 
			},
			{
				"x": -1.3681084044,
				"y": -1.7961166123,
				"z": -0.2715221035,
				"element": "C" 
			},
			{
				"x": -0.9919881899,
				"y": -0.4334532006,
				"z": -0.1511323824,
				"element": "C" 
			},
			{
				"x": -1.6170561891,
				"y": 0.5311714141,
				"z": -0.8544579365,
				"element": "N" 
			},
			{
				"x": -2.5921021205,
				"y": 0.178960695,
				"z": -1.696121518,
				"element": "C" 
			},
			{
				"x": -3.025774476,
				"y": -1.1279114883,
				"z": -1.8944904,
				"element": "C" 
			},
			{
				"x": 0.0260125937,
				"y": -0.0445159561,
				"z": 0.6859175398,
				"element": "N" 
			},
			{
				"x": 0.443300038,
				"y": 1.3509155923,
				"z": 0.795704333,
				"element": "C" 
			},
			{
				"x": 1.9677164548,
				"y": 1.4537287486,
				"z": 0.7287931494,
				"element": "C" 
			},
			{
				"x": 2.6425022002,
				"y": 0.5094246822,
				"z": 1.5713213108,
				"element": "O" 
			},
			{
				"x": 1.7817513164,
				"y": -0.2820349321,
				"z": 2.3662955865,
				"element": "C" 
			},
			{
				"x": 0.742412234,
				"y": -1.0110506768,
				"z": 1.5130649484,
				"element": "C" 
			},
			{
				"x": -2.3558524658,
				"y": -3.9001697964,
				"z": 0.4750724426,
				"element": "H" 
			},
			{
				"x": -0.8221075375,
				"y": -2.5648230389,
				"z": 0.2627444325,
				"element": "H" 
			},
			{
				"x": -3.0560367845,
				"y": 0.9973811879,
				"z": -2.2442707092,
				"element": "H" 
			},
			{
				"x": -3.8166523354,
				"y": -1.3751478332,
				"z": -2.5914397408,
				"element": "H" 
			},
			{
				"x": -0.0082190928,
				"y": 1.9061394212,
				"z": -0.0259845961,
				"element": "H" 
			},
			{
				"x": 0.0665684149,
				"y": 1.7926429247,
				"z": 1.7291594369,
				"element": "H" 
			},
			{
				"x": 2.2756516183,
				"y": 2.4696471309,
				"z": 1.0127036033,
				"element": "H" 
			},
			{
				"x": 2.3057569874,
				"y": 1.271827585,
				"z": -0.298911445,
				"element": "H" 
			},
			{
				"x": 2.4150365241,
				"y": -1.0149583131,
				"z": 2.8734952568,
				"element": "H" 
			},
			{
				"x": 1.2822191987,
				"y": 0.3159010658,
				"z": 3.1446392284,
				"element": "H" 
			},
			{
				"x": 1.2553563656,
				"y": -1.7503937167,
				"z": 0.8806562173,
				"element": "H" 
			},
			{
				"x": 0.0501439731,
				"y": -1.5594878406,
				"z": 2.1712903222,
				"element": "H" 
			}
		],
		 "valence_orbital": [ 
			{
				"type": "occ",
				"energy": -0.29316,
				"method": "rhf"
			},
			{
				"type": "occ",
				"energy": -0.27794,
				"method": "rhf"
			},
			{
				"type": "occ",
				"energy": -0.26761,
				"method": "rhf"
			},
			{
				"type": "occ",
				"energy": -0.26166,
				"method": "rhf"
			},
			{
				"type": "occ",
				"energy": -0.21545,
				"method": "rhf"
			},
			{
				"type": "unocc",
				"energy": -0.05957,
				"method": "rhf"
			},
			{
				"type": "unocc",
				"energy": -0.00832,
				"method": "rhf"
			},
			{
				"type": "unocc",
				"energy": 0.0427,
				"method": "rhf"
			},
			{
				"type": "unocc",
				"energy": 0.05763,
				"method": "rhf"
			},
			{
				"type": "unocc",
				"energy": 0.0798,
				"method": "rhf"
			}
		],
		"cosmo_sigma_profile": { 
			"-0.025": 0.0,
			"-0.024": 0.0,
			"-0.023": 0.0,
			"-0.022": 0.0,
			"-0.021": 0.0,
			"-0.02": 0.0,
			"-0.019": 0.0675853551892,
			"-0.018": 0.574583214443,
			"-0.017": 0.877844667524,
			"-0.016": 0.948026104249,
			"-0.015": 1.72959424925,
			"-0.014": 0.668338768366,
			"-0.013": 0.406988133504,
			"-0.012": 1.60456495747,
			"-0.011": 1.23401557208,
			"-0.01": 1.05802412503,
			"-0.009": 1.24583470011,
			"-0.008": 1.81594549934,
			"-0.007": 3.4754259889,
			"-0.006": 8.84019975969,
			"-0.005": 25.2638081216,
			"-0.004": 29.1729768709,
			"-0.003": 19.4284676534,
			"-0.002": 14.5132947123,
			"-0.001": 12.7398644094,
			"0.0": 10.5158952585,
			"0.001": 15.2847424628,
			"0.002": 15.0442873153,
			"0.003": 11.4785653913,
			"0.004": 6.75454037608,
			"0.005": 5.68000224579,
			"0.006": 4.80959180443,
			"0.007": 6.03496955808,
			"0.008": 6.16404007501,
			"0.009": 5.31598282293,
			"0.01": 7.77426273214,
			"0.011": 7.84723076383,
			"0.012": 5.42717093802,
			"0.013": 2.43526034974,
			"0.014": 0.38064914723,
			"0.015": 0.0,
			"0.016": 0.0,
			"0.017": 0.0,
			"0.018": 0.0,
			"0.019": 0.0,
			"0.02": 0.0,
			"0.021": 0.0,
			"0.022": 0.0,
			"0.023": 0.0,
			"0.024": 0.0,
			"0.025": 0.0
		}
	}
}
