{
	 "smiles": "OC(=O)C(NC1CC1)C1=CC(Br)=CS1", 
	 "Tm": 429.15, 
	 "num_atms": 24, 
	 "gaussian": { 
		 "optdone": 1, 
		 "sigma_profile": "yes", 
		 "theory": "DFT", 
		 "functional": "B3LYP", 
		 "basiset": "6-31G**", 
		 "properties": { 
			 "R2extent": 6420.9938, 
			 "electric_dipole_moment_norm": 1.77351723984, 
			 "electric_quadrupole_moment_norm": 7.6449543151, 
			 "total_energy": -3523.72386266, 
			 "HOMO_LUMO_gap": 0.20012, 
			 "cosmo_polarized_energy": -12.9, 
			 "cosmo_cavitation_energy": 31.74, 
			 "cosmo_dispersion_energy": -23.23, 
			 "cosmo_repulsion_energy": 1.81, 
			 "cosmo_total_nonelectrostatic_energy": 10.33, 
			 "SMD_solvation_energy": 3.37 
		},
		"coords": [
			{
				"x": -2.1008963381,
				"y": -3.4714505095,
				"z": 1.3196011843,
				"element": "O" 
			},
			{
				"x": -1.9599117201,
				"y": -2.1526799299,
				"z": 1.0777891865,
				"element": "C" 
			},
			{
				"x": -2.8659601563,
				"y": -1.4556069399,
				"z": 0.6779389831,
				"element": "O" 
			},
			{
				"x": -0.530653099,
				"y": -1.6822633602,
				"z": 1.354437761,
				"element": "C" 
			},
			{
				"x": 0.323560284,
				"y": -2.0933244662,
				"z": 0.2213403689,
				"element": "N" 
			},
			{
				"x": 0.0018123118,
				"y": -1.5454594735,
				"z": -1.0753907031,
				"element": "C" 
			},
			{
				"x": -0.8965527656,
				"y": -2.3616031944,
				"z": -1.9730331332,
				"element": "C" 
			},
			{
				"x": 0.5805655193,
				"y": -2.2676133494,
				"z": -2.2640015801,
				"element": "C" 
			},
			{
				"x": -0.44939344,
				"y": -0.2208024983,
				"z": 1.7456727983,
				"element": "C" 
			},
			{
				"x": 0.4705886316,
				"y": 0.289571359,
				"z": 2.6277043186,
				"element": "C" 
			},
			{
				"x": 0.4102857479,
				"y": 1.7091902591,
				"z": 2.7250751448,
				"element": "C" 
			},
			{
				"x": 1.5474218293,
				"y": 2.7042195888,
				"z": 3.8773689242,
				"element": "Br" 
			},
			{
				"x": -0.5409570719,
				"y": 2.2753758192,
				"z": 1.9267941002,
				"element": "C" 
			},
			{
				"x": -1.4074507299,
				"y": 1.0628116801,
				"z": 1.042416799,
				"element": "S" 
			},
			{
				"x": -3.0199344054,
				"y": -3.6938432475,
				"z": 1.0923089764,
				"element": "H" 
			},
			{
				"x": -0.1724113033,
				"y": -2.2570572029,
				"z": 2.2156005023,
				"element": "H" 
			},
			{
				"x": 1.2863912564,
				"y": -1.871000048,
				"z": 0.4621132909,
				"element": "H" 
			},
			{
				"x": -0.084781867,
				"y": -0.4603327278,
				"z": -1.1608493161,
				"element": "H" 
			},
			{
				"x": -1.2599201197,
				"y": -3.3023956466,
				"z": -1.573183314,
				"element": "H" 
			},
			{
				"x": -1.5942864142,
				"y": -1.8325062879,
				"z": -2.6140193632,
				"element": "H" 
			},
			{
				"x": 1.1844066416,
				"y": -3.1456443721,
				"z": -2.0575138558,
				"element": "H" 
			},
			{
				"x": 0.9113347893,
				"y": -1.6728347073,
				"z": -3.1096252666,
				"element": "H" 
			},
			{
				"x": 1.169078164,
				"y": -0.3178572394,
				"z": 3.1915286296,
				"element": "H" 
			},
			{
				"x": -0.7993357445,
				"y": 3.3200064945,
				"z": 1.833325564,
				"element": "H" 
			}
		],
		 "valence_orbital": [ 
			{
				"type": "occ",
				"energy": -0.28913,
				"method": "rhf"
			},
			{
				"type": "occ",
				"energy": -0.28487,
				"method": "rhf"
			},
			{
				"type": "occ",
				"energy": -0.25667,
				"method": "rhf"
			},
			{
				"type": "occ",
				"energy": -0.24005,
				"method": "rhf"
			},
			{
				"type": "occ",
				"energy": -0.22892,
				"method": "rhf"
			},
			{
				"type": "unocc",
				"energy": -0.0288,
				"method": "rhf"
			},
			{
				"type": "unocc",
				"energy": -0.00223,
				"method": "rhf"
			},
			{
				"type": "unocc",
				"energy": 0.00457,
				"method": "rhf"
			},
			{
				"type": "unocc",
				"energy": 0.03871,
				"method": "rhf"
			},
			{
				"type": "unocc",
				"energy": 0.05027,
				"method": "rhf"
			}
		],
		"cosmo_sigma_profile": { 
			"-0.025": 0.0,
			"-0.024": 0.0,
			"-0.023": 0.0,
			"-0.022": 0.0,
			"-0.021": 0.0,
			"-0.02": 0.0,
			"-0.019": 0.26283725213,
			"-0.018": 1.00961058175,
			"-0.017": 0.849031500943,
			"-0.016": 0.876007680423,
			"-0.015": 1.18508881126,
			"-0.014": 0.283539325382,
			"-0.013": 0.284640604728,
			"-0.012": 0.895786990019,
			"-0.011": 2.04803776374,
			"-0.01": 1.81253815473,
			"-0.009": 4.29928840578,
			"-0.008": 7.43581333006,
			"-0.007": 7.22324449791,
			"-0.006": 7.18682074008,
			"-0.005": 9.08027595336,
			"-0.004": 14.4480954222,
			"-0.003": 18.0005178361,
			"-0.002": 16.596153795,
			"-0.001": 16.9710267847,
			"0.0": 18.1863288817,
			"0.001": 19.0335342589,
			"0.002": 21.1862194118,
			"0.003": 27.3002898365,
			"0.004": 21.0590086814,
			"0.005": 11.7865549238,
			"0.006": 4.61220103577,
			"0.007": 4.24448304273,
			"0.008": 4.00693302959,
			"0.009": 3.90746681101,
			"0.01": 4.45796784815,
			"0.011": 4.32932534488,
			"0.012": 0.87561058185,
			"0.013": 0.520563563407,
			"0.014": 0.457938547378,
			"0.015": 0.0586709619302,
			"0.016": 0.0,
			"0.017": 0.0,
			"0.018": 0.0,
			"0.019": 0.0,
			"0.02": 0.0,
			"0.021": 0.0,
			"0.022": 0.0,
			"0.023": 0.0,
			"0.024": 0.0,
			"0.025": 0.0
		}
	}
}
