{
	 "smiles": "CC1=C(C#N)C2=NC3=C(C=CC=C3)N2C(S)=C1", 
	 "Tm": 472.15, 
	 "num_atms": 26, 
	 "gaussian": { 
		 "optdone": 1, 
		 "sigma_profile": "yes", 
		 "theory": "DFT", 
		 "functional": "B3LYP", 
		 "basiset": "6-31G**", 
		 "properties": { 
			 "R2extent": 5407.3646, 
			 "electric_dipole_moment_norm": 7.25481861524, 
			 "electric_quadrupole_moment_norm": 19.7983215528, 
			 "total_energy": -1063.23571654, 
			 "HOMO_LUMO_gap": 0.1386, 
			 "cosmo_polarized_energy": -19.13, 
			 "cosmo_cavitation_energy": 32.24, 
			 "cosmo_dispersion_energy": -23.87, 
			 "cosmo_repulsion_energy": 1.76, 
			 "cosmo_total_nonelectrostatic_energy": 10.13, 
			 "SMD_solvation_energy": 4.34 
		},
		"coords": [
			{
				"x": -3.6337729156,
				"y": -1.0533744459,
				"z": -1.3430457058,
				"element": "C" 
			},
			{
				"x": -2.4414435186,
				"y": -1.1303005042,
				"z": -0.4266849528,
				"element": "C" 
			},
			{
				"x": -1.2928970592,
				"y": -0.3804149861,
				"z": -0.6334942262,
				"element": "C" 
			},
			{
				"x": -1.1689934843,
				"y": 0.518100905,
				"z": -1.7368192829,
				"element": "C" 
			},
			{
				"x": -1.1088259782,
				"y": 1.2387791601,
				"z": -2.6485829433,
				"element": "N" 
			},
			{
				"x": -0.1896737575,
				"y": -0.4941349987,
				"z": 0.2704722577,
				"element": "C" 
			},
			{
				"x": 0.9632878151,
				"y": 0.1281322108,
				"z": 0.2353889765,
				"element": "N" 
			},
			{
				"x": 1.6613584555,
				"y": -0.3369713194,
				"z": 1.3268455939,
				"element": "C" 
			},
			{
				"x": 0.9102329027,
				"y": -1.28623781,
				"z": 2.0685305179,
				"element": "C" 
			},
			{
				"x": 1.4236306506,
				"y": -1.8934345708,
				"z": 3.221406239,
				"element": "C" 
			},
			{
				"x": 2.7069977438,
				"y": -1.5274575827,
				"z": 3.6140859221,
				"element": "C" 
			},
			{
				"x": 3.4623361852,
				"y": -0.5861032511,
				"z": 2.8858635594,
				"element": "C" 
			},
			{
				"x": 2.953955171,
				"y": 0.0152673359,
				"z": 1.7439651709,
				"element": "C" 
			},
			{
				"x": -0.3066818462,
				"y": -1.3911850179,
				"z": 1.3763048989,
				"element": "N" 
			},
			{
				"x": -1.448340453,
				"y": -2.1320106851,
				"z": 1.5761225265,
				"element": "C" 
			},
			{
				"x": -1.4943616621,
				"y": -3.2176512861,
				"z": 2.9801722369,
				"element": "S" 
			},
			{
				"x": -2.494586224,
				"y": -2.0042787255,
				"z": 0.692588045,
				"element": "C" 
			},
			{
				"x": -3.4720033487,
				"y": -0.3511579127,
				"z": -2.1617151177,
				"element": "H" 
			},
			{
				"x": -4.5242944767,
				"y": -0.7371198244,
				"z": -0.788050305,
				"element": "H" 
			},
			{
				"x": -3.8525467645,
				"y": -2.0381605077,
				"z": -1.7712948952,
				"element": "H" 
			},
			{
				"x": 0.8692900784,
				"y": -2.6191826689,
				"z": 3.8017784589,
				"element": "H" 
			},
			{
				"x": 3.1328673366,
				"y": -1.9806501547,
				"z": 4.5037154511,
				"element": "H" 
			},
			{
				"x": 4.4603078679,
				"y": -0.3300916273,
				"z": 3.2289656632,
				"element": "H" 
			},
			{
				"x": 3.522592848,
				"y": 0.7411595498,
				"z": 1.1728790141,
				"element": "H" 
			},
			{
				"x": -2.7367729006,
				"y": -3.6659620913,
				"z": 2.7258652091,
				"element": "H" 
			},
			{
				"x": -3.3918626657,
				"y": -2.590259191,
				"z": 0.854437688,
				"element": "H" 
			}
		],
		 "valence_orbital": [ 
			{
				"type": "occ",
				"energy": -0.30113,
				"method": "rhf"
			},
			{
				"type": "occ",
				"energy": -0.28177,
				"method": "rhf"
			},
			{
				"type": "occ",
				"energy": -0.26255,
				"method": "rhf"
			},
			{
				"type": "occ",
				"energy": -0.24467,
				"method": "rhf"
			},
			{
				"type": "occ",
				"energy": -0.21196,
				"method": "rhf"
			},
			{
				"type": "unocc",
				"energy": -0.07336,
				"method": "rhf"
			},
			{
				"type": "unocc",
				"energy": -0.02883,
				"method": "rhf"
			},
			{
				"type": "unocc",
				"energy": -0.02072,
				"method": "rhf"
			},
			{
				"type": "unocc",
				"energy": -0.00061,
				"method": "rhf"
			},
			{
				"type": "unocc",
				"energy": 0.02747,
				"method": "rhf"
			}
		],
		"cosmo_sigma_profile": { 
			"-0.025": 0.0,
			"-0.024": 0.0,
			"-0.023": 0.0,
			"-0.022": 0.0,
			"-0.021": 0.0,
			"-0.02": 0.0,
			"-0.019": 0.0,
			"-0.018": 0.0,
			"-0.017": 0.0,
			"-0.016": 0.0,
			"-0.015": 0.0,
			"-0.014": 0.262452007535,
			"-0.013": 2.84881386158,
			"-0.012": 2.51043639775,
			"-0.011": 2.03770031254,
			"-0.01": 2.00795388972,
			"-0.009": 1.73824588604,
			"-0.008": 2.39139051359,
			"-0.007": 4.10734717249,
			"-0.006": 13.7289541158,
			"-0.005": 15.1446248752,
			"-0.004": 19.267230993,
			"-0.003": 23.0214332023,
			"-0.002": 25.8868290897,
			"-0.001": 24.6080999946,
			"0.0": 18.2234122123,
			"0.001": 14.3005092025,
			"0.002": 11.7235593319,
			"0.003": 15.4956743772,
			"0.004": 15.3247906984,
			"0.005": 12.1760132995,
			"0.006": 4.35631380137,
			"0.007": 5.09603243464,
			"0.008": 5.25263558778,
			"0.009": 4.68159067781,
			"0.01": 4.05792505701,
			"0.011": 4.25541860845,
			"0.012": 4.02786059338,
			"0.013": 2.40669094133,
			"0.014": 0.727413254855,
			"0.015": 1.20141387049,
			"0.016": 0.343875539153,
			"0.017": 0.0,
			"0.018": 0.0,
			"0.019": 0.0,
			"0.02": 0.0,
			"0.021": 0.0,
			"0.022": 0.0,
			"0.023": 0.0,
			"0.024": 0.0,
			"0.025": 0.0
		}
	}
}
