{
	 "smiles": "NC1=CC=CC(C(O)=O)=C1C(O)=O", 
	 "Tm": 448.15, 
	 "num_atms": 20, 
	 "gaussian": { 
		 "optdone": 1, 
		 "sigma_profile": "yes", 
		 "theory": "DFT", 
		 "functional": "B3LYP", 
		 "basiset": "6-31G**", 
		 "properties": { 
			 "R2extent": 2430.5711, 
			 "electric_dipole_moment_norm": 9.23586537526, 
			 "electric_quadrupole_moment_norm": 8.0380784924, 
			 "total_energy": -664.741431603, 
			 "HOMO_LUMO_gap": 0.18072, 
			 "cosmo_polarized_energy": -22.95, 
			 "cosmo_cavitation_energy": 24.06, 
			 "cosmo_dispersion_energy": -18.48, 
			 "cosmo_repulsion_energy": 1.44, 
			 "cosmo_total_nonelectrostatic_energy": 7.01, 
			 "SMD_solvation_energy": 6.69 
		},
		"coords": [
			{
				"x": -1.7679113459,
				"y": -1.5672914174,
				"z": 0.6042462719,
				"element": "N" 
			},
			{
				"x": -0.4362876262,
				"y": -1.3129393417,
				"z": 0.1286836723,
				"element": "C" 
			},
			{
				"x": 0.5238921172,
				"y": -2.3171249953,
				"z": 0.2424421726,
				"element": "C" 
			},
			{
				"x": 1.7990579864,
				"y": -2.1217785497,
				"z": -0.2734504343,
				"element": "C" 
			},
			{
				"x": 2.1145859434,
				"y": -0.9155436117,
				"z": -0.8843385965,
				"element": "C" 
			},
			{
				"x": 1.1833837931,
				"y": 0.1273333002,
				"z": -0.9972233515,
				"element": "C" 
			},
			{
				"x": 1.7911799411,
				"y": 1.3382988002,
				"z": -1.7356647151,
				"element": "C" 
			},
			{
				"x": 1.3011962803,
				"y": 2.5506486773,
				"z": -1.5383750765,
				"element": "O" 
			},
			{
				"x": 2.7654245006,
				"y": 1.1580049375,
				"z": -2.4394475189,
				"element": "O" 
			},
			{
				"x": -0.1353494565,
				"y": -0.0725953235,
				"z": -0.4955182261,
				"element": "C" 
			},
			{
				"x": -1.2378241493,
				"y": 0.9537322344,
				"z": -0.6453277903,
				"element": "C" 
			},
			{
				"x": -2.4888867827,
				"y": 0.5142486305,
				"z": -0.7228453438,
				"element": "O" 
			},
			{
				"x": -1.0389862985,
				"y": 2.1613326365,
				"z": -0.7029459994,
				"element": "O" 
			},
			{
				"x": -1.9103545541,
				"y": -2.55349619,
				"z": 0.7956911431,
				"element": "H" 
			},
			{
				"x": -1.9901316397,
				"y": -1.0433343804,
				"z": 1.4489238956,
				"element": "H" 
			},
			{
				"x": 0.2628747314,
				"y": -3.248660025,
				"z": 0.7381141238,
				"element": "H" 
			},
			{
				"x": 2.5460668587,
				"y": -2.9055461119,
				"z": -0.194364818,
				"element": "H" 
			},
			{
				"x": 3.0950452338,
				"y": -0.7480534684,
				"z": -1.3116417655,
				"element": "H" 
			},
			{
				"x": 0.4237304451,
				"y": 2.5163568968,
				"z": -1.0657079454,
				"element": "H" 
			},
			{
				"x": -2.5174059781,
				"y": -0.4493926984,
				"z": -0.4804496979,
				"element": "H" 
			}
		],
		 "valence_orbital": [ 
			{
				"type": "occ",
				"energy": -0.29788,
				"method": "rhf"
			},
			{
				"type": "occ",
				"energy": -0.29351,
				"method": "rhf"
			},
			{
				"type": "occ",
				"energy": -0.28416,
				"method": "rhf"
			},
			{
				"type": "occ",
				"energy": -0.2676,
				"method": "rhf"
			},
			{
				"type": "occ",
				"energy": -0.25713,
				"method": "rhf"
			},
			{
				"type": "unocc",
				"energy": -0.07641,
				"method": "rhf"
			},
			{
				"type": "unocc",
				"energy": -0.04387,
				"method": "rhf"
			},
			{
				"type": "unocc",
				"energy": 0.02122,
				"method": "rhf"
			},
			{
				"type": "unocc",
				"energy": 0.0417,
				"method": "rhf"
			},
			{
				"type": "unocc",
				"energy": 0.04724,
				"method": "rhf"
			}
		],
		"cosmo_sigma_profile": { 
			"-0.025": 0.0,
			"-0.024": 0.0,
			"-0.023": 0.0,
			"-0.022": 0.0,
			"-0.021": 0.0,
			"-0.02": 0.0,
			"-0.019": 0.0,
			"-0.018": 0.0,
			"-0.017": 0.0,
			"-0.016": 0.0,
			"-0.015": 0.41956513386,
			"-0.014": 3.26247178588,
			"-0.013": 3.75339989288,
			"-0.012": 4.25056817702,
			"-0.011": 3.16120861776,
			"-0.01": 3.14771053417,
			"-0.009": 2.73026333041,
			"-0.008": 4.6687087767,
			"-0.007": 8.1492496039,
			"-0.006": 9.78077605285,
			"-0.005": 10.2154082284,
			"-0.004": 9.79522466287,
			"-0.003": 9.45599568052,
			"-0.002": 11.0094558614,
			"-0.001": 10.3512126295,
			"0.0": 11.4384832159,
			"0.001": 13.3325721177,
			"0.002": 12.9212278058,
			"0.003": 7.50990523151,
			"0.004": 2.7333351694,
			"0.005": 4.55465706224,
			"0.006": 4.93722181831,
			"0.007": 4.80742054851,
			"0.008": 5.32582129,
			"0.009": 5.47222144266,
			"0.01": 7.50538904015,
			"0.011": 7.01451395733,
			"0.012": 7.05837107373,
			"0.013": 3.20750476805,
			"0.014": 0.970547642514,
			"0.015": 0.0,
			"0.016": 0.0,
			"0.017": 0.0,
			"0.018": 0.0,
			"0.019": 0.0,
			"0.02": 0.0,
			"0.021": 0.0,
			"0.022": 0.0,
			"0.023": 0.0,
			"0.024": 0.0,
			"0.025": 0.0
		}
	}
}
