{
	 "smiles": "CC(=O)N1C(=O)C2=CC=CC=C2C1=O", 
	 "Tm": 410.15, 
	 "num_atms": 21, 
	 "gaussian": { 
		 "optdone": 1, 
		 "sigma_profile": "yes", 
		 "theory": "DFT", 
		 "functional": "B3LYP", 
		 "basiset": "6-31G**", 
		 "properties": { 
			 "R2extent": 3565.0706, 
			 "electric_dipole_moment_norm": 5.05748590804, 
			 "electric_quadrupole_moment_norm": 23.7069969728, 
			 "total_energy": -665.733659997, 
			 "HOMO_LUMO_gap": 0.16671, 
			 "cosmo_polarized_energy": -14.44, 
			 "cosmo_cavitation_energy": 26.38, 
			 "cosmo_dispersion_energy": -19.2, 
			 "cosmo_repulsion_energy": 1.48, 
			 "cosmo_total_nonelectrostatic_energy": 8.65, 
			 "SMD_solvation_energy": 6.69 
		},
		"coords": [
			{
				"x": -0.781898301,
				"y": -0.6071549666,
				"z": -1.6707450804,
				"element": "C" 
			},
			{
				"x": -0.5049223642,
				"y": 0.7631807936,
				"z": -1.0969749115,
				"element": "C" 
			},
			{
				"x": -0.7732192494,
				"y": 1.7883057825,
				"z": -1.6767965196,
				"element": "O" 
			},
			{
				"x": 0.0927499236,
				"y": 0.8112051986,
				"z": 0.209460153,
				"element": "N" 
			},
			{
				"x": 0.1682973843,
				"y": 2.0181766557,
				"z": 1.0010234904,
				"element": "C" 
			},
			{
				"x": -0.2942079542,
				"y": 3.095449995,
				"z": 0.7227226915,
				"element": "O" 
			},
			{
				"x": 0.9027959189,
				"y": 1.6348724224,
				"z": 2.237910034,
				"element": "C" 
			},
			{
				"x": 1.2488051294,
				"y": 2.415099827,
				"z": 3.3339899136,
				"element": "C" 
			},
			{
				"x": 1.9432969363,
				"y": 1.787580928,
				"z": 4.374188546,
				"element": "C" 
			},
			{
				"x": 2.271957455,
				"y": 0.4250512642,
				"z": 4.3087847968,
				"element": "C" 
			},
			{
				"x": 1.9161417743,
				"y": -0.3515494016,
				"z": 3.2007509837,
				"element": "C" 
			},
			{
				"x": 1.2275301693,
				"y": 0.2829414369,
				"z": 2.1738818066,
				"element": "C" 
			},
			{
				"x": 0.7244118986,
				"y": -0.2728181406,
				"z": 0.8916079734,
				"element": "C" 
			},
			{
				"x": 0.8327512894,
				"y": -1.4119622187,
				"z": 0.4891545293,
				"element": "O" 
			},
			{
				"x": 0.1486063837,
				"y": -1.1449782575,
				"z": -1.866002355,
				"element": "H" 
			},
			{
				"x": -1.3563998259,
				"y": -1.2248375339,
				"z": -0.9759544589,
				"element": "H" 
			},
			{
				"x": -1.3349437005,
				"y": -0.4583705781,
				"z": -2.5983063176,
				"element": "H" 
			},
			{
				"x": 0.9877663616,
				"y": 3.4675823802,
				"z": 3.3714661109,
				"element": "H" 
			},
			{
				"x": 2.23435921,
				"y": 2.3624985353,
				"z": 5.2481526077,
				"element": "H" 
			},
			{
				"x": 2.8108384922,
				"y": -0.0316692875,
				"z": 5.1334034424,
				"element": "H" 
			},
			{
				"x": 2.1626830685,
				"y": -1.406304835,
				"z": 3.1374825639,
				"element": "H" 
			}
		],
		 "valence_orbital": [ 
			{
				"type": "occ",
				"energy": -0.30146,
				"method": "rhf"
			},
			{
				"type": "occ",
				"energy": -0.28708,
				"method": "rhf"
			},
			{
				"type": "occ",
				"energy": -0.28401,
				"method": "rhf"
			},
			{
				"type": "occ",
				"energy": -0.28165,
				"method": "rhf"
			},
			{
				"type": "occ",
				"energy": -0.25866,
				"method": "rhf"
			},
			{
				"type": "unocc",
				"energy": -0.09195,
				"method": "rhf"
			},
			{
				"type": "unocc",
				"energy": -0.0602,
				"method": "rhf"
			},
			{
				"type": "unocc",
				"energy": -0.00809,
				"method": "rhf"
			},
			{
				"type": "unocc",
				"energy": 0.01919,
				"method": "rhf"
			},
			{
				"type": "unocc",
				"energy": 0.07574,
				"method": "rhf"
			}
		],
		"cosmo_sigma_profile": { 
			"-0.025": 0.0,
			"-0.024": 0.0,
			"-0.023": 0.0,
			"-0.022": 0.0,
			"-0.021": 0.0,
			"-0.02": 0.0,
			"-0.019": 0.0,
			"-0.018": 0.0,
			"-0.017": 0.0,
			"-0.016": 0.0,
			"-0.015": 0.0,
			"-0.014": 0.0,
			"-0.013": 0.0,
			"-0.012": 0.0,
			"-0.011": 0.0,
			"-0.01": 0.0,
			"-0.009": 0.000685078468159,
			"-0.008": 4.23714913286,
			"-0.007": 13.1624179824,
			"-0.006": 19.9630134882,
			"-0.005": 17.2019042438,
			"-0.004": 14.5126302025,
			"-0.003": 14.911380838,
			"-0.002": 16.824247868,
			"-0.001": 16.9905157451,
			"0.0": 14.5598297709,
			"0.001": 16.7338026774,
			"0.002": 10.2234698146,
			"0.003": 3.45150391709,
			"0.004": 4.14735276022,
			"0.005": 4.32250148478,
			"0.006": 3.23002313427,
			"0.007": 3.43164571675,
			"0.008": 4.32986807518,
			"0.009": 6.57503191388,
			"0.01": 9.13058320728,
			"0.011": 7.73528394042,
			"0.012": 2.87830421604,
			"0.013": 1.72410159138,
			"0.014": 1.32367366348,
			"0.015": 0.835477589174,
			"0.016": 0.0337247547634,
			"0.017": 0.0,
			"0.018": 0.0,
			"0.019": 0.0,
			"0.02": 0.0,
			"0.021": 0.0,
			"0.022": 0.0,
			"0.023": 0.0,
			"0.024": 0.0,
			"0.025": 0.0
		}
	}
}
