{
	 "smiles": "OC(=O)C1=C2C=CC=CC2=NC(=C1)C1=CC=CC=C1", 
	 "Tm": 488.15, 
	 "num_atms": 30, 
	 "gaussian": { 
		 "optdone": 1, 
		 "sigma_profile": "yes", 
		 "theory": "DFT", 
		 "functional": "B3LYP", 
		 "basiset": "6-31G**", 
		 "properties": { 
			 "R2extent": 6365.8805, 
			 "electric_dipole_moment_norm": 3.17932922171, 
			 "electric_quadrupole_moment_norm": 18.9000593563, 
			 "total_energy": -821.552563478, 
			 "HOMO_LUMO_gap": 0.1504, 
			 "cosmo_polarized_energy": -15.86, 
			 "cosmo_cavitation_energy": 34.53, 
			 "cosmo_dispersion_energy": -25.34, 
			 "cosmo_repulsion_energy": 1.9, 
			 "cosmo_total_nonelectrostatic_energy": 11.1, 
			 "SMD_solvation_energy": 5.52 
		},
		"coords": [
			{
				"x": 2.0819281892,
				"y": -1.5048366201,
				"z": 0.5315956154,
				"element": "O" 
			},
			{
				"x": 0.7471620913,
				"y": -1.7503130339,
				"z": 0.6126460479,
				"element": "C" 
			},
			{
				"x": 0.3533436726,
				"y": -2.8209398618,
				"z": 1.0087211151,
				"element": "O" 
			},
			{
				"x": -0.1458903924,
				"y": -0.6254390367,
				"z": 0.1597113901,
				"element": "C" 
			},
			{
				"x": -1.4068276247,
				"y": -0.3745266553,
				"z": 0.7857350292,
				"element": "C" 
			},
			{
				"x": -1.9194461796,
				"y": -1.0968468334,
				"z": 1.8959024749,
				"element": "C" 
			},
			{
				"x": -3.1409415967,
				"y": -0.7604800619,
				"z": 2.4378630705,
				"element": "C" 
			},
			{
				"x": -3.9047499561,
				"y": 0.3046427478,
				"z": 1.9019668043,
				"element": "C" 
			},
			{
				"x": -3.4356525813,
				"y": 1.0215592214,
				"z": 0.8259290031,
				"element": "C" 
			},
			{
				"x": -2.1806022637,
				"y": 0.7036039971,
				"z": 0.2403599003,
				"element": "C" 
			},
			{
				"x": -1.7741629663,
				"y": 1.4510974779,
				"z": -0.8210014724,
				"element": "N" 
			},
			{
				"x": -0.6083337659,
				"y": 1.1950339821,
				"z": -1.3938010122,
				"element": "C" 
			},
			{
				"x": 0.2357774932,
				"y": 0.1500491008,
				"z": -0.9164430068,
				"element": "C" 
			},
			{
				"x": -0.2236117271,
				"y": 2.0313051993,
				"z": -2.5627250188,
				"element": "C" 
			},
			{
				"x": 1.0998427697,
				"y": 2.1043230733,
				"z": -3.0275835377,
				"element": "C" 
			},
			{
				"x": 1.4276100042,
				"y": 2.8965376248,
				"z": -4.1272959394,
				"element": "C" 
			},
			{
				"x": 0.4383167329,
				"y": 3.629921129,
				"z": -4.7834502788,
				"element": "C" 
			},
			{
				"x": -0.8808795748,
				"y": 3.5706466722,
				"z": -4.32625754,
				"element": "C" 
			},
			{
				"x": -1.208558442,
				"y": 2.7828118132,
				"z": -3.2266034912,
				"element": "C" 
			},
			{
				"x": 2.2311658996,
				"y": -0.5692925924,
				"z": 0.3332408696,
				"element": "H" 
			},
			{
				"x": -1.3475863345,
				"y": -1.9244435007,
				"z": 2.2955798924,
				"element": "H" 
			},
			{
				"x": -3.524374499,
				"y": -1.3212399742,
				"z": 3.2850684088,
				"element": "H" 
			},
			{
				"x": -4.8648542507,
				"y": 0.5529173679,
				"z": 2.3449172984,
				"element": "H" 
			},
			{
				"x": -3.9954820593,
				"y": 1.8433371586,
				"z": 0.3921709934,
				"element": "H" 
			},
			{
				"x": 1.155356557,
				"y": -0.0760625066,
				"z": -1.4453150144,
				"element": "H" 
			},
			{
				"x": 1.8921689062,
				"y": 1.561792575,
				"z": -2.5214930483,
				"element": "H" 
			},
			{
				"x": 2.458067545,
				"y": 2.9438083292,
				"z": -4.4672691033,
				"element": "H" 
			},
			{
				"x": 0.6933054201,
				"y": 4.2447699793,
				"z": -5.6417111284,
				"element": "H" 
			},
			{
				"x": -1.6571073737,
				"y": 4.1390582221,
				"z": -4.8305915473,
				"element": "H" 
			},
			{
				"x": -2.2277836933,
				"y": 2.7326050062,
				"z": -2.8611667742,
				"element": "H" 
			}
		],
		 "valence_orbital": [ 
			{
				"type": "occ",
				"energy": -0.28001,
				"method": "rhf"
			},
			{
				"type": "occ",
				"energy": -0.26376,
				"method": "rhf"
			},
			{
				"type": "occ",
				"energy": -0.25801,
				"method": "rhf"
			},
			{
				"type": "occ",
				"energy": -0.24953,
				"method": "rhf"
			},
			{
				"type": "occ",
				"energy": -0.23184,
				"method": "rhf"
			},
			{
				"type": "unocc",
				"energy": -0.08144,
				"method": "rhf"
			},
			{
				"type": "unocc",
				"energy": -0.04691,
				"method": "rhf"
			},
			{
				"type": "unocc",
				"energy": -0.01193,
				"method": "rhf"
			},
			{
				"type": "unocc",
				"energy": -0.00772,
				"method": "rhf"
			},
			{
				"type": "unocc",
				"energy": 0.00558,
				"method": "rhf"
			}
		],
		"cosmo_sigma_profile": { 
			"-0.025": 0.0,
			"-0.024": 0.0,
			"-0.023": 0.0,
			"-0.022": 0.0,
			"-0.021": 0.0,
			"-0.02": 0.0,
			"-0.019": 0.157059654209,
			"-0.018": 0.829785200538,
			"-0.017": 1.00378416594,
			"-0.016": 1.27199186876,
			"-0.015": 1.42356913936,
			"-0.014": 0.784866251649,
			"-0.013": 0.89969525449,
			"-0.012": 1.23832401237,
			"-0.011": 1.71247278497,
			"-0.01": 1.6581417763,
			"-0.009": 1.97525852674,
			"-0.008": 2.88656175895,
			"-0.007": 4.58579506106,
			"-0.006": 13.7521678837,
			"-0.005": 19.6211884777,
			"-0.004": 20.0567492693,
			"-0.003": 17.4102140407,
			"-0.002": 14.0752419525,
			"-0.001": 19.8769064514,
			"0.0": 19.9825112395,
			"0.001": 17.6010085008,
			"0.002": 23.5130050896,
			"0.003": 23.5394002212,
			"0.004": 21.3937842143,
			"0.005": 14.2566733601,
			"0.006": 5.30973933912,
			"0.007": 5.17219190233,
			"0.008": 4.04928919066,
			"0.009": 5.26716950639,
			"0.01": 5.831007158,
			"0.011": 5.31929137406,
			"0.012": 2.03536707223,
			"0.013": 0.165697374045,
			"0.014": 0.0,
			"0.015": 0.0,
			"0.016": 0.0,
			"0.017": 0.0,
			"0.018": 0.0,
			"0.019": 0.0,
			"0.02": 0.0,
			"0.021": 0.0,
			"0.022": 0.0,
			"0.023": 0.0,
			"0.024": 0.0,
			"0.025": 0.0
		}
	}
}
