{
	 "smiles": "NS(=O)(=O)C1=CC(=CS1)S(=O)(=O)C1=CC=CC(O)=C1", 
	 "Tm": 418.15, 
	 "num_atms": 28, 
	 "gaussian": { 
		 "optdone": 1, 
		 "sigma_profile": "yes", 
		 "theory": "DFT", 
		 "functional": "B3LYP", 
		 "basiset": "6-31G**", 
		 "properties": { 
			 "R2extent": 7884.625, 
			 "electric_dipole_moment_norm": 6.17984884119, 
			 "electric_quadrupole_moment_norm": 17.1377624254, 
			 "total_energy": -2011.75218903, 
			 "HOMO_LUMO_gap": 0.17797, 
			 "cosmo_polarized_energy": -27.41, 
			 "cosmo_cavitation_energy": 38.25, 
			 "cosmo_dispersion_energy": -28.15, 
			 "cosmo_repulsion_energy": 2.08, 
			 "cosmo_total_nonelectrostatic_energy": 12.18, 
			 "SMD_solvation_energy": 5.71 
		},
		"coords": [
			{
				"x": -1.7129957262,
				"y": 3.7900396422,
				"z": 1.5252342758,
				"element": "N" 
			},
			{
				"x": -0.0291189993,
				"y": 3.8115180351,
				"z": 1.6511786157,
				"element": "S" 
			},
			{
				"x": 0.2675301478,
				"y": 4.6358588673,
				"z": 2.8215765016,
				"element": "O" 
			},
			{
				"x": 0.5594260745,
				"y": 4.0653003634,
				"z": 0.3352899783,
				"element": "O" 
			},
			{
				"x": 0.3517775542,
				"y": 2.1219464702,
				"z": 2.0381012952,
				"element": "C" 
			},
			{
				"x": 1.0040755277,
				"y": 1.2592605357,
				"z": 1.2003121637,
				"element": "C" 
			},
			{
				"x": 1.1854180315,
				"y": -0.0146833036,
				"z": 1.8138197591,
				"element": "C" 
			},
			{
				"x": 0.6892862945,
				"y": -0.0874591332,
				"z": 3.089570285,
				"element": "C" 
			},
			{
				"x": -0.0177060536,
				"y": 1.4043425355,
				"z": 3.5844164371,
				"element": "S" 
			},
			{
				"x": 2.0268790398,
				"y": -1.3972393529,
				"z": 1.0477372432,
				"element": "S" 
			},
			{
				"x": 3.1912748543,
				"y": -0.8564104712,
				"z": 0.3313835374,
				"element": "O" 
			},
			{
				"x": 2.1587330521,
				"y": -2.4290885792,
				"z": 2.0865634946,
				"element": "O" 
			},
			{
				"x": 0.8614217133,
				"y": -1.9903759856,
				"z": -0.18890506,
				"element": "C" 
			},
			{
				"x": -0.1752282107,
				"y": -2.8394767016,
				"z": 0.1958328417,
				"element": "C" 
			},
			{
				"x": -1.0648534588,
				"y": -3.2788033508,
				"z": -0.7876122302,
				"element": "C" 
			},
			{
				"x": -0.9163351024,
				"y": -2.8821126259,
				"z": -2.1142962765,
				"element": "C" 
			},
			{
				"x": 0.1403072105,
				"y": -2.0375394674,
				"z": -2.4811124185,
				"element": "C" 
			},
			{
				"x": 0.2412311914,
				"y": -1.6968519049,
				"z": -3.7953273308,
				"element": "O" 
			},
			{
				"x": 1.0393219537,
				"y": -1.5826064013,
				"z": -1.5113227492,
				"element": "C" 
			},
			{
				"x": -2.0874134294,
				"y": 4.6032928482,
				"z": 2.0077046585,
				"element": "H" 
			},
			{
				"x": -2.0012377342,
				"y": 3.7662412786,
				"z": 0.5504123268,
				"element": "H" 
			},
			{
				"x": 1.347153836,
				"y": 1.5334350338,
				"z": 0.2113470962,
				"element": "H" 
			},
			{
				"x": 0.734221147,
				"y": -0.9383118036,
				"z": 3.755524308,
				"element": "H" 
			},
			{
				"x": -0.2674095179,
				"y": -3.1610535464,
				"z": 1.2266888463,
				"element": "H" 
			},
			{
				"x": -1.8792090912,
				"y": -3.9443054018,
				"z": -0.5179154555,
				"element": "H" 
			},
			{
				"x": -1.6003788757,
				"y": -3.2223706356,
				"z": -2.8844886203,
				"element": "H" 
			},
			{
				"x": 1.0170215013,
				"y": -1.1358681365,
				"z": -3.9269252516,
				"element": "H" 
			},
			{
				"x": 1.8818070694,
				"y": -0.9475788085,
				"z": -1.7700882716,
				"element": "H" 
			}
		],
		 "valence_orbital": [ 
			{
				"type": "occ",
				"energy": -0.30009,
				"method": "rhf"
			},
			{
				"type": "occ",
				"energy": -0.29504,
				"method": "rhf"
			},
			{
				"type": "occ",
				"energy": -0.28094,
				"method": "rhf"
			},
			{
				"type": "occ",
				"energy": -0.27187,
				"method": "rhf"
			},
			{
				"type": "occ",
				"energy": -0.24745,
				"method": "rhf"
			},
			{
				"type": "unocc",
				"energy": -0.06948,
				"method": "rhf"
			},
			{
				"type": "unocc",
				"energy": -0.04627,
				"method": "rhf"
			},
			{
				"type": "unocc",
				"energy": -0.01684,
				"method": "rhf"
			},
			{
				"type": "unocc",
				"energy": -0.00631,
				"method": "rhf"
			},
			{
				"type": "unocc",
				"energy": 0.00262,
				"method": "rhf"
			}
		],
		"cosmo_sigma_profile": { 
			"-0.025": 0.0,
			"-0.024": 0.0,
			"-0.023": 0.0,
			"-0.022": 0.0,
			"-0.021": 0.0,
			"-0.02": 0.0,
			"-0.019": 0.203315638614,
			"-0.018": 1.23307459294,
			"-0.017": 1.18215017288,
			"-0.016": 1.61032898882,
			"-0.015": 3.00168365198,
			"-0.014": 4.23626352131,
			"-0.013": 4.0320454504,
			"-0.012": 2.66003152182,
			"-0.011": 4.07784123939,
			"-0.01": 5.89975540438,
			"-0.009": 4.84339650309,
			"-0.008": 4.82562694916,
			"-0.007": 10.8261980426,
			"-0.006": 13.3194441023,
			"-0.005": 13.0496795495,
			"-0.004": 12.8261065539,
			"-0.003": 14.0612756051,
			"-0.002": 16.1208675016,
			"-0.001": 26.0597663897,
			"0.0": 22.2821113136,
			"0.001": 19.6280185734,
			"0.002": 21.1370140299,
			"0.003": 16.2105752534,
			"0.004": 8.79976341405,
			"0.005": 7.55218338186,
			"0.006": 6.82468296448,
			"0.007": 7.41656593715,
			"0.008": 9.17288050779,
			"0.009": 9.95623808127,
			"0.01": 19.9547014869,
			"0.011": 14.1240540589,
			"0.012": 1.9059793368,
			"0.013": 0.0,
			"0.014": 0.0,
			"0.015": 0.0,
			"0.016": 0.0,
			"0.017": 0.0,
			"0.018": 0.0,
			"0.019": 0.0,
			"0.02": 0.0,
			"0.021": 0.0,
			"0.022": 0.0,
			"0.023": 0.0,
			"0.024": 0.0,
			"0.025": 0.0
		}
	}
}
