{
	 "smiles": "ClC(Cl)=C(Cl)C(Cl)=C(Cl)Cl", 
	 "Tm": 252.15, 
	 "num_atms": 10, 
	 "gaussian": { 
		 "optdone": 1, 
		 "sigma_profile": "yes", 
		 "theory": "DFT", 
		 "functional": "B3LYP", 
		 "basiset": "6-31G**", 
		 "properties": { 
			 "R2extent": 4330.0421, 
			 "electric_dipole_moment_norm": 0.430591012447, 
			 "electric_quadrupole_moment_norm": 1.21766002644, 
			 "total_energy": -2913.50498607, 
			 "HOMO_LUMO_gap": 0.20241, 
			 "cosmo_polarized_energy": -1.88, 
			 "cosmo_cavitation_energy": 26.17, 
			 "cosmo_dispersion_energy": -18.75, 
			 "cosmo_repulsion_energy": 1.56, 
			 "cosmo_total_nonelectrostatic_energy": 8.98, 
			 "SMD_solvation_energy": 3.25 
		},
		"coords": [
			{
				"x": 2.0955362691,
				"y": 0.6261370982,
				"z": -0.1461174459,
				"element": "Cl" 
			},
			{
				"x": 1.4483534209,
				"y": 0.9345954007,
				"z": -1.7260088653,
				"element": "C" 
			},
			{
				"x": 2.6305297706,
				"y": 1.1797394143,
				"z": -2.959806882,
				"element": "Cl" 
			},
			{
				"x": 0.1206029343,
				"y": 0.9748944407,
				"z": -1.944045667,
				"element": "C" 
			},
			{
				"x": -0.523490731,
				"y": 1.2455235929,
				"z": -3.5469769057,
				"element": "Cl" 
			},
			{
				"x": -0.8858157413,
				"y": 0.7427187303,
				"z": -0.8927649496,
				"element": "C" 
			},
			{
				"x": -1.5162693524,
				"y": -0.8861234795,
				"z": -0.8099675322,
				"element": "Cl" 
			},
			{
				"x": -1.3452151389,
				"y": 1.7083827896,
				"z": -0.0751223241,
				"element": "C" 
			},
			{
				"x": -2.5432227789,
				"y": 1.446404068,
				"z": 1.1398032306,
				"element": "Cl" 
			},
			{
				"x": -0.7543086522,
				"y": 3.3363279447,
				"z": -0.1782926589,
				"element": "Cl" 
			}
		],
		 "valence_orbital": [ 
			{
				"type": "occ",
				"energy": -0.34551,
				"method": "rhf"
			},
			{
				"type": "occ",
				"energy": -0.32631,
				"method": "rhf"
			},
			{
				"type": "occ",
				"energy": -0.32582,
				"method": "rhf"
			},
			{
				"type": "occ",
				"energy": -0.27143,
				"method": "rhf"
			},
			{
				"type": "occ",
				"energy": -0.26767,
				"method": "rhf"
			},
			{
				"type": "unocc",
				"energy": -0.06526,
				"method": "rhf"
			},
			{
				"type": "unocc",
				"energy": -0.05837,
				"method": "rhf"
			},
			{
				"type": "unocc",
				"energy": -0.02053,
				"method": "rhf"
			},
			{
				"type": "unocc",
				"energy": -0.02047,
				"method": "rhf"
			},
			{
				"type": "unocc",
				"energy": 0.00275,
				"method": "rhf"
			}
		],
		"cosmo_sigma_profile": { 
			"-0.025": 0.0,
			"-0.024": 0.0,
			"-0.023": 0.0,
			"-0.022": 0.0,
			"-0.021": 0.0,
			"-0.02": 0.0,
			"-0.019": 0.0,
			"-0.018": 0.0,
			"-0.017": 0.0,
			"-0.016": 0.0,
			"-0.015": 0.0,
			"-0.014": 0.0,
			"-0.013": 0.0,
			"-0.012": 0.0,
			"-0.011": 0.0,
			"-0.01": 0.0,
			"-0.009": 0.0,
			"-0.008": 0.0,
			"-0.007": 0.0,
			"-0.006": 0.66714002524,
			"-0.005": 5.42778393619,
			"-0.004": 8.98996863075,
			"-0.003": 17.3525933695,
			"-0.002": 24.1367859858,
			"-0.001": 26.3067690158,
			"0.0": 32.844751535,
			"0.001": 43.5426140829,
			"0.002": 46.6291849381,
			"0.003": 18.1254512221,
			"0.004": 0.545190800666,
			"0.005": 0.0,
			"0.006": 0.0,
			"0.007": 0.0,
			"0.008": 0.0,
			"0.009": 0.0,
			"0.01": 0.0,
			"0.011": 0.0,
			"0.012": 0.0,
			"0.013": 0.0,
			"0.014": 0.0,
			"0.015": 0.0,
			"0.016": 0.0,
			"0.017": 0.0,
			"0.018": 0.0,
			"0.019": 0.0,
			"0.02": 0.0,
			"0.021": 0.0,
			"0.022": 0.0,
			"0.023": 0.0,
			"0.024": 0.0,
			"0.025": 0.0
		}
	}
}
