{
	 "smiles": "CC1=NN=C(S)N1C1=C(C)C=CC=C1", 
	 "Tm": 475.15, 
	 "num_atms": 25, 
	 "gaussian": { 
		 "optdone": 1, 
		 "sigma_profile": "yes", 
		 "theory": "DFT", 
		 "functional": "B3LYP", 
		 "basiset": "6-31G**", 
		 "properties": { 
			 "R2extent": 2975.3652, 
			 "electric_dipole_moment_norm": 5.22060217025, 
			 "electric_quadrupole_moment_norm": 8.96896134176, 
			 "total_energy": -950.120355805, 
			 "HOMO_LUMO_gap": 0.19438, 
			 "cosmo_polarized_energy": -14.82, 
			 "cosmo_cavitation_energy": 30.56, 
			 "cosmo_dispersion_energy": -21.3, 
			 "cosmo_repulsion_energy": 1.64, 
			 "cosmo_total_nonelectrostatic_energy": 10.9, 
			 "SMD_solvation_energy": 3.21 
		},
		"coords": [
			{
				"x": -2.1904332998,
				"y": -1.0387909928,
				"z": -0.0572736173,
				"element": "C" 
			},
			{
				"x": -0.9576355277,
				"y": -1.0623436164,
				"z": -0.8951851929,
				"element": "C" 
			},
			{
				"x": -0.7167876687,
				"y": -1.884430749,
				"z": -1.8863943832,
				"element": "N" 
			},
			{
				"x": 0.5287324173,
				"y": -1.5779161738,
				"z": -2.4099996073,
				"element": "N" 
			},
			{
				"x": 0.9997519044,
				"y": -0.5762986739,
				"z": -1.7099953862,
				"element": "C" 
			},
			{
				"x": 2.5534697222,
				"y": 0.2345745464,
				"z": -1.9441075472,
				"element": "S" 
			},
			{
				"x": 0.1118544212,
				"y": -0.1944263427,
				"z": -0.7292594601,
				"element": "N" 
			},
			{
				"x": 0.2602439539,
				"y": 0.8497185453,
				"z": 0.2431671234,
				"element": "C" 
			},
			{
				"x": 0.9246834461,
				"y": 0.5863616664,
				"z": 1.4558458741,
				"element": "C" 
			},
			{
				"x": 1.512635067,
				"y": -0.7708166175,
				"z": 1.7548767814,
				"element": "C" 
			},
			{
				"x": 1.027595291,
				"y": 1.6398226787,
				"z": 2.3729306682,
				"element": "C" 
			},
			{
				"x": 0.4945531344,
				"y": 2.9004774532,
				"z": 2.101188888,
				"element": "C" 
			},
			{
				"x": -0.1592895893,
				"y": 3.1397803993,
				"z": 0.892347453,
				"element": "C" 
			},
			{
				"x": -0.2751728026,
				"y": 2.1092560327,
				"z": -0.0389814935,
				"element": "C" 
			},
			{
				"x": -2.7159756268,
				"y": -0.080985234,
				"z": -0.1350473884,
				"element": "H" 
			},
			{
				"x": -2.8528478204,
				"y": -1.8322292475,
				"z": -0.4061411422,
				"element": "H" 
			},
			{
				"x": -1.9673784348,
				"y": -1.2062645567,
				"z": 1.0021652733,
				"element": "H" 
			},
			{
				"x": 2.9035807793,
				"y": -0.597602289,
				"z": -2.9433494101,
				"element": "H" 
			},
			{
				"x": 0.7745686734,
				"y": -1.5697733107,
				"z": 1.6300278263,
				"element": "H" 
			},
			{
				"x": 2.3454237069,
				"y": -0.9992426662,
				"z": 1.0806612854,
				"element": "H" 
			},
			{
				"x": 1.8878930515,
				"y": -0.8115341956,
				"z": 2.7802279198,
				"element": "H" 
			},
			{
				"x": 1.5355012036,
				"y": 1.4632442715,
				"z": 3.3171276748,
				"element": "H" 
			},
			{
				"x": 0.5912227777,
				"y": 3.6952603797,
				"z": 2.8349651666,
				"element": "H" 
			},
			{
				"x": -0.5741020378,
				"y": 4.1186122756,
				"z": 0.6732162971,
				"element": "H" 
			},
			{
				"x": -0.7736867421,
				"y": 2.2683464169,
				"z": -0.9901136028,
				"element": "H" 
			}
		],
		 "valence_orbital": [ 
			{
				"type": "occ",
				"energy": -0.28895,
				"method": "rhf"
			},
			{
				"type": "occ",
				"energy": -0.27779,
				"method": "rhf"
			},
			{
				"type": "occ",
				"energy": -0.26404,
				"method": "rhf"
			},
			{
				"type": "occ",
				"energy": -0.24464,
				"method": "rhf"
			},
			{
				"type": "occ",
				"energy": -0.22424,
				"method": "rhf"
			},
			{
				"type": "unocc",
				"energy": -0.02986,
				"method": "rhf"
			},
			{
				"type": "unocc",
				"energy": -0.01991,
				"method": "rhf"
			},
			{
				"type": "unocc",
				"energy": 0.01432,
				"method": "rhf"
			},
			{
				"type": "unocc",
				"energy": 0.02189,
				"method": "rhf"
			},
			{
				"type": "unocc",
				"energy": 0.05106,
				"method": "rhf"
			}
		],
		"cosmo_sigma_profile": { 
			"-0.025": 0.0,
			"-0.024": 0.0,
			"-0.023": 0.0,
			"-0.022": 0.0,
			"-0.021": 0.0,
			"-0.02": 0.0,
			"-0.019": 0.0,
			"-0.018": 0.0,
			"-0.017": 0.0,
			"-0.016": 0.0,
			"-0.015": 0.0,
			"-0.014": 0.0,
			"-0.013": 0.0576595055172,
			"-0.012": 1.2180785596,
			"-0.011": 1.56230315441,
			"-0.01": 0.864317141627,
			"-0.009": 1.39657005251,
			"-0.008": 1.15789853356,
			"-0.007": 3.9043146239,
			"-0.006": 14.0254852476,
			"-0.005": 22.7974978718,
			"-0.004": 21.4760164949,
			"-0.003": 20.1762221511,
			"-0.002": 22.8287427079,
			"-0.001": 22.5434810921,
			"0.0": 17.9525175148,
			"0.001": 16.7899866433,
			"0.002": 15.6666447578,
			"0.003": 13.3121221593,
			"0.004": 13.4844893686,
			"0.005": 5.8252571503,
			"0.006": 4.15256077393,
			"0.007": 2.11894337079,
			"0.008": 1.12716327052,
			"0.009": 1.75291999578,
			"0.01": 2.05545541318,
			"0.011": 2.6011235713,
			"0.012": 2.66233973267,
			"0.013": 2.68640880211,
			"0.014": 3.64990042236,
			"0.015": 2.78238456594,
			"0.016": 2.30910332035,
			"0.017": 1.00684562597,
			"0.018": 0.0410412265208,
			"0.019": 0.0,
			"0.02": 0.0,
			"0.021": 0.0,
			"0.022": 0.0,
			"0.023": 0.0,
			"0.024": 0.0,
			"0.025": 0.0
		}
	}
}
