{
	 "smiles": "CNC1=NN=C(C=C1)C1=CC=CC=C1", 
	 "Tm": 431.15, 
	 "num_atms": 25, 
	 "gaussian": { 
		 "optdone": 1, 
		 "sigma_profile": "yes", 
		 "theory": "DFT", 
		 "functional": "B3LYP", 
		 "basiset": "6-31G**", 
		 "properties": { 
			 "R2extent": 3730.1806, 
			 "electric_dipole_moment_norm": 3.96511583437, 
			 "electric_quadrupole_moment_norm": 16.546677794, 
			 "total_energy": -590.025121779, 
			 "HOMO_LUMO_gap": 0.16513, 
			 "cosmo_polarized_energy": -15.2, 
			 "cosmo_cavitation_energy": 28.97, 
			 "cosmo_dispersion_energy": -21.7, 
			 "cosmo_repulsion_energy": 1.69, 
			 "cosmo_total_nonelectrostatic_energy": 8.97, 
			 "SMD_solvation_energy": 2.87 
		},
		"coords": [
			{
				"x": -3.4480871496,
				"y": -1.6173232181,
				"z": 2.6515623666,
				"element": "C" 
			},
			{
				"x": -2.0488915919,
				"y": -1.2742707996,
				"z": 2.8504381344,
				"element": "N" 
			},
			{
				"x": -1.2577514385,
				"y": -0.842742166,
				"z": 1.8168073648,
				"element": "C" 
			},
			{
				"x": -1.7735819997,
				"y": -0.928167477,
				"z": 0.577876546,
				"element": "N" 
			},
			{
				"x": -1.0481086105,
				"y": -0.5582162552,
				"z": -0.471845574,
				"element": "N" 
			},
			{
				"x": 0.1973507104,
				"y": -0.0875420286,
				"z": -0.3315173404,
				"element": "C" 
			},
			{
				"x": 0.7890664326,
				"y": 0.0124705357,
				"z": 0.9499401013,
				"element": "C" 
			},
			{
				"x": 0.0553604492,
				"y": -0.3671442242,
				"z": 2.045502065,
				"element": "C" 
			},
			{
				"x": 0.9064721623,
				"y": 0.2981474188,
				"z": -1.5776846488,
				"element": "C" 
			},
			{
				"x": 2.0240723417,
				"y": 1.1486491896,
				"z": -1.5584162218,
				"element": "C" 
			},
			{
				"x": 2.6799032336,
				"y": 1.4945698738,
				"z": -2.7397920348,
				"element": "C" 
			},
			{
				"x": 2.2289603551,
				"y": 1.0006435489,
				"z": -3.9643395111,
				"element": "C" 
			},
			{
				"x": 1.1119431275,
				"y": 0.1615149782,
				"z": -3.9967958986,
				"element": "C" 
			},
			{
				"x": 0.4566717897,
				"y": -0.1860921425,
				"z": -2.8186207782,
				"element": "C" 
			},
			{
				"x": -3.8445336064,
				"y": -2.0102650684,
				"z": 3.5906282073,
				"element": "H" 
			},
			{
				"x": -3.535599913,
				"y": -2.3834707573,
				"z": 1.878860494,
				"element": "H" 
			},
			{
				"x": -4.0542051388,
				"y": -0.7578886224,
				"z": 2.3354734791,
				"element": "H" 
			},
			{
				"x": -1.7751526869,
				"y": -0.9778604357,
				"z": 3.7742990506,
				"element": "H" 
			},
			{
				"x": 1.8102221935,
				"y": 0.3588197921,
				"z": 1.0666856829,
				"element": "H" 
			},
			{
				"x": 0.466498472,
				"y": -0.3256291187,
				"z": 3.0507244357,
				"element": "H" 
			},
			{
				"x": 2.3772124933,
				"y": 1.567022354,
				"z": -0.6206072536,
				"element": "H" 
			},
			{
				"x": 3.5397114473,
				"y": 2.1576340675,
				"z": -2.7020445433,
				"element": "H" 
			},
			{
				"x": 2.7399681867,
				"y": 1.2694479489,
				"z": -4.8844198283,
				"element": "H" 
			},
			{
				"x": 0.7515440349,
				"y": -0.2269556204,
				"z": -4.9453221101,
				"element": "H" 
			},
			{
				"x": -0.4124452947,
				"y": -0.8336517735,
				"z": -2.8354921847,
				"element": "H" 
			}
		],
		 "valence_orbital": [ 
			{
				"type": "occ",
				"energy": -0.29728,
				"method": "rhf"
			},
			{
				"type": "occ",
				"energy": -0.25252,
				"method": "rhf"
			},
			{
				"type": "occ",
				"energy": -0.24445,
				"method": "rhf"
			},
			{
				"type": "occ",
				"energy": -0.21757,
				"method": "rhf"
			},
			{
				"type": "occ",
				"energy": -0.20492,
				"method": "rhf"
			},
			{
				"type": "unocc",
				"energy": -0.03979,
				"method": "rhf"
			},
			{
				"type": "unocc",
				"energy": -0.0262,
				"method": "rhf"
			},
			{
				"type": "unocc",
				"energy": 0.00678,
				"method": "rhf"
			},
			{
				"type": "unocc",
				"energy": 0.03936,
				"method": "rhf"
			},
			{
				"type": "unocc",
				"energy": 0.07399,
				"method": "rhf"
			}
		],
		"cosmo_sigma_profile": { 
			"-0.025": 0.0,
			"-0.024": 0.0,
			"-0.023": 0.0,
			"-0.022": 0.0,
			"-0.021": 0.0,
			"-0.02": 0.0,
			"-0.019": 0.0,
			"-0.018": 0.0,
			"-0.017": 0.0,
			"-0.016": 0.0,
			"-0.015": 0.0451093916941,
			"-0.014": 1.28973880041,
			"-0.013": 1.39103163923,
			"-0.012": 1.7568379313,
			"-0.011": 1.4306646163,
			"-0.01": 1.45619240085,
			"-0.009": 2.25241617037,
			"-0.008": 5.1095544895,
			"-0.007": 5.94989188782,
			"-0.006": 9.81210055351,
			"-0.005": 13.6711663971,
			"-0.004": 17.4600041455,
			"-0.003": 17.0365906086,
			"-0.002": 16.809960228,
			"-0.001": 17.1497739585,
			"0.0": 15.440045106,
			"0.001": 19.0255213414,
			"0.002": 15.898603251,
			"0.003": 12.564687616,
			"0.004": 12.5709961975,
			"0.005": 14.6253115281,
			"0.006": 8.74365714043,
			"0.007": 2.90177923373,
			"0.008": 2.33687088595,
			"0.009": 2.14500901667,
			"0.01": 2.02919737278,
			"0.011": 1.28735622573,
			"0.012": 2.10256484491,
			"0.013": 2.32585318622,
			"0.014": 1.58154161952,
			"0.015": 2.74255748419,
			"0.016": 0.814668964539,
			"0.017": 0.00775735657858,
			"0.018": 0.0,
			"0.019": 0.0,
			"0.02": 0.0,
			"0.021": 0.0,
			"0.022": 0.0,
			"0.023": 0.0,
			"0.024": 0.0,
			"0.025": 0.0
		}
	}
}
