{
	 "smiles": "CC1=C(Cl)C2=C(C=CC=C2)N=C1", 
	 "Tm": 331.15, 
	 "num_atms": 20, 
	 "gaussian": { 
		 "optdone": 1, 
		 "sigma_profile": "yes", 
		 "theory": "DFT", 
		 "functional": "B3LYP", 
		 "basiset": "6-31G**", 
		 "properties": { 
			 "R2extent": 2304.7411, 
			 "electric_dipole_moment_norm": 0.615387503936, 
			 "electric_quadrupole_moment_norm": 9.58399250782, 
			 "total_energy": -900.843759366, 
			 "HOMO_LUMO_gap": 0.17403, 
			 "cosmo_polarized_energy": -5.7, 
			 "cosmo_cavitation_energy": 25.12, 
			 "cosmo_dispersion_energy": -18.98, 
			 "cosmo_repulsion_energy": 1.47, 
			 "cosmo_total_nonelectrostatic_energy": 7.61, 
			 "SMD_solvation_energy": 2.45 
		},
		"coords": [
			{
				"x": 2.2177584089,
				"y": 1.9169278927,
				"z": 1.3156482879,
				"element": "C" 
			},
			{
				"x": 1.0641146771,
				"y": 1.0171769959,
				"z": 0.963740734,
				"element": "C" 
			},
			{
				"x": 1.141979108,
				"y": -0.0010275122,
				"z": 0.0339852228,
				"element": "C" 
			},
			{
				"x": 2.6647158073,
				"y": -0.2838924413,
				"z": -0.8011286356,
				"element": "Cl" 
			},
			{
				"x": 0.0208044916,
				"y": -0.824800899,
				"z": -0.2632291511,
				"element": "C" 
			},
			{
				"x": -1.1861895423,
				"y": -0.5352339974,
				"z": 0.4563316434,
				"element": "C" 
			},
			{
				"x": -2.3429980109,
				"y": -1.3205066438,
				"z": 0.206716655,
				"element": "C" 
			},
			{
				"x": -2.3114337222,
				"y": -2.3448980683,
				"z": -0.7107049802,
				"element": "C" 
			},
			{
				"x": -1.1188182969,
				"y": -2.6289990995,
				"z": -1.4198507682,
				"element": "C" 
			},
			{
				"x": 0.0217233636,
				"y": -1.8884951924,
				"z": -1.2035229795,
				"element": "C" 
			},
			{
				"x": -1.2748447372,
				"y": 0.4668200581,
				"z": 1.3759150915,
				"element": "N" 
			},
			{
				"x": -0.1993299338,
				"y": 1.1873224426,
				"z": 1.599501413,
				"element": "C" 
			},
			{
				"x": 3.0662597565,
				"y": 1.3443185163,
				"z": 1.704982557,
				"element": "H" 
			},
			{
				"x": 1.9198480751,
				"y": 2.6451038223,
				"z": 2.0742781171,
				"element": "H" 
			},
			{
				"x": 2.579023168,
				"y": 2.464360839,
				"z": 0.4385887788,
				"element": "H" 
			},
			{
				"x": -3.2389545336,
				"y": -1.0754968403,
				"z": 0.767424873,
				"element": "H" 
			},
			{
				"x": -3.2007564147,
				"y": -2.9402625675,
				"z": -0.8952548057,
				"element": "H" 
			},
			{
				"x": -1.1044777632,
				"y": -3.4399406581,
				"z": -2.1420126278,
				"element": "H" 
			},
			{
				"x": 0.932080359,
				"y": -2.1098008016,
				"z": -1.7487028208,
				"element": "H" 
			},
			{
				"x": -0.2931042603,
				"y": 1.9833241544,
				"z": 2.3389933954,
				"element": "H" 
			}
		],
		 "valence_orbital": [ 
			{
				"type": "occ",
				"energy": -0.3201,
				"method": "rhf"
			},
			{
				"type": "occ",
				"energy": -0.28749,
				"method": "rhf"
			},
			{
				"type": "occ",
				"energy": -0.26009,
				"method": "rhf"
			},
			{
				"type": "occ",
				"energy": -0.25354,
				"method": "rhf"
			},
			{
				"type": "occ",
				"energy": -0.23308,
				"method": "rhf"
			},
			{
				"type": "unocc",
				"energy": -0.05905,
				"method": "rhf"
			},
			{
				"type": "unocc",
				"energy": -0.02074,
				"method": "rhf"
			},
			{
				"type": "unocc",
				"energy": 0.01746,
				"method": "rhf"
			},
			{
				"type": "unocc",
				"energy": 0.02722,
				"method": "rhf"
			},
			{
				"type": "unocc",
				"energy": 0.08133,
				"method": "rhf"
			}
		],
		"cosmo_sigma_profile": { 
			"-0.025": 0.0,
			"-0.024": 0.0,
			"-0.023": 0.0,
			"-0.022": 0.0,
			"-0.021": 0.0,
			"-0.02": 0.0,
			"-0.019": 0.0,
			"-0.018": 0.0,
			"-0.017": 0.0,
			"-0.016": 0.0,
			"-0.015": 0.0,
			"-0.014": 0.0,
			"-0.013": 0.0,
			"-0.012": 0.0,
			"-0.011": 0.0,
			"-0.01": 0.0,
			"-0.009": 0.0,
			"-0.008": 0.0,
			"-0.007": 1.97135420472,
			"-0.006": 11.0178735658,
			"-0.005": 13.7216243975,
			"-0.004": 14.5532482614,
			"-0.003": 13.9589755958,
			"-0.002": 15.5080714861,
			"-0.001": 20.3660885288,
			"0.0": 24.1511755244,
			"0.001": 21.503421546,
			"0.002": 18.5702628706,
			"0.003": 19.8827128987,
			"0.004": 15.2438272751,
			"0.005": 2.7007568076,
			"0.006": 1.11418081224,
			"0.007": 1.44769278476,
			"0.008": 1.43022402502,
			"0.009": 1.53387362095,
			"0.01": 0.31481307357,
			"0.011": 0.921594805378,
			"0.012": 1.16789141672,
			"0.013": 0.683118105543,
			"0.014": 0.697041092592,
			"0.015": 0.832234733638,
			"0.016": 0.377903622606,
			"0.017": 0.0170824253704,
			"0.018": 0.0,
			"0.019": 0.0,
			"0.02": 0.0,
			"0.021": 0.0,
			"0.022": 0.0,
			"0.023": 0.0,
			"0.024": 0.0,
			"0.025": 0.0
		}
	}
}
