{
	 "smiles": "CCC(O)C(C)(C)C", 
	 "Tm": 271.48, 
	 "num_atms": 24, 
	 "gaussian": { 
		 "optdone": 1, 
		 "sigma_profile": "yes", 
		 "theory": "DFT", 
		 "functional": "B3LYP", 
		 "basiset": "6-31G**", 
		 "properties": { 
			 "R2extent": 1422.2624, 
			 "electric_dipole_moment_norm": 1.38628873255, 
			 "electric_quadrupole_moment_norm": 4.77016285152, 
			 "total_energy": -351.625937792, 
			 "HOMO_LUMO_gap": 0.32404, 
			 "cosmo_polarized_energy": -5.15, 
			 "cosmo_cavitation_energy": 24.01, 
			 "cosmo_dispersion_energy": -17.23, 
			 "cosmo_repulsion_energy": 1.42, 
			 "cosmo_total_nonelectrostatic_energy": 8.19, 
			 "SMD_solvation_energy": 4.33 
		},
		"coords": [
			{
				"x": -2.7423724749,
				"y": -1.0187444315,
				"z": -2.3529700672,
				"element": "C" 
			},
			{
				"x": -1.420634248,
				"y": -0.3401478322,
				"z": -1.9770303479,
				"element": "C" 
			},
			{
				"x": -1.3199616783,
				"y": -0.0354305899,
				"z": -0.4786377891,
				"element": "C" 
			},
			{
				"x": -2.3617277745,
				"y": 0.9099135399,
				"z": -0.2082646954,
				"element": "O" 
			},
			{
				"x": 0.067514912,
				"y": 0.4855483824,
				"z": 0.0149337999,
				"element": "C" 
			},
			{
				"x": 1.1394069981,
				"y": -0.6049943488,
				"z": -0.1772986115,
				"element": "C" 
			},
			{
				"x": -0.0372148377,
				"y": 0.7976890118,
				"z": 1.523452991,
				"element": "C" 
			},
			{
				"x": 0.4722608433,
				"y": 1.7686595625,
				"z": -0.733875141,
				"element": "C" 
			},
			{
				"x": -3.5899066841,
				"y": -0.397111862,
				"z": -2.0542261855,
				"element": "H" 
			},
			{
				"x": -2.8445053935,
				"y": -1.9903938875,
				"z": -1.8550567508,
				"element": "H" 
			},
			{
				"x": -2.8038083525,
				"y": -1.1911367975,
				"z": -3.432386998,
				"element": "H" 
			},
			{
				"x": -1.323324783,
				"y": 0.601189116,
				"z": -2.5300044873,
				"element": "H" 
			},
			{
				"x": -0.5813869463,
				"y": -0.9758867008,
				"z": -2.2783085956,
				"element": "H" 
			},
			{
				"x": -1.5228377593,
				"y": -0.9716403117,
				"z": 0.0725872718,
				"element": "H" 
			},
			{
				"x": -2.5103205125,
				"y": 0.9312759472,
				"z": 0.744258863,
				"element": "H" 
			},
			{
				"x": 0.8499482264,
				"y": -1.5422053706,
				"z": 0.3134121973,
				"element": "H" 
			},
			{
				"x": 1.3229786933,
				"y": -0.8217294403,
				"z": -1.2337616119,
				"element": "H" 
			},
			{
				"x": 2.0916460745,
				"y": -0.2848728828,
				"z": 0.259814394,
				"element": "H" 
			},
			{
				"x": -0.7284315781,
				"y": 1.624668941,
				"z": 1.7182437807,
				"element": "H" 
			},
			{
				"x": -0.3748462418,
				"y": -0.0780847868,
				"z": 2.0922847043,
				"element": "H" 
			},
			{
				"x": 0.9376543879,
				"y": 1.0936741746,
				"z": 1.9248021362,
				"element": "H" 
			},
			{
				"x": 0.6857026493,
				"y": 1.5722852782,
				"z": -1.789379033,
				"element": "H" 
			},
			{
				"x": -0.3300965119,
				"y": 2.510456081,
				"z": -0.6820582911,
				"element": "H" 
			},
			{
				"x": 1.3746629917,
				"y": 2.205819208,
				"z": -0.292031533,
				"element": "H" 
			}
		],
		 "valence_orbital": [ 
			{
				"type": "occ",
				"energy": -0.32953,
				"method": "rhf"
			},
			{
				"type": "occ",
				"energy": -0.32693,
				"method": "rhf"
			},
			{
				"type": "occ",
				"energy": -0.31844,
				"method": "rhf"
			},
			{
				"type": "occ",
				"energy": -0.3009,
				"method": "rhf"
			},
			{
				"type": "occ",
				"energy": -0.25765,
				"method": "rhf"
			},
			{
				"type": "unocc",
				"energy": 0.06639,
				"method": "rhf"
			},
			{
				"type": "unocc",
				"energy": 0.10378,
				"method": "rhf"
			},
			{
				"type": "unocc",
				"energy": 0.12165,
				"method": "rhf"
			},
			{
				"type": "unocc",
				"energy": 0.12432,
				"method": "rhf"
			},
			{
				"type": "unocc",
				"energy": 0.13128,
				"method": "rhf"
			}
		],
		"cosmo_sigma_profile": { 
			"-0.025": 0.0,
			"-0.024": 0.0,
			"-0.023": 0.0,
			"-0.022": 0.0,
			"-0.021": 0.0,
			"-0.02": 0.0,
			"-0.019": 0.0,
			"-0.018": 0.0,
			"-0.017": 0.0,
			"-0.016": 0.0,
			"-0.015": 0.0326393139768,
			"-0.014": 0.436029428843,
			"-0.013": 0.868673874648,
			"-0.012": 1.0962052123,
			"-0.011": 0.863641053405,
			"-0.01": 0.850152560298,
			"-0.009": 0.997983888356,
			"-0.008": 0.91675071907,
			"-0.007": 0.859975846978,
			"-0.006": 1.47485539364,
			"-0.005": 1.07884741907,
			"-0.004": 1.61832502942,
			"-0.003": 12.4658512728,
			"-0.002": 30.7996199447,
			"-0.001": 28.8207365829,
			"0.0": 28.2354297724,
			"0.001": 29.7294111848,
			"0.002": 22.3579058249,
			"0.003": 4.03389431356,
			"0.004": 1.90272347476,
			"0.005": 2.06723058252,
			"0.006": 1.00195193956,
			"0.007": 1.85413617597,
			"0.008": 1.44686379063,
			"0.009": 1.89896023822,
			"0.01": 1.88640188167,
			"0.011": 0.546657636572,
			"0.012": 0.948401689671,
			"0.013": 1.24592298566,
			"0.014": 0.830350024729,
			"0.015": 0.353835792922,
			"0.016": 0.0,
			"0.017": 0.0,
			"0.018": 0.0,
			"0.019": 0.0,
			"0.02": 0.0,
			"0.021": 0.0,
			"0.022": 0.0,
			"0.023": 0.0,
			"0.024": 0.0,
			"0.025": 0.0
		}
	}
}
