{
	 "smiles": "COC1=C(C=C(N)C=C1)S(=O)(=O)N1CCOCC1", 
	 "Tm": 405.15, 
	 "num_atms": 34, 
	 "gaussian": { 
		 "optdone": 1, 
		 "sigma_profile": "yes", 
		 "theory": "DFT", 
		 "functional": "B3LYP", 
		 "basiset": "6-31G**", 
		 "properties": { 
			 "R2extent": 5374.9178, 
			 "electric_dipole_moment_norm": 5.16161107504, 
			 "electric_quadrupole_moment_norm": 18.7073102072, 
			 "total_energy": -1237.29651934, 
			 "HOMO_LUMO_gap": 0.17345, 
			 "cosmo_polarized_energy": -20.27, 
			 "cosmo_cavitation_energy": 36.94, 
			 "cosmo_dispersion_energy": -26.56, 
			 "cosmo_repulsion_energy": 2.0, 
			 "cosmo_total_nonelectrostatic_energy": 12.38, 
			 "SMD_solvation_energy": 5.67 
		},
		"coords": [
			{
				"x": 2.4281509646,
				"y": -2.5672555778,
				"z": 1.8272532018,
				"element": "C" 
			},
			{
				"x": 1.3978015709,
				"y": -1.9957855586,
				"z": 1.0371447784,
				"element": "O" 
			},
			{
				"x": 1.7002147081,
				"y": -1.6037905599,
				"z": -0.233215628,
				"element": "C" 
			},
			{
				"x": 0.6517184321,
				"y": -1.0905656461,
				"z": -1.0212067729,
				"element": "C" 
			},
			{
				"x": 0.875329144,
				"y": -0.6592800263,
				"z": -2.3253449055,
				"element": "C" 
			},
			{
				"x": 2.1568691839,
				"y": -0.7216574184,
				"z": -2.8949338651,
				"element": "C" 
			},
			{
				"x": 2.3899759556,
				"y": -0.2299634052,
				"z": -4.1850768111,
				"element": "N" 
			},
			{
				"x": 3.1980925248,
				"y": -1.2327969188,
				"z": -2.1096238091,
				"element": "C" 
			},
			{
				"x": 2.9758091271,
				"y": -1.6651731906,
				"z": -0.8014505846,
				"element": "C" 
			},
			{
				"x": -1.0382774628,
				"y": -1.0283095469,
				"z": -0.406487331,
				"element": "S" 
			},
			{
				"x": -1.4327104745,
				"y": -2.3714841986,
				"z": 0.0270270092,
				"element": "O" 
			},
			{
				"x": -1.8160643226,
				"y": -0.3155469661,
				"z": -1.4312117371,
				"element": "O" 
			},
			{
				"x": -0.9525716116,
				"y": -0.0509807314,
				"z": 0.9547220185,
				"element": "N" 
			},
			{
				"x": -1.2029117792,
				"y": -0.6238271284,
				"z": 2.2856887764,
				"element": "C" 
			},
			{
				"x": -2.6242743715,
				"y": -0.2987190415,
				"z": 2.7466579027,
				"element": "C" 
			},
			{
				"x": -2.8779730894,
				"y": 1.1014181749,
				"z": 2.6890281978,
				"element": "O" 
			},
			{
				"x": -2.7331575106,
				"y": 1.6017513722,
				"z": 1.3646072278,
				"element": "C" 
			},
			{
				"x": -1.314057351,
				"y": 1.3707016585,
				"z": 0.8419015606,
				"element": "C" 
			},
			{
				"x": 3.2433128139,
				"y": -1.8544996628,
				"z": 2.0073164812,
				"element": "H" 
			},
			{
				"x": 2.8365813291,
				"y": -3.4732073965,
				"z": 1.3621270625,
				"element": "H" 
			},
			{
				"x": 1.9649209607,
				"y": -2.8305316517,
				"z": 2.7789621634,
				"element": "H" 
			},
			{
				"x": 0.033822816,
				"y": -0.2732645784,
				"z": -2.8908772409,
				"element": "H" 
			},
			{
				"x": 3.1847605821,
				"y": -0.6419019031,
				"z": -4.6554103025,
				"element": "H" 
			},
			{
				"x": 1.5751461784,
				"y": -0.2216100491,
				"z": -4.7839960503,
				"element": "H" 
			},
			{
				"x": 4.2026014353,
				"y": -1.2907019555,
				"z": -2.5211251191,
				"element": "H" 
			},
			{
				"x": 3.8110277016,
				"y": -2.0531639039,
				"z": -0.2308774027,
				"element": "H" 
			},
			{
				"x": -0.4765550448,
				"y": -0.1796101176,
				"z": 2.978441906,
				"element": "H" 
			},
			{
				"x": -1.0377167675,
				"y": -1.7000623135,
				"z": 2.2478634651,
				"element": "H" 
			},
			{
				"x": -3.3466607788,
				"y": -0.8456133612,
				"z": 2.1197125411,
				"element": "H" 
			},
			{
				"x": -2.7696447981,
				"y": -0.5972002818,
				"z": 3.7898279943,
				"element": "H" 
			},
			{
				"x": -2.9593112894,
				"y": 2.6718256813,
				"z": 1.4100050191,
				"element": "H" 
			},
			{
				"x": -3.4522176018,
				"y": 1.1151271481,
				"z": 0.6870135715,
				"element": "H" 
			},
			{
				"x": -1.2291765612,
				"y": 1.6892210722,
				"z": -0.1979150026,
				"element": "H" 
			},
			{
				"x": -0.5990546134,
				"y": 1.9447579826,
				"z": 1.4452516853,
				"element": "H" 
			}
		],
		 "valence_orbital": [ 
			{
				"type": "occ",
				"energy": -0.28748,
				"method": "rhf"
			},
			{
				"type": "occ",
				"energy": -0.27584,
				"method": "rhf"
			},
			{
				"type": "occ",
				"energy": -0.26253,
				"method": "rhf"
			},
			{
				"type": "occ",
				"energy": -0.22445,
				"method": "rhf"
			},
			{
				"type": "occ",
				"energy": -0.19938,
				"method": "rhf"
			},
			{
				"type": "unocc",
				"energy": -0.02593,
				"method": "rhf"
			},
			{
				"type": "unocc",
				"energy": 0.01141,
				"method": "rhf"
			},
			{
				"type": "unocc",
				"energy": 0.06088,
				"method": "rhf"
			},
			{
				"type": "unocc",
				"energy": 0.07657,
				"method": "rhf"
			},
			{
				"type": "unocc",
				"energy": 0.0838,
				"method": "rhf"
			}
		],
		"cosmo_sigma_profile": { 
			"-0.025": 0.0,
			"-0.024": 0.0,
			"-0.023": 0.0,
			"-0.022": 0.0,
			"-0.021": 0.0,
			"-0.02": 0.0,
			"-0.019": 0.0,
			"-0.018": 0.0,
			"-0.017": 0.0,
			"-0.016": 0.0,
			"-0.015": 0.0,
			"-0.014": 0.0,
			"-0.013": 0.432296581536,
			"-0.012": 3.06777016195,
			"-0.011": 2.93613678469,
			"-0.01": 3.59046624291,
			"-0.009": 3.35622741465,
			"-0.008": 2.84609774318,
			"-0.007": 6.19297557812,
			"-0.006": 14.1776919134,
			"-0.005": 29.7066080788,
			"-0.004": 32.5424442023,
			"-0.003": 27.353879272,
			"-0.002": 19.2436956616,
			"-0.001": 13.8161996281,
			"0.0": 12.6983230504,
			"0.001": 12.2570187854,
			"0.002": 12.9945144134,
			"0.003": 15.4856518525,
			"0.004": 15.9819203744,
			"0.005": 8.41825940384,
			"0.006": 6.32621462463,
			"0.007": 6.50662286451,
			"0.008": 5.58792556164,
			"0.009": 5.57058956041,
			"0.01": 8.62577274777,
			"0.011": 10.0340219818,
			"0.012": 7.72646459243,
			"0.013": 2.22745989425,
			"0.014": 0.792024738709,
			"0.015": 0.32615631475,
			"0.016": 0.0,
			"0.017": 0.0,
			"0.018": 0.0,
			"0.019": 0.0,
			"0.02": 0.0,
			"0.021": 0.0,
			"0.022": 0.0,
			"0.023": 0.0,
			"0.024": 0.0,
			"0.025": 0.0
		}
	}
}
