{
	 "smiles": "C[C@H](CCC(O)=O)[C@H]1CC[C@H]2[C@@H]3C[C@H](O)[C@@H]4C[C@H](O)CC[C@]4(C)[C@H]3CC[C@]12C", 
	 "Tm": 471.15, 
	 "num_atms": 68, 
	 "gaussian": { 
		 "optdone": 1, 
		 "sigma_profile": "yes", 
		 "theory": "DFT", 
		 "functional": "B3LYP", 
		 "basiset": "6-31G**", 
		 "properties": { 
			 "R2extent": 16904.4086, 
			 "electric_dipole_moment_norm": 6.49548625124, 
			 "electric_quadrupole_moment_norm": 29.0332841897, 
			 "total_energy": -1239.58542439, 
			 "HOMO_LUMO_gap": 0.25174, 
			 "cosmo_polarized_energy": -22.16, 
			 "cosmo_cavitation_energy": 56.51, 
			 "cosmo_dispersion_energy": -39.19, 
			 "cosmo_repulsion_energy": 2.84, 
			 "cosmo_total_nonelectrostatic_energy": 20.15, 
			 "SMD_solvation_energy": 8.41 
		},
		"coords": [
			{
				"x": -2.9667746141,
				"y": -0.7912843415,
				"z": 4.501439526,
				"element": "C" 
			},
			{
				"x": -3.0069140694,
				"y": -1.2334176432,
				"z": 3.0263730211,
				"element": "C" 
			},
			{
				"x": -3.8551855339,
				"y": -2.5187338421,
				"z": 2.8385029952,
				"element": "C" 
			},
			{
				"x": -3.5839117034,
				"y": -3.6756406448,
				"z": 3.8181072978,
				"element": "C" 
			},
			{
				"x": -4.4527560574,
				"y": -3.6432230952,
				"z": 5.0735568138,
				"element": "C" 
			},
			{
				"x": -4.0667356889,
				"y": -4.4961521505,
				"z": 6.062803866,
				"element": "O" 
			},
			{
				"x": -5.4408082798,
				"y": -2.968006757,
				"z": 5.2208429993,
				"element": "O" 
			},
			{
				"x": -1.5743370152,
				"y": -1.2459003997,
				"z": 2.4066805152,
				"element": "C" 
			},
			{
				"x": -0.8095874836,
				"y": -2.6023959735,
				"z": 2.3064775127,
				"element": "C" 
			},
			{
				"x": 0.2385992468,
				"y": -2.4261676234,
				"z": 1.1630790186,
				"element": "C" 
			},
			{
				"x": 0.0866621595,
				"y": -0.9548526899,
				"z": 0.7314351934,
				"element": "C" 
			},
			{
				"x": 0.6347397104,
				"y": -0.5043022935,
				"z": -0.6287479455,
				"element": "C" 
			},
			{
				"x": 2.1528518751,
				"y": -0.8096420507,
				"z": -0.7226999925,
				"element": "C" 
			},
			{
				"x": 2.9458568637,
				"y": 0.1801611342,
				"z": -1.5918243736,
				"element": "C" 
			},
			{
				"x": 3.4308869234,
				"y": 1.2071838855,
				"z": -0.7344130839,
				"element": "O" 
			},
			{
				"x": 2.0514726174,
				"y": 0.6839294755,
				"z": -2.7435765931,
				"element": "C" 
			},
			{
				"x": 2.8268343984,
				"y": 1.3506411578,
				"z": -3.9084109167,
				"element": "C" 
			},
			{
				"x": 3.1750692639,
				"y": 2.8316648591,
				"z": -3.7248294651,
				"element": "C" 
			},
			{
				"x": 4.1857370518,
				"y": 3.0307131493,
				"z": -2.7093666749,
				"element": "O" 
			},
			{
				"x": 1.9419313936,
				"y": 3.6337221003,
				"z": -3.3137108332,
				"element": "C" 
			},
			{
				"x": 1.2396291324,
				"y": 3.0322914783,
				"z": -2.0879006798,
				"element": "C" 
			},
			{
				"x": 0.8349076822,
				"y": 1.5371792108,
				"z": -2.2347181802,
				"element": "C" 
			},
			{
				"x": -0.2906939862,
				"y": 1.4057018028,
				"z": -3.2874757715,
				"element": "C" 
			},
			{
				"x": 0.3699346927,
				"y": 1.0164813871,
				"z": -0.8181569837,
				"element": "C" 
			},
			{
				"x": -1.0810278256,
				"y": 1.4266060635,
				"z": -0.4653079483,
				"element": "C" 
			},
			{
				"x": -1.5715814469,
				"y": 0.8888163367,
				"z": 0.8941477721,
				"element": "C" 
			},
			{
				"x": -1.4088009408,
				"y": -0.6386229219,
				"z": 0.9785612802,
				"element": "C" 
			},
			{
				"x": -2.3441686271,
				"y": -1.3370417494,
				"z": -0.0328726888,
				"element": "C" 
			},
			{
				"x": -2.5161570281,
				"y": 0.2024851901,
				"z": 4.5918957983,
				"element": "H" 
			},
			{
				"x": -3.9700042622,
				"y": -0.7531121556,
				"z": 4.9344965324,
				"element": "H" 
			},
			{
				"x": -2.3641602179,
				"y": -1.471826205,
				"z": 5.1157642268,
				"element": "H" 
			},
			{
				"x": -3.5589491485,
				"y": -0.4479090334,
				"z": 2.4922705648,
				"element": "H" 
			},
			{
				"x": -4.9107822143,
				"y": -2.2523052214,
				"z": 2.9554598002,
				"element": "H" 
			},
			{
				"x": -3.739073095,
				"y": -2.8875126925,
				"z": 1.8160719802,
				"element": "H" 
			},
			{
				"x": -2.529930011,
				"y": -3.7231492218,
				"z": 4.1152723486,
				"element": "H" 
			},
			{
				"x": -3.8002138916,
				"y": -4.6364427634,
				"z": 3.3294867566,
				"element": "H" 
			},
			{
				"x": -3.2585388527,
				"y": -4.9606350239,
				"z": 5.8027940982,
				"element": "H" 
			},
			{
				"x": -0.9660999237,
				"y": -0.5976857657,
				"z": 3.052792861,
				"element": "H" 
			},
			{
				"x": -0.3328853715,
				"y": -2.86192964,
				"z": 3.2580133024,
				"element": "H" 
			},
			{
				"x": -1.4873072271,
				"y": -3.4250418689,
				"z": 2.0624919533,
				"element": "H" 
			},
			{
				"x": 0.0179988715,
				"y": -3.1026932269,
				"z": 0.3286619941,
				"element": "H" 
			},
			{
				"x": 1.2558662871,
				"y": -2.6572791354,
				"z": 1.4924236825,
				"element": "H" 
			},
			{
				"x": 0.6345769272,
				"y": -0.3552592318,
				"z": 1.4765954988,
				"element": "H" 
			},
			{
				"x": 0.1162194199,
				"y": -1.0600681183,
				"z": -1.4242637545,
				"element": "H" 
			},
			{
				"x": 2.2968000742,
				"y": -1.8268758781,
				"z": -1.1053787637,
				"element": "H" 
			},
			{
				"x": 2.6048253852,
				"y": -0.7800808103,
				"z": 0.2749501164,
				"element": "H" 
			},
			{
				"x": 3.8007275528,
				"y": -0.3582197282,
				"z": -2.0411857669,
				"element": "H" 
			},
			{
				"x": 3.8014096981,
				"y": 1.9138385458,
				"z": -1.2962611559,
				"element": "H" 
			},
			{
				"x": 1.6344545876,
				"y": -0.2375979685,
				"z": -3.1756216645,
				"element": "H" 
			},
			{
				"x": 3.7438789626,
				"y": 0.7768957686,
				"z": -4.1061994785,
				"element": "H" 
			},
			{
				"x": 2.2320242369,
				"y": 1.2766179474,
				"z": -4.8274846606,
				"element": "H" 
			},
			{
				"x": 3.5654012862,
				"y": 3.2283822842,
				"z": -4.6733363111,
				"element": "H" 
			},
			{
				"x": 5.0148547699,
				"y": 2.6624842774,
				"z": -3.0433090812,
				"element": "H" 
			},
			{
				"x": 1.2621373525,
				"y": 3.6679202554,
				"z": -4.1738878168,
				"element": "H" 
			},
			{
				"x": 2.2418748681,
				"y": 4.6668339447,
				"z": -3.1066011304,
				"element": "H" 
			},
			{
				"x": 1.9038427902,
				"y": 3.12897705,
				"z": -1.2252992609,
				"element": "H" 
			},
			{
				"x": 0.3457557596,
				"y": 3.6270564836,
				"z": -1.8644053617,
				"element": "H" 
			},
			{
				"x": 0.0764755322,
				"y": 1.6164052226,
				"z": -4.2965125459,
				"element": "H" 
			},
			{
				"x": -0.7032982837,
				"y": 0.3905316496,
				"z": -3.3040186339,
				"element": "H" 
			},
			{
				"x": -1.1144026423,
				"y": 2.0994829057,
				"z": -3.0963700767,
				"element": "H" 
			},
			{
				"x": 1.0248213166,
				"y": 1.5082055552,
				"z": -0.087864756,
				"element": "H" 
			},
			{
				"x": -1.7718783643,
				"y": 1.0821526316,
				"z": -1.2405429648,
				"element": "H" 
			},
			{
				"x": -1.1577593126,
				"y": 2.520760063,
				"z": -0.4636169108,
				"element": "H" 
			},
			{
				"x": -2.6167453994,
				"y": 1.189835882,
				"z": 1.0459659371,
				"element": "H" 
			},
			{
				"x": -0.9908002692,
				"y": 1.3512855505,
				"z": 1.7045813745,
				"element": "H" 
			},
			{
				"x": -2.1433604597,
				"y": -1.0310126947,
				"z": -1.0621505508,
				"element": "H" 
			},
			{
				"x": -2.2492900006,
				"y": -2.4263952147,
				"z": -0.0016458315,
				"element": "H" 
			},
			{
				"x": -3.3906394418,
				"y": -1.0902274735,
				"z": 0.1764719704,
				"element": "H" 
			}
		],
		 "valence_orbital": [ 
			{
				"type": "occ",
				"energy": -0.27854,
				"method": "rhf"
			},
			{
				"type": "occ",
				"energy": -0.26889,
				"method": "rhf"
			},
			{
				"type": "occ",
				"energy": -0.26795,
				"method": "rhf"
			},
			{
				"type": "occ",
				"energy": -0.26267,
				"method": "rhf"
			},
			{
				"type": "occ",
				"energy": -0.23788,
				"method": "rhf"
			},
			{
				"type": "unocc",
				"energy": 0.01386,
				"method": "rhf"
			},
			{
				"type": "unocc",
				"energy": 0.04686,
				"method": "rhf"
			},
			{
				"type": "unocc",
				"energy": 0.05389,
				"method": "rhf"
			},
			{
				"type": "unocc",
				"energy": 0.07288,
				"method": "rhf"
			},
			{
				"type": "unocc",
				"energy": 0.08233,
				"method": "rhf"
			}
		],
		"cosmo_sigma_profile": { 
			"-0.025": 0.0,
			"-0.024": 0.0,
			"-0.023": 0.0,
			"-0.022": 0.0,
			"-0.021": 0.0,
			"-0.02": 0.0,
			"-0.019": 0.159838226385,
			"-0.018": 0.825249052812,
			"-0.017": 1.14116954872,
			"-0.016": 1.83469356308,
			"-0.015": 2.3990293889,
			"-0.014": 1.85649385663,
			"-0.013": 1.91911526813,
			"-0.012": 2.18062889321,
			"-0.011": 1.86224253412,
			"-0.01": 2.20266605976,
			"-0.009": 2.68729744076,
			"-0.008": 2.33927135505,
			"-0.007": 3.68912760662,
			"-0.006": 6.0031875129,
			"-0.005": 5.42484500931,
			"-0.004": 11.8626619893,
			"-0.003": 25.7951059627,
			"-0.002": 59.8195359662,
			"-0.001": 74.3373364532,
			"0.0": 69.8512003197,
			"0.001": 54.8232009531,
			"0.002": 31.4008565699,
			"0.003": 8.00681921146,
			"0.004": 5.24969742792,
			"0.005": 5.31158945669,
			"0.006": 4.3849996436,
			"0.007": 4.99603702101,
			"0.008": 5.48467016863,
			"0.009": 4.35666158526,
			"0.01": 5.96547422254,
			"0.011": 7.5696658468,
			"0.012": 6.78946752044,
			"0.013": 4.17493548773,
			"0.014": 1.57050081103,
			"0.015": 1.40689986095,
			"0.016": 1.00361759442,
			"0.017": 0.0,
			"0.018": 0.0,
			"0.019": 0.0,
			"0.02": 0.0,
			"0.021": 0.0,
			"0.022": 0.0,
			"0.023": 0.0,
			"0.024": 0.0,
			"0.025": 0.0
		}
	}
}
