{
	 "smiles": "Cl[Si](Cl)(Cl)CC[Si](Cl)(Cl)Cl", 
	 "Tm": 297.65, 
	 "num_atms": 14, 
	 "gaussian": { 
		 "optdone": 1, 
		 "sigma_profile": "yes", 
		 "theory": "DFT", 
		 "functional": "B3LYP", 
		 "basiset": "6-31G**", 
		 "properties": { 
			 "R2extent": 6150.8213, 
			 "electric_dipole_moment_norm": 2.58058324803, 
			 "electric_quadrupole_moment_norm": 10.1523013307, 
			 "total_energy": -3419.09132389, 
			 "HOMO_LUMO_gap": 0.30669, 
			 "cosmo_polarized_energy": -6.72, 
			 "cosmo_cavitation_energy": 31.88, 
			 "cosmo_dispersion_energy": -18.84, 
			 "cosmo_repulsion_energy": 1.72, 
			 "cosmo_total_nonelectrostatic_energy": 14.76, 
			 "SMD_solvation_energy": 2.93 
		},
		"coords": [
			{
				"x": -0.1134939211,
				"y": -2.2182898171,
				"z": 2.382314409,
				"element": "Cl" 
			},
			{
				"x": 0.3345556704,
				"y": -0.9284976206,
				"z": 0.8317851497,
				"element": "Si" 
			},
			{
				"x": 0.685072367,
				"y": 0.9320879435,
				"z": 1.6405168283,
				"element": "Cl" 
			},
			{
				"x": -1.2986128936,
				"y": -0.8189932731,
				"z": -0.4269630134,
				"element": "Cl" 
			},
			{
				"x": 1.822948218,
				"y": -1.6299555986,
				"z": -0.0772565279,
				"element": "C" 
			},
			{
				"x": 2.1156278023,
				"y": -1.1889260642,
				"z": -1.530139199,
				"element": "C" 
			},
			{
				"x": 3.0006446434,
				"y": 0.4376071546,
				"z": -1.853891446,
				"element": "Si" 
			},
			{
				"x": 1.7454277678,
				"y": 2.0680585161,
				"z": -1.7850705851,
				"element": "Cl" 
			},
			{
				"x": 3.8084495961,
				"y": 0.3404560409,
				"z": -3.7529516634,
				"element": "Cl" 
			},
			{
				"x": 4.5344065613,
				"y": 0.7107571719,
				"z": -0.4986492769,
				"element": "Cl" 
			},
			{
				"x": 1.6422788666,
				"y": -2.7126318661,
				"z": -0.0766636748,
				"element": "H" 
			},
			{
				"x": 2.696157434,
				"y": -1.4749878028,
				"z": 0.5677834332,
				"element": "H" 
			},
			{
				"x": 2.7714071564,
				"y": -1.9387061411,
				"z": -1.9912391416,
				"element": "H" 
			},
			{
				"x": 1.2008307314,
				"y": -1.1834786433,
				"z": -2.1348752921,
				"element": "H" 
			}
		],
		 "valence_orbital": [ 
			{
				"type": "occ",
				"energy": -0.34265,
				"method": "rhf"
			},
			{
				"type": "occ",
				"energy": -0.33759,
				"method": "rhf"
			},
			{
				"type": "occ",
				"energy": -0.33442,
				"method": "rhf"
			},
			{
				"type": "occ",
				"energy": -0.33165,
				"method": "rhf"
			},
			{
				"type": "occ",
				"energy": -0.32758,
				"method": "rhf"
			},
			{
				"type": "unocc",
				"energy": -0.02089,
				"method": "rhf"
			},
			{
				"type": "unocc",
				"energy": -0.01864,
				"method": "rhf"
			},
			{
				"type": "unocc",
				"energy": -0.00019,
				"method": "rhf"
			},
			{
				"type": "unocc",
				"energy": 0.00726,
				"method": "rhf"
			},
			{
				"type": "unocc",
				"energy": 0.0123,
				"method": "rhf"
			}
		],
		"cosmo_sigma_profile": { 
			"-0.025": 0.0,
			"-0.024": 0.0,
			"-0.023": 0.0,
			"-0.022": 0.0,
			"-0.021": 0.0,
			"-0.02": 0.0,
			"-0.019": 0.0,
			"-0.018": 0.0,
			"-0.017": 0.0,
			"-0.016": 0.0,
			"-0.015": 0.0,
			"-0.014": 0.0,
			"-0.013": 0.0,
			"-0.012": 0.0,
			"-0.011": 0.0,
			"-0.01": 0.0,
			"-0.009": 0.348754388427,
			"-0.008": 6.08580379721,
			"-0.007": 9.06482411606,
			"-0.006": 9.60221482245,
			"-0.005": 11.8192079152,
			"-0.004": 10.7771007965,
			"-0.003": 8.12655280856,
			"-0.002": 7.71660412183,
			"-0.001": 18.3975904173,
			"0.0": 28.5584745863,
			"0.001": 36.4233956093,
			"0.002": 42.7119035384,
			"0.003": 58.4137233194,
			"0.004": 9.25865260715,
			"0.005": 0.0,
			"0.006": 0.0,
			"0.007": 0.0,
			"0.008": 0.0,
			"0.009": 0.0,
			"0.01": 0.0,
			"0.011": 0.0,
			"0.012": 0.0,
			"0.013": 0.0,
			"0.014": 0.0,
			"0.015": 0.0,
			"0.016": 0.0,
			"0.017": 0.0,
			"0.018": 0.0,
			"0.019": 0.0,
			"0.02": 0.0,
			"0.021": 0.0,
			"0.022": 0.0,
			"0.023": 0.0,
			"0.024": 0.0,
			"0.025": 0.0
		}
	}
}
