{
	 "smiles": "CSC1=C(C)OC(=C1)C(O)=O", 
	 "Tm": 418.15, 
	 "num_atms": 19, 
	 "gaussian": { 
		 "optdone": 1, 
		 "sigma_profile": "yes", 
		 "theory": "DFT", 
		 "functional": "B3LYP", 
		 "basiset": "6-31G**", 
		 "properties": { 
			 "R2extent": 2741.8784, 
			 "electric_dipole_moment_norm": 5.08846786666, 
			 "electric_quadrupole_moment_norm": 21.2361801568, 
			 "total_energy": -895.418571459, 
			 "HOMO_LUMO_gap": 0.18765, 
			 "cosmo_polarized_energy": -13.23, 
			 "cosmo_cavitation_energy": 25.63, 
			 "cosmo_dispersion_energy": -18.81, 
			 "cosmo_repulsion_energy": 1.51, 
			 "cosmo_total_nonelectrostatic_energy": 8.32, 
			 "SMD_solvation_energy": 6.47 
		},
		"coords": [
			{
				"x": 2.6860390871,
				"y": -0.2562071012,
				"z": 2.6873854422,
				"element": "C" 
			},
			{
				"x": 1.1314856194,
				"y": 0.5997192066,
				"z": 2.2173773792,
				"element": "S" 
			},
			{
				"x": 0.7740957894,
				"y": -0.1699678287,
				"z": 0.6626768936,
				"element": "C" 
			},
			{
				"x": 0.878864032,
				"y": 0.4276107817,
				"z": -0.5737390179,
				"element": "C" 
			},
			{
				"x": 1.3242427665,
				"y": 1.7712214391,
				"z": -1.0241380371,
				"element": "C" 
			},
			{
				"x": 0.4596471313,
				"y": -0.4434958769,
				"z": -1.5361349316,
				"element": "O" 
			},
			{
				"x": 0.0889121842,
				"y": -1.6145859207,
				"z": -0.9068816747,
				"element": "C" 
			},
			{
				"x": 0.2580979169,
				"y": -1.488995148,
				"z": 0.4387945657,
				"element": "C" 
			},
			{
				"x": -0.3995125502,
				"y": -2.7248723778,
				"z": -1.739000162,
				"element": "C" 
			},
			{
				"x": -0.4470501845,
				"y": -2.4774531703,
				"z": -3.0718062649,
				"element": "O" 
			},
			{
				"x": -0.7371941944,
				"y": -3.7899980069,
				"z": -1.2766619715,
				"element": "O" 
			},
			{
				"x": 2.5276108221,
				"y": -1.3325182245,
				"z": 2.7778778113,
				"element": "H" 
			},
			{
				"x": 3.4790066829,
				"y": -0.0530299505,
				"z": 1.9652271784,
				"element": "H" 
			},
			{
				"x": 2.9727738987,
				"y": 0.1449929529,
				"z": 3.6622372834,
				"element": "H" 
			},
			{
				"x": 2.128948909,
				"y": 1.6916714282,
				"z": -1.76329809,
				"element": "H" 
			},
			{
				"x": 0.501879096,
				"y": 2.3280628408,
				"z": -1.4876545881,
				"element": "H" 
			},
			{
				"x": 1.6858685209,
				"y": 2.3387278169,
				"z": -0.1649868348,
				"element": "H" 
			},
			{
				"x": 0.0351884364,
				"y": -2.2437420601,
				"z": 1.1779817534,
				"element": "H" 
			},
			{
				"x": -0.1417039637,
				"y": -1.5735408007,
				"z": -3.2471567346,
				"element": "H" 
			}
		],
		 "valence_orbital": [ 
			{
				"type": "occ",
				"energy": -0.31718,
				"method": "rhf"
			},
			{
				"type": "occ",
				"energy": -0.29658,
				"method": "rhf"
			},
			{
				"type": "occ",
				"energy": -0.27694,
				"method": "rhf"
			},
			{
				"type": "occ",
				"energy": -0.25074,
				"method": "rhf"
			},
			{
				"type": "occ",
				"energy": -0.23741,
				"method": "rhf"
			},
			{
				"type": "unocc",
				"energy": -0.04976,
				"method": "rhf"
			},
			{
				"type": "unocc",
				"energy": 0.0021,
				"method": "rhf"
			},
			{
				"type": "unocc",
				"energy": 0.0502,
				"method": "rhf"
			},
			{
				"type": "unocc",
				"energy": 0.06709,
				"method": "rhf"
			},
			{
				"type": "unocc",
				"energy": 0.09009,
				"method": "rhf"
			}
		],
		"cosmo_sigma_profile": { 
			"-0.025": 0.0,
			"-0.024": 0.0,
			"-0.023": 0.0,
			"-0.022": 0.0,
			"-0.021": 0.0,
			"-0.02": 0.0,
			"-0.019": 0.0,
			"-0.018": 0.0,
			"-0.017": 0.0536376448398,
			"-0.016": 0.7007995222,
			"-0.015": 0.798171042578,
			"-0.014": 0.729799243312,
			"-0.013": 0.53026370955,
			"-0.012": 0.686031326337,
			"-0.011": 1.07589641711,
			"-0.01": 0.988521900691,
			"-0.009": 1.46669349082,
			"-0.008": 2.48006932268,
			"-0.007": 3.70378015637,
			"-0.006": 10.4607596747,
			"-0.005": 13.7543268832,
			"-0.004": 14.9004804046,
			"-0.003": 17.1794793897,
			"-0.002": 21.155264718,
			"-0.001": 24.0257993833,
			"0.0": 13.4696885569,
			"0.001": 14.6135179139,
			"0.002": 10.1538322921,
			"0.003": 5.68946611649,
			"0.004": 5.60944476548,
			"0.005": 5.86020989055,
			"0.006": 5.01332621752,
			"0.007": 5.05653628827,
			"0.008": 3.74598755514,
			"0.009": 4.68644502017,
			"0.01": 5.50270499189,
			"0.011": 4.58629568229,
			"0.012": 5.73161949546,
			"0.013": 1.6909828662,
			"0.014": 0.0113188265699,
			"0.015": 0.0,
			"0.016": 0.0,
			"0.017": 0.0,
			"0.018": 0.0,
			"0.019": 0.0,
			"0.02": 0.0,
			"0.021": 0.0,
			"0.022": 0.0,
			"0.023": 0.0,
			"0.024": 0.0,
			"0.025": 0.0
		}
	}
}
