{
	 "smiles": "OC(=O)CN1CC(=O)NC2=C1C=CC=C2", 
	 "Tm": 492.15, 
	 "num_atms": 25, 
	 "gaussian": { 
		 "optdone": 1, 
		 "sigma_profile": "yes", 
		 "theory": "DFT", 
		 "functional": "B3LYP", 
		 "basiset": "6-31G**", 
		 "properties": { 
			 "R2extent": 3206.3483, 
			 "electric_dipole_moment_norm": 3.82573555542, 
			 "electric_quadrupole_moment_norm": 17.0584432736, 
			 "total_energy": -722.286417579, 
			 "HOMO_LUMO_gap": 0.19349, 
			 "cosmo_polarized_energy": -20.48, 
			 "cosmo_cavitation_energy": 28.63, 
			 "cosmo_dispersion_energy": -20.85, 
			 "cosmo_repulsion_energy": 1.62, 
			 "cosmo_total_nonelectrostatic_energy": 9.41, 
			 "SMD_solvation_energy": 6.5 
		},
		"coords": [
			{
				"x": -1.959610583,
				"y": 1.9421562561,
				"z": 1.2052990595,
				"element": "O" 
			},
			{
				"x": -2.4705014366,
				"y": 0.9923214344,
				"z": 0.4032245912,
				"element": "C" 
			},
			{
				"x": -3.517970813,
				"y": 1.1175709191,
				"z": -0.181040912,
				"element": "O" 
			},
			{
				"x": -1.6358098915,
				"y": -0.29722798,
				"z": 0.3397898474,
				"element": "C" 
			},
			{
				"x": -0.2319802866,
				"y": -0.0737797827,
				"z": 0.671837793,
				"element": "N" 
			},
			{
				"x": 0.4052772172,
				"y": -1.1692184338,
				"z": 1.4151621334,
				"element": "C" 
			},
			{
				"x": 1.7737521078,
				"y": -0.7731997737,
				"z": 1.9580362593,
				"element": "C" 
			},
			{
				"x": 2.235405322,
				"y": -1.2351301763,
				"z": 2.9873036921,
				"element": "O" 
			},
			{
				"x": 2.451835271,
				"y": 0.1119219201,
				"z": 1.1598747126,
				"element": "N" 
			},
			{
				"x": 1.9692536534,
				"y": 0.6121786476,
				"z": -0.0623671799,
				"element": "C" 
			},
			{
				"x": 0.5876218351,
				"y": 0.5067354096,
				"z": -0.3344598497,
				"element": "C" 
			},
			{
				"x": 0.0969731222,
				"y": 1.0354472756,
				"z": -1.5333591627,
				"element": "C" 
			},
			{
				"x": 0.9594145296,
				"y": 1.6581194473,
				"z": -2.4401613057,
				"element": "C" 
			},
			{
				"x": 2.3214878484,
				"y": 1.7531276616,
				"z": -2.1660461642,
				"element": "C" 
			},
			{
				"x": 2.8248355144,
				"y": 1.2250040944,
				"z": -0.9764516035,
				"element": "C" 
			},
			{
				"x": -1.0897155126,
				"y": 1.6159086968,
				"z": 1.5095235032,
				"element": "H" 
			},
			{
				"x": -2.058124582,
				"y": -0.9754886518,
				"z": 1.0884256094,
				"element": "H" 
			},
			{
				"x": -1.7908236163,
				"y": -0.7630912602,
				"z": -0.6411455752,
				"element": "H" 
			},
			{
				"x": -0.2132984323,
				"y": -1.4370454993,
				"z": 2.2731412783,
				"element": "H" 
			},
			{
				"x": 0.5330546822,
				"y": -2.0732596255,
				"z": 0.7938358933,
				"element": "H" 
			},
			{
				"x": 3.3956937223,
				"y": 0.3332626819,
				"z": 1.4507471145,
				"element": "H" 
			},
			{
				"x": -0.9607019671,
				"y": 0.9840888522,
				"z": -1.7641917646,
				"element": "H" 
			},
			{
				"x": 0.5550455181,
				"y": 2.0656228725,
				"z": -3.3610534414,
				"element": "H" 
			},
			{
				"x": 2.9937274365,
				"y": 2.2340990458,
				"z": -2.8690466909,
				"element": "H" 
			},
			{
				"x": 3.8855593407,
				"y": 1.2895759683,
				"z": -0.7485778375,
				"element": "H" 
			}
		],
		 "valence_orbital": [ 
			{
				"type": "occ",
				"energy": -0.31607,
				"method": "rhf"
			},
			{
				"type": "occ",
				"energy": -0.27961,
				"method": "rhf"
			},
			{
				"type": "occ",
				"energy": -0.26953,
				"method": "rhf"
			},
			{
				"type": "occ",
				"energy": -0.25008,
				"method": "rhf"
			},
			{
				"type": "occ",
				"energy": -0.22161,
				"method": "rhf"
			},
			{
				"type": "unocc",
				"energy": -0.02812,
				"method": "rhf"
			},
			{
				"type": "unocc",
				"energy": -0.01564,
				"method": "rhf"
			},
			{
				"type": "unocc",
				"energy": 0.00514,
				"method": "rhf"
			},
			{
				"type": "unocc",
				"energy": 0.02114,
				"method": "rhf"
			},
			{
				"type": "unocc",
				"energy": 0.06554,
				"method": "rhf"
			}
		],
		"cosmo_sigma_profile": { 
			"-0.025": 0.0,
			"-0.024": 0.0,
			"-0.023": 0.0,
			"-0.022": 0.0,
			"-0.021": 0.0,
			"-0.02": 0.0,
			"-0.019": 0.0,
			"-0.018": 0.0,
			"-0.017": 0.0,
			"-0.016": 0.090133105834,
			"-0.015": 0.931574619364,
			"-0.014": 1.99563760301,
			"-0.013": 1.71623685042,
			"-0.012": 1.30452382877,
			"-0.011": 1.92135647407,
			"-0.01": 5.47769124337,
			"-0.009": 6.33216770509,
			"-0.008": 6.04151393134,
			"-0.007": 9.66902977776,
			"-0.006": 17.9324904871,
			"-0.005": 17.0279358103,
			"-0.004": 14.6621544181,
			"-0.003": 13.22805603,
			"-0.002": 10.1029015262,
			"-0.001": 10.9935019906,
			"0.0": 8.38178436782,
			"0.001": 10.0594390674,
			"0.002": 10.3747951192,
			"0.003": 10.0879531174,
			"0.004": 9.68685105194,
			"0.005": 10.6262761897,
			"0.006": 6.42172227207,
			"0.007": 2.91971858615,
			"0.008": 4.40981308606,
			"0.009": 5.05463818331,
			"0.01": 5.98483981727,
			"0.011": 6.86803281145,
			"0.012": 8.90782909201,
			"0.013": 7.31222966445,
			"0.014": 1.22318505353,
			"0.015": 0.0,
			"0.016": 0.0,
			"0.017": 0.0,
			"0.018": 0.0,
			"0.019": 0.0,
			"0.02": 0.0,
			"0.021": 0.0,
			"0.022": 0.0,
			"0.023": 0.0,
			"0.024": 0.0,
			"0.025": 0.0
		}
	}
}
