{
	 "smiles": "CC12CCC3C(CCC4=C3C=CC(OC(=O)C3=CC=CC=C3)=C4)C1CCC2O", 
	 "Tm": 469.15, 
	 "num_atms": 56, 
	 "gaussian": { 
		 "optdone": 1, 
		 "sigma_profile": "yes", 
		 "theory": "DFT", 
		 "functional": "B3LYP", 
		 "basiset": "6-31G**", 
		 "properties": { 
			 "R2extent": 19119.9242, 
			 "electric_dipole_moment_norm": 2.14661197938, 
			 "electric_quadrupole_moment_norm": 23.6028618398, 
			 "total_energy": -1195.23651111, 
			 "HOMO_LUMO_gap": 0.17412, 
			 "cosmo_polarized_energy": -12.81, 
			 "cosmo_cavitation_energy": 53.37, 
			 "cosmo_dispersion_energy": -38.08, 
			 "cosmo_repulsion_energy": 2.79, 
			 "cosmo_total_nonelectrostatic_energy": 18.08, 
			 "SMD_solvation_energy": 8.48 
		},
		"coords": [
			{
				"x": 3.3654026327,
				"y": 1.7900577447,
				"z": -1.9609671646,
				"element": "C" 
			},
			{
				"x": 2.198366623,
				"y": 2.797182838,
				"z": -1.8686472099,
				"element": "C" 
			},
			{
				"x": 1.2042831865,
				"y": 2.527677485,
				"z": -3.0197361699,
				"element": "C" 
			},
			{
				"x": 0.2525802173,
				"y": 1.3850188939,
				"z": -2.6499373749,
				"element": "C" 
			},
			{
				"x": -0.7117869443,
				"y": 1.7988626128,
				"z": -1.5204944156,
				"element": "C" 
			},
			{
				"x": -0.0326013471,
				"y": 2.8000228673,
				"z": -0.5053730946,
				"element": "C" 
			},
			{
				"x": -0.6403242134,
				"y": 2.7067912286,
				"z": 0.912842445,
				"element": "C" 
			},
			{
				"x": -2.1144657164,
				"y": 2.2713292092,
				"z": 0.8885295511,
				"element": "C" 
			},
			{
				"x": -2.1948702432,
				"y": 0.8874558856,
				"z": 0.2956295108,
				"element": "C" 
			},
			{
				"x": -1.4339381243,
				"y": 0.628668924,
				"z": -0.8623876988,
				"element": "C" 
			},
			{
				"x": -1.4509562401,
				"y": -0.6664310205,
				"z": -1.393055634,
				"element": "C" 
			},
			{
				"x": -2.192686816,
				"y": -1.6936449517,
				"z": -0.8056240569,
				"element": "C" 
			},
			{
				"x": -2.9281105142,
				"y": -1.4138602313,
				"z": 0.3419992076,
				"element": "C" 
			},
			{
				"x": -3.7608917702,
				"y": -2.3504000279,
				"z": 0.9617588168,
				"element": "O" 
			},
			{
				"x": -3.3250313798,
				"y": -3.6192804208,
				"z": 1.2240786478,
				"element": "C" 
			},
			{
				"x": -2.2175616312,
				"y": -4.0287648461,
				"z": 0.9526507743,
				"element": "O" 
			},
			{
				"x": -4.3849135817,
				"y": -4.4298573049,
				"z": 1.8879465128,
				"element": "C" 
			},
			{
				"x": -4.0681079523,
				"y": -5.7515920688,
				"z": 2.2324576137,
				"element": "C" 
			},
			{
				"x": -5.0175080114,
				"y": -6.5581852257,
				"z": 2.8543274371,
				"element": "C" 
			},
			{
				"x": -6.2890871506,
				"y": -6.050324998,
				"z": 3.1346505404,
				"element": "C" 
			},
			{
				"x": -6.6087200097,
				"y": -4.7340996442,
				"z": 2.7922854219,
				"element": "C" 
			},
			{
				"x": -5.6611939065,
				"y": -3.9223954577,
				"z": 2.1706216321,
				"element": "C" 
			},
			{
				"x": -2.930653102,
				"y": -0.134960304,
				"z": 0.8945178154,
				"element": "C" 
			},
			{
				"x": 1.5078466531,
				"y": 2.6808472152,
				"z": -0.4569402426,
				"element": "C" 
			},
			{
				"x": 2.1514945201,
				"y": 3.8069580523,
				"z": 0.4158019018,
				"element": "C" 
			},
			{
				"x": 3.2726699354,
				"y": 4.4322445097,
				"z": -0.438518015,
				"element": "C" 
			},
			{
				"x": 2.7820813314,
				"y": 4.2325321,
				"z": -1.8784211849,
				"element": "C" 
			},
			{
				"x": 1.7226131144,
				"y": 5.1474693548,
				"z": -2.1798476707,
				"element": "O" 
			},
			{
				"x": 4.0515192493,
				"y": 1.8667022432,
				"z": -1.1119186815,
				"element": "H" 
			},
			{
				"x": 3.9459270499,
				"y": 1.9430942335,
				"z": -2.8780565564,
				"element": "H" 
			},
			{
				"x": 2.989470554,
				"y": 0.7621855367,
				"z": -1.9746579752,
				"element": "H" 
			},
			{
				"x": 0.6303118893,
				"y": 3.4325858114,
				"z": -3.2375836778,
				"element": "H" 
			},
			{
				"x": 1.7582886864,
				"y": 2.2792868237,
				"z": -3.9336796401,
				"element": "H" 
			},
			{
				"x": 0.8379880987,
				"y": 0.5111756011,
				"z": -2.3375348566,
				"element": "H" 
			},
			{
				"x": -0.3215444984,
				"y": 1.0684323675,
				"z": -3.5283120732,
				"element": "H" 
			},
			{
				"x": -1.50690044,
				"y": 2.3912960464,
				"z": -1.9994294109,
				"element": "H" 
			},
			{
				"x": -0.2463799425,
				"y": 3.8047106732,
				"z": -0.8894855528,
				"element": "H" 
			},
			{
				"x": -0.0829762467,
				"y": 1.9701697966,
				"z": 1.5066776745,
				"element": "H" 
			},
			{
				"x": -0.5375193137,
				"y": 3.6676957373,
				"z": 1.4277868288,
				"element": "H" 
			},
			{
				"x": -2.699110351,
				"y": 2.9858846551,
				"z": 0.2894499162,
				"element": "H" 
			},
			{
				"x": -2.5424372988,
				"y": 2.2837160239,
				"z": 1.8965967359,
				"element": "H" 
			},
			{
				"x": -0.8846162683,
				"y": -0.8946009363,
				"z": -2.2893786848,
				"element": "H" 
			},
			{
				"x": -2.1867382818,
				"y": -2.6906391134,
				"z": -1.2263967287,
				"element": "H" 
			},
			{
				"x": -3.0748689147,
				"y": -6.122596361,
				"z": 2.0034747169,
				"element": "H" 
			},
			{
				"x": -4.7686953867,
				"y": -7.5812997276,
				"z": 3.1202589643,
				"element": "H" 
			},
			{
				"x": -7.0301792708,
				"y": -6.6796869906,
				"z": 3.6193755634,
				"element": "H" 
			},
			{
				"x": -7.5970885133,
				"y": -4.3401199955,
				"z": 3.0100042141,
				"element": "H" 
			},
			{
				"x": -5.9015373016,
				"y": -2.9003936663,
				"z": 1.9021912153,
				"element": "H" 
			},
			{
				"x": -3.5096746808,
				"y": 0.0504735517,
				"z": 1.7945808871,
				"element": "H" 
			},
			{
				"x": 1.7509180803,
				"y": 1.6990869981,
				"z": -0.028683061,
				"element": "H" 
			},
			{
				"x": 1.4025614898,
				"y": 4.5737829399,
				"z": 0.6354662958,
				"element": "H" 
			},
			{
				"x": 2.5189991363,
				"y": 3.436979803,
				"z": 1.3774310748,
				"element": "H" 
			},
			{
				"x": 3.450388649,
				"y": 5.4891455399,
				"z": -0.2043729109,
				"element": "H" 
			},
			{
				"x": 4.2266723471,
				"y": 3.9147107256,
				"z": -0.2922539981,
				"element": "H" 
			},
			{
				"x": 3.5881620445,
				"y": 4.335271673,
				"z": -2.6215638346,
				"element": "H" 
			},
			{
				"x": 2.0667298747,
				"y": 6.0421275901,
				"z": -2.0641343407,
				"element": "H" 
			}
		],
		 "valence_orbital": [ 
			{
				"type": "occ",
				"energy": -0.26314,
				"method": "rhf"
			},
			{
				"type": "occ",
				"energy": -0.25923,
				"method": "rhf"
			},
			{
				"type": "occ",
				"energy": -0.25709,
				"method": "rhf"
			},
			{
				"type": "occ",
				"energy": -0.23749,
				"method": "rhf"
			},
			{
				"type": "occ",
				"energy": -0.22062,
				"method": "rhf"
			},
			{
				"type": "unocc",
				"energy": -0.0465,
				"method": "rhf"
			},
			{
				"type": "unocc",
				"energy": -0.00658,
				"method": "rhf"
			},
			{
				"type": "unocc",
				"energy": 0.00649,
				"method": "rhf"
			},
			{
				"type": "unocc",
				"energy": 0.01105,
				"method": "rhf"
			},
			{
				"type": "unocc",
				"energy": 0.06066,
				"method": "rhf"
			}
		],
		"cosmo_sigma_profile": { 
			"-0.025": 0.0,
			"-0.024": 0.0,
			"-0.023": 0.0,
			"-0.022": 0.0,
			"-0.021": 0.0,
			"-0.02": 0.0,
			"-0.019": 0.0,
			"-0.018": 0.0,
			"-0.017": 0.0,
			"-0.016": 0.0,
			"-0.015": 0.520106753596,
			"-0.014": 0.893112476032,
			"-0.013": 0.793508663602,
			"-0.012": 1.55426569108,
			"-0.011": 0.415022885927,
			"-0.01": 0.746248493395,
			"-0.009": 0.739826391459,
			"-0.008": 1.0044654123,
			"-0.007": 2.95317197276,
			"-0.006": 11.2595088044,
			"-0.005": 17.8395888617,
			"-0.004": 20.1244560928,
			"-0.003": 34.7869697343,
			"-0.002": 51.4319076074,
			"-0.001": 55.6314079075,
			"0.0": 55.0296646896,
			"0.001": 43.5402450703,
			"0.002": 28.2862086359,
			"0.003": 24.1176956839,
			"0.004": 22.9194798341,
			"0.005": 11.7667845851,
			"0.006": 6.58229294569,
			"0.007": 4.67566139791,
			"0.008": 3.62554699132,
			"0.009": 3.20544546589,
			"0.01": 4.31002607729,
			"0.011": 5.45858793292,
			"0.012": 3.31495962687,
			"0.013": 0.281051975986,
			"0.014": 0.0,
			"0.015": 0.0,
			"0.016": 0.0,
			"0.017": 0.0,
			"0.018": 0.0,
			"0.019": 0.0,
			"0.02": 0.0,
			"0.021": 0.0,
			"0.022": 0.0,
			"0.023": 0.0,
			"0.024": 0.0,
			"0.025": 0.0
		}
	}
}
