{
	 "smiles": "CC(Br)CBr", 
	 "Tm": 217.95, 
	 "num_atms": 11, 
	 "gaussian": { 
		 "optdone": 1, 
		 "sigma_profile": "yes", 
		 "theory": "DFT", 
		 "functional": "B3LYP", 
		 "basiset": "6-31G**", 
		 "properties": { 
			 "R2extent": 3159.9834, 
			 "electric_dipole_moment_norm": 2.79442428597, 
			 "electric_quadrupole_moment_norm": 7.27865236359, 
			 "total_energy": -5260.75448584, 
			 "HOMO_LUMO_gap": 0.25233, 
			 "cosmo_polarized_energy": -6.99, 
			 "cosmo_cavitation_energy": 18.18, 
			 "cosmo_dispersion_energy": -14.24, 
			 "cosmo_repulsion_energy": 1.24, 
			 "cosmo_total_nonelectrostatic_energy": 5.18, 
			 "SMD_solvation_energy": 0.96 
		},
		"coords": [
			{
				"x": 2.3044007517,
				"y": -1.1495863099,
				"z": 2.5733228579,
				"element": "C" 
			},
			{
				"x": 1.7523494865,
				"y": -0.7567049617,
				"z": 1.2124997134,
				"element": "C" 
			},
			{
				"x": 0.0208223028,
				"y": 0.2080572523,
				"z": 1.431191955,
				"element": "Br" 
			},
			{
				"x": 2.6968583585,
				"y": 0.0388617533,
				"z": 0.326933184,
				"element": "C" 
			},
			{
				"x": 3.3836486616,
				"y": 1.7013849237,
				"z": 1.1391487078,
				"element": "Br" 
			},
			{
				"x": 1.5890731784,
				"y": -1.7709763867,
				"z": 3.1154116157,
				"element": "H" 
			},
			{
				"x": 3.2307590787,
				"y": -1.7219766799,
				"z": 2.4391499299,
				"element": "H" 
			},
			{
				"x": 2.5304168695,
				"y": -0.2654387228,
				"z": 3.1723426046,
				"element": "H" 
			},
			{
				"x": 1.4644359217,
				"y": -1.6449534767,
				"z": 0.6426662717,
				"element": "H" 
			},
			{
				"x": 3.5837350631,
				"y": -0.5609973358,
				"z": 0.1105110307,
				"element": "H" 
			},
			{
				"x": 2.2194003275,
				"y": 0.3404299443,
				"z": -0.6031778706,
				"element": "H" 
			}
		],
		 "valence_orbital": [ 
			{
				"type": "occ",
				"energy": -0.35017,
				"method": "rhf"
			},
			{
				"type": "occ",
				"energy": -0.28381,
				"method": "rhf"
			},
			{
				"type": "occ",
				"energy": -0.28108,
				"method": "rhf"
			},
			{
				"type": "occ",
				"energy": -0.27614,
				"method": "rhf"
			},
			{
				"type": "occ",
				"energy": -0.26968,
				"method": "rhf"
			},
			{
				"type": "unocc",
				"energy": -0.01735,
				"method": "rhf"
			},
			{
				"type": "unocc",
				"energy": 0.00786,
				"method": "rhf"
			},
			{
				"type": "unocc",
				"energy": 0.07663,
				"method": "rhf"
			},
			{
				"type": "unocc",
				"energy": 0.12698,
				"method": "rhf"
			},
			{
				"type": "unocc",
				"energy": 0.13395,
				"method": "rhf"
			}
		],
		"cosmo_sigma_profile": { 
			"-0.025": 0.0,
			"-0.024": 0.0,
			"-0.023": 0.0,
			"-0.022": 0.0,
			"-0.021": 0.0,
			"-0.02": 0.0,
			"-0.019": 0.0,
			"-0.018": 0.0,
			"-0.017": 0.0,
			"-0.016": 0.0,
			"-0.015": 0.0,
			"-0.014": 0.0,
			"-0.013": 0.0,
			"-0.012": 0.0,
			"-0.011": 0.0,
			"-0.01": 0.0,
			"-0.009": 1.21835260436,
			"-0.008": 8.82663121489,
			"-0.007": 7.60342660724,
			"-0.006": 6.15492014138,
			"-0.005": 8.20289426988,
			"-0.004": 7.99024284607,
			"-0.003": 8.21137979163,
			"-0.002": 9.83784311683,
			"-0.001": 11.1699346701,
			"0.0": 9.60230182246,
			"0.001": 8.23640951745,
			"0.002": 7.29408502317,
			"0.003": 8.73237342962,
			"0.004": 10.5387164202,
			"0.005": 12.868862278,
			"0.006": 16.9158174937,
			"0.007": 4.7797258659,
			"0.008": 1.10995705312,
			"0.009": 0.0,
			"0.01": 0.0,
			"0.011": 0.0,
			"0.012": 0.0,
			"0.013": 0.0,
			"0.014": 0.0,
			"0.015": 0.0,
			"0.016": 0.0,
			"0.017": 0.0,
			"0.018": 0.0,
			"0.019": 0.0,
			"0.02": 0.0,
			"0.021": 0.0,
			"0.022": 0.0,
			"0.023": 0.0,
			"0.024": 0.0,
			"0.025": 0.0
		}
	}
}
