{
	 "smiles": "OC1=NN(C=C1Br)C1=CC=C(Br)C=C1", 
	 "Tm": 473.15, 
	 "num_atms": 20, 
	 "gaussian": { 
		 "optdone": 1, 
		 "sigma_profile": "yes", 
		 "theory": "DFT", 
		 "functional": "B3LYP", 
		 "basiset": "6-31G**", 
		 "properties": { 
			 "R2extent": 9324.9331, 
			 "electric_dipole_moment_norm": 0.440868994147, 
			 "electric_quadrupole_moment_norm": 17.5180327115, 
			 "total_energy": -5674.07607807, 
			 "HOMO_LUMO_gap": 0.17677, 
			 "cosmo_polarized_energy": -10.68, 
			 "cosmo_cavitation_energy": 29.93, 
			 "cosmo_dispersion_energy": -23.1, 
			 "cosmo_repulsion_energy": 1.81, 
			 "cosmo_total_nonelectrostatic_energy": 8.64, 
			 "SMD_solvation_energy": 2.9 
		},
		"coords": [
			{
				"x": 1.3746676428,
				"y": 0.7810109853,
				"z": -3.2116599274,
				"element": "O" 
			},
			{
				"x": 0.6942040272,
				"y": 0.0059433411,
				"z": -2.3509075196,
				"element": "C" 
			},
			{
				"x": 0.7461473012,
				"y": 0.1739234727,
				"z": -1.0405174285,
				"element": "N" 
			},
			{
				"x": -0.070082635,
				"y": -0.7967033349,
				"z": -0.524088806,
				"element": "N" 
			},
			{
				"x": -0.623735247,
				"y": -1.5606838961,
				"z": -1.5106022315,
				"element": "C" 
			},
			{
				"x": -0.1529075135,
				"y": -1.0719936399,
				"z": -2.7085811779,
				"element": "C" 
			},
			{
				"x": -0.5454913406,
				"y": -1.6939703875,
				"z": -4.4339376205,
				"element": "Br" 
			},
			{
				"x": -0.2416610031,
				"y": -0.89823039,
				"z": 0.8766056745,
				"element": "C" 
			},
			{
				"x": -1.0700062811,
				"y": -1.8823714847,
				"z": 1.4309253692,
				"element": "C" 
			},
			{
				"x": -1.2270147482,
				"y": -1.9670483526,
				"z": 2.8124528769,
				"element": "C" 
			},
			{
				"x": -0.5566593814,
				"y": -1.0688011627,
				"z": 3.6401705534,
				"element": "C" 
			},
			{
				"x": -0.773257349,
				"y": -1.1863792195,
				"z": 5.5333276917,
				"element": "Br" 
			},
			{
				"x": 0.2698109272,
				"y": -0.0861958119,
				"z": 3.0973666403,
				"element": "C" 
			},
			{
				"x": 0.4279247407,
				"y": -0.0000327611,
				"z": 1.7171411011,
				"element": "C" 
			},
			{
				"x": 1.867112533,
				"y": 1.432444297,
				"z": -2.6906437251,
				"element": "H" 
			},
			{
				"x": -1.2969438866,
				"y": -2.3794561433,
				"z": -1.3178647484,
				"element": "H" 
			},
			{
				"x": -1.5990688607,
				"y": -2.5893986878,
				"z": 0.802367542,
				"element": "H" 
			},
			{
				"x": -1.8684722878,
				"y": -2.7293366338,
				"z": 3.239204302,
				"element": "H" 
			},
			{
				"x": 0.7886116887,
				"y": 0.6096545246,
				"z": 3.7466965332,
				"element": "H" 
			},
			{
				"x": 1.065521673,
				"y": 0.7565252847,
				"z": 1.2783449007,
				"element": "H" 
			}
		],
		 "valence_orbital": [ 
			{
				"type": "occ",
				"energy": -0.29031,
				"method": "rhf"
			},
			{
				"type": "occ",
				"energy": -0.27576,
				"method": "rhf"
			},
			{
				"type": "occ",
				"energy": -0.26717,
				"method": "rhf"
			},
			{
				"type": "occ",
				"energy": -0.25464,
				"method": "rhf"
			},
			{
				"type": "occ",
				"energy": -0.21815,
				"method": "rhf"
			},
			{
				"type": "unocc",
				"energy": -0.04138,
				"method": "rhf"
			},
			{
				"type": "unocc",
				"energy": -0.02476,
				"method": "rhf"
			},
			{
				"type": "unocc",
				"energy": 0.00229,
				"method": "rhf"
			},
			{
				"type": "unocc",
				"energy": 0.01103,
				"method": "rhf"
			},
			{
				"type": "unocc",
				"energy": 0.0239,
				"method": "rhf"
			}
		],
		"cosmo_sigma_profile": { 
			"-0.025": 0.0,
			"-0.024": 0.0,
			"-0.023": 0.0,
			"-0.022": 0.0,
			"-0.021": 0.0,
			"-0.02": 0.0,
			"-0.019": 0.217433334264,
			"-0.018": 1.03465319929,
			"-0.017": 0.838394465466,
			"-0.016": 1.18957687087,
			"-0.015": 0.127471046681,
			"-0.014": 0.427610250103,
			"-0.013": 0.440578456861,
			"-0.012": 1.88939867324,
			"-0.011": 3.50931275491,
			"-0.01": 2.58565028121,
			"-0.009": 2.36479152193,
			"-0.008": 3.76862904011,
			"-0.007": 7.34988692096,
			"-0.006": 8.27475542113,
			"-0.005": 8.8334482546,
			"-0.004": 10.5296297961,
			"-0.003": 9.88232066293,
			"-0.002": 11.4851049224,
			"-0.001": 12.9767443145,
			"0.0": 18.4564258658,
			"0.001": 27.4623860008,
			"0.002": 32.5736618557,
			"0.003": 30.6499628705,
			"0.004": 25.0877091057,
			"0.005": 11.3801750082,
			"0.006": 2.79887868331,
			"0.007": 4.28309624198,
			"0.008": 3.13076328897,
			"0.009": 2.92594372705,
			"0.01": 1.66178037644,
			"0.011": 0.0,
			"0.012": 0.0,
			"0.013": 0.0,
			"0.014": 0.0,
			"0.015": 0.0,
			"0.016": 0.0,
			"0.017": 0.0,
			"0.018": 0.0,
			"0.019": 0.0,
			"0.02": 0.0,
			"0.021": 0.0,
			"0.022": 0.0,
			"0.023": 0.0,
			"0.024": 0.0,
			"0.025": 0.0
		}
	}
}
