{
	 "smiles": "CC1=CC=C(SSC2=CC=C(C)C=C2)C=C1", 
	 "Tm": 320.65, 
	 "num_atms": 30, 
	 "gaussian": { 
		 "optdone": 1, 
		 "sigma_profile": "yes", 
		 "theory": "DFT", 
		 "functional": "B3LYP", 
		 "basiset": "6-31G**", 
		 "properties": { 
			 "R2extent": 6675.8042, 
			 "electric_dipole_moment_norm": 3.48815658192, 
			 "electric_quadrupole_moment_norm": 15.8055668674, 
			 "total_energy": -1338.31892743, 
			 "HOMO_LUMO_gap": 0.17377, 
			 "cosmo_polarized_energy": -7.55, 
			 "cosmo_cavitation_energy": 37.49, 
			 "cosmo_dispersion_energy": -26.38, 
			 "cosmo_repulsion_energy": 2.0, 
			 "cosmo_total_nonelectrostatic_energy": 13.12, 
			 "SMD_solvation_energy": 5.15 
		},
		"coords": [
			{
				"x": -1.5475817904,
				"y": -2.1549683733,
				"z": 5.4810837898,
				"element": "C" 
			},
			{
				"x": -0.7638311879,
				"y": -2.2637093138,
				"z": 4.1949400945,
				"element": "C" 
			},
			{
				"x": -0.3635626604,
				"y": -3.5154351702,
				"z": 3.7026884697,
				"element": "C" 
			},
			{
				"x": 0.3858241577,
				"y": -3.6238856253,
				"z": 2.53419096,
				"element": "C" 
			},
			{
				"x": 0.7489663677,
				"y": -2.4720975846,
				"z": 1.8218491603,
				"element": "C" 
			},
			{
				"x": 1.7587256647,
				"y": -2.5898778833,
				"z": 0.3461804804,
				"element": "S" 
			},
			{
				"x": 0.3710273339,
				"y": -2.9330586224,
				"z": -1.2231932801,
				"element": "S" 
			},
			{
				"x": -0.2378862238,
				"y": -1.3026190764,
				"z": -1.6497837958,
				"element": "C" 
			},
			{
				"x": 0.4477929957,
				"y": -0.5022726612,
				"z": -2.5745840019,
				"element": "C" 
			},
			{
				"x": -0.0583882076,
				"y": 0.7453682088,
				"z": -2.9293387161,
				"element": "C" 
			},
			{
				"x": -1.2579286636,
				"y": 1.2248411898,
				"z": -2.3810539991,
				"element": "C" 
			},
			{
				"x": -1.8152642794,
				"y": 2.565025987,
				"z": -2.7976427648,
				"element": "C" 
			},
			{
				"x": -1.9342371135,
				"y": 0.4160876609,
				"z": -1.4586206916,
				"element": "C" 
			},
			{
				"x": -1.4354616323,
				"y": -0.8344765337,
				"z": -1.0936352364,
				"element": "C" 
			},
			{
				"x": 0.3536951947,
				"y": -1.2165941831,
				"z": 2.3016665768,
				"element": "C" 
			},
			{
				"x": -0.3945151877,
				"y": -1.1201461831,
				"z": 3.4750022662,
				"element": "C" 
			},
			{
				"x": -2.2651023767,
				"y": -2.9750849263,
				"z": 5.5834130107,
				"element": "H" 
			},
			{
				"x": -2.0986929259,
				"y": -1.211857964,
				"z": 5.5364906838,
				"element": "H" 
			},
			{
				"x": -0.8822828521,
				"y": -2.1970586861,
				"z": 6.3526283076,
				"element": "H" 
			},
			{
				"x": -0.641716192,
				"y": -4.416344704,
				"z": 4.2443518835,
				"element": "H" 
			},
			{
				"x": 0.6892699389,
				"y": -4.598686772,
				"z": 2.1656726534,
				"element": "H" 
			},
			{
				"x": 1.3764270809,
				"y": -0.8607270545,
				"z": -3.0073311952,
				"element": "H" 
			},
			{
				"x": 0.4842844603,
				"y": 1.3580519349,
				"z": -3.645259329,
				"element": "H" 
			},
			{
				"x": -2.3627597769,
				"y": 2.4867162991,
				"z": -3.7453124426,
				"element": "H" 
			},
			{
				"x": -1.0191127401,
				"y": 3.3014276295,
				"z": -2.945376995,
				"element": "H" 
			},
			{
				"x": -2.5098947502,
				"y": 2.9602286596,
				"z": -2.050978228,
				"element": "H" 
			},
			{
				"x": -2.8638344444,
				"y": 0.7692159384,
				"z": -1.0189268204,
				"element": "H" 
			},
			{
				"x": -1.9699676815,
				"y": -1.4504542686,
				"z": -0.3777195605,
				"element": "H" 
			},
			{
				"x": 0.6326303317,
				"y": -0.3221524984,
				"z": 1.754102656,
				"element": "H" 
			},
			{
				"x": -0.6967228398,
				"y": -0.1402554238,
				"z": 3.8364960638,
				"element": "H" 
			}
		],
		 "valence_orbital": [ 
			{
				"type": "occ",
				"energy": -0.25603,
				"method": "rhf"
			},
			{
				"type": "occ",
				"energy": -0.25324,
				"method": "rhf"
			},
			{
				"type": "occ",
				"energy": -0.24233,
				"method": "rhf"
			},
			{
				"type": "occ",
				"energy": -0.23854,
				"method": "rhf"
			},
			{
				"type": "occ",
				"energy": -0.22847,
				"method": "rhf"
			},
			{
				"type": "unocc",
				"energy": -0.0547,
				"method": "rhf"
			},
			{
				"type": "unocc",
				"energy": -0.00997,
				"method": "rhf"
			},
			{
				"type": "unocc",
				"energy": -0.00639,
				"method": "rhf"
			},
			{
				"type": "unocc",
				"energy": -0.00355,
				"method": "rhf"
			},
			{
				"type": "unocc",
				"energy": 0.0219,
				"method": "rhf"
			}
		],
		"cosmo_sigma_profile": { 
			"-0.025": 0.0,
			"-0.024": 0.0,
			"-0.023": 0.0,
			"-0.022": 0.0,
			"-0.021": 0.0,
			"-0.02": 0.0,
			"-0.019": 0.0,
			"-0.018": 0.0,
			"-0.017": 0.0,
			"-0.016": 0.0,
			"-0.015": 0.0,
			"-0.014": 0.0,
			"-0.013": 0.0,
			"-0.012": 0.0,
			"-0.011": 0.0,
			"-0.01": 0.0,
			"-0.009": 0.0,
			"-0.008": 0.0,
			"-0.007": 0.37387431241,
			"-0.006": 9.91965942702,
			"-0.005": 21.319004111,
			"-0.004": 30.2220572079,
			"-0.003": 23.5879506018,
			"-0.002": 24.8891596376,
			"-0.001": 26.6417775302,
			"0.0": 31.0492085689,
			"0.001": 27.0256207447,
			"0.002": 24.8076779238,
			"0.003": 23.784845527,
			"0.004": 28.8520345838,
			"0.005": 17.5936399034,
			"0.006": 5.4768645018,
			"0.007": 3.84851119887,
			"0.008": 3.08345261747,
			"0.009": 0.0420830572782,
			"0.01": 0.0,
			"0.011": 0.0,
			"0.012": 0.0,
			"0.013": 0.0,
			"0.014": 0.0,
			"0.015": 0.0,
			"0.016": 0.0,
			"0.017": 0.0,
			"0.018": 0.0,
			"0.019": 0.0,
			"0.02": 0.0,
			"0.021": 0.0,
			"0.022": 0.0,
			"0.023": 0.0,
			"0.024": 0.0,
			"0.025": 0.0
		}
	}
}
