{
	 "smiles": "NCC1=CC=C(C=C1)N1CCNC(=O)C1", 
	 "Tm": 463.15, 
	 "num_atms": 30, 
	 "gaussian": { 
		 "optdone": 1, 
		 "sigma_profile": "yes", 
		 "theory": "DFT", 
		 "functional": "B3LYP", 
		 "basiset": "6-31G**", 
		 "properties": { 
			 "R2extent": 4223.011, 
			 "electric_dipole_moment_norm": 3.79689301403, 
			 "electric_quadrupole_moment_norm": 18.5948720426, 
			 "total_energy": -667.688101341, 
			 "HOMO_LUMO_gap": 0.19143, 
			 "cosmo_polarized_energy": -17.28, 
			 "cosmo_cavitation_energy": 32.03, 
			 "cosmo_dispersion_energy": -23.18, 
			 "cosmo_repulsion_energy": 1.83, 
			 "cosmo_total_nonelectrostatic_energy": 10.68, 
			 "SMD_solvation_energy": 1.88 
		},
		"coords": [
			{
				"x": 4.4333222653,
				"y": -2.4344347361,
				"z": 0.1892606006,
				"element": "N" 
			},
			{
				"x": 3.7015384686,
				"y": -1.4120299718,
				"z": -0.5801208137,
				"element": "C" 
			},
			{
				"x": 2.321490495,
				"y": -1.0551914624,
				"z": -0.0585683535,
				"element": "C" 
			},
			{
				"x": 2.1445914007,
				"y": -0.0501572058,
				"z": 0.9044783695,
				"element": "C" 
			},
			{
				"x": 0.8927901076,
				"y": 0.2340017087,
				"z": 1.4379388431,
				"element": "C" 
			},
			{
				"x": -0.2517973298,
				"y": -0.4676578993,
				"z": 1.0119471949,
				"element": "C" 
			},
			{
				"x": -0.0838994893,
				"y": -1.4660241927,
				"z": 0.0365731422,
				"element": "C" 
			},
			{
				"x": 1.1831313986,
				"y": -1.7518530831,
				"z": -0.4753450006,
				"element": "C" 
			},
			{
				"x": -1.5058895205,
				"y": -0.1664928758,
				"z": 1.6066633348,
				"element": "N" 
			},
			{
				"x": -1.9625434305,
				"y": 1.2240284104,
				"z": 1.5165692101,
				"element": "C" 
			},
			{
				"x": -2.4379161252,
				"y": 1.558588219,
				"z": 0.0977564629,
				"element": "C" 
			},
			{
				"x": -3.3530687209,
				"y": 0.5250333537,
				"z": -0.3849909749,
				"element": "N" 
			},
			{
				"x": -3.4029161269,
				"y": -0.7729911164,
				"z": 0.0492818737,
				"element": "C" 
			},
			{
				"x": -4.0736125641,
				"y": -1.6305846321,
				"z": -0.5097522097,
				"element": "O" 
			},
			{
				"x": -2.6262677632,
				"y": -1.0623070377,
				"z": 1.3394198879,
				"element": "C" 
			},
			{
				"x": 4.5190417417,
				"y": -2.12372144,
				"z": 1.1555983031,
				"element": "H" 
			},
			{
				"x": 3.8711526626,
				"y": -3.2829880001,
				"z": 0.229300767,
				"element": "H" 
			},
			{
				"x": 4.3284365013,
				"y": -0.5131180179,
				"z": -0.6100637715,
				"element": "H" 
			},
			{
				"x": 3.6229649841,
				"y": -1.7724347072,
				"z": -1.6124025568,
				"element": "H" 
			},
			{
				"x": 3.0074876512,
				"y": 0.5133559221,
				"z": 1.254203799,
				"element": "H" 
			},
			{
				"x": 0.7993007659,
				"y": 0.9910102875,
				"z": 2.2108257191,
				"element": "H" 
			},
			{
				"x": -0.9378838562,
				"y": -2.0140049526,
				"z": -0.3461761194,
				"element": "H" 
			},
			{
				"x": 1.2780571713,
				"y": -2.5267703456,
				"z": -1.2335173221,
				"element": "H" 
			},
			{
				"x": -2.7844753886,
				"y": 1.3558900946,
				"z": 2.2301961608,
				"element": "H" 
			},
			{
				"x": -1.1638897169,
				"y": 1.9097612067,
				"z": 1.8040886415,
				"element": "H" 
			},
			{
				"x": -1.565816052,
				"y": 1.6397236431,
				"z": -0.5667335881,
				"element": "H" 
			},
			{
				"x": -2.9510697927,
				"y": 2.5277826788,
				"z": 0.0920768754,
				"element": "H" 
			},
			{
				"x": -3.8342814785,
				"y": 0.6792315247,
				"z": -1.2624192192,
				"element": "H" 
			},
			{
				"x": -2.3003433398,
				"y": -2.1020733815,
				"z": 1.3183889759,
				"element": "H" 
			},
			{
				"x": -3.3422349191,
				"y": -0.9726719914,
				"z": 2.1681217682,
				"element": "H" 
			}
		],
		 "valence_orbital": [ 
			{
				"type": "occ",
				"energy": -0.25602,
				"method": "rhf"
			},
			{
				"type": "occ",
				"energy": -0.25209,
				"method": "rhf"
			},
			{
				"type": "occ",
				"energy": -0.25,
				"method": "rhf"
			},
			{
				"type": "occ",
				"energy": -0.23384,
				"method": "rhf"
			},
			{
				"type": "occ",
				"energy": -0.19826,
				"method": "rhf"
			},
			{
				"type": "unocc",
				"energy": -0.00683,
				"method": "rhf"
			},
			{
				"type": "unocc",
				"energy": 0.00208,
				"method": "rhf"
			},
			{
				"type": "unocc",
				"energy": 0.02484,
				"method": "rhf"
			},
			{
				"type": "unocc",
				"energy": 0.07625,
				"method": "rhf"
			},
			{
				"type": "unocc",
				"energy": 0.08761,
				"method": "rhf"
			}
		],
		"cosmo_sigma_profile": { 
			"-0.025": 0.0,
			"-0.024": 0.0,
			"-0.023": 0.0,
			"-0.022": 0.0,
			"-0.021": 0.0,
			"-0.02": 0.0,
			"-0.019": 0.0,
			"-0.018": 0.0,
			"-0.017": 0.0,
			"-0.016": 0.0,
			"-0.015": 0.0,
			"-0.014": 0.263911475474,
			"-0.013": 1.37181543902,
			"-0.012": 0.618117559413,
			"-0.011": 1.20247346438,
			"-0.01": 1.33198788057,
			"-0.009": 3.12292873038,
			"-0.008": 3.32267871426,
			"-0.007": 5.87025526649,
			"-0.006": 15.0768337447,
			"-0.005": 25.1824564622,
			"-0.004": 29.4556208226,
			"-0.003": 25.6818648571,
			"-0.002": 18.1725910695,
			"-0.001": 13.3227154096,
			"0.0": 15.3478542454,
			"0.001": 9.8178757945,
			"0.002": 9.01118188692,
			"0.003": 8.47474761798,
			"0.004": 9.60315292325,
			"0.005": 9.8664117003,
			"0.006": 11.3537269776,
			"0.007": 4.56214246539,
			"0.008": 3.28448919112,
			"0.009": 2.19742590956,
			"0.01": 2.07415109129,
			"0.011": 2.55412034385,
			"0.012": 2.76588127204,
			"0.013": 3.33081984688,
			"0.014": 6.66525257245,
			"0.015": 3.10329257639,
			"0.016": 0.805361453433,
			"0.017": 0.471948520176,
			"0.018": 0.803693874977,
			"0.019": 0.585250179736,
			"0.02": 0.46426518486,
			"0.021": 0.0,
			"0.022": 0.0,
			"0.023": 0.0,
			"0.024": 0.0,
			"0.025": 0.0
		}
	}
}
