{
	 "smiles": "CS(=O)(=O)N1CCN(CC1)C1=NC=C(N)C=C1", 
	 "Tm": 452.15, 
	 "num_atms": 33, 
	 "gaussian": { 
		 "optdone": 1, 
		 "sigma_profile": "yes", 
		 "theory": "DFT", 
		 "functional": "B3LYP", 
		 "basiset": "6-31G**", 
		 "properties": { 
			 "R2extent": 6462.6777, 
			 "electric_dipole_moment_norm": 2.77966169344, 
			 "electric_quadrupole_moment_norm": 32.35535824, 
			 "total_energy": -1158.2754978, 
			 "HOMO_LUMO_gap": 0.16574, 
			 "cosmo_polarized_energy": -21.32, 
			 "cosmo_cavitation_energy": 35.91, 
			 "cosmo_dispersion_energy": -26.49, 
			 "cosmo_repulsion_energy": 2.0, 
			 "cosmo_total_nonelectrostatic_energy": 11.42, 
			 "SMD_solvation_energy": 2.37 
		},
		"coords": [
			{
				"x": 2.3677628791,
				"y": 0.9941061688,
				"z": -3.5267661006,
				"element": "C" 
			},
			{
				"x": 2.360449889,
				"y": -0.2099843208,
				"z": -2.1861437811,
				"element": "S" 
			},
			{
				"x": 1.8891799149,
				"y": -1.4893893806,
				"z": -2.7270758817,
				"element": "O" 
			},
			{
				"x": 3.6572736577,
				"y": -0.1195998255,
				"z": -1.5027779668,
				"element": "O" 
			},
			{
				"x": 1.1125977889,
				"y": 0.4036005754,
				"z": -1.200827303,
				"element": "N" 
			},
			{
				"x": 1.5411725442,
				"y": 1.4131419423,
				"z": -0.2068142856,
				"element": "C" 
			},
			{
				"x": 0.2906885615,
				"y": 2.0819700321,
				"z": 0.3793760309,
				"element": "C" 
			},
			{
				"x": -0.6356810933,
				"y": 1.1083700212,
				"z": 0.9521141093,
				"element": "N" 
			},
			{
				"x": -1.0120547587,
				"y": 0.0971054981,
				"z": -0.033150084,
				"element": "C" 
			},
			{
				"x": 0.2139735075,
				"y": -0.6163492726,
				"z": -0.6210526507,
				"element": "C" 
			},
			{
				"x": -0.4912212835,
				"y": 0.7632132949,
				"z": 2.3078651598,
				"element": "C" 
			},
			{
				"x": 0.4593898575,
				"y": 1.3965065609,
				"z": 3.0065879349,
				"element": "N" 
			},
			{
				"x": 0.5912498615,
				"y": 1.1481590987,
				"z": 4.3133118383,
				"element": "C" 
			},
			{
				"x": -0.1949783108,
				"y": 0.237088063,
				"z": 5.0253301536,
				"element": "C" 
			},
			{
				"x": -0.0442790269,
				"y": 0.0468633764,
				"z": 6.407164868,
				"element": "N" 
			},
			{
				"x": -1.1937566493,
				"y": -0.422396392,
				"z": 4.2893468682,
				"element": "C" 
			},
			{
				"x": -1.3522678893,
				"y": -0.1619828835,
				"z": 2.9377115536,
				"element": "C" 
			},
			{
				"x": 2.5612468635,
				"y": 1.9886075705,
				"z": -3.1227764978,
				"element": "H" 
			},
			{
				"x": 3.1730106964,
				"y": 0.7036602484,
				"z": -4.2038950688,
				"element": "H" 
			},
			{
				"x": 1.4028265145,
				"y": 0.9570804401,
				"z": -4.0313844336,
				"element": "H" 
			},
			{
				"x": 2.1361657626,
				"y": 0.9568513449,
				"z": 0.594239448,
				"element": "H" 
			},
			{
				"x": 2.1644078911,
				"y": 2.1634470759,
				"z": -0.7021952537,
				"element": "H" 
			},
			{
				"x": -0.2370184645,
				"y": 2.6181156729,
				"z": -0.4197493918,
				"element": "H" 
			},
			{
				"x": 0.5848013377,
				"y": 2.7886420214,
				"z": 1.1539262277,
				"element": "H" 
			},
			{
				"x": -1.5606581222,
				"y": 0.5921146103,
				"z": -0.8441038009,
				"element": "H" 
			},
			{
				"x": -1.6794227628,
				"y": -0.6432108837,
				"z": 0.4091203104,
				"element": "H" 
			},
			{
				"x": 0.7181754923,
				"y": -1.1903797243,
				"z": 0.1714468365,
				"element": "H" 
			},
			{
				"x": -0.0818896898,
				"y": -1.3086883659,
				"z": -1.410346112,
				"element": "H" 
			},
			{
				"x": 1.3773971167,
				"y": 1.7028261111,
				"z": 4.8269929855,
				"element": "H" 
			},
			{
				"x": 0.8669179736,
				"y": 0.3107849554,
				"z": 6.7600040116,
				"element": "H" 
			},
			{
				"x": -0.2932089784,
				"y": -0.8802799838,
				"z": 6.7273118677,
				"element": "H" 
			},
			{
				"x": -1.8579042385,
				"y": -1.1264884573,
				"z": 4.7851469184,
				"element": "H" 
			},
			{
				"x": -2.1502468422,
				"y": -0.6529051926,
				"z": 2.3929614893,
				"element": "H" 
			}
		],
		 "valence_orbital": [ 
			{
				"type": "occ",
				"energy": -0.27655,
				"method": "rhf"
			},
			{
				"type": "occ",
				"energy": -0.2623,
				"method": "rhf"
			},
			{
				"type": "occ",
				"energy": -0.25543,
				"method": "rhf"
			},
			{
				"type": "occ",
				"energy": -0.24449,
				"method": "rhf"
			},
			{
				"type": "occ",
				"energy": -0.18245,
				"method": "rhf"
			},
			{
				"type": "unocc",
				"energy": -0.01671,
				"method": "rhf"
			},
			{
				"type": "unocc",
				"energy": 0.01924,
				"method": "rhf"
			},
			{
				"type": "unocc",
				"energy": 0.06353,
				"method": "rhf"
			},
			{
				"type": "unocc",
				"energy": 0.07391,
				"method": "rhf"
			},
			{
				"type": "unocc",
				"energy": 0.07823,
				"method": "rhf"
			}
		],
		"cosmo_sigma_profile": { 
			"-0.025": 0.0,
			"-0.024": 0.0,
			"-0.023": 0.0,
			"-0.022": 0.0,
			"-0.021": 0.0,
			"-0.02": 0.0,
			"-0.019": 0.0,
			"-0.018": 0.0,
			"-0.017": 0.0,
			"-0.016": 0.0,
			"-0.015": 0.0,
			"-0.014": 0.0,
			"-0.013": 0.0711325011658,
			"-0.012": 1.90642083173,
			"-0.011": 3.05568849152,
			"-0.01": 3.3996399766,
			"-0.009": 6.24880719676,
			"-0.008": 10.476355909,
			"-0.007": 10.9972605652,
			"-0.006": 15.3339556712,
			"-0.005": 18.8387444759,
			"-0.004": 29.5613077153,
			"-0.003": 24.6854257848,
			"-0.002": 16.0998268974,
			"-0.001": 13.1577249734,
			"0.0": 11.3857059254,
			"0.001": 9.54106618434,
			"0.002": 10.5259044098,
			"0.003": 11.3978114352,
			"0.004": 17.3037912872,
			"0.005": 12.9046142537,
			"0.006": 6.99148052269,
			"0.007": 6.28172759533,
			"0.008": 5.7081508016,
			"0.009": 6.2134271818,
			"0.01": 7.48669559364,
			"0.011": 11.970534629,
			"0.012": 8.45531006297,
			"0.013": 1.17353552277,
			"0.014": 0.645118428969,
			"0.015": 0.632987662609,
			"0.016": 0.141354837952,
			"0.017": 0.0,
			"0.018": 0.0,
			"0.019": 0.0,
			"0.02": 0.0,
			"0.021": 0.0,
			"0.022": 0.0,
			"0.023": 0.0,
			"0.024": 0.0,
			"0.025": 0.0
		}
	}
}
