{
	 "smiles": "NC(=O)NC1=C(C=CC(Cl)=C1)C(O)=O", 
	 "Tm": 459.15, 
	 "num_atms": 21, 
	 "gaussian": { 
		 "optdone": 1, 
		 "sigma_profile": "yes", 
		 "theory": "DFT", 
		 "functional": "B3LYP", 
		 "basiset": "6-31G**", 
		 "properties": { 
			 "R2extent": 4310.9201, 
			 "electric_dipole_moment_norm": 4.00384405416, 
			 "electric_quadrupole_moment_norm": 21.6652146084, 
			 "total_energy": -1104.47181031, 
			 "HOMO_LUMO_gap": 0.18369, 
			 "cosmo_polarized_energy": -21.27, 
			 "cosmo_cavitation_energy": 28.01, 
			 "cosmo_dispersion_energy": -20.32, 
			 "cosmo_repulsion_energy": 1.63, 
			 "cosmo_total_nonelectrostatic_energy": 9.33, 
			 "SMD_solvation_energy": 6.69 
		},
		"coords": [
			{
				"x": -1.7177037353,
				"y": -2.2012904699,
				"z": -1.9227307459,
				"element": "N" 
			},
			{
				"x": -1.6134119828,
				"y": -2.2401281886,
				"z": -0.5464932519,
				"element": "C" 
			},
			{
				"x": -2.3596549804,
				"y": -2.8901335555,
				"z": 0.1664075164,
				"element": "O" 
			},
			{
				"x": -0.5945794459,
				"y": -1.4634077916,
				"z": 0.0056069257,
				"element": "N" 
			},
			{
				"x": 0.4347225504,
				"y": -0.7509959184,
				"z": -0.634599751,
				"element": "C" 
			},
			{
				"x": 1.2620640565,
				"y": -1.315246824,
				"z": -1.6346375638,
				"element": "C" 
			},
			{
				"x": 2.2127068324,
				"y": -0.5004895023,
				"z": -2.2690146457,
				"element": "C" 
			},
			{
				"x": 2.4113063514,
				"y": 0.8241531017,
				"z": -1.8944824938,
				"element": "C" 
			},
			{
				"x": 1.62435142,
				"y": 1.3476974905,
				"z": -0.8686288735,
				"element": "C" 
			},
			{
				"x": 1.8553762329,
				"y": 3.0110299609,
				"z": -0.364476294,
				"element": "Cl" 
			},
			{
				"x": 0.6336176642,
				"y": 0.5860801605,
				"z": -0.2577028013,
				"element": "C" 
			},
			{
				"x": 1.2606859175,
				"y": -2.7801377777,
				"z": -1.9313642757,
				"element": "C" 
			},
			{
				"x": 1.6593223749,
				"y": -3.0386043032,
				"z": -3.2045936137,
				"element": "O" 
			},
			{
				"x": 1.0041402727,
				"y": -3.6626135981,
				"z": -1.1434584462,
				"element": "O" 
			},
			{
				"x": -1.39809341,
				"y": -1.3855064918,
				"z": -2.42438718,
				"element": "H" 
			},
			{
				"x": -2.5657557016,
				"y": -2.6269795528,
				"z": -2.2656306598,
				"element": "H" 
			},
			{
				"x": -0.6572222862,
				"y": -1.4141808155,
				"z": 1.0124595862,
				"element": "H" 
			},
			{
				"x": 2.8301875008,
				"y": -0.9347662039,
				"z": -3.0467543493,
				"element": "H" 
			},
			{
				"x": 3.1650831753,
				"y": 1.4352761215,
				"z": -2.376729285,
				"element": "H" 
			},
			{
				"x": -0.00786406,
				"y": 1.0269448641,
				"z": 0.4971971845,
				"element": "H" 
			},
			{
				"x": 1.6864212531,
				"y": -4.0075007057,
				"z": -3.2759869823,
				"element": "H" 
			}
		],
		 "valence_orbital": [ 
			{
				"type": "occ",
				"energy": -0.28502,
				"method": "rhf"
			},
			{
				"type": "occ",
				"energy": -0.27532,
				"method": "rhf"
			},
			{
				"type": "occ",
				"energy": -0.26767,
				"method": "rhf"
			},
			{
				"type": "occ",
				"energy": -0.25773,
				"method": "rhf"
			},
			{
				"type": "occ",
				"energy": -0.24326,
				"method": "rhf"
			},
			{
				"type": "unocc",
				"energy": -0.05957,
				"method": "rhf"
			},
			{
				"type": "unocc",
				"energy": -0.03502,
				"method": "rhf"
			},
			{
				"type": "unocc",
				"energy": 0.01486,
				"method": "rhf"
			},
			{
				"type": "unocc",
				"energy": 0.03258,
				"method": "rhf"
			},
			{
				"type": "unocc",
				"energy": 0.0579,
				"method": "rhf"
			}
		],
		"cosmo_sigma_profile": { 
			"-0.025": 0.0,
			"-0.024": 0.0,
			"-0.023": 0.0,
			"-0.022": 0.0,
			"-0.021": 0.0,
			"-0.02": 0.0,
			"-0.019": 0.187059563023,
			"-0.018": 0.720679332041,
			"-0.017": 0.867565287532,
			"-0.016": 1.04912334657,
			"-0.015": 1.35291673516,
			"-0.014": 2.58208950067,
			"-0.013": 3.87488992225,
			"-0.012": 2.98122796928,
			"-0.011": 4.86477803418,
			"-0.01": 4.47821039656,
			"-0.009": 3.79165936146,
			"-0.008": 6.25069978018,
			"-0.007": 8.61004650227,
			"-0.006": 8.30517488734,
			"-0.005": 6.62234013918,
			"-0.004": 7.97240975628,
			"-0.003": 9.7347512012,
			"-0.002": 11.8385561456,
			"-0.001": 11.8037094266,
			"0.0": 18.1328255546,
			"0.001": 21.5093516343,
			"0.002": 15.0097604126,
			"0.003": 11.2047370228,
			"0.004": 12.9834444257,
			"0.005": 5.60801483657,
			"0.006": 4.01907402413,
			"0.007": 3.76381037256,
			"0.008": 3.84754002433,
			"0.009": 5.73612240979,
			"0.01": 4.45674424401,
			"0.011": 5.38933694747,
			"0.012": 4.78694131151,
			"0.013": 4.83572170496,
			"0.014": 5.69407062331,
			"0.015": 0.558949170946,
			"0.016": 0.0,
			"0.017": 0.0,
			"0.018": 0.0,
			"0.019": 0.0,
			"0.02": 0.0,
			"0.021": 0.0,
			"0.022": 0.0,
			"0.023": 0.0,
			"0.024": 0.0,
			"0.025": 0.0
		}
	}
}
