{
	 "smiles": "CC1=C(C=C(C=C1C(O)=O)S(N)(=O)=O)[N+]([O-])=O", 
	 "Tm": 446.15, 
	 "num_atms": 25, 
	 "gaussian": { 
		 "optdone": 1, 
		 "sigma_profile": "yes", 
		 "theory": "DFT", 
		 "functional": "B3LYP", 
		 "basiset": "6-31G**", 
		 "properties": { 
			 "R2extent": 4906.0442, 
			 "electric_dipole_moment_norm": 5.32584135513, 
			 "electric_quadrupole_moment_norm": 15.8947614789, 
			 "total_energy": -1268.5353286, 
			 "HOMO_LUMO_gap": 0.18125, 
			 "cosmo_polarized_energy": -26.78, 
			 "cosmo_cavitation_energy": 32.08, 
			 "cosmo_dispersion_energy": -23.48, 
			 "cosmo_repulsion_energy": 1.79, 
			 "cosmo_total_nonelectrostatic_energy": 10.39, 
			 "SMD_solvation_energy": 8.34 
		},
		"coords": [
			{
				"x": 0.9298133903,
				"y": 2.4810363476,
				"z": 1.9274663168,
				"element": "C" 
			},
			{
				"x": 0.499715183,
				"y": 1.1773229833,
				"z": 1.3015146668,
				"element": "C" 
			},
			{
				"x": 1.1718290866,
				"y": 0.5924345312,
				"z": 0.2113249396,
				"element": "C" 
			},
			{
				"x": 0.758163458,
				"y": -0.5832848257,
				"z": -0.4134372386,
				"element": "C" 
			},
			{
				"x": -0.3662222388,
				"y": -1.2316620922,
				"z": 0.0729012605,
				"element": "C" 
			},
			{
				"x": -1.0667600515,
				"y": -0.7102875033,
				"z": 1.1565644202,
				"element": "C" 
			},
			{
				"x": -0.6500318565,
				"y": 0.4821442119,
				"z": 1.7584380482,
				"element": "C" 
			},
			{
				"x": -1.4140242074,
				"y": 0.9604444146,
				"z": 2.9688811526,
				"element": "C" 
			},
			{
				"x": -2.7616469215,
				"y": 0.8003780841,
				"z": 2.9162049938,
				"element": "O" 
			},
			{
				"x": -0.8955471043,
				"y": 1.4267970642,
				"z": 3.9527090136,
				"element": "O" 
			},
			{
				"x": -0.91038882,
				"y": -2.7677471509,
				"z": -0.6842250529,
				"element": "S" 
			},
			{
				"x": -2.0010904951,
				"y": -2.2374803173,
				"z": -1.8625912094,
				"element": "N" 
			},
			{
				"x": -1.7039784631,
				"y": -3.4867568832,
				"z": 0.3141848653,
				"element": "O" 
			},
			{
				"x": 0.2537875977,
				"y": -3.3524773786,
				"z": -1.3504281142,
				"element": "O" 
			},
			{
				"x": 2.4011861258,
				"y": 1.1941557481,
				"z": -0.3514971855,
				"element": "N" 
			},
			{
				"x": 2.6098286373,
				"y": 1.0141757627,
				"z": -1.5497493483,
				"element": "O" 
			},
			{
				"x": 3.1441245485,
				"y": 1.808528514,
				"z": 0.4096215952,
				"element": "O" 
			},
			{
				"x": 1.3639503078,
				"y": 3.152903394,
				"z": 1.1874156149,
				"element": "H" 
			},
			{
				"x": 0.0931200054,
				"y": 2.9690097977,
				"z": 2.4233280329,
				"element": "H" 
			},
			{
				"x": 1.6982477599,
				"y": 2.3006489953,
				"z": 2.6847904278,
				"element": "H" 
			},
			{
				"x": 1.3247295639,
				"y": -0.97935242,
				"z": -1.2468712561,
				"element": "H" 
			},
			{
				"x": -1.9103999303,
				"y": -1.266845266,
				"z": 1.5531199002,
				"element": "H" 
			},
			{
				"x": -3.0417207664,
				"y": 0.5557202871,
				"z": 2.0228894006,
				"element": "H" 
			},
			{
				"x": -2.8686922282,
				"y": -2.7597147834,
				"z": -1.767482738,
				"element": "H" 
			},
			{
				"x": -1.5999925811,
				"y": -2.3483915152,
				"z": -2.790672506,
				"element": "H" 
			}
		],
		 "valence_orbital": [ 
			{
				"type": "occ",
				"energy": -0.32421,
				"method": "rhf"
			},
			{
				"type": "occ",
				"energy": -0.31902,
				"method": "rhf"
			},
			{
				"type": "occ",
				"energy": -0.30432,
				"method": "rhf"
			},
			{
				"type": "occ",
				"energy": -0.29661,
				"method": "rhf"
			},
			{
				"type": "occ",
				"energy": -0.2896,
				"method": "rhf"
			},
			{
				"type": "unocc",
				"energy": -0.10835,
				"method": "rhf"
			},
			{
				"type": "unocc",
				"energy": -0.08218,
				"method": "rhf"
			},
			{
				"type": "unocc",
				"energy": -0.05181,
				"method": "rhf"
			},
			{
				"type": "unocc",
				"energy": 0.0077,
				"method": "rhf"
			},
			{
				"type": "unocc",
				"energy": 0.02834,
				"method": "rhf"
			}
		],
		"cosmo_sigma_profile": { 
			"-0.025": 0.0,
			"-0.024": 0.0,
			"-0.023": 0.0,
			"-0.022": 0.0,
			"-0.021": 0.0,
			"-0.02": 0.0932222067184,
			"-0.019": 0.870909032423,
			"-0.018": 1.35078791714,
			"-0.017": 1.18886551425,
			"-0.016": 1.60695397884,
			"-0.015": 2.76863515995,
			"-0.014": 3.63128577042,
			"-0.013": 4.07162016678,
			"-0.012": 3.84001803716,
			"-0.011": 3.30642252714,
			"-0.01": 3.05365353879,
			"-0.009": 4.94466781875,
			"-0.008": 6.47948741281,
			"-0.007": 9.6400846375,
			"-0.006": 9.86352318114,
			"-0.005": 9.96043674207,
			"-0.004": 13.6328064684,
			"-0.003": 19.2719962837,
			"-0.002": 18.4562823554,
			"-0.001": 12.3846950898,
			"0.0": 8.7371993825,
			"0.001": 8.84101340232,
			"0.002": 7.31720297871,
			"0.003": 7.38830829509,
			"0.004": 7.97040854701,
			"0.005": 8.1457640143,
			"0.006": 12.5267070039,
			"0.007": 14.4252348776,
			"0.008": 10.1779646756,
			"0.009": 14.0292791981,
			"0.01": 14.5886178825,
			"0.011": 10.2384650626,
			"0.012": 1.46720272818,
			"0.013": 0.0328962303594,
			"0.014": 0.0,
			"0.015": 0.0,
			"0.016": 0.0,
			"0.017": 0.0,
			"0.018": 0.0,
			"0.019": 0.0,
			"0.02": 0.0,
			"0.021": 0.0,
			"0.022": 0.0,
			"0.023": 0.0,
			"0.024": 0.0,
			"0.025": 0.0
		}
	}
}
