{
	 "smiles": "[O-][N+](=O)C1=CN=C(Cl)N=C1Cl", 
	 "Tm": 303.15, 
	 "num_atms": 12, 
	 "gaussian": { 
		 "optdone": 1, 
		 "sigma_profile": "yes", 
		 "theory": "DFT", 
		 "functional": "B3LYP", 
		 "basiset": "6-31G**", 
		 "properties": { 
			 "R2extent": 4118.3058, 
			 "electric_dipole_moment_norm": 1.03649124936, 
			 "electric_quadrupole_moment_norm": 9.15964781255, 
			 "total_energy": -1387.98158321, 
			 "HOMO_LUMO_gap": 0.18276, 
			 "cosmo_polarized_energy": -8.77, 
			 "cosmo_cavitation_energy": 21.91, 
			 "cosmo_dispersion_energy": -16.67, 
			 "cosmo_repulsion_energy": 1.35, 
			 "cosmo_total_nonelectrostatic_energy": 6.59, 
			 "SMD_solvation_energy": 2.77 
		},
		"coords": [
			{
				"x": 1.3539170675,
				"y": 0.781840128,
				"z": 4.5196580958,
				"element": "O" 
			},
			{
				"x": 1.264927246,
				"y": -0.0338873979,
				"z": 3.6026349241,
				"element": "N" 
			},
			{
				"x": 2.1351629979,
				"y": -0.8244547594,
				"z": 3.2593128122,
				"element": "O" 
			},
			{
				"x": -0.0194740263,
				"y": -0.0700298698,
				"z": 2.8948280996,
				"element": "C" 
			},
			{
				"x": -1.1584147268,
				"y": 0.3234069417,
				"z": 3.6003599886,
				"element": "C" 
			},
			{
				"x": -2.3797779942,
				"y": 0.2928879445,
				"z": 3.0697808394,
				"element": "N" 
			},
			{
				"x": -2.434048873,
				"y": -0.1265753736,
				"z": 1.8076077778,
				"element": "C" 
			},
			{
				"x": -4.0109698862,
				"y": -0.1960096963,
				"z": 1.0859670163,
				"element": "Cl" 
			},
			{
				"x": -1.4207258551,
				"y": -0.4932409266,
				"z": 1.0294752548,
				"element": "N" 
			},
			{
				"x": -0.2064657927,
				"y": -0.4727834542,
				"z": 1.5616657509,
				"element": "C" 
			},
			{
				"x": 1.0899412015,
				"y": -0.9024129476,
				"z": 0.5015097244,
				"element": "Cl" 
			},
			{
				"x": -1.0587713586,
				"y": 0.6656594113,
				"z": 4.6258997161,
				"element": "H" 
			}
		],
		 "valence_orbital": [ 
			{
				"type": "occ",
				"energy": -0.33618,
				"method": "rhf"
			},
			{
				"type": "occ",
				"energy": -0.33153,
				"method": "rhf"
			},
			{
				"type": "occ",
				"energy": -0.3232,
				"method": "rhf"
			},
			{
				"type": "occ",
				"energy": -0.31076,
				"method": "rhf"
			},
			{
				"type": "occ",
				"energy": -0.3043,
				"method": "rhf"
			},
			{
				"type": "unocc",
				"energy": -0.12154,
				"method": "rhf"
			},
			{
				"type": "unocc",
				"energy": -0.09285,
				"method": "rhf"
			},
			{
				"type": "unocc",
				"energy": -0.05431,
				"method": "rhf"
			},
			{
				"type": "unocc",
				"energy": -0.0095,
				"method": "rhf"
			},
			{
				"type": "unocc",
				"energy": 0.01767,
				"method": "rhf"
			}
		],
		"cosmo_sigma_profile": { 
			"-0.025": 0.0,
			"-0.024": 0.0,
			"-0.023": 0.0,
			"-0.022": 0.0,
			"-0.021": 0.0,
			"-0.02": 0.0,
			"-0.019": 0.0,
			"-0.018": 0.0,
			"-0.017": 0.0,
			"-0.016": 0.0,
			"-0.015": 0.0,
			"-0.014": 0.0,
			"-0.013": 0.0,
			"-0.012": 0.0,
			"-0.011": 1.44684530322,
			"-0.01": 4.1701585368,
			"-0.009": 4.95020637101,
			"-0.008": 6.43352216079,
			"-0.007": 7.7317061782,
			"-0.006": 6.98948134458,
			"-0.005": 8.32967644533,
			"-0.004": 9.32521296673,
			"-0.003": 8.92018511013,
			"-0.002": 11.0281761565,
			"-0.001": 9.87245191308,
			"0.0": 11.0975029928,
			"0.001": 16.0110033333,
			"0.002": 16.7743030639,
			"0.003": 12.2229141296,
			"0.004": 7.82527506172,
			"0.005": 7.68526180197,
			"0.006": 12.5448335816,
			"0.007": 8.59890346442,
			"0.008": 5.61877386045,
			"0.009": 2.69856794034,
			"0.01": 1.57448663127,
			"0.011": 0.588969628076,
			"0.012": 0.244679290188,
			"0.013": 0.0,
			"0.014": 0.0,
			"0.015": 0.0,
			"0.016": 0.0,
			"0.017": 0.0,
			"0.018": 0.0,
			"0.019": 0.0,
			"0.02": 0.0,
			"0.021": 0.0,
			"0.022": 0.0,
			"0.023": 0.0,
			"0.024": 0.0,
			"0.025": 0.0
		}
	}
}
