{
	 "smiles": "ClC1=C(Cl)C(Cl)=C(Cl)S1", 
	 "Tm": 302.35, 
	 "num_atms": 9, 
	 "gaussian": { 
		 "optdone": 1, 
		 "sigma_profile": "yes", 
		 "theory": "DFT", 
		 "functional": "B3LYP", 
		 "basiset": "6-31G**", 
		 "properties": { 
			 "R2extent": 2888.9525, 
			 "electric_dipole_moment_norm": 1.02088435192, 
			 "electric_quadrupole_moment_norm": 2.00790839931, 
			 "total_energy": -2391.33932666, 
			 "HOMO_LUMO_gap": 0.19299, 
			 "cosmo_polarized_energy": -2.01, 
			 "cosmo_cavitation_energy": 22.6, 
			 "cosmo_dispersion_energy": -17.83, 
			 "cosmo_repulsion_energy": 1.42, 
			 "cosmo_total_nonelectrostatic_energy": 6.19, 
			 "SMD_solvation_energy": 2.64 
		},
		"coords": [
			{
				"x": 0.0015342707,
				"y": -2.7559005286,
				"z": -0.1281303094,
				"element": "Cl" 
			},
			{
				"x": -0.5282627006,
				"y": -1.1267480088,
				"z": -0.2714485582,
				"element": "C" 
			},
			{
				"x": 0.0011838271,
				"y": -0.1444499875,
				"z": -1.0627760519,
				"element": "C" 
			},
			{
				"x": 1.3555651465,
				"y": -0.3634699329,
				"z": -2.1091275292,
				"element": "Cl" 
			},
			{
				"x": -0.6997478267,
				"y": 1.1068281506,
				"z": -0.9286407588,
				"element": "C" 
			},
			{
				"x": -0.2666566792,
				"y": 2.5325444859,
				"z": -1.7986777858,
				"element": "Cl" 
			},
			{
				"x": -1.7371785484,
				"y": 1.0313344423,
				"z": -0.0401257644,
				"element": "C" 
			},
			{
				"x": -2.8225475508,
				"y": 2.2854371289,
				"z": 0.4121584515,
				"element": "Cl" 
			},
			{
				"x": -1.8922899387,
				"y": -0.5604757499,
				"z": 0.6584683062,
				"element": "S" 
			}
		],
		 "valence_orbital": [ 
			{
				"type": "occ",
				"energy": -0.33952,
				"method": "rhf"
			},
			{
				"type": "occ",
				"energy": -0.33472,
				"method": "rhf"
			},
			{
				"type": "occ",
				"energy": -0.32918,
				"method": "rhf"
			},
			{
				"type": "occ",
				"energy": -0.27062,
				"method": "rhf"
			},
			{
				"type": "occ",
				"energy": -0.24625,
				"method": "rhf"
			},
			{
				"type": "unocc",
				"energy": -0.05326,
				"method": "rhf"
			},
			{
				"type": "unocc",
				"energy": -0.03501,
				"method": "rhf"
			},
			{
				"type": "unocc",
				"energy": -0.02623,
				"method": "rhf"
			},
			{
				"type": "unocc",
				"energy": 0.01587,
				"method": "rhf"
			},
			{
				"type": "unocc",
				"energy": 0.02164,
				"method": "rhf"
			}
		],
		"cosmo_sigma_profile": { 
			"-0.025": 0.0,
			"-0.024": 0.0,
			"-0.023": 0.0,
			"-0.022": 0.0,
			"-0.021": 0.0,
			"-0.02": 0.0,
			"-0.019": 0.0,
			"-0.018": 0.0,
			"-0.017": 0.0,
			"-0.016": 0.0,
			"-0.015": 0.0,
			"-0.014": 0.0,
			"-0.013": 0.0,
			"-0.012": 0.0,
			"-0.011": 0.0,
			"-0.01": 0.0,
			"-0.009": 0.0,
			"-0.008": 0.0,
			"-0.007": 0.0,
			"-0.006": 0.104112545533,
			"-0.005": 4.18625153438,
			"-0.004": 10.6056334556,
			"-0.003": 12.9939339297,
			"-0.002": 22.7821429308,
			"-0.001": 35.7107219984,
			"0.0": 21.109398752,
			"0.001": 25.0567425703,
			"0.002": 29.7554555119,
			"0.003": 29.5988443326,
			"0.004": 2.43233818475,
			"0.005": 0.0,
			"0.006": 0.0,
			"0.007": 0.0,
			"0.008": 0.0,
			"0.009": 0.0,
			"0.01": 0.0,
			"0.011": 0.0,
			"0.012": 0.0,
			"0.013": 0.0,
			"0.014": 0.0,
			"0.015": 0.0,
			"0.016": 0.0,
			"0.017": 0.0,
			"0.018": 0.0,
			"0.019": 0.0,
			"0.02": 0.0,
			"0.021": 0.0,
			"0.022": 0.0,
			"0.023": 0.0,
			"0.024": 0.0,
			"0.025": 0.0
		}
	}
}
