{
	 "smiles": "CNC1=C(C(=O)C(O1)C1=CC=CC=C1)C1=CC=CC(=C1)C(F)(F)F", 
	 "Tm": 421.15, 
	 "num_atms": 38, 
	 "gaussian": { 
		 "optdone": 1, 
		 "sigma_profile": "yes", 
		 "theory": "DFT", 
		 "functional": "B3LYP", 
		 "basiset": "6-31G**", 
		 "properties": { 
			 "R2extent": 9685.5199, 
			 "electric_dipole_moment_norm": 6.8444035708, 
			 "electric_quadrupole_moment_norm": 15.8896428125, 
			 "total_energy": -1199.07679314, 
			 "HOMO_LUMO_gap": 0.18484, 
			 "cosmo_polarized_energy": -16.55, 
			 "cosmo_cavitation_energy": 43.55, 
			 "cosmo_dispersion_energy": -29.89, 
			 "cosmo_repulsion_energy": 2.22, 
			 "cosmo_total_nonelectrostatic_energy": 15.87, 
			 "SMD_solvation_energy": 8.43 
		},
		"coords": [
			{
				"x": -0.6740247408,
				"y": -3.9034669591,
				"z": 0.1354857659,
				"element": "C" 
			},
			{
				"x": 0.0167133061,
				"y": -3.4291795049,
				"z": -1.0619772873,
				"element": "N" 
			},
			{
				"x": 0.3410005189,
				"y": -2.1310890812,
				"z": -1.2835698401,
				"element": "C" 
			},
			{
				"x": 0.6664347301,
				"y": -1.0820843522,
				"z": -0.4455513764,
				"element": "C" 
			},
			{
				"x": 0.8131296716,
				"y": 0.0861796975,
				"z": -1.2962570707,
				"element": "C" 
			},
			{
				"x": 1.0643237282,
				"y": 1.245718266,
				"z": -1.0011605154,
				"element": "O" 
			},
			{
				"x": 0.6273240674,
				"y": -0.4133398007,
				"z": -2.7505222897,
				"element": "C" 
			},
			{
				"x": 0.3284555501,
				"y": -1.8189416999,
				"z": -2.6058632838,
				"element": "O" 
			},
			{
				"x": -0.4488395202,
				"y": 0.3051417945,
				"z": -3.535368509,
				"element": "C" 
			},
			{
				"x": -1.5565162935,
				"y": -0.3665869714,
				"z": -4.0617852563,
				"element": "C" 
			},
			{
				"x": -2.524077195,
				"y": 0.3342075785,
				"z": -4.7851700543,
				"element": "C" 
			},
			{
				"x": -2.3938250302,
				"y": 1.7081053273,
				"z": -4.9870648216,
				"element": "C" 
			},
			{
				"x": -1.2889746385,
				"y": 2.3811609135,
				"z": -4.4599304601,
				"element": "C" 
			},
			{
				"x": -0.3186456937,
				"y": 1.6863904586,
				"z": -3.7395729481,
				"element": "C" 
			},
			{
				"x": 0.9520418992,
				"y": -1.0723451712,
				"z": 0.9967384172,
				"element": "C" 
			},
			{
				"x": 1.6912171385,
				"y": -2.0986670642,
				"z": 1.6131308181,
				"element": "C" 
			},
			{
				"x": 1.9763817126,
				"y": -2.0598530563,
				"z": 2.9780051913,
				"element": "C" 
			},
			{
				"x": 1.5513901796,
				"y": -0.9838880011,
				"z": 3.7543416252,
				"element": "C" 
			},
			{
				"x": 0.8450241335,
				"y": 0.0580879003,
				"z": 3.1455454515,
				"element": "C" 
			},
			{
				"x": 0.5487187436,
				"y": 0.020600755,
				"z": 1.7836810083,
				"element": "C" 
			},
			{
				"x": 0.4457084623,
				"y": 1.2561492376,
				"z": 3.9654120842,
				"element": "C" 
			},
			{
				"x": 1.4423124005,
				"y": 2.1683229093,
				"z": 4.0369336467,
				"element": "F" 
			},
			{
				"x": -0.6319488261,
				"y": 1.8884437649,
				"z": 3.4530454924,
				"element": "F" 
			},
			{
				"x": 0.1438448624,
				"y": 0.9107757799,
				"z": 5.239788746,
				"element": "F" 
			},
			{
				"x": -0.071244671,
				"y": -3.7335733725,
				"z": 1.0277371473,
				"element": "H" 
			},
			{
				"x": -1.6438565552,
				"y": -3.4099398626,
				"z": 0.2743571037,
				"element": "H" 
			},
			{
				"x": -0.8350607105,
				"y": -4.9775775426,
				"z": 0.0282389976,
				"element": "H" 
			},
			{
				"x": -0.2231152312,
				"y": -3.9089226904,
				"z": -1.9202654755,
				"element": "H" 
			},
			{
				"x": 1.5938950338,
				"y": -0.3354259005,
				"z": -3.2638615356,
				"element": "H" 
			},
			{
				"x": -1.6572027869,
				"y": -1.435167047,
				"z": -3.9093820325,
				"element": "H" 
			},
			{
				"x": -3.379797214,
				"y": -0.1978768678,
				"z": -5.1914206817,
				"element": "H" 
			},
			{
				"x": -3.1466479156,
				"y": 2.2514951274,
				"z": -5.5508208536,
				"element": "H" 
			},
			{
				"x": -1.1817665907,
				"y": 3.4519061563,
				"z": -4.6079700571,
				"element": "H" 
			},
			{
				"x": 0.5273201487,
				"y": 2.2116734012,
				"z": -3.3093261362,
				"element": "H" 
			},
			{
				"x": 2.0664332065,
				"y": -2.919920731,
				"z": 1.0088811635,
				"element": "H" 
			},
			{
				"x": 2.5431165172,
				"y": -2.866281992,
				"z": 3.4340550117,
				"element": "H" 
			},
			{
				"x": 1.764649869,
				"y": -0.9477194677,
				"z": 4.8170429734,
				"element": "H" 
			},
			{
				"x": 0.0110077335,
				"y": 0.8397880683,
				"z": 1.323519841,
				"element": "H" 
			}
		],
		 "valence_orbital": [ 
			{
				"type": "occ",
				"energy": -0.26281,
				"method": "rhf"
			},
			{
				"type": "occ",
				"energy": -0.25597,
				"method": "rhf"
			},
			{
				"type": "occ",
				"energy": -0.24868,
				"method": "rhf"
			},
			{
				"type": "occ",
				"energy": -0.23233,
				"method": "rhf"
			},
			{
				"type": "occ",
				"energy": -0.21491,
				"method": "rhf"
			},
			{
				"type": "unocc",
				"energy": -0.03007,
				"method": "rhf"
			},
			{
				"type": "unocc",
				"energy": -0.02315,
				"method": "rhf"
			},
			{
				"type": "unocc",
				"energy": -0.01471,
				"method": "rhf"
			},
			{
				"type": "unocc",
				"energy": -0.00054,
				"method": "rhf"
			},
			{
				"type": "unocc",
				"energy": 0.00093,
				"method": "rhf"
			}
		],
		"cosmo_sigma_profile": { 
			"-0.025": 0.0,
			"-0.024": 0.0,
			"-0.023": 0.0,
			"-0.022": 0.0,
			"-0.021": 0.0,
			"-0.02": 0.0,
			"-0.019": 0.0,
			"-0.018": 0.0,
			"-0.017": 0.0,
			"-0.016": 0.0,
			"-0.015": 0.606833058364,
			"-0.014": 1.50054679886,
			"-0.013": 0.823574148209,
			"-0.012": 0.747983902953,
			"-0.011": 1.40676210513,
			"-0.01": 1.07850141344,
			"-0.009": 1.39377942927,
			"-0.008": 3.27261773219,
			"-0.007": 6.08494763679,
			"-0.006": 14.3158282154,
			"-0.005": 22.377274356,
			"-0.004": 27.9204695188,
			"-0.003": 28.9674992357,
			"-0.002": 23.8938845561,
			"-0.001": 23.356678015,
			"0.0": 22.8020338813,
			"0.001": 23.5687270038,
			"0.002": 34.3153438311,
			"0.003": 49.3417341451,
			"0.004": 21.7069878382,
			"0.005": 13.4826559243,
			"0.006": 8.29527258476,
			"0.007": 2.84868049613,
			"0.008": 1.75506708214,
			"0.009": 2.23485366387,
			"0.01": 1.9223670786,
			"0.011": 2.28368855565,
			"0.012": 2.73025028756,
			"0.013": 3.63314927286,
			"0.014": 0.0959748544271,
			"0.015": 0.0,
			"0.016": 0.0,
			"0.017": 0.0,
			"0.018": 0.0,
			"0.019": 0.0,
			"0.02": 0.0,
			"0.021": 0.0,
			"0.022": 0.0,
			"0.023": 0.0,
			"0.024": 0.0,
			"0.025": 0.0
		}
	}
}
