{
	 "smiles": "NS(=O)(=O)C1=CNC=N1", 
	 "Tm": 506.15, 
	 "num_atms": 14, 
	 "gaussian": { 
		 "optdone": 1, 
		 "sigma_profile": "yes", 
		 "theory": "DFT", 
		 "functional": "B3LYP", 
		 "basiset": "6-31G**", 
		 "properties": { 
			 "R2extent": 1503.1659, 
			 "electric_dipole_moment_norm": 7.71180654192, 
			 "electric_quadrupole_moment_norm": 17.3727132964, 
			 "total_energy": -830.138789525, 
			 "HOMO_LUMO_gap": 0.25136, 
			 "cosmo_polarized_energy": -25.67, 
			 "cosmo_cavitation_energy": 20.13, 
			 "cosmo_dispersion_energy": -15.71, 
			 "cosmo_repulsion_energy": 1.25, 
			 "cosmo_total_nonelectrostatic_energy": 5.67, 
			 "SMD_solvation_energy": 2.23 
		},
		"coords": [
			{
				"x": 2.2980568387,
				"y": 0.7228878904,
				"z": -1.1058735259,
				"element": "N" 
			},
			{
				"x": 0.8387502281,
				"y": 0.2416937257,
				"z": -1.7794432333,
				"element": "S" 
			},
			{
				"x": 0.0707110244,
				"y": 1.4543815184,
				"z": -2.0622757494,
				"element": "O" 
			},
			{
				"x": 1.1689618172,
				"y": -0.7295259419,
				"z": -2.8170884955,
				"element": "O" 
			},
			{
				"x": -0.0196140637,
				"y": -0.5932669686,
				"z": -0.4670133362,
				"element": "C" 
			},
			{
				"x": -1.3379050718,
				"y": -0.4270429744,
				"z": -0.1202298059,
				"element": "C" 
			},
			{
				"x": -1.5349132821,
				"y": -1.3273027774,
				"z": 0.8995756544,
				"element": "N" 
			},
			{
				"x": -0.3475660317,
				"y": -1.9754234276,
				"z": 1.116382975,
				"element": "C" 
			},
			{
				"x": 0.5920609495,
				"y": -1.5524236858,
				"z": 0.3008986701,
				"element": "N" 
			},
			{
				"x": 2.8336263358,
				"y": -0.0823314513,
				"z": -0.7906619327,
				"element": "H" 
			},
			{
				"x": 2.1606804079,
				"y": 1.4013456388,
				"z": -0.3619485807,
				"element": "H" 
			},
			{
				"x": -2.1063248502,
				"y": 0.2272508197,
				"z": -0.498201174,
				"element": "H" 
			},
			{
				"x": -2.3993470665,
				"y": -1.4787888631,
				"z": 1.3985922991,
				"element": "H" 
			},
			{
				"x": -0.2309772357,
				"y": -2.7338535029,
				"z": 1.8779862348,
				"element": "H" 
			}
		],
		 "valence_orbital": [ 
			{
				"type": "occ",
				"energy": -0.31184,
				"method": "rhf"
			},
			{
				"type": "occ",
				"energy": -0.29907,
				"method": "rhf"
			},
			{
				"type": "occ",
				"energy": -0.29629,
				"method": "rhf"
			},
			{
				"type": "occ",
				"energy": -0.29427,
				"method": "rhf"
			},
			{
				"type": "occ",
				"energy": -0.25698,
				"method": "rhf"
			},
			{
				"type": "unocc",
				"energy": -0.00562,
				"method": "rhf"
			},
			{
				"type": "unocc",
				"energy": 0.01431,
				"method": "rhf"
			},
			{
				"type": "unocc",
				"energy": 0.0458,
				"method": "rhf"
			},
			{
				"type": "unocc",
				"energy": 0.06886,
				"method": "rhf"
			},
			{
				"type": "unocc",
				"energy": 0.08989,
				"method": "rhf"
			}
		],
		"cosmo_sigma_profile": { 
			"-0.025": 0.0,
			"-0.024": 0.0,
			"-0.023": 0.0,
			"-0.022": 0.0,
			"-0.021": 0.0,
			"-0.02": 0.0,
			"-0.019": 0.0,
			"-0.018": 0.841093343271,
			"-0.017": 2.45425094054,
			"-0.016": 1.7585890614,
			"-0.015": 2.63458324758,
			"-0.014": 4.058894983,
			"-0.013": 3.61200067279,
			"-0.012": 2.93332151656,
			"-0.011": 3.78110798305,
			"-0.01": 7.42296247039,
			"-0.009": 6.04151124367,
			"-0.008": 3.35805962986,
			"-0.007": 5.40164398744,
			"-0.006": 3.84466554415,
			"-0.005": 5.59737291451,
			"-0.004": 2.90380399074,
			"-0.003": 4.35486619598,
			"-0.002": 5.84732398786,
			"-0.001": 6.48191450676,
			"0.0": 7.17771739604,
			"0.001": 8.43574766394,
			"0.002": 5.0180754951,
			"0.003": 4.48009532909,
			"0.004": 4.25754701151,
			"0.005": 3.59857877748,
			"0.006": 5.34142498912,
			"0.007": 6.06493218605,
			"0.008": 6.2446077552,
			"0.009": 5.36064898982,
			"0.01": 8.87772165847,
			"0.011": 13.9780001298,
			"0.012": 6.4738867169,
			"0.013": 1.26251448283,
			"0.014": 0.802000739612,
			"0.015": 0.148627896446,
			"0.016": 0.0,
			"0.017": 0.0,
			"0.018": 0.0,
			"0.019": 0.0,
			"0.02": 0.0,
			"0.021": 0.0,
			"0.022": 0.0,
			"0.023": 0.0,
			"0.024": 0.0,
			"0.025": 0.0
		}
	}
}
