{
	 "smiles": "CC1=C(C=NN1C1=CC(Br)=CC=C1)C(O)=O", 
	 "Tm": 443.15, 
	 "num_atms": 25, 
	 "gaussian": { 
		 "optdone": 1, 
		 "sigma_profile": "yes", 
		 "theory": "DFT", 
		 "functional": "B3LYP", 
		 "basiset": "6-31G**", 
		 "properties": { 
			 "R2extent": 8350.0179, 
			 "electric_dipole_moment_norm": 3.80241330342, 
			 "electric_quadrupole_moment_norm": 12.8510705332, 
			 "total_energy": -3255.94358347, 
			 "HOMO_LUMO_gap": 0.20346, 
			 "cosmo_polarized_energy": -16.53, 
			 "cosmo_cavitation_energy": 32.06, 
			 "cosmo_dispersion_energy": -23.58, 
			 "cosmo_repulsion_energy": 1.82, 
			 "cosmo_total_nonelectrostatic_energy": 10.3, 
			 "SMD_solvation_energy": 4.81 
		},
		"coords": [
			{
				"x": -0.9627318027,
				"y": 0.0124072955,
				"z": -0.289423324,
				"element": "C" 
			},
			{
				"x": 0.2139187205,
				"y": 0.46616647,
				"z": -1.0918373606,
				"element": "C" 
			},
			{
				"x": 1.0150164484,
				"y": -0.2568651261,
				"z": -1.9790961385,
				"element": "C" 
			},
			{
				"x": 1.9277885608,
				"y": 0.697246815,
				"z": -2.5025208817,
				"element": "C" 
			},
			{
				"x": 1.7349330576,
				"y": 1.9015452764,
				"z": -1.9966951628,
				"element": "N" 
			},
			{
				"x": 0.6930329284,
				"y": 1.7468881099,
				"z": -1.1227920308,
				"element": "N" 
			},
			{
				"x": 0.2267836429,
				"y": 2.9018088169,
				"z": -0.4301196023,
				"element": "C" 
			},
			{
				"x": -0.1221482926,
				"y": 2.8252747389,
				"z": 0.92123801,
				"element": "C" 
			},
			{
				"x": -0.5739941569,
				"y": 3.9771567254,
				"z": 1.5624590217,
				"element": "C" 
			},
			{
				"x": -1.0596194694,
				"y": 3.8760114023,
				"z": 3.4064738544,
				"element": "Br" 
			},
			{
				"x": -0.66267893,
				"y": 5.1965172447,
				"z": 0.8952190708,
				"element": "C" 
			},
			{
				"x": -0.2857584084,
				"y": 5.2553476187,
				"z": -0.4483808082,
				"element": "C" 
			},
			{
				"x": 0.1546992631,
				"y": 4.1172508445,
				"z": -1.1186650081,
				"element": "C" 
			},
			{
				"x": 0.8672567193,
				"y": -1.6875301357,
				"z": -2.3053641044,
				"element": "C" 
			},
			{
				"x": 1.8695562231,
				"y": -2.2402637427,
				"z": -3.0445032704,
				"element": "O" 
			},
			{
				"x": -0.0710386744,
				"y": -2.3782629819,
				"z": -1.9707665918,
				"element": "O" 
			},
			{
				"x": -1.7257149565,
				"y": 0.7925000499,
				"z": -0.2237495333,
				"element": "H" 
			},
			{
				"x": -1.3771222769,
				"y": -0.8788082199,
				"z": -0.7602982728,
				"element": "H" 
			},
			{
				"x": -0.6745739812,
				"y": -0.2626198271,
				"z": 0.731957137,
				"element": "H" 
			},
			{
				"x": 2.7075618113,
				"y": 0.5645077139,
				"z": -3.2435672905,
				"element": "H" 
			},
			{
				"x": -0.0236795793,
				"y": 1.8988523,
				"z": 1.470789742,
				"element": "H" 
			},
			{
				"x": -1.0131051758,
				"y": 6.0802192346,
				"z": 1.4153021328,
				"element": "H" 
			},
			{
				"x": -0.3448550773,
				"y": 6.2009577017,
				"z": -0.9782697765,
				"element": "H" 
			},
			{
				"x": 0.4518159721,
				"y": 4.1530997658,
				"z": -2.1594716353,
				"element": "H" 
			},
			{
				"x": 2.6009574337,
				"y": -1.6166080909,
				"z": -3.1481181767,
				"element": "H" 
			}
		],
		 "valence_orbital": [ 
			{
				"type": "occ",
				"energy": -0.2994,
				"method": "rhf"
			},
			{
				"type": "occ",
				"energy": -0.27263,
				"method": "rhf"
			},
			{
				"type": "occ",
				"energy": -0.26599,
				"method": "rhf"
			},
			{
				"type": "occ",
				"energy": -0.26134,
				"method": "rhf"
			},
			{
				"type": "occ",
				"energy": -0.25157,
				"method": "rhf"
			},
			{
				"type": "unocc",
				"energy": -0.04811,
				"method": "rhf"
			},
			{
				"type": "unocc",
				"energy": -0.03181,
				"method": "rhf"
			},
			{
				"type": "unocc",
				"energy": -0.0191,
				"method": "rhf"
			},
			{
				"type": "unocc",
				"energy": -0.00698,
				"method": "rhf"
			},
			{
				"type": "unocc",
				"energy": 0.00845,
				"method": "rhf"
			}
		],
		"cosmo_sigma_profile": { 
			"-0.025": 0.0,
			"-0.024": 0.0,
			"-0.023": 0.0,
			"-0.022": 0.0,
			"-0.021": 0.0,
			"-0.02": 0.0,
			"-0.019": 0.429586771176,
			"-0.018": 1.102759022,
			"-0.017": 1.22428551343,
			"-0.016": 0.571918909904,
			"-0.015": 1.09222298311,
			"-0.014": 0.816155777481,
			"-0.013": 1.08923568,
			"-0.012": 1.78822348555,
			"-0.011": 1.28016352716,
			"-0.01": 1.57425609524,
			"-0.009": 2.51216360146,
			"-0.008": 4.13265484453,
			"-0.007": 9.71808222049,
			"-0.006": 12.2364534469,
			"-0.005": 12.8627532795,
			"-0.004": 13.3769715325,
			"-0.003": 15.3846025619,
			"-0.002": 18.3402526359,
			"-0.001": 21.7820868069,
			"0.0": 17.0415196952,
			"0.001": 22.7534467405,
			"0.002": 23.8390431226,
			"0.003": 17.3573067545,
			"0.004": 15.7442000434,
			"0.005": 6.70676134418,
			"0.006": 5.23829397702,
			"0.007": 3.05607191118,
			"0.008": 3.35079034205,
			"0.009": 4.48437806048,
			"0.01": 5.5721107949,
			"0.011": 5.86242592037,
			"0.012": 4.82913624058,
			"0.013": 2.98202268161,
			"0.014": 0.745102567319,
			"0.015": 0.0,
			"0.016": 0.0,
			"0.017": 0.0,
			"0.018": 0.0,
			"0.019": 0.0,
			"0.02": 0.0,
			"0.021": 0.0,
			"0.022": 0.0,
			"0.023": 0.0,
			"0.024": 0.0,
			"0.025": 0.0
		}
	}
}
