{
	 "smiles": "CC=C(/C)C1=CC=CC=C1", 
	 "Tm": 249.65, 
	 "num_atms": 22, 
	 "gaussian": { 
		 "optdone": 1, 
		 "sigma_profile": "yes", 
		 "theory": "DFT", 
		 "functional": "B3LYP", 
		 "basiset": "6-31G**", 
		 "properties": { 
			 "R2extent": 2016.2692, 
			 "electric_dipole_moment_norm": 0.500217912514, 
			 "electric_quadrupole_moment_norm": 5.22926300926, 
			 "total_energy": -388.290358491, 
			 "HOMO_LUMO_gap": 0.19868, 
			 "cosmo_polarized_energy": -3.81, 
			 "cosmo_cavitation_energy": 24.53, 
			 "cosmo_dispersion_energy": -18.08, 
			 "cosmo_repulsion_energy": 1.47, 
			 "cosmo_total_nonelectrostatic_energy": 7.93, 
			 "SMD_solvation_energy": 4.48 
		},
		"coords": [
			{
				"x": 2.4220603752,
				"y": -1.3809846304,
				"z": -0.5621763441,
				"element": "C" 
			},
			{
				"x": 1.1785226704,
				"y": -0.5501628145,
				"z": -0.693080237,
				"element": "C" 
			},
			{
				"x": 0.6060071327,
				"y": 0.254488627,
				"z": 0.2236323484,
				"element": "C" 
			},
			{
				"x": 1.137882196,
				"y": 0.4294952202,
				"z": 1.6297201677,
				"element": "C" 
			},
			{
				"x": -0.631528055,
				"y": 1.0138546956,
				"z": -0.1168623654,
				"element": "C" 
			},
			{
				"x": -0.8503770472,
				"y": 1.5134907692,
				"z": -1.4142614212,
				"element": "C" 
			},
			{
				"x": -2.014408908,
				"y": 2.2088933025,
				"z": -1.7351639031,
				"element": "C" 
			},
			{
				"x": -2.9904380758,
				"y": 2.4368531811,
				"z": -0.7627339087,
				"element": "C" 
			},
			{
				"x": -2.7832711656,
				"y": 1.9656818344,
				"z": 0.5341123403,
				"element": "C" 
			},
			{
				"x": -1.6173453799,
				"y": 1.2696657598,
				"z": 0.8534627622,
				"element": "C" 
			},
			{
				"x": 3.1292264734,
				"y": -1.1473584478,
				"z": -1.3686672735,
				"element": "H" 
			},
			{
				"x": 2.1877979912,
				"y": -2.4495045209,
				"z": -0.6583874887,
				"element": "H" 
			},
			{
				"x": 2.9422072471,
				"y": -1.2418311016,
				"z": 0.3877195274,
				"element": "H" 
			},
			{
				"x": 0.6794168847,
				"y": -0.6419356097,
				"z": -1.6567131473,
				"element": "H" 
			},
			{
				"x": 1.1688378269,
				"y": 1.4887954699,
				"z": 1.9069276828,
				"element": "H" 
			},
			{
				"x": 0.4976524877,
				"y": -0.0729312996,
				"z": 2.3657777088,
				"element": "H" 
			},
			{
				"x": 2.142103144,
				"y": 0.019689332,
				"z": 1.7467003736,
				"element": "H" 
			},
			{
				"x": -0.0844058173,
				"y": 1.3761959153,
				"z": -2.1712956497,
				"element": "H" 
			},
			{
				"x": -2.152445051,
				"y": 2.5872096883,
				"z": -2.7444467689,
				"element": "H" 
			},
			{
				"x": -3.8955577749,
				"y": 2.9838395793,
				"z": -1.0104943602,
				"element": "H" 
			},
			{
				"x": -3.5318852183,
				"y": 2.1387895276,
				"z": 1.3024947271,
				"element": "H" 
			},
			{
				"x": -1.4822519366,
				"y": 0.9072655223,
				"z": 1.8676352295,
				"element": "H" 
			}
		],
		 "valence_orbital": [ 
			{
				"type": "occ",
				"energy": -0.33215,
				"method": "rhf"
			},
			{
				"type": "occ",
				"energy": -0.32368,
				"method": "rhf"
			},
			{
				"type": "occ",
				"energy": -0.26821,
				"method": "rhf"
			},
			{
				"type": "occ",
				"energy": -0.24411,
				"method": "rhf"
			},
			{
				"type": "occ",
				"energy": -0.21334,
				"method": "rhf"
			},
			{
				"type": "unocc",
				"energy": -0.01466,
				"method": "rhf"
			},
			{
				"type": "unocc",
				"energy": 0.00475,
				"method": "rhf"
			},
			{
				"type": "unocc",
				"energy": 0.05353,
				"method": "rhf"
			},
			{
				"type": "unocc",
				"energy": 0.09382,
				"method": "rhf"
			},
			{
				"type": "unocc",
				"energy": 0.10876,
				"method": "rhf"
			}
		],
		"cosmo_sigma_profile": { 
			"-0.025": 0.0,
			"-0.024": 0.0,
			"-0.023": 0.0,
			"-0.022": 0.0,
			"-0.021": 0.0,
			"-0.02": 0.0,
			"-0.019": 0.0,
			"-0.018": 0.0,
			"-0.017": 0.0,
			"-0.016": 0.0,
			"-0.015": 0.0,
			"-0.014": 0.0,
			"-0.013": 0.0,
			"-0.012": 0.0,
			"-0.011": 0.0,
			"-0.01": 0.0,
			"-0.009": 0.0,
			"-0.008": 0.0,
			"-0.007": 0.0,
			"-0.006": 1.93829708781,
			"-0.005": 11.2600152688,
			"-0.004": 18.8488638083,
			"-0.003": 21.3941882062,
			"-0.002": 19.5999788711,
			"-0.001": 21.4895999258,
			"0.0": 23.0618982241,
			"0.001": 17.4238174387,
			"0.002": 10.4101256891,
			"0.003": 11.5306551674,
			"0.004": 11.4936683732,
			"0.005": 11.368816473,
			"0.006": 11.7641652235,
			"0.007": 2.87294032688,
			"0.008": 0.0,
			"0.009": 0.0,
			"0.01": 0.0,
			"0.011": 0.0,
			"0.012": 0.0,
			"0.013": 0.0,
			"0.014": 0.0,
			"0.015": 0.0,
			"0.016": 0.0,
			"0.017": 0.0,
			"0.018": 0.0,
			"0.019": 0.0,
			"0.02": 0.0,
			"0.021": 0.0,
			"0.022": 0.0,
			"0.023": 0.0,
			"0.024": 0.0,
			"0.025": 0.0
		}
	}
}
