{
	 "smiles": "OC(=O)C(CCCC1=CC=CC=C1)C1=CC=CC=C1", 
	 "Tm": 351.15, 
	 "num_atms": 37, 
	 "gaussian": { 
		 "optdone": 1, 
		 "sigma_profile": "yes", 
		 "theory": "DFT", 
		 "functional": "B3LYP", 
		 "basiset": "6-31G**", 
		 "properties": { 
			 "R2extent": 6103.6983, 
			 "electric_dipole_moment_norm": 1.65296077691, 
			 "electric_quadrupole_moment_norm": 4.24015845812, 
			 "total_energy": -809.130463352, 
			 "HOMO_LUMO_gap": 0.22239, 
			 "cosmo_polarized_energy": -11.47, 
			 "cosmo_cavitation_energy": 39.95, 
			 "cosmo_dispersion_energy": -26.89, 
			 "cosmo_repulsion_energy": 2.09, 
			 "cosmo_total_nonelectrostatic_energy": 15.15, 
			 "SMD_solvation_energy": 7.1 
		},
		"coords": [
			{
				"x": -3.3925669602,
				"y": -0.6333662756,
				"z": -2.0566552521,
				"element": "O" 
			},
			{
				"x": -2.4219197404,
				"y": -0.2658415687,
				"z": -1.1854624511,
				"element": "C" 
			},
			{
				"x": -2.6002223725,
				"y": -0.2932116541,
				"z": 0.0157131186,
				"element": "O" 
			},
			{
				"x": -1.1374551071,
				"y": 0.0995090084,
				"z": -1.9109641236,
				"element": "C" 
			},
			{
				"x": -0.126219116,
				"y": -1.0883901591,
				"z": -1.7770977959,
				"element": "C" 
			},
			{
				"x": 0.4736131596,
				"y": -1.3479217369,
				"z": -0.3795784697,
				"element": "C" 
			},
			{
				"x": 1.8337858143,
				"y": -0.6557201899,
				"z": -0.1389979214,
				"element": "C" 
			},
			{
				"x": 2.3934754716,
				"y": -0.93711868,
				"z": 1.2389930533,
				"element": "C" 
			},
			{
				"x": 2.1028296385,
				"y": -0.0896297341,
				"z": 2.3172767278,
				"element": "C" 
			},
			{
				"x": 2.5868683118,
				"y": -0.3643046416,
				"z": 3.5970256029,
				"element": "C" 
			},
			{
				"x": 3.3737194442,
				"y": -1.4956709217,
				"z": 3.8214811418,
				"element": "C" 
			},
			{
				"x": 3.6728409065,
				"y": -2.3475391135,
				"z": 2.7565887728,
				"element": "C" 
			},
			{
				"x": 3.1859391288,
				"y": -2.0682591222,
				"z": 1.4787724199,
				"element": "C" 
			},
			{
				"x": -0.5587132429,
				"y": 1.4545763712,
				"z": -1.5150055388,
				"element": "C" 
			},
			{
				"x": -0.6858784043,
				"y": 2.0128253022,
				"z": -0.234949211,
				"element": "C" 
			},
			{
				"x": -0.0978467902,
				"y": 3.2453623803,
				"z": 0.0610274386,
				"element": "C" 
			},
			{
				"x": 0.6269768525,
				"y": 3.9381620441,
				"z": -0.9091853232,
				"element": "C" 
			},
			{
				"x": 0.7547489919,
				"y": 3.3930719289,
				"z": -2.1880954696,
				"element": "C" 
			},
			{
				"x": 0.1627492058,
				"y": 2.1660546834,
				"z": -2.4855928853,
				"element": "C" 
			},
			{
				"x": -4.157905248,
				"y": -0.8901988687,
				"z": -1.5137785303,
				"element": "H" 
			},
			{
				"x": -1.3965508274,
				"y": 0.1523731133,
				"z": -2.9726399493,
				"element": "H" 
			},
			{
				"x": -0.6469967426,
				"y": -1.9873000277,
				"z": -2.1290616004,
				"element": "H" 
			},
			{
				"x": 0.6794978114,
				"y": -0.9048097292,
				"z": -2.4984270121,
				"element": "H" 
			},
			{
				"x": 0.6163231902,
				"y": -2.4280611062,
				"z": -0.2540658716,
				"element": "H" 
			},
			{
				"x": -0.2382116957,
				"y": -1.049503394,
				"z": 0.3968317484,
				"element": "H" 
			},
			{
				"x": 1.7267850404,
				"y": 0.4240244455,
				"z": -0.2794270091,
				"element": "H" 
			},
			{
				"x": 2.5432378147,
				"y": -1.0035461192,
				"z": -0.9013779849,
				"element": "H" 
			},
			{
				"x": 1.4953453704,
				"y": 0.7958920725,
				"z": 2.1463404104,
				"element": "H" 
			},
			{
				"x": 2.3529876235,
				"y": 0.3076268301,
				"z": 4.4184353114,
				"element": "H" 
			},
			{
				"x": 3.7540810559,
				"y": -1.7092232317,
				"z": 4.8164065168,
				"element": "H" 
			},
			{
				"x": 4.28933659,
				"y": -3.2274787806,
				"z": 2.9196067655,
				"element": "H" 
			},
			{
				"x": 3.4283325594,
				"y": -2.7336915168,
				"z": 0.6528953282,
				"element": "H" 
			},
			{
				"x": -1.252676942,
				"y": 1.4856186943,
				"z": 0.5231519851,
				"element": "H" 
			},
			{
				"x": -0.2121857769,
				"y": 3.66530494,
				"z": 1.0566520564,
				"element": "H" 
			},
			{
				"x": 1.0826979425,
				"y": 4.8956372724,
				"z": -0.67394597,
				"element": "H" 
			},
			{
				"x": 1.3082327202,
				"y": 3.9252864269,
				"z": -2.9566359393,
				"element": "H" 
			},
			{
				"x": 0.260544322,
				"y": 1.7532610579,
				"z": -3.4872540892,
				"element": "H" 
			}
		],
		 "valence_orbital": [ 
			{
				"type": "occ",
				"energy": -0.27442,
				"method": "rhf"
			},
			{
				"type": "occ",
				"energy": -0.25029,
				"method": "rhf"
			},
			{
				"type": "occ",
				"energy": -0.24333,
				"method": "rhf"
			},
			{
				"type": "occ",
				"energy": -0.23999,
				"method": "rhf"
			},
			{
				"type": "occ",
				"energy": -0.23184,
				"method": "rhf"
			},
			{
				"type": "unocc",
				"energy": -0.00945,
				"method": "rhf"
			},
			{
				"type": "unocc",
				"energy": -0.00247,
				"method": "rhf"
			},
			{
				"type": "unocc",
				"energy": 0.00776,
				"method": "rhf"
			},
			{
				"type": "unocc",
				"energy": 0.00834,
				"method": "rhf"
			},
			{
				"type": "unocc",
				"energy": 0.00901,
				"method": "rhf"
			}
		],
		"cosmo_sigma_profile": { 
			"-0.025": 0.0,
			"-0.024": 0.0,
			"-0.023": 0.0,
			"-0.022": 0.0,
			"-0.021": 0.0,
			"-0.02": 0.0,
			"-0.019": 0.0,
			"-0.018": 0.562498724585,
			"-0.017": 1.0699764058,
			"-0.016": 0.682176592399,
			"-0.015": 0.744556102653,
			"-0.014": 1.24489940432,
			"-0.013": 0.813497351183,
			"-0.012": 0.182922862058,
			"-0.011": 0.723163670368,
			"-0.01": 0.908522797265,
			"-0.009": 0.23219678021,
			"-0.008": 0.848944190179,
			"-0.007": 0.530322639975,
			"-0.006": 7.62415932909,
			"-0.005": 18.8459409201,
			"-0.004": 25.363590115,
			"-0.003": 35.627862042,
			"-0.002": 31.5757656439,
			"-0.001": 27.8939255589,
			"0.0": 27.424589446,
			"0.001": 22.8217155932,
			"0.002": 19.8135503747,
			"0.003": 19.0237867844,
			"0.004": 19.4121461682,
			"0.005": 17.4194810628,
			"0.006": 14.4300037152,
			"0.007": 7.43584941935,
			"0.008": 2.71313622938,
			"0.009": 3.30181142746,
			"0.01": 2.14365233782,
			"0.011": 2.49649108324,
			"0.012": 2.01523192105,
			"0.013": 0.0123439281547,
			"0.014": 0.0,
			"0.015": 0.0,
			"0.016": 0.0,
			"0.017": 0.0,
			"0.018": 0.0,
			"0.019": 0.0,
			"0.02": 0.0,
			"0.021": 0.0,
			"0.022": 0.0,
			"0.023": 0.0,
			"0.024": 0.0,
			"0.025": 0.0
		}
	}
}
