{
	 "smiles": "OC(=O)C1=CC=C(O1)C(O)=O", 
	 "Tm": 615.15, 
	 "num_atms": 15, 
	 "gaussian": { 
		 "optdone": 1, 
		 "sigma_profile": "yes", 
		 "theory": "DFT", 
		 "functional": "B3LYP", 
		 "basiset": "6-31G**", 
		 "properties": { 
			 "R2extent": 2366.189, 
			 "electric_dipole_moment_norm": 3.75256215538, 
			 "electric_quadrupole_moment_norm": 23.8951520797, 
			 "total_energy": -607.155681898, 
			 "HOMO_LUMO_gap": 0.18703, 
			 "cosmo_polarized_energy": -21.54, 
			 "cosmo_cavitation_energy": 21.66, 
			 "cosmo_dispersion_energy": -15.86, 
			 "cosmo_repulsion_energy": 1.3, 
			 "cosmo_total_nonelectrostatic_energy": 7.09, 
			 "SMD_solvation_energy": 7.12 
		},
		"coords": [
			{
				"x": -1.6348058787,
				"y": 2.2966343448,
				"z": -2.0983944311,
				"element": "O" 
			},
			{
				"x": -0.7211101504,
				"y": 1.3015167987,
				"z": -2.2520589535,
				"element": "C" 
			},
			{
				"x": -0.6414351546,
				"y": 0.6791776317,
				"z": -3.2801992708,
				"element": "O" 
			},
			{
				"x": 0.1578164209,
				"y": 1.0722892259,
				"z": -1.0811869467,
				"element": "C" 
			},
			{
				"x": 0.4191876121,
				"y": 1.7891557831,
				"z": 0.0654424125,
				"element": "C" 
			},
			{
				"x": 1.3981682642,
				"y": 1.0542068801,
				"z": 0.7824046194,
				"element": "C" 
			},
			{
				"x": 1.6648270789,
				"y": -0.0570156733,
				"z": 0.0227272932,
				"element": "C" 
			},
			{
				"x": 0.9182537974,
				"y": -0.0510441888,
				"z": -1.1121003166,
				"element": "O" 
			},
			{
				"x": 2.596084825,
				"y": -1.1625205208,
				"z": 0.2895615785,
				"element": "C" 
			},
			{
				"x": 2.5961339547,
				"y": -2.0977234577,
				"z": -0.6794630098,
				"element": "O" 
			},
			{
				"x": 3.2866219648,
				"y": -1.2111382873,
				"z": 1.2875495498,
				"element": "O" 
			},
			{
				"x": -1.6666544683,
				"y": 2.5992863664,
				"z": -1.1801004394,
				"element": "H" 
			},
			{
				"x": -0.0096480991,
				"y": 2.7390093539,
				"z": 0.3547497864,
				"element": "H" 
			},
			{
				"x": 1.8597048749,
				"y": 1.2954540015,
				"z": 1.728033602,
				"element": "H" 
			},
			{
				"x": 3.240054958,
				"y": -2.7719882583,
				"z": -0.4052654739,
				"element": "H" 
			}
		],
		 "valence_orbital": [ 
			{
				"type": "occ",
				"energy": -0.32927,
				"method": "rhf"
			},
			{
				"type": "occ",
				"energy": -0.31837,
				"method": "rhf"
			},
			{
				"type": "occ",
				"energy": -0.29829,
				"method": "rhf"
			},
			{
				"type": "occ",
				"energy": -0.28899,
				"method": "rhf"
			},
			{
				"type": "occ",
				"energy": -0.26832,
				"method": "rhf"
			},
			{
				"type": "unocc",
				"energy": -0.08129,
				"method": "rhf"
			},
			{
				"type": "unocc",
				"energy": -0.02207,
				"method": "rhf"
			},
			{
				"type": "unocc",
				"energy": 0.04206,
				"method": "rhf"
			},
			{
				"type": "unocc",
				"energy": 0.06716,
				"method": "rhf"
			},
			{
				"type": "unocc",
				"energy": 0.07631,
				"method": "rhf"
			}
		],
		"cosmo_sigma_profile": { 
			"-0.025": 0.0,
			"-0.024": 0.0,
			"-0.023": 0.0,
			"-0.022": 0.0,
			"-0.021": 0.0,
			"-0.02": 0.271331939361,
			"-0.019": 1.6610854322,
			"-0.018": 2.35092370748,
			"-0.017": 1.6171153866,
			"-0.016": 2.05441734404,
			"-0.015": 2.00125018077,
			"-0.014": 2.24682598298,
			"-0.013": 0.975769203892,
			"-0.012": 1.9064393209,
			"-0.011": 3.0100626542,
			"-0.01": 2.81159426264,
			"-0.009": 3.32967132411,
			"-0.008": 4.46296992255,
			"-0.007": 5.59609540558,
			"-0.006": 5.4014602757,
			"-0.005": 5.36554423605,
			"-0.004": 8.17118116131,
			"-0.003": 8.9681390916,
			"-0.002": 10.7950579694,
			"-0.001": 11.8216364123,
			"0.0": 10.203243894,
			"0.001": 8.20245915938,
			"0.002": 4.98784891477,
			"0.003": 4.96713246497,
			"0.004": 4.0660976624,
			"0.005": 4.06993924999,
			"0.006": 5.75923172427,
			"0.007": 6.41910252168,
			"0.008": 7.43307380816,
			"0.009": 8.52355206746,
			"0.01": 9.24786759492,
			"0.011": 11.3921083899,
			"0.012": 3.972045715,
			"0.013": 0.115699628455,
			"0.014": 0.0,
			"0.015": 0.0,
			"0.016": 0.0,
			"0.017": 0.0,
			"0.018": 0.0,
			"0.019": 0.0,
			"0.02": 0.0,
			"0.021": 0.0,
			"0.022": 0.0,
			"0.023": 0.0,
			"0.024": 0.0,
			"0.025": 0.0
		}
	}
}
