{
	 "smiles": "CC1=C(C)C2=C(S1)N=CN=C2SCCC(O)=O", 
	 "Tm": 461.15, 
	 "num_atms": 29, 
	 "gaussian": { 
		 "optdone": 1, 
		 "sigma_profile": "yes", 
		 "theory": "DFT", 
		 "functional": "B3LYP", 
		 "basiset": "6-31G**", 
		 "properties": { 
			 "R2extent": 7620.2514, 
			 "electric_dipole_moment_norm": 2.85777824367, 
			 "electric_quadrupole_moment_norm": 14.2833489557, 
			 "total_energy": -1482.75697408, 
			 "HOMO_LUMO_gap": 0.17406, 
			 "cosmo_polarized_energy": -13.02, 
			 "cosmo_cavitation_energy": 35.87, 
			 "cosmo_dispersion_energy": -26.81, 
			 "cosmo_repulsion_energy": 2.0, 
			 "cosmo_total_nonelectrostatic_energy": 11.06, 
			 "SMD_solvation_energy": 4.52 
		},
		"coords": [
			{
				"x": -3.6731954766,
				"y": -2.1031280638,
				"z": -0.7776795269,
				"element": "C" 
			},
			{
				"x": -2.4277721163,
				"y": -1.3822872051,
				"z": -0.338818381,
				"element": "C" 
			},
			{
				"x": -1.998535239,
				"y": -0.1377561341,
				"z": -0.7156107451,
				"element": "C" 
			},
			{
				"x": -2.7595221602,
				"y": 0.7349272391,
				"z": -1.6794966348,
				"element": "C" 
			},
			{
				"x": -0.7457657681,
				"y": 0.214879636,
				"z": -0.0772220342,
				"element": "C" 
			},
			{
				"x": -0.2653700728,
				"y": -0.8059917924,
				"z": 0.7783405192,
				"element": "C" 
			},
			{
				"x": -1.3435270753,
				"y": -2.1798743342,
				"z": 0.7960612482,
				"element": "S" 
			},
			{
				"x": 0.8608608109,
				"y": -0.7654593528,
				"z": 1.4951967206,
				"element": "N" 
			},
			{
				"x": 1.5486091498,
				"y": 0.3614014015,
				"z": 1.3510157179,
				"element": "C" 
			},
			{
				"x": 1.2230558999,
				"y": 1.4146050182,
				"z": 0.5830376319,
				"element": "N" 
			},
			{
				"x": 0.0971538798,
				"y": 1.3561499026,
				"z": -0.1282928099,
				"element": "C" 
			},
			{
				"x": -0.3073734717,
				"y": 2.7549545986,
				"z": -1.1551520523,
				"element": "S" 
			},
			{
				"x": 1.114503714,
				"y": 3.8706468289,
				"z": -0.8607786259,
				"element": "C" 
			},
			{
				"x": 1.0343046127,
				"y": 4.6313269595,
				"z": 0.4604733752,
				"element": "C" 
			},
			{
				"x": 2.1432949938,
				"y": 5.6540806745,
				"z": 0.5808476669,
				"element": "C" 
			},
			{
				"x": 2.1199044851,
				"y": 6.2709455029,
				"z": 1.78624954,
				"element": "O" 
			},
			{
				"x": 2.9599881055,
				"y": 5.919465112,
				"z": -0.2743149315,
				"element": "O" 
			},
			{
				"x": -4.5738381375,
				"y": -1.5349178264,
				"z": -0.5200829598,
				"element": "H" 
			},
			{
				"x": -3.6797877579,
				"y": -2.2630243655,
				"z": -1.8616121386,
				"element": "H" 
			},
			{
				"x": -3.7565078668,
				"y": -3.0830787757,
				"z": -0.3013416408,
				"element": "H" 
			},
			{
				"x": -2.1630775759,
				"y": 0.9704666684,
				"z": -2.5670767786,
				"element": "H" 
			},
			{
				"x": -3.6735114339,
				"y": 0.2407296569,
				"z": -2.0157348553,
				"element": "H" 
			},
			{
				"x": -3.0458308551,
				"y": 1.6875652582,
				"z": -1.2215755532,
				"element": "H" 
			},
			{
				"x": 2.4754817844,
				"y": 0.4477866881,
				"z": 1.9134031011,
				"element": "H" 
			},
			{
				"x": 1.1023799377,
				"y": 4.557844808,
				"z": -1.7100665908,
				"element": "H" 
			},
			{
				"x": 2.0287536135,
				"y": 3.2792484538,
				"z": -0.9128842605,
				"element": "H" 
			},
			{
				"x": 0.0769397579,
				"y": 5.1552639433,
				"z": 0.5641793583,
				"element": "H" 
			},
			{
				"x": 1.1044685089,
				"y": 3.9377506985,
				"z": 1.3032877934,
				"element": "H" 
			},
			{
				"x": 2.8525157533,
				"y": 6.9098788012,
				"z": 1.7769478468,
				"element": "H" 
			}
		],
		 "valence_orbital": [ 
			{
				"type": "occ",
				"energy": -0.28009,
				"method": "rhf"
			},
			{
				"type": "occ",
				"energy": -0.2674,
				"method": "rhf"
			},
			{
				"type": "occ",
				"energy": -0.25849,
				"method": "rhf"
			},
			{
				"type": "occ",
				"energy": -0.25411,
				"method": "rhf"
			},
			{
				"type": "occ",
				"energy": -0.21803,
				"method": "rhf"
			},
			{
				"type": "unocc",
				"energy": -0.04397,
				"method": "rhf"
			},
			{
				"type": "unocc",
				"energy": -0.02934,
				"method": "rhf"
			},
			{
				"type": "unocc",
				"energy": 0.00681,
				"method": "rhf"
			},
			{
				"type": "unocc",
				"energy": 0.01107,
				"method": "rhf"
			},
			{
				"type": "unocc",
				"energy": 0.02714,
				"method": "rhf"
			}
		],
		"cosmo_sigma_profile": { 
			"-0.025": 0.0,
			"-0.024": 0.0,
			"-0.023": 0.0,
			"-0.022": 0.0,
			"-0.021": 0.0,
			"-0.02": 0.0,
			"-0.019": 0.0379531447908,
			"-0.018": 0.66705201329,
			"-0.017": 0.917928844842,
			"-0.016": 1.37128758408,
			"-0.015": 0.387868167043,
			"-0.014": 0.513581512086,
			"-0.013": 0.389683077862,
			"-0.012": 0.542016380516,
			"-0.011": 1.39165747194,
			"-0.01": 0.880461744463,
			"-0.009": 0.484602206318,
			"-0.008": 1.08107730469,
			"-0.007": 6.05872990236,
			"-0.006": 9.61315280426,
			"-0.005": 15.9818746528,
			"-0.004": 21.9924174091,
			"-0.003": 22.3665696224,
			"-0.002": 26.6893308083,
			"-0.001": 28.7766966283,
			"0.0": 29.6320556241,
			"0.001": 23.7522138655,
			"0.002": 24.4491590084,
			"0.003": 16.072048805,
			"0.004": 11.4795202817,
			"0.005": 6.99005850774,
			"0.006": 8.13164820214,
			"0.007": 4.88840551797,
			"0.008": 4.35854994566,
			"0.009": 3.65130117464,
			"0.01": 4.42673994285,
			"0.011": 4.6863705694,
			"0.012": 4.42878190309,
			"0.013": 0.872796798419,
			"0.014": 0.92053710652,
			"0.015": 0.113017188383,
			"0.016": 0.0,
			"0.017": 0.0,
			"0.018": 0.0,
			"0.019": 0.0,
			"0.02": 0.0,
			"0.021": 0.0,
			"0.022": 0.0,
			"0.023": 0.0,
			"0.024": 0.0,
			"0.025": 0.0
		}
	}
}
