{
	 "smiles": "OC1=C(Br)C=CC=C1Br", 
	 "Tm": 328.95, 
	 "num_atms": 13, 
	 "gaussian": { 
		 "optdone": 1, 
		 "sigma_profile": "yes", 
		 "theory": "DFT", 
		 "functional": "B3LYP", 
		 "basiset": "6-31G**", 
		 "properties": { 
			 "R2extent": 3374.0025, 
			 "electric_dipole_moment_norm": 2.03568595073, 
			 "electric_quadrupole_moment_norm": 7.88758421381, 
			 "total_energy": -5449.07518423, 
			 "HOMO_LUMO_gap": 0.20913, 
			 "cosmo_polarized_energy": -6.32, 
			 "cosmo_cavitation_energy": 21.64, 
			 "cosmo_dispersion_energy": -17.26, 
			 "cosmo_repulsion_energy": 1.41, 
			 "cosmo_total_nonelectrostatic_energy": 5.78, 
			 "SMD_solvation_energy": 1.93 
		},
		"coords": [
			{
				"x": -1.148968682,
				"y": 0.615058489,
				"z": -0.8123753165,
				"element": "O" 
			},
			{
				"x": 0.1518268609,
				"y": 0.2853724765,
				"z": -0.9439325916,
				"element": "C" 
			},
			{
				"x": 0.7741528418,
				"y": 0.0542761813,
				"z": -2.1824957831,
				"element": "C" 
			},
			{
				"x": -0.2954281693,
				"y": 0.2198523456,
				"z": -3.7664540462,
				"element": "Br" 
			},
			{
				"x": 2.1191742334,
				"y": -0.2846639246,
				"z": -2.2861381603,
				"element": "C" 
			},
			{
				"x": 2.8829748389,
				"y": -0.4010700242,
				"z": -1.1263866604,
				"element": "C" 
			},
			{
				"x": 2.2955203421,
				"y": -0.1781240053,
				"z": 0.1193452665,
				"element": "C" 
			},
			{
				"x": 0.9485056841,
				"y": 0.1602895371,
				"z": 0.207408143,
				"element": "C" 
			},
			{
				"x": 0.1605539461,
				"y": 0.4611938059,
				"z": 1.913359,
				"element": "Br" 
			},
			{
				"x": -1.5470409047,
				"y": 0.6579781429,
				"z": -1.6973728673,
				"element": "H" 
			},
			{
				"x": 2.5561068173,
				"y": -0.4536775705,
				"z": -3.2634589895,
				"element": "H" 
			},
			{
				"x": 3.9331762364,
				"y": -0.6648218857,
				"z": -1.1928655672,
				"element": "H" 
			},
			{
				"x": 2.8770459551,
				"y": -0.265063568,
				"z": 1.0298675726,
				"element": "H" 
			}
		],
		 "valence_orbital": [ 
			{
				"type": "occ",
				"energy": -0.31469,
				"method": "rhf"
			},
			{
				"type": "occ",
				"energy": -0.30575,
				"method": "rhf"
			},
			{
				"type": "occ",
				"energy": -0.28569,
				"method": "rhf"
			},
			{
				"type": "occ",
				"energy": -0.25039,
				"method": "rhf"
			},
			{
				"type": "occ",
				"energy": -0.2358,
				"method": "rhf"
			},
			{
				"type": "unocc",
				"energy": -0.02667,
				"method": "rhf"
			},
			{
				"type": "unocc",
				"energy": -0.02346,
				"method": "rhf"
			},
			{
				"type": "unocc",
				"energy": -0.0103,
				"method": "rhf"
			},
			{
				"type": "unocc",
				"energy": 0.02282,
				"method": "rhf"
			},
			{
				"type": "unocc",
				"energy": 0.08582,
				"method": "rhf"
			}
		],
		"cosmo_sigma_profile": { 
			"-0.025": 0.0,
			"-0.024": 0.0,
			"-0.023": 0.0,
			"-0.022": 0.0,
			"-0.021": 0.0,
			"-0.02": 0.0,
			"-0.019": 0.0,
			"-0.018": 0.0,
			"-0.017": 0.0,
			"-0.016": 0.0,
			"-0.015": 0.318724742408,
			"-0.014": 0.596190074836,
			"-0.013": 0.964435106294,
			"-0.012": 0.182855710396,
			"-0.011": 0.875998856508,
			"-0.01": 1.1278342423,
			"-0.009": 0.839371465693,
			"-0.008": 2.3419971446,
			"-0.007": 6.65471511822,
			"-0.006": 7.60771832548,
			"-0.005": 8.53616084729,
			"-0.004": 9.31147802674,
			"-0.003": 9.27281515382,
			"-0.002": 10.5238026441,
			"-0.001": 11.4604015789,
			"0.0": 13.1915867806,
			"0.001": 21.8971668906,
			"0.002": 21.8271233121,
			"0.003": 21.4511218426,
			"0.004": 15.448138877,
			"0.005": 5.27823797369,
			"0.006": 2.46978454858,
			"0.007": 2.25218482169,
			"0.008": 1.51960516161,
			"0.009": 2.28023411723,
			"0.01": 2.19899510352,
			"0.011": 0.157223883144,
			"0.012": 0.0,
			"0.013": 0.0,
			"0.014": 0.0,
			"0.015": 0.0,
			"0.016": 0.0,
			"0.017": 0.0,
			"0.018": 0.0,
			"0.019": 0.0,
			"0.02": 0.0,
			"0.021": 0.0,
			"0.022": 0.0,
			"0.023": 0.0,
			"0.024": 0.0,
			"0.025": 0.0
		}
	}
}
