{
	 "smiles": "COC1=CC=C(CO)C=C1Br", 
	 "Tm": 334.15, 
	 "num_atms": 20, 
	 "gaussian": { 
		 "optdone": 1, 
		 "sigma_profile": "yes", 
		 "theory": "DFT", 
		 "functional": "B3LYP", 
		 "basiset": "6-31G**", 
		 "properties": { 
			 "R2extent": 3776.9021, 
			 "electric_dipole_moment_norm": 2.18727696234, 
			 "electric_quadrupole_moment_norm": 11.2452670662, 
			 "total_energy": -3032.10234402, 
			 "HOMO_LUMO_gap": 0.20679, 
			 "cosmo_polarized_energy": -10.35, 
			 "cosmo_cavitation_energy": 26.0, 
			 "cosmo_dispersion_energy": -19.58, 
			 "cosmo_repulsion_energy": 1.59, 
			 "cosmo_total_nonelectrostatic_energy": 8.02, 
			 "SMD_solvation_energy": 4.2 
		},
		"coords": [
			{
				"x": 2.5834739393,
				"y": -1.5635248566,
				"z": -1.0707691564,
				"element": "C" 
			},
			{
				"x": 2.1149286601,
				"y": -0.2264928412,
				"z": -1.1627529852,
				"element": "O" 
			},
			{
				"x": 0.7752767155,
				"y": -0.0082765407,
				"z": -1.1466738803,
				"element": "C" 
			},
			{
				"x": -0.1942847671,
				"y": -1.0143597607,
				"z": -1.0387570643,
				"element": "C" 
			},
			{
				"x": -1.5523806347,
				"y": -0.6950292819,
				"z": -1.0306637422,
				"element": "C" 
			},
			{
				"x": -1.9826074279,
				"y": 0.6300925228,
				"z": -1.1248089493,
				"element": "C" 
			},
			{
				"x": -3.4610781236,
				"y": 0.9679211123,
				"z": -1.1469867633,
				"element": "C" 
			},
			{
				"x": -4.2559521321,
				"y": 0.0800697406,
				"z": -0.3732191025,
				"element": "O" 
			},
			{
				"x": -1.0157942508,
				"y": 1.6380458471,
				"z": -1.2232948956,
				"element": "C" 
			},
			{
				"x": 0.3379594929,
				"y": 1.3261524609,
				"z": -1.238825827,
				"element": "C" 
			},
			{
				"x": 1.6203495786,
				"y": 2.7317239067,
				"z": -1.3713988719,
				"element": "Br" 
			},
			{
				"x": 2.2308195775,
				"y": -2.1741854252,
				"z": -1.9114355029,
				"element": "H" 
			},
			{
				"x": 3.6717411442,
				"y": -1.4994665161,
				"z": -1.1040954973,
				"element": "H" 
			},
			{
				"x": 2.2773417832,
				"y": -2.0352602466,
				"z": -0.1284777349,
				"element": "H" 
			},
			{
				"x": 0.1075474126,
				"y": -2.0522647012,
				"z": -0.9619795554,
				"element": "H" 
			},
			{
				"x": -2.2923143772,
				"y": -1.4842779747,
				"z": -0.9425365547,
				"element": "H" 
			},
			{
				"x": -3.8543983218,
				"y": 0.8833532646,
				"z": -2.1672448799,
				"element": "H" 
			},
			{
				"x": -3.6044353159,
				"y": 2.0156821824,
				"z": -0.8387303011,
				"element": "H" 
			},
			{
				"x": -3.9227984753,
				"y": 0.1104032088,
				"z": 0.5338075758,
				"element": "H" 
			},
			{
				"x": -1.3144944773,
				"y": 2.6798938988,
				"z": -1.2864563116,
				"element": "H" 
			}
		],
		 "valence_orbital": [ 
			{
				"type": "occ",
				"energy": -0.30787,
				"method": "rhf"
			},
			{
				"type": "occ",
				"energy": -0.28012,
				"method": "rhf"
			},
			{
				"type": "occ",
				"energy": -0.27517,
				"method": "rhf"
			},
			{
				"type": "occ",
				"energy": -0.24762,
				"method": "rhf"
			},
			{
				"type": "occ",
				"energy": -0.22072,
				"method": "rhf"
			},
			{
				"type": "unocc",
				"energy": -0.01393,
				"method": "rhf"
			},
			{
				"type": "unocc",
				"energy": -0.00176,
				"method": "rhf"
			},
			{
				"type": "unocc",
				"energy": 0.01294,
				"method": "rhf"
			},
			{
				"type": "unocc",
				"energy": 0.08441,
				"method": "rhf"
			},
			{
				"type": "unocc",
				"energy": 0.09479,
				"method": "rhf"
			}
		],
		"cosmo_sigma_profile": { 
			"-0.025": 0.0,
			"-0.024": 0.0,
			"-0.023": 0.0,
			"-0.022": 0.0,
			"-0.021": 0.0,
			"-0.02": 0.0,
			"-0.019": 0.0,
			"-0.018": 0.0,
			"-0.017": 0.0,
			"-0.016": 0.215242996402,
			"-0.015": 0.80945786981,
			"-0.014": 1.04725700711,
			"-0.013": 0.83797667399,
			"-0.012": 0.596876639842,
			"-0.011": 0.724220731003,
			"-0.01": 0.720726208774,
			"-0.009": 0.820049420059,
			"-0.008": 1.16305215614,
			"-0.007": 4.07219072842,
			"-0.006": 11.8957398353,
			"-0.005": 17.8069310729,
			"-0.004": 20.4370912651,
			"-0.003": 18.0789308359,
			"-0.002": 12.2860373287,
			"-0.001": 10.0134769913,
			"0.0": 10.7985266293,
			"0.001": 10.848653507,
			"0.002": 14.3244413302,
			"0.003": 18.4484847694,
			"0.004": 18.2476886247,
			"0.005": 12.7361498049,
			"0.006": 3.61616735557,
			"0.007": 3.69685934355,
			"0.008": 3.00701260178,
			"0.009": 2.49035975828,
			"0.01": 2.84449058618,
			"0.011": 1.96925306811,
			"0.012": 1.2827889606,
			"0.013": 1.55392148339,
			"0.014": 1.86980451183,
			"0.015": 0.103818908396,
			"0.016": 0.0,
			"0.017": 0.0,
			"0.018": 0.0,
			"0.019": 0.0,
			"0.02": 0.0,
			"0.021": 0.0,
			"0.022": 0.0,
			"0.023": 0.0,
			"0.024": 0.0,
			"0.025": 0.0
		}
	}
}
