{
	 "smiles": "COC(=O)C1=CC(=CC(I)=C1)C(=O)OC", 
	 "Tm": 379.15, 
	 "num_atms": 24, 
	 "gaussian": { 
		 "optdone": 1, 
		 "sigma_profile": "no", 
		 "theory": "DFT", 
		 "functional": "B3LYP", 
		 "basiset": "6-31G**", 
		 "properties": { 
			 "R2extent": 5290.8946, 
			 "electric_dipole_moment_norm": 2.03312114002, 
			 "electric_quadrupole_moment_norm": 14.5710601364, 
			 "total_energy": -698.790120153, 
			 "HOMO_LUMO_gap": 0.18249, 
			 "cosmo_polarized_energy": -96975.15, 
			 "cosmo_cavitation_energy": 32.96, 
			 "cosmo_dispersion_energy": -25.08, 
			 "cosmo_repulsion_energy": 1.96, 
			 "cosmo_total_nonelectrostatic_energy": 9.84, 
			 "SMD_solvation_energy": 7.99 
		},
		"coords": [
			{
				"x": 1.5881297357,
				"y": -5.1775235877,
				"z": -1.0378129668,
				"element": "C" 
			},
			{
				"x": 1.1075494497,
				"y": -3.9602135946,
				"z": -0.4433541114,
				"element": "O" 
			},
			{
				"x": -0.2121406146,
				"y": -3.9350968016,
				"z": -0.1680619226,
				"element": "C" 
			},
			{
				"x": -0.9644158958,
				"y": -4.8616075307,
				"z": -0.3959755278,
				"element": "O" 
			},
			{
				"x": -0.6382321038,
				"y": -2.6410136371,
				"z": 0.4470102339,
				"element": "C" 
			},
			{
				"x": 0.2553673282,
				"y": -1.5968223437,
				"z": 0.6946194399,
				"element": "C" 
			},
			{
				"x": -0.2064670108,
				"y": -0.4105733168,
				"z": 1.2728766993,
				"element": "C" 
			},
			{
				"x": -1.5605785214,
				"y": -0.2643674083,
				"z": 1.6049272185,
				"element": "C" 
			},
			{
				"x": -2.4410855956,
				"y": -1.3165040126,
				"z": 1.3513959418,
				"element": "C" 
			},
			{
				"x": -4.4904773326,
				"y": -1.1026897981,
				"z": 1.8508858168,
				"element": "I" 
			},
			{
				"x": -1.9943873301,
				"y": -2.5034711741,
				"z": 0.7759118862,
				"element": "C" 
			},
			{
				"x": 0.7883196324,
				"y": 0.6773481386,
				"z": 1.5181218004,
				"element": "C" 
			},
			{
				"x": 1.9693256085,
				"y": 0.5944717115,
				"z": 1.2465733357,
				"element": "O" 
			},
			{
				"x": 0.2275656773,
				"y": 1.7701079286,
				"z": 2.0781079452,
				"element": "O" 
			},
			{
				"x": 1.1307790971,
				"y": 2.856965151,
				"z": 2.3411777334,
				"element": "C" 
			},
			{
				"x": 2.6563131165,
				"y": -5.0266647162,
				"z": -1.1906827,
				"element": "H" 
			},
			{
				"x": 1.0846246911,
				"y": -5.3637257702,
				"z": -1.9895632438,
				"element": "H" 
			},
			{
				"x": 1.4095633111,
				"y": -6.0253590026,
				"z": -0.3719982849,
				"element": "H" 
			},
			{
				"x": 1.3050123477,
				"y": -1.6894382365,
				"z": 0.4456997197,
				"element": "H" 
			},
			{
				"x": -1.9061783907,
				"y": 0.6586977507,
				"z": 2.052136876,
				"element": "H" 
			},
			{
				"x": -2.6644266312,
				"y": -3.3302904938,
				"z": 0.5723122242,
				"element": "H" 
			},
			{
				"x": 0.5215303975,
				"y": 3.6434654996,
				"z": 2.7855789473,
				"element": "H" 
			},
			{
				"x": 1.5923327606,
				"y": 3.2043655998,
				"z": 1.4136878329,
				"element": "H" 
			},
			{
				"x": 1.9176762731,
				"y": 2.5425396449,
				"z": 3.0310251061,
				"element": "H" 
			}
		],
		 "valence_orbital": [ 
			{
				"type": "occ",
				"energy": -0.28742,
				"method": "rhf"
			},
			{
				"type": "occ",
				"energy": -0.28349,
				"method": "rhf"
			},
			{
				"type": "occ",
				"energy": -0.27883,
				"method": "rhf"
			},
			{
				"type": "occ",
				"energy": -0.27396,
				"method": "rhf"
			},
			{
				"type": "occ",
				"energy": -0.25096,
				"method": "rhf"
			},
			{
				"type": "unocc",
				"energy": -0.06847,
				"method": "rhf"
			},
			{
				"type": "unocc",
				"energy": -0.05114,
				"method": "rhf"
			},
			{
				"type": "unocc",
				"energy": -0.0458,
				"method": "rhf"
			},
			{
				"type": "unocc",
				"energy": 0.01392,
				"method": "rhf"
			},
			{
				"type": "unocc",
				"energy": 0.04343,
				"method": "rhf"
			}
		],
		"cosmo_sigma_profile": { 
			"0.0": 0.0,
			"0.0": 0.0,
			"0.0": 0.0,
			"0.0": 0.0,
			"0.0": 0.0,
			"0.0": 0.0,
			"0.0": 0.0,
			"0.0": 0.0,
			"0.0": 0.0,
			"0.0": 0.0,
			"0.0": 0.0,
			"0.0": 0.0,
			"0.0": 0.0,
			"0.0": 0.0,
			"0.0": 0.0,
			"0.0": 0.0,
			"0.0": 0.0,
			"0.0": 0.0,
			"0.0": 0.0,
			"0.0": 0.0,
			"0.0": 0.0,
			"0.0": 0.0,
			"0.0": 0.0,
			"0.0": 0.0,
			"0.0": 0.0,
			"0.0": 0.0,
			"0.0": 0.0,
			"0.0": 0.0,
			"0.0": 0.0,
			"0.0": 0.0,
			"0.0": 0.0,
			"0.0": 0.0,
			"0.0": 0.0,
			"0.0": 0.0,
			"0.0": 0.0,
			"0.0": 0.0,
			"0.0": 0.0,
			"0.0": 0.0,
			"0.0": 0.0,
			"0.0": 0.0,
			"0.0": 0.0,
			"0.0": 0.0,
			"0.0": 0.0,
			"0.0": 0.0,
			"0.0": 0.0,
			"0.0": 0.0,
			"0.0": 0.0,
			"0.0": 0.0,
			"0.0": 0.0,
			"0.0": 0.0,
			"0.0": 0.0
		}
	}
}
