{
	 "smiles": "CN1C(=NC2=C1C=CC(N)=C2)C1CC1", 
	 "Tm": 373.15, 
	 "num_atms": 27, 
	 "gaussian": { 
		 "optdone": 1, 
		 "sigma_profile": "yes", 
		 "theory": "DFT", 
		 "functional": "B3LYP", 
		 "basiset": "6-31G**", 
		 "properties": { 
			 "R2extent": 3453.4678, 
			 "electric_dipole_moment_norm": 2.97129794198, 
			 "electric_quadrupole_moment_norm": 13.0685246524, 
			 "total_energy": -591.246917398, 
			 "HOMO_LUMO_gap": 0.17708, 
			 "cosmo_polarized_energy": -15.07, 
			 "cosmo_cavitation_energy": 29.85, 
			 "cosmo_dispersion_energy": -22.0, 
			 "cosmo_repulsion_energy": 1.73, 
			 "cosmo_total_nonelectrostatic_energy": 9.58, 
			 "SMD_solvation_energy": 2.96 
		},
		"coords": [
			{
				"x": -0.9024477009,
				"y": -1.7104420224,
				"z": -1.9081931206,
				"element": "C" 
			},
			{
				"x": -0.4487329551,
				"y": -1.1515598775,
				"z": -0.650540794,
				"element": "N" 
			},
			{
				"x": 0.806078115,
				"y": -1.2072737107,
				"z": -0.0680068652,
				"element": "C" 
			},
			{
				"x": 0.8607247582,
				"y": -0.5968916703,
				"z": 1.098940232,
				"element": "N" 
			},
			{
				"x": -0.4162401831,
				"y": -0.11150012,
				"z": 1.3213036585,
				"element": "C" 
			},
			{
				"x": -1.2596473092,
				"y": -0.4535961688,
				"z": 0.2408558212,
				"element": "C" 
			},
			{
				"x": -2.606213923,
				"y": -0.0953531845,
				"z": 0.2162865242,
				"element": "C" 
			},
			{
				"x": -3.0959988012,
				"y": 0.6261972893,
				"z": 1.3020627656,
				"element": "C" 
			},
			{
				"x": -2.2700952113,
				"y": 0.9832653029,
				"z": 2.3963340159,
				"element": "C" 
			},
			{
				"x": -2.8056110503,
				"y": 1.7646393555,
				"z": 3.4367504703,
				"element": "N" 
			},
			{
				"x": -0.9214761286,
				"y": 0.6104830148,
				"z": 2.4077532791,
				"element": "C" 
			},
			{
				"x": 1.9688298591,
				"y": -1.8660578441,
				"z": -0.6984869708,
				"element": "C" 
			},
			{
				"x": 3.0745102095,
				"y": -2.3891290327,
				"z": 0.2002909656,
				"element": "C" 
			},
			{
				"x": 3.3219762315,
				"y": -1.1708793038,
				"z": -0.6342474249,
				"element": "C" 
			},
			{
				"x": -0.0499518813,
				"y": -1.949720297,
				"z": -2.5438196556,
				"element": "H" 
			},
			{
				"x": -1.5199845674,
				"y": -0.976168828,
				"z": -2.434753432,
				"element": "H" 
			},
			{
				"x": -1.4957863311,
				"y": -2.6200822331,
				"z": -1.7556634344,
				"element": "H" 
			},
			{
				"x": -3.2621893766,
				"y": -0.3631866708,
				"z": -0.6068099569,
				"element": "H" 
			},
			{
				"x": -4.1391323671,
				"y": 0.9316849515,
				"z": 1.3122369851,
				"element": "H" 
			},
			{
				"x": -3.7960313985,
				"y": 1.6237281679,
				"z": 3.5882983524,
				"element": "H" 
			},
			{
				"x": -2.2982882102,
				"y": 1.6855793404,
				"z": 4.308588416,
				"element": "H" 
			},
			{
				"x": -0.27230003,
				"y": 0.8748666207,
				"z": 3.2375620725,
				"element": "H" 
			},
			{
				"x": 1.7641647716,
				"y": -2.4425180302,
				"z": -1.5942712248,
				"element": "H" 
			},
			{
				"x": 3.5492008904,
				"y": -3.3234492794,
				"z": -0.0838929999,
				"element": "H" 
			},
			{
				"x": 2.9221894147,
				"y": -2.243229614,
				"z": 1.2641334097,
				"element": "H" 
			},
			{
				"x": 3.9689543474,
				"y": -1.2510265814,
				"z": -1.5028779365,
				"element": "H" 
			},
			{
				"x": 3.3378988277,
				"y": -0.2120795741,
				"z": -0.1271331524,
				"element": "H" 
			}
		],
		 "valence_orbital": [ 
			{
				"type": "occ",
				"energy": -0.27926,
				"method": "rhf"
			},
			{
				"type": "occ",
				"energy": -0.26584,
				"method": "rhf"
			},
			{
				"type": "occ",
				"energy": -0.25556,
				"method": "rhf"
			},
			{
				"type": "occ",
				"energy": -0.20358,
				"method": "rhf"
			},
			{
				"type": "occ",
				"energy": -0.17983,
				"method": "rhf"
			},
			{
				"type": "unocc",
				"energy": -0.00275,
				"method": "rhf"
			},
			{
				"type": "unocc",
				"energy": 0.04425,
				"method": "rhf"
			},
			{
				"type": "unocc",
				"energy": 0.06124,
				"method": "rhf"
			},
			{
				"type": "unocc",
				"energy": 0.08061,
				"method": "rhf"
			},
			{
				"type": "unocc",
				"energy": 0.09346,
				"method": "rhf"
			}
		],
		"cosmo_sigma_profile": { 
			"-0.025": 0.0,
			"-0.024": 0.0,
			"-0.023": 0.0,
			"-0.022": 0.0,
			"-0.021": 0.0,
			"-0.02": 0.0,
			"-0.019": 0.0,
			"-0.018": 0.0,
			"-0.017": 0.0,
			"-0.016": 0.0,
			"-0.015": 0.0,
			"-0.014": 0.0,
			"-0.013": 0.0,
			"-0.012": 0.872508024253,
			"-0.011": 2.42691614854,
			"-0.01": 3.32139415989,
			"-0.009": 2.42345572671,
			"-0.008": 4.72125596544,
			"-0.007": 5.99899308276,
			"-0.006": 11.8936159384,
			"-0.005": 19.6929016511,
			"-0.004": 22.023517742,
			"-0.003": 21.9343501824,
			"-0.002": 13.7950870454,
			"-0.001": 13.3050165964,
			"0.0": 13.1405187118,
			"0.001": 12.157169159,
			"0.002": 12.4576759015,
			"0.003": 13.2236688869,
			"0.004": 10.9328164964,
			"0.005": 10.4179923355,
			"0.006": 11.5390811866,
			"0.007": 11.4332977961,
			"0.008": 3.27952412073,
			"0.009": 3.66871290752,
			"0.01": 2.02240988071,
			"0.011": 1.81794063955,
			"0.012": 1.66891166846,
			"0.013": 1.73427732492,
			"0.014": 1.67070283128,
			"0.015": 1.37069728255,
			"0.016": 1.05664580109,
			"0.017": 0.51485795207,
			"0.018": 0.0355301668739,
			"0.019": 0.0,
			"0.02": 0.0,
			"0.021": 0.0,
			"0.022": 0.0,
			"0.023": 0.0,
			"0.024": 0.0,
			"0.025": 0.0
		}
	}
}
