{
	 "smiles": "SC1=NC(=NO1)C1=CC2=C(O1)C=CC=C2", 
	 "Tm": 426.15, 
	 "num_atms": 21, 
	 "gaussian": { 
		 "optdone": 1, 
		 "sigma_profile": "yes", 
		 "theory": "DFT", 
		 "functional": "B3LYP", 
		 "basiset": "6-31G**", 
		 "properties": { 
			 "R2extent": 5275.6647, 
			 "electric_dipole_moment_norm": 2.93976274383, 
			 "electric_quadrupole_moment_norm": 18.6194779889, 
			 "total_energy": -1042.75719845, 
			 "HOMO_LUMO_gap": 0.16716, 
			 "cosmo_polarized_energy": -10.2, 
			 "cosmo_cavitation_energy": 28.88, 
			 "cosmo_dispersion_energy": -22.21, 
			 "cosmo_repulsion_energy": 1.67, 
			 "cosmo_total_nonelectrostatic_energy": 8.34, 
			 "SMD_solvation_energy": 2.97 
		},
		"coords": [
			{
				"x": 0.4528266377,
				"y": 1.2010537173,
				"z": -5.6848365322,
				"element": "S" 
			},
			{
				"x": -0.0113673818,
				"y": 1.2842564173,
				"z": -3.9949036272,
				"element": "C" 
			},
			{
				"x": 0.3415212385,
				"y": 0.5123407435,
				"z": -3.0104201839,
				"element": "N" 
			},
			{
				"x": -0.344660309,
				"y": 1.0856222818,
				"z": -1.9542520727,
				"element": "C" 
			},
			{
				"x": -1.0716668653,
				"y": 2.1387656261,
				"z": -2.2615603807,
				"element": "N" 
			},
			{
				"x": -0.8460127568,
				"y": 2.2756609613,
				"z": -3.6516186159,
				"element": "O" 
			},
			{
				"x": -0.2486151579,
				"y": 0.5416721739,
				"z": -0.6166352201,
				"element": "C" 
			},
			{
				"x": 0.4549037114,
				"y": -0.5302037368,
				"z": -0.1500383681,
				"element": "C" 
			},
			{
				"x": 0.1779182822,
				"y": -0.6050365947,
				"z": 1.257994613,
				"element": "C" 
			},
			{
				"x": -0.6990301904,
				"y": 0.4663820808,
				"z": 1.5245638259,
				"element": "C" 
			},
			{
				"x": -0.9596469319,
				"y": 1.1668422542,
				"z": 0.3797930473,
				"element": "O" 
			},
			{
				"x": -1.2118186715,
				"y": 0.7479568979,
				"z": 2.7854625676,
				"element": "C" 
			},
			{
				"x": -0.8127414162,
				"y": -0.0994846655,
				"z": 3.8171573702,
				"element": "C" 
			},
			{
				"x": 0.0627290951,
				"y": -1.1797514563,
				"z": 3.5852122496,
				"element": "C" 
			},
			{
				"x": 0.5648939258,
				"y": -1.4448244164,
				"z": 2.3162115952,
				"element": "C" 
			},
			{
				"x": 1.2304347596,
				"y": 0.1185023642,
				"z": -5.4954694949,
				"element": "H" 
			},
			{
				"x": 1.084772315,
				"y": -1.1733656621,
				"z": -0.7462938253,
				"element": "H" 
			},
			{
				"x": -1.8843746782,
				"y": 1.5828601554,
				"z": 2.9474467193,
				"element": "H" 
			},
			{
				"x": -1.1846834638,
				"y": 0.0766292629,
				"z": 4.8218715867,
				"element": "H" 
			},
			{
				"x": 0.3484523118,
				"y": -1.8157205662,
				"z": 4.4176040542,
				"element": "H" 
			},
			{
				"x": 1.2387655456,
				"y": -2.2789578387,
				"z": 2.146210692,
				"element": "H" 
			}
		],
		 "valence_orbital": [ 
			{
				"type": "occ",
				"energy": -0.30965,
				"method": "rhf"
			},
			{
				"type": "occ",
				"energy": -0.29916,
				"method": "rhf"
			},
			{
				"type": "occ",
				"energy": -0.26928,
				"method": "rhf"
			},
			{
				"type": "occ",
				"energy": -0.24489,
				"method": "rhf"
			},
			{
				"type": "occ",
				"energy": -0.22603,
				"method": "rhf"
			},
			{
				"type": "unocc",
				"energy": -0.05887,
				"method": "rhf"
			},
			{
				"type": "unocc",
				"energy": -0.01461,
				"method": "rhf"
			},
			{
				"type": "unocc",
				"energy": -0.0106,
				"method": "rhf"
			},
			{
				"type": "unocc",
				"energy": 0.00451,
				"method": "rhf"
			},
			{
				"type": "unocc",
				"energy": 0.02258,
				"method": "rhf"
			}
		],
		"cosmo_sigma_profile": { 
			"-0.025": 0.0,
			"-0.024": 0.0,
			"-0.023": 0.0,
			"-0.022": 0.0,
			"-0.021": 0.0,
			"-0.02": 0.0,
			"-0.019": 0.0,
			"-0.018": 0.0,
			"-0.017": 0.0,
			"-0.016": 0.0,
			"-0.015": 0.0,
			"-0.014": 0.528440090949,
			"-0.013": 2.00552634634,
			"-0.012": 1.37496985515,
			"-0.011": 1.08031432041,
			"-0.01": 1.8736291567,
			"-0.009": 1.24906985833,
			"-0.008": 2.46255565387,
			"-0.007": 5.89894309598,
			"-0.006": 11.0875518437,
			"-0.005": 12.8801406587,
			"-0.004": 14.5573951068,
			"-0.003": 14.7646965363,
			"-0.002": 17.5743374395,
			"-0.001": 18.314675771,
			"0.0": 20.4921342369,
			"0.001": 19.856407398,
			"0.002": 20.9699306483,
			"0.003": 17.774793494,
			"0.004": 16.5834891331,
			"0.005": 11.5803495125,
			"0.006": 6.21554323711,
			"0.007": 3.76124317267,
			"0.008": 4.08329357768,
			"0.009": 3.4906438552,
			"0.01": 2.42666955811,
			"0.011": 2.26472523741,
			"0.012": 1.38569723575,
			"0.013": 0.238883430552,
			"0.014": 0.0,
			"0.015": 0.0,
			"0.016": 0.0,
			"0.017": 0.0,
			"0.018": 0.0,
			"0.019": 0.0,
			"0.02": 0.0,
			"0.021": 0.0,
			"0.022": 0.0,
			"0.023": 0.0,
			"0.024": 0.0,
			"0.025": 0.0
		}
	}
}
