{
	 "smiles": "CC(=O)NC1=CC=C(Cl)C=C1C", 
	 "Tm": 410.15, 
	 "num_atms": 22, 
	 "gaussian": { 
		 "optdone": 1, 
		 "sigma_profile": "yes", 
		 "theory": "DFT", 
		 "functional": "B3LYP", 
		 "basiset": "6-31G**", 
		 "properties": { 
			 "R2extent": 3548.5253, 
			 "electric_dipole_moment_norm": 1.24109557247, 
			 "electric_quadrupole_moment_norm": 22.8089935227, 
			 "total_energy": -939.177068245, 
			 "HOMO_LUMO_gap": 0.20364, 
			 "cosmo_polarized_energy": -11.47, 
			 "cosmo_cavitation_energy": 27.54, 
			 "cosmo_dispersion_energy": -19.9, 
			 "cosmo_repulsion_energy": 1.6, 
			 "cosmo_total_nonelectrostatic_energy": 9.24, 
			 "SMD_solvation_energy": 5.42 
		},
		"coords": [
			{
				"x": 0.1474988867,
				"y": -1.4648522485,
				"z": 1.8087369204,
				"element": "C" 
			},
			{
				"x": 0.1002514225,
				"y": -1.9453560871,
				"z": 0.3704307245,
				"element": "C" 
			},
			{
				"x": -0.0214214639,
				"y": -3.1275794935,
				"z": 0.0858455131,
				"element": "O" 
			},
			{
				"x": 0.2229368964,
				"y": -1.0108539625,
				"z": -0.6475064439,
				"element": "N" 
			},
			{
				"x": 0.3464610168,
				"y": 0.3970730726,
				"z": -0.6146477635,
				"element": "C" 
			},
			{
				"x": -0.4732193804,
				"y": 1.1818478134,
				"z": 0.2065502293,
				"element": "C" 
			},
			{
				"x": -0.3488311038,
				"y": 2.5694296996,
				"z": 0.2302293214,
				"element": "C" 
			},
			{
				"x": 0.5840443328,
				"y": 3.1752885063,
				"z": -0.6062830916,
				"element": "C" 
			},
			{
				"x": 0.7499186625,
				"y": 4.9252563822,
				"z": -0.6037710932,
				"element": "Cl" 
			},
			{
				"x": 1.3864203156,
				"y": 2.4124235027,
				"z": -1.4531163811,
				"element": "C" 
			},
			{
				"x": 1.2868797295,
				"y": 1.0185044449,
				"z": -1.4669919495,
				"element": "C" 
			},
			{
				"x": 2.171365343,
				"y": 0.1985896384,
				"z": -2.3743218485,
				"element": "C" 
			},
			{
				"x": 0.546804917,
				"y": -2.2832951983,
				"z": 2.4091363229,
				"element": "H" 
			},
			{
				"x": -0.8649520872,
				"y": -1.2530620152,
				"z": 2.1685699432,
				"element": "H" 
			},
			{
				"x": 0.7530764742,
				"y": -0.5666263553,
				"z": 1.9447689935,
				"element": "H" 
			},
			{
				"x": 0.287789079,
				"y": -1.4623493586,
				"z": -1.5519126388,
				"element": "H" 
			},
			{
				"x": -1.2302849616,
				"y": 0.7057823679,
				"z": 0.8189392422,
				"element": "H" 
			},
			{
				"x": -0.9829661716,
				"y": 3.1698117573,
				"z": 0.8726011803,
				"element": "H" 
			},
			{
				"x": 2.1054256715,
				"y": 2.9061623825,
				"z": -2.0984487489,
				"element": "H" 
			},
			{
				"x": 2.9270420998,
				"y": 0.8253180468,
				"z": -2.8532589171,
				"element": "H" 
			},
			{
				"x": 1.598381019,
				"y": -0.28700864,
				"z": -3.1755890229,
				"element": "H" 
			},
			{
				"x": 2.6842793023,
				"y": -0.5949042555,
				"z": -1.820360492,
				"element": "H" 
			}
		],
		 "valence_orbital": [ 
			{
				"type": "occ",
				"energy": -0.3164,
				"method": "rhf"
			},
			{
				"type": "occ",
				"energy": -0.28949,
				"method": "rhf"
			},
			{
				"type": "occ",
				"energy": -0.26641,
				"method": "rhf"
			},
			{
				"type": "occ",
				"energy": -0.25606,
				"method": "rhf"
			},
			{
				"type": "occ",
				"energy": -0.22939,
				"method": "rhf"
			},
			{
				"type": "unocc",
				"energy": -0.02575,
				"method": "rhf"
			},
			{
				"type": "unocc",
				"energy": -0.02105,
				"method": "rhf"
			},
			{
				"type": "unocc",
				"energy": 0.02487,
				"method": "rhf"
			},
			{
				"type": "unocc",
				"energy": 0.02697,
				"method": "rhf"
			},
			{
				"type": "unocc",
				"energy": 0.07533,
				"method": "rhf"
			}
		],
		"cosmo_sigma_profile": { 
			"-0.025": 0.0,
			"-0.024": 0.0,
			"-0.023": 0.0,
			"-0.022": 0.0,
			"-0.021": 0.0,
			"-0.02": 0.0,
			"-0.019": 0.0,
			"-0.018": 0.0,
			"-0.017": 0.0,
			"-0.016": 0.0,
			"-0.015": 0.0,
			"-0.014": 0.018687550124,
			"-0.013": 0.819048807009,
			"-0.012": 0.67940994955,
			"-0.011": 1.51138989279,
			"-0.01": 1.36689209497,
			"-0.009": 0.716211016465,
			"-0.008": 3.23984655035,
			"-0.007": 7.87542180397,
			"-0.006": 9.93876147628,
			"-0.005": 14.0343220169,
			"-0.004": 15.074618558,
			"-0.003": 16.566430323,
			"-0.002": 20.2412536944,
			"-0.001": 20.0019855645,
			"0.0": 16.9523436914,
			"0.001": 12.3586790477,
			"0.002": 18.0137766798,
			"0.003": 18.1626933799,
			"0.004": 13.910730652,
			"0.005": 9.60328882898,
			"0.006": 1.20930996068,
			"0.007": 1.27034290705,
			"0.008": 1.23676046904,
			"0.009": 0.973511481685,
			"0.01": 1.61474862808,
			"0.011": 1.57549170409,
			"0.012": 2.32522869516,
			"0.013": 4.78177892859,
			"0.014": 4.23824830912,
			"0.015": 0.577623349486,
			"0.016": 0.0,
			"0.017": 0.0,
			"0.018": 0.0,
			"0.019": 0.0,
			"0.02": 0.0,
			"0.021": 0.0,
			"0.022": 0.0,
			"0.023": 0.0,
			"0.024": 0.0,
			"0.025": 0.0
		}
	}
}
