{
	 "smiles": "SC1=NC(=C(N1CC1=CC=CC=C1)C1=CC=CC=C1)C1=CC=CC=C1", 
	 "Tm": 554.15, 
	 "num_atms": 43, 
	 "gaussian": { 
		 "optdone": 1, 
		 "sigma_profile": "yes", 
		 "theory": "DFT", 
		 "functional": "B3LYP", 
		 "basiset": "6-31G**", 
		 "properties": { 
			 "R2extent": 9247.312, 
			 "electric_dipole_moment_norm": 3.32385029446, 
			 "electric_quadrupole_moment_norm": 6.81576467904, 
			 "total_energy": -1356.88638625, 
			 "HOMO_LUMO_gap": 0.16796, 
			 "cosmo_polarized_energy": -13.16, 
			 "cosmo_cavitation_energy": 47.97, 
			 "cosmo_dispersion_energy": -32.22, 
			 "cosmo_repulsion_energy": 2.43, 
			 "cosmo_total_nonelectrostatic_energy": 18.17, 
			 "SMD_solvation_energy": 5.66 
		},
		"coords": [
			{
				"x": 3.075778647,
				"y": -1.5642653399,
				"z": -2.741513885,
				"element": "S" 
			},
			{
				"x": 2.3375618263,
				"y": -0.5825474836,
				"z": -1.4550385334,
				"element": "C" 
			},
			{
				"x": 2.7324724821,
				"y": 0.6176399693,
				"z": -1.1115324612,
				"element": "N" 
			},
			{
				"x": 1.9055480828,
				"y": 1.0006140038,
				"z": -0.0668743291,
				"element": "C" 
			},
			{
				"x": 0.9899840613,
				"y": -0.0045749078,
				"z": 0.2041436508,
				"element": "C" 
			},
			{
				"x": 1.2904544876,
				"y": -1.0340840893,
				"z": -0.6974470344,
				"element": "N" 
			},
			{
				"x": 0.536858878,
				"y": -2.2764292013,
				"z": -0.8946150564,
				"element": "C" 
			},
			{
				"x": -0.7722360361,
				"y": -2.1039801572,
				"z": -1.6471112544,
				"element": "C" 
			},
			{
				"x": -1.98281008,
				"y": -2.4391362231,
				"z": -1.0314818241,
				"element": "C" 
			},
			{
				"x": -3.1905941907,
				"y": -2.3123500937,
				"z": -1.7210214338,
				"element": "C" 
			},
			{
				"x": -3.1987813825,
				"y": -1.8422120732,
				"z": -3.0340421184,
				"element": "C" 
			},
			{
				"x": -1.9942281256,
				"y": -1.5008520598,
				"z": -3.6547368892,
				"element": "C" 
			},
			{
				"x": -0.7885487935,
				"y": -1.6333489864,
				"z": -2.9674231578,
				"element": "C" 
			},
			{
				"x": -0.1195424085,
				"y": -0.1119102071,
				"z": 1.1740078643,
				"element": "C" 
			},
			{
				"x": -1.2267848296,
				"y": 0.7482512224,
				"z": 1.0850885133,
				"element": "C" 
			},
			{
				"x": -2.2758241969,
				"y": 0.6528320994,
				"z": 1.9982996753,
				"element": "C" 
			},
			{
				"x": -2.2429990334,
				"y": -0.3099618645,
				"z": 3.0098786342,
				"element": "C" 
			},
			{
				"x": -1.1481971175,
				"y": -1.1706341735,
				"z": 3.1106225042,
				"element": "C" 
			},
			{
				"x": -0.0918162952,
				"y": -1.068237297,
				"z": 2.2041837562,
				"element": "C" 
			},
			{
				"x": 2.1047780382,
				"y": 2.3106979666,
				"z": 0.576989387,
				"element": "C" 
			},
			{
				"x": 1.6491252116,
				"y": 2.5952841115,
				"z": 1.8761000296,
				"element": "C" 
			},
			{
				"x": 1.8627086874,
				"y": 3.8499391044,
				"z": 2.4454760128,
				"element": "C" 
			},
			{
				"x": 2.541726482,
				"y": 4.8427892908,
				"z": 1.7367126943,
				"element": "C" 
			},
			{
				"x": 3.0120837202,
				"y": 4.5657634331,
				"z": 0.4509963214,
				"element": "C" 
			},
			{
				"x": 2.7983100802,
				"y": 3.314498641,
				"z": -0.1224101394,
				"element": "C" 
			},
			{
				"x": 4.0975039611,
				"y": -0.7033435352,
				"z": -2.897603418,
				"element": "H" 
			},
			{
				"x": 1.2008374554,
				"y": -2.96421357,
				"z": -1.428345227,
				"element": "H" 
			},
			{
				"x": 0.3438242851,
				"y": -2.719722832,
				"z": 0.0843204244,
				"element": "H" 
			},
			{
				"x": -1.9820411795,
				"y": -2.792150368,
				"z": -0.0036534798,
				"element": "H" 
			},
			{
				"x": -4.12254108,
				"y": -2.5757083279,
				"z": -1.2290911303,
				"element": "H" 
			},
			{
				"x": -4.1369782952,
				"y": -1.7409682525,
				"z": -3.5720347841,
				"element": "H" 
			},
			{
				"x": -1.9932902306,
				"y": -1.1350913843,
				"z": -4.6775500671,
				"element": "H" 
			},
			{
				"x": 0.1433665365,
				"y": -1.3692372651,
				"z": -3.4598827732,
				"element": "H" 
			},
			{
				"x": -1.2561346509,
				"y": 1.4890966013,
				"z": 0.2925343239,
				"element": "H" 
			},
			{
				"x": -3.1238830216,
				"y": 1.3264507498,
				"z": 1.9153165725,
				"element": "H" 
			},
			{
				"x": -3.0629904144,
				"y": -0.3856213084,
				"z": 3.7182067038,
				"element": "H" 
			},
			{
				"x": -1.1091298452,
				"y": -1.9133609218,
				"z": 3.902473503,
				"element": "H" 
			},
			{
				"x": 0.7734391897,
				"y": -1.7177789097,
				"z": 2.3054834136,
				"element": "H" 
			},
			{
				"x": 1.1388151368,
				"y": 1.8300699148,
				"z": 2.4497716121,
				"element": "H" 
			},
			{
				"x": 1.504543464,
				"y": 4.0479666419,
				"z": 3.4521247224,
				"element": "H" 
			},
			{
				"x": 2.7080239289,
				"y": 5.81888618,
				"z": 2.1836554647,
				"element": "H" 
			},
			{
				"x": 3.5476719101,
				"y": 5.3280177579,
				"z": -0.108513705,
				"element": "H" 
			},
			{
				"x": 3.1670346544,
				"y": 3.0917231443,
				"z": -1.1176630832,
				"element": "H" 
			}
		],
		 "valence_orbital": [ 
			{
				"type": "occ",
				"energy": -0.25216,
				"method": "rhf"
			},
			{
				"type": "occ",
				"energy": -0.25006,
				"method": "rhf"
			},
			{
				"type": "occ",
				"energy": -0.23858,
				"method": "rhf"
			},
			{
				"type": "occ",
				"energy": -0.2349,
				"method": "rhf"
			},
			{
				"type": "occ",
				"energy": -0.19238,
				"method": "rhf"
			},
			{
				"type": "unocc",
				"energy": -0.02442,
				"method": "rhf"
			},
			{
				"type": "unocc",
				"energy": -0.01447,
				"method": "rhf"
			},
			{
				"type": "unocc",
				"energy": -0.01065,
				"method": "rhf"
			},
			{
				"type": "unocc",
				"energy": -0.00502,
				"method": "rhf"
			},
			{
				"type": "unocc",
				"energy": 7e-05,
				"method": "rhf"
			}
		],
		"cosmo_sigma_profile": { 
			"-0.025": 0.0,
			"-0.024": 0.0,
			"-0.023": 0.0,
			"-0.022": 0.0,
			"-0.021": 0.0,
			"-0.02": 0.0,
			"-0.019": 0.0,
			"-0.018": 0.0,
			"-0.017": 0.0,
			"-0.016": 0.0,
			"-0.015": 0.0,
			"-0.014": 0.0,
			"-0.013": 0.0,
			"-0.012": 0.452917931278,
			"-0.011": 1.64653886878,
			"-0.01": 1.04259223235,
			"-0.009": 1.32212623915,
			"-0.008": 0.880485898904,
			"-0.007": 3.37320505002,
			"-0.006": 20.5646804686,
			"-0.005": 32.4269833435,
			"-0.004": 35.166623702,
			"-0.003": 32.1271275588,
			"-0.002": 27.0269056806,
			"-0.001": 24.7386962857,
			"0.0": 26.1046462834,
			"0.001": 26.770560336,
			"0.002": 29.6733273609,
			"0.003": 32.565420187,
			"0.004": 32.7800197435,
			"0.005": 28.1526009496,
			"0.006": 17.6532179741,
			"0.007": 4.59077253417,
			"0.008": 1.70347429765,
			"0.009": 1.46341446971,
			"0.01": 1.8329924938,
			"0.011": 0.917191148467,
			"0.012": 0.774454959189,
			"0.013": 1.17534683665,
			"0.014": 0.29059690625,
			"0.015": 0.0,
			"0.016": 0.0,
			"0.017": 0.0,
			"0.018": 0.0,
			"0.019": 0.0,
			"0.02": 0.0,
			"0.021": 0.0,
			"0.022": 0.0,
			"0.023": 0.0,
			"0.024": 0.0,
			"0.025": 0.0
		}
	}
}
