{
	 "smiles": "COC1=CC(CN)=CC(OC)=C1O", 
	 "Tm": 423.15, 
	 "num_atms": 26, 
	 "gaussian": { 
		 "optdone": 1, 
		 "sigma_profile": "yes", 
		 "theory": "DFT", 
		 "functional": "B3LYP", 
		 "basiset": "6-31G**", 
		 "properties": { 
			 "R2extent": 3188.2026, 
			 "electric_dipole_moment_norm": 2.89717437169, 
			 "electric_quadrupole_moment_norm": 9.201629591, 
			 "total_energy": -631.177149828, 
			 "HOMO_LUMO_gap": 0.21403, 
			 "cosmo_polarized_energy": -11.49, 
			 "cosmo_cavitation_energy": 29.01, 
			 "cosmo_dispersion_energy": -21.39, 
			 "cosmo_repulsion_energy": 1.74, 
			 "cosmo_total_nonelectrostatic_energy": 9.36, 
			 "SMD_solvation_energy": 5.92 
		},
		"coords": [
			{
				"x": -0.1147511518,
				"y": -2.4202601919,
				"z": -1.2197232876,
				"element": "C" 
			},
			{
				"x": -0.1727333018,
				"y": -1.1272159895,
				"z": -1.8263973193,
				"element": "O" 
			},
			{
				"x": -0.2741322644,
				"y": -0.0546279019,
				"z": -0.9746913573,
				"element": "C" 
			},
			{
				"x": -1.3638648901,
				"y": 0.8115440811,
				"z": -1.1299387388,
				"element": "C" 
			},
			{
				"x": -1.5003982621,
				"y": 1.9542966787,
				"z": -0.3434083229,
				"element": "C" 
			},
			{
				"x": -2.6581045378,
				"y": 2.9092515645,
				"z": -0.5636772756,
				"element": "C" 
			},
			{
				"x": -3.1363363782,
				"y": 3.4838587606,
				"z": 0.6998968196,
				"element": "N" 
			},
			{
				"x": -0.5390622524,
				"y": 2.229239496,
				"z": 0.6420456711,
				"element": "C" 
			},
			{
				"x": 0.5410814049,
				"y": 1.3685385054,
				"z": 0.803471108,
				"element": "C" 
			},
			{
				"x": 1.5578349069,
				"y": 1.5171748828,
				"z": 1.7210931166,
				"element": "O" 
			},
			{
				"x": 1.5365136046,
				"y": 2.6613612987,
				"z": 2.5606605256,
				"element": "C" 
			},
			{
				"x": 0.6971170685,
				"y": 0.2279547001,
				"z": -0.0078805541,
				"element": "C" 
			},
			{
				"x": 1.7859969645,
				"y": -0.5821932288,
				"z": 0.1531622446,
				"element": "O" 
			},
			{
				"x": -0.1149685046,
				"y": -3.138607722,
				"z": -2.0424674908,
				"element": "H" 
			},
			{
				"x": 0.7906775167,
				"y": -2.5474248962,
				"z": -0.6204429692,
				"element": "H" 
			},
			{
				"x": -0.9966347633,
				"y": -2.5961520832,
				"z": -0.5893507382,
				"element": "H" 
			},
			{
				"x": -2.0976014098,
				"y": 0.563519408,
				"z": -1.8911299676,
				"element": "H" 
			},
			{
				"x": -2.3232209568,
				"y": 3.7487387217,
				"z": -1.1893486706,
				"element": "H" 
			},
			{
				"x": -3.4358057194,
				"y": 2.386513815,
				"z": -1.1462564404,
				"element": "H" 
			},
			{
				"x": -3.5597368244,
				"y": 2.7537818913,
				"z": 1.2684014941,
				"element": "H" 
			},
			{
				"x": -3.8631025044,
				"y": 4.1704211331,
				"z": 0.5147246643,
				"element": "H" 
			},
			{
				"x": -0.6693344091,
				"y": 3.1048169408,
				"z": 1.2658912803,
				"element": "H" 
			},
			{
				"x": 0.6426108819,
				"y": 2.6739816393,
				"z": 3.196234637,
				"element": "H" 
			},
			{
				"x": 2.4263709234,
				"y": 2.5955376521,
				"z": 3.1888198274,
				"element": "H" 
			},
			{
				"x": 1.571370547,
				"y": 3.5875027878,
				"z": 1.9739539549,
				"element": "H" 
			},
			{
				"x": 2.3107143121,
				"y": -0.1928519433,
				"z": 0.8700577888,
				"element": "H" 
			}
		],
		 "valence_orbital": [ 
			{
				"type": "occ",
				"energy": -0.2999,
				"method": "rhf"
			},
			{
				"type": "occ",
				"energy": -0.26814,
				"method": "rhf"
			},
			{
				"type": "occ",
				"energy": -0.23707,
				"method": "rhf"
			},
			{
				"type": "occ",
				"energy": -0.2144,
				"method": "rhf"
			},
			{
				"type": "occ",
				"energy": -0.19643,
				"method": "rhf"
			},
			{
				"type": "unocc",
				"energy": 0.0176,
				"method": "rhf"
			},
			{
				"type": "unocc",
				"energy": 0.02158,
				"method": "rhf"
			},
			{
				"type": "unocc",
				"energy": 0.0772,
				"method": "rhf"
			},
			{
				"type": "unocc",
				"energy": 0.09011,
				"method": "rhf"
			},
			{
				"type": "unocc",
				"energy": 0.10469,
				"method": "rhf"
			}
		],
		"cosmo_sigma_profile": { 
			"-0.025": 0.0,
			"-0.024": 0.0,
			"-0.023": 0.0,
			"-0.022": 0.0,
			"-0.021": 0.0,
			"-0.02": 0.0,
			"-0.019": 0.0,
			"-0.018": 0.0,
			"-0.017": 0.0,
			"-0.016": 0.0,
			"-0.015": 0.0,
			"-0.014": 0.281514300865,
			"-0.013": 0.622903405198,
			"-0.012": 0.163345379057,
			"-0.011": 0.646023069742,
			"-0.01": 2.18409268634,
			"-0.009": 3.48931579258,
			"-0.008": 3.40036058947,
			"-0.007": 2.88229395712,
			"-0.006": 7.0804851834,
			"-0.005": 16.5722422183,
			"-0.004": 21.4520908413,
			"-0.003": 25.6694262707,
			"-0.002": 23.942302163,
			"-0.001": 13.8515955802,
			"0.0": 11.8883535683,
			"0.001": 9.6672157419,
			"0.002": 12.5024556321,
			"0.003": 13.6435312833,
			"0.004": 12.9359672559,
			"0.005": 13.4050226097,
			"0.006": 8.79261405523,
			"0.007": 4.11613264094,
			"0.008": 4.05585947509,
			"0.009": 3.63699642769,
			"0.01": 3.46222689467,
			"0.011": 2.8002154952,
			"0.012": 1.75348145256,
			"0.013": 1.09165472857,
			"0.014": 0.737699748308,
			"0.015": 0.407329667319,
			"0.016": 0.441166944896,
			"0.017": 0.350898405108,
			"0.018": 0.0,
			"0.019": 0.0,
			"0.02": 0.0,
			"0.021": 0.0,
			"0.022": 0.0,
			"0.023": 0.0,
			"0.024": 0.0,
			"0.025": 0.0
		}
	}
}
