{
	 "smiles": "COC1=C(C=C(Br)C=C1)C(N)C(O)=O", 
	 "Tm": 437.15, 
	 "num_atms": 24, 
	 "gaussian": { 
		 "optdone": 1, 
		 "sigma_profile": "yes", 
		 "theory": "DFT", 
		 "functional": "B3LYP", 
		 "basiset": "6-31G**", 
		 "properties": { 
			 "R2extent": 6354.8206, 
			 "electric_dipole_moment_norm": 5.92989148383, 
			 "electric_quadrupole_moment_norm": 11.9106350175, 
			 "total_energy": -3200.80843947, 
			 "HOMO_LUMO_gap": 0.20753, 
			 "cosmo_polarized_energy": -16.07, 
			 "cosmo_cavitation_energy": 29.8, 
			 "cosmo_dispersion_energy": -22.06, 
			 "cosmo_repulsion_energy": 1.75, 
			 "cosmo_total_nonelectrostatic_energy": 9.48, 
			 "SMD_solvation_energy": 5.01 
		},
		"coords": [
			{
				"x": 2.6386181612,
				"y": -0.7243023279,
				"z": 0.3365447999,
				"element": "C" 
			},
			{
				"x": 1.3745367104,
				"y": -0.9199439309,
				"z": -0.2965348473,
				"element": "O" 
			},
			{
				"x": 0.8865732323,
				"y": 0.0691988001,
				"z": -1.13489332,
				"element": "C" 
			},
			{
				"x": -0.3042858893,
				"y": -0.2423091214,
				"z": -1.8181124432,
				"element": "C" 
			},
			{
				"x": -0.8413750969,
				"y": 0.7114081242,
				"z": -2.6812734991,
				"element": "C" 
			},
			{
				"x": -0.2161722738,
				"y": 1.9459412055,
				"z": -2.846927001,
				"element": "C" 
			},
			{
				"x": -0.97876026,
				"y": 3.2348202892,
				"z": -4.0351594213,
				"element": "Br" 
			},
			{
				"x": 0.9598074567,
				"y": 2.2498780107,
				"z": -2.1714605493,
				"element": "C" 
			},
			{
				"x": 1.5173853693,
				"y": 1.3007881687,
				"z": -1.3117108005,
				"element": "C" 
			},
			{
				"x": -0.9912242573,
				"y": -1.6069070278,
				"z": -1.6540657537,
				"element": "C" 
			},
			{
				"x": -1.8921511936,
				"y": -1.9001527018,
				"z": -2.7607508444,
				"element": "N" 
			},
			{
				"x": -1.7628584051,
				"y": -1.6727778821,
				"z": -0.3022002807,
				"element": "C" 
			},
			{
				"x": -1.0275199113,
				"y": -1.5868133282,
				"z": 0.815248014,
				"element": "O" 
			},
			{
				"x": -2.9646177921,
				"y": -1.8016235245,
				"z": -0.2592483399,
				"element": "O" 
			},
			{
				"x": 2.6120158494,
				"y": 0.125512379,
				"z": 1.0278718169,
				"element": "H" 
			},
			{
				"x": 2.8395400755,
				"y": -1.6399808711,
				"z": 0.893635922,
				"element": "H" 
			},
			{
				"x": 3.4259496434,
				"y": -0.5685505805,
				"z": -0.4086134013,
				"element": "H" 
			},
			{
				"x": -1.7306359008,
				"y": 0.4530342873,
				"z": -3.2424672927,
				"element": "H" 
			},
			{
				"x": 1.443614407,
				"y": 3.209632148,
				"z": -2.3104202287,
				"element": "H" 
			},
			{
				"x": 2.4363693085,
				"y": 1.5385170121,
				"z": -0.7899247325,
				"element": "H" 
			},
			{
				"x": -0.1956333625,
				"y": -2.3608347338,
				"z": -1.5983636781,
				"element": "H" 
			},
			{
				"x": -1.7653573078,
				"y": -2.8585246676,
				"z": -3.0678584038,
				"element": "H" 
			},
			{
				"x": -2.8451629308,
				"y": -1.8334925982,
				"z": -2.4042102187,
				"element": "H" 
			},
			{
				"x": -0.0842556323,
				"y": -1.4583171288,
				"z": 0.5857945036,
				"element": "H" 
			}
		],
		 "valence_orbital": [ 
			{
				"type": "occ",
				"energy": -0.28642,
				"method": "rhf"
			},
			{
				"type": "occ",
				"energy": -0.28547,
				"method": "rhf"
			},
			{
				"type": "occ",
				"energy": -0.25826,
				"method": "rhf"
			},
			{
				"type": "occ",
				"energy": -0.25014,
				"method": "rhf"
			},
			{
				"type": "occ",
				"energy": -0.23257,
				"method": "rhf"
			},
			{
				"type": "unocc",
				"energy": -0.02504,
				"method": "rhf"
			},
			{
				"type": "unocc",
				"energy": -0.01231,
				"method": "rhf"
			},
			{
				"type": "unocc",
				"energy": 0.00659,
				"method": "rhf"
			},
			{
				"type": "unocc",
				"energy": 0.02067,
				"method": "rhf"
			},
			{
				"type": "unocc",
				"energy": 0.06779,
				"method": "rhf"
			}
		],
		"cosmo_sigma_profile": { 
			"-0.025": 0.0,
			"-0.024": 0.0,
			"-0.023": 0.0,
			"-0.022": 0.0,
			"-0.021": 0.0,
			"-0.02": 0.0,
			"-0.019": 0.0,
			"-0.018": 0.0,
			"-0.017": 0.0,
			"-0.016": 0.0,
			"-0.015": 0.0,
			"-0.014": 0.0,
			"-0.013": 0.0,
			"-0.012": 0.165828267911,
			"-0.011": 1.25916407502,
			"-0.01": 2.06045830523,
			"-0.009": 2.91007041815,
			"-0.008": 6.99010924644,
			"-0.007": 14.134350882,
			"-0.006": 17.4240278032,
			"-0.005": 16.0431883317,
			"-0.004": 16.979064507,
			"-0.003": 14.8499563456,
			"-0.002": 12.1157586709,
			"-0.001": 11.1239321704,
			"0.0": 12.6844014112,
			"0.001": 12.8309339195,
			"0.002": 17.8677558986,
			"0.003": 20.7344811621,
			"0.004": 14.9834467952,
			"0.005": 13.0101549119,
			"0.006": 2.89745899908,
			"0.007": 3.86365698468,
			"0.008": 2.77329569547,
			"0.009": 3.96600769998,
			"0.01": 5.89063084554,
			"0.011": 6.33102707142,
			"0.012": 3.74515940154,
			"0.013": 1.85609090353,
			"0.014": 0.590692105498,
			"0.015": 0.233548232249,
			"0.016": 0.0,
			"0.017": 0.0,
			"0.018": 0.0,
			"0.019": 0.0,
			"0.02": 0.0,
			"0.021": 0.0,
			"0.022": 0.0,
			"0.023": 0.0,
			"0.024": 0.0,
			"0.025": 0.0
		}
	}
}
