{
	 "smiles": "COCCOC1=NC=C(NC(=O)OCC(F)(F)F)C=C1", 
	 "Tm": 360.15, 
	 "num_atms": 33, 
	 "gaussian": { 
		 "optdone": 1, 
		 "sigma_profile": "yes", 
		 "theory": "DFT", 
		 "functional": "B3LYP", 
		 "basiset": "6-31G**", 
		 "properties": { 
			 "R2extent": 12567.7504, 
			 "electric_dipole_moment_norm": 1.57047446971, 
			 "electric_quadrupole_moment_norm": 15.9248620324, 
			 "total_energy": -1136.92520313, 
			 "HOMO_LUMO_gap": 0.1882, 
			 "cosmo_polarized_energy": -14.31, 
			 "cosmo_cavitation_energy": 39.81, 
			 "cosmo_dispersion_energy": -28.37, 
			 "cosmo_repulsion_energy": 2.15, 
			 "cosmo_total_nonelectrostatic_energy": 13.59, 
			 "SMD_solvation_energy": 9.09 
		},
		"coords": [
			{
				"x": -4.7101771553,
				"y": -1.4683016898,
				"z": -5.1240180967,
				"element": "C" 
			},
			{
				"x": -3.7157249623,
				"y": -0.603853682,
				"z": -4.6096627369,
				"element": "O" 
			},
			{
				"x": -3.6505282159,
				"y": -0.5666100714,
				"z": -3.1939476886,
				"element": "C" 
			},
			{
				"x": -2.7918660639,
				"y": -1.711361182,
				"z": -2.6446874416,
				"element": "C" 
			},
			{
				"x": -2.8467607043,
				"y": -1.761698,
				"z": -1.2098243204,
				"element": "O" 
			},
			{
				"x": -2.0127660163,
				"y": -0.958859694,
				"z": -0.5038304133,
				"element": "C" 
			},
			{
				"x": -1.2070543941,
				"y": -0.1132749852,
				"z": -1.1346835504,
				"element": "N" 
			},
			{
				"x": -0.3958757697,
				"y": 0.6516695209,
				"z": -0.3950971342,
				"element": "C" 
			},
			{
				"x": -0.3510527832,
				"y": 0.6146430834,
				"z": 0.9988919154,
				"element": "C" 
			},
			{
				"x": 0.5503131368,
				"y": 1.4764270071,
				"z": 1.6578648496,
				"element": "N" 
			},
			{
				"x": 0.7365841104,
				"y": 1.6152965474,
				"z": 3.000574048,
				"element": "C" 
			},
			{
				"x": 0.1719363219,
				"y": 1.0141988313,
				"z": 3.8923103166,
				"element": "O" 
			},
			{
				"x": 1.6838314213,
				"y": 2.5939369301,
				"z": 3.201112075,
				"element": "O" 
			},
			{
				"x": 2.1001961338,
				"y": 2.7872585312,
				"z": 4.5462693259,
				"element": "C" 
			},
			{
				"x": 3.4720050956,
				"y": 2.1660606359,
				"z": 4.7497251841,
				"element": "C" 
			},
			{
				"x": 3.459921159,
				"y": 0.8473365673,
				"z": 4.482518956,
				"element": "F" 
			},
			{
				"x": 3.8553698248,
				"y": 2.3367078924,
				"z": 6.0322056839,
				"element": "F" 
			},
			{
				"x": 4.4015343554,
				"y": 2.7360234173,
				"z": 3.9592154019,
				"element": "F" 
			},
			{
				"x": -1.2112810285,
				"y": -0.2835170224,
				"z": 1.6579507406,
				"element": "C" 
			},
			{
				"x": -2.0502251981,
				"y": -1.0788464132,
				"z": 0.8962626191,
				"element": "C" 
			},
			{
				"x": -5.7133474639,
				"y": -1.1889493621,
				"z": -4.7661993411,
				"element": "H" 
			},
			{
				"x": -4.6851023436,
				"y": -1.3710462408,
				"z": -6.2122292292,
				"element": "H" 
			},
			{
				"x": -4.5363377999,
				"y": -2.5239201748,
				"z": -4.8673524995,
				"element": "H" 
			},
			{
				"x": -3.1933562487,
				"y": 0.3885051151,
				"z": -2.922619589,
				"element": "H" 
			},
			{
				"x": -4.6546686749,
				"y": -0.6110196619,
				"z": -2.7441992421,
				"element": "H" 
			},
			{
				"x": -3.1802369807,
				"y": -2.6798752464,
				"z": -2.9697037283,
				"element": "H" 
			},
			{
				"x": -1.7599944422,
				"y": -1.6010122744,
				"z": -2.9858476138,
				"element": "H" 
			},
			{
				"x": 0.2522355754,
				"y": 1.3341966568,
				"z": -0.9458571378,
				"element": "H" 
			},
			{
				"x": 1.1307375545,
				"y": 2.0650760531,
				"z": 1.0766949434,
				"element": "H" 
			},
			{
				"x": 2.1693319038,
				"y": 3.8618345678,
				"z": 4.727055275,
				"element": "H" 
			},
			{
				"x": 1.3931626075,
				"y": 2.3261626604,
				"z": 5.2381509591,
				"element": "H" 
			},
			{
				"x": -1.2057654687,
				"y": -0.3443170032,
				"z": 2.7378177618,
				"element": "H" 
			},
			{
				"x": -2.727437486,
				"y": -1.7894713142,
				"z": 1.3559397073,
				"element": "H" 
			}
		],
		 "valence_orbital": [ 
			{
				"type": "occ",
				"energy": -0.30066,
				"method": "rhf"
			},
			{
				"type": "occ",
				"energy": -0.28551,
				"method": "rhf"
			},
			{
				"type": "occ",
				"energy": -0.27341,
				"method": "rhf"
			},
			{
				"type": "occ",
				"energy": -0.25519,
				"method": "rhf"
			},
			{
				"type": "occ",
				"energy": -0.21682,
				"method": "rhf"
			},
			{
				"type": "unocc",
				"energy": -0.02862,
				"method": "rhf"
			},
			{
				"type": "unocc",
				"energy": -0.00972,
				"method": "rhf"
			},
			{
				"type": "unocc",
				"energy": 0.04799,
				"method": "rhf"
			},
			{
				"type": "unocc",
				"energy": 0.07205,
				"method": "rhf"
			},
			{
				"type": "unocc",
				"energy": 0.08433,
				"method": "rhf"
			}
		],
		"cosmo_sigma_profile": { 
			"-0.025": 0.0,
			"-0.024": 0.0,
			"-0.023": 0.0,
			"-0.022": 0.0,
			"-0.021": 0.0,
			"-0.02": 0.0,
			"-0.019": 0.0,
			"-0.018": 0.0,
			"-0.017": 0.0,
			"-0.016": 0.689899508491,
			"-0.015": 1.35307187554,
			"-0.014": 1.60444102815,
			"-0.013": 0.842660900969,
			"-0.012": 0.834430673873,
			"-0.011": 0.773581803473,
			"-0.01": 1.93670835439,
			"-0.009": 4.42843604192,
			"-0.008": 4.39976039958,
			"-0.007": 6.86101462257,
			"-0.006": 10.4404941211,
			"-0.005": 15.1735499238,
			"-0.004": 19.6804388488,
			"-0.003": 24.6073035886,
			"-0.002": 25.5076931579,
			"-0.001": 21.6081524933,
			"0.0": 21.5841674896,
			"0.001": 29.0291590343,
			"0.002": 40.6521825141,
			"0.003": 34.1118136743,
			"0.004": 9.42342049002,
			"0.005": 5.65811614851,
			"0.006": 6.5332582201,
			"0.007": 6.21655393023,
			"0.008": 5.58402681161,
			"0.009": 3.84478030121,
			"0.01": 4.82289931682,
			"0.011": 4.10821755034,
			"0.012": 2.11410529567,
			"0.013": 1.74806581037,
			"0.014": 0.293798598274,
			"0.015": 0.0,
			"0.016": 0.0,
			"0.017": 0.0,
			"0.018": 0.0,
			"0.019": 0.0,
			"0.02": 0.0,
			"0.021": 0.0,
			"0.022": 0.0,
			"0.023": 0.0,
			"0.024": 0.0,
			"0.025": 0.0
		}
	}
}
