{
	 "smiles": "COC(=O)C(=O)CC(=O)C1=C(F)C=CC=C1", 
	 "Tm": 355.15, 
	 "num_atms": 25, 
	 "gaussian": { 
		 "optdone": 1, 
		 "sigma_profile": "yes", 
		 "theory": "DFT", 
		 "functional": "B3LYP", 
		 "basiset": "6-31G**", 
		 "properties": { 
			 "R2extent": 4774.4818, 
			 "electric_dipole_moment_norm": 2.42035389355, 
			 "electric_quadrupole_moment_norm": 19.532707713, 
			 "total_energy": -825.304246324, 
			 "HOMO_LUMO_gap": 0.17101, 
			 "cosmo_polarized_energy": -14.22, 
			 "cosmo_cavitation_energy": 31.5, 
			 "cosmo_dispersion_energy": -22.02, 
			 "cosmo_repulsion_energy": 1.71, 
			 "cosmo_total_nonelectrostatic_energy": 11.19, 
			 "SMD_solvation_energy": 8.67 
		},
		"coords": [
			{
				"x": 3.1922226336,
				"y": -0.5446344393,
				"z": -2.6390794093,
				"element": "C" 
			},
			{
				"x": 2.3197546126,
				"y": 0.3040001268,
				"z": -1.8677230507,
				"element": "O" 
			},
			{
				"x": 1.0239894454,
				"y": 0.2117095919,
				"z": -2.1709539021,
				"element": "C" 
			},
			{
				"x": 0.5463275308,
				"y": -0.5039154774,
				"z": -3.0246250055,
				"element": "O" 
			},
			{
				"x": 0.1715659577,
				"y": 1.1728918457,
				"z": -1.3132855664,
				"element": "C" 
			},
			{
				"x": 0.6680635702,
				"y": 2.1448394157,
				"z": -0.7854083337,
				"element": "O" 
			},
			{
				"x": -1.2987221433,
				"y": 0.8069198524,
				"z": -1.2121872103,
				"element": "C" 
			},
			{
				"x": -1.5483923943,
				"y": -0.0878717105,
				"z": 0.028141781,
				"element": "C" 
			},
			{
				"x": -1.3835820802,
				"y": -1.2890539139,
				"z": -0.0645436289,
				"element": "O" 
			},
			{
				"x": -1.9780082103,
				"y": 0.5775498072,
				"z": 1.2944457917,
				"element": "C" 
			},
			{
				"x": -2.6534300562,
				"y": -0.1418534357,
				"z": 2.2969480856,
				"element": "C" 
			},
			{
				"x": -2.9735583822,
				"y": -1.4288488875,
				"z": 2.1069266341,
				"element": "F" 
			},
			{
				"x": -3.0430801791,
				"y": 0.4486598668,
				"z": 3.4935798672,
				"element": "C" 
			},
			{
				"x": -2.7394224326,
				"y": 1.789780211,
				"z": 3.722813539,
				"element": "C" 
			},
			{
				"x": -2.0588429355,
				"y": 2.531455049,
				"z": 2.7541289787,
				"element": "C" 
			},
			{
				"x": -1.694298559,
				"y": 1.9322100048,
				"z": 1.5514306361,
				"element": "C" 
			},
			{
				"x": 3.142245765,
				"y": -0.2773954636,
				"z": -3.6973629661,
				"element": "H" 
			},
			{
				"x": 4.1919862219,
				"y": -0.3705125169,
				"z": -2.2439754147,
				"element": "H" 
			},
			{
				"x": 2.9042944005,
				"y": -1.5919702596,
				"z": -2.5215509418,
				"element": "H" 
			},
			{
				"x": -1.5790648613,
				"y": 0.2094806327,
				"z": -2.080453699,
				"element": "H" 
			},
			{
				"x": -1.8845577109,
				"y": 1.7260749988,
				"z": -1.1676219101,
				"element": "H" 
			},
			{
				"x": -3.5756642162,
				"y": -0.1525802093,
				"z": 4.222320307,
				"element": "H" 
			},
			{
				"x": -3.0362994068,
				"y": 2.2533715684,
				"z": 4.6588447956,
				"element": "H" 
			},
			{
				"x": -1.8132629361,
				"y": 3.5728816278,
				"z": 2.9346705327,
				"element": "H" 
			},
			{
				"x": -1.1429636336,
				"y": 2.5068117146,
				"z": 0.8146200899,
				"element": "H" 
			}
		],
		 "valence_orbital": [ 
			{
				"type": "occ",
				"energy": -0.31853,
				"method": "rhf"
			},
			{
				"type": "occ",
				"energy": -0.27376,
				"method": "rhf"
			},
			{
				"type": "occ",
				"energy": -0.26542,
				"method": "rhf"
			},
			{
				"type": "occ",
				"energy": -0.25715,
				"method": "rhf"
			},
			{
				"type": "occ",
				"energy": -0.25583,
				"method": "rhf"
			},
			{
				"type": "unocc",
				"energy": -0.08482,
				"method": "rhf"
			},
			{
				"type": "unocc",
				"energy": -0.06252,
				"method": "rhf"
			},
			{
				"type": "unocc",
				"energy": -0.01457,
				"method": "rhf"
			},
			{
				"type": "unocc",
				"energy": 0.01932,
				"method": "rhf"
			},
			{
				"type": "unocc",
				"energy": 0.05016,
				"method": "rhf"
			}
		],
		"cosmo_sigma_profile": { 
			"-0.025": 0.0,
			"-0.024": 0.0,
			"-0.023": 0.0,
			"-0.022": 0.0,
			"-0.021": 0.0,
			"-0.02": 0.0,
			"-0.019": 0.0,
			"-0.018": 0.0,
			"-0.017": 0.0,
			"-0.016": 0.0,
			"-0.015": 0.0,
			"-0.014": 0.0,
			"-0.013": 0.0,
			"-0.012": 0.0,
			"-0.011": 0.0,
			"-0.01": 0.0,
			"-0.009": 0.0718514115019,
			"-0.008": 4.48231589071,
			"-0.007": 15.0991006135,
			"-0.006": 22.68454524,
			"-0.005": 24.650521539,
			"-0.004": 20.4740573782,
			"-0.003": 14.369571319,
			"-0.002": 12.2385698228,
			"-0.001": 13.1402924139,
			"0.0": 14.5647739592,
			"0.001": 16.4805371715,
			"0.002": 16.2811215715,
			"0.003": 15.8175152273,
			"0.004": 10.5484511832,
			"0.005": 6.85462968216,
			"0.006": 5.68724911659,
			"0.007": 6.35222678148,
			"0.008": 6.87059608543,
			"0.009": 8.83753466917,
			"0.01": 9.46531260898,
			"0.011": 6.84853232248,
			"0.012": 0.869499229476,
			"0.013": 0.0,
			"0.014": 0.0,
			"0.015": 0.0,
			"0.016": 0.0,
			"0.017": 0.0,
			"0.018": 0.0,
			"0.019": 0.0,
			"0.02": 0.0,
			"0.021": 0.0,
			"0.022": 0.0,
			"0.023": 0.0,
			"0.024": 0.0,
			"0.025": 0.0
		}
	}
}
