{
	 "smiles": "CC(=O)N1CCC(C1)C(O)=O", 
	 "Tm": 419.15, 
	 "num_atms": 22, 
	 "gaussian": { 
		 "optdone": 1, 
		 "sigma_profile": "yes", 
		 "theory": "DFT", 
		 "functional": "B3LYP", 
		 "basiset": "6-31G**", 
		 "properties": { 
			 "R2extent": 3364.2748, 
			 "electric_dipole_moment_norm": 4.605125311, 
			 "electric_quadrupole_moment_norm": 13.2630618829, 
			 "total_energy": -553.827795957, 
			 "HOMO_LUMO_gap": 0.22627, 
			 "cosmo_polarized_energy": -16.75, 
			 "cosmo_cavitation_energy": 24.95, 
			 "cosmo_dispersion_energy": -18.04, 
			 "cosmo_repulsion_energy": 1.47, 
			 "cosmo_total_nonelectrostatic_energy": 8.38, 
			 "SMD_solvation_energy": 5.3 
		},
		"coords": [
			{
				"x": -0.3049411629,
				"y": -1.3903518588,
				"z": -0.1547236408,
				"element": "C" 
			},
			{
				"x": 1.1552159208,
				"y": -0.9694592666,
				"z": -0.0659829799,
				"element": "C" 
			},
			{
				"x": 2.0186960049,
				"y": -1.696236277,
				"z": 0.416016738,
				"element": "O" 
			},
			{
				"x": 1.4646429514,
				"y": 0.2689869736,
				"z": -0.5602992002,
				"element": "N" 
			},
			{
				"x": 2.8426663174,
				"y": 0.7785607021,
				"z": -0.480619175,
				"element": "C" 
			},
			{
				"x": 2.7011977131,
				"y": 2.2656914769,
				"z": -0.8385975043,
				"element": "C" 
			},
			{
				"x": 1.4595613665,
				"y": 2.3090627188,
				"z": -1.7451684561,
				"element": "C" 
			},
			{
				"x": 0.5285340006,
				"y": 1.2476322464,
				"z": -1.1166918101,
				"element": "C" 
			},
			{
				"x": 1.8089990471,
				"y": 1.9851456723,
				"z": -3.1922584801,
				"element": "C" 
			},
			{
				"x": 0.6978619354,
				"y": 1.8908677503,
				"z": -3.963323695,
				"element": "O" 
			},
			{
				"x": 2.9247135426,
				"y": 1.845038347,
				"z": -3.6408576929,
				"element": "O" 
			},
			{
				"x": -0.9686954081,
				"y": -0.6655899277,
				"z": 0.3292330218,
				"element": "H" 
			},
			{
				"x": -0.4067091233,
				"y": -2.3571783865,
				"z": 0.3374816643,
				"element": "H" 
			},
			{
				"x": -0.6268010899,
				"y": -1.4864119047,
				"z": -1.1978325527,
				"element": "H" 
			},
			{
				"x": 3.4834087829,
				"y": 0.2510393986,
				"z": -1.1961050899,
				"element": "H" 
			},
			{
				"x": 3.2520908363,
				"y": 0.6061231832,
				"z": 0.5179986035,
				"element": "H" 
			},
			{
				"x": 3.5878739628,
				"y": 2.6585237933,
				"z": -1.3379759762,
				"element": "H" 
			},
			{
				"x": 2.5119145672,
				"y": 2.8610817242,
				"z": 0.0603693946,
				"element": "H" 
			},
			{
				"x": 0.9681830045,
				"y": 3.2884002364,
				"z": -1.7527314891,
				"element": "H" 
			},
			{
				"x": -0.1451340516,
				"y": 0.8014424746,
				"z": -1.8523342454,
				"element": "H" 
			},
			{
				"x": -0.0884611097,
				"y": 1.7111581213,
				"z": -0.3330578949,
				"element": "H" 
			},
			{
				"x": 1.0073819922,
				"y": 1.6944728022,
				"z": -4.8637395396,
				"element": "H" 
			}
		],
		 "valence_orbital": [ 
			{
				"type": "occ",
				"energy": -0.3388,
				"method": "rhf"
			},
			{
				"type": "occ",
				"energy": -0.33032,
				"method": "rhf"
			},
			{
				"type": "occ",
				"energy": -0.28657,
				"method": "rhf"
			},
			{
				"type": "occ",
				"energy": -0.23777,
				"method": "rhf"
			},
			{
				"type": "occ",
				"energy": -0.2338,
				"method": "rhf"
			},
			{
				"type": "unocc",
				"energy": -0.00753,
				"method": "rhf"
			},
			{
				"type": "unocc",
				"energy": 0.03406,
				"method": "rhf"
			},
			{
				"type": "unocc",
				"energy": 0.06395,
				"method": "rhf"
			},
			{
				"type": "unocc",
				"energy": 0.08142,
				"method": "rhf"
			},
			{
				"type": "unocc",
				"energy": 0.10039,
				"method": "rhf"
			}
		],
		"cosmo_sigma_profile": { 
			"-0.025": 0.0,
			"-0.024": 0.0,
			"-0.023": 0.0,
			"-0.022": 0.0,
			"-0.021": 0.0,
			"-0.02": 0.0,
			"-0.019": 0.130617402292,
			"-0.018": 0.66249783543,
			"-0.017": 1.16597068457,
			"-0.016": 0.637946006444,
			"-0.015": 0.537397285955,
			"-0.014": 1.12650427289,
			"-0.013": 0.477687103317,
			"-0.012": 0.720935362122,
			"-0.011": 0.938183375772,
			"-0.01": 0.832239070108,
			"-0.009": 0.225680566105,
			"-0.008": 0.83715865099,
			"-0.007": 4.69040269993,
			"-0.006": 9.70127715448,
			"-0.005": 18.157043878,
			"-0.004": 19.8500100157,
			"-0.003": 20.1212175644,
			"-0.002": 20.2505325429,
			"-0.001": 17.5440585304,
			"0.0": 11.6214189201,
			"0.001": 6.64864747414,
			"0.002": 4.94075954901,
			"0.003": 4.08174258145,
			"0.004": 4.69178329222,
			"0.005": 4.02377972885,
			"0.006": 4.18123353949,
			"0.007": 4.08432330584,
			"0.008": 3.54871568634,
			"0.009": 4.11509079312,
			"0.01": 3.64654011136,
			"0.011": 5.28888332032,
			"0.012": 4.35891743437,
			"0.013": 1.93695746989,
			"0.014": 5.24653033956,
			"0.015": 3.45132111423,
			"0.016": 0.440929293999,
			"0.017": 0.0,
			"0.018": 0.0,
			"0.019": 0.0,
			"0.02": 0.0,
			"0.021": 0.0,
			"0.022": 0.0,
			"0.023": 0.0,
			"0.024": 0.0,
			"0.025": 0.0
		}
	}
}
