{
	 "smiles": "COC1=C(O)C(Cl)=CC(=C1)C#N", 
	 "Tm": 415.15, 
	 "num_atms": 18, 
	 "gaussian": { 
		 "optdone": 1, 
		 "sigma_profile": "yes", 
		 "theory": "DFT", 
		 "functional": "B3LYP", 
		 "basiset": "6-31G**", 
		 "properties": { 
			 "R2extent": 2872.6165, 
			 "electric_dipole_moment_norm": 3.74489609068, 
			 "electric_quadrupole_moment_norm": 25.1601299001, 
			 "total_energy": -973.821842994, 
			 "HOMO_LUMO_gap": 0.18638, 
			 "cosmo_polarized_energy": -12.86, 
			 "cosmo_cavitation_energy": 25.42, 
			 "cosmo_dispersion_energy": -18.46, 
			 "cosmo_repulsion_energy": 1.48, 
			 "cosmo_total_nonelectrostatic_energy": 8.44, 
			 "SMD_solvation_energy": 6.76 
		},
		"coords": [
			{
				"x": 2.0679412016,
				"y": 1.7918678096,
				"z": 0.3476192558,
				"element": "C" 
			},
			{
				"x": 1.017555855,
				"y": 0.9802263091,
				"z": 0.857373963,
				"element": "O" 
			},
			{
				"x": 0.388458209,
				"y": 0.1386888206,
				"z": 0.0020621285,
				"element": "C" 
			},
			{
				"x": -0.6476880222,
				"y": -0.637440512,
				"z": 0.585002721,
				"element": "C" 
			},
			{
				"x": -0.8940655723,
				"y": -0.4624619196,
				"z": 1.897990434,
				"element": "O" 
			},
			{
				"x": -1.3482350851,
				"y": -1.5324286228,
				"z": -0.2301706248,
				"element": "C" 
			},
			{
				"x": -2.6290545676,
				"y": -2.4856454314,
				"z": 0.5109252749,
				"element": "Cl" 
			},
			{
				"x": -1.0656350996,
				"y": -1.6867418229,
				"z": -1.5845947249,
				"element": "C" 
			},
			{
				"x": -0.0430080095,
				"y": -0.9158307975,
				"z": -2.1437011422,
				"element": "C" 
			},
			{
				"x": 0.6826605385,
				"y": -0.0041361902,
				"z": -1.3495440302,
				"element": "C" 
			},
			{
				"x": 0.2733042183,
				"y": -1.0500455922,
				"z": -3.5338755165,
				"element": "C" 
			},
			{
				"x": 0.5351547756,
				"y": -1.154462699,
				"z": -4.6628744537,
				"element": "N" 
			},
			{
				"x": 2.4248516094,
				"y": 2.379802816,
				"z": 1.19344814,
				"element": "H" 
			},
			{
				"x": 2.8916510508,
				"y": 1.1829499512,
				"z": -0.0453582934,
				"element": "H" 
			},
			{
				"x": 1.7084083233,
				"y": 2.467201464,
				"z": -0.43874567,
				"element": "H" 
			},
			{
				"x": -1.6197931192,
				"y": -1.0511287354,
				"z": 2.1591380108,
				"element": "H" 
			},
			{
				"x": -1.6282061804,
				"y": -2.3893057507,
				"z": -2.1864905107,
				"element": "H" 
			},
			{
				"x": 1.4692998746,
				"y": 0.5801909032,
				"z": -1.8081049615,
				"element": "H" 
			}
		],
		 "valence_orbital": [ 
			{
				"type": "occ",
				"energy": -0.34764,
				"method": "rhf"
			},
			{
				"type": "occ",
				"energy": -0.33131,
				"method": "rhf"
			},
			{
				"type": "occ",
				"energy": -0.31655,
				"method": "rhf"
			},
			{
				"type": "occ",
				"energy": -0.2611,
				"method": "rhf"
			},
			{
				"type": "occ",
				"energy": -0.2344,
				"method": "rhf"
			},
			{
				"type": "unocc",
				"energy": -0.04802,
				"method": "rhf"
			},
			{
				"type": "unocc",
				"energy": -0.02356,
				"method": "rhf"
			},
			{
				"type": "unocc",
				"energy": 0.00119,
				"method": "rhf"
			},
			{
				"type": "unocc",
				"energy": 0.03593,
				"method": "rhf"
			},
			{
				"type": "unocc",
				"energy": 0.06775,
				"method": "rhf"
			}
		],
		"cosmo_sigma_profile": { 
			"-0.025": 0.0,
			"-0.024": 0.0,
			"-0.023": 0.0,
			"-0.022": 0.0,
			"-0.021": 0.0,
			"-0.02": 0.0,
			"-0.019": 0.0,
			"-0.018": 0.0,
			"-0.017": 0.0,
			"-0.016": 0.382180877409,
			"-0.015": 0.679413754304,
			"-0.014": 1.36226761329,
			"-0.013": 0.0621984399536,
			"-0.012": 0.905305195445,
			"-0.011": 0.821778639306,
			"-0.01": 1.03768511262,
			"-0.009": 2.9678749876,
			"-0.008": 6.22303338336,
			"-0.007": 7.735172398,
			"-0.006": 11.8274466599,
			"-0.005": 10.8595232538,
			"-0.004": 13.2082347141,
			"-0.003": 12.7800030157,
			"-0.002": 11.6949153398,
			"-0.001": 18.4142325396,
			"0.0": 20.4034668783,
			"0.001": 17.9183545413,
			"0.002": 10.4784308054,
			"0.003": 10.2663887366,
			"0.004": 6.72768222607,
			"0.005": 4.22146188823,
			"0.006": 4.69067845673,
			"0.007": 4.37884558538,
			"0.008": 5.22513833629,
			"0.009": 5.47783235351,
			"0.01": 4.90234461071,
			"0.011": 4.93217495798,
			"0.012": 4.2764492276,
			"0.013": 2.17426185366,
			"0.014": 0.0699122791484,
			"0.015": 0.0,
			"0.016": 0.0,
			"0.017": 0.0,
			"0.018": 0.0,
			"0.019": 0.0,
			"0.02": 0.0,
			"0.021": 0.0,
			"0.022": 0.0,
			"0.023": 0.0,
			"0.024": 0.0,
			"0.025": 0.0
		}
	}
}
