{
	 "smiles": "CC1=C(C=CC(Br)=C1)C(=O)N1CCCC(C1)C(O)=O", 
	 "Tm": 397.15, 
	 "num_atms": 35, 
	 "gaussian": { 
		 "optdone": 1, 
		 "sigma_profile": "yes", 
		 "theory": "DFT", 
		 "functional": "B3LYP", 
		 "basiset": "6-31G**", 
		 "properties": { 
			 "R2extent": 10212.8487, 
			 "electric_dipole_moment_norm": 4.15889437471, 
			 "electric_quadrupole_moment_norm": 7.65663882784, 
			 "total_energy": -3394.9953706, 
			 "HOMO_LUMO_gap": 0.20532, 
			 "cosmo_polarized_energy": -15.57, 
			 "cosmo_cavitation_energy": 39.41, 
			 "cosmo_dispersion_energy": -27.74, 
			 "cosmo_repulsion_energy": 2.14, 
			 "cosmo_total_nonelectrostatic_energy": 13.81, 
			 "SMD_solvation_energy": 6.09 
		},
		"coords": [
			{
				"x": 0.9408484587,
				"y": 1.6562285034,
				"z": 2.5106523741,
				"element": "C" 
			},
			{
				"x": 1.0887981774,
				"y": 0.1530804007,
				"z": 2.4808213685,
				"element": "C" 
			},
			{
				"x": 0.0680679766,
				"y": -0.6841574411,
				"z": 1.9825964311,
				"element": "C" 
			},
			{
				"x": 0.2333438093,
				"y": -2.0742993659,
				"z": 2.0064555574,
				"element": "C" 
			},
			{
				"x": 1.3990767529,
				"y": -2.6593550229,
				"z": 2.4999786747,
				"element": "C" 
			},
			{
				"x": 2.4091440095,
				"y": -1.8249323813,
				"z": 2.9671981653,
				"element": "C" 
			},
			{
				"x": 4.0279803333,
				"y": -2.5903791295,
				"z": 3.6372495293,
				"element": "Br" 
			},
			{
				"x": 2.2629594002,
				"y": -0.4389880388,
				"z": 2.9594000863,
				"element": "C" 
			},
			{
				"x": -1.2583595529,
				"y": -0.0991526953,
				"z": 1.5577439945,
				"element": "C" 
			},
			{
				"x": -1.9110338904,
				"y": 0.5753430229,
				"z": 2.354482419,
				"element": "O" 
			},
			{
				"x": -1.7185257923,
				"y": -0.4008360365,
				"z": 0.2972054497,
				"element": "N" 
			},
			{
				"x": -0.8939250664,
				"y": -0.8699382815,
				"z": -0.8190140185,
				"element": "C" 
			},
			{
				"x": -0.5502615188,
				"y": 0.300511306,
				"z": -1.7776440269,
				"element": "C" 
			},
			{
				"x": -1.5820592844,
				"y": 1.4404696192,
				"z": -1.6651368976,
				"element": "C" 
			},
			{
				"x": -3.0084336598,
				"y": 0.8959341344,
				"z": -1.4137194044,
				"element": "C" 
			},
			{
				"x": -3.0481766953,
				"y": 0.0831146431,
				"z": -0.0952876607,
				"element": "C" 
			},
			{
				"x": -3.4872228701,
				"y": 0.0874448413,
				"z": -2.610592117,
				"element": "C" 
			},
			{
				"x": -3.7252949715,
				"y": 0.8861807986,
				"z": -3.6786591977,
				"element": "O" 
			},
			{
				"x": -3.6399982014,
				"y": -1.1152761209,
				"z": -2.6580547108,
				"element": "O" 
			},
			{
				"x": 1.843260161,
				"y": 2.1296155657,
				"z": 2.9052003634,
				"element": "H" 
			},
			{
				"x": 0.7591872224,
				"y": 2.061239852,
				"z": 1.508283244,
				"element": "H" 
			},
			{
				"x": 0.0856174335,
				"y": 1.9433076497,
				"z": 3.1271794502,
				"element": "H" 
			},
			{
				"x": -0.5675333805,
				"y": -2.712053765,
				"z": 1.6431327686,
				"element": "H" 
			},
			{
				"x": 1.5164322814,
				"y": -3.7364973771,
				"z": 2.5209141517,
				"element": "H" 
			},
			{
				"x": 3.0654049017,
				"y": 0.1867518754,
				"z": 3.3349209235,
				"element": "H" 
			},
			{
				"x": -1.4676735572,
				"y": -1.6346595284,
				"z": -1.3515817679,
				"element": "H" 
			},
			{
				"x": 0.0118634341,
				"y": -1.3370924789,
				"z": -0.4378372624,
				"element": "H" 
			},
			{
				"x": -0.5109264688,
				"y": -0.0821698799,
				"z": -2.8041381313,
				"element": "H" 
			},
			{
				"x": 0.445994501,
				"y": 0.6962574892,
				"z": -1.5525504991,
				"element": "H" 
			},
			{
				"x": -1.3305008098,
				"y": 2.0845614393,
				"z": -0.8158207017,
				"element": "H" 
			},
			{
				"x": -1.5679820149,
				"y": 2.069114219,
				"z": -2.5594295553,
				"element": "H" 
			},
			{
				"x": -3.6909243897,
				"y": 1.7492569616,
				"z": -1.3335659267,
				"element": "H" 
			},
			{
				"x": -3.404280803,
				"y": 0.7071212069,
				"z": 0.7238949191,
				"element": "H" 
			},
			{
				"x": -3.7228318104,
				"y": -0.7723668488,
				"z": -0.2088900413,
				"element": "H" 
			},
			{
				"x": -4.0081341151,
				"y": 0.2993208633,
				"z": -4.4002879512,
				"element": "H" 
			}
		],
		 "valence_orbital": [ 
			{
				"type": "occ",
				"energy": -0.2859,
				"method": "rhf"
			},
			{
				"type": "occ",
				"energy": -0.2588,
				"method": "rhf"
			},
			{
				"type": "occ",
				"energy": -0.25672,
				"method": "rhf"
			},
			{
				"type": "occ",
				"energy": -0.23971,
				"method": "rhf"
			},
			{
				"type": "occ",
				"energy": -0.23522,
				"method": "rhf"
			},
			{
				"type": "unocc",
				"energy": -0.0299,
				"method": "rhf"
			},
			{
				"type": "unocc",
				"energy": -0.01371,
				"method": "rhf"
			},
			{
				"type": "unocc",
				"energy": -0.00588,
				"method": "rhf"
			},
			{
				"type": "unocc",
				"energy": 0.00698,
				"method": "rhf"
			},
			{
				"type": "unocc",
				"energy": 0.03372,
				"method": "rhf"
			}
		],
		"cosmo_sigma_profile": { 
			"-0.025": 0.0,
			"-0.024": 0.0,
			"-0.023": 0.0,
			"-0.022": 0.0,
			"-0.021": 0.0,
			"-0.02": 0.0,
			"-0.019": 0.0341410247989,
			"-0.018": 0.758887747908,
			"-0.017": 1.04442658742,
			"-0.016": 0.611525570481,
			"-0.015": 0.817260415734,
			"-0.014": 0.920907099867,
			"-0.013": 0.677226717591,
			"-0.012": 0.537089492557,
			"-0.011": 0.891056559593,
			"-0.01": 0.578599297302,
			"-0.009": 0.486640273424,
			"-0.008": 0.46917886294,
			"-0.007": 5.81560469699,
			"-0.006": 10.6014283956,
			"-0.005": 13.5088669964,
			"-0.004": 29.6109862419,
			"-0.003": 38.2046024277,
			"-0.002": 31.9516180723,
			"-0.001": 27.5517348564,
			"0.0": 23.3973488143,
			"0.001": 18.4563739274,
			"0.002": 21.9628996851,
			"0.003": 21.8736809866,
			"0.004": 16.9130620609,
			"0.005": 10.5750268454,
			"0.006": 3.9421269817,
			"0.007": 4.7517958206,
			"0.008": 3.46285461723,
			"0.009": 3.98477184638,
			"0.01": 4.06605705803,
			"0.011": 4.94873512374,
			"0.012": 4.30208424333,
			"0.013": 3.53529600706,
			"0.014": 2.61697180832,
			"0.015": 0.139547302965,
			"0.016": 0.0,
			"0.017": 0.0,
			"0.018": 0.0,
			"0.019": 0.0,
			"0.02": 0.0,
			"0.021": 0.0,
			"0.022": 0.0,
			"0.023": 0.0,
			"0.024": 0.0,
			"0.025": 0.0
		}
	}
}
