{
	 "smiles": "CCN(CC)S(=O)(=O)C1=CC(C(O)=O)=C(OC)C=C1", 
	 "Tm": 393.15, 
	 "num_atms": 36, 
	 "gaussian": { 
		 "optdone": 1, 
		 "sigma_profile": "yes", 
		 "theory": "DFT", 
		 "functional": "B3LYP", 
		 "basiset": "6-31G**", 
		 "properties": { 
			 "R2extent": 6710.9197, 
			 "electric_dipole_moment_norm": 4.76900353638, 
			 "electric_quadrupole_moment_norm": 12.2474387845, 
			 "total_energy": -1296.51091048, 
			 "HOMO_LUMO_gap": 0.18107, 
			 "cosmo_polarized_energy": -18.05, 
			 "cosmo_cavitation_energy": 40.06, 
			 "cosmo_dispersion_energy": -28.03, 
			 "cosmo_repulsion_energy": 2.15, 
			 "cosmo_total_nonelectrostatic_energy": 14.18, 
			 "SMD_solvation_energy": 7.87 
		},
		"coords": [
			{
				"x": 2.0417731059,
				"y": 0.9081547438,
				"z": 3.2900444986,
				"element": "C" 
			},
			{
				"x": 1.1614660716,
				"y": 0.06056703,
				"z": 2.3658649242,
				"element": "C" 
			},
			{
				"x": -0.2871245104,
				"y": 0.3430249454,
				"z": 2.4156653238,
				"element": "N" 
			},
			{
				"x": -0.9864720272,
				"y": 0.1398812543,
				"z": 3.7007645104,
				"element": "C" 
			},
			{
				"x": -1.0629532743,
				"y": -1.3405617363,
				"z": 4.0763241449,
				"element": "C" 
			},
			{
				"x": -0.8165777129,
				"y": 1.6116344208,
				"z": 1.4316567696,
				"element": "S" 
			},
			{
				"x": -2.2186624499,
				"y": 1.860091276,
				"z": 1.7849065705,
				"element": "O" 
			},
			{
				"x": 0.1533682304,
				"y": 2.7161863263,
				"z": 1.4092884382,
				"element": "O" 
			},
			{
				"x": -0.7736099716,
				"y": 0.8544079364,
				"z": -0.198064805,
				"element": "C" 
			},
			{
				"x": 0.1101117262,
				"y": 1.3370000234,
				"z": -1.1548192557,
				"element": "C" 
			},
			{
				"x": 0.14132895,
				"y": 0.7738430943,
				"z": -2.4420811546,
				"element": "C" 
			},
			{
				"x": 1.1081727541,
				"y": 1.297982169,
				"z": -3.4475921443,
				"element": "C" 
			},
			{
				"x": 1.5882521907,
				"y": 2.5186532229,
				"z": -3.101547723,
				"element": "O" 
			},
			{
				"x": 1.4684887639,
				"y": 0.7354302776,
				"z": -4.4618845553,
				"element": "O" 
			},
			{
				"x": -0.7626623759,
				"y": -0.2666516166,
				"z": -2.75417486,
				"element": "C" 
			},
			{
				"x": -0.8647915053,
				"y": -0.8005214216,
				"z": -4.0039471877,
				"element": "O" 
			},
			{
				"x": 0.0005139829,
				"y": -1.9063594272,
				"z": -4.2969689599,
				"element": "C" 
			},
			{
				"x": -1.6650569711,
				"y": -0.7189793566,
				"z": -1.7791521344,
				"element": "C" 
			},
			{
				"x": -1.6761540017,
				"y": -0.1694758434,
				"z": -0.5049105162,
				"element": "C" 
			},
			{
				"x": 1.7924151365,
				"y": 0.7531758868,
				"z": 4.3442718904,
				"element": "H" 
			},
			{
				"x": 1.9353135005,
				"y": 1.9695138724,
				"z": 3.0569853947,
				"element": "H" 
			},
			{
				"x": 3.0911025746,
				"y": 0.6241293129,
				"z": 3.156878592,
				"element": "H" 
			},
			{
				"x": 1.4843674913,
				"y": 0.1826812163,
				"z": 1.327515272,
				"element": "H" 
			},
			{
				"x": 1.2824962859,
				"y": -1.0037407935,
				"z": 2.5947733185,
				"element": "H" 
			},
			{
				"x": -1.991865018,
				"y": 0.5449160233,
				"z": 3.5835359594,
				"element": "H" 
			},
			{
				"x": -0.5003541815,
				"y": 0.7103241938,
				"z": 4.5038395865,
				"element": "H" 
			},
			{
				"x": -1.5545075936,
				"y": -1.9168145067,
				"z": 3.2868763549,
				"element": "H" 
			},
			{
				"x": -0.0760392308,
				"y": -1.7782618619,
				"z": 4.2559382208,
				"element": "H" 
			},
			{
				"x": -1.642732869,
				"y": -1.4533905721,
				"z": 4.9980743646,
				"element": "H" 
			},
			{
				"x": 0.7743424705,
				"y": 2.1548298562,
				"z": -0.9042944157,
				"element": "H" 
			},
			{
				"x": 2.2219640148,
				"y": 2.7595539156,
				"z": -3.797189964,
				"element": "H" 
			},
			{
				"x": -0.1695202648,
				"y": -2.7296765749,
				"z": -3.5914662766,
				"element": "H" 
			},
			{
				"x": 1.0469461886,
				"y": -1.5937679503,
				"z": -4.2775018348,
				"element": "H" 
			},
			{
				"x": -0.2629020335,
				"y": -2.2319786695,
				"z": -5.3042697428,
				"element": "H" 
			},
			{
				"x": -2.3664061959,
				"y": -1.4979714038,
				"z": -2.0591533852,
				"element": "H" 
			},
			{
				"x": -2.3800312512,
				"y": -0.5182292631,
				"z": 0.2432147815,
				"element": "H" 
			}
		],
		 "valence_orbital": [ 
			{
				"type": "occ",
				"energy": -0.28837,
				"method": "rhf"
			},
			{
				"type": "occ",
				"energy": -0.28208,
				"method": "rhf"
			},
			{
				"type": "occ",
				"energy": -0.27584,
				"method": "rhf"
			},
			{
				"type": "occ",
				"energy": -0.27062,
				"method": "rhf"
			},
			{
				"type": "occ",
				"energy": -0.24434,
				"method": "rhf"
			},
			{
				"type": "unocc",
				"energy": -0.06327,
				"method": "rhf"
			},
			{
				"type": "unocc",
				"energy": -0.03571,
				"method": "rhf"
			},
			{
				"type": "unocc",
				"energy": 0.02973,
				"method": "rhf"
			},
			{
				"type": "unocc",
				"energy": 0.05747,
				"method": "rhf"
			},
			{
				"type": "unocc",
				"energy": 0.07428,
				"method": "rhf"
			}
		],
		"cosmo_sigma_profile": { 
			"-0.025": 0.0,
			"-0.024": 0.0,
			"-0.023": 0.0,
			"-0.022": 0.0,
			"-0.021": 0.0,
			"-0.02": 0.0,
			"-0.019": 0.0733040479421,
			"-0.018": 0.98490096953,
			"-0.017": 0.824698504957,
			"-0.016": 1.09181664574,
			"-0.015": 0.227778254899,
			"-0.014": 1.29502856739,
			"-0.013": 0.677051464697,
			"-0.012": 0.283257605524,
			"-0.011": 0.887302192827,
			"-0.01": 0.591562509952,
			"-0.009": 0.581510474243,
			"-0.008": 2.84866033711,
			"-0.007": 5.04288097512,
			"-0.006": 6.7227410126,
			"-0.005": 13.7608846006,
			"-0.004": 30.1446918108,
			"-0.003": 40.9857967732,
			"-0.002": 35.5965547176,
			"-0.001": 29.4133971479,
			"0.0": 32.9581557429,
			"0.001": 24.1230121603,
			"0.002": 12.8095446702,
			"0.003": 7.71466054221,
			"0.004": 7.13882609592,
			"0.005": 8.07941895902,
			"0.006": 6.08020041685,
			"0.007": 6.26286615146,
			"0.008": 6.66403231929,
			"0.009": 5.57402896343,
			"0.01": 10.9629638352,
			"0.011": 12.0080659196,
			"0.012": 4.11740451498,
			"0.013": 0.0,
			"0.014": 0.0,
			"0.015": 0.0,
			"0.016": 0.0,
			"0.017": 0.0,
			"0.018": 0.0,
			"0.019": 0.0,
			"0.02": 0.0,
			"0.021": 0.0,
			"0.022": 0.0,
			"0.023": 0.0,
			"0.024": 0.0,
			"0.025": 0.0
		}
	}
}
