{
	 "smiles": "NC1=NC2=C(C=CC=C2Br)C=C1", 
	 "Tm": 426.15, 
	 "num_atms": 19, 
	 "gaussian": { 
		 "optdone": 1, 
		 "sigma_profile": "yes", 
		 "theory": "DFT", 
		 "functional": "B3LYP", 
		 "basiset": "6-31G**", 
		 "properties": { 
			 "R2extent": 3085.0724, 
			 "electric_dipole_moment_norm": 3.70590638036, 
			 "electric_quadrupole_moment_norm": 15.9263245085, 
			 "total_energy": -3028.10159593, 
			 "HOMO_LUMO_gap": 0.16208, 
			 "cosmo_polarized_energy": -12.49, 
			 "cosmo_cavitation_energy": 25.31, 
			 "cosmo_dispersion_energy": -19.41, 
			 "cosmo_repulsion_energy": 1.54, 
			 "cosmo_total_nonelectrostatic_energy": 7.44, 
			 "SMD_solvation_energy": 1.88 
		},
		"coords": [
			{
				"x": -1.4889503725,
				"y": -3.0955267066,
				"z": 2.5214190441,
				"element": "N" 
			},
			{
				"x": -0.6860551422,
				"y": -2.4330547991,
				"z": 1.6192772388,
				"element": "C" 
			},
			{
				"x": -0.7921115364,
				"y": -1.1166793551,
				"z": 1.5719349252,
				"element": "N" 
			},
			{
				"x": -0.0579910435,
				"y": -0.4343070327,
				"z": 0.6566891229,
				"element": "C" 
			},
			{
				"x": 0.8398025522,
				"y": -1.0823054139,
				"z": -0.2532756146,
				"element": "C" 
			},
			{
				"x": 1.5894593391,
				"y": -0.3276325399,
				"z": -1.1858215839,
				"element": "C" 
			},
			{
				"x": 1.4649051424,
				"y": 1.0440736537,
				"z": -1.2311447152,
				"element": "C" 
			},
			{
				"x": 0.5868102905,
				"y": 1.703755764,
				"z": -0.3435315173,
				"element": "C" 
			},
			{
				"x": -0.1521095614,
				"y": 0.9853989195,
				"z": 0.5727418521,
				"element": "C" 
			},
			{
				"x": -1.3234353889,
				"y": 1.9209822828,
				"z": 1.7513092561,
				"element": "Br" 
			},
			{
				"x": 0.9287659492,
				"y": -2.5004857493,
				"z": -0.1605493556,
				"element": "C" 
			},
			{
				"x": 0.1791991585,
				"y": -3.1811768169,
				"z": 0.7567136273,
				"element": "C" 
			},
			{
				"x": -1.9183380993,
				"y": -2.5015184416,
				"z": 3.2166722067,
				"element": "H" 
			},
			{
				"x": -1.1931364333,
				"y": -4.0040176988,
				"z": 2.8436803416,
				"element": "H" 
			},
			{
				"x": 2.2620298592,
				"y": -0.8469874371,
				"z": -1.8635815509,
				"element": "H" 
			},
			{
				"x": 2.0370569689,
				"y": 1.6283418224,
				"z": -1.9449664655,
				"element": "H" 
			},
			{
				"x": 0.4888556776,
				"y": 2.7829838955,
				"z": -0.3787789451,
				"element": "H" 
			},
			{
				"x": 1.5981647727,
				"y": -3.0324215193,
				"z": -0.8318523182,
				"element": "H" 
			},
			{
				"x": 0.2240778672,
				"y": -4.2634228275,
				"z": 0.8342644516,
				"element": "H" 
			}
		],
		 "valence_orbital": [ 
			{
				"type": "occ",
				"energy": -0.2781,
				"method": "rhf"
			},
			{
				"type": "occ",
				"energy": -0.27492,
				"method": "rhf"
			},
			{
				"type": "occ",
				"energy": -0.25188,
				"method": "rhf"
			},
			{
				"type": "occ",
				"energy": -0.23178,
				"method": "rhf"
			},
			{
				"type": "occ",
				"energy": -0.21042,
				"method": "rhf"
			},
			{
				"type": "unocc",
				"energy": -0.04834,
				"method": "rhf"
			},
			{
				"type": "unocc",
				"energy": -0.00891,
				"method": "rhf"
			},
			{
				"type": "unocc",
				"energy": 0.02275,
				"method": "rhf"
			},
			{
				"type": "unocc",
				"energy": 0.02402,
				"method": "rhf"
			},
			{
				"type": "unocc",
				"energy": 0.07748,
				"method": "rhf"
			}
		],
		"cosmo_sigma_profile": { 
			"-0.025": 0.0,
			"-0.024": 0.0,
			"-0.023": 0.0,
			"-0.022": 0.0,
			"-0.021": 0.0,
			"-0.02": 0.0,
			"-0.019": 0.0,
			"-0.018": 0.0,
			"-0.017": 0.0,
			"-0.016": 0.0,
			"-0.015": 0.0,
			"-0.014": 0.597572872045,
			"-0.013": 2.09411236477,
			"-0.012": 2.45730258379,
			"-0.011": 2.32487990885,
			"-0.01": 3.20882760661,
			"-0.009": 2.33340430345,
			"-0.008": 2.9118053089,
			"-0.007": 8.88660199699,
			"-0.006": 11.2022292738,
			"-0.005": 12.1082173255,
			"-0.004": 9.66964923306,
			"-0.003": 9.21868625464,
			"-0.002": 9.6142667703,
			"-0.001": 7.98629120985,
			"0.0": 9.63082189246,
			"0.001": 14.4363017732,
			"0.002": 23.4802182154,
			"0.003": 23.741394938,
			"0.004": 16.3327353735,
			"0.005": 12.885666417,
			"0.006": 4.91519917954,
			"0.007": 2.88098350727,
			"0.008": 2.65141380589,
			"0.009": 2.93033643917,
			"0.01": 2.1809186639,
			"0.011": 2.06206586099,
			"0.012": 0.948072023608,
			"0.013": 1.30071202914,
			"0.014": 1.08669713654,
			"0.015": 0.160400764792,
			"0.016": 0.0,
			"0.017": 0.0,
			"0.018": 0.0,
			"0.019": 0.0,
			"0.02": 0.0,
			"0.021": 0.0,
			"0.022": 0.0,
			"0.023": 0.0,
			"0.024": 0.0,
			"0.025": 0.0
		}
	}
}
