{
	 "smiles": "COC1=CC=C(N=C=O)C(OC)=C1", 
	 "Tm": 305.15, 
	 "num_atms": 22, 
	 "gaussian": { 
		 "optdone": 1, 
		 "sigma_profile": "yes", 
		 "theory": "DFT", 
		 "functional": "B3LYP", 
		 "basiset": "6-31G**", 
		 "properties": { 
			 "R2extent": 2919.3014, 
			 "electric_dipole_moment_norm": 4.59489545039, 
			 "electric_quadrupole_moment_norm": 15.0286901954, 
			 "total_energy": -628.779189079, 
			 "HOMO_LUMO_gap": 0.19833, 
			 "cosmo_polarized_energy": -9.03, 
			 "cosmo_cavitation_energy": 27.19, 
			 "cosmo_dispersion_energy": -19.43, 
			 "cosmo_repulsion_energy": 1.54, 
			 "cosmo_total_nonelectrostatic_energy": 9.3, 
			 "SMD_solvation_energy": 8.29 
		},
		"coords": [
			{
				"x": 1.6590001005,
				"y": 1.1744899501,
				"z": -2.7433872745,
				"element": "C" 
			},
			{
				"x": 0.7291715524,
				"y": 0.1128485133,
				"z": -2.6123724108,
				"element": "O" 
			},
			{
				"x": 0.1329871078,
				"y": -0.0890122504,
				"z": -1.4009370038,
				"element": "C" 
			},
			{
				"x": -0.7753477049,
				"y": -1.1518456766,
				"z": -1.3366449541,
				"element": "C" 
			},
			{
				"x": -1.4276193003,
				"y": -1.4276336607,
				"z": -0.1410993169,
				"element": "C" 
			},
			{
				"x": -1.1935083863,
				"y": -0.6615063251,
				"z": 1.0032243101,
				"element": "C" 
			},
			{
				"x": -1.8641798804,
				"y": -0.9626968446,
				"z": 2.189523312,
				"element": "N" 
			},
			{
				"x": -1.8959142373,
				"y": -0.5215053791,
				"z": 3.3202548952,
				"element": "C" 
			},
			{
				"x": -2.0448155324,
				"y": -0.2210425669,
				"z": 4.4501622797,
				"element": "O" 
			},
			{
				"x": -0.2769474705,
				"y": 0.4080091691,
				"z": 0.9324801518,
				"element": "C" 
			},
			{
				"x": -0.1076261534,
				"y": 1.1024929851,
				"z": 2.092011117,
				"element": "O" 
			},
			{
				"x": 0.7970015073,
				"y": 2.196224617,
				"z": 2.1145737349,
				"element": "C" 
			},
			{
				"x": 0.3852519806,
				"y": 0.6949187587,
				"z": -0.2655104307,
				"element": "C" 
			},
			{
				"x": 1.1943426464,
				"y": 2.1491128605,
				"z": -2.5436020141,
				"element": "H" 
			},
			{
				"x": 2.5214294813,
				"y": 1.0445162842,
				"z": -2.0762503514,
				"element": "H" 
			},
			{
				"x": 2.0023070376,
				"y": 1.1488638516,
				"z": -3.7787211164,
				"element": "H" 
			},
			{
				"x": -0.9538301216,
				"y": -1.7435542477,
				"z": -2.227152129,
				"element": "H" 
			},
			{
				"x": -2.1346649199,
				"y": -2.2475521595,
				"z": -0.073977494,
				"element": "H" 
			},
			{
				"x": 1.8199046494,
				"y": 1.875494951,
				"z": 1.8808339673,
				"element": "H" 
			},
			{
				"x": 0.7656124618,
				"y": 2.5894246739,
				"z": 3.1312605042,
				"element": "H" 
			},
			{
				"x": 0.4934978669,
				"y": 2.9821175244,
				"z": 1.4116958487,
				"element": "H" 
			},
			{
				"x": 1.0858473152,
				"y": 1.5167349718,
				"z": -0.3087656252,
				"element": "H" 
			}
		],
		 "valence_orbital": [ 
			{
				"type": "occ",
				"energy": -0.32933,
				"method": "rhf"
			},
			{
				"type": "occ",
				"energy": -0.29734,
				"method": "rhf"
			},
			{
				"type": "occ",
				"energy": -0.28642,
				"method": "rhf"
			},
			{
				"type": "occ",
				"energy": -0.24369,
				"method": "rhf"
			},
			{
				"type": "occ",
				"energy": -0.20183,
				"method": "rhf"
			},
			{
				"type": "unocc",
				"energy": -0.0035,
				"method": "rhf"
			},
			{
				"type": "unocc",
				"energy": 0.00251,
				"method": "rhf"
			},
			{
				"type": "unocc",
				"energy": 0.03076,
				"method": "rhf"
			},
			{
				"type": "unocc",
				"energy": 0.07876,
				"method": "rhf"
			},
			{
				"type": "unocc",
				"energy": 0.09226,
				"method": "rhf"
			}
		],
		"cosmo_sigma_profile": { 
			"-0.025": 0.0,
			"-0.024": 0.0,
			"-0.023": 0.0,
			"-0.022": 0.0,
			"-0.021": 0.0,
			"-0.02": 0.0,
			"-0.019": 0.0,
			"-0.018": 0.0,
			"-0.017": 0.0,
			"-0.016": 0.0,
			"-0.015": 0.0,
			"-0.014": 0.0,
			"-0.013": 0.0,
			"-0.012": 0.0,
			"-0.011": 0.0,
			"-0.01": 0.0,
			"-0.009": 0.0,
			"-0.008": 0.131660661796,
			"-0.007": 4.02571842052,
			"-0.006": 16.2777695007,
			"-0.005": 20.6721714817,
			"-0.004": 19.9044651236,
			"-0.003": 18.9522469284,
			"-0.002": 14.6557413707,
			"-0.001": 12.7325147102,
			"0.0": 10.3577491256,
			"0.001": 12.9232119872,
			"0.002": 14.2360379206,
			"0.003": 18.8615331874,
			"0.004": 18.9711250658,
			"0.005": 10.9269861938,
			"0.006": 6.6677133415,
			"0.007": 5.94898392727,
			"0.008": 8.45074034952,
			"0.009": 1.46030223052,
			"0.01": 1.4763155538,
			"0.011": 0.218822367425,
			"0.012": 0.0,
			"0.013": 0.0,
			"0.014": 0.0,
			"0.015": 0.0,
			"0.016": 0.0,
			"0.017": 0.0,
			"0.018": 0.0,
			"0.019": 0.0,
			"0.02": 0.0,
			"0.021": 0.0,
			"0.022": 0.0,
			"0.023": 0.0,
			"0.024": 0.0,
			"0.025": 0.0
		}
	}
}
