{
	 "smiles": "COC1=CC=C(C(SC(C)C(O)=O)=N1)[N+]([O-])=O", 
	 "Tm": 471.15, 
	 "num_atms": 27, 
	 "gaussian": { 
		 "optdone": 1, 
		 "sigma_profile": "yes", 
		 "theory": "DFT", 
		 "functional": "B3LYP", 
		 "basiset": "6-31G**", 
		 "properties": { 
			 "R2extent": 4523.2365, 
			 "electric_dipole_moment_norm": 4.32383470891, 
			 "electric_quadrupole_moment_norm": 14.305873937, 
			 "total_energy": -1232.70238047, 
			 "HOMO_LUMO_gap": 0.15132, 
			 "cosmo_polarized_energy": -15.62, 
			 "cosmo_cavitation_energy": 33.18, 
			 "cosmo_dispersion_energy": -23.88, 
			 "cosmo_repulsion_energy": 1.82, 
			 "cosmo_total_nonelectrostatic_energy": 11.12, 
			 "SMD_solvation_energy": 9.38 
		},
		"coords": [
			{
				"x": 1.7405915687,
				"y": -0.1927568642,
				"z": -3.7515818274,
				"element": "C" 
			},
			{
				"x": 1.3027486228,
				"y": -1.4780339181,
				"z": -3.2744645969,
				"element": "O" 
			},
			{
				"x": 0.6549074532,
				"y": -1.5363438391,
				"z": -2.1072454777,
				"element": "C" 
			},
			{
				"x": 0.1858358062,
				"y": -2.8068686251,
				"z": -1.7073608674,
				"element": "C" 
			},
			{
				"x": -0.4990621943,
				"y": -2.8750299006,
				"z": -0.5173299974,
				"element": "C" 
			},
			{
				"x": -0.7003540703,
				"y": -1.7100829527,
				"z": 0.2401315302,
				"element": "C" 
			},
			{
				"x": -0.1847652044,
				"y": -0.4808945816,
				"z": -0.2264840529,
				"element": "C" 
			},
			{
				"x": -0.3741929715,
				"y": 1.0377313226,
				"z": 0.667877021,
				"element": "S" 
			},
			{
				"x": 0.5289044947,
				"y": 2.2035060228,
				"z": -0.4384100847,
				"element": "C" 
			},
			{
				"x": 0.280063804,
				"y": 3.6192803547,
				"z": 0.1185797137,
				"element": "C" 
			},
			{
				"x": 2.0271518489,
				"y": 1.9664636418,
				"z": -0.5645612129,
				"element": "C" 
			},
			{
				"x": 2.6081282816,
				"y": 1.5525110763,
				"z": 0.5790155495,
				"element": "O" 
			},
			{
				"x": 2.658906716,
				"y": 2.2020811164,
				"z": -1.5734077286,
				"element": "O" 
			},
			{
				"x": 0.4801136479,
				"y": -0.4288109039,
				"z": -1.391195049,
				"element": "N" 
			},
			{
				"x": -1.4353678503,
				"y": -1.8259063546,
				"z": 1.4784931062,
				"element": "N" 
			},
			{
				"x": -1.8260302011,
				"y": -2.9429373254,
				"z": 1.8269029706,
				"element": "O" 
			},
			{
				"x": -1.6348416292,
				"y": -0.789093393,
				"z": 2.1242045571,
				"element": "O" 
			},
			{
				"x": 0.882750076,
				"y": 0.4623101863,
				"z": -3.9261141672,
				"element": "H" 
			},
			{
				"x": 2.4120597493,
				"y": 0.2902558885,
				"z": -3.0409550668,
				"element": "H" 
			},
			{
				"x": 2.2522026276,
				"y": -0.4018505663,
				"z": -4.69103235,
				"element": "H" 
			},
			{
				"x": 0.3647598626,
				"y": -3.6729230395,
				"z": -2.3320372479,
				"element": "H" 
			},
			{
				"x": -0.8991696952,
				"y": -3.8063348531,
				"z": -0.1357189218,
				"element": "H" 
			},
			{
				"x": 0.1255284829,
				"y": 2.1204352215,
				"z": -1.4474300394,
				"element": "H" 
			},
			{
				"x": 0.6682896926,
				"y": 3.7209202494,
				"z": 1.1358814113,
				"element": "H" 
			},
			{
				"x": 0.7810733854,
				"y": 4.3531426506,
				"z": -0.5191179177,
				"element": "H" 
			},
			{
				"x": -0.7895127686,
				"y": 3.8436788154,
				"z": 0.1294711512,
				"element": "H" 
			},
			{
				"x": 3.5602804646,
				"y": 1.4924505708,
				"z": 0.3925895948,
				"element": "H" 
			}
		],
		 "valence_orbital": [ 
			{
				"type": "occ",
				"energy": -0.29864,
				"method": "rhf"
			},
			{
				"type": "occ",
				"energy": -0.28917,
				"method": "rhf"
			},
			{
				"type": "occ",
				"energy": -0.27858,
				"method": "rhf"
			},
			{
				"type": "occ",
				"energy": -0.27273,
				"method": "rhf"
			},
			{
				"type": "occ",
				"energy": -0.23747,
				"method": "rhf"
			},
			{
				"type": "unocc",
				"energy": -0.08615,
				"method": "rhf"
			},
			{
				"type": "unocc",
				"energy": -0.0439,
				"method": "rhf"
			},
			{
				"type": "unocc",
				"energy": -0.01053,
				"method": "rhf"
			},
			{
				"type": "unocc",
				"energy": 0.00373,
				"method": "rhf"
			},
			{
				"type": "unocc",
				"energy": 0.03946,
				"method": "rhf"
			}
		],
		"cosmo_sigma_profile": { 
			"-0.025": 0.0,
			"-0.024": 0.0,
			"-0.023": 0.0,
			"-0.022": 0.0,
			"-0.021": 0.0,
			"-0.02": 0.0,
			"-0.019": 0.283164872804,
			"-0.018": 0.958973658291,
			"-0.017": 0.785204457739,
			"-0.016": 0.650237741141,
			"-0.015": 1.0723687354,
			"-0.014": 0.749637844277,
			"-0.013": 0.788827731907,
			"-0.012": 0.28291927872,
			"-0.011": 1.00995125377,
			"-0.01": 0.624631254022,
			"-0.009": 0.978456844633,
			"-0.008": 4.25627265279,
			"-0.007": 5.7266132731,
			"-0.006": 11.4537634822,
			"-0.005": 15.3285586978,
			"-0.004": 20.7901411419,
			"-0.003": 26.674751749,
			"-0.002": 29.3802126973,
			"-0.001": 23.4286732547,
			"0.0": 18.3543913,
			"0.001": 12.7528157622,
			"0.002": 9.93329162635,
			"0.003": 8.1892194715,
			"0.004": 8.26553906881,
			"0.005": 8.32130622921,
			"0.006": 9.20894395486,
			"0.007": 12.152328351,
			"0.008": 12.9424702052,
			"0.009": 8.42597030093,
			"0.01": 6.60905613018,
			"0.011": 3.63387956125,
			"0.012": 1.57998003993,
			"0.013": 0.02871632322,
			"0.014": 0.0,
			"0.015": 0.0,
			"0.016": 0.0,
			"0.017": 0.0,
			"0.018": 0.0,
			"0.019": 0.0,
			"0.02": 0.0,
			"0.021": 0.0,
			"0.022": 0.0,
			"0.023": 0.0,
			"0.024": 0.0,
			"0.025": 0.0
		}
	}
}
