{
	 "smiles": "CC1=C(C)C(=O)C2=C(N1)C(F)=CC=C2", 
	 "Tm": 558.15, 
	 "num_atms": 24, 
	 "gaussian": { 
		 "optdone": 1, 
		 "sigma_profile": "yes", 
		 "theory": "DFT", 
		 "functional": "B3LYP", 
		 "basiset": "6-31G**", 
		 "properties": { 
			 "R2extent": 3052.0245, 
			 "electric_dipole_moment_norm": 4.53050612294, 
			 "electric_quadrupole_moment_norm": 16.3368034211, 
			 "total_energy": -655.033113882, 
			 "HOMO_LUMO_gap": 0.16835, 
			 "cosmo_polarized_energy": -14.95, 
			 "cosmo_cavitation_energy": 27.66, 
			 "cosmo_dispersion_energy": -20.4, 
			 "cosmo_repulsion_energy": 1.55, 
			 "cosmo_total_nonelectrostatic_energy": 8.8, 
			 "SMD_solvation_energy": 5.42 
		},
		"coords": [
			{
				"x": -3.1731830659,
				"y": 2.213492931,
				"z": -1.2945982652,
				"element": "C" 
			},
			{
				"x": -2.1739057845,
				"y": 1.1064312363,
				"z": -1.0643102654,
				"element": "C" 
			},
			{
				"x": -2.4979190893,
				"y": -0.223331907,
				"z": -0.9868915413,
				"element": "C" 
			},
			{
				"x": -3.9044155758,
				"y": -0.7392307258,
				"z": -1.1273619535,
				"element": "C" 
			},
			{
				"x": -1.4626360169,
				"y": -1.2380453753,
				"z": -0.7678848894,
				"element": "C" 
			},
			{
				"x": -1.72559727,
				"y": -2.4446819029,
				"z": -0.6999181739,
				"element": "O" 
			},
			{
				"x": -0.0761578754,
				"y": -0.7362313516,
				"z": -0.6301393502,
				"element": "C" 
			},
			{
				"x": 0.1703775942,
				"y": 0.6444213116,
				"z": -0.7186612378,
				"element": "C" 
			},
			{
				"x": -0.8679393783,
				"y": 1.5223568669,
				"z": -0.9308795673,
				"element": "N" 
			},
			{
				"x": 1.4885292412,
				"y": 1.1118421015,
				"z": -0.5884353519,
				"element": "C" 
			},
			{
				"x": 1.6792775344,
				"y": 2.4547013404,
				"z": -0.6817643971,
				"element": "F" 
			},
			{
				"x": 2.545633625,
				"y": 0.2565487871,
				"z": -0.3757752889,
				"element": "C" 
			},
			{
				"x": 2.2942391045,
				"y": -1.1270213431,
				"z": -0.2871296571,
				"element": "C" 
			},
			{
				"x": 1.0023639829,
				"y": -1.6123859874,
				"z": -0.4132334181,
				"element": "C" 
			},
			{
				"x": -3.9060026054,
				"y": 2.2596526274,
				"z": -0.4830567111,
				"element": "H" 
			},
			{
				"x": -3.7247473027,
				"y": 2.0599321977,
				"z": -2.2265550955,
				"element": "H" 
			},
			{
				"x": -2.6821352036,
				"y": 3.1893658106,
				"z": -1.3550060199,
				"element": "H" 
			},
			{
				"x": -4.0255250765,
				"y": -1.2885306379,
				"z": -2.0689195516,
				"element": "H" 
			},
			{
				"x": -4.1143705621,
				"y": -1.459166149,
				"z": -0.3307869726,
				"element": "H" 
			},
			{
				"x": -4.6548814353,
				"y": 0.0532638275,
				"z": -1.0948495341,
				"element": "H" 
			},
			{
				"x": -0.6438830132,
				"y": 2.5043120252,
				"z": -0.9897613575,
				"element": "H" 
			},
			{
				"x": 3.5466299932,
				"y": 0.6635218761,
				"z": -0.2812806782,
				"element": "H" 
			},
			{
				"x": 3.1232418281,
				"y": -1.8069919171,
				"z": -0.1193869686,
				"element": "H" 
			},
			{
				"x": 0.7774063515,
				"y": -2.671525642,
				"z": -0.3503137539,
				"element": "H" 
			}
		],
		 "valence_orbital": [ 
			{
				"type": "occ",
				"energy": -0.34056,
				"method": "rhf"
			},
			{
				"type": "occ",
				"energy": -0.25908,
				"method": "rhf"
			},
			{
				"type": "occ",
				"energy": -0.25167,
				"method": "rhf"
			},
			{
				"type": "occ",
				"energy": -0.22528,
				"method": "rhf"
			},
			{
				"type": "occ",
				"energy": -0.20718,
				"method": "rhf"
			},
			{
				"type": "unocc",
				"energy": -0.03883,
				"method": "rhf"
			},
			{
				"type": "unocc",
				"energy": -0.01626,
				"method": "rhf"
			},
			{
				"type": "unocc",
				"energy": 0.02209,
				"method": "rhf"
			},
			{
				"type": "unocc",
				"energy": 0.06156,
				"method": "rhf"
			},
			{
				"type": "unocc",
				"energy": 0.08803,
				"method": "rhf"
			}
		],
		"cosmo_sigma_profile": { 
			"-0.025": 0.0,
			"-0.024": 0.0,
			"-0.023": 0.0,
			"-0.022": 0.0,
			"-0.021": 0.0,
			"-0.02": 0.0,
			"-0.019": 0.0,
			"-0.018": 0.0,
			"-0.017": 0.0,
			"-0.016": 0.142499980612,
			"-0.015": 0.707351144331,
			"-0.014": 1.08135255263,
			"-0.013": 0.894945891661,
			"-0.012": 1.28653801898,
			"-0.011": 1.20371344737,
			"-0.01": 0.938209258089,
			"-0.009": 1.75435279056,
			"-0.008": 2.96257046227,
			"-0.007": 4.29467255261,
			"-0.006": 7.7142352575,
			"-0.005": 12.1884076526,
			"-0.004": 16.0092431346,
			"-0.003": 17.7187114563,
			"-0.002": 17.9511373616,
			"-0.001": 17.9928711342,
			"0.0": 22.9057847768,
			"0.001": 21.3074846278,
			"0.002": 16.8415740357,
			"0.003": 17.1126738285,
			"0.004": 12.7266516847,
			"0.005": 2.57781662901,
			"0.006": 2.14012880253,
			"0.007": 1.73657092762,
			"0.008": 1.26691689205,
			"0.009": 1.88499353594,
			"0.01": 1.68517061731,
			"0.011": 1.59070134818,
			"0.012": 1.95342162502,
			"0.013": 1.47159747482,
			"0.014": 3.82921255808,
			"0.015": 4.35643156065,
			"0.016": 0.404225595422,
			"0.017": 0.0,
			"0.018": 0.0,
			"0.019": 0.0,
			"0.02": 0.0,
			"0.021": 0.0,
			"0.022": 0.0,
			"0.023": 0.0,
			"0.024": 0.0,
			"0.025": 0.0
		}
	}
}
