{
	 "smiles": "O=C1NC2=CC=CC=C2C11OCCO1", 
	 "Tm": 399.15, 
	 "num_atms": 23, 
	 "gaussian": { 
		 "optdone": 1, 
		 "sigma_profile": "yes", 
		 "theory": "DFT", 
		 "functional": "B3LYP", 
		 "basiset": "6-31G**", 
		 "properties": { 
			 "R2extent": 2734.8523, 
			 "electric_dipole_moment_norm": 1.57282341666, 
			 "electric_quadrupole_moment_norm": 16.1577293745, 
			 "total_energy": -666.897875018, 
			 "HOMO_LUMO_gap": 0.19223, 
			 "cosmo_polarized_energy": -13.37, 
			 "cosmo_cavitation_energy": 26.51, 
			 "cosmo_dispersion_energy": -19.86, 
			 "cosmo_repulsion_energy": 1.55, 
			 "cosmo_total_nonelectrostatic_energy": 8.2, 
			 "SMD_solvation_energy": 4.82 
		},
		"coords": [
			{
				"x": -1.9439718408,
				"y": 0.3553632975,
				"z": -2.7948333762,
				"element": "O" 
			},
			{
				"x": -1.6140576677,
				"y": -0.1897968108,
				"z": -1.7586227379,
				"element": "C" 
			},
			{
				"x": -2.0346462882,
				"y": -1.4214308969,
				"z": -1.3023165551,
				"element": "N" 
			},
			{
				"x": -1.4573115995,
				"y": -1.7531653453,
				"z": -0.0633533392,
				"element": "C" 
			},
			{
				"x": -1.638550162,
				"y": -2.8992157183,
				"z": 0.7007104285,
				"element": "C" 
			},
			{
				"x": -0.9391625284,
				"y": -2.9869717063,
				"z": 1.9124216084,
				"element": "C" 
			},
			{
				"x": -0.0904974005,
				"y": -1.9637263879,
				"z": 2.340867258,
				"element": "C" 
			},
			{
				"x": 0.0795915715,
				"y": -0.8146039207,
				"z": 1.5559359883,
				"element": "C" 
			},
			{
				"x": -0.6074450179,
				"y": -0.7201409676,
				"z": 0.3578588387,
				"element": "C" 
			},
			{
				"x": -0.6242651894,
				"y": 0.3717643122,
				"z": -0.6768475505,
				"element": "C" 
			},
			{
				"x": -1.0834886151,
				"y": 1.6066980192,
				"z": -0.1762328676,
				"element": "O" 
			},
			{
				"x": -0.6070627297,
				"y": 2.6122354652,
				"z": -1.0809626958,
				"element": "C" 
			},
			{
				"x": 0.5781846579,
				"y": 1.9351113325,
				"z": -1.8143313837,
				"element": "C" 
			},
			{
				"x": 0.6418618362,
				"y": 0.6207399912,
				"z": -1.2443390117,
				"element": "O" 
			},
			{
				"x": -2.6823138791,
				"y": -1.9994788579,
				"z": -1.8178817682,
				"element": "H" 
			},
			{
				"x": -2.296245044,
				"y": -3.6994618341,
				"z": 0.3755072441,
				"element": "H" 
			},
			{
				"x": -1.063642119,
				"y": -3.8729841602,
				"z": 2.5283355309,
				"element": "H" 
			},
			{
				"x": 0.4380903088,
				"y": -2.0595086485,
				"z": 3.2839390892,
				"element": "H" 
			},
			{
				"x": 0.735142053,
				"y": -0.0100127294,
				"z": 1.873806769,
				"element": "H" 
			},
			{
				"x": -1.3961258356,
				"y": 2.9052559902,
				"z": -1.7801068664,
				"element": "H" 
			},
			{
				"x": -0.3077159091,
				"y": 3.4768314645,
				"z": -0.4819061025,
				"element": "H" 
			},
			{
				"x": 1.5389544013,
				"y": 2.4217434667,
				"z": -1.624230915,
				"element": "H" 
			},
			{
				"x": 0.4022769974,
				"y": 1.878354645,
				"z": -2.8928175852,
				"element": "H" 
			}
		],
		 "valence_orbital": [ 
			{
				"type": "occ",
				"energy": -0.30985,
				"method": "rhf"
			},
			{
				"type": "occ",
				"energy": -0.27367,
				"method": "rhf"
			},
			{
				"type": "occ",
				"energy": -0.26097,
				"method": "rhf"
			},
			{
				"type": "occ",
				"energy": -0.23713,
				"method": "rhf"
			},
			{
				"type": "occ",
				"energy": -0.22443,
				"method": "rhf"
			},
			{
				"type": "unocc",
				"energy": -0.0322,
				"method": "rhf"
			},
			{
				"type": "unocc",
				"energy": -0.00692,
				"method": "rhf"
			},
			{
				"type": "unocc",
				"energy": 0.03455,
				"method": "rhf"
			},
			{
				"type": "unocc",
				"energy": 0.08587,
				"method": "rhf"
			},
			{
				"type": "unocc",
				"energy": 0.09134,
				"method": "rhf"
			}
		],
		"cosmo_sigma_profile": { 
			"-0.025": 0.0,
			"-0.024": 0.0,
			"-0.023": 0.0,
			"-0.022": 0.0,
			"-0.021": 0.0,
			"-0.02": 0.0,
			"-0.019": 0.0,
			"-0.018": 0.0,
			"-0.017": 0.0,
			"-0.016": 0.777017290207,
			"-0.015": 1.67779669436,
			"-0.014": 1.0234806241,
			"-0.013": 1.60422387201,
			"-0.012": 0.852049901506,
			"-0.011": 1.23564341976,
			"-0.01": 1.20907874235,
			"-0.009": 0.982401971272,
			"-0.008": 1.26667108431,
			"-0.007": 4.52997535344,
			"-0.006": 15.8914959725,
			"-0.005": 20.9321086278,
			"-0.004": 16.0531232833,
			"-0.003": 12.9145812126,
			"-0.002": 12.418561477,
			"-0.001": 9.97550076717,
			"0.0": 11.8839570284,
			"0.001": 10.7629017616,
			"0.002": 11.4246549686,
			"0.003": 13.6618480316,
			"0.004": 16.5284404772,
			"0.005": 11.1397077879,
			"0.006": 4.78661863983,
			"0.007": 3.89520772545,
			"0.008": 3.95909261601,
			"0.009": 4.14091777916,
			"0.01": 4.1961311192,
			"0.011": 5.46481943551,
			"0.012": 4.65717250305,
			"0.013": 1.37494778389,
			"0.014": 0.0,
			"0.015": 0.0,
			"0.016": 0.0,
			"0.017": 0.0,
			"0.018": 0.0,
			"0.019": 0.0,
			"0.02": 0.0,
			"0.021": 0.0,
			"0.022": 0.0,
			"0.023": 0.0,
			"0.024": 0.0,
			"0.025": 0.0
		}
	}
}
