{
	 "smiles": "COC1=CC=C(C=C1)C(=O)CBr", 
	 "Tm": 343.15, 
	 "num_atms": 21, 
	 "gaussian": { 
		 "optdone": 1, 
		 "sigma_profile": "yes", 
		 "theory": "DFT", 
		 "functional": "B3LYP", 
		 "basiset": "6-31G**", 
		 "properties": { 
			 "R2extent": 6346.2475, 
			 "electric_dipole_moment_norm": 3.93736753936, 
			 "electric_quadrupole_moment_norm": 18.2149963719, 
			 "total_energy": -3070.22195818, 
			 "HOMO_LUMO_gap": 0.16876, 
			 "cosmo_polarized_energy": -10.52, 
			 "cosmo_cavitation_energy": 27.43, 
			 "cosmo_dispersion_energy": -20.4, 
			 "cosmo_repulsion_energy": 1.63, 
			 "cosmo_total_nonelectrostatic_energy": 8.65, 
			 "SMD_solvation_energy": 4.96 
		},
		"coords": [
			{
				"x": 0.1806743177,
				"y": 1.9005704723,
				"z": 2.2836910859,
				"element": "C" 
			},
			{
				"x": 0.9388073104,
				"y": 1.2672343438,
				"z": 1.2603885411,
				"element": "O" 
			},
			{
				"x": 0.4111863287,
				"y": 0.1855095228,
				"z": 0.6340728532,
				"element": "C" 
			},
			{
				"x": 1.2191663856,
				"y": -0.3963194898,
				"z": -0.3580044773,
				"element": "C" 
			},
			{
				"x": 0.7726076326,
				"y": -1.5056786481,
				"z": -1.0573542775,
				"element": "C" 
			},
			{
				"x": -0.4920022412,
				"y": -2.0649625073,
				"z": -0.7895525637,
				"element": "C" 
			},
			{
				"x": -1.2858298961,
				"y": -1.4748420881,
				"z": 0.2055054602,
				"element": "C" 
			},
			{
				"x": -0.8506869511,
				"y": -0.3621261786,
				"z": 0.916072181,
				"element": "C" 
			},
			{
				"x": -1.0456636514,
				"y": -3.2334683185,
				"z": -1.5178350319,
				"element": "C" 
			},
			{
				"x": -2.1525709541,
				"y": -3.6903224869,
				"z": -1.268624678,
				"element": "O" 
			},
			{
				"x": -0.2463967951,
				"y": -3.8703335188,
				"z": -2.6536452238,
				"element": "C" 
			},
			{
				"x": 1.2704763325,
				"y": -4.9405044119,
				"z": -1.9596625922,
				"element": "Br" 
			},
			{
				"x": 0.794454734,
				"y": 2.7282001231,
				"z": 2.6410594687,
				"element": "H" 
			},
			{
				"x": -0.7676343791,
				"y": 2.2935105839,
				"z": 1.8972255837,
				"element": "H" 
			},
			{
				"x": -0.0234531124,
				"y": 1.2153122044,
				"z": 3.1153461135,
				"element": "H" 
			},
			{
				"x": 2.192671781,
				"y": 0.0406174257,
				"z": -0.5529723541,
				"element": "H" 
			},
			{
				"x": 1.4247564781,
				"y": -1.9497426455,
				"z": -1.8015529711,
				"element": "H" 
			},
			{
				"x": -2.2588864582,
				"y": -1.9101282055,
				"z": 0.407359414,
				"element": "H" 
			},
			{
				"x": -1.4889528329,
				"y": 0.06974687,
				"z": 1.677454822,
				"element": "H" 
			},
			{
				"x": 0.1887009564,
				"y": -3.1424900529,
				"z": -3.3381124901,
				"element": "H" 
			},
			{
				"x": -0.8903249854,
				"y": -4.5691829941,
				"z": -3.1811588635,
				"element": "H" 
			}
		],
		 "valence_orbital": [ 
			{
				"type": "occ",
				"energy": -0.28905,
				"method": "rhf"
			},
			{
				"type": "occ",
				"energy": -0.28028,
				"method": "rhf"
			},
			{
				"type": "occ",
				"energy": -0.26503,
				"method": "rhf"
			},
			{
				"type": "occ",
				"energy": -0.25248,
				"method": "rhf"
			},
			{
				"type": "occ",
				"energy": -0.23439,
				"method": "rhf"
			},
			{
				"type": "unocc",
				"energy": -0.06563,
				"method": "rhf"
			},
			{
				"type": "unocc",
				"energy": -0.01346,
				"method": "rhf"
			},
			{
				"type": "unocc",
				"energy": -0.00515,
				"method": "rhf"
			},
			{
				"type": "unocc",
				"energy": 0.05548,
				"method": "rhf"
			},
			{
				"type": "unocc",
				"energy": 0.08567,
				"method": "rhf"
			}
		],
		"cosmo_sigma_profile": { 
			"-0.025": 0.0,
			"-0.024": 0.0,
			"-0.023": 0.0,
			"-0.022": 0.0,
			"-0.021": 0.0,
			"-0.02": 0.0,
			"-0.019": 0.0,
			"-0.018": 0.0,
			"-0.017": 0.0,
			"-0.016": 0.0,
			"-0.015": 0.0,
			"-0.014": 0.0,
			"-0.013": 0.0,
			"-0.012": 0.0,
			"-0.011": 0.0,
			"-0.01": 0.181472024454,
			"-0.009": 2.54712561688,
			"-0.008": 4.13372806464,
			"-0.007": 7.73524090394,
			"-0.006": 17.2754357218,
			"-0.005": 19.4136633983,
			"-0.004": 16.2403044117,
			"-0.003": 14.7186770111,
			"-0.002": 11.1691468705,
			"-0.001": 9.82317342899,
			"0.0": 11.5060395212,
			"0.001": 14.9216070052,
			"0.002": 17.2304664994,
			"0.003": 23.2024802156,
			"0.004": 16.7791245861,
			"0.005": 12.9736582056,
			"0.006": 3.52995358666,
			"0.007": 2.78472011809,
			"0.008": 2.95453432269,
			"0.009": 3.43184152171,
			"0.01": 2.44067059832,
			"0.011": 4.07778759612,
			"0.012": 2.5989515012,
			"0.013": 0.372198563815,
			"0.014": 0.0,
			"0.015": 0.0,
			"0.016": 0.0,
			"0.017": 0.0,
			"0.018": 0.0,
			"0.019": 0.0,
			"0.02": 0.0,
			"0.021": 0.0,
			"0.022": 0.0,
			"0.023": 0.0,
			"0.024": 0.0,
			"0.025": 0.0
		}
	}
}
