{
	 "smiles": "NC(=O)NC1=CC=C(Cl)C=C1", 
	 "Tm": 479.15, 
	 "num_atms": 18, 
	 "gaussian": { 
		 "optdone": 1, 
		 "sigma_profile": "yes", 
		 "theory": "DFT", 
		 "functional": "B3LYP", 
		 "basiset": "6-31G**", 
		 "properties": { 
			 "R2extent": 2766.6449, 
			 "electric_dipole_moment_norm": 1.78370020183, 
			 "electric_quadrupole_moment_norm": 20.7117168533, 
			 "total_energy": -915.910003458, 
			 "HOMO_LUMO_gap": 0.2005, 
			 "cosmo_polarized_energy": -14.29, 
			 "cosmo_cavitation_energy": 24.3, 
			 "cosmo_dispersion_energy": -18.25, 
			 "cosmo_repulsion_energy": 1.48, 
			 "cosmo_total_nonelectrostatic_energy": 7.53, 
			 "SMD_solvation_energy": 4.92 
		},
		"coords": [
			{
				"x": 1.242461973,
				"y": 2.5614820756,
				"z": 1.318742907,
				"element": "N" 
			},
			{
				"x": 2.2268260071,
				"y": 1.9529971976,
				"z": 0.5632553414,
				"element": "C" 
			},
			{
				"x": 3.3509529531,
				"y": 2.4153830295,
				"z": 0.4368253089,
				"element": "O" 
			},
			{
				"x": 1.8862733095,
				"y": 0.7499810164,
				"z": -0.0510499571,
				"element": "N" 
			},
			{
				"x": 0.720680113,
				"y": -0.0352525927,
				"z": 0.0136580448,
				"element": "C" 
			},
			{
				"x": 0.3484832537,
				"y": -0.7761299698,
				"z": -1.1206462079,
				"element": "C" 
			},
			{
				"x": -0.7719016457,
				"y": -1.6010684126,
				"z": -1.1014409887,
				"element": "C" 
			},
			{
				"x": -1.5461990195,
				"y": -1.6795766116,
				"z": 0.0562273426,
				"element": "C" 
			},
			{
				"x": -2.9739887475,
				"y": -2.7038793047,
				"z": 0.0811588456,
				"element": "Cl" 
			},
			{
				"x": -1.192598155,
				"y": -0.9573085718,
				"z": 1.1938642354,
				"element": "C" 
			},
			{
				"x": -0.0561349313,
				"y": -0.1492546689,
				"z": 1.17865592,
				"element": "C" 
			},
			{
				"x": 0.2747345285,
				"y": 2.4077862333,
				"z": 1.071698956,
				"element": "H" 
			},
			{
				"x": 1.4830887411,
				"y": 3.5101884194,
				"z": 1.567561249,
				"element": "H" 
			},
			{
				"x": 2.6157849896,
				"y": 0.4459478599,
				"z": -0.6804594382,
				"element": "H" 
			},
			{
				"x": 0.9412217574,
				"y": -0.6977580115,
				"z": -2.0278441803,
				"element": "H" 
			},
			{
				"x": -1.0498588407,
				"y": -2.1691527889,
				"z": -1.982293456,
				"element": "H" 
			},
			{
				"x": -1.7878545658,
				"y": -1.0408372234,
				"z": 2.0965570399,
				"element": "H" 
			},
			{
				"x": 0.2413282794,
				"y": 0.3726523239,
				"z": 2.0806290377,
				"element": "H" 
			}
		],
		 "valence_orbital": [ 
			{
				"type": "occ",
				"energy": -0.29745,
				"method": "rhf"
			},
			{
				"type": "occ",
				"energy": -0.28054,
				"method": "rhf"
			},
			{
				"type": "occ",
				"energy": -0.27464,
				"method": "rhf"
			},
			{
				"type": "occ",
				"energy": -0.26309,
				"method": "rhf"
			},
			{
				"type": "occ",
				"energy": -0.22679,
				"method": "rhf"
			},
			{
				"type": "unocc",
				"energy": -0.02629,
				"method": "rhf"
			},
			{
				"type": "unocc",
				"energy": -0.02181,
				"method": "rhf"
			},
			{
				"type": "unocc",
				"energy": 0.02462,
				"method": "rhf"
			},
			{
				"type": "unocc",
				"energy": 0.05499,
				"method": "rhf"
			},
			{
				"type": "unocc",
				"energy": 0.08435,
				"method": "rhf"
			}
		],
		"cosmo_sigma_profile": { 
			"-0.025": 0.0,
			"-0.024": 0.0,
			"-0.023": 0.0,
			"-0.022": 0.0,
			"-0.021": 0.0,
			"-0.02": 0.0,
			"-0.019": 0.0,
			"-0.018": 0.0,
			"-0.017": 0.0,
			"-0.016": 0.0,
			"-0.015": 0.229170751545,
			"-0.014": 1.3676834018,
			"-0.013": 2.70732975482,
			"-0.012": 3.33831123001,
			"-0.011": 3.5517864373,
			"-0.01": 4.04904614681,
			"-0.009": 2.55687024929,
			"-0.008": 3.9378517523,
			"-0.007": 7.49894629182,
			"-0.006": 10.3834391134,
			"-0.005": 9.39929825422,
			"-0.004": 7.90045706652,
			"-0.003": 7.52241099381,
			"-0.002": 8.70601616467,
			"-0.001": 10.4020402991,
			"0.0": 11.9589907071,
			"0.001": 14.6582440211,
			"0.002": 18.1530058618,
			"0.003": 19.7254218419,
			"0.004": 16.2372231969,
			"0.005": 9.5721745732,
			"0.006": 2.48783210203,
			"0.007": 1.57450774767,
			"0.008": 1.34335366963,
			"0.009": 1.29650037223,
			"0.01": 1.29285971152,
			"0.011": 2.03636339512,
			"0.012": 1.40250556982,
			"0.013": 3.39391669371,
			"0.014": 6.40231391107,
			"0.015": 1.05378312382,
			"0.016": 0.0,
			"0.017": 0.0,
			"0.018": 0.0,
			"0.019": 0.0,
			"0.02": 0.0,
			"0.021": 0.0,
			"0.022": 0.0,
			"0.023": 0.0,
			"0.024": 0.0,
			"0.025": 0.0
		}
	}
}
