{
	 "smiles": "CC(C)(C)C1=NN(C(Cl)=C1C=O)C1=CC=CC=C1", 
	 "Tm": 308.15, 
	 "num_atms": 33, 
	 "gaussian": { 
		 "optdone": 1, 
		 "sigma_profile": "yes", 
		 "theory": "DFT", 
		 "functional": "B3LYP", 
		 "basiset": "6-31G**", 
		 "properties": { 
			 "R2extent": 5671.7543, 
			 "electric_dipole_moment_norm": 3.51482729448, 
			 "electric_quadrupole_moment_norm": 19.1817823395, 
			 "total_energy": -1187.42509303, 
			 "HOMO_LUMO_gap": 0.1912, 
			 "cosmo_polarized_energy": -10.52, 
			 "cosmo_cavitation_energy": 37.41, 
			 "cosmo_dispersion_energy": -26.08, 
			 "cosmo_repulsion_energy": 2.01, 
			 "cosmo_total_nonelectrostatic_energy": 13.34, 
			 "SMD_solvation_energy": 6.76 
		},
		"coords": [
			{
				"x": 3.2274226798,
				"y": -0.61732723,
				"z": 1.1730307983,
				"element": "C" 
			},
			{
				"x": 2.2771154774,
				"y": -1.0676593837,
				"z": 0.0380447487,
				"element": "C" 
			},
			{
				"x": 2.756042746,
				"y": -0.4296482797,
				"z": -1.2814687169,
				"element": "C" 
			},
			{
				"x": 2.3255840983,
				"y": -2.6065691582,
				"z": -0.116462926,
				"element": "C" 
			},
			{
				"x": 0.8521131492,
				"y": -0.6201617482,
				"z": 0.3455385509,
				"element": "C" 
			},
			{
				"x": 0.2370204059,
				"y": 0.2060563117,
				"z": -0.4893561649,
				"element": "N" 
			},
			{
				"x": -1.0039886381,
				"y": 0.4432765206,
				"z": 0.0386343238,
				"element": "N" 
			},
			{
				"x": -1.1755774963,
				"y": -0.2429896269,
				"z": 1.196582508,
				"element": "C" 
			},
			{
				"x": -2.6505032367,
				"y": -0.240962628,
				"z": 2.0733833171,
				"element": "Cl" 
			},
			{
				"x": 0.0003962313,
				"y": -0.9492612521,
				"z": 1.4559390958,
				"element": "C" 
			},
			{
				"x": 0.248865165,
				"y": -1.8164760549,
				"z": 2.6090506523,
				"element": "C" 
			},
			{
				"x": -0.5472396779,
				"y": -2.0308719032,
				"z": 3.5075899302,
				"element": "O" 
			},
			{
				"x": -1.9020816769,
				"y": 1.2924509743,
				"z": -0.6780353051,
				"element": "C" 
			},
			{
				"x": -2.6249397355,
				"y": 2.2902198096,
				"z": -0.019277171,
				"element": "C" 
			},
			{
				"x": -3.4831425341,
				"y": 3.1081282671,
				"z": -0.7545002651,
				"element": "C" 
			},
			{
				"x": -3.6046381776,
				"y": 2.9450612863,
				"z": -2.1352144755,
				"element": "C" 
			},
			{
				"x": -2.8609205446,
				"y": 1.9579398322,
				"z": -2.7861518989,
				"element": "C" 
			},
			{
				"x": -2.0097020003,
				"y": 1.1261738602,
				"z": -2.0618434564,
				"element": "C" 
			},
			{
				"x": 4.2550566847,
				"y": -0.9149727547,
				"z": 0.9382520138,
				"element": "H" 
			},
			{
				"x": 2.9662744193,
				"y": -1.0613968079,
				"z": 2.1375689891,
				"element": "H" 
			},
			{
				"x": 3.2085041652,
				"y": 0.4710835415,
				"z": 1.2878053839,
				"element": "H" 
			},
			{
				"x": 3.7801967004,
				"y": -0.7555543686,
				"z": -1.4909534236,
				"element": "H" 
			},
			{
				"x": 2.7438842041,
				"y": 0.6617118243,
				"z": -1.2259331361,
				"element": "H" 
			},
			{
				"x": 2.1216630582,
				"y": -0.7239974242,
				"z": -2.1215248623,
				"element": "H" 
			},
			{
				"x": 3.3439666428,
				"y": -2.9235178611,
				"z": -0.3658779797,
				"element": "H" 
			},
			{
				"x": 1.6617549838,
				"y": -2.93858574,
				"z": -0.9210810164,
				"element": "H" 
			},
			{
				"x": 2.0312494424,
				"y": -3.1285002281,
				"z": 0.7981390672,
				"element": "H" 
			},
			{
				"x": 1.2488750529,
				"y": -2.2936495664,
				"z": 2.6271847636,
				"element": "H" 
			},
			{
				"x": -2.509332508,
				"y": 2.4339526592,
				"z": 1.0483126991,
				"element": "H" 
			},
			{
				"x": -4.0470888101,
				"y": 3.8830084476,
				"z": -0.2443190809,
				"element": "H" 
			},
			{
				"x": -4.2707056433,
				"y": 3.5880541146,
				"z": -2.7025046039,
				"element": "H" 
			},
			{
				"x": -2.9460365777,
				"y": 1.8301945786,
				"z": -3.8610202208,
				"element": "H" 
			},
			{
				"x": -1.4214880495,
				"y": 0.3578899883,
				"z": -2.5497321383,
				"element": "H" 
			}
		],
		 "valence_orbital": [ 
			{
				"type": "occ",
				"energy": -0.28914,
				"method": "rhf"
			},
			{
				"type": "occ",
				"energy": -0.26667,
				"method": "rhf"
			},
			{
				"type": "occ",
				"energy": -0.25427,
				"method": "rhf"
			},
			{
				"type": "occ",
				"energy": -0.24653,
				"method": "rhf"
			},
			{
				"type": "occ",
				"energy": -0.24454,
				"method": "rhf"
			},
			{
				"type": "unocc",
				"energy": -0.05334,
				"method": "rhf"
			},
			{
				"type": "unocc",
				"energy": -0.02129,
				"method": "rhf"
			},
			{
				"type": "unocc",
				"energy": -0.01684,
				"method": "rhf"
			},
			{
				"type": "unocc",
				"energy": 0.01528,
				"method": "rhf"
			},
			{
				"type": "unocc",
				"energy": 0.02762,
				"method": "rhf"
			}
		],
		"cosmo_sigma_profile": { 
			"-0.025": 0.0,
			"-0.024": 0.0,
			"-0.023": 0.0,
			"-0.022": 0.0,
			"-0.021": 0.0,
			"-0.02": 0.0,
			"-0.019": 0.0,
			"-0.018": 0.0,
			"-0.017": 0.0,
			"-0.016": 0.0,
			"-0.015": 0.0,
			"-0.014": 0.0,
			"-0.013": 0.0,
			"-0.012": 0.0,
			"-0.011": 0.0,
			"-0.01": 0.0,
			"-0.009": 0.0,
			"-0.008": 0.0676764188626,
			"-0.007": 6.32492986109,
			"-0.006": 15.0796039162,
			"-0.005": 15.2091805474,
			"-0.004": 16.7285749558,
			"-0.003": 30.2750471727,
			"-0.002": 31.3589855148,
			"-0.001": 32.2462316529,
			"0.0": 35.701391952,
			"0.001": 31.7441308664,
			"0.002": 19.600879497,
			"0.003": 16.8123749805,
			"0.004": 15.4965170843,
			"0.005": 5.04988210126,
			"0.006": 3.6952747931,
			"0.007": 3.20392035056,
			"0.008": 3.19920429422,
			"0.009": 3.11479998277,
			"0.01": 3.57245369573,
			"0.011": 4.90668359896,
			"0.012": 4.37648814525,
			"0.013": 1.32151725911,
			"0.014": 0.112451013172,
			"0.015": 0.0,
			"0.016": 0.0,
			"0.017": 0.0,
			"0.018": 0.0,
			"0.019": 0.0,
			"0.02": 0.0,
			"0.021": 0.0,
			"0.022": 0.0,
			"0.023": 0.0,
			"0.024": 0.0,
			"0.025": 0.0
		}
	}
}
