{
	 "smiles": "OC1=C(Br)C=C(C=C1Br)N(=O)=O", 
	 "Tm": 418.15, 
	 "num_atms": 15, 
	 "gaussian": { 
		 "optdone": 1, 
		 "sigma_profile": "yes", 
		 "theory": "DFT", 
		 "functional": "B3LYP", 
		 "basiset": "6-31G**", 
		 "properties": { 
			 "R2extent": 4872.6785, 
			 "electric_dipole_moment_norm": 3.83294496047, 
			 "electric_quadrupole_moment_norm": 7.19445561457, 
			 "total_energy": -5653.56892273, 
			 "HOMO_LUMO_gap": 0.1645, 
			 "cosmo_polarized_energy": -9.85, 
			 "cosmo_cavitation_energy": 25.18, 
			 "cosmo_dispersion_energy": -19.57, 
			 "cosmo_repulsion_energy": 1.56, 
			 "cosmo_total_nonelectrostatic_energy": 7.17, 
			 "SMD_solvation_energy": 4.85 
		},
		"coords": [
			{
				"x": -0.0258009546,
				"y": 1.4499563401,
				"z": -2.7240574389,
				"element": "O" 
			},
			{
				"x": 0.3267845077,
				"y": 0.8936244569,
				"z": -1.5569499265,
				"element": "C" 
			},
			{
				"x": -0.3872219544,
				"y": -0.1637617369,
				"z": -0.9575384485,
				"element": "C" 
			},
			{
				"x": -1.9331481147,
				"y": -0.8267517775,
				"z": -1.8663184212,
				"element": "Br" 
			},
			{
				"x": -0.0014711795,
				"y": -0.721647724,
				"z": 0.2505144283,
				"element": "C" 
			},
			{
				"x": 1.1306573268,
				"y": -0.2073241772,
				"z": 0.8769258681,
				"element": "C" 
			},
			{
				"x": 1.8706866617,
				"y": 0.8371908453,
				"z": 0.3253201326,
				"element": "C" 
			},
			{
				"x": 1.4664512266,
				"y": 1.3806873611,
				"z": -0.884837268,
				"element": "C" 
			},
			{
				"x": 2.4564854721,
				"y": 2.803123212,
				"z": -1.6569158882,
				"element": "Br" 
			},
			{
				"x": 1.5554651035,
				"y": -0.7843302288,
				"z": 2.1565354739,
				"element": "N" 
			},
			{
				"x": 2.5589474053,
				"y": -0.311021242,
				"z": 2.6880220779,
				"element": "O" 
			},
			{
				"x": 0.8803399838,
				"y": -1.7051350319,
				"z": 2.6162515298,
				"element": "O" 
			},
			{
				"x": -0.8249527303,
				"y": 1.0064381591,
				"z": -3.0569050226,
				"element": "H" 
			},
			{
				"x": -0.551960339,
				"y": -1.5330497103,
				"z": 0.7073796225,
				"element": "H" 
			},
			{
				"x": 2.744737585,
				"y": 1.2090012541,
				"z": 0.8430732808,
				"element": "H" 
			}
		],
		 "valence_orbital": [ 
			{
				"type": "occ",
				"energy": -0.31707,
				"method": "rhf"
			},
			{
				"type": "occ",
				"energy": -0.30397,
				"method": "rhf"
			},
			{
				"type": "occ",
				"energy": -0.30006,
				"method": "rhf"
			},
			{
				"type": "occ",
				"energy": -0.27492,
				"method": "rhf"
			},
			{
				"type": "occ",
				"energy": -0.26208,
				"method": "rhf"
			},
			{
				"type": "unocc",
				"energy": -0.09758,
				"method": "rhf"
			},
			{
				"type": "unocc",
				"energy": -0.05195,
				"method": "rhf"
			},
			{
				"type": "unocc",
				"energy": -0.04308,
				"method": "rhf"
			},
			{
				"type": "unocc",
				"energy": -0.00873,
				"method": "rhf"
			},
			{
				"type": "unocc",
				"energy": 0.00297,
				"method": "rhf"
			}
		],
		"cosmo_sigma_profile": { 
			"-0.025": 0.0,
			"-0.024": 0.0,
			"-0.023": 0.0,
			"-0.022": 0.0,
			"-0.021": 0.0,
			"-0.02": 0.0,
			"-0.019": 0.0,
			"-0.018": 0.0,
			"-0.017": 0.0262096091952,
			"-0.016": 0.623627589458,
			"-0.015": 0.131910890933,
			"-0.014": 0.385734162402,
			"-0.013": 1.30375751691,
			"-0.012": 1.37201682631,
			"-0.011": 0.704096480146,
			"-0.01": 0.791304386916,
			"-0.009": 2.10209940095,
			"-0.008": 3.38926651931,
			"-0.007": 5.45602842565,
			"-0.006": 7.35642728827,
			"-0.005": 8.57152616037,
			"-0.004": 11.4504354797,
			"-0.003": 16.3938489976,
			"-0.002": 22.1340002529,
			"-0.001": 22.6044489987,
			"0.0": 14.8722556823,
			"0.001": 12.2379176293,
			"0.002": 15.9288181248,
			"0.003": 15.5055815276,
			"0.004": 8.20459954799,
			"0.005": 6.15553825427,
			"0.006": 5.63903259797,
			"0.007": 10.6114828347,
			"0.008": 8.62761667561,
			"0.009": 5.15176526984,
			"0.01": 1.98709450303,
			"0.011": 0.0,
			"0.012": 0.0,
			"0.013": 0.0,
			"0.014": 0.0,
			"0.015": 0.0,
			"0.016": 0.0,
			"0.017": 0.0,
			"0.018": 0.0,
			"0.019": 0.0,
			"0.02": 0.0,
			"0.021": 0.0,
			"0.022": 0.0,
			"0.023": 0.0,
			"0.024": 0.0,
			"0.025": 0.0
		}
	}
}
