{
	 "smiles": "N#CC1=C(N=CC=C1)N1CCCC1", 
	 "Tm": 310.15, 
	 "num_atms": 24, 
	 "gaussian": { 
		 "optdone": 1, 
		 "sigma_profile": "yes", 
		 "theory": "DFT", 
		 "functional": "B3LYP", 
		 "basiset": "6-31G**", 
		 "properties": { 
			 "R2extent": 2480.9302, 
			 "electric_dipole_moment_norm": 3.07498673981, 
			 "electric_quadrupole_moment_norm": 16.6387492748, 
			 "total_energy": -551.934650722, 
			 "HOMO_LUMO_gap": 0.16353, 
			 "cosmo_polarized_energy": -9.43, 
			 "cosmo_cavitation_energy": 27.22, 
			 "cosmo_dispersion_energy": -19.84, 
			 "cosmo_repulsion_energy": 1.57, 
			 "cosmo_total_nonelectrostatic_energy": 8.95, 
			 "SMD_solvation_energy": 3.6 
		},
		"coords": [
			{
				"x": 3.0183320389,
				"y": 0.0810754869,
				"z": 0.8245066026,
				"element": "N" 
			},
			{
				"x": 2.0684613532,
				"y": 0.4353757661,
				"z": 0.2497714036,
				"element": "C" 
			},
			{
				"x": 0.9527717705,
				"y": 0.8909362195,
				"z": -0.5170954055,
				"element": "C" 
			},
			{
				"x": -0.4087275124,
				"y": 0.4924585104,
				"z": -0.2915346946,
				"element": "C" 
			},
			{
				"x": -1.3833205339,
				"y": 0.8751770063,
				"z": -1.1487185779,
				"element": "N" 
			},
			{
				"x": -1.0808929596,
				"y": 1.6612739208,
				"z": -2.1776391579,
				"element": "C" 
			},
			{
				"x": 0.2000941966,
				"y": 2.1454876331,
				"z": -2.450340691,
				"element": "C" 
			},
			{
				"x": 1.2221298477,
				"y": 1.7360891814,
				"z": -1.6048375196,
				"element": "C" 
			},
			{
				"x": -0.8250575662,
				"y": -0.2812450604,
				"z": 0.7470993145,
				"element": "N" 
			},
			{
				"x": -2.232590804,
				"y": -0.7083863654,
				"z": 0.8472159652,
				"element": "C" 
			},
			{
				"x": -2.2322664424,
				"y": -1.6457401035,
				"z": 2.0599652119,
				"element": "C" 
			},
			{
				"x": -1.1384627505,
				"y": -1.0515752169,
				"z": 2.9593305399,
				"element": "C" 
			},
			{
				"x": -0.0575066599,
				"y": -0.6147771744,
				"z": 1.9585240496,
				"element": "C" 
			},
			{
				"x": -1.9155462649,
				"y": 1.9249779134,
				"z": -2.8263765035,
				"element": "H" 
			},
			{
				"x": 0.3872304935,
				"y": 2.7953726047,
				"z": -3.2970967478,
				"element": "H" 
			},
			{
				"x": 2.2480833474,
				"y": 2.0461116721,
				"z": -1.7769948737,
				"element": "H" 
			},
			{
				"x": -2.8853823402,
				"y": 0.1606400085,
				"z": 1.0012362094,
				"element": "H" 
			},
			{
				"x": -2.553110167,
				"y": -1.1886213085,
				"z": -0.0803330922,
				"element": "H" 
			},
			{
				"x": -3.2110814295,
				"y": -1.6947418311,
				"z": 2.5441926126,
				"element": "H" 
			},
			{
				"x": -1.9584937881,
				"y": -2.6614227989,
				"z": 1.7522318823,
				"element": "H" 
			},
			{
				"x": -1.525869364,
				"y": -0.178071097,
				"z": 3.4958856834,
				"element": "H" 
			},
			{
				"x": -0.7506058546,
				"y": -1.755221655,
				"z": 3.7003308475,
				"element": "H" 
			},
			{
				"x": 0.5135414526,
				"y": 0.2478676382,
				"z": 2.3113744991,
				"element": "H" 
			},
			{
				"x": 0.6553699369,
				"y": -1.4246409504,
				"z": 1.7634024421,
				"element": "H" 
			}
		],
		 "valence_orbital": [ 
			{
				"type": "occ",
				"energy": -0.32283,
				"method": "rhf"
			},
			{
				"type": "occ",
				"energy": -0.30609,
				"method": "rhf"
			},
			{
				"type": "occ",
				"energy": -0.28001,
				"method": "rhf"
			},
			{
				"type": "occ",
				"energy": -0.26479,
				"method": "rhf"
			},
			{
				"type": "occ",
				"energy": -0.21024,
				"method": "rhf"
			},
			{
				"type": "unocc",
				"energy": -0.04671,
				"method": "rhf"
			},
			{
				"type": "unocc",
				"energy": -0.00932,
				"method": "rhf"
			},
			{
				"type": "unocc",
				"energy": 0.0358,
				"method": "rhf"
			},
			{
				"type": "unocc",
				"energy": 0.0785,
				"method": "rhf"
			},
			{
				"type": "unocc",
				"energy": 0.08055,
				"method": "rhf"
			}
		],
		"cosmo_sigma_profile": { 
			"-0.025": 0.0,
			"-0.024": 0.0,
			"-0.023": 0.0,
			"-0.022": 0.0,
			"-0.021": 0.0,
			"-0.02": 0.0,
			"-0.019": 0.0,
			"-0.018": 0.0,
			"-0.017": 0.0,
			"-0.016": 0.0,
			"-0.015": 0.0,
			"-0.014": 0.0,
			"-0.013": 0.0,
			"-0.012": 0.0,
			"-0.011": 0.0,
			"-0.01": 0.0,
			"-0.009": 0.124277204532,
			"-0.008": 1.74498092062,
			"-0.007": 4.5850100478,
			"-0.006": 7.27570850582,
			"-0.005": 9.25521313326,
			"-0.004": 21.0373270418,
			"-0.003": 30.4761403095,
			"-0.002": 25.1389992504,
			"-0.001": 21.5030297286,
			"0.0": 21.0755945388,
			"0.001": 15.1519028141,
			"0.002": 12.8950218549,
			"0.003": 8.68049279151,
			"0.004": 4.24026129585,
			"0.005": 3.44041048428,
			"0.006": 4.09517529798,
			"0.007": 3.3118114407,
			"0.008": 4.20574541445,
			"0.009": 3.52479661052,
			"0.01": 3.91345643839,
			"0.011": 3.73018481701,
			"0.012": 3.42603581836,
			"0.013": 2.95205465053,
			"0.014": 0.756639546394,
			"0.015": 0.0,
			"0.016": 0.0,
			"0.017": 0.0,
			"0.018": 0.0,
			"0.019": 0.0,
			"0.02": 0.0,
			"0.021": 0.0,
			"0.022": 0.0,
			"0.023": 0.0,
			"0.024": 0.0,
			"0.025": 0.0
		}
	}
}
