{
	 "smiles": "CC(C)OC(=O)NNC(=O)CCl", 
	 "Tm": 374.15, 
	 "num_atms": 23, 
	 "gaussian": { 
		 "optdone": 1, 
		 "sigma_profile": "yes", 
		 "theory": "DFT", 
		 "functional": "B3LYP", 
		 "basiset": "6-31G**", 
		 "properties": { 
			 "R2extent": 4473.1226, 
			 "electric_dipole_moment_norm": 2.7666187034, 
			 "electric_quadrupole_moment_norm": 18.2962727655, 
			 "total_energy": -1030.64303015, 
			 "HOMO_LUMO_gap": 0.23597, 
			 "cosmo_polarized_energy": -15.24, 
			 "cosmo_cavitation_energy": 29.48, 
			 "cosmo_dispersion_energy": -20.04, 
			 "cosmo_repulsion_energy": 1.67, 
			 "cosmo_total_nonelectrostatic_energy": 11.11, 
			 "SMD_solvation_energy": 7.43 
		},
		"coords": [
			{
				"x": 0.5735107272,
				"y": -1.8227185678,
				"z": 0.143335271,
				"element": "C" 
			},
			{
				"x": -0.5112917951,
				"y": -0.8143724702,
				"z": 0.4911215462,
				"element": "C" 
			},
			{
				"x": -1.8552504405,
				"y": -1.4497275318,
				"z": 0.827601921,
				"element": "C" 
			},
			{
				"x": -0.6592325532,
				"y": 0.0332817949,
				"z": -0.6922910818,
				"element": "O" 
			},
			{
				"x": -1.1219896352,
				"y": 1.2788016975,
				"z": -0.4777604992,
				"element": "C" 
			},
			{
				"x": -1.4095812875,
				"y": 1.7712028364,
				"z": 0.5946252241,
				"element": "O" 
			},
			{
				"x": -1.2101785468,
				"y": 1.9889142762,
				"z": -1.6650458947,
				"element": "N" 
			},
			{
				"x": -1.1069455499,
				"y": 1.4115476002,
				"z": -2.9109709891,
				"element": "N" 
			},
			{
				"x": 0.0812923615,
				"y": 1.3231729043,
				"z": -3.6061197988,
				"element": "C" 
			},
			{
				"x": 0.1851303118,
				"y": 0.608340508,
				"z": -4.58545867,
				"element": "O" 
			},
			{
				"x": 1.2388995591,
				"y": 2.1778269982,
				"z": -3.1007593893,
				"element": "C" 
			},
			{
				"x": 0.9072821731,
				"y": 3.9519170675,
				"z": -3.2781205905,
				"element": "Cl" 
			},
			{
				"x": 1.5105861392,
				"y": -1.3180387528,
				"z": -0.1075062892,
				"element": "H" 
			},
			{
				"x": 0.2736618046,
				"y": -2.4389404542,
				"z": -0.7100299625,
				"element": "H" 
			},
			{
				"x": 0.7557641016,
				"y": -2.482291748,
				"z": 0.9971109706,
				"element": "H" 
			},
			{
				"x": -0.1932520576,
				"y": -0.1669579994,
				"z": 1.3129774568,
				"element": "H" 
			},
			{
				"x": -1.7532167723,
				"y": -2.1000957803,
				"z": 1.7021939043,
				"element": "H" 
			},
			{
				"x": -2.5951478649,
				"y": -0.6803936862,
				"z": 1.0605851974,
				"element": "H" 
			},
			{
				"x": -2.2172001441,
				"y": -2.0547365651,
				"z": -0.0101016606,
				"element": "H" 
			},
			{
				"x": -1.6518991819,
				"y": 2.8963573042,
				"z": -1.6027772688,
				"element": "H" 
			},
			{
				"x": -1.8203874086,
				"y": 0.7477874801,
				"z": -3.1938366719,
				"element": "H" 
			},
			{
				"x": 1.4473799399,
				"y": 1.9952365112,
				"z": -2.0463976139,
				"element": "H" 
			},
			{
				"x": 2.1066661198,
				"y": 1.9460865773,
				"z": -3.713975111,
				"element": "H" 
			}
		],
		 "valence_orbital": [ 
			{
				"type": "occ",
				"energy": -0.31085,
				"method": "rhf"
			},
			{
				"type": "occ",
				"energy": -0.30376,
				"method": "rhf"
			},
			{
				"type": "occ",
				"energy": -0.29412,
				"method": "rhf"
			},
			{
				"type": "occ",
				"energy": -0.27698,
				"method": "rhf"
			},
			{
				"type": "occ",
				"energy": -0.26482,
				"method": "rhf"
			},
			{
				"type": "unocc",
				"energy": -0.02885,
				"method": "rhf"
			},
			{
				"type": "unocc",
				"energy": 0.02944,
				"method": "rhf"
			},
			{
				"type": "unocc",
				"energy": 0.04618,
				"method": "rhf"
			},
			{
				"type": "unocc",
				"energy": 0.07602,
				"method": "rhf"
			},
			{
				"type": "unocc",
				"energy": 0.08839,
				"method": "rhf"
			}
		],
		"cosmo_sigma_profile": { 
			"-0.025": 0.0,
			"-0.024": 0.0,
			"-0.023": 0.0,
			"-0.022": 0.0,
			"-0.021": 0.0,
			"-0.02": 0.0,
			"-0.019": 0.0,
			"-0.018": 0.0,
			"-0.017": 0.0,
			"-0.016": 0.0,
			"-0.015": 1.50493496445,
			"-0.014": 2.13405038166,
			"-0.013": 1.59015345604,
			"-0.012": 1.57035662568,
			"-0.011": 2.24492710696,
			"-0.01": 1.23911040648,
			"-0.009": 2.47129104557,
			"-0.008": 5.03942305861,
			"-0.007": 6.18384268641,
			"-0.006": 6.85626845663,
			"-0.005": 8.86920910774,
			"-0.004": 21.0627496544,
			"-0.003": 18.0844095171,
			"-0.002": 20.7658812271,
			"-0.001": 19.3955670452,
			"0.0": 23.4932459136,
			"0.001": 12.6452338243,
			"0.002": 10.6122247464,
			"0.003": 11.3125865738,
			"0.004": 9.5233827477,
			"0.005": 11.2263673163,
			"0.006": 6.07827397759,
			"0.007": 2.15677202686,
			"0.008": 1.89353746796,
			"0.009": 3.15217134541,
			"0.01": 3.17530299781,
			"0.011": 5.55295912643,
			"0.012": 9.50743217852,
			"0.013": 4.26651300337,
			"0.014": 0.0,
			"0.015": 0.0,
			"0.016": 0.0,
			"0.017": 0.0,
			"0.018": 0.0,
			"0.019": 0.0,
			"0.02": 0.0,
			"0.021": 0.0,
			"0.022": 0.0,
			"0.023": 0.0,
			"0.024": 0.0,
			"0.025": 0.0
		}
	}
}
