{
	 "smiles": "[O-][N+](=O)C1=C(C=C(F)C(F)=C1)[N+]([O-])=O", 
	 "Tm": 354.15, 
	 "num_atms": 16, 
	 "gaussian": { 
		 "optdone": 1, 
		 "sigma_profile": "yes", 
		 "theory": "DFT", 
		 "functional": "B3LYP", 
		 "basiset": "6-31G**", 
		 "properties": { 
			 "R2extent": 2882.247, 
			 "electric_dipole_moment_norm": 4.36729047465, 
			 "electric_quadrupole_moment_norm": 6.40677294978, 
			 "total_energy": -839.672557236, 
			 "HOMO_LUMO_gap": 0.17312, 
			 "cosmo_polarized_energy": -11.47, 
			 "cosmo_cavitation_energy": 24.06, 
			 "cosmo_dispersion_energy": -16.92, 
			 "cosmo_repulsion_energy": 1.28, 
			 "cosmo_total_nonelectrostatic_energy": 8.41, 
			 "SMD_solvation_energy": 9.88 
		},
		"coords": [
			{
				"x": 0.1383740026,
				"y": -1.7538411928,
				"z": 1.3797023889,
				"element": "O" 
			},
			{
				"x": 0.3978482622,
				"y": -1.9483848363,
				"z": 0.1990816806,
				"element": "N" 
			},
			{
				"x": 0.7979606029,
				"y": -2.9979047006,
				"z": -0.2955179112,
				"element": "O" 
			},
			{
				"x": 0.2868743238,
				"y": -0.7906792295,
				"z": -0.7090205689,
				"element": "C" 
			},
			{
				"x": -0.6990216776,
				"y": 0.1900148428,
				"z": -0.56784115,
				"element": "C" 
			},
			{
				"x": -0.6721314252,
				"y": 1.3329865098,
				"z": -1.3617593281,
				"element": "C" 
			},
			{
				"x": 0.3347731731,
				"y": 1.4789242293,
				"z": -2.3048155972,
				"element": "C" 
			},
			{
				"x": 0.3795445338,
				"y": 2.561498234,
				"z": -3.0820649907,
				"element": "F" 
			},
			{
				"x": 1.3058999772,
				"y": 0.4865628454,
				"z": -2.4632074655,
				"element": "C" 
			},
			{
				"x": 2.2583607733,
				"y": 0.6505628796,
				"z": -3.3819095963,
				"element": "F" 
			},
			{
				"x": 1.2887124434,
				"y": -0.6476927177,
				"z": -1.6646549286,
				"element": "C" 
			},
			{
				"x": -1.8661611956,
				"y": 0.0274896027,
				"z": 0.3202358537,
				"element": "N" 
			},
			{
				"x": -2.292242034,
				"y": 1.0445559581,
				"z": 0.8589805947,
				"element": "O" 
			},
			{
				"x": -2.3485510893,
				"y": -1.0948145861,
				"z": 0.4022282487,
				"element": "O" 
			},
			{
				"x": -1.4356529101,
				"y": 2.0928600637,
				"z": -1.2499954875,
				"element": "H" 
			},
			{
				"x": 2.0509122395,
				"y": -1.4092379023,
				"z": -1.7741417425,
				"element": "H" 
			}
		],
		 "valence_orbital": [ 
			{
				"type": "occ",
				"energy": -0.32945,
				"method": "rhf"
			},
			{
				"type": "occ",
				"energy": -0.3293,
				"method": "rhf"
			},
			{
				"type": "occ",
				"energy": -0.32162,
				"method": "rhf"
			},
			{
				"type": "occ",
				"energy": -0.30967,
				"method": "rhf"
			},
			{
				"type": "occ",
				"energy": -0.29434,
				"method": "rhf"
			},
			{
				"type": "unocc",
				"energy": -0.12122,
				"method": "rhf"
			},
			{
				"type": "unocc",
				"energy": -0.09555,
				"method": "rhf"
			},
			{
				"type": "unocc",
				"energy": -0.05787,
				"method": "rhf"
			},
			{
				"type": "unocc",
				"energy": -0.03363,
				"method": "rhf"
			},
			{
				"type": "unocc",
				"energy": 0.02511,
				"method": "rhf"
			}
		],
		"cosmo_sigma_profile": { 
			"-0.025": 0.0,
			"-0.024": 0.0,
			"-0.023": 0.0,
			"-0.022": 0.0,
			"-0.021": 0.0,
			"-0.02": 0.0,
			"-0.019": 0.0,
			"-0.018": 0.0,
			"-0.017": 0.0,
			"-0.016": 0.0,
			"-0.015": 0.0,
			"-0.014": 0.0,
			"-0.013": 0.0,
			"-0.012": 0.196646554289,
			"-0.011": 2.21294477273,
			"-0.01": 3.32016206477,
			"-0.009": 5.53776856425,
			"-0.008": 4.19961138276,
			"-0.007": 4.12663683432,
			"-0.006": 9.1199022381,
			"-0.005": 13.8947109213,
			"-0.004": 17.9156517824,
			"-0.003": 11.2368946573,
			"-0.002": 10.0552716438,
			"-0.001": 7.17463843262,
			"0.0": 8.93644839994,
			"0.001": 10.961454624,
			"0.002": 23.77960358,
			"0.003": 6.15810367036,
			"0.004": 6.0436753384,
			"0.005": 9.45369416883,
			"0.006": 19.3411265671,
			"0.007": 12.5511103959,
			"0.008": 6.85165747525,
			"0.009": 2.00884888665,
			"0.01": 0.0,
			"0.011": 0.0,
			"0.012": 0.0,
			"0.013": 0.0,
			"0.014": 0.0,
			"0.015": 0.0,
			"0.016": 0.0,
			"0.017": 0.0,
			"0.018": 0.0,
			"0.019": 0.0,
			"0.02": 0.0,
			"0.021": 0.0,
			"0.022": 0.0,
			"0.023": 0.0,
			"0.024": 0.0,
			"0.025": 0.0
		}
	}
}
