{
	 "smiles": "NC1=CC=C(C=C1)C1=NC=NO1", 
	 "Tm": 373.15, 
	 "num_atms": 19, 
	 "gaussian": { 
		 "optdone": 1, 
		 "sigma_profile": "yes", 
		 "theory": "DFT", 
		 "functional": "B3LYP", 
		 "basiset": "6-31G**", 
		 "properties": { 
			 "R2extent": 2450.0104, 
			 "electric_dipole_moment_norm": 5.04632408492, 
			 "electric_quadrupole_moment_norm": 11.1248177738, 
			 "total_energy": -548.514055748, 
			 "HOMO_LUMO_gap": 0.16817, 
			 "cosmo_polarized_energy": -13.49, 
			 "cosmo_cavitation_energy": 24.01, 
			 "cosmo_dispersion_energy": -18.04, 
			 "cosmo_repulsion_energy": 1.42, 
			 "cosmo_total_nonelectrostatic_energy": 7.38, 
			 "SMD_solvation_energy": 2.6 
		},
		"coords": [
			{
				"x": 1.4764948394,
				"y": -3.1423402369,
				"z": 1.5737996371,
				"element": "N" 
			},
			{
				"x": 0.9227809108,
				"y": -1.9773805751,
				"z": 1.07249377,
				"element": "C" 
			},
			{
				"x": -0.1353120748,
				"y": -1.3352901702,
				"z": 1.7468027827,
				"element": "C" 
			},
			{
				"x": -0.722316542,
				"y": -0.1962480387,
				"z": 1.2177217718,
				"element": "C" 
			},
			{
				"x": -0.2736422226,
				"y": 0.3409145736,
				"z": -0.0011442481,
				"element": "C" 
			},
			{
				"x": 0.7811097639,
				"y": -0.2984350284,
				"z": -0.6761797556,
				"element": "C" 
			},
			{
				"x": 1.3699983885,
				"y": -1.4367557538,
				"z": -0.1507021006,
				"element": "C" 
			},
			{
				"x": -0.8708115014,
				"y": 1.5352519987,
				"z": -0.5731550385,
				"element": "C" 
			},
			{
				"x": -0.554513662,
				"y": 2.1439031128,
				"z": -1.6928606619,
				"element": "N" 
			},
			{
				"x": -1.4390801604,
				"y": 3.1872979137,
				"z": -1.7077151261,
				"element": "C" 
			},
			{
				"x": -2.2607735739,
				"y": 3.2588107562,
				"z": -0.6921946318,
				"element": "N" 
			},
			{
				"x": -1.8822098718,
				"y": 2.1421128134,
				"z": 0.0819143245,
				"element": "O" 
			},
			{
				"x": 1.3454662627,
				"y": -3.3230511025,
				"z": 2.5582169671,
				"element": "H" 
			},
			{
				"x": 2.3942328843,
				"y": -3.3929082227,
				"z": 1.2363467749,
				"element": "H" 
			},
			{
				"x": -0.4940417387,
				"y": -1.7419853111,
				"z": 2.6886653852,
				"element": "H" 
			},
			{
				"x": -1.5345059564,
				"y": 0.2878362662,
				"z": 1.7499137183,
				"element": "H" 
			},
			{
				"x": 1.1291257392,
				"y": 0.1161777252,
				"z": -1.6163784818,
				"element": "H" 
			},
			{
				"x": 2.1824510139,
				"y": -1.9229997296,
				"z": -0.6844318805,
				"element": "H" 
			},
			{
				"x": -1.4760524986,
				"y": 3.9224890093,
				"z": -2.5011132067,
				"element": "H" 
			}
		],
		 "valence_orbital": [ 
			{
				"type": "occ",
				"energy": -0.32303,
				"method": "rhf"
			},
			{
				"type": "occ",
				"energy": -0.28813,
				"method": "rhf"
			},
			{
				"type": "occ",
				"energy": -0.28184,
				"method": "rhf"
			},
			{
				"type": "occ",
				"energy": -0.26292,
				"method": "rhf"
			},
			{
				"type": "occ",
				"energy": -0.21215,
				"method": "rhf"
			},
			{
				"type": "unocc",
				"energy": -0.04398,
				"method": "rhf"
			},
			{
				"type": "unocc",
				"energy": -0.01065,
				"method": "rhf"
			},
			{
				"type": "unocc",
				"energy": 0.02549,
				"method": "rhf"
			},
			{
				"type": "unocc",
				"energy": 0.06373,
				"method": "rhf"
			},
			{
				"type": "unocc",
				"energy": 0.07749,
				"method": "rhf"
			}
		],
		"cosmo_sigma_profile": { 
			"-0.025": 0.0,
			"-0.024": 0.0,
			"-0.023": 0.0,
			"-0.022": 0.0,
			"-0.021": 0.0,
			"-0.02": 0.0,
			"-0.019": 0.0,
			"-0.018": 0.0,
			"-0.017": 0.0,
			"-0.016": 0.0,
			"-0.015": 0.0,
			"-0.014": 0.513185687346,
			"-0.013": 2.28276708985,
			"-0.012": 3.38301273578,
			"-0.011": 2.9035860458,
			"-0.01": 4.91877787525,
			"-0.009": 5.35012604708,
			"-0.008": 4.50236068961,
			"-0.007": 5.24904098829,
			"-0.006": 8.70071849833,
			"-0.005": 8.92920325694,
			"-0.004": 8.05717849472,
			"-0.003": 8.26835044156,
			"-0.002": 9.65084273946,
			"-0.001": 12.6734334616,
			"0.0": 12.8996519522,
			"0.001": 11.0322605157,
			"0.002": 14.1714483844,
			"0.003": 12.1171841494,
			"0.004": 18.303750715,
			"0.005": 8.88295361867,
			"0.006": 5.25807728609,
			"0.007": 6.35158981161,
			"0.008": 3.71832911796,
			"0.009": 2.80136727548,
			"0.01": 3.38689370487,
			"0.011": 3.22962299077,
			"0.012": 2.61993914113,
			"0.013": 2.1034348808,
			"0.014": 0.729384687234,
			"0.015": 0.0,
			"0.016": 0.0,
			"0.017": 0.0,
			"0.018": 0.0,
			"0.019": 0.0,
			"0.02": 0.0,
			"0.021": 0.0,
			"0.022": 0.0,
			"0.023": 0.0,
			"0.024": 0.0,
			"0.025": 0.0
		}
	}
}
