{
	 "smiles": "CC(C)(C)OC(=O)N1CCC(CC1)OC(=O)C1=CC=C(N)C=C1", 
	 "Tm": 421.15, 
	 "num_atms": 47, 
	 "gaussian": { 
		 "optdone": 1, 
		 "sigma_profile": "yes", 
		 "theory": "DFT", 
		 "functional": "B3LYP", 
		 "basiset": "6-31G**", 
		 "properties": { 
			 "R2extent": 14123.2878, 
			 "electric_dipole_moment_norm": 3.68514975137, 
			 "electric_quadrupole_moment_norm": 44.3498279215, 
			 "total_energy": -1072.73807307, 
			 "HOMO_LUMO_gap": 0.18349, 
			 "cosmo_polarized_energy": -19.5, 
			 "cosmo_cavitation_energy": 48.56, 
			 "cosmo_dispersion_energy": -33.88, 
			 "cosmo_repulsion_energy": 2.59, 
			 "cosmo_total_nonelectrostatic_energy": 17.27, 
			 "SMD_solvation_energy": 8.82 
		},
		"coords": [
			{
				"x": 1.4763111734,
				"y": -4.8656658659,
				"z": 3.4737811587,
				"element": "C" 
			},
			{
				"x": 1.144269749,
				"y": -3.5785894735,
				"z": 4.2369840799,
				"element": "C" 
			},
			{
				"x": -0.0739553255,
				"y": -3.7448404195,
				"z": 5.152302017,
				"element": "C" 
			},
			{
				"x": 2.3581700659,
				"y": -3.0936831724,
				"z": 5.0347788764,
				"element": "C" 
			},
			{
				"x": 0.9201453212,
				"y": -2.473647093,
				"z": 3.2947288588,
				"element": "O" 
			},
			{
				"x": -0.0844375983,
				"y": -2.5302849148,
				"z": 2.3818156889,
				"element": "C" 
			},
			{
				"x": -0.8911883594,
				"y": -3.4448543985,
				"z": 2.2684296729,
				"element": "O" 
			},
			{
				"x": -0.0779357332,
				"y": -1.4129257249,
				"z": 1.5918540036,
				"element": "N" 
			},
			{
				"x": 0.8824734954,
				"y": -0.3149096699,
				"z": 1.772554953,
				"element": "C" 
			},
			{
				"x": 0.9051312005,
				"y": 0.5719910677,
				"z": 0.5257436694,
				"element": "C" 
			},
			{
				"x": -0.4744276257,
				"y": 1.1812108469,
				"z": 0.2218284322,
				"element": "C" 
			},
			{
				"x": -1.6142741185,
				"y": 0.2168883491,
				"z": 0.5928817149,
				"element": "C" 
			},
			{
				"x": -1.1572358172,
				"y": -1.2430108169,
				"z": 0.6127849625,
				"element": "C" 
			},
			{
				"x": -0.5847773935,
				"y": 1.4512791986,
				"z": -1.1991938658,
				"element": "O" 
			},
			{
				"x": -0.0053830188,
				"y": 2.5972264403,
				"z": -1.6466340397,
				"element": "C" 
			},
			{
				"x": 0.5949477949,
				"y": 3.3657296018,
				"z": -0.914672424,
				"element": "O" 
			},
			{
				"x": -0.1927528347,
				"y": 2.7959057308,
				"z": -3.1006929174,
				"element": "C" 
			},
			{
				"x": 0.3554749492,
				"y": 3.945853997,
				"z": -3.6907772519,
				"element": "C" 
			},
			{
				"x": 0.2152003903,
				"y": 4.1863638751,
				"z": -5.0483041773,
				"element": "C" 
			},
			{
				"x": -0.4842223827,
				"y": 3.2757186976,
				"z": -5.8662122596,
				"element": "C" 
			},
			{
				"x": -0.6700760516,
				"y": 3.5355098395,
				"z": -7.2140045134,
				"element": "N" 
			},
			{
				"x": -1.0343128113,
				"y": 2.1212232432,
				"z": -5.2740364097,
				"element": "C" 
			},
			{
				"x": -0.8900087732,
				"y": 1.8883553368,
				"z": -3.913986542,
				"element": "C" 
			},
			{
				"x": 2.3246550389,
				"y": -4.6999312249,
				"z": 2.8018566701,
				"element": "H" 
			},
			{
				"x": 0.6210309563,
				"y": -5.202385555,
				"z": 2.8878820095,
				"element": "H" 
			},
			{
				"x": 1.7539462139,
				"y": -5.6525601249,
				"z": 4.1828229152,
				"element": "H" 
			},
			{
				"x": 0.1436816749,
				"y": -4.4916028882,
				"z": 5.9230402717,
				"element": "H" 
			},
			{
				"x": -0.9462505464,
				"y": -4.0660159791,
				"z": 4.5830898627,
				"element": "H" 
			},
			{
				"x": -0.3041188786,
				"y": -2.7984461112,
				"z": 5.6522550421,
				"element": "H" 
			},
			{
				"x": 2.6326972177,
				"y": -3.8355992651,
				"z": 5.7906184861,
				"element": "H" 
			},
			{
				"x": 2.1355941639,
				"y": -2.1495921901,
				"z": 5.5406350537,
				"element": "H" 
			},
			{
				"x": 3.2170293252,
				"y": -2.9372826877,
				"z": 4.3753497978,
				"element": "H" 
			},
			{
				"x": 1.8740530535,
				"y": -0.734892483,
				"z": 1.9516498788,
				"element": "H" 
			},
			{
				"x": 0.6272446564,
				"y": 0.2806172174,
				"z": 2.6619075583,
				"element": "H" 
			},
			{
				"x": 1.2076844778,
				"y": -0.0326213989,
				"z": -0.3370025412,
				"element": "H" 
			},
			{
				"x": 1.6459741539,
				"y": 1.3665747347,
				"z": 0.6412319737,
				"element": "H" 
			},
			{
				"x": -0.5869885818,
				"y": 2.1344857632,
				"z": 0.7445428143,
				"element": "H" 
			},
			{
				"x": -1.9947823381,
				"y": 0.4792981768,
				"z": 1.5866738067,
				"element": "H" 
			},
			{
				"x": -2.4391542628,
				"y": 0.348667836,
				"z": -0.1136604645,
				"element": "H" 
			},
			{
				"x": -1.9680968703,
				"y": -1.9129708656,
				"z": 0.9002192853,
				"element": "H" 
			},
			{
				"x": -0.8225323353,
				"y": -1.5488025318,
				"z": -0.3885736467,
				"element": "H" 
			},
			{
				"x": 0.8947933102,
				"y": 4.6430996531,
				"z": -3.0582453037,
				"element": "H" 
			},
			{
				"x": 0.6421520587,
				"y": 5.0830013342,
				"z": -5.4905582965,
				"element": "H" 
			},
			{
				"x": -0.895076395,
				"y": 2.7458726619,
				"z": -7.8012533121,
				"element": "H" 
			},
			{
				"x": -0.0264140819,
				"y": 4.1840258147,
				"z": -7.6431660236,
				"element": "H" 
			},
			{
				"x": -1.5790651875,
				"y": 1.4120264548,
				"z": -5.8922096544,
				"element": "H" 
			},
			{
				"x": -1.3161931198,
				"y": 0.9951889834,
				"z": -3.4714598706,
				"element": "H" 
			}
		],
		 "valence_orbital": [ 
			{
				"type": "occ",
				"energy": -0.2636,
				"method": "rhf"
			},
			{
				"type": "occ",
				"energy": -0.25554,
				"method": "rhf"
			},
			{
				"type": "occ",
				"energy": -0.25246,
				"method": "rhf"
			},
			{
				"type": "occ",
				"energy": -0.22814,
				"method": "rhf"
			},
			{
				"type": "occ",
				"energy": -0.21285,
				"method": "rhf"
			},
			{
				"type": "unocc",
				"energy": -0.02936,
				"method": "rhf"
			},
			{
				"type": "unocc",
				"energy": -0.00327,
				"method": "rhf"
			},
			{
				"type": "unocc",
				"energy": 0.06092,
				"method": "rhf"
			},
			{
				"type": "unocc",
				"energy": 0.06454,
				"method": "rhf"
			},
			{
				"type": "unocc",
				"energy": 0.07746,
				"method": "rhf"
			}
		],
		"cosmo_sigma_profile": { 
			"-0.025": 0.0,
			"-0.024": 0.0,
			"-0.023": 0.0,
			"-0.022": 0.0,
			"-0.021": 0.0357729771175,
			"-0.02": 0.0884044078825,
			"-0.019": 0.000625508814305,
			"-0.018": 0.0816940321857,
			"-0.017": 0.0799521382539,
			"-0.016": 0.373314753324,
			"-0.015": 0.0450481484225,
			"-0.014": 0.0523869980555,
			"-0.013": 2.254196493,
			"-0.012": 3.15527463816,
			"-0.011": 2.62756030584,
			"-0.01": 3.94516773326,
			"-0.009": 3.61854858798,
			"-0.008": 3.22675403076,
			"-0.007": 2.83133213043,
			"-0.006": 5.13195324265,
			"-0.005": 12.3856683417,
			"-0.004": 36.6143024041,
			"-0.003": 41.9615591262,
			"-0.002": 36.3338776418,
			"-0.001": 34.6012154175,
			"0.0": 37.2688254161,
			"0.001": 33.8630048308,
			"0.002": 21.2073009673,
			"0.003": 19.1556313073,
			"0.004": 19.9673543551,
			"0.005": 18.1228324691,
			"0.006": 6.63800800647,
			"0.007": 5.70535116753,
			"0.008": 3.43130154964,
			"0.009": 3.42094804324,
			"0.01": 3.64148093326,
			"0.011": 3.9417559334,
			"0.012": 5.81166248688,
			"0.013": 4.8566080296,
			"0.014": 2.62728494152,
			"0.015": 0.263773181248,
			"0.016": 0.15097339673,
			"0.017": 0.24487892827,
			"0.018": 0.0,
			"0.019": 0.125674726055,
			"0.02": 0.0980787959445,
			"0.021": 0.0,
			"0.022": 0.0,
			"0.023": 0.0,
			"0.024": 0.0,
			"0.025": 0.0
		}
	}
}
