{
	 "smiles": "CS(=O)(=O)C1=CC=C(C=C1)C1=NC(CCl)=CO1", 
	 "Tm": 403.15, 
	 "num_atms": 27, 
	 "gaussian": { 
		 "optdone": 1, 
		 "sigma_profile": "yes", 
		 "theory": "DFT", 
		 "functional": "B3LYP", 
		 "basiset": "6-31G**", 
		 "properties": { 
			 "R2extent": 8784.4265, 
			 "electric_dipole_moment_norm": 4.14158029863, 
			 "electric_quadrupole_moment_norm": 45.3024901036, 
			 "total_energy": -1563.93072965, 
			 "HOMO_LUMO_gap": 0.17285, 
			 "cosmo_polarized_energy": -19.87, 
			 "cosmo_cavitation_energy": 35.62, 
			 "cosmo_dispersion_energy": -26.27, 
			 "cosmo_repulsion_energy": 2.0, 
			 "cosmo_total_nonelectrostatic_energy": 11.35, 
			 "SMD_solvation_energy": 4.72 
		},
		"coords": [
			{
				"x": 2.494011449,
				"y": 3.8230427253,
				"z": -2.2584416181,
				"element": "C" 
			},
			{
				"x": 1.535422146,
				"y": 2.8420239491,
				"z": -3.4381388656,
				"element": "S" 
			},
			{
				"x": 2.4474604423,
				"y": 2.4331583525,
				"z": -4.5174676117,
				"element": "O" 
			},
			{
				"x": 0.2957198216,
				"y": 3.5805640478,
				"z": -3.7225249285,
				"element": "O" 
			},
			{
				"x": 1.0959789884,
				"y": 1.3669362294,
				"z": -2.5014034949,
				"element": "C" 
			},
			{
				"x": -0.0824209327,
				"y": 1.357938059,
				"z": -1.7499773162,
				"element": "C" 
			},
			{
				"x": -0.4158441379,
				"y": 0.2204419288,
				"z": -1.0234160739,
				"element": "C" 
			},
			{
				"x": 0.4234779123,
				"y": -0.9065427215,
				"z": -1.0538566944,
				"element": "C" 
			},
			{
				"x": 1.5964783071,
				"y": -0.8866040983,
				"z": -1.8257030589,
				"element": "C" 
			},
			{
				"x": 1.9338011755,
				"y": 0.2515711747,
				"z": -2.5528746012,
				"element": "C" 
			},
			{
				"x": 0.048496157,
				"y": -2.0862748706,
				"z": -0.2802739095,
				"element": "C" 
			},
			{
				"x": -1.0013122311,
				"y": -2.2555211292,
				"z": 0.471378329,
				"element": "N" 
			},
			{
				"x": -0.8831433281,
				"y": -3.5429396234,
				"z": 0.9723553205,
				"element": "C" 
			},
			{
				"x": -1.8935915811,
				"y": -4.1332987924,
				"z": 1.8847711744,
				"element": "C" 
			},
			{
				"x": -1.6577646631,
				"y": -3.6083275895,
				"z": 3.6236780498,
				"element": "Cl" 
			},
			{
				"x": 0.2606973073,
				"y": -4.0992510048,
				"z": 0.4844002054,
				"element": "C" 
			},
			{
				"x": 0.8684467327,
				"y": -3.1802421462,
				"z": -0.3196575222,
				"element": "O" 
			},
			{
				"x": 2.7829008056,
				"y": 4.7347891965,
				"z": -2.7855472605,
				"element": "H" 
			},
			{
				"x": 1.8681882577,
				"y": 4.0639535083,
				"z": -1.3980986998,
				"element": "H" 
			},
			{
				"x": 3.3793452633,
				"y": 3.2608110427,
				"z": -1.9585188247,
				"element": "H" 
			},
			{
				"x": -0.7329341364,
				"y": 2.2260417585,
				"z": -1.7565222803,
				"element": "H" 
			},
			{
				"x": -1.3242103774,
				"y": 0.1836727542,
				"z": -0.4322581796,
				"element": "H" 
			},
			{
				"x": 2.2347483599,
				"y": -1.7625829995,
				"z": -1.8582701184,
				"element": "H" 
			},
			{
				"x": 2.8241963036,
				"y": 0.2753313405,
				"z": -3.1719586461,
				"element": "H" 
			},
			{
				"x": -2.8968594776,
				"y": -3.8074830152,
				"z": 1.6122203106,
				"element": "H" 
			},
			{
				"x": -1.844797725,
				"y": -5.2218434414,
				"z": 1.8900082865,
				"element": "H" 
			},
			{
				"x": 0.752309161,
				"y": -5.0520646353,
				"z": 0.5974980283,
				"element": "H" 
			}
		],
		 "valence_orbital": [ 
			{
				"type": "occ",
				"energy": -0.3001,
				"method": "rhf"
			},
			{
				"type": "occ",
				"energy": -0.29851,
				"method": "rhf"
			},
			{
				"type": "occ",
				"energy": -0.28953,
				"method": "rhf"
			},
			{
				"type": "occ",
				"energy": -0.28167,
				"method": "rhf"
			},
			{
				"type": "occ",
				"energy": -0.24755,
				"method": "rhf"
			},
			{
				"type": "unocc",
				"energy": -0.0747,
				"method": "rhf"
			},
			{
				"type": "unocc",
				"energy": -0.03209,
				"method": "rhf"
			},
			{
				"type": "unocc",
				"energy": -0.02253,
				"method": "rhf"
			},
			{
				"type": "unocc",
				"energy": 0.0188,
				"method": "rhf"
			},
			{
				"type": "unocc",
				"energy": 0.0591,
				"method": "rhf"
			}
		],
		"cosmo_sigma_profile": { 
			"-0.025": 0.0,
			"-0.024": 0.0,
			"-0.023": 0.0,
			"-0.022": 0.0,
			"-0.021": 0.0,
			"-0.02": 0.0,
			"-0.019": 0.0,
			"-0.018": 0.0,
			"-0.017": 0.0,
			"-0.016": 0.0,
			"-0.015": 0.0,
			"-0.014": 0.0,
			"-0.013": 0.0,
			"-0.012": 0.0,
			"-0.011": 1.33102648333,
			"-0.01": 2.2218471686,
			"-0.009": 6.8834037798,
			"-0.008": 13.194341206,
			"-0.007": 17.0154879584,
			"-0.006": 17.6871599131,
			"-0.005": 17.2208721249,
			"-0.004": 15.7083569527,
			"-0.003": 14.8064265184,
			"-0.002": 17.0383115558,
			"-0.001": 17.9171813027,
			"0.0": 20.5951583949,
			"0.001": 23.5815640444,
			"0.002": 17.1739014512,
			"0.003": 9.9466824717,
			"0.004": 10.2251629213,
			"0.005": 10.1954098415,
			"0.006": 14.0431537795,
			"0.007": 7.54850468816,
			"0.008": 4.04007879953,
			"0.009": 4.49714082106,
			"0.01": 5.68555064349,
			"0.011": 9.8052181068,
			"0.012": 8.98287562065,
			"0.013": 0.84851684902,
			"0.014": 0.0,
			"0.015": 0.0,
			"0.016": 0.0,
			"0.017": 0.0,
			"0.018": 0.0,
			"0.019": 0.0,
			"0.02": 0.0,
			"0.021": 0.0,
			"0.022": 0.0,
			"0.023": 0.0,
			"0.024": 0.0,
			"0.025": 0.0
		}
	}
}
