{
	 "smiles": "CN1CCN(C)C(C1)C(=O)NN", 
	 "Tm": 386.15, 
	 "num_atms": 28, 
	 "gaussian": { 
		 "optdone": 1, 
		 "sigma_profile": "yes", 
		 "theory": "DFT", 
		 "functional": "B3LYP", 
		 "basiset": "6-31G**", 
		 "properties": { 
			 "R2extent": 2731.2065, 
			 "electric_dipole_moment_norm": 2.33468586752, 
			 "electric_quadrupole_moment_norm": 11.58586327, 
			 "total_energy": -570.5596462, 
			 "HOMO_LUMO_gap": 0.20746, 
			 "cosmo_polarized_energy": -16.0, 
			 "cosmo_cavitation_energy": 28.76, 
			 "cosmo_dispersion_energy": -20.7, 
			 "cosmo_repulsion_energy": 1.67, 
			 "cosmo_total_nonelectrostatic_energy": 9.72, 
			 "SMD_solvation_energy": 1.5 
		},
		"coords": [
			{
				"x": -0.0340768327,
				"y": -2.1157927081,
				"z": 1.422681226,
				"element": "C" 
			},
			{
				"x": 0.0953613873,
				"y": -1.0627600721,
				"z": 0.4324108689,
				"element": "N" 
			},
			{
				"x": -1.1974577801,
				"y": -0.7072684232,
				"z": -0.1659862639,
				"element": "C" 
			},
			{
				"x": -1.1354292309,
				"y": 0.6743459432,
				"z": -0.8511788599,
				"element": "C" 
			},
			{
				"x": 0.2173663346,
				"y": 0.9166929713,
				"z": -1.338434968,
				"element": "N" 
			},
			{
				"x": 0.330915691,
				"y": 1.9183479107,
				"z": -2.3852474266,
				"element": "C" 
			},
			{
				"x": 1.2094809864,
				"y": 1.0152044928,
				"z": -0.2719633482,
				"element": "C" 
			},
			{
				"x": 0.7902692805,
				"y": 0.1134468917,
				"z": 0.9218648919,
				"element": "C" 
			},
			{
				"x": 1.4006731686,
				"y": 2.4456100739,
				"z": 0.2699001969,
				"element": "C" 
			},
			{
				"x": 0.4577190831,
				"y": 3.2122673938,
				"z": 0.4357132634,
				"element": "O" 
			},
			{
				"x": 2.6783894065,
				"y": 2.8478258318,
				"z": 0.5773996249,
				"element": "N" 
			},
			{
				"x": 3.866766084,
				"y": 2.1022113537,
				"z": 0.5434945727,
				"element": "N" 
			},
			{
				"x": -0.6416447413,
				"y": -1.8260168646,
				"z": 2.3028003539,
				"element": "H" 
			},
			{
				"x": -0.5105819129,
				"y": -2.9893293299,
				"z": 0.9645588858,
				"element": "H" 
			},
			{
				"x": 0.955925138,
				"y": -2.4214813324,
				"z": 1.7782468372,
				"element": "H" 
			},
			{
				"x": -2.0034549289,
				"y": -0.6864344567,
				"z": 0.5926409876,
				"element": "H" 
			},
			{
				"x": -1.4567136469,
				"y": -1.4864770225,
				"z": -0.8933803441,
				"element": "H" 
			},
			{
				"x": -1.4808116731,
				"y": 1.4673102319,
				"z": -0.1704734101,
				"element": "H" 
			},
			{
				"x": -1.8143310531,
				"y": 0.6778499356,
				"z": -1.7102185371,
				"element": "H" 
			},
			{
				"x": -0.3002807981,
				"y": 1.6258820567,
				"z": -3.231369255,
				"element": "H" 
			},
			{
				"x": 1.3673079748,
				"y": 1.9512846336,
				"z": -2.7441695343,
				"element": "H" 
			},
			{
				"x": 0.0456330752,
				"y": 2.9345809948,
				"z": -2.0706336172,
				"element": "H" 
			},
			{
				"x": 2.1602980477,
				"y": 0.6440618998,
				"z": -0.6759618783,
				"element": "H" 
			},
			{
				"x": 0.1810340187,
				"y": 0.7046404789,
				"z": 1.6321599051,
				"element": "H" 
			},
			{
				"x": 1.6875267579,
				"y": -0.2040381433,
				"z": 1.4661068422,
				"element": "H" 
			},
			{
				"x": 2.7609541566,
				"y": 3.778893442,
				"z": 0.9666381736,
				"element": "H" 
			},
			{
				"x": 4.0937092021,
				"y": 1.8355108835,
				"z": -0.4108537498,
				"element": "H" 
			},
			{
				"x": 3.7841528052,
				"y": 1.2620309332,
				"z": 1.1096545624,
				"element": "H" 
			}
		],
		 "valence_orbital": [ 
			{
				"type": "occ",
				"energy": -0.29191,
				"method": "rhf"
			},
			{
				"type": "occ",
				"energy": -0.25773,
				"method": "rhf"
			},
			{
				"type": "occ",
				"energy": -0.25374,
				"method": "rhf"
			},
			{
				"type": "occ",
				"energy": -0.21163,
				"method": "rhf"
			},
			{
				"type": "occ",
				"energy": -0.19094,
				"method": "rhf"
			},
			{
				"type": "unocc",
				"energy": 0.01652,
				"method": "rhf"
			},
			{
				"type": "unocc",
				"energy": 0.05093,
				"method": "rhf"
			},
			{
				"type": "unocc",
				"energy": 0.08569,
				"method": "rhf"
			},
			{
				"type": "unocc",
				"energy": 0.10549,
				"method": "rhf"
			},
			{
				"type": "unocc",
				"energy": 0.10829,
				"method": "rhf"
			}
		],
		"cosmo_sigma_profile": { 
			"-0.025": 0.0,
			"-0.024": 0.0,
			"-0.023": 0.0,
			"-0.022": 0.0,
			"-0.021": 0.0,
			"-0.02": 0.0,
			"-0.019": 0.0,
			"-0.018": 0.0,
			"-0.017": 0.0,
			"-0.016": 0.0,
			"-0.015": 0.0,
			"-0.014": 0.0748048979086,
			"-0.013": 0.790265059612,
			"-0.012": 1.71266399542,
			"-0.011": 4.10246899928,
			"-0.01": 6.0566572948,
			"-0.009": 5.25962540018,
			"-0.008": 3.62745167824,
			"-0.007": 4.14123227435,
			"-0.006": 3.82863589033,
			"-0.005": 5.41285799668,
			"-0.004": 13.9064040481,
			"-0.003": 17.7081831633,
			"-0.002": 26.0050059151,
			"-0.001": 34.9159980916,
			"0.0": 26.2639961151,
			"0.001": 10.6901960396,
			"0.002": 6.90959341462,
			"0.003": 5.1930664084,
			"0.004": 4.45350947216,
			"0.005": 2.85430773447,
			"0.006": 4.29113554551,
			"0.007": 3.11074525836,
			"0.008": 3.59039298417,
			"0.009": 2.98957723114,
			"0.01": 2.69901811334,
			"0.011": 3.18318275687,
			"0.012": 3.67974416509,
			"0.013": 3.42420951365,
			"0.014": 6.07125156456,
			"0.015": 2.03525364714,
			"0.016": 1.32783735235,
			"0.017": 0.876687725,
			"0.018": 0.48688663963,
			"0.019": 0.0,
			"0.02": 0.0,
			"0.021": 0.0,
			"0.022": 0.0,
			"0.023": 0.0,
			"0.024": 0.0,
			"0.025": 0.0
		}
	}
}
