{
	 "smiles": "CC(C)C1=CC=C(SCC(O)=O)C=C1", 
	 "Tm": 340.15, 
	 "num_atms": 28, 
	 "gaussian": { 
		 "optdone": 1, 
		 "sigma_profile": "yes", 
		 "theory": "DFT", 
		 "functional": "B3LYP", 
		 "basiset": "6-31G**", 
		 "properties": { 
			 "R2extent": 5133.5795, 
			 "electric_dipole_moment_norm": 4.15522473159, 
			 "electric_quadrupole_moment_norm": 19.1092795118, 
			 "total_energy": -976.264328355, 
			 "HOMO_LUMO_gap": 0.21453, 
			 "cosmo_polarized_energy": -11.84, 
			 "cosmo_cavitation_energy": 32.67, 
			 "cosmo_dispersion_energy": -23.44, 
			 "cosmo_repulsion_energy": 1.83, 
			 "cosmo_total_nonelectrostatic_energy": 11.07, 
			 "SMD_solvation_energy": 6.47 
		},
		"coords": [
			{
				"x": 0.0987833489,
				"y": -3.4267825627,
				"z": -1.9565552642,
				"element": "C" 
			},
			{
				"x": 0.7627111361,
				"y": -2.1838413829,
				"z": -2.5791821899,
				"element": "C" 
			},
			{
				"x": 2.0694205279,
				"y": -2.5573846721,
				"z": -3.3047374353,
				"element": "C" 
			},
			{
				"x": 0.9832971563,
				"y": -1.0859063133,
				"z": -1.5479491483,
				"element": "C" 
			},
			{
				"x": 0.3474814394,
				"y": 0.1547509421,
				"z": -1.6761636831,
				"element": "C" 
			},
			{
				"x": 0.5340680422,
				"y": 1.1680983166,
				"z": -0.7347268062,
				"element": "C" 
			},
			{
				"x": 1.3790626205,
				"y": 0.959073328,
				"z": 0.3599179649,
				"element": "C" 
			},
			{
				"x": 1.6360184322,
				"y": 2.308288662,
				"z": 1.5225216366,
				"element": "S" 
			},
			{
				"x": 0.7978114439,
				"y": 1.6785090743,
				"z": 3.0340265867,
				"element": "C" 
			},
			{
				"x": 1.5943155049,
				"y": 0.68928887,
				"z": 3.8958747935,
				"element": "C" 
			},
			{
				"x": 2.9309489952,
				"y": 0.6794270229,
				"z": 3.71947594,
				"element": "O" 
			},
			{
				"x": 1.0516512005,
				"y": -0.0113857944,
				"z": 4.7132112643,
				"element": "O" 
			},
			{
				"x": 2.035621743,
				"y": -0.2721699263,
				"z": 0.4957662637,
				"element": "C" 
			},
			{
				"x": 1.8270912894,
				"y": -1.2798065645,
				"z": -0.4427598047,
				"element": "C" 
			},
			{
				"x": 0.7463206268,
				"y": -3.8892713331,
				"z": -1.2037106791,
				"element": "H" 
			},
			{
				"x": -0.8475570405,
				"y": -3.1706164342,
				"z": -1.4704284343,
				"element": "H" 
			},
			{
				"x": -0.105280598,
				"y": -4.1791704042,
				"z": -2.7258550126,
				"element": "H" 
			},
			{
				"x": 0.0712541356,
				"y": -1.7824341121,
				"z": -3.3314907136,
				"element": "H" 
			},
			{
				"x": 1.8768749264,
				"y": -3.3041075884,
				"z": -4.0824647785,
				"element": "H" 
			},
			{
				"x": 2.5258697851,
				"y": -1.6823303642,
				"z": -3.7775347258,
				"element": "H" 
			},
			{
				"x": 2.8026162812,
				"y": -2.9829795672,
				"z": -2.610934095,
				"element": "H" 
			},
			{
				"x": -0.3110348015,
				"y": 0.3319161104,
				"z": -2.5229158205,
				"element": "H" 
			},
			{
				"x": 0.0244930362,
				"y": 2.1198744483,
				"z": -0.8476783809,
				"element": "H" 
			},
			{
				"x": -0.1608907613,
				"y": 1.2241319507,
				"z": 2.7809353553,
				"element": "H" 
			},
			{
				"x": 0.5940792566,
				"y": 2.5626540719,
				"z": 3.6482661927,
				"element": "H" 
			},
			{
				"x": 3.1485501874,
				"y": 1.3021616864,
				"z": 2.9972675277,
				"element": "H" 
			},
			{
				"x": 2.7017685912,
				"y": -0.4466634001,
				"z": 1.3344521339,
				"element": "H" 
			},
			{
				"x": 2.3396534941,
				"y": -2.228924064,
				"z": -0.3128286873,
				"element": "H" 
			}
		],
		 "valence_orbital": [ 
			{
				"type": "occ",
				"energy": -0.31422,
				"method": "rhf"
			},
			{
				"type": "occ",
				"energy": -0.29009,
				"method": "rhf"
			},
			{
				"type": "occ",
				"energy": -0.26511,
				"method": "rhf"
			},
			{
				"type": "occ",
				"energy": -0.25721,
				"method": "rhf"
			},
			{
				"type": "occ",
				"energy": -0.24495,
				"method": "rhf"
			},
			{
				"type": "unocc",
				"energy": -0.03042,
				"method": "rhf"
			},
			{
				"type": "unocc",
				"energy": -0.01857,
				"method": "rhf"
			},
			{
				"type": "unocc",
				"energy": 0.00907,
				"method": "rhf"
			},
			{
				"type": "unocc",
				"energy": 0.03125,
				"method": "rhf"
			},
			{
				"type": "unocc",
				"energy": 0.05444,
				"method": "rhf"
			}
		],
		"cosmo_sigma_profile": { 
			"-0.025": 0.0,
			"-0.024": 0.0,
			"-0.023": 0.0,
			"-0.022": 0.0,
			"-0.021": 0.0,
			"-0.02": 0.0,
			"-0.019": 0.0,
			"-0.018": 0.0,
			"-0.017": 0.0,
			"-0.016": 0.0,
			"-0.015": 0.0,
			"-0.014": 0.0,
			"-0.013": 0.305369270783,
			"-0.012": 0.560898232429,
			"-0.011": 0.918158130207,
			"-0.01": 2.82489820443,
			"-0.009": 5.31045414286,
			"-0.008": 4.01609689064,
			"-0.007": 4.2748064759,
			"-0.006": 7.85643473766,
			"-0.005": 14.8537619681,
			"-0.004": 15.9259885337,
			"-0.003": 22.4869206159,
			"-0.002": 23.7026599244,
			"-0.001": 25.5078873204,
			"0.0": 23.164863606,
			"0.001": 27.1697473668,
			"0.002": 14.3341839746,
			"0.003": 12.5844595404,
			"0.004": 14.7698701661,
			"0.005": 9.34565533129,
			"0.006": 3.44929113033,
			"0.007": 3.31532051933,
			"0.008": 2.82148286034,
			"0.009": 3.84588530184,
			"0.01": 5.05444125611,
			"0.011": 4.94887113489,
			"0.012": 4.96835708209,
			"0.013": 1.20579153651,
			"0.014": 0.0,
			"0.015": 0.0,
			"0.016": 0.0,
			"0.017": 0.0,
			"0.018": 0.0,
			"0.019": 0.0,
			"0.02": 0.0,
			"0.021": 0.0,
			"0.022": 0.0,
			"0.023": 0.0,
			"0.024": 0.0,
			"0.025": 0.0
		}
	}
}
