{
	 "smiles": "O=C(C1CCNCC1)N1CCCCC1", 
	 "Tm": 381.15, 
	 "num_atms": 34, 
	 "gaussian": { 
		 "optdone": 1, 
		 "sigma_profile": "yes", 
		 "theory": "DFT", 
		 "functional": "B3LYP", 
		 "basiset": "6-31G**", 
		 "properties": { 
			 "R2extent": 3597.2721, 
			 "electric_dipole_moment_norm": 3.0318318489, 
			 "electric_quadrupole_moment_norm": 4.67933457663, 
			 "total_energy": -615.974300802, 
			 "HOMO_LUMO_gap": 0.23604, 
			 "cosmo_polarized_energy": -10.66, 
			 "cosmo_cavitation_energy": 32.06, 
			 "cosmo_dispersion_energy": -23.78, 
			 "cosmo_repulsion_energy": 1.88, 
			 "cosmo_total_nonelectrostatic_energy": 10.17, 
			 "SMD_solvation_energy": 1.93 
		},
		"coords": [
			{
				"x": 0.443644049,
				"y": -1.6276049142,
				"z": -0.2389373361,
				"element": "O" 
			},
			{
				"x": 0.053234503,
				"y": -0.4742767104,
				"z": -0.4224464754,
				"element": "C" 
			},
			{
				"x": -1.4466163414,
				"y": -0.1424445054,
				"z": -0.4775530882,
				"element": "C" 
			},
			{
				"x": -1.9308315808,
				"y": 0.0658102089,
				"z": -1.9382035848,
				"element": "C" 
			},
			{
				"x": -2.0565418276,
				"y": -1.2634570538,
				"z": -2.6896067147,
				"element": "C" 
			},
			{
				"x": -2.9929488197,
				"y": -2.1317822264,
				"z": -1.9740041941,
				"element": "N" 
			},
			{
				"x": -2.4758642984,
				"y": -2.4980399787,
				"z": -0.648356657,
				"element": "C" 
			},
			{
				"x": -2.2998357694,
				"y": -1.2356876371,
				"z": 0.2050529739,
				"element": "C" 
			},
			{
				"x": 0.953135981,
				"y": 0.5560999394,
				"z": -0.6002947658,
				"element": "N" 
			},
			{
				"x": 0.6469103957,
				"y": 1.9744072782,
				"z": -0.7817261366,
				"element": "C" 
			},
			{
				"x": 1.3161023727,
				"y": 2.8277191964,
				"z": 0.308037952,
				"element": "C" 
			},
			{
				"x": 2.8268227992,
				"y": 2.5592787951,
				"z": 0.3696031908,
				"element": "C" 
			},
			{
				"x": 3.1060704087,
				"y": 1.0556541234,
				"z": 0.5116623919,
				"element": "C" 
			},
			{
				"x": 2.3886685269,
				"y": 0.2556589064,
				"z": -0.5832591272,
				"element": "C" 
			},
			{
				"x": -1.6116781797,
				"y": 0.7901134184,
				"z": 0.0744195578,
				"element": "H" 
			},
			{
				"x": -1.2602522654,
				"y": 0.7393184271,
				"z": -2.4834952056,
				"element": "H" 
			},
			{
				"x": -2.9206856043,
				"y": 0.5363291013,
				"z": -1.9094850793,
				"element": "H" 
			},
			{
				"x": -1.052932247,
				"y": -1.7144161114,
				"z": -2.8059842596,
				"element": "H" 
			},
			{
				"x": -2.4487812386,
				"y": -1.0771796175,
				"z": -3.6960865976,
				"element": "H" 
			},
			{
				"x": -3.1531507369,
				"y": -2.9761566835,
				"z": -2.5167847707,
				"element": "H" 
			},
			{
				"x": -3.205045747,
				"y": -3.1599842274,
				"z": -0.1663458417,
				"element": "H" 
			},
			{
				"x": -1.5135797095,
				"y": -3.0282571966,
				"z": -0.6971578986,
				"element": "H" 
			},
			{
				"x": -3.2910867186,
				"y": -0.807670894,
				"z": 0.3980412596,
				"element": "H" 
			},
			{
				"x": -1.85804584,
				"y": -1.5058788936,
				"z": 1.1690112657,
				"element": "H" 
			},
			{
				"x": 1.0179932998,
				"y": 2.2919020134,
				"z": -1.7693143325,
				"element": "H" 
			},
			{
				"x": -0.4298664388,
				"y": 2.133218169,
				"z": -0.7821423919,
				"element": "H" 
			},
			{
				"x": 1.1172690691,
				"y": 3.8877218899,
				"z": 0.1094081502,
				"element": "H" 
			},
			{
				"x": 0.8567742108,
				"y": 2.5869129902,
				"z": 1.2755365526,
				"element": "H" 
			},
			{
				"x": 3.2957470777,
				"y": 2.9288952208,
				"z": -0.5537429977,
				"element": "H" 
			},
			{
				"x": 3.2808827993,
				"y": 3.1176105412,
				"z": 1.1960929134,
				"element": "H" 
			},
			{
				"x": 2.7585215515,
				"y": 0.7036678951,
				"z": 1.4913130465,
				"element": "H" 
			},
			{
				"x": 4.1830182293,
				"y": 0.8561856431,
				"z": 0.4610486882,
				"element": "H" 
			},
			{
				"x": 2.8125820055,
				"y": 0.512341707,
				"z": -1.5666094681,
				"element": "H" 
			},
			{
				"x": 2.4924660838,
				"y": -0.8184088143,
				"z": -0.4352910193,
				"element": "H" 
			}
		],
		 "valence_orbital": [ 
			{
				"type": "occ",
				"energy": -0.3055,
				"method": "rhf"
			},
			{
				"type": "occ",
				"energy": -0.30318,
				"method": "rhf"
			},
			{
				"type": "occ",
				"energy": -0.23795,
				"method": "rhf"
			},
			{
				"type": "occ",
				"energy": -0.22991,
				"method": "rhf"
			},
			{
				"type": "occ",
				"energy": -0.20629,
				"method": "rhf"
			},
			{
				"type": "unocc",
				"energy": 0.02975,
				"method": "rhf"
			},
			{
				"type": "unocc",
				"energy": 0.0794,
				"method": "rhf"
			},
			{
				"type": "unocc",
				"energy": 0.09717,
				"method": "rhf"
			},
			{
				"type": "unocc",
				"energy": 0.10142,
				"method": "rhf"
			},
			{
				"type": "unocc",
				"energy": 0.11444,
				"method": "rhf"
			}
		],
		"cosmo_sigma_profile": { 
			"-0.025": 0.0,
			"-0.024": 0.0,
			"-0.023": 0.0,
			"-0.022": 0.0,
			"-0.021": 0.0,
			"-0.02": 0.0,
			"-0.019": 0.0,
			"-0.018": 0.0,
			"-0.017": 0.0,
			"-0.016": 0.0,
			"-0.015": 0.0,
			"-0.014": 0.0,
			"-0.013": 0.0,
			"-0.012": 0.0,
			"-0.011": 0.0,
			"-0.01": 0.367751844951,
			"-0.009": 1.44856697727,
			"-0.008": 1.17941989927,
			"-0.007": 1.34222919738,
			"-0.006": 3.13488667492,
			"-0.005": 4.16487343022,
			"-0.004": 11.77712335,
			"-0.003": 35.9007912904,
			"-0.002": 47.8050882678,
			"-0.001": 41.2310511034,
			"0.0": 36.0005261269,
			"0.001": 18.3742474894,
			"0.002": 6.72471601378,
			"0.003": 3.89297107529,
			"0.004": 3.12496204308,
			"0.005": 3.07848759727,
			"0.006": 3.06679513401,
			"0.007": 2.77328832313,
			"0.008": 2.4589950492,
			"0.009": 2.29306218628,
			"0.01": 2.02684773859,
			"0.011": 2.27221256239,
			"0.012": 2.18688945624,
			"0.013": 2.79568926467,
			"0.014": 4.24850617039,
			"0.015": 1.50253034675,
			"0.016": 0.374788197199,
			"0.017": 0.737876240704,
			"0.018": 0.352536253497,
			"0.019": 0.173402428601,
			"0.02": 0.0,
			"0.021": 0.0,
			"0.022": 0.0,
			"0.023": 0.0,
			"0.024": 0.0,
			"0.025": 0.0
		}
	}
}
