{
	 "smiles": "CC1=NC(=C(C=C1C1=NC(=CS1)C1=CC=CC=C1)C(O)=O)C(F)(F)F", 
	 "Tm": 462.15, 
	 "num_atms": 36, 
	 "gaussian": { 
		 "optdone": 1, 
		 "sigma_profile": "yes", 
		 "theory": "DFT", 
		 "functional": "B3LYP", 
		 "basiset": "6-31G**", 
		 "properties": { 
			 "R2extent": 12261.3617, 
			 "electric_dipole_moment_norm": 7.94619482834, 
			 "electric_quadrupole_moment_norm": 9.45240649253, 
			 "total_energy": -1612.10639515, 
			 "HOMO_LUMO_gap": 0.14431, 
			 "cosmo_polarized_energy": -19.64, 
			 "cosmo_cavitation_energy": 44.14, 
			 "cosmo_dispersion_energy": -31.48, 
			 "cosmo_repulsion_energy": 2.26, 
			 "cosmo_total_nonelectrostatic_energy": 14.91, 
			 "SMD_solvation_energy": 7.51 
		},
		"coords": [
			{
				"x": 2.7767520202,
				"y": -2.1332336357,
				"z": 1.9740370811,
				"element": "C" 
			},
			{
				"x": 2.1768340968,
				"y": -1.5717454789,
				"z": 0.7121865901,
				"element": "C" 
			},
			{
				"x": 2.7573520442,
				"y": -2.0030703318,
				"z": -0.4191870734,
				"element": "N" 
			},
			{
				"x": 2.3134663245,
				"y": -1.6136533068,
				"z": -1.6070724372,
				"element": "C" 
			},
			{
				"x": 1.2235388866,
				"y": -0.7370548572,
				"z": -1.7582483887,
				"element": "C" 
			},
			{
				"x": 0.6381596211,
				"y": -0.2585809382,
				"z": -0.5904230228,
				"element": "C" 
			},
			{
				"x": 1.0940828144,
				"y": -0.6597859758,
				"z": 0.6767739561,
				"element": "C" 
			},
			{
				"x": 0.3905844176,
				"y": -0.0865849955,
				"z": 1.8384500404,
				"element": "C" 
			},
			{
				"x": -0.6110348339,
				"y": 0.7437623531,
				"z": 1.6892665241,
				"element": "N" 
			},
			{
				"x": -1.130353526,
				"y": 1.1871231253,
				"z": 2.8823569299,
				"element": "C" 
			},
			{
				"x": -0.500628053,
				"y": 0.6685884736,
				"z": 3.9919991384,
				"element": "C" 
			},
			{
				"x": 0.774324655,
				"y": -0.392632905,
				"z": 3.534700784,
				"element": "S" 
			},
			{
				"x": -2.2701179463,
				"y": 2.1261810844,
				"z": 2.8805620079,
				"element": "C" 
			},
			{
				"x": -2.6417392017,
				"y": 2.8280066095,
				"z": 4.0392247299,
				"element": "C" 
			},
			{
				"x": -3.7282877554,
				"y": 3.6993559368,
				"z": 4.0239647827,
				"element": "C" 
			},
			{
				"x": -4.460656007,
				"y": 3.8899236081,
				"z": 2.8498292053,
				"element": "C" 
			},
			{
				"x": -4.094799193,
				"y": 3.2029105845,
				"z": 1.69088662,
				"element": "C" 
			},
			{
				"x": -3.009119221,
				"y": 2.3292911426,
				"z": 1.7040116784,
				"element": "C" 
			},
			{
				"x": 0.6226505615,
				"y": -0.3720067382,
				"z": -3.0909252947,
				"element": "C" 
			},
			{
				"x": 0.317660649,
				"y": 0.9427026865,
				"z": -3.2470019079,
				"element": "O" 
			},
			{
				"x": 0.3667834498,
				"y": -1.1726216101,
				"z": -3.9519935354,
				"element": "O" 
			},
			{
				"x": 3.0881171103,
				"y": -2.1638922988,
				"z": -2.8015914323,
				"element": "C" 
			},
			{
				"x": 4.3091836569,
				"y": -2.5819965046,
				"z": -2.4391402464,
				"element": "F" 
			},
			{
				"x": 2.4469122457,
				"y": -3.2011133235,
				"z": -3.3654660869,
				"element": "F" 
			},
			{
				"x": 3.2501401511,
				"y": -1.2073775442,
				"z": -3.7436912635,
				"element": "F" 
			},
			{
				"x": 3.5713566365,
				"y": -2.8266855612,
				"z": 1.6978567849,
				"element": "H" 
			},
			{
				"x": 3.2054524106,
				"y": -1.3469778993,
				"z": 2.6061700384,
				"element": "H" 
			},
			{
				"x": 2.0340569172,
				"y": -2.6699575612,
				"z": 2.5748225288,
				"element": "H" 
			},
			{
				"x": -0.2079991255,
				"y": 0.4189855225,
				"z": -0.6308744008,
				"element": "H" 
			},
			{
				"x": -0.7278496542,
				"y": 0.8304302413,
				"z": 5.0353380136,
				"element": "H" 
			},
			{
				"x": -2.0700634984,
				"y": 2.7080776801,
				"z": 4.9547914431,
				"element": "H" 
			},
			{
				"x": -3.9991272171,
				"y": 4.2361001192,
				"z": 4.9285264925,
				"element": "H" 
			},
			{
				"x": -5.3064532114,
				"y": 4.5710181113,
				"z": 2.8384241195,
				"element": "H" 
			},
			{
				"x": -4.6575952227,
				"y": 3.3454207492,
				"z": 0.7728701752,
				"element": "H" 
			},
			{
				"x": -2.7243818517,
				"y": 1.7916264932,
				"z": 0.8067206912,
				"element": "H" 
			},
			{
				"x": 0.6921968493,
				"y": 1.4622669447,
				"z": -2.5212552654,
				"element": "H" 
			}
		],
		 "valence_orbital": [ 
			{
				"type": "occ",
				"energy": -0.28942,
				"method": "rhf"
			},
			{
				"type": "occ",
				"energy": -0.27866,
				"method": "rhf"
			},
			{
				"type": "occ",
				"energy": -0.26997,
				"method": "rhf"
			},
			{
				"type": "occ",
				"energy": -0.26145,
				"method": "rhf"
			},
			{
				"type": "occ",
				"energy": -0.23261,
				"method": "rhf"
			},
			{
				"type": "unocc",
				"energy": -0.0883,
				"method": "rhf"
			},
			{
				"type": "unocc",
				"energy": -0.06078,
				"method": "rhf"
			},
			{
				"type": "unocc",
				"energy": -0.04568,
				"method": "rhf"
			},
			{
				"type": "unocc",
				"energy": -0.01437,
				"method": "rhf"
			},
			{
				"type": "unocc",
				"energy": -0.00854,
				"method": "rhf"
			}
		],
		"cosmo_sigma_profile": { 
			"-0.025": 0.0,
			"-0.024": 0.0,
			"-0.023": 0.0,
			"-0.022": 0.0,
			"-0.021": 0.0,
			"-0.02": 0.0,
			"-0.019": 0.943794000134,
			"-0.018": 0.760385375974,
			"-0.017": 1.36250104636,
			"-0.016": 0.62168499539,
			"-0.015": 0.991378719966,
			"-0.014": 1.23102685708,
			"-0.013": 1.0074683558,
			"-0.012": 1.34344775564,
			"-0.011": 1.02977674869,
			"-0.01": 2.03336033925,
			"-0.009": 3.3426029488,
			"-0.008": 4.93054700754,
			"-0.007": 5.87049316435,
			"-0.006": 13.1730116793,
			"-0.005": 19.4532972295,
			"-0.004": 21.2189716775,
			"-0.003": 25.4093298704,
			"-0.002": 27.7527314608,
			"-0.001": 28.5189468911,
			"0.0": 24.1928229584,
			"0.001": 27.1468889389,
			"0.002": 40.605729305,
			"0.003": 30.0529399336,
			"0.004": 18.3807144533,
			"0.005": 17.035525875,
			"0.006": 8.27239364548,
			"0.007": 5.5561104314,
			"0.008": 5.37279471801,
			"0.009": 6.09510656235,
			"0.01": 7.27138461477,
			"0.011": 4.74878626883,
			"0.012": 1.66880078508,
			"0.013": 0.0454935782568,
			"0.014": 0.0,
			"0.015": 0.0,
			"0.016": 0.0,
			"0.017": 0.0,
			"0.018": 0.0,
			"0.019": 0.0,
			"0.02": 0.0,
			"0.021": 0.0,
			"0.022": 0.0,
			"0.023": 0.0,
			"0.024": 0.0,
			"0.025": 0.0
		}
	}
}
