{
	 "smiles": "CCCCC(CC)COC=C", 
	 "Tm": 173.15, 
	 "num_atms": 31, 
	 "gaussian": { 
		 "optdone": 1, 
		 "sigma_profile": "yes", 
		 "theory": "DFT", 
		 "functional": "B3LYP", 
		 "basiset": "6-31G**", 
		 "properties": { 
			 "R2extent": 2364.494, 
			 "electric_dipole_moment_norm": 1.45810403264, 
			 "electric_quadrupole_moment_norm": 2.92978494945, 
			 "total_energy": -468.323028053, 
			 "HOMO_LUMO_gap": 0.25461, 
			 "cosmo_polarized_energy": -4.19, 
			 "cosmo_cavitation_energy": 31.46, 
			 "cosmo_dispersion_energy": -21.09, 
			 "cosmo_repulsion_energy": 1.73, 
			 "cosmo_total_nonelectrostatic_energy": 12.1, 
			 "SMD_solvation_energy": 6.28 
		},
		"coords": [
			{
				"x": -3.203564046,
				"y": 0.1179825946,
				"z": 0.055745657,
				"element": "C" 
			},
			{
				"x": -2.2824956697,
				"y": -1.0784566133,
				"z": -0.2109071861,
				"element": "C" 
			},
			{
				"x": -1.5972017842,
				"y": -1.0356766901,
				"z": -1.5909302202,
				"element": "C" 
			},
			{
				"x": -0.4931353542,
				"y": 0.0345623855,
				"z": -1.7604247769,
				"element": "C" 
			},
			{
				"x": 0.9512451539,
				"y": -0.4623679733,
				"z": -1.5293227891,
				"element": "C" 
			},
			{
				"x": 2.0115300157,
				"y": 0.5714722199,
				"z": -1.9804651278,
				"element": "C" 
			},
			{
				"x": 1.9731821804,
				"y": 1.9490346798,
				"z": -1.3046568066,
				"element": "C" 
			},
			{
				"x": 1.1961211791,
				"y": -1.0030681977,
				"z": -0.1181144008,
				"element": "C" 
			},
			{
				"x": 0.8651257156,
				"y": -0.0148627506,
				"z": 0.8637010673,
				"element": "O" 
			},
			{
				"x": 1.1466308834,
				"y": -0.3466223215,
				"z": 2.1553771537,
				"element": "C" 
			},
			{
				"x": 0.758308369,
				"y": 0.3994193903,
				"z": 3.1896140093,
				"element": "C" 
			},
			{
				"x": -3.9987421704,
				"y": 0.1795510518,
				"z": -0.6967635048,
				"element": "H" 
			},
			{
				"x": -2.6549570973,
				"y": 1.0655108928,
				"z": 0.0363454423,
				"element": "H" 
			},
			{
				"x": -3.6798181637,
				"y": 0.0375992675,
				"z": 1.038455594,
				"element": "H" 
			},
			{
				"x": -1.53045947,
				"y": -1.1328955805,
				"z": 0.5839407797,
				"element": "H" 
			},
			{
				"x": -2.873234633,
				"y": -2.001335371,
				"z": -0.142987323,
				"element": "H" 
			},
			{
				"x": -1.1780956543,
				"y": -2.0255059168,
				"z": -1.819903232,
				"element": "H" 
			},
			{
				"x": -2.3756710722,
				"y": -0.8672395912,
				"z": -2.346853973,
				"element": "H" 
			},
			{
				"x": -0.6944263057,
				"y": 0.8832891498,
				"z": -1.0992182876,
				"element": "H" 
			},
			{
				"x": -0.5329280718,
				"y": 0.4314743708,
				"z": -2.7825607292,
				"element": "H" 
			},
			{
				"x": 1.0939641,
				"y": -1.3411434923,
				"z": -2.1780546059,
				"element": "H" 
			},
			{
				"x": 3.0059433379,
				"y": 0.1279891809,
				"z": -1.8332602709,
				"element": "H" 
			},
			{
				"x": 1.902866756,
				"y": 0.7064575007,
				"z": -3.0650012052,
				"element": "H" 
			},
			{
				"x": 2.773264215,
				"y": 2.5851501078,
				"z": -1.6984767548,
				"element": "H" 
			},
			{
				"x": 2.0975637757,
				"y": 1.8708002939,
				"z": -0.2224582141,
				"element": "H" 
			},
			{
				"x": 1.0254221381,
				"y": 2.463872483,
				"z": -1.4914290721,
				"element": "H" 
			},
			{
				"x": 2.2525568106,
				"y": -1.2906719678,
				"z": -0.0081931133,
				"element": "H" 
			},
			{
				"x": 0.5872242645,
				"y": -1.9016875337,
				"z": 0.0537701354,
				"element": "H" 
			},
			{
				"x": 1.7271087287,
				"y": -1.260743631,
				"z": 2.286390947,
				"element": "H" 
			},
			{
				"x": 1.0274647422,
				"y": 0.107505868,
				"z": 4.1969814877,
				"element": "H" 
			},
			{
				"x": 0.1799071268,
				"y": 1.3057061937,
				"z": 3.0484593198,
				"element": "H" 
			}
		],
		 "valence_orbital": [ 
			{
				"type": "occ",
				"energy": -0.31772,
				"method": "rhf"
			},
			{
				"type": "occ",
				"energy": -0.30913,
				"method": "rhf"
			},
			{
				"type": "occ",
				"energy": -0.30335,
				"method": "rhf"
			},
			{
				"type": "occ",
				"energy": -0.29796,
				"method": "rhf"
			},
			{
				"type": "occ",
				"energy": -0.21889,
				"method": "rhf"
			},
			{
				"type": "unocc",
				"energy": 0.03572,
				"method": "rhf"
			},
			{
				"type": "unocc",
				"energy": 0.07632,
				"method": "rhf"
			},
			{
				"type": "unocc",
				"energy": 0.10411,
				"method": "rhf"
			},
			{
				"type": "unocc",
				"energy": 0.10966,
				"method": "rhf"
			},
			{
				"type": "unocc",
				"energy": 0.11138,
				"method": "rhf"
			}
		],
		"cosmo_sigma_profile": { 
			"-0.025": 0.0,
			"-0.024": 0.0,
			"-0.023": 0.0,
			"-0.022": 0.0,
			"-0.021": 0.0,
			"-0.02": 0.0,
			"-0.019": 0.0,
			"-0.018": 0.0,
			"-0.017": 0.0,
			"-0.016": 0.0,
			"-0.015": 0.0,
			"-0.014": 0.0,
			"-0.013": 0.0,
			"-0.012": 0.0,
			"-0.011": 0.0,
			"-0.01": 0.0,
			"-0.009": 0.0,
			"-0.008": 0.0,
			"-0.007": 0.631820688064,
			"-0.006": 2.87289332836,
			"-0.005": 5.83985779111,
			"-0.004": 9.78395962276,
			"-0.003": 20.7936240931,
			"-0.002": 35.2000618891,
			"-0.001": 35.3333078444,
			"0.0": 37.8128273661,
			"0.001": 38.0818172652,
			"0.002": 23.4323215465,
			"0.003": 7.4248811771,
			"0.004": 5.46679745024,
			"0.005": 5.33968103647,
			"0.006": 6.02272160264,
			"0.007": 5.73992937852,
			"0.008": 2.30600467437,
			"0.009": 0.864496604836,
			"0.01": 0.00815226908354,
			"0.011": 0.0,
			"0.012": 0.0,
			"0.013": 0.0,
			"0.014": 0.0,
			"0.015": 0.0,
			"0.016": 0.0,
			"0.017": 0.0,
			"0.018": 0.0,
			"0.019": 0.0,
			"0.02": 0.0,
			"0.021": 0.0,
			"0.022": 0.0,
			"0.023": 0.0,
			"0.024": 0.0,
			"0.025": 0.0
		}
	}
}
