{
	 "smiles": "OC(=O)C1=C(C=C(F)C(F)=C1)C(O)=O", 
	 "Tm": 432.15, 
	 "num_atms": 18, 
	 "gaussian": { 
		 "optdone": 1, 
		 "sigma_profile": "yes", 
		 "theory": "DFT", 
		 "functional": "B3LYP", 
		 "basiset": "6-31G**", 
		 "properties": { 
			 "R2extent": 3086.6386, 
			 "electric_dipole_moment_norm": 5.57806161135, 
			 "electric_quadrupole_moment_norm": 22.5767898024, 
			 "total_energy": -807.843235908, 
			 "HOMO_LUMO_gap": 0.17782, 
			 "cosmo_polarized_energy": -14.58, 
			 "cosmo_cavitation_energy": 24.37, 
			 "cosmo_dispersion_energy": -18.13, 
			 "cosmo_repulsion_energy": 1.35, 
			 "cosmo_total_nonelectrostatic_energy": 7.58, 
			 "SMD_solvation_energy": 7.6 
		},
		"coords": [
			{
				"x": -0.7967646234,
				"y": 0.3457119926,
				"z": -3.0098101285,
				"element": "O" 
			},
			{
				"x": 0.0823120599,
				"y": 0.0221265712,
				"z": -2.0765764441,
				"element": "C" 
			},
			{
				"x": 1.2644269961,
				"y": -0.0742562583,
				"z": -2.3400815228,
				"element": "O" 
			},
			{
				"x": -0.3754910027,
				"y": -0.2474023064,
				"z": -0.6273013938,
				"element": "C" 
			},
			{
				"x": -1.6630973042,
				"y": -0.1761995266,
				"z": -0.0154616582,
				"element": "C" 
			},
			{
				"x": -1.7916802058,
				"y": -0.4738389116,
				"z": 1.3570489786,
				"element": "C" 
			},
			{
				"x": -0.6989341974,
				"y": -0.8347749606,
				"z": 2.1187115655,
				"element": "C" 
			},
			{
				"x": -0.8364026398,
				"y": -1.1161256372,
				"z": 3.4195991373,
				"element": "F" 
			},
			{
				"x": 0.5596424753,
				"y": -0.9062270593,
				"z": 1.5253093744,
				"element": "C" 
			},
			{
				"x": 1.6129937597,
				"y": -1.2559200968,
				"z": 2.2683235362,
				"element": "F" 
			},
			{
				"x": 0.7087417636,
				"y": -0.6157780105,
				"z": 0.1820405603,
				"element": "C" 
			},
			{
				"x": -2.9292267277,
				"y": 0.1911311596,
				"z": -0.7041407772,
				"element": "C" 
			},
			{
				"x": -3.9977579749,
				"y": 0.2185830119,
				"z": 0.1104156077,
				"element": "O" 
			},
			{
				"x": -3.0765752058,
				"y": 0.4554764271,
				"z": -1.8940618649,
				"element": "O" 
			},
			{
				"x": -1.7248920999,
				"y": 0.3980585292,
				"z": -2.6598617109,
				"element": "H" 
			},
			{
				"x": -2.7583669769,
				"y": -0.4243740103,
				"z": 1.8395630643,
				"element": "H" 
			},
			{
				"x": 1.689341623,
				"y": -0.6675552389,
				"z": -0.2752779498,
				"element": "H" 
			},
			{
				"x": -4.757069719,
				"y": 0.4630643249,
				"z": -0.4447383742,
				"element": "H" 
			}
		],
		 "valence_orbital": [ 
			{
				"type": "occ",
				"energy": -0.3199,
				"method": "rhf"
			},
			{
				"type": "occ",
				"energy": -0.3075,
				"method": "rhf"
			},
			{
				"type": "occ",
				"energy": -0.28999,
				"method": "rhf"
			},
			{
				"type": "occ",
				"energy": -0.27982,
				"method": "rhf"
			},
			{
				"type": "occ",
				"energy": -0.27278,
				"method": "rhf"
			},
			{
				"type": "unocc",
				"energy": -0.09496,
				"method": "rhf"
			},
			{
				"type": "unocc",
				"energy": -0.05399,
				"method": "rhf"
			},
			{
				"type": "unocc",
				"energy": 0.01796,
				"method": "rhf"
			},
			{
				"type": "unocc",
				"energy": 0.04397,
				"method": "rhf"
			},
			{
				"type": "unocc",
				"energy": 0.0497,
				"method": "rhf"
			}
		],
		"cosmo_sigma_profile": { 
			"-0.025": 0.0,
			"-0.024": 0.0,
			"-0.023": 0.0,
			"-0.022": 0.0,
			"-0.021": 0.0,
			"-0.02": 0.278218406414,
			"-0.019": 0.87303302077,
			"-0.018": 1.13925208281,
			"-0.017": 0.799171192438,
			"-0.016": 0.893874358701,
			"-0.015": 0.599884215273,
			"-0.014": 0.994015921002,
			"-0.013": 0.623956233518,
			"-0.012": 0.800611022144,
			"-0.011": 0.431278394327,
			"-0.01": 0.524043589033,
			"-0.009": 2.06762879216,
			"-0.008": 3.28203523377,
			"-0.007": 4.53493551284,
			"-0.006": 6.50623678616,
			"-0.005": 8.19395853395,
			"-0.004": 10.8588333389,
			"-0.003": 19.1918432648,
			"-0.002": 21.2421087152,
			"-0.001": 18.0881506989,
			"0.0": 9.38363182081,
			"0.001": 10.0525506025,
			"0.002": 16.2027186263,
			"0.003": 19.6251987224,
			"0.004": 5.50448353283,
			"0.005": 3.85265046716,
			"0.006": 3.44825552715,
			"0.007": 3.43022265568,
			"0.008": 4.07932154004,
			"0.009": 3.96153712425,
			"0.01": 3.57582412445,
			"0.011": 5.18584284534,
			"0.012": 4.5807469141,
			"0.013": 2.17064571296,
			"0.014": 0.376477803957,
			"0.015": 0.0,
			"0.016": 0.0,
			"0.017": 0.0,
			"0.018": 0.0,
			"0.019": 0.0,
			"0.02": 0.0,
			"0.021": 0.0,
			"0.022": 0.0,
			"0.023": 0.0,
			"0.024": 0.0,
			"0.025": 0.0
		}
	}
}
