{
	 "smiles": "COC1=CC=C(C=C1OC)[C@@H](O)[C@@H](CO)OC1=C(OC)C=CC=C1OC", 
	 "Tm": 384.0, 
	 "num_atms": 50, 
	 "gaussian": { 
		 "optdone": 1, 
		 "sigma_profile": "yes", 
		 "theory": "DFT", 
		 "functional": "B3LYP", 
		 "basiset": "6-31G**", 
		 "properties": { 
			 "R2extent": 9249.4308, 
			 "electric_dipole_moment_norm": 1.83127448789, 
			 "electric_quadrupole_moment_norm": 11.4981897362, 
			 "total_energy": -1264.95026465, 
			 "HOMO_LUMO_gap": 0.2057, 
			 "cosmo_polarized_energy": -18.39, 
			 "cosmo_cavitation_energy": 51.4, 
			 "cosmo_dispersion_energy": -32.63, 
			 "cosmo_repulsion_energy": 2.54, 
			 "cosmo_total_nonelectrostatic_energy": 21.32, 
			 "SMD_solvation_energy": 11.58 
		},
		"coords": [
			{
				"x": -1.8339164055,
				"y": -4.6330533211,
				"z": -1.8093271156,
				"element": "C" 
			},
			{
				"x": -0.8428567484,
				"y": -4.038862976,
				"z": -2.6560252414,
				"element": "O" 
			},
			{
				"x": -0.1478624263,
				"y": -2.9968425994,
				"z": -2.0797736634,
				"element": "C" 
			},
			{
				"x": -0.3342345247,
				"y": -1.7035754458,
				"z": -2.5650467618,
				"element": "C" 
			},
			{
				"x": 0.369373907,
				"y": -0.6268631208,
				"z": -2.0224614055,
				"element": "C" 
			},
			{
				"x": 1.2672950969,
				"y": -0.8309804393,
				"z": -0.9702271724,
				"element": "C" 
			},
			{
				"x": 1.4713710868,
				"y": -2.135032009,
				"z": -0.4988804052,
				"element": "C" 
			},
			{
				"x": 0.7777958718,
				"y": -3.2151111644,
				"z": -1.0405093335,
				"element": "C" 
			},
			{
				"x": 0.995467073,
				"y": -4.473490172,
				"z": -0.5209439622,
				"element": "O" 
			},
			{
				"x": 1.651295216,
				"y": -5.3850426683,
				"z": -1.4089666972,
				"element": "C" 
			},
			{
				"x": 2.0538996056,
				"y": 0.3126911927,
				"z": -0.3493541704,
				"element": "C" 
			},
			{
				"x": 2.2263695698,
				"y": 1.4170881393,
				"z": -1.2348551547,
				"element": "O" 
			},
			{
				"x": 1.4624610821,
				"y": 0.8672695786,
				"z": 0.9627498963,
				"element": "C" 
			},
			{
				"x": 2.4638581052,
				"y": 1.7803629116,
				"z": 1.6748739238,
				"element": "C" 
			},
			{
				"x": 3.5986657927,
				"y": 0.9946251834,
				"z": 2.0205595297,
				"element": "O" 
			},
			{
				"x": 0.3055857141,
				"y": 1.6964228912,
				"z": 0.7524950603,
				"element": "O" 
			},
			{
				"x": -0.9550457077,
				"y": 1.1468819908,
				"z": 0.7605435091,
				"element": "C" 
			},
			{
				"x": -1.81179162,
				"y": 1.3797335485,
				"z": -0.3352364501,
				"element": "C" 
			},
			{
				"x": -1.4456661257,
				"y": 2.0572662316,
				"z": -1.4659152732,
				"element": "O" 
			},
			{
				"x": -0.7011833131,
				"y": 3.2781897604,
				"z": -1.3491012306,
				"element": "C" 
			},
			{
				"x": -3.1055999567,
				"y": 0.8449838752,
				"z": -0.3285270797,
				"element": "C" 
			},
			{
				"x": -3.5612072118,
				"y": 0.0921553303,
				"z": 0.75013172,
				"element": "C" 
			},
			{
				"x": -2.7391272182,
				"y": -0.1039581906,
				"z": 1.8594328591,
				"element": "C" 
			},
			{
				"x": -1.4543005148,
				"y": 0.4371239874,
				"z": 1.8700090751,
				"element": "C" 
			},
			{
				"x": -0.6444317907,
				"y": 0.2383672049,
				"z": 2.9742806679,
				"element": "O" 
			},
			{
				"x": -0.7044991811,
				"y": 1.3014457645,
				"z": 3.9265622193,
				"element": "C" 
			},
			{
				"x": -1.385447266,
				"y": -5.0509865029,
				"z": -0.9025495646,
				"element": "H" 
			},
			{
				"x": -2.5977446535,
				"y": -3.8962751294,
				"z": -1.5309067341,
				"element": "H" 
			},
			{
				"x": -2.2976290718,
				"y": -5.430765737,
				"z": -2.3937085465,
				"element": "H" 
			},
			{
				"x": -1.0484017963,
				"y": -1.5564828101,
				"z": -3.3693730491,
				"element": "H" 
			},
			{
				"x": 0.1859330791,
				"y": 0.3771376896,
				"z": -2.3867907767,
				"element": "H" 
			},
			{
				"x": 2.181878754,
				"y": -2.3365953426,
				"z": 0.2987261663,
				"element": "H" 
			},
			{
				"x": 1.0691353794,
				"y": -5.5425786538,
				"z": -2.3221898614,
				"element": "H" 
			},
			{
				"x": 1.7473460764,
				"y": -6.3270236227,
				"z": -0.8647215736,
				"element": "H" 
			},
			{
				"x": 2.6512952437,
				"y": -5.017674756,
				"z": -1.6732267379,
				"element": "H" 
			},
			{
				"x": 3.0353183209,
				"y": -0.0829454259,
				"z": -0.04596234,
				"element": "H" 
			},
			{
				"x": 2.5874203258,
				"y": 1.0710363266,
				"z": -2.0611485152,
				"element": "H" 
			},
			{
				"x": 1.219548774,
				"y": 0.0296301606,
				"z": 1.6204059638,
				"element": "H" 
			},
			{
				"x": 1.9762828567,
				"y": 2.1985683167,
				"z": 2.5665429542,
				"element": "H" 
			},
			{
				"x": 2.72581949,
				"y": 2.6073218608,
				"z": 1.0022569468,
				"element": "H" 
			},
			{
				"x": 4.3218514687,
				"y": 1.5921108489,
				"z": 2.2427217311,
				"element": "H" 
			},
			{
				"x": 0.3661909871,
				"y": 3.0807650695,
				"z": -1.2456525571,
				"element": "H" 
			},
			{
				"x": -1.0532191115,
				"y": 3.8711516612,
				"z": -0.4974978462,
				"element": "H" 
			},
			{
				"x": -0.8985077367,
				"y": 3.8290024269,
				"z": -2.2728305705,
				"element": "H" 
			},
			{
				"x": -3.7301346272,
				"y": 1.0307078777,
				"z": -1.1960272223,
				"element": "H" 
			},
			{
				"x": -4.5636546701,
				"y": -0.3246472763,
				"z": 0.7345799717,
				"element": "H" 
			},
			{
				"x": -3.0696664985,
				"y": -0.6693184204,
				"z": 2.7247210313,
				"element": "H" 
			},
			{
				"x": -0.0181192197,
				"y": 1.03646577,
				"z": 4.73388086,
				"element": "H" 
			},
			{
				"x": -0.3951653764,
				"y": 2.2549157923,
				"z": 3.4814710662,
				"element": "H" 
			},
			{
				"x": -1.7184461045,
				"y": 1.4098843926,
				"z": 4.3328918603,
				"element": "H" 
			}
		],
		 "valence_orbital": [ 
			{
				"type": "occ",
				"energy": -0.25633,
				"method": "rhf"
			},
			{
				"type": "occ",
				"energy": -0.23479,
				"method": "rhf"
			},
			{
				"type": "occ",
				"energy": -0.22529,
				"method": "rhf"
			},
			{
				"type": "occ",
				"energy": -0.2184,
				"method": "rhf"
			},
			{
				"type": "occ",
				"energy": -0.20452,
				"method": "rhf"
			},
			{
				"type": "unocc",
				"energy": 0.00118,
				"method": "rhf"
			},
			{
				"type": "unocc",
				"energy": 0.00713,
				"method": "rhf"
			},
			{
				"type": "unocc",
				"energy": 0.01276,
				"method": "rhf"
			},
			{
				"type": "unocc",
				"energy": 0.01855,
				"method": "rhf"
			},
			{
				"type": "unocc",
				"energy": 0.06571,
				"method": "rhf"
			}
		],
		"cosmo_sigma_profile": { 
			"-0.025": 0.0,
			"-0.024": 0.0,
			"-0.023": 0.0,
			"-0.022": 0.0,
			"-0.021": 0.0,
			"-0.02": 0.0,
			"-0.019": 0.0,
			"-0.018": 0.0,
			"-0.017": 0.0449349429399,
			"-0.016": 1.00713747892,
			"-0.015": 2.24083508265,
			"-0.014": 1.70668026813,
			"-0.013": 1.48091374312,
			"-0.012": 1.50561266366,
			"-0.011": 2.15423015269,
			"-0.01": 1.53998459608,
			"-0.009": 1.66100752433,
			"-0.008": 1.78665745635,
			"-0.007": 1.78700890834,
			"-0.006": 10.6708178338,
			"-0.005": 24.8624479487,
			"-0.004": 35.8120571049,
			"-0.003": 47.5354156646,
			"-0.002": 46.0544084075,
			"-0.001": 30.1743805805,
			"0.0": 25.0362212368,
			"0.001": 19.8939833759,
			"0.002": 22.4768079809,
			"0.003": 24.9803042,
			"0.004": 24.887258361,
			"0.005": 23.6893959233,
			"0.006": 14.2532825192,
			"0.007": 7.53432809606,
			"0.008": 7.80255900295,
			"0.009": 6.73877302876,
			"0.01": 5.42915118773,
			"0.011": 5.16257287221,
			"0.012": 3.11619062581,
			"0.013": 0.880932932386,
			"0.014": 0.730815435439,
			"0.015": 0.00605746431938,
			"0.016": 0.0,
			"0.017": 0.0,
			"0.018": 0.0,
			"0.019": 0.0,
			"0.02": 0.0,
			"0.021": 0.0,
			"0.022": 0.0,
			"0.023": 0.0,
			"0.024": 0.0,
			"0.025": 0.0
		}
	}
}
