{
	 "smiles": "NS(=O)(=O)C1=CC=C(S1)S(=O)(=O)CCCCO", 
	 "Tm": 382.15, 
	 "num_atms": 30, 
	 "gaussian": { 
		 "optdone": 1, 
		 "sigma_profile": "yes", 
		 "theory": "DFT", 
		 "functional": "B3LYP", 
		 "basiset": "6-31G**", 
		 "properties": { 
			 "R2extent": 7322.8566, 
			 "electric_dipole_moment_norm": 3.20354331015, 
			 "electric_quadrupole_moment_norm": 33.0687720849, 
			 "total_energy": -1937.95382448, 
			 "HOMO_LUMO_gap": 0.19849, 
			 "cosmo_polarized_energy": -25.94, 
			 "cosmo_cavitation_energy": 38.19, 
			 "cosmo_dispersion_energy": -28.0, 
			 "cosmo_repulsion_energy": 2.13, 
			 "cosmo_total_nonelectrostatic_energy": 12.31, 
			 "SMD_solvation_energy": 4.92 
		},
		"coords": [
			{
				"x": 5.5959083655,
				"y": -0.2939048414,
				"z": -0.0617449756,
				"element": "N" 
			},
			{
				"x": 4.4881256204,
				"y": -0.7511494393,
				"z": 1.1237729761,
				"element": "S" 
			},
			{
				"x": 4.8810666797,
				"y": -0.178269608,
				"z": 2.4124524161,
				"element": "O" 
			},
			{
				"x": 4.2721264807,
				"y": -2.1851536823,
				"z": 0.9333927486,
				"element": "O" 
			},
			{
				"x": 3.0106989041,
				"y": 0.1073854645,
				"z": 0.6377163498,
				"element": "C" 
			},
			{
				"x": 2.4671577638,
				"y": 1.1684773272,
				"z": 1.3199214608,
				"element": "C" 
			},
			{
				"x": 1.2701980307,
				"y": 1.6337266678,
				"z": 0.7122876328,
				"element": "C" 
			},
			{
				"x": 0.9397126645,
				"y": 0.9053035746,
				"z": -0.4036578319,
				"element": "C" 
			},
			{
				"x": 2.0830021776,
				"y": -0.3537386912,
				"z": -0.7553388481,
				"element": "S" 
			},
			{
				"x": -0.4868802497,
				"y": 1.1973305864,
				"z": -1.4504275511,
				"element": "S" 
			},
			{
				"x": -0.1685801002,
				"y": 0.6206314956,
				"z": -2.7665687743,
				"element": "O" 
			},
			{
				"x": -0.8324670904,
				"y": 2.616979495,
				"z": -1.2915588919,
				"element": "O" 
			},
			{
				"x": -1.8247033632,
				"y": 0.2283103856,
				"z": -0.6946534211,
				"element": "C" 
			},
			{
				"x": -1.6749892129,
				"y": -1.2837272137,
				"z": -0.8714855976,
				"element": "C" 
			},
			{
				"x": -2.8611762858,
				"y": -2.0807401188,
				"z": -0.2971878288,
				"element": "C" 
			},
			{
				"x": -2.9148723218,
				"y": -2.1650450116,
				"z": 1.2247102553,
				"element": "C" 
			},
			{
				"x": -3.1450498319,
				"y": -0.862796939,
				"z": 1.758913009,
				"element": "O" 
			},
			{
				"x": 6.1072887936,
				"y": -1.115269246,
				"z": -0.3740113198,
				"element": "H" 
			},
			{
				"x": 6.2170891898,
				"y": 0.4343833151,
				"z": 0.2803842716,
				"element": "H" 
			},
			{
				"x": 2.918052456,
				"y": 1.5827245548,
				"z": 2.2130229399,
				"element": "H" 
			},
			{
				"x": 0.6814883096,
				"y": 2.4733179815,
				"z": 1.0613998132,
				"element": "H" 
			},
			{
				"x": -2.7166238849,
				"y": 0.6070148649,
				"z": -1.206444412,
				"element": "H" 
			},
			{
				"x": -1.8864223236,
				"y": 0.5268480719,
				"z": 0.3528348676,
				"element": "H" 
			},
			{
				"x": -1.575641125,
				"y": -1.4986117101,
				"z": -1.9400160583,
				"element": "H" 
			},
			{
				"x": -0.7489354325,
				"y": -1.6268492283,
				"z": -0.3934600488,
				"element": "H" 
			},
			{
				"x": -3.8084430145,
				"y": -1.6646467066,
				"z": -0.6625217656,
				"element": "H" 
			},
			{
				"x": -2.8023826102,
				"y": -3.1072943852,
				"z": -0.6787691764,
				"element": "H" 
			},
			{
				"x": -3.7212672949,
				"y": -2.8552229038,
				"z": 1.5174568525,
				"element": "H" 
			},
			{
				"x": -1.9686659719,
				"y": -2.5854636634,
				"z": 1.6030947219,
				"element": "H" 
			},
			{
				"x": -3.1699153226,
				"y": -0.929450396,
				"z": 2.7213861862,
				"element": "H" 
			}
		],
		 "valence_orbital": [ 
			{
				"type": "occ",
				"energy": -0.30152,
				"method": "rhf"
			},
			{
				"type": "occ",
				"energy": -0.29292,
				"method": "rhf"
			},
			{
				"type": "occ",
				"energy": -0.2847,
				"method": "rhf"
			},
			{
				"type": "occ",
				"energy": -0.28054,
				"method": "rhf"
			},
			{
				"type": "occ",
				"energy": -0.27098,
				"method": "rhf"
			},
			{
				"type": "unocc",
				"energy": -0.07249,
				"method": "rhf"
			},
			{
				"type": "unocc",
				"energy": 0.00164,
				"method": "rhf"
			},
			{
				"type": "unocc",
				"energy": 0.01269,
				"method": "rhf"
			},
			{
				"type": "unocc",
				"energy": 0.02159,
				"method": "rhf"
			},
			{
				"type": "unocc",
				"energy": 0.04971,
				"method": "rhf"
			}
		],
		"cosmo_sigma_profile": { 
			"-0.025": 0.0,
			"-0.024": 0.0,
			"-0.023": 0.0,
			"-0.022": 0.0,
			"-0.021": 0.0,
			"-0.02": 0.0,
			"-0.019": 0.0,
			"-0.018": 0.0,
			"-0.017": 0.0,
			"-0.016": 0.928794106385,
			"-0.015": 3.72291598167,
			"-0.014": 3.30146130162,
			"-0.013": 3.46298414965,
			"-0.012": 3.77587866296,
			"-0.011": 2.50276225496,
			"-0.01": 2.90966772675,
			"-0.009": 6.01766733158,
			"-0.008": 7.9377444626,
			"-0.007": 8.47530893453,
			"-0.006": 7.98214540838,
			"-0.005": 9.56589252802,
			"-0.004": 21.9278331927,
			"-0.003": 31.4242531036,
			"-0.002": 25.0980344611,
			"-0.001": 25.7921954731,
			"0.0": 20.908313241,
			"0.001": 13.0032004765,
			"0.002": 9.2549950464,
			"0.003": 7.43896958067,
			"0.004": 7.45026824075,
			"0.005": 9.01312786973,
			"0.006": 7.92308885418,
			"0.007": 7.22063521782,
			"0.008": 7.74733404565,
			"0.009": 9.31887759447,
			"0.01": 18.8359476792,
			"0.011": 15.4007616653,
			"0.012": 4.14312985167,
			"0.013": 0.665499735482,
			"0.014": 0.339376336783,
			"0.015": 0.00586145685331,
			"0.016": 0.0,
			"0.017": 0.0,
			"0.018": 0.0,
			"0.019": 0.0,
			"0.02": 0.0,
			"0.021": 0.0,
			"0.022": 0.0,
			"0.023": 0.0,
			"0.024": 0.0,
			"0.025": 0.0
		}
	}
}
