{
	 "smiles": "CCCCCCCCCCCCCCCC1=C(O)C(O)=CC=C1", 
	 "Tm": 332.65, 
	 "num_atms": 59, 
	 "gaussian": { 
		 "optdone": 1, 
		 "sigma_profile": "yes", 
		 "theory": "DFT", 
		 "functional": "B3LYP", 
		 "basiset": "6-31G**", 
		 "properties": { 
			 "R2extent": 14444.2195, 
			 "electric_dipole_moment_norm": 2.13144761606, 
			 "electric_quadrupole_moment_norm": 13.764700542, 
			 "total_energy": -972.418718858, 
			 "HOMO_LUMO_gap": 0.21321, 
			 "cosmo_polarized_energy": -9.82, 
			 "cosmo_cavitation_energy": 57.09, 
			 "cosmo_dispersion_energy": -36.65, 
			 "cosmo_repulsion_energy": 2.9, 
			 "cosmo_total_nonelectrostatic_energy": 23.34, 
			 "SMD_solvation_energy": 7.91 
		},
		"coords": [
			{
				"x": 2.7860096554,
				"y": 5.1147213623,
				"z": 0.3169949172,
				"element": "C" 
			},
			{
				"x": 2.8559510327,
				"y": 3.5862293327,
				"z": 0.3993661688,
				"element": "C" 
			},
			{
				"x": 4.2412676291,
				"y": 3.0322523983,
				"z": 0.0308776924,
				"element": "C" 
			},
			{
				"x": 4.3968328815,
				"y": 1.4987364628,
				"z": 0.1292464698,
				"element": "C" 
			},
			{
				"x": 4.0825222346,
				"y": 0.7005846143,
				"z": -1.1517322723,
				"element": "C" 
			},
			{
				"x": 2.6327994547,
				"y": 0.7196521263,
				"z": -1.6661996094,
				"element": "C" 
			},
			{
				"x": 1.6036726997,
				"y": 0.0897122697,
				"z": -0.7174157908,
				"element": "C" 
			},
			{
				"x": 0.1880642048,
				"y": 0.0477422003,
				"z": -1.3115418865,
				"element": "C" 
			},
			{
				"x": -0.864407056,
				"y": -0.645568141,
				"z": -0.4300087823,
				"element": "C" 
			},
			{
				"x": -1.1819033765,
				"y": 0.0921254395,
				"z": 0.880093835,
				"element": "C" 
			},
			{
				"x": -2.3360329984,
				"y": -0.521446684,
				"z": 1.6918089432,
				"element": "C" 
			},
			{
				"x": -2.0366832306,
				"y": -1.9166730465,
				"z": 2.2606512108,
				"element": "C" 
			},
			{
				"x": -3.0933427356,
				"y": -2.4418268301,
				"z": 3.2482405746,
				"element": "C" 
			},
			{
				"x": -4.5270385354,
				"y": -2.6426873664,
				"z": 2.7224513458,
				"element": "C" 
			},
			{
				"x": -4.7268075979,
				"y": -3.771636107,
				"z": 1.6805706898,
				"element": "C" 
			},
			{
				"x": -4.4147923458,
				"y": -3.4134665093,
				"z": 0.2404031841,
				"element": "C" 
			},
			{
				"x": -3.3363308174,
				"y": -3.9930419584,
				"z": -0.4358009875,
				"element": "C" 
			},
			{
				"x": -2.5091330231,
				"y": -4.8703119137,
				"z": 0.2118437444,
				"element": "O" 
			},
			{
				"x": -3.077422217,
				"y": -3.6676681058,
				"z": -1.7787363767,
				"element": "C" 
			},
			{
				"x": -1.9817180649,
				"y": -4.3041704796,
				"z": -2.3226993384,
				"element": "O" 
			},
			{
				"x": -3.8872322681,
				"y": -2.7703032113,
				"z": -2.4642418528,
				"element": "C" 
			},
			{
				"x": -4.9714176755,
				"y": -2.1877699505,
				"z": -1.7988820931,
				"element": "C" 
			},
			{
				"x": -5.2266810548,
				"y": -2.5124696485,
				"z": -0.4694748912,
				"element": "C" 
			},
			{
				"x": 2.9953795039,
				"y": 5.4669691383,
				"z": -0.6997446043,
				"element": "H" 
			},
			{
				"x": 3.5203231376,
				"y": 5.581500956,
				"z": 0.9838671668,
				"element": "H" 
			},
			{
				"x": 1.795980992,
				"y": 5.48741955,
				"z": 0.5999450179,
				"element": "H" 
			},
			{
				"x": 2.0867319804,
				"y": 3.1536400849,
				"z": -0.2507353781,
				"element": "H" 
			},
			{
				"x": 2.6054551456,
				"y": 3.2641619024,
				"z": 1.4194536275,
				"element": "H" 
			},
			{
				"x": 4.5093810329,
				"y": 3.3622511982,
				"z": -0.983472505,
				"element": "H" 
			},
			{
				"x": 4.9753338177,
				"y": 3.5045774315,
				"z": 0.6978302292,
				"element": "H" 
			},
			{
				"x": 3.7939970174,
				"y": 1.1239062161,
				"z": 0.9672141573,
				"element": "H" 
			},
			{
				"x": 5.4372770087,
				"y": 1.2729895073,
				"z": 0.3951905255,
				"element": "H" 
			},
			{
				"x": 4.3735361509,
				"y": -0.3455936027,
				"z": -0.9814387421,
				"element": "H" 
			},
			{
				"x": 4.7404062897,
				"y": 1.0671713373,
				"z": -1.9519639239,
				"element": "H" 
			},
			{
				"x": 2.3316595971,
				"y": 1.748542449,
				"z": -1.9036275938,
				"element": "H" 
			},
			{
				"x": 2.6046811112,
				"y": 0.1778988845,
				"z": -2.6221498935,
				"element": "H" 
			},
			{
				"x": 1.9212569249,
				"y": -0.9341039035,
				"z": -0.4698586728,
				"element": "H" 
			},
			{
				"x": 1.5891532976,
				"y": 0.6398878325,
				"z": 0.2308127899,
				"element": "H" 
			},
			{
				"x": 0.2311851802,
				"y": -0.4673319571,
				"z": -2.2816587983,
				"element": "H" 
			},
			{
				"x": -0.1425152999,
				"y": 1.073686633,
				"z": -1.5310992166,
				"element": "H" 
			},
			{
				"x": -0.5293947477,
				"y": -1.6684565731,
				"z": -0.2123932084,
				"element": "H" 
			},
			{
				"x": -1.7939471473,
				"y": -0.7499123059,
				"z": -1.0053412992,
				"element": "H" 
			},
			{
				"x": -0.2854853526,
				"y": 0.1354931677,
				"z": 1.5135329117,
				"element": "H" 
			},
			{
				"x": -1.434302005,
				"y": 1.1348369222,
				"z": 0.6402322224,
				"element": "H" 
			},
			{
				"x": -2.5752499679,
				"y": 0.1545148096,
				"z": 2.5253115787,
				"element": "H" 
			},
			{
				"x": -3.2334371541,
				"y": -0.5603110998,
				"z": 1.0608710532,
				"element": "H" 
			},
			{
				"x": -1.9000683825,
				"y": -2.6400020609,
				"z": 1.4510007542,
				"element": "H" 
			},
			{
				"x": -1.0749491863,
				"y": -1.8762199709,
				"z": 2.7925064419,
				"element": "H" 
			},
			{
				"x": -3.1450988242,
				"y": -1.7481935911,
				"z": 4.0997438106,
				"element": "H" 
			},
			{
				"x": -2.7418440951,
				"y": -3.3976570846,
				"z": 3.6601652504,
				"element": "H" 
			},
			{
				"x": -4.9207304342,
				"y": -1.7008911267,
				"z": 2.3202604567,
				"element": "H" 
			},
			{
				"x": -5.157656763,
				"y": -2.8826775014,
				"z": 3.5882215651,
				"element": "H" 
			},
			{
				"x": -4.1399713449,
				"y": -4.6462832462,
				"z": 1.9761325827,
				"element": "H" 
			},
			{
				"x": -5.7801995735,
				"y": -4.0777142907,
				"z": 1.7200568803,
				"element": "H" 
			},
			{
				"x": -1.8302362859,
				"y": -5.1459863265,
				"z": -0.4222525112,
				"element": "H" 
			},
			{
				"x": -1.851279474,
				"y": -4.0098004836,
				"z": -3.2320889206,
				"element": "H" 
			},
			{
				"x": -3.6763916399,
				"y": -2.5314049374,
				"z": -3.5043853216,
				"element": "H" 
			},
			{
				"x": -5.6145114412,
				"y": -1.490178194,
				"z": -2.3261946256,
				"element": "H" 
			},
			{
				"x": -6.0781458638,
				"y": -2.0669460188,
				"z": 0.0383412981,
				"element": "H" 
			}
		],
		 "valence_orbital": [ 
			{
				"type": "occ",
				"energy": -0.2948,
				"method": "rhf"
			},
			{
				"type": "occ",
				"energy": -0.29387,
				"method": "rhf"
			},
			{
				"type": "occ",
				"energy": -0.28955,
				"method": "rhf"
			},
			{
				"type": "occ",
				"energy": -0.22742,
				"method": "rhf"
			},
			{
				"type": "occ",
				"energy": -0.20644,
				"method": "rhf"
			},
			{
				"type": "unocc",
				"energy": 0.00677,
				"method": "rhf"
			},
			{
				"type": "unocc",
				"energy": 0.01974,
				"method": "rhf"
			},
			{
				"type": "unocc",
				"energy": 0.05227,
				"method": "rhf"
			},
			{
				"type": "unocc",
				"energy": 0.08141,
				"method": "rhf"
			},
			{
				"type": "unocc",
				"energy": 0.09111,
				"method": "rhf"
			}
		],
		"cosmo_sigma_profile": { 
			"-0.025": 0.0,
			"-0.024": 0.0,
			"-0.023": 0.0,
			"-0.022": 0.0,
			"-0.021": 0.0,
			"-0.02": 0.0,
			"-0.019": 0.0,
			"-0.018": 0.745337464789,
			"-0.017": 0.985869435255,
			"-0.016": 0.908730885888,
			"-0.015": 1.03873580049,
			"-0.014": 1.31471721424,
			"-0.013": 1.6661537415,
			"-0.012": 1.37233407085,
			"-0.011": 1.34176873386,
			"-0.01": 1.32826769424,
			"-0.009": 1.36708914665,
			"-0.008": 2.22218739998,
			"-0.007": 2.01884544156,
			"-0.006": 2.82291024203,
			"-0.005": 5.06220201176,
			"-0.004": 7.38841731869,
			"-0.003": 10.9822209227,
			"-0.002": 40.7586157124,
			"-0.001": 80.8111771102,
			"0.0": 90.4487504972,
			"0.001": 82.2986137074,
			"0.002": 44.9238745267,
			"0.003": 16.812221961,
			"0.004": 12.9429950918,
			"0.005": 9.67295733898,
			"0.006": 7.57068480542,
			"0.007": 4.8290749227,
			"0.008": 2.25320359487,
			"0.009": 1.36943478511,
			"0.01": 2.13438347263,
			"0.011": 0.345484620949,
			"0.012": 0.0,
			"0.013": 0.0,
			"0.014": 0.0,
			"0.015": 0.0,
			"0.016": 0.0,
			"0.017": 0.0,
			"0.018": 0.0,
			"0.019": 0.0,
			"0.02": 0.0,
			"0.021": 0.0,
			"0.022": 0.0,
			"0.023": 0.0,
			"0.024": 0.0,
			"0.025": 0.0
		}
	}
}
