{
	 "smiles": "CC(=C(C#N)C1=NC2=C(S1)C=CC=C2)C1=CC2=C(OC1=O)C=CC=C2", 
	 "Tm": 428.15, 
	 "num_atms": 37, 
	 "gaussian": { 
		 "optdone": 1, 
		 "sigma_profile": "yes", 
		 "theory": "DFT", 
		 "functional": "B3LYP", 
		 "basiset": "6-31G**", 
		 "properties": { 
			 "R2extent": 12640.2323, 
			 "electric_dipole_moment_norm": 3.81862921347, 
			 "electric_quadrupole_moment_norm": 42.1087034315, 
			 "total_energy": -1427.48414915, 
			 "HOMO_LUMO_gap": 0.13385, 
			 "cosmo_polarized_energy": -16.28, 
			 "cosmo_cavitation_energy": 44.56, 
			 "cosmo_dispersion_energy": -31.69, 
			 "cosmo_repulsion_energy": 2.31, 
			 "cosmo_total_nonelectrostatic_energy": 15.18, 
			 "SMD_solvation_energy": 7.96 
		},
		"coords": [
			{
				"x": 0.3613665676,
				"y": -2.2814157195,
				"z": -0.6294832362,
				"element": "C" 
			},
			{
				"x": -0.6202798584,
				"y": -1.2106494668,
				"z": -0.2315260903,
				"element": "C" 
			},
			{
				"x": -0.250193642,
				"y": 0.0923146633,
				"z": -0.0053980312,
				"element": "C" 
			},
			{
				"x": -1.2231058427,
				"y": 1.0549657346,
				"z": 0.4365941975,
				"element": "C" 
			},
			{
				"x": -1.9705875376,
				"y": 1.8719618396,
				"z": 0.7956533679,
				"element": "N" 
			},
			{
				"x": 1.1138660216,
				"y": 0.6225751453,
				"z": -0.1476306659,
				"element": "C" 
			},
			{
				"x": 2.1475026442,
				"y": -0.0476417883,
				"z": -0.5657850916,
				"element": "N" 
			},
			{
				"x": 3.2866231436,
				"y": 0.7312297902,
				"z": -0.5834585771,
				"element": "C" 
			},
			{
				"x": 3.1117722305,
				"y": 2.0718098228,
				"z": -0.1566756638,
				"element": "C" 
			},
			{
				"x": 1.4399486562,
				"y": 2.3316299814,
				"z": 0.2770035577,
				"element": "S" 
			},
			{
				"x": 4.1823334673,
				"y": 2.9702781117,
				"z": -0.1263936241,
				"element": "C" 
			},
			{
				"x": 5.4335338926,
				"y": 2.5120085301,
				"z": -0.5283125733,
				"element": "C" 
			},
			{
				"x": 5.6197302401,
				"y": 1.1833872354,
				"z": -0.9537450464,
				"element": "C" 
			},
			{
				"x": 4.5582410107,
				"y": 0.2896839636,
				"z": -0.9849772629,
				"element": "C" 
			},
			{
				"x": -2.0433129169,
				"y": -1.609315009,
				"z": -0.1237051859,
				"element": "C" 
			},
			{
				"x": -3.0512982099,
				"y": -0.958261329,
				"z": -0.7695894936,
				"element": "C" 
			},
			{
				"x": -4.4158710539,
				"y": -1.3911073688,
				"z": -0.6689858506,
				"element": "C" 
			},
			{
				"x": -4.6842345102,
				"y": -2.5245470142,
				"z": 0.1203337229,
				"element": "C" 
			},
			{
				"x": -3.6792411894,
				"y": -3.1814214074,
				"z": 0.7680033694,
				"element": "O" 
			},
			{
				"x": -2.3489242631,
				"y": -2.7861014616,
				"z": 0.7127195997,
				"element": "C" 
			},
			{
				"x": -1.5480650373,
				"y": -3.4240991829,
				"z": 1.3553761299,
				"element": "O" 
			},
			{
				"x": -5.9809476926,
				"y": -3.0185845591,
				"z": 0.2679727322,
				"element": "C" 
			},
			{
				"x": -7.0243628807,
				"y": -2.3679353118,
				"z": -0.3825419295,
				"element": "C" 
			},
			{
				"x": -6.7835251407,
				"y": -1.2341857639,
				"z": -1.1757931951,
				"element": "C" 
			},
			{
				"x": -5.4911309338,
				"y": -0.7520171595,
				"z": -1.3181584413,
				"element": "C" 
			},
			{
				"x": 0.8435405408,
				"y": -2.0103256904,
				"z": -1.5736634501,
				"element": "H" 
			},
			{
				"x": 1.1685270791,
				"y": -2.3682737278,
				"z": 0.1023773995,
				"element": "H" 
			},
			{
				"x": -0.1328485139,
				"y": -3.2461911864,
				"z": -0.7281128015,
				"element": "H" 
			},
			{
				"x": 4.0451798113,
				"y": 3.9956911197,
				"z": 0.2010793974,
				"element": "H" 
			},
			{
				"x": 6.2794292282,
				"y": 3.1926386344,
				"z": -0.5123254243,
				"element": "H" 
			},
			{
				"x": 6.6081003951,
				"y": 0.8552573935,
				"z": -1.2606749924,
				"element": "H" 
			},
			{
				"x": 4.6854472981,
				"y": -0.7377713579,
				"z": -1.3093381541,
				"element": "H" 
			},
			{
				"x": -2.8301194583,
				"y": -0.096472419,
				"z": -1.3923566556,
				"element": "H" 
			},
			{
				"x": -6.1455736296,
				"y": -3.8944191457,
				"z": 0.8857347584,
				"element": "H" 
			},
			{
				"x": -8.0369307922,
				"y": -2.7439507925,
				"z": -0.272408486,
				"element": "H" 
			},
			{
				"x": -7.608412599,
				"y": -0.736305771,
				"z": -1.67482807,
				"element": "H" 
			},
			{
				"x": -5.290576525,
				"y": 0.1260606668,
				"z": -1.9253802399,
				"element": "H" 
			}
		],
		 "valence_orbital": [ 
			{
				"type": "occ",
				"energy": -0.28032,
				"method": "rhf"
			},
			{
				"type": "occ",
				"energy": -0.26516,
				"method": "rhf"
			},
			{
				"type": "occ",
				"energy": -0.25076,
				"method": "rhf"
			},
			{
				"type": "occ",
				"energy": -0.24111,
				"method": "rhf"
			},
			{
				"type": "occ",
				"energy": -0.22923,
				"method": "rhf"
			},
			{
				"type": "unocc",
				"energy": -0.09538,
				"method": "rhf"
			},
			{
				"type": "unocc",
				"energy": -0.0617,
				"method": "rhf"
			},
			{
				"type": "unocc",
				"energy": -0.02233,
				"method": "rhf"
			},
			{
				"type": "unocc",
				"energy": -0.0165,
				"method": "rhf"
			},
			{
				"type": "unocc",
				"energy": -0.01192,
				"method": "rhf"
			}
		],
		"cosmo_sigma_profile": { 
			"-0.025": 0.0,
			"-0.024": 0.0,
			"-0.023": 0.0,
			"-0.022": 0.0,
			"-0.021": 0.0,
			"-0.02": 0.0,
			"-0.019": 0.0,
			"-0.018": 0.0,
			"-0.017": 0.0,
			"-0.016": 0.0,
			"-0.015": 0.0,
			"-0.014": 0.0,
			"-0.013": 0.0,
			"-0.012": 0.0,
			"-0.011": 0.0,
			"-0.01": 0.477716028701,
			"-0.009": 2.555486682,
			"-0.008": 5.0457825248,
			"-0.007": 13.837290889,
			"-0.006": 21.0247376593,
			"-0.005": 26.0613751967,
			"-0.004": 24.7277257795,
			"-0.003": 25.042749465,
			"-0.002": 26.1652765254,
			"-0.001": 31.4152114706,
			"0.0": 27.3203574176,
			"0.001": 28.1242261401,
			"0.002": 32.6296006317,
			"0.003": 29.5639321691,
			"0.004": 17.5752476611,
			"0.005": 8.85447249258,
			"0.006": 6.49758280236,
			"0.007": 5.82293627107,
			"0.008": 5.60769929321,
			"0.009": 5.38215899414,
			"0.01": 5.52106130308,
			"0.011": 7.44486029303,
			"0.012": 4.82432176997,
			"0.013": 1.06991829685,
			"0.014": 0.0,
			"0.015": 0.0,
			"0.016": 0.0,
			"0.017": 0.0,
			"0.018": 0.0,
			"0.019": 0.0,
			"0.02": 0.0,
			"0.021": 0.0,
			"0.022": 0.0,
			"0.023": 0.0,
			"0.024": 0.0,
			"0.025": 0.0
		}
	}
}
