{
	 "smiles": "COC1=CC(=C(OC)C=C1)C(F)(F)C(O)=O", 
	 "Tm": 355.15, 
	 "num_atms": 26, 
	 "gaussian": { 
		 "optdone": 1, 
		 "sigma_profile": "yes", 
		 "theory": "DFT", 
		 "functional": "B3LYP", 
		 "basiset": "6-31G**", 
		 "properties": { 
			 "R2extent": 4352.0276, 
			 "electric_dipole_moment_norm": 3.95998993307, 
			 "electric_quadrupole_moment_norm": 19.3824848239, 
			 "total_energy": -887.63957122, 
			 "HOMO_LUMO_gap": 0.19002, 
			 "cosmo_polarized_energy": -14.9, 
			 "cosmo_cavitation_energy": 31.41, 
			 "cosmo_dispersion_energy": -21.9, 
			 "cosmo_repulsion_energy": 1.69, 
			 "cosmo_total_nonelectrostatic_energy": 11.2, 
			 "SMD_solvation_energy": 8.86 
		},
		"coords": [
			{
				"x": 0.7072051546,
				"y": 0.0152424108,
				"z": 3.8586350912,
				"element": "C" 
			},
			{
				"x": -0.2991498136,
				"y": -0.4452752917,
				"z": 2.9737203754,
				"element": "O" 
			},
			{
				"x": -0.1645363749,
				"y": -0.1573612446,
				"z": 1.6440731987,
				"element": "C" 
			},
			{
				"x": -1.1842030914,
				"y": -0.645278469,
				"z": 0.8127885776,
				"element": "C" 
			},
			{
				"x": -1.1515611792,
				"y": -0.4148607819,
				"z": -0.5533399667,
				"element": "C" 
			},
			{
				"x": -0.090572347,
				"y": 0.3191320914,
				"z": -1.1227346113,
				"element": "C" 
			},
			{
				"x": -0.151122846,
				"y": 0.4886470097,
				"z": -2.4781898607,
				"element": "O" 
			},
			{
				"x": 0.9250423259,
				"y": 1.150502123,
				"z": -3.1233597791,
				"element": "C" 
			},
			{
				"x": 0.9237174909,
				"y": 0.7997018054,
				"z": -0.2994030406,
				"element": "C" 
			},
			{
				"x": 0.887670957,
				"y": 0.5653962087,
				"z": 1.0824064126,
				"element": "C" 
			},
			{
				"x": -2.2686321264,
				"y": -0.9022556054,
				"z": -1.4427969641,
				"element": "C" 
			},
			{
				"x": -3.1596926273,
				"y": -1.6599779507,
				"z": -0.7197651993,
				"element": "F" 
			},
			{
				"x": -2.9695766333,
				"y": 0.1522038633,
				"z": -1.9502130287,
				"element": "F" 
			},
			{
				"x": -1.7950197949,
				"y": -1.8230699135,
				"z": -2.5901081261,
				"element": "C" 
			},
			{
				"x": -2.4728456631,
				"y": -1.6094840498,
				"z": -3.7286505773,
				"element": "O" 
			},
			{
				"x": -0.9557591789,
				"y": -2.677638916,
				"z": -2.4412106648,
				"element": "O" 
			},
			{
				"x": 1.6898334545,
				"y": -0.4089188147,
				"z": 3.6124480475,
				"element": "H" 
			},
			{
				"x": 0.4120125104,
				"y": -0.3205827415,
				"z": 4.8539112,
				"element": "H" 
			},
			{
				"x": 0.7806243517,
				"y": 1.1110695237,
				"z": 3.8559241816,
				"element": "H" 
			},
			{
				"x": -1.9948745075,
				"y": -1.2121318887,
				"z": 1.2533314242,
				"element": "H" 
			},
			{
				"x": 0.6841824125,
				"y": 1.1505661897,
				"z": -4.1872291792,
				"element": "H" 
			},
			{
				"x": 1.0240745237,
				"y": 2.1869719864,
				"z": -2.7766383358,
				"element": "H" 
			},
			{
				"x": 1.874572279,
				"y": 0.62373662,
				"z": -2.9646797526,
				"element": "H" 
			},
			{
				"x": 1.7527186468,
				"y": 1.3612669732,
				"z": -0.7128646799,
				"element": "H" 
			},
			{
				"x": 1.6912826063,
				"y": 0.952765471,
				"z": 1.6972041133,
				"element": "H" 
			},
			{
				"x": -2.1461905299,
				"y": -2.2706666085,
				"z": -4.3625588561,
				"element": "H" 
			}
		],
		 "valence_orbital": [ 
			{
				"type": "occ",
				"energy": -0.3236,
				"method": "rhf"
			},
			{
				"type": "occ",
				"energy": -0.29607,
				"method": "rhf"
			},
			{
				"type": "occ",
				"energy": -0.27952,
				"method": "rhf"
			},
			{
				"type": "occ",
				"energy": -0.26061,
				"method": "rhf"
			},
			{
				"type": "occ",
				"energy": -0.20733,
				"method": "rhf"
			},
			{
				"type": "unocc",
				"energy": -0.01731,
				"method": "rhf"
			},
			{
				"type": "unocc",
				"energy": -0.00588,
				"method": "rhf"
			},
			{
				"type": "unocc",
				"energy": 0.01448,
				"method": "rhf"
			},
			{
				"type": "unocc",
				"energy": 0.07258,
				"method": "rhf"
			},
			{
				"type": "unocc",
				"energy": 0.08571,
				"method": "rhf"
			}
		],
		"cosmo_sigma_profile": { 
			"-0.025": 0.0,
			"-0.024": 0.0,
			"-0.023": 0.0,
			"-0.022": 0.0,
			"-0.021": 0.0,
			"-0.02": 0.105819949004,
			"-0.019": 0.887043159443,
			"-0.018": 1.44378775951,
			"-0.017": 0.243919159322,
			"-0.016": 0.821516390644,
			"-0.015": 0.889852297601,
			"-0.014": 1.33713660439,
			"-0.013": 0.55830619337,
			"-0.012": 0.336076978802,
			"-0.011": 0.730609630272,
			"-0.01": 0.451955284096,
			"-0.009": 1.04712779423,
			"-0.008": 0.987074406696,
			"-0.007": 4.86514775902,
			"-0.006": 15.6396439876,
			"-0.005": 22.3574870934,
			"-0.004": 20.1789707957,
			"-0.003": 20.9002294484,
			"-0.002": 11.521454298,
			"-0.001": 11.6592459335,
			"0.0": 10.1572874776,
			"0.001": 11.1522863939,
			"0.002": 17.5157648659,
			"0.003": 27.48676545,
			"0.004": 20.8636093203,
			"0.005": 10.2239167178,
			"0.006": 6.20078216104,
			"0.007": 8.05279281195,
			"0.008": 7.06035804114,
			"0.009": 4.28814478322,
			"0.01": 6.20160405169,
			"0.011": 3.41403372839,
			"0.012": 0.096400238988,
			"0.013": 0.0,
			"0.014": 0.0,
			"0.015": 0.0,
			"0.016": 0.0,
			"0.017": 0.0,
			"0.018": 0.0,
			"0.019": 0.0,
			"0.02": 0.0,
			"0.021": 0.0,
			"0.022": 0.0,
			"0.023": 0.0,
			"0.024": 0.0,
			"0.025": 0.0
		}
	}
}
