{
	 "smiles": "OC1CC2=C1C(F)=CC=C2", 
	 "Tm": 329.15, 
	 "num_atms": 17, 
	 "gaussian": { 
		 "optdone": 1, 
		 "sigma_profile": "yes", 
		 "theory": "DFT", 
		 "functional": "B3LYP", 
		 "basiset": "6-31G**", 
		 "properties": { 
			 "R2extent": 1691.0347, 
			 "electric_dipole_moment_norm": 1.0980773379, 
			 "electric_quadrupole_moment_norm": 5.48118909271, 
			 "total_energy": -484.076974475, 
			 "HOMO_LUMO_gap": 0.23658, 
			 "cosmo_polarized_energy": -7.16, 
			 "cosmo_cavitation_energy": 21.32, 
			 "cosmo_dispersion_energy": -15.71, 
			 "cosmo_repulsion_energy": 1.28, 
			 "cosmo_total_nonelectrostatic_energy": 6.89, 
			 "SMD_solvation_energy": 3.83 
		},
		"coords": [
			{
				"x": -0.1772915591,
				"y": -0.8007841599,
				"z": 2.6780231987,
				"element": "O" 
			},
			{
				"x": 0.5893307506,
				"y": -1.5394704345,
				"z": 1.751916679,
				"element": "C" 
			},
			{
				"x": 2.0886485759,
				"y": -1.0632258485,
				"z": 1.711019696,
				"element": "C" 
			},
			{
				"x": 1.8712391961,
				"y": -0.7918739606,
				"z": 0.2280932317,
				"element": "C" 
			},
			{
				"x": 0.5251224864,
				"y": -1.1523421199,
				"z": 0.2750552891,
				"element": "C" 
			},
			{
				"x": -0.2606227334,
				"y": -1.0901064447,
				"z": -0.8601521144,
				"element": "C" 
			},
			{
				"x": -1.5681083322,
				"y": -1.4308800744,
				"z": -0.8395153048,
				"element": "F" 
			},
			{
				"x": 0.3267597164,
				"y": -0.6632300661,
				"z": -2.0531184075,
				"element": "C" 
			},
			{
				"x": 1.6855754409,
				"y": -0.3185286692,
				"z": -2.0844364819,
				"element": "C" 
			},
			{
				"x": 2.497613005,
				"y": -0.3794326341,
				"z": -0.9406712705,
				"element": "C" 
			},
			{
				"x": -1.105501597,
				"y": -1.0391199141,
				"z": 2.5546558342,
				"element": "H" 
			},
			{
				"x": 0.4871294663,
				"y": -2.6221534266,
				"z": 1.9192580663,
				"element": "H" 
			},
			{
				"x": 2.2410792472,
				"y": -0.1707955838,
				"z": 2.3250366734,
				"element": "H" 
			},
			{
				"x": 2.8361564417,
				"y": -1.8178434919,
				"z": 1.9762717044,
				"element": "H" 
			},
			{
				"x": -0.2816749684,
				"y": -0.606829956,
				"z": -2.9498704416,
				"element": "H" 
			},
			{
				"x": 2.1142593802,
				"y": 0.0073685016,
				"z": -3.0280204745,
				"element": "H" 
			},
			{
				"x": 3.5474854832,
				"y": -0.1068517173,
				"z": -0.9873458775,
				"element": "H" 
			}
		],
		 "valence_orbital": [ 
			{
				"type": "occ",
				"energy": -0.33682,
				"method": "rhf"
			},
			{
				"type": "occ",
				"energy": -0.31894,
				"method": "rhf"
			},
			{
				"type": "occ",
				"energy": -0.27029,
				"method": "rhf"
			},
			{
				"type": "occ",
				"energy": -0.24816,
				"method": "rhf"
			},
			{
				"type": "occ",
				"energy": -0.24419,
				"method": "rhf"
			},
			{
				"type": "unocc",
				"energy": -0.00761,
				"method": "rhf"
			},
			{
				"type": "unocc",
				"energy": -0.00255,
				"method": "rhf"
			},
			{
				"type": "unocc",
				"energy": 0.07712,
				"method": "rhf"
			},
			{
				"type": "unocc",
				"energy": 0.0959,
				"method": "rhf"
			},
			{
				"type": "unocc",
				"energy": 0.12723,
				"method": "rhf"
			}
		],
		"cosmo_sigma_profile": { 
			"-0.025": 0.0,
			"-0.024": 0.0,
			"-0.023": 0.0,
			"-0.022": 0.0,
			"-0.021": 0.0,
			"-0.02": 0.0,
			"-0.019": 0.0,
			"-0.018": 0.0,
			"-0.017": 0.00623371968871,
			"-0.016": 0.713755652841,
			"-0.015": 0.86115273848,
			"-0.014": 1.04119033069,
			"-0.013": 0.671426985658,
			"-0.012": 0.91977189125,
			"-0.011": 0.653708554397,
			"-0.01": 0.544087533336,
			"-0.009": 1.1382012219,
			"-0.008": 1.25487713646,
			"-0.007": 1.95115414227,
			"-0.006": 6.38928695494,
			"-0.005": 11.3068322589,
			"-0.004": 14.3112610566,
			"-0.003": 12.8707062425,
			"-0.002": 11.8878130677,
			"-0.001": 12.9945497959,
			"0.0": 11.0600627639,
			"0.001": 12.8800814773,
			"0.002": 11.2332711787,
			"0.003": 11.9466333391,
			"0.004": 18.7446426326,
			"0.005": 11.6542350877,
			"0.006": 2.0902920014,
			"0.007": 1.36213039071,
			"0.008": 1.17500596203,
			"0.009": 1.16279051182,
			"0.01": 0.906999894464,
			"0.011": 1.41375340984,
			"0.012": 1.9274995853,
			"0.013": 1.78636059117,
			"0.014": 1.01201990738,
			"0.015": 0.0,
			"0.016": 0.0,
			"0.017": 0.0,
			"0.018": 0.0,
			"0.019": 0.0,
			"0.02": 0.0,
			"0.021": 0.0,
			"0.022": 0.0,
			"0.023": 0.0,
			"0.024": 0.0,
			"0.025": 0.0
		}
	}
}
