{
	 "smiles": "BrC1=C(Br)C(Br)=CS1", 
	 "Tm": 317.15, 
	 "num_atms": 9, 
	 "gaussian": { 
		 "optdone": 1, 
		 "sigma_profile": "yes", 
		 "theory": "DFT", 
		 "functional": "B3LYP", 
		 "basiset": "6-31G**", 
		 "properties": { 
			 "R2extent": 6879.5182, 
			 "electric_dipole_moment_norm": 1.47466585368, 
			 "electric_quadrupole_moment_norm": 6.55691190501, 
			 "total_energy": -8265.39185938, 
			 "HOMO_LUMO_gap": 0.19838, 
			 "cosmo_polarized_energy": -3.64, 
			 "cosmo_cavitation_energy": 21.98, 
			 "cosmo_dispersion_energy": -18.1, 
			 "cosmo_repulsion_energy": 1.44, 
			 "cosmo_total_nonelectrostatic_energy": 5.33, 
			 "SMD_solvation_energy": 0.52 
		},
		"coords": [
			{
				"x": -3.1815955691,
				"y": 2.5535519491,
				"z": -0.828005942,
				"element": "Br" 
			},
			{
				"x": -2.8428016373,
				"y": 0.9835750288,
				"z": 0.138890342,
				"element": "C" 
			},
			{
				"x": -2.0838919671,
				"y": 0.8402308458,
				"z": 1.2704993956,
				"element": "C" 
			},
			{
				"x": -1.1846142051,
				"y": 2.2515296924,
				"z": 2.1262468663,
				"element": "Br" 
			},
			{
				"x": -2.0583064568,
				"y": -0.5224699957,
				"z": 1.7250042032,
				"element": "C" 
			},
			{
				"x": -1.1153941517,
				"y": -1.1037584155,
				"z": 3.2543127972,
				"element": "Br" 
			},
			{
				"x": -2.785897573,
				"y": -1.367751753,
				"z": 0.9415646646,
				"element": "C" 
			},
			{
				"x": -3.5293960468,
				"y": -0.5275782733,
				"z": -0.3817765845,
				"element": "S" 
			},
			{
				"x": -2.9262023932,
				"y": -2.4311290786,
				"z": 1.0665642577,
				"element": "H" 
			}
		],
		 "valence_orbital": [ 
			{
				"type": "occ",
				"energy": -0.31133,
				"method": "rhf"
			},
			{
				"type": "occ",
				"energy": -0.3076,
				"method": "rhf"
			},
			{
				"type": "occ",
				"energy": -0.28953,
				"method": "rhf"
			},
			{
				"type": "occ",
				"energy": -0.25583,
				"method": "rhf"
			},
			{
				"type": "occ",
				"energy": -0.24227,
				"method": "rhf"
			},
			{
				"type": "unocc",
				"energy": -0.04389,
				"method": "rhf"
			},
			{
				"type": "unocc",
				"energy": -0.0384,
				"method": "rhf"
			},
			{
				"type": "unocc",
				"energy": -0.01629,
				"method": "rhf"
			},
			{
				"type": "unocc",
				"energy": 0.00741,
				"method": "rhf"
			},
			{
				"type": "unocc",
				"energy": 0.02883,
				"method": "rhf"
			}
		],
		"cosmo_sigma_profile": { 
			"-0.025": 0.0,
			"-0.024": 0.0,
			"-0.023": 0.0,
			"-0.022": 0.0,
			"-0.021": 0.0,
			"-0.02": 0.0,
			"-0.019": 0.0,
			"-0.018": 0.0,
			"-0.017": 0.0,
			"-0.016": 0.0,
			"-0.015": 0.0,
			"-0.014": 0.0,
			"-0.013": 0.0,
			"-0.012": 0.0,
			"-0.011": 0.815217917897,
			"-0.01": 2.35761731184,
			"-0.009": 1.81695447651,
			"-0.008": 1.77247559081,
			"-0.007": 2.64712884586,
			"-0.006": 3.90646799315,
			"-0.005": 6.44668804465,
			"-0.004": 6.14421683002,
			"-0.003": 9.15437814754,
			"-0.002": 10.7581764739,
			"-0.001": 18.5033582703,
			"0.0": 30.0305331268,
			"0.001": 25.7906923261,
			"0.002": 24.8868380403,
			"0.003": 26.9996063707,
			"0.004": 16.4508399773,
			"0.005": 1.30883475034,
			"0.006": 0.0,
			"0.007": 0.0,
			"0.008": 0.0,
			"0.009": 0.0,
			"0.01": 0.0,
			"0.011": 0.0,
			"0.012": 0.0,
			"0.013": 0.0,
			"0.014": 0.0,
			"0.015": 0.0,
			"0.016": 0.0,
			"0.017": 0.0,
			"0.018": 0.0,
			"0.019": 0.0,
			"0.02": 0.0,
			"0.021": 0.0,
			"0.022": 0.0,
			"0.023": 0.0,
			"0.024": 0.0,
			"0.025": 0.0
		}
	}
}
