{
	 "smiles": "CN(C)C1=NC(=CC(=C1C#N)C(F)(F)F)C1=CC=CS1", 
	 "Tm": 391.15, 
	 "num_atms": 30, 
	 "gaussian": { 
		 "optdone": 1, 
		 "sigma_profile": "yes", 
		 "theory": "DFT", 
		 "functional": "B3LYP", 
		 "basiset": "6-31G**", 
		 "properties": { 
			 "R2extent": 6939.3827, 
			 "electric_dipole_moment_norm": 6.11494275443, 
			 "electric_quadrupole_moment_norm": 16.1453624741, 
			 "total_energy": -1363.34567833, 
			 "HOMO_LUMO_gap": 0.13821, 
			 "cosmo_polarized_energy": -11.19, 
			 "cosmo_cavitation_energy": 37.64, 
			 "cosmo_dispersion_energy": -26.23, 
			 "cosmo_repulsion_energy": 1.88, 
			 "cosmo_total_nonelectrostatic_energy": 13.29, 
			 "SMD_solvation_energy": 7.4 
		},
		"coords": [
			{
				"x": 3.1074953245,
				"y": -0.9106916145,
				"z": 0.1974719812,
				"element": "C" 
			},
			{
				"x": 2.2702076767,
				"y": -0.2714391568,
				"z": 1.2075191571,
				"element": "N" 
			},
			{
				"x": 2.9646646018,
				"y": 0.1399983894,
				"z": 2.4264867519,
				"element": "C" 
			},
			{
				"x": 1.0289497287,
				"y": 0.1888667756,
				"z": 0.8580961843,
				"element": "C" 
			},
			{
				"x": 0.7598334332,
				"y": 0.2310937964,
				"z": -0.4572375184,
				"element": "N" 
			},
			{
				"x": -0.4029003386,
				"y": 0.7235115484,
				"z": -0.9002782605,
				"element": "C" 
			},
			{
				"x": -1.3752588707,
				"y": 1.2455363091,
				"z": -0.0254896154,
				"element": "C" 
			},
			{
				"x": -1.1533434897,
				"y": 1.1420413871,
				"z": 1.3360608067,
				"element": "C" 
			},
			{
				"x": 0.0393416256,
				"y": 0.5734013146,
				"z": 1.8264680896,
				"element": "C" 
			},
			{
				"x": 0.1820018222,
				"y": 0.2722439375,
				"z": 3.2128360454,
				"element": "C" 
			},
			{
				"x": 0.3010690841,
				"y": -0.0132974842,
				"z": 4.3358721747,
				"element": "N" 
			},
			{
				"x": -2.2228944042,
				"y": 1.6132432938,
				"z": 2.3011807632,
				"element": "C" 
			},
			{
				"x": -3.2429037867,
				"y": 2.2155850647,
				"z": 1.6546213082,
				"element": "F" 
			},
			{
				"x": -1.727259974,
				"y": 2.4996999726,
				"z": 3.1865762151,
				"element": "F" 
			},
			{
				"x": -2.73970717,
				"y": 0.5835696119,
				"z": 2.9990441203,
				"element": "F" 
			},
			{
				"x": -0.5958667569,
				"y": 0.70716068,
				"z": -2.3511774218,
				"element": "C" 
			},
			{
				"x": 0.3164385085,
				"y": 0.3080436821,
				"z": -3.3040915477,
				"element": "C" 
			},
			{
				"x": -0.1747738898,
				"y": 0.4093728689,
				"z": -4.6330142519,
				"element": "C" 
			},
			{
				"x": -1.4591870131,
				"y": 0.8852613799,
				"z": -4.6870922566,
				"element": "C" 
			},
			{
				"x": -2.0900558691,
				"y": 1.2157794235,
				"z": -3.1113652099,
				"element": "S" 
			},
			{
				"x": 2.4904372705,
				"y": -1.475562707,
				"z": -0.4992558248,
				"element": "H" 
			},
			{
				"x": 3.6936553497,
				"y": -0.1797253277,
				"z": -0.3764461311,
				"element": "H" 
			},
			{
				"x": 3.7963846464,
				"y": -1.5933148878,
				"z": 0.7030838365,
				"element": "H" 
			},
			{
				"x": 2.5163782221,
				"y": 1.0401300268,
				"z": 2.8466218049,
				"element": "H" 
			},
			{
				"x": 2.9579976328,
				"y": -0.6384853509,
				"z": 3.196689267,
				"element": "H" 
			},
			{
				"x": 4.0036039541,
				"y": 0.3732002932,
				"z": 2.1708328783,
				"element": "H" 
			},
			{
				"x": -2.2881360215,
				"y": 1.6931569802,
				"z": -0.3947345997,
				"element": "H" 
			},
			{
				"x": 1.3056018226,
				"y": -0.0383850108,
				"z": -3.0340721519,
				"element": "H" 
			},
			{
				"x": 0.3991242268,
				"y": 0.1429056007,
				"z": -5.5129936023,
				"element": "H" 
			},
			{
				"x": -2.0740973461,
				"y": 1.0605992033,
				"z": -5.5591129923,
				"element": "H" 
			}
		],
		 "valence_orbital": [ 
			{
				"type": "occ",
				"energy": -0.30084,
				"method": "rhf"
			},
			{
				"type": "occ",
				"energy": -0.28117,
				"method": "rhf"
			},
			{
				"type": "occ",
				"energy": -0.26652,
				"method": "rhf"
			},
			{
				"type": "occ",
				"energy": -0.24239,
				"method": "rhf"
			},
			{
				"type": "occ",
				"energy": -0.21972,
				"method": "rhf"
			},
			{
				"type": "unocc",
				"energy": -0.08151,
				"method": "rhf"
			},
			{
				"type": "unocc",
				"energy": -0.03499,
				"method": "rhf"
			},
			{
				"type": "unocc",
				"energy": -0.00542,
				"method": "rhf"
			},
			{
				"type": "unocc",
				"energy": 0.01616,
				"method": "rhf"
			},
			{
				"type": "unocc",
				"energy": 0.02986,
				"method": "rhf"
			}
		],
		"cosmo_sigma_profile": { 
			"-0.025": 0.0,
			"-0.024": 0.0,
			"-0.023": 0.0,
			"-0.022": 0.0,
			"-0.021": 0.0,
			"-0.02": 0.0,
			"-0.019": 0.0,
			"-0.018": 0.0,
			"-0.017": 0.0,
			"-0.016": 0.0,
			"-0.015": 0.0,
			"-0.014": 0.0,
			"-0.013": 0.0,
			"-0.012": 0.0,
			"-0.011": 0.0,
			"-0.01": 0.114874815968,
			"-0.009": 2.01191710715,
			"-0.008": 2.16707915125,
			"-0.007": 5.22087836882,
			"-0.006": 10.470015063,
			"-0.005": 17.6145649064,
			"-0.004": 24.696472565,
			"-0.003": 24.5877899388,
			"-0.002": 30.0464754893,
			"-0.001": 27.5002163516,
			"0.0": 24.603828349,
			"0.001": 22.9170900242,
			"0.002": 40.5918785937,
			"0.003": 28.11375012,
			"0.004": 16.4395760406,
			"0.005": 6.33113279504,
			"0.006": 3.87429205666,
			"0.007": 2.71298898326,
			"0.008": 2.82362163594,
			"0.009": 2.7400661069,
			"0.01": 2.48231959026,
			"0.011": 2.72499253881,
			"0.012": 2.44899714219,
			"0.013": 1.62871499139,
			"0.014": 0.0503375407923,
			"0.015": 0.0,
			"0.016": 0.0,
			"0.017": 0.0,
			"0.018": 0.0,
			"0.019": 0.0,
			"0.02": 0.0,
			"0.021": 0.0,
			"0.022": 0.0,
			"0.023": 0.0,
			"0.024": 0.0,
			"0.025": 0.0
		}
	}
}
