{
	 "smiles": "CC(C)COC=O", 
	 "Tm": 177.35, 
	 "num_atms": 17, 
	 "gaussian": { 
		 "optdone": 1, 
		 "sigma_profile": "yes", 
		 "theory": "DFT", 
		 "functional": "B3LYP", 
		 "basiset": "6-31G**", 
		 "properties": { 
			 "R2extent": 1187.3434, 
			 "electric_dipole_moment_norm": 1.82214462104, 
			 "electric_quadrupole_moment_norm": 6.01053795097, 
			 "total_energy": -347.017659565, 
			 "HOMO_LUMO_gap": 0.28704, 
			 "cosmo_polarized_energy": -5.75, 
			 "cosmo_cavitation_energy": 19.98, 
			 "cosmo_dispersion_energy": -14.26, 
			 "cosmo_repulsion_energy": 1.22, 
			 "cosmo_total_nonelectrostatic_energy": 6.94, 
			 "SMD_solvation_energy": 5.6 
		},
		"coords": [
			{
				"x": 2.7414780263,
				"y": -1.197668723,
				"z": -0.2231480789,
				"element": "C" 
			},
			{
				"x": 1.5553615458,
				"y": -1.0631213518,
				"z": 0.74315133,
				"element": "C" 
			},
			{
				"x": 2.0113078319,
				"y": -0.628349327,
				"z": 2.1419884395,
				"element": "C" 
			},
			{
				"x": 0.5322768969,
				"y": -0.0894109003,
				"z": 0.1516353319,
				"element": "C" 
			},
			{
				"x": -0.6416822841,
				"y": 0.0489618434,
				"z": 0.9937706565,
				"element": "O" 
			},
			{
				"x": -1.6296053453,
				"y": -0.8393864662,
				"z": 0.7966278307,
				"element": "C" 
			},
			{
				"x": -1.6366584141,
				"y": -1.738041644,
				"z": -0.0099030777,
				"element": "O" 
			},
			{
				"x": 3.2545158135,
				"y": -0.23724654,
				"z": -0.3561603438,
				"element": "H" 
			},
			{
				"x": 3.4754237842,
				"y": -1.9118685158,
				"z": 0.162924392,
				"element": "H" 
			},
			{
				"x": 2.4210576188,
				"y": -1.548350763,
				"z": -1.2100078294,
				"element": "H" 
			},
			{
				"x": 1.0615745208,
				"y": -2.0403839957,
				"z": 0.8185279522,
				"element": "H" 
			},
			{
				"x": 2.6984688313,
				"y": -1.363419558,
				"z": 2.5734609557,
				"element": "H" 
			},
			{
				"x": 2.5359283822,
				"y": 0.3343414354,
				"z": 2.1010837592,
				"element": "H" 
			},
			{
				"x": 1.1616399234,
				"y": -0.5176754408,
				"z": 2.821439254,
				"element": "H" 
			},
			{
				"x": 0.2137238687,
				"y": -0.4158156344,
				"z": -0.8414778564,
				"element": "H" 
			},
			{
				"x": 0.9447785843,
				"y": 0.9221075673,
				"z": 0.0898827952,
				"element": "H" 
			},
			{
				"x": -2.4522895848,
				"y": -0.6143719863,
				"z": 1.4937044892,
				"element": "H" 
			}
		],
		 "valence_orbital": [ 
			{
				"type": "occ",
				"energy": -0.35236,
				"method": "rhf"
			},
			{
				"type": "occ",
				"energy": -0.33823,
				"method": "rhf"
			},
			{
				"type": "occ",
				"energy": -0.33172,
				"method": "rhf"
			},
			{
				"type": "occ",
				"energy": -0.29852,
				"method": "rhf"
			},
			{
				"type": "occ",
				"energy": -0.28035,
				"method": "rhf"
			},
			{
				"type": "unocc",
				"energy": 0.00669,
				"method": "rhf"
			},
			{
				"type": "unocc",
				"energy": 0.08579,
				"method": "rhf"
			},
			{
				"type": "unocc",
				"energy": 0.1101,
				"method": "rhf"
			},
			{
				"type": "unocc",
				"energy": 0.12104,
				"method": "rhf"
			},
			{
				"type": "unocc",
				"energy": 0.14118,
				"method": "rhf"
			}
		],
		"cosmo_sigma_profile": { 
			"-0.025": 0.0,
			"-0.024": 0.0,
			"-0.023": 0.0,
			"-0.022": 0.0,
			"-0.021": 0.0,
			"-0.02": 0.0,
			"-0.019": 0.0,
			"-0.018": 0.0,
			"-0.017": 0.0,
			"-0.016": 0.0,
			"-0.015": 0.0,
			"-0.014": 0.0,
			"-0.013": 0.0,
			"-0.012": 0.0,
			"-0.011": 0.0,
			"-0.01": 0.00222115124229,
			"-0.009": 2.12647146728,
			"-0.008": 2.09158485929,
			"-0.007": 2.55769704741,
			"-0.006": 1.89920444197,
			"-0.005": 5.48515393473,
			"-0.004": 9.85499876219,
			"-0.003": 19.3701573982,
			"-0.002": 22.5338666962,
			"-0.001": 19.4987249149,
			"0.0": 16.9553572434,
			"0.001": 17.616057974,
			"0.002": 6.29342507881,
			"0.003": 3.84621160598,
			"0.004": 2.94477799902,
			"0.005": 2.22622125791,
			"0.006": 2.43031742182,
			"0.007": 2.75665311961,
			"0.008": 2.67830290699,
			"0.009": 2.23962841039,
			"0.01": 2.41679565645,
			"0.011": 4.26767628285,
			"0.012": 3.2065623715,
			"0.013": 0.416795204792,
			"0.014": 0.0,
			"0.015": 0.0,
			"0.016": 0.0,
			"0.017": 0.0,
			"0.018": 0.0,
			"0.019": 0.0,
			"0.02": 0.0,
			"0.021": 0.0,
			"0.022": 0.0,
			"0.023": 0.0,
			"0.024": 0.0,
			"0.025": 0.0
		}
	}
}
