{
	 "smiles": "ClC1=CC2=C(OC=N2)C=C1", 
	 "Tm": 317.15, 
	 "num_atms": 14, 
	 "gaussian": { 
		 "optdone": 1, 
		 "sigma_profile": "yes", 
		 "theory": "DFT", 
		 "functional": "B3LYP", 
		 "basiset": "6-31G**", 
		 "properties": { 
			 "R2extent": 2582.6399, 
			 "electric_dipole_moment_norm": 2.31456116359, 
			 "electric_quadrupole_moment_norm": 4.38587782206, 
			 "total_energy": -859.312320555, 
			 "HOMO_LUMO_gap": 0.2048, 
			 "cosmo_polarized_energy": -6.61, 
			 "cosmo_cavitation_energy": 20.48, 
			 "cosmo_dispersion_energy": -15.76, 
			 "cosmo_repulsion_energy": 1.25, 
			 "cosmo_total_nonelectrostatic_energy": 5.97, 
			 "SMD_solvation_energy": 2.28 
		},
		"coords": [
			{
				"x": -2.2436552081,
				"y": 3.2898826418,
				"z": 2.785565382,
				"element": "Cl" 
			},
			{
				"x": -1.454969354,
				"y": 1.9398624589,
				"z": 1.9780335153,
				"element": "C" 
			},
			{
				"x": -0.2815289698,
				"y": 2.1748038722,
				"z": 1.2665165151,
				"element": "C" 
			},
			{
				"x": 0.3001550028,
				"y": 1.0661449398,
				"z": 0.6462678732,
				"element": "C" 
			},
			{
				"x": -0.2930019948,
				"y": -0.1984041662,
				"z": 0.7557416184,
				"element": "C" 
			},
			{
				"x": 0.4896944481,
				"y": -1.0827663301,
				"z": 0.05385718,
				"element": "O" 
			},
			{
				"x": 1.5019731882,
				"y": -0.2988819726,
				"z": -0.433358116,
				"element": "C" 
			},
			{
				"x": 1.4576950389,
				"y": 0.9545506816,
				"z": -0.1304961147,
				"element": "N" 
			},
			{
				"x": -1.4615195428,
				"y": -0.4411111676,
				"z": 1.4624171637,
				"element": "C" 
			},
			{
				"x": -2.0430428019,
				"y": 0.6655949562,
				"z": 2.0821044818,
				"element": "C" 
			},
			{
				"x": 0.1579971997,
				"y": 3.1622380293,
				"z": 1.1964402734,
				"element": "H" 
			},
			{
				"x": 2.2458948109,
				"y": -0.8095803233,
				"z": -1.0285084716,
				"element": "H" 
			},
			{
				"x": -1.901551032,
				"y": -1.4292383448,
				"z": 1.532777856,
				"element": "H" 
			},
			{
				"x": -2.9578407852,
				"y": 0.5514047248,
				"z": 2.6519408435,
				"element": "H" 
			}
		],
		 "valence_orbital": [ 
			{
				"type": "occ",
				"energy": -0.33045,
				"method": "rhf"
			},
			{
				"type": "occ",
				"energy": -0.31661,
				"method": "rhf"
			},
			{
				"type": "occ",
				"energy": -0.30445,
				"method": "rhf"
			},
			{
				"type": "occ",
				"energy": -0.257,
				"method": "rhf"
			},
			{
				"type": "occ",
				"energy": -0.24688,
				"method": "rhf"
			},
			{
				"type": "unocc",
				"energy": -0.04208,
				"method": "rhf"
			},
			{
				"type": "unocc",
				"energy": -0.00982,
				"method": "rhf"
			},
			{
				"type": "unocc",
				"energy": 0.02425,
				"method": "rhf"
			},
			{
				"type": "unocc",
				"energy": 0.02437,
				"method": "rhf"
			},
			{
				"type": "unocc",
				"energy": 0.10504,
				"method": "rhf"
			}
		],
		"cosmo_sigma_profile": { 
			"-0.025": 0.0,
			"-0.024": 0.0,
			"-0.023": 0.0,
			"-0.022": 0.0,
			"-0.021": 0.0,
			"-0.02": 0.0,
			"-0.019": 0.0,
			"-0.018": 0.0,
			"-0.017": 0.0,
			"-0.016": 0.0,
			"-0.015": 0.0,
			"-0.014": 0.0,
			"-0.013": 0.0,
			"-0.012": 0.571569345911,
			"-0.011": 2.57177272423,
			"-0.01": 1.73133973714,
			"-0.009": 1.91946951561,
			"-0.008": 5.25735758153,
			"-0.007": 7.03647983706,
			"-0.006": 6.34221461397,
			"-0.005": 5.67124673955,
			"-0.004": 6.37005609884,
			"-0.003": 10.2226419682,
			"-0.002": 9.4931720223,
			"-0.001": 11.0623187717,
			"0.0": 14.0860393643,
			"0.001": 18.1360898337,
			"0.002": 22.3436850294,
			"0.003": 12.0928515997,
			"0.004": 12.0052389289,
			"0.005": 8.66285003485,
			"0.006": 2.99350695376,
			"0.007": 1.73012387192,
			"0.008": 1.19221948976,
			"0.009": 1.3827649315,
			"0.01": 0.877083773652,
			"0.011": 0.961241591466,
			"0.012": 1.03162168715,
			"0.013": 1.01801129952,
			"0.014": 0.963564685184,
			"0.015": 0.688962608883,
			"0.016": 0.011500088283,
			"0.017": 0.0,
			"0.018": 0.0,
			"0.019": 0.0,
			"0.02": 0.0,
			"0.021": 0.0,
			"0.022": 0.0,
			"0.023": 0.0,
			"0.024": 0.0,
			"0.025": 0.0
		}
	}
}
