{
	 "smiles": "COC1=CC(C=CC2=NC3=C(C=C(Br)C=C3)C(=C2)C(O)=O)=CC=C1", 
	 "Tm": 559.15, 
	 "num_atms": 38, 
	 "gaussian": { 
		 "optdone": 1, 
		 "sigma_profile": "yes", 
		 "theory": "DFT", 
		 "functional": "B3LYP", 
		 "basiset": "6-31G**", 
		 "properties": { 
			 "R2extent": 15976.6483, 
			 "electric_dipole_moment_norm": 1.99780656972, 
			 "electric_quadrupole_moment_norm": 9.68422438918, 
			 "total_energy": -3584.28174312, 
			 "HOMO_LUMO_gap": 0.12983, 
			 "cosmo_polarized_energy": -14.6, 
			 "cosmo_cavitation_energy": 45.53, 
			 "cosmo_dispersion_energy": -32.25, 
			 "cosmo_repulsion_energy": 2.45, 
			 "cosmo_total_nonelectrostatic_energy": 15.74, 
			 "SMD_solvation_energy": 6.72 
		},
		"coords": [
			{
				"x": 1.4077608533,
				"y": -5.784545852,
				"z": -1.3458906994,
				"element": "C" 
			},
			{
				"x": 1.7087934722,
				"y": -5.2561179698,
				"z": -0.0641390464,
				"element": "O" 
			},
			{
				"x": 0.9508442329,
				"y": -4.2239814282,
				"z": 0.4063470938,
				"element": "C" 
			},
			{
				"x": -0.1196912883,
				"y": -3.6484773831,
				"z": -0.2825160154,
				"element": "C" 
			},
			{
				"x": -0.8345885164,
				"y": -2.5718927092,
				"z": 0.279250658,
				"element": "C" 
			},
			{
				"x": -1.9809932008,
				"y": -2.0237505331,
				"z": -0.4697560312,
				"element": "C" 
			},
			{
				"x": -2.4293964532,
				"y": -0.7561283538,
				"z": -0.5812090559,
				"element": "C" 
			},
			{
				"x": -1.8438335598,
				"y": 0.5156867146,
				"z": -0.1218600783,
				"element": "C" 
			},
			{
				"x": -2.7077891976,
				"y": 1.5066482025,
				"z": 0.0630784838,
				"element": "N" 
			},
			{
				"x": -2.2436896012,
				"y": 2.725103372,
				"z": 0.4458319119,
				"element": "C" 
			},
			{
				"x": -0.8521954274,
				"y": 3.0236065655,
				"z": 0.6501890902,
				"element": "C" 
			},
			{
				"x": -0.4970976706,
				"y": 4.341535696,
				"z": 1.0428461833,
				"element": "C" 
			},
			{
				"x": -1.4765968888,
				"y": 5.2924763835,
				"z": 1.2222499697,
				"element": "C" 
			},
			{
				"x": -0.9774654934,
				"y": 7.0597391742,
				"z": 1.7524137709,
				"element": "Br" 
			},
			{
				"x": -2.846595216,
				"y": 5.0121095844,
				"z": 1.0271952341,
				"element": "C" 
			},
			{
				"x": -3.2135841555,
				"y": 3.7454184208,
				"z": 0.642854312,
				"element": "C" 
			},
			{
				"x": 0.062313996,
				"y": 1.9418639229,
				"z": 0.4016579436,
				"element": "C" 
			},
			{
				"x": -0.4419297434,
				"y": 0.7172223492,
				"z": 0.0187067073,
				"element": "C" 
			},
			{
				"x": 1.559115524,
				"y": 1.9953685933,
				"z": 0.4903509459,
				"element": "C" 
			},
			{
				"x": 2.0576822497,
				"y": 3.0891441152,
				"z": 1.1138690248,
				"element": "O" 
			},
			{
				"x": 2.2903016378,
				"y": 1.1257192556,
				"z": 0.0624917729,
				"element": "O" 
			},
			{
				"x": -0.4838966877,
				"y": -2.1109753386,
				"z": 1.5568091597,
				"element": "C" 
			},
			{
				"x": 0.5811511021,
				"y": -2.6991660166,
				"z": 2.2425857391,
				"element": "C" 
			},
			{
				"x": 1.3026198016,
				"y": -3.7440244924,
				"z": 1.6776713336,
				"element": "C" 
			},
			{
				"x": 1.5104556644,
				"y": -5.0250040482,
				"z": -2.1315878784,
				"element": "H" 
			},
			{
				"x": 2.1321272151,
				"y": -6.5814616198,
				"z": -1.5207481431,
				"element": "H" 
			},
			{
				"x": 0.3942737707,
				"y": -6.2046984225,
				"z": -1.3838988801,
				"element": "H" 
			},
			{
				"x": -0.4084359295,
				"y": -4.0121260684,
				"z": -1.2620875481,
				"element": "H" 
			},
			{
				"x": -2.5676164575,
				"y": -2.7765078808,
				"z": -0.9963958591,
				"element": "H" 
			},
			{
				"x": -3.3760783647,
				"y": -0.6077333923,
				"z": -1.0954127256,
				"element": "H" 
			},
			{
				"x": 0.5386369585,
				"y": 4.5972624227,
				"z": 1.2029026552,
				"element": "H" 
			},
			{
				"x": -3.586066045,
				"y": 5.7897533855,
				"z": 1.1792974108,
				"element": "H" 
			},
			{
				"x": -4.2526184087,
				"y": 3.4810787488,
				"z": 0.4782335435,
				"element": "H" 
			},
			{
				"x": 0.2512654061,
				"y": -0.0872083152,
				"z": -0.1883354482,
				"element": "H" 
			},
			{
				"x": 3.0236597572,
				"y": 2.9797986746,
				"z": 1.0996463096,
				"element": "H" 
			},
			{
				"x": -1.0580168125,
				"y": -1.3156696199,
				"z": 2.0190705244,
				"element": "H" 
			},
			{
				"x": 0.8452209549,
				"y": -2.3428598116,
				"z": 3.2340939235,
				"element": "H" 
			},
			{
				"x": 2.1314525214,
				"y": -4.2120063257,
				"z": 2.1981937074,
				"element": "H" 
			}
		],
		 "valence_orbital": [ 
			{
				"type": "occ",
				"energy": -0.26586,
				"method": "rhf"
			},
			{
				"type": "occ",
				"energy": -0.25735,
				"method": "rhf"
			},
			{
				"type": "occ",
				"energy": -0.24601,
				"method": "rhf"
			},
			{
				"type": "occ",
				"energy": -0.23096,
				"method": "rhf"
			},
			{
				"type": "occ",
				"energy": -0.21432,
				"method": "rhf"
			},
			{
				"type": "unocc",
				"energy": -0.08449,
				"method": "rhf"
			},
			{
				"type": "unocc",
				"energy": -0.0516,
				"method": "rhf"
			},
			{
				"type": "unocc",
				"energy": -0.01674,
				"method": "rhf"
			},
			{
				"type": "unocc",
				"energy": -0.01014,
				"method": "rhf"
			},
			{
				"type": "unocc",
				"energy": 0.00524,
				"method": "rhf"
			}
		],
		"cosmo_sigma_profile": { 
			"-0.025": 0.0,
			"-0.024": 0.0,
			"-0.023": 0.0,
			"-0.022": 0.0,
			"-0.021": 0.0,
			"-0.02": 0.0,
			"-0.019": 0.374060524423,
			"-0.018": 0.970407018453,
			"-0.017": 0.659002793271,
			"-0.016": 1.1480856133,
			"-0.015": 0.888033669195,
			"-0.014": 0.465730129679,
			"-0.013": 0.61348253795,
			"-0.012": 0.693441604426,
			"-0.011": 0.920943721702,
			"-0.01": 0.420420470087,
			"-0.009": 0.463885088956,
			"-0.008": 1.81427387725,
			"-0.007": 4.55514339532,
			"-0.006": 17.1945254669,
			"-0.005": 26.0763316026,
			"-0.004": 26.1928377633,
			"-0.003": 28.2954427511,
			"-0.002": 24.6908119556,
			"-0.001": 28.2107049362,
			"0.0": 31.2841673566,
			"0.001": 34.9972185379,
			"0.002": 35.6182213849,
			"0.003": 28.8881809979,
			"0.004": 28.9894505863,
			"0.005": 14.3344819507,
			"0.006": 4.87758185692,
			"0.007": 4.03281231204,
			"0.008": 3.47535309032,
			"0.009": 4.33324870336,
			"0.01": 5.09190046664,
			"0.011": 6.01368797838,
			"0.012": 1.27281780466,
			"0.013": 0.654286954568,
			"0.014": 0.430323540165,
			"0.015": 0.0,
			"0.016": 0.0,
			"0.017": 0.0,
			"0.018": 0.0,
			"0.019": 0.0,
			"0.02": 0.0,
			"0.021": 0.0,
			"0.022": 0.0,
			"0.023": 0.0,
			"0.024": 0.0,
			"0.025": 0.0
		}
	}
}
