{
	 "smiles": "OC(=O)C1=CN(CC=C)C2=C1C=CC=C2", 
	 "Tm": 433.15, 
	 "num_atms": 26, 
	 "gaussian": { 
		 "optdone": 1, 
		 "sigma_profile": "yes", 
		 "theory": "DFT", 
		 "functional": "B3LYP", 
		 "basiset": "6-31G**", 
		 "properties": { 
			 "R2extent": 3634.8454, 
			 "electric_dipole_moment_norm": 7.00943508351, 
			 "electric_quadrupole_moment_norm": 17.4874741521, 
			 "total_energy": -669.094730106, 
			 "HOMO_LUMO_gap": 0.18228, 
			 "cosmo_polarized_energy": -20.19, 
			 "cosmo_cavitation_energy": 30.52, 
			 "cosmo_dispersion_energy": -21.59, 
			 "cosmo_repulsion_energy": 1.67, 
			 "cosmo_total_nonelectrostatic_energy": 10.61, 
			 "SMD_solvation_energy": 6.62 
		},
		"coords": [
			{
				"x": 3.1291432409,
				"y": -2.40358581,
				"z": -1.6122204949,
				"element": "O" 
			},
			{
				"x": 2.2669240539,
				"y": -2.5458631683,
				"z": -0.5579774162,
				"element": "C" 
			},
			{
				"x": 2.4798461486,
				"y": -3.4045170587,
				"z": 0.2698612805,
				"element": "O" 
			},
			{
				"x": 1.127266466,
				"y": -1.6186779615,
				"z": -0.5072127274,
				"element": "C" 
			},
			{
				"x": 0.9453940895,
				"y": -0.4470068908,
				"z": -1.2176575038,
				"element": "C" 
			},
			{
				"x": -0.2435686579,
				"y": 0.1435362636,
				"z": -0.8726337629,
				"element": "N" 
			},
			{
				"x": -0.7433424509,
				"y": 1.410344604,
				"z": -1.3991257787,
				"element": "C" 
			},
			{
				"x": -0.6864501394,
				"y": 2.5378708836,
				"z": -0.3980927955,
				"element": "C" 
			},
			{
				"x": -1.7092997857,
				"y": 3.3485183531,
				"z": -0.1319313453,
				"element": "C" 
			},
			{
				"x": -0.8651177596,
				"y": -0.6434225785,
				"z": 0.0943076808,
				"element": "C" 
			},
			{
				"x": -0.0259213044,
				"y": -1.7568292198,
				"z": 0.3511952717,
				"element": "C" 
			},
			{
				"x": -0.4247223834,
				"y": -2.7199964733,
				"z": 1.2921770249,
				"element": "C" 
			},
			{
				"x": -1.6405052641,
				"y": -2.5469251172,
				"z": 1.9410282954,
				"element": "C" 
			},
			{
				"x": -2.4633298957,
				"y": -1.4338661827,
				"z": 1.6715808855,
				"element": "C" 
			},
			{
				"x": -2.0901855969,
				"y": -0.4644759799,
				"z": 0.7476884941,
				"element": "C" 
			},
			{
				"x": 2.7372851857,
				"y": -1.8267255914,
				"z": -2.2815647723,
				"element": "H" 
			},
			{
				"x": 1.5930465666,
				"y": 0.0436540911,
				"z": -1.9332461653,
				"element": "H" 
			},
			{
				"x": -1.7695079827,
				"y": 1.2710805601,
				"z": -1.7583147666,
				"element": "H" 
			},
			{
				"x": -0.1270951827,
				"y": 1.6502241848,
				"z": -2.27367226,
				"element": "H" 
			},
			{
				"x": 0.2710224743,
				"y": 2.6756596749,
				"z": 0.1023282268,
				"element": "H" 
			},
			{
				"x": -2.6762233787,
				"y": 3.2268569398,
				"z": -0.6153259286,
				"element": "H" 
			},
			{
				"x": -1.6180496125,
				"y": 4.1674837613,
				"z": 0.5745035358,
				"element": "H" 
			},
			{
				"x": 0.2203176243,
				"y": -3.5660267177,
				"z": 1.4984584489,
				"element": "H" 
			},
			{
				"x": -1.9649796882,
				"y": -3.2793517613,
				"z": 2.6743120571,
				"element": "H" 
			},
			{
				"x": -3.4059337875,
				"y": -1.327527436,
				"z": 2.2004907023,
				"element": "H" 
			},
			{
				"x": -2.7167129794,
				"y": 0.3995686309,
				"z": 0.5558438137,
				"element": "H" 
			}
		],
		 "valence_orbital": [ 
			{
				"type": "occ",
				"energy": -0.28925,
				"method": "rhf"
			},
			{
				"type": "occ",
				"energy": -0.27622,
				"method": "rhf"
			},
			{
				"type": "occ",
				"energy": -0.26013,
				"method": "rhf"
			},
			{
				"type": "occ",
				"energy": -0.23202,
				"method": "rhf"
			},
			{
				"type": "occ",
				"energy": -0.21605,
				"method": "rhf"
			},
			{
				"type": "unocc",
				"energy": -0.03377,
				"method": "rhf"
			},
			{
				"type": "unocc",
				"energy": -0.01009,
				"method": "rhf"
			},
			{
				"type": "unocc",
				"energy": 0.00558,
				"method": "rhf"
			},
			{
				"type": "unocc",
				"energy": 0.01896,
				"method": "rhf"
			},
			{
				"type": "unocc",
				"energy": 0.06183,
				"method": "rhf"
			}
		],
		"cosmo_sigma_profile": { 
			"-0.025": 0.0,
			"-0.024": 0.0,
			"-0.023": 0.0,
			"-0.022": 0.0,
			"-0.021": 0.0,
			"-0.02": 0.0,
			"-0.019": 0.0983862618942,
			"-0.018": 0.946396185974,
			"-0.017": 1.19479715665,
			"-0.016": 0.712435179109,
			"-0.015": 0.923263956768,
			"-0.014": 0.876532277822,
			"-0.013": 1.44415817858,
			"-0.012": 1.72505285744,
			"-0.011": 1.7238507772,
			"-0.01": 3.17993758745,
			"-0.009": 2.75221254535,
			"-0.008": 2.44300639745,
			"-0.007": 4.77835106851,
			"-0.006": 11.8444896596,
			"-0.005": 20.3913611537,
			"-0.004": 17.6621983683,
			"-0.003": 16.8817501891,
			"-0.002": 14.2809952437,
			"-0.001": 14.7745523197,
			"0.0": 11.8455080245,
			"0.001": 13.8808020908,
			"0.002": 15.7244895551,
			"0.003": 15.1975547044,
			"0.004": 15.5711694078,
			"0.005": 15.3100007298,
			"0.006": 9.66209550083,
			"0.007": 4.29446242499,
			"0.008": 2.63201440389,
			"0.009": 2.94342034316,
			"0.01": 3.33058459076,
			"0.011": 5.1183462601,
			"0.012": 5.21609222962,
			"0.013": 3.24257317322,
			"0.014": 1.39102658101,
			"0.015": 0.0169720727317,
			"0.016": 0.0,
			"0.017": 0.0,
			"0.018": 0.0,
			"0.019": 0.0,
			"0.02": 0.0,
			"0.021": 0.0,
			"0.022": 0.0,
			"0.023": 0.0,
			"0.024": 0.0,
			"0.025": 0.0
		}
	}
}
