{
	 "smiles": "NC1=NNC(=O)C1C1=CC=CC=C1", 
	 "Tm": 523.15, 
	 "num_atms": 22, 
	 "gaussian": { 
		 "optdone": 1, 
		 "sigma_profile": "yes", 
		 "theory": "DFT", 
		 "functional": "B3LYP", 
		 "basiset": "6-31G**", 
		 "properties": { 
			 "R2extent": 2367.4968, 
			 "electric_dipole_moment_norm": 3.87503446565, 
			 "electric_quadrupole_moment_norm": 5.68356021962, 
			 "total_energy": -587.842153546, 
			 "HOMO_LUMO_gap": 0.19347, 
			 "cosmo_polarized_energy": -17.45, 
			 "cosmo_cavitation_energy": 26.47, 
			 "cosmo_dispersion_energy": -18.98, 
			 "cosmo_repulsion_energy": 1.54, 
			 "cosmo_total_nonelectrostatic_energy": 9.02, 
			 "SMD_solvation_energy": 4.15 
		},
		"coords": [
			{
				"x": -0.7074988452,
				"y": -2.9530855415,
				"z": -0.7472827554,
				"element": "N" 
			},
			{
				"x": 0.2248357007,
				"y": -2.1466175165,
				"z": -0.1366543796,
				"element": "C" 
			},
			{
				"x": 1.4816364724,
				"y": -2.4390904208,
				"z": -0.0677868902,
				"element": "N" 
			},
			{
				"x": 2.0713385242,
				"y": -1.4349362126,
				"z": 0.7214601783,
				"element": "N" 
			},
			{
				"x": 1.2351911341,
				"y": -0.424179829,
				"z": 1.1132013157,
				"element": "C" 
			},
			{
				"x": 1.5236799626,
				"y": 0.5836460248,
				"z": 1.7301038369,
				"element": "O" 
			},
			{
				"x": -0.160133553,
				"y": -0.8835537614,
				"z": 0.603338642,
				"element": "C" 
			},
			{
				"x": -0.9106516447,
				"y": 0.1563219457,
				"z": -0.2012055399,
				"element": "C" 
			},
			{
				"x": -2.02089773,
				"y": 0.8119696401,
				"z": 0.3433048713,
				"element": "C" 
			},
			{
				"x": -2.7027434644,
				"y": 1.7843648468,
				"z": -0.3899645967,
				"element": "C" 
			},
			{
				"x": -2.2832316812,
				"y": 2.1115408726,
				"z": -1.6799139106,
				"element": "C" 
			},
			{
				"x": -1.1758888309,
				"y": 1.463297347,
				"z": -2.231847727,
				"element": "C" 
			},
			{
				"x": -0.4937348695,
				"y": 0.4937883777,
				"z": -1.4977302491,
				"element": "C" 
			},
			{
				"x": -0.3093521717,
				"y": -3.6773168491,
				"z": -1.3322616916,
				"element": "H" 
			},
			{
				"x": -1.4767143087,
				"y": -2.4593200029,
				"z": -1.1808612428,
				"element": "H" 
			},
			{
				"x": 3.0744093475,
				"y": -1.4282660796,
				"z": 0.8210358799,
				"element": "H" 
			},
			{
				"x": -0.7499344405,
				"y": -1.1542130181,
				"z": 1.4880395604,
				"element": "H" 
			},
			{
				"x": -2.3490766798,
				"y": 0.5635775828,
				"z": 1.3490413856,
				"element": "H" 
			},
			{
				"x": -3.5613789029,
				"y": 2.285057785,
				"z": 0.0479739338,
				"element": "H" 
			},
			{
				"x": -2.8139448694,
				"y": 2.8672250731,
				"z": -2.2515639467,
				"element": "H" 
			},
			{
				"x": -0.8401892737,
				"y": 1.7151871202,
				"z": -3.2337366608,
				"element": "H" 
			},
			{
				"x": 0.3719801241,
				"y": -0.0019973842,
				"z": -1.9300900134,
				"element": "H" 
			}
		],
		 "valence_orbital": [ 
			{
				"type": "occ",
				"energy": -0.30325,
				"method": "rhf"
			},
			{
				"type": "occ",
				"energy": -0.26567,
				"method": "rhf"
			},
			{
				"type": "occ",
				"energy": -0.25895,
				"method": "rhf"
			},
			{
				"type": "occ",
				"energy": -0.23753,
				"method": "rhf"
			},
			{
				"type": "occ",
				"energy": -0.20822,
				"method": "rhf"
			},
			{
				"type": "unocc",
				"energy": -0.01475,
				"method": "rhf"
			},
			{
				"type": "unocc",
				"energy": -0.01217,
				"method": "rhf"
			},
			{
				"type": "unocc",
				"energy": -0.00669,
				"method": "rhf"
			},
			{
				"type": "unocc",
				"energy": 0.05757,
				"method": "rhf"
			},
			{
				"type": "unocc",
				"energy": 0.08055,
				"method": "rhf"
			}
		],
		"cosmo_sigma_profile": { 
			"-0.025": 0.0,
			"-0.024": 0.0,
			"-0.023": 0.0,
			"-0.022": 0.0,
			"-0.021": 0.0,
			"-0.02": 0.0,
			"-0.019": 0.0,
			"-0.018": 0.0,
			"-0.017": 0.0,
			"-0.016": 0.342866479922,
			"-0.015": 1.42250546429,
			"-0.014": 0.8706677333,
			"-0.013": 3.11177492934,
			"-0.012": 3.50841692625,
			"-0.011": 2.31210920873,
			"-0.01": 3.15249845763,
			"-0.009": 3.28267312968,
			"-0.008": 5.80639832767,
			"-0.007": 6.769400855,
			"-0.006": 11.4081578755,
			"-0.005": 15.1998269766,
			"-0.004": 16.1880531069,
			"-0.003": 12.6991530904,
			"-0.002": 12.0519024828,
			"-0.001": 9.21796912186,
			"0.0": 8.98907341364,
			"0.001": 10.0118723409,
			"0.002": 10.0215743557,
			"0.003": 10.6112535698,
			"0.004": 11.4281778532,
			"0.005": 12.9457357181,
			"0.006": 4.78241798116,
			"0.007": 3.43077170943,
			"0.008": 4.43559080117,
			"0.009": 3.37582352947,
			"0.01": 3.18070463079,
			"0.011": 3.47135212793,
			"0.012": 4.26739715417,
			"0.013": 7.62476300379,
			"0.014": 3.78008464249,
			"0.015": 0.821227841341,
			"0.016": 0.152987751161,
			"0.017": 0.0,
			"0.018": 0.0,
			"0.019": 0.0,
			"0.02": 0.0,
			"0.021": 0.0,
			"0.022": 0.0,
			"0.023": 0.0,
			"0.024": 0.0,
			"0.025": 0.0
		}
	}
}
