{
	 "smiles": "CC1=C(N)ON=C1C1=CN=CC=C1", 
	 "Tm": 451.15, 
	 "num_atms": 22, 
	 "gaussian": { 
		 "optdone": 1, 
		 "sigma_profile": "yes", 
		 "theory": "DFT", 
		 "functional": "B3LYP", 
		 "basiset": "6-31G**", 
		 "properties": { 
			 "R2extent": 3507.3534, 
			 "electric_dipole_moment_norm": 5.77252533472, 
			 "electric_quadrupole_moment_norm": 18.1719560887, 
			 "total_energy": -587.810485988, 
			 "HOMO_LUMO_gap": 0.1813, 
			 "cosmo_polarized_energy": -16.42, 
			 "cosmo_cavitation_energy": 26.46, 
			 "cosmo_dispersion_energy": -19.49, 
			 "cosmo_repulsion_energy": 1.54, 
			 "cosmo_total_nonelectrostatic_energy": 8.51, 
			 "SMD_solvation_energy": 3.17 
		},
		"coords": [
			{
				"x": -1.9812650613,
				"y": -1.1766470682,
				"z": -1.6762654697,
				"element": "C" 
			},
			{
				"x": -0.9681962265,
				"y": -2.1928257815,
				"z": -1.2414681733,
				"element": "C" 
			},
			{
				"x": -0.8494551677,
				"y": -3.4858944142,
				"z": -1.6867202957,
				"element": "C" 
			},
			{
				"x": -1.5654432365,
				"y": -4.2208733044,
				"z": -2.6057127865,
				"element": "N" 
			},
			{
				"x": 0.1229118695,
				"y": -4.1365316375,
				"z": -1.026175201,
				"element": "O" 
			},
			{
				"x": 0.6976268904,
				"y": -3.2613996683,
				"z": -0.0812082967,
				"element": "N" 
			},
			{
				"x": 0.0423643158,
				"y": -2.1229547774,
				"z": -0.227926734,
				"element": "C" 
			},
			{
				"x": 0.3903896822,
				"y": -0.9904385819,
				"z": 0.6498920642,
				"element": "C" 
			},
			{
				"x": 0.8417247602,
				"y": -1.2250053927,
				"z": 1.9619425092,
				"element": "C" 
			},
			{
				"x": 1.1902344299,
				"y": -0.2605817537,
				"z": 2.8162846568,
				"element": "N" 
			},
			{
				"x": 1.0955252077,
				"y": 1.0067582731,
				"z": 2.3910895573,
				"element": "C" 
			},
			{
				"x": 0.6580873933,
				"y": 1.3576085009,
				"z": 1.114246915,
				"element": "C" 
			},
			{
				"x": 0.3032228941,
				"y": 0.3423112568,
				"z": 0.2285803373,
				"element": "C" 
			},
			{
				"x": -2.2947530748,
				"y": -0.5477575308,
				"z": -0.8376664367,
				"element": "H" 
			},
			{
				"x": -1.6106217824,
				"y": -0.5076084656,
				"z": -2.4642874553,
				"element": "H" 
			},
			{
				"x": -2.8804276006,
				"y": -1.6693484933,
				"z": -2.0623768413,
				"element": "H" 
			},
			{
				"x": -1.8905661236,
				"y": -3.7000926199,
				"z": -3.4081917817,
				"element": "H" 
			},
			{
				"x": -1.1304710918,
				"y": -5.0987603658,
				"z": -2.8575791211,
				"element": "H" 
			},
			{
				"x": 0.9151568254,
				"y": -2.2485835797,
				"z": 2.320828225,
				"element": "H" 
			},
			{
				"x": 1.3842286801,
				"y": 1.7757671919,
				"z": 3.1055528135,
				"element": "H" 
			},
			{
				"x": 0.6055740613,
				"y": 2.4007805114,
				"z": 0.8184856226,
				"element": "H" 
			},
			{
				"x": -0.0171476446,
				"y": 0.581177701,
				"z": -0.7803241078,
				"element": "H" 
			}
		],
		 "valence_orbital": [ 
			{
				"type": "occ",
				"energy": -0.2977,
				"method": "rhf"
			},
			{
				"type": "occ",
				"energy": -0.28076,
				"method": "rhf"
			},
			{
				"type": "occ",
				"energy": -0.25124,
				"method": "rhf"
			},
			{
				"type": "occ",
				"energy": -0.24597,
				"method": "rhf"
			},
			{
				"type": "occ",
				"energy": -0.21624,
				"method": "rhf"
			},
			{
				"type": "unocc",
				"energy": -0.03494,
				"method": "rhf"
			},
			{
				"type": "unocc",
				"energy": -0.02042,
				"method": "rhf"
			},
			{
				"type": "unocc",
				"energy": 0.02257,
				"method": "rhf"
			},
			{
				"type": "unocc",
				"energy": 0.0566,
				"method": "rhf"
			},
			{
				"type": "unocc",
				"energy": 0.07637,
				"method": "rhf"
			}
		],
		"cosmo_sigma_profile": { 
			"-0.025": 0.0,
			"-0.024": 0.0,
			"-0.023": 0.0,
			"-0.022": 0.0,
			"-0.021": 0.0,
			"-0.02": 0.0,
			"-0.019": 0.0,
			"-0.018": 0.0,
			"-0.017": 0.0,
			"-0.016": 0.0,
			"-0.015": 0.0889261912614,
			"-0.014": 2.33344961201,
			"-0.013": 2.18205762171,
			"-0.012": 2.20664697921,
			"-0.011": 3.1626625455,
			"-0.01": 2.2772331389,
			"-0.009": 2.88075182984,
			"-0.008": 2.10622065469,
			"-0.007": 6.37561370744,
			"-0.006": 11.1155890137,
			"-0.005": 11.536063743,
			"-0.004": 13.2849210284,
			"-0.003": 13.9933645705,
			"-0.002": 13.829048494,
			"-0.001": 12.8968602208,
			"0.0": 15.3844192252,
			"0.001": 17.2745768046,
			"0.002": 20.9129333599,
			"0.003": 9.86119056716,
			"0.004": 6.02169795501,
			"0.005": 5.62751504986,
			"0.006": 4.28097779508,
			"0.007": 4.55406939435,
			"0.008": 6.40163465615,
			"0.009": 4.78986537147,
			"0.01": 3.39402590125,
			"0.011": 3.17169361829,
			"0.012": 2.93527172786,
			"0.013": 1.9549475069,
			"0.014": 2.29699685456,
			"0.015": 1.41142961014,
			"0.016": 0.718720653103,
			"0.017": 0.152809886225,
			"0.018": 0.0,
			"0.019": 0.0,
			"0.02": 0.0,
			"0.021": 0.0,
			"0.022": 0.0,
			"0.023": 0.0,
			"0.024": 0.0,
			"0.025": 0.0
		}
	}
}
