{
	 "smiles": "COC1=CC(O)=C(C(C)=O)C(OC)=C1", 
	 "Tm": 355.15, 
	 "num_atms": 26, 
	 "gaussian": { 
		 "optdone": 1, 
		 "sigma_profile": "yes", 
		 "theory": "DFT", 
		 "functional": "B3LYP", 
		 "basiset": "6-31G**", 
		 "properties": { 
			 "R2extent": 3095.3829, 
			 "electric_dipole_moment_norm": 4.09335415277, 
			 "electric_quadrupole_moment_norm": 12.1526976948, 
			 "total_energy": -689.155884669, 
			 "HOMO_LUMO_gap": 0.19215, 
			 "cosmo_polarized_energy": -14.65, 
			 "cosmo_cavitation_energy": 29.59, 
			 "cosmo_dispersion_energy": -21.46, 
			 "cosmo_repulsion_energy": 1.7, 
			 "cosmo_total_nonelectrostatic_energy": 9.84, 
			 "SMD_solvation_energy": 7.6 
		},
		"coords": [
			{
				"x": 0.4933414106,
				"y": -3.8443569048,
				"z": 2.0457411981,
				"element": "C" 
			},
			{
				"x": -0.2060498138,
				"y": -3.5522003694,
				"z": 0.8431363318,
				"element": "O" 
			},
			{
				"x": -0.2021332769,
				"y": -2.2703125286,
				"z": 0.3903133728,
				"element": "C" 
			},
			{
				"x": -0.9112602577,
				"y": -2.0477792808,
				"z": -0.7960392559,
				"element": "C" 
			},
			{
				"x": -0.9538481615,
				"y": -0.7729933375,
				"z": -1.3509907839,
				"element": "C" 
			},
			{
				"x": -1.652102202,
				"y": -0.5446330913,
				"z": -2.5036990381,
				"element": "O" 
			},
			{
				"x": -0.3183434271,
				"y": 0.3319299985,
				"z": -0.7362211108,
				"element": "C" 
			},
			{
				"x": -0.365594956,
				"y": 1.7179000937,
				"z": -1.3102233726,
				"element": "C" 
			},
			{
				"x": -0.2662814653,
				"y": 1.903170964,
				"z": -2.8159647351,
				"element": "C" 
			},
			{
				"x": -0.4559309456,
				"y": 2.6975207175,
				"z": -0.585083145,
				"element": "O" 
			},
			{
				"x": 0.3807748783,
				"y": 0.0729658012,
				"z": 0.4627658862,
				"element": "C" 
			},
			{
				"x": 1.1094278724,
				"y": 1.0591221862,
				"z": 1.074812455,
				"element": "O" 
			},
			{
				"x": 0.4453526766,
				"y": 1.7502251065,
				"z": 2.1386936228,
				"element": "C" 
			},
			{
				"x": 0.4514679573,
				"y": -1.2083183237,
				"z": 1.0194709079,
				"element": "C" 
			},
			{
				"x": 0.0886099346,
				"y": -3.278923273,
				"z": 2.8940193491,
				"element": "H" 
			},
			{
				"x": 0.3514908015,
				"y": -4.9113365459,
				"z": 2.2227316495,
				"element": "H" 
			},
			{
				"x": 1.5652173918,
				"y": -3.6323693292,
				"z": 1.9498298439,
				"element": "H" 
			},
			{
				"x": -1.419518176,
				"y": -2.8842268951,
				"z": -1.2672799225,
				"element": "H" 
			},
			{
				"x": -2.0359257562,
				"y": -1.3775029916,
				"z": -2.8068968422,
				"element": "H" 
			},
			{
				"x": 0.0915817828,
				"y": 2.9164721341,
				"z": -3.008229053,
				"element": "H" 
			},
			{
				"x": 0.3940721196,
				"y": 1.1667350412,
				"z": -3.2812605402,
				"element": "H" 
			},
			{
				"x": -1.2545680172,
				"y": 1.7827819762,
				"z": -3.2690863013,
				"element": "H" 
			},
			{
				"x": 0.1195870972,
				"y": 1.0505544152,
				"z": 2.9199825274,
				"element": "H" 
			},
			{
				"x": -0.4064138198,
				"y": 2.3132691425,
				"z": 1.7498252906,
				"element": "H" 
			},
			{
				"x": 1.1819898753,
				"y": 2.4389845907,
				"z": 2.5569971085,
				"element": "H" 
			},
			{
				"x": 1.0411564773,
				"y": -1.3394792963,
				"z": 1.9171545568,
				"element": "H" 
			}
		],
		 "valence_orbital": [ 
			{
				"type": "occ",
				"energy": -0.29692,
				"method": "rhf"
			},
			{
				"type": "occ",
				"energy": -0.26423,
				"method": "rhf"
			},
			{
				"type": "occ",
				"energy": -0.23588,
				"method": "rhf"
			},
			{
				"type": "occ",
				"energy": -0.23081,
				"method": "rhf"
			},
			{
				"type": "occ",
				"energy": -0.22325,
				"method": "rhf"
			},
			{
				"type": "unocc",
				"energy": -0.0311,
				"method": "rhf"
			},
			{
				"type": "unocc",
				"energy": 0.00466,
				"method": "rhf"
			},
			{
				"type": "unocc",
				"energy": 0.03974,
				"method": "rhf"
			},
			{
				"type": "unocc",
				"energy": 0.06172,
				"method": "rhf"
			},
			{
				"type": "unocc",
				"energy": 0.09238,
				"method": "rhf"
			}
		],
		"cosmo_sigma_profile": { 
			"-0.025": 0.0,
			"-0.024": 0.0,
			"-0.023": 0.0,
			"-0.022": 0.0,
			"-0.021": 0.0,
			"-0.02": 0.0,
			"-0.019": 0.139903089039,
			"-0.018": 1.17457442557,
			"-0.017": 1.03108496799,
			"-0.016": 1.18770552899,
			"-0.015": 0.938593420792,
			"-0.014": 0.435598535479,
			"-0.013": 0.676664660006,
			"-0.012": 0.703453836607,
			"-0.011": 1.60000975157,
			"-0.01": 1.24064414564,
			"-0.009": 1.04290751812,
			"-0.008": 1.39319912392,
			"-0.007": 2.03351376247,
			"-0.006": 9.34043027185,
			"-0.005": 16.1697057354,
			"-0.004": 19.7837896602,
			"-0.003": 22.8431541543,
			"-0.002": 20.0580682219,
			"-0.001": 16.7421089634,
			"0.0": 14.7277336751,
			"0.001": 12.8296636514,
			"0.002": 13.1971563781,
			"0.003": 19.5883363544,
			"0.004": 12.1973981078,
			"0.005": 7.22766683436,
			"0.006": 5.57077449759,
			"0.007": 6.28899087625,
			"0.008": 4.17897016852,
			"0.009": 4.60598869233,
			"0.01": 5.58904394471,
			"0.011": 4.0871849326,
			"0.012": 3.09376108189,
			"0.013": 1.859171241,
			"0.014": 0.430419348676,
			"0.015": 0.0,
			"0.016": 0.0,
			"0.017": 0.0,
			"0.018": 0.0,
			"0.019": 0.0,
			"0.02": 0.0,
			"0.021": 0.0,
			"0.022": 0.0,
			"0.023": 0.0,
			"0.024": 0.0,
			"0.025": 0.0
		}
	}
}
