{
	 "smiles": "NC1=CC(N(S(=O)(=O)C2=CC=CC=C2)S(=O)(=O)C2=CC=CC=C2)=C(F)C=C1", 
	 "Tm": 433.15, 
	 "num_atms": 42, 
	 "gaussian": { 
		 "optdone": 1, 
		 "sigma_profile": "yes", 
		 "theory": "DFT", 
		 "functional": "B3LYP", 
		 "basiset": "6-31G**", 
		 "properties": { 
			 "R2extent": 9711.5093, 
			 "electric_dipole_moment_norm": 9.69143665614, 
			 "electric_quadrupole_moment_norm": 28.1331008933, 
			 "total_energy": -2001.405011, 
			 "HOMO_LUMO_gap": 0.15767, 
			 "cosmo_polarized_energy": -28.59, 
			 "cosmo_cavitation_energy": 49.39, 
			 "cosmo_dispersion_energy": -32.0, 
			 "cosmo_repulsion_energy": 2.34, 
			 "cosmo_total_nonelectrostatic_energy": 19.72, 
			 "SMD_solvation_energy": 7.09 
		},
		"coords": [
			{
				"x": -3.8357195113,
				"y": -1.9847560755,
				"z": 0.2815360179,
				"element": "N" 
			},
			{
				"x": -2.9056060187,
				"y": -1.8197676258,
				"z": -0.7509183693,
				"element": "C" 
			},
			{
				"x": -1.6321204872,
				"y": -1.2930685728,
				"z": -0.4892842292,
				"element": "C" 
			},
			{
				"x": -0.7171744856,
				"y": -1.0778620578,
				"z": -1.5233074793,
				"element": "C" 
			},
			{
				"x": 0.5874116673,
				"y": -0.5654557481,
				"z": -1.2216695827,
				"element": "N" 
			},
			{
				"x": 0.946036745,
				"y": 1.0858060976,
				"z": -1.7445054194,
				"element": "S" 
			},
			{
				"x": 2.0039524376,
				"y": 1.0882947165,
				"z": -2.7459227724,
				"element": "O" 
			},
			{
				"x": -0.3817216255,
				"y": 1.6296113091,
				"z": -2.022508461,
				"element": "O" 
			},
			{
				"x": 1.5628554791,
				"y": 1.8514657324,
				"z": -0.2453518675,
				"element": "C" 
			},
			{
				"x": 0.6389243034,
				"y": 2.3398854323,
				"z": 0.6822631308,
				"element": "C" 
			},
			{
				"x": 1.1127104383,
				"y": 2.9677570395,
				"z": 1.8334819504,
				"element": "C" 
			},
			{
				"x": 2.4883550974,
				"y": 3.1056422928,
				"z": 2.0406249304,
				"element": "C" 
			},
			{
				"x": 3.3970315047,
				"y": 2.6214337144,
				"z": 1.0965948421,
				"element": "C" 
			},
			{
				"x": 2.9392990279,
				"y": 1.9900662379,
				"z": -0.0611946398,
				"element": "C" 
			},
			{
				"x": 1.8584493211,
				"y": -1.7259510705,
				"z": -1.015511806,
				"element": "S" 
			},
			{
				"x": 1.7163757024,
				"y": -2.7901403404,
				"z": -2.0057702267,
				"element": "O" 
			},
			{
				"x": 3.0877693935,
				"y": -0.9469907637,
				"z": -0.8806911519,
				"element": "O" 
			},
			{
				"x": 1.4530551898,
				"y": -2.4243960282,
				"z": 0.589796942,
				"element": "C" 
			},
			{
				"x": 1.7386384199,
				"y": -1.6877373367,
				"z": 1.7424212366,
				"element": "C" 
			},
			{
				"x": 1.4475024738,
				"y": -2.2472114997,
				"z": 2.9856247143,
				"element": "C" 
			},
			{
				"x": 0.886875809,
				"y": -3.5258140975,
				"z": 3.0667872191,
				"element": "C" 
			},
			{
				"x": 0.6172305022,
				"y": -4.2526055679,
				"z": 1.9056020722,
				"element": "C" 
			},
			{
				"x": 0.9003995796,
				"y": -3.7035955114,
				"z": 0.6534533093,
				"element": "C" 
			},
			{
				"x": -1.083895037,
				"y": -1.3802140212,
				"z": -2.8380312789,
				"element": "C" 
			},
			{
				"x": -0.213335284,
				"y": -1.1511345448,
				"z": -3.8335574173,
				"element": "F" 
			},
			{
				"x": -2.341910404,
				"y": -1.8931328976,
				"z": -3.1199849581,
				"element": "C" 
			},
			{
				"x": -3.2446388259,
				"y": -2.1159117309,
				"z": -2.0826885088,
				"element": "C" 
			},
			{
				"x": -4.5605503251,
				"y": -2.6639714332,
				"z": 0.0938352422,
				"element": "H" 
			},
			{
				"x": -3.4325259942,
				"y": -2.1192600111,
				"z": 1.1987149054,
				"element": "H" 
			},
			{
				"x": -1.336832487,
				"y": -1.0410978632,
				"z": 0.524269617,
				"element": "H" 
			},
			{
				"x": -0.4240345166,
				"y": 2.2432924386,
				"z": 0.4903115113,
				"element": "H" 
			},
			{
				"x": 0.4088498972,
				"y": 3.3577693312,
				"z": 2.5624687256,
				"element": "H" 
			},
			{
				"x": 2.8523533531,
				"y": 3.5993375915,
				"z": 2.9370387327,
				"element": "H" 
			},
			{
				"x": 4.464460571,
				"y": 2.7381105389,
				"z": 1.2566191852,
				"element": "H" 
			},
			{
				"x": 3.6229356976,
				"y": 1.6018944134,
				"z": -0.8059195269,
				"element": "H" 
			},
			{
				"x": 2.1894599388,
				"y": -0.7043319201,
				"z": 1.6638413342,
				"element": "H" 
			},
			{
				"x": 1.6663053472,
				"y": -1.6895136878,
				"z": 3.8911621566,
				"element": "H" 
			},
			{
				"x": 0.6677651994,
				"y": -3.9582668778,
				"z": 4.0387335217,
				"element": "H" 
			},
			{
				"x": 0.1918229356,
				"y": -5.2494160992,
				"z": 1.9717378286,
				"element": "H" 
			},
			{
				"x": 0.7101036441,
				"y": -4.2513531991,
				"z": -0.2625243635,
				"element": "H" 
			},
			{
				"x": -2.6021908513,
				"y": -2.1148521411,
				"z": -4.1490698065,
				"element": "H" 
			},
			{
				"x": -4.2294738225,
				"y": -2.5161581628,
				"z": -2.3085072603,
				"element": "H" 
			}
		],
		 "valence_orbital": [ 
			{
				"type": "occ",
				"energy": -0.2776,
				"method": "rhf"
			},
			{
				"type": "occ",
				"energy": -0.27097,
				"method": "rhf"
			},
			{
				"type": "occ",
				"energy": -0.26731,
				"method": "rhf"
			},
			{
				"type": "occ",
				"energy": -0.25823,
				"method": "rhf"
			},
			{
				"type": "occ",
				"energy": -0.2092,
				"method": "rhf"
			},
			{
				"type": "unocc",
				"energy": -0.05153,
				"method": "rhf"
			},
			{
				"type": "unocc",
				"energy": -0.04658,
				"method": "rhf"
			},
			{
				"type": "unocc",
				"energy": -0.02828,
				"method": "rhf"
			},
			{
				"type": "unocc",
				"energy": -0.02421,
				"method": "rhf"
			},
			{
				"type": "unocc",
				"energy": -0.02096,
				"method": "rhf"
			}
		],
		"cosmo_sigma_profile": { 
			"-0.025": 0.0,
			"-0.024": 0.0,
			"-0.023": 0.0,
			"-0.022": 0.0,
			"-0.021": 0.0,
			"-0.02": 0.0,
			"-0.019": 0.0,
			"-0.018": 0.0,
			"-0.017": 0.0,
			"-0.016": 0.0,
			"-0.015": 0.0,
			"-0.014": 0.0,
			"-0.013": 0.888883297006,
			"-0.012": 3.21538801064,
			"-0.011": 3.15527525683,
			"-0.01": 3.92107480658,
			"-0.009": 3.78270916483,
			"-0.008": 5.00882778429,
			"-0.007": 21.4844790155,
			"-0.006": 25.7240952319,
			"-0.005": 26.8837050273,
			"-0.004": 19.7600844451,
			"-0.003": 23.6914765563,
			"-0.002": 23.166880394,
			"-0.001": 22.3714190713,
			"0.0": 26.6206079629,
			"0.001": 30.6459465404,
			"0.002": 35.7708449978,
			"0.003": 25.663432185,
			"0.004": 19.449009542,
			"0.005": 11.1114138117,
			"0.006": 10.5798385128,
			"0.007": 8.69865206577,
			"0.008": 10.0410785778,
			"0.009": 16.4029474447,
			"0.01": 13.9076075428,
			"0.011": 2.4993825907,
			"0.012": 0.559507308021,
			"0.013": 0.646486362071,
			"0.014": 0.554942208844,
			"0.015": 0.0787425852691,
			"0.016": 0.0,
			"0.017": 0.0,
			"0.018": 0.0,
			"0.019": 0.0,
			"0.02": 0.0,
			"0.021": 0.0,
			"0.022": 0.0,
			"0.023": 0.0,
			"0.024": 0.0,
			"0.025": 0.0
		}
	}
}
