{
	 "smiles": "CCOC(=O)C1=CN=C2C=C(OCC(C)C)C(OCC(C)C)=CC2=C1O", 
	 "Tm": 563.15, 
	 "num_atms": 53, 
	 "gaussian": { 
		 "optdone": 1, 
		 "sigma_profile": "yes", 
		 "theory": "DFT", 
		 "functional": "B3LYP", 
		 "basiset": "6-31G**", 
		 "properties": { 
			 "R2extent": 15163.2496, 
			 "electric_dipole_moment_norm": 2.6276669005, 
			 "electric_quadrupole_moment_norm": 35.0971221624, 
			 "total_energy": -1209.31245021, 
			 "HOMO_LUMO_gap": 0.16978, 
			 "cosmo_polarized_energy": -14.45, 
			 "cosmo_cavitation_energy": 55.44, 
			 "cosmo_dispersion_energy": -37.17, 
			 "cosmo_repulsion_energy": 2.83, 
			 "cosmo_total_nonelectrostatic_energy": 21.1, 
			 "SMD_solvation_energy": 9.32 
		},
		"coords": [
			{
				"x": 1.3487272055,
				"y": -6.1457385985,
				"z": 4.8143266869,
				"element": "C" 
			},
			{
				"x": 1.6282046928,
				"y": -4.7697696355,
				"z": 5.387457551,
				"element": "C" 
			},
			{
				"x": 1.394999733,
				"y": -3.7975901126,
				"z": 4.3366974108,
				"element": "O" 
			},
			{
				"x": 1.5988808335,
				"y": -2.4778771827,
				"z": 4.6749144515,
				"element": "C" 
			},
			{
				"x": 1.9539538766,
				"y": -2.1584643494,
				"z": 5.7905545421,
				"element": "O" 
			},
			{
				"x": 1.3408494831,
				"y": -1.5548589328,
				"z": 3.5565186584,
				"element": "C" 
			},
			{
				"x": 1.5242281579,
				"y": -0.1640161917,
				"z": 3.8104824313,
				"element": "C" 
			},
			{
				"x": 1.3422331539,
				"y": 0.8001008255,
				"z": 2.9403117496,
				"element": "N" 
			},
			{
				"x": 0.9419237377,
				"y": 0.4354162842,
				"z": 1.6800915932,
				"element": "C" 
			},
			{
				"x": 0.7351691535,
				"y": 1.4625646928,
				"z": 0.7273246561,
				"element": "C" 
			},
			{
				"x": 0.3292401198,
				"y": 1.1645942411,
				"z": -0.5611191255,
				"element": "C" 
			},
			{
				"x": 0.0888401972,
				"y": 2.0806100366,
				"z": -1.5318025668,
				"element": "O" 
			},
			{
				"x": 0.1828170928,
				"y": 3.4708446286,
				"z": -1.2013300888,
				"element": "C" 
			},
			{
				"x": -0.238040231,
				"y": 4.2951368632,
				"z": -2.4192862911,
				"element": "C" 
			},
			{
				"x": -1.6987035879,
				"y": 4.020627602,
				"z": -2.8067227075,
				"element": "C" 
			},
			{
				"x": 0.714316785,
				"y": 4.0905181877,
				"z": -3.6065316869,
				"element": "C" 
			},
			{
				"x": 0.1224984585,
				"y": -0.2026680267,
				"z": -0.9465696633,
				"element": "C" 
			},
			{
				"x": -0.3331796019,
				"y": -0.4974330452,
				"z": -2.2059349435,
				"element": "O" 
			},
			{
				"x": 0.6461623701,
				"y": -0.4242395895,
				"z": -3.2564562816,
				"element": "C" 
			},
			{
				"x": -0.0351188196,
				"y": -0.7651630212,
				"z": -4.5803200433,
				"element": "C" 
			},
			{
				"x": 0.9571697716,
				"y": -0.5835125362,
				"z": -5.7377685627,
				"element": "C" 
			},
			{
				"x": -0.6311018803,
				"y": -2.178799955,
				"z": -4.5616774861,
				"element": "C" 
			},
			{
				"x": 0.3170899646,
				"y": -1.2094692588,
				"z": -0.032430427,
				"element": "C" 
			},
			{
				"x": 0.7236048179,
				"y": -0.9187169192,
				"z": 1.2947380459,
				"element": "C" 
			},
			{
				"x": 0.9317269598,
				"y": -1.9352344109,
				"z": 2.2704327365,
				"element": "C" 
			},
			{
				"x": 0.7196032393,
				"y": -3.2020069966,
				"z": 1.8828594057,
				"element": "O" 
			},
			{
				"x": 1.5159846443,
				"y": -6.9049719419,
				"z": 5.5843701652,
				"element": "H" 
			},
			{
				"x": 2.0112969041,
				"y": -6.3648252752,
				"z": 3.9715783509,
				"element": "H" 
			},
			{
				"x": 0.3120453106,
				"y": -6.2290958977,
				"z": 4.4744364621,
				"element": "H" 
			},
			{
				"x": 0.9728946714,
				"y": -4.5314400961,
				"z": 6.2298554601,
				"element": "H" 
			},
			{
				"x": 2.6614775908,
				"y": -4.6663330025,
				"z": 5.7303372453,
				"element": "H" 
			},
			{
				"x": 1.8419642225,
				"y": 0.1184311122,
				"z": 4.8119083164,
				"element": "H" 
			},
			{
				"x": 0.9044121371,
				"y": 2.4784477,
				"z": 1.0595112722,
				"element": "H" 
			},
			{
				"x": 1.2148542987,
				"y": 3.7091921827,
				"z": -0.9081402903,
				"element": "H" 
			},
			{
				"x": -0.4735499145,
				"y": 3.6849844561,
				"z": -0.3469291844,
				"element": "H" 
			},
			{
				"x": -0.1576749993,
				"y": 5.3430602728,
				"z": -2.095120966,
				"element": "H" 
			},
			{
				"x": -2.3780998469,
				"y": 4.2287223217,
				"z": -1.9728162165,
				"element": "H" 
			},
			{
				"x": -2.0015007996,
				"y": 4.6486949775,
				"z": -3.6506774635,
				"element": "H" 
			},
			{
				"x": -1.8322746418,
				"y": 2.9736351848,
				"z": -3.0943670608,
				"element": "H" 
			},
			{
				"x": 0.6708593336,
				"y": 3.0586595484,
				"z": -3.9683635178,
				"element": "H" 
			},
			{
				"x": 0.443701125,
				"y": 4.7493066671,
				"z": -4.4379257174,
				"element": "H" 
			},
			{
				"x": 1.7519969136,
				"y": 4.3080981907,
				"z": -3.3301064066,
				"element": "H" 
			},
			{
				"x": 1.4572736868,
				"y": -1.1383115239,
				"z": -3.0449998452,
				"element": "H" 
			},
			{
				"x": 1.0767475257,
				"y": 0.5836856783,
				"z": -3.2915904377,
				"element": "H" 
			},
			{
				"x": -0.8552243934,
				"y": -0.045173379,
				"z": -4.7080168687,
				"element": "H" 
			},
			{
				"x": 1.3544467256,
				"y": 0.4369209418,
				"z": -5.7756419009,
				"element": "H" 
			},
			{
				"x": 0.4747993878,
				"y": -0.7899676393,
				"z": -6.6984343857,
				"element": "H" 
			},
			{
				"x": 1.8067689467,
				"y": -1.2704687615,
				"z": -5.6414699912,
				"element": "H" 
			},
			{
				"x": -1.3280653296,
				"y": -2.2978615615,
				"z": -3.7286648941,
				"element": "H" 
			},
			{
				"x": 0.1589388941,
				"y": -2.9326419704,
				"z": -4.4535078356,
				"element": "H" 
			},
			{
				"x": -1.166889822,
				"y": -2.3899891167,
				"z": -5.4931961258,
				"element": "H" 
			},
			{
				"x": 0.1430754156,
				"y": -2.2350176352,
				"z": -0.3359419766,
				"element": "H" 
			},
			{
				"x": 0.8981463294,
				"y": -3.7834960323,
				"z": 2.6483537676,
				"element": "H" 
			}
		],
		 "valence_orbital": [ 
			{
				"type": "occ",
				"energy": -0.27206,
				"method": "rhf"
			},
			{
				"type": "occ",
				"energy": -0.2676,
				"method": "rhf"
			},
			{
				"type": "occ",
				"energy": -0.24909,
				"method": "rhf"
			},
			{
				"type": "occ",
				"energy": -0.22456,
				"method": "rhf"
			},
			{
				"type": "occ",
				"energy": -0.21956,
				"method": "rhf"
			},
			{
				"type": "unocc",
				"energy": -0.04978,
				"method": "rhf"
			},
			{
				"type": "unocc",
				"energy": -0.02705,
				"method": "rhf"
			},
			{
				"type": "unocc",
				"energy": 0.02954,
				"method": "rhf"
			},
			{
				"type": "unocc",
				"energy": 0.03792,
				"method": "rhf"
			},
			{
				"type": "unocc",
				"energy": 0.06659,
				"method": "rhf"
			}
		],
		"cosmo_sigma_profile": { 
			"-0.025": 0.0,
			"-0.024": 0.0,
			"-0.023": 0.0,
			"-0.022": 0.0,
			"-0.021": 0.0,
			"-0.02": 0.0,
			"-0.019": 0.0,
			"-0.018": 0.0,
			"-0.017": 0.0,
			"-0.016": 0.0,
			"-0.015": 0.0,
			"-0.014": 0.0,
			"-0.013": 0.0,
			"-0.012": 0.0,
			"-0.011": 0.0,
			"-0.01": 0.0,
			"-0.009": 0.453747506852,
			"-0.008": 1.22103558527,
			"-0.007": 1.90421607171,
			"-0.006": 7.00008555019,
			"-0.005": 19.8370432996,
			"-0.004": 32.0018221734,
			"-0.003": 53.4391905398,
			"-0.002": 53.7948495615,
			"-0.001": 53.7147902556,
			"0.0": 51.8182879261,
			"0.001": 52.7483676893,
			"0.002": 32.2243020618,
			"0.003": 16.0313152577,
			"0.004": 10.1079970309,
			"0.005": 7.55361901552,
			"0.006": 6.89856797836,
			"0.007": 7.39700907694,
			"0.008": 5.49150636137,
			"0.009": 4.54059234469,
			"0.01": 4.10274061484,
			"0.011": 6.08107496745,
			"0.012": 3.37710436025,
			"0.013": 0.612772401163,
			"0.014": 0.982467625645,
			"0.015": 0.814170733036,
			"0.016": 0.649146903754,
			"0.017": 0.0881993312432,
			"0.018": 0.0,
			"0.019": 0.0,
			"0.02": 0.0,
			"0.021": 0.0,
			"0.022": 0.0,
			"0.023": 0.0,
			"0.024": 0.0,
			"0.025": 0.0
		}
	}
}
