{
	 "smiles": "COC1=C(C)C=C(C=C1)S(N)(=O)=O", 
	 "Tm": 411.15, 
	 "num_atms": 24, 
	 "gaussian": { 
		 "optdone": 1, 
		 "sigma_profile": "yes", 
		 "theory": "DFT", 
		 "functional": "B3LYP", 
		 "basiset": "6-31G**", 
		 "properties": { 
			 "R2extent": 3384.6453, 
			 "electric_dipole_moment_norm": 7.25169612298, 
			 "electric_quadrupole_moment_norm": 20.7455392543, 
			 "total_energy": -990.018312448, 
			 "HOMO_LUMO_gap": 0.20978, 
			 "cosmo_polarized_energy": -19.86, 
			 "cosmo_cavitation_energy": 29.09, 
			 "cosmo_dispersion_energy": -21.68, 
			 "cosmo_repulsion_energy": 1.68, 
			 "cosmo_total_nonelectrostatic_energy": 9.09, 
			 "SMD_solvation_energy": 5.49 
		},
		"coords": [
			{
				"x": -0.601857689,
				"y": -2.0753179484,
				"z": -3.7817865236,
				"element": "C" 
			},
			{
				"x": -0.0221784779,
				"y": -2.2311403447,
				"z": -2.4933755588,
				"element": "O" 
			},
			{
				"x": 0.0939218643,
				"y": -1.1385344838,
				"z": -1.6904430186,
				"element": "C" 
			},
			{
				"x": 0.7009886941,
				"y": -1.3815077369,
				"z": -0.4353293377,
				"element": "C" 
			},
			{
				"x": 1.1738186625,
				"y": -2.7685271229,
				"z": -0.0851055837,
				"element": "C" 
			},
			{
				"x": 0.8517059939,
				"y": -0.3095014403,
				"z": 0.4383514935,
				"element": "C" 
			},
			{
				"x": 0.4123532049,
				"y": 0.9730682202,
				"z": 0.0854794571,
				"element": "C" 
			},
			{
				"x": -0.1722720329,
				"y": 1.2067394665,
				"z": -1.1560183538,
				"element": "C" 
			},
			{
				"x": -0.3335441574,
				"y": 0.1457364234,
				"z": -2.0479512782,
				"element": "C" 
			},
			{
				"x": 0.5919149186,
				"y": 2.322789053,
				"z": 1.2500442606,
				"element": "S" 
			},
			{
				"x": -0.7812830631,
				"y": 2.318304033,
				"z": 2.229518461,
				"element": "N" 
			},
			{
				"x": 1.7028291774,
				"y": 1.993407777,
				"z": 2.1424530304,
				"element": "O" 
			},
			{
				"x": 0.5219809378,
				"y": 3.5715138694,
				"z": 0.4916761133,
				"element": "O" 
			},
			{
				"x": -1.6380162741,
				"y": -1.7208819595,
				"z": -3.7167937986,
				"element": "H" 
			},
			{
				"x": -0.0210528935,
				"y": -1.3825616319,
				"z": -4.4029611356,
				"element": "H" 
			},
			{
				"x": -0.5882975537,
				"y": -3.0659858579,
				"z": -4.2378378609,
				"element": "H" 
			},
			{
				"x": 1.913158404,
				"y": -3.1279032544,
				"z": -0.8087823105,
				"element": "H" 
			},
			{
				"x": 0.346106575,
				"y": -3.4858475907,
				"z": -0.1035299913,
				"element": "H" 
			},
			{
				"x": 1.6263576994,
				"y": -2.7858861056,
				"z": 0.9092273275,
				"element": "H" 
			},
			{
				"x": 1.3393678792,
				"y": -0.4605323956,
				"z": 1.3965206788,
				"element": "H" 
			},
			{
				"x": -0.4767337678,
				"y": 2.210694431,
				"z": -1.4313885473,
				"element": "H" 
			},
			{
				"x": -0.7810087393,
				"y": 0.3318251475,
				"z": -3.0166638314,
				"element": "H" 
			},
			{
				"x": -1.629891231,
				"y": 2.5089486592,
				"z": 1.7055114171,
				"element": "H" 
			},
			{
				"x": -0.8509681315,
				"y": 1.4766007922,
				"z": 2.7931848907,
				"element": "H" 
			}
		],
		 "valence_orbital": [ 
			{
				"type": "occ",
				"energy": -0.3034,
				"method": "rhf"
			},
			{
				"type": "occ",
				"energy": -0.29674,
				"method": "rhf"
			},
			{
				"type": "occ",
				"energy": -0.29595,
				"method": "rhf"
			},
			{
				"type": "occ",
				"energy": -0.26506,
				"method": "rhf"
			},
			{
				"type": "occ",
				"energy": -0.23617,
				"method": "rhf"
			},
			{
				"type": "unocc",
				"energy": -0.02639,
				"method": "rhf"
			},
			{
				"type": "unocc",
				"energy": -0.01791,
				"method": "rhf"
			},
			{
				"type": "unocc",
				"energy": 0.05665,
				"method": "rhf"
			},
			{
				"type": "unocc",
				"energy": 0.07992,
				"method": "rhf"
			},
			{
				"type": "unocc",
				"energy": 0.0931,
				"method": "rhf"
			}
		],
		"cosmo_sigma_profile": { 
			"-0.025": 0.0,
			"-0.024": 0.0,
			"-0.023": 0.0,
			"-0.022": 0.0,
			"-0.021": 0.0,
			"-0.02": 0.0,
			"-0.019": 0.0,
			"-0.018": 0.0,
			"-0.017": 0.0,
			"-0.016": 0.0304193882828,
			"-0.015": 1.47153998247,
			"-0.014": 3.054003185,
			"-0.013": 1.99056997354,
			"-0.012": 2.77360133072,
			"-0.011": 2.91899783875,
			"-0.01": 2.05244028956,
			"-0.009": 2.03386844353,
			"-0.008": 2.57255413584,
			"-0.007": 5.5393406788,
			"-0.006": 13.9762833844,
			"-0.005": 16.701025052,
			"-0.004": 17.7382617666,
			"-0.003": 16.5809963223,
			"-0.002": 12.4316593601,
			"-0.001": 13.0521920043,
			"0.0": 15.4387610472,
			"0.001": 12.1345039723,
			"0.002": 14.1996499847,
			"0.003": 14.6479168075,
			"0.004": 8.00221405326,
			"0.005": 4.85748257362,
			"0.006": 4.76284093696,
			"0.007": 5.25329560104,
			"0.008": 6.0743525051,
			"0.009": 4.81526640802,
			"0.01": 6.18173245028,
			"0.011": 10.2622779959,
			"0.012": 8.19211467987,
			"0.013": 0.549332347814,
			"0.014": 0.0587043312639,
			"0.015": 0.0,
			"0.016": 0.0,
			"0.017": 0.0,
			"0.018": 0.0,
			"0.019": 0.0,
			"0.02": 0.0,
			"0.021": 0.0,
			"0.022": 0.0,
			"0.023": 0.0,
			"0.024": 0.0,
			"0.025": 0.0
		}
	}
}
