{
	 "smiles": "CCOC(=O)C1=C(C)OC(=N1)C1=CC(Cl)=C(Cl)C=C1", 
	 "Tm": 373.15, 
	 "num_atms": 30, 
	 "gaussian": { 
		 "optdone": 1, 
		 "sigma_profile": "yes", 
		 "theory": "DFT", 
		 "functional": "B3LYP", 
		 "basiset": "6-31G**", 
		 "properties": { 
			 "R2extent": 10704.8089, 
			 "electric_dipole_moment_norm": 2.44668303219, 
			 "electric_quadrupole_moment_norm": 22.2154296533, 
			 "total_energy": -1702.83793778, 
			 "HOMO_LUMO_gap": 0.17136, 
			 "cosmo_polarized_energy": -11.17, 
			 "cosmo_cavitation_energy": 39.49, 
			 "cosmo_dispersion_energy": -28.63, 
			 "cosmo_repulsion_energy": 2.25, 
			 "cosmo_total_nonelectrostatic_energy": 13.11, 
			 "SMD_solvation_energy": 6.28 
		},
		"coords": [
			{
				"x": 1.2380694119,
				"y": -5.3082181241,
				"z": 0.4042323511,
				"element": "C" 
			},
			{
				"x": 0.3768026166,
				"y": -4.4170011774,
				"z": 1.2782876254,
				"element": "C" 
			},
			{
				"x": 0.3075060255,
				"y": -3.1219264198,
				"z": 0.6382133646,
				"element": "O" 
			},
			{
				"x": -0.4221379047,
				"y": -2.1949803207,
				"z": 1.2784775132,
				"element": "C" 
			},
			{
				"x": -1.0065968159,
				"y": -2.384789608,
				"z": 2.3328671199,
				"element": "O" 
			},
			{
				"x": -0.4501350713,
				"y": -0.902568771,
				"z": 0.5729948131,
				"element": "C" 
			},
			{
				"x": -1.1217176067,
				"y": 0.2109032474,
				"z": 1.0112404065,
				"element": "C" 
			},
			{
				"x": -1.966586718,
				"y": 0.5295994271,
				"z": 2.1911500007,
				"element": "C" 
			},
			{
				"x": -0.9020406809,
				"y": 1.190748416,
				"z": 0.0869900151,
				"element": "O" 
			},
			{
				"x": -0.1020108042,
				"y": 0.6177642638,
				"z": -0.8728677534,
				"element": "C" 
			},
			{
				"x": 0.1904075817,
				"y": -0.6227565258,
				"z": -0.6245253394,
				"element": "N" 
			},
			{
				"x": 0.3064906642,
				"y": 1.4362202139,
				"z": -2.008821874,
				"element": "C" 
			},
			{
				"x": 1.1228744748,
				"y": 0.8630608694,
				"z": -2.9937854524,
				"element": "C" 
			},
			{
				"x": 1.5320146475,
				"y": 1.6139494011,
				"z": -4.0916891815,
				"element": "C" 
			},
			{
				"x": 2.5484002617,
				"y": 0.8564755854,
				"z": -5.2922530767,
				"element": "Cl" 
			},
			{
				"x": 1.1272064138,
				"y": 2.9525526958,
				"z": -4.2171024566,
				"element": "C" 
			},
			{
				"x": 1.6158300735,
				"y": 3.9306859217,
				"z": -5.5757383946,
				"element": "Cl" 
			},
			{
				"x": 0.3134994287,
				"y": 3.5216093269,
				"z": -3.2340898732,
				"element": "C" 
			},
			{
				"x": -0.0963643039,
				"y": 2.7735857512,
				"z": -2.1366227597,
				"element": "C" 
			},
			{
				"x": 2.2452767482,
				"y": -4.8955406162,
				"z": 0.2985159067,
				"element": "H" 
			},
			{
				"x": 0.8035590916,
				"y": -5.4136867244,
				"z": -0.593777093,
				"element": "H" 
			},
			{
				"x": 1.3173495853,
				"y": -6.3029663331,
				"z": 0.8537809592,
				"element": "H" 
			},
			{
				"x": 0.7962130509,
				"y": -4.2928740444,
				"z": 2.2818584759,
				"element": "H" 
			},
			{
				"x": -0.638955547,
				"y": -4.8086684998,
				"z": 1.3936086161,
				"element": "H" 
			},
			{
				"x": -2.3078609477,
				"y": 1.5655489232,
				"z": 2.1411089125,
				"element": "H" 
			},
			{
				"x": -2.8331089474,
				"y": -0.1364727244,
				"z": 2.2359804128,
				"element": "H" 
			},
			{
				"x": -1.4072864785,
				"y": 0.3758484164,
				"z": 3.1185464872,
				"element": "H" 
			},
			{
				"x": 1.4340644462,
				"y": -0.1701851376,
				"z": -2.8950048941,
				"element": "H" 
			},
			{
				"x": 0.0066781609,
				"y": 4.5559823562,
				"z": -3.3406941339,
				"element": "H" 
			},
			{
				"x": -0.7276408565,
				"y": 3.2249002114,
				"z": -1.3797806977,
				"element": "H" 
			}
		],
		 "valence_orbital": [ 
			{
				"type": "occ",
				"energy": -0.29968,
				"method": "rhf"
			},
			{
				"type": "occ",
				"energy": -0.28287,
				"method": "rhf"
			},
			{
				"type": "occ",
				"energy": -0.27593,
				"method": "rhf"
			},
			{
				"type": "occ",
				"energy": -0.26441,
				"method": "rhf"
			},
			{
				"type": "occ",
				"energy": -0.23165,
				"method": "rhf"
			},
			{
				"type": "unocc",
				"energy": -0.06029,
				"method": "rhf"
			},
			{
				"type": "unocc",
				"energy": -0.03488,
				"method": "rhf"
			},
			{
				"type": "unocc",
				"energy": -0.02771,
				"method": "rhf"
			},
			{
				"type": "unocc",
				"energy": -0.00049,
				"method": "rhf"
			},
			{
				"type": "unocc",
				"energy": 0.03715,
				"method": "rhf"
			}
		],
		"cosmo_sigma_profile": { 
			"-0.025": 0.0,
			"-0.024": 0.0,
			"-0.023": 0.0,
			"-0.022": 0.0,
			"-0.021": 0.0,
			"-0.02": 0.0,
			"-0.019": 0.0,
			"-0.018": 0.0,
			"-0.017": 0.0,
			"-0.016": 0.0,
			"-0.015": 0.0,
			"-0.014": 0.0,
			"-0.013": 0.0,
			"-0.012": 0.0,
			"-0.011": 0.0,
			"-0.01": 0.0,
			"-0.009": 0.285795137216,
			"-0.008": 2.3166002644,
			"-0.007": 4.88209896243,
			"-0.006": 9.96165238379,
			"-0.005": 16.1878529139,
			"-0.004": 23.464122356,
			"-0.003": 32.8238230048,
			"-0.002": 37.8003322592,
			"-0.001": 34.3867836039,
			"0.0": 37.9226476648,
			"0.001": 27.3145840574,
			"0.002": 19.0487725101,
			"0.003": 22.1624299184,
			"0.004": 17.9162011211,
			"0.005": 5.93121147128,
			"0.006": 3.835840025,
			"0.007": 3.96255613637,
			"0.008": 2.72920949153,
			"0.009": 3.08854596155,
			"0.01": 2.95750127512,
			"0.011": 4.04469293589,
			"0.012": 4.42292451883,
			"0.013": 1.42307133932,
			"0.014": 1.29709134505,
			"0.015": 0.189750864631,
			"0.016": 0.0,
			"0.017": 0.0,
			"0.018": 0.0,
			"0.019": 0.0,
			"0.02": 0.0,
			"0.021": 0.0,
			"0.022": 0.0,
			"0.023": 0.0,
			"0.024": 0.0,
			"0.025": 0.0
		}
	}
}
