{
	 "smiles": "CCC(C)C(NC(=O)OCC1=CC=CC=C1)C(O)=O", 
	 "Tm": 326.15, 
	 "num_atms": 38, 
	 "gaussian": { 
		 "optdone": 1, 
		 "sigma_profile": "yes", 
		 "theory": "DFT", 
		 "functional": "B3LYP", 
		 "basiset": "6-31G**", 
		 "properties": { 
			 "R2extent": 7628.5602, 
			 "electric_dipole_moment_norm": 3.18240476055, 
			 "electric_quadrupole_moment_norm": 18.2754675253, 
			 "total_energy": -900.634287766, 
			 "HOMO_LUMO_gap": 0.2353, 
			 "cosmo_polarized_energy": -17.76, 
			 "cosmo_cavitation_energy": 40.92, 
			 "cosmo_dispersion_energy": -27.27, 
			 "cosmo_repulsion_energy": 2.14, 
			 "cosmo_total_nonelectrostatic_energy": 15.79, 
			 "SMD_solvation_energy": 9.14 
		},
		"coords": [
			{
				"x": 2.7482032403,
				"y": -2.1756832117,
				"z": 2.4455511184,
				"element": "C" 
			},
			{
				"x": 1.2795812277,
				"y": -2.5942834195,
				"z": 2.3072947143,
				"element": "C" 
			},
			{
				"x": 0.2596351765,
				"y": -1.4414206475,
				"z": 2.3718363258,
				"element": "C" 
			},
			{
				"x": -1.1792781205,
				"y": -1.9791448487,
				"z": 2.4360595253,
				"element": "C" 
			},
			{
				"x": 0.447089777,
				"y": -0.4120686493,
				"z": 1.2292385859,
				"element": "C" 
			},
			{
				"x": 0.1787590685,
				"y": -0.9546304489,
				"z": -0.1087605178,
				"element": "N" 
			},
			{
				"x": 1.1327777844,
				"y": -1.2102321255,
				"z": -1.0803813397,
				"element": "C" 
			},
			{
				"x": 0.9290476771,
				"y": -1.9438396309,
				"z": -2.0294884561,
				"element": "O" 
			},
			{
				"x": 2.2701447961,
				"y": -0.5172117621,
				"z": -0.8545311783,
				"element": "O" 
			},
			{
				"x": 3.2996185253,
				"y": -0.6233781068,
				"z": -1.8839432728,
				"element": "C" 
			},
			{
				"x": 3.1527072919,
				"y": 0.4518676697,
				"z": -2.9297500091,
				"element": "C" 
			},
			{
				"x": 2.345125489,
				"y": 0.2439107123,
				"z": -4.0570612886,
				"element": "C" 
			},
			{
				"x": 2.2022946888,
				"y": 1.2480136297,
				"z": -5.0149074109,
				"element": "C" 
			},
			{
				"x": 2.8638741179,
				"y": 2.46803361,
				"z": -4.8571566025,
				"element": "C" 
			},
			{
				"x": 3.6699242384,
				"y": 2.6826496427,
				"z": -3.7374478264,
				"element": "C" 
			},
			{
				"x": 3.8122601938,
				"y": 1.678318578,
				"z": -2.7796310759,
				"element": "C" 
			},
			{
				"x": -0.3880146201,
				"y": 0.861475171,
				"z": 1.4928094419,
				"element": "C" 
			},
			{
				"x": -0.9440225813,
				"y": 1.4230404407,
				"z": 0.4047322865,
				"element": "O" 
			},
			{
				"x": -0.5050316132,
				"y": 1.3424927866,
				"z": 2.594716769,
				"element": "O" 
			},
			{
				"x": 3.0877994756,
				"y": -1.5755831033,
				"z": 1.595496985,
				"element": "H" 
			},
			{
				"x": 3.3964351221,
				"y": -3.0560748286,
				"z": 2.4994965089,
				"element": "H" 
			},
			{
				"x": 2.9090392711,
				"y": -1.5894733111,
				"z": 3.3574285529,
				"element": "H" 
			},
			{
				"x": 1.1408773264,
				"y": -3.155961609,
				"z": 1.3730822931,
				"element": "H" 
			},
			{
				"x": 1.0328610556,
				"y": -3.2960390416,
				"z": 3.1138000028,
				"element": "H" 
			},
			{
				"x": 0.4381308247,
				"y": -0.8676070391,
				"z": 3.2883722726,
				"element": "H" 
			},
			{
				"x": -1.432912715,
				"y": -2.5943309293,
				"z": 1.5627909451,
				"element": "H" 
			},
			{
				"x": -1.9101535085,
				"y": -1.1688000065,
				"z": 2.5140488351,
				"element": "H" 
			},
			{
				"x": -1.3038429771,
				"y": -2.6199340416,
				"z": 3.3141000811,
				"element": "H" 
			},
			{
				"x": 1.4851046144,
				"y": -0.0716794179,
				"z": 1.2253305303,
				"element": "H" 
			},
			{
				"x": -0.5960985036,
				"y": -1.6018871913,
				"z": -0.188321594,
				"element": "H" 
			},
			{
				"x": 3.2421205548,
				"y": -1.6213364724,
				"z": -2.3208369934,
				"element": "H" 
			},
			{
				"x": 4.2348657182,
				"y": -0.513540489,
				"z": -1.3320456693,
				"element": "H" 
			},
			{
				"x": 1.8256078861,
				"y": -0.702789442,
				"z": -4.1685796594,
				"element": "H" 
			},
			{
				"x": 1.5766117859,
				"y": 1.0773078012,
				"z": -5.8862974602,
				"element": "H" 
			},
			{
				"x": 2.7536876604,
				"y": 3.2478439397,
				"z": -5.6053198655,
				"element": "H" 
			},
			{
				"x": 4.1882306155,
				"y": 3.628802915,
				"z": -3.6115026538,
				"element": "H" 
			},
			{
				"x": 4.4419989792,
				"y": 1.8457181452,
				"z": -1.9091030324,
				"element": "H" 
			},
			{
				"x": -0.7241595434,
				"y": 0.8518547317,
				"z": -0.3551198678,
				"element": "H" 
			}
		],
		 "valence_orbital": [ 
			{
				"type": "occ",
				"energy": -0.30042,
				"method": "rhf"
			},
			{
				"type": "occ",
				"energy": -0.29217,
				"method": "rhf"
			},
			{
				"type": "occ",
				"energy": -0.25832,
				"method": "rhf"
			},
			{
				"type": "occ",
				"energy": -0.25748,
				"method": "rhf"
			},
			{
				"type": "occ",
				"energy": -0.25458,
				"method": "rhf"
			},
			{
				"type": "unocc",
				"energy": -0.01928,
				"method": "rhf"
			},
			{
				"type": "unocc",
				"energy": -0.00851,
				"method": "rhf"
			},
			{
				"type": "unocc",
				"energy": 0.01107,
				"method": "rhf"
			},
			{
				"type": "unocc",
				"energy": 0.02839,
				"method": "rhf"
			},
			{
				"type": "unocc",
				"energy": 0.05738,
				"method": "rhf"
			}
		],
		"cosmo_sigma_profile": { 
			"-0.025": 0.0,
			"-0.024": 0.0,
			"-0.023": 0.0,
			"-0.022": 0.0,
			"-0.021": 0.0,
			"-0.02": 0.0,
			"-0.019": 0.0,
			"-0.018": 0.0,
			"-0.017": 0.0,
			"-0.016": 0.0,
			"-0.015": 0.0628678235647,
			"-0.014": 0.670844958341,
			"-0.013": 1.71944193892,
			"-0.012": 2.09416168107,
			"-0.011": 3.2045178546,
			"-0.01": 3.18065021128,
			"-0.009": 2.75713020553,
			"-0.008": 2.0949252723,
			"-0.007": 4.94807471093,
			"-0.006": 13.8074923823,
			"-0.005": 18.0886915151,
			"-0.004": 21.4886908148,
			"-0.003": 31.8369058224,
			"-0.002": 30.9204515055,
			"-0.001": 31.0063769204,
			"0.0": 28.4535148308,
			"0.001": 23.7932665514,
			"0.002": 15.0650548766,
			"0.003": 13.9585919018,
			"0.004": 13.8286720043,
			"0.005": 15.2646251613,
			"0.006": 6.3838740658,
			"0.007": 3.75214487657,
			"0.008": 3.71069590212,
			"0.009": 5.50324439017,
			"0.01": 5.83265255293,
			"0.011": 5.84237319161,
			"0.012": 8.79612263237,
			"0.013": 3.89544101181,
			"0.014": 0.155143602172,
			"0.015": 0.0,
			"0.016": 0.0,
			"0.017": 0.0,
			"0.018": 0.0,
			"0.019": 0.0,
			"0.02": 0.0,
			"0.021": 0.0,
			"0.022": 0.0,
			"0.023": 0.0,
			"0.024": 0.0,
			"0.025": 0.0
		}
	}
}
