{
	 "smiles": "CCC1CCC(=O)O1", 
	 "Tm": 255.15, 
	 "num_atms": 18, 
	 "gaussian": { 
		 "optdone": 1, 
		 "sigma_profile": "yes", 
		 "theory": "DFT", 
		 "functional": "B3LYP", 
		 "basiset": "6-31G**", 
		 "properties": { 
			 "R2extent": 2080.4367, 
			 "electric_dipole_moment_norm": 4.56934660646, 
			 "electric_quadrupole_moment_norm": 10.1764287424, 
			 "total_energy": -385.132361473, 
			 "HOMO_LUMO_gap": 0.27708, 
			 "cosmo_polarized_energy": -10.16, 
			 "cosmo_cavitation_energy": 20.43, 
			 "cosmo_dispersion_energy": -15.27, 
			 "cosmo_repulsion_energy": 1.29, 
			 "cosmo_total_nonelectrostatic_energy": 6.46, 
			 "SMD_solvation_energy": 4.41 
		},
		"coords": [
			{
				"x": 0.0162120247,
				"y": -1.4615503088,
				"z": 3.5243325044,
				"element": "C" 
			},
			{
				"x": 0.2061934988,
				"y": -0.7580601379,
				"z": 2.1763971643,
				"element": "C" 
			},
			{
				"x": 0.1932787704,
				"y": 0.768755573,
				"z": 2.285775021,
				"element": "C" 
			},
			{
				"x": 1.471659637,
				"y": 1.3956131477,
				"z": 2.8897326634,
				"element": "C" 
			},
			{
				"x": 2.311457656,
				"y": 1.7223971875,
				"z": 1.6512910448,
				"element": "C" 
			},
			{
				"x": 1.277471538,
				"y": 1.8698907165,
				"z": 0.5393357646,
				"element": "C" 
			},
			{
				"x": 1.4186687294,
				"y": 2.3558587959,
				"z": -0.5524024724,
				"element": "O" 
			},
			{
				"x": 0.0921904859,
				"y": 1.3392270964,
				"z": 0.9561460718,
				"element": "O" 
			},
			{
				"x": 0.8163746428,
				"y": -1.2190303895,
				"z": 4.2319672619,
				"element": "H" 
			},
			{
				"x": -0.934761855,
				"y": -1.1774043524,
				"z": 3.9888002616,
				"element": "H" 
			},
			{
				"x": 0.0105893463,
				"y": -2.5478780799,
				"z": 3.3967050277,
				"element": "H" 
			},
			{
				"x": -0.5965031781,
				"y": -1.0473621935,
				"z": 1.4891500777,
				"element": "H" 
			},
			{
				"x": 1.1462458956,
				"y": -1.0794852916,
				"z": 1.7087769092,
				"element": "H" 
			},
			{
				"x": -0.7066751571,
				"y": 1.0881323434,
				"z": 2.8218321262,
				"element": "H" 
			},
			{
				"x": 1.2201162635,
				"y": 2.3125322365,
				"z": 3.431316504,
				"element": "H" 
			},
			{
				"x": 1.9689199941,
				"y": 0.7219443743,
				"z": 3.591573108,
				"element": "H" 
			},
			{
				"x": 2.9912266395,
				"y": 0.9081845007,
				"z": 1.3749861949,
				"element": "H" 
			},
			{
				"x": 2.9097350681,
				"y": 2.6319347818,
				"z": 1.7292847669,
				"element": "H" 
			}
		],
		 "valence_orbital": [ 
			{
				"type": "occ",
				"energy": -0.35621,
				"method": "rhf"
			},
			{
				"type": "occ",
				"energy": -0.34084,
				"method": "rhf"
			},
			{
				"type": "occ",
				"energy": -0.33741,
				"method": "rhf"
			},
			{
				"type": "occ",
				"energy": -0.28806,
				"method": "rhf"
			},
			{
				"type": "occ",
				"energy": -0.26167,
				"method": "rhf"
			},
			{
				"type": "unocc",
				"energy": 0.01541,
				"method": "rhf"
			},
			{
				"type": "unocc",
				"energy": 0.06941,
				"method": "rhf"
			},
			{
				"type": "unocc",
				"energy": 0.09291,
				"method": "rhf"
			},
			{
				"type": "unocc",
				"energy": 0.09722,
				"method": "rhf"
			},
			{
				"type": "unocc",
				"energy": 0.11846,
				"method": "rhf"
			}
		],
		"cosmo_sigma_profile": { 
			"-0.025": 0.0,
			"-0.024": 0.0,
			"-0.023": 0.0,
			"-0.022": 0.0,
			"-0.021": 0.0,
			"-0.02": 0.0,
			"-0.019": 0.0,
			"-0.018": 0.0,
			"-0.017": 0.0,
			"-0.016": 0.0,
			"-0.015": 0.0,
			"-0.014": 0.0,
			"-0.013": 0.0,
			"-0.012": 0.0,
			"-0.011": 0.0,
			"-0.01": 0.0,
			"-0.009": 0.0,
			"-0.008": 0.0,
			"-0.007": 1.56342304431,
			"-0.006": 7.2329051727,
			"-0.005": 16.3109303311,
			"-0.004": 19.9093669508,
			"-0.003": 19.8227452489,
			"-0.002": 18.2227462509,
			"-0.001": 17.7601418558,
			"0.0": 12.6853192785,
			"0.001": 8.38979886232,
			"0.002": 2.35422609956,
			"0.003": 2.8623313659,
			"0.004": 2.05329975776,
			"0.005": 1.88247023422,
			"0.006": 1.92228990561,
			"0.007": 2.59067460871,
			"0.008": 2.35119712551,
			"0.009": 2.46719717806,
			"0.01": 4.4765729804,
			"0.011": 4.80656166299,
			"0.012": 6.25431349115,
			"0.013": 3.24761332967,
			"0.014": 0.230356378198,
			"0.015": 0.0,
			"0.016": 0.0,
			"0.017": 0.0,
			"0.018": 0.0,
			"0.019": 0.0,
			"0.02": 0.0,
			"0.021": 0.0,
			"0.022": 0.0,
			"0.023": 0.0,
			"0.024": 0.0,
			"0.025": 0.0
		}
	}
}
