{
	 "smiles": "OC(=O)COC1=C(Cl)C=C(C=C1)C#N", 
	 "Tm": 452.15, 
	 "num_atms": 20, 
	 "gaussian": { 
		 "optdone": 1, 
		 "sigma_profile": "yes", 
		 "theory": "DFT", 
		 "functional": "B3LYP", 
		 "basiset": "6-31G**", 
		 "properties": { 
			 "R2extent": 4473.4428, 
			 "electric_dipole_moment_norm": 0.776876013274, 
			 "electric_quadrupole_moment_norm": 36.2464125527, 
			 "total_energy": -1087.16406462, 
			 "HOMO_LUMO_gap": 0.19873, 
			 "cosmo_polarized_energy": -19.1, 
			 "cosmo_cavitation_energy": 28.62, 
			 "cosmo_dispersion_energy": -20.2, 
			 "cosmo_repulsion_energy": 1.6, 
			 "cosmo_total_nonelectrostatic_energy": 10.01, 
			 "SMD_solvation_energy": 7.71 
		},
		"coords": [
			{
				"x": 3.3212789369,
				"y": 3.5510879541,
				"z": 0.5459552273,
				"element": "O" 
			},
			{
				"x": 2.2150920469,
				"y": 4.1400656674,
				"z": 0.0709599265,
				"element": "C" 
			},
			{
				"x": 2.1075356327,
				"y": 5.3313031006,
				"z": -0.0711190419,
				"element": "O" 
			},
			{
				"x": 1.0582768405,
				"y": 3.2058887814,
				"z": -0.2961371636,
				"element": "C" 
			},
			{
				"x": 1.4546174796,
				"y": 1.8621746579,
				"z": -0.0304853891,
				"element": "O" 
			},
			{
				"x": 0.6017819719,
				"y": 0.8342001668,
				"z": -0.272191032,
				"element": "C" 
			},
			{
				"x": 1.0742925035,
				"y": -0.4615026973,
				"z": 0.0185705575,
				"element": "C" 
			},
			{
				"x": 2.6881608258,
				"y": -0.6653459395,
				"z": 0.6567678155,
				"element": "Cl" 
			},
			{
				"x": 0.2733648075,
				"y": -1.5724063794,
				"z": -0.1962379245,
				"element": "C" 
			},
			{
				"x": -1.0256001966,
				"y": -1.4099378604,
				"z": -0.709719295,
				"element": "C" 
			},
			{
				"x": -1.4999456568,
				"y": -0.1234671217,
				"z": -1.0003655358,
				"element": "C" 
			},
			{
				"x": -0.6920637551,
				"y": 0.9889449994,
				"z": -0.7830372763,
				"element": "C" 
			},
			{
				"x": -1.8545900478,
				"y": -2.5568163451,
				"z": -0.9323365145,
				"element": "C" 
			},
			{
				"x": -2.529764213,
				"y": -3.4863948886,
				"z": -1.1140479062,
				"element": "N" 
			},
			{
				"x": 3.1842511716,
				"y": 2.5875914423,
				"z": 0.5742497597,
				"element": "H" 
			},
			{
				"x": 0.1836799769,
				"y": 3.4876109686,
				"z": 0.3013780187,
				"element": "H" 
			},
			{
				"x": 0.8224993495,
				"y": 3.3480885723,
				"z": -1.3570357469,
				"element": "H" 
			},
			{
				"x": 0.6526963901,
				"y": -2.5612392286,
				"z": 0.032845377,
				"element": "H" 
			},
			{
				"x": -2.5011715232,
				"y": 0.0045130845,
				"z": -1.3963828113,
				"element": "H" 
			},
			{
				"x": -1.0734925409,
				"y": 1.9763410655,
				"z": -1.0128310451,
				"element": "H" 
			}
		],
		 "valence_orbital": [ 
			{
				"type": "occ",
				"energy": -0.34099,
				"method": "rhf"
			},
			{
				"type": "occ",
				"energy": -0.32822,
				"method": "rhf"
			},
			{
				"type": "occ",
				"energy": -0.29147,
				"method": "rhf"
			},
			{
				"type": "occ",
				"energy": -0.29117,
				"method": "rhf"
			},
			{
				"type": "occ",
				"energy": -0.26475,
				"method": "rhf"
			},
			{
				"type": "unocc",
				"energy": -0.06602,
				"method": "rhf"
			},
			{
				"type": "unocc",
				"energy": -0.05226,
				"method": "rhf"
			},
			{
				"type": "unocc",
				"energy": -0.00707,
				"method": "rhf"
			},
			{
				"type": "unocc",
				"energy": -0.00485,
				"method": "rhf"
			},
			{
				"type": "unocc",
				"energy": 0.02448,
				"method": "rhf"
			}
		],
		"cosmo_sigma_profile": { 
			"-0.025": 0.0,
			"-0.024": 0.0,
			"-0.023": 0.0,
			"-0.022": 0.0,
			"-0.021": 0.0,
			"-0.02": 0.0,
			"-0.019": 0.0,
			"-0.018": 0.0,
			"-0.017": 0.0,
			"-0.016": 0.0,
			"-0.015": 0.0,
			"-0.014": 0.0,
			"-0.013": 0.0,
			"-0.012": 0.0,
			"-0.011": 0.756049626337,
			"-0.01": 5.7314055977,
			"-0.009": 13.3225571635,
			"-0.008": 13.002854711,
			"-0.007": 12.1509177718,
			"-0.006": 9.63275051305,
			"-0.005": 7.72448312198,
			"-0.004": 8.61416719833,
			"-0.003": 10.0188018229,
			"-0.002": 14.2173654215,
			"-0.001": 19.344817857,
			"0.0": 22.2988734457,
			"0.001": 15.3200878518,
			"0.002": 8.80234933819,
			"0.003": 10.4723527099,
			"0.004": 9.06788739928,
			"0.005": 4.70194272077,
			"0.006": 5.12320308854,
			"0.007": 4.94961067521,
			"0.008": 6.16283487687,
			"0.009": 8.23967028899,
			"0.01": 7.32461352379,
			"0.011": 8.17424061705,
			"0.012": 6.37162365233,
			"0.013": 1.79408384894,
			"0.014": 0.0310762356098,
			"0.015": 0.0,
			"0.016": 0.0,
			"0.017": 0.0,
			"0.018": 0.0,
			"0.019": 0.0,
			"0.02": 0.0,
			"0.021": 0.0,
			"0.022": 0.0,
			"0.023": 0.0,
			"0.024": 0.0,
			"0.025": 0.0
		}
	}
}
