{
	 "smiles": "NC(=O)CC1=CC=CC=C1", 
	 "Tm": 430.15, 
	 "num_atms": 19, 
	 "gaussian": { 
		 "optdone": 1, 
		 "sigma_profile": "yes", 
		 "theory": "DFT", 
		 "functional": "B3LYP", 
		 "basiset": "6-31G**", 
		 "properties": { 
			 "R2extent": 2005.3224, 
			 "electric_dipole_moment_norm": 3.84036359477, 
			 "electric_quadrupole_moment_norm": 16.1427502078, 
			 "total_energy": -440.271722748, 
			 "HOMO_LUMO_gap": 0.22073, 
			 "cosmo_polarized_energy": -12.16, 
			 "cosmo_cavitation_energy": 22.92, 
			 "cosmo_dispersion_energy": -16.6, 
			 "cosmo_repulsion_energy": 1.37, 
			 "cosmo_total_nonelectrostatic_energy": 7.69, 
			 "SMD_solvation_energy": 4.69 
		},
		"coords": [
			{
				"x": 1.9324183161,
				"y": 1.4350209059,
				"z": 2.2942373471,
				"element": "N" 
			},
			{
				"x": 0.86108005,
				"y": 2.2590368597,
				"z": 2.4708094754,
				"element": "C" 
			},
			{
				"x": 0.9233625413,
				"y": 3.3063019363,
				"z": 3.096840018,
				"element": "O" 
			},
			{
				"x": -0.4745008107,
				"y": 1.7770397316,
				"z": 1.8696442046,
				"element": "C" 
			},
			{
				"x": -0.419152713,
				"y": 0.6348677047,
				"z": 0.8815553372,
				"element": "C" 
			},
			{
				"x": -0.5478893603,
				"y": -0.6957230787,
				"z": 1.3081428925,
				"element": "C" 
			},
			{
				"x": -0.4702382529,
				"y": -1.7518299083,
				"z": 0.3980239724,
				"element": "C" 
			},
			{
				"x": -0.2625685639,
				"y": -1.493741346,
				"z": -0.9579736856,
				"element": "C" 
			},
			{
				"x": -0.1335846926,
				"y": -0.1740250058,
				"z": -1.3968554977,
				"element": "C" 
			},
			{
				"x": -0.2101375309,
				"y": 0.8786558353,
				"z": -0.4845636263,
				"element": "C" 
			},
			{
				"x": 2.8225521407,
				"y": 1.73526094,
				"z": 2.6606220687,
				"element": "H" 
			},
			{
				"x": 1.8824209341,
				"y": 0.612832388,
				"z": 1.7146584931,
				"element": "H" 
			},
			{
				"x": -1.106368931,
				"y": 1.5131699148,
				"z": 2.7256966524,
				"element": "H" 
			},
			{
				"x": -0.928100006,
				"y": 2.6650331226,
				"z": 1.4197843677,
				"element": "H" 
			},
			{
				"x": -0.7182386548,
				"y": -0.9033275072,
				"z": 2.3619425802,
				"element": "H" 
			},
			{
				"x": -0.5784759613,
				"y": -2.7745709445,
				"z": 0.7480409692,
				"element": "H" 
			},
			{
				"x": -0.2061406036,
				"y": -2.3136815155,
				"z": -1.6680002305,
				"element": "H" 
			},
			{
				"x": 0.0232608015,
				"y": 0.0362836437,
				"z": -2.4510677766,
				"element": "H" 
			},
			{
				"x": -0.1115987026,
				"y": 1.9037963235,
				"z": -0.8333375617,
				"element": "H" 
			}
		],
		 "valence_orbital": [ 
			{
				"type": "occ",
				"energy": -0.34374,
				"method": "rhf"
			},
			{
				"type": "occ",
				"energy": -0.26586,
				"method": "rhf"
			},
			{
				"type": "occ",
				"energy": -0.26341,
				"method": "rhf"
			},
			{
				"type": "occ",
				"energy": -0.25744,
				"method": "rhf"
			},
			{
				"type": "occ",
				"energy": -0.23327,
				"method": "rhf"
			},
			{
				"type": "unocc",
				"energy": -0.01254,
				"method": "rhf"
			},
			{
				"type": "unocc",
				"energy": -0.01159,
				"method": "rhf"
			},
			{
				"type": "unocc",
				"energy": 0.03739,
				"method": "rhf"
			},
			{
				"type": "unocc",
				"energy": 0.08417,
				"method": "rhf"
			},
			{
				"type": "unocc",
				"energy": 0.09318,
				"method": "rhf"
			}
		],
		"cosmo_sigma_profile": { 
			"-0.025": 0.0,
			"-0.024": 0.0,
			"-0.023": 0.0,
			"-0.022": 0.0,
			"-0.021": 0.0,
			"-0.02": 0.0,
			"-0.019": 0.0,
			"-0.018": 0.0,
			"-0.017": 0.0,
			"-0.016": 0.0,
			"-0.015": 0.0,
			"-0.014": 0.539465499054,
			"-0.013": 1.22854360129,
			"-0.012": 1.84882304907,
			"-0.011": 1.62361547831,
			"-0.01": 2.13175847599,
			"-0.009": 1.53290981766,
			"-0.008": 1.56184995307,
			"-0.007": 1.91358219277,
			"-0.006": 10.9076926656,
			"-0.005": 18.0379108801,
			"-0.004": 15.4839345127,
			"-0.003": 15.5857069673,
			"-0.002": 12.8398930787,
			"-0.001": 12.0938903165,
			"0.0": 8.50464815078,
			"0.001": 11.6753935004,
			"0.002": 9.48333432546,
			"0.003": 10.2696637912,
			"0.004": 10.2970652134,
			"0.005": 9.06501069994,
			"0.006": 5.37397604797,
			"0.007": 0.878749577581,
			"0.008": 1.62506757147,
			"0.009": 1.48517639809,
			"0.01": 0.396937842549,
			"0.011": 1.13126600295,
			"0.012": 2.22720815161,
			"0.013": 2.90583219612,
			"0.014": 5.85948759773,
			"0.015": 3.13599632653,
			"0.016": 0.101435100235,
			"0.017": 0.0,
			"0.018": 0.0,
			"0.019": 0.0,
			"0.02": 0.0,
			"0.021": 0.0,
			"0.022": 0.0,
			"0.023": 0.0,
			"0.024": 0.0,
			"0.025": 0.0
		}
	}
}
