{
	 "smiles": "CN1C(S)=NN=C1C1CC1", 
	 "Tm": 454.15, 
	 "num_atms": 19, 
	 "gaussian": { 
		 "optdone": 1, 
		 "sigma_profile": "yes", 
		 "theory": "DFT", 
		 "functional": "B3LYP", 
		 "basiset": "6-31G**", 
		 "properties": { 
			 "R2extent": 2417.0738, 
			 "electric_dipole_moment_norm": 4.71783626147, 
			 "electric_quadrupole_moment_norm": 13.5191138718, 
			 "total_energy": -796.447790737, 
			 "HOMO_LUMO_gap": 0.22751, 
			 "cosmo_polarized_energy": -15.44, 
			 "cosmo_cavitation_energy": 24.2, 
			 "cosmo_dispersion_energy": -18.15, 
			 "cosmo_repulsion_energy": 1.43, 
			 "cosmo_total_nonelectrostatic_energy": 7.48, 
			 "SMD_solvation_energy": 1.58 
		},
		"coords": [
			{
				"x": -0.3315022484,
				"y": -0.1652810699,
				"z": -1.5031252471,
				"element": "C" 
			},
			{
				"x": -0.2054309996,
				"y": -1.0722761114,
				"z": -0.3737259831,
				"element": "N" 
			},
			{
				"x": 0.7873126067,
				"y": -1.9902212534,
				"z": -0.1407711992,
				"element": "C" 
			},
			{
				"x": 2.1289085721,
				"y": -2.2420835732,
				"z": -1.2660504394,
				"element": "S" 
			},
			{
				"x": 0.5935966268,
				"y": -2.6249754078,
				"z": 0.9898930017,
				"element": "N" 
			},
			{
				"x": -0.5774338036,
				"y": -2.1246806416,
				"z": 1.5313892421,
				"element": "N" 
			},
			{
				"x": -1.0464356419,
				"y": -1.2085425334,
				"z": 0.7159600044,
				"element": "C" 
			},
			{
				"x": -2.2600041995,
				"y": -0.3935484082,
				"z": 0.924582688,
				"element": "C" 
			},
			{
				"x": -3.0006759204,
				"y": -0.5320717167,
				"z": 2.2315334972,
				"element": "C" 
			},
			{
				"x": -2.2451787447,
				"y": 0.7349272452,
				"z": 1.9524649418,
				"element": "C" 
			},
			{
				"x": -0.9693140732,
				"y": 0.6720497753,
				"z": -1.2173128992,
				"element": "H" 
			},
			{
				"x": -0.7661580766,
				"y": -0.6676798309,
				"z": -2.3736225783,
				"element": "H" 
			},
			{
				"x": 0.6523604099,
				"y": 0.226645461,
				"z": -1.7735749906,
				"element": "H" 
			},
			{
				"x": 2.7447527349,
				"y": -3.1086453548,
				"z": -0.4402392244,
				"element": "H" 
			},
			{
				"x": -2.8640472696,
				"y": -0.2253744229,
				"z": 0.0359745447,
				"element": "H" 
			},
			{
				"x": -4.084912042,
				"y": -0.5081518966,
				"z": 2.1934356931,
				"element": "H" 
			},
			{
				"x": -2.5783576695,
				"y": -1.2294817938,
				"z": 2.9462218311,
				"element": "H" 
			},
			{
				"x": -1.3166169334,
				"y": 0.8997326631,
				"z": 2.4895815967,
				"element": "H" 
			},
			{
				"x": -2.8029633281,
				"y": 1.6365588701,
				"z": 1.7168855202,
				"element": "H" 
			}
		],
		 "valence_orbital": [ 
			{
				"type": "occ",
				"energy": -0.30224,
				"method": "rhf"
			},
			{
				"type": "occ",
				"energy": -0.29338,
				"method": "rhf"
			},
			{
				"type": "occ",
				"energy": -0.28303,
				"method": "rhf"
			},
			{
				"type": "occ",
				"energy": -0.24925,
				"method": "rhf"
			},
			{
				"type": "occ",
				"energy": -0.22136,
				"method": "rhf"
			},
			{
				"type": "unocc",
				"energy": 0.00615,
				"method": "rhf"
			},
			{
				"type": "unocc",
				"energy": 0.01815,
				"method": "rhf"
			},
			{
				"type": "unocc",
				"energy": 0.04664,
				"method": "rhf"
			},
			{
				"type": "unocc",
				"energy": 0.06212,
				"method": "rhf"
			},
			{
				"type": "unocc",
				"energy": 0.08407,
				"method": "rhf"
			}
		],
		"cosmo_sigma_profile": { 
			"-0.025": 0.0,
			"-0.024": 0.0,
			"-0.023": 0.0,
			"-0.022": 0.0,
			"-0.021": 0.0,
			"-0.02": 0.0,
			"-0.019": 0.0,
			"-0.018": 0.0,
			"-0.017": 0.0,
			"-0.016": 0.0,
			"-0.015": 0.0,
			"-0.014": 0.0,
			"-0.013": 0.0,
			"-0.012": 1.20676912661,
			"-0.011": 1.47306516489,
			"-0.01": 1.18855600719,
			"-0.009": 1.38871725442,
			"-0.008": 1.08410060482,
			"-0.007": 7.40275714293,
			"-0.006": 13.4920388233,
			"-0.005": 19.7809422065,
			"-0.004": 19.4561945397,
			"-0.003": 13.8520207124,
			"-0.002": 12.6574922481,
			"-0.001": 14.7625479705,
			"0.0": 13.7125407796,
			"0.001": 9.64735151089,
			"0.002": 11.1107531951,
			"0.003": 8.71548077812,
			"0.004": 6.82156750428,
			"0.005": 5.77574891044,
			"0.006": 4.95333979856,
			"0.007": 3.14872860513,
			"0.008": 1.9562494211,
			"0.009": 1.98890771863,
			"0.01": 2.41857009595,
			"0.011": 2.29863872754,
			"0.012": 2.13632438103,
			"0.013": 2.52305868837,
			"0.014": 3.74573299987,
			"0.015": 3.28195518542,
			"0.016": 1.90629407583,
			"0.017": 0.774424401832,
			"0.018": 0.0,
			"0.019": 0.0,
			"0.02": 0.0,
			"0.021": 0.0,
			"0.022": 0.0,
			"0.023": 0.0,
			"0.024": 0.0,
			"0.025": 0.0
		}
	}
}
