{
	 "smiles": "O=C(N1C=C(C(=O)C2=CC=C(OCC3=CC=CC=C3)C=C2)C2=C1C=CC=C2)C1=CC=C(OCC2=CC=CC=C2)C=C1", 
	 "Tm": 454.15, 
	 "num_atms": 68, 
	 "gaussian": { 
		 "optdone": 1, 
		 "sigma_profile": "yes", 
		 "theory": "DFT", 
		 "functional": "B3LYP", 
		 "basiset": "6-31G**", 
		 "properties": { 
			 "R2extent": 32697.9158, 
			 "electric_dipole_moment_norm": 7.2155045915, 
			 "electric_quadrupole_moment_norm": 14.5024590242, 
			 "total_energy": -1743.75612859, 
			 "HOMO_LUMO_gap": 0.15556, 
			 "cosmo_polarized_energy": -22.48, 
			 "cosmo_cavitation_energy": 73.58, 
			 "cosmo_dispersion_energy": -50.19, 
			 "cosmo_repulsion_energy": 3.74, 
			 "cosmo_total_nonelectrostatic_energy": 27.13, 
			 "SMD_solvation_energy": 13.02 
		},
		"coords": [
			{
				"x": 1.6188137841,
				"y": -4.6276204538,
				"z": 1.7862369094,
				"element": "O" 
			},
			{
				"x": 0.8970781297,
				"y": -3.6796681041,
				"z": 1.5221481448,
				"element": "C" 
			},
			{
				"x": -0.0919600694,
				"y": -3.7977570299,
				"z": 0.5160884478,
				"element": "N" 
			},
			{
				"x": -0.6576046307,
				"y": -2.756674326,
				"z": -0.2152454663,
				"element": "C" 
			},
			{
				"x": -1.5153745472,
				"y": -3.248697985,
				"z": -1.1663483075,
				"element": "C" 
			},
			{
				"x": -2.3692136505,
				"y": -2.4822679549,
				"z": -2.0960547553,
				"element": "C" 
			},
			{
				"x": -3.3650481407,
				"y": -3.011297059,
				"z": -2.5910715752,
				"element": "O" 
			},
			{
				"x": -2.0473144036,
				"y": -1.0559731086,
				"z": -2.4165578932,
				"element": "C" 
			},
			{
				"x": -3.1063885251,
				"y": -0.2143316547,
				"z": -2.7827989245,
				"element": "C" 
			},
			{
				"x": -2.8938774837,
				"y": 1.1192928097,
				"z": -3.1208661297,
				"element": "C" 
			},
			{
				"x": -1.5871413059,
				"y": 1.6310412088,
				"z": -3.1238052971,
				"element": "C" 
			},
			{
				"x": -1.25743299,
				"y": 2.913874049,
				"z": -3.4374769208,
				"element": "O" 
			},
			{
				"x": -2.2922331962,
				"y": 3.8077523474,
				"z": -3.8532505801,
				"element": "C" 
			},
			{
				"x": -1.6745745293,
				"y": 5.1347477198,
				"z": -4.2219472951,
				"element": "C" 
			},
			{
				"x": -0.488440031,
				"y": 5.1906574383,
				"z": -4.9648557348,
				"element": "C" 
			},
			{
				"x": 0.0499241767,
				"y": 6.4207607361,
				"z": -5.3402723243,
				"element": "C" 
			},
			{
				"x": -0.5945078872,
				"y": 7.6088224741,
				"z": -4.9859171185,
				"element": "C" 
			},
			{
				"x": -1.7768606552,
				"y": 7.5598815401,
				"z": -4.2470165769,
				"element": "C" 
			},
			{
				"x": -2.3099427308,
				"y": 6.3278212575,
				"z": -3.8628578584,
				"element": "C" 
			},
			{
				"x": -0.512427977,
				"y": 0.7926718888,
				"z": -2.788707611,
				"element": "C" 
			},
			{
				"x": -0.7423094096,
				"y": -0.530329498,
				"z": -2.4374498369,
				"element": "C" 
			},
			{
				"x": -1.5057749007,
				"y": -4.6964136905,
				"z": -1.028912938,
				"element": "C" 
			},
			{
				"x": -0.5840444667,
				"y": -5.0162265471,
				"z": -0.006077041,
				"element": "C" 
			},
			{
				"x": -0.3116876031,
				"y": -6.3349558089,
				"z": 0.3666812115,
				"element": "C" 
			},
			{
				"x": -0.9992533532,
				"y": -7.3384340386,
				"z": -0.3120313137,
				"element": "C" 
			},
			{
				"x": -1.9253161711,
				"y": -7.0391734391,
				"z": -1.327081979,
				"element": "C" 
			},
			{
				"x": -2.18886958,
				"y": -5.7237810571,
				"z": -1.6944234116,
				"element": "C" 
			},
			{
				"x": 1.0118585952,
				"y": -2.3778823465,
				"z": 2.2374543129,
				"element": "C" 
			},
			{
				"x": 2.2845255796,
				"y": -2.002703426,
				"z": 2.6892538468,
				"element": "C" 
			},
			{
				"x": 2.4787874182,
				"y": -0.835089437,
				"z": 3.4205243751,
				"element": "C" 
			},
			{
				"x": 1.374146005,
				"y": -0.0333519121,
				"z": 3.7453743363,
				"element": "C" 
			},
			{
				"x": 1.4315911499,
				"y": 1.1170750233,
				"z": 4.4710225372,
				"element": "O" 
			},
			{
				"x": 2.6736282733,
				"y": 1.5266057175,
				"z": 5.0512475942,
				"element": "C" 
			},
			{
				"x": 3.637000061,
				"y": 2.1608904895,
				"z": 4.0675950656,
				"element": "C" 
			},
			{
				"x": 3.1645293414,
				"y": 2.9291043332,
				"z": 2.9968353742,
				"element": "C" 
			},
			{
				"x": 4.0602507078,
				"y": 3.5513611383,
				"z": 2.1273403258,
				"element": "C" 
			},
			{
				"x": 5.4371171604,
				"y": 3.4204034332,
				"z": 2.3231107532,
				"element": "C" 
			},
			{
				"x": 5.9145457927,
				"y": 2.6588468118,
				"z": 3.390741658,
				"element": "C" 
			},
			{
				"x": 5.0176463041,
				"y": 2.0288460258,
				"z": 4.2554507539,
				"element": "C" 
			},
			{
				"x": 0.0895084706,
				"y": -0.414015084,
				"z": 3.3252629962,
				"element": "C" 
			},
			{
				"x": -0.0880818913,
				"y": -1.5689634937,
				"z": 2.5777191733,
				"element": "C" 
			},
			{
				"x": -0.3954518676,
				"y": -1.7362690669,
				"z": 0.007703175,
				"element": "H" 
			},
			{
				"x": -4.1091362131,
				"y": -0.6286784939,
				"z": -2.7965317365,
				"element": "H" 
			},
			{
				"x": -3.7398836696,
				"y": 1.7446148377,
				"z": -3.3795418588,
				"element": "H" 
			},
			{
				"x": -3.0275859058,
				"y": 3.9387034809,
				"z": -3.0480431666,
				"element": "H" 
			},
			{
				"x": -2.8188075998,
				"y": 3.3740151255,
				"z": -4.7166618057,
				"element": "H" 
			},
			{
				"x": 0.014786835,
				"y": 4.2672598462,
				"z": -5.2333735893,
				"element": "H" 
			},
			{
				"x": 0.9731286822,
				"y": 6.4527705599,
				"z": -5.9119719328,
				"element": "H" 
			},
			{
				"x": -0.1747249206,
				"y": 8.5661599351,
				"z": -5.2810742598,
				"element": "H" 
			},
			{
				"x": -2.2805299739,
				"y": 8.4787655367,
				"z": -3.9609047908,
				"element": "H" 
			},
			{
				"x": -3.225642204,
				"y": 6.2949618099,
				"z": -3.2772202643,
				"element": "H" 
			},
			{
				"x": 0.4921941385,
				"y": 1.2011338931,
				"z": -2.8226194353,
				"element": "H" 
			},
			{
				"x": 0.1037213195,
				"y": -1.1715107086,
				"z": -2.2148211222,
				"element": "H" 
			},
			{
				"x": 0.4134422926,
				"y": -6.5586028325,
				"z": 1.1366857797,
				"element": "H" 
			},
			{
				"x": -0.8105507421,
				"y": -8.3754634542,
				"z": -0.0499443099,
				"element": "H" 
			},
			{
				"x": -2.4438897561,
				"y": -7.8499664074,
				"z": -1.8306164364,
				"element": "H" 
			},
			{
				"x": -2.9100940236,
				"y": -5.4771436249,
				"z": -2.4638678568,
				"element": "H" 
			},
			{
				"x": 3.1289708911,
				"y": -2.6414285343,
				"z": 2.4526075111,
				"element": "H" 
			},
			{
				"x": 3.4807007899,
				"y": -0.5504307106,
				"z": 3.7156348609,
				"element": "H" 
			},
			{
				"x": 2.3747058863,
				"y": 2.2557656595,
				"z": 5.8116154373,
				"element": "H" 
			},
			{
				"x": 3.1463746156,
				"y": 0.6843368883,
				"z": 5.5722217805,
				"element": "H" 
			},
			{
				"x": 2.0941874497,
				"y": 3.0282227846,
				"z": 2.8444544197,
				"element": "H" 
			},
			{
				"x": 3.6827608002,
				"y": 4.1404296082,
				"z": 1.2963823404,
				"element": "H" 
			},
			{
				"x": 6.1331550994,
				"y": 3.90605488,
				"z": 1.645438455,
				"element": "H" 
			},
			{
				"x": 6.9836946676,
				"y": 2.5471848551,
				"z": 3.5466536535,
				"element": "H" 
			},
			{
				"x": 5.3949991944,
				"y": 1.4302360688,
				"z": 5.0818405703,
				"element": "H" 
			},
			{
				"x": -0.7535056051,
				"y": 0.2064331255,
				"z": 3.6100002781,
				"element": "H" 
			},
			{
				"x": -1.0917910017,
				"y": -1.8595040489,
				"z": 2.2854933762,
				"element": "H" 
			}
		],
		 "valence_orbital": [ 
			{
				"type": "occ",
				"energy": -0.24208,
				"method": "rhf"
			},
			{
				"type": "occ",
				"energy": -0.23773,
				"method": "rhf"
			},
			{
				"type": "occ",
				"energy": -0.22886,
				"method": "rhf"
			},
			{
				"type": "occ",
				"energy": -0.22611,
				"method": "rhf"
			},
			{
				"type": "occ",
				"energy": -0.21488,
				"method": "rhf"
			},
			{
				"type": "unocc",
				"energy": -0.05932,
				"method": "rhf"
			},
			{
				"type": "unocc",
				"energy": -0.04146,
				"method": "rhf"
			},
			{
				"type": "unocc",
				"energy": -0.0213,
				"method": "rhf"
			},
			{
				"type": "unocc",
				"energy": -0.01462,
				"method": "rhf"
			},
			{
				"type": "unocc",
				"energy": -0.0136,
				"method": "rhf"
			}
		],
		"cosmo_sigma_profile": { 
			"-0.025": 0.0,
			"-0.024": 0.0,
			"-0.023": 0.0,
			"-0.022": 0.0,
			"-0.021": 0.0,
			"-0.02": 0.0,
			"-0.019": 0.0,
			"-0.018": 0.0,
			"-0.017": 0.0,
			"-0.016": 0.0,
			"-0.015": 0.0,
			"-0.014": 0.0,
			"-0.013": 0.0,
			"-0.012": 0.0,
			"-0.011": 0.0,
			"-0.01": 0.0,
			"-0.009": 0.0,
			"-0.008": 0.76536458711,
			"-0.007": 14.6549939303,
			"-0.006": 41.6644322476,
			"-0.005": 53.5075714757,
			"-0.004": 52.0105186085,
			"-0.003": 44.8283677494,
			"-0.002": 37.4085203408,
			"-0.001": 39.3216141472,
			"0.0": 35.5706423234,
			"0.001": 39.352515794,
			"0.002": 46.2147769517,
			"0.003": 51.26793389,
			"0.004": 45.6291540991,
			"0.005": 35.9854801013,
			"0.006": 19.1015349522,
			"0.007": 7.65884186521,
			"0.008": 5.46643959585,
			"0.009": 4.70475278575,
			"0.01": 4.88540916271,
			"0.011": 4.89919609113,
			"0.012": 4.42684443893,
			"0.013": 1.80183011536,
			"0.014": 0.0983209837593,
			"0.015": 0.0,
			"0.016": 0.0,
			"0.017": 0.0,
			"0.018": 0.0,
			"0.019": 0.0,
			"0.02": 0.0,
			"0.021": 0.0,
			"0.022": 0.0,
			"0.023": 0.0,
			"0.024": 0.0,
			"0.025": 0.0
		}
	}
}
