{
	 "smiles": "SC1=NN=C(O1)C1=CC2=C(OCO2)C=C1", 
	 "Tm": 453.15, 
	 "num_atms": 21, 
	 "gaussian": { 
		 "optdone": 1, 
		 "sigma_profile": "yes", 
		 "theory": "DFT", 
		 "functional": "B3LYP", 
		 "basiset": "6-31G**", 
		 "properties": { 
			 "R2extent": 5723.0129, 
			 "electric_dipole_moment_norm": 4.79458083465, 
			 "electric_quadrupole_moment_norm": 23.3887698804, 
			 "total_energy": -1079.86858657, 
			 "HOMO_LUMO_gap": 0.16683, 
			 "cosmo_polarized_energy": -14.18, 
			 "cosmo_cavitation_energy": 28.41, 
			 "cosmo_dispersion_energy": -22.17, 
			 "cosmo_repulsion_energy": 1.67, 
			 "cosmo_total_nonelectrostatic_energy": 7.9, 
			 "SMD_solvation_energy": 3.57 
		},
		"coords": [
			{
				"x": 0.12374417,
				"y": 0.8480713345,
				"z": -6.2857287175,
				"element": "S" 
			},
			{
				"x": 0.395925997,
				"y": 1.265665134,
				"z": -4.6009952671,
				"element": "C" 
			},
			{
				"x": 0.897773308,
				"y": 2.3706348637,
				"z": -4.1517595693,
				"element": "N" 
			},
			{
				"x": 0.917293186,
				"y": 2.2403906136,
				"z": -2.7617608444,
				"element": "N" 
			},
			{
				"x": 0.4269482437,
				"y": 1.0700002728,
				"z": -2.4809025121,
				"element": "C" 
			},
			{
				"x": 0.0672822185,
				"y": 0.3809606282,
				"z": -3.6185710176,
				"element": "O" 
			},
			{
				"x": 0.2313357133,
				"y": 0.4528336935,
				"z": -1.1778038465,
				"element": "C" 
			},
			{
				"x": 0.612297865,
				"y": 1.190410033,
				"z": -0.0286518232,
				"element": "C" 
			},
			{
				"x": 0.4153077167,
				"y": 0.5810032894,
				"z": 1.1878577144,
				"element": "C" 
			},
			{
				"x": -0.1316237017,
				"y": -0.6998183337,
				"z": 1.3001346808,
				"element": "C" 
			},
			{
				"x": -0.2133802002,
				"y": -1.0549692614,
				"z": 2.6181826655,
				"element": "O" 
			},
			{
				"x": 0.306497683,
				"y": 0.054755592,
				"z": 3.3662886791,
				"element": "C" 
			},
			{
				"x": 0.6954370872,
				"y": 1.0723080911,
				"z": 2.4375426121,
				"element": "O" 
			},
			{
				"x": -0.5082659315,
				"y": -1.4325915725,
				"z": 0.1913419617,
				"element": "C" 
			},
			{
				"x": -0.3169678146,
				"y": -0.8316434178,
				"z": -1.0628600509,
				"element": "C" 
			},
			{
				"x": -0.3873013682,
				"y": -0.3677357489,
				"z": -6.0132690899,
				"element": "H" 
			},
			{
				"x": 1.0357543236,
				"y": 2.1827702437,
				"z": -0.1216472983,
				"element": "H" 
			},
			{
				"x": 1.1809455008,
				"y": -0.2725174647,
				"z": 3.9412628657,
				"element": "H" 
			},
			{
				"x": -0.4744994329,
				"y": 0.4423521261,
				"z": 4.0312512363,
				"element": "H" 
			},
			{
				"x": -0.9316550488,
				"y": -2.4254116392,
				"z": 0.2885405499,
				"element": "H" 
			},
			{
				"x": -0.5989495149,
				"y": -1.3719684776,
				"z": -1.959152929,
				"element": "H" 
			}
		],
		 "valence_orbital": [ 
			{
				"type": "occ",
				"energy": -0.31688,
				"method": "rhf"
			},
			{
				"type": "occ",
				"energy": -0.27957,
				"method": "rhf"
			},
			{
				"type": "occ",
				"energy": -0.27062,
				"method": "rhf"
			},
			{
				"type": "occ",
				"energy": -0.24597,
				"method": "rhf"
			},
			{
				"type": "occ",
				"energy": -0.21429,
				"method": "rhf"
			},
			{
				"type": "unocc",
				"energy": -0.04746,
				"method": "rhf"
			},
			{
				"type": "unocc",
				"energy": -0.01224,
				"method": "rhf"
			},
			{
				"type": "unocc",
				"energy": -0.00426,
				"method": "rhf"
			},
			{
				"type": "unocc",
				"energy": 0.01498,
				"method": "rhf"
			},
			{
				"type": "unocc",
				"energy": 0.04907,
				"method": "rhf"
			}
		],
		"cosmo_sigma_profile": { 
			"-0.025": 0.0,
			"-0.024": 0.0,
			"-0.023": 0.0,
			"-0.022": 0.0,
			"-0.021": 0.0,
			"-0.02": 0.0,
			"-0.019": 0.0,
			"-0.018": 0.0,
			"-0.017": 0.0,
			"-0.016": 0.0,
			"-0.015": 0.0,
			"-0.014": 0.108345433547,
			"-0.013": 1.81131303875,
			"-0.012": 1.8283831509,
			"-0.011": 1.37456438782,
			"-0.01": 1.82439576967,
			"-0.009": 1.06930073935,
			"-0.008": 8.15167464536,
			"-0.007": 12.5895662801,
			"-0.006": 11.92212722,
			"-0.005": 11.4781897074,
			"-0.004": 10.9995279724,
			"-0.003": 11.7130600159,
			"-0.002": 13.3479195673,
			"-0.001": 16.3895947105,
			"0.0": 19.3832636436,
			"0.001": 22.3180084284,
			"0.002": 22.1571216703,
			"0.003": 15.3444147502,
			"0.004": 8.42372920435,
			"0.005": 6.46552361835,
			"0.006": 5.50885507406,
			"0.007": 4.50434206563,
			"0.008": 5.15769372369,
			"0.009": 4.09697906258,
			"0.01": 3.91761710573,
			"0.011": 2.90054675258,
			"0.012": 2.85946114585,
			"0.013": 2.52184165609,
			"0.014": 1.85241120621,
			"0.015": 0.31603869331,
			"0.016": 0.0,
			"0.017": 0.0,
			"0.018": 0.0,
			"0.019": 0.0,
			"0.02": 0.0,
			"0.021": 0.0,
			"0.022": 0.0,
			"0.023": 0.0,
			"0.024": 0.0,
			"0.025": 0.0
		}
	}
}
