{
	 "smiles": "CC1=CN(CCC(O)=O)C2=C1C=CC=C2", 
	 "Tm": 360.65, 
	 "num_atms": 28, 
	 "gaussian": { 
		 "optdone": 1, 
		 "sigma_profile": "yes", 
		 "theory": "DFT", 
		 "functional": "B3LYP", 
		 "basiset": "6-31G**", 
		 "properties": { 
			 "R2extent": 4366.4632, 
			 "electric_dipole_moment_norm": 1.93501139273, 
			 "electric_quadrupole_moment_norm": 11.4142701155, 
			 "total_energy": -670.339060014, 
			 "HOMO_LUMO_gap": 0.18809, 
			 "cosmo_polarized_energy": -12.57, 
			 "cosmo_cavitation_energy": 32.08, 
			 "cosmo_dispersion_energy": -22.66, 
			 "cosmo_repulsion_energy": 1.78, 
			 "cosmo_total_nonelectrostatic_energy": 11.2, 
			 "SMD_solvation_energy": 6.35 
		},
		"coords": [
			{
				"x": 0.9346301557,
				"y": 3.6974292839,
				"z": 0.0064483902,
				"element": "C" 
			},
			{
				"x": 0.0951532917,
				"y": 2.4715342409,
				"z": 0.2028076781,
				"element": "C" 
			},
			{
				"x": -0.3756607111,
				"y": 1.6264557839,
				"z": -0.7686782242,
				"element": "C" 
			},
			{
				"x": -1.141409103,
				"y": 0.6094850706,
				"z": -0.2130657261,
				"element": "N" 
			},
			{
				"x": -1.7014339637,
				"y": -0.5155739972,
				"z": -0.9370109179,
				"element": "C" 
			},
			{
				"x": -0.7860900024,
				"y": -1.7484042731,
				"z": -0.9144697566,
				"element": "C" 
			},
			{
				"x": -1.3840252245,
				"y": -2.9102433606,
				"z": -1.6740042663,
				"element": "C" 
			},
			{
				"x": -0.5760022364,
				"y": -3.9953835588,
				"z": -1.6481104924,
				"element": "O" 
			},
			{
				"x": -2.452347078,
				"y": -2.9009683438,
				"z": -2.247095182,
				"element": "O" 
			},
			{
				"x": -1.1562930229,
				"y": 0.7848017603,
				"z": 1.1597547737,
				"element": "C" 
			},
			{
				"x": -0.3943191845,
				"y": 1.9502339246,
				"z": 1.4548813571,
				"element": "C" 
			},
			{
				"x": -0.2665340887,
				"y": 2.3592402753,
				"z": 2.79309258,
				"element": "C" 
			},
			{
				"x": -0.8811018068,
				"y": 1.6121355522,
				"z": 3.7909457813,
				"element": "C" 
			},
			{
				"x": -1.6284477134,
				"y": 0.4587769117,
				"z": 3.4776674172,
				"element": "C" 
			},
			{
				"x": -1.7758214031,
				"y": 0.028911606,
				"z": 2.1627869062,
				"element": "C" 
			},
			{
				"x": 0.4284810994,
				"y": 4.5989893072,
				"z": 0.3733288609,
				"element": "H" 
			},
			{
				"x": 1.8882709596,
				"y": 3.6258255409,
				"z": 0.5440480816,
				"element": "H" 
			},
			{
				"x": 1.1633701622,
				"y": 3.8552252375,
				"z": -1.0518281053,
				"element": "H" 
			},
			{
				"x": -0.2386885547,
				"y": 1.6711456878,
				"z": -1.8413153484,
				"element": "H" 
			},
			{
				"x": -1.885920489,
				"y": -0.2068456562,
				"z": -1.9690351816,
				"element": "H" 
			},
			{
				"x": -2.6773579974,
				"y": -0.7672993374,
				"z": -0.512169082,
				"element": "H" 
			},
			{
				"x": -0.5860423905,
				"y": -2.0681371982,
				"z": 0.1144774664,
				"element": "H" 
			},
			{
				"x": 0.1926538394,
				"y": -1.513907688,
				"z": -1.3490383485,
				"element": "H" 
			},
			{
				"x": -1.0330592121,
				"y": -4.6874705018,
				"z": -2.1555583179,
				"element": "H" 
			},
			{
				"x": 0.3065861206,
				"y": 3.2477551463,
				"z": 3.0441233133,
				"element": "H" 
			},
			{
				"x": -0.7870470904,
				"y": 1.9184599779,
				"z": 4.8287564411,
				"element": "H" 
			},
			{
				"x": -2.0987762676,
				"y": -0.1059053276,
				"z": 4.2774987179,
				"element": "H" 
			},
			{
				"x": -2.3565680884,
				"y": -0.8591660644,
				"z": 1.930761184,
				"element": "H" 
			}
		],
		 "valence_orbital": [ 
			{
				"type": "occ",
				"energy": -0.31982,
				"method": "rhf"
			},
			{
				"type": "occ",
				"energy": -0.28656,
				"method": "rhf"
			},
			{
				"type": "occ",
				"energy": -0.26256,
				"method": "rhf"
			},
			{
				"type": "occ",
				"energy": -0.21447,
				"method": "rhf"
			},
			{
				"type": "occ",
				"energy": -0.19319,
				"method": "rhf"
			},
			{
				"type": "unocc",
				"energy": -0.0051,
				"method": "rhf"
			},
			{
				"type": "unocc",
				"energy": -2e-05,
				"method": "rhf"
			},
			{
				"type": "unocc",
				"energy": 0.03004,
				"method": "rhf"
			},
			{
				"type": "unocc",
				"energy": 0.06813,
				"method": "rhf"
			},
			{
				"type": "unocc",
				"energy": 0.07688,
				"method": "rhf"
			}
		],
		"cosmo_sigma_profile": { 
			"-0.025": 0.0,
			"-0.024": 0.0,
			"-0.023": 0.0,
			"-0.022": 0.0,
			"-0.021": 0.0,
			"-0.02": 0.0,
			"-0.019": 0.0384226105766,
			"-0.018": 0.698959066687,
			"-0.017": 1.23299962989,
			"-0.016": 0.731684982424,
			"-0.015": 0.305204721006,
			"-0.014": 0.519310428051,
			"-0.013": 0.620178845926,
			"-0.012": 1.15997498622,
			"-0.011": 1.12488573456,
			"-0.01": 0.719823187422,
			"-0.009": 0.376150753549,
			"-0.008": 1.19720810507,
			"-0.007": 7.36451367896,
			"-0.006": 16.408560196,
			"-0.005": 14.6642928783,
			"-0.004": 18.4913202818,
			"-0.003": 22.6393193452,
			"-0.002": 22.8359821905,
			"-0.001": 17.7595991676,
			"0.0": 16.5942213607,
			"0.001": 15.6967100966,
			"0.002": 12.3292475022,
			"0.003": 10.2062980052,
			"0.004": 12.2576801915,
			"0.005": 12.244885705,
			"0.006": 15.2819159114,
			"0.007": 12.1461484107,
			"0.008": 4.78169069766,
			"0.009": 3.31783391103,
			"0.01": 2.75122664289,
			"0.011": 3.70179113742,
			"0.012": 3.67112076268,
			"0.013": 0.0474328542303,
			"0.014": 0.0,
			"0.015": 0.0,
			"0.016": 0.0,
			"0.017": 0.0,
			"0.018": 0.0,
			"0.019": 0.0,
			"0.02": 0.0,
			"0.021": 0.0,
			"0.022": 0.0,
			"0.023": 0.0,
			"0.024": 0.0,
			"0.025": 0.0
		}
	}
}
