{
	 "smiles": "COC1=C(C=CC=C1)C(N)(C(O)=O)C(F)(F)F", 
	 "Tm": 371.15, 
	 "num_atms": 27, 
	 "gaussian": { 
		 "optdone": 1, 
		 "sigma_profile": "yes", 
		 "theory": "DFT", 
		 "functional": "B3LYP", 
		 "basiset": "6-31G**", 
		 "properties": { 
			 "R2extent": 3662.1784, 
			 "electric_dipole_moment_norm": 6.75221604216, 
			 "electric_quadrupole_moment_norm": 13.1878498122, 
			 "total_energy": -967.03402176, 
			 "HOMO_LUMO_gap": 0.21528, 
			 "cosmo_polarized_energy": -14.3, 
			 "cosmo_cavitation_energy": 30.79, 
			 "cosmo_dispersion_energy": -21.8, 
			 "cosmo_repulsion_energy": 1.63, 
			 "cosmo_total_nonelectrostatic_energy": 10.62, 
			 "SMD_solvation_energy": 7.72 
		},
		"coords": [
			{
				"x": -2.0421890274,
				"y": -2.5468633782,
				"z": 0.5342609067,
				"element": "C" 
			},
			{
				"x": -0.8710682583,
				"y": -1.7926947203,
				"z": 0.245790485,
				"element": "O" 
			},
			{
				"x": -0.9862240394,
				"y": -0.5984241652,
				"z": -0.4221960001,
				"element": "C" 
			},
			{
				"x": 0.1945287607,
				"y": 0.1557726462,
				"z": -0.6403053965,
				"element": "C" 
			},
			{
				"x": 0.0584903031,
				"y": 1.4003724611,
				"z": -1.2688196005,
				"element": "C" 
			},
			{
				"x": -1.1743635126,
				"y": 1.877862415,
				"z": -1.7123867752,
				"element": "C" 
			},
			{
				"x": -2.3149928845,
				"y": 1.1068182097,
				"z": -1.5222026198,
				"element": "C" 
			},
			{
				"x": -2.2220034838,
				"y": -0.1259739739,
				"z": -0.8775224631,
				"element": "C" 
			},
			{
				"x": 1.5869501955,
				"y": -0.2933183491,
				"z": -0.1503018598,
				"element": "C" 
			},
			{
				"x": 1.7971923657,
				"y": -1.7441612435,
				"z": -0.2838195338,
				"element": "N" 
			},
			{
				"x": 2.7063610364,
				"y": 0.3703862303,
				"z": -1.0344410722,
				"element": "C" 
			},
			{
				"x": 3.1454305504,
				"y": -0.4505596319,
				"z": -1.9882926389,
				"element": "O" 
			},
			{
				"x": 3.1064206028,
				"y": 1.5002471712,
				"z": -0.8852109853,
				"element": "O" 
			},
			{
				"x": 1.7878640568,
				"y": 0.1484629201,
				"z": 1.3179966154,
				"element": "C" 
			},
			{
				"x": 0.9104181479,
				"y": -0.4846090632,
				"z": 2.128558151,
				"element": "F" 
			},
			{
				"x": 1.6364901149,
				"y": 1.4625538583,
				"z": 1.5029215005,
				"element": "F" 
			},
			{
				"x": 3.0308873303,
				"y": -0.200655113,
				"z": 1.7378416115,
				"element": "F" 
			},
			{
				"x": -1.7030040601,
				"y": -3.4181131564,
				"z": 1.095990639,
				"element": "H" 
			},
			{
				"x": -2.7437067112,
				"y": -1.9710331669,
				"z": 1.1483616215,
				"element": "H" 
			},
			{
				"x": -2.5449823026,
				"y": -2.8791921073,
				"z": -0.3818187782,
				"element": "H" 
			},
			{
				"x": 0.9404600584,
				"y": 2.0137312943,
				"z": -1.4059550721,
				"element": "H" 
			},
			{
				"x": -1.2329331694,
				"y": 2.8457444636,
				"z": -2.1991917943,
				"element": "H" 
			},
			{
				"x": -3.2841865886,
				"y": 1.4567922549,
				"z": -1.8651105576,
				"element": "H" 
			},
			{
				"x": -3.1184838881,
				"y": -0.7132384396,
				"z": -0.7242616177,
				"element": "H" 
			},
			{
				"x": 2.5531004797,
				"y": -2.0342717685,
				"z": 0.3330808694,
				"element": "H" 
			},
			{
				"x": 0.9550637979,
				"y": -2.2510140218,
				"z": -0.0298419419,
				"element": "H" 
			},
			{
				"x": 2.6893801254,
				"y": -1.3118216259,
				"z": -1.800223693,
				"element": "H" 
			}
		],
		 "valence_orbital": [ 
			{
				"type": "occ",
				"energy": -0.30827,
				"method": "rhf"
			},
			{
				"type": "occ",
				"energy": -0.29901,
				"method": "rhf"
			},
			{
				"type": "occ",
				"energy": -0.27077,
				"method": "rhf"
			},
			{
				"type": "occ",
				"energy": -0.25479,
				"method": "rhf"
			},
			{
				"type": "occ",
				"energy": -0.23838,
				"method": "rhf"
			},
			{
				"type": "unocc",
				"energy": -0.0231,
				"method": "rhf"
			},
			{
				"type": "unocc",
				"energy": -0.00761,
				"method": "rhf"
			},
			{
				"type": "unocc",
				"energy": 0.01098,
				"method": "rhf"
			},
			{
				"type": "unocc",
				"energy": 0.0756,
				"method": "rhf"
			},
			{
				"type": "unocc",
				"energy": 0.07938,
				"method": "rhf"
			}
		],
		"cosmo_sigma_profile": { 
			"-0.025": 0.0,
			"-0.024": 0.0,
			"-0.023": 0.0,
			"-0.022": 0.0,
			"-0.021": 0.0,
			"-0.02": 0.0,
			"-0.019": 0.0,
			"-0.018": 0.0,
			"-0.017": 0.0,
			"-0.016": 0.0,
			"-0.015": 0.0,
			"-0.014": 0.0,
			"-0.013": 0.0270276013317,
			"-0.012": 0.947000524184,
			"-0.011": 1.82334821591,
			"-0.01": 2.35060701199,
			"-0.009": 3.30930039908,
			"-0.008": 2.80559214692,
			"-0.007": 6.706681733,
			"-0.006": 17.3088177403,
			"-0.005": 18.2020534173,
			"-0.004": 18.3863122474,
			"-0.003": 14.3446936767,
			"-0.002": 12.1868848663,
			"-0.001": 11.6563911547,
			"0.0": 12.1887177272,
			"0.001": 17.2006444434,
			"0.002": 27.59486577,
			"0.003": 28.1395620799,
			"0.004": 15.0818525055,
			"0.005": 8.60783375251,
			"0.006": 3.08656447442,
			"0.007": 3.03043120809,
			"0.008": 3.37677701092,
			"0.009": 5.06870553556,
			"0.01": 4.68012459798,
			"0.011": 4.62486386761,
			"0.012": 2.06138776695,
			"0.013": 0.476138455678,
			"0.014": 0.0,
			"0.015": 0.0,
			"0.016": 0.0,
			"0.017": 0.0,
			"0.018": 0.0,
			"0.019": 0.0,
			"0.02": 0.0,
			"0.021": 0.0,
			"0.022": 0.0,
			"0.023": 0.0,
			"0.024": 0.0,
			"0.025": 0.0
		}
	}
}
