{
	 "smiles": "O=C1N(C2=CC=CC=C2C1=O)C1=CC=CC=C1", 
	 "Tm": 414.15, 
	 "num_atms": 26, 
	 "gaussian": { 
		 "optdone": 1, 
		 "sigma_profile": "yes", 
		 "theory": "DFT", 
		 "functional": "B3LYP", 
		 "basiset": "6-31G**", 
		 "properties": { 
			 "R2extent": 4834.8535, 
			 "electric_dipole_moment_norm": 5.7986322827, 
			 "electric_quadrupole_moment_norm": 23.7829375814, 
			 "total_energy": -744.112621823, 
			 "HOMO_LUMO_gap": 0.13023, 
			 "cosmo_polarized_energy": -13.53, 
			 "cosmo_cavitation_energy": 31.06, 
			 "cosmo_dispersion_energy": -22.31, 
			 "cosmo_repulsion_energy": 1.7, 
			 "cosmo_total_nonelectrostatic_energy": 10.45, 
			 "SMD_solvation_energy": 6.56 
		},
		"coords": [
			{
				"x": 3.7320585163,
				"y": -0.688720007,
				"z": -1.7888296105,
				"element": "O" 
			},
			{
				"x": 2.6349036984,
				"y": -0.1799609833,
				"z": -1.8094913002,
				"element": "C" 
			},
			{
				"x": 1.6435561403,
				"y": -0.2723894185,
				"z": -0.8228915094,
				"element": "N" 
			},
			{
				"x": 0.4844122571,
				"y": 0.4366559432,
				"z": -1.2217044665,
				"element": "C" 
			},
			{
				"x": -0.7377847272,
				"y": 0.5428049635,
				"z": -0.565245274,
				"element": "C" 
			},
			{
				"x": -1.7475818425,
				"y": 1.2900442979,
				"z": -1.1866756149,
				"element": "C" 
			},
			{
				"x": -1.558603448,
				"y": 1.9126297977,
				"z": -2.4264853906,
				"element": "C" 
			},
			{
				"x": -0.3333890548,
				"y": 1.7874786514,
				"z": -3.0838598417,
				"element": "C" 
			},
			{
				"x": 0.6781106419,
				"y": 1.0490545671,
				"z": -2.4760047505,
				"element": "C" 
			},
			{
				"x": 2.0305224384,
				"y": 0.7169417727,
				"z": -2.93752624,
				"element": "C" 
			},
			{
				"x": 2.616617161,
				"y": 1.0240654369,
				"z": -3.9530553918,
				"element": "O" 
			},
			{
				"x": 1.8222721206,
				"y": -0.9448438036,
				"z": 0.4218997369,
				"element": "C" 
			},
			{
				"x": 2.3229901005,
				"y": -2.2513850488,
				"z": 0.4380785586,
				"element": "C" 
			},
			{
				"x": 2.5169932708,
				"y": -2.8992962302,
				"z": 1.657311772,
				"element": "C" 
			},
			{
				"x": 2.2038024875,
				"y": -2.258913423,
				"z": 2.8578490463,
				"element": "C" 
			},
			{
				"x": 1.7077166914,
				"y": -0.9542116399,
				"z": 2.8369856989,
				"element": "C" 
			},
			{
				"x": 1.5262076297,
				"y": -0.2904233261,
				"z": 1.6239315831,
				"element": "C" 
			},
			{
				"x": -0.9116860801,
				"y": 0.0609094325,
				"z": 0.3893652516,
				"element": "H" 
			},
			{
				"x": -2.7073786595,
				"y": 1.3828348504,
				"z": -0.6863264413,
				"element": "H" 
			},
			{
				"x": -2.3652555546,
				"y": 2.4840294461,
				"z": -2.8737616315,
				"element": "H" 
			},
			{
				"x": -0.1548761621,
				"y": 2.245138927,
				"z": -4.0521609227,
				"element": "H" 
			},
			{
				"x": 2.5663717243,
				"y": -2.7442720608,
				"z": -0.4955179207,
				"element": "H" 
			},
			{
				"x": 2.9098212437,
				"y": -3.9115677047,
				"z": 1.6661355609,
				"element": "H" 
			},
			{
				"x": 2.3507234532,
				"y": -2.7711544706,
				"z": 3.8038641576,
				"element": "H" 
			},
			{
				"x": 1.4735115326,
				"y": -0.443649605,
				"z": 3.7664069325,
				"element": "H" 
			},
			{
				"x": 1.1707644213,
				"y": 0.7346996349,
				"z": 1.6068080081,
				"element": "H" 
			}
		],
		 "valence_orbital": [ 
			{
				"type": "occ",
				"energy": -0.27718,
				"method": "rhf"
			},
			{
				"type": "occ",
				"energy": -0.27232,
				"method": "rhf"
			},
			{
				"type": "occ",
				"energy": -0.26428,
				"method": "rhf"
			},
			{
				"type": "occ",
				"energy": -0.24559,
				"method": "rhf"
			},
			{
				"type": "occ",
				"energy": -0.22763,
				"method": "rhf"
			},
			{
				"type": "unocc",
				"energy": -0.0974,
				"method": "rhf"
			},
			{
				"type": "unocc",
				"energy": -0.0259,
				"method": "rhf"
			},
			{
				"type": "unocc",
				"energy": -0.01808,
				"method": "rhf"
			},
			{
				"type": "unocc",
				"energy": -0.01465,
				"method": "rhf"
			},
			{
				"type": "unocc",
				"energy": 0.01183,
				"method": "rhf"
			}
		],
		"cosmo_sigma_profile": { 
			"-0.025": 0.0,
			"-0.024": 0.0,
			"-0.023": 0.0,
			"-0.022": 0.0,
			"-0.021": 0.0,
			"-0.02": 0.0,
			"-0.019": 0.0,
			"-0.018": 0.0,
			"-0.017": 0.0,
			"-0.016": 0.0,
			"-0.015": 0.0,
			"-0.014": 0.0,
			"-0.013": 0.0,
			"-0.012": 0.0,
			"-0.011": 0.0,
			"-0.01": 0.0,
			"-0.009": 0.0,
			"-0.008": 1.67236173508,
			"-0.007": 9.79830261528,
			"-0.006": 21.4583596582,
			"-0.005": 23.857016864,
			"-0.004": 21.6963919806,
			"-0.003": 15.6260642123,
			"-0.002": 16.5268243859,
			"-0.001": 17.2579425809,
			"0.0": 15.6765466426,
			"0.001": 17.4530890161,
			"0.002": 18.6059598269,
			"0.003": 16.7683997356,
			"0.004": 12.6426059529,
			"0.005": 7.33245813836,
			"0.006": 3.89231862671,
			"0.007": 2.68572691016,
			"0.008": 4.14677918781,
			"0.009": 5.1492325825,
			"0.01": 8.46240826612,
			"0.011": 7.86778751006,
			"0.012": 2.36901191917,
			"0.013": 0.0399300956299,
			"0.014": 0.0,
			"0.015": 0.0,
			"0.016": 0.0,
			"0.017": 0.0,
			"0.018": 0.0,
			"0.019": 0.0,
			"0.02": 0.0,
			"0.021": 0.0,
			"0.022": 0.0,
			"0.023": 0.0,
			"0.024": 0.0,
			"0.025": 0.0
		}
	}
}
