{
	 "smiles": "CC1=C(O)C(CO)=C(CO)C=N1", 
	 "Tm": 433.15, 
	 "num_atms": 23, 
	 "gaussian": { 
		 "optdone": 1, 
		 "sigma_profile": "yes", 
		 "theory": "DFT", 
		 "functional": "B3LYP", 
		 "basiset": "6-31G**", 
		 "properties": { 
			 "R2extent": 2430.1962, 
			 "electric_dipole_moment_norm": 3.47131355109, 
			 "electric_quadrupole_moment_norm": 6.63582144802, 
			 "total_energy": -591.887454001, 
			 "HOMO_LUMO_gap": 0.19691, 
			 "cosmo_polarized_energy": -15.57, 
			 "cosmo_cavitation_energy": 25.78, 
			 "cosmo_dispersion_energy": -19.3, 
			 "cosmo_repulsion_energy": 1.56, 
			 "cosmo_total_nonelectrostatic_energy": 8.03, 
			 "SMD_solvation_energy": 3.49 
		},
		"coords": [
			{
				"x": 2.3437421008,
				"y": 2.8155920763,
				"z": -1.1734778901,
				"element": "C" 
			},
			{
				"x": 2.0299114626,
				"y": 1.4040586472,
				"z": -0.7575371298,
				"element": "C" 
			},
			{
				"x": 0.6977546891,
				"y": 0.9326704071,
				"z": -0.8173069852,
				"element": "C" 
			},
			{
				"x": -0.2473094906,
				"y": 1.8057153384,
				"z": -1.2531363561,
				"element": "O" 
			},
			{
				"x": 0.4036165203,
				"y": -0.3803899063,
				"z": -0.4210903105,
				"element": "C" 
			},
			{
				"x": -1.0246381559,
				"y": -0.8776235633,
				"z": -0.3906634674,
				"element": "C" 
			},
			{
				"x": -1.7404013976,
				"y": -0.3476007665,
				"z": -1.5246634034,
				"element": "O" 
			},
			{
				"x": 1.4741819987,
				"y": -1.1870834509,
				"z": 0.0165323488,
				"element": "C" 
			},
			{
				"x": 1.2678930595,
				"y": -2.6101820688,
				"z": 0.4795585051,
				"element": "C" 
			},
			{
				"x": 0.3429391634,
				"y": -2.7227783795,
				"z": 1.5641396739,
				"element": "O" 
			},
			{
				"x": 2.7502217035,
				"y": -0.6259415971,
				"z": 0.0415049306,
				"element": "C" 
			},
			{
				"x": 3.0293968435,
				"y": 0.6298943391,
				"z": -0.3309220783,
				"element": "N" 
			},
			{
				"x": 2.0333325343,
				"y": 2.998183285,
				"z": -2.2081551425,
				"element": "H" 
			},
			{
				"x": 1.8030207061,
				"y": 3.5409805825,
				"z": -0.5550609961,
				"element": "H" 
			},
			{
				"x": 3.4165783439,
				"y": 2.9890675564,
				"z": -1.0782512013,
				"element": "H" 
			},
			{
				"x": -1.043774411,
				"y": 1.279936112,
				"z": -1.4716267922,
				"element": "H" 
			},
			{
				"x": -1.059845526,
				"y": -1.9704521633,
				"z": -0.4018373701,
				"element": "H" 
			},
			{
				"x": -1.5051201401,
				"y": -0.5517561933,
				"z": 0.5440301362,
				"element": "H" 
			},
			{
				"x": -2.6810032507,
				"y": -0.5240832133,
				"z": -1.3976307046,
				"element": "H" 
			},
			{
				"x": 0.8418439319,
				"y": -3.2261262387,
				"z": -0.320879129,
				"element": "H" 
			},
			{
				"x": 2.2407504102,
				"y": -3.0519927358,
				"z": 0.7389462776,
				"element": "H" 
			},
			{
				"x": 0.6809681534,
				"y": -2.1734723181,
				"z": 2.2843201962,
				"element": "H" 
			},
			{
				"x": 3.5958407506,
				"y": -1.224515749,
				"z": 0.3789068882,
				"element": "H" 
			}
		],
		 "valence_orbital": [ 
			{
				"type": "occ",
				"energy": -0.30503,
				"method": "rhf"
			},
			{
				"type": "occ",
				"energy": -0.28742,
				"method": "rhf"
			},
			{
				"type": "occ",
				"energy": -0.25868,
				"method": "rhf"
			},
			{
				"type": "occ",
				"energy": -0.2421,
				"method": "rhf"
			},
			{
				"type": "occ",
				"energy": -0.21841,
				"method": "rhf"
			},
			{
				"type": "unocc",
				"energy": -0.0215,
				"method": "rhf"
			},
			{
				"type": "unocc",
				"energy": 0.00496,
				"method": "rhf"
			},
			{
				"type": "unocc",
				"energy": 0.05206,
				"method": "rhf"
			},
			{
				"type": "unocc",
				"energy": 0.07786,
				"method": "rhf"
			},
			{
				"type": "unocc",
				"energy": 0.11281,
				"method": "rhf"
			}
		],
		"cosmo_sigma_profile": { 
			"-0.025": 0.0,
			"-0.024": 0.0,
			"-0.023": 0.0,
			"-0.022": 0.0,
			"-0.021": 0.0,
			"-0.02": 0.0,
			"-0.019": 0.0,
			"-0.018": 0.205830835536,
			"-0.017": 0.98383186841,
			"-0.016": 1.50204368817,
			"-0.015": 1.96288211439,
			"-0.014": 1.49330440692,
			"-0.013": 2.26627299454,
			"-0.012": 1.39331267648,
			"-0.011": 2.15555410436,
			"-0.01": 1.40594062715,
			"-0.009": 2.17779297169,
			"-0.008": 2.10554050213,
			"-0.007": 3.25571404238,
			"-0.006": 9.30284338873,
			"-0.005": 15.5529363065,
			"-0.004": 13.1592534741,
			"-0.003": 14.4414579843,
			"-0.002": 11.9443624543,
			"-0.001": 12.5254247313,
			"0.0": 14.6331158993,
			"0.001": 12.9467438517,
			"0.002": 12.822043935,
			"0.003": 12.0757180152,
			"0.004": 8.1583515005,
			"0.005": 6.11816131642,
			"0.006": 5.27186965727,
			"0.007": 5.06819657126,
			"0.008": 4.35584264936,
			"0.009": 5.48656615904,
			"0.01": 4.23046781969,
			"0.011": 4.31224355628,
			"0.012": 3.23961405846,
			"0.013": 1.95403709093,
			"0.014": 2.00502475599,
			"0.015": 1.02552943547,
			"0.016": 0.834904924487,
			"0.017": 0.158169091297,
			"0.018": 0.0,
			"0.019": 0.0,
			"0.02": 0.0,
			"0.021": 0.0,
			"0.022": 0.0,
			"0.023": 0.0,
			"0.024": 0.0,
			"0.025": 0.0
		}
	}
}
