{
	 "smiles": "CC1=CC(OCCC(O)=O)=CC(C)=C1", 
	 "Tm": 362.15, 
	 "num_atms": 28, 
	 "gaussian": { 
		 "optdone": 1, 
		 "sigma_profile": "yes", 
		 "theory": "DFT", 
		 "functional": "B3LYP", 
		 "basiset": "6-31G**", 
		 "properties": { 
			 "R2extent": 4448.1217, 
			 "electric_dipole_moment_norm": 3.61110065908, 
			 "electric_quadrupole_moment_norm": 20.6305982768, 
			 "total_energy": -653.292116832, 
			 "HOMO_LUMO_gap": 0.21443, 
			 "cosmo_polarized_energy": -16.27, 
			 "cosmo_cavitation_energy": 31.81, 
			 "cosmo_dispersion_energy": -22.66, 
			 "cosmo_repulsion_energy": 1.83, 
			 "cosmo_total_nonelectrostatic_energy": 10.98, 
			 "SMD_solvation_energy": 6.85 
		},
		"coords": [
			{
				"x": -2.5819958659,
				"y": 2.9263165864,
				"z": -0.8843271459,
				"element": "C" 
			},
			{
				"x": -1.5824944386,
				"y": 1.8650723881,
				"z": -0.4864616934,
				"element": "C" 
			},
			{
				"x": -0.3912803601,
				"y": 1.7086053456,
				"z": -1.188654529,
				"element": "C" 
			},
			{
				"x": 0.5410257532,
				"y": 0.7316066377,
				"z": -0.8058813827,
				"element": "C" 
			},
			{
				"x": 1.6795986262,
				"y": 0.6905564993,
				"z": -1.5699023625,
				"element": "O" 
			},
			{
				"x": 2.6558691944,
				"y": -0.3165498719,
				"z": -1.3314650472,
				"element": "C" 
			},
			{
				"x": 2.2498762669,
				"y": -1.6519119582,
				"z": -1.9619760266,
				"element": "C" 
			},
			{
				"x": 3.3067439727,
				"y": -2.7233441298,
				"z": -1.7453313956,
				"element": "C" 
			},
			{
				"x": 3.054339055,
				"y": -3.9250780176,
				"z": -2.3290330845,
				"element": "O" 
			},
			{
				"x": 4.3141830574,
				"y": -2.5619702277,
				"z": -1.1021726887,
				"element": "O" 
			},
			{
				"x": 0.2762085566,
				"y": -0.0978440532,
				"z": 0.2852253646,
				"element": "C" 
			},
			{
				"x": -0.9235467815,
				"y": 0.0501666194,
				"z": 1.0036156326,
				"element": "C" 
			},
			{
				"x": -1.1980047248,
				"y": -0.8433125089,
				"z": 2.1917298909,
				"element": "C" 
			},
			{
				"x": -1.8392593984,
				"y": 1.0244007013,
				"z": 0.6107721133,
				"element": "C" 
			},
			{
				"x": -2.3066498735,
				"y": 3.4030670933,
				"z": -1.8288743954,
				"element": "H" 
			},
			{
				"x": -3.5865623662,
				"y": 2.5041714505,
				"z": -0.9985681357,
				"element": "H" 
			},
			{
				"x": -2.6492445305,
				"y": 3.711764277,
				"z": -0.1220235331,
				"element": "H" 
			},
			{
				"x": -0.1551080143,
				"y": 2.3372765471,
				"z": -2.0417384109,
				"element": "H" 
			},
			{
				"x": 2.8622168016,
				"y": -0.4364129002,
				"z": -0.2633966864,
				"element": "H" 
			},
			{
				"x": 3.5726784286,
				"y": 0.049448987,
				"z": -1.7978385916,
				"element": "H" 
			},
			{
				"x": 1.2969867253,
				"y": -1.9989240815,
				"z": -1.5424353859,
				"element": "H" 
			},
			{
				"x": 2.0827974898,
				"y": -1.5118198879,
				"z": -3.0377201264,
				"element": "H" 
			},
			{
				"x": 2.2141236145,
				"y": -3.8962166399,
				"z": -2.8086773168,
				"element": "H" 
			},
			{
				"x": 0.9850446231,
				"y": -0.8558033269,
				"z": 0.6008226538,
				"element": "H" 
			},
			{
				"x": -2.1952893628,
				"y": -0.6650821302,
				"z": 2.6025666566,
				"element": "H" 
			},
			{
				"x": -1.1310486244,
				"y": -1.9032582212,
				"z": 1.9207042693,
				"element": "H" 
			},
			{
				"x": -0.4711086172,
				"y": -0.6717639425,
				"z": 2.9945158589,
				"element": "H" 
			},
			{
				"x": -2.7693992072,
				"y": 1.1364387647,
				"z": 1.1630254984,
				"element": "H" 
			}
		],
		 "valence_orbital": [ 
			{
				"type": "occ",
				"energy": -0.32005,
				"method": "rhf"
			},
			{
				"type": "occ",
				"energy": -0.30735,
				"method": "rhf"
			},
			{
				"type": "occ",
				"energy": -0.27918,
				"method": "rhf"
			},
			{
				"type": "occ",
				"energy": -0.23662,
				"method": "rhf"
			},
			{
				"type": "occ",
				"energy": -0.21648,
				"method": "rhf"
			},
			{
				"type": "unocc",
				"energy": -0.00205,
				"method": "rhf"
			},
			{
				"type": "unocc",
				"energy": 0.00531,
				"method": "rhf"
			},
			{
				"type": "unocc",
				"energy": 0.01367,
				"method": "rhf"
			},
			{
				"type": "unocc",
				"energy": 0.04907,
				"method": "rhf"
			},
			{
				"type": "unocc",
				"energy": 0.08669,
				"method": "rhf"
			}
		],
		"cosmo_sigma_profile": { 
			"-0.025": 0.0,
			"-0.024": 0.0,
			"-0.023": 0.0,
			"-0.022": 0.0,
			"-0.021": 0.0,
			"-0.02": 0.0799722181556,
			"-0.019": 0.86587920121,
			"-0.018": 1.14684976721,
			"-0.017": 0.759706789053,
			"-0.016": 1.64061979184,
			"-0.015": 0.696389586336,
			"-0.014": 0.63769051787,
			"-0.013": 1.41983136792,
			"-0.012": 1.21790706081,
			"-0.011": 1.68419535023,
			"-0.01": 1.07356327691,
			"-0.009": 1.726323001,
			"-0.008": 3.09715082879,
			"-0.007": 6.68592074707,
			"-0.006": 7.8653843624,
			"-0.005": 10.2114115806,
			"-0.004": 20.5342105187,
			"-0.003": 21.3512135337,
			"-0.002": 22.5509723059,
			"-0.001": 19.6751077542,
			"0.0": 23.9592761587,
			"0.001": 14.7183655064,
			"0.002": 9.88198144431,
			"0.003": 9.40939287827,
			"0.004": 11.0369262165,
			"0.005": 11.9361271264,
			"0.006": 11.3836714118,
			"0.007": 6.68409843764,
			"0.008": 3.79631130636,
			"0.009": 4.70414392886,
			"0.01": 6.23403716563,
			"0.011": 5.91484908835,
			"0.012": 4.63066878893,
			"0.013": 1.20823820699,
			"0.014": 0.0,
			"0.015": 0.0,
			"0.016": 0.0,
			"0.017": 0.0,
			"0.018": 0.0,
			"0.019": 0.0,
			"0.02": 0.0,
			"0.021": 0.0,
			"0.022": 0.0,
			"0.023": 0.0,
			"0.024": 0.0,
			"0.025": 0.0
		}
	}
}
