{
	 "smiles": "CC(C)NCCC1=NC(=CN1)C1=CC=C(C=C1)S(C)(=O)=O", 
	 "Tm": 538.15, 
	 "num_atms": 42, 
	 "gaussian": { 
		 "optdone": 1, 
		 "sigma_profile": "yes", 
		 "theory": "DFT", 
		 "functional": "B3LYP", 
		 "basiset": "6-31G**", 
		 "properties": { 
			 "R2extent": 14098.6708, 
			 "electric_dipole_moment_norm": 8.04255531221, 
			 "electric_quadrupole_moment_norm": 40.9990913183, 
			 "total_energy": -1297.09609903, 
			 "HOMO_LUMO_gap": 0.17321, 
			 "cosmo_polarized_energy": -26.19, 
			 "cosmo_cavitation_energy": 46.68, 
			 "cosmo_dispersion_energy": -33.3, 
			 "cosmo_repulsion_energy": 2.54, 
			 "cosmo_total_nonelectrostatic_energy": 15.92, 
			 "SMD_solvation_energy": 4.54 
		},
		"coords": [
			{
				"x": -0.5189516476,
				"y": 5.1143795897,
				"z": -0.2698422624,
				"element": "C" 
			},
			{
				"x": 0.9654947982,
				"y": 4.9517902174,
				"z": -0.6429447182,
				"element": "C" 
			},
			{
				"x": 1.6684756229,
				"y": 6.3109768143,
				"z": -0.7232643979,
				"element": "C" 
			},
			{
				"x": 1.1890376704,
				"y": 4.2287576221,
				"z": -1.9061548849,
				"element": "N" 
			},
			{
				"x": 0.9014074338,
				"y": 2.7953177787,
				"z": -1.8939734552,
				"element": "C" 
			},
			{
				"x": 2.1181463568,
				"y": 1.9885778431,
				"z": -1.3904030755,
				"element": "C" 
			},
			{
				"x": 1.8557328045,
				"y": 0.5150528191,
				"z": -1.3586235784,
				"element": "C" 
			},
			{
				"x": 0.9825653782,
				"y": -0.1020263878,
				"z": -0.5910370981,
				"element": "N" 
			},
			{
				"x": 1.0523068983,
				"y": -1.4456693431,
				"z": -0.9164787132,
				"element": "C" 
			},
			{
				"x": 1.9950303915,
				"y": -1.6348592188,
				"z": -1.9075420657,
				"element": "C" 
			},
			{
				"x": 2.493901168,
				"y": -0.3815650435,
				"z": -2.179235242,
				"element": "N" 
			},
			{
				"x": 0.2052994758,
				"y": -2.4372792899,
				"z": -0.2462750641,
				"element": "C" 
			},
			{
				"x": -0.7151488305,
				"y": -2.0168279024,
				"z": 0.7307404318,
				"element": "C" 
			},
			{
				"x": -1.5328629555,
				"y": -2.9349350819,
				"z": 1.3813868041,
				"element": "C" 
			},
			{
				"x": -1.4312247281,
				"y": -4.2910080369,
				"z": 1.0610587388,
				"element": "C" 
			},
			{
				"x": -0.5329070813,
				"y": -4.7330990362,
				"z": 0.0864310356,
				"element": "C" 
			},
			{
				"x": 0.2788678045,
				"y": -3.8070446151,
				"z": -0.5594869421,
				"element": "C" 
			},
			{
				"x": -2.4704694308,
				"y": -5.4836966343,
				"z": 1.9077290196,
				"element": "S" 
			},
			{
				"x": -1.502917883,
				"y": -5.9347422859,
				"z": 3.3699066593,
				"element": "C" 
			},
			{
				"x": -3.6772310057,
				"y": -4.787488256,
				"z": 2.3826394675,
				"element": "O" 
			},
			{
				"x": -2.5692616919,
				"y": -6.6855508684,
				"z": 1.0629693117,
				"element": "O" 
			},
			{
				"x": -1.0354445074,
				"y": 5.7340488383,
				"z": -1.0137876367,
				"element": "H" 
			},
			{
				"x": -0.6316809017,
				"y": 5.6023353479,
				"z": 0.7044887024,
				"element": "H" 
			},
			{
				"x": -1.0337894134,
				"y": 4.150074225,
				"z": -0.2175030973,
				"element": "H" 
			},
			{
				"x": 1.4541169879,
				"y": 4.3638346323,
				"z": 0.1455748031,
				"element": "H" 
			},
			{
				"x": 1.2265010183,
				"y": 6.9277158393,
				"z": -1.5160125135,
				"element": "H" 
			},
			{
				"x": 1.5722944318,
				"y": 6.8634925924,
				"z": 0.2170835034,
				"element": "H" 
			},
			{
				"x": 2.7298565722,
				"y": 6.1819007804,
				"z": -0.9511213918,
				"element": "H" 
			},
			{
				"x": 0.651102173,
				"y": 4.6802591542,
				"z": -2.6413410727,
				"element": "H" 
			},
			{
				"x": 0.0274483176,
				"y": 2.5152008491,
				"z": -1.2855158112,
				"element": "H" 
			},
			{
				"x": 0.6775451512,
				"y": 2.4834736837,
				"z": -2.9203839515,
				"element": "H" 
			},
			{
				"x": 2.3788796899,
				"y": 2.3207681278,
				"z": -0.3795151117,
				"element": "H" 
			},
			{
				"x": 2.9798847625,
				"y": 2.2118858683,
				"z": -2.0288283156,
				"element": "H" 
			},
			{
				"x": 2.3473617452,
				"y": -2.5124758771,
				"z": -2.4261419306,
				"element": "H" 
			},
			{
				"x": 3.2094803355,
				"y": -0.1618650019,
				"z": -2.8558210242,
				"element": "H" 
			},
			{
				"x": -0.7778000598,
				"y": -0.9590093582,
				"z": 0.9595533319,
				"element": "H" 
			},
			{
				"x": -2.2606034954,
				"y": -2.6087188826,
				"z": 2.1172297073,
				"element": "H" 
			},
			{
				"x": -0.492836215,
				"y": -5.7865944094,
				"z": -0.1696025528,
				"element": "H" 
			},
			{
				"x": 0.972093907,
				"y": -4.1540750301,
				"z": -1.3199348743,
				"element": "H" 
			},
			{
				"x": -2.1014816645,
				"y": -6.66348328,
				"z": 3.9205046235,
				"element": "H" 
			},
			{
				"x": -1.334042513,
				"y": -5.0445971543,
				"z": 3.9773610116,
				"element": "H" 
			},
			{
				"x": -0.5588768704,
				"y": -6.379731629,
				"z": 3.0526136304,
				"element": "H" 
			}
		],
		 "valence_orbital": [ 
			{
				"type": "occ",
				"energy": -0.27583,
				"method": "rhf"
			},
			{
				"type": "occ",
				"energy": -0.2677,
				"method": "rhf"
			},
			{
				"type": "occ",
				"energy": -0.26023,
				"method": "rhf"
			},
			{
				"type": "occ",
				"energy": -0.22487,
				"method": "rhf"
			},
			{
				"type": "occ",
				"energy": -0.21485,
				"method": "rhf"
			},
			{
				"type": "unocc",
				"energy": -0.04164,
				"method": "rhf"
			},
			{
				"type": "unocc",
				"energy": -0.01142,
				"method": "rhf"
			},
			{
				"type": "unocc",
				"energy": 0.02276,
				"method": "rhf"
			},
			{
				"type": "unocc",
				"energy": 0.05752,
				"method": "rhf"
			},
			{
				"type": "unocc",
				"energy": 0.06091,
				"method": "rhf"
			}
		],
		"cosmo_sigma_profile": { 
			"-0.025": 0.0,
			"-0.024": 0.0,
			"-0.023": 0.0,
			"-0.022": 0.0,
			"-0.021": 0.0,
			"-0.02": 0.0,
			"-0.019": 0.0,
			"-0.018": 0.0,
			"-0.017": 0.0964242554005,
			"-0.016": 1.61824208381,
			"-0.015": 1.43238823647,
			"-0.014": 1.76616288532,
			"-0.013": 0.763950838511,
			"-0.012": 1.39659141665,
			"-0.011": 1.53171530472,
			"-0.01": 1.50813596999,
			"-0.009": 5.89213559069,
			"-0.008": 12.0583274387,
			"-0.007": 12.3236443777,
			"-0.006": 15.4257494391,
			"-0.005": 17.8101326085,
			"-0.004": 24.676206087,
			"-0.003": 27.3399052465,
			"-0.002": 29.9140613989,
			"-0.001": 27.5430351753,
			"0.0": 27.3783239737,
			"0.001": 27.3224804733,
			"0.002": 25.3211010062,
			"0.003": 26.7102213062,
			"0.004": 14.5151876676,
			"0.005": 7.28680654326,
			"0.006": 4.7323079239,
			"0.007": 6.39772823068,
			"0.008": 5.98585903102,
			"0.009": 5.0361220413,
			"0.01": 6.44978263334,
			"0.011": 9.90270792871,
			"0.012": 11.9842231053,
			"0.013": 3.37653422768,
			"0.014": 1.08249541684,
			"0.015": 0.648244144335,
			"0.016": 0.479839774918,
			"0.017": 0.169875278492,
			"0.018": 0.0,
			"0.019": 0.0,
			"0.02": 0.0,
			"0.021": 0.0,
			"0.022": 0.0,
			"0.023": 0.0,
			"0.024": 0.0,
			"0.025": 0.0
		}
	}
}
