{
	 "smiles": "OC1CCC2CC1CC2C(O)=O", 
	 "Tm": 437.15, 
	 "num_atms": 26, 
	 "gaussian": { 
		 "optdone": 1, 
		 "sigma_profile": "yes", 
		 "theory": "DFT", 
		 "functional": "B3LYP", 
		 "basiset": "6-31G**", 
		 "properties": { 
			 "R2extent": 2104.6307, 
			 "electric_dipole_moment_norm": 4.19335236058, 
			 "electric_quadrupole_moment_norm": 14.9349742966, 
			 "total_energy": -577.07778799, 
			 "HOMO_LUMO_gap": 0.26995, 
			 "cosmo_polarized_energy": -16.57, 
			 "cosmo_cavitation_energy": 25.63, 
			 "cosmo_dispersion_energy": -19.32, 
			 "cosmo_repulsion_energy": 1.52, 
			 "cosmo_total_nonelectrostatic_energy": 7.82, 
			 "SMD_solvation_energy": 4.42 
		},
		"coords": [
			{
				"x": -1.0509515379,
				"y": 1.1400730573,
				"z": -2.6405508723,
				"element": "O" 
			},
			{
				"x": 0.198750119,
				"y": 0.7684520183,
				"z": -2.0529180034,
				"element": "C" 
			},
			{
				"x": -0.0145152876,
				"y": -0.576523726,
				"z": -1.345005572,
				"element": "C" 
			},
			{
				"x": -0.704674345,
				"y": -0.4432585157,
				"z": 0.0282066416,
				"element": "C" 
			},
			{
				"x": -0.1530995354,
				"y": 0.7421549483,
				"z": 0.8498110041,
				"element": "C" 
			},
			{
				"x": -0.3488507589,
				"y": 2.0404808635,
				"z": 0.04587448,
				"element": "C" 
			},
			{
				"x": 0.6980382756,
				"y": 1.8518869848,
				"z": -1.0683788556,
				"element": "C" 
			},
			{
				"x": 1.9541649881,
				"y": 1.3814038646,
				"z": -0.2912239582,
				"element": "C" 
			},
			{
				"x": 1.4070431402,
				"y": 0.7264608739,
				"z": 1.0097813712,
				"element": "C" 
			},
			{
				"x": 1.9954036628,
				"y": -0.6432459334,
				"z": 1.3244274934,
				"element": "C" 
			},
			{
				"x": 1.5713830312,
				"y": -1.190670977,
				"z": 2.4984886733,
				"element": "O" 
			},
			{
				"x": 2.7770684968,
				"y": -1.2510774312,
				"z": 0.6342713801,
				"element": "O" 
			},
			{
				"x": -0.9326993191,
				"y": 1.9953568337,
				"z": -3.0748155683,
				"element": "H" 
			},
			{
				"x": 0.9550377352,
				"y": 0.6324081932,
				"z": -2.843373816,
				"element": "H" 
			},
			{
				"x": -0.6016361322,
				"y": -1.2233853407,
				"z": -2.0045016532,
				"element": "H" 
			},
			{
				"x": 0.9597225258,
				"y": -1.0572199819,
				"z": -1.2174137892,
				"element": "H" 
			},
			{
				"x": -0.5939941284,
				"y": -1.3817790839,
				"z": 0.5844052926,
				"element": "H" 
			},
			{
				"x": -1.7804924712,
				"y": -0.2837302647,
				"z": -0.1076526118,
				"element": "H" 
			},
			{
				"x": -0.6563412464,
				"y": 0.7784602312,
				"z": 1.8248736943,
				"element": "H" 
			},
			{
				"x": -0.1158103569,
				"y": 2.9220300565,
				"z": 0.6555917783,
				"element": "H" 
			},
			{
				"x": -1.3637387903,
				"y": 2.1473191772,
				"z": -0.3457649439,
				"element": "H" 
			},
			{
				"x": 0.891538319,
				"y": 2.7778039393,
				"z": -1.6252927086,
				"element": "H" 
			},
			{
				"x": 2.5654766476,
				"y": 0.6705572705,
				"z": -0.853579382,
				"element": "H" 
			},
			{
				"x": 2.5959679974,
				"y": 2.2321760952,
				"z": -0.044367915,
				"element": "H" 
			},
			{
				"x": 1.6516817686,
				"y": 1.3680985926,
				"z": 1.8679249363,
				"element": "H" 
			},
			{
				"x": 0.9457272021,
				"y": -0.5935317455,
				"z": 2.9331829047,
				"element": "H" 
			}
		],
		 "valence_orbital": [ 
			{
				"type": "occ",
				"energy": -0.31486,
				"method": "rhf"
			},
			{
				"type": "occ",
				"energy": -0.30963,
				"method": "rhf"
			},
			{
				"type": "occ",
				"energy": -0.29835,
				"method": "rhf"
			},
			{
				"type": "occ",
				"energy": -0.26959,
				"method": "rhf"
			},
			{
				"type": "occ",
				"energy": -0.26168,
				"method": "rhf"
			},
			{
				"type": "unocc",
				"energy": 0.00827,
				"method": "rhf"
			},
			{
				"type": "unocc",
				"energy": 0.04308,
				"method": "rhf"
			},
			{
				"type": "unocc",
				"energy": 0.07205,
				"method": "rhf"
			},
			{
				"type": "unocc",
				"energy": 0.08913,
				"method": "rhf"
			},
			{
				"type": "unocc",
				"energy": 0.11551,
				"method": "rhf"
			}
		],
		"cosmo_sigma_profile": { 
			"-0.025": 0.0,
			"-0.024": 0.0,
			"-0.023": 0.0,
			"-0.022": 0.0,
			"-0.021": 0.0,
			"-0.02": 0.0,
			"-0.019": 0.0,
			"-0.018": 0.216438221518,
			"-0.017": 0.909122605755,
			"-0.016": 1.2461932739,
			"-0.015": 1.83159597536,
			"-0.014": 1.65353258923,
			"-0.013": 2.2919136729,
			"-0.012": 2.08108896893,
			"-0.011": 2.13154974043,
			"-0.01": 1.8890080964,
			"-0.009": 1.95973499553,
			"-0.008": 2.16108488455,
			"-0.007": 3.56601204503,
			"-0.006": 4.50900403039,
			"-0.005": 5.2016134858,
			"-0.004": 7.33363547552,
			"-0.003": 18.982000028,
			"-0.002": 24.1419405665,
			"-0.001": 24.2689536442,
			"0.0": 21.5231946468,
			"0.001": 14.1001749514,
			"0.002": 5.14137850636,
			"0.003": 4.43953832275,
			"0.004": 3.61553993381,
			"0.005": 3.20246971627,
			"0.006": 4.20002009573,
			"0.007": 3.71666070811,
			"0.008": 3.34149296113,
			"0.009": 4.17424789516,
			"0.01": 5.61151999011,
			"0.011": 6.75918753977,
			"0.012": 5.9758891938,
			"0.013": 2.99892991054,
			"0.014": 1.98964357477,
			"0.015": 0.320305502497,
			"0.016": 0.0,
			"0.017": 0.0,
			"0.018": 0.0,
			"0.019": 0.0,
			"0.02": 0.0,
			"0.021": 0.0,
			"0.022": 0.0,
			"0.023": 0.0,
			"0.024": 0.0,
			"0.025": 0.0
		}
	}
}
