{
	 "smiles": "OC(=O)C1=C(S)C=C(Br)C=C1", 
	 "Tm": 477.15, 
	 "num_atms": 16, 
	 "gaussian": { 
		 "optdone": 1, 
		 "sigma_profile": "yes", 
		 "theory": "DFT", 
		 "functional": "B3LYP", 
		 "basiset": "6-31G**", 
		 "properties": { 
			 "R2extent": 6319.8182, 
			 "electric_dipole_moment_norm": 3.33242840133, 
			 "electric_quadrupole_moment_norm": 11.4220821478, 
			 "total_energy": -3389.7994443, 
			 "HOMO_LUMO_gap": 0.19468, 
			 "cosmo_polarized_energy": -11.78, 
			 "cosmo_cavitation_energy": 24.5, 
			 "cosmo_dispersion_energy": -19.18, 
			 "cosmo_repulsion_energy": 1.49, 
			 "cosmo_total_nonelectrostatic_energy": 6.81, 
			 "SMD_solvation_energy": 3.94 
		},
		"coords": [
			{
				"x": 0.4198608458,
				"y": 2.4462173078,
				"z": 2.3075752575,
				"element": "O" 
			},
			{
				"x": -0.188694311,
				"y": 1.4481775726,
				"z": 1.6481964862,
				"element": "C" 
			},
			{
				"x": -1.1736682199,
				"y": 1.6704492958,
				"z": 0.9789266024,
				"element": "O" 
			},
			{
				"x": 0.3532870654,
				"y": 0.0353692401,
				"z": 1.7821313872,
				"element": "C" 
			},
			{
				"x": 1.6150223443,
				"y": -0.3714324528,
				"z": 2.2675393251,
				"element": "C" 
			},
			{
				"x": 2.8861619624,
				"y": 0.7667076558,
				"z": 2.883022829,
				"element": "S" 
			},
			{
				"x": 1.9424022764,
				"y": -1.7300429172,
				"z": 2.3389046069,
				"element": "C" 
			},
			{
				"x": 1.0229700342,
				"y": -2.6900164442,
				"z": 1.9226800031,
				"element": "C" 
			},
			{
				"x": 1.4857113167,
				"y": -4.5339171024,
				"z": 2.0345469682,
				"element": "Br" 
			},
			{
				"x": -0.2209298715,
				"y": -2.3149319009,
				"z": 1.4202636472,
				"element": "C" 
			},
			{
				"x": -0.5349708408,
				"y": -0.9629837519,
				"z": 1.3504356562,
				"element": "C" 
			},
			{
				"x": 1.1993675932,
				"y": 2.1205452984,
				"z": 2.8025392133,
				"element": "H" 
			},
			{
				"x": 3.3121282661,
				"y": 1.2284001247,
				"z": 1.6874459722,
				"element": "H" 
			},
			{
				"x": 2.9136468099,
				"y": -2.0297839023,
				"z": 2.7128383256,
				"element": "H" 
			},
			{
				"x": -0.9298768754,
				"y": -3.0654538513,
				"z": 1.0905834442,
				"element": "H" 
			},
			{
				"x": -1.491718396,
				"y": -0.639204172,
				"z": 0.9566702757,
				"element": "H" 
			}
		],
		 "valence_orbital": [ 
			{
				"type": "occ",
				"energy": -0.30667,
				"method": "rhf"
			},
			{
				"type": "occ",
				"energy": -0.2966,
				"method": "rhf"
			},
			{
				"type": "occ",
				"energy": -0.2841,
				"method": "rhf"
			},
			{
				"type": "occ",
				"energy": -0.27723,
				"method": "rhf"
			},
			{
				"type": "occ",
				"energy": -0.26569,
				"method": "rhf"
			},
			{
				"type": "unocc",
				"energy": -0.07101,
				"method": "rhf"
			},
			{
				"type": "unocc",
				"energy": -0.04402,
				"method": "rhf"
			},
			{
				"type": "unocc",
				"energy": -0.01966,
				"method": "rhf"
			},
			{
				"type": "unocc",
				"energy": 0.0071,
				"method": "rhf"
			},
			{
				"type": "unocc",
				"energy": 0.03481,
				"method": "rhf"
			}
		],
		"cosmo_sigma_profile": { 
			"-0.025": 0.0,
			"-0.024": 0.0,
			"-0.023": 0.0,
			"-0.022": 0.0,
			"-0.021": 0.0,
			"-0.02": 0.0,
			"-0.019": 0.0,
			"-0.018": 0.0,
			"-0.017": 0.0,
			"-0.016": 0.0,
			"-0.015": 0.0,
			"-0.014": 0.0,
			"-0.013": 0.0,
			"-0.012": 1.60428728777,
			"-0.011": 3.35537391032,
			"-0.01": 2.58587033164,
			"-0.009": 2.85959042894,
			"-0.008": 5.27097272276,
			"-0.007": 7.20964302087,
			"-0.006": 9.12414274408,
			"-0.005": 9.01474128204,
			"-0.004": 9.81170636639,
			"-0.003": 12.1033303019,
			"-0.002": 13.8143367092,
			"-0.001": 14.1826939667,
			"0.0": 21.250820984,
			"0.001": 22.332284003,
			"0.002": 12.6676105137,
			"0.003": 12.6049347496,
			"0.004": 12.6142396601,
			"0.005": 3.71709636275,
			"0.006": 2.92694577653,
			"0.007": 2.2509794093,
			"0.008": 2.44758345319,
			"0.009": 3.43389564797,
			"0.01": 4.44736303863,
			"0.011": 5.48240553871,
			"0.012": 4.22621586429,
			"0.013": 1.52846589211,
			"0.014": 0.0298730475104,
			"0.015": 0.0,
			"0.016": 0.0,
			"0.017": 0.0,
			"0.018": 0.0,
			"0.019": 0.0,
			"0.02": 0.0,
			"0.021": 0.0,
			"0.022": 0.0,
			"0.023": 0.0,
			"0.024": 0.0,
			"0.025": 0.0
		}
	}
}
