{
	 "smiles": "COC1=CC=C(C=C1)C1C2=C(OC(N)=C1C#N)N(N=C2C(F)(F)F)C1=CC=CC=C1", 
	 "Tm": 484.15, 
	 "num_atms": 45, 
	 "gaussian": { 
		 "optdone": 1, 
		 "sigma_profile": "yes", 
		 "theory": "DFT", 
		 "functional": "B3LYP", 
		 "basiset": "6-31G**", 
		 "properties": { 
			 "R2extent": 13034.5223, 
			 "electric_dipole_moment_norm": 6.52017806659, 
			 "electric_quadrupole_moment_norm": 30.3133420643, 
			 "total_energy": -1478.1865101, 
			 "HOMO_LUMO_gap": 0.17268, 
			 "cosmo_polarized_energy": -22.0, 
			 "cosmo_cavitation_energy": 51.96, 
			 "cosmo_dispersion_energy": -34.31, 
			 "cosmo_repulsion_energy": 2.54, 
			 "cosmo_total_nonelectrostatic_energy": 20.19, 
			 "SMD_solvation_energy": 11.18 
		},
		"coords": [
			{
				"x": 1.9871911797,
				"y": 0.4368152676,
				"z": 5.7562816162,
				"element": "C" 
			},
			{
				"x": 0.6129586653,
				"y": 0.1991211308,
				"z": 5.4981898932,
				"element": "O" 
			},
			{
				"x": 0.2321509411,
				"y": -0.0666806603,
				"z": 4.2154863223,
				"element": "C" 
			},
			{
				"x": 1.1051265781,
				"y": -0.1245788422,
				"z": 3.1209243731,
				"element": "C" 
			},
			{
				"x": 0.5992183209,
				"y": -0.4064934462,
				"z": 1.851479296,
				"element": "C" 
			},
			{
				"x": -0.7630614677,
				"y": -0.632904141,
				"z": 1.6425481413,
				"element": "C" 
			},
			{
				"x": -1.6219123022,
				"y": -0.5711264787,
				"z": 2.7475308391,
				"element": "C" 
			},
			{
				"x": -1.1370624026,
				"y": -0.2928521994,
				"z": 4.0195337043,
				"element": "C" 
			},
			{
				"x": -1.3144567517,
				"y": -0.9375880206,
				"z": 0.2481121255,
				"element": "C" 
			},
			{
				"x": -1.0878238712,
				"y": 0.1776026945,
				"z": -0.7372684012,
				"element": "C" 
			},
			{
				"x": -0.3991341692,
				"y": -0.0018576907,
				"z": -1.9088073702,
				"element": "C" 
			},
			{
				"x": 0.1606349128,
				"y": -1.1510970195,
				"z": -2.3720163544,
				"element": "O" 
			},
			{
				"x": -0.0314624947,
				"y": -2.2464588371,
				"z": -1.5611456681,
				"element": "C" 
			},
			{
				"x": 0.4806512753,
				"y": -3.3609481277,
				"z": -2.1652411537,
				"element": "N" 
			},
			{
				"x": -0.6881958361,
				"y": -2.1987065675,
				"z": -0.3634945402,
				"element": "C" 
			},
			{
				"x": -0.7827484692,
				"y": -3.4241027498,
				"z": 0.3478876085,
				"element": "C" 
			},
			{
				"x": -0.8402971795,
				"y": -4.4539614102,
				"z": 0.893656818,
				"element": "N" 
			},
			{
				"x": -0.3418731425,
				"y": 1.1761265851,
				"z": -2.594124852,
				"element": "N" 
			},
			{
				"x": -0.9820793068,
				"y": 2.1490127102,
				"z": -1.8889952322,
				"element": "N" 
			},
			{
				"x": -1.4273964905,
				"y": 1.5520894482,
				"z": -0.7895281439,
				"element": "C" 
			},
			{
				"x": -2.1716755458,
				"y": 2.3428477229,
				"z": 0.242796914,
				"element": "C" 
			},
			{
				"x": -3.1691223106,
				"y": 1.5942293578,
				"z": 0.7749033467,
				"element": "F" 
			},
			{
				"x": -1.369117082,
				"y": 2.7120841132,
				"z": 1.2632475413,
				"element": "F" 
			},
			{
				"x": -2.7168976893,
				"y": 3.4563827026,
				"z": -0.2704887677,
				"element": "F" 
			},
			{
				"x": 0.2824648289,
				"y": 1.4883607897,
				"z": -3.8372232377,
				"element": "C" 
			},
			{
				"x": 0.4011407063,
				"y": 0.5213653388,
				"z": -4.8406501305,
				"element": "C" 
			},
			{
				"x": 1.0185193352,
				"y": 0.862106467,
				"z": -6.0444577947,
				"element": "C" 
			},
			{
				"x": 1.4974372847,
				"y": 2.1554334668,
				"z": -6.2556690498,
				"element": "C" 
			},
			{
				"x": 1.3576123317,
				"y": 3.1160588615,
				"z": -5.2512173431,
				"element": "C" 
			},
			{
				"x": 0.7564108118,
				"y": 2.7889521806,
				"z": -4.0381048943,
				"element": "C" 
			},
			{
				"x": 2.3571589199,
				"y": 1.3135683684,
				"z": 5.2089671478,
				"element": "H" 
			},
			{
				"x": 2.0644059966,
				"y": 0.6254128951,
				"z": 6.8281951415,
				"element": "H" 
			},
			{
				"x": 2.6050005301,
				"y": -0.4332373669,
				"z": 5.4985460152,
				"element": "H" 
			},
			{
				"x": 2.1680486665,
				"y": 0.0454116446,
				"z": 3.2445678707,
				"element": "H" 
			},
			{
				"x": 1.2865662986,
				"y": -0.4516074267,
				"z": 1.0105066479,
				"element": "H" 
			},
			{
				"x": -2.6865051972,
				"y": -0.7397931017,
				"z": 2.609841847,
				"element": "H" 
			},
			{
				"x": -1.7991782203,
				"y": -0.2449358305,
				"z": 4.8776469557,
				"element": "H" 
			},
			{
				"x": -2.394034933,
				"y": -1.1029920353,
				"z": 0.3604396223,
				"element": "H" 
			},
			{
				"x": 0.5491267812,
				"y": -4.1872731488,
				"z": -1.5872636631,
				"element": "H" 
			},
			{
				"x": 1.2501029307,
				"y": -3.2054814603,
				"z": -2.8009579143,
				"element": "H" 
			},
			{
				"x": 0.0093439271,
				"y": -0.4767294426,
				"z": -4.689504135,
				"element": "H" 
			},
			{
				"x": 1.1104375132,
				"y": 0.1120897534,
				"z": -6.8243095536,
				"element": "H" 
			},
			{
				"x": 1.9714903831,
				"y": 2.4147388668,
				"z": -7.1973101185,
				"element": "H" 
			},
			{
				"x": 1.7233287055,
				"y": 4.1263424085,
				"z": -5.4079026836,
				"element": "H" 
			},
			{
				"x": 0.6383070378,
				"y": 3.5220532296,
				"z": -3.2495087858,
				"element": "H" 
			}
		],
		 "valence_orbital": [ 
			{
				"type": "occ",
				"energy": -0.25697,
				"method": "rhf"
			},
			{
				"type": "occ",
				"energy": -0.25003,
				"method": "rhf"
			},
			{
				"type": "occ",
				"energy": -0.24504,
				"method": "rhf"
			},
			{
				"type": "occ",
				"energy": -0.22836,
				"method": "rhf"
			},
			{
				"type": "occ",
				"energy": -0.21433,
				"method": "rhf"
			},
			{
				"type": "unocc",
				"energy": -0.04165,
				"method": "rhf"
			},
			{
				"type": "unocc",
				"energy": -0.02023,
				"method": "rhf"
			},
			{
				"type": "unocc",
				"energy": -0.01807,
				"method": "rhf"
			},
			{
				"type": "unocc",
				"energy": -0.0024,
				"method": "rhf"
			},
			{
				"type": "unocc",
				"energy": 0.01033,
				"method": "rhf"
			}
		],
		"cosmo_sigma_profile": { 
			"-0.025": 0.0,
			"-0.024": 0.0,
			"-0.023": 0.0,
			"-0.022": 0.0,
			"-0.021": 0.0,
			"-0.02": 0.0,
			"-0.019": 0.0,
			"-0.018": 0.0,
			"-0.017": 0.0,
			"-0.016": 0.106284509364,
			"-0.015": 1.31699728357,
			"-0.014": 2.22656958471,
			"-0.013": 1.8147570802,
			"-0.012": 2.33387623985,
			"-0.011": 2.4830960436,
			"-0.01": 2.19967194734,
			"-0.009": 1.16204157225,
			"-0.008": 1.63716911518,
			"-0.007": 5.32388894458,
			"-0.006": 23.8357938414,
			"-0.005": 33.2101468608,
			"-0.004": 33.6888543402,
			"-0.003": 29.8007555356,
			"-0.002": 28.2232763036,
			"-0.001": 24.1181466715,
			"0.0": 23.6862794943,
			"0.001": 27.8397115012,
			"0.002": 37.5374979417,
			"0.003": 42.1414412242,
			"0.004": 32.4328687845,
			"0.005": 19.5182688768,
			"0.006": 6.89769918399,
			"0.007": 5.67044808593,
			"0.008": 5.2040329635,
			"0.009": 6.1582119999,
			"0.01": 5.54421622334,
			"0.011": 4.52903986625,
			"0.012": 3.06902229791,
			"0.013": 2.59508949455,
			"0.014": 1.21739993535,
			"0.015": 0.0,
			"0.016": 0.0,
			"0.017": 0.0,
			"0.018": 0.0,
			"0.019": 0.0,
			"0.02": 0.0,
			"0.021": 0.0,
			"0.022": 0.0,
			"0.023": 0.0,
			"0.024": 0.0,
			"0.025": 0.0
		}
	}
}
