{
	 "smiles": "CCCCCN1C=C(C(O)=O)C2=C1C=CC=C2", 
	 "Tm": 371.15, 
	 "num_atms": 34, 
	 "gaussian": { 
		 "optdone": 1, 
		 "sigma_profile": "yes", 
		 "theory": "DFT", 
		 "functional": "B3LYP", 
		 "basiset": "6-31G**", 
		 "properties": { 
			 "R2extent": 4291.5242, 
			 "electric_dipole_moment_norm": 6.94766349862, 
			 "electric_quadrupole_moment_norm": 17.2512749581, 
			 "total_energy": -748.962062455, 
			 "HOMO_LUMO_gap": 0.18161, 
			 "cosmo_polarized_energy": -19.57, 
			 "cosmo_cavitation_energy": 36.27, 
			 "cosmo_dispersion_energy": -24.57, 
			 "cosmo_repulsion_energy": 1.92, 
			 "cosmo_total_nonelectrostatic_energy": 13.61, 
			 "SMD_solvation_energy": 6.69 
		},
		"coords": [
			{
				"x": 3.1528295862,
				"y": 0.6850057331,
				"z": 0.1694393558,
				"element": "C" 
			},
			{
				"x": 2.289121419,
				"y": 0.2798825089,
				"z": 1.3695314954,
				"element": "C" 
			},
			{
				"x": 2.3674245272,
				"y": -1.2153394996,
				"z": 1.7312289561,
				"element": "C" 
			},
			{
				"x": 1.8707031862,
				"y": -2.2227191834,
				"z": 0.6770041859,
				"element": "C" 
			},
			{
				"x": 0.34717973,
				"y": -2.3771365875,
				"z": 0.5335975975,
				"element": "C" 
			},
			{
				"x": -0.3510207029,
				"y": -1.2300322336,
				"z": -0.0448869628,
				"element": "N" 
			},
			{
				"x": -0.2654722626,
				"y": -0.8481487115,
				"z": -1.3586696134,
				"element": "C" 
			},
			{
				"x": -1.0723283614,
				"y": 0.2490037366,
				"z": -1.5992604604,
				"element": "C" 
			},
			{
				"x": -1.2940040732,
				"y": 0.9534928484,
				"z": -2.8704339044,
				"element": "C" 
			},
			{
				"x": -0.4048385574,
				"y": 0.6949843099,
				"z": -3.8789416662,
				"element": "O" 
			},
			{
				"x": -2.2045080884,
				"y": 1.7284179229,
				"z": -3.0670348832,
				"element": "O" 
			},
			{
				"x": -1.7213512387,
				"y": 0.5575403226,
				"z": -0.3479619723,
				"element": "C" 
			},
			{
				"x": -1.2431224133,
				"y": -0.3792342947,
				"z": 0.6044417623,
				"element": "C" 
			},
			{
				"x": -1.6653228204,
				"y": -0.3582272569,
				"z": 1.9399925697,
				"element": "C" 
			},
			{
				"x": -2.5856314293,
				"y": 0.6179036996,
				"z": 2.3037591051,
				"element": "C" 
			},
			{
				"x": -3.0742689361,
				"y": 1.55214436,
				"z": 1.3674222261,
				"element": "C" 
			},
			{
				"x": -2.6515798138,
				"y": 1.5338311425,
				"z": 0.045000953,
				"element": "C" 
			},
			{
				"x": 3.116227817,
				"y": 1.7673542841,
				"z": 0.0110308402,
				"element": "H" 
			},
			{
				"x": 4.2023763979,
				"y": 0.4058983428,
				"z": 0.3206808246,
				"element": "H" 
			},
			{
				"x": 2.8144986883,
				"y": 0.2123981467,
				"z": -0.7589397479,
				"element": "H" 
			},
			{
				"x": 1.2504459343,
				"y": 0.5767070635,
				"z": 1.1928201741,
				"element": "H" 
			},
			{
				"x": 2.6179027741,
				"y": 0.8499520864,
				"z": 2.2477097442,
				"element": "H" 
			},
			{
				"x": 1.8184063917,
				"y": -1.3881852883,
				"z": 2.6671853713,
				"element": "H" 
			},
			{
				"x": 3.4156792116,
				"y": -1.4572672129,
				"z": 1.9524920366,
				"element": "H" 
			},
			{
				"x": 2.2474286994,
				"y": -3.2181977989,
				"z": 0.9454080809,
				"element": "H" 
			},
			{
				"x": 2.3063469008,
				"y": -1.9977133084,
				"z": -0.3042555929,
				"element": "H" 
			},
			{
				"x": 0.1315232309,
				"y": -3.2518125741,
				"z": -0.0917338541,
				"element": "H" 
			},
			{
				"x": -0.1031032561,
				"y": -2.5729027674,
				"z": 1.5100768929,
				"element": "H" 
			},
			{
				"x": 0.3427504911,
				"y": -1.4270124867,
				"z": -2.0421369372,
				"element": "H" 
			},
			{
				"x": 0.3615397908,
				"y": 0.2222605456,
				"z": -3.5273833285,
				"element": "H" 
			},
			{
				"x": -1.2951979267,
				"y": -1.0705115771,
				"z": 2.6704787642,
				"element": "H" 
			},
			{
				"x": -2.9351962442,
				"y": 0.6596145702,
				"z": 3.331156812,
				"element": "H" 
			},
			{
				"x": -3.7957088853,
				"y": 2.2970753815,
				"z": 1.6897372735,
				"element": "H" 
			},
			{
				"x": -3.0259297667,
				"y": 2.2398737758,
				"z": -0.686956098,
				"element": "H" 
			}
		],
		 "valence_orbital": [ 
			{
				"type": "occ",
				"energy": -0.30495,
				"method": "rhf"
			},
			{
				"type": "occ",
				"energy": -0.27891,
				"method": "rhf"
			},
			{
				"type": "occ",
				"energy": -0.26021,
				"method": "rhf"
			},
			{
				"type": "occ",
				"energy": -0.23146,
				"method": "rhf"
			},
			{
				"type": "occ",
				"energy": -0.21572,
				"method": "rhf"
			},
			{
				"type": "unocc",
				"energy": -0.03411,
				"method": "rhf"
			},
			{
				"type": "unocc",
				"energy": 0.00311,
				"method": "rhf"
			},
			{
				"type": "unocc",
				"energy": 0.01816,
				"method": "rhf"
			},
			{
				"type": "unocc",
				"energy": 0.05386,
				"method": "rhf"
			},
			{
				"type": "unocc",
				"energy": 0.069,
				"method": "rhf"
			}
		],
		"cosmo_sigma_profile": { 
			"-0.025": 0.0,
			"-0.024": 0.0,
			"-0.023": 0.0,
			"-0.022": 0.0,
			"-0.021": 0.0,
			"-0.02": 0.0,
			"-0.019": 0.00679296000562,
			"-0.018": 0.605768589993,
			"-0.017": 1.11743653609,
			"-0.016": 0.89514786271,
			"-0.015": 1.11188563592,
			"-0.014": 1.20401231819,
			"-0.013": 0.863226378069,
			"-0.012": 1.09826627791,
			"-0.011": 1.69416171072,
			"-0.01": 1.78451226786,
			"-0.009": 1.88890858371,
			"-0.008": 2.95247898048,
			"-0.007": 5.28410755283,
			"-0.006": 8.66043490737,
			"-0.005": 12.6305915874,
			"-0.004": 17.8197500828,
			"-0.003": 23.9687102514,
			"-0.002": 25.5657956336,
			"-0.001": 28.2926126414,
			"0.0": 29.5008595287,
			"0.001": 27.1542500937,
			"0.002": 18.9058917943,
			"0.003": 11.673838813,
			"0.004": 11.8903036679,
			"0.005": 11.2603702311,
			"0.006": 10.4077746546,
			"0.007": 3.42345568458,
			"0.008": 2.86732115537,
			"0.009": 3.04641747191,
			"0.01": 3.5226951003,
			"0.011": 4.8123628647,
			"0.012": 5.41441798278,
			"0.013": 3.26688607312,
			"0.014": 1.38301154176,
			"0.015": 0.028876086522,
			"0.016": 0.0,
			"0.017": 0.0,
			"0.018": 0.0,
			"0.019": 0.0,
			"0.02": 0.0,
			"0.021": 0.0,
			"0.022": 0.0,
			"0.023": 0.0,
			"0.024": 0.0,
			"0.025": 0.0
		}
	}
}
