{
	 "smiles": "CC(=O)NC(C)(C)C(O)=O", 
	 "Tm": 464.15, 
	 "num_atms": 21, 
	 "gaussian": { 
		 "optdone": 1, 
		 "sigma_profile": "yes", 
		 "theory": "DFT", 
		 "functional": "B3LYP", 
		 "basiset": "6-31G**", 
		 "properties": { 
			 "R2extent": 2133.3717, 
			 "electric_dipole_moment_norm": 3.13819934357, 
			 "electric_quadrupole_moment_norm": 9.95867820597, 
			 "total_energy": -515.729811852, 
			 "HOMO_LUMO_gap": 0.25545, 
			 "cosmo_polarized_energy": -16.36, 
			 "cosmo_cavitation_energy": 24.2, 
			 "cosmo_dispersion_energy": -17.03, 
			 "cosmo_repulsion_energy": 1.41, 
			 "cosmo_total_nonelectrostatic_energy": 8.58, 
			 "SMD_solvation_energy": 5.87 
		},
		"coords": [
			{
				"x": 1.7867000375,
				"y": -3.3437386567,
				"z": 0.877934316,
				"element": "C" 
			},
			{
				"x": 1.3131384104,
				"y": -2.0530014912,
				"z": 0.2302390748,
				"element": "C" 
			},
			{
				"x": 2.0780997139,
				"y": -1.1365008687,
				"z": -0.0430142203,
				"element": "O" 
			},
			{
				"x": -0.0330063505,
				"y": -1.9894161054,
				"z": -0.034605755,
				"element": "N" 
			},
			{
				"x": -0.6026307763,
				"y": -0.9179122991,
				"z": -0.8558150767,
				"element": "C" 
			},
			{
				"x": -0.5607510604,
				"y": 0.4237351868,
				"z": -0.1064241305,
				"element": "C" 
			},
			{
				"x": -2.0580754488,
				"y": -1.3051652443,
				"z": -1.1868775613,
				"element": "C" 
			},
			{
				"x": 0.1562971927,
				"y": -0.8825793187,
				"z": -2.2010735006,
				"element": "C" 
			},
			{
				"x": 0.2387384362,
				"y": 0.3595600531,
				"z": -2.7245942146,
				"element": "O" 
			},
			{
				"x": 0.5595266895,
				"y": -1.8664181368,
				"z": -2.779238207,
				"element": "O" 
			},
			{
				"x": 2.6047228066,
				"y": -3.1128127458,
				"z": 1.5620237074,
				"element": "H" 
			},
			{
				"x": 0.9946631458,
				"y": -3.8695016976,
				"z": 1.4189323467,
				"element": "H" 
			},
			{
				"x": 2.1769792776,
				"y": -4.0075980605,
				"z": 0.0989580769,
				"element": "H" 
			},
			{
				"x": -0.5528992272,
				"y": -2.8541468568,
				"z": 0.0070205561,
				"element": "H" 
			},
			{
				"x": -1.1180276853,
				"y": 0.3259230286,
				"z": 0.8300074412,
				"element": "H" 
			},
			{
				"x": 0.4689103047,
				"y": 0.6996261876,
				"z": 0.1200928841,
				"element": "H" 
			},
			{
				"x": -1.0156001931,
				"y": 1.2140238613,
				"z": -0.7074259061,
				"element": "H" 
			},
			{
				"x": -2.5231752509,
				"y": -0.5352364413,
				"z": -1.8076046166,
				"element": "H" 
			},
			{
				"x": -2.638646235,
				"y": -1.3974390017,
				"z": -0.2635243681,
				"element": "H" 
			},
			{
				"x": -2.0943101489,
				"y": -2.2543979722,
				"z": -1.7310060277,
				"element": "H" 
			},
			{
				"x": 0.6963463619,
				"y": 0.2591965795,
				"z": -3.5765048185,
				"element": "H" 
			}
		],
		 "valence_orbital": [ 
			{
				"type": "occ",
				"energy": -0.34709,
				"method": "rhf"
			},
			{
				"type": "occ",
				"energy": -0.3141,
				"method": "rhf"
			},
			{
				"type": "occ",
				"energy": -0.27314,
				"method": "rhf"
			},
			{
				"type": "occ",
				"energy": -0.25859,
				"method": "rhf"
			},
			{
				"type": "occ",
				"energy": -0.24632,
				"method": "rhf"
			},
			{
				"type": "unocc",
				"energy": 0.00913,
				"method": "rhf"
			},
			{
				"type": "unocc",
				"energy": 0.02934,
				"method": "rhf"
			},
			{
				"type": "unocc",
				"energy": 0.07137,
				"method": "rhf"
			},
			{
				"type": "unocc",
				"energy": 0.07994,
				"method": "rhf"
			},
			{
				"type": "unocc",
				"energy": 0.1133,
				"method": "rhf"
			}
		],
		"cosmo_sigma_profile": { 
			"-0.025": 0.0,
			"-0.024": 0.0,
			"-0.023": 0.0,
			"-0.022": 0.0,
			"-0.021": 0.0,
			"-0.02": 0.0,
			"-0.019": 0.083365212656,
			"-0.018": 0.790870606824,
			"-0.017": 1.0782759642,
			"-0.016": 0.74669985209,
			"-0.015": 0.783926107096,
			"-0.014": 1.22682055172,
			"-0.013": 1.01142775098,
			"-0.012": 2.09991897559,
			"-0.011": 2.48900853966,
			"-0.01": 2.01171905807,
			"-0.009": 1.81683686878,
			"-0.008": 2.46895744497,
			"-0.007": 3.03489427399,
			"-0.006": 5.33733738004,
			"-0.005": 11.1997132169,
			"-0.004": 15.8110573883,
			"-0.003": 17.8160736512,
			"-0.002": 18.2874609544,
			"-0.001": 18.5472662781,
			"0.0": 12.5826589745,
			"0.001": 8.69092034777,
			"0.002": 5.87963949123,
			"0.003": 5.91745479509,
			"0.004": 4.15385501,
			"0.005": 3.8546315178,
			"0.006": 4.44865036574,
			"0.007": 5.90306078562,
			"0.008": 5.06102590884,
			"0.009": 3.64089571493,
			"0.01": 3.2061181686,
			"0.011": 5.57096860773,
			"0.012": 6.00587637495,
			"0.013": 3.34064876099,
			"0.014": 2.86986313805,
			"0.015": 0.822742831526,
			"0.016": 0.0,
			"0.017": 0.0,
			"0.018": 0.0,
			"0.019": 0.0,
			"0.02": 0.0,
			"0.021": 0.0,
			"0.022": 0.0,
			"0.023": 0.0,
			"0.024": 0.0,
			"0.025": 0.0
		}
	}
}
