{
	 "smiles": "CC1=C(C)C=C2C(CC(O)=O)=COC2=C1", 
	 "Tm": 407.15, 
	 "num_atms": 27, 
	 "gaussian": { 
		 "optdone": 1, 
		 "sigma_profile": "yes", 
		 "theory": "DFT", 
		 "functional": "B3LYP", 
		 "basiset": "6-31G**", 
		 "properties": { 
			 "R2extent": 4115.77, 
			 "electric_dipole_moment_norm": 4.1845957714, 
			 "electric_quadrupole_moment_norm": 21.3393435314, 
			 "total_energy": -690.193448897, 
			 "HOMO_LUMO_gap": 0.19891, 
			 "cosmo_polarized_energy": -14.13, 
			 "cosmo_cavitation_energy": 31.22, 
			 "cosmo_dispersion_energy": -22.02, 
			 "cosmo_repulsion_energy": 1.72, 
			 "cosmo_total_nonelectrostatic_energy": 10.93, 
			 "SMD_solvation_energy": 6.99 
		},
		"coords": [
			{
				"x": -2.0136483359,
				"y": 2.7054638421,
				"z": -1.9205964899,
				"element": "C" 
			},
			{
				"x": -1.3916816554,
				"y": 1.3784625949,
				"z": -1.5548503993,
				"element": "C" 
			},
			{
				"x": -2.2058915275,
				"y": 0.3157614091,
				"z": -1.0629853017,
				"element": "C" 
			},
			{
				"x": -3.6955316022,
				"y": 0.514860897,
				"z": -0.9044552457,
				"element": "C" 
			},
			{
				"x": -1.6337372043,
				"y": -0.91004401,
				"z": -0.7239490122,
				"element": "C" 
			},
			{
				"x": -0.2514255436,
				"y": -1.095394021,
				"z": -0.8706092247,
				"element": "C" 
			},
			{
				"x": 0.6810867564,
				"y": -2.1833186925,
				"z": -0.6361133788,
				"element": "C" 
			},
			{
				"x": 0.3680686883,
				"y": -3.5546902051,
				"z": -0.1165670632,
				"element": "C" 
			},
			{
				"x": 0.0113957182,
				"y": -3.6223563767,
				"z": 1.3775742347,
				"element": "C" 
			},
			{
				"x": 0.6140276596,
				"y": -2.702942584,
				"z": 2.1654815423,
				"element": "O" 
			},
			{
				"x": -0.7188677984,
				"y": -4.4615996707,
				"z": 1.8413636212,
				"element": "O" 
			},
			{
				"x": 1.9024782903,
				"y": -1.6898411835,
				"z": -0.9871632385,
				"element": "C" 
			},
			{
				"x": 1.8429439397,
				"y": -0.3940236841,
				"z": -1.4269668238,
				"element": "O" 
			},
			{
				"x": 0.5206458385,
				"y": -0.0320267906,
				"z": -1.3554699403,
				"element": "C" 
			},
			{
				"x": -0.013773686,
				"y": 1.2022582178,
				"z": -1.7015586515,
				"element": "C" 
			},
			{
				"x": -2.5183812948,
				"y": 3.1660154382,
				"z": -1.0628005409,
				"element": "H" 
			},
			{
				"x": -1.2585043144,
				"y": 3.4090414202,
				"z": -2.2799511116,
				"element": "H" 
			},
			{
				"x": -2.7692986113,
				"y": 2.5951802866,
				"z": -2.7076885751,
				"element": "H" 
			},
			{
				"x": -3.9248813558,
				"y": 1.3347510134,
				"z": -0.2131781637,
				"element": "H" 
			},
			{
				"x": -4.1767177512,
				"y": 0.762953946,
				"z": -1.858269234,
				"element": "H" 
			},
			{
				"x": -4.1725306444,
				"y": -0.3887150987,
				"z": -0.5167234724,
				"element": "H" 
			},
			{
				"x": -2.2617972055,
				"y": -1.7120054027,
				"z": -0.3453142802,
				"element": "H" 
			},
			{
				"x": -0.4666472002,
				"y": -4.0094905207,
				"z": -0.6565958374,
				"element": "H" 
			},
			{
				"x": 1.2313796115,
				"y": -4.2167535379,
				"z": -0.2600217776,
				"element": "H" 
			},
			{
				"x": 1.1130112819,
				"y": -2.0854856113,
				"z": 1.6047970534,
				"element": "H" 
			},
			{
				"x": 2.8853252384,
				"y": -2.1389627159,
				"z": -1.001193581,
				"element": "H" 
			},
			{
				"x": 0.6197527081,
				"y": 2.0009010399,
				"z": -2.073495108,
				"element": "H" 
			}
		],
		 "valence_orbital": [ 
			{
				"type": "occ",
				"energy": -0.31022,
				"method": "rhf"
			},
			{
				"type": "occ",
				"energy": -0.30262,
				"method": "rhf"
			},
			{
				"type": "occ",
				"energy": -0.26568,
				"method": "rhf"
			},
			{
				"type": "occ",
				"energy": -0.23842,
				"method": "rhf"
			},
			{
				"type": "occ",
				"energy": -0.22754,
				"method": "rhf"
			},
			{
				"type": "unocc",
				"energy": -0.02863,
				"method": "rhf"
			},
			{
				"type": "unocc",
				"energy": 0.00284,
				"method": "rhf"
			},
			{
				"type": "unocc",
				"energy": 0.01457,
				"method": "rhf"
			},
			{
				"type": "unocc",
				"energy": 0.03577,
				"method": "rhf"
			},
			{
				"type": "unocc",
				"energy": 0.07921,
				"method": "rhf"
			}
		],
		"cosmo_sigma_profile": { 
			"-0.025": 0.0,
			"-0.024": 0.0,
			"-0.023": 0.0,
			"-0.022": 0.0,
			"-0.021": 0.0,
			"-0.02": 0.0,
			"-0.019": 0.0,
			"-0.018": 0.0,
			"-0.017": 0.0,
			"-0.016": 0.0,
			"-0.015": 0.156927884159,
			"-0.014": 0.566392596968,
			"-0.013": 0.446676276308,
			"-0.012": 0.953028012279,
			"-0.011": 1.87428970161,
			"-0.01": 1.80098354766,
			"-0.009": 4.65549911221,
			"-0.008": 7.26897731742,
			"-0.007": 5.14280548731,
			"-0.006": 10.4249356065,
			"-0.005": 12.3082988212,
			"-0.004": 18.8014950451,
			"-0.003": 22.3461500501,
			"-0.002": 19.1712687681,
			"-0.001": 17.6633109982,
			"0.0": 21.1924074824,
			"0.001": 18.0123568156,
			"0.002": 15.505907691,
			"0.003": 11.206308948,
			"0.004": 11.8736845044,
			"0.005": 11.5657063126,
			"0.006": 4.34947653212,
			"0.007": 4.11387808696,
			"0.008": 4.05141670426,
			"0.009": 3.46223515394,
			"0.01": 5.19058581947,
			"0.011": 4.95610624481,
			"0.012": 5.66851702943,
			"0.013": 2.70480139475,
			"0.014": 0.110207355215,
			"0.015": 0.0,
			"0.016": 0.0,
			"0.017": 0.0,
			"0.018": 0.0,
			"0.019": 0.0,
			"0.02": 0.0,
			"0.021": 0.0,
			"0.022": 0.0,
			"0.023": 0.0,
			"0.024": 0.0,
			"0.025": 0.0
		}
	}
}
