{
	 "smiles": "CN1C(=O)N(C)C2=C(C=C(N)C=N2)C1=O", 
	 "Tm": 493.15, 
	 "num_atms": 25, 
	 "gaussian": { 
		 "optdone": 1, 
		 "sigma_profile": "yes", 
		 "theory": "DFT", 
		 "functional": "B3LYP", 
		 "basiset": "6-31G**", 
		 "properties": { 
			 "R2extent": 3371.2973, 
			 "electric_dipole_moment_norm": 4.31028105116, 
			 "electric_quadrupole_moment_norm": 7.36983569016, 
			 "total_energy": -718.493392517, 
			 "HOMO_LUMO_gap": 0.15149, 
			 "cosmo_polarized_energy": -15.84, 
			 "cosmo_cavitation_energy": 28.68, 
			 "cosmo_dispersion_energy": -21.49, 
			 "cosmo_repulsion_energy": 1.64, 
			 "cosmo_total_nonelectrostatic_energy": 8.83, 
			 "SMD_solvation_energy": 5.32 
		},
		"coords": [
			{
				"x": -1.7671471914,
				"y": 2.7749629283,
				"z": 1.957027252,
				"element": "C" 
			},
			{
				"x": -0.9847735508,
				"y": 2.0347661326,
				"z": 0.9607259137,
				"element": "N" 
			},
			{
				"x": -0.1478670091,
				"y": 2.8172368753,
				"z": 0.1470036977,
				"element": "C" 
			},
			{
				"x": -0.1029364616,
				"y": 4.0306976332,
				"z": 0.2908349711,
				"element": "O" 
			},
			{
				"x": 0.6052829818,
				"y": 2.1419151581,
				"z": -0.8051218261,
				"element": "N" 
			},
			{
				"x": 1.4902526221,
				"y": 2.9227145903,
				"z": -1.6735679679,
				"element": "C" 
			},
			{
				"x": 0.5442603971,
				"y": 0.7587011283,
				"z": -0.9596185354,
				"element": "C" 
			},
			{
				"x": -0.300928436,
				"y": -0.0026573441,
				"z": -0.1367998223,
				"element": "C" 
			},
			{
				"x": -0.3438021652,
				"y": -1.3847137999,
				"z": -0.3116727163,
				"element": "C" 
			},
			{
				"x": 0.4500899567,
				"y": -1.9802455841,
				"z": -1.2955358591,
				"element": "C" 
			},
			{
				"x": 0.407621318,
				"y": -3.3475994225,
				"z": -1.5620892681,
				"element": "N" 
			},
			{
				"x": 1.2603403396,
				"y": -1.1149235899,
				"z": -2.0589867942,
				"element": "C" 
			},
			{
				"x": 1.3127629197,
				"y": 0.2066905764,
				"z": -1.9039079399,
				"element": "N" 
			},
			{
				"x": -1.1245438717,
				"y": 0.6441322296,
				"z": 0.8959416151,
				"element": "C" 
			},
			{
				"x": -1.8740212066,
				"y": 0.0280381389,
				"z": 1.6438837986,
				"element": "O" 
			},
			{
				"x": -1.0977758203,
				"y": 3.311895815,
				"z": 2.6320697673,
				"element": "H" 
			},
			{
				"x": -2.3631859572,
				"y": 2.0486542059,
				"z": 2.5044620584,
				"element": "H" 
			},
			{
				"x": -2.4089594948,
				"y": 3.504117949,
				"z": 1.4587519864,
				"element": "H" 
			},
			{
				"x": 2.5254869605,
				"y": 2.5999135245,
				"z": -1.5419167203,
				"element": "H" 
			},
			{
				"x": 1.2150430267,
				"y": 2.7730961897,
				"z": -2.719861148,
				"element": "H" 
			},
			{
				"x": 1.3783155998,
				"y": 3.9674488208,
				"z": -1.3945196172,
				"element": "H" 
			},
			{
				"x": -1.0029210539,
				"y": -1.9633679107,
				"z": 0.3284466547,
				"element": "H" 
			},
			{
				"x": 0.0980741213,
				"y": -3.9270660986,
				"z": -0.7941286179,
				"element": "H" 
			},
			{
				"x": 1.2296164712,
				"y": -3.7258905387,
				"z": -2.0126206815,
				"element": "H" 
			},
			{
				"x": 1.8981155043,
				"y": -1.5285176075,
				"z": -2.840400201,
				"element": "H" 
			}
		],
		 "valence_orbital": [ 
			{
				"type": "occ",
				"energy": -0.28287,
				"method": "rhf"
			},
			{
				"type": "occ",
				"energy": -0.27753,
				"method": "rhf"
			},
			{
				"type": "occ",
				"energy": -0.26849,
				"method": "rhf"
			},
			{
				"type": "occ",
				"energy": -0.25635,
				"method": "rhf"
			},
			{
				"type": "occ",
				"energy": -0.21031,
				"method": "rhf"
			},
			{
				"type": "unocc",
				"energy": -0.05882,
				"method": "rhf"
			},
			{
				"type": "unocc",
				"energy": -0.01233,
				"method": "rhf"
			},
			{
				"type": "unocc",
				"energy": 0.02181,
				"method": "rhf"
			},
			{
				"type": "unocc",
				"energy": 0.06261,
				"method": "rhf"
			},
			{
				"type": "unocc",
				"energy": 0.07926,
				"method": "rhf"
			}
		],
		"cosmo_sigma_profile": { 
			"-0.025": 0.0,
			"-0.024": 0.0,
			"-0.023": 0.0,
			"-0.022": 0.0,
			"-0.021": 0.0,
			"-0.02": 0.0,
			"-0.019": 0.0,
			"-0.018": 0.0,
			"-0.017": 0.0,
			"-0.016": 0.0,
			"-0.015": 0.0,
			"-0.014": 0.0289545176665,
			"-0.013": 2.51225805509,
			"-0.012": 2.98876793285,
			"-0.011": 3.4857547698,
			"-0.01": 3.71191570358,
			"-0.009": 3.8979413416,
			"-0.008": 3.16979001548,
			"-0.007": 3.93487749002,
			"-0.006": 6.96052518639,
			"-0.005": 13.7939858737,
			"-0.004": 16.6625858245,
			"-0.003": 20.703656193,
			"-0.002": 26.3503260897,
			"-0.001": 16.3907816412,
			"0.0": 14.4284283329,
			"0.001": 15.9199490314,
			"0.002": 10.670242846,
			"0.003": 6.8087111712,
			"0.004": 6.58646901174,
			"0.005": 4.87013910318,
			"0.006": 6.01079520207,
			"0.007": 5.26585160368,
			"0.008": 4.13323779276,
			"0.009": 4.0087000725,
			"0.01": 4.81412006781,
			"0.011": 6.08579950376,
			"0.012": 9.34775609044,
			"0.013": 4.6852989667,
			"0.014": 0.218160088309,
			"0.015": 0.0,
			"0.016": 0.0,
			"0.017": 0.0,
			"0.018": 0.0,
			"0.019": 0.0,
			"0.02": 0.0,
			"0.021": 0.0,
			"0.022": 0.0,
			"0.023": 0.0,
			"0.024": 0.0,
			"0.025": 0.0
		}
	}
}
