{
	 "smiles": "FC1=CC(=CC=C1)C1=NOC(S)=N1", 
	 "Tm": 367.15, 
	 "num_atms": 18, 
	 "gaussian": { 
		 "optdone": 1, 
		 "sigma_profile": "yes", 
		 "theory": "DFT", 
		 "functional": "B3LYP", 
		 "basiset": "6-31G**", 
		 "properties": { 
			 "R2extent": 3646.9896, 
			 "electric_dipole_moment_norm": 3.16834053883, 
			 "electric_quadrupole_moment_norm": 5.55966704309, 
			 "total_energy": -990.566316112, 
			 "HOMO_LUMO_gap": 0.19329, 
			 "cosmo_polarized_energy": -8.04, 
			 "cosmo_cavitation_energy": 25.92, 
			 "cosmo_dispersion_energy": -19.74, 
			 "cosmo_repulsion_energy": 1.48, 
			 "cosmo_total_nonelectrostatic_energy": 7.65, 
			 "SMD_solvation_energy": 3.13 
		},
		"coords": [
			{
				"x": -2.6085092229,
				"y": -2.0122596893,
				"z": -3.2459883609,
				"element": "F" 
			},
			{
				"x": -1.973311692,
				"y": -0.9116869072,
				"z": -2.7946636309,
				"element": "C" 
			},
			{
				"x": -1.4020088834,
				"y": -0.9405725646,
				"z": -1.5320972411,
				"element": "C" 
			},
			{
				"x": -0.742576464,
				"y": 0.2081046186,
				"z": -1.0686160425,
				"element": "C" 
			},
			{
				"x": -0.6708571317,
				"y": 1.3523493845,
				"z": -1.875188368,
				"element": "C" 
			},
			{
				"x": -1.2567290941,
				"y": 1.3474464828,
				"z": -3.1409628616,
				"element": "C" 
			},
			{
				"x": -1.915386103,
				"y": 0.2125317641,
				"z": -3.6143752037,
				"element": "C" 
			},
			{
				"x": -0.1242190206,
				"y": 0.2166220197,
				"z": 0.2644898224,
				"element": "C" 
			},
			{
				"x": -0.1564950291,
				"y": -0.8230431435,
				"z": 1.0683859846,
				"element": "N" 
			},
			{
				"x": 0.543778635,
				"y": -0.3742278616,
				"z": 2.2085964752,
				"element": "O" 
			},
			{
				"x": 0.9101301701,
				"y": 0.8878602014,
				"z": 1.9429768931,
				"element": "C" 
			},
			{
				"x": 1.8114824025,
				"y": 1.7212386788,
				"z": 3.1965623813,
				"element": "S" 
			},
			{
				"x": 0.5382990567,
				"y": 1.3193686729,
				"z": 0.7746131259,
				"element": "N" 
			},
			{
				"x": -1.4681325929,
				"y": -1.8348293674,
				"z": -0.923509774,
				"element": "H" 
			},
			{
				"x": -0.1578416593,
				"y": 2.230919057,
				"z": -1.5018470909,
				"element": "H" 
			},
			{
				"x": -1.2008441482,
				"y": 2.2339009124,
				"z": -3.765141827,
				"element": "H" 
			},
			{
				"x": -2.3786937769,
				"y": 0.1839849495,
				"z": -4.5945560709,
				"element": "H" 
			},
			{
				"x": 1.9161145539,
				"y": 2.8523927917,
				"z": 2.474121789,
				"element": "H" 
			}
		],
		 "valence_orbital": [ 
			{
				"type": "occ",
				"energy": -0.33843,
				"method": "rhf"
			},
			{
				"type": "occ",
				"energy": -0.30877,
				"method": "rhf"
			},
			{
				"type": "occ",
				"energy": -0.27701,
				"method": "rhf"
			},
			{
				"type": "occ",
				"energy": -0.25753,
				"method": "rhf"
			},
			{
				"type": "occ",
				"energy": -0.24967,
				"method": "rhf"
			},
			{
				"type": "unocc",
				"energy": -0.05638,
				"method": "rhf"
			},
			{
				"type": "unocc",
				"energy": -0.01369,
				"method": "rhf"
			},
			{
				"type": "unocc",
				"energy": -0.01124,
				"method": "rhf"
			},
			{
				"type": "unocc",
				"energy": -0.00767,
				"method": "rhf"
			},
			{
				"type": "unocc",
				"energy": 0.03411,
				"method": "rhf"
			}
		],
		"cosmo_sigma_profile": { 
			"-0.025": 0.0,
			"-0.024": 0.0,
			"-0.023": 0.0,
			"-0.022": 0.0,
			"-0.021": 0.0,
			"-0.02": 0.0,
			"-0.019": 0.0,
			"-0.018": 0.0,
			"-0.017": 0.0,
			"-0.016": 0.0,
			"-0.015": 0.0,
			"-0.014": 0.355360126957,
			"-0.013": 1.84824461139,
			"-0.012": 1.35874181474,
			"-0.011": 1.64087404965,
			"-0.01": 1.34250000138,
			"-0.009": 1.27218671811,
			"-0.008": 2.0414557707,
			"-0.007": 6.64533843514,
			"-0.006": 7.60078018947,
			"-0.005": 9.11722764411,
			"-0.004": 9.78942271213,
			"-0.003": 11.8345599218,
			"-0.002": 14.8915810002,
			"-0.001": 17.387563781,
			"0.0": 22.1287336298,
			"0.001": 22.8422651824,
			"0.002": 20.3050843936,
			"0.003": 18.5663088174,
			"0.004": 16.4859861366,
			"0.005": 7.91048227053,
			"0.006": 5.46953759328,
			"0.007": 3.16621100364,
			"0.008": 2.25393952808,
			"0.009": 2.16755939035,
			"0.01": 2.59788339881,
			"0.011": 1.04587831912,
			"0.012": 0.455788000553,
			"0.013": 0.0,
			"0.014": 0.0,
			"0.015": 0.0,
			"0.016": 0.0,
			"0.017": 0.0,
			"0.018": 0.0,
			"0.019": 0.0,
			"0.02": 0.0,
			"0.021": 0.0,
			"0.022": 0.0,
			"0.023": 0.0,
			"0.024": 0.0,
			"0.025": 0.0
		}
	}
}
