{
	 "smiles": "OC(=O)CC(O)(C1CC1)C1=CC=CC=C1", 
	 "Tm": 379.15, 
	 "num_atms": 29, 
	 "gaussian": { 
		 "optdone": 1, 
		 "sigma_profile": "yes", 
		 "theory": "DFT", 
		 "functional": "B3LYP", 
		 "basiset": "6-31G**", 
		 "properties": { 
			 "R2extent": 3105.9678, 
			 "electric_dipole_moment_norm": 0.578439149782, 
			 "electric_quadrupole_moment_norm": 11.1485007745, 
			 "total_energy": -691.365095947, 
			 "HOMO_LUMO_gap": 0.23319, 
			 "cosmo_polarized_energy": -13.16, 
			 "cosmo_cavitation_energy": 31.27, 
			 "cosmo_dispersion_energy": -21.84, 
			 "cosmo_repulsion_energy": 1.73, 
			 "cosmo_total_nonelectrostatic_energy": 11.15, 
			 "SMD_solvation_energy": 5.98 
		},
		"coords": [
			{
				"x": -1.1481592623,
				"y": 2.0815349224,
				"z": 1.7326506677,
				"element": "O" 
			},
			{
				"x": -1.9324439014,
				"y": 1.3445291932,
				"z": 0.8920556757,
				"element": "C" 
			},
			{
				"x": -3.06377141,
				"y": 1.0364775064,
				"z": 1.1846645588,
				"element": "O" 
			},
			{
				"x": -1.2247286879,
				"y": 1.0135953883,
				"z": -0.4024213685,
				"element": "C" 
			},
			{
				"x": 0.1886372482,
				"y": 0.3876847282,
				"z": -0.2298251518,
				"element": "C" 
			},
			{
				"x": 1.0983030552,
				"y": 1.4105395898,
				"z": 0.1767921738,
				"element": "O" 
			},
			{
				"x": 0.7601296068,
				"y": -0.119680214,
				"z": -1.5577489674,
				"element": "C" 
			},
			{
				"x": -0.0156759701,
				"y": -0.9352420175,
				"z": -2.5572710255,
				"element": "C" 
			},
			{
				"x": 0.4323319111,
				"y": 0.4654186983,
				"z": -2.9079552774,
				"element": "C" 
			},
			{
				"x": 0.1917386555,
				"y": -0.7769208144,
				"z": 0.7772292242,
				"element": "C" 
			},
			{
				"x": -0.8708255206,
				"y": -1.6881038572,
				"z": 0.8672343783,
				"element": "C" 
			},
			{
				"x": -0.81596259,
				"y": -2.7621490836,
				"z": 1.7572314457,
				"element": "C" 
			},
			{
				"x": 0.3036286664,
				"y": -2.9473568856,
				"z": 2.5693039572,
				"element": "C" 
			},
			{
				"x": 1.3681365976,
				"y": -2.0487047171,
				"z": 2.4842808246,
				"element": "C" 
			},
			{
				"x": 1.3118017149,
				"y": -0.9739839604,
				"z": 1.5961604962,
				"element": "C" 
			},
			{
				"x": -1.6687712828,
				"y": 2.2214588784,
				"z": 2.5416912975,
				"element": "H" 
			},
			{
				"x": -1.9016974017,
				"y": 0.3739761855,
				"z": -0.9695747222,
				"element": "H" 
			},
			{
				"x": -1.0898251305,
				"y": 1.9467324341,
				"z": -0.9592676625,
				"element": "H" 
			},
			{
				"x": 0.7490598469,
				"y": 1.7896718353,
				"z": 0.9978788216,
				"element": "H" 
			},
			{
				"x": 1.79683396,
				"y": -0.4171546089,
				"z": -1.4195846351,
				"element": "H" 
			},
			{
				"x": -1.0771344025,
				"y": -1.0977872376,
				"z": -2.3934050099,
				"element": "H" 
			},
			{
				"x": 0.4849164176,
				"y": -1.7798167316,
				"z": -3.0207558962,
				"element": "H" 
			},
			{
				"x": 1.2472767025,
				"y": 0.5937225657,
				"z": -3.613772375,
				"element": "H" 
			},
			{
				"x": -0.3309471087,
				"y": 1.2340171953,
				"z": -2.9788362493,
				"element": "H" 
			},
			{
				"x": -1.755554638,
				"y": -1.5642144461,
				"z": 0.2511288347,
				"element": "H" 
			},
			{
				"x": -1.6530224923,
				"y": -3.4521202155,
				"z": 1.8163133231,
				"element": "H" 
			},
			{
				"x": 0.3446389715,
				"y": -3.7825593608,
				"z": 3.2626731517,
				"element": "H" 
			},
			{
				"x": 2.245456187,
				"y": -2.1822943136,
				"z": 3.1114135447,
				"element": "H" 
			},
			{
				"x": 2.1364302575,
				"y": -0.2726706569,
				"z": 1.5291159654,
				"element": "H" 
			}
		],
		 "valence_orbital": [ 
			{
				"type": "occ",
				"energy": -0.29473,
				"method": "rhf"
			},
			{
				"type": "occ",
				"energy": -0.28317,
				"method": "rhf"
			},
			{
				"type": "occ",
				"energy": -0.27068,
				"method": "rhf"
			},
			{
				"type": "occ",
				"energy": -0.24743,
				"method": "rhf"
			},
			{
				"type": "occ",
				"energy": -0.24093,
				"method": "rhf"
			},
			{
				"type": "unocc",
				"energy": -0.00774,
				"method": "rhf"
			},
			{
				"type": "unocc",
				"energy": -0.00201,
				"method": "rhf"
			},
			{
				"type": "unocc",
				"energy": 0.00842,
				"method": "rhf"
			},
			{
				"type": "unocc",
				"energy": 0.06248,
				"method": "rhf"
			},
			{
				"type": "unocc",
				"energy": 0.0844,
				"method": "rhf"
			}
		],
		"cosmo_sigma_profile": { 
			"-0.025": 0.0,
			"-0.024": 0.0,
			"-0.023": 0.0,
			"-0.022": 0.0,
			"-0.021": 0.0,
			"-0.02": 0.0,
			"-0.019": 0.130461546929,
			"-0.018": 1.21883263461,
			"-0.017": 0.829777037343,
			"-0.016": 0.395252135555,
			"-0.015": 1.09708065983,
			"-0.014": 0.935225716257,
			"-0.013": 0.225249980481,
			"-0.012": 0.951657220364,
			"-0.011": 0.985495117374,
			"-0.01": 0.514684884935,
			"-0.009": 1.1878865157,
			"-0.008": 1.93912904356,
			"-0.007": 6.24321216851,
			"-0.006": 10.0546321635,
			"-0.005": 17.2286038985,
			"-0.004": 21.7305248829,
			"-0.003": 22.8445641842,
			"-0.002": 18.8240993152,
			"-0.001": 16.5161135273,
			"0.0": 16.38665548,
			"0.001": 14.7358152328,
			"0.002": 14.660221264,
			"0.003": 12.6018325597,
			"0.004": 13.787263076,
			"0.005": 14.3936004144,
			"0.006": 11.8946913861,
			"0.007": 2.67246104774,
			"0.008": 2.54965616724,
			"0.009": 2.30580831495,
			"0.01": 3.72545245561,
			"0.011": 5.85917487907,
			"0.012": 4.10645264438,
			"0.013": 1.50764194706,
			"0.014": 1.36997165562,
			"0.015": 0.0286735562459,
			"0.016": 0.0,
			"0.017": 0.0,
			"0.018": 0.0,
			"0.019": 0.0,
			"0.02": 0.0,
			"0.021": 0.0,
			"0.022": 0.0,
			"0.023": 0.0,
			"0.024": 0.0,
			"0.025": 0.0
		}
	}
}
