{
	 "smiles": "OCOCC1CCC(CO)(CO)C1=O", 
	 "Tm": 416.15, 
	 "num_atms": 30, 
	 "gaussian": { 
		 "optdone": 1, 
		 "sigma_profile": "yes", 
		 "theory": "DFT", 
		 "functional": "B3LYP", 
		 "basiset": "6-31G**", 
		 "properties": { 
			 "R2extent": 3428.4143, 
			 "electric_dipole_moment_norm": 2.84130873718, 
			 "electric_quadrupole_moment_norm": 8.99242124681, 
			 "total_energy": -728.689151388, 
			 "HOMO_LUMO_gap": 0.20595, 
			 "cosmo_polarized_energy": -16.36, 
			 "cosmo_cavitation_energy": 29.49, 
			 "cosmo_dispersion_energy": -21.51, 
			 "cosmo_repulsion_energy": 1.67, 
			 "cosmo_total_nonelectrostatic_energy": 9.65, 
			 "SMD_solvation_energy": 5.09 
		},
		"coords": [
			{
				"x": -0.3075621183,
				"y": 1.5161380034,
				"z": 3.108844996,
				"element": "O" 
			},
			{
				"x": 0.9420827914,
				"y": 1.7548852737,
				"z": 2.4940874855,
				"element": "C" 
			},
			{
				"x": 1.1117067285,
				"y": 1.1208486686,
				"z": 1.2510601971,
				"element": "O" 
			},
			{
				"x": 0.5653691061,
				"y": 1.7897543017,
				"z": 0.1137356197,
				"element": "C" 
			},
			{
				"x": -0.5362416601,
				"y": 0.9596494835,
				"z": -0.562920372,
				"element": "C" 
			},
			{
				"x": -0.1211743032,
				"y": -0.45495908,
				"z": -1.0281390788,
				"element": "C" 
			},
			{
				"x": -0.7178640776,
				"y": -1.4342413236,
				"z": 0.0110534121,
				"element": "C" 
			},
			{
				"x": -1.9994741457,
				"y": -0.7648394058,
				"z": 0.5440287639,
				"element": "C" 
			},
			{
				"x": -3.2296751494,
				"y": -1.0422619014,
				"z": -0.3752208339,
				"element": "C" 
			},
			{
				"x": -3.4634999993,
				"y": -2.4189707114,
				"z": -0.6076737541,
				"element": "O" 
			},
			{
				"x": -2.3560472015,
				"y": -1.1433487318,
				"z": 2.0033666282,
				"element": "C" 
			},
			{
				"x": -1.2618512221,
				"y": -1.1897525871,
				"z": 2.8860484267,
				"element": "O" 
			},
			{
				"x": -1.6940035856,
				"y": 0.7262232743,
				"z": 0.4137233858,
				"element": "C" 
			},
			{
				"x": -2.2623296934,
				"y": 1.6196206974,
				"z": 1.0233175585,
				"element": "O" 
			},
			{
				"x": -1.0061158552,
				"y": 1.9649733113,
				"z": 2.6036126373,
				"element": "H" 
			},
			{
				"x": 1.689482256,
				"y": 1.3212936245,
				"z": 3.1605352157,
				"element": "H" 
			},
			{
				"x": 1.1103136364,
				"y": 2.8383651132,
				"z": 2.3925136452,
				"element": "H" 
			},
			{
				"x": 1.3797262642,
				"y": 1.960468643,
				"z": -0.601162674,
				"element": "H" 
			},
			{
				"x": 0.1514678707,
				"y": 2.7662624193,
				"z": 0.3997667464,
				"element": "H" 
			},
			{
				"x": -0.9118409795,
				"y": 1.5750935152,
				"z": -1.3919265393,
				"element": "H" 
			},
			{
				"x": 0.9647817614,
				"y": -0.5596840073,
				"z": -1.1040783377,
				"element": "H" 
			},
			{
				"x": -0.5326519931,
				"y": -0.6530226145,
				"z": -2.0236424576,
				"element": "H" 
			},
			{
				"x": -0.0298403034,
				"y": -1.5598004883,
				"z": 0.8505543918,
				"element": "H" 
			},
			{
				"x": -0.9323863005,
				"y": -2.4185996125,
				"z": -0.4120167942,
				"element": "H" 
			},
			{
				"x": -3.0671471621,
				"y": -0.6064501689,
				"z": -1.3667279705,
				"element": "H" 
			},
			{
				"x": -4.1108373175,
				"y": -0.544237802,
				"z": 0.0575241955,
				"element": "H" 
			},
			{
				"x": -3.7485415379,
				"y": -2.8253567847,
				"z": 0.2203952256,
				"element": "H" 
			},
			{
				"x": -2.7850186717,
				"y": -2.1537516979,
				"z": 2.010015061,
				"element": "H" 
			},
			{
				"x": -3.1385915042,
				"y": -0.4489680584,
				"z": 2.3479370834,
				"element": "H" 
			},
			{
				"x": -0.9297356333,
				"y": -0.2838313534,
				"z": 3.0319881368,
				"element": "H" 
			}
		],
		 "valence_orbital": [ 
			{
				"type": "occ",
				"energy": -0.2945,
				"method": "rhf"
			},
			{
				"type": "occ",
				"energy": -0.28367,
				"method": "rhf"
			},
			{
				"type": "occ",
				"energy": -0.27979,
				"method": "rhf"
			},
			{
				"type": "occ",
				"energy": -0.25618,
				"method": "rhf"
			},
			{
				"type": "occ",
				"energy": -0.25006,
				"method": "rhf"
			},
			{
				"type": "unocc",
				"energy": -0.04411,
				"method": "rhf"
			},
			{
				"type": "unocc",
				"energy": 0.06284,
				"method": "rhf"
			},
			{
				"type": "unocc",
				"energy": 0.07112,
				"method": "rhf"
			},
			{
				"type": "unocc",
				"energy": 0.08632,
				"method": "rhf"
			},
			{
				"type": "unocc",
				"energy": 0.11243,
				"method": "rhf"
			}
		],
		"cosmo_sigma_profile": { 
			"-0.025": 0.0,
			"-0.024": 0.0,
			"-0.023": 0.0,
			"-0.022": 0.0,
			"-0.021": 0.0,
			"-0.02": 0.0,
			"-0.019": 0.0,
			"-0.018": 0.0,
			"-0.017": 0.0,
			"-0.016": 0.198816921685,
			"-0.015": 0.918410674712,
			"-0.014": 1.14667294352,
			"-0.013": 1.51233828852,
			"-0.012": 1.14269929857,
			"-0.011": 1.29535009574,
			"-0.01": 1.75322197656,
			"-0.009": 2.66108290465,
			"-0.008": 2.10164177296,
			"-0.007": 6.22356787514,
			"-0.006": 15.4647470498,
			"-0.005": 18.4305035264,
			"-0.004": 20.802567859,
			"-0.003": 19.8170827357,
			"-0.002": 16.3301755945,
			"-0.001": 15.3501322492,
			"0.0": 15.2920922524,
			"0.001": 12.5872696065,
			"0.002": 7.78657999074,
			"0.003": 7.50364480872,
			"0.004": 7.03298759029,
			"0.005": 7.04095482207,
			"0.006": 5.56773353215,
			"0.007": 5.03851644148,
			"0.008": 6.13889617837,
			"0.009": 5.49305122163,
			"0.01": 6.52394630762,
			"0.011": 5.9161444659,
			"0.012": 3.6371486646,
			"0.013": 3.38246024192,
			"0.014": 2.48265477163,
			"0.015": 1.64561919515,
			"0.016": 0.0640219331016,
			"0.017": 0.0,
			"0.018": 0.0,
			"0.019": 0.0,
			"0.02": 0.0,
			"0.021": 0.0,
			"0.022": 0.0,
			"0.023": 0.0,
			"0.024": 0.0,
			"0.025": 0.0
		}
	}
}
