{
	 "smiles": "ClCC1=CC=CC=C1CCl", 
	 "Tm": 328.65, 
	 "num_atms": 18, 
	 "gaussian": { 
		 "optdone": 1, 
		 "sigma_profile": "yes", 
		 "theory": "DFT", 
		 "functional": "B3LYP", 
		 "basiset": "6-31G**", 
		 "properties": { 
			 "R2extent": 2446.8628, 
			 "electric_dipole_moment_norm": 2.58309980643, 
			 "electric_quadrupole_moment_norm": 12.1853093055, 
			 "total_energy": -1230.06903351, 
			 "HOMO_LUMO_gap": 0.2128, 
			 "cosmo_polarized_energy": -7.45, 
			 "cosmo_cavitation_energy": 24.68, 
			 "cosmo_dispersion_energy": -18.08, 
			 "cosmo_repulsion_energy": 1.48, 
			 "cosmo_total_nonelectrostatic_energy": 8.08, 
			 "SMD_solvation_energy": 3.49 
		},
		"coords": [
			{
				"x": -0.815043806,
				"y": 1.1791684437,
				"z": 1.6281422191,
				"element": "Cl" 
			},
			{
				"x": 0.1404943243,
				"y": 1.8147163564,
				"z": 0.1871076885,
				"element": "C" 
			},
			{
				"x": 1.0761837707,
				"y": 0.7864272988,
				"z": -0.3788647133,
				"element": "C" 
			},
			{
				"x": 2.4305384774,
				"y": 0.8355427794,
				"z": -0.0309246031,
				"element": "C" 
			},
			{
				"x": 3.3427392751,
				"y": -0.0845312287,
				"z": -0.547441991,
				"element": "C" 
			},
			{
				"x": 2.9026185659,
				"y": -1.0742557903,
				"z": -1.4251105777,
				"element": "C" 
			},
			{
				"x": 1.5543079392,
				"y": -1.1351006217,
				"z": -1.7769626922,
				"element": "C" 
			},
			{
				"x": 0.6293766716,
				"y": -0.2196678837,
				"z": -1.2629345021,
				"element": "C" 
			},
			{
				"x": -0.814106664,
				"y": -0.3436277043,
				"z": -1.6556401073,
				"element": "C" 
			},
			{
				"x": -1.2830143828,
				"y": 0.8333686113,
				"z": -2.9929352106,
				"element": "Cl" 
			},
			{
				"x": -0.6075742773,
				"y": 2.1458435599,
				"z": -0.5318861723,
				"element": "H" 
			},
			{
				"x": 0.6842910763,
				"y": 2.6797953039,
				"z": 0.564602297,
				"element": "H" 
			},
			{
				"x": 2.7717231126,
				"y": 1.606321247,
				"z": 0.655147534,
				"element": "H" 
			},
			{
				"x": 4.3896361217,
				"y": -0.0272477766,
				"z": -0.2650030571,
				"element": "H" 
			},
			{
				"x": 3.6031006184,
				"y": -1.7956936437,
				"z": -1.8348641412,
				"element": "H" 
			},
			{
				"x": 1.2100274856,
				"y": -1.9046455104,
				"z": -2.4628722551,
				"element": "H" 
			},
			{
				"x": -1.4951284983,
				"y": -0.1315397275,
				"z": -0.832583541,
				"element": "H" 
			},
			{
				"x": -1.0317698102,
				"y": -1.3326737135,
				"z": -2.0568761745,
				"element": "H" 
			}
		],
		 "valence_orbital": [ 
			{
				"type": "occ",
				"energy": -0.30368,
				"method": "rhf"
			},
			{
				"type": "occ",
				"energy": -0.29762,
				"method": "rhf"
			},
			{
				"type": "occ",
				"energy": -0.29191,
				"method": "rhf"
			},
			{
				"type": "occ",
				"energy": -0.26526,
				"method": "rhf"
			},
			{
				"type": "occ",
				"energy": -0.25986,
				"method": "rhf"
			},
			{
				"type": "unocc",
				"energy": -0.04706,
				"method": "rhf"
			},
			{
				"type": "unocc",
				"energy": -0.02483,
				"method": "rhf"
			},
			{
				"type": "unocc",
				"energy": 0.03408,
				"method": "rhf"
			},
			{
				"type": "unocc",
				"energy": 0.03666,
				"method": "rhf"
			},
			{
				"type": "unocc",
				"energy": 0.07843,
				"method": "rhf"
			}
		],
		"cosmo_sigma_profile": { 
			"-0.025": 0.0,
			"-0.024": 0.0,
			"-0.023": 0.0,
			"-0.022": 0.0,
			"-0.021": 0.0,
			"-0.02": 0.0,
			"-0.019": 0.0,
			"-0.018": 0.0,
			"-0.017": 0.0,
			"-0.016": 0.0,
			"-0.015": 0.0,
			"-0.014": 0.0,
			"-0.013": 0.0,
			"-0.012": 0.0,
			"-0.011": 0.0,
			"-0.01": 0.0,
			"-0.009": 0.0945026436574,
			"-0.008": 5.38569041037,
			"-0.007": 7.63110695357,
			"-0.006": 14.9506193135,
			"-0.005": 15.6874544324,
			"-0.004": 17.0099768042,
			"-0.003": 10.3983916423,
			"-0.002": 9.3621925451,
			"-0.001": 8.18979420018,
			"0.0": 12.7035022685,
			"0.001": 11.4773854117,
			"0.002": 13.1452765942,
			"0.003": 16.2614530334,
			"0.004": 22.2324166595,
			"0.005": 13.6885750371,
			"0.006": 15.9310256198,
			"0.007": 7.06096920244,
			"0.008": 0.0,
			"0.009": 0.0,
			"0.01": 0.0,
			"0.011": 0.0,
			"0.012": 0.0,
			"0.013": 0.0,
			"0.014": 0.0,
			"0.015": 0.0,
			"0.016": 0.0,
			"0.017": 0.0,
			"0.018": 0.0,
			"0.019": 0.0,
			"0.02": 0.0,
			"0.021": 0.0,
			"0.022": 0.0,
			"0.023": 0.0,
			"0.024": 0.0,
			"0.025": 0.0
		}
	}
}
