{
	 "smiles": "CCC1=C(NC(=O)CCl)C(C)=CC=C1", 
	 "Tm": 378.15, 
	 "num_atms": 28, 
	 "gaussian": { 
		 "optdone": 1, 
		 "sigma_profile": "yes", 
		 "theory": "DFT", 
		 "functional": "B3LYP", 
		 "basiset": "6-31G**", 
		 "properties": { 
			 "R2extent": 4333.0661, 
			 "electric_dipole_moment_norm": 4.04472130313, 
			 "electric_quadrupole_moment_norm": 20.7207682773, 
			 "total_energy": -1017.80156986, 
			 "HOMO_LUMO_gap": 0.22281, 
			 "cosmo_polarized_energy": -11.99, 
			 "cosmo_cavitation_energy": 32.3, 
			 "cosmo_dispersion_energy": -21.99, 
			 "cosmo_repulsion_energy": 1.76, 
			 "cosmo_total_nonelectrostatic_energy": 12.06, 
			 "SMD_solvation_energy": 6.27 
		},
		"coords": [
			{
				"x": 0.0190655583,
				"y": 1.1395490983,
				"z": -2.186419265,
				"element": "C" 
			},
			{
				"x": -0.7705976093,
				"y": 0.0003966339,
				"z": -1.5151632459,
				"element": "C" 
			},
			{
				"x": -0.3284204512,
				"y": -0.2658904344,
				"z": -0.0919281976,
				"element": "C" 
			},
			{
				"x": -0.8527107032,
				"y": 0.4579538668,
				"z": 0.9970477653,
				"element": "C" 
			},
			{
				"x": -1.8467059386,
				"y": 1.466314107,
				"z": 0.7604966542,
				"element": "N" 
			},
			{
				"x": -3.2023860592,
				"y": 1.4030574821,
				"z": 0.9708347796,
				"element": "C" 
			},
			{
				"x": -3.9308457846,
				"y": 2.3670852041,
				"z": 0.7951130212,
				"element": "O" 
			},
			{
				"x": -3.7709654201,
				"y": 0.0570769476,
				"z": 1.4215262633,
				"element": "C" 
			},
			{
				"x": -4.2282819881,
				"y": -0.9527851479,
				"z": -0.0158577136,
				"element": "Cl" 
			},
			{
				"x": -0.3904666624,
				"y": 0.2484023513,
				"z": 2.3136609235,
				"element": "C" 
			},
			{
				"x": -0.9203194722,
				"y": 1.0625452998,
				"z": 3.4709686629,
				"element": "C" 
			},
			{
				"x": 0.5875970065,
				"y": -0.7292103552,
				"z": 2.5265970218,
				"element": "C" 
			},
			{
				"x": 1.1055898714,
				"y": -1.4663438765,
				"z": 1.4630282378,
				"element": "C" 
			},
			{
				"x": 0.654347385,
				"y": -1.2299443649,
				"z": 0.1673175445,
				"element": "C" 
			},
			{
				"x": -0.315593349,
				"y": 1.2863882901,
				"z": -3.218210028,
				"element": "H" 
			},
			{
				"x": -0.1146591845,
				"y": 2.0887644109,
				"z": -1.6564462889,
				"element": "H" 
			},
			{
				"x": 1.0915078471,
				"y": 0.920220558,
				"z": -2.2038756666,
				"element": "H" 
			},
			{
				"x": -0.6387976254,
				"y": -0.9166325949,
				"z": -2.1000171154,
				"element": "H" 
			},
			{
				"x": -1.8383860623,
				"y": 0.2344397725,
				"z": -1.5359516894,
				"element": "H" 
			},
			{
				"x": -1.5499599818,
				"y": 2.367372663,
				"z": 0.4031973022,
				"element": "H" 
			},
			{
				"x": -3.073036236,
				"y": -0.5381017925,
				"z": 2.0080821083,
				"element": "H" 
			},
			{
				"x": -4.6876126073,
				"y": 0.2489115781,
				"z": 1.9756173246,
				"element": "H" 
			},
			{
				"x": -0.3165587705,
				"y": 0.8958973,
				"z": 4.3664904667,
				"element": "H" 
			},
			{
				"x": -1.9556516145,
				"y": 0.8026557714,
				"z": 3.7231070109,
				"element": "H" 
			},
			{
				"x": -0.9135457628,
				"y": 2.133502059,
				"z": 3.246039144,
				"element": "H" 
			},
			{
				"x": 0.9506402909,
				"y": -0.903800325,
				"z": 3.5357847419,
				"element": "H" 
			},
			{
				"x": 1.8646256063,
				"y": -2.2217355301,
				"z": 1.6452764003,
				"element": "H" 
			},
			{
				"x": 1.0621277176,
				"y": -1.8022889724,
				"z": -0.6618161628,
				"element": "H" 
			}
		],
		 "valence_orbital": [ 
			{
				"type": "occ",
				"energy": -0.30065,
				"method": "rhf"
			},
			{
				"type": "occ",
				"energy": -0.27233,
				"method": "rhf"
			},
			{
				"type": "occ",
				"energy": -0.2604,
				"method": "rhf"
			},
			{
				"type": "occ",
				"energy": -0.24935,
				"method": "rhf"
			},
			{
				"type": "occ",
				"energy": -0.24805,
				"method": "rhf"
			},
			{
				"type": "unocc",
				"energy": -0.02524,
				"method": "rhf"
			},
			{
				"type": "unocc",
				"energy": -0.01598,
				"method": "rhf"
			},
			{
				"type": "unocc",
				"energy": -0.01029,
				"method": "rhf"
			},
			{
				"type": "unocc",
				"energy": 0.05643,
				"method": "rhf"
			},
			{
				"type": "unocc",
				"energy": 0.07419,
				"method": "rhf"
			}
		],
		"cosmo_sigma_profile": { 
			"-0.025": 0.0,
			"-0.024": 0.0,
			"-0.023": 0.0,
			"-0.022": 0.0,
			"-0.021": 0.0,
			"-0.02": 0.0,
			"-0.019": 0.0,
			"-0.018": 0.0,
			"-0.017": 0.0,
			"-0.016": 0.0,
			"-0.015": 0.0,
			"-0.014": 0.163616966342,
			"-0.013": 0.672079256675,
			"-0.012": 1.11533039497,
			"-0.011": 0.770087641399,
			"-0.01": 1.04676195806,
			"-0.009": 2.13377117444,
			"-0.008": 3.1763020452,
			"-0.007": 6.58997368288,
			"-0.006": 10.0497341443,
			"-0.005": 14.1801896401,
			"-0.004": 18.8979892315,
			"-0.003": 19.3142808585,
			"-0.002": 22.6210183728,
			"-0.001": 27.4856867916,
			"0.0": 25.6528960722,
			"0.001": 19.6532211929,
			"0.002": 13.4288346545,
			"0.003": 14.5372282544,
			"0.004": 14.11604916,
			"0.005": 16.2370224904,
			"0.006": 7.4112712838,
			"0.007": 1.4286818396,
			"0.008": 0.9657423128,
			"0.009": 1.22509855141,
			"0.01": 1.24133638977,
			"0.011": 1.74780986645,
			"0.012": 3.49555334768,
			"0.013": 5.62463428733,
			"0.014": 1.66087842598,
			"0.015": 0.0,
			"0.016": 0.0,
			"0.017": 0.0,
			"0.018": 0.0,
			"0.019": 0.0,
			"0.02": 0.0,
			"0.021": 0.0,
			"0.022": 0.0,
			"0.023": 0.0,
			"0.024": 0.0,
			"0.025": 0.0
		}
	}
}
