{
	 "smiles": "ClC1=C(Cl)C=C(S1)S(Cl)(=O)=O", 
	 "Tm": 329.15, 
	 "num_atms": 12, 
	 "gaussian": { 
		 "optdone": 1, 
		 "sigma_profile": "yes", 
		 "theory": "DFT", 
		 "functional": "B3LYP", 
		 "basiset": "6-31G**", 
		 "properties": { 
			 "R2extent": 4739.2967, 
			 "electric_dipole_moment_norm": 3.23738332917, 
			 "electric_quadrupole_moment_norm": 3.43799892234, 
			 "total_energy": -2480.31931699, 
			 "HOMO_LUMO_gap": 0.16526, 
			 "cosmo_polarized_energy": -6.88, 
			 "cosmo_cavitation_energy": 26.01, 
			 "cosmo_dispersion_energy": -20.24, 
			 "cosmo_repulsion_energy": 1.56, 
			 "cosmo_total_nonelectrostatic_energy": 7.33, 
			 "SMD_solvation_energy": 2.35 
		},
		"coords": [
			{
				"x": 0.3606583261,
				"y": -3.529812462,
				"z": -2.3625326359,
				"element": "Cl" 
			},
			{
				"x": -0.2208657546,
				"y": -2.6283830616,
				"z": -1.0245357096,
				"element": "C" 
			},
			{
				"x": -1.1564932713,
				"y": -3.0281055919,
				"z": -0.0948715443,
				"element": "C" 
			},
			{
				"x": -1.9363932298,
				"y": -4.5720594651,
				"z": -0.1003475821,
				"element": "Cl" 
			},
			{
				"x": -1.4263213049,
				"y": -2.0280798446,
				"z": 0.8783076649,
				"element": "C" 
			},
			{
				"x": -0.6912551396,
				"y": -0.8948921383,
				"z": 0.6505643272,
				"element": "C" 
			},
			{
				"x": 0.3478810829,
				"y": -1.0090408981,
				"z": -0.7411425571,
				"element": "S" 
			},
			{
				"x": -0.7404158132,
				"y": 0.5559608541,
				"z": 1.6450071192,
				"element": "S" 
			},
			{
				"x": 0.800128564,
				"y": 0.1815891149,
				"z": 3.057978042,
				"element": "Cl" 
			},
			{
				"x": -1.9871318889,
				"y": 0.5577494011,
				"z": 2.3954828545,
				"element": "O" 
			},
			{
				"x": -0.2863090713,
				"y": 1.6809840675,
				"z": 0.8397334777,
				"element": "O" 
			},
			{
				"x": -2.1276824994,
				"y": -2.1434099759,
				"z": 1.6947565436,
				"element": "H" 
			}
		],
		 "valence_orbital": [ 
			{
				"type": "occ",
				"energy": -0.34665,
				"method": "rhf"
			},
			{
				"type": "occ",
				"energy": -0.34222,
				"method": "rhf"
			},
			{
				"type": "occ",
				"energy": -0.32647,
				"method": "rhf"
			},
			{
				"type": "occ",
				"energy": -0.29982,
				"method": "rhf"
			},
			{
				"type": "occ",
				"energy": -0.2747,
				"method": "rhf"
			},
			{
				"type": "unocc",
				"energy": -0.10944,
				"method": "rhf"
			},
			{
				"type": "unocc",
				"energy": -0.06909,
				"method": "rhf"
			},
			{
				"type": "unocc",
				"energy": -0.03419,
				"method": "rhf"
			},
			{
				"type": "unocc",
				"energy": -0.02205,
				"method": "rhf"
			},
			{
				"type": "unocc",
				"energy": -0.00089,
				"method": "rhf"
			}
		],
		"cosmo_sigma_profile": { 
			"-0.025": 0.0,
			"-0.024": 0.0,
			"-0.023": 0.0,
			"-0.022": 0.0,
			"-0.021": 0.0,
			"-0.02": 0.0,
			"-0.019": 0.0,
			"-0.018": 0.0,
			"-0.017": 0.0,
			"-0.016": 0.0,
			"-0.015": 0.0,
			"-0.014": 0.0,
			"-0.013": 0.0,
			"-0.012": 0.0276661933549,
			"-0.011": 1.09712933157,
			"-0.01": 1.49627077214,
			"-0.009": 1.23534849159,
			"-0.008": 1.70973438054,
			"-0.007": 2.76694630609,
			"-0.006": 3.6674529882,
			"-0.005": 8.8411588438,
			"-0.004": 12.619087357,
			"-0.003": 21.1956485462,
			"-0.002": 28.1634944426,
			"-0.001": 22.0657443459,
			"0.0": 17.4884529569,
			"0.001": 21.4270626539,
			"0.002": 24.3171195241,
			"0.003": 23.3032030192,
			"0.004": 3.932285681,
			"0.005": 2.91172345639,
			"0.006": 3.9725205405,
			"0.007": 9.00284071532,
			"0.008": 7.91297856089,
			"0.009": 0.727138057751,
			"0.01": 0.0,
			"0.011": 0.0,
			"0.012": 0.0,
			"0.013": 0.0,
			"0.014": 0.0,
			"0.015": 0.0,
			"0.016": 0.0,
			"0.017": 0.0,
			"0.018": 0.0,
			"0.019": 0.0,
			"0.02": 0.0,
			"0.021": 0.0,
			"0.022": 0.0,
			"0.023": 0.0,
			"0.024": 0.0,
			"0.025": 0.0
		}
	}
}
