{
	 "smiles": "CCOC(=O)C1=CC2=CC(=C(C=C2C(=O)O1)C(F)(F)F)C(F)(F)F", 
	 "Tm": 466.0, 
	 "num_atms": 32, 
	 "gaussian": { 
		 "optdone": 1, 
		 "sigma_profile": "yes", 
		 "theory": "DFT", 
		 "functional": "B3LYP", 
		 "basiset": "6-31G**", 
		 "properties": { 
			 "R2extent": 11735.537, 
			 "electric_dipole_moment_norm": 3.86146757205, 
			 "electric_quadrupole_moment_norm": 10.3479320799, 
			 "total_energy": -1438.27182273, 
			 "HOMO_LUMO_gap": 0.15888, 
			 "cosmo_polarized_energy": -12.9, 
			 "cosmo_cavitation_energy": 40.22, 
			 "cosmo_dispersion_energy": -28.29, 
			 "cosmo_repulsion_energy": 2.02, 
			 "cosmo_total_nonelectrostatic_energy": 13.95, 
			 "SMD_solvation_energy": 11.12 
		},
		"coords": [
			{
				"x": 4.7661862301,
				"y": 1.3343053042,
				"z": 3.2390295652,
				"element": "C" 
			},
			{
				"x": 3.7338321317,
				"y": 2.374564852,
				"z": 2.834498273,
				"element": "C" 
			},
			{
				"x": 2.4653210758,
				"y": 1.7498115585,
				"z": 2.499055272,
				"element": "O" 
			},
			{
				"x": 2.3294966292,
				"y": 1.3133314665,
				"z": 1.2439171353,
				"element": "C" 
			},
			{
				"x": 3.1658951093,
				"y": 1.3993830603,
				"z": 0.365707669,
				"element": "O" 
			},
			{
				"x": 0.9914051053,
				"y": 0.6862809717,
				"z": 1.0026010653,
				"element": "C" 
			},
			{
				"x": 0.6581603633,
				"y": 0.1943111955,
				"z": -0.2102135046,
				"element": "C" 
			},
			{
				"x": -0.6401731262,
				"y": -0.3976054967,
				"z": -0.3960736886,
				"element": "C" 
			},
			{
				"x": -1.0719572902,
				"y": -0.9326364627,
				"z": -1.6234788666,
				"element": "C" 
			},
			{
				"x": -2.3324002709,
				"y": -1.4982288942,
				"z": -1.7607676842,
				"element": "C" 
			},
			{
				"x": -3.2140712884,
				"y": -1.5340455115,
				"z": -0.6493995933,
				"element": "C" 
			},
			{
				"x": -2.7910566811,
				"y": -1.009824471,
				"z": 0.5662497328,
				"element": "C" 
			},
			{
				"x": -1.5198071536,
				"y": -0.4432970142,
				"z": 0.7027212254,
				"element": "C" 
			},
			{
				"x": -1.1195646721,
				"y": 0.1027394391,
				"z": 2.0135533956,
				"element": "C" 
			},
			{
				"x": -1.7941307959,
				"y": 0.1112277737,
				"z": 3.0124062359,
				"element": "O" 
			},
			{
				"x": 0.1582625903,
				"y": 0.6526282564,
				"z": 2.077681693,
				"element": "O" 
			},
			{
				"x": -4.5906786013,
				"y": -2.1725884749,
				"z": -0.6966666082,
				"element": "C" 
			},
			{
				"x": -5.32364563,
				"y": -1.8197760896,
				"z": 0.380756783,
				"element": "F" 
			},
			{
				"x": -4.5096300857,
				"y": -3.5179958989,
				"z": -0.6962321165,
				"element": "F" 
			},
			{
				"x": -5.286166165,
				"y": -1.8020070034,
				"z": -1.7883713033,
				"element": "F" 
			},
			{
				"x": -2.7197232575,
				"y": -2.004201241,
				"z": -3.1417067751,
				"element": "C" 
			},
			{
				"x": -3.3124651936,
				"y": -3.210090979,
				"z": -3.0931499652,
				"element": "F" 
			},
			{
				"x": -3.5601737989,
				"y": -1.1499929277,
				"z": -3.7557940862,
				"element": "F" 
			},
			{
				"x": -1.6325047641,
				"y": -2.1283509944,
				"z": -3.9353209881,
				"element": "F" 
			},
			{
				"x": 5.0115747639,
				"y": 0.6838138892,
				"z": 2.3959609556,
				"element": "H" 
			},
			{
				"x": 4.3981236631,
				"y": 0.7220004501,
				"z": 4.0670310436,
				"element": "H" 
			},
			{
				"x": 5.6840988746,
				"y": 1.8354977353,
				"z": 3.5630255942,
				"element": "H" 
			},
			{
				"x": 3.4872549904,
				"y": 3.0428429088,
				"z": 3.6617674306,
				"element": "H" 
			},
			{
				"x": 4.071827837,
				"y": 2.9606668122,
				"z": 1.9769216485,
				"element": "H" 
			},
			{
				"x": 1.3806131499,
				"y": 0.2601043903,
				"z": -1.0137750116,
				"element": "H" 
			},
			{
				"x": -0.4056565936,
				"y": -0.9065702293,
				"z": -2.4770496429,
				"element": "H" 
			},
			{
				"x": -3.4437471459,
				"y": -1.0277983752,
				"z": 1.4299151165,
				"element": "H" 
			}
		],
		 "valence_orbital": [ 
			{
				"type": "occ",
				"energy": -0.31856,
				"method": "rhf"
			},
			{
				"type": "occ",
				"energy": -0.31096,
				"method": "rhf"
			},
			{
				"type": "occ",
				"energy": -0.30275,
				"method": "rhf"
			},
			{
				"type": "occ",
				"energy": -0.29164,
				"method": "rhf"
			},
			{
				"type": "occ",
				"energy": -0.25941,
				"method": "rhf"
			},
			{
				"type": "unocc",
				"energy": -0.10053,
				"method": "rhf"
			},
			{
				"type": "unocc",
				"energy": -0.08057,
				"method": "rhf"
			},
			{
				"type": "unocc",
				"energy": -0.02333,
				"method": "rhf"
			},
			{
				"type": "unocc",
				"energy": 0.01155,
				"method": "rhf"
			},
			{
				"type": "unocc",
				"energy": 0.06248,
				"method": "rhf"
			}
		],
		"cosmo_sigma_profile": { 
			"-0.025": 0.0,
			"-0.024": 0.0,
			"-0.023": 0.0,
			"-0.022": 0.0,
			"-0.021": 0.0,
			"-0.02": 0.0,
			"-0.019": 0.0,
			"-0.018": 0.0,
			"-0.017": 0.0,
			"-0.016": 0.0,
			"-0.015": 0.0,
			"-0.014": 0.0,
			"-0.013": 0.0,
			"-0.012": 0.0,
			"-0.011": 0.367068155576,
			"-0.01": 1.87833399248,
			"-0.009": 2.44207957979,
			"-0.008": 3.19893335788,
			"-0.007": 4.73856041642,
			"-0.006": 10.8428294395,
			"-0.005": 18.8178842818,
			"-0.004": 26.2350320272,
			"-0.003": 31.3731505107,
			"-0.002": 36.4114595257,
			"-0.001": 24.9876602483,
			"0.0": 20.5229905037,
			"0.001": 20.8959079691,
			"0.002": 52.421160189,
			"0.003": 24.2796322676,
			"0.004": 4.48736338677,
			"0.005": 4.46960030167,
			"0.006": 2.69504809779,
			"0.007": 4.55896487155,
			"0.008": 5.34724446562,
			"0.009": 6.20147238808,
			"0.01": 8.07646162884,
			"0.011": 7.44936449975,
			"0.012": 0.912662322328,
			"0.013": 0.0,
			"0.014": 0.0,
			"0.015": 0.0,
			"0.016": 0.0,
			"0.017": 0.0,
			"0.018": 0.0,
			"0.019": 0.0,
			"0.02": 0.0,
			"0.021": 0.0,
			"0.022": 0.0,
			"0.023": 0.0,
			"0.024": 0.0,
			"0.025": 0.0
		}
	}
}
