{
	 "smiles": "OC(=O)CNC1=NC=C(C=C1)C#N", 
	 "Tm": 441.15, 
	 "num_atms": 20, 
	 "gaussian": { 
		 "optdone": 1, 
		 "sigma_profile": "yes", 
		 "theory": "DFT", 
		 "functional": "B3LYP", 
		 "basiset": "6-31G**", 
		 "properties": { 
			 "R2extent": 3756.8244, 
			 "electric_dipole_moment_norm": 7.34529083835, 
			 "electric_quadrupole_moment_norm": 15.9148794334, 
			 "total_energy": -623.771879738, 
			 "HOMO_LUMO_gap": 0.18473, 
			 "cosmo_polarized_energy": -18.62, 
			 "cosmo_cavitation_energy": 26.69, 
			 "cosmo_dispersion_energy": -19.12, 
			 "cosmo_repulsion_energy": 1.52, 
			 "cosmo_total_nonelectrostatic_energy": 9.1, 
			 "SMD_solvation_energy": 5.14 
		},
		"coords": [
			{
				"x": 3.4416531883,
				"y": 1.0096892164,
				"z": 2.4625798828,
				"element": "O" 
			},
			{
				"x": 2.3858796598,
				"y": 1.4998608855,
				"z": 1.7874193129,
				"element": "C" 
			},
			{
				"x": 2.2201123041,
				"y": 2.6741415359,
				"z": 1.5468887793,
				"element": "O" 
			},
			{
				"x": 1.4396917533,
				"y": 0.3882973656,
				"z": 1.3724362655,
				"element": "C" 
			},
			{
				"x": 0.3326530986,
				"y": 0.9568896954,
				"z": 0.6578708591,
				"element": "N" 
			},
			{
				"x": -0.7117990771,
				"y": 0.2579503688,
				"z": 0.135199078,
				"element": "C" 
			},
			{
				"x": -1.6425116532,
				"y": 1.004853217,
				"z": -0.4985360204,
				"element": "N" 
			},
			{
				"x": -2.6876763745,
				"y": 0.3866010811,
				"z": -1.0315640591,
				"element": "C" 
			},
			{
				"x": -2.8899486112,
				"y": -1.0048633019,
				"z": -0.9787133268,
				"element": "C" 
			},
			{
				"x": -1.9147272658,
				"y": -1.7743677313,
				"z": -0.3163187827,
				"element": "C" 
			},
			{
				"x": -0.817444522,
				"y": -1.1500340579,
				"z": 0.2462698255,
				"element": "C" 
			},
			{
				"x": -4.0403414501,
				"y": -1.6022667727,
				"z": -1.5754789904,
				"element": "C" 
			},
			{
				"x": -4.9798690705,
				"y": -2.087471374,
				"z": -2.0632040032,
				"element": "N" 
			},
			{
				"x": 4.0037798618,
				"y": 1.7674544805,
				"z": 2.6971409108,
				"element": "H" 
			},
			{
				"x": 2.0102499593,
				"y": -0.3331910023,
				"z": 0.7677139663,
				"element": "H" 
			},
			{
				"x": 1.1280907443,
				"y": -0.1476270223,
				"z": 2.2820833319,
				"element": "H" 
			},
			{
				"x": 0.3291971544,
				"y": 1.9615559475,
				"z": 0.5328380222,
				"element": "H" 
			},
			{
				"x": -3.4177448566,
				"y": 1.0177659804,
				"z": -1.5342150378,
				"element": "H" 
			},
			{
				"x": -2.0283719603,
				"y": -2.8516252669,
				"z": -0.250432288,
				"element": "H" 
			},
			{
				"x": -0.0591728827,
				"y": -1.7303132448,
				"z": 0.759022274,
				"element": "H" 
			}
		],
		 "valence_orbital": [ 
			{
				"type": "occ",
				"energy": -0.31311,
				"method": "rhf"
			},
			{
				"type": "occ",
				"energy": -0.309,
				"method": "rhf"
			},
			{
				"type": "occ",
				"energy": -0.30045,
				"method": "rhf"
			},
			{
				"type": "occ",
				"energy": -0.27567,
				"method": "rhf"
			},
			{
				"type": "occ",
				"energy": -0.22645,
				"method": "rhf"
			},
			{
				"type": "unocc",
				"energy": -0.04172,
				"method": "rhf"
			},
			{
				"type": "unocc",
				"energy": -0.03228,
				"method": "rhf"
			},
			{
				"type": "unocc",
				"energy": -0.01929,
				"method": "rhf"
			},
			{
				"type": "unocc",
				"energy": 0.0397,
				"method": "rhf"
			},
			{
				"type": "unocc",
				"energy": 0.05208,
				"method": "rhf"
			}
		],
		"cosmo_sigma_profile": { 
			"-0.025": 0.0,
			"-0.024": 0.0,
			"-0.023": 0.0,
			"-0.022": 0.0,
			"-0.021": 0.0,
			"-0.02": 0.0245116387476,
			"-0.019": 0.669068327764,
			"-0.018": 1.06032108889,
			"-0.017": 0.801441586875,
			"-0.016": 0.855524283482,
			"-0.015": 0.680841612214,
			"-0.014": 0.936976587712,
			"-0.013": 0.503302948368,
			"-0.012": 0.82378170207,
			"-0.011": 0.900998977993,
			"-0.01": 0.503032835615,
			"-0.009": 2.07667331236,
			"-0.008": 13.7544628183,
			"-0.007": 15.4975088785,
			"-0.006": 11.6744611485,
			"-0.005": 8.37850280001,
			"-0.004": 9.56622136656,
			"-0.003": 9.64334038709,
			"-0.002": 11.5252012999,
			"-0.001": 12.7284109877,
			"0.0": 17.6690600878,
			"0.001": 15.2040011451,
			"0.002": 12.3431355041,
			"0.003": 7.09850400332,
			"0.004": 5.77887501255,
			"0.005": 5.41380221663,
			"0.006": 4.94129216595,
			"0.007": 7.12950901166,
			"0.008": 7.61391515859,
			"0.009": 6.80314521176,
			"0.01": 7.57885612733,
			"0.011": 6.48832535442,
			"0.012": 3.57968684223,
			"0.013": 3.10797710269,
			"0.014": 1.20469756132,
			"0.015": 0.0436730427886,
			"0.016": 0.0,
			"0.017": 0.0,
			"0.018": 0.0,
			"0.019": 0.0,
			"0.02": 0.0,
			"0.021": 0.0,
			"0.022": 0.0,
			"0.023": 0.0,
			"0.024": 0.0,
			"0.025": 0.0
		}
	}
}
