{
	 "smiles": "CC1=NC2=C(S1)C=CC=C2", 
	 "Tm": 286.15, 
	 "num_atms": 17, 
	 "gaussian": { 
		 "optdone": 1, 
		 "sigma_profile": "yes", 
		 "theory": "DFT", 
		 "functional": "B3LYP", 
		 "basiset": "6-31G**", 
		 "properties": { 
			 "R2extent": 2229.579, 
			 "electric_dipole_moment_norm": 0.766840218038, 
			 "electric_quadrupole_moment_norm": 8.93018578642, 
			 "total_energy": -762.023060629, 
			 "HOMO_LUMO_gap": 0.20203, 
			 "cosmo_polarized_energy": -5.93, 
			 "cosmo_cavitation_energy": 22.34, 
			 "cosmo_dispersion_energy": -17.39, 
			 "cosmo_repulsion_energy": 1.35, 
			 "cosmo_total_nonelectrostatic_energy": 6.29, 
			 "SMD_solvation_energy": 1.73 
		},
		"coords": [
			{
				"x": 1.7854328405,
				"y": 0.0643247854,
				"z": 3.2552752049,
				"element": "C" 
			},
			{
				"x": 1.16067307,
				"y": -0.5427561005,
				"z": 2.0379431114,
				"element": "C" 
			},
			{
				"x": 1.0830819277,
				"y": 0.0425233835,
				"z": 0.8883208594,
				"element": "N" 
			},
			{
				"x": 0.4524377727,
				"y": -0.7611705207,
				"z": -0.0519898471,
				"element": "C" 
			},
			{
				"x": 0.0290911524,
				"y": -2.0286599618,
				"z": 0.4170127377,
				"element": "C" 
			},
			{
				"x": 0.4561838113,
				"y": -2.1834059547,
				"z": 2.110409179,
				"element": "S" 
			},
			{
				"x": -0.6186074972,
				"y": -2.9370902444,
				"z": -0.4231851477,
				"element": "C" 
			},
			{
				"x": -0.8405560045,
				"y": -2.5631023181,
				"z": -1.746779989,
				"element": "C" 
			},
			{
				"x": -0.4253654667,
				"y": -1.3083658636,
				"z": -2.2244595801,
				"element": "C" 
			},
			{
				"x": 0.2192675615,
				"y": -0.4046319713,
				"z": -1.3876133883,
				"element": "C" 
			},
			{
				"x": 1.0618174632,
				"y": 0.1490988618,
				"z": 4.0730962943,
				"element": "H" 
			},
			{
				"x": 2.6233984022,
				"y": -0.5416648489,
				"z": 3.6161465428,
				"element": "H" 
			},
			{
				"x": 2.1513868404,
				"y": 1.0603273229,
				"z": 3.0002422465,
				"element": "H" 
			},
			{
				"x": -0.9412703763,
				"y": -3.9073175938,
				"z": -0.0593132269,
				"element": "H" 
			},
			{
				"x": -1.342481477,
				"y": -3.2538241593,
				"z": -2.4178354233,
				"element": "H" 
			},
			{
				"x": -0.6112988417,
				"y": -1.0430327904,
				"z": -3.2608393954,
				"element": "H" 
			},
			{
				"x": 0.5460088216,
				"y": 0.567847974,
				"z": -1.7409301782,
				"element": "H" 
			}
		],
		 "valence_orbital": [ 
			{
				"type": "occ",
				"energy": -0.3343,
				"method": "rhf"
			},
			{
				"type": "occ",
				"energy": -0.29987,
				"method": "rhf"
			},
			{
				"type": "occ",
				"energy": -0.27276,
				"method": "rhf"
			},
			{
				"type": "occ",
				"energy": -0.23529,
				"method": "rhf"
			},
			{
				"type": "occ",
				"energy": -0.23302,
				"method": "rhf"
			},
			{
				"type": "unocc",
				"energy": -0.03099,
				"method": "rhf"
			},
			{
				"type": "unocc",
				"energy": -0.00411,
				"method": "rhf"
			},
			{
				"type": "unocc",
				"energy": 0.01161,
				"method": "rhf"
			},
			{
				"type": "unocc",
				"energy": 0.03769,
				"method": "rhf"
			},
			{
				"type": "unocc",
				"energy": 0.09073,
				"method": "rhf"
			}
		],
		"cosmo_sigma_profile": { 
			"-0.025": 0.0,
			"-0.024": 0.0,
			"-0.023": 0.0,
			"-0.022": 0.0,
			"-0.021": 0.0,
			"-0.02": 0.0,
			"-0.019": 0.0,
			"-0.018": 0.0,
			"-0.017": 0.0,
			"-0.016": 0.0,
			"-0.015": 0.0,
			"-0.014": 0.0,
			"-0.013": 0.0,
			"-0.012": 0.0,
			"-0.011": 0.0,
			"-0.01": 0.0,
			"-0.009": 0.0,
			"-0.008": 0.0157511180904,
			"-0.007": 2.62127665099,
			"-0.006": 11.623933512,
			"-0.005": 16.1307283228,
			"-0.004": 16.5999930966,
			"-0.003": 13.5940373851,
			"-0.002": 13.5379471342,
			"-0.001": 12.7429476962,
			"0.0": 12.5555527268,
			"0.001": 12.7611875265,
			"0.002": 15.162337277,
			"0.003": 17.0756924949,
			"0.004": 15.7701671578,
			"0.005": 10.0890617955,
			"0.006": 2.70992082626,
			"0.007": 1.49070525061,
			"0.008": 0.943579237493,
			"0.009": 0.854894025215,
			"0.01": 0.79027135781,
			"0.011": 1.38325516622,
			"0.012": 0.857603531028,
			"0.013": 1.04245004778,
			"0.014": 0.473661630156,
			"0.015": 0.68366492288,
			"0.016": 0.00119293499018,
			"0.017": 0.0,
			"0.018": 0.0,
			"0.019": 0.0,
			"0.02": 0.0,
			"0.021": 0.0,
			"0.022": 0.0,
			"0.023": 0.0,
			"0.024": 0.0,
			"0.025": 0.0
		}
	}
}
