{
	 "smiles": "ClCC(=O)NC(=O)NC1CCCCC1", 
	 "Tm": 377.15, 
	 "num_atms": 29, 
	 "gaussian": { 
		 "optdone": 1, 
		 "sigma_profile": "yes", 
		 "theory": "DFT", 
		 "functional": "B3LYP", 
		 "basiset": "6-31G**", 
		 "properties": { 
			 "R2extent": 4291.0468, 
			 "electric_dipole_moment_norm": 3.73959337629, 
			 "electric_quadrupole_moment_norm": 12.0616311414, 
			 "total_energy": -1072.17275211, 
			 "HOMO_LUMO_gap": 0.22125, 
			 "cosmo_polarized_energy": -15.28, 
			 "cosmo_cavitation_energy": 32.45, 
			 "cosmo_dispersion_energy": -22.35, 
			 "cosmo_repulsion_energy": 1.78, 
			 "cosmo_total_nonelectrostatic_energy": 11.87, 
			 "SMD_solvation_energy": 5.81 
		},
		"coords": [
			{
				"x": -3.4922375443,
				"y": -0.1668512501,
				"z": -2.0157158322,
				"element": "Cl" 
			},
			{
				"x": -3.4115575686,
				"y": 1.1608011884,
				"z": -0.791506619,
				"element": "C" 
			},
			{
				"x": -2.6176019411,
				"y": 2.3539846047,
				"z": -1.3223599228,
				"element": "C" 
			},
			{
				"x": -2.9724801015,
				"y": 2.9631839935,
				"z": -2.3116840581,
				"element": "O" 
			},
			{
				"x": -1.5170703232,
				"y": 2.7909969971,
				"z": -0.5870923648,
				"element": "N" 
			},
			{
				"x": -0.9733638957,
				"y": 2.4004753298,
				"z": 0.6701412091,
				"element": "C" 
			},
			{
				"x": -0.7244696632,
				"y": 3.2468800807,
				"z": 1.5113363547,
				"element": "O" 
			},
			{
				"x": -0.7573180631,
				"y": 1.053588822,
				"z": 0.8541007675,
				"element": "N" 
			},
			{
				"x": -0.2116495582,
				"y": 0.1386809593,
				"z": -0.1700804901,
				"element": "C" 
			},
			{
				"x": -0.4658581716,
				"y": -1.3192123788,
				"z": 0.2299283294,
				"element": "C" 
			},
			{
				"x": -0.0803288638,
				"y": -2.2838178926,
				"z": -0.9190766845,
				"element": "C" 
			},
			{
				"x": 1.054499969,
				"y": -1.7253918434,
				"z": -1.8096273811,
				"element": "C" 
			},
			{
				"x": 2.0193873479,
				"y": -0.8546676897,
				"z": -0.9942454709,
				"element": "C" 
			},
			{
				"x": 1.3001827205,
				"y": 0.38532905,
				"z": -0.4087536877,
				"element": "C" 
			},
			{
				"x": -3.0076159764,
				"y": 0.741023221,
				"z": 0.126163848,
				"element": "H" 
			},
			{
				"x": -4.4358011038,
				"y": 1.5023690063,
				"z": -0.6355362957,
				"element": "H" 
			},
			{
				"x": -1.2769509366,
				"y": 3.7496104638,
				"z": -0.8170535201,
				"element": "H" 
			},
			{
				"x": -0.3651266503,
				"y": 0.9068063774,
				"z": 1.7790374448,
				"element": "H" 
			},
			{
				"x": -0.7560317236,
				"y": 0.334369554,
				"z": -1.0963808761,
				"element": "H" 
			},
			{
				"x": 0.1264803833,
				"y": -1.5424377551,
				"z": 1.1285070173,
				"element": "H" 
			},
			{
				"x": -1.5160750999,
				"y": -1.4552539401,
				"z": 0.50677282,
				"element": "H" 
			},
			{
				"x": 0.2233783364,
				"y": -3.2439548145,
				"z": -0.487069761,
				"element": "H" 
			},
			{
				"x": -0.9614970455,
				"y": -2.4857693826,
				"z": -1.5369239095,
				"element": "H" 
			},
			{
				"x": 0.6288958499,
				"y": -1.1238029232,
				"z": -2.6231788641,
				"element": "H" 
			},
			{
				"x": 1.5924020474,
				"y": -2.5490680767,
				"z": -2.2910531884,
				"element": "H" 
			},
			{
				"x": 2.4383329562,
				"y": -1.4583657965,
				"z": -0.1789906251,
				"element": "H" 
			},
			{
				"x": 2.870082227,
				"y": -0.5375178907,
				"z": -1.6066099735,
				"element": "H" 
			},
			{
				"x": 1.4137798794,
				"y": 1.2484495438,
				"z": -1.0750591165,
				"element": "H" 
			},
			{
				"x": 1.7662125133,
				"y": 0.668062442,
				"z": 0.5434108508,
				"element": "H" 
			}
		],
		 "valence_orbital": [ 
			{
				"type": "occ",
				"energy": -0.30951,
				"method": "rhf"
			},
			{
				"type": "occ",
				"energy": -0.30224,
				"method": "rhf"
			},
			{
				"type": "occ",
				"energy": -0.2833,
				"method": "rhf"
			},
			{
				"type": "occ",
				"energy": -0.27414,
				"method": "rhf"
			},
			{
				"type": "occ",
				"energy": -0.26057,
				"method": "rhf"
			},
			{
				"type": "unocc",
				"energy": -0.03932,
				"method": "rhf"
			},
			{
				"type": "unocc",
				"energy": 0.00798,
				"method": "rhf"
			},
			{
				"type": "unocc",
				"energy": 0.04206,
				"method": "rhf"
			},
			{
				"type": "unocc",
				"energy": 0.0622,
				"method": "rhf"
			},
			{
				"type": "unocc",
				"energy": 0.08122,
				"method": "rhf"
			}
		],
		"cosmo_sigma_profile": { 
			"-0.025": 0.0,
			"-0.024": 0.0,
			"-0.023": 0.0,
			"-0.022": 0.0,
			"-0.021": 0.0,
			"-0.02": 0.0,
			"-0.019": 0.0,
			"-0.018": 0.0,
			"-0.017": 0.0,
			"-0.016": 0.0468885927985,
			"-0.015": 0.727300390223,
			"-0.014": 0.981815622092,
			"-0.013": 1.75673673383,
			"-0.012": 1.6888458994,
			"-0.011": 1.58539640739,
			"-0.01": 2.49960458724,
			"-0.009": 4.62218787032,
			"-0.008": 5.59704104654,
			"-0.007": 5.4467543016,
			"-0.006": 6.14794054034,
			"-0.005": 7.75693395337,
			"-0.004": 10.9834343433,
			"-0.003": 21.1746228171,
			"-0.002": 30.2789176934,
			"-0.001": 31.9002703735,
			"0.0": 29.3783312835,
			"0.001": 23.4157668212,
			"0.002": 9.88909256085,
			"0.003": 6.70354345489,
			"0.004": 6.04726936882,
			"0.005": 7.18037859319,
			"0.006": 5.01170215368,
			"0.007": 3.8000309386,
			"0.008": 2.80891404932,
			"0.009": 3.55027269773,
			"0.01": 4.05988865604,
			"0.011": 5.6815846013,
			"0.012": 9.69831142485,
			"0.013": 4.41607326368,
			"0.014": 0.0767858020086,
			"0.015": 0.0,
			"0.016": 0.0,
			"0.017": 0.0,
			"0.018": 0.0,
			"0.019": 0.0,
			"0.02": 0.0,
			"0.021": 0.0,
			"0.022": 0.0,
			"0.023": 0.0,
			"0.024": 0.0,
			"0.025": 0.0
		}
	}
}
