{
	 "smiles": "OC(=O)CCC(F)(F)C(F)(F)C(F)(F)C(F)(F)C(F)(F)C(F)(F)F", 
	 "Tm": 336.15, 
	 "num_atms": 29, 
	 "gaussian": { 
		 "optdone": 1, 
		 "sigma_profile": "yes", 
		 "theory": "DFT", 
		 "functional": "B3LYP", 
		 "basiset": "6-31G**", 
		 "properties": { 
			 "R2extent": 10800.321, 
			 "electric_dipole_moment_norm": 2.6028718255, 
			 "electric_quadrupole_moment_norm": 17.0387861002, 
			 "total_energy": -1794.3205985, 
			 "HOMO_LUMO_gap": 0.28174, 
			 "cosmo_polarized_energy": -10.41, 
			 "cosmo_cavitation_energy": 38.39, 
			 "cosmo_dispersion_energy": -24.97, 
			 "cosmo_repulsion_energy": 1.69, 
			 "cosmo_total_nonelectrostatic_energy": 15.11, 
			 "SMD_solvation_energy": 11.58 
		},
		"coords": [
			{
				"x": 5.7297084681,
				"y": 0.3771415167,
				"z": 1.4771898088,
				"element": "O" 
			},
			{
				"x": 5.4268601212,
				"y": 1.6971771515,
				"z": 1.5436925089,
				"element": "C" 
			},
			{
				"x": 6.061123738,
				"y": 2.5456102453,
				"z": 0.9618484022,
				"element": "O" 
			},
			{
				"x": 4.2565092978,
				"y": 1.9620744071,
				"z": 2.4726768439,
				"element": "C" 
			},
			{
				"x": 3.0594337029,
				"y": 1.0136988515,
				"z": 2.299803241,
				"element": "C" 
			},
			{
				"x": 2.3005083981,
				"y": 1.2836409785,
				"z": 1.0127907097,
				"element": "C" 
			},
			{
				"x": 1.868616562,
				"y": 2.5811312599,
				"z": 0.993333115,
				"element": "F" 
			},
			{
				"x": 3.1079133273,
				"y": 1.1147756017,
				"z": -0.0747075912,
				"element": "F" 
			},
			{
				"x": 1.0191498477,
				"y": 0.4317472463,
				"z": 0.7892400724,
				"element": "C" 
			},
			{
				"x": 0.4791230702,
				"y": 0.7872557595,
				"z": -0.4008743093,
				"element": "F" 
			},
			{
				"x": 0.1424808836,
				"y": 0.7350610113,
				"z": 1.7802573246,
				"element": "F" 
			},
			{
				"x": 1.2243439361,
				"y": -1.1089476272,
				"z": 0.7918909484,
				"element": "C" 
			},
			{
				"x": 1.4108585817,
				"y": -1.5042842699,
				"z": 2.0802795502,
				"element": "F" 
			},
			{
				"x": 2.3317045477,
				"y": -1.4187884439,
				"z": 0.0815499989,
				"element": "F" 
			},
			{
				"x": 0.0264622822,
				"y": -1.9068014888,
				"z": 0.1949421239,
				"element": "C" 
			},
			{
				"x": 0.0853309397,
				"y": -1.8112207653,
				"z": -1.1530751197,
				"element": "F" 
			},
			{
				"x": -1.1325802148,
				"y": -1.3625398224,
				"z": 0.6296740916,
				"element": "F" 
			},
			{
				"x": 0.0262007595,
				"y": -3.4117463952,
				"z": 0.5879207646,
				"element": "C" 
			},
			{
				"x": -0.3860648154,
				"y": -3.5227018292,
				"z": 1.8690678541,
				"element": "F" 
			},
			{
				"x": 1.2825600637,
				"y": -3.9043358346,
				"z": 0.4777364739,
				"element": "F" 
			},
			{
				"x": -0.9025082222,
				"y": -4.2951291356,
				"z": -0.2871355954,
				"element": "C" 
			},
			{
				"x": -1.0061104749,
				"y": -5.5043875131,
				"z": 0.2766216143,
				"element": "F" 
			},
			{
				"x": -0.397632135,
				"y": -4.434412805,
				"z": -1.5166028693,
				"element": "F" 
			},
			{
				"x": -2.1230431207,
				"y": -3.7489083137,
				"z": -0.3700567631,
				"element": "F" 
			},
			{
				"x": 6.4898165587,
				"y": 0.3030716944,
				"z": 0.8761336902,
				"element": "H" 
			},
			{
				"x": 3.9601164679,
				"y": 3.0032570904,
				"z": 2.3391587934,
				"element": "H" 
			},
			{
				"x": 4.6331098975,
				"y": 1.8523568591,
				"z": 3.4964318563,
				"element": "H" 
			},
			{
				"x": 3.3960347146,
				"y": -0.0243218175,
				"z": 2.3053545876,
				"element": "H" 
			},
			{
				"x": 2.3568728169,
				"y": 1.1438263885,
				"z": 3.1273578741,
				"element": "H" 
			}
		],
		 "valence_orbital": [ 
			{
				"type": "occ",
				"energy": -0.38449,
				"method": "rhf"
			},
			{
				"type": "occ",
				"energy": -0.3626,
				"method": "rhf"
			},
			{
				"type": "occ",
				"energy": -0.33693,
				"method": "rhf"
			},
			{
				"type": "occ",
				"energy": -0.32587,
				"method": "rhf"
			},
			{
				"type": "occ",
				"energy": -0.28156,
				"method": "rhf"
			},
			{
				"type": "unocc",
				"energy": 0.00018,
				"method": "rhf"
			},
			{
				"type": "unocc",
				"energy": 0.00999,
				"method": "rhf"
			},
			{
				"type": "unocc",
				"energy": 0.0217,
				"method": "rhf"
			},
			{
				"type": "unocc",
				"energy": 0.05538,
				"method": "rhf"
			},
			{
				"type": "unocc",
				"energy": 0.06619,
				"method": "rhf"
			}
		],
		"cosmo_sigma_profile": { 
			"-0.025": 0.0,
			"-0.024": 0.0,
			"-0.023": 0.0,
			"-0.022": 0.0,
			"-0.021": 0.0,
			"-0.02": 0.0,
			"-0.019": 0.227860884732,
			"-0.018": 1.04716531028,
			"-0.017": 0.838164475147,
			"-0.016": 0.780446843279,
			"-0.015": 0.572168196951,
			"-0.014": 0.0804709419374,
			"-0.013": 0.591017537989,
			"-0.012": 1.41708482067,
			"-0.011": 0.609249481637,
			"-0.01": 0.721041305812,
			"-0.009": 0.467267720526,
			"-0.008": 4.08559689909,
			"-0.007": 6.69004898793,
			"-0.006": 7.51465692995,
			"-0.005": 8.38354743688,
			"-0.004": 11.8053251909,
			"-0.003": 13.2287573012,
			"-0.002": 17.1084423121,
			"-0.001": 20.461585066,
			"0.0": 46.6770183133,
			"0.001": 90.1147463501,
			"0.002": 33.2898348691,
			"0.003": 13.9086475797,
			"0.004": 3.50900241969,
			"0.005": 3.44281180249,
			"0.006": 1.64705164272,
			"0.007": 1.6431795201,
			"0.008": 2.36062694107,
			"0.009": 2.37640601971,
			"0.01": 1.86230388908,
			"0.011": 4.57895895015,
			"0.012": 3.67934411701,
			"0.013": 0.438266046771,
			"0.014": 0.0,
			"0.015": 0.0,
			"0.016": 0.0,
			"0.017": 0.0,
			"0.018": 0.0,
			"0.019": 0.0,
			"0.02": 0.0,
			"0.021": 0.0,
			"0.022": 0.0,
			"0.023": 0.0,
			"0.024": 0.0,
			"0.025": 0.0
		}
	}
}
