{
	 "smiles": "CC(=O)NCC1=CC=C(N)C=C1", 
	 "Tm": 366.15, 
	 "num_atms": 24, 
	 "gaussian": { 
		 "optdone": 1, 
		 "sigma_profile": "yes", 
		 "theory": "DFT", 
		 "functional": "B3LYP", 
		 "basiset": "6-31G**", 
		 "properties": { 
			 "R2extent": 2858.9368, 
			 "electric_dipole_moment_norm": 5.22751078048, 
			 "electric_quadrupole_moment_norm": 11.059144376, 
			 "total_energy": -534.936537556, 
			 "HOMO_LUMO_gap": 0.20037, 
			 "cosmo_polarized_energy": -16.49, 
			 "cosmo_cavitation_energy": 27.66, 
			 "cosmo_dispersion_energy": -19.72, 
			 "cosmo_repulsion_energy": 1.6, 
			 "cosmo_total_nonelectrostatic_energy": 9.54, 
			 "SMD_solvation_energy": 5.25 
		},
		"coords": [
			{
				"x": 0.4128372903,
				"y": -2.3738930968,
				"z": -1.0954351791,
				"element": "C" 
			},
			{
				"x": 0.3976945538,
				"y": -1.3925734055,
				"z": -2.2559356283,
				"element": "C" 
			},
			{
				"x": 1.2905033317,
				"y": -1.344735931,
				"z": -3.0920937648,
				"element": "O" 
			},
			{
				"x": -0.6944013556,
				"y": -0.5606652371,
				"z": -2.3426560104,
				"element": "N" 
			},
			{
				"x": -1.7834094053,
				"y": -0.4192934997,
				"z": -1.3886336001,
				"element": "C" 
			},
			{
				"x": -1.4780115023,
				"y": 0.4056869383,
				"z": -0.1435364857,
				"element": "C" 
			},
			{
				"x": -2.2408137482,
				"y": 0.2257421364,
				"z": 1.0172201287,
				"element": "C" 
			},
			{
				"x": -2.0271443377,
				"y": 0.9981001003,
				"z": 2.1547981725,
				"element": "C" 
			},
			{
				"x": -1.0253090197,
				"y": 1.9842937953,
				"z": 2.1701531022,
				"element": "C" 
			},
			{
				"x": -0.7619100821,
				"y": 2.7188749135,
				"z": 3.3279816697,
				"element": "N" 
			},
			{
				"x": -0.253476844,
				"y": 2.1633613772,
				"z": 1.0100690213,
				"element": "C" 
			},
			{
				"x": -0.4808693645,
				"y": 1.3864278162,
				"z": -0.1232295464,
				"element": "C" 
			},
			{
				"x": 1.3633805236,
				"y": -2.9058665994,
				"z": -1.1176521652,
				"element": "H" 
			},
			{
				"x": -0.4031335342,
				"y": -3.0997983202,
				"z": -1.1875071269,
				"element": "H" 
			},
			{
				"x": 0.2967326574,
				"y": -1.863042814,
				"z": -0.134764696,
				"element": "H" 
			},
			{
				"x": -0.6439858347,
				"y": 0.0836292235,
				"z": -3.1199356822,
				"element": "H" 
			},
			{
				"x": -2.6206921349,
				"y": 0.0322549628,
				"z": -1.935636496,
				"element": "H" 
			},
			{
				"x": -2.1336828015,
				"y": -1.412761862,
				"z": -1.0855858727,
				"element": "H" 
			},
			{
				"x": -3.0207509272,
				"y": -0.5331460173,
				"z": 1.0355535592,
				"element": "H" 
			},
			{
				"x": -2.6280922124,
				"y": 0.8303559917,
				"z": 3.0454316754,
				"element": "H" 
			},
			{
				"x": -1.5385618019,
				"y": 2.8049720977,
				"z": 3.9689798007,
				"element": "H" 
			},
			{
				"x": -0.2977515586,
				"y": 3.6041926862,
				"z": 3.1786272428,
				"element": "H" 
			},
			{
				"x": 0.5348916054,
				"y": 2.9123308454,
				"z": 1.0020277988,
				"element": "H" 
			},
			{
				"x": 0.1363565028,
				"y": 1.5404538983,
				"z": -1.0036399178,
				"element": "H" 
			}
		],
		 "valence_orbital": [ 
			{
				"type": "occ",
				"energy": -0.3057,
				"method": "rhf"
			},
			{
				"type": "occ",
				"energy": -0.25062,
				"method": "rhf"
			},
			{
				"type": "occ",
				"energy": -0.24359,
				"method": "rhf"
			},
			{
				"type": "occ",
				"energy": -0.2362,
				"method": "rhf"
			},
			{
				"type": "occ",
				"energy": -0.20303,
				"method": "rhf"
			},
			{
				"type": "unocc",
				"energy": -0.00266,
				"method": "rhf"
			},
			{
				"type": "unocc",
				"energy": 0.01162,
				"method": "rhf"
			},
			{
				"type": "unocc",
				"energy": 0.038,
				"method": "rhf"
			},
			{
				"type": "unocc",
				"energy": 0.07738,
				"method": "rhf"
			},
			{
				"type": "unocc",
				"energy": 0.08638,
				"method": "rhf"
			}
		],
		"cosmo_sigma_profile": { 
			"-0.025": 0.0,
			"-0.024": 0.0,
			"-0.023": 0.0,
			"-0.022": 0.0,
			"-0.021": 0.0,
			"-0.02": 0.0,
			"-0.019": 0.0,
			"-0.018": 0.0,
			"-0.017": 0.0,
			"-0.016": 0.0,
			"-0.015": 0.0,
			"-0.014": 0.0175249884994,
			"-0.013": 0.866617885772,
			"-0.012": 3.35420646462,
			"-0.011": 3.93940911542,
			"-0.01": 3.69928769591,
			"-0.009": 4.05321903804,
			"-0.008": 4.47943911507,
			"-0.007": 4.07947058127,
			"-0.006": 10.480265144,
			"-0.005": 17.3814048111,
			"-0.004": 16.7235606178,
			"-0.003": 16.9775073661,
			"-0.002": 15.670599625,
			"-0.001": 16.3775355347,
			"0.0": 14.4272338646,
			"0.001": 9.55082066133,
			"0.002": 7.66286507814,
			"0.003": 7.9725192635,
			"0.004": 8.85317576274,
			"0.005": 9.13080795697,
			"0.006": 9.51298174089,
			"0.007": 7.99252553085,
			"0.008": 2.59508590944,
			"0.009": 1.88996877865,
			"0.01": 1.38693325055,
			"0.011": 2.76813437723,
			"0.012": 2.26301704172,
			"0.013": 3.30210852626,
			"0.014": 6.2746500003,
			"0.015": 3.71637477407,
			"0.016": 0.3336766705,
			"0.017": 0.0,
			"0.018": 0.0,
			"0.019": 0.0,
			"0.02": 0.0,
			"0.021": 0.0,
			"0.022": 0.0,
			"0.023": 0.0,
			"0.024": 0.0,
			"0.025": 0.0
		}
	}
}
