{
	 "smiles": "CCOC(=O)C(=CNC1=C(OC)C=CC(C)=C1)C#N", 
	 "Tm": 405.15, 
	 "num_atms": 35, 
	 "gaussian": { 
		 "optdone": 1, 
		 "sigma_profile": "yes", 
		 "theory": "DFT", 
		 "functional": "B3LYP", 
		 "basiset": "6-31G**", 
		 "properties": { 
			 "R2extent": 7443.6635, 
			 "electric_dipole_moment_norm": 6.53752460263, 
			 "electric_quadrupole_moment_norm": 20.6544874066, 
			 "total_energy": -878.305736327, 
			 "HOMO_LUMO_gap": 0.15212, 
			 "cosmo_polarized_energy": -16.59, 
			 "cosmo_cavitation_energy": 40.55, 
			 "cosmo_dispersion_energy": -28.08, 
			 "cosmo_repulsion_energy": 2.2, 
			 "cosmo_total_nonelectrostatic_energy": 14.67, 
			 "SMD_solvation_energy": 10.16 
		},
		"coords": [
			{
				"x": 1.9149572752,
				"y": -1.447253312,
				"z": -5.3526859056,
				"element": "C" 
			},
			{
				"x": 1.110287217,
				"y": -1.5656216819,
				"z": -4.0725524474,
				"element": "C" 
			},
			{
				"x": 1.4897361614,
				"y": -0.4588429123,
				"z": -3.2231547039,
				"element": "O" 
			},
			{
				"x": 0.8803086576,
				"y": -0.3892027772,
				"z": -2.0279909051,
				"element": "C" 
			},
			{
				"x": 0.0415217518,
				"y": -1.2070341523,
				"z": -1.6526542285,
				"element": "O" 
			},
			{
				"x": 1.3207897995,
				"y": 0.7571671477,
				"z": -1.226988494,
				"element": "C" 
			},
			{
				"x": 0.7907888648,
				"y": 0.9922909821,
				"z": 0.0296969234,
				"element": "C" 
			},
			{
				"x": -0.137054907,
				"y": 0.2354546489,
				"z": 0.6307710228,
				"element": "N" 
			},
			{
				"x": -0.7165577074,
				"y": 0.4444775422,
				"z": 1.89488541,
				"element": "C" 
			},
			{
				"x": -1.5734909219,
				"y": -0.5763411554,
				"z": 2.3721814425,
				"element": "C" 
			},
			{
				"x": -1.7251897381,
				"y": -1.6406395856,
				"z": 1.5301305126,
				"element": "O" 
			},
			{
				"x": -2.5878282175,
				"y": -2.6985241853,
				"z": 1.9210740693,
				"element": "C" 
			},
			{
				"x": -2.1828410769,
				"y": -0.4365778464,
				"z": 3.6155293223,
				"element": "C" 
			},
			{
				"x": -1.9472387792,
				"y": 0.7062857474,
				"z": 4.3877610814,
				"element": "C" 
			},
			{
				"x": -1.1094278397,
				"y": 1.7256232197,
				"z": 3.9341932903,
				"element": "C" 
			},
			{
				"x": -0.8494634332,
				"y": 2.9617039312,
				"z": 4.7632656544,
				"element": "C" 
			},
			{
				"x": -0.5041895942,
				"y": 1.5790498811,
				"z": 2.6771173561,
				"element": "C" 
			},
			{
				"x": 2.3081854881,
				"y": 1.6547214263,
				"z": -1.724329491,
				"element": "C" 
			},
			{
				"x": 3.1138948247,
				"y": 2.4043500085,
				"z": -2.1075273438,
				"element": "N" 
			},
			{
				"x": 2.987546194,
				"y": -1.4920543768,
				"z": -5.1447587846,
				"element": "H" 
			},
			{
				"x": 1.7031791329,
				"y": -0.5023265067,
				"z": -5.8605780282,
				"element": "H" 
			},
			{
				"x": 1.6581552636,
				"y": -2.2691266633,
				"z": -6.028365095,
				"element": "H" 
			},
			{
				"x": 1.3119113072,
				"y": -2.502185024,
				"z": -3.5429035476,
				"element": "H" 
			},
			{
				"x": 0.0322513567,
				"y": -1.5160677092,
				"z": -4.2561770724,
				"element": "H" 
			},
			{
				"x": 1.1541438835,
				"y": 1.8524833669,
				"z": 0.5811367065,
				"element": "H" 
			},
			{
				"x": -0.4392078754,
				"y": -0.587397881,
				"z": 0.1028348488,
				"element": "H" 
			},
			{
				"x": -3.6161688209,
				"y": -2.3440130009,
				"z": 2.0639439613,
				"element": "H" 
			},
			{
				"x": -2.2388397623,
				"y": -3.1786490503,
				"z": 2.84371197,
				"element": "H" 
			},
			{
				"x": -2.5635467008,
				"y": -3.421503368,
				"z": 1.1051763816,
				"element": "H" 
			},
			{
				"x": -2.8410466349,
				"y": -1.2105549815,
				"z": 3.9919607254,
				"element": "H" 
			},
			{
				"x": -2.4312801845,
				"y": 0.7981344753,
				"z": 5.3558417681,
				"element": "H" 
			},
			{
				"x": -1.0677079657,
				"y": 3.8762560638,
				"z": 4.2004712314,
				"element": "H" 
			},
			{
				"x": -1.4669174359,
				"y": 2.9703147722,
				"z": 5.6654178057,
				"element": "H" 
			},
			{
				"x": 0.1990998018,
				"y": 3.0200773787,
				"z": 5.0785801314,
				"element": "H" 
			},
			{
				"x": 0.1336406158,
				"y": 2.3777255778,
				"z": 2.3109844317,
				"element": "H" 
			}
		],
		 "valence_orbital": [ 
			{
				"type": "occ",
				"energy": -0.30037,
				"method": "rhf"
			},
			{
				"type": "occ",
				"energy": -0.27691,
				"method": "rhf"
			},
			{
				"type": "occ",
				"energy": -0.26906,
				"method": "rhf"
			},
			{
				"type": "occ",
				"energy": -0.23823,
				"method": "rhf"
			},
			{
				"type": "occ",
				"energy": -0.20625,
				"method": "rhf"
			},
			{
				"type": "unocc",
				"energy": -0.05413,
				"method": "rhf"
			},
			{
				"type": "unocc",
				"energy": -0.00347,
				"method": "rhf"
			},
			{
				"type": "unocc",
				"energy": 0.01209,
				"method": "rhf"
			},
			{
				"type": "unocc",
				"energy": 0.0373,
				"method": "rhf"
			},
			{
				"type": "unocc",
				"energy": 0.04833,
				"method": "rhf"
			}
		],
		"cosmo_sigma_profile": { 
			"-0.025": 0.0,
			"-0.024": 0.0,
			"-0.023": 0.0,
			"-0.022": 0.0,
			"-0.021": 0.0,
			"-0.02": 0.0,
			"-0.019": 0.0,
			"-0.018": 0.0,
			"-0.017": 0.0,
			"-0.016": 0.0,
			"-0.015": 0.0,
			"-0.014": 0.0,
			"-0.013": 0.0,
			"-0.012": 0.709939969618,
			"-0.011": 1.81369221362,
			"-0.01": 1.93963004145,
			"-0.009": 1.90473273161,
			"-0.008": 1.96403281362,
			"-0.007": 3.93778880557,
			"-0.006": 11.1891585,
			"-0.005": 23.4704174574,
			"-0.004": 33.1589112587,
			"-0.003": 32.1285674984,
			"-0.002": 30.9781796451,
			"-0.001": 30.4649514965,
			"0.0": 31.7462934486,
			"0.001": 19.1900424949,
			"0.002": 13.583978975,
			"0.003": 14.4305365098,
			"0.004": 13.822212068,
			"0.005": 13.5009633662,
			"0.006": 6.5896833287,
			"0.007": 5.70924490973,
			"0.008": 5.98251235677,
			"0.009": 5.93582502526,
			"0.01": 5.22014424827,
			"0.011": 5.64924753587,
			"0.012": 3.86437705532,
			"0.013": 2.69213563723,
			"0.014": 1.63513577204,
			"0.015": 0.0295101267649,
			"0.016": 0.0,
			"0.017": 0.0,
			"0.018": 0.0,
			"0.019": 0.0,
			"0.02": 0.0,
			"0.021": 0.0,
			"0.022": 0.0,
			"0.023": 0.0,
			"0.024": 0.0,
			"0.025": 0.0
		}
	}
}
