{
	 "smiles": "BrC1=CC2=C(C=C1)C(=O)CCO2", 
	 "Tm": 363.15, 
	 "num_atms": 19, 
	 "gaussian": { 
		 "optdone": 1, 
		 "sigma_profile": "yes", 
		 "theory": "DFT", 
		 "functional": "B3LYP", 
		 "basiset": "6-31G**", 
		 "properties": { 
			 "R2extent": 5435.8392, 
			 "electric_dipole_moment_norm": 2.12449453047, 
			 "electric_quadrupole_moment_norm": 8.91528190412, 
			 "total_energy": -3069.02566227, 
			 "HOMO_LUMO_gap": 0.17661, 
			 "cosmo_polarized_energy": -8.65, 
			 "cosmo_cavitation_energy": 25.14, 
			 "cosmo_dispersion_energy": -19.39, 
			 "cosmo_repulsion_energy": 1.54, 
			 "cosmo_total_nonelectrostatic_energy": 7.29, 
			 "SMD_solvation_energy": 3.72 
		},
		"coords": [
			{
				"x": -2.6888540356,
				"y": 1.8954346887,
				"z": 4.3291760788,
				"element": "Br" 
			},
			{
				"x": -1.9316895983,
				"y": 0.962559224,
				"z": 2.846993923,
				"element": "C" 
			},
			{
				"x": -0.7098735222,
				"y": 1.3861559926,
				"z": 2.3420102191,
				"element": "C" 
			},
			{
				"x": -0.1585047611,
				"y": 0.7019149021,
				"z": 1.2507093444,
				"element": "C" 
			},
			{
				"x": -0.8289075957,
				"y": -0.4045190806,
				"z": 0.6887263944,
				"element": "C" 
			},
			{
				"x": -2.0683909912,
				"y": -0.7920264898,
				"z": 1.2237365454,
				"element": "C" 
			},
			{
				"x": -2.6320652502,
				"y": -0.1204440231,
				"z": 2.2974182929,
				"element": "C" 
			},
			{
				"x": -0.1993184133,
				"y": -1.1919497653,
				"z": -0.3965228637,
				"element": "C" 
			},
			{
				"x": -0.7422498474,
				"y": -2.147035274,
				"z": -0.9292758117,
				"element": "O" 
			},
			{
				"x": 1.2116402281,
				"y": -0.7449342445,
				"z": -0.7596070166,
				"element": "C" 
			},
			{
				"x": 1.3670968972,
				"y": 0.7573435051,
				"z": -0.5570749482,
				"element": "C" 
			},
			{
				"x": 1.036132543,
				"y": 1.1519291499,
				"z": 0.7855578923,
				"element": "O" 
			},
			{
				"x": -0.1821419762,
				"y": 2.2335741412,
				"z": 2.7615661727,
				"element": "H" 
			},
			{
				"x": -2.563288377,
				"y": -1.647851793,
				"z": 0.77556082,
				"element": "H" 
			},
			{
				"x": -3.585610705,
				"y": -0.4223713627,
				"z": 2.7131544164,
				"element": "H" 
			},
			{
				"x": 1.4284454916,
				"y": -1.0327886191,
				"z": -1.7919361541,
				"element": "H" 
			},
			{
				"x": 1.9145051639,
				"y": -1.283056801,
				"z": -0.1090289128,
				"element": "H" 
			},
			{
				"x": 2.3956992239,
				"y": 1.088588062,
				"z": -0.7110404405,
				"element": "H" 
			},
			{
				"x": 0.7157755255,
				"y": 1.3077777877,
				"z": -1.2506239518,
				"element": "H" 
			}
		],
		 "valence_orbital": [ 
			{
				"type": "occ",
				"energy": -0.30867,
				"method": "rhf"
			},
			{
				"type": "occ",
				"energy": -0.29475,
				"method": "rhf"
			},
			{
				"type": "occ",
				"energy": -0.25749,
				"method": "rhf"
			},
			{
				"type": "occ",
				"energy": -0.25453,
				"method": "rhf"
			},
			{
				"type": "occ",
				"energy": -0.24259,
				"method": "rhf"
			},
			{
				"type": "unocc",
				"energy": -0.06598,
				"method": "rhf"
			},
			{
				"type": "unocc",
				"energy": -0.01446,
				"method": "rhf"
			},
			{
				"type": "unocc",
				"energy": -0.00061,
				"method": "rhf"
			},
			{
				"type": "unocc",
				"energy": 0.02735,
				"method": "rhf"
			},
			{
				"type": "unocc",
				"energy": 0.09363,
				"method": "rhf"
			}
		],
		"cosmo_sigma_profile": { 
			"-0.025": 0.0,
			"-0.024": 0.0,
			"-0.023": 0.0,
			"-0.022": 0.0,
			"-0.021": 0.0,
			"-0.02": 0.0,
			"-0.019": 0.0,
			"-0.018": 0.0,
			"-0.017": 0.0,
			"-0.016": 0.0,
			"-0.015": 0.0,
			"-0.014": 0.0,
			"-0.013": 0.0,
			"-0.012": 0.0,
			"-0.011": 0.0,
			"-0.01": 0.0,
			"-0.009": 0.0,
			"-0.008": 0.988700767437,
			"-0.007": 9.40284923495,
			"-0.006": 17.9325646581,
			"-0.005": 17.8899263485,
			"-0.004": 13.4928300319,
			"-0.003": 11.7120124028,
			"-0.002": 10.9368188178,
			"-0.001": 10.0140859498,
			"0.0": 14.8352591589,
			"0.001": 24.0916928308,
			"0.002": 19.0246322253,
			"0.003": 14.4189550669,
			"0.004": 13.840707172,
			"0.005": 3.82641425683,
			"0.006": 2.91611204638,
			"0.007": 2.02211183638,
			"0.008": 2.6772964032,
			"0.009": 3.21781462216,
			"0.01": 2.43106735632,
			"0.011": 3.17113589536,
			"0.012": 4.25253671458,
			"0.013": 1.29133370244,
			"0.014": 0.0603204409415,
			"0.015": 0.0,
			"0.016": 0.0,
			"0.017": 0.0,
			"0.018": 0.0,
			"0.019": 0.0,
			"0.02": 0.0,
			"0.021": 0.0,
			"0.022": 0.0,
			"0.023": 0.0,
			"0.024": 0.0,
			"0.025": 0.0
		}
	}
}
