{
	 "smiles": "CCC(C1=CC=CC=C1)C1=C(O)OC2=CC=CC=C2C1=O", 
	 "Tm": 452.65, 
	 "num_atms": 37, 
	 "gaussian": { 
		 "optdone": 1, 
		 "sigma_profile": "yes", 
		 "theory": "DFT", 
		 "functional": "B3LYP", 
		 "basiset": "6-31G**", 
		 "properties": { 
			 "R2extent": 6665.2759, 
			 "electric_dipole_moment_norm": 5.01202787103, 
			 "electric_quadrupole_moment_norm": 11.3240724075, 
			 "total_energy": -921.237138563, 
			 "HOMO_LUMO_gap": 0.17442, 
			 "cosmo_polarized_energy": -14.57, 
			 "cosmo_cavitation_energy": 39.89, 
			 "cosmo_dispersion_energy": -28.06, 
			 "cosmo_repulsion_energy": 2.15, 
			 "cosmo_total_nonelectrostatic_energy": 13.97, 
			 "SMD_solvation_energy": 7.94 
		},
		"coords": [
			{
				"x": 3.7665198539,
				"y": 0.3705468075,
				"z": 1.2690882324,
				"element": "C" 
			},
			{
				"x": 2.4209160857,
				"y": -0.3576416482,
				"z": 1.3385922975,
				"element": "C" 
			},
			{
				"x": 1.223784277,
				"y": 0.5589858463,
				"z": 0.9777513155,
				"element": "C" 
			},
			{
				"x": 1.2743742539,
				"y": 1.0955845003,
				"z": -0.4549725529,
				"element": "C" 
			},
			{
				"x": 1.3135378714,
				"y": 0.2428549674,
				"z": -1.5699279544,
				"element": "C" 
			},
			{
				"x": 1.3609105977,
				"y": 0.7668163433,
				"z": -2.8623104927,
				"element": "C" 
			},
			{
				"x": 1.3703575036,
				"y": 2.148295711,
				"z": -3.0686214665,
				"element": "C" 
			},
			{
				"x": 1.3303449668,
				"y": 3.005076488,
				"z": -1.9686036315,
				"element": "C" 
			},
			{
				"x": 1.2831316241,
				"y": 2.4797433861,
				"z": -0.6756003746,
				"element": "C" 
			},
			{
				"x": -0.1256493885,
				"y": -0.0847052551,
				"z": 1.2997887203,
				"element": "C" 
			},
			{
				"x": -1.0544408253,
				"y": 0.6274286204,
				"z": 1.9976459749,
				"element": "C" 
			},
			{
				"x": -0.8495661007,
				"y": 1.8843604003,
				"z": 2.4244467996,
				"element": "O" 
			},
			{
				"x": -2.2865082602,
				"y": 0.1986942893,
				"z": 2.3615574063,
				"element": "O" 
			},
			{
				"x": -2.6811188738,
				"y": -1.0776947338,
				"z": 2.0179853473,
				"element": "C" 
			},
			{
				"x": -3.9532587524,
				"y": -1.4823261129,
				"z": 2.4240692629,
				"element": "C" 
			},
			{
				"x": -4.3757034384,
				"y": -2.7642836776,
				"z": 2.0901449917,
				"element": "C" 
			},
			{
				"x": -3.5390064637,
				"y": -3.6248972852,
				"z": 1.3616591695,
				"element": "C" 
			},
			{
				"x": -2.278201888,
				"y": -3.1986210438,
				"z": 0.9675452713,
				"element": "C" 
			},
			{
				"x": -1.8271120735,
				"y": -1.9096601204,
				"z": 1.293382114,
				"element": "C" 
			},
			{
				"x": -0.4809366574,
				"y": -1.4368059588,
				"z": 0.872956935,
				"element": "C" 
			},
			{
				"x": 0.2574086479,
				"y": -2.1722070732,
				"z": 0.2094639659,
				"element": "O" 
			},
			{
				"x": 4.5849408171,
				"y": -0.2990132319,
				"z": 1.5533034881,
				"element": "H" 
			},
			{
				"x": 3.9702582907,
				"y": 0.7376329404,
				"z": 0.2584697614,
				"element": "H" 
			},
			{
				"x": 3.7922524911,
				"y": 1.2327724468,
				"z": 1.9465111775,
				"element": "H" 
			},
			{
				"x": 2.4250166323,
				"y": -1.2328268587,
				"z": 0.6861994062,
				"element": "H" 
			},
			{
				"x": 2.2615297635,
				"y": -0.7346216102,
				"z": 2.3571597692,
				"element": "H" 
			},
			{
				"x": 1.3040790189,
				"y": 1.4337220561,
				"z": 1.6313357984,
				"element": "H" 
			},
			{
				"x": 1.2898877383,
				"y": -0.8307889906,
				"z": -1.4174157395,
				"element": "H" 
			},
			{
				"x": 1.3898341863,
				"y": 0.0909649083,
				"z": -3.7129742669,
				"element": "H" 
			},
			{
				"x": 1.4088881101,
				"y": 2.5518823258,
				"z": -4.0766818716,
				"element": "H" 
			},
			{
				"x": 1.338415525,
				"y": 4.0821150856,
				"z": -2.1138360235,
				"element": "H" 
			},
			{
				"x": 1.2509932735,
				"y": 3.1540493485,
				"z": 0.1769349895,
				"element": "H" 
			},
			{
				"x": -1.6413554766,
				"y": 2.1781472059,
				"z": 2.898822134,
				"element": "H" 
			},
			{
				"x": -4.5810645233,
				"y": -0.7983891568,
				"z": 2.9851225726,
				"element": "H" 
			},
			{
				"x": -5.3624175148,
				"y": -3.0973833713,
				"z": 2.3975320318,
				"element": "H" 
			},
			{
				"x": -3.8812243543,
				"y": -4.6231192349,
				"z": 1.1070745905,
				"element": "H" 
			},
			{
				"x": -1.6049169379,
				"y": -3.8336883141,
				"z": 0.4015008507,
				"element": "H" 
			}
		],
		 "valence_orbital": [ 
			{
				"type": "occ",
				"energy": -0.25941,
				"method": "rhf"
			},
			{
				"type": "occ",
				"energy": -0.24076,
				"method": "rhf"
			},
			{
				"type": "occ",
				"energy": -0.23525,
				"method": "rhf"
			},
			{
				"type": "occ",
				"energy": -0.23409,
				"method": "rhf"
			},
			{
				"type": "occ",
				"energy": -0.22415,
				"method": "rhf"
			},
			{
				"type": "unocc",
				"energy": -0.04973,
				"method": "rhf"
			},
			{
				"type": "unocc",
				"energy": -0.01676,
				"method": "rhf"
			},
			{
				"type": "unocc",
				"energy": 0.00225,
				"method": "rhf"
			},
			{
				"type": "unocc",
				"energy": 0.01195,
				"method": "rhf"
			},
			{
				"type": "unocc",
				"energy": 0.01639,
				"method": "rhf"
			}
		],
		"cosmo_sigma_profile": { 
			"-0.025": 0.0,
			"-0.024": 0.0,
			"-0.023": 0.0,
			"-0.022": 0.0,
			"-0.021": 0.0,
			"-0.02": 0.104083436632,
			"-0.019": 0.949442034932,
			"-0.018": 1.11740884569,
			"-0.017": 0.811147399809,
			"-0.016": 0.513341245008,
			"-0.015": 0.87592010014,
			"-0.014": 0.604603120191,
			"-0.013": 1.06779540391,
			"-0.012": 0.692667459986,
			"-0.011": 0.699132503156,
			"-0.01": 0.558965566333,
			"-0.009": 0.918698982875,
			"-0.008": 1.8086393019,
			"-0.007": 4.85679208731,
			"-0.006": 8.57103089387,
			"-0.005": 15.9851721201,
			"-0.004": 19.6994904539,
			"-0.003": 23.9412069546,
			"-0.002": 25.4370601963,
			"-0.001": 28.9761125829,
			"0.0": 32.3260934524,
			"0.001": 32.9527867903,
			"0.002": 30.4795132978,
			"0.003": 24.3244608246,
			"0.004": 17.8412279115,
			"0.005": 12.7687306415,
			"0.006": 10.8936168666,
			"0.007": 6.95255077418,
			"0.008": 1.26152026533,
			"0.009": 1.75604713825,
			"0.01": 1.54415851943,
			"0.011": 1.55350853451,
			"0.012": 1.93540891255,
			"0.013": 2.07343833704,
			"0.014": 1.03223142838,
			"0.015": 0.0,
			"0.016": 0.0,
			"0.017": 0.0,
			"0.018": 0.0,
			"0.019": 0.0,
			"0.02": 0.0,
			"0.021": 0.0,
			"0.022": 0.0,
			"0.023": 0.0,
			"0.024": 0.0,
			"0.025": 0.0
		}
	}
}
