{
	 "smiles": "NC1=NC2=C(S1)C=CC=C2OC(F)F", 
	 "Tm": 418.15, 
	 "num_atms": 20, 
	 "gaussian": { 
		 "optdone": 1, 
		 "sigma_profile": "yes", 
		 "theory": "DFT", 
		 "functional": "B3LYP", 
		 "basiset": "6-31G**", 
		 "properties": { 
			 "R2extent": 3453.2794, 
			 "electric_dipole_moment_norm": 4.45640511062, 
			 "electric_quadrupole_moment_norm": 15.4785658221, 
			 "total_energy": -1091.06372792, 
			 "HOMO_LUMO_gap": 0.19723, 
			 "cosmo_polarized_energy": -12.19, 
			 "cosmo_cavitation_energy": 27.2, 
			 "cosmo_dispersion_energy": -20.35, 
			 "cosmo_repulsion_energy": 1.53, 
			 "cosmo_total_nonelectrostatic_energy": 8.38, 
			 "SMD_solvation_energy": 4.47 
		},
		"coords": [
			{
				"x": -1.293895029,
				"y": 3.5289328955,
				"z": -1.4269864697,
				"element": "N" 
			},
			{
				"x": -1.5704962616,
				"y": 2.2897063524,
				"z": -0.9207616162,
				"element": "C" 
			},
			{
				"x": -0.7025063004,
				"y": 1.5462536144,
				"z": -0.3062418081,
				"element": "N" 
			},
			{
				"x": -1.2943446069,
				"y": 0.3790998474,
				"z": 0.1533618698,
				"element": "C" 
			},
			{
				"x": -2.6710024196,
				"y": 0.2227299968,
				"z": -0.1354380599,
				"element": "C" 
			},
			{
				"x": -3.2327340234,
				"y": 1.6465201674,
				"z": -1.0130247108,
				"element": "S" 
			},
			{
				"x": -3.4008204144,
				"y": -0.8954402123,
				"z": 0.2620313606,
				"element": "C" 
			},
			{
				"x": -2.7284713796,
				"y": -1.8910051159,
				"z": 0.9704020185,
				"element": "C" 
			},
			{
				"x": -1.3646988014,
				"y": -1.7699537049,
				"z": 1.2631888418,
				"element": "C" 
			},
			{
				"x": -0.6458082523,
				"y": -0.6489607874,
				"z": 0.8617579175,
				"element": "C" 
			},
			{
				"x": 0.6779220322,
				"y": -0.5570193217,
				"z": 1.2614385132,
				"element": "O" 
			},
			{
				"x": 1.6315006944,
				"y": -0.320675576,
				"z": 0.2902930912,
				"element": "C" 
			},
			{
				"x": 2.7969455962,
				"y": -0.1643152942,
				"z": 0.9474126831,
				"element": "F" 
			},
			{
				"x": 1.7505075815,
				"y": -1.4109130023,
				"z": -0.5197163539,
				"element": "F" 
			},
			{
				"x": -1.8605019238,
				"y": 3.8730108951,
				"z": -2.1873301541,
				"element": "H" 
			},
			{
				"x": -0.3087448219,
				"y": 3.7473469616,
				"z": -1.4860767808,
				"element": "H" 
			},
			{
				"x": -4.4570342877,
				"y": -0.9895583041,
				"z": 0.0335120182,
				"element": "H" 
			},
			{
				"x": -3.2674279562,
				"y": -2.7749090649,
				"z": 1.2962733043,
				"element": "H" 
			},
			{
				"x": -0.8387748452,
				"y": -2.5435915305,
				"z": 1.8117034681,
				"element": "H" 
			},
			{
				"x": 1.416985419,
				"y": 0.5568411836,
				"z": -0.3227991324,
				"element": "H" 
			}
		],
		 "valence_orbital": [ 
			{
				"type": "occ",
				"energy": -0.30753,
				"method": "rhf"
			},
			{
				"type": "occ",
				"energy": -0.29654,
				"method": "rhf"
			},
			{
				"type": "occ",
				"energy": -0.28776,
				"method": "rhf"
			},
			{
				"type": "occ",
				"energy": -0.23449,
				"method": "rhf"
			},
			{
				"type": "occ",
				"energy": -0.22109,
				"method": "rhf"
			},
			{
				"type": "unocc",
				"energy": -0.02386,
				"method": "rhf"
			},
			{
				"type": "unocc",
				"energy": -0.00889,
				"method": "rhf"
			},
			{
				"type": "unocc",
				"energy": -0.00643,
				"method": "rhf"
			},
			{
				"type": "unocc",
				"energy": 0.0345,
				"method": "rhf"
			},
			{
				"type": "unocc",
				"energy": 0.05717,
				"method": "rhf"
			}
		],
		"cosmo_sigma_profile": { 
			"-0.025": 0.0,
			"-0.024": 0.0,
			"-0.023": 0.0,
			"-0.022": 0.0,
			"-0.021": 0.0,
			"-0.02": 0.0,
			"-0.019": 0.0,
			"-0.018": 0.0,
			"-0.017": 0.0,
			"-0.016": 0.133424949453,
			"-0.015": 1.86650217402,
			"-0.014": 2.83643587624,
			"-0.013": 2.23123837515,
			"-0.012": 2.3518215523,
			"-0.011": 3.33529456323,
			"-0.01": 1.91830692737,
			"-0.009": 1.27884440999,
			"-0.008": 2.87913184438,
			"-0.007": 6.46052295532,
			"-0.006": 8.59383833598,
			"-0.005": 9.49915135697,
			"-0.004": 9.77767442963,
			"-0.003": 7.16958645666,
			"-0.002": 9.55743780632,
			"-0.001": 10.6593207679,
			"0.0": 11.7393010363,
			"0.001": 16.7713633018,
			"0.002": 21.3695435015,
			"0.003": 28.814283228,
			"0.004": 37.2266665506,
			"0.005": 11.1638787286,
			"0.006": 3.3515595052,
			"0.007": 3.49044390836,
			"0.008": 3.13623123048,
			"0.009": 2.00926037403,
			"0.01": 0.637680922694,
			"0.011": 0.441962741461,
			"0.012": 0.0,
			"0.013": 0.0,
			"0.014": 0.0,
			"0.015": 0.0,
			"0.016": 0.0,
			"0.017": 0.0,
			"0.018": 0.0,
			"0.019": 0.0,
			"0.02": 0.0,
			"0.021": 0.0,
			"0.022": 0.0,
			"0.023": 0.0,
			"0.024": 0.0,
			"0.025": 0.0
		}
	}
}
