{
	 "smiles": "OC(=O)C(F)(F)C(F)(F)C(F)(F)C(F)(F)C(F)(F)C(F)(F)C(F)(F)C(F)(F)C(F)(F)F", 
	 "Tm": 360.95, 
	 "num_atms": 32, 
	 "gaussian": { 
		 "optdone": 1, 
		 "sigma_profile": "yes", 
		 "theory": "DFT", 
		 "functional": "B3LYP", 
		 "basiset": "6-31G**", 
		 "properties": { 
			 "R2extent": 11754.3057, 
			 "electric_dipole_moment_norm": 2.20595639803, 
			 "electric_quadrupole_moment_norm": 14.385368069, 
			 "total_energy": -2428.99030687, 
			 "HOMO_LUMO_gap": 0.26603, 
			 "cosmo_polarized_energy": -8.69, 
			 "cosmo_cavitation_energy": 42.64, 
			 "cosmo_dispersion_energy": -27.6, 
			 "cosmo_repulsion_energy": 1.75, 
			 "cosmo_total_nonelectrostatic_energy": 16.8, 
			 "SMD_solvation_energy": 14.12 
		},
		"coords": [
			{
				"x": -4.1823894196,
				"y": -3.0209610907,
				"z": 1.6088731638,
				"element": "O" 
			},
			{
				"x": -2.9856826642,
				"y": -2.7932527608,
				"z": 1.0563190728,
				"element": "C" 
			},
			{
				"x": -2.4143682579,
				"y": -3.5104866664,
				"z": 0.2770222742,
				"element": "O" 
			},
			{
				"x": -2.3832149227,
				"y": -1.4479422361,
				"z": 1.5363857465,
				"element": "C" 
			},
			{
				"x": -1.0666114799,
				"y": -1.6451556264,
				"z": 1.7687637433,
				"element": "F" 
			},
			{
				"x": -2.9755093903,
				"y": -1.0370022428,
				"z": 2.6791996832,
				"element": "F" 
			},
			{
				"x": -2.5508978068,
				"y": -0.3700252949,
				"z": 0.4220207295,
				"element": "C" 
			},
			{
				"x": -1.6578490408,
				"y": -0.6416997977,
				"z": -0.5534098927,
				"element": "F" 
			},
			{
				"x": -3.8059418581,
				"y": -0.5248319367,
				"z": -0.0823195116,
				"element": "F" 
			},
			{
				"x": -2.4486291293,
				"y": 1.1379322994,
				"z": 0.8091733679,
				"element": "C" 
			},
			{
				"x": -3.34769888,
				"y": 1.3682027513,
				"z": 1.7935724122,
				"element": "F" 
			},
			{
				"x": -2.8229009409,
				"y": 1.8563390648,
				"z": -0.2748487376,
				"element": "F" 
			},
			{
				"x": -1.0851838111,
				"y": 1.6970602843,
				"z": 1.3242496252,
				"element": "C" 
			},
			{
				"x": -0.6959039345,
				"y": 0.915892583,
				"z": 2.3626657686,
				"element": "F" 
			},
			{
				"x": -1.3545155152,
				"y": 2.9297561553,
				"z": 1.8018889547,
				"element": "F" 
			},
			{
				"x": 0.0953898378,
				"y": 1.8531722506,
				"z": 0.2715926772,
				"element": "C" 
			},
			{
				"x": -0.3669061702,
				"y": 1.5881410309,
				"z": -0.9698939984,
				"element": "F" 
			},
			{
				"x": 0.519267824,
				"y": 3.134364946,
				"z": 0.3049961506,
				"element": "F" 
			},
			{
				"x": 1.3294925073,
				"y": 0.9485575076,
				"z": 0.5523606752,
				"element": "C" 
			},
			{
				"x": 1.7889015618,
				"y": 1.2357596598,
				"z": 1.7951434531,
				"element": "F" 
			},
			{
				"x": 0.9355958704,
				"y": -0.34302944,
				"z": 0.4948062261,
				"element": "F" 
			},
			{
				"x": 2.5221284899,
				"y": 1.160356055,
				"z": -0.4262088355,
				"element": "C" 
			},
			{
				"x": 2.0677956443,
				"y": 1.1535728599,
				"z": -1.7007085254,
				"element": "F" 
			},
			{
				"x": 3.0781327338,
				"y": 2.3631710261,
				"z": -0.1644187754,
				"element": "F" 
			},
			{
				"x": 3.6501869671,
				"y": 0.0823802394,
				"z": -0.3765500167,
				"element": "C" 
			},
			{
				"x": 4.6132296627,
				"y": 0.5192630024,
				"z": -1.221625489,
				"element": "F" 
			},
			{
				"x": 3.1561917418,
				"y": -1.0860598566,
				"z": -0.83836911,
				"element": "F" 
			},
			{
				"x": 4.3267847373,
				"y": -0.1892810754,
				"z": 0.9888926644,
				"element": "C" 
			},
			{
				"x": 4.6957516979,
				"y": 0.9585598225,
				"z": 1.5702846105,
				"element": "F" 
			},
			{
				"x": 5.4129250732,
				"y": -0.9445289444,
				"z": 0.7908772151,
				"element": "F" 
			},
			{
				"x": 3.4899206812,
				"y": -0.8470752654,
				"z": 1.8015046665,
				"element": "F" 
			},
			{
				"x": -4.5017918092,
				"y": -3.8680493042,
				"z": 1.2521600117,
				"element": "H" 
			}
		],
		 "valence_orbital": [ 
			{
				"type": "occ",
				"energy": -0.37817,
				"method": "rhf"
			},
			{
				"type": "occ",
				"energy": -0.36542,
				"method": "rhf"
			},
			{
				"type": "occ",
				"energy": -0.35578,
				"method": "rhf"
			},
			{
				"type": "occ",
				"energy": -0.34494,
				"method": "rhf"
			},
			{
				"type": "occ",
				"energy": -0.31114,
				"method": "rhf"
			},
			{
				"type": "unocc",
				"energy": -0.04511,
				"method": "rhf"
			},
			{
				"type": "unocc",
				"energy": -0.00235,
				"method": "rhf"
			},
			{
				"type": "unocc",
				"energy": 0.01179,
				"method": "rhf"
			},
			{
				"type": "unocc",
				"energy": 0.03055,
				"method": "rhf"
			},
			{
				"type": "unocc",
				"energy": 0.04382,
				"method": "rhf"
			}
		],
		"cosmo_sigma_profile": { 
			"-0.025": 0.0,
			"-0.024": 0.0,
			"-0.023": 0.0,
			"-0.022": 0.0,
			"-0.021": 0.154732884805,
			"-0.02": 1.16035453475,
			"-0.019": 1.01652929121,
			"-0.018": 1.19691412312,
			"-0.017": 0.45065475144,
			"-0.016": 0.722130447982,
			"-0.015": 0.623283512674,
			"-0.014": 1.05504813274,
			"-0.013": 1.10398694362,
			"-0.012": 0.425794088022,
			"-0.011": 0.567900590174,
			"-0.01": 0.532357332872,
			"-0.009": 1.44233017202,
			"-0.008": 1.76148858137,
			"-0.007": 1.8510256945,
			"-0.006": 2.47838229742,
			"-0.005": 3.48602761729,
			"-0.004": 5.90968368759,
			"-0.003": 11.0802157712,
			"-0.002": 20.233966494,
			"-0.001": 28.2760816483,
			"0.0": 76.2725465589,
			"0.001": 130.861280025,
			"0.002": 22.3484079739,
			"0.003": 4.50357993732,
			"0.004": 4.22923704027,
			"0.005": 3.72045277931,
			"0.006": 3.10903035969,
			"0.007": 3.15234067218,
			"0.008": 2.66307403766,
			"0.009": 4.49867540131,
			"0.01": 1.72331154171,
			"0.011": 0.0,
			"0.012": 0.0,
			"0.013": 0.0,
			"0.014": 0.0,
			"0.015": 0.0,
			"0.016": 0.0,
			"0.017": 0.0,
			"0.018": 0.0,
			"0.019": 0.0,
			"0.02": 0.0,
			"0.021": 0.0,
			"0.022": 0.0,
			"0.023": 0.0,
			"0.024": 0.0,
			"0.025": 0.0
		}
	}
}
