{
	 "smiles": "O=COCC=CC1=CC=CC=C1", 
	 "Tm": 273.15, 
	 "num_atms": 22, 
	 "gaussian": { 
		 "optdone": 1, 
		 "sigma_profile": "yes", 
		 "theory": "DFT", 
		 "functional": "B3LYP", 
		 "basiset": "6-31G**", 
		 "properties": { 
			 "R2extent": 2873.1614, 
			 "electric_dipole_moment_norm": 2.25348023732, 
			 "electric_quadrupole_moment_norm": 11.5181124704, 
			 "total_energy": -537.517209995, 
			 "HOMO_LUMO_gap": 0.19529, 
			 "cosmo_polarized_energy": -8.36, 
			 "cosmo_cavitation_energy": 26.51, 
			 "cosmo_dispersion_energy": -18.97, 
			 "cosmo_repulsion_energy": 1.53, 
			 "cosmo_total_nonelectrostatic_energy": 9.07, 
			 "SMD_solvation_energy": 6.54 
		},
		"coords": [
			{
				"x": 3.2767658667,
				"y": -2.2357021486,
				"z": -2.3586949401,
				"element": "O" 
			},
			{
				"x": 2.5974019706,
				"y": -2.8278591812,
				"z": -1.5556627407,
				"element": "C" 
			},
			{
				"x": 1.4046563101,
				"y": -2.4324002231,
				"z": -1.081617284,
				"element": "O" 
			},
			{
				"x": 0.9051106255,
				"y": -1.1615744985,
				"z": -1.6085622384,
				"element": "C" 
			},
			{
				"x": -0.5420400049,
				"y": -1.0245178279,
				"z": -1.2522997209,
				"element": "C" 
			},
			{
				"x": -1.0477408251,
				"y": -0.3343932577,
				"z": -0.2154779198,
				"element": "C" 
			},
			{
				"x": -0.3298186954,
				"y": 0.3714102515,
				"z": 0.8612264191,
				"element": "C" 
			},
			{
				"x": 0.8796156409,
				"y": -0.0975056931,
				"z": 1.407325677,
				"element": "C" 
			},
			{
				"x": 1.5190083543,
				"y": 0.607123538,
				"z": 2.4269942894,
				"element": "C" 
			},
			{
				"x": 0.9628249938,
				"y": 1.7857218783,
				"z": 2.9275806267,
				"element": "C" 
			},
			{
				"x": -0.2493874605,
				"y": 2.2504124228,
				"z": 2.4115297376,
				"element": "C" 
			},
			{
				"x": -0.8918540056,
				"y": 1.5449646823,
				"z": 1.3969253541,
				"element": "C" 
			},
			{
				"x": 2.8627582383,
				"y": -3.7921053136,
				"z": -1.0931677528,
				"element": "H" 
			},
			{
				"x": 1.5127763862,
				"y": -0.3560525305,
				"z": -1.1894150403,
				"element": "H" 
			},
			{
				"x": 1.0492347329,
				"y": -1.1687246057,
				"z": -2.6921374214,
				"element": "H" 
			},
			{
				"x": -1.2433307984,
				"y": -1.5014815217,
				"z": -1.9333926849,
				"element": "H" 
			},
			{
				"x": -2.1335836858,
				"y": -0.2563748805,
				"z": -0.1618970707,
				"element": "H" 
			},
			{
				"x": 1.295662034,
				"y": -1.0362228198,
				"z": 1.0572148891,
				"element": "H" 
			},
			{
				"x": 2.4490192908,
				"y": 0.2267379526,
				"z": 2.8399304733,
				"element": "H" 
			},
			{
				"x": 1.4622752505,
				"y": 2.3305698939,
				"z": 3.7234204329,
				"element": "H" 
			},
			{
				"x": -0.6960947197,
				"y": 3.1596463084,
				"z": 2.8036465469,
				"element": "H" 
			},
			{
				"x": -1.8364594989,
				"y": 1.9089275742,
				"z": 1.0005303678,
				"element": "H" 
			}
		],
		 "valence_orbital": [ 
			{
				"type": "occ",
				"energy": -0.30694,
				"method": "rhf"
			},
			{
				"type": "occ",
				"energy": -0.29908,
				"method": "rhf"
			},
			{
				"type": "occ",
				"energy": -0.27997,
				"method": "rhf"
			},
			{
				"type": "occ",
				"energy": -0.2553,
				"method": "rhf"
			},
			{
				"type": "occ",
				"energy": -0.23397,
				"method": "rhf"
			},
			{
				"type": "unocc",
				"energy": -0.03868,
				"method": "rhf"
			},
			{
				"type": "unocc",
				"energy": -0.00653,
				"method": "rhf"
			},
			{
				"type": "unocc",
				"energy": 0.00628,
				"method": "rhf"
			},
			{
				"type": "unocc",
				"energy": 0.03398,
				"method": "rhf"
			},
			{
				"type": "unocc",
				"energy": 0.09,
				"method": "rhf"
			}
		],
		"cosmo_sigma_profile": { 
			"-0.025": 0.0,
			"-0.024": 0.0,
			"-0.023": 0.0,
			"-0.022": 0.0,
			"-0.021": 0.0,
			"-0.02": 0.0,
			"-0.019": 0.0,
			"-0.018": 0.0,
			"-0.017": 0.0,
			"-0.016": 0.0,
			"-0.015": 0.0,
			"-0.014": 0.0,
			"-0.013": 0.0,
			"-0.012": 0.0,
			"-0.011": 0.0,
			"-0.01": 0.156300314031,
			"-0.009": 2.56543895821,
			"-0.008": 1.98059927832,
			"-0.007": 2.42607402679,
			"-0.006": 11.5357873751,
			"-0.005": 20.6150276908,
			"-0.004": 22.7793088195,
			"-0.003": 20.5136502698,
			"-0.002": 13.4670646451,
			"-0.001": 12.8753464944,
			"0.0": 11.7443074974,
			"0.001": 10.8550773249,
			"0.002": 13.6000262501,
			"0.003": 14.7898873222,
			"0.004": 13.810799419,
			"0.005": 13.0907476709,
			"0.006": 6.41706174472,
			"0.007": 3.04125402733,
			"0.008": 2.56431775971,
			"0.009": 2.55175017371,
			"0.01": 2.82436014148,
			"0.011": 4.73096585189,
			"0.012": 2.7279839183,
			"0.013": 0.235890607343,
			"0.014": 0.0,
			"0.015": 0.0,
			"0.016": 0.0,
			"0.017": 0.0,
			"0.018": 0.0,
			"0.019": 0.0,
			"0.02": 0.0,
			"0.021": 0.0,
			"0.022": 0.0,
			"0.023": 0.0,
			"0.024": 0.0,
			"0.025": 0.0
		}
	}
}
