{
	 "smiles": "OC(=O)CC1=CC(F)=C(F)C=C1", 
	 "Tm": 322.15, 
	 "num_atms": 18, 
	 "gaussian": { 
		 "optdone": 1, 
		 "sigma_profile": "yes", 
		 "theory": "DFT", 
		 "functional": "B3LYP", 
		 "basiset": "6-31G**", 
		 "properties": { 
			 "R2extent": 3146.5358, 
			 "electric_dipole_moment_norm": 4.64148070663, 
			 "electric_quadrupole_moment_norm": 17.6691151462, 
			 "total_energy": -658.581796199, 
			 "HOMO_LUMO_gap": 0.22746, 
			 "cosmo_polarized_energy": -17.34, 
			 "cosmo_cavitation_energy": 24.27, 
			 "cosmo_dispersion_energy": -17.11, 
			 "cosmo_repulsion_energy": 1.34, 
			 "cosmo_total_nonelectrostatic_energy": 8.5, 
			 "SMD_solvation_energy": 6.36 
		},
		"coords": [
			{
				"x": 1.399604248,
				"y": -2.299812659,
				"z": 3.5206881846,
				"element": "O" 
			},
			{
				"x": 1.0133286425,
				"y": -2.3493943479,
				"z": 2.2159496021,
				"element": "C" 
			},
			{
				"x": 1.188724105,
				"y": -3.3460431241,
				"z": 1.5680449925,
				"element": "O" 
			},
			{
				"x": 0.3432955736,
				"y": -1.0654286705,
				"z": 1.7060390331,
				"element": "C" 
			},
			{
				"x": 0.0077984666,
				"y": -1.0943413378,
				"z": 0.2356684271,
				"element": "C" 
			},
			{
				"x": 0.8338795011,
				"y": -0.4464381736,
				"z": -0.6899772483,
				"element": "C" 
			},
			{
				"x": 0.5278400509,
				"y": -0.489084893,
				"z": -2.0429229696,
				"element": "C" 
			},
			{
				"x": 1.3134771362,
				"y": 0.1355362748,
				"z": -2.9367442044,
				"element": "F" 
			},
			{
				"x": -0.5994533821,
				"y": -1.1743848854,
				"z": -2.4923202015,
				"element": "C" 
			},
			{
				"x": -0.8730260519,
				"y": -1.1936065969,
				"z": -3.8076489291,
				"element": "F" 
			},
			{
				"x": -1.4276920857,
				"y": -1.8226386846,
				"z": -1.5859627435,
				"element": "C" 
			},
			{
				"x": -1.1218156481,
				"y": -1.7801194025,
				"z": -0.2258617058,
				"element": "C" 
			},
			{
				"x": 1.1921062972,
				"y": -1.4358951273,
				"z": 3.9046115019,
				"element": "H" 
			},
			{
				"x": -0.5649602697,
				"y": -0.9132601922,
				"z": 2.3054997992,
				"element": "H" 
			},
			{
				"x": 1.0045153149,
				"y": -0.2193783983,
				"z": 1.9330569596,
				"element": "H" 
			},
			{
				"x": 1.7213011175,
				"y": 0.0953725278,
				"z": -0.3779295795,
				"element": "H" 
			},
			{
				"x": -2.2992256169,
				"y": -2.3508128058,
				"z": -1.9574031687,
				"element": "H" 
			},
			{
				"x": -1.7673973992,
				"y": -2.2935695038,
				"z": 0.4801122503,
				"element": "H" 
			}
		],
		 "valence_orbital": [ 
			{
				"type": "occ",
				"energy": -0.35611,
				"method": "rhf"
			},
			{
				"type": "occ",
				"energy": -0.32384,
				"method": "rhf"
			},
			{
				"type": "occ",
				"energy": -0.28143,
				"method": "rhf"
			},
			{
				"type": "occ",
				"energy": -0.26475,
				"method": "rhf"
			},
			{
				"type": "occ",
				"energy": -0.24687,
				"method": "rhf"
			},
			{
				"type": "unocc",
				"energy": -0.01941,
				"method": "rhf"
			},
			{
				"type": "unocc",
				"energy": -0.01245,
				"method": "rhf"
			},
			{
				"type": "unocc",
				"energy": 0.00547,
				"method": "rhf"
			},
			{
				"type": "unocc",
				"energy": 0.04753,
				"method": "rhf"
			},
			{
				"type": "unocc",
				"energy": 0.0614,
				"method": "rhf"
			}
		],
		"cosmo_sigma_profile": { 
			"-0.025": 0.0,
			"-0.024": 0.0,
			"-0.023": 0.0,
			"-0.022": 0.0,
			"-0.021": 0.0,
			"-0.02": 0.0529854249095,
			"-0.019": 0.817925825426,
			"-0.018": 1.21477393082,
			"-0.017": 0.990479661844,
			"-0.016": 1.61151872829,
			"-0.015": 0.686358286161,
			"-0.014": 1.03527946699,
			"-0.013": 0.96146543692,
			"-0.012": 1.44407439038,
			"-0.011": 1.77818131466,
			"-0.01": 1.21955027556,
			"-0.009": 2.36291638362,
			"-0.008": 8.65998952838,
			"-0.007": 10.5357215677,
			"-0.006": 8.56312572159,
			"-0.005": 8.67301364459,
			"-0.004": 7.09709364156,
			"-0.003": 6.5024375677,
			"-0.002": 5.54594543451,
			"-0.001": 9.70742978671,
			"0.0": 15.0467020083,
			"0.001": 13.4206587415,
			"0.002": 11.8276069586,
			"0.003": 18.4684882096,
			"0.004": 22.3291015427,
			"0.005": 3.09395506965,
			"0.006": 2.87823196051,
			"0.007": 2.93510119659,
			"0.008": 2.78756359222,
			"0.009": 3.83921806115,
			"0.01": 5.69899803197,
			"0.011": 5.98095712118,
			"0.012": 5.08428092978,
			"0.013": 1.35634190703,
			"0.014": 0.00166767399044,
			"0.015": 0.0,
			"0.016": 0.0,
			"0.017": 0.0,
			"0.018": 0.0,
			"0.019": 0.0,
			"0.02": 0.0,
			"0.021": 0.0,
			"0.022": 0.0,
			"0.023": 0.0,
			"0.024": 0.0,
			"0.025": 0.0
		}
	}
}
