{
	 "smiles": "OC(=O)C1=CC2=C(CCC2)S1", 
	 "Tm": 473.15, 
	 "num_atms": 19, 
	 "gaussian": { 
		 "optdone": 1, 
		 "sigma_profile": "yes", 
		 "theory": "DFT", 
		 "functional": "B3LYP", 
		 "basiset": "6-31G**", 
		 "properties": { 
			 "R2extent": 3140.7433, 
			 "electric_dipole_moment_norm": 5.58760502631, 
			 "electric_quadrupole_moment_norm": 24.5712596169, 
			 "total_energy": -858.303737778, 
			 "HOMO_LUMO_gap": 0.18245, 
			 "cosmo_polarized_energy": -12.37, 
			 "cosmo_cavitation_energy": 24.04, 
			 "cosmo_dispersion_energy": -18.69, 
			 "cosmo_repulsion_energy": 1.47, 
			 "cosmo_total_nonelectrostatic_energy": 6.82, 
			 "SMD_solvation_energy": 4.39 
		},
		"coords": [
			{
				"x": 3.3148288307,
				"y": 2.9491717168,
				"z": 2.3160784938,
				"element": "O" 
			},
			{
				"x": 3.4613277369,
				"y": 2.052938113,
				"z": 1.3012884092,
				"element": "C" 
			},
			{
				"x": 4.4846172001,
				"y": 2.0338827256,
				"z": 0.6560800595,
				"element": "O" 
			},
			{
				"x": 2.3393234437,
				"y": 1.1263530291,
				"z": 1.0382999848,
				"element": "C" 
			},
			{
				"x": 2.2595708645,
				"y": 0.292599635,
				"z": -0.0550374857,
				"element": "C" 
			},
			{
				"x": 1.0613735032,
				"y": -0.4671549478,
				"z": -0.0711694569,
				"element": "C" 
			},
			{
				"x": 0.245392824,
				"y": -0.2165280107,
				"z": 1.0027329602,
				"element": "C" 
			},
			{
				"x": -0.9960096143,
				"y": -1.0619859862,
				"z": 1.03062012,
				"element": "C" 
			},
			{
				"x": -1.0028305061,
				"y": -1.6315950278,
				"z": -0.4229120401,
				"element": "C" 
			},
			{
				"x": 0.4610109492,
				"y": -1.5363346631,
				"z": -0.9522454456,
				"element": "C" 
			},
			{
				"x": 0.9260660809,
				"y": 0.9510349685,
				"z": 2.0792601778,
				"element": "S" 
			},
			{
				"x": 2.4128829785,
				"y": 2.9438955829,
				"z": 2.6674950904,
				"element": "H" 
			},
			{
				"x": 3.0464637021,
				"y": 0.2647369957,
				"z": -0.7993044809,
				"element": "H" 
			},
			{
				"x": -1.9085969733,
				"y": -0.5032285308,
				"z": 1.2626589646,
				"element": "H" 
			},
			{
				"x": -0.9093382835,
				"y": -1.860347085,
				"z": 1.7801754092,
				"element": "H" 
			},
			{
				"x": -1.3987332611,
				"y": -2.6496247032,
				"z": -0.4642242933,
				"element": "H" 
			},
			{
				"x": -1.6492873847,
				"y": -1.0038121095,
				"z": -1.0440765436,
				"element": "H" 
			},
			{
				"x": 0.4964265875,
				"y": -1.2920028895,
				"z": -2.0190566132,
				"element": "H" 
			},
			{
				"x": 0.9967113215,
				"y": -2.4866988129,
				"z": -0.8266633101,
				"element": "H" 
			}
		],
		 "valence_orbital": [ 
			{
				"type": "occ",
				"energy": -0.34707,
				"method": "rhf"
			},
			{
				"type": "occ",
				"energy": -0.31258,
				"method": "rhf"
			},
			{
				"type": "occ",
				"energy": -0.27187,
				"method": "rhf"
			},
			{
				"type": "occ",
				"energy": -0.26437,
				"method": "rhf"
			},
			{
				"type": "occ",
				"energy": -0.23811,
				"method": "rhf"
			},
			{
				"type": "unocc",
				"energy": -0.05566,
				"method": "rhf"
			},
			{
				"type": "unocc",
				"energy": -0.00109,
				"method": "rhf"
			},
			{
				"type": "unocc",
				"energy": 0.03262,
				"method": "rhf"
			},
			{
				"type": "unocc",
				"energy": 0.05704,
				"method": "rhf"
			},
			{
				"type": "unocc",
				"energy": 0.08337,
				"method": "rhf"
			}
		],
		"cosmo_sigma_profile": { 
			"-0.025": 0.0,
			"-0.024": 0.0,
			"-0.023": 0.0,
			"-0.022": 0.0,
			"-0.021": 0.0,
			"-0.02": 0.0,
			"-0.019": 0.0,
			"-0.018": 0.167497684059,
			"-0.017": 0.854941591538,
			"-0.016": 0.71716534808,
			"-0.015": 1.02696079535,
			"-0.014": 0.593484761964,
			"-0.013": 1.17214724547,
			"-0.012": 1.33324837794,
			"-0.011": 0.683164791559,
			"-0.01": 0.758411116635,
			"-0.009": 0.618321831787,
			"-0.008": 1.18256767113,
			"-0.007": 2.05284374758,
			"-0.006": 2.76547734636,
			"-0.005": 7.05491911643,
			"-0.004": 16.532013438,
			"-0.003": 24.5142699822,
			"-0.002": 24.3593767584,
			"-0.001": 18.6451989366,
			"0.0": 15.7214172961,
			"0.001": 11.3054708552,
			"0.002": 13.9654665195,
			"0.003": 12.7201002444,
			"0.004": 3.79803970636,
			"0.005": 2.64354254565,
			"0.006": 2.03844710677,
			"0.007": 2.42084944193,
			"0.008": 2.72481237727,
			"0.009": 3.08949682709,
			"0.01": 4.16925218415,
			"0.011": 5.20407820474,
			"0.012": 5.84709652008,
			"0.013": 2.17475272131,
			"0.014": 0.175384229486,
			"0.015": 0.0,
			"0.016": 0.0,
			"0.017": 0.0,
			"0.018": 0.0,
			"0.019": 0.0,
			"0.02": 0.0,
			"0.021": 0.0,
			"0.022": 0.0,
			"0.023": 0.0,
			"0.024": 0.0,
			"0.0": 0.0
		}
	}
}
