{
	 "smiles": "CC(C)(C)C1=CC=C(O)C(=C1)C(C)(C)C", 
	 "Tm": 328.65, 
	 "num_atms": 37, 
	 "gaussian": { 
		 "optdone": 1, 
		 "sigma_profile": "yes", 
		 "theory": "DFT", 
		 "functional": "B3LYP", 
		 "basiset": "6-31G**", 
		 "properties": { 
			 "R2extent": 4360.7794, 
			 "electric_dipole_moment_norm": 1.33514643766, 
			 "electric_quadrupole_moment_norm": 8.87672185382, 
			 "total_energy": -621.995986164, 
			 "HOMO_LUMO_gap": 0.21324, 
			 "cosmo_polarized_energy": -7.08, 
			 "cosmo_cavitation_energy": 35.85, 
			 "cosmo_dispersion_energy": -24.81, 
			 "cosmo_repulsion_energy": 1.93, 
			 "cosmo_total_nonelectrostatic_energy": 12.97, 
			 "SMD_solvation_energy": 6.72 
		},
		"coords": [
			{
				"x": -0.635760703,
				"y": 2.7733441523,
				"z": -0.3306317357,
				"element": "C" 
			},
			{
				"x": -1.2799922425,
				"y": 1.815978044,
				"z": -1.3512612513,
				"element": "C" 
			},
			{
				"x": -2.745947176,
				"y": 1.5718155041,
				"z": -0.920109455,
				"element": "C" 
			},
			{
				"x": -1.2645609805,
				"y": 2.5092732676,
				"z": -2.7346101871,
				"element": "C" 
			},
			{
				"x": -0.5400515517,
				"y": 0.467957576,
				"z": -1.4440387543,
				"element": "C" 
			},
			{
				"x": -0.994017019,
				"y": -0.5221562264,
				"z": -2.3236262118,
				"element": "C" 
			},
			{
				"x": -0.3365021267,
				"y": -1.7433098412,
				"z": -2.4190197475,
				"element": "C" 
			},
			{
				"x": 0.792095951,
				"y": -2.0137120525,
				"z": -1.6413639011,
				"element": "C" 
			},
			{
				"x": 1.4279161402,
				"y": -3.2284850349,
				"z": -1.7514154048,
				"element": "O" 
			},
			{
				"x": 1.2916155841,
				"y": -1.0514571222,
				"z": -0.7390556174,
				"element": "C" 
			},
			{
				"x": 0.5947836031,
				"y": 0.1659298402,
				"z": -0.6774314922,
				"element": "C" 
			},
			{
				"x": 2.5362601819,
				"y": -1.3215816986,
				"z": 0.1327747784,
				"element": "C" 
			},
			{
				"x": 2.2807829784,
				"y": -2.5382004626,
				"z": 1.0568657314,
				"element": "C" 
			},
			{
				"x": 2.8842796362,
				"y": -0.1207027755,
				"z": 1.035482525,
				"element": "C" 
			},
			{
				"x": 3.764922826,
				"y": -1.5951632097,
				"z": -0.7699674387,
				"element": "C" 
			},
			{
				"x": -1.1965619144,
				"y": 3.7134104345,
				"z": -0.3021960114,
				"element": "H" 
			},
			{
				"x": 0.399093565,
				"y": 3.0152367451,
				"z": -0.5945260137,
				"element": "H" 
			},
			{
				"x": -0.6420530143,
				"y": 2.3554414486,
				"z": 0.6814907454,
				"element": "H" 
			},
			{
				"x": -3.2767847226,
				"y": 0.9297416301,
				"z": -1.6295347341,
				"element": "H" 
			},
			{
				"x": -3.2913765991,
				"y": 2.5206509291,
				"z": -0.8578164378,
				"element": "H" 
			},
			{
				"x": -2.7892338526,
				"y": 1.089601764,
				"z": 0.062055292,
				"element": "H" 
			},
			{
				"x": -0.238109359,
				"y": 2.703869939,
				"z": -3.0626161445,
				"element": "H" 
			},
			{
				"x": -1.7483187916,
				"y": 1.8968111268,
				"z": -3.5015486753,
				"element": "H" 
			},
			{
				"x": -1.7952616741,
				"y": 3.4674460413,
				"z": -2.6904346795,
				"element": "H" 
			},
			{
				"x": -1.8676240754,
				"y": -0.3514578917,
				"z": -2.9457363705,
				"element": "H" 
			},
			{
				"x": -0.7016668208,
				"y": -2.5038241592,
				"z": -3.1080169467,
				"element": "H" 
			},
			{
				"x": 0.9601487498,
				"y": -3.7617112433,
				"z": -2.406843633,
				"element": "H" 
			},
			{
				"x": 0.9613603283,
				"y": 0.916523556,
				"z": 0.0076854721,
				"element": "H" 
			},
			{
				"x": 3.1633750497,
				"y": -2.7281017821,
				"z": 1.6788108085,
				"element": "H" 
			},
			{
				"x": 2.065619953,
				"y": -3.4412642173,
				"z": 0.4842106059,
				"element": "H" 
			},
			{
				"x": 1.4345948394,
				"y": -2.3443596874,
				"z": 1.7251219364,
				"element": "H" 
			},
			{
				"x": 3.7705667842,
				"y": -0.3637769914,
				"z": 1.6305033708,
				"element": "H" 
			},
			{
				"x": 3.1156483126,
				"y": 0.778826955,
				"z": 0.4552791062,
				"element": "H" 
			},
			{
				"x": 2.0757851017,
				"y": 0.1185807501,
				"z": 1.7343331773,
				"element": "H" 
			},
			{
				"x": 4.6499969286,
				"y": -1.7833527625,
				"z": -0.1510465025,
				"element": "H" 
			},
			{
				"x": 3.6074229245,
				"y": -2.461716087,
				"z": -1.4134279367,
				"element": "H" 
			},
			{
				"x": 3.9776531858,
				"y": -0.7285064581,
				"z": -1.4054382667,
				"element": "H" 
			}
		],
		 "valence_orbital": [ 
			{
				"type": "occ",
				"energy": -0.30931,
				"method": "rhf"
			},
			{
				"type": "occ",
				"energy": -0.30503,
				"method": "rhf"
			},
			{
				"type": "occ",
				"energy": -0.30059,
				"method": "rhf"
			},
			{
				"type": "occ",
				"energy": -0.23874,
				"method": "rhf"
			},
			{
				"type": "occ",
				"energy": -0.20823,
				"method": "rhf"
			},
			{
				"type": "unocc",
				"energy": 0.00501,
				"method": "rhf"
			},
			{
				"type": "unocc",
				"energy": 0.01849,
				"method": "rhf"
			},
			{
				"type": "unocc",
				"energy": 0.06988,
				"method": "rhf"
			},
			{
				"type": "unocc",
				"energy": 0.08314,
				"method": "rhf"
			},
			{
				"type": "unocc",
				"energy": 0.1017,
				"method": "rhf"
			}
		],
		"cosmo_sigma_profile": { 
			"-0.025": 0.0,
			"-0.024": 0.0,
			"-0.023": 0.0,
			"-0.022": 0.0,
			"-0.021": 0.0,
			"-0.02": 0.0,
			"-0.019": 0.0,
			"-0.018": 0.0385777703736,
			"-0.017": 0.722729946149,
			"-0.016": 1.35440034936,
			"-0.015": 0.906692660722,
			"-0.014": 1.15877180076,
			"-0.013": 0.865404291217,
			"-0.012": 0.432167865106,
			"-0.011": 0.438529417297,
			"-0.01": 1.60794723412,
			"-0.009": 1.56193983292,
			"-0.008": 1.36120398191,
			"-0.007": 0.6044866446,
			"-0.006": 1.77091244984,
			"-0.005": 3.49729798652,
			"-0.004": 6.05493032099,
			"-0.003": 16.5045049601,
			"-0.002": 44.4889696918,
			"-0.001": 33.2331532861,
			"0.0": 34.8877623736,
			"0.001": 40.868424086,
			"0.002": 35.7613601962,
			"0.003": 10.8393714054,
			"0.004": 10.3520726767,
			"0.005": 10.2288771892,
			"0.006": 9.98892483648,
			"0.007": 7.10414612613,
			"0.008": 0.792986265998,
			"0.009": 0.113672756442,
			"0.01": 0.0,
			"0.011": 0.0,
			"0.012": 0.0,
			"0.013": 0.0,
			"0.014": 0.0,
			"0.015": 0.0,
			"0.016": 0.0,
			"0.017": 0.0,
			"0.018": 0.0,
			"0.019": 0.0,
			"0.02": 0.0,
			"0.021": 0.0,
			"0.022": 0.0,
			"0.023": 0.0,
			"0.024": 0.0,
			"0.025": 0.0
		}
	}
}
