{
	 "smiles": "CC(OC1=C(N)C=CC(F)=C1)C#N", 
	 "Tm": 363.15, 
	 "num_atms": 22, 
	 "gaussian": { 
		 "optdone": 1, 
		 "sigma_profile": "yes", 
		 "theory": "DFT", 
		 "functional": "B3LYP", 
		 "basiset": "6-31G**", 
		 "properties": { 
			 "R2extent": 4545.8089, 
			 "electric_dipole_moment_norm": 1.41698419892, 
			 "electric_quadrupole_moment_norm": 13.1457882023, 
			 "total_energy": -632.911300975, 
			 "HOMO_LUMO_gap": 0.18711, 
			 "cosmo_polarized_energy": -12.98, 
			 "cosmo_cavitation_energy": 27.63, 
			 "cosmo_dispersion_energy": -18.84, 
			 "cosmo_repulsion_energy": 1.49, 
			 "cosmo_total_nonelectrostatic_energy": 10.28, 
			 "SMD_solvation_energy": 6.59 
		},
		"coords": [
			{
				"x": -1.118941748,
				"y": -0.6452394348,
				"z": -0.5538706276,
				"element": "C" 
			},
			{
				"x": -0.1989978357,
				"y": 0.3309637264,
				"z": 0.176427728,
				"element": "C" 
			},
			{
				"x": -0.2494793252,
				"y": 0.0161562198,
				"z": 1.5710895972,
				"element": "O" 
			},
			{
				"x": 0.1998302192,
				"y": 1.0019515146,
				"z": 2.4482730084,
				"element": "C" 
			},
			{
				"x": 1.3556406832,
				"y": 0.7266853942,
				"z": 3.2052420794,
				"element": "C" 
			},
			{
				"x": 2.000813795,
				"y": -0.5027684789,
				"z": 3.0929446461,
				"element": "N" 
			},
			{
				"x": 1.7843968461,
				"y": 1.7092893333,
				"z": 4.1137471188,
				"element": "C" 
			},
			{
				"x": 1.0987443938,
				"y": 2.9127530959,
				"z": 4.2639751909,
				"element": "C" 
			},
			{
				"x": -0.0453592107,
				"y": 3.1367441417,
				"z": 3.5080255716,
				"element": "C" 
			},
			{
				"x": -0.7293192254,
				"y": 4.2943639499,
				"z": 3.6570224464,
				"element": "F" 
			},
			{
				"x": -0.5104313559,
				"y": 2.1914296166,
				"z": 2.6032131335,
				"element": "C" 
			},
			{
				"x": 1.1963016723,
				"y": 0.2287812157,
				"z": -0.3160472508,
				"element": "C" 
			},
			{
				"x": 2.2926957161,
				"y": 0.1228745296,
				"z": -0.6822072,
				"element": "N" 
			},
			{
				"x": -2.1370971103,
				"y": -0.5233673544,
				"z": -0.1775806647,
				"element": "H" 
			},
			{
				"x": -0.7968434785,
				"y": -1.6735273329,
				"z": -0.3744285101,
				"element": "H" 
			},
			{
				"x": -1.1058821531,
				"y": -0.4522382096,
				"z": -1.6295034977,
				"element": "H" 
			},
			{
				"x": -0.5324885301,
				"y": 1.36336685,
				"z": 0.0113671056,
				"element": "H" 
			},
			{
				"x": 2.9984839758,
				"y": -0.4745851667,
				"z": 3.2518725247,
				"element": "H" 
			},
			{
				"x": 1.7612727482,
				"y": -1.0158812444,
				"z": 2.255838916,
				"element": "H" 
			},
			{
				"x": 2.6721345309,
				"y": 1.5200159089,
				"z": 4.710681758,
				"element": "H" 
			},
			{
				"x": 1.4381393123,
				"y": 3.6693783115,
				"z": 4.9626449058,
				"element": "H" 
			},
			{
				"x": -1.4176139201,
				"y": 2.3779534135,
				"z": 2.0387720205,
				"element": "H" 
			}
		],
		 "valence_orbital": [ 
			{
				"type": "occ",
				"energy": -0.33599,
				"method": "rhf"
			},
			{
				"type": "occ",
				"energy": -0.31791,
				"method": "rhf"
			},
			{
				"type": "occ",
				"energy": -0.30327,
				"method": "rhf"
			},
			{
				"type": "occ",
				"energy": -0.25442,
				"method": "rhf"
			},
			{
				"type": "occ",
				"energy": -0.20353,
				"method": "rhf"
			},
			{
				"type": "unocc",
				"energy": -0.01642,
				"method": "rhf"
			},
			{
				"type": "unocc",
				"energy": 0.00716,
				"method": "rhf"
			},
			{
				"type": "unocc",
				"energy": 0.01581,
				"method": "rhf"
			},
			{
				"type": "unocc",
				"energy": 0.02207,
				"method": "rhf"
			},
			{
				"type": "unocc",
				"energy": 0.07935,
				"method": "rhf"
			}
		],
		"cosmo_sigma_profile": { 
			"-0.025": 0.0,
			"-0.024": 0.0,
			"-0.023": 0.0,
			"-0.022": 0.0,
			"-0.021": 0.0,
			"-0.02": 0.0,
			"-0.019": 0.0,
			"-0.018": 0.0,
			"-0.017": 0.0,
			"-0.016": 0.0,
			"-0.015": 0.0,
			"-0.014": 0.0,
			"-0.013": 0.585357401982,
			"-0.012": 1.33533092117,
			"-0.011": 1.41589951452,
			"-0.01": 2.23678396549,
			"-0.009": 7.30310124753,
			"-0.008": 6.88027544072,
			"-0.007": 9.11487709451,
			"-0.006": 12.9832407217,
			"-0.005": 14.0470680037,
			"-0.004": 14.0826143011,
			"-0.003": 11.4050017552,
			"-0.002": 13.1891756106,
			"-0.001": 10.0338686788,
			"0.0": 8.92281504656,
			"0.001": 10.7006804495,
			"0.002": 14.989346889,
			"0.003": 16.692054765,
			"0.004": 17.4864815516,
			"0.005": 16.9669285388,
			"0.006": 4.02008669695,
			"0.007": 5.10545533701,
			"0.008": 4.60142345319,
			"0.009": 5.13855845897,
			"0.01": 3.6267277088,
			"0.011": 3.35904830353,
			"0.012": 2.39256176424,
			"0.013": 1.36816342774,
			"0.014": 0.616811646032,
			"0.015": 0.0875290491929,
			"0.016": 0.0,
			"0.017": 0.0,
			"0.018": 0.0,
			"0.019": 0.0,
			"0.02": 0.0,
			"0.021": 0.0,
			"0.022": 0.0,
			"0.023": 0.0,
			"0.024": 0.0,
			"0.025": 0.0
		}
	}
}
