{
	 "smiles": "FC1=CC=C(C=C1)N1CCCC1=O", 
	 "Tm": 329.65, 
	 "num_atms": 23, 
	 "gaussian": { 
		 "optdone": 1, 
		 "sigma_profile": "yes", 
		 "theory": "DFT", 
		 "functional": "B3LYP", 
		 "basiset": "6-31G**", 
		 "properties": { 
			 "R2extent": 3097.1876, 
			 "electric_dipole_moment_norm": 4.30633079663, 
			 "electric_quadrupole_moment_norm": 9.49485270449, 
			 "total_energy": -616.920104283, 
			 "HOMO_LUMO_gap": 0.20485, 
			 "cosmo_polarized_energy": -10.03, 
			 "cosmo_cavitation_energy": 26.32, 
			 "cosmo_dispersion_energy": -19.7, 
			 "cosmo_repulsion_energy": 1.52, 
			 "cosmo_total_nonelectrostatic_energy": 8.13, 
			 "SMD_solvation_energy": 4.93 
		},
		"coords": [
			{
				"x": 4.3106231297,
				"y": 1.5006907965,
				"z": 1.3296629826,
				"element": "F" 
			},
			{
				"x": 3.1332271195,
				"y": 1.2206823195,
				"z": 0.728843052,
				"element": "C" 
			},
			{
				"x": 1.9459258098,
				"y": 1.5969528772,
				"z": 1.3454990191,
				"element": "C" 
			},
			{
				"x": 0.7291392903,
				"y": 1.3148093916,
				"z": 0.7305483672,
				"element": "C" 
			},
			{
				"x": 0.6988448938,
				"y": 0.6476545017,
				"z": -0.5094405535,
				"element": "C" 
			},
			{
				"x": 1.9151653843,
				"y": 0.2752344786,
				"z": -1.1077624062,
				"element": "C" 
			},
			{
				"x": 3.1333392364,
				"y": 0.5618843746,
				"z": -0.4919321992,
				"element": "C" 
			},
			{
				"x": -0.5213458696,
				"y": 0.3588042336,
				"z": -1.1688141593,
				"element": "N" 
			},
			{
				"x": -0.5429563505,
				"y": -0.1538261231,
				"z": -2.544081506,
				"element": "C" 
			},
			{
				"x": -2.0208561539,
				"y": -0.0451689513,
				"z": -2.9590525353,
				"element": "C" 
			},
			{
				"x": -2.7736439336,
				"y": -0.1585027536,
				"z": -1.6302065207,
				"element": "C" 
			},
			{
				"x": -1.7862305342,
				"y": 0.3660362743,
				"z": -0.590516245,
				"element": "C" 
			},
			{
				"x": -2.0656436941,
				"y": 0.7075990738,
				"z": 0.5466305773,
				"element": "O" 
			},
			{
				"x": 1.9784631774,
				"y": 2.1102012324,
				"z": 2.3006323831,
				"element": "H" 
			},
			{
				"x": -0.2004641376,
				"y": 1.5926689566,
				"z": 1.2050825663,
				"element": "H" 
			},
			{
				"x": 1.9275247977,
				"y": -0.2502786085,
				"z": -2.0549347529,
				"element": "H" 
			},
			{
				"x": 4.0735791904,
				"y": 0.2753186437,
				"z": -0.9502818206,
				"element": "H" 
			},
			{
				"x": 0.1149163693,
				"y": 0.4422652,
				"z": -3.1835427311,
				"element": "H" 
			},
			{
				"x": -0.1884018909,
				"y": -1.1941844187,
				"z": -2.5738016684,
				"element": "H" 
			},
			{
				"x": -2.2039181198,
				"y": 0.9338950383,
				"z": -3.4128123731,
				"element": "H" 
			},
			{
				"x": -2.2962654371,
				"y": -0.8091108242,
				"z": -3.6897863202,
				"element": "H" 
			},
			{
				"x": -3.7065546374,
				"y": 0.4064980785,
				"z": -1.5814157679,
				"element": "H" 
			},
			{
				"x": -3.0070676399,
				"y": -1.2001237916,
				"z": -1.375617388,
				"element": "H" 
			}
		],
		 "valence_orbital": [ 
			{
				"type": "occ",
				"energy": -0.34265,
				"method": "rhf"
			},
			{
				"type": "occ",
				"energy": -0.29085,
				"method": "rhf"
			},
			{
				"type": "occ",
				"energy": -0.2588,
				"method": "rhf"
			},
			{
				"type": "occ",
				"energy": -0.2506,
				"method": "rhf"
			},
			{
				"type": "occ",
				"energy": -0.21479,
				"method": "rhf"
			},
			{
				"type": "unocc",
				"energy": -0.00994,
				"method": "rhf"
			},
			{
				"type": "unocc",
				"energy": -0.0087,
				"method": "rhf"
			},
			{
				"type": "unocc",
				"energy": 0.04285,
				"method": "rhf"
			},
			{
				"type": "unocc",
				"energy": 0.07683,
				"method": "rhf"
			},
			{
				"type": "unocc",
				"energy": 0.0895,
				"method": "rhf"
			}
		],
		"cosmo_sigma_profile": { 
			"-0.025": 0.0,
			"-0.024": 0.0,
			"-0.023": 0.0,
			"-0.022": 0.0,
			"-0.021": 0.0,
			"-0.02": 0.0,
			"-0.019": 0.0,
			"-0.018": 0.0,
			"-0.017": 0.0,
			"-0.016": 0.0,
			"-0.015": 0.0,
			"-0.014": 0.0,
			"-0.013": 0.0,
			"-0.012": 0.0,
			"-0.011": 0.0,
			"-0.01": 0.0,
			"-0.009": 0.0,
			"-0.008": 0.229797895571,
			"-0.007": 4.97143244469,
			"-0.006": 10.8251630054,
			"-0.005": 20.0681554769,
			"-0.004": 25.7997941764,
			"-0.003": 18.258483439,
			"-0.002": 15.9715461752,
			"-0.001": 13.033283303,
			"0.0": 9.37407377663,
			"0.001": 14.1838491461,
			"0.002": 14.0229019992,
			"0.003": 13.6950526875,
			"0.004": 21.2394705629,
			"0.005": 10.3191628943,
			"0.006": 1.06420550853,
			"0.007": 2.27676215857,
			"0.008": 1.35206965894,
			"0.009": 1.55803257192,
			"0.01": 1.65068307125,
			"0.011": 1.84692965634,
			"0.012": 3.07450636472,
			"0.013": 2.9336085896,
			"0.014": 1.72407346733,
			"0.015": 0.0740424758876,
			"0.016": 0.0,
			"0.017": 0.0,
			"0.018": 0.0,
			"0.019": 0.0,
			"0.02": 0.0,
			"0.021": 0.0,
			"0.022": 0.0,
			"0.023": 0.0,
			"0.024": 0.0,
			"0.025": 0.0
		}
	}
}
