{
	 "smiles": "CC1C(OC2=C1C=CC=C2)C(O)=O", 
	 "Tm": 395.15, 
	 "num_atms": 23, 
	 "gaussian": { 
		 "optdone": 1, 
		 "sigma_profile": "yes", 
		 "theory": "DFT", 
		 "functional": "B3LYP", 
		 "basiset": "6-31G**", 
		 "properties": { 
			 "R2extent": 2484.2048, 
			 "electric_dipole_moment_norm": 1.47498069479, 
			 "electric_quadrupole_moment_norm": 6.41959651925, 
			 "total_energy": -612.7684276, 
			 "HOMO_LUMO_gap": 0.20967, 
			 "cosmo_polarized_energy": -11.48, 
			 "cosmo_cavitation_energy": 26.5, 
			 "cosmo_dispersion_energy": -19.19, 
			 "cosmo_repulsion_energy": 1.52, 
			 "cosmo_total_nonelectrostatic_energy": 8.83, 
			 "SMD_solvation_energy": 5.58 
		},
		"coords": [
			{
				"x": 0.8120418444,
				"y": 2.374852484,
				"z": 1.7563496479,
				"element": "C" 
			},
			{
				"x": 0.4481342198,
				"y": 0.8897938984,
				"z": 1.8720135709,
				"element": "C" 
			},
			{
				"x": 1.6234314369,
				"y": -0.1280025644,
				"z": 1.6188567128,
				"element": "C" 
			},
			{
				"x": 1.0877432347,
				"y": -1.2125346016,
				"z": 0.8404826675,
				"element": "O" 
			},
			{
				"x": -0.1288799209,
				"y": -0.8214755571,
				"z": 0.3426738509,
				"element": "C" 
			},
			{
				"x": -0.5726278212,
				"y": 0.3912718257,
				"z": 0.8683264779,
				"element": "C" 
			},
			{
				"x": -1.7978095657,
				"y": 0.9086342339,
				"z": 0.465378586,
				"element": "C" 
			},
			{
				"x": -2.5629173222,
				"y": 0.1947758877,
				"z": -0.4674678311,
				"element": "C" 
			},
			{
				"x": -2.0993095009,
				"y": -1.0210900333,
				"z": -0.9774344673,
				"element": "C" 
			},
			{
				"x": -0.866888559,
				"y": -1.5527204311,
				"z": -0.5788074041,
				"element": "C" 
			},
			{
				"x": 2.8212505928,
				"y": 0.5101452249,
				"z": 0.9217636439,
				"element": "C" 
			},
			{
				"x": 2.7504198053,
				"y": 0.4589818485,
				"z": -0.4221084233,
				"element": "O" 
			},
			{
				"x": 3.7270936411,
				"y": 1.042452467,
				"z": 1.5253917126,
				"element": "O" 
			},
			{
				"x": -0.0631289931,
				"y": 2.9914625321,
				"z": 1.9817589003,
				"element": "H" 
			},
			{
				"x": 1.1433052852,
				"y": 2.6224870575,
				"z": 0.7433755754,
				"element": "H" 
			},
			{
				"x": 1.6075103395,
				"y": 2.6454174073,
				"z": 2.4560010861,
				"element": "H" 
			},
			{
				"x": 0.0741006371,
				"y": 0.7096545753,
				"z": 2.8889457342,
				"element": "H" 
			},
			{
				"x": 2.0056123281,
				"y": -0.5378040176,
				"z": 2.5559260467,
				"element": "H" 
			},
			{
				"x": -2.1615452933,
				"y": 1.8513885949,
				"z": 0.8654464019,
				"element": "H" 
			},
			{
				"x": -3.5203341417,
				"y": 0.5884519913,
				"z": -0.7943874241,
				"element": "H" 
			},
			{
				"x": -2.7011469435,
				"y": -1.5649862703,
				"z": -1.6998467731,
				"element": "H" 
			},
			{
				"x": -0.4924859861,
				"y": -2.4916330625,
				"z": -0.9715807567,
				"element": "H" 
			},
			{
				"x": 3.5469306827,
				"y": 0.9091765093,
				"z": -0.7516575353,
				"element": "H" 
			}
		],
		 "valence_orbital": [ 
			{
				"type": "occ",
				"energy": -0.3254,
				"method": "rhf"
			},
			{
				"type": "occ",
				"energy": -0.32204,
				"method": "rhf"
			},
			{
				"type": "occ",
				"energy": -0.28099,
				"method": "rhf"
			},
			{
				"type": "occ",
				"energy": -0.24851,
				"method": "rhf"
			},
			{
				"type": "occ",
				"energy": -0.21526,
				"method": "rhf"
			},
			{
				"type": "unocc",
				"energy": -0.00559,
				"method": "rhf"
			},
			{
				"type": "unocc",
				"energy": -0.00532,
				"method": "rhf"
			},
			{
				"type": "unocc",
				"energy": 0.0155,
				"method": "rhf"
			},
			{
				"type": "unocc",
				"energy": 0.06793,
				"method": "rhf"
			},
			{
				"type": "unocc",
				"energy": 0.09385,
				"method": "rhf"
			}
		],
		"cosmo_sigma_profile": { 
			"-0.025": 0.0,
			"-0.024": 0.0,
			"-0.023": 0.0,
			"-0.022": 0.0,
			"-0.021": 0.0,
			"-0.02": 0.0,
			"-0.019": 0.240310257344,
			"-0.018": 1.06323663554,
			"-0.017": 0.982678431587,
			"-0.016": 0.700699335531,
			"-0.015": 0.473537084868,
			"-0.014": 1.04859853951,
			"-0.013": 0.674189163059,
			"-0.012": 1.11787503641,
			"-0.011": 0.510859557233,
			"-0.01": 0.376540397835,
			"-0.009": 0.679295764958,
			"-0.008": 1.57042064025,
			"-0.007": 4.36110658252,
			"-0.006": 9.74359474492,
			"-0.005": 15.8128135814,
			"-0.004": 18.0237185753,
			"-0.003": 19.4778145415,
			"-0.002": 13.7064112228,
			"-0.001": 16.4498988681,
			"0.0": 13.6015826986,
			"0.001": 9.37974627928,
			"0.002": 10.161584243,
			"0.003": 11.0459697,
			"0.004": 10.9557148475,
			"0.005": 12.7918180464,
			"0.006": 9.37220850685,
			"0.007": 4.48634215546,
			"0.008": 3.84273627966,
			"0.009": 4.41878201411,
			"0.01": 4.75675744332,
			"0.011": 5.09549697164,
			"0.012": 2.77137935618,
			"0.013": 0.0888347623382,
			"0.014": 0.0,
			"0.015": 0.0,
			"0.016": 0.0,
			"0.017": 0.0,
			"0.018": 0.0,
			"0.019": 0.0,
			"0.02": 0.0,
			"0.021": 0.0,
			"0.022": 0.0,
			"0.023": 0.0,
			"0.024": 0.0,
			"0.025": 0.0
		}
	}
}
