{
	 "smiles": "CC(C)COC(=O)C=C", 
	 "Tm": 212.15, 
	 "num_atms": 21, 
	 "gaussian": { 
		 "optdone": 1, 
		 "sigma_profile": "yes", 
		 "theory": "DFT", 
		 "functional": "B3LYP", 
		 "basiset": "6-31G**", 
		 "properties": { 
			 "R2extent": 1775.312, 
			 "electric_dipole_moment_norm": 1.54579623819, 
			 "electric_quadrupole_moment_norm": 11.4344721597, 
			 "total_energy": -424.423147655, 
			 "HOMO_LUMO_gap": 0.22864, 
			 "cosmo_polarized_energy": -6.19, 
			 "cosmo_cavitation_energy": 24.4, 
			 "cosmo_dispersion_energy": -16.94, 
			 "cosmo_repulsion_energy": 1.41, 
			 "cosmo_total_nonelectrostatic_energy": 8.87, 
			 "SMD_solvation_energy": 6.06 
		},
		"coords": [
			{
				"x": 1.6950792785,
				"y": 1.3987798435,
				"z": 1.6583563788,
				"element": "C" 
			},
			{
				"x": 2.1596490432,
				"y": 0.7251323507,
				"z": 0.359086313,
				"element": "C" 
			},
			{
				"x": 2.376235583,
				"y": -0.7832061344,
				"z": 0.5490107407,
				"element": "C" 
			},
			{
				"x": 1.2101595501,
				"y": 1.0211194203,
				"z": -0.8064350976,
				"element": "C" 
			},
			{
				"x": -0.0979383667,
				"y": 0.4519636241,
				"z": -0.5629354795,
				"element": "O" 
			},
			{
				"x": -1.1377383141,
				"y": 1.3057855034,
				"z": -0.3935735327,
				"element": "C" 
			},
			{
				"x": -1.0517690535,
				"y": 2.516934656,
				"z": -0.4387920447,
				"element": "O" 
			},
			{
				"x": -2.3900757513,
				"y": 0.5432155886,
				"z": -0.1501635797,
				"element": "C" 
			},
			{
				"x": -3.5470766298,
				"y": 1.1789650985,
				"z": 0.0439826044,
				"element": "C" 
			},
			{
				"x": 0.7500879717,
				"y": 0.9673446264,
				"z": 2.0051682398,
				"element": "H" 
			},
			{
				"x": 2.4342700865,
				"y": 1.2578905494,
				"z": 2.4535806098,
				"element": "H" 
			},
			{
				"x": 1.5411200283,
				"y": 2.4736951935,
				"z": 1.5211627878,
				"element": "H" 
			},
			{
				"x": 3.1191887909,
				"y": 1.1757805912,
				"z": 0.0639914556,
				"element": "H" 
			},
			{
				"x": 2.7645276865,
				"y": -1.2499331296,
				"z": -0.3631466008,
				"element": "H" 
			},
			{
				"x": 1.4351986409,
				"y": -1.2802498733,
				"z": 0.8050168138,
				"element": "H" 
			},
			{
				"x": 3.0909191001,
				"y": -0.9770798618,
				"z": 1.3554863234,
				"element": "H" 
			},
			{
				"x": 1.5705269202,
				"y": 0.5503079537,
				"z": -1.7270462479,
				"element": "H" 
			},
			{
				"x": 1.0988687166,
				"y": 2.0953168105,
				"z": -0.9672257895,
				"element": "H" 
			},
			{
				"x": -2.3109432289,
				"y": -0.5394761629,
				"z": -0.1402270598,
				"element": "H" 
			},
			{
				"x": -4.4717853649,
				"y": 0.6398191655,
				"z": 0.222449564,
				"element": "H" 
			},
			{
				"x": -3.5836046873,
				"y": 2.2640941868,
				"z": 0.0257536013,
				"element": "H" 
			}
		],
		 "valence_orbital": [ 
			{
				"type": "occ",
				"energy": -0.33303,
				"method": "rhf"
			},
			{
				"type": "occ",
				"energy": -0.32491,
				"method": "rhf"
			},
			{
				"type": "occ",
				"energy": -0.29012,
				"method": "rhf"
			},
			{
				"type": "occ",
				"energy": -0.28165,
				"method": "rhf"
			},
			{
				"type": "occ",
				"energy": -0.27229,
				"method": "rhf"
			},
			{
				"type": "unocc",
				"energy": -0.04365,
				"method": "rhf"
			},
			{
				"type": "unocc",
				"energy": 0.08354,
				"method": "rhf"
			},
			{
				"type": "unocc",
				"energy": 0.09267,
				"method": "rhf"
			},
			{
				"type": "unocc",
				"energy": 0.11658,
				"method": "rhf"
			},
			{
				"type": "unocc",
				"energy": 0.12564,
				"method": "rhf"
			}
		],
		"cosmo_sigma_profile": { 
			"-0.025": 0.0,
			"-0.024": 0.0,
			"-0.023": 0.0,
			"-0.022": 0.0,
			"-0.021": 0.0,
			"-0.02": 0.0,
			"-0.019": 0.0,
			"-0.018": 0.0,
			"-0.017": 0.0,
			"-0.016": 0.0,
			"-0.015": 0.0,
			"-0.014": 0.0,
			"-0.013": 0.0,
			"-0.012": 0.0,
			"-0.011": 0.0,
			"-0.01": 0.0,
			"-0.009": 0.0,
			"-0.008": 0.297882176996,
			"-0.007": 3.15736994861,
			"-0.006": 4.09600113684,
			"-0.005": 7.90272988912,
			"-0.004": 12.0285086369,
			"-0.003": 23.4633364159,
			"-0.002": 25.029437064,
			"-0.001": 23.2396452648,
			"0.0": 20.9303178295,
			"0.001": 22.8779247534,
			"0.002": 12.748266633,
			"0.003": 7.97960545979,
			"0.004": 6.01013711721,
			"0.005": 3.19057948866,
			"0.006": 2.3660753269,
			"0.007": 2.96090808686,
			"0.008": 2.23443126331,
			"0.009": 1.51072679915,
			"0.01": 1.88811736066,
			"0.011": 2.40270584914,
			"0.012": 4.31828294135,
			"0.013": 0.486455235855,
			"0.014": 0.0,
			"0.015": 0.0,
			"0.016": 0.0,
			"0.017": 0.0,
			"0.018": 0.0,
			"0.019": 0.0,
			"0.02": 0.0,
			"0.021": 0.0,
			"0.022": 0.0,
			"0.023": 0.0,
			"0.024": 0.0,
			"0.025": 0.0
		}
	}
}
