{
	 "smiles": "C(SSCC1=CC=CC=C1)C1=CC=CC=C1", 
	 "Tm": 343.95, 
	 "num_atms": 30, 
	 "gaussian": { 
		 "optdone": 1, 
		 "sigma_profile": "yes", 
		 "theory": "DFT", 
		 "functional": "B3LYP", 
		 "basiset": "6-31G**", 
		 "properties": { 
			 "R2extent": 6313.7407, 
			 "electric_dipole_moment_norm": 2.43008930906, 
			 "electric_quadrupole_moment_norm": 10.0994771578, 
			 "total_energy": -1338.31485999, 
			 "HOMO_LUMO_gap": 0.19889, 
			 "cosmo_polarized_energy": -8.47, 
			 "cosmo_cavitation_energy": 36.95, 
			 "cosmo_dispersion_energy": -25.59, 
			 "cosmo_repulsion_energy": 1.92, 
			 "cosmo_total_nonelectrostatic_energy": 13.28, 
			 "SMD_solvation_energy": 4.65 
		},
		"coords": [
			{
				"x": 0.2571402847,
				"y": -0.5927925579,
				"z": -1.1449535973,
				"element": "C" 
			},
			{
				"x": 1.6136777754,
				"y": -0.7809358427,
				"z": -2.4162665291,
				"element": "S" 
			},
			{
				"x": 0.8475115375,
				"y": 0.1767849721,
				"z": -4.0954634147,
				"element": "S" 
			},
			{
				"x": 1.476765308,
				"y": 1.9265075205,
				"z": -3.9530191313,
				"element": "C" 
			},
			{
				"x": 0.9878336558,
				"y": 2.6934965252,
				"z": -2.7558758032,
				"element": "C" 
			},
			{
				"x": -0.3213446761,
				"y": 3.196163285,
				"z": -2.7047998121,
				"element": "C" 
			},
			{
				"x": -0.7732688393,
				"y": 3.8928877824,
				"z": -1.5856776986,
				"element": "C" 
			},
			{
				"x": 0.0772113161,
				"y": 4.09757426,
				"z": -0.4950053584,
				"element": "C" 
			},
			{
				"x": 1.3819402942,
				"y": 3.6045051637,
				"z": -0.5353118231,
				"element": "C" 
			},
			{
				"x": 1.8337175489,
				"y": 2.9074994961,
				"z": -1.6591477266,
				"element": "C" 
			},
			{
				"x": 0.7098231712,
				"y": -1.2455773689,
				"z": 0.1331402096,
				"element": "C" 
			},
			{
				"x": 1.3515857559,
				"y": -0.492961034,
				"z": 1.1272067616,
				"element": "C" 
			},
			{
				"x": 1.7826484185,
				"y": -1.0966022501,
				"z": 2.3082851273,
				"element": "C" 
			},
			{
				"x": 1.584169472,
				"y": -2.4643330552,
				"z": 2.5088143999,
				"element": "C" 
			},
			{
				"x": 0.9524627889,
				"y": -3.2246044736,
				"z": 1.5224080796,
				"element": "C" 
			},
			{
				"x": 0.5208786728,
				"y": -2.6192814747,
				"z": 0.3422928709,
				"element": "C" 
			},
			{
				"x": -0.6384534737,
				"y": -1.0693032113,
				"z": -1.5490938365,
				"element": "H" 
			},
			{
				"x": 0.0682648583,
				"y": 0.472562961,
				"z": -1.0084440773,
				"element": "H" 
			},
			{
				"x": 2.5676061003,
				"y": 1.8897914279,
				"z": -3.9836136431,
				"element": "H" 
			},
			{
				"x": 1.1262206979,
				"y": 2.3759013619,
				"z": -4.889086392,
				"element": "H" 
			},
			{
				"x": -0.9891322861,
				"y": 3.0329987297,
				"z": -3.5470072493,
				"element": "H" 
			},
			{
				"x": -1.7884710153,
				"y": 4.2788479353,
				"z": -1.5637012101,
				"element": "H" 
			},
			{
				"x": -0.2746759588,
				"y": 4.6421219621,
				"z": 0.3764015748,
				"element": "H" 
			},
			{
				"x": 2.0526591003,
				"y": 3.767119424,
				"z": 0.3038210765,
				"element": "H" 
			},
			{
				"x": 2.8504479404,
				"y": 2.5258805474,
				"z": -1.6877696096,
				"element": "H" 
			},
			{
				"x": 1.5042235595,
				"y": 0.5717904945,
				"z": 0.9708723899,
				"element": "H" 
			},
			{
				"x": 2.2716889732,
				"y": -0.4995823364,
				"z": 3.0728863888,
				"element": "H" 
			},
			{
				"x": 1.9183052131,
				"y": -2.9347284959,
				"z": 3.4291465952,
				"element": "H" 
			},
			{
				"x": 0.7940383542,
				"y": -4.2887064045,
				"z": 1.672722949,
				"element": "H" 
			},
			{
				"x": 0.0296254521,
				"y": -3.2131253435,
				"z": -0.4242615107,
				"element": "H" 
			}
		],
		 "valence_orbital": [ 
			{
				"type": "occ",
				"energy": -0.2546,
				"method": "rhf"
			},
			{
				"type": "occ",
				"energy": -0.25224,
				"method": "rhf"
			},
			{
				"type": "occ",
				"energy": -0.24932,
				"method": "rhf"
			},
			{
				"type": "occ",
				"energy": -0.23431,
				"method": "rhf"
			},
			{
				"type": "occ",
				"energy": -0.22734,
				"method": "rhf"
			},
			{
				"type": "unocc",
				"energy": -0.02845,
				"method": "rhf"
			},
			{
				"type": "unocc",
				"energy": -0.01858,
				"method": "rhf"
			},
			{
				"type": "unocc",
				"energy": -0.0081,
				"method": "rhf"
			},
			{
				"type": "unocc",
				"energy": -0.00227,
				"method": "rhf"
			},
			{
				"type": "unocc",
				"energy": 0.00189,
				"method": "rhf"
			}
		],
		"cosmo_sigma_profile": { 
			"-0.025": 0.0,
			"-0.024": 0.0,
			"-0.023": 0.0,
			"-0.022": 0.0,
			"-0.021": 0.0,
			"-0.02": 0.0,
			"-0.019": 0.0,
			"-0.018": 0.0,
			"-0.017": 0.0,
			"-0.016": 0.0,
			"-0.015": 0.0,
			"-0.014": 0.0,
			"-0.013": 0.0,
			"-0.012": 0.0,
			"-0.011": 0.0,
			"-0.01": 0.0,
			"-0.009": 0.0,
			"-0.008": 0.249200839236,
			"-0.007": 2.40931164956,
			"-0.006": 16.0951407982,
			"-0.005": 25.8501198102,
			"-0.004": 27.9332675832,
			"-0.003": 25.8923173278,
			"-0.002": 22.7201813453,
			"-0.001": 22.1377925791,
			"0.0": 20.0912885605,
			"0.001": 18.3074197119,
			"0.002": 20.815507462,
			"0.003": 25.1018966111,
			"0.004": 26.2147506938,
			"0.005": 23.031415243,
			"0.006": 11.7050979534,
			"0.007": 5.03974878426,
			"0.008": 3.39818889222,
			"0.009": 1.24952225302,
			"0.01": 0.020333188107,
			"0.011": 0.0,
			"0.012": 0.0,
			"0.013": 0.0,
			"0.014": 0.0,
			"0.015": 0.0,
			"0.016": 0.0,
			"0.017": 0.0,
			"0.018": 0.0,
			"0.019": 0.0,
			"0.02": 0.0,
			"0.021": 0.0,
			"0.022": 0.0,
			"0.023": 0.0,
			"0.024": 0.0,
			"0.025": 0.0
		}
	}
}
