{
	 "smiles": "O=N(=O)C1=CC=C2NN=NC2=C1", 
	 "Tm": 490.15, 
	 "num_atms": 16, 
	 "gaussian": { 
		 "optdone": 1, 
		 "sigma_profile": "yes", 
		 "theory": "DFT", 
		 "functional": "B3LYP", 
		 "basiset": "6-31G**", 
		 "properties": { 
			 "R2extent": 2529.4821, 
			 "electric_dipole_moment_norm": 5.67947690989, 
			 "electric_quadrupole_moment_norm": 17.5347054911, 
			 "total_energy": -600.362424587, 
			 "HOMO_LUMO_gap": 0.17838, 
			 "cosmo_polarized_energy": -16.91, 
			 "cosmo_cavitation_energy": 21.78, 
			 "cosmo_dispersion_energy": -16.51, 
			 "cosmo_repulsion_energy": 1.3, 
			 "cosmo_total_nonelectrostatic_energy": 6.56, 
			 "SMD_solvation_energy": 4.4 
		},
		"coords": [
			{
				"x": 3.8398922168,
				"y": -1.3457397082,
				"z": -2.2106120602,
				"element": "O" 
			},
			{
				"x": 3.441116106,
				"y": -0.4869231885,
				"z": -1.4239472193,
				"element": "N" 
			},
			{
				"x": 4.0843599424,
				"y": 0.5038007037,
				"z": -1.0818140966,
				"element": "O" 
			},
			{
				"x": 2.0958596486,
				"y": -0.6589189985,
				"z": -0.8514498929,
				"element": "C" 
			},
			{
				"x": 1.3484573922,
				"y": -1.7950855761,
				"z": -1.2384294691,
				"element": "C" 
			},
			{
				"x": 0.078764509,
				"y": -2.0086338218,
				"z": -0.7328579035,
				"element": "C" 
			},
			{
				"x": -0.4094730304,
				"y": -1.0477441817,
				"z": 0.1681740096,
				"element": "C" 
			},
			{
				"x": -1.5657466905,
				"y": -0.8902114362,
				"z": 0.8670078482,
				"element": "N" 
			},
			{
				"x": -1.5297761626,
				"y": 0.2516758494,
				"z": 1.6224193792,
				"element": "N" 
			},
			{
				"x": -0.3975531656,
				"y": 0.8360760429,
				"z": 1.4382330303,
				"element": "N" 
			},
			{
				"x": 0.3462108047,
				"y": 0.0841158154,
				"z": 0.5479967194,
				"element": "C" 
			},
			{
				"x": 1.6299554815,
				"y": 0.2978790661,
				"z": 0.035382156,
				"element": "C" 
			},
			{
				"x": 1.7980642669,
				"y": -2.4879269864,
				"z": -1.9381268735,
				"element": "H" 
			},
			{
				"x": -0.5016428474,
				"y": -2.8771568609,
				"z": -1.02404235,
				"element": "H" 
			},
			{
				"x": -2.3914049984,
				"y": -1.4696928516,
				"z": 0.8972749213,
				"element": "H" 
			},
			{
				"x": 2.232816527,
				"y": 1.1545861323,
				"z": 0.3069918011,
				"element": "H" 
			}
		],
		 "valence_orbital": [ 
			{
				"type": "occ",
				"energy": -0.3133,
				"method": "rhf"
			},
			{
				"type": "occ",
				"energy": -0.29636,
				"method": "rhf"
			},
			{
				"type": "occ",
				"energy": -0.29246,
				"method": "rhf"
			},
			{
				"type": "occ",
				"energy": -0.2843,
				"method": "rhf"
			},
			{
				"type": "occ",
				"energy": -0.27305,
				"method": "rhf"
			},
			{
				"type": "unocc",
				"energy": -0.09467,
				"method": "rhf"
			},
			{
				"type": "unocc",
				"energy": -0.06637,
				"method": "rhf"
			},
			{
				"type": "unocc",
				"energy": 0.0013,
				"method": "rhf"
			},
			{
				"type": "unocc",
				"energy": 0.01257,
				"method": "rhf"
			},
			{
				"type": "unocc",
				"energy": 0.05543,
				"method": "rhf"
			}
		],
		"cosmo_sigma_profile": { 
			"-0.025": 0.0,
			"-0.024": 0.0,
			"-0.023": 0.0,
			"-0.022": 0.0,
			"-0.021": 0.0,
			"-0.02": 0.0,
			"-0.019": 0.446997546312,
			"-0.018": 2.01250390009,
			"-0.017": 1.78613263503,
			"-0.016": 1.25665778434,
			"-0.015": 0.714322562424,
			"-0.014": 1.34233069034,
			"-0.013": 1.44632008158,
			"-0.012": 0.841640310487,
			"-0.011": 0.937636895022,
			"-0.01": 1.66121999332,
			"-0.009": 3.3543898518,
			"-0.008": 4.60734779748,
			"-0.007": 6.43245674309,
			"-0.006": 6.01948703663,
			"-0.005": 5.96677205934,
			"-0.004": 7.60892447712,
			"-0.003": 9.39847654973,
			"-0.002": 15.5866130204,
			"-0.001": 19.0725996301,
			"0.0": 12.3682490905,
			"0.001": 8.64928637161,
			"0.002": 5.51984678763,
			"0.003": 3.99448347892,
			"0.004": 4.45130323605,
			"0.005": 5.00007660038,
			"0.006": 5.16350590814,
			"0.007": 11.3032326607,
			"0.008": 9.3482505561,
			"0.009": 7.75376363561,
			"0.01": 5.60748960263,
			"0.011": 2.10218454302,
			"0.012": 2.36779611375,
			"0.013": 1.18863725259,
			"0.014": 0.767477790785,
			"0.015": 0.183662690038,
			"0.016": 0.0,
			"0.017": 0.0,
			"0.018": 0.0,
			"0.019": 0.0,
			"0.02": 0.0,
			"0.021": 0.0,
			"0.022": 0.0,
			"0.023": 0.0,
			"0.024": 0.0,
			"0.025": 0.0
		}
	}
}
