{
	 "smiles": "NC1=NC(NC2=CC=C(I)C=C2)=C(N=N1)C1=CC=CC=C1", 
	 "Tm": 662.15, 
	 "num_atms": 33, 
	 "gaussian": { 
		 "optdone": 1, 
		 "sigma_profile": "no", 
		 "theory": "DFT", 
		 "functional": "B3LYP", 
		 "basiset": "6-31G**", 
		 "properties": { 
			 "R2extent": 7451.46, 
			 "electric_dipole_moment_norm": 1.22102852137, 
			 "electric_quadrupole_moment_norm": 29.3282074832, 
			 "total_energy": -863.962092175, 
			 "HOMO_LUMO_gap": 0.15753, 
			 "cosmo_polarized_energy": -103345.95, 
			 "cosmo_cavitation_energy": 41.16, 
			 "cosmo_dispersion_energy": -31.05, 
			 "cosmo_repulsion_energy": 2.35, 
			 "cosmo_total_nonelectrostatic_energy": 12.46, 
			 "SMD_solvation_energy": 3.33 
		},
		"coords": [
			{
				"x": 2.2383421476,
				"y": -1.858224867,
				"z": 3.3427354789,
				"element": "N" 
			},
			{
				"x": 2.0197223572,
				"y": -1.1778754312,
				"z": 2.1828792431,
				"element": "C" 
			},
			{
				"x": 0.758509352,
				"y": -1.1463901518,
				"z": 1.7136961783,
				"element": "N" 
			},
			{
				"x": 0.566196761,
				"y": -0.4106367805,
				"z": 0.6239762093,
				"element": "C" 
			},
			{
				"x": -0.6596859592,
				"y": -0.3899178786,
				"z": 0.0096036795,
				"element": "N" 
			},
			{
				"x": -1.873531679,
				"y": -1.0250181898,
				"z": 0.3231287002,
				"element": "C" 
			},
			{
				"x": -2.9046933222,
				"y": -0.9121121335,
				"z": -0.6269209688,
				"element": "C" 
			},
			{
				"x": -4.1525289018,
				"y": -1.4839876353,
				"z": -0.4048488935,
				"element": "C" 
			},
			{
				"x": -4.3861447612,
				"y": -2.1827508047,
				"z": 0.7814006169,
				"element": "C" 
			},
			{
				"x": -6.2827206946,
				"y": -3.0624065256,
				"z": 1.1315982491,
				"element": "I" 
			},
			{
				"x": -3.3744492045,
				"y": -2.3030423441,
				"z": 1.7333990643,
				"element": "C" 
			},
			{
				"x": -2.1222298441,
				"y": -1.7290130968,
				"z": 1.5121156769,
				"element": "C" 
			},
			{
				"x": 1.6582963692,
				"y": 0.3296011337,
				"z": 0.053326892,
				"element": "C" 
			},
			{
				"x": 2.8786179109,
				"y": 0.1706108044,
				"z": 0.5575295374,
				"element": "N" 
			},
			{
				"x": 3.0965443903,
				"y": -0.5952003853,
				"z": 1.6219546916,
				"element": "N" 
			},
			{
				"x": 1.5395205239,
				"y": 1.2287983539,
				"z": -1.1237365977,
				"element": "C" 
			},
			{
				"x": 2.5133204614,
				"y": 1.1706859431,
				"z": -2.1354603926,
				"element": "C" 
			},
			{
				"x": 2.4441248754,
				"y": 2.0198594764,
				"z": -3.2370343512,
				"element": "C" 
			},
			{
				"x": 1.4027421979,
				"y": 2.9450934658,
				"z": -3.3515063698,
				"element": "C" 
			},
			{
				"x": 0.4384369399,
				"y": 3.0246081447,
				"z": -2.3467965411,
				"element": "C" 
			},
			{
				"x": 0.5067558543,
				"y": 2.1770695674,
				"z": -1.2391122003,
				"element": "C" 
			},
			{
				"x": 3.2007634357,
				"y": -2.0421782278,
				"z": 3.5801350007,
				"element": "H" 
			},
			{
				"x": 1.5353112633,
				"y": -2.5136715733,
				"z": 3.6435620814,
				"element": "H" 
			},
			{
				"x": -0.6702137307,
				"y": 0.1273271946,
				"z": -0.8589133549,
				"element": "H" 
			},
			{
				"x": -2.7274745004,
				"y": -0.3714678849,
				"z": -1.553834354,
				"element": "H" 
			},
			{
				"x": -4.9305140397,
				"y": -1.3841247531,
				"z": -1.1532004485,
				"element": "H" 
			},
			{
				"x": -3.5511761464,
				"y": -2.8432378992,
				"z": 2.6569133858,
				"element": "H" 
			},
			{
				"x": -1.3379657142,
				"y": -1.8259762022,
				"z": 2.2477026977,
				"element": "H" 
			},
			{
				"x": 3.3244463732,
				"y": 0.4573967465,
				"z": -2.0362167593,
				"element": "H" 
			},
			{
				"x": 3.2038089125,
				"y": 1.9585472384,
				"z": -4.0110366925,
				"element": "H" 
			},
			{
				"x": 1.3489661694,
				"y": 3.6037268087,
				"z": -4.2133582089,
				"element": "H" 
			},
			{
				"x": -0.3612220249,
				"y": 3.7567073787,
				"z": -2.4138939286,
				"element": "H" 
			},
			{
				"x": -0.2236757723,
				"y": 2.2831005084,
				"z": -0.4413873212,
				"element": "H" 
			}
		],
		 "valence_orbital": [ 
			{
				"type": "occ",
				"energy": -0.26771,
				"method": "rhf"
			},
			{
				"type": "occ",
				"energy": -0.26096,
				"method": "rhf"
			},
			{
				"type": "occ",
				"energy": -0.23462,
				"method": "rhf"
			},
			{
				"type": "occ",
				"energy": -0.2257,
				"method": "rhf"
			},
			{
				"type": "occ",
				"energy": -0.21047,
				"method": "rhf"
			},
			{
				"type": "unocc",
				"energy": -0.05294,
				"method": "rhf"
			},
			{
				"type": "unocc",
				"energy": -0.03803,
				"method": "rhf"
			},
			{
				"type": "unocc",
				"energy": -0.03536,
				"method": "rhf"
			},
			{
				"type": "unocc",
				"energy": -0.01794,
				"method": "rhf"
			},
			{
				"type": "unocc",
				"energy": -0.01388,
				"method": "rhf"
			}
		],
		"cosmo_sigma_profile": { 
			"0.0": 0.0,
			"0.0": 0.0,
			"0.0": 0.0,
			"0.0": 0.0,
			"0.0": 0.0,
			"0.0": 0.0,
			"0.0": 0.0,
			"0.0": 0.0,
			"0.0": 0.0,
			"0.0": 0.0,
			"0.0": 0.0,
			"0.0": 0.0,
			"0.0": 0.0,
			"0.0": 0.0,
			"0.0": 0.0,
			"0.0": 0.0,
			"0.0": 0.0,
			"0.0": 0.0,
			"0.0": 0.0,
			"0.0": 0.0,
			"0.0": 0.0,
			"0.0": 0.0,
			"0.0": 0.0,
			"0.0": 0.0,
			"0.0": 0.0,
			"0.0": 0.0,
			"0.0": 0.0,
			"0.0": 0.0,
			"0.0": 0.0,
			"0.0": 0.0,
			"0.0": 0.0,
			"0.0": 0.0,
			"0.0": 0.0,
			"0.0": 0.0,
			"0.0": 0.0,
			"0.0": 0.0,
			"0.0": 0.0,
			"0.0": 0.0,
			"0.0": 0.0,
			"0.0": 0.0,
			"0.0": 0.0,
			"0.0": 0.0,
			"0.0": 0.0,
			"0.0": 0.0,
			"0.0": 0.0,
			"0.0": 0.0,
			"0.0": 0.0,
			"0.0": 0.0,
			"0.0": 0.0,
			"0.0": 0.0,
			"0.0": 0.0
		}
	}
}
