{
	 "smiles": "OCCSC1CS(=O)(=O)C2=CC(=CC=C12)[N+]([O-])=O", 
	 "Tm": 401.15, 
	 "num_atms": 29, 
	 "gaussian": { 
		 "optdone": 1, 
		 "sigma_profile": "yes", 
		 "theory": "DFT", 
		 "functional": "B3LYP", 
		 "basiset": "6-31G**", 
		 "properties": { 
			 "R2extent": 8066.1964, 
			 "electric_dipole_moment_norm": 5.24294923683, 
			 "electric_quadrupole_moment_norm": 21.2454243354, 
			 "total_energy": -1614.75259359, 
			 "HOMO_LUMO_gap": 0.14291, 
			 "cosmo_polarized_energy": -23.59, 
			 "cosmo_cavitation_energy": 36.12, 
			 "cosmo_dispersion_energy": -26.1, 
			 "cosmo_repulsion_energy": 1.95, 
			 "cosmo_total_nonelectrostatic_energy": 11.97, 
			 "SMD_solvation_energy": 6.9 
		},
		"coords": [
			{
				"x": 1.2371096545,
				"y": -2.8917194011,
				"z": 1.0205643442,
				"element": "O" 
			},
			{
				"x": 0.8953509048,
				"y": -2.2268535399,
				"z": -0.1827602895,
				"element": "C" 
			},
			{
				"x": 0.6031078932,
				"y": -0.7430145576,
				"z": 0.0734920052,
				"element": "C" 
			},
			{
				"x": 0.3449222899,
				"y": 0.1189207959,
				"z": -1.5350874991,
				"element": "S" 
			},
			{
				"x": -0.4934874858,
				"y": 1.6915371211,
				"z": -1.0368144742,
				"element": "C" 
			},
			{
				"x": -1.9682884537,
				"y": 1.54956697,
				"z": -0.5901532465,
				"element": "C" 
			},
			{
				"x": -2.0388597977,
				"y": 1.8521583167,
				"z": 1.2181413662,
				"element": "S" 
			},
			{
				"x": -1.9626776784,
				"y": 0.5684794854,
				"z": 1.9371858781,
				"element": "O" 
			},
			{
				"x": -3.0960251833,
				"y": 2.8137755884,
				"z": 1.5520088196,
				"element": "O" 
			},
			{
				"x": -0.4292065966,
				"y": 2.6444541476,
				"z": 1.2409977894,
				"element": "C" 
			},
			{
				"x": 0.1061186187,
				"y": 3.3412497606,
				"z": 2.3182819346,
				"element": "C" 
			},
			{
				"x": 1.383262238,
				"y": 3.8634407984,
				"z": 2.1456118599,
				"element": "C" 
			},
			{
				"x": 2.1065193753,
				"y": 3.703914345,
				"z": 0.9592616645,
				"element": "C" 
			},
			{
				"x": 1.5391095437,
				"y": 3.0001149305,
				"z": -0.098177591,
				"element": "C" 
			},
			{
				"x": 0.2523300734,
				"y": 2.4650910591,
				"z": 0.0372003571,
				"element": "C" 
			},
			{
				"x": 1.9946609578,
				"y": 4.6190518575,
				"z": 3.255369867,
				"element": "N" 
			},
			{
				"x": 1.3351787685,
				"y": 4.7444786274,
				"z": 4.284221635,
				"element": "O" 
			},
			{
				"x": 3.1231619766,
				"y": 5.07243442,
				"z": 3.0763649089,
				"element": "O" 
			},
			{
				"x": 0.4559632858,
				"y": -2.9032433344,
				"z": 1.589480299,
				"element": "H" 
			},
			{
				"x": 0.036400081,
				"y": -2.6958858839,
				"z": -0.6853132406,
				"element": "H" 
			},
			{
				"x": 1.7616916751,
				"y": -2.3365958544,
				"z": -0.8431554157,
				"element": "H" 
			},
			{
				"x": 1.446619619,
				"y": -0.2931212987,
				"z": 0.6032502895,
				"element": "H" 
			},
			{
				"x": -0.2953650423,
				"y": -0.638177184,
				"z": 0.688726521,
				"element": "H" 
			},
			{
				"x": -0.4644130594,
				"y": 2.259525975,
				"z": -1.9719025141,
				"element": "H" 
			},
			{
				"x": -2.3891340071,
				"y": 0.5620028943,
				"z": -0.7782611705,
				"element": "H" 
			},
			{
				"x": -2.5999744339,
				"y": 2.3152949234,
				"z": -1.0464538305,
				"element": "H" 
			},
			{
				"x": -0.4310343586,
				"y": 3.4890342438,
				"z": 3.2473767122,
				"element": "H" 
			},
			{
				"x": 3.0965228509,
				"y": 4.1366066507,
				"z": 0.8873921198,
				"element": "H" 
			},
			{
				"x": 2.0924362904,
				"y": 2.8598781429,
				"z": -1.0213490996,
				"element": "H" 
			}
		],
		 "valence_orbital": [ 
			{
				"type": "occ",
				"energy": -0.30747,
				"method": "rhf"
			},
			{
				"type": "occ",
				"energy": -0.30288,
				"method": "rhf"
			},
			{
				"type": "occ",
				"energy": -0.29439,
				"method": "rhf"
			},
			{
				"type": "occ",
				"energy": -0.28277,
				"method": "rhf"
			},
			{
				"type": "occ",
				"energy": -0.2529,
				"method": "rhf"
			},
			{
				"type": "unocc",
				"energy": -0.10999,
				"method": "rhf"
			},
			{
				"type": "unocc",
				"energy": -0.06745,
				"method": "rhf"
			},
			{
				"type": "unocc",
				"energy": -0.03538,
				"method": "rhf"
			},
			{
				"type": "unocc",
				"energy": 0.00835,
				"method": "rhf"
			},
			{
				"type": "unocc",
				"energy": 0.03225,
				"method": "rhf"
			}
		],
		"cosmo_sigma_profile": { 
			"-0.025": 0.0,
			"-0.024": 0.0,
			"-0.023": 0.0,
			"-0.022": 0.0,
			"-0.021": 0.0,
			"-0.02": 0.0,
			"-0.019": 0.0,
			"-0.018": 0.0,
			"-0.017": 0.0,
			"-0.016": 0.544347026516,
			"-0.015": 0.959416254354,
			"-0.014": 1.21167299722,
			"-0.013": 0.928130046049,
			"-0.012": 1.37112044473,
			"-0.011": 0.687820481678,
			"-0.01": 5.46313085439,
			"-0.009": 11.909946773,
			"-0.008": 11.7742899707,
			"-0.007": 13.7825173501,
			"-0.006": 13.3459182536,
			"-0.005": 14.1439304869,
			"-0.004": 18.1093693881,
			"-0.003": 22.925336363,
			"-0.002": 23.6815806774,
			"-0.001": 17.1147239992,
			"0.0": 14.3189130001,
			"0.001": 9.06389415891,
			"0.002": 8.56638609283,
			"0.003": 7.12280257391,
			"0.004": 8.11729387063,
			"0.005": 9.42751107198,
			"0.006": 11.1310023932,
			"0.007": 15.4594817833,
			"0.008": 10.2495795547,
			"0.009": 9.02674427968,
			"0.01": 10.5100866945,
			"0.011": 10.7316998505,
			"0.012": 3.2503055663,
			"0.013": 1.96954319126,
			"0.014": 2.00343828674,
			"0.015": 0.0897900314766,
			"0.016": 0.0,
			"0.017": 0.0,
			"0.018": 0.0,
			"0.019": 0.0,
			"0.02": 0.0,
			"0.021": 0.0,
			"0.022": 0.0,
			"0.023": 0.0,
			"0.024": 0.0,
			"0.025": 0.0
		}
	}
}
