{
	 "smiles": "NC1=NC=C(CC2=CC(Cl)=C(Cl)C=C2)S1", 
	 "Tm": 357.15, 
	 "num_atms": 23, 
	 "gaussian": { 
		 "optdone": 1, 
		 "sigma_profile": "yes", 
		 "theory": "DFT", 
		 "functional": "B3LYP", 
		 "basiset": "6-31G**", 
		 "properties": { 
			 "R2extent": 6405.6299, 
			 "electric_dipole_moment_norm": 2.35415354002, 
			 "electric_quadrupole_moment_norm": 21.2608598982, 
			 "total_energy": -1813.95654154, 
			 "HOMO_LUMO_gap": 0.18675, 
			 "cosmo_polarized_energy": -12.81, 
			 "cosmo_cavitation_energy": 33.05, 
			 "cosmo_dispersion_energy": -24.25, 
			 "cosmo_repulsion_energy": 1.89, 
			 "cosmo_total_nonelectrostatic_energy": 10.69, 
			 "SMD_solvation_energy": 2.82 
		},
		"coords": [
			{
				"x": -4.2852609513,
				"y": 3.3700719269,
				"z": 0.8879781152,
				"element": "N" 
			},
			{
				"x": -3.4542990736,
				"y": 2.4081244173,
				"z": 0.3604098987,
				"element": "C" 
			},
			{
				"x": -3.1879751829,
				"y": 2.2926803209,
				"z": -0.9086685826,
				"element": "N" 
			},
			{
				"x": -2.3897068013,
				"y": 1.1907552978,
				"z": -1.1316962849,
				"element": "C" 
			},
			{
				"x": -2.0191889846,
				"y": 0.4452525923,
				"z": -0.0529217095,
				"element": "C" 
			},
			{
				"x": -1.158796849,
				"y": -0.7832971107,
				"z": -0.0077847051,
				"element": "C" 
			},
			{
				"x": 0.1582593718,
				"y": -0.6316624517,
				"z": 0.7428315574,
				"element": "C" 
			},
			{
				"x": 0.982172121,
				"y": 0.4751060432,
				"z": 0.5160248599,
				"element": "C" 
			},
			{
				"x": 2.2061123349,
				"y": 0.6045383352,
				"z": 1.1713651068,
				"element": "C" 
			},
			{
				"x": 3.1898143826,
				"y": 2.0117234472,
				"z": 0.8412212214,
				"element": "Cl" 
			},
			{
				"x": 2.6247466757,
				"y": -0.3821393049,
				"z": 2.0755241084,
				"element": "C" 
			},
			{
				"x": 4.1472622748,
				"y": -0.2623119669,
				"z": 2.9244019227,
				"element": "Cl" 
			},
			{
				"x": 1.8052805897,
				"y": -1.4869870667,
				"z": 2.3089593921,
				"element": "C" 
			},
			{
				"x": 0.5844285784,
				"y": -1.6081695249,
				"z": 1.648654838,
				"element": "C" 
			},
			{
				"x": -2.7382084587,
				"y": 1.1596041702,
				"z": 1.3926382272,
				"element": "S" 
			},
			{
				"x": -4.473244368,
				"y": 4.1228721401,
				"z": 0.2383049788,
				"element": "H" 
			},
			{
				"x": -4.0875268942,
				"y": 3.6803078585,
				"z": 1.8286198054,
				"element": "H" 
			},
			{
				"x": -2.08670127,
				"y": 0.9642734828,
				"z": -2.1490313451,
				"element": "H" 
			},
			{
				"x": -0.9488569385,
				"y": -1.0631109711,
				"z": -1.0488031007,
				"element": "H" 
			},
			{
				"x": -1.7127283513,
				"y": -1.6261439691,
				"z": 0.423822887,
				"element": "H" 
			},
			{
				"x": 0.6681045157,
				"y": 1.2533647288,
				"z": -0.1716023242,
				"element": "H" 
			},
			{
				"x": 2.1312766995,
				"y": -2.2448410821,
				"z": 3.0127913881,
				"element": "H" 
			},
			{
				"x": -0.0410634205,
				"y": -2.4748113132,
				"z": 1.844059745,
				"element": "H" 
			}
		],
		 "valence_orbital": [ 
			{
				"type": "occ",
				"energy": -0.27732,
				"method": "rhf"
			},
			{
				"type": "occ",
				"energy": -0.27463,
				"method": "rhf"
			},
			{
				"type": "occ",
				"energy": -0.25961,
				"method": "rhf"
			},
			{
				"type": "occ",
				"energy": -0.24643,
				"method": "rhf"
			},
			{
				"type": "occ",
				"energy": -0.21249,
				"method": "rhf"
			},
			{
				"type": "unocc",
				"energy": -0.02574,
				"method": "rhf"
			},
			{
				"type": "unocc",
				"energy": -0.02298,
				"method": "rhf"
			},
			{
				"type": "unocc",
				"energy": -0.00933,
				"method": "rhf"
			},
			{
				"type": "unocc",
				"energy": 0.00528,
				"method": "rhf"
			},
			{
				"type": "unocc",
				"energy": 0.0089,
				"method": "rhf"
			}
		],
		"cosmo_sigma_profile": { 
			"-0.025": 0.0,
			"-0.024": 0.0,
			"-0.023": 0.0,
			"-0.022": 0.0,
			"-0.021": 0.0,
			"-0.02": 0.0,
			"-0.019": 0.0,
			"-0.018": 0.0,
			"-0.017": 0.0,
			"-0.016": 0.0,
			"-0.015": 0.255546130533,
			"-0.014": 1.72146028416,
			"-0.013": 2.7864688646,
			"-0.012": 2.24338922198,
			"-0.011": 2.97615312188,
			"-0.01": 2.24332092404,
			"-0.009": 1.97538560619,
			"-0.008": 2.60497887061,
			"-0.007": 8.68562086591,
			"-0.006": 13.7238210426,
			"-0.005": 12.415550744,
			"-0.004": 12.6610032788,
			"-0.003": 14.6057595975,
			"-0.002": 13.8370929565,
			"-0.001": 15.2278324169,
			"0.0": 18.9931274165,
			"0.001": 25.8151291587,
			"0.002": 31.4425965679,
			"0.003": 28.7926761943,
			"0.004": 26.6509214795,
			"0.005": 12.406749976,
			"0.006": 4.39311378394,
			"0.007": 2.36705129304,
			"0.008": 2.20194591157,
			"0.009": 1.47117671396,
			"0.01": 1.67444968319,
			"0.011": 1.98388025449,
			"0.012": 1.32321438236,
			"0.013": 1.079760165,
			"0.014": 1.23720407501,
			"0.015": 0.667135795778,
			"0.016": 0.610000223893,
			"0.017": 0.0145489557224,
			"0.018": 0.0,
			"0.019": 0.0,
			"0.02": 0.0,
			"0.021": 0.0,
			"0.022": 0.0,
			"0.023": 0.0,
			"0.024": 0.0,
			"0.025": 0.0
		}
	}
}
