{
	 "smiles": "C1CC2=CC3=C(CC3)C=C12", 
	 "Tm": 374.15, 
	 "num_atms": 20, 
	 "gaussian": { 
		 "optdone": 1, 
		 "sigma_profile": "yes", 
		 "theory": "DFT", 
		 "functional": "B3LYP", 
		 "basiset": "6-31G**", 
		 "properties": { 
			 "R2extent": 1653.2909, 
			 "electric_dipole_moment_norm": 0.0, 
			 "electric_quadrupole_moment_norm": 3.22788942345, 
			 "total_energy": -387.021972979, 
			 "HOMO_LUMO_gap": 0.21448, 
			 "cosmo_polarized_energy": -2.6, 
			 "cosmo_cavitation_energy": 22.5, 
			 "cosmo_dispersion_energy": -17.18, 
			 "cosmo_repulsion_energy": 1.43, 
			 "cosmo_total_nonelectrostatic_energy": 6.75, 
			 "SMD_solvation_energy": 2.79 
		},
		"coords": [
			{
				"x": -2.3796635373,
				"y": 1.7312179374,
				"z": 0.3912625994,
				"element": "C" 
			},
			{
				"x": -1.5791680934,
				"y": 2.6824126503,
				"z": 1.365416274,
				"element": "C" 
			},
			{
				"x": -0.4076988158,
				"y": 1.7253034854,
				"z": 1.1940925202,
				"element": "C" 
			},
			{
				"x": 0.9140276074,
				"y": 1.5038464331,
				"z": 1.5843312516,
				"element": "C" 
			},
			{
				"x": 1.4478881853,
				"y": 0.3461864256,
				"z": 1.0159113631,
				"element": "C" 
			},
			{
				"x": 0.7369202244,
				"y": -0.4986408642,
				"z": 0.150800863,
				"element": "C" 
			},
			{
				"x": 1.9083890024,
				"y": -1.45575348,
				"z": -0.0205166699,
				"element": "C" 
			},
			{
				"x": 2.7088819309,
				"y": -0.5045598275,
				"z": 0.9536414241,
				"element": "C" 
			},
			{
				"x": -0.5848053976,
				"y": -0.2771855435,
				"z": -0.2394352849,
				"element": "C" 
			},
			{
				"x": -1.1186656286,
				"y": 0.8804771857,
				"z": 0.3289844312,
				"element": "C" 
			},
			{
				"x": -2.686821625,
				"y": 2.1976815497,
				"z": -0.5513221354,
				"element": "H" 
			},
			{
				"x": -3.2563978577,
				"y": 1.2516331364,
				"z": 0.8404153566,
				"element": "H" 
			},
			{
				"x": -1.4240432594,
				"y": 3.6983069402,
				"z": 0.9855530918,
				"element": "H" 
			},
			{
				"x": -1.993474792,
				"y": 2.7521520071,
				"z": 2.377288972,
				"element": "H" 
			},
			{
				"x": 1.4649354253,
				"y": 2.1584822787,
				"z": 2.2546841096,
				"element": "H" 
			},
			{
				"x": 2.3227016963,
				"y": -1.5254888987,
				"z": -1.0323870026,
				"element": "H" 
			},
			{
				"x": 1.7532584789,
				"y": -2.4716472969,
				"z": 0.3593445195,
				"element": "H" 
			},
			{
				"x": 3.5856205624,
				"y": -0.0249807715,
				"z": 0.5044910326,
				"element": "H" 
			},
			{
				"x": 3.016033058,
				"y": -0.9710226061,
				"z": 1.8962288637,
				"element": "H" 
			},
			{
				"x": -1.1357171647,
				"y": -0.9318207413,
				"z": -0.9097855794,
				"element": "H" 
			}
		],
		 "valence_orbital": [ 
			{
				"type": "occ",
				"energy": -0.32002,
				"method": "rhf"
			},
			{
				"type": "occ",
				"energy": -0.30641,
				"method": "rhf"
			},
			{
				"type": "occ",
				"energy": -0.29979,
				"method": "rhf"
			},
			{
				"type": "occ",
				"energy": -0.23898,
				"method": "rhf"
			},
			{
				"type": "occ",
				"energy": -0.21785,
				"method": "rhf"
			},
			{
				"type": "unocc",
				"energy": -0.00337,
				"method": "rhf"
			},
			{
				"type": "unocc",
				"energy": 0.02069,
				"method": "rhf"
			},
			{
				"type": "unocc",
				"energy": 0.11025,
				"method": "rhf"
			},
			{
				"type": "unocc",
				"energy": 0.11829,
				"method": "rhf"
			},
			{
				"type": "unocc",
				"energy": 0.13661,
				"method": "rhf"
			}
		],
		"cosmo_sigma_profile": { 
			"-0.025": 0.0,
			"-0.024": 0.0,
			"-0.023": 0.0,
			"-0.022": 0.0,
			"-0.021": 0.0,
			"-0.02": 0.0,
			"-0.019": 0.0,
			"-0.018": 0.0,
			"-0.017": 0.0,
			"-0.016": 0.0,
			"-0.015": 0.0,
			"-0.014": 0.0,
			"-0.013": 0.0,
			"-0.012": 0.0,
			"-0.011": 0.0,
			"-0.01": 0.0,
			"-0.009": 0.0,
			"-0.008": 0.0,
			"-0.007": 0.0,
			"-0.006": 0.869823743599,
			"-0.005": 3.74017222357,
			"-0.004": 12.9602824873,
			"-0.003": 19.8488832164,
			"-0.002": 21.2171232518,
			"-0.001": 24.2154112975,
			"0.0": 29.0746486336,
			"0.001": 22.8821309526,
			"0.002": 11.2650869793,
			"0.003": 6.94323330719,
			"0.004": 6.76482077043,
			"0.005": 7.5771226439,
			"0.006": 6.31401064497,
			"0.007": 4.75324868265,
			"0.008": 0.0885783592312,
			"0.009": 0.0,
			"0.01": 0.0,
			"0.011": 0.0,
			"0.012": 0.0,
			"0.013": 0.0,
			"0.014": 0.0,
			"0.015": 0.0,
			"0.016": 0.0,
			"0.017": 0.0,
			"0.018": 0.0,
			"0.019": 0.0,
			"0.02": 0.0,
			"0.021": 0.0,
			"0.022": 0.0,
			"0.023": 0.0,
			"0.024": 0.0,
			"0.025": 0.0
		}
	}
}
