{
	 "smiles": "OCCNC1=NN=CC=C1", 
	 "Tm": 351.15, 
	 "num_atms": 19, 
	 "gaussian": { 
		 "optdone": 1, 
		 "sigma_profile": "yes", 
		 "theory": "DFT", 
		 "functional": "B3LYP", 
		 "basiset": "6-31G**", 
		 "properties": { 
			 "R2extent": 2605.4816, 
			 "electric_dipole_moment_norm": 2.89632269956, 
			 "electric_quadrupole_moment_norm": 21.2788454478, 
			 "total_energy": -473.491085866, 
			 "HOMO_LUMO_gap": 0.1821, 
			 "cosmo_polarized_energy": -14.82, 
			 "cosmo_cavitation_energy": 22.51, 
			 "cosmo_dispersion_energy": -16.86, 
			 "cosmo_repulsion_energy": 1.38, 
			 "cosmo_total_nonelectrostatic_energy": 7.03, 
			 "SMD_solvation_energy": 1.76 
		},
		"coords": [
			{
				"x": -1.325560677,
				"y": 1.4613335214,
				"z": 2.4694919072,
				"element": "O" 
			},
			{
				"x": -0.5210623752,
				"y": 2.3497050717,
				"z": 1.709911531,
				"element": "C" 
			},
			{
				"x": -0.2911987409,
				"y": 1.8360931801,
				"z": 0.2854844589,
				"element": "C" 
			},
			{
				"x": -1.5487760944,
				"y": 1.6154151431,
				"z": -0.4280529694,
				"element": "N" 
			},
			{
				"x": -2.0545856184,
				"y": 0.3582323656,
				"z": -0.7058212638,
				"element": "C" 
			},
			{
				"x": -2.801322776,
				"y": 0.2945163979,
				"z": -1.825829653,
				"element": "N" 
			},
			{
				"x": -3.3735324912,
				"y": -0.8498004532,
				"z": -2.184593262,
				"element": "N" 
			},
			{
				"x": -3.1861847994,
				"y": -1.9446542834,
				"z": -1.4467661241,
				"element": "C" 
			},
			{
				"x": -2.426780247,
				"y": -1.9456437386,
				"z": -0.2688282479,
				"element": "C" 
			},
			{
				"x": -1.8472271815,
				"y": -0.7594568452,
				"z": 0.1322504086,
				"element": "C" 
			},
			{
				"x": -2.2012273739,
				"y": 1.4650140982,
				"z": 2.0578100189,
				"element": "H" 
			},
			{
				"x": -0.9660505561,
				"y": 3.3561030323,
				"z": 1.6722853111,
				"element": "H" 
			},
			{
				"x": 0.4383685829,
				"y": 2.429168121,
				"z": 2.2323411653,
				"element": "H" 
			},
			{
				"x": 0.3134619719,
				"y": 2.5618048771,
				"z": -0.2720208207,
				"element": "H" 
			},
			{
				"x": 0.2803313433,
				"y": 0.9013868614,
				"z": 0.3229619403,
				"element": "H" 
			},
			{
				"x": -1.7572421768,
				"y": 2.2566474016,
				"z": -1.1836053558,
				"element": "H" 
			},
			{
				"x": -3.672668505,
				"y": -2.8441589247,
				"z": -1.8130312656,
				"element": "H" 
			},
			{
				"x": -2.3154707043,
				"y": -2.8524182894,
				"z": 0.3181570404,
				"element": "H" 
			},
			{
				"x": -1.2953715809,
				"y": -0.664587537,
				"z": 1.0607551804,
				"element": "H" 
			}
		],
		 "valence_orbital": [ 
			{
				"type": "occ",
				"energy": -0.31084,
				"method": "rhf"
			},
			{
				"type": "occ",
				"energy": -0.29859,
				"method": "rhf"
			},
			{
				"type": "occ",
				"energy": -0.28144,
				"method": "rhf"
			},
			{
				"type": "occ",
				"energy": -0.22636,
				"method": "rhf"
			},
			{
				"type": "occ",
				"energy": -0.22397,
				"method": "rhf"
			},
			{
				"type": "unocc",
				"energy": -0.04187,
				"method": "rhf"
			},
			{
				"type": "unocc",
				"energy": -0.00497,
				"method": "rhf"
			},
			{
				"type": "unocc",
				"energy": 0.07308,
				"method": "rhf"
			},
			{
				"type": "unocc",
				"energy": 0.09595,
				"method": "rhf"
			},
			{
				"type": "unocc",
				"energy": 0.10492,
				"method": "rhf"
			}
		],
		"cosmo_sigma_profile": { 
			"-0.025": 0.0,
			"-0.024": 0.0,
			"-0.023": 0.0,
			"-0.022": 0.0,
			"-0.021": 0.0,
			"-0.02": 0.0,
			"-0.019": 0.0,
			"-0.018": 0.0,
			"-0.017": 0.0,
			"-0.016": 0.0,
			"-0.015": 0.0,
			"-0.014": 0.225067686145,
			"-0.013": 0.858663334761,
			"-0.012": 1.45049067341,
			"-0.011": 1.97826041114,
			"-0.01": 1.90391679058,
			"-0.009": 1.11755948547,
			"-0.008": 2.64512482684,
			"-0.007": 6.99642758624,
			"-0.006": 11.7029787744,
			"-0.005": 16.816773935,
			"-0.004": 18.5077939734,
			"-0.003": 14.0289631566,
			"-0.002": 11.7541337022,
			"-0.001": 9.99626745573,
			"0.0": 10.9588466064,
			"0.001": 11.3078180808,
			"0.002": 9.19127578894,
			"0.003": 4.96752598381,
			"0.004": 4.63592464355,
			"0.005": 3.66930775465,
			"0.006": 2.46697392756,
			"0.007": 2.99350787274,
			"0.008": 3.4229870889,
			"0.009": 2.72756746589,
			"0.01": 2.15330827539,
			"0.011": 3.50727749656,
			"0.012": 2.86885581606,
			"0.013": 3.59547298031,
			"0.014": 4.38931155784,
			"0.015": 3.07644003081,
			"0.016": 1.74810343217,
			"0.017": 0.422076105639,
			"0.018": 0.0,
			"0.019": 0.0,
			"0.02": 0.0,
			"0.021": 0.0,
			"0.022": 0.0,
			"0.023": 0.0,
			"0.024": 0.0,
			"0.025": 0.0
		}
	}
}
