{
	 "smiles": "CNC1=NC=C(C=C1)C(O)=O", 
	 "Tm": 523.15, 
	 "num_atms": 19, 
	 "gaussian": { 
		 "optdone": 1, 
		 "sigma_profile": "yes", 
		 "theory": "DFT", 
		 "functional": "B3LYP", 
		 "basiset": "6-31G**", 
		 "properties": { 
			 "R2extent": 2410.0249, 
			 "electric_dipole_moment_norm": 4.45904674342, 
			 "electric_quadrupole_moment_norm": 17.1276382838, 
			 "total_energy": -531.540407723, 
			 "HOMO_LUMO_gap": 0.18095, 
			 "cosmo_polarized_energy": -13.39, 
			 "cosmo_cavitation_energy": 23.6, 
			 "cosmo_dispersion_energy": -17.66, 
			 "cosmo_repulsion_energy": 1.42, 
			 "cosmo_total_nonelectrostatic_energy": 7.36, 
			 "SMD_solvation_energy": 3.51 
		},
		"coords": [
			{
				"x": -3.6707035803,
				"y": 0.9212669822,
				"z": -0.013287006,
				"element": "C" 
			},
			{
				"x": -2.9113430721,
				"y": 0.1417097577,
				"z": -0.9641156486,
				"element": "N" 
			},
			{
				"x": -1.5599521032,
				"y": -0.023934026,
				"z": -0.9451411195,
				"element": "C" 
			},
			{
				"x": -1.0640247885,
				"y": -0.7973886956,
				"z": -1.9384432272,
				"element": "N" 
			},
			{
				"x": 0.2483432829,
				"y": -0.9962137861,
				"z": -1.9733784163,
				"element": "C" 
			},
			{
				"x": 1.1550046388,
				"y": -0.4568800164,
				"z": -1.0478198059,
				"element": "C" 
			},
			{
				"x": 0.627382623,
				"y": 0.3444296874,
				"z": -0.0211465885,
				"element": "C" 
			},
			{
				"x": -0.735470674,
				"y": 0.5697364722,
				"z": 0.0416644933,
				"element": "C" 
			},
			{
				"x": 2.5890107653,
				"y": -0.7536512602,
				"z": -1.1978564292,
				"element": "C" 
			},
			{
				"x": 3.3561041115,
				"y": -0.1692874235,
				"z": -0.2356250708,
				"element": "O" 
			},
			{
				"x": 3.0791616863,
				"y": -1.4429106931,
				"z": -2.0737919239,
				"element": "O" 
			},
			{
				"x": -3.3723529003,
				"y": 1.9781735815,
				"z": -0.0168894241,
				"element": "H" 
			},
			{
				"x": -3.5622426872,
				"y": 0.5394369084,
				"z": 1.0106482742,
				"element": "H" 
			},
			{
				"x": -4.7273194857,
				"y": 0.8692190484,
				"z": -0.2812947856,
				"element": "H" 
			},
			{
				"x": -3.3813622873,
				"y": -0.3333165403,
				"z": -1.7197775391,
				"element": "H" 
			},
			{
				"x": 0.6289548389,
				"y": -1.6203914127,
				"z": -2.7786303122,
				"element": "H" 
			},
			{
				"x": 1.2913598306,
				"y": 0.7819908653,
				"z": 0.7165429557,
				"element": "H" 
			},
			{
				"x": -1.1603230993,
				"y": 1.1848856099,
				"z": 0.8262013643,
				"element": "H" 
			},
			{
				"x": 4.2679729004,
				"y": -0.4343750591,
				"z": -0.4381597907,
				"element": "H" 
			}
		],
		 "valence_orbital": [ 
			{
				"type": "occ",
				"energy": -0.30311,
				"method": "rhf"
			},
			{
				"type": "occ",
				"energy": -0.2843,
				"method": "rhf"
			},
			{
				"type": "occ",
				"energy": -0.27164,
				"method": "rhf"
			},
			{
				"type": "occ",
				"energy": -0.25769,
				"method": "rhf"
			},
			{
				"type": "occ",
				"energy": -0.21479,
				"method": "rhf"
			},
			{
				"type": "unocc",
				"energy": -0.03384,
				"method": "rhf"
			},
			{
				"type": "unocc",
				"energy": -0.01744,
				"method": "rhf"
			},
			{
				"type": "unocc",
				"energy": 0.06724,
				"method": "rhf"
			},
			{
				"type": "unocc",
				"energy": 0.07977,
				"method": "rhf"
			},
			{
				"type": "unocc",
				"energy": 0.08625,
				"method": "rhf"
			}
		],
		"cosmo_sigma_profile": { 
			"-0.025": 0.0,
			"-0.024": 0.0,
			"-0.023": 0.0,
			"-0.022": 0.0,
			"-0.021": 0.0,
			"-0.02": 0.0,
			"-0.019": 0.0,
			"-0.018": 0.428828002073,
			"-0.017": 1.01867443415,
			"-0.016": 0.871027695244,
			"-0.015": 0.268130439861,
			"-0.014": 1.02073692872,
			"-0.013": 1.71430257807,
			"-0.012": 2.00631805299,
			"-0.011": 1.67629855131,
			"-0.01": 1.68274265894,
			"-0.009": 1.89213504445,
			"-0.008": 1.07982350812,
			"-0.007": 4.07217561349,
			"-0.006": 8.59293814912,
			"-0.005": 13.2186939892,
			"-0.004": 13.1944363888,
			"-0.003": 11.504740559,
			"-0.002": 12.8842160344,
			"-0.001": 10.9450710084,
			"0.0": 12.0756756792,
			"0.001": 16.3497263425,
			"0.002": 17.147898559,
			"0.003": 13.1554307788,
			"0.004": 5.61386186089,
			"0.005": 4.60161455828,
			"0.006": 3.82165188876,
			"0.007": 3.44871637077,
			"0.008": 5.11140679011,
			"0.009": 2.45446549981,
			"0.01": 2.41668054473,
			"0.011": 3.59424956701,
			"0.012": 6.10258519194,
			"0.013": 2.53569445192,
			"0.014": 0.669148811227,
			"0.015": 0.535038917771,
			"0.016": 0.0313963989802,
			"0.017": 0.0,
			"0.018": 0.0,
			"0.019": 0.0,
			"0.02": 0.0,
			"0.021": 0.0,
			"0.022": 0.0,
			"0.023": 0.0,
			"0.024": 0.0,
			"0.025": 0.0
		}
	}
}
