{
	 "smiles": "CCCCCCCCC(=O)CCCCCC", 
	 "Tm": 304.15, 
	 "num_atms": 46, 
	 "gaussian": { 
		 "optdone": 1, 
		 "sigma_profile": "yes", 
		 "theory": "DFT", 
		 "functional": "B3LYP", 
		 "basiset": "6-31G**", 
		 "properties": { 
			 "R2extent": 5414.6373, 
			 "electric_dipole_moment_norm": 2.4340847171, 
			 "electric_quadrupole_moment_norm": 8.34821184805, 
			 "total_energy": -664.938460792, 
			 "HOMO_LUMO_gap": 0.22693, 
			 "cosmo_polarized_energy": -6.56, 
			 "cosmo_cavitation_energy": 45.18, 
			 "cosmo_dispersion_energy": -28.03, 
			 "cosmo_repulsion_energy": 2.25, 
			 "cosmo_total_nonelectrostatic_energy": 19.4, 
			 "SMD_solvation_energy": 6.46 
		},
		"coords": [
			{
				"x": 1.4561646297,
				"y": 2.2161016332,
				"z": 0.5759744778,
				"element": "C" 
			},
			{
				"x": 0.5589546378,
				"y": 2.7087935636,
				"z": 1.7198398901,
				"element": "C" 
			},
			{
				"x": 0.5812265212,
				"y": 1.8213549844,
				"z": 2.9848397547,
				"element": "C" 
			},
			{
				"x": -0.5010996499,
				"y": 0.7292622337,
				"z": 3.0585021423,
				"element": "C" 
			},
			{
				"x": -0.4783761383,
				"y": -0.3191687517,
				"z": 1.9370285809,
				"element": "C" 
			},
			{
				"x": -1.4737878214,
				"y": -1.4596778938,
				"z": 2.1898032565,
				"element": "C" 
			},
			{
				"x": -1.5969665291,
				"y": -2.5054283569,
				"z": 1.0690582915,
				"element": "C" 
			},
			{
				"x": -0.3099242956,
				"y": -3.3336484862,
				"z": 0.7908208519,
				"element": "C" 
			},
			{
				"x": 0.5772034705,
				"y": -2.7376331833,
				"z": -0.2980346814,
				"element": "C" 
			},
			{
				"x": 1.526426698,
				"y": -2.0178656429,
				"z": -0.039897753,
				"element": "O" 
			},
			{
				"x": 0.2271441789,
				"y": -3.121234258,
				"z": -1.7341744726,
				"element": "C" 
			},
			{
				"x": 0.9365094491,
				"y": -2.2882996425,
				"z": -2.8076840096,
				"element": "C" 
			},
			{
				"x": 0.4103981147,
				"y": -0.8508455187,
				"z": -2.9633492001,
				"element": "C" 
			},
			{
				"x": -1.0090328982,
				"y": -0.752602246,
				"z": -3.543028526,
				"element": "C" 
			},
			{
				"x": -1.4868884883,
				"y": 0.6850242007,
				"z": -3.8093982666,
				"element": "C" 
			},
			{
				"x": -1.6739162442,
				"y": 1.535956857,
				"z": -2.5475226305,
				"element": "C" 
			},
			{
				"x": 2.5067076258,
				"y": 2.1988741493,
				"z": 0.888199355,
				"element": "H" 
			},
			{
				"x": 1.2012650641,
				"y": 1.202708574,
				"z": 0.2530606462,
				"element": "H" 
			},
			{
				"x": 1.3828386865,
				"y": 2.8763480712,
				"z": -0.2955932063,
				"element": "H" 
			},
			{
				"x": -0.476025777,
				"y": 2.8106326199,
				"z": 1.3647182912,
				"element": "H" 
			},
			{
				"x": 0.8789225287,
				"y": 3.7227646487,
				"z": 1.9911541922,
				"element": "H" 
			},
			{
				"x": 1.5730277309,
				"y": 1.358103971,
				"z": 3.0827215979,
				"element": "H" 
			},
			{
				"x": 0.4614572736,
				"y": 2.4597386714,
				"z": 3.8694541995,
				"element": "H" 
			},
			{
				"x": -0.4004333954,
				"y": 0.2134162289,
				"z": 4.0241706173,
				"element": "H" 
			},
			{
				"x": -1.4902377771,
				"y": 1.2101797142,
				"z": 3.0788022085,
				"element": "H" 
			},
			{
				"x": -0.7202727965,
				"y": 0.1587053954,
				"z": 0.9781190215,
				"element": "H" 
			},
			{
				"x": 0.5328556785,
				"y": -0.7260431799,
				"z": 1.8258321283,
				"element": "H" 
			},
			{
				"x": -2.4714381746,
				"y": -1.0326190632,
				"z": 2.3638820268,
				"element": "H" 
			},
			{
				"x": -1.2016363881,
				"y": -1.9750171413,
				"z": 3.1221813565,
				"element": "H" 
			},
			{
				"x": -1.9318520322,
				"y": -2.0161529722,
				"z": 0.1439333306,
				"element": "H" 
			},
			{
				"x": -2.3970058517,
				"y": -3.2034758194,
				"z": 1.3413418934,
				"element": "H" 
			},
			{
				"x": -0.6000647572,
				"y": -4.3442503015,
				"z": 0.4793895486,
				"element": "H" 
			},
			{
				"x": 0.284723063,
				"y": -3.4217302425,
				"z": 1.7056251603,
				"element": "H" 
			},
			{
				"x": 0.5049710219,
				"y": -4.1820590908,
				"z": -1.8330365587,
				"element": "H" 
			},
			{
				"x": -0.863975179,
				"y": -3.1079187106,
				"z": -1.8527533912,
				"element": "H" 
			},
			{
				"x": 0.8541217336,
				"y": -2.8095106178,
				"z": -3.7702443522,
				"element": "H" 
			},
			{
				"x": 2.0010264532,
				"y": -2.2506566745,
				"z": -2.5546130971,
				"element": "H" 
			},
			{
				"x": 0.4653764716,
				"y": -0.3461170866,
				"z": -1.992328281,
				"element": "H" 
			},
			{
				"x": 1.0947126388,
				"y": -0.3041694824,
				"z": -3.626301064,
				"element": "H" 
			},
			{
				"x": -1.0435384054,
				"y": -1.3165124489,
				"z": -4.4857879948,
				"element": "H" 
			},
			{
				"x": -1.7286287741,
				"y": -1.2425613769,
				"z": -2.8715696254,
				"element": "H" 
			},
			{
				"x": -2.438721939,
				"y": 0.6433309837,
				"z": -4.3544618985,
				"element": "H" 
			},
			{
				"x": -0.7741254438,
				"y": 1.1814736731,
				"z": -4.4822625869,
				"element": "H" 
			},
			{
				"x": -0.7333097756,
				"y": 1.6773786202,
				"z": -2.0058566112,
				"element": "H" 
			},
			{
				"x": -2.3861635165,
				"y": 1.0664889084,
				"z": -1.8581820109,
				"element": "H" 
			},
			{
				"x": -2.061611622,
				"y": 2.5294604862,
				"z": -2.7961726017,
				"element": "H" 
			}
		],
		 "valence_orbital": [ 
			{
				"type": "occ",
				"energy": -0.30674,
				"method": "rhf"
			},
			{
				"type": "occ",
				"energy": -0.30616,
				"method": "rhf"
			},
			{
				"type": "occ",
				"energy": -0.30088,
				"method": "rhf"
			},
			{
				"type": "occ",
				"energy": -0.29536,
				"method": "rhf"
			},
			{
				"type": "occ",
				"energy": -0.24034,
				"method": "rhf"
			},
			{
				"type": "unocc",
				"energy": -0.01341,
				"method": "rhf"
			},
			{
				"type": "unocc",
				"energy": 0.06213,
				"method": "rhf"
			},
			{
				"type": "unocc",
				"energy": 0.0829,
				"method": "rhf"
			},
			{
				"type": "unocc",
				"energy": 0.09607,
				"method": "rhf"
			},
			{
				"type": "unocc",
				"energy": 0.10318,
				"method": "rhf"
			}
		],
		"cosmo_sigma_profile": { 
			"-0.025": 0.0,
			"-0.024": 0.0,
			"-0.023": 0.0,
			"-0.022": 0.0,
			"-0.021": 0.0,
			"-0.02": 0.0,
			"-0.019": 0.0,
			"-0.018": 0.0,
			"-0.017": 0.0,
			"-0.016": 0.0,
			"-0.015": 0.0,
			"-0.014": 0.0,
			"-0.013": 0.0,
			"-0.012": 0.0,
			"-0.011": 0.0,
			"-0.01": 0.0,
			"-0.009": 0.0,
			"-0.008": 0.0,
			"-0.007": 0.0,
			"-0.006": 1.66675423967,
			"-0.005": 5.32910799727,
			"-0.004": 11.5446164434,
			"-0.003": 18.6332283142,
			"-0.002": 44.9182530777,
			"-0.001": 75.329665371,
			"0.0": 77.6252148968,
			"0.001": 58.9748754478,
			"0.002": 25.3387115018,
			"0.003": 5.08582942933,
			"0.004": 3.36406012076,
			"0.005": 2.61924221347,
			"0.006": 2.0115218205,
			"0.007": 2.36531971126,
			"0.008": 1.408630198,
			"0.009": 1.8827185193,
			"0.01": 1.62621206455,
			"0.011": 2.03049684192,
			"0.012": 2.930174576,
			"0.013": 1.46011581428,
			"0.014": 0.0,
			"0.015": 0.0,
			"0.016": 0.0,
			"0.017": 0.0,
			"0.018": 0.0,
			"0.019": 0.0,
			"0.02": 0.0,
			"0.021": 0.0,
			"0.022": 0.0,
			"0.023": 0.0,
			"0.024": 0.0,
			"0.025": 0.0
		}
	}
}
