{
	 "smiles": "CCOC(=O)CC1=C(NC(C)=C1C(=O)OCC1=CC=CC=C1)C(=O)OCC", 
	 "Tm": 384.15, 
	 "num_atms": 50, 
	 "gaussian": { 
		 "optdone": 1, 
		 "sigma_profile": "yes", 
		 "theory": "DFT", 
		 "functional": "B3LYP", 
		 "basiset": "6-31G**", 
		 "properties": { 
			 "R2extent": 13465.4624, 
			 "electric_dipole_moment_norm": 3.72106669384, 
			 "electric_quadrupole_moment_norm": 14.216219974, 
			 "total_energy": -1282.14905147, 
			 "HOMO_LUMO_gap": 0.19452, 
			 "cosmo_polarized_energy": -19.0, 
			 "cosmo_cavitation_energy": 54.87, 
			 "cosmo_dispersion_energy": -35.59, 
			 "cosmo_repulsion_energy": 2.79, 
			 "cosmo_total_nonelectrostatic_energy": 22.07, 
			 "SMD_solvation_energy": 11.82 
		},
		"coords": [
			{
				"x": -0.5851725722,
				"y": 1.2255312365,
				"z": -4.6580509177,
				"element": "C" 
			},
			{
				"x": -1.7289375816,
				"y": 1.6895186179,
				"z": -3.7758617694,
				"element": "C" 
			},
			{
				"x": -1.454709806,
				"y": 1.2316806331,
				"z": -2.4336946418,
				"element": "O" 
			},
			{
				"x": -2.3790638055,
				"y": 1.554923351,
				"z": -1.5046965727,
				"element": "C" 
			},
			{
				"x": -3.3840024993,
				"y": 2.1867127181,
				"z": -1.7499768983,
				"element": "O" 
			},
			{
				"x": -2.0473084626,
				"y": 0.979707714,
				"z": -0.134549776,
				"element": "C" 
			},
			{
				"x": -0.5849583275,
				"y": 0.848434118,
				"z": 0.1880702924,
				"element": "C" 
			},
			{
				"x": 0.3015375496,
				"y": 1.8918829034,
				"z": 0.4156758968,
				"element": "C" 
			},
			{
				"x": 1.5403157551,
				"y": 1.3443854151,
				"z": 0.694571866,
				"element": "N" 
			},
			{
				"x": 1.4971336619,
				"y": -0.0057588673,
				"z": 0.657871102,
				"element": "C" 
			},
			{
				"x": 2.7190738239,
				"y": -0.8238569726,
				"z": 0.9301384712,
				"element": "C" 
			},
			{
				"x": 0.1712283863,
				"y": -0.3590850812,
				"z": 0.3415401266,
				"element": "C" 
			},
			{
				"x": -0.3581364284,
				"y": -1.719116321,
				"z": 0.2021687509,
				"element": "C" 
			},
			{
				"x": -1.5268416109,
				"y": -2.0041359897,
				"z": -0.0108171249,
				"element": "O" 
			},
			{
				"x": 0.615006171,
				"y": -2.6603490212,
				"z": 0.3360884619,
				"element": "O" 
			},
			{
				"x": 0.2007435666,
				"y": -4.050440739,
				"z": 0.2361172476,
				"element": "C" 
			},
			{
				"x": -0.100710567,
				"y": -4.6444723982,
				"z": 1.5902390983,
				"element": "C" 
			},
			{
				"x": 0.8855576998,
				"y": -5.3519362057,
				"z": 2.2884444748,
				"element": "C" 
			},
			{
				"x": 0.6164681915,
				"y": -5.8960962468,
				"z": 3.5452268716,
				"element": "C" 
			},
			{
				"x": -0.6464864877,
				"y": -5.7354274196,
				"z": 4.1175635113,
				"element": "C" 
			},
			{
				"x": -1.6368504219,
				"y": -5.0309848227,
				"z": 3.4284833876,
				"element": "C" 
			},
			{
				"x": -1.3673914858,
				"y": -4.4890462743,
				"z": 2.1718692243,
				"element": "C" 
			},
			{
				"x": 0.199707322,
				"y": 3.3457581405,
				"z": 0.3977191068,
				"element": "C" 
			},
			{
				"x": 1.149397702,
				"y": 4.0828455503,
				"z": 0.6251729382,
				"element": "O" 
			},
			{
				"x": -1.0446481174,
				"y": 3.7690241955,
				"z": 0.0944864389,
				"element": "O" 
			},
			{
				"x": -1.2550425967,
				"y": 5.2001399548,
				"z": 0.0256499802,
				"element": "C" 
			},
			{
				"x": -1.5540207633,
				"y": 5.7821675053,
				"z": 1.398711415,
				"element": "C" 
			},
			{
				"x": -0.7533622086,
				"y": 1.5527314424,
				"z": -5.6889918791,
				"element": "H" 
			},
			{
				"x": -0.5051007588,
				"y": 0.1346635898,
				"z": -4.6515002543,
				"element": "H" 
			},
			{
				"x": 0.36653833,
				"y": 1.6419053738,
				"z": -4.3152826042,
				"element": "H" 
			},
			{
				"x": -2.6911191786,
				"y": 1.2805241866,
				"z": -4.1004929812,
				"element": "H" 
			},
			{
				"x": -1.8244799669,
				"y": 2.7800969414,
				"z": -3.7656924426,
				"element": "H" 
			},
			{
				"x": -2.506591185,
				"y": -0.01175261,
				"z": -0.0881079564,
				"element": "H" 
			},
			{
				"x": -2.5513308269,
				"y": 1.6237741388,
				"z": 0.5886799072,
				"element": "H" 
			},
			{
				"x": 2.3450011299,
				"y": 1.9236393502,
				"z": 0.8921523026,
				"element": "H" 
			},
			{
				"x": 3.5598529335,
				"y": -0.178598406,
				"z": 1.202178408,
				"element": "H" 
			},
			{
				"x": 3.0021366214,
				"y": -1.4131618445,
				"z": 0.0532376212,
				"element": "H" 
			},
			{
				"x": 2.5439107666,
				"y": -1.5336338987,
				"z": 1.7424003642,
				"element": "H" 
			},
			{
				"x": -0.6657040377,
				"y": -4.1051925315,
				"z": -0.4248496163,
				"element": "H" 
			},
			{
				"x": 1.0515319288,
				"y": -4.5533706306,
				"z": -0.229002362,
				"element": "H" 
			},
			{
				"x": 1.8689392837,
				"y": -5.4812622958,
				"z": 1.8422504086,
				"element": "H" 
			},
			{
				"x": 1.3894672962,
				"y": -6.4461971355,
				"z": 4.0744131286,
				"element": "H" 
			},
			{
				"x": -0.8594864796,
				"y": -6.1598302478,
				"z": 5.094650939,
				"element": "H" 
			},
			{
				"x": -2.6219290255,
				"y": -4.9066514554,
				"z": 3.8693067139,
				"element": "H" 
			},
			{
				"x": -2.1305856644,
				"y": -3.934693178,
				"z": 1.6345271086,
				"element": "H" 
			},
			{
				"x": -0.3696025731,
				"y": 5.6636652631,
				"z": -0.4159708322,
				"element": "H" 
			},
			{
				"x": -2.1043754805,
				"y": 5.3090306387,
				"z": -0.6519315506,
				"element": "H" 
			},
			{
				"x": -0.6900717233,
				"y": 5.6736344577,
				"z": 2.0589803567,
				"element": "H" 
			},
			{
				"x": -1.7844970093,
				"y": 6.8488235681,
				"z": 1.306355384,
				"element": "H" 
			},
			{
				"x": -2.4150304679,
				"y": 5.2834495891,
				"z": 1.8531288744,
				"element": "H" 
			}
		],
		 "valence_orbital": [ 
			{
				"type": "occ",
				"energy": -0.26719,
				"method": "rhf"
			},
			{
				"type": "occ",
				"energy": -0.25184,
				"method": "rhf"
			},
			{
				"type": "occ",
				"energy": -0.25,
				"method": "rhf"
			},
			{
				"type": "occ",
				"energy": -0.24658,
				"method": "rhf"
			},
			{
				"type": "occ",
				"energy": -0.22425,
				"method": "rhf"
			},
			{
				"type": "unocc",
				"energy": -0.02973,
				"method": "rhf"
			},
			{
				"type": "unocc",
				"energy": -0.01901,
				"method": "rhf"
			},
			{
				"type": "unocc",
				"energy": -0.00953,
				"method": "rhf"
			},
			{
				"type": "unocc",
				"energy": -0.00294,
				"method": "rhf"
			},
			{
				"type": "unocc",
				"energy": 0.02963,
				"method": "rhf"
			}
		],
		"cosmo_sigma_profile": { 
			"-0.025": 0.0,
			"-0.024": 0.0,
			"-0.023": 0.0,
			"-0.022": 0.0,
			"-0.021": 0.0,
			"-0.02": 0.0,
			"-0.019": 0.0,
			"-0.018": 0.0,
			"-0.017": 0.0,
			"-0.016": 0.147737125084,
			"-0.015": 0.863236689354,
			"-0.014": 0.830943232657,
			"-0.013": 0.928999301474,
			"-0.012": 1.46856257357,
			"-0.011": 1.02835779119,
			"-0.01": 1.06843818544,
			"-0.009": 1.3229037066,
			"-0.008": 0.914822832323,
			"-0.007": 1.95134471054,
			"-0.006": 12.3885706783,
			"-0.005": 27.1472873602,
			"-0.004": 43.7398687114,
			"-0.003": 47.4542340694,
			"-0.002": 44.6444241949,
			"-0.001": 41.6284752429,
			"0.0": 41.1053786045,
			"0.001": 28.4394499781,
			"0.002": 25.2571197902,
			"0.003": 23.7792398676,
			"0.004": 18.4627519308,
			"0.005": 18.9554943361,
			"0.006": 11.9565265262,
			"0.007": 5.67974629296,
			"0.008": 5.7927542582,
			"0.009": 4.24596067713,
			"0.01": 5.09623345126,
			"0.011": 6.39183299927,
			"0.012": 8.68261096816,
			"0.013": 2.64721635348,
			"0.014": 0.107791801811,
			"0.015": 0.0,
			"0.016": 0.0,
			"0.017": 0.0,
			"0.018": 0.0,
			"0.019": 0.0,
			"0.02": 0.0,
			"0.021": 0.0,
			"0.022": 0.0,
			"0.023": 0.0,
			"0.024": 0.0,
			"0.025": 0.0
		}
	}
}
