{
	 "smiles": "ClCC1=CC(=CC=C1)C#N", 
	 "Tm": 341.65, 
	 "num_atms": 16, 
	 "gaussian": { 
		 "optdone": 1, 
		 "sigma_profile": "yes", 
		 "theory": "DFT", 
		 "functional": "B3LYP", 
		 "basiset": "6-31G**", 
		 "properties": { 
			 "R2extent": 2041.4823, 
			 "electric_dipole_moment_norm": 4.27449734823, 
			 "electric_quadrupole_moment_norm": 19.9963431769, 
			 "total_energy": -823.399145498, 
			 "HOMO_LUMO_gap": 0.21003, 
			 "cosmo_polarized_energy": -11.4, 
			 "cosmo_cavitation_energy": 23.35, 
			 "cosmo_dispersion_energy": -16.46, 
			 "cosmo_repulsion_energy": 1.35, 
			 "cosmo_total_nonelectrostatic_energy": 8.25, 
			 "SMD_solvation_energy": 5.07 
		},
		"coords": [
			{
				"x": -1.0334340872,
				"y": -0.1665356831,
				"z": -2.8102471387,
				"element": "Cl" 
			},
			{
				"x": -0.0923841583,
				"y": -1.1769459855,
				"z": -1.6064521497,
				"element": "C" 
			},
			{
				"x": 0.3416475701,
				"y": -0.3760196432,
				"z": -0.4132142741,
				"element": "C" 
			},
			{
				"x": -0.4359061159,
				"y": -0.3626734535,
				"z": 0.7468824651,
				"element": "C" 
			},
			{
				"x": -0.0281551043,
				"y": 0.3835583251,
				"z": 1.8637675426,
				"element": "C" 
			},
			{
				"x": 1.1642912327,
				"y": 1.1243844838,
				"z": 1.8191726579,
				"element": "C" 
			},
			{
				"x": 1.9367956558,
				"y": 1.1110573545,
				"z": 0.6602078769,
				"element": "C" 
			},
			{
				"x": 1.529912557,
				"y": 0.3671557719,
				"z": -0.4469080616,
				"element": "C" 
			},
			{
				"x": -0.829381951,
				"y": 0.3834999659,
				"z": 3.05407015,
				"element": "C" 
			},
			{
				"x": -1.4768275149,
				"y": 0.3822076065,
				"z": 4.0203014987,
				"element": "N" 
			},
			{
				"x": -0.7543459889,
				"y": -1.9965152382,
				"z": -1.327084515,
				"element": "H" 
			},
			{
				"x": 0.7586161075,
				"y": -1.5736703211,
				"z": -2.1605105939,
				"element": "H" 
			},
			{
				"x": -1.3612234656,
				"y": -0.9284861372,
				"z": 0.7921927137,
				"element": "H" 
			},
			{
				"x": 1.4732152104,
				"y": 1.6973272915,
				"z": 2.6867866767,
				"element": "H" 
			},
			{
				"x": 2.860005888,
				"y": 1.680465338,
				"z": 0.6214363842,
				"element": "H" 
			},
			{
				"x": 2.1361741647,
				"y": 0.3637903245,
				"z": -1.3486012329,
				"element": "H" 
			}
		],
		 "valence_orbital": [ 
			{
				"type": "occ",
				"energy": -0.33677,
				"method": "rhf"
			},
			{
				"type": "occ",
				"energy": -0.30883,
				"method": "rhf"
			},
			{
				"type": "occ",
				"energy": -0.30574,
				"method": "rhf"
			},
			{
				"type": "occ",
				"energy": -0.28144,
				"method": "rhf"
			},
			{
				"type": "occ",
				"energy": -0.27311,
				"method": "rhf"
			},
			{
				"type": "unocc",
				"energy": -0.06308,
				"method": "rhf"
			},
			{
				"type": "unocc",
				"energy": -0.04575,
				"method": "rhf"
			},
			{
				"type": "unocc",
				"energy": 0.02004,
				"method": "rhf"
			},
			{
				"type": "unocc",
				"energy": 0.031,
				"method": "rhf"
			},
			{
				"type": "unocc",
				"energy": 0.06445,
				"method": "rhf"
			}
		],
		"cosmo_sigma_profile": { 
			"-0.025": 0.0,
			"-0.024": 0.0,
			"-0.023": 0.0,
			"-0.022": 0.0,
			"-0.021": 0.0,
			"-0.02": 0.0,
			"-0.019": 0.0,
			"-0.018": 0.0,
			"-0.017": 0.0,
			"-0.016": 0.0,
			"-0.015": 0.0,
			"-0.014": 0.0,
			"-0.013": 0.0,
			"-0.012": 0.0,
			"-0.011": 0.0,
			"-0.01": 0.0,
			"-0.009": 1.93762955377,
			"-0.008": 11.3945320814,
			"-0.007": 13.6056520842,
			"-0.006": 12.4877931433,
			"-0.005": 11.0906937529,
			"-0.004": 10.1779139948,
			"-0.003": 8.02051142914,
			"-0.002": 9.37174591518,
			"-0.001": 11.8896885169,
			"0.0": 11.7477539639,
			"0.001": 14.2983950064,
			"0.002": 15.8011421786,
			"0.003": 8.35638556768,
			"0.004": 6.56005058403,
			"0.005": 8.75745751873,
			"0.006": 12.6402563799,
			"0.007": 5.88958326815,
			"0.008": 3.35631675039,
			"0.009": 3.22438629768,
			"0.01": 3.51221472743,
			"0.011": 2.49394935223,
			"0.012": 2.58337621824,
			"0.013": 1.41569829418,
			"0.014": 0.0,
			"0.015": 0.0,
			"0.016": 0.0,
			"0.017": 0.0,
			"0.018": 0.0,
			"0.019": 0.0,
			"0.02": 0.0,
			"0.021": 0.0,
			"0.022": 0.0,
			"0.023": 0.0,
			"0.024": 0.0,
			"0.025": 0.0
		}
	}
}
