{
	 "smiles": "[O-][N+](=O)C1=CC=C(SC2=NC=CC=C2)C(C=O)=C1", 
	 "Tm": 383.15, 
	 "num_atms": 26, 
	 "gaussian": { 
		 "optdone": 1, 
		 "sigma_profile": "yes", 
		 "theory": "DFT", 
		 "functional": "B3LYP", 
		 "basiset": "6-31G**", 
		 "properties": { 
			 "R2extent": 6916.0982, 
			 "electric_dipole_moment_norm": 7.28448066371, 
			 "electric_quadrupole_moment_norm": 25.2897737698, 
			 "total_energy": -1195.33749193, 
			 "HOMO_LUMO_gap": 0.14479, 
			 "cosmo_polarized_energy": -13.54, 
			 "cosmo_cavitation_energy": 33.65, 
			 "cosmo_dispersion_energy": -24.26, 
			 "cosmo_repulsion_energy": 1.81, 
			 "cosmo_total_nonelectrostatic_energy": 11.2, 
			 "SMD_solvation_energy": 8.36 
		},
		"coords": [
			{
				"x": 5.4530512625,
				"y": -0.9476051182,
				"z": 2.0342108748,
				"element": "O" 
			},
			{
				"x": 5.4547835414,
				"y": -0.7705721757,
				"z": 0.8184640905,
				"element": "N" 
			},
			{
				"x": 6.4624903832,
				"y": -0.7124957727,
				"z": 0.1144605782,
				"element": "O" 
			},
			{
				"x": 4.1501896328,
				"y": -0.6156707707,
				"z": 0.1489541702,
				"element": "C" 
			},
			{
				"x": 4.1224240868,
				"y": -0.4070221249,
				"z": -1.2294564592,
				"element": "C" 
			},
			{
				"x": 2.8894897367,
				"y": -0.2428854067,
				"z": -1.8525428335,
				"element": "C" 
			},
			{
				"x": 1.6996118979,
				"y": -0.3054511301,
				"z": -1.1122433087,
				"element": "C" 
			},
			{
				"x": 0.1708002207,
				"y": -0.1293013977,
				"z": -2.0335765955,
				"element": "S" 
			},
			{
				"x": -0.5733570791,
				"y": 1.3651023622,
				"z": -1.3489690296,
				"element": "C" 
			},
			{
				"x": -0.2490925598,
				"y": 1.7527375757,
				"z": -0.1211908947,
				"element": "N" 
			},
			{
				"x": -0.8412624166,
				"y": 2.8513534628,
				"z": 0.3707146754,
				"element": "C" 
			},
			{
				"x": -1.7877272804,
				"y": 3.5879127007,
				"z": -0.3359765968,
				"element": "C" 
			},
			{
				"x": -2.1263862599,
				"y": 3.1629067133,
				"z": -1.6237633629,
				"element": "C" 
			},
			{
				"x": -1.5070406327,
				"y": 2.0357412049,
				"z": -2.1530985703,
				"element": "C" 
			},
			{
				"x": 1.7475256399,
				"y": -0.5457975949,
				"z": 0.2758555505,
				"element": "C" 
			},
			{
				"x": 0.5272492295,
				"y": -0.7096254437,
				"z": 1.1238915771,
				"element": "C" 
			},
			{
				"x": 0.5774456909,
				"y": -0.8071585937,
				"z": 2.3337240723,
				"element": "O" 
			},
			{
				"x": 2.9892624235,
				"y": -0.6847317307,
				"z": 0.9052051749,
				"element": "C" 
			},
			{
				"x": 5.0516100491,
				"y": -0.3618578469,
				"z": -1.7834680477,
				"element": "H" 
			},
			{
				"x": 2.8431307634,
				"y": -0.0523955796,
				"z": -2.9192442645,
				"element": "H" 
			},
			{
				"x": -0.5438302864,
				"y": 3.1393706647,
				"z": 1.3763561285,
				"element": "H" 
			},
			{
				"x": -2.2445464386,
				"y": 4.4656768671,
				"z": 0.1081635588,
				"element": "H" 
			},
			{
				"x": -2.8568235865,
				"y": 3.7094515087,
				"z": -2.2130468277,
				"element": "H" 
			},
			{
				"x": -1.7268176239,
				"y": 1.6877425763,
				"z": -3.1569798083,
				"element": "H" 
			},
			{
				"x": -0.4274579623,
				"y": -0.7860701412,
				"z": 0.575814446,
				"element": "H" 
			},
			{
				"x": 3.0255775676,
				"y": -0.8579548092,
				"z": 1.9740417023,
				"element": "H" 
			}
		],
		 "valence_orbital": [ 
			{
				"type": "occ",
				"energy": -0.29181,
				"method": "rhf"
			},
			{
				"type": "occ",
				"energy": -0.28941,
				"method": "rhf"
			},
			{
				"type": "occ",
				"energy": -0.27866,
				"method": "rhf"
			},
			{
				"type": "occ",
				"energy": -0.26436,
				"method": "rhf"
			},
			{
				"type": "occ",
				"energy": -0.24345,
				"method": "rhf"
			},
			{
				"type": "unocc",
				"energy": -0.09866,
				"method": "rhf"
			},
			{
				"type": "unocc",
				"energy": -0.07182,
				"method": "rhf"
			},
			{
				"type": "unocc",
				"energy": -0.04762,
				"method": "rhf"
			},
			{
				"type": "unocc",
				"energy": -0.03441,
				"method": "rhf"
			},
			{
				"type": "unocc",
				"energy": -0.0214,
				"method": "rhf"
			}
		],
		"cosmo_sigma_profile": { 
			"-0.025": 0.0,
			"-0.024": 0.0,
			"-0.023": 0.0,
			"-0.022": 0.0,
			"-0.021": 0.0,
			"-0.02": 0.0,
			"-0.019": 0.0,
			"-0.018": 0.0,
			"-0.017": 0.0,
			"-0.016": 0.0,
			"-0.015": 0.0,
			"-0.014": 0.0,
			"-0.013": 0.0,
			"-0.012": 0.0,
			"-0.011": 0.0,
			"-0.01": 0.0,
			"-0.009": 0.828585504235,
			"-0.008": 6.79231050932,
			"-0.007": 14.5153843687,
			"-0.006": 15.7711723866,
			"-0.005": 16.3041225159,
			"-0.004": 17.586606313,
			"-0.003": 19.5066470535,
			"-0.002": 20.6077873019,
			"-0.001": 25.0811967305,
			"0.0": 21.228721115,
			"0.001": 22.4198065918,
			"0.002": 20.4250452991,
			"0.003": 10.2937296947,
			"0.004": 9.29335654917,
			"0.005": 8.44159387182,
			"0.006": 8.30280096014,
			"0.007": 12.3712766782,
			"0.008": 8.37150342779,
			"0.009": 5.79242113378,
			"0.01": 4.30172565729,
			"0.011": 3.83958365123,
			"0.012": 1.44169122564,
			"0.013": 0.158673100708,
			"0.014": 0.0,
			"0.015": 0.0,
			"0.016": 0.0,
			"0.017": 0.0,
			"0.018": 0.0,
			"0.019": 0.0,
			"0.02": 0.0,
			"0.021": 0.0,
			"0.022": 0.0,
			"0.023": 0.0,
			"0.024": 0.0,
			"0.025": 0.0
		}
	}
}
