{
	 "smiles": "CN1C=CC(=N1)C#N", 
	 "Tm": 316.35, 
	 "num_atms": 13, 
	 "gaussian": { 
		 "optdone": 1, 
		 "sigma_profile": "yes", 
		 "theory": "DFT", 
		 "functional": "B3LYP", 
		 "basiset": "6-31G**", 
		 "properties": { 
			 "R2extent": 2099.7816, 
			 "electric_dipole_moment_norm": 6.76454680891, 
			 "electric_quadrupole_moment_norm": 22.8352025585, 
			 "total_energy": -357.754935365, 
			 "HOMO_LUMO_gap": 0.23564, 
			 "cosmo_polarized_energy": -12.7, 
			 "cosmo_cavitation_energy": 18.58, 
			 "cosmo_dispersion_energy": -13.23, 
			 "cosmo_repulsion_energy": 1.11, 
			 "cosmo_total_nonelectrostatic_energy": 6.45, 
			 "SMD_solvation_energy": 4.43 
		},
		"coords": [
			{
				"x": -0.0666956766,
				"y": -2.8983609567,
				"z": -0.6649382902,
				"element": "C" 
			},
			{
				"x": -0.2395987189,
				"y": -2.1538310989,
				"z": 0.5718691825,
				"element": "N" 
			},
			{
				"x": -1.3784312593,
				"y": -1.5774015789,
				"z": 1.0499444507,
				"element": "C" 
			},
			{
				"x": -1.0543477128,
				"y": -0.9861816034,
				"z": 2.2525414453,
				"element": "C" 
			},
			{
				"x": 0.324970677,
				"y": -1.2674640185,
				"z": 2.4119896822,
				"element": "C" 
			},
			{
				"x": 0.8121156121,
				"y": -1.9795872843,
				"z": 1.3825205994,
				"element": "N" 
			},
			{
				"x": 1.1665485968,
				"y": -0.8813256392,
				"z": 3.4979026563,
				"element": "C" 
			},
			{
				"x": 1.8207769349,
				"y": -0.5486371409,
				"z": 4.3997244443,
				"element": "N" 
			},
			{
				"x": 0.2699116578,
				"y": -3.9136804568,
				"z": -0.4434246682,
				"element": "H" 
			},
			{
				"x": -1.022349856,
				"y": -2.9369131319,
				"z": -1.1892617598,
				"element": "H" 
			},
			{
				"x": 0.6763336636,
				"y": -2.404414249,
				"z": -1.2951510712,
				"element": "H" 
			},
			{
				"x": -2.3108759465,
				"y": -1.6321784862,
				"z": 0.5078904265,
				"element": "H" 
			},
			{
				"x": -1.6991579721,
				"y": -0.4361243552,
				"z": 2.919792902,
				"element": "H" 
			}
		],
		 "valence_orbital": [ 
			{
				"type": "occ",
				"energy": -0.35243,
				"method": "rhf"
			},
			{
				"type": "occ",
				"energy": -0.33114,
				"method": "rhf"
			},
			{
				"type": "occ",
				"energy": -0.31321,
				"method": "rhf"
			},
			{
				"type": "occ",
				"energy": -0.27147,
				"method": "rhf"
			},
			{
				"type": "occ",
				"energy": -0.2634,
				"method": "rhf"
			},
			{
				"type": "unocc",
				"energy": -0.02776,
				"method": "rhf"
			},
			{
				"type": "unocc",
				"energy": 0.01699,
				"method": "rhf"
			},
			{
				"type": "unocc",
				"energy": 0.03265,
				"method": "rhf"
			},
			{
				"type": "unocc",
				"energy": 0.08063,
				"method": "rhf"
			},
			{
				"type": "unocc",
				"energy": 0.10307,
				"method": "rhf"
			}
		],
		"cosmo_sigma_profile": { 
			"-0.025": 0.0,
			"-0.024": 0.0,
			"-0.023": 0.0,
			"-0.022": 0.0,
			"-0.021": 0.0,
			"-0.02": 0.0,
			"-0.019": 0.0,
			"-0.018": 0.0,
			"-0.017": 0.0,
			"-0.016": 0.0,
			"-0.015": 0.0,
			"-0.014": 0.0,
			"-0.013": 0.0,
			"-0.012": 0.0,
			"-0.011": 0.208007353115,
			"-0.01": 3.14273932615,
			"-0.009": 3.63334041142,
			"-0.008": 5.17712915094,
			"-0.007": 8.52867581893,
			"-0.006": 9.20621598837,
			"-0.005": 10.5972455397,
			"-0.004": 12.2319439203,
			"-0.003": 9.18603809697,
			"-0.002": 5.79249093415,
			"-0.001": 7.34245741347,
			"0.0": 9.07519426961,
			"0.001": 10.2260832406,
			"0.002": 9.70994306568,
			"0.003": 7.88811354235,
			"0.004": 4.06899011539,
			"0.005": 4.25092391135,
			"0.006": 3.75764645794,
			"0.007": 4.06291910757,
			"0.008": 4.72073943824,
			"0.009": 4.28723614291,
			"0.01": 4.01716172843,
			"0.011": 3.68307732475,
			"0.012": 3.31587481387,
			"0.013": 1.96899397707,
			"0.014": 0.321984783826,
			"0.015": 0.0,
			"0.016": 0.0,
			"0.017": 0.0,
			"0.018": 0.0,
			"0.019": 0.0,
			"0.02": 0.0,
			"0.021": 0.0,
			"0.022": 0.0,
			"0.023": 0.0,
			"0.024": 0.0,
			"0.025": 0.0
		}
	}
}
