{
	 "smiles": "N#CC1=C2C=CC=CC2=C(C#N)C2=C1C=CC=C2", 
	 "Tm": 610.15, 
	 "num_atms": 26, 
	 "gaussian": { 
		 "optdone": 1, 
		 "sigma_profile": "yes", 
		 "theory": "DFT", 
		 "functional": "B3LYP", 
		 "basiset": "6-31G**", 
		 "properties": { 
			 "R2extent": 4405.6287, 
			 "electric_dipole_moment_norm": 0.00163095064303, 
			 "electric_quadrupole_moment_norm": 28.7282018663, 
			 "total_energy": -724.011092807, 
			 "HOMO_LUMO_gap": 0.11366, 
			 "cosmo_polarized_energy": -10.99, 
			 "cosmo_cavitation_energy": 31.83, 
			 "cosmo_dispersion_energy": -22.4, 
			 "cosmo_repulsion_energy": 1.65, 
			 "cosmo_total_nonelectrostatic_energy": 11.08, 
			 "SMD_solvation_energy": 6.98 
		},
		"coords": [
			{
				"x": 3.315827103,
				"y": -2.2496352544,
				"z": -1.2931703375,
				"element": "N" 
			},
			{
				"x": 2.532559725,
				"y": -1.4292542947,
				"z": -1.0298673472,
				"element": "C" 
			},
			{
				"x": 1.5705774955,
				"y": -0.4198432275,
				"z": -0.7069958038,
				"element": "C" 
			},
			{
				"x": 1.6091300062,
				"y": 0.8124334548,
				"z": -1.4033109355,
				"element": "C" 
			},
			{
				"x": 2.5759342411,
				"y": 1.0836148013,
				"z": -2.4181265543,
				"element": "C" 
			},
			{
				"x": 2.5843851898,
				"y": 2.2877774103,
				"z": -3.0722656836,
				"element": "C" 
			},
			{
				"x": 1.6281849226,
				"y": 3.2911048651,
				"z": -2.7513267737,
				"element": "C" 
			},
			{
				"x": 0.6841726879,
				"y": 3.0686578258,
				"z": -1.7831665625,
				"element": "C" 
			},
			{
				"x": 0.6414742377,
				"y": 1.8277937532,
				"z": -1.0785091274,
				"element": "C" 
			},
			{
				"x": -0.3192944947,
				"y": 1.5632132508,
				"z": -0.0726491886,
				"element": "C" 
			},
			{
				"x": -1.2812831193,
				"y": 2.5726171564,
				"z": 0.2502248978,
				"element": "C" 
			},
			{
				"x": -2.063908221,
				"y": 3.3938144277,
				"z": 0.5128920308,
				"element": "N" 
			},
			{
				"x": -0.3578478428,
				"y": 0.3309361294,
				"z": 0.6236677376,
				"element": "C" 
			},
			{
				"x": 0.6098088958,
				"y": -0.6844250486,
				"z": 0.298865734,
				"element": "C" 
			},
			{
				"x": 0.5671095594,
				"y": -1.9252892827,
				"z": 1.0035233779,
				"element": "C" 
			},
			{
				"x": -0.3769026072,
				"y": -2.1477357667,
				"z": 1.9716837514,
				"element": "C" 
			},
			{
				"x": -1.333102855,
				"y": -1.1444087074,
				"z": 2.2926222311,
				"element": "C" 
			},
			{
				"x": -1.3246523582,
				"y": 0.0597539653,
				"z": 1.6384832536,
				"element": "C" 
			},
			{
				"x": 3.3047461411,
				"y": 0.3177331757,
				"z": -2.6621106432,
				"element": "H" 
			},
			{
				"x": 3.3254669739,
				"y": 2.4802756473,
				"z": -3.8418514174,
				"element": "H" 
			},
			{
				"x": 1.6488270437,
				"y": 4.2395345624,
				"z": -3.2791303098,
				"element": "H" 
			},
			{
				"x": -0.045516318,
				"y": 3.8332206306,
				"z": -1.537674999,
				"element": "H" 
			},
			{
				"x": 1.2967974811,
				"y": -2.6898517926,
				"z": 0.7580314098,
				"element": "H" 
			},
			{
				"x": -0.3975447845,
				"y": -3.0961656638,
				"z": 2.4994869361,
				"element": "H" 
			},
			{
				"x": -2.0741849561,
				"y": -1.3369067783,
				"z": 3.0622077181,
				"element": "H" 
			},
			{
				"x": -2.053464147,
				"y": 0.8256347606,
				"z": 1.8824666054,
				"element": "H" 
			}
		],
		 "valence_orbital": [ 
			{
				"type": "occ",
				"energy": -0.32104,
				"method": "rhf"
			},
			{
				"type": "occ",
				"energy": -0.30775,
				"method": "rhf"
			},
			{
				"type": "occ",
				"energy": -0.28295,
				"method": "rhf"
			},
			{
				"type": "occ",
				"energy": -0.2718,
				"method": "rhf"
			},
			{
				"type": "occ",
				"energy": -0.22679,
				"method": "rhf"
			},
			{
				"type": "unocc",
				"energy": -0.11313,
				"method": "rhf"
			},
			{
				"type": "unocc",
				"energy": -0.04341,
				"method": "rhf"
			},
			{
				"type": "unocc",
				"energy": -0.02449,
				"method": "rhf"
			},
			{
				"type": "unocc",
				"energy": -0.02102,
				"method": "rhf"
			},
			{
				"type": "unocc",
				"energy": 0.0095,
				"method": "rhf"
			}
		],
		"cosmo_sigma_profile": { 
			"-0.025": 0.0,
			"-0.024": 0.0,
			"-0.023": 0.0,
			"-0.022": 0.0,
			"-0.021": 0.0,
			"-0.02": 0.0,
			"-0.019": 0.0,
			"-0.018": 0.0,
			"-0.017": 0.0,
			"-0.016": 0.0,
			"-0.015": 0.0,
			"-0.014": 0.0,
			"-0.013": 0.0,
			"-0.012": 0.0,
			"-0.011": 0.0,
			"-0.01": 0.0,
			"-0.009": 0.0,
			"-0.008": 0.661240817373,
			"-0.007": 10.9023255731,
			"-0.006": 16.9910896403,
			"-0.005": 16.6825853956,
			"-0.004": 13.1698470594,
			"-0.003": 25.0664750849,
			"-0.002": 27.4441355158,
			"-0.001": 24.5949371306,
			"0.0": 23.4702061085,
			"0.001": 20.6383718168,
			"0.002": 21.9650286804,
			"0.003": 15.2156750973,
			"0.004": 2.77102808373,
			"0.005": 5.2057726285,
			"0.006": 3.15188705714,
			"0.007": 5.34245212633,
			"0.008": 5.23432352948,
			"0.009": 6.09163303654,
			"0.01": 5.43834403258,
			"0.011": 5.0356379362,
			"0.012": 4.277060169,
			"0.013": 0.706967614352,
			"0.014": 0.0,
			"0.015": 0.0,
			"0.016": 0.0,
			"0.017": 0.0,
			"0.018": 0.0,
			"0.019": 0.0,
			"0.02": 0.0,
			"0.021": 0.0,
			"0.022": 0.0,
			"0.023": 0.0,
			"0.024": 0.0,
			"0.025": 0.0
		}
	}
}
