{
	 "smiles": "NC1=NC2=C(N1)C=CC=N2", 
	 "Tm": 542.15, 
	 "num_atms": 16, 
	 "gaussian": { 
		 "optdone": 1, 
		 "sigma_profile": "yes", 
		 "theory": "DFT", 
		 "functional": "B3LYP", 
		 "basiset": "6-31G**", 
		 "properties": { 
			 "R2extent": 1479.149, 
			 "electric_dipole_moment_norm": 5.80612213702, 
			 "electric_quadrupole_moment_norm": 15.4504553189, 
			 "total_energy": -451.269208725, 
			 "HOMO_LUMO_gap": 0.19433, 
			 "cosmo_polarized_energy": -22.47, 
			 "cosmo_cavitation_energy": 20.31, 
			 "cosmo_dispersion_energy": -15.76, 
			 "cosmo_repulsion_energy": 1.28, 
			 "cosmo_total_nonelectrostatic_energy": 5.83, 
			 "SMD_solvation_energy": -0.36 
		},
		"coords": [
			{
				"x": -3.188022919,
				"y": 1.6628776781,
				"z": 1.5768793907,
				"element": "N" 
			},
			{
				"x": -2.0224266274,
				"y": 1.1615628909,
				"z": 1.0356492565,
				"element": "C" 
			},
			{
				"x": -1.8469123392,
				"y": 0.8568526764,
				"z": -0.2262625413,
				"element": "N" 
			},
			{
				"x": -0.5108733285,
				"y": 0.4908848029,
				"z": -0.3149362756,
				"element": "C" 
			},
			{
				"x": 0.1133326003,
				"y": 0.5725904515,
				"z": 0.9611679732,
				"element": "C" 
			},
			{
				"x": -0.8943529915,
				"y": 0.9932086242,
				"z": 1.8207440774,
				"element": "N" 
			},
			{
				"x": 1.4497737062,
				"y": 0.2449922742,
				"z": 1.1198544012,
				"element": "C" 
			},
			{
				"x": 2.1112259354,
				"y": -0.1564162153,
				"z": -0.0463239555,
				"element": "C" 
			},
			{
				"x": 1.4154613189,
				"y": -0.2114940479,
				"z": -1.2628704717,
				"element": "C" 
			},
			{
				"x": 0.1216784226,
				"y": 0.1012679109,
				"z": -1.4213766598,
				"element": "N" 
			},
			{
				"x": -3.9518398323,
				"y": 1.6104543009,
				"z": 0.9149604892,
				"element": "H" 
			},
			{
				"x": -3.440686566,
				"y": 1.2984477387,
				"z": 2.4867701851,
				"element": "H" 
			},
			{
				"x": -0.7778166035,
				"y": 1.3348214967,
				"z": 2.7622476884,
				"element": "H" 
			},
			{
				"x": 1.9586551094,
				"y": 0.2952380953,
				"z": 2.0782266788,
				"element": "H" 
			},
			{
				"x": 3.1616068361,
				"y": -0.4269198385,
				"z": -0.0156423232,
				"element": "H" 
			},
			{
				"x": 1.9396972785,
				"y": -0.5277688391,
				"z": -2.1628879133,
				"element": "H" 
			}
		],
		 "valence_orbital": [ 
			{
				"type": "occ",
				"energy": -0.29553,
				"method": "rhf"
			},
			{
				"type": "occ",
				"energy": -0.28257,
				"method": "rhf"
			},
			{
				"type": "occ",
				"energy": -0.24401,
				"method": "rhf"
			},
			{
				"type": "occ",
				"energy": -0.23921,
				"method": "rhf"
			},
			{
				"type": "occ",
				"energy": -0.21073,
				"method": "rhf"
			},
			{
				"type": "unocc",
				"energy": -0.0164,
				"method": "rhf"
			},
			{
				"type": "unocc",
				"energy": 0.01837,
				"method": "rhf"
			},
			{
				"type": "unocc",
				"energy": 0.05629,
				"method": "rhf"
			},
			{
				"type": "unocc",
				"energy": 0.06256,
				"method": "rhf"
			},
			{
				"type": "unocc",
				"energy": 0.09438,
				"method": "rhf"
			}
		],
		"cosmo_sigma_profile": { 
			"-0.025": 0.0,
			"-0.024": 0.0,
			"-0.023": 0.0,
			"-0.022": 0.0,
			"-0.021": 0.0,
			"-0.02": 0.0,
			"-0.019": 0.0,
			"-0.018": 0.0,
			"-0.017": 0.620107832626,
			"-0.016": 2.04263815533,
			"-0.015": 1.97164960263,
			"-0.014": 4.00803924859,
			"-0.013": 3.38128363247,
			"-0.012": 3.72253702901,
			"-0.011": 4.33812859487,
			"-0.01": 2.96069633204,
			"-0.009": 2.1135132836,
			"-0.008": 3.64841533994,
			"-0.007": 4.91405581686,
			"-0.006": 5.4980631061,
			"-0.005": 8.05279288361,
			"-0.004": 6.58629850795,
			"-0.003": 7.83223725515,
			"-0.002": 5.59577378486,
			"-0.001": 6.53646732062,
			"0.0": 8.55510065273,
			"0.001": 9.22607154613,
			"0.002": 10.1107470768,
			"0.003": 10.6894583907,
			"0.004": 10.8265531637,
			"0.005": 5.84470786799,
			"0.006": 3.63095879131,
			"0.007": 3.19273141956,
			"0.008": 2.70535143703,
			"0.009": 2.50367165388,
			"0.01": 2.33588743713,
			"0.011": 2.86170668282,
			"0.012": 2.97578699271,
			"0.013": 2.27902537638,
			"0.014": 2.22857195792,
			"0.015": 3.15796879699,
			"0.016": 2.97942846705,
			"0.017": 2.1342507126,
			"0.018": 0.54242412432,
			"0.019": 0.0,
			"0.02": 0.0,
			"0.021": 0.0,
			"0.022": 0.0,
			"0.023": 0.0,
			"0.024": 0.0,
			"0.025": 0.0
		}
	}
}
