{
	 "smiles": "CC1=CC(N)=C(SCC(=O)NC2=C(C)C=CC=C2)C=C1", 
	 "Tm": 389.15, 
	 "num_atms": 38, 
	 "gaussian": { 
		 "optdone": 1, 
		 "sigma_profile": "yes", 
		 "theory": "DFT", 
		 "functional": "B3LYP", 
		 "basiset": "6-31G**", 
		 "properties": { 
			 "R2extent": 9290.5817, 
			 "electric_dipole_moment_norm": 4.52245818112, 
			 "electric_quadrupole_moment_norm": 19.6027844275, 
			 "total_energy": -1203.49999385, 
			 "HOMO_LUMO_gap": 0.15978, 
			 "cosmo_polarized_energy": -15.84, 
			 "cosmo_cavitation_energy": 42.51, 
			 "cosmo_dispersion_energy": -30.35, 
			 "cosmo_repulsion_energy": 2.3, 
			 "cosmo_total_nonelectrostatic_energy": 14.46, 
			 "SMD_solvation_energy": 7.07 
		},
		"coords": [
			{
				"x": -5.1612385559,
				"y": -3.0961210771,
				"z": 2.3963601037,
				"element": "C" 
			},
			{
				"x": -3.7649484469,
				"y": -2.8242437421,
				"z": 1.887243477,
				"element": "C" 
			},
			{
				"x": -2.9344252833,
				"y": -1.9200218913,
				"z": 2.5410212782,
				"element": "C" 
			},
			{
				"x": -1.615553577,
				"y": -1.649244695,
				"z": 2.1089078236,
				"element": "C" 
			},
			{
				"x": -0.8211744053,
				"y": -0.7817964911,
				"z": 2.8192764018,
				"element": "N" 
			},
			{
				"x": -1.1466363627,
				"y": -2.3296069687,
				"z": 0.9542296436,
				"element": "C" 
			},
			{
				"x": 0.537022114,
				"y": -2.1579662345,
				"z": 0.3742307399,
				"element": "S" 
			},
			{
				"x": 0.4853964968,
				"y": -0.6499888821,
				"z": -0.6945448471,
				"element": "C" 
			},
			{
				"x": 1.1055504201,
				"y": 0.5832490842,
				"z": -0.0428258255,
				"element": "C" 
			},
			{
				"x": 0.9765128726,
				"y": 0.8505434357,
				"z": 1.1489625529,
				"element": "O" 
			},
			{
				"x": 1.8615338513,
				"y": 1.416913002,
				"z": -0.8351484418,
				"element": "N" 
			},
			{
				"x": 2.1100244286,
				"y": 1.4039483911,
				"z": -2.2346635505,
				"element": "C" 
			},
			{
				"x": 3.4374141586,
				"y": 1.5530820572,
				"z": -2.6892140617,
				"element": "C" 
			},
			{
				"x": 4.5818934284,
				"y": 1.684085571,
				"z": -1.7141224267,
				"element": "C" 
			},
			{
				"x": 3.6612619605,
				"y": 1.5725088148,
				"z": -4.0701375092,
				"element": "C" 
			},
			{
				"x": 2.6152135769,
				"y": 1.4376378185,
				"z": -4.9837095367,
				"element": "C" 
			},
			{
				"x": 1.3076557445,
				"y": 1.2970273339,
				"z": -4.5204876281,
				"element": "C" 
			},
			{
				"x": 1.0552768303,
				"y": 1.2977267014,
				"z": -3.149573794,
				"element": "C" 
			},
			{
				"x": -1.9910797035,
				"y": -3.2400963175,
				"z": 0.3007637941,
				"element": "C" 
			},
			{
				"x": -3.2820746046,
				"y": -3.4909297897,
				"z": 0.7475713158,
				"element": "C" 
			},
			{
				"x": -5.9036852396,
				"y": -2.9866875063,
				"z": 1.5978854893,
				"element": "H" 
			},
			{
				"x": -5.4353017391,
				"y": -2.4161637519,
				"z": 3.2076843047,
				"element": "H" 
			},
			{
				"x": -5.2493484639,
				"y": -4.1210758704,
				"z": 2.7763343089,
				"element": "H" 
			},
			{
				"x": -3.3025211287,
				"y": -1.400233911,
				"z": 3.423686012,
				"element": "H" 
			},
			{
				"x": -1.3021745284,
				"y": -0.1835703627,
				"z": 3.4743405611,
				"element": "H" 
			},
			{
				"x": -0.0564854086,
				"y": -0.3278037061,
				"z": 2.3239475881,
				"element": "H" 
			},
			{
				"x": 0.9877022225,
				"y": -0.8934049162,
				"z": -1.631891232,
				"element": "H" 
			},
			{
				"x": -0.5649218935,
				"y": -0.4480448966,
				"z": -0.921535325,
				"element": "H" 
			},
			{
				"x": 2.3076018611,
				"y": 2.1459475609,
				"z": -0.2900041578,
				"element": "H" 
			},
			{
				"x": 4.5482541873,
				"y": 2.6350691634,
				"z": -1.165604756,
				"element": "H" 
			},
			{
				"x": 4.5655775601,
				"y": 0.8840754073,
				"z": -0.9664105036,
				"element": "H" 
			},
			{
				"x": 5.5417994973,
				"y": 1.646618492,
				"z": -2.2346322077,
				"element": "H" 
			},
			{
				"x": 4.6800479311,
				"y": 1.6835830035,
				"z": -4.4321199295,
				"element": "H" 
			},
			{
				"x": 2.8215081875,
				"y": 1.4466705222,
				"z": -6.0496659999,
				"element": "H" 
			},
			{
				"x": 0.4820632386,
				"y": 1.205471217,
				"z": -5.2196747392,
				"element": "H" 
			},
			{
				"x": 0.0366180927,
				"y": 1.2326747037,
				"z": -2.7815379363,
				"element": "H" 
			},
			{
				"x": -1.6078160318,
				"y": -3.7578245955,
				"z": -0.5735819875,
				"element": "H" 
			},
			{
				"x": -3.913543288,
				"y": -4.2014066743,
				"z": 0.221441001,
				"element": "H" 
			}
		],
		 "valence_orbital": [ 
			{
				"type": "occ",
				"energy": -0.25957,
				"method": "rhf"
			},
			{
				"type": "occ",
				"energy": -0.2405,
				"method": "rhf"
			},
			{
				"type": "occ",
				"energy": -0.23213,
				"method": "rhf"
			},
			{
				"type": "occ",
				"energy": -0.21964,
				"method": "rhf"
			},
			{
				"type": "occ",
				"energy": -0.18572,
				"method": "rhf"
			},
			{
				"type": "unocc",
				"energy": -0.02594,
				"method": "rhf"
			},
			{
				"type": "unocc",
				"energy": -0.01516,
				"method": "rhf"
			},
			{
				"type": "unocc",
				"energy": -0.00131,
				"method": "rhf"
			},
			{
				"type": "unocc",
				"energy": 0.01629,
				"method": "rhf"
			},
			{
				"type": "unocc",
				"energy": 0.02491,
				"method": "rhf"
			}
		],
		"cosmo_sigma_profile": { 
			"-0.025": 0.0,
			"-0.024": 0.0,
			"-0.023": 0.0,
			"-0.022": 0.0,
			"-0.021": 0.0,
			"-0.02": 0.0,
			"-0.019": 0.0,
			"-0.018": 0.0,
			"-0.017": 0.0,
			"-0.016": 0.0,
			"-0.015": 0.0,
			"-0.014": 0.233496492509,
			"-0.013": 1.2438218941,
			"-0.012": 1.76322440924,
			"-0.011": 2.48124598924,
			"-0.01": 1.74630073315,
			"-0.009": 3.83388382575,
			"-0.008": 5.62481711115,
			"-0.007": 5.6103764921,
			"-0.006": 10.7599452197,
			"-0.005": 20.5044110622,
			"-0.004": 29.1908890399,
			"-0.003": 29.864594581,
			"-0.002": 27.9723535666,
			"-0.001": 28.045445662,
			"0.0": 27.2275771481,
			"0.001": 21.4876609783,
			"0.002": 18.6376949871,
			"0.003": 17.9621556836,
			"0.004": 18.2841271742,
			"0.005": 20.372495798,
			"0.006": 15.8037266983,
			"0.007": 8.65890122805,
			"0.008": 5.45071052833,
			"0.009": 5.66394684196,
			"0.01": 3.21793553311,
			"0.011": 2.72375645807,
			"0.012": 2.58691123218,
			"0.013": 1.71046409181,
			"0.014": 0.30950837432,
			"0.015": 0.0,
			"0.016": 0.0,
			"0.017": 0.0,
			"0.018": 0.0,
			"0.019": 0.0,
			"0.02": 0.0,
			"0.021": 0.0,
			"0.022": 0.0,
			"0.023": 0.0,
			"0.024": 0.0,
			"0.025": 0.0
		}
	}
}
