{
	 "smiles": "NC1=NC(N)=C(N=O)C(N)=N1", 
	 "Tm": 573.15, 
	 "num_atms": 17, 
	 "gaussian": { 
		 "optdone": 1, 
		 "sigma_profile": "yes", 
		 "theory": "DFT", 
		 "functional": "B3LYP", 
		 "basiset": "6-31G**", 
		 "properties": { 
			 "R2extent": 1850.3538, 
			 "electric_dipole_moment_norm": 3.84385621609, 
			 "electric_quadrupole_moment_norm": 11.9280532238, 
			 "total_energy": -559.754779525, 
			 "HOMO_LUMO_gap": 0.13378, 
			 "cosmo_polarized_energy": -16.73, 
			 "cosmo_cavitation_energy": 21.65, 
			 "cosmo_dispersion_energy": -16.99, 
			 "cosmo_repulsion_energy": 1.4, 
			 "cosmo_total_nonelectrostatic_energy": 6.06, 
			 "SMD_solvation_energy": 1.07 
		},
		"coords": [
			{
				"x": 0.9520447194,
				"y": 3.4117504168,
				"z": 0.1208666702,
				"element": "N" 
			},
			{
				"x": 0.9126990108,
				"y": 2.0626050361,
				"z": 0.0376168043,
				"element": "C" 
			},
			{
				"x": 1.0988507485,
				"y": 1.4028619357,
				"z": 1.2023458796,
				"element": "N" 
			},
			{
				"x": 1.0605220959,
				"y": 0.0726661677,
				"z": 1.1239676751,
				"element": "C" 
			},
			{
				"x": 1.2389816701,
				"y": -0.6389095289,
				"z": 2.2514385768,
				"element": "N" 
			},
			{
				"x": 0.8360815165,
				"y": -0.6190194216,
				"z": -0.1176292327,
				"element": "C" 
			},
			{
				"x": 0.819513977,
				"y": -1.9803200365,
				"z": -0.0664500716,
				"element": "N" 
			},
			{
				"x": 0.6263430101,
				"y": -2.6230240274,
				"z": -1.1300782944,
				"element": "O" 
			},
			{
				"x": 0.6550102902,
				"y": 0.2214942002,
				"z": -1.2732933382,
				"element": "C" 
			},
			{
				"x": 0.4410505433,
				"y": -0.3465141004,
				"z": -2.4668634367,
				"element": "N" 
			},
			{
				"x": 0.6940815347,
				"y": 1.5569261145,
				"z": -1.190731981,
				"element": "N" 
			},
			{
				"x": 0.8203921607,
				"y": 3.9605338315,
				"z": -0.7116506051,
				"element": "H" 
			},
			{
				"x": 1.1123033894,
				"y": 3.84536327,
				"z": 1.0140440932,
				"element": "H" 
			},
			{
				"x": 1.2118427432,
				"y": -1.6457497131,
				"z": 2.195853142,
				"element": "H" 
			},
			{
				"x": 1.3972848252,
				"y": -0.1527768412,
				"z": 3.1183497093,
				"element": "H" 
			},
			{
				"x": 0.3156891309,
				"y": 0.2488850791,
				"z": -3.2710108081,
				"element": "H" 
			},
			{
				"x": 0.4187086342,
				"y": -1.3652723824,
				"z": -2.4876747826,
				"element": "H" 
			}
		],
		 "valence_orbital": [ 
			{
				"type": "occ",
				"energy": -0.26157,
				"method": "rhf"
			},
			{
				"type": "occ",
				"energy": -0.25583,
				"method": "rhf"
			},
			{
				"type": "occ",
				"energy": -0.24343,
				"method": "rhf"
			},
			{
				"type": "occ",
				"energy": -0.22669,
				"method": "rhf"
			},
			{
				"type": "occ",
				"energy": -0.19746,
				"method": "rhf"
			},
			{
				"type": "unocc",
				"energy": -0.06368,
				"method": "rhf"
			},
			{
				"type": "unocc",
				"energy": 0.01321,
				"method": "rhf"
			},
			{
				"type": "unocc",
				"energy": 0.03777,
				"method": "rhf"
			},
			{
				"type": "unocc",
				"energy": 0.08414,
				"method": "rhf"
			},
			{
				"type": "unocc",
				"energy": 0.09299,
				"method": "rhf"
			}
		],
		"cosmo_sigma_profile": { 
			"-0.025": 0.0,
			"-0.024": 0.0,
			"-0.023": 0.0,
			"-0.022": 0.0,
			"-0.021": 0.0,
			"-0.02": 0.0,
			"-0.019": 0.0,
			"-0.018": 0.0,
			"-0.017": 0.0,
			"-0.016": 0.0,
			"-0.015": 1.01263123682,
			"-0.014": 4.12022628748,
			"-0.013": 4.86973416982,
			"-0.012": 4.35159913548,
			"-0.011": 4.77143842938,
			"-0.01": 4.84924809765,
			"-0.009": 5.06064635529,
			"-0.008": 4.92521956024,
			"-0.007": 4.95935180522,
			"-0.006": 3.2305760041,
			"-0.005": 3.61877443239,
			"-0.004": 3.43479922839,
			"-0.003": 4.99859056571,
			"-0.002": 6.91703056833,
			"-0.001": 8.91568491897,
			"0.0": 12.4748953955,
			"0.001": 14.5347791312,
			"0.002": 11.4726110693,
			"0.003": 12.9823515715,
			"0.004": 9.22025265661,
			"0.005": 4.39734759409,
			"0.006": 5.43797243101,
			"0.007": 3.73146331353,
			"0.008": 4.20036429335,
			"0.009": 3.95881522849,
			"0.01": 5.50574801862,
			"0.011": 4.35047853104,
			"0.012": 4.18169223211,
			"0.013": 3.84568594566,
			"0.014": 1.60339354162,
			"0.015": 0.350232165073,
			"0.016": 0.0,
			"0.017": 0.0,
			"0.018": 0.0,
			"0.019": 0.0,
			"0.02": 0.0,
			"0.021": 0.0,
			"0.022": 0.0,
			"0.023": 0.0,
			"0.024": 0.0,
			"0.025": 0.0
		}
	}
}
