{
	 "smiles": "CCC(O)CO", 
	 "Tm": 223.15, 
	 "num_atms": 16, 
	 "gaussian": { 
		 "optdone": 1, 
		 "sigma_profile": "yes", 
		 "theory": "DFT", 
		 "functional": "B3LYP", 
		 "basiset": "6-31G**", 
		 "properties": { 
			 "R2extent": 759.452, 
			 "electric_dipole_moment_norm": 2.25485238985, 
			 "electric_quadrupole_moment_norm": 7.13868235531, 
			 "total_energy": -308.890796045, 
			 "HOMO_LUMO_gap": 0.3148, 
			 "cosmo_polarized_energy": -7.95, 
			 "cosmo_cavitation_energy": 18.12, 
			 "cosmo_dispersion_energy": -13.57, 
			 "cosmo_repulsion_energy": 1.2, 
			 "cosmo_total_nonelectrostatic_energy": 5.75, 
			 "SMD_solvation_energy": 3.3 
		},
		"coords": [
			{
				"x": 0.7300114541,
				"y": 0.1920765258,
				"z": 2.3115661925,
				"element": "C" 
			},
			{
				"x": 1.0822403422,
				"y": 0.5504694681,
				"z": 0.865739557,
				"element": "C" 
			},
			{
				"x": 0.8610155782,
				"y": -0.5977423114,
				"z": -0.1179593726,
				"element": "C" 
			},
			{
				"x": -0.5347509911,
				"y": -0.9466474418,
				"z": -0.0576705657,
				"element": "O" 
			},
			{
				"x": 1.1932629582,
				"y": -0.2202592893,
				"z": -1.5675991806,
				"element": "C" 
			},
			{
				"x": 0.3227100962,
				"y": 0.7877029732,
				"z": -2.043749375,
				"element": "O" 
			},
			{
				"x": -0.3167169314,
				"y": -0.112281839,
				"z": 2.389581553,
				"element": "H" 
			},
			{
				"x": 1.3484998861,
				"y": -0.6357161346,
				"z": 2.6786021954,
				"element": "H" 
			},
			{
				"x": 0.8902013054,
				"y": 1.0460663041,
				"z": 2.9772529864,
				"element": "H" 
			},
			{
				"x": 2.1348389254,
				"y": 0.8528478761,
				"z": 0.7959025128,
				"element": "H" 
			},
			{
				"x": 0.4897299366,
				"y": 1.4069762789,
				"z": 0.5261740793,
				"element": "H" 
			},
			{
				"x": 1.4793201669,
				"y": -1.4591967442,
				"z": 0.1829843089,
				"element": "H" 
			},
			{
				"x": -0.6466973906,
				"y": -1.8100920787,
				"z": -0.4768489676,
				"element": "H" 
			},
			{
				"x": 2.2176686833,
				"y": 0.1612042087,
				"z": -1.6448370004,
				"element": "H" 
			},
			{
				"x": 1.1344128892,
				"y": -1.1287897468,
				"z": -2.1953197385,
				"element": "H" 
			},
			{
				"x": -0.5549469087,
				"y": 0.532281951,
				"z": -1.718719185,
				"element": "H" 
			}
		],
		 "valence_orbital": [ 
			{
				"type": "occ",
				"energy": -0.33877,
				"method": "rhf"
			},
			{
				"type": "occ",
				"energy": -0.32922,
				"method": "rhf"
			},
			{
				"type": "occ",
				"energy": -0.32524,
				"method": "rhf"
			},
			{
				"type": "occ",
				"energy": -0.28737,
				"method": "rhf"
			},
			{
				"type": "occ",
				"energy": -0.25639,
				"method": "rhf"
			},
			{
				"type": "unocc",
				"energy": 0.05841,
				"method": "rhf"
			},
			{
				"type": "unocc",
				"energy": 0.1127,
				"method": "rhf"
			},
			{
				"type": "unocc",
				"energy": 0.11832,
				"method": "rhf"
			},
			{
				"type": "unocc",
				"energy": 0.13236,
				"method": "rhf"
			},
			{
				"type": "unocc",
				"energy": 0.1392,
				"method": "rhf"
			}
		],
		"cosmo_sigma_profile": { 
			"-0.025": 0.0,
			"-0.024": 0.0,
			"-0.023": 0.0,
			"-0.022": 0.0,
			"-0.021": 0.0,
			"-0.02": 0.0,
			"-0.019": 0.0,
			"-0.018": 0.0,
			"-0.017": 0.0,
			"-0.016": 0.298847621338,
			"-0.015": 0.834701804521,
			"-0.014": 1.31131509407,
			"-0.013": 0.6903976526,
			"-0.012": 0.97217497658,
			"-0.011": 1.58710541987,
			"-0.01": 1.68307164126,
			"-0.009": 0.759815701698,
			"-0.008": 1.76822462363,
			"-0.007": 1.9436078694,
			"-0.006": 3.19455369679,
			"-0.005": 3.16249359129,
			"-0.004": 10.1818675957,
			"-0.003": 13.949597183,
			"-0.002": 14.3494513545,
			"-0.001": 13.3067295499,
			"0.0": 14.8802755584,
			"0.001": 14.0235998921,
			"0.002": 9.38687704832,
			"0.003": 4.30075390705,
			"0.004": 3.22912791936,
			"0.005": 3.35631979499,
			"0.006": 2.15256581142,
			"0.007": 1.81409297146,
			"0.008": 2.13164378197,
			"0.009": 2.65711212026,
			"0.01": 1.66607460046,
			"0.011": 1.10438271814,
			"0.012": 2.08168089706,
			"0.013": 2.35841704679,
			"0.014": 2.45429723531,
			"0.015": 1.68475114015,
			"0.016": 0.00627842463017,
			"0.017": 0.0,
			"0.018": 0.0,
			"0.019": 0.0,
			"0.02": 0.0,
			"0.021": 0.0,
			"0.022": 0.0,
			"0.023": 0.0,
			"0.024": 0.0,
			"0.025": 0.0
		}
	}
}
