{
	 "smiles": "CC(C)(C)C1=CC=C(C=C1)C(=O)NC(=O)CCl", 
	 "Tm": 394.15, 
	 "num_atms": 33, 
	 "gaussian": { 
		 "optdone": 1, 
		 "sigma_profile": "yes", 
		 "theory": "DFT", 
		 "functional": "B3LYP", 
		 "basiset": "6-31G**", 
		 "properties": { 
			 "R2extent": 8201.6593, 
			 "electric_dipole_moment_norm": 4.92571186124, 
			 "electric_quadrupole_moment_norm": 21.3957201877, 
			 "total_energy": -1170.45380061, 
			 "HOMO_LUMO_gap": 0.19343, 
			 "cosmo_polarized_energy": -17.23, 
			 "cosmo_cavitation_energy": 37.78, 
			 "cosmo_dispersion_energy": -26.62, 
			 "cosmo_repulsion_energy": 2.06, 
			 "cosmo_total_nonelectrostatic_energy": 13.23, 
			 "SMD_solvation_energy": 7.54 
		},
		"coords": [
			{
				"x": 2.8581928591,
				"y": -1.6228114329,
				"z": 1.9594075617,
				"element": "C" 
			},
			{
				"x": 1.7617564293,
				"y": -1.9877163951,
				"z": 0.9295980342,
				"element": "C" 
			},
			{
				"x": 2.4143799629,
				"y": -2.2228137501,
				"z": -0.4539585911,
				"element": "C" 
			},
			{
				"x": 1.0977318788,
				"y": -3.3030930843,
				"z": 1.3788516147,
				"element": "C" 
			},
			{
				"x": 0.7543207082,
				"y": -0.8293556951,
				"z": 0.8265713057,
				"element": "C" 
			},
			{
				"x": 1.1917062512,
				"y": 0.4458280381,
				"z": 0.4266559928,
				"element": "C" 
			},
			{
				"x": 0.3132501953,
				"y": 1.5186143831,
				"z": 0.3138538912,
				"element": "C" 
			},
			{
				"x": -1.0500803203,
				"y": 1.3543484679,
				"z": 0.6033834307,
				"element": "C" 
			},
			{
				"x": -1.4944903098,
				"y": 0.0950249939,
				"z": 1.0212959356,
				"element": "C" 
			},
			{
				"x": -0.6096600559,
				"y": -0.9755390432,
				"z": 1.1233359253,
				"element": "C" 
			},
			{
				"x": -2.0681406997,
				"y": 2.4504174931,
				"z": 0.5260813778,
				"element": "C" 
			},
			{
				"x": -3.1424245033,
				"y": 2.3911387963,
				"z": 1.0875370741,
				"element": "O" 
			},
			{
				"x": -1.6855085573,
				"y": 3.5487788299,
				"z": -0.2763524894,
				"element": "N" 
			},
			{
				"x": -2.3712251812,
				"y": 4.7393992656,
				"z": -0.4214180124,
				"element": "C" 
			},
			{
				"x": -3.3736873206,
				"y": 5.0736358824,
				"z": 0.1709182035,
				"element": "O" 
			},
			{
				"x": -1.7948662833,
				"y": 5.7427304776,
				"z": -1.4340262135,
				"element": "C" 
			},
			{
				"x": -0.248956131,
				"y": 5.2882437653,
				"z": -2.2756288379,
				"element": "Cl" 
			},
			{
				"x": 3.5857755727,
				"y": -2.4377662567,
				"z": 2.0417715504,
				"element": "H" 
			},
			{
				"x": 3.4035835084,
				"y": -0.7186283905,
				"z": 1.6733846157,
				"element": "H" 
			},
			{
				"x": 2.4249765056,
				"y": -1.4529622426,
				"z": 2.9504165762,
				"element": "H" 
			},
			{
				"x": 1.6615039729,
				"y": -2.4885101117,
				"z": -1.2031952124,
				"element": "H" 
			},
			{
				"x": 2.9442525151,
				"y": -1.3353104386,
				"z": -0.8123089798,
				"element": "H" 
			},
			{
				"x": 3.1394550421,
				"y": -3.0420776107,
				"z": -0.3958828067,
				"element": "H" 
			},
			{
				"x": 1.8519999304,
				"y": -4.0943285865,
				"z": 1.4345872914,
				"element": "H" 
			},
			{
				"x": 0.6419158522,
				"y": -3.2130057277,
				"z": 2.370234378,
				"element": "H" 
			},
			{
				"x": 0.3265655935,
				"y": -3.6327310612,
				"z": 0.6749435288,
				"element": "H" 
			},
			{
				"x": 2.2412168688,
				"y": 0.6116289877,
				"z": 0.204192029,
				"element": "H" 
			},
			{
				"x": 0.7137422082,
				"y": 2.4894564857,
				"z": 0.0346955321,
				"element": "H" 
			},
			{
				"x": -2.5450308036,
				"y": -0.0268679055,
				"z": 1.2630763886,
				"element": "H" 
			},
			{
				"x": -0.9980799662,
				"y": -1.9357263574,
				"z": 1.4415522559,
				"element": "H" 
			},
			{
				"x": -0.8632374699,
				"y": 3.4392474433,
				"z": -0.8550429708,
				"element": "H" 
			},
			{
				"x": -2.543103973,
				"y": 5.9091943435,
				"z": -2.2095075143,
				"element": "H" 
			},
			{
				"x": -1.6122342797,
				"y": 6.6814564365,
				"z": -0.9114228652,
				"element": "H" 
			}
		],
		 "valence_orbital": [ 
			{
				"type": "occ",
				"energy": -0.29209,
				"method": "rhf"
			},
			{
				"type": "occ",
				"energy": -0.28668,
				"method": "rhf"
			},
			{
				"type": "occ",
				"energy": -0.26576,
				"method": "rhf"
			},
			{
				"type": "occ",
				"energy": -0.25686,
				"method": "rhf"
			},
			{
				"type": "occ",
				"energy": -0.25198,
				"method": "rhf"
			},
			{
				"type": "unocc",
				"energy": -0.05855,
				"method": "rhf"
			},
			{
				"type": "unocc",
				"energy": -0.01699,
				"method": "rhf"
			},
			{
				"type": "unocc",
				"energy": -0.00274,
				"method": "rhf"
			},
			{
				"type": "unocc",
				"energy": 0.00386,
				"method": "rhf"
			},
			{
				"type": "unocc",
				"energy": 0.06205,
				"method": "rhf"
			}
		],
		"cosmo_sigma_profile": { 
			"-0.025": 0.0,
			"-0.024": 0.0,
			"-0.023": 0.0,
			"-0.022": 0.0,
			"-0.021": 0.0,
			"-0.02": 0.0,
			"-0.019": 0.0,
			"-0.018": 0.0,
			"-0.017": 0.0,
			"-0.016": 0.0,
			"-0.015": 0.0,
			"-0.014": 0.0,
			"-0.013": 0.0,
			"-0.012": 0.0,
			"-0.011": 0.629315403118,
			"-0.01": 3.61886675543,
			"-0.009": 6.80827170204,
			"-0.008": 5.90349881618,
			"-0.007": 7.64868133195,
			"-0.006": 11.4732386753,
			"-0.005": 14.2595086749,
			"-0.004": 15.3817328792,
			"-0.003": 29.4628400343,
			"-0.002": 28.8765720161,
			"-0.001": 26.7470517188,
			"0.0": 26.8381193351,
			"0.001": 31.0434689851,
			"0.002": 17.370280286,
			"0.003": 14.6585747608,
			"0.004": 17.4017621741,
			"0.005": 9.4263431739,
			"0.006": 2.21663546265,
			"0.007": 2.7889830195,
			"0.008": 1.95919169418,
			"0.009": 3.33746933932,
			"0.01": 3.52401502996,
			"0.011": 7.16151309213,
			"0.012": 6.15196428393,
			"0.013": 2.20623048723,
			"0.014": 1.19141627581,
			"0.015": 1.54860286235,
			"0.016": 0.854892727331,
			"0.017": 0.122461491275,
			"0.018": 0.0,
			"0.019": 0.0,
			"0.02": 0.0,
			"0.021": 0.0,
			"0.022": 0.0,
			"0.023": 0.0,
			"0.024": 0.0,
			"0.025": 0.0
		}
	}
}
