{
	 "smiles": "NC(=O)C(Cl)Cl", 
	 "Tm": 372.35, 
	 "num_atms": 9, 
	 "gaussian": { 
		 "optdone": 1, 
		 "sigma_profile": "yes", 
		 "theory": "DFT", 
		 "functional": "B3LYP", 
		 "basiset": "6-31G**", 
		 "properties": { 
			 "R2extent": 1664.9699, 
			 "electric_dipole_moment_norm": 2.43210010074, 
			 "electric_quadrupole_moment_norm": 11.3800828587, 
			 "total_energy": -1128.38705053, 
			 "HOMO_LUMO_gap": 0.24241, 
			 "cosmo_polarized_energy": -10.54, 
			 "cosmo_cavitation_energy": 16.95, 
			 "cosmo_dispersion_energy": -12.77, 
			 "cosmo_repulsion_energy": 1.14, 
			 "cosmo_total_nonelectrostatic_energy": 5.32, 
			 "SMD_solvation_energy": 3.3 
		},
		"coords": [
			{
				"x": -2.2640564691,
				"y": 0.0105351759,
				"z": -1.0277166244,
				"element": "N" 
			},
			{
				"x": -1.555547418,
				"y": -0.750473006,
				"z": -1.894691443,
				"element": "C" 
			},
			{
				"x": -1.7135279083,
				"y": -0.7705089001,
				"z": -3.1023886638,
				"element": "O" 
			},
			{
				"x": -0.4813850904,
				"y": -1.6636184234,
				"z": -1.2687607708,
				"element": "C" 
			},
			{
				"x": -1.2372676457,
				"y": -2.9523896,
				"z": -0.2594267933,
				"element": "Cl" 
			},
			{
				"x": 0.7288821596,
				"y": -0.7205754575,
				"z": -0.318147226,
				"element": "Cl" 
			},
			{
				"x": -2.0759362732,
				"y": 0.0149591665,
				"z": -0.0378059329,
				"element": "H" 
			},
			{
				"x": -2.9733694428,
				"y": 0.6225610632,
				"z": -1.4002635106,
				"element": "H" 
			},
			{
				"x": 0.050308088,
				"y": -2.1539900187,
				"z": -2.0791990352,
				"element": "H" 
			}
		],
		 "valence_orbital": [ 
			{
				"type": "occ",
				"energy": -0.33762,
				"method": "rhf"
			},
			{
				"type": "occ",
				"energy": -0.32612,
				"method": "rhf"
			},
			{
				"type": "occ",
				"energy": -0.31917,
				"method": "rhf"
			},
			{
				"type": "occ",
				"energy": -0.2907,
				"method": "rhf"
			},
			{
				"type": "occ",
				"energy": -0.2754,
				"method": "rhf"
			},
			{
				"type": "unocc",
				"energy": -0.03299,
				"method": "rhf"
			},
			{
				"type": "unocc",
				"energy": -0.02387,
				"method": "rhf"
			},
			{
				"type": "unocc",
				"energy": 0.06323,
				"method": "rhf"
			},
			{
				"type": "unocc",
				"energy": 0.07079,
				"method": "rhf"
			},
			{
				"type": "unocc",
				"energy": 0.10984,
				"method": "rhf"
			}
		],
		"cosmo_sigma_profile": { 
			"-0.025": 0.0,
			"-0.024": 0.0,
			"-0.023": 0.0,
			"-0.022": 0.0,
			"-0.021": 0.0,
			"-0.02": 0.0,
			"-0.019": 0.0,
			"-0.018": 0.0,
			"-0.017": 0.0,
			"-0.016": 0.177536470619,
			"-0.015": 2.16525135372,
			"-0.014": 2.0674539866,
			"-0.013": 1.82160801897,
			"-0.012": 1.88101425772,
			"-0.011": 2.83290891457,
			"-0.01": 4.39673821185,
			"-0.009": 3.67018808712,
			"-0.008": 2.93490299241,
			"-0.007": 2.94316426118,
			"-0.006": 2.36915454048,
			"-0.005": 2.36230558662,
			"-0.004": 3.4946290317,
			"-0.003": 5.3401499431,
			"-0.002": 6.75530218586,
			"-0.001": 8.62098110678,
			"0.0": 8.72081371903,
			"0.001": 11.4262052972,
			"0.002": 14.1165516709,
			"0.003": 16.6470360747,
			"0.004": 15.8869377436,
			"0.005": 1.50750075966,
			"0.006": 1.04525690631,
			"0.007": 1.13157725391,
			"0.008": 1.23598014818,
			"0.009": 1.27832190208,
			"0.01": 1.61238271681,
			"0.011": 3.08249552578,
			"0.012": 5.70824297141,
			"0.013": 1.76865140317,
			"0.014": 0.0,
			"0.015": 0.0,
			"0.016": 0.0,
			"0.017": 0.0,
			"0.018": 0.0,
			"0.019": 0.0,
			"0.02": 0.0,
			"0.021": 0.0,
			"0.022": 0.0,
			"0.023": 0.0,
			"0.024": 0.0,
			"0.025": 0.0
		}
	}
}
