{
	 "smiles": "CN(C)C1=CC=C(C=CC(=N/NC2=CC=CC=C2)C2=CC=CC=C2)C=C1", 
	 "Tm": 401.15, 
	 "num_atms": 49, 
	 "gaussian": { 
		 "optdone": 1, 
		 "sigma_profile": "yes", 
		 "theory": "DFT", 
		 "functional": "B3LYP", 
		 "basiset": "6-31G**", 
		 "properties": { 
			 "R2extent": 13082.434, 
			 "electric_dipole_moment_norm": 5.03269466688, 
			 "electric_quadrupole_moment_norm": 10.2710132723, 
			 "total_energy": -1054.51739644, 
			 "HOMO_LUMO_gap": 0.13438, 
			 "cosmo_polarized_energy": -13.78, 
			 "cosmo_cavitation_energy": 52.05, 
			 "cosmo_dispersion_energy": -35.78, 
			 "cosmo_repulsion_energy": 2.73, 
			 "cosmo_total_nonelectrostatic_energy": 19.0, 
			 "SMD_solvation_energy": 7.73 
		},
		"coords": [
			{
				"x": -1.4502785461,
				"y": -4.0570451191,
				"z": -3.2073238693,
				"element": "C" 
			},
			{
				"x": -2.0820367672,
				"y": -2.8123607877,
				"z": -3.612574063,
				"element": "N" 
			},
			{
				"x": -2.7813209111,
				"y": -2.758249448,
				"z": -4.8847444727,
				"element": "C" 
			},
			{
				"x": -1.7851121434,
				"y": -1.6397855927,
				"z": -2.9417551188,
				"element": "C" 
			},
			{
				"x": -0.9953482125,
				"y": -1.6424931184,
				"z": -1.7654318327,
				"element": "C" 
			},
			{
				"x": -0.7086089964,
				"y": -0.4687921558,
				"z": -1.0864069736,
				"element": "C" 
			},
			{
				"x": -1.1823638429,
				"y": 0.7814148698,
				"z": -1.5318570937,
				"element": "C" 
			},
			{
				"x": -0.9329926113,
				"y": 2.056000843,
				"z": -0.8620709375,
				"element": "C" 
			},
			{
				"x": -0.082222535,
				"y": 2.3934440962,
				"z": 0.1346259355,
				"element": "C" 
			},
			{
				"x": 0.941082258,
				"y": 1.5844687762,
				"z": 0.8407391493,
				"element": "C" 
			},
			{
				"x": 0.9182363167,
				"y": 1.4510569779,
				"z": 2.1369376648,
				"element": "N" 
			},
			{
				"x": -0.1401438229,
				"y": 1.9410917396,
				"z": 2.8079983166,
				"element": "N" 
			},
			{
				"x": -0.2366256242,
				"y": 1.8314279436,
				"z": 4.1944414254,
				"element": "C" 
			},
			{
				"x": 0.8424429256,
				"y": 1.3935467698,
				"z": 4.9794880295,
				"element": "C" 
			},
			{
				"x": 0.6990124178,
				"y": 1.3140023183,
				"z": 6.3625511161,
				"element": "C" 
			},
			{
				"x": -0.4997494731,
				"y": 1.6696078143,
				"z": 6.9866190916,
				"element": "C" 
			},
			{
				"x": -1.567907574,
				"y": 2.1097786931,
				"z": 6.201704465,
				"element": "C" 
			},
			{
				"x": -1.4438944714,
				"y": 2.190635928,
				"z": 4.8171639064,
				"element": "C" 
			},
			{
				"x": 2.1082481981,
				"y": 1.0054716478,
				"z": 0.1296086363,
				"element": "C" 
			},
			{
				"x": 2.4125417674,
				"y": 1.3778251968,
				"z": -1.1903760864,
				"element": "C" 
			},
			{
				"x": 3.5261181978,
				"y": 0.8489063157,
				"z": -1.8429820689,
				"element": "C" 
			},
			{
				"x": 4.3582061448,
				"y": -0.062647795,
				"z": -1.1928529453,
				"element": "C" 
			},
			{
				"x": 4.0636712791,
				"y": -0.4434462292,
				"z": 0.1201911519,
				"element": "C" 
			},
			{
				"x": 2.9519193875,
				"y": 0.0795278788,
				"z": 0.7730324912,
				"element": "C" 
			},
			{
				"x": -1.9770204738,
				"y": 0.775456726,
				"z": -2.6941320675,
				"element": "C" 
			},
			{
				"x": -2.2680892355,
				"y": -0.3878934301,
				"z": -3.391184306,
				"element": "C" 
			},
			{
				"x": -0.3538768595,
				"y": -4.0207577371,
				"z": -3.2899792415,
				"element": "H" 
			},
			{
				"x": -1.8122721951,
				"y": -4.865843995,
				"z": -3.843391296,
				"element": "H" 
			},
			{
				"x": -1.7019866048,
				"y": -4.3130978744,
				"z": -2.1710609849,
				"element": "H" 
			},
			{
				"x": -2.2209597671,
				"y": -2.2038831023,
				"z": -5.6527260585,
				"element": "H" 
			},
			{
				"x": -2.9421785093,
				"y": -3.7736903838,
				"z": -5.2491242644,
				"element": "H" 
			},
			{
				"x": -3.7651587752,
				"y": -2.2851679304,
				"z": -4.7784893414,
				"element": "H" 
			},
			{
				"x": -0.6021799023,
				"y": -2.5726252865,
				"z": -1.3742919632,
				"element": "H" 
			},
			{
				"x": -0.110509257,
				"y": -0.5291956282,
				"z": -0.1849472619,
				"element": "H" 
			},
			{
				"x": -1.5573739246,
				"y": 2.8684400509,
				"z": -1.2360372096,
				"element": "H" 
			},
			{
				"x": -0.15701523,
				"y": 3.419013811,
				"z": 0.5034837142,
				"element": "H" 
			},
			{
				"x": -0.9706649838,
				"y": 2.2074495164,
				"z": 2.2864352433,
				"element": "H" 
			},
			{
				"x": 1.7719369728,
				"y": 1.1249724845,
				"z": 4.4931183857,
				"element": "H" 
			},
			{
				"x": 1.5397420217,
				"y": 0.9720363078,
				"z": 6.9602769482,
				"element": "H" 
			},
			{
				"x": -0.5991289426,
				"y": 1.6067615706,
				"z": 8.0657681825,
				"element": "H" 
			},
			{
				"x": -2.5084751498,
				"y": 2.3905345846,
				"z": 6.6676104682,
				"element": "H" 
			},
			{
				"x": -2.2815256988,
				"y": 2.5307482728,
				"z": 4.2122857257,
				"element": "H" 
			},
			{
				"x": 1.7753733892,
				"y": 2.0905365335,
				"z": -1.7025518856,
				"element": "H" 
			},
			{
				"x": 3.7435577446,
				"y": 1.1539869024,
				"z": -2.8629385206,
				"element": "H" 
			},
			{
				"x": 5.2242383721,
				"y": -0.4756062096,
				"z": -1.702361867,
				"element": "H" 
			},
			{
				"x": 4.701512865,
				"y": -1.1568191227,
				"z": 0.6352750242,
				"element": "H" 
			},
			{
				"x": 2.7184012839,
				"y": -0.2200052149,
				"z": 1.788671964,
				"element": "H" 
			},
			{
				"x": -2.370590223,
				"y": 1.7181393731,
				"z": -3.0679305812,
				"element": "H" 
			},
			{
				"x": -2.8749302781,
				"y": -0.3218777815,
				"z": -4.2857047243,
				"element": "H" 
			}
		],
		 "valence_orbital": [ 
			{
				"type": "occ",
				"energy": -0.24034,
				"method": "rhf"
			},
			{
				"type": "occ",
				"energy": -0.23837,
				"method": "rhf"
			},
			{
				"type": "occ",
				"energy": -0.23534,
				"method": "rhf"
			},
			{
				"type": "occ",
				"energy": -0.19019,
				"method": "rhf"
			},
			{
				"type": "occ",
				"energy": -0.17572,
				"method": "rhf"
			},
			{
				"type": "unocc",
				"energy": -0.04134,
				"method": "rhf"
			},
			{
				"type": "unocc",
				"energy": -0.01782,
				"method": "rhf"
			},
			{
				"type": "unocc",
				"energy": 0.00314,
				"method": "rhf"
			},
			{
				"type": "unocc",
				"energy": 0.01013,
				"method": "rhf"
			},
			{
				"type": "unocc",
				"energy": 0.01288,
				"method": "rhf"
			}
		],
		"cosmo_sigma_profile": { 
			"-0.025": 0.0,
			"-0.024": 0.0,
			"-0.023": 0.0,
			"-0.022": 0.0,
			"-0.021": 0.0,
			"-0.02": 0.0,
			"-0.019": 0.0,
			"-0.018": 0.0,
			"-0.017": 0.0,
			"-0.016": 0.0,
			"-0.015": 0.0,
			"-0.014": 0.0,
			"-0.013": 0.126949548294,
			"-0.012": 0.841423385678,
			"-0.011": 1.16419225168,
			"-0.01": 1.36227874277,
			"-0.009": 0.981396859307,
			"-0.008": 1.5276644626,
			"-0.007": 3.0190398067,
			"-0.006": 11.8614701172,
			"-0.005": 31.7325757315,
			"-0.004": 40.5368547528,
			"-0.003": 44.6034265625,
			"-0.002": 38.7409540376,
			"-0.001": 32.2323729709,
			"0.0": 24.0784406123,
			"0.001": 24.904471969,
			"0.002": 25.4334449023,
			"0.003": 25.0469342637,
			"0.004": 29.3955656519,
			"0.005": 33.0483064125,
			"0.006": 32.6535477867,
			"0.007": 10.1872842894,
			"0.008": 1.07948092744,
			"0.009": 0.382737310065,
			"0.01": 0.0,
			"0.011": 0.0,
			"0.012": 0.0,
			"0.013": 0.0,
			"0.014": 0.0,
			"0.015": 0.0,
			"0.016": 0.0,
			"0.017": 0.0,
			"0.018": 0.0,
			"0.019": 0.0,
			"0.02": 0.0,
			"0.021": 0.0,
			"0.022": 0.0,
			"0.023": 0.0,
			"0.024": 0.0,
			"0.025": 0.0
		}
	}
}
