{
	 "smiles": "O=C1CCC(=O)O1", 
	 "Tm": 393.15, 
	 "num_atms": 11, 
	 "gaussian": { 
		 "optdone": 1, 
		 "sigma_profile": "yes", 
		 "theory": "DFT", 
		 "functional": "B3LYP", 
		 "basiset": "6-31G**", 
		 "properties": { 
			 "R2extent": 1073.2738, 
			 "electric_dipole_moment_norm": 4.38196252038, 
			 "electric_quadrupole_moment_norm": 11.0371699271, 
			 "total_energy": -380.522023037, 
			 "HOMO_LUMO_gap": 0.2537, 
			 "cosmo_polarized_energy": -12.87, 
			 "cosmo_cavitation_energy": 15.49, 
			 "cosmo_dispersion_energy": -11.86, 
			 "cosmo_repulsion_energy": 1.03, 
			 "cosmo_total_nonelectrostatic_energy": 4.67, 
			 "SMD_solvation_energy": 4.85 
		},
		"coords": [
			{
				"x": 0.5323726415,
				"y": -3.0418878404,
				"z": 0.1612996137,
				"element": "O" 
			},
			{
				"x": 0.3598918912,
				"y": -1.9547576572,
				"z": 0.6288173173,
				"element": "C" 
			},
			{
				"x": -0.9507456282,
				"y": -1.2379620397,
				"z": 0.9227928678,
				"element": "C" 
			},
			{
				"x": -0.5314940598,
				"y": 0.1122725513,
				"z": 1.507948471,
				"element": "C" 
			},
			{
				"x": 0.9905306153,
				"y": 0.0749969724,
				"z": 1.5123613741,
				"element": "C" 
			},
			{
				"x": 1.7607409429,
				"y": 0.9112052871,
				"z": 1.8834537341,
				"element": "O" 
			},
			{
				"x": 1.4247384773,
				"y": -1.1394229952,
				"z": 0.994029924,
				"element": "O" 
			},
			{
				"x": -1.537879528,
				"y": -1.8548883196,
				"z": 1.6085505327,
				"element": "H" 
			},
			{
				"x": -1.520979613,
				"y": -1.1606219001,
				"z": -0.0069072379,
				"element": "H" 
			},
			{
				"x": -0.8782359934,
				"y": 0.2790021407,
				"z": 2.5314068528,
				"element": "H" 
			},
			{
				"x": -0.8562397458,
				"y": 0.9719638007,
				"z": 0.9154465504,
				"element": "H" 
			}
		],
		 "valence_orbital": [ 
			{
				"type": "occ",
				"energy": -0.3992,
				"method": "rhf"
			},
			{
				"type": "occ",
				"energy": -0.37274,
				"method": "rhf"
			},
			{
				"type": "occ",
				"energy": -0.33524,
				"method": "rhf"
			},
			{
				"type": "occ",
				"energy": -0.31318,
				"method": "rhf"
			},
			{
				"type": "occ",
				"energy": -0.28562,
				"method": "rhf"
			},
			{
				"type": "unocc",
				"energy": -0.03192,
				"method": "rhf"
			},
			{
				"type": "unocc",
				"energy": -0.00905,
				"method": "rhf"
			},
			{
				"type": "unocc",
				"energy": 0.06473,
				"method": "rhf"
			},
			{
				"type": "unocc",
				"energy": 0.11316,
				"method": "rhf"
			},
			{
				"type": "unocc",
				"energy": 0.12435,
				"method": "rhf"
			}
		],
		"cosmo_sigma_profile": { 
			"-0.025": 0.0,
			"-0.024": 0.0,
			"-0.023": 0.0,
			"-0.022": 0.0,
			"-0.021": 0.0,
			"-0.02": 0.0,
			"-0.019": 0.0,
			"-0.018": 0.0,
			"-0.017": 0.0,
			"-0.016": 0.0,
			"-0.015": 0.0,
			"-0.014": 0.0,
			"-0.013": 0.0,
			"-0.012": 0.016065205069,
			"-0.011": 1.0147239894,
			"-0.01": 1.88652398558,
			"-0.009": 4.90968994116,
			"-0.008": 16.020938723,
			"-0.007": 9.3224944694,
			"-0.006": 8.25422637313,
			"-0.005": 7.04729613358,
			"-0.004": 7.57877592815,
			"-0.003": 3.99535864905,
			"-0.002": 2.48348725029,
			"-0.001": 2.45170477568,
			"0.0": 2.78588974233,
			"0.001": 2.84430409369,
			"0.002": 2.55015868384,
			"0.003": 3.37864562731,
			"0.004": 3.26820956297,
			"0.005": 3.37707390018,
			"0.006": 4.47366353559,
			"0.007": 7.22657202867,
			"0.008": 5.56286295832,
			"0.009": 6.56695465706,
			"0.01": 11.4381033055,
			"0.011": 5.17751337013,
			"0.012": 0.0579654018728,
			"0.013": 0.0,
			"0.014": 0.0,
			"0.015": 0.0,
			"0.016": 0.0,
			"0.017": 0.0,
			"0.018": 0.0,
			"0.019": 0.0,
			"0.02": 0.0,
			"0.021": 0.0,
			"0.022": 0.0,
			"0.023": 0.0,
			"0.024": 0.0,
			"0.025": 0.0
		}
	}
}
