{
	 "smiles": "CC1=CC=C(C)N1C1=CC=C(CC(O)=O)C=C1", 
	 "Tm": 380.15, 
	 "num_atms": 32, 
	 "gaussian": { 
		 "optdone": 1, 
		 "sigma_profile": "yes", 
		 "theory": "DFT", 
		 "functional": "B3LYP", 
		 "basiset": "6-31G**", 
		 "properties": { 
			 "R2extent": 5545.468, 
			 "electric_dipole_moment_norm": 3.40404104117, 
			 "electric_quadrupole_moment_norm": 27.9224841576, 
			 "total_energy": -747.740729738, 
			 "HOMO_LUMO_gap": 0.15944, 
			 "cosmo_polarized_energy": -15.68, 
			 "cosmo_cavitation_energy": 35.75, 
			 "cosmo_dispersion_energy": -24.39, 
			 "cosmo_repulsion_energy": 1.91, 
			 "cosmo_total_nonelectrostatic_energy": 13.28, 
			 "SMD_solvation_energy": 7.36 
		},
		"coords": [
			{
				"x": 2.7206744752,
				"y": -1.9988140951,
				"z": 1.0168427983,
				"element": "C" 
			},
			{
				"x": 3.1444416259,
				"y": -0.5888356464,
				"z": 0.7519659081,
				"element": "C" 
			},
			{
				"x": 4.333291448,
				"y": 0.0447552946,
				"z": 1.0321056147,
				"element": "C" 
			},
			{
				"x": 4.2155797158,
				"y": 1.4061872939,
				"z": 0.6291815808,
				"element": "C" 
			},
			{
				"x": 2.9526916005,
				"y": 1.5928253123,
				"z": 0.1158753275,
				"element": "C" 
			},
			{
				"x": 2.331505927,
				"y": 2.8120232222,
				"z": -0.4886079837,
				"element": "C" 
			},
			{
				"x": 2.2928298393,
				"y": 0.3642192332,
				"z": 0.1892529993,
				"element": "N" 
			},
			{
				"x": 0.957771822,
				"y": 0.1215422393,
				"z": -0.2403075671,
				"element": "C" 
			},
			{
				"x": 0.7072686981,
				"y": -0.7202747545,
				"z": -1.3318102358,
				"element": "C" 
			},
			{
				"x": -0.6000808306,
				"y": -0.9635058605,
				"z": -1.7454693907,
				"element": "C" 
			},
			{
				"x": -1.6887254817,
				"y": -0.3673583736,
				"z": -1.0903277373,
				"element": "C" 
			},
			{
				"x": -3.1033547227,
				"y": -0.6006260206,
				"z": -1.5692186268,
				"element": "C" 
			},
			{
				"x": -3.6209814076,
				"y": 0.3726607543,
				"z": -2.6446449267,
				"element": "C" 
			},
			{
				"x": -2.9925078577,
				"y": 1.567045717,
				"z": -2.7344951143,
				"element": "O" 
			},
			{
				"x": -4.5619564614,
				"y": 0.1112069388,
				"z": -3.3503014562,
				"element": "O" 
			},
			{
				"x": -1.4252852672,
				"y": 0.4789270064,
				"z": -0.0016378838,
				"element": "C" 
			},
			{
				"x": -0.1184293326,
				"y": 0.7178814699,
				"z": 0.4251941461,
				"element": "C" 
			},
			{
				"x": 1.8134468105,
				"y": -2.051230194,
				"z": 1.6312697083,
				"element": "H" 
			},
			{
				"x": 2.5207528143,
				"y": -2.5683810303,
				"z": 0.1011001558,
				"element": "H" 
			},
			{
				"x": 3.5180756988,
				"y": -2.515125852,
				"z": 1.5568346937,
				"element": "H" 
			},
			{
				"x": 5.1938582917,
				"y": -0.4254235327,
				"z": 1.4884651688,
				"element": "H" 
			},
			{
				"x": 4.97660759,
				"y": 2.1717883297,
				"z": 0.6970207256,
				"element": "H" 
			},
			{
				"x": 1.9864301378,
				"y": 2.636828881,
				"z": -1.5151987583,
				"element": "H" 
			},
			{
				"x": 1.47129488,
				"y": 3.1853889046,
				"z": 0.0803543722,
				"element": "H" 
			},
			{
				"x": 3.0750271616,
				"y": 3.6120580718,
				"z": -0.5211803058,
				"element": "H" 
			},
			{
				"x": 1.543674461,
				"y": -1.1707927076,
				"z": -1.8562121781,
				"element": "H" 
			},
			{
				"x": -0.7797892917,
				"y": -1.6189716513,
				"z": -2.5935415565,
				"element": "H" 
			},
			{
				"x": -3.2268956124,
				"y": -1.6036807486,
				"z": -1.9845841337,
				"element": "H" 
			},
			{
				"x": -3.8073213487,
				"y": -0.5236689337,
				"z": -0.7315033265,
				"element": "H" 
			},
			{
				"x": -2.2366004986,
				"y": 1.5852450947,
				"z": -2.1255673716,
				"element": "H" 
			},
			{
				"x": -2.2529592028,
				"y": 0.9353189776,
				"z": 0.5363510126,
				"element": "H" 
			},
			{
				"x": 0.0731643184,
				"y": 1.3498866593,
				"z": 1.2861943406,
				"element": "H" 
			}
		],
		 "valence_orbital": [ 
			{
				"type": "occ",
				"energy": -0.2893,
				"method": "rhf"
			},
			{
				"type": "occ",
				"energy": -0.27987,
				"method": "rhf"
			},
			{
				"type": "occ",
				"energy": -0.26092,
				"method": "rhf"
			},
			{
				"type": "occ",
				"energy": -0.23128,
				"method": "rhf"
			},
			{
				"type": "occ",
				"energy": -0.19602,
				"method": "rhf"
			},
			{
				"type": "unocc",
				"energy": -0.03658,
				"method": "rhf"
			},
			{
				"type": "unocc",
				"energy": -0.0346,
				"method": "rhf"
			},
			{
				"type": "unocc",
				"energy": 0.01214,
				"method": "rhf"
			},
			{
				"type": "unocc",
				"energy": 0.03796,
				"method": "rhf"
			},
			{
				"type": "unocc",
				"energy": 0.07001,
				"method": "rhf"
			}
		],
		"cosmo_sigma_profile": { 
			"-0.025": 0.0,
			"-0.024": 0.0,
			"-0.023": 0.0,
			"-0.022": 0.0,
			"-0.021": 0.0,
			"-0.02": 0.0,
			"-0.019": 0.0,
			"-0.018": 0.0,
			"-0.017": 0.0,
			"-0.016": 0.0,
			"-0.015": 0.0,
			"-0.014": 0.260027973632,
			"-0.013": 0.457777584723,
			"-0.012": 0.422486736573,
			"-0.011": 1.26032933753,
			"-0.01": 1.28433158005,
			"-0.009": 2.19945581743,
			"-0.008": 4.86392902858,
			"-0.007": 10.672699254,
			"-0.006": 13.7345868113,
			"-0.005": 17.0740762543,
			"-0.004": 23.7069888181,
			"-0.003": 24.8880962499,
			"-0.002": 23.2728337511,
			"-0.001": 23.1131100675,
			"0.0": 27.9282842983,
			"0.001": 19.3977448865,
			"0.002": 14.2923822234,
			"0.003": 12.0587035918,
			"0.004": 9.39375905274,
			"0.005": 7.23238932561,
			"0.006": 5.08132201004,
			"0.007": 6.69036724369,
			"0.008": 7.28748380544,
			"0.009": 7.7274210666,
			"0.01": 5.73470023112,
			"0.011": 4.63318141114,
			"0.012": 5.88272933044,
			"0.013": 2.63144026322,
			"0.014": 0.143241095337,
			"0.015": 0.0,
			"0.016": 0.0,
			"0.017": 0.0,
			"0.018": 0.0,
			"0.019": 0.0,
			"0.02": 0.0,
			"0.021": 0.0,
			"0.022": 0.0,
			"0.023": 0.0,
			"0.024": 0.0,
			"0.025": 0.0
		}
	}
}
