{
	 "smiles": "[O-][N+](=O)C1=C(F)C(=C(F)C=C1)[N+]([O-])=O", 
	 "Tm": 311.15, 
	 "num_atms": 16, 
	 "gaussian": { 
		 "optdone": 1, 
		 "sigma_profile": "yes", 
		 "theory": "DFT", 
		 "functional": "B3LYP", 
		 "basiset": "6-31G**", 
		 "properties": { 
			 "R2extent": 2940.638, 
			 "electric_dipole_moment_norm": 4.26809255757, 
			 "electric_quadrupole_moment_norm": 16.0722900002, 
			 "total_energy": -839.670744532, 
			 "HOMO_LUMO_gap": 0.18785, 
			 "cosmo_polarized_energy": -12.45, 
			 "cosmo_cavitation_energy": 23.82, 
			 "cosmo_dispersion_energy": -17.14, 
			 "cosmo_repulsion_energy": 1.31, 
			 "cosmo_total_nonelectrostatic_energy": 7.98, 
			 "SMD_solvation_energy": 9.66 
		},
		"coords": [
			{
				"x": 2.445956759,
				"y": 0.0208126434,
				"z": 1.2075152778,
				"element": "O" 
			},
			{
				"x": 1.2780689534,
				"y": 0.3864779123,
				"z": 1.3357894864,
				"element": "N" 
			},
			{
				"x": 0.8371923377,
				"y": 1.0333957041,
				"z": 2.2786373952,
				"element": "O" 
			},
			{
				"x": 0.3450244707,
				"y": -0.0002554463,
				"z": 0.265152985,
				"element": "C" 
			},
			{
				"x": -0.9622642801,
				"y": 0.5028559032,
				"z": 0.2004404111,
				"element": "C" 
			},
			{
				"x": -1.4405155972,
				"y": 1.3550633348,
				"z": 1.0895471407,
				"element": "F" 
			},
			{
				"x": -1.8040413809,
				"y": 0.0743767959,
				"z": -0.8327515451,
				"element": "C" 
			},
			{
				"x": -1.3371721042,
				"y": -0.8391542675,
				"z": -1.781636669,
				"element": "C" 
			},
			{
				"x": -2.1377414539,
				"y": -1.2246806493,
				"z": -2.7700727528,
				"element": "F" 
			},
			{
				"x": -0.0338241932,
				"y": -1.3229239591,
				"z": -1.7294670401,
				"element": "C" 
			},
			{
				"x": 0.7983713125,
				"y": -0.8993637961,
				"z": -0.7032929964,
				"element": "C" 
			},
			{
				"x": -3.1786246717,
				"y": 0.5875833327,
				"z": -0.9192445048,
				"element": "N" 
			},
			{
				"x": -4.0628674155,
				"y": -0.2430697893,
				"z": -1.0963183041,
				"element": "O" 
			},
			{
				"x": -3.3254180609,
				"y": 1.799455378,
				"z": -0.8127076461,
				"element": "O" 
			},
			{
				"x": 0.3037958796,
				"y": -2.0178700074,
				"z": -2.4888805478,
				"element": "H" 
			},
			{
				"x": 1.8190594445,
				"y": -1.2518030893,
				"z": -0.62371069,
				"element": "H" 
			}
		],
		 "valence_orbital": [ 
			{
				"type": "occ",
				"energy": -0.33105,
				"method": "rhf"
			},
			{
				"type": "occ",
				"energy": -0.3261,
				"method": "rhf"
			},
			{
				"type": "occ",
				"energy": -0.31412,
				"method": "rhf"
			},
			{
				"type": "occ",
				"energy": -0.30637,
				"method": "rhf"
			},
			{
				"type": "occ",
				"energy": -0.3038,
				"method": "rhf"
			},
			{
				"type": "unocc",
				"energy": -0.11595,
				"method": "rhf"
			},
			{
				"type": "unocc",
				"energy": -0.10487,
				"method": "rhf"
			},
			{
				"type": "unocc",
				"energy": -0.0541,
				"method": "rhf"
			},
			{
				"type": "unocc",
				"energy": -0.02876,
				"method": "rhf"
			},
			{
				"type": "unocc",
				"energy": 0.01331,
				"method": "rhf"
			}
		],
		"cosmo_sigma_profile": { 
			"-0.025": 0.0,
			"-0.024": 0.0,
			"-0.023": 0.0,
			"-0.022": 0.0,
			"-0.021": 0.0,
			"-0.02": 0.0,
			"-0.019": 0.0,
			"-0.018": 0.0,
			"-0.017": 0.0,
			"-0.016": 0.0,
			"-0.015": 0.0,
			"-0.014": 0.0,
			"-0.013": 0.0,
			"-0.012": 0.0,
			"-0.011": 0.317173157593,
			"-0.01": 4.01399796088,
			"-0.009": 6.39307367096,
			"-0.008": 7.38681007248,
			"-0.007": 7.23287996492,
			"-0.006": 12.3972210322,
			"-0.005": 12.0127172343,
			"-0.004": 13.6294444956,
			"-0.003": 10.6448522118,
			"-0.002": 9.9553304711,
			"-0.001": 7.57161115432,
			"0.0": 6.59538954073,
			"0.001": 11.4205548543,
			"0.002": 11.8829507485,
			"0.003": 8.49208981607,
			"0.004": 7.8043627871,
			"0.005": 8.7695998785,
			"0.006": 19.1514905572,
			"0.007": 16.1336588776,
			"0.008": 7.94010212439,
			"0.009": 3.3910188778,
			"0.01": 0.15466690755,
			"0.011": 0.0,
			"0.012": 0.0,
			"0.013": 0.0,
			"0.014": 0.0,
			"0.015": 0.0,
			"0.016": 0.0,
			"0.017": 0.0,
			"0.018": 0.0,
			"0.019": 0.0,
			"0.02": 0.0,
			"0.021": 0.0,
			"0.022": 0.0,
			"0.023": 0.0,
			"0.024": 0.0,
			"0.025": 0.0
		}
	}
}
