{
	 "smiles": "CON=O", 
	 "Tm": 257.15, 
	 "num_atms": 7, 
	 "gaussian": { 
		 "optdone": 1, 
		 "sigma_profile": "yes", 
		 "theory": "DFT", 
		 "functional": "B3LYP", 
		 "basiset": "6-31G**", 
		 "properties": { 
			 "R2extent": 723.5067, 
			 "electric_dipole_moment_norm": 2.55200390674, 
			 "electric_quadrupole_moment_norm": 6.31521590763, 
			 "total_energy": -245.003202546, 
			 "HOMO_LUMO_gap": 0.19159, 
			 "cosmo_polarized_energy": -4.0, 
			 "cosmo_cavitation_energy": 11.57, 
			 "cosmo_dispersion_energy": -8.5, 
			 "cosmo_repulsion_energy": 0.82, 
			 "cosmo_total_nonelectrostatic_energy": 3.89, 
			 "SMD_solvation_energy": 4.73 
		},
		"coords": [
			{
				"x": 1.5789989286,
				"y": 0.307691367,
				"z": -0.2149282941,
				"element": "C" 
			},
			{
				"x": 1.9757491368,
				"y": 0.0700495777,
				"z": 1.1437039129,
				"element": "O" 
			},
			{
				"x": 0.8216106649,
				"y": -0.0807009258,
				"z": 1.9562396779,
				"element": "N" 
			},
			{
				"x": 1.1285515701,
				"y": -0.2786491926,
				"z": 3.0798826938,
				"element": "O" 
			},
			{
				"x": 1.003447183,
				"y": -0.5346738011,
				"z": -0.6099028642,
				"element": "H" 
			},
			{
				"x": 0.9924334615,
				"y": 1.227365673,
				"z": -0.2984713381,
				"element": "H" 
			},
			{
				"x": 2.508309055,
				"y": 0.4126173019,
				"z": -0.7757237881,
				"element": "H" 
			}
		],
		 "valence_orbital": [ 
			{
				"type": "occ",
				"energy": -0.44723,
				"method": "rhf"
			},
			{
				"type": "occ",
				"energy": -0.42334,
				"method": "rhf"
			},
			{
				"type": "occ",
				"energy": -0.3851,
				"method": "rhf"
			},
			{
				"type": "occ",
				"energy": -0.31327,
				"method": "rhf"
			},
			{
				"type": "occ",
				"energy": -0.26966,
				"method": "rhf"
			},
			{
				"type": "unocc",
				"energy": -0.07807,
				"method": "rhf"
			},
			{
				"type": "unocc",
				"energy": 0.0957,
				"method": "rhf"
			},
			{
				"type": "unocc",
				"energy": 0.11434,
				"method": "rhf"
			},
			{
				"type": "unocc",
				"energy": 0.13645,
				"method": "rhf"
			},
			{
				"type": "unocc",
				"energy": 0.15972,
				"method": "rhf"
			}
		],
		"cosmo_sigma_profile": { 
			"-0.025": 0.0,
			"-0.024": 0.0,
			"-0.023": 0.0,
			"-0.022": 0.0,
			"-0.021": 0.0,
			"-0.02": 0.0,
			"-0.019": 0.0,
			"-0.018": 0.0,
			"-0.017": 0.0,
			"-0.016": 0.0,
			"-0.015": 0.0,
			"-0.014": 0.0,
			"-0.013": 0.0,
			"-0.012": 0.0,
			"-0.011": 0.0,
			"-0.01": 0.0,
			"-0.009": 0.0,
			"-0.008": 0.0869828392591,
			"-0.007": 2.72293440855,
			"-0.006": 7.90069285894,
			"-0.005": 7.68792311664,
			"-0.004": 10.8063436682,
			"-0.003": 8.88293918337,
			"-0.002": 4.67954284892,
			"-0.001": 4.14589239312,
			"0.0": 3.82211673171,
			"0.001": 4.87407211763,
			"0.002": 4.06503084085,
			"0.003": 5.26687697405,
			"0.004": 5.78611427003,
			"0.005": 6.05157811249,
			"0.006": 6.53871681171,
			"0.007": 5.14365642264,
			"0.008": 2.03286387147,
			"0.009": 1.42789200593,
			"0.01": 0.105854730459,
			"0.011": 0.0,
			"0.012": 0.0,
			"0.013": 0.0,
			"0.014": 0.0,
			"0.015": 0.0,
			"0.016": 0.0,
			"0.017": 0.0,
			"0.018": 0.0,
			"0.019": 0.0,
			"0.02": 0.0,
			"0.021": 0.0,
			"0.022": 0.0,
			"0.023": 0.0,
			"0.024": 0.0,
			"0.025": 0.0
		}
	}
}
