{
	 "smiles": "FC(F)(Cl)CBr", 
	 "Tm": 197.15, 
	 "num_atms": 8, 
	 "gaussian": { 
		 "optdone": 1, 
		 "sigma_profile": "yes", 
		 "theory": "DFT", 
		 "functional": "B3LYP", 
		 "basiset": "6-31G**", 
		 "properties": { 
			 "R2extent": 3634.6486, 
			 "electric_dipole_moment_norm": 1.7634388138, 
			 "electric_quadrupole_moment_norm": 4.65317880271, 
			 "total_energy": -3308.68717143, 
			 "HOMO_LUMO_gap": 0.26893, 
			 "cosmo_polarized_energy": -4.63, 
			 "cosmo_cavitation_energy": 16.8, 
			 "cosmo_dispersion_energy": -12.75, 
			 "cosmo_repulsion_energy": 1.07, 
			 "cosmo_total_nonelectrostatic_energy": 5.12, 
			 "SMD_solvation_energy": 2.29 
		},
		"coords": [
			{
				"x": 1.0016564845,
				"y": -2.9630867886,
				"z": -0.1490997364,
				"element": "F" 
			},
			{
				"x": 1.7186704929,
				"y": -2.2653886047,
				"z": -1.0626623753,
				"element": "C" 
			},
			{
				"x": 2.1035927515,
				"y": -3.1217500277,
				"z": -2.0230210651,
				"element": "F" 
			},
			{
				"x": 3.1817926398,
				"y": -1.6182081688,
				"z": -0.244832933,
				"element": "Cl" 
			},
			{
				"x": 0.8062708697,
				"y": -1.1816330317,
				"z": -1.6185971508,
				"element": "C" 
			},
			{
				"x": 1.6099937858,
				"y": -0.1575329473,
				"z": -3.0710024658,
				"element": "Br" 
			},
			{
				"x": 0.5302954841,
				"y": -0.4868775377,
				"z": -0.8284737168,
				"element": "H" 
			},
			{
				"x": -0.0799725083,
				"y": -1.6727228935,
				"z": -2.0207105567,
				"element": "H" 
			}
		],
		 "valence_orbital": [ 
			{
				"type": "occ",
				"energy": -0.38286,
				"method": "rhf"
			},
			{
				"type": "occ",
				"energy": -0.33597,
				"method": "rhf"
			},
			{
				"type": "occ",
				"energy": -0.33489,
				"method": "rhf"
			},
			{
				"type": "occ",
				"energy": -0.29705,
				"method": "rhf"
			},
			{
				"type": "occ",
				"energy": -0.29359,
				"method": "rhf"
			},
			{
				"type": "unocc",
				"energy": -0.02466,
				"method": "rhf"
			},
			{
				"type": "unocc",
				"energy": 0.00272,
				"method": "rhf"
			},
			{
				"type": "unocc",
				"energy": 0.08877,
				"method": "rhf"
			},
			{
				"type": "unocc",
				"energy": 0.10982,
				"method": "rhf"
			},
			{
				"type": "unocc",
				"energy": 0.14142,
				"method": "rhf"
			}
		],
		"cosmo_sigma_profile": { 
			"-0.025": 0.0,
			"-0.024": 0.0,
			"-0.023": 0.0,
			"-0.022": 0.0,
			"-0.021": 0.0,
			"-0.02": 0.0,
			"-0.019": 0.0,
			"-0.018": 0.0,
			"-0.017": 0.0,
			"-0.016": 0.0,
			"-0.015": 0.0,
			"-0.014": 0.0,
			"-0.013": 0.0,
			"-0.012": 0.0,
			"-0.011": 0.521228043919,
			"-0.01": 4.81661311871,
			"-0.009": 3.36867997437,
			"-0.008": 4.3964932202,
			"-0.007": 3.86347337495,
			"-0.006": 3.35645676227,
			"-0.005": 2.53025858031,
			"-0.004": 3.9399467553,
			"-0.003": 5.88029248876,
			"-0.002": 5.48929947116,
			"-0.001": 7.27790906136,
			"0.0": 8.53110644128,
			"0.001": 13.1472747558,
			"0.002": 29.0490648536,
			"0.003": 22.3790680593,
			"0.004": 14.3188049098,
			"0.005": 6.65082103107,
			"0.006": 0.0538206728182,
			"0.007": 0.0,
			"0.008": 0.0,
			"0.009": 0.0,
			"0.01": 0.0,
			"0.011": 0.0,
			"0.012": 0.0,
			"0.013": 0.0,
			"0.014": 0.0,
			"0.015": 0.0,
			"0.016": 0.0,
			"0.017": 0.0,
			"0.018": 0.0,
			"0.019": 0.0,
			"0.02": 0.0,
			"0.021": 0.0,
			"0.022": 0.0,
			"0.023": 0.0,
			"0.024": 0.0,
			"0.025": 0.0
		}
	}
}
