{
	 "smiles": "C(=CC=CC1=CC=CC=C1)C=CC1=CC=CC=C1", 
	 "Tm": 474.15, 
	 "num_atms": 34, 
	 "gaussian": { 
		 "optdone": 1, 
		 "sigma_profile": "yes", 
		 "theory": "DFT", 
		 "functional": "B3LYP", 
		 "basiset": "6-31G**", 
		 "properties": { 
			 "R2extent": 5265.6794, 
			 "electric_dipole_moment_norm": 0.264975130909, 
			 "electric_quadrupole_moment_norm": 6.91792269327, 
			 "total_energy": -695.516321637, 
			 "HOMO_LUMO_gap": 0.13009, 
			 "cosmo_polarized_energy": -6.88, 
			 "cosmo_cavitation_energy": 37.87, 
			 "cosmo_dispersion_energy": -25.54, 
			 "cosmo_repulsion_energy": 1.95, 
			 "cosmo_total_nonelectrostatic_energy": 14.28, 
			 "SMD_solvation_energy": 6.2 
		},
		"coords": [
			{
				"x": -1.1711337036,
				"y": 1.3844806938,
				"z": -0.939579117,
				"element": "C" 
			},
			{
				"x": -1.0029019848,
				"y": 2.7138685617,
				"z": -1.1463815725,
				"element": "C" 
			},
			{
				"x": -0.4458737977,
				"y": 3.6871908322,
				"z": -0.2135876239,
				"element": "C" 
			},
			{
				"x": 0.5115242164,
				"y": 3.5680714621,
				"z": 0.7363182927,
				"element": "C" 
			},
			{
				"x": 1.4372075022,
				"y": 2.4617285101,
				"z": 1.0389871547,
				"element": "C" 
			},
			{
				"x": 1.9864613972,
				"y": 1.626266374,
				"z": 0.0474827299,
				"element": "C" 
			},
			{
				"x": 2.9070665711,
				"y": 0.6345067624,
				"z": 0.3785825454,
				"element": "C" 
			},
			{
				"x": 3.3022845558,
				"y": 0.449088902,
				"z": 1.707522325,
				"element": "C" 
			},
			{
				"x": 2.7791540987,
				"y": 1.2790792431,
				"z": 2.7000462091,
				"element": "C" 
			},
			{
				"x": 1.8678130925,
				"y": 2.2802216948,
				"z": 2.3661256318,
				"element": "C" 
			},
			{
				"x": -1.8264562987,
				"y": 0.5208615832,
				"z": -1.8952519683,
				"element": "C" 
			},
			{
				"x": -2.0230981159,
				"y": -0.8202484375,
				"z": -1.8257394975,
				"element": "C" 
			},
			{
				"x": -1.556590659,
				"y": -1.7879672669,
				"z": -0.824879159,
				"element": "C" 
			},
			{
				"x": -0.3490966746,
				"y": -1.6555297936,
				"z": -0.1108560561,
				"element": "C" 
			},
			{
				"x": 0.034380028,
				"y": -2.6096158217,
				"z": 0.8298225066,
				"element": "C" 
			},
			{
				"x": -0.7672718293,
				"y": -3.7267625687,
				"z": 1.0731658264,
				"element": "C" 
			},
			{
				"x": -1.9537659045,
				"y": -3.8898600853,
				"z": 0.3535652929,
				"element": "C" 
			},
			{
				"x": -2.3369073158,
				"y": -2.9377000753,
				"z": -0.5872363848,
				"element": "C" 
			},
			{
				"x": -0.8423467719,
				"y": 0.9543615886,
				"z": 0.0008443708,
				"element": "H" 
			},
			{
				"x": -1.4010698622,
				"y": 3.1346253603,
				"z": -2.0713148011,
				"element": "H" 
			},
			{
				"x": -0.9030914649,
				"y": 4.6745176524,
				"z": -0.2898305938,
				"element": "H" 
			},
			{
				"x": 0.6456939335,
				"y": 4.4369757868,
				"z": 1.3802876873,
				"element": "H" 
			},
			{
				"x": 1.6958597192,
				"y": 1.7693255902,
				"z": -0.9875934497,
				"element": "H" 
			},
			{
				"x": 3.3275260081,
				"y": 0.0102929381,
				"z": -0.4052094863,
				"element": "H" 
			},
			{
				"x": 4.0212134333,
				"y": -0.3243581725,
				"z": 1.9619688799,
				"element": "H" 
			},
			{
				"x": 3.0866469146,
				"y": 1.1535050453,
				"z": 3.7344439218,
				"element": "H" 
			},
			{
				"x": 1.4740381411,
				"y": 2.9309496852,
				"z": 3.1429589,
				"element": "H" 
			},
			{
				"x": -2.2510670212,
				"y": 1.0290587972,
				"z": -2.761169114,
				"element": "H" 
			},
			{
				"x": -2.6415931018,
				"y": -1.2550006162,
				"z": -2.6100386595,
				"element": "H" 
			},
			{
				"x": 0.3126277543,
				"y": -0.8217046656,
				"z": -0.3147831225,
				"element": "H" 
			},
			{
				"x": 0.9704027792,
				"y": -2.4801934482,
				"z": 1.3659742539,
				"element": "H" 
			},
			{
				"x": -0.4643246065,
				"y": -4.4699282221,
				"z": 1.805116382,
				"element": "H" 
			},
			{
				"x": -2.5794777508,
				"y": -4.7615590091,
				"z": 0.5240778905,
				"element": "H" 
			},
			{
				"x": -3.2622332821,
				"y": -3.0705488806,
				"z": -1.1423401947,
				"element": "H" 
			}
		],
		 "valence_orbital": [ 
			{
				"type": "occ",
				"energy": -0.26431,
				"method": "rhf"
			},
			{
				"type": "occ",
				"energy": -0.25037,
				"method": "rhf"
			},
			{
				"type": "occ",
				"energy": -0.24674,
				"method": "rhf"
			},
			{
				"type": "occ",
				"energy": -0.23278,
				"method": "rhf"
			},
			{
				"type": "occ",
				"energy": -0.19224,
				"method": "rhf"
			},
			{
				"type": "unocc",
				"energy": -0.06215,
				"method": "rhf"
			},
			{
				"type": "unocc",
				"energy": -0.01613,
				"method": "rhf"
			},
			{
				"type": "unocc",
				"energy": -0.00111,
				"method": "rhf"
			},
			{
				"type": "unocc",
				"energy": 0.00247,
				"method": "rhf"
			},
			{
				"type": "unocc",
				"energy": 0.01975,
				"method": "rhf"
			}
		],
		"cosmo_sigma_profile": { 
			"-0.025": 0.0,
			"-0.024": 0.0,
			"-0.023": 0.0,
			"-0.022": 0.0,
			"-0.021": 0.0,
			"-0.02": 0.0,
			"-0.019": 0.0,
			"-0.018": 0.0,
			"-0.017": 0.0,
			"-0.016": 0.0,
			"-0.015": 0.0,
			"-0.014": 0.0,
			"-0.013": 0.0,
			"-0.012": 0.0,
			"-0.011": 0.0,
			"-0.01": 0.0,
			"-0.009": 0.0,
			"-0.008": 0.0,
			"-0.007": 0.0,
			"-0.006": 7.11256703237,
			"-0.005": 30.5241868841,
			"-0.004": 31.0327325568,
			"-0.003": 27.3661061245,
			"-0.002": 23.1483872874,
			"-0.001": 23.355317668,
			"0.0": 21.3089639429,
			"0.001": 22.7914404626,
			"0.002": 23.4111952767,
			"0.003": 25.3634875773,
			"0.004": 28.0870882434,
			"0.005": 26.9876955362,
			"0.006": 12.7940956361,
			"0.007": 0.042009185701,
			"0.008": 0.0,
			"0.009": 0.0,
			"0.01": 0.0,
			"0.011": 0.0,
			"0.012": 0.0,
			"0.013": 0.0,
			"0.014": 0.0,
			"0.015": 0.0,
			"0.016": 0.0,
			"0.017": 0.0,
			"0.018": 0.0,
			"0.019": 0.0,
			"0.02": 0.0,
			"0.021": 0.0,
			"0.022": 0.0,
			"0.023": 0.0,
			"0.024": 0.0,
			"0.025": 0.0
		}
	}
}
