{
	 "smiles": "CN(C)C(=O)SC1=CC2=C(N=C1)N(C)C(=O)N(C)C2=O", 
	 "Tm": 444.15, 
	 "num_atms": 34, 
	 "gaussian": { 
		 "optdone": 1, 
		 "sigma_profile": "yes", 
		 "theory": "DFT", 
		 "functional": "B3LYP", 
		 "basiset": "6-31G**", 
		 "properties": { 
			 "R2extent": 8580.1365, 
			 "electric_dipole_moment_norm": 4.74827640623, 
			 "electric_quadrupole_moment_norm": 19.4941153593, 
			 "total_energy": -1308.64261563, 
			 "HOMO_LUMO_gap": 0.17223, 
			 "cosmo_polarized_energy": -15.94, 
			 "cosmo_cavitation_energy": 39.33, 
			 "cosmo_dispersion_energy": -28.99, 
			 "cosmo_repulsion_energy": 2.15, 
			 "cosmo_total_nonelectrostatic_energy": 12.49, 
			 "SMD_solvation_energy": 7.57 
		},
		"coords": [
			{
				"x": -0.1505210576,
				"y": -0.6986027781,
				"z": -5.427429004,
				"element": "C" 
			},
			{
				"x": -0.1808901319,
				"y": -1.7818251905,
				"z": -4.4551219768,
				"element": "N" 
			},
			{
				"x": -0.0652696961,
				"y": -3.1362886074,
				"z": -4.9900944579,
				"element": "C" 
			},
			{
				"x": -0.1063080897,
				"y": -1.6158896355,
				"z": -3.1034001812,
				"element": "C" 
			},
			{
				"x": -0.0512343295,
				"y": -2.5212129971,
				"z": -2.2930934983,
				"element": "O" 
			},
			{
				"x": -0.1291094416,
				"y": 0.1542590177,
				"z": -2.5571553325,
				"element": "S" 
			},
			{
				"x": 0.046492409,
				"y": -0.0887310624,
				"z": -0.8032739879,
				"element": "C" 
			},
			{
				"x": 1.1377549749,
				"y": 0.4432588657,
				"z": -0.1234295872,
				"element": "C" 
			},
			{
				"x": 1.2177043071,
				"y": 0.288485135,
				"z": 1.2612395354,
				"element": "C" 
			},
			{
				"x": 0.1936820971,
				"y": -0.4203743774,
				"z": 1.9133862684,
				"element": "C" 
			},
			{
				"x": -0.8607283575,
				"y": -0.9412842252,
				"z": 1.2682052007,
				"element": "N" 
			},
			{
				"x": -0.9265725774,
				"y": -0.7699782205,
				"z": -0.0498646207,
				"element": "C" 
			},
			{
				"x": 0.2465906402,
				"y": -0.6016517335,
				"z": 3.2852911065,
				"element": "N" 
			},
			{
				"x": -0.8247413143,
				"y": -1.3464217946,
				"z": 3.9576046404,
				"element": "C" 
			},
			{
				"x": 1.2918853097,
				"y": -0.1029844295,
				"z": 4.0652994638,
				"element": "C" 
			},
			{
				"x": 1.3406323942,
				"y": -0.2615418041,
				"z": 5.2750654967,
				"element": "O" 
			},
			{
				"x": 2.3012358548,
				"y": 0.5995017534,
				"z": 3.3939331618,
				"element": "N" 
			},
			{
				"x": 3.3864346215,
				"y": 1.1111891221,
				"z": 4.2391645218,
				"element": "C" 
			},
			{
				"x": 2.3506681507,
				"y": 0.843137417,
				"z": 2.0147091214,
				"element": "C" 
			},
			{
				"x": 3.2667474664,
				"y": 1.4677107153,
				"z": 1.497001721,
				"element": "O" 
			},
			{
				"x": -0.567771092,
				"y": 0.2184333761,
				"z": -5.0099025811,
				"element": "H" 
			},
			{
				"x": -0.7666066024,
				"y": -0.9800552899,
				"z": -6.2868020528,
				"element": "H" 
			},
			{
				"x": 0.8682195834,
				"y": -0.4947272245,
				"z": -5.7823585228,
				"element": "H" 
			},
			{
				"x": 0.8884341654,
				"y": -3.2664999279,
				"z": -5.5172521345,
				"element": "H" 
			},
			{
				"x": -0.1179488337,
				"y": -3.8431710507,
				"z": -4.1644397933,
				"element": "H" 
			},
			{
				"x": -0.8823746161,
				"y": -3.3297455546,
				"z": -5.6937424575,
				"element": "H" 
			},
			{
				"x": 1.9330871061,
				"y": 0.9755808438,
				"z": -0.633920028,
				"element": "H" 
			},
			{
				"x": -1.7921477457,
				"y": -1.1980562555,
				"z": -0.5472640964,
				"element": "H" 
			},
			{
				"x": -1.7821563669,
				"y": -0.8446549973,
				"z": 3.803537607,
				"element": "H" 
			},
			{
				"x": -0.578219674,
				"y": -1.3819473007,
				"z": 5.015628675,
				"element": "H" 
			},
			{
				"x": -0.893366069,
				"y": -2.3542050727,
				"z": 3.5437425257,
				"element": "H" 
			},
			{
				"x": 3.8771739472,
				"y": 0.2837842964,
				"z": 4.7553139087,
				"element": "H" 
			},
			{
				"x": 4.0872240347,
				"y": 1.6270290504,
				"z": 3.587081841,
				"element": "H" 
			},
			{
				"x": 2.983098933,
				"y": 1.7942799371,
				"z": 4.9892395175,
				"element": "H" 
			}
		],
		 "valence_orbital": [ 
			{
				"type": "occ",
				"energy": -0.26957,
				"method": "rhf"
			},
			{
				"type": "occ",
				"energy": -0.26743,
				"method": "rhf"
			},
			{
				"type": "occ",
				"energy": -0.25948,
				"method": "rhf"
			},
			{
				"type": "occ",
				"energy": -0.25637,
				"method": "rhf"
			},
			{
				"type": "occ",
				"energy": -0.23306,
				"method": "rhf"
			},
			{
				"type": "unocc",
				"energy": -0.06083,
				"method": "rhf"
			},
			{
				"type": "unocc",
				"energy": -0.03746,
				"method": "rhf"
			},
			{
				"type": "unocc",
				"energy": 0.01561,
				"method": "rhf"
			},
			{
				"type": "unocc",
				"energy": 0.01919,
				"method": "rhf"
			},
			{
				"type": "unocc",
				"energy": 0.02484,
				"method": "rhf"
			}
		],
		"cosmo_sigma_profile": { 
			"-0.025": 0.0,
			"-0.024": 0.0,
			"-0.023": 0.0,
			"-0.022": 0.0,
			"-0.021": 0.0,
			"-0.02": 0.0,
			"-0.019": 0.0,
			"-0.018": 0.0,
			"-0.017": 0.0,
			"-0.016": 0.0,
			"-0.015": 0.0,
			"-0.014": 0.0,
			"-0.013": 0.0,
			"-0.012": 0.0,
			"-0.011": 0.0,
			"-0.01": 0.0,
			"-0.009": 0.0,
			"-0.008": 1.1288974551,
			"-0.007": 4.26062991701,
			"-0.006": 15.0191573124,
			"-0.005": 28.8638235897,
			"-0.004": 33.915770536,
			"-0.003": 44.4198254648,
			"-0.002": 37.7153042687,
			"-0.001": 24.3641322803,
			"0.0": 17.7030459498,
			"0.001": 13.8131918918,
			"0.002": 12.9668273292,
			"0.003": 10.9927725666,
			"0.004": 8.82895505697,
			"0.005": 7.80170859232,
			"0.006": 9.29070330196,
			"0.007": 5.67859785412,
			"0.008": 5.54191501713,
			"0.009": 5.50498409739,
			"0.01": 6.30694083184,
			"0.011": 8.5883303052,
			"0.012": 11.8737137874,
			"0.013": 0.616180528257,
			"0.014": 0.0,
			"0.015": 0.0,
			"0.016": 0.0,
			"0.017": 0.0,
			"0.018": 0.0,
			"0.019": 0.0,
			"0.02": 0.0,
			"0.021": 0.0,
			"0.022": 0.0,
			"0.023": 0.0,
			"0.024": 0.0,
			"0.025": 0.0
		}
	}
}
