{
	 "smiles": "CN(C)C(=O)N(C)C", 
	 "Tm": 272.05, 
	 "num_atms": 20, 
	 "gaussian": { 
		 "optdone": 1, 
		 "sigma_profile": "yes", 
		 "theory": "DFT", 
		 "functional": "B3LYP", 
		 "basiset": "6-31G**", 
		 "properties": { 
			 "R2extent": 1151.0783, 
			 "electric_dipole_moment_norm": 3.19403703329, 
			 "electric_quadrupole_moment_norm": 4.51402971966, 
			 "total_energy": -382.497969915, 
			 "HOMO_LUMO_gap": 0.27246, 
			 "cosmo_polarized_energy": -8.7, 
			 "cosmo_cavitation_energy": 21.86, 
			 "cosmo_dispersion_energy": -15.97, 
			 "cosmo_repulsion_energy": 1.33, 
			 "cosmo_total_nonelectrostatic_energy": 7.21, 
			 "SMD_solvation_energy": 4.53 
		},
		"coords": [
			{
				"x": 1.9362637371,
				"y": -1.2111844775,
				"z": -0.1559054921,
				"element": "C" 
			},
			{
				"x": 1.2625673002,
				"y": 0.0739742564,
				"z": -0.2872785332,
				"element": "N" 
			},
			{
				"x": 2.1588072683,
				"y": 1.2257192485,
				"z": -0.2433918568,
				"element": "C" 
			},
			{
				"x": -0.0323381493,
				"y": 0.1362864806,
				"z": 0.2286432464,
				"element": "C" 
			},
			{
				"x": -0.5225911047,
				"y": -0.7838334879,
				"z": 0.8775610559,
				"element": "O" 
			},
			{
				"x": -0.7340846558,
				"y": 1.3118526934,
				"z": -0.0405225798,
				"element": "N" 
			},
			{
				"x": -0.6741722219,
				"y": 1.9547044798,
				"z": -1.3500520848,
				"element": "C" 
			},
			{
				"x": -2.01731279,
				"y": 1.4530591876,
				"z": 0.63484647,
				"element": "C" 
			},
			{
				"x": 2.4134518404,
				"y": -1.329979816,
				"z": 0.828146974,
				"element": "H" 
			},
			{
				"x": 1.2126341344,
				"y": -2.0157006303,
				"z": -0.2793601379,
				"element": "H" 
			},
			{
				"x": 2.7085072841,
				"y": -1.2907856137,
				"z": -0.9285060828,
				"element": "H" 
			},
			{
				"x": 1.5966915265,
				"y": 2.139328944,
				"z": -0.0554888568,
				"element": "H" 
			},
			{
				"x": 2.8940870481,
				"y": 1.1099462392,
				"z": 0.5667614443,
				"element": "H" 
			},
			{
				"x": 2.7105191645,
				"y": 1.3353748806,
				"z": -1.1854338084,
				"element": "H" 
			},
			{
				"x": -0.5878851348,
				"y": 3.0442452051,
				"z": -1.2536210175,
				"element": "H" 
			},
			{
				"x": -1.5857677998,
				"y": 1.7381171468,
				"z": -1.9266659551,
				"element": "H" 
			},
			{
				"x": 0.1765652419,
				"y": 1.5825547074,
				"z": -1.9190026845,
				"element": "H" 
			},
			{
				"x": -2.8287133134,
				"y": 0.9450429074,
				"z": 0.0928758437,
				"element": "H" 
			},
			{
				"x": -2.2648825597,
				"y": 2.5170788954,
				"z": 0.7135107787,
				"element": "H" 
			},
			{
				"x": -1.9536468159,
				"y": 1.0187987531,
				"z": 1.631583277,
				"element": "H" 
			}
		],
		 "valence_orbital": [ 
			{
				"type": "occ",
				"energy": -0.36874,
				"method": "rhf"
			},
			{
				"type": "occ",
				"energy": -0.36005,
				"method": "rhf"
			},
			{
				"type": "occ",
				"energy": -0.26078,
				"method": "rhf"
			},
			{
				"type": "occ",
				"energy": -0.22617,
				"method": "rhf"
			},
			{
				"type": "occ",
				"energy": -0.22588,
				"method": "rhf"
			},
			{
				"type": "unocc",
				"energy": 0.04658,
				"method": "rhf"
			},
			{
				"type": "unocc",
				"energy": 0.08407,
				"method": "rhf"
			},
			{
				"type": "unocc",
				"energy": 0.11151,
				"method": "rhf"
			},
			{
				"type": "unocc",
				"energy": 0.13504,
				"method": "rhf"
			},
			{
				"type": "unocc",
				"energy": 0.1391,
				"method": "rhf"
			}
		],
		"cosmo_sigma_profile": { 
			"-0.025": 0.0,
			"-0.024": 0.0,
			"-0.023": 0.0,
			"-0.022": 0.0,
			"-0.021": 0.0,
			"-0.02": 0.0,
			"-0.019": 0.0,
			"-0.018": 0.0,
			"-0.017": 0.0,
			"-0.016": 0.0,
			"-0.015": 0.0,
			"-0.014": 0.0,
			"-0.013": 0.0,
			"-0.012": 0.0,
			"-0.011": 0.0,
			"-0.01": 0.0,
			"-0.009": 0.0,
			"-0.008": 0.0,
			"-0.007": 0.0,
			"-0.006": 0.0,
			"-0.005": 2.7772399391,
			"-0.004": 21.5601719774,
			"-0.003": 31.9794249875,
			"-0.002": 32.1265334173,
			"-0.001": 29.1799904539,
			"0.0": 10.7032580012,
			"0.001": 5.9421751107,
			"0.002": 4.9407561274,
			"0.003": 3.80579979466,
			"0.004": 3.29087388281,
			"0.005": 3.18127223455,
			"0.006": 2.42597642091,
			"0.007": 1.43750907754,
			"0.008": 1.09900947363,
			"0.009": 1.31781019118,
			"0.01": 1.65957925462,
			"0.011": 1.51008057078,
			"0.012": 1.96763667296,
			"0.013": 1.42387231679,
			"0.014": 4.62155054377,
			"0.015": 3.19390882147,
			"0.016": 0.057835138886,
			"0.017": 0.0,
			"0.018": 0.0,
			"0.019": 0.0,
			"0.02": 0.0,
			"0.021": 0.0,
			"0.022": 0.0,
			"0.023": 0.0,
			"0.024": 0.0,
			"0.025": 0.0
		}
	}
}
