{
	 "smiles": "COC1=CC=C(C=C1)C1=NC(C=O)=CS1", 
	 "Tm": 371.15, 
	 "num_atms": 24, 
	 "gaussian": { 
		 "optdone": 1, 
		 "sigma_profile": "yes", 
		 "theory": "DFT", 
		 "functional": "B3LYP", 
		 "basiset": "6-31G**", 
		 "properties": { 
			 "R2extent": 5893.6832, 
			 "electric_dipole_moment_norm": 3.56163271969, 
			 "electric_quadrupole_moment_norm": 24.1000750806, 
			 "total_energy": -1027.95280389, 
			 "HOMO_LUMO_gap": 0.15572, 
			 "cosmo_polarized_energy": -14.79, 
			 "cosmo_cavitation_energy": 30.86, 
			 "cosmo_dispersion_energy": -23.09, 
			 "cosmo_repulsion_energy": 1.74, 
			 "cosmo_total_nonelectrostatic_energy": 9.51, 
			 "SMD_solvation_energy": 5.86 
		},
		"coords": [
			{
				"x": 0.5169921961,
				"y": -0.1902544199,
				"z": -4.6009467956,
				"element": "C" 
			},
			{
				"x": 1.4550024554,
				"y": 0.5607033803,
				"z": -3.8418297953,
				"element": "O" 
			},
			{
				"x": 1.4520359141,
				"y": 0.4241599143,
				"z": -2.4894832115,
				"element": "C" 
			},
			{
				"x": 0.5839749112,
				"y": -0.4120348185,
				"z": -1.7724278962,
				"element": "C" 
			},
			{
				"x": 0.6716986246,
				"y": -0.4720490065,
				"z": -0.3846594261,
				"element": "C" 
			},
			{
				"x": 1.617059235,
				"y": 0.2918036429,
				"z": 0.3177329223,
				"element": "C" 
			},
			{
				"x": 2.4808172421,
				"y": 1.1258211218,
				"z": -0.4161919067,
				"element": "C" 
			},
			{
				"x": 2.4023641836,
				"y": 1.1933743113,
				"z": -1.7976945891,
				"element": "C" 
			},
			{
				"x": 1.6673180989,
				"y": 0.1919859381,
				"z": 1.777791747,
				"element": "C" 
			},
			{
				"x": 0.8862587431,
				"y": -0.5648048311,
				"z": 2.4940873474,
				"element": "N" 
			},
			{
				"x": 1.1581359287,
				"y": -0.4582483983,
				"z": 3.8379866213,
				"element": "C" 
			},
			{
				"x": 0.4010597499,
				"y": -1.2229408351,
				"z": 4.8493638182,
				"element": "C" 
			},
			{
				"x": -0.5039749456,
				"y": -1.9942967963,
				"z": 4.6076943829,
				"element": "O" 
			},
			{
				"x": 2.176160028,
				"y": 0.4032008623,
				"z": 4.1717529208,
				"element": "C" 
			},
			{
				"x": 2.8378840146,
				"y": 1.1249542171,
				"z": 2.7549908765,
				"element": "S" 
			},
			{
				"x": 0.6973536299,
				"y": 0.0720070714,
				"z": -5.6442229083,
				"element": "H" 
			},
			{
				"x": -0.5155717163,
				"y": 0.0690572339,
				"z": -4.3361540587,
				"element": "H" 
			},
			{
				"x": 0.6633287162,
				"y": -1.2694560821,
				"z": -4.4688368691,
				"element": "H" 
			},
			{
				"x": -0.1576317603,
				"y": -1.0152942364,
				"z": -2.2820609468,
				"element": "H" 
			},
			{
				"x": 0.0041958052,
				"y": -1.1160171857,
				"z": 0.1773743859,
				"element": "H" 
			},
			{
				"x": 3.224618859,
				"y": 1.7310317863,
				"z": 0.0950866208,
				"element": "H" 
			},
			{
				"x": 3.0652208802,
				"y": 1.8342665685,
				"z": -2.3690682465,
				"element": "H" 
			},
			{
				"x": 0.7368052185,
				"y": -1.0307018202,
				"z": 5.8930728108,
				"element": "H" 
			},
			{
				"x": 2.5543939878,
				"y": 0.6384323819,
				"z": 5.157142196,
				"element": "H" 
			}
		],
		 "valence_orbital": [ 
			{
				"type": "occ",
				"energy": -0.28068,
				"method": "rhf"
			},
			{
				"type": "occ",
				"energy": -0.27171,
				"method": "rhf"
			},
			{
				"type": "occ",
				"energy": -0.26326,
				"method": "rhf"
			},
			{
				"type": "occ",
				"energy": -0.25136,
				"method": "rhf"
			},
			{
				"type": "occ",
				"energy": -0.21753,
				"method": "rhf"
			},
			{
				"type": "unocc",
				"energy": -0.06181,
				"method": "rhf"
			},
			{
				"type": "unocc",
				"energy": -0.04459,
				"method": "rhf"
			},
			{
				"type": "unocc",
				"energy": -0.01198,
				"method": "rhf"
			},
			{
				"type": "unocc",
				"energy": 0.00872,
				"method": "rhf"
			},
			{
				"type": "unocc",
				"energy": 0.04052,
				"method": "rhf"
			}
		],
		"cosmo_sigma_profile": { 
			"-0.025": 0.0,
			"-0.024": 0.0,
			"-0.023": 0.0,
			"-0.022": 0.0,
			"-0.021": 0.0,
			"-0.02": 0.0,
			"-0.019": 0.0,
			"-0.018": 0.0,
			"-0.017": 0.0,
			"-0.016": 0.0,
			"-0.015": 0.0,
			"-0.014": 0.0,
			"-0.013": 0.0,
			"-0.012": 0.0,
			"-0.011": 0.953277930748,
			"-0.01": 2.78556791573,
			"-0.009": 2.70582598032,
			"-0.008": 3.23067397084,
			"-0.007": 8.3675889727,
			"-0.006": 17.3002918207,
			"-0.005": 19.535979486,
			"-0.004": 18.5890763791,
			"-0.003": 17.0614741902,
			"-0.002": 15.1859029022,
			"-0.001": 17.2155693659,
			"0.0": 20.2831621991,
			"0.001": 18.3064188344,
			"0.002": 18.2404218487,
			"0.003": 17.05454815,
			"0.004": 14.5791357052,
			"0.005": 5.68539287705,
			"0.006": 3.01191690007,
			"0.007": 3.37993535311,
			"0.008": 4.70626451072,
			"0.009": 4.24764907921,
			"0.01": 4.01921918983,
			"0.011": 4.92585707872,
			"0.012": 4.81542290379,
			"0.013": 2.19843514387,
			"0.014": 1.50712758379,
			"0.015": 0.454514240054,
			"0.016": 0.0,
			"0.017": 0.0,
			"0.018": 0.0,
			"0.019": 0.0,
			"0.02": 0.0,
			"0.021": 0.0,
			"0.022": 0.0,
			"0.023": 0.0,
			"0.024": 0.0,
			"0.025": 0.0
		}
	}
}
