{
	 "smiles": "CC(C)CC(=O)NNC(=O)C(C)Cl", 
	 "Tm": 448.15, 
	 "num_atms": 28, 
	 "gaussian": { 
		 "optdone": 1, 
		 "sigma_profile": "yes", 
		 "theory": "DFT", 
		 "functional": "B3LYP", 
		 "basiset": "6-31G**", 
		 "properties": { 
			 "R2extent": 5982.2389, 
			 "electric_dipole_moment_norm": 1.93229306783, 
			 "electric_quadrupole_moment_norm": 12.6414660095, 
			 "total_energy": -1034.05382776, 
			 "HOMO_LUMO_gap": 0.22849, 
			 "cosmo_polarized_energy": -12.81, 
			 "cosmo_cavitation_energy": 32.79, 
			 "cosmo_dispersion_energy": -23.46, 
			 "cosmo_repulsion_energy": 1.91, 
			 "cosmo_total_nonelectrostatic_energy": 11.24, 
			 "SMD_solvation_energy": 6.56 
		},
		"coords": [
			{
				"x": -2.0416100351,
				"y": -2.858588207,
				"z": -0.4772981253,
				"element": "C" 
			},
			{
				"x": -1.6470966147,
				"y": -1.5497099518,
				"z": -1.1752973948,
				"element": "C" 
			},
			{
				"x": -2.8214943722,
				"y": -0.9781695476,
				"z": -1.982954909,
				"element": "C" 
			},
			{
				"x": -1.133504276,
				"y": -0.4840739754,
				"z": -0.17212608,
				"element": "C" 
			},
			{
				"x": 0.1886003569,
				"y": -0.8503299269,
				"z": 0.4741348756,
				"element": "C" 
			},
			{
				"x": 0.3500242466,
				"y": -1.7696665485,
				"z": 1.2761195543,
				"element": "O" 
			},
			{
				"x": 1.2491500398,
				"y": -0.0856470362,
				"z": 0.085032393,
				"element": "N" 
			},
			{
				"x": 2.4958804746,
				"y": -0.3711170172,
				"z": 0.6112131225,
				"element": "N" 
			},
			{
				"x": 3.5375888626,
				"y": 0.3891719896,
				"z": 0.2235287752,
				"element": "C" 
			},
			{
				"x": 3.4068256361,
				"y": 1.3213255451,
				"z": -0.5721671101,
				"element": "O" 
			},
			{
				"x": 4.9224523389,
				"y": 0.0809962946,
				"z": 0.7960140371,
				"element": "C" 
			},
			{
				"x": 5.5067956565,
				"y": 1.3008099463,
				"z": 1.5018085189,
				"element": "C" 
			},
			{
				"x": 4.9444281476,
				"y": -1.3703869732,
				"z": 1.9114848288,
				"element": "Cl" 
			},
			{
				"x": -1.2200434098,
				"y": -3.2570129713,
				"z": 0.1209824164,
				"element": "H" 
			},
			{
				"x": -2.893432299,
				"y": -2.6940808293,
				"z": 0.1940623746,
				"element": "H" 
			},
			{
				"x": -2.3397919041,
				"y": -3.6113561421,
				"z": -1.2149494046,
				"element": "H" 
			},
			{
				"x": -0.8272851209,
				"y": -1.7644363657,
				"z": -1.8760752553,
				"element": "H" 
			},
			{
				"x": -3.6576470255,
				"y": -0.7147919245,
				"z": -1.3239429787,
				"element": "H" 
			},
			{
				"x": -3.1896946238,
				"y": -1.7130926006,
				"z": -2.7062731513,
				"element": "H" 
			},
			{
				"x": -2.5341386382,
				"y": -0.0773005972,
				"z": -2.5364493122,
				"element": "H" 
			},
			{
				"x": -1.8671912244,
				"y": -0.3619549577,
				"z": 0.6335228768,
				"element": "H" 
			},
			{
				"x": -1.0454035995,
				"y": 0.4838621117,
				"z": -0.6802335524,
				"element": "H" 
			},
			{
				"x": 1.2512279935,
				"y": 0.7000569976,
				"z": -0.5521622909,
				"element": "H" 
			},
			{
				"x": 2.5090051014,
				"y": -1.1574541799,
				"z": 1.2505175288,
				"element": "H" 
			},
			{
				"x": 5.5516976366,
				"y": -0.2075551406,
				"z": -0.0487234572,
				"element": "H" 
			},
			{
				"x": 4.9229399635,
				"y": 1.5525430901,
				"z": 2.3910845103,
				"element": "H" 
			},
			{
				"x": 5.4766224283,
				"y": 2.1455284695,
				"z": 0.8089648552,
				"element": "H" 
			},
			{
				"x": 6.54009426,
				"y": 1.1124304481,
				"z": 1.7999823543,
				"element": "H" 
			}
		],
		 "valence_orbital": [ 
			{
				"type": "occ",
				"energy": -0.32137,
				"method": "rhf"
			},
			{
				"type": "occ",
				"energy": -0.30868,
				"method": "rhf"
			},
			{
				"type": "occ",
				"energy": -0.27664,
				"method": "rhf"
			},
			{
				"type": "occ",
				"energy": -0.26203,
				"method": "rhf"
			},
			{
				"type": "occ",
				"energy": -0.23491,
				"method": "rhf"
			},
			{
				"type": "unocc",
				"energy": -0.00642,
				"method": "rhf"
			},
			{
				"type": "unocc",
				"energy": 0.00822,
				"method": "rhf"
			},
			{
				"type": "unocc",
				"energy": 0.03306,
				"method": "rhf"
			},
			{
				"type": "unocc",
				"energy": 0.07378,
				"method": "rhf"
			},
			{
				"type": "unocc",
				"energy": 0.09748,
				"method": "rhf"
			}
		],
		"cosmo_sigma_profile": { 
			"-0.025": 0.0,
			"-0.024": 0.0,
			"-0.023": 0.0,
			"-0.022": 0.0,
			"-0.021": 0.0,
			"-0.02": 0.0,
			"-0.019": 0.0,
			"-0.018": 0.0,
			"-0.017": 0.0,
			"-0.016": 0.0,
			"-0.015": 0.109151360523,
			"-0.014": 0.75579096639,
			"-0.013": 1.18216233579,
			"-0.012": 0.899602647152,
			"-0.011": 1.01732468936,
			"-0.01": 1.14733203382,
			"-0.009": 2.54994995778,
			"-0.008": 2.91547387272,
			"-0.007": 4.01793867937,
			"-0.006": 7.07195805961,
			"-0.005": 12.109686726,
			"-0.004": 15.9342547973,
			"-0.003": 28.2607659412,
			"-0.002": 29.7928602314,
			"-0.001": 29.7593696222,
			"0.0": 27.897087055,
			"0.001": 22.7212757991,
			"0.002": 13.7583625732,
			"0.003": 8.3913237461,
			"0.004": 6.33575549429,
			"0.005": 9.51461015736,
			"0.006": 4.81411482059,
			"0.007": 2.72886660572,
			"0.008": 2.99238222543,
			"0.009": 2.48339208732,
			"0.01": 2.88302217417,
			"0.011": 3.75244918407,
			"0.012": 5.8848747855,
			"0.013": 5.33150653872,
			"0.014": 1.31164907331,
			"0.015": 0.0277119414628,
			"0.016": 0.0,
			"0.017": 0.0,
			"0.018": 0.0,
			"0.019": 0.0,
			"0.02": 0.0,
			"0.021": 0.0,
			"0.022": 0.0,
			"0.023": 0.0,
			"0.024": 0.0,
			"0.025": 0.0
		}
	}
}
