{
	 "smiles": "O=C(OCC1=CC=CC=C1)C1=CC=CN=C1", 
	 "Tm": 295.15, 
	 "num_atms": 27, 
	 "gaussian": { 
		 "optdone": 1, 
		 "sigma_profile": "yes", 
		 "theory": "DFT", 
		 "functional": "B3LYP", 
		 "basiset": "6-31G**", 
		 "properties": { 
			 "R2extent": 4861.2161, 
			 "electric_dipole_moment_norm": 3.52133594535, 
			 "electric_quadrupole_moment_norm": 6.51412704205, 
			 "total_energy": -707.218812224, 
			 "HOMO_LUMO_gap": 0.19485, 
			 "cosmo_polarized_energy": -10.32, 
			 "cosmo_cavitation_energy": 32.0, 
			 "cosmo_dispersion_energy": -23.05, 
			 "cosmo_repulsion_energy": 1.79, 
			 "cosmo_total_nonelectrostatic_energy": 10.73, 
			 "SMD_solvation_energy": 4.9 
		},
		"coords": [
			{
				"x": 1.0617645655,
				"y": 1.3374492467,
				"z": 0.3718544131,
				"element": "O" 
			},
			{
				"x": -0.0183854291,
				"y": 0.7782203307,
				"z": 0.3374835265,
				"element": "C" 
			},
			{
				"x": -0.9431380241,
				"y": 0.9721695128,
				"z": -0.6279384652,
				"element": "O" 
			},
			{
				"x": -0.5964481815,
				"y": 1.9057086446,
				"z": -1.6917904033,
				"element": "C" 
			},
			{
				"x": 0.0381347689,
				"y": 1.2048571773,
				"z": -2.8667863823,
				"element": "C" 
			},
			{
				"x": 1.4231406875,
				"y": 0.9896940619,
				"z": -2.9061865788,
				"element": "C" 
			},
			{
				"x": 2.002886258,
				"y": 0.3323429309,
				"z": -3.9913166482,
				"element": "C" 
			},
			{
				"x": 1.2068586111,
				"y": -0.1157809481,
				"z": -5.0480909879,
				"element": "C" 
			},
			{
				"x": -0.1728567831,
				"y": 0.095150887,
				"z": -5.0167778884,
				"element": "C" 
			},
			{
				"x": -0.7521094285,
				"y": 0.7520128647,
				"z": -3.9305247701,
				"element": "C" 
			},
			{
				"x": -0.4807309919,
				"y": -0.1973167019,
				"z": 1.3641862179,
				"element": "C" 
			},
			{
				"x": -1.7174898358,
				"y": -0.849180707,
				"z": 1.3014929112,
				"element": "C" 
			},
			{
				"x": -2.0481205966,
				"y": -1.7431183578,
				"z": 2.3156891276,
				"element": "C" 
			},
			{
				"x": -1.1316506063,
				"y": -1.9484189193,
				"z": 3.349447591,
				"element": "C" 
			},
			{
				"x": 0.0569413239,
				"y": -1.3337501249,
				"z": 3.4259089235,
				"element": "N" 
			},
			{
				"x": 0.3650414941,
				"y": -0.4785662931,
				"z": 2.4470354245,
				"element": "C" 
			},
			{
				"x": 0.0644579826,
				"y": 2.6681171618,
				"z": -1.2761349572,
				"element": "H" 
			},
			{
				"x": -1.550842287,
				"y": 2.3562224789,
				"z": -1.9717381987,
				"element": "H" 
			},
			{
				"x": 2.0357627635,
				"y": 1.3326500685,
				"z": -2.0781627457,
				"element": "H" 
			},
			{
				"x": 3.0770541759,
				"y": 0.1721993559,
				"z": -4.0135822827,
				"element": "H" 
			},
			{
				"x": 1.6604668404,
				"y": -0.6246860688,
				"z": -5.8938773433,
				"element": "H" 
			},
			{
				"x": -0.796125328,
				"y": -0.2482338869,
				"z": -5.8375125024,
				"element": "H" 
			},
			{
				"x": -1.8265182859,
				"y": 0.9185451719,
				"z": -3.9086987223,
				"element": "H" 
			},
			{
				"x": -2.3924637835,
				"y": -0.6548265864,
				"z": 0.4756754694,
				"element": "H" 
			},
			{
				"x": -2.995335289,
				"y": -2.2729075834,
				"z": 2.3098163194,
				"element": "H" 
			},
			{
				"x": -1.3628731389,
				"y": -2.6415193528,
				"z": 4.1566279982,
				"element": "H" 
			},
			{
				"x": 1.3289785179,
				"y": 0.0200656369,
				"z": 2.507200954,
				"element": "H" 
			}
		],
		 "valence_orbital": [ 
			{
				"type": "occ",
				"energy": -0.28425,
				"method": "rhf"
			},
			{
				"type": "occ",
				"energy": -0.27045,
				"method": "rhf"
			},
			{
				"type": "occ",
				"energy": -0.25975,
				"method": "rhf"
			},
			{
				"type": "occ",
				"energy": -0.25418,
				"method": "rhf"
			},
			{
				"type": "occ",
				"energy": -0.25117,
				"method": "rhf"
			},
			{
				"type": "unocc",
				"energy": -0.05632,
				"method": "rhf"
			},
			{
				"type": "unocc",
				"energy": -0.02735,
				"method": "rhf"
			},
			{
				"type": "unocc",
				"energy": -0.01409,
				"method": "rhf"
			},
			{
				"type": "unocc",
				"energy": -0.00527,
				"method": "rhf"
			},
			{
				"type": "unocc",
				"energy": 0.04642,
				"method": "rhf"
			}
		],
		"cosmo_sigma_profile": { 
			"-0.025": 0.0,
			"-0.024": 0.0,
			"-0.023": 0.0,
			"-0.022": 0.0,
			"-0.021": 0.0,
			"-0.02": 0.0,
			"-0.019": 0.0,
			"-0.018": 0.0,
			"-0.017": 0.0,
			"-0.016": 0.0,
			"-0.015": 0.0,
			"-0.014": 0.0,
			"-0.013": 0.0,
			"-0.012": 0.0,
			"-0.011": 0.0,
			"-0.01": 0.0,
			"-0.009": 0.0,
			"-0.008": 1.09582697598,
			"-0.007": 8.43410283742,
			"-0.006": 16.8173353602,
			"-0.005": 19.3672034194,
			"-0.004": 20.8136302487,
			"-0.003": 20.6014508267,
			"-0.002": 18.3870712353,
			"-0.001": 20.2061236089,
			"0.0": 22.631927657,
			"0.001": 22.764313432,
			"0.002": 15.8660304679,
			"0.003": 15.3382012919,
			"0.004": 15.0449155615,
			"0.005": 14.207495474,
			"0.006": 5.5546472865,
			"0.007": 2.97329451892,
			"0.008": 3.17356884965,
			"0.009": 2.5155986195,
			"0.01": 1.830317195,
			"0.011": 4.55511414838,
			"0.012": 1.90644012378,
			"0.013": 0.675255631821,
			"0.014": 0.819520065845,
			"0.015": 0.917485992187,
			"0.016": 0.561650128463,
			"0.017": 0.00794076517623,
			"0.018": 0.0,
			"0.019": 0.0,
			"0.02": 0.0,
			"0.021": 0.0,
			"0.022": 0.0,
			"0.023": 0.0,
			"0.024": 0.0,
			"0.025": 0.0
		}
	}
}
