{
	 "smiles": "ClC1=CC2=C(C=C1)C(Cl)=NC=N2", 
	 "Tm": 410.15, 
	 "num_atms": 16, 
	 "gaussian": { 
		 "optdone": 1, 
		 "sigma_profile": "yes", 
		 "theory": "DFT", 
		 "functional": "B3LYP", 
		 "basiset": "6-31G**", 
		 "properties": { 
			 "R2extent": 3932.3201, 
			 "electric_dipole_moment_norm": 1.55745261886, 
			 "electric_quadrupole_moment_norm": 9.67125257968, 
			 "total_energy": -1337.15263534, 
			 "HOMO_LUMO_gap": 0.17817, 
			 "cosmo_polarized_energy": -6.52, 
			 "cosmo_cavitation_energy": 24.33, 
			 "cosmo_dispersion_energy": -18.66, 
			 "cosmo_repulsion_energy": 1.46, 
			 "cosmo_total_nonelectrostatic_energy": 7.12, 
			 "SMD_solvation_energy": 0.68 
		},
		"coords": [
			{
				"x": 3.3925637942,
				"y": 0.9181235413,
				"z": 3.0709702812,
				"element": "Cl" 
			},
			{
				"x": 2.6495347587,
				"y": 0.5623503503,
				"z": 1.5255714705,
				"element": "C" 
			},
			{
				"x": 1.8687325424,
				"y": -0.5618099126,
				"z": 1.3853482202,
				"element": "C" 
			},
			{
				"x": 1.2731579864,
				"y": -0.8381598804,
				"z": 0.1292570301,
				"element": "C" 
			},
			{
				"x": 1.4959973809,
				"y": 0.0559328842,
				"z": -0.9642342018,
				"element": "C" 
			},
			{
				"x": 2.3065511014,
				"y": 1.2019217563,
				"z": -0.7772552638,
				"element": "C" 
			},
			{
				"x": 2.8769352669,
				"y": 1.4547365478,
				"z": 0.4491453855,
				"element": "C" 
			},
			{
				"x": 0.8467313079,
				"y": -0.3265763543,
				"z": -2.1726478976,
				"element": "C" 
			},
			{
				"x": 1.0300395701,
				"y": 0.6789437495,
				"z": -3.6054529927,
				"element": "Cl" 
			},
			{
				"x": 0.1097888636,
				"y": -1.3923516507,
				"z": -2.2953416251,
				"element": "N" 
			},
			{
				"x": -0.0276020174,
				"y": -2.1664240266,
				"z": -1.1810812381,
				"element": "C" 
			},
			{
				"x": 0.5002428454,
				"y": -1.956336629,
				"z": 0.0010330153,
				"element": "N" 
			},
			{
				"x": 1.6915231428,
				"y": -1.2474942054,
				"z": 2.2048686997,
				"element": "H" 
			},
			{
				"x": 2.4737023568,
				"y": 1.8777803701,
				"z": -1.6079399463,
				"element": "H" 
			},
			{
				"x": 3.4991321307,
				"y": 2.3287158871,
				"z": 0.6040401034,
				"element": "H" 
			},
			{
				"x": -0.6470310309,
				"y": -3.0514524274,
				"z": -1.3049810407,
				"element": "H" 
			}
		],
		 "valence_orbital": [ 
			{
				"type": "occ",
				"energy": -0.32123,
				"method": "rhf"
			},
			{
				"type": "occ",
				"energy": -0.31821,
				"method": "rhf"
			},
			{
				"type": "occ",
				"energy": -0.27788,
				"method": "rhf"
			},
			{
				"type": "occ",
				"energy": -0.27452,
				"method": "rhf"
			},
			{
				"type": "occ",
				"energy": -0.26403,
				"method": "rhf"
			},
			{
				"type": "unocc",
				"energy": -0.08586,
				"method": "rhf"
			},
			{
				"type": "unocc",
				"energy": -0.05287,
				"method": "rhf"
			},
			{
				"type": "unocc",
				"energy": -0.00777,
				"method": "rhf"
			},
			{
				"type": "unocc",
				"energy": 0.01332,
				"method": "rhf"
			},
			{
				"type": "unocc",
				"energy": 0.01899,
				"method": "rhf"
			}
		],
		"cosmo_sigma_profile": { 
			"-0.025": 0.0,
			"-0.024": 0.0,
			"-0.023": 0.0,
			"-0.022": 0.0,
			"-0.021": 0.0,
			"-0.02": 0.0,
			"-0.019": 0.0,
			"-0.018": 0.0,
			"-0.017": 0.0,
			"-0.016": 0.0,
			"-0.015": 0.0,
			"-0.014": 0.0,
			"-0.013": 0.0,
			"-0.012": 0.0,
			"-0.011": 0.0,
			"-0.01": 0.0,
			"-0.009": 0.721495938473,
			"-0.008": 6.36520143953,
			"-0.007": 6.79688303562,
			"-0.006": 6.05338609779,
			"-0.005": 6.89867966396,
			"-0.004": 10.4159907441,
			"-0.003": 14.0072301703,
			"-0.002": 20.6092181664,
			"-0.001": 21.7614001038,
			"0.0": 25.9112566962,
			"0.001": 18.9180327753,
			"0.002": 13.4854549771,
			"0.003": 17.27492254,
			"0.004": 12.3062610964,
			"0.005": 3.70937368258,
			"0.006": 3.4304113489,
			"0.007": 2.18599484175,
			"0.008": 1.40157394001,
			"0.009": 2.3024744827,
			"0.01": 2.29076968908,
			"0.011": 1.20787938701,
			"0.012": 1.81746200383,
			"0.013": 1.43438797007,
			"0.014": 0.619832899303,
			"0.015": 0.0602896128427,
			"0.016": 0.0,
			"0.017": 0.0,
			"0.018": 0.0,
			"0.019": 0.0,
			"0.02": 0.0,
			"0.021": 0.0,
			"0.022": 0.0,
			"0.023": 0.0,
			"0.024": 0.0,
			"0.025": 0.0
		}
	}
}
