{
	 "smiles": "N#CC1=C2C=CC=CC2=CC2=CC=CC=C12", 
	 "Tm": 449.15, 
	 "num_atms": 25, 
	 "gaussian": { 
		 "optdone": 1, 
		 "sigma_profile": "yes", 
		 "theory": "DFT", 
		 "functional": "B3LYP", 
		 "basiset": "6-31G**", 
		 "properties": { 
			 "R2extent": 3597.2157, 
			 "electric_dipole_moment_norm": 4.55080117122, 
			 "electric_quadrupole_moment_norm": 22.3549600673, 
			 "total_energy": -631.774682913, 
			 "HOMO_LUMO_gap": 0.12347, 
			 "cosmo_polarized_energy": -9.68, 
			 "cosmo_cavitation_energy": 29.58, 
			 "cosmo_dispersion_energy": -21.45, 
			 "cosmo_repulsion_energy": 1.6, 
			 "cosmo_total_nonelectrostatic_energy": 9.73, 
			 "SMD_solvation_energy": 5.51 
		},
		"coords": [
			{
				"x": -0.4918876843,
				"y": -0.3768115676,
				"z": 4.2876671885,
				"element": "N" 
			},
			{
				"x": -0.3457259741,
				"y": -0.2381939476,
				"z": 3.1403033318,
				"element": "C" 
			},
			{
				"x": -0.1666443453,
				"y": -0.067734778,
				"z": 1.7312518565,
				"element": "C" 
			},
			{
				"x": 1.1197409922,
				"y": -0.2648990787,
				"z": 1.1702248102,
				"element": "C" 
			},
			{
				"x": 2.2565610361,
				"y": -0.6291862794,
				"z": 1.9529373532,
				"element": "C" 
			},
			{
				"x": 3.48251672,
				"y": -0.809129444,
				"z": 1.3651607156,
				"element": "C" 
			},
			{
				"x": 3.6516159378,
				"y": -0.6372770237,
				"z": -0.0385595503,
				"element": "C" 
			},
			{
				"x": 2.5840507555,
				"y": -0.2880227881,
				"z": -0.8219336206,
				"element": "C" 
			},
			{
				"x": 1.2882605131,
				"y": -0.0903541122,
				"z": -0.251076041,
				"element": "C" 
			},
			{
				"x": 0.1849152882,
				"y": 0.26679232,
				"z": -1.0352002944,
				"element": "C" 
			},
			{
				"x": -1.0878388974,
				"y": 0.4627606393,
				"z": -0.486142091,
				"element": "C" 
			},
			{
				"x": -2.2081514026,
				"y": 0.8274608683,
				"z": -1.2960265489,
				"element": "C" 
			},
			{
				"x": -3.4458132383,
				"y": 1.0149245174,
				"z": -0.7406921529,
				"element": "C" 
			},
			{
				"x": -3.6332632296,
				"y": 0.8475097166,
				"z": 0.6612335336,
				"element": "C" 
			},
			{
				"x": -2.5853002223,
				"y": 0.4981375259,
				"z": 1.4739697672,
				"element": "C" 
			},
			{
				"x": -1.2802641604,
				"y": 0.2938653768,
				"z": 0.932809763,
				"element": "C" 
			},
			{
				"x": 2.1342120754,
				"y": -0.7616236122,
				"z": 3.0232279292,
				"element": "H" 
			},
			{
				"x": 4.3371902357,
				"y": -1.0861854989,
				"z": 1.9750975609,
				"element": "H" 
			},
			{
				"x": 4.6315840475,
				"y": -0.7849756243,
				"z": -0.482185571,
				"element": "H" 
			},
			{
				"x": 2.7018436643,
				"y": -0.1543100042,
				"z": -1.893919619,
				"element": "H" 
			},
			{
				"x": 0.3210608789,
				"y": 0.396346026,
				"z": -2.1065444252,
				"element": "H" 
			},
			{
				"x": -2.0539498332,
				"y": 0.9525878597,
				"z": -2.3644240563,
				"element": "H" 
			},
			{
				"x": -4.2900726053,
				"y": 1.2918210308,
				"z": -1.3648012602,
				"element": "H" 
			},
			{
				"x": -4.6198005517,
				"y": 0.9991356429,
				"z": 1.0890204272,
				"element": "H" 
			},
			{
				"x": -2.73464,
				"y": 0.3720622352,
				"z": 2.5416009938,
				"element": "H" 
			}
		],
		 "valence_orbital": [ 
			{
				"type": "occ",
				"energy": -0.31533,
				"method": "rhf"
			},
			{
				"type": "occ",
				"energy": -0.29762,
				"method": "rhf"
			},
			{
				"type": "occ",
				"energy": -0.26942,
				"method": "rhf"
			},
			{
				"type": "occ",
				"energy": -0.25562,
				"method": "rhf"
			},
			{
				"type": "occ",
				"energy": -0.21053,
				"method": "rhf"
			},
			{
				"type": "unocc",
				"energy": -0.08706,
				"method": "rhf"
			},
			{
				"type": "unocc",
				"energy": -0.02794,
				"method": "rhf"
			},
			{
				"type": "unocc",
				"energy": -0.00746,
				"method": "rhf"
			},
			{
				"type": "unocc",
				"energy": -0.00146,
				"method": "rhf"
			},
			{
				"type": "unocc",
				"energy": 0.03701,
				"method": "rhf"
			}
		],
		"cosmo_sigma_profile": { 
			"-0.025": 0.0,
			"-0.024": 0.0,
			"-0.023": 0.0,
			"-0.022": 0.0,
			"-0.021": 0.0,
			"-0.02": 0.0,
			"-0.019": 0.0,
			"-0.018": 0.0,
			"-0.017": 0.0,
			"-0.016": 0.0,
			"-0.015": 0.0,
			"-0.014": 0.0,
			"-0.013": 0.0,
			"-0.012": 0.0,
			"-0.011": 0.0,
			"-0.01": 0.0,
			"-0.009": 0.0,
			"-0.008": 1.38711893002,
			"-0.007": 9.52110258358,
			"-0.006": 16.8770326827,
			"-0.005": 16.8902999892,
			"-0.004": 18.0424300648,
			"-0.003": 11.5175301758,
			"-0.002": 15.3040679894,
			"-0.001": 17.6537857209,
			"0.0": 18.8424540801,
			"0.001": 26.3706697493,
			"0.002": 28.1340520128,
			"0.003": 20.3364700397,
			"0.004": 16.2826955417,
			"0.005": 2.32394306914,
			"0.006": 2.69336619061,
			"0.007": 1.94731381075,
			"0.008": 2.11461665651,
			"0.009": 3.07642102273,
			"0.01": 2.95681253181,
			"0.011": 2.98784414827,
			"0.012": 2.63640516348,
			"0.013": 1.93067445239,
			"0.014": 0.113633491232,
			"0.015": 0.0,
			"0.016": 0.0,
			"0.017": 0.0,
			"0.018": 0.0,
			"0.019": 0.0,
			"0.02": 0.0,
			"0.021": 0.0,
			"0.022": 0.0,
			"0.023": 0.0,
			"0.024": 0.0,
			"0.025": 0.0
		}
	}
}
