{
	 "smiles": "COCCNC(=O)CC#N", 
	 "Tm": 352.15, 
	 "num_atms": 20, 
	 "gaussian": { 
		 "optdone": 1, 
		 "sigma_profile": "yes", 
		 "theory": "DFT", 
		 "functional": "B3LYP", 
		 "basiset": "6-31G**", 
		 "properties": { 
			 "R2extent": 2339.6805, 
			 "electric_dipole_moment_norm": 1.25811428734, 
			 "electric_quadrupole_moment_norm": 14.7734753961, 
			 "total_energy": -494.595005869, 
			 "HOMO_LUMO_gap": 0.26987, 
			 "cosmo_polarized_energy": -15.34, 
			 "cosmo_cavitation_energy": 25.2, 
			 "cosmo_dispersion_energy": -17.6, 
			 "cosmo_repulsion_energy": 1.49, 
			 "cosmo_total_nonelectrostatic_energy": 9.09, 
			 "SMD_solvation_energy": 6.41 
		},
		"coords": [
			{
				"x": 0.5176836483,
				"y": -0.1557882971,
				"z": 3.8733897921,
				"element": "C" 
			},
			{
				"x": 1.1925262826,
				"y": -0.1940923452,
				"z": 2.6332796247,
				"element": "O" 
			},
			{
				"x": 0.3188276789,
				"y": -0.1247497406,
				"z": 1.5276258401,
				"element": "C" 
			},
			{
				"x": 1.1776304029,
				"y": -0.2316167477,
				"z": 0.266351386,
				"element": "C" 
			},
			{
				"x": 0.3908859919,
				"y": -0.1018195565,
				"z": -0.9527353305,
				"element": "N" 
			},
			{
				"x": -0.1547089565,
				"y": -1.1805559139,
				"z": -1.5691737466,
				"element": "C" 
			},
			{
				"x": -0.0386171506,
				"y": -2.3337349913,
				"z": -1.184660155,
				"element": "O" 
			},
			{
				"x": -0.9621639816,
				"y": -0.9029027983,
				"z": -2.862004621,
				"element": "C" 
			},
			{
				"x": -1.1020695069,
				"y": 0.500299678,
				"z": -3.2409950176,
				"element": "C" 
			},
			{
				"x": -1.1792116768,
				"y": 1.6324714333,
				"z": -3.4888949811,
				"element": "N" 
			},
			{
				"x": -0.1794990625,
				"y": -1.0007071145,
				"z": 3.9848968699,
				"element": "H" 
			},
			{
				"x": 1.2760524675,
				"y": -0.2173322596,
				"z": 4.6573941092,
				"element": "H" 
			},
			{
				"x": -0.0505212591,
				"y": 0.7792855282,
				"z": 4.0008363853,
				"element": "H" 
			},
			{
				"x": -0.2447293702,
				"y": 0.8249850644,
				"z": 1.5270650464,
				"element": "H" 
			},
			{
				"x": -0.4147776176,
				"y": -0.9467020574,
				"z": 1.543911576,
				"element": "H" 
			},
			{
				"x": 1.6743939042,
				"y": -1.2036956687,
				"z": 0.2488415788,
				"element": "H" 
			},
			{
				"x": 1.9441546753,
				"y": 0.5485250715,
				"z": 0.2791375148,
				"element": "H" 
			},
			{
				"x": 0.2148278964,
				"y": 0.8197613862,
				"z": -1.3277265153,
				"element": "H" 
			},
			{
				"x": -0.4741974761,
				"y": -1.4576907527,
				"z": -3.6702643759,
				"element": "H" 
			},
			{
				"x": -1.95158689,
				"y": -1.3508399179,
				"z": -2.7254749803,
				"element": "H" 
			}
		],
		 "valence_orbital": [ 
			{
				"type": "occ",
				"energy": -0.34088,
				"method": "rhf"
			},
			{
				"type": "occ",
				"energy": -0.32716,
				"method": "rhf"
			},
			{
				"type": "occ",
				"energy": -0.27283,
				"method": "rhf"
			},
			{
				"type": "occ",
				"energy": -0.26871,
				"method": "rhf"
			},
			{
				"type": "occ",
				"energy": -0.26237,
				"method": "rhf"
			},
			{
				"type": "unocc",
				"energy": 0.0075,
				"method": "rhf"
			},
			{
				"type": "unocc",
				"energy": 0.01228,
				"method": "rhf"
			},
			{
				"type": "unocc",
				"energy": 0.02465,
				"method": "rhf"
			},
			{
				"type": "unocc",
				"energy": 0.07251,
				"method": "rhf"
			},
			{
				"type": "unocc",
				"energy": 0.08496,
				"method": "rhf"
			}
		],
		"cosmo_sigma_profile": { 
			"-0.025": 0.0,
			"-0.024": 0.0,
			"-0.023": 0.0,
			"-0.022": 0.0,
			"-0.021": 0.0,
			"-0.02": 0.0,
			"-0.019": 0.0,
			"-0.018": 0.0,
			"-0.017": 0.0,
			"-0.016": 0.0,
			"-0.015": 0.0,
			"-0.014": 0.450217519153,
			"-0.013": 0.823504298485,
			"-0.012": 0.642069048033,
			"-0.011": 1.05341813745,
			"-0.01": 5.38621278163,
			"-0.009": 6.71303262068,
			"-0.008": 5.81600554569,
			"-0.007": 6.25438167261,
			"-0.006": 9.7325845235,
			"-0.005": 8.60285465876,
			"-0.004": 16.5392661965,
			"-0.003": 21.3782915131,
			"-0.002": 21.7045281557,
			"-0.001": 12.8823900008,
			"0.0": 7.44384053455,
			"0.001": 6.94306817327,
			"0.002": 5.86858624734,
			"0.003": 5.65785413814,
			"0.004": 4.12283804205,
			"0.005": 5.39325821229,
			"0.006": 5.02910520306,
			"0.007": 4.83820794632,
			"0.008": 5.51757296479,
			"0.009": 5.45988675911,
			"0.01": 5.24095749889,
			"0.011": 5.53670340418,
			"0.012": 6.57088431119,
			"0.013": 6.39362029094,
			"0.014": 1.10250275785,
			"0.015": 0.0,
			"0.016": 0.0,
			"0.017": 0.0,
			"0.018": 0.0,
			"0.019": 0.0,
			"0.02": 0.0,
			"0.021": 0.0,
			"0.022": 0.0,
			"0.023": 0.0,
			"0.024": 0.0,
			"0.0": 0.0
		}
	}
}
