{
	 "smiles": "N#CC1CN(CC2=CC=CC=C2)CN(CC2=CC=CC=C2)C1", 
	 "Tm": 353.15, 
	 "num_atms": 43, 
	 "gaussian": { 
		 "optdone": 1, 
		 "sigma_profile": "yes", 
		 "theory": "DFT", 
		 "functional": "B3LYP", 
		 "basiset": "6-31G**", 
		 "properties": { 
			 "R2extent": 7365.2552, 
			 "electric_dipole_moment_norm": 4.605730866, 
			 "electric_quadrupole_moment_norm": 16.6031548159, 
			 "total_energy": -900.886279162, 
			 "HOMO_LUMO_gap": 0.19257, 
			 "cosmo_polarized_energy": -14.16, 
			 "cosmo_cavitation_energy": 44.78, 
			 "cosmo_dispersion_energy": -29.28, 
			 "cosmo_repulsion_energy": 2.25, 
			 "cosmo_total_nonelectrostatic_energy": 17.75, 
			 "SMD_solvation_energy": 4.09 
		},
		"coords": [
			{
				"x": -0.7577461664,
				"y": -3.8435413388,
				"z": 2.079098507,
				"element": "N" 
			},
			{
				"x": -0.5597812564,
				"y": -2.7959778945,
				"z": 1.6174657748,
				"element": "C" 
			},
			{
				"x": -0.2950396048,
				"y": -1.4680595142,
				"z": 1.0617704187,
				"element": "C" 
			},
			{
				"x": 0.2830307052,
				"y": -0.5013092588,
				"z": 2.1348174177,
				"element": "C" 
			},
			{
				"x": 0.4979138485,
				"y": 0.8344591459,
				"z": 1.5933716423,
				"element": "N" 
			},
			{
				"x": -0.5079807953,
				"y": 1.8589314456,
				"z": 1.8919084592,
				"element": "C" 
			},
			{
				"x": -1.8932101561,
				"y": 1.7009399691,
				"z": 1.2707341561,
				"element": "C" 
			},
			{
				"x": -2.8908617231,
				"y": 0.9590482713,
				"z": 1.9219332225,
				"element": "C" 
			},
			{
				"x": -4.1486573974,
				"y": 0.781040581,
				"z": 1.3437918108,
				"element": "C" 
			},
			{
				"x": -4.4350866164,
				"y": 1.3523800821,
				"z": 0.1020164094,
				"element": "C" 
			},
			{
				"x": -3.4603811935,
				"y": 2.1094402249,
				"z": -0.5496376569,
				"element": "C" 
			},
			{
				"x": -2.2035256031,
				"y": 2.2837994064,
				"z": 0.03315788,
				"element": "C" 
			},
			{
				"x": 0.9880690089,
				"y": 0.8418017437,
				"z": 0.2100223636,
				"element": "C" 
			},
			{
				"x": 1.6379141053,
				"y": -0.4278401383,
				"z": -0.0669664511,
				"element": "N" 
			},
			{
				"x": 2.6417138773,
				"y": -0.4058439049,
				"z": -1.1354915565,
				"element": "C" 
			},
			{
				"x": 2.1325062093,
				"y": -0.1372157945,
				"z": -2.5470522581,
				"element": "C" 
			},
			{
				"x": 2.0097603211,
				"y": 1.1739111317,
				"z": -3.0285428826,
				"element": "C" 
			},
			{
				"x": 1.5124117592,
				"y": 1.4254335498,
				"z": -4.3078675693,
				"element": "C" 
			},
			{
				"x": 1.1308164228,
				"y": 0.3642073432,
				"z": -5.1313124236,
				"element": "C" 
			},
			{
				"x": 1.2564859484,
				"y": -0.9470543683,
				"z": -4.6696349022,
				"element": "C" 
			},
			{
				"x": 1.7556048653,
				"y": -1.1927605163,
				"z": -3.3892081955,
				"element": "C" 
			},
			{
				"x": 0.6903483312,
				"y": -1.5360178468,
				"z": -0.1481911589,
				"element": "C" 
			},
			{
				"x": -1.2549473222,
				"y": -1.0593568006,
				"z": 0.7284107178,
				"element": "H" 
			},
			{
				"x": -0.39748185,
				"y": -0.4379437477,
				"z": 2.9873657384,
				"element": "H" 
			},
			{
				"x": 1.2288880943,
				"y": -0.9176086889,
				"z": 2.4979536677,
				"element": "H" 
			},
			{
				"x": -0.0844591359,
				"y": 2.8212411987,
				"z": 1.5763858658,
				"element": "H" 
			},
			{
				"x": -0.6069559668,
				"y": 1.9074276685,
				"z": 2.9823404192,
				"element": "H" 
			},
			{
				"x": -2.6861553097,
				"y": 0.5264399078,
				"z": 2.898573734,
				"element": "H" 
			},
			{
				"x": -4.906782389,
				"y": 0.2046891011,
				"z": 1.8665007486,
				"element": "H" 
			},
			{
				"x": -5.4142331752,
				"y": 1.2175101025,
				"z": -0.348268403,
				"element": "H" 
			},
			{
				"x": -3.6794213329,
				"y": 2.57017592,
				"z": -1.5088249395,
				"element": "H" 
			},
			{
				"x": -1.4582009509,
				"y": 2.8928311882,
				"z": -0.4725616293,
				"element": "H" 
			},
			{
				"x": 0.1690741244,
				"y": 1.049811968,
				"z": -0.5102159424,
				"element": "H" 
			},
			{
				"x": 1.7268609696,
				"y": 1.647495501,
				"z": 0.0921763372,
				"element": "H" 
			},
			{
				"x": 3.3835183719,
				"y": 0.3543382671,
				"z": -0.8643657664,
				"element": "H" 
			},
			{
				"x": 3.1529850807,
				"y": -1.3760185087,
				"z": -1.1142298246,
				"element": "H" 
			},
			{
				"x": 2.3194119194,
				"y": 2.0056848774,
				"z": -2.3998034832,
				"element": "H" 
			},
			{
				"x": 1.430386937,
				"y": 2.4483205361,
				"z": -4.6649004459,
				"element": "H" 
			},
			{
				"x": 0.7467673908,
				"y": 0.5576395347,
				"z": -6.128762916,
				"element": "H" 
			},
			{
				"x": 0.9725964669,
				"y": -1.7790652137,
				"z": -5.3079415319,
				"element": "H" 
			},
			{
				"x": 1.8660146946,
				"y": -2.2179407219,
				"z": -3.0433153188,
				"element": "H" 
			},
			{
				"x": 0.1062644186,
				"y": -1.538755057,
				"z": -1.0837932606,
				"element": "H" 
			},
			{
				"x": 1.2624640746,
				"y": -2.4696893521,
				"z": -0.1164067747,
				"element": "H" 
			}
		],
		 "valence_orbital": [ 
			{
				"type": "occ",
				"energy": -0.25626,
				"method": "rhf"
			},
			{
				"type": "occ",
				"energy": -0.2542,
				"method": "rhf"
			},
			{
				"type": "occ",
				"energy": -0.2528,
				"method": "rhf"
			},
			{
				"type": "occ",
				"energy": -0.22635,
				"method": "rhf"
			},
			{
				"type": "occ",
				"energy": -0.20426,
				"method": "rhf"
			},
			{
				"type": "unocc",
				"energy": -0.01169,
				"method": "rhf"
			},
			{
				"type": "unocc",
				"energy": -0.01024,
				"method": "rhf"
			},
			{
				"type": "unocc",
				"energy": -0.00919,
				"method": "rhf"
			},
			{
				"type": "unocc",
				"energy": -0.00855,
				"method": "rhf"
			},
			{
				"type": "unocc",
				"energy": 0.03798,
				"method": "rhf"
			}
		],
		"cosmo_sigma_profile": { 
			"-0.025": 0.0,
			"-0.024": 0.0,
			"-0.023": 0.0,
			"-0.022": 0.0,
			"-0.021": 0.0,
			"-0.02": 0.0,
			"-0.019": 0.0,
			"-0.018": 0.0,
			"-0.017": 0.0,
			"-0.016": 0.0,
			"-0.015": 0.0,
			"-0.014": 0.0,
			"-0.013": 0.0,
			"-0.012": 0.0,
			"-0.011": 0.0,
			"-0.01": 0.0,
			"-0.009": 0.0,
			"-0.008": 0.0347504333178,
			"-0.007": 1.58455526546,
			"-0.006": 12.8907667887,
			"-0.005": 40.489782427,
			"-0.004": 43.4727050219,
			"-0.003": 40.8959983224,
			"-0.002": 30.5589939548,
			"-0.001": 26.8411796469,
			"0.0": 19.0315769534,
			"0.001": 18.7932245126,
			"0.002": 19.5854312242,
			"0.003": 16.1638661472,
			"0.004": 18.119377879,
			"0.005": 18.3681641401,
			"0.006": 16.8314511338,
			"0.007": 4.49444719489,
			"0.008": 4.83804014589,
			"0.009": 4.61921261825,
			"0.01": 5.26628032781,
			"0.011": 4.41553856686,
			"0.012": 3.40934514985,
			"0.013": 2.64356541865,
			"0.014": 0.910165065303,
			"0.015": 0.0819933568072,
			"0.016": 0.0,
			"0.017": 0.0,
			"0.018": 0.0,
			"0.019": 0.0,
			"0.02": 0.0,
			"0.021": 0.0,
			"0.022": 0.0,
			"0.023": 0.0,
			"0.024": 0.0,
			"0.025": 0.0
		}
	}
}
