{
	 "smiles": "CN1CCC2=C(C1)C=C(O)C(O)=C2", 
	 "Tm": 528.15, 
	 "num_atms": 26, 
	 "gaussian": { 
		 "optdone": 1, 
		 "sigma_profile": "yes", 
		 "theory": "DFT", 
		 "functional": "B3LYP", 
		 "basiset": "6-31G**", 
		 "properties": { 
			 "R2extent": 2915.4208, 
			 "electric_dipole_moment_norm": 1.62919918365, 
			 "electric_quadrupole_moment_norm": 11.7521235319, 
			 "total_energy": -594.081909627, 
			 "HOMO_LUMO_gap": 0.2031, 
			 "cosmo_polarized_energy": -15.19, 
			 "cosmo_cavitation_energy": 27.95, 
			 "cosmo_dispersion_energy": -21.01, 
			 "cosmo_repulsion_energy": 1.66, 
			 "cosmo_total_nonelectrostatic_energy": 8.6, 
			 "SMD_solvation_energy": 2.31 
		},
		"coords": [
			{
				"x": -3.2523038123,
				"y": 1.7193059164,
				"z": 1.7838314569,
				"element": "C" 
			},
			{
				"x": -2.2017078916,
				"y": 1.211147662,
				"z": 0.9174303935,
				"element": "N" 
			},
			{
				"x": -1.0928296278,
				"y": 2.1509976705,
				"z": 0.7707356397,
				"element": "C" 
			},
			{
				"x": -0.1834337113,
				"y": 1.7015287101,
				"z": -0.3742050644,
				"element": "C" 
			},
			{
				"x": 0.1984125557,
				"y": 0.2429090912,
				"z": -0.2418088329,
				"element": "C" 
			},
			{
				"x": -0.5566896507,
				"y": -0.6104777546,
				"z": 0.566028976,
				"element": "C" 
			},
			{
				"x": -1.7281648216,
				"y": -0.0916163797,
				"z": 1.3754433492,
				"element": "C" 
			},
			{
				"x": -0.1960433257,
				"y": -1.9632280558,
				"z": 0.6594183369,
				"element": "C" 
			},
			{
				"x": 0.8923032256,
				"y": -2.4804947015,
				"z": -0.0340344225,
				"element": "C" 
			},
			{
				"x": 1.2762982903,
				"y": -3.7909247424,
				"z": 0.0261572537,
				"element": "O" 
			},
			{
				"x": 1.6547184345,
				"y": -1.6210990639,
				"z": -0.8517779753,
				"element": "C" 
			},
			{
				"x": 2.7171991137,
				"y": -2.1682846247,
				"z": -1.514999385,
				"element": "O" 
			},
			{
				"x": 1.2968083358,
				"y": -0.2805806926,
				"z": -0.9416676841,
				"element": "C" 
			},
			{
				"x": -3.6345868454,
				"y": 2.6656684026,
				"z": 1.3881262745,
				"element": "H" 
			},
			{
				"x": -2.9173529329,
				"y": 1.8932012097,
				"z": 2.8257092372,
				"element": "H" 
			},
			{
				"x": -4.082912191,
				"y": 1.0059113124,
				"z": 1.8155549923,
				"element": "H" 
			},
			{
				"x": -0.5065290707,
				"y": 2.2440200226,
				"z": 1.7079371595,
				"element": "H" 
			},
			{
				"x": -1.5046644769,
				"y": 3.1422903888,
				"z": 0.5522481689,
				"element": "H" 
			},
			{
				"x": 0.7150857271,
				"y": 2.3303548628,
				"z": -0.4037765511,
				"element": "H" 
			},
			{
				"x": -0.712954585,
				"y": 1.8592882296,
				"z": -1.3233275465,
				"element": "H" 
			},
			{
				"x": -1.4328209017,
				"y": -0.0533262569,
				"z": 2.4473851034,
				"element": "H" 
			},
			{
				"x": -2.5633846588,
				"y": -0.801719765,
				"z": 1.3155943823,
				"element": "H" 
			},
			{
				"x": -0.7822400104,
				"y": -2.6322187411,
				"z": 1.2891764154,
				"element": "H" 
			},
			{
				"x": 0.6712094124,
				"y": -4.2604791508,
				"z": 0.6144107615,
				"element": "H" 
			},
			{
				"x": 3.1402805483,
				"y": -1.4755877864,
				"z": -2.0383423599,
				"element": "H" 
			},
			{
				"x": 1.8901028703,
				"y": 0.3797142365,
				"z": -1.5736480796,
				"element": "H" 
			}
		],
		 "valence_orbital": [ 
			{
				"type": "occ",
				"energy": -0.31946,
				"method": "rhf"
			},
			{
				"type": "occ",
				"energy": -0.30056,
				"method": "rhf"
			},
			{
				"type": "occ",
				"energy": -0.23039,
				"method": "rhf"
			},
			{
				"type": "occ",
				"energy": -0.20962,
				"method": "rhf"
			},
			{
				"type": "occ",
				"energy": -0.19584,
				"method": "rhf"
			},
			{
				"type": "unocc",
				"energy": 0.00726,
				"method": "rhf"
			},
			{
				"type": "unocc",
				"energy": 0.02509,
				"method": "rhf"
			},
			{
				"type": "unocc",
				"energy": 0.06958,
				"method": "rhf"
			},
			{
				"type": "unocc",
				"energy": 0.08117,
				"method": "rhf"
			},
			{
				"type": "unocc",
				"energy": 0.09107,
				"method": "rhf"
			}
		],
		"cosmo_sigma_profile": { 
			"-0.025": 0.0,
			"-0.024": 0.0,
			"-0.023": 0.0,
			"-0.022": 0.0,
			"-0.021": 0.0,
			"-0.02": 0.0,
			"-0.019": 0.0,
			"-0.018": 0.252419118076,
			"-0.017": 1.94557125762,
			"-0.016": 2.51036004111,
			"-0.015": 1.92373254029,
			"-0.014": 2.46975095979,
			"-0.013": 1.30373634979,
			"-0.012": 1.35247068283,
			"-0.011": 1.77737404257,
			"-0.01": 2.16127160447,
			"-0.009": 2.52367872218,
			"-0.008": 2.43595505747,
			"-0.007": 1.66864721274,
			"-0.006": 3.12604011533,
			"-0.005": 4.73048435981,
			"-0.004": 13.3561181984,
			"-0.003": 18.1633298761,
			"-0.002": 21.6567245496,
			"-0.001": 30.4348616279,
			"0.0": 22.8588801584,
			"0.001": 8.67077438164,
			"0.002": 6.78198010672,
			"0.003": 7.81912539548,
			"0.004": 11.0767580801,
			"0.005": 9.19126817251,
			"0.006": 10.0266055912,
			"0.007": 5.16934163394,
			"0.008": 3.10837630655,
			"0.009": 3.33592285299,
			"0.01": 2.75712267841,
			"0.011": 3.69575367378,
			"0.012": 2.72603058991,
			"0.013": 3.42277783546,
			"0.014": 2.65692401225,
			"0.015": 0.884608705719,
			"0.016": 0.331302725531,
			"0.017": 0.0867549313802,
			"0.018": 0.0,
			"0.019": 0.0,
			"0.02": 0.0,
			"0.021": 0.0,
			"0.022": 0.0,
			"0.023": 0.0,
			"0.024": 0.0,
			"0.025": 0.0
		}
	}
}
