{
	 "smiles": "OC1=CC=C(O)C(Cl)=C1", 
	 "Tm": 381.15, 
	 "num_atms": 14, 
	 "gaussian": { 
		 "optdone": 1, 
		 "sigma_profile": "yes", 
		 "theory": "DFT", 
		 "functional": "B3LYP", 
		 "basiset": "6-31G**", 
		 "properties": { 
			 "R2extent": 2934.0803, 
			 "electric_dipole_moment_norm": 1.83625756908, 
			 "electric_quadrupole_moment_norm": 4.65537957206, 
			 "total_energy": -842.281448413, 
			 "HOMO_LUMO_gap": 0.19396, 
			 "cosmo_polarized_energy": -9.96, 
			 "cosmo_cavitation_energy": 19.96, 
			 "cosmo_dispersion_energy": -15.4, 
			 "cosmo_repulsion_energy": 1.26, 
			 "cosmo_total_nonelectrostatic_energy": 5.82, 
			 "SMD_solvation_energy": 3.86 
		},
		"coords": [
			{
				"x": -1.1476403201,
				"y": -0.7398921872,
				"z": 0.6541167487,
				"element": "O" 
			},
			{
				"x": -0.2268790873,
				"y": 0.2621058558,
				"z": 0.8013702485,
				"element": "C" 
			},
			{
				"x": 0.3614761816,
				"y": 0.9278115162,
				"z": -0.2795608563,
				"element": "C" 
			},
			{
				"x": 1.2923910106,
				"y": 1.9392542281,
				"z": -0.0593945083,
				"element": "C" 
			},
			{
				"x": 1.6592763845,
				"y": 2.3116788908,
				"z": 1.2370584137,
				"element": "C" 
			},
			{
				"x": 2.5735474147,
				"y": 3.3063546858,
				"z": 1.3947665664,
				"element": "O" 
			},
			{
				"x": 1.0568728628,
				"y": 1.6309160139,
				"z": 2.3056656286,
				"element": "C" 
			},
			{
				"x": 1.5086327818,
				"y": 2.0885195026,
				"z": 3.9484992772,
				"element": "Cl" 
			},
			{
				"x": 0.125038846,
				"y": 0.6180225925,
				"z": 2.1055464112,
				"element": "C" 
			},
			{
				"x": -1.3036365012,
				"y": -0.8899486078,
				"z": -0.2868641297,
				"element": "H" 
			},
			{
				"x": 0.0929182639,
				"y": 0.6567362339,
				"z": -1.2979905528,
				"element": "H" 
			},
			{
				"x": 1.7546625722,
				"y": 2.4619209517,
				"z": -0.8900712377,
				"element": "H" 
			},
			{
				"x": 2.7207550998,
				"y": 3.4466202982,
				"z": 2.3420360157,
				"element": "H" 
			},
			{
				"x": -0.3280155093,
				"y": 0.1052000254,
				"z": 2.9455219748,
				"element": "H" 
			}
		],
		 "valence_orbital": [ 
			{
				"type": "occ",
				"energy": -0.35186,
				"method": "rhf"
			},
			{
				"type": "occ",
				"energy": -0.33037,
				"method": "rhf"
			},
			{
				"type": "occ",
				"energy": -0.30813,
				"method": "rhf"
			},
			{
				"type": "occ",
				"energy": -0.25555,
				"method": "rhf"
			},
			{
				"type": "occ",
				"energy": -0.21015,
				"method": "rhf"
			},
			{
				"type": "unocc",
				"energy": -0.01619,
				"method": "rhf"
			},
			{
				"type": "unocc",
				"energy": 0.01589,
				"method": "rhf"
			},
			{
				"type": "unocc",
				"energy": 0.01965,
				"method": "rhf"
			},
			{
				"type": "unocc",
				"energy": 0.06457,
				"method": "rhf"
			},
			{
				"type": "unocc",
				"energy": 0.09338,
				"method": "rhf"
			}
		],
		"cosmo_sigma_profile": { 
			"-0.025": 0.0,
			"-0.024": 0.0,
			"-0.023": 0.0,
			"-0.022": 0.0,
			"-0.021": 0.0,
			"-0.02": 0.0,
			"-0.019": 0.0,
			"-0.018": 0.395417041682,
			"-0.017": 0.986299625944,
			"-0.016": 1.4281995538,
			"-0.015": 1.15621787087,
			"-0.014": 2.31858383934,
			"-0.013": 1.85533734893,
			"-0.012": 1.00559344715,
			"-0.011": 1.29160603292,
			"-0.01": 1.96913326716,
			"-0.009": 2.46830434397,
			"-0.008": 2.40974793847,
			"-0.007": 4.62819652934,
			"-0.006": 6.68319899549,
			"-0.005": 6.31754939056,
			"-0.004": 6.375565154,
			"-0.003": 5.72622492655,
			"-0.002": 6.89326651159,
			"-0.001": 8.27235810507,
			"0.0": 8.87613557732,
			"0.001": 11.589364226,
			"0.002": 15.5295495911,
			"0.003": 21.3029428372,
			"0.004": 17.6171612086,
			"0.005": 5.63933447754,
			"0.006": 3.03798770743,
			"0.007": 3.32812020421,
			"0.008": 1.95777295383,
			"0.009": 2.54592225888,
			"0.01": 3.98532362714,
			"0.011": 3.56752759981,
			"0.012": 0.60871083706,
			"0.013": 0.0,
			"0.014": 0.0,
			"0.015": 0.0,
			"0.016": 0.0,
			"0.017": 0.0,
			"0.018": 0.0,
			"0.019": 0.0,
			"0.02": 0.0,
			"0.021": 0.0,
			"0.022": 0.0,
			"0.023": 0.0,
			"0.024": 0.0,
			"0.025": 0.0
		}
	}
}
