{
	 "smiles": "NS(=O)(=O)C1=CC=C(S1)C(O)=O", 
	 "Tm": 503.15, 
	 "num_atms": 17, 
	 "gaussian": { 
		 "optdone": 1, 
		 "sigma_profile": "yes", 
		 "theory": "DFT", 
		 "functional": "B3LYP", 
		 "basiset": "6-31G**", 
		 "properties": { 
			 "R2extent": 4267.2559, 
			 "electric_dipole_moment_norm": 3.05464994394, 
			 "electric_quadrupole_moment_norm": 15.0774406406, 
			 "total_energy": -1345.49169053, 
			 "HOMO_LUMO_gap": 0.18403, 
			 "cosmo_polarized_energy": -18.76, 
			 "cosmo_cavitation_energy": 25.65, 
			 "cosmo_dispersion_energy": -19.85, 
			 "cosmo_repulsion_energy": 1.51, 
			 "cosmo_total_nonelectrostatic_energy": 7.3, 
			 "SMD_solvation_energy": 5.14 
		},
		"coords": [
			{
				"x": 2.2980901181,
				"y": 2.2137103036,
				"z": -0.9116187206,
				"element": "N" 
			},
			{
				"x": 1.9004927738,
				"y": 2.0032948266,
				"z": 0.7151431798,
				"element": "S" 
			},
			{
				"x": 0.7127089191,
				"y": 2.8016259888,
				"z": 1.0221725777,
				"element": "O" 
			},
			{
				"x": 3.1551497674,
				"y": 2.1302512189,
				"z": 1.4558284637,
				"element": "O" 
			},
			{
				"x": 1.3857285956,
				"y": 0.304833943,
				"z": 0.7861156766,
				"element": "C" 
			},
			{
				"x": 0.0802106587,
				"y": -0.1121843907,
				"z": 0.8986526555,
				"element": "C" 
			},
			{
				"x": -0.0193542472,
				"y": -1.5246369262,
				"z": 0.945667895,
				"element": "C" 
			},
			{
				"x": 1.2068940412,
				"y": -2.1470800617,
				"z": 0.8722938737,
				"element": "C" 
			},
			{
				"x": 2.5174422624,
				"y": -1.0072334551,
				"z": 0.752492517,
				"element": "S" 
			},
			{
				"x": 1.413460324,
				"y": -3.6051528052,
				"z": 0.906234327,
				"element": "C" 
			},
			{
				"x": 2.7231194027,
				"y": -3.9411410388,
				"z": 0.8301499364,
				"element": "O" 
			},
			{
				"x": 0.5181977957,
				"y": -4.4197408052,
				"z": 0.9910938973,
				"element": "O" 
			},
			{
				"x": 3.2085769847,
				"y": 2.6614304256,
				"z": -0.9759472622,
				"element": "H" 
			},
			{
				"x": 1.5777891101,
				"y": 2.7478032507,
				"z": -1.3902536792,
				"element": "H" 
			},
			{
				"x": -0.7524339467,
				"y": 0.5776111143,
				"z": 0.9530368711,
				"element": "H" 
			},
			{
				"x": -0.9429371981,
				"y": -2.0833137987,
				"z": 1.034601437,
				"element": "H" 
			},
			{
				"x": 2.7631646383,
				"y": -4.9111777901,
				"z": 0.8616363542,
				"element": "H" 
			}
		],
		 "valence_orbital": [ 
			{
				"type": "occ",
				"energy": -0.31935,
				"method": "rhf"
			},
			{
				"type": "occ",
				"energy": -0.3106,
				"method": "rhf"
			},
			{
				"type": "occ",
				"energy": -0.29431,
				"method": "rhf"
			},
			{
				"type": "occ",
				"energy": -0.28173,
				"method": "rhf"
			},
			{
				"type": "occ",
				"energy": -0.26641,
				"method": "rhf"
			},
			{
				"type": "unocc",
				"energy": -0.08238,
				"method": "rhf"
			},
			{
				"type": "unocc",
				"energy": 0.00067,
				"method": "rhf"
			},
			{
				"type": "unocc",
				"energy": 0.00698,
				"method": "rhf"
			},
			{
				"type": "unocc",
				"energy": 0.04081,
				"method": "rhf"
			},
			{
				"type": "unocc",
				"energy": 0.05161,
				"method": "rhf"
			}
		],
		"cosmo_sigma_profile": { 
			"-0.025": 0.0,
			"-0.024": 0.0,
			"-0.023": 0.0,
			"-0.022": 0.0,
			"-0.021": 0.0,
			"-0.02": 0.0492776152919,
			"-0.019": 0.803015225095,
			"-0.018": 0.846395654111,
			"-0.017": 1.11431878834,
			"-0.016": 0.652648773043,
			"-0.015": 3.10319234927,
			"-0.014": 3.94490620131,
			"-0.013": 2.84008484697,
			"-0.012": 2.70894298794,
			"-0.011": 2.56100532478,
			"-0.01": 2.52785543802,
			"-0.009": 4.43877040383,
			"-0.008": 5.8159761718,
			"-0.007": 6.25164458551,
			"-0.006": 4.85715381064,
			"-0.005": 4.69685159407,
			"-0.004": 7.39820112857,
			"-0.003": 10.1042615582,
			"-0.002": 10.545579228,
			"-0.001": 16.0770498935,
			"0.0": 20.5885913888,
			"0.001": 16.7800325394,
			"0.002": 9.89166342465,
			"0.003": 5.98947494305,
			"0.004": 6.63262813969,
			"0.005": 5.82148216975,
			"0.006": 6.73796399388,
			"0.007": 6.21906933759,
			"0.008": 4.19733520286,
			"0.009": 7.9647062502,
			"0.01": 13.1162929608,
			"0.011": 11.3777275162,
			"0.012": 0.683527929688,
			"0.013": 0.0,
			"0.014": 0.0,
			"0.015": 0.0,
			"0.016": 0.0,
			"0.017": 0.0,
			"0.018": 0.0,
			"0.019": 0.0,
			"0.02": 0.0,
			"0.021": 0.0,
			"0.022": 0.0,
			"0.023": 0.0,
			"0.024": 0.0,
			"0.025": 0.0
		}
	}
}
