{
	 "smiles": "CCC1=C(SC=N1)C(O)=O", 
	 "Tm": 467.15, 
	 "num_atms": 17, 
	 "gaussian": { 
		 "optdone": 1, 
		 "sigma_profile": "yes", 
		 "theory": "DFT", 
		 "functional": "B3LYP", 
		 "basiset": "6-31G**", 
		 "properties": { 
			 "R2extent": 1819.6211, 
			 "electric_dipole_moment_norm": 3.68094172461, 
			 "electric_quadrupole_moment_norm": 9.6749906677, 
			 "total_energy": -836.244941525, 
			 "HOMO_LUMO_gap": 0.192, 
			 "cosmo_polarized_energy": -13.1, 
			 "cosmo_cavitation_energy": 22.69, 
			 "cosmo_dispersion_energy": -17.2, 
			 "cosmo_repulsion_energy": 1.35, 
			 "cosmo_total_nonelectrostatic_energy": 6.84, 
			 "SMD_solvation_energy": 3.7 
		},
		"coords": [
			{
				"x": -3.2470802942,
				"y": 0.8826111635,
				"z": -0.73178553,
				"element": "C" 
			},
			{
				"x": -1.9763402449,
				"y": 0.1786512536,
				"z": -1.2431582977,
				"element": "C" 
			},
			{
				"x": -0.7884196186,
				"y": 0.4451706483,
				"z": -0.36128209,
				"element": "C" 
			},
			{
				"x": -0.3653649425,
				"y": -0.3132433365,
				"z": 0.7157631069,
				"element": "C" 
			},
			{
				"x": 1.0499563224,
				"y": 0.4244895743,
				"z": 1.439942508,
				"element": "S" 
			},
			{
				"x": 0.9592743147,
				"y": 1.6751109951,
				"z": 0.2326681383,
				"element": "C" 
			},
			{
				"x": -0.0218336288,
				"y": 1.5640029856,
				"z": -0.6121025875,
				"element": "N" 
			},
			{
				"x": -0.9887612364,
				"y": -1.5575285954,
				"z": 1.2197559375,
				"element": "C" 
			},
			{
				"x": -0.2387836128,
				"y": -2.336836971,
				"z": 2.0446547652,
				"element": "O" 
			},
			{
				"x": -2.1158889179,
				"y": -1.8959492617,
				"z": 0.9364275343,
				"element": "O" 
			},
			{
				"x": -3.0908501954,
				"y": 1.9619641502,
				"z": -0.6414825075,
				"element": "H" 
			},
			{
				"x": -3.5333480057,
				"y": 0.48421886,
				"z": 0.2448733864,
				"element": "H" 
			},
			{
				"x": -4.0762781161,
				"y": 0.7143461156,
				"z": -1.4257094791,
				"element": "H" 
			},
			{
				"x": -1.7269415469,
				"y": 0.5431484121,
				"z": -2.2448293119,
				"element": "H" 
			},
			{
				"x": -2.1599615769,
				"y": -0.8961374431,
				"z": -1.2956385836,
				"element": "H" 
			},
			{
				"x": 1.6793712482,
				"y": 2.485234858,
				"z": 0.2286646984,
				"element": "H" 
			},
			{
				"x": 0.6834500519,
				"y": -2.0437534086,
				"z": 2.0681383124,
				"element": "H" 
			}
		],
		 "valence_orbital": [ 
			{
				"type": "occ",
				"energy": -0.32455,
				"method": "rhf"
			},
			{
				"type": "occ",
				"energy": -0.30517,
				"method": "rhf"
			},
			{
				"type": "occ",
				"energy": -0.2934,
				"method": "rhf"
			},
			{
				"type": "occ",
				"energy": -0.285,
				"method": "rhf"
			},
			{
				"type": "occ",
				"energy": -0.26246,
				"method": "rhf"
			},
			{
				"type": "unocc",
				"energy": -0.07046,
				"method": "rhf"
			},
			{
				"type": "unocc",
				"energy": -0.01832,
				"method": "rhf"
			},
			{
				"type": "unocc",
				"energy": 0.0029,
				"method": "rhf"
			},
			{
				"type": "unocc",
				"energy": 0.0516,
				"method": "rhf"
			},
			{
				"type": "unocc",
				"energy": 0.08059,
				"method": "rhf"
			}
		],
		"cosmo_sigma_profile": { 
			"-0.025": 0.0,
			"-0.024": 0.0,
			"-0.023": 0.0,
			"-0.022": 0.0,
			"-0.021": 0.0,
			"-0.02": 0.0,
			"-0.019": 0.085157746347,
			"-0.018": 0.940486891141,
			"-0.017": 0.734214364916,
			"-0.016": 0.632337083018,
			"-0.015": 0.696764867464,
			"-0.014": 0.82963181744,
			"-0.013": 1.57030589464,
			"-0.012": 1.06762956732,
			"-0.011": 2.76343059972,
			"-0.01": 3.08541712921,
			"-0.009": 2.71539000541,
			"-0.008": 2.99260821896,
			"-0.007": 2.72155364311,
			"-0.006": 2.93026293334,
			"-0.005": 4.31880438958,
			"-0.004": 7.76627067671,
			"-0.003": 12.9932683637,
			"-0.002": 16.9214782105,
			"-0.001": 25.4490103721,
			"0.0": 22.6896351132,
			"0.001": 16.3070749986,
			"0.002": 7.27544168646,
			"0.003": 4.95382582127,
			"0.004": 2.92067510716,
			"0.005": 3.87390658903,
			"0.006": 4.38812972139,
			"0.007": 4.92589317088,
			"0.008": 3.02703267819,
			"0.009": 4.35719531276,
			"0.01": 5.87185253189,
			"0.011": 5.23472107459,
			"0.012": 3.26969831619,
			"0.013": 1.69424260829,
			"0.014": 0.692054315519,
			"0.015": 0.184570548003,
			"0.016": 0.0,
			"0.017": 0.0,
			"0.018": 0.0,
			"0.019": 0.0,
			"0.02": 0.0,
			"0.021": 0.0,
			"0.022": 0.0,
			"0.023": 0.0,
			"0.024": 0.0,
			"0.025": 0.0
		}
	}
}
