{
	 "smiles": "O=C1CCN(CCN1)C1CC1", 
	 "Tm": 372.15, 
	 "num_atms": 25, 
	 "gaussian": { 
		 "optdone": 1, 
		 "sigma_profile": "yes", 
		 "theory": "DFT", 
		 "functional": "B3LYP", 
		 "basiset": "6-31G**", 
		 "properties": { 
			 "R2extent": 2136.4212, 
			 "electric_dipole_moment_norm": 3.98161552262, 
			 "electric_quadrupole_moment_norm": 13.4325191781, 
			 "total_energy": -497.981755255, 
			 "HOMO_LUMO_gap": 0.25217, 
			 "cosmo_polarized_energy": -12.0, 
			 "cosmo_cavitation_energy": 26.05, 
			 "cosmo_dispersion_energy": -19.24, 
			 "cosmo_repulsion_energy": 1.56, 
			 "cosmo_total_nonelectrostatic_energy": 8.37, 
			 "SMD_solvation_energy": 1.95 
		},
		"coords": [
			{
				"x": -2.1795735305,
				"y": 2.184341545,
				"z": -2.2414110103,
				"element": "O" 
			},
			{
				"x": -1.455080069,
				"y": 1.3606758691,
				"z": -1.6933598653,
				"element": "C" 
			},
			{
				"x": -0.5086408903,
				"y": 1.7887606888,
				"z": -0.5701295807,
				"element": "C" 
			},
			{
				"x": 0.8110353463,
				"y": 1.0255025722,
				"z": -0.4330667471,
				"element": "C" 
			},
			{
				"x": 0.6847826628,
				"y": -0.2289841188,
				"z": 0.3139026797,
				"element": "N" 
			},
			{
				"x": -0.4861161266,
				"y": -1.032269423,
				"z": -0.0500286509,
				"element": "C" 
			},
			{
				"x": -0.7992467488,
				"y": -1.1295734325,
				"z": -1.5525525459,
				"element": "C" 
			},
			{
				"x": -1.4881617965,
				"y": 0.0447155972,
				"z": -2.0821924593,
				"element": "N" 
			},
			{
				"x": 1.9205336542,
				"y": -0.9677713806,
				"z": 0.3103352363,
				"element": "C" 
			},
			{
				"x": 2.9811057914,
				"y": -0.5644856334,
				"z": 1.3031159051,
				"element": "C" 
			},
			{
				"x": 2.2233691591,
				"y": -1.8583241908,
				"z": 1.4872829592,
				"element": "C" 
			},
			{
				"x": -0.3028339695,
				"y": 2.8416384515,
				"z": -0.7771519799,
				"element": "H" 
			},
			{
				"x": -1.0550789303,
				"y": 1.7656992133,
				"z": 0.3811053534,
				"element": "H" 
			},
			{
				"x": 1.2349842277,
				"y": 0.8617378575,
				"z": -1.4425547603,
				"element": "H" 
			},
			{
				"x": 1.5333644795,
				"y": 1.6535797501,
				"z": 0.0993137902,
				"element": "H" 
			},
			{
				"x": -1.3775723059,
				"y": -0.6411024648,
				"z": 0.4563412876,
				"element": "H" 
			},
			{
				"x": -0.3194223566,
				"y": -2.0399466682,
				"z": 0.340604788,
				"element": "H" 
			},
			{
				"x": -1.4645242872,
				"y": -1.9853686356,
				"z": -1.712590436,
				"element": "H" 
			},
			{
				"x": 0.1237261362,
				"y": -1.3390016745,
				"z": -2.1140435223,
				"element": "H" 
			},
			{
				"x": -2.1335143187,
				"y": -0.1022875597,
				"z": -2.8473112349,
				"element": "H" 
			},
			{
				"x": 2.288952085,
				"y": -1.3117833898,
				"z": -0.6646724076,
				"element": "H" 
			},
			{
				"x": 4.0213290226,
				"y": -0.6067595657,
				"z": 0.9952704167,
				"element": "H" 
			},
			{
				"x": 2.7348882037,
				"y": 0.250157463,
				"z": 1.9766580377,
				"element": "H" 
			},
			{
				"x": 2.7397949411,
				"y": -2.7957780299,
				"z": 1.3044912164,
				"element": "H" 
			},
			{
				"x": 1.4864996203,
				"y": -1.8900728406,
				"z": 2.28354353,
				"element": "H" 
			}
		],
		 "valence_orbital": [ 
			{
				"type": "occ",
				"energy": -0.30181,
				"method": "rhf"
			},
			{
				"type": "occ",
				"energy": -0.2906,
				"method": "rhf"
			},
			{
				"type": "occ",
				"energy": -0.24291,
				"method": "rhf"
			},
			{
				"type": "occ",
				"energy": -0.23643,
				"method": "rhf"
			},
			{
				"type": "occ",
				"energy": -0.2182,
				"method": "rhf"
			},
			{
				"type": "unocc",
				"energy": 0.03397,
				"method": "rhf"
			},
			{
				"type": "unocc",
				"energy": 0.07041,
				"method": "rhf"
			},
			{
				"type": "unocc",
				"energy": 0.09169,
				"method": "rhf"
			},
			{
				"type": "unocc",
				"energy": 0.10402,
				"method": "rhf"
			},
			{
				"type": "unocc",
				"energy": 0.11167,
				"method": "rhf"
			}
		],
		"cosmo_sigma_profile": { 
			"-0.025": 0.0,
			"-0.024": 0.0,
			"-0.023": 0.0,
			"-0.022": 0.0,
			"-0.021": 0.0,
			"-0.02": 0.0,
			"-0.019": 0.0,
			"-0.018": 0.0,
			"-0.017": 0.0,
			"-0.016": 0.0,
			"-0.015": 0.0,
			"-0.014": 0.0,
			"-0.013": 0.780097016764,
			"-0.012": 1.14955347912,
			"-0.011": 0.956057309771,
			"-0.01": 1.31547683532,
			"-0.009": 0.693033202756,
			"-0.008": 1.02926020109,
			"-0.007": 1.58740535264,
			"-0.006": 2.6530827143,
			"-0.005": 9.69596446246,
			"-0.004": 22.7780971669,
			"-0.003": 31.2920780006,
			"-0.002": 27.7864789369,
			"-0.001": 20.2995183233,
			"0.0": 14.605926506,
			"0.001": 13.2582807646,
			"0.002": 9.02440690733,
			"0.003": 7.63426519622,
			"0.004": 5.03038603741,
			"0.005": 4.03785645987,
			"0.006": 2.87641252981,
			"0.007": 1.87289878203,
			"0.008": 1.64029469692,
			"0.009": 2.00537836772,
			"0.01": 1.76164396256,
			"0.011": 1.48985671585,
			"0.012": 1.94333974861,
			"0.013": 2.85159139092,
			"0.014": 4.96384689466,
			"0.015": 4.67801917119,
			"0.016": 0.47491960435,
			"0.017": 0.0,
			"0.018": 0.0,
			"0.019": 0.0,
			"0.02": 0.0,
			"0.021": 0.0,
			"0.022": 0.0,
			"0.023": 0.0,
			"0.024": 0.0,
			"0.025": 0.0
		}
	}
}
