{
	 "smiles": "OCC1=CC(Cl)=CC(Cl)=C1", 
	 "Tm": 352.35, 
	 "num_atms": 16, 
	 "gaussian": { 
		 "optdone": 1, 
		 "sigma_profile": "yes", 
		 "theory": "DFT", 
		 "functional": "B3LYP", 
		 "basiset": "6-31G**", 
		 "properties": { 
			 "R2extent": 3091.2924, 
			 "electric_dipole_moment_norm": 1.74974543863, 
			 "electric_quadrupole_moment_norm": 5.60584973398, 
			 "total_energy": -1265.9608272, 
			 "HOMO_LUMO_gap": 0.22528, 
			 "cosmo_polarized_energy": -7.94, 
			 "cosmo_cavitation_energy": 23.87, 
			 "cosmo_dispersion_energy": -17.88, 
			 "cosmo_repulsion_energy": 1.47, 
			 "cosmo_total_nonelectrostatic_energy": 7.46, 
			 "SMD_solvation_energy": 3.57 
		},
		"coords": [
			{
				"x": -3.1791635369,
				"y": -0.3403378388,
				"z": 0.3043495347,
				"element": "O" 
			},
			{
				"x": -1.849728466,
				"y": -0.8262453224,
				"z": 0.2483831584,
				"element": "C" 
			},
			{
				"x": -0.8679086474,
				"y": 0.1457527811,
				"z": -0.3857309509,
				"element": "C" 
			},
			{
				"x": 0.4932604347,
				"y": 0.0780337149,
				"z": -0.0699973687,
				"element": "C" 
			},
			{
				"x": 1.3837311862,
				"y": 0.9528289419,
				"z": -0.6886229137,
				"element": "C" 
			},
			{
				"x": 3.0921717375,
				"y": 0.8672533575,
				"z": -0.2892450784,
				"element": "Cl" 
			},
			{
				"x": 0.9548626178,
				"y": 1.9069840294,
				"z": -1.6106840099,
				"element": "C" 
			},
			{
				"x": -0.4072799686,
				"y": 1.9590276833,
				"z": -1.9037624452,
				"element": "C" 
			},
			{
				"x": -0.9784851701,
				"y": 3.1529581881,
				"z": -3.0586724495,
				"element": "Cl" 
			},
			{
				"x": -1.3221534983,
				"y": 1.093551903,
				"z": -1.3080899516,
				"element": "C" 
			},
			{
				"x": -3.1850802348,
				"y": 0.4425055299,
				"z": 0.8715248278,
				"element": "H" 
			},
			{
				"x": -1.479967922,
				"y": -1.1235666112,
				"z": 1.2418570512,
				"element": "H" 
			},
			{
				"x": -1.9008421054,
				"y": -1.7397699203,
				"z": -0.3558272174,
				"element": "H" 
			},
			{
				"x": 0.8596770413,
				"y": -0.6447720527,
				"z": 0.6518507997,
				"element": "H" 
			},
			{
				"x": 1.6553098932,
				"y": 2.5867769178,
				"z": -2.0791364113,
				"element": "H" 
			},
			{
				"x": -2.3773033611,
				"y": 1.1478186985,
				"z": -1.5481965752,
				"element": "H" 
			}
		],
		 "valence_orbital": [ 
			{
				"type": "occ",
				"energy": -0.32187,
				"method": "rhf"
			},
			{
				"type": "occ",
				"energy": -0.31772,
				"method": "rhf"
			},
			{
				"type": "occ",
				"energy": -0.29222,
				"method": "rhf"
			},
			{
				"type": "occ",
				"energy": -0.26129,
				"method": "rhf"
			},
			{
				"type": "occ",
				"energy": -0.25472,
				"method": "rhf"
			},
			{
				"type": "unocc",
				"energy": -0.02944,
				"method": "rhf"
			},
			{
				"type": "unocc",
				"energy": -0.02713,
				"method": "rhf"
			},
			{
				"type": "unocc",
				"energy": 0.00502,
				"method": "rhf"
			},
			{
				"type": "unocc",
				"energy": 0.04618,
				"method": "rhf"
			},
			{
				"type": "unocc",
				"energy": 0.07117,
				"method": "rhf"
			}
		],
		"cosmo_sigma_profile": { 
			"-0.025": 0.0,
			"-0.024": 0.0,
			"-0.023": 0.0,
			"-0.022": 0.0,
			"-0.021": 0.0,
			"-0.02": 0.0,
			"-0.019": 0.0,
			"-0.018": 0.0,
			"-0.017": 0.0,
			"-0.016": 0.656141736866,
			"-0.015": 0.947939862847,
			"-0.014": 0.890941962092,
			"-0.013": 1.1217283931,
			"-0.012": 1.11535488016,
			"-0.011": 0.321787605345,
			"-0.01": 0.928394292583,
			"-0.009": 1.02758611411,
			"-0.008": 3.00175945838,
			"-0.007": 5.47788947493,
			"-0.006": 8.36163484907,
			"-0.005": 10.7218120917,
			"-0.004": 10.3997685564,
			"-0.003": 9.22081699345,
			"-0.002": 10.5952461929,
			"-0.001": 12.0432014453,
			"0.0": 14.8498501177,
			"0.001": 22.1320150947,
			"0.002": 26.5453523333,
			"0.003": 15.0234080483,
			"0.004": 21.1518629904,
			"0.005": 8.1455323504,
			"0.006": 0.750244417541,
			"0.007": 0.894811024965,
			"0.008": 0.920816787149,
			"0.009": 1.34631162824,
			"0.01": 1.27314323322,
			"0.011": 1.12551559639,
			"0.012": 0.967284110271,
			"0.013": 2.20615511775,
			"0.014": 0.805870847453,
			"0.015": 0.0,
			"0.016": 0.0,
			"0.017": 0.0,
			"0.018": 0.0,
			"0.019": 0.0,
			"0.02": 0.0,
			"0.021": 0.0,
			"0.022": 0.0,
			"0.023": 0.0,
			"0.024": 0.0,
			"0.025": 0.0
		}
	}
}
