{
	 "smiles": "CN(NC=O)C1=CC=CC=C1", 
	 "Tm": 320.15, 
	 "num_atms": 21, 
	 "gaussian": { 
		 "optdone": 1, 
		 "sigma_profile": "yes", 
		 "theory": "DFT", 
		 "functional": "B3LYP", 
		 "basiset": "6-31G**", 
		 "properties": { 
			 "R2extent": 2272.2498, 
			 "electric_dipole_moment_norm": 3.59282100306, 
			 "electric_quadrupole_moment_norm": 13.808241098, 
			 "total_energy": -495.572530398, 
			 "HOMO_LUMO_gap": 0.20988, 
			 "cosmo_polarized_energy": -11.58, 
			 "cosmo_cavitation_energy": 24.91, 
			 "cosmo_dispersion_energy": -17.9, 
			 "cosmo_repulsion_energy": 1.44, 
			 "cosmo_total_nonelectrostatic_energy": 8.45, 
			 "SMD_solvation_energy": 6.21 
		},
		"coords": [
			{
				"x": 1.1025732343,
				"y": -1.1013513949,
				"z": -2.1587764128,
				"element": "C" 
			},
			{
				"x": 0.6953834227,
				"y": 0.1673104066,
				"z": -1.5570658478,
				"element": "N" 
			},
			{
				"x": -0.3525765095,
				"y": 0.793514347,
				"z": -2.217995483,
				"element": "N" 
			},
			{
				"x": -0.1433695416,
				"y": 1.8952457078,
				"z": -3.0078292074,
				"element": "C" 
			},
			{
				"x": -1.0275788162,
				"y": 2.4859485245,
				"z": -3.5956988033,
				"element": "O" 
			},
			{
				"x": 0.6963336488,
				"y": 0.2937890537,
				"z": -0.1444619285,
				"element": "C" 
			},
			{
				"x": 1.3505015977,
				"y": -0.6502022746,
				"z": 0.6666099392,
				"element": "C" 
			},
			{
				"x": 1.3839698467,
				"y": -0.4856893438,
				"z": 2.051898221,
				"element": "C" 
			},
			{
				"x": 0.7639727249,
				"y": 0.6047896793,
				"z": 2.6595216873,
				"element": "C" 
			},
			{
				"x": 0.1068529265,
				"y": 1.5388336519,
				"z": 1.8561266359,
				"element": "C" 
			},
			{
				"x": 0.069132116,
				"y": 1.3918941901,
				"z": 0.4719438577,
				"element": "C" 
			},
			{
				"x": 0.4791953025,
				"y": -1.9506901235,
				"z": -1.8381066301,
				"element": "H" 
			},
			{
				"x": 2.1435473826,
				"y": -1.3164892215,
				"z": -1.9046709834,
				"element": "H" 
			},
			{
				"x": 1.0310895876,
				"y": -0.9975193445,
				"z": -3.2415029572,
				"element": "H" 
			},
			{
				"x": -1.3090277297,
				"y": 0.4769116713,
				"z": -2.0701584991,
				"element": "H" 
			},
			{
				"x": 0.9296838498,
				"y": 2.1634774099,
				"z": -3.0404167891,
				"element": "H" 
			},
			{
				"x": 1.8353329476,
				"y": -1.5145109335,
				"z": 0.2296182636,
				"element": "H" 
			},
			{
				"x": 1.8968611264,
				"y": -1.2281613607,
				"z": 2.6569386793,
				"element": "H" 
			},
			{
				"x": 0.7898321807,
				"y": 0.7246715939,
				"z": 3.7379769118,
				"element": "H" 
			},
			{
				"x": -0.3844685204,
				"y": 2.3960998279,
				"z": 2.3077905629,
				"element": "H" 
			},
			{
				"x": -0.4427407773,
				"y": 2.1300279332,
				"z": -0.133841217,
				"element": "H" 
			}
		],
		 "valence_orbital": [ 
			{
				"type": "occ",
				"energy": -0.30434,
				"method": "rhf"
			},
			{
				"type": "occ",
				"energy": -0.27279,
				"method": "rhf"
			},
			{
				"type": "occ",
				"energy": -0.26017,
				"method": "rhf"
			},
			{
				"type": "occ",
				"energy": -0.25376,
				"method": "rhf"
			},
			{
				"type": "occ",
				"energy": -0.2157,
				"method": "rhf"
			},
			{
				"type": "unocc",
				"energy": -0.00582,
				"method": "rhf"
			},
			{
				"type": "unocc",
				"energy": 0.00282,
				"method": "rhf"
			},
			{
				"type": "unocc",
				"energy": 0.02106,
				"method": "rhf"
			},
			{
				"type": "unocc",
				"energy": 0.08109,
				"method": "rhf"
			},
			{
				"type": "unocc",
				"energy": 0.09613,
				"method": "rhf"
			}
		],
		"cosmo_sigma_profile": { 
			"-0.025": 0.0,
			"-0.024": 0.0,
			"-0.023": 0.0,
			"-0.022": 0.0,
			"-0.021": 0.0,
			"-0.02": 0.0,
			"-0.019": 0.0,
			"-0.018": 0.0,
			"-0.017": 0.0,
			"-0.016": 0.0,
			"-0.015": 0.102575542644,
			"-0.014": 0.996479489973,
			"-0.013": 1.18251695957,
			"-0.012": 0.883330704226,
			"-0.011": 1.18496038625,
			"-0.01": 0.957098289046,
			"-0.009": 0.827733663332,
			"-0.008": 1.2775104342,
			"-0.007": 2.74649374743,
			"-0.006": 9.2164900569,
			"-0.005": 17.2933591593,
			"-0.004": 24.2973973699,
			"-0.003": 21.028185911,
			"-0.002": 17.6783490235,
			"-0.001": 11.8020476691,
			"0.0": 8.78219177771,
			"0.001": 7.68470424728,
			"0.002": 8.91230505928,
			"0.003": 8.29441762996,
			"0.004": 9.11383714407,
			"0.005": 10.143270471,
			"0.006": 11.2567495901,
			"0.007": 4.45049400177,
			"0.008": 1.19383411648,
			"0.009": 1.49133916623,
			"0.01": 1.48850249976,
			"0.011": 1.92230607084,
			"0.012": 3.27898178824,
			"0.013": 6.07344298798,
			"0.014": 2.25673969911,
			"0.015": 0.132368831974,
			"0.016": 0.0,
			"0.017": 0.0,
			"0.018": 0.0,
			"0.019": 0.0,
			"0.02": 0.0,
			"0.021": 0.0,
			"0.022": 0.0,
			"0.023": 0.0,
			"0.024": 0.0,
			"0.025": 0.0
		}
	}
}
