{
	 "smiles": "[O-][N+](=O)C1=C(Cl)N=C2C=CC=CN12", 
	 "Tm": 444.15, 
	 "num_atms": 17, 
	 "gaussian": { 
		 "optdone": 1, 
		 "sigma_profile": "yes", 
		 "theory": "DFT", 
		 "functional": "B3LYP", 
		 "basiset": "6-31G**", 
		 "properties": { 
			 "R2extent": 4150.9828, 
			 "electric_dipole_moment_norm": 5.87331884457, 
			 "electric_quadrupole_moment_norm": 19.8718876796, 
			 "total_energy": -1043.9309121, 
			 "HOMO_LUMO_gap": 0.16077, 
			 "cosmo_polarized_energy": -12.4, 
			 "cosmo_cavitation_energy": 24.06, 
			 "cosmo_dispersion_energy": -18.37, 
			 "cosmo_repulsion_energy": 1.43, 
			 "cosmo_total_nonelectrostatic_energy": 7.11, 
			 "SMD_solvation_energy": 4.54 
		},
		"coords": [
			{
				"x": -0.4358395262,
				"y": -0.9221011537,
				"z": 4.8561218488,
				"element": "O" 
			},
			{
				"x": 0.1375405921,
				"y": -0.1846253115,
				"z": 4.0531339326,
				"element": "N" 
			},
			{
				"x": 0.6485551238,
				"y": 0.9121857829,
				"z": 4.3450050914,
				"element": "O" 
			},
			{
				"x": 0.2201879761,
				"y": -0.6128344306,
				"z": 2.7105825649,
				"element": "C" 
			},
			{
				"x": -0.2515074584,
				"y": -1.7784838648,
				"z": 2.0826945419,
				"element": "C" 
			},
			{
				"x": -1.1006244164,
				"y": -3.0781803515,
				"z": 2.8125712276,
				"element": "Cl" 
			},
			{
				"x": 0.034649909,
				"y": -1.7970712972,
				"z": 0.7810914892,
				"element": "N" 
			},
			{
				"x": 0.6929296512,
				"y": -0.6501553861,
				"z": 0.5392036841,
				"element": "C" 
			},
			{
				"x": 1.2196955344,
				"y": -0.1727776384,
				"z": -0.6743721308,
				"element": "C" 
			},
			{
				"x": 1.8642544771,
				"y": 1.0440344547,
				"z": -0.692855219,
				"element": "C" 
			},
			{
				"x": 1.9912721247,
				"y": 1.7991246182,
				"z": 0.4986591835,
				"element": "C" 
			},
			{
				"x": 1.4797702453,
				"y": 1.3382604829,
				"z": 1.6838286015,
				"element": "C" 
			},
			{
				"x": 0.8369147581,
				"y": 0.1226336495,
				"z": 1.6967131711,
				"element": "N" 
			},
			{
				"x": 1.0962988349,
				"y": -0.7884111329,
				"z": -1.5570746814,
				"element": "H" 
			},
			{
				"x": 2.2768037147,
				"y": 1.4282218244,
				"z": -1.6197089906,
				"element": "H" 
			},
			{
				"x": 2.4968495979,
				"y": 2.7576286932,
				"z": 0.4944462875,
				"element": "H" 
			},
			{
				"x": 1.5349488615,
				"y": 1.8515510609,
				"z": 2.6305593978,
				"element": "H" 
			}
		],
		 "valence_orbital": [ 
			{
				"type": "occ",
				"energy": -0.30921,
				"method": "rhf"
			},
			{
				"type": "occ",
				"energy": -0.3045,
				"method": "rhf"
			},
			{
				"type": "occ",
				"energy": -0.28999,
				"method": "rhf"
			},
			{
				"type": "occ",
				"energy": -0.27172,
				"method": "rhf"
			},
			{
				"type": "occ",
				"energy": -0.25252,
				"method": "rhf"
			},
			{
				"type": "unocc",
				"energy": -0.09175,
				"method": "rhf"
			},
			{
				"type": "unocc",
				"energy": -0.06302,
				"method": "rhf"
			},
			{
				"type": "unocc",
				"energy": -0.01694,
				"method": "rhf"
			},
			{
				"type": "unocc",
				"energy": 0.02875,
				"method": "rhf"
			},
			{
				"type": "unocc",
				"energy": 0.0505,
				"method": "rhf"
			}
		],
		"cosmo_sigma_profile": { 
			"-0.025": 0.0,
			"-0.024": 0.0,
			"-0.023": 0.0,
			"-0.022": 0.0,
			"-0.021": 0.0,
			"-0.02": 0.0,
			"-0.019": 0.0,
			"-0.018": 0.0,
			"-0.017": 0.0,
			"-0.016": 0.0,
			"-0.015": 0.0,
			"-0.014": 0.0,
			"-0.013": 0.0,
			"-0.012": 0.0,
			"-0.011": 0.0,
			"-0.01": 0.0,
			"-0.009": 2.36456173647,
			"-0.008": 9.31925313281,
			"-0.007": 8.99885140808,
			"-0.006": 11.867447518,
			"-0.005": 11.2222464333,
			"-0.004": 14.4689667179,
			"-0.003": 14.272362717,
			"-0.002": 13.2652045378,
			"-0.001": 13.872460831,
			"0.0": 16.0087674242,
			"0.001": 14.8145464911,
			"0.002": 9.6489899476,
			"0.003": 9.94729412195,
			"0.004": 5.59695416201,
			"0.005": 4.4384617283,
			"0.006": 5.9821474139,
			"0.007": 5.33760172434,
			"0.008": 9.17988514851,
			"0.009": 7.80172585458,
			"0.01": 4.58595302785,
			"0.011": 2.18148923198,
			"0.012": 0.321122829455,
			"0.013": 1.32083471633,
			"0.014": 0.670885731021,
			"0.015": 0.0599257236802,
			"0.016": 0.0,
			"0.017": 0.0,
			"0.018": 0.0,
			"0.019": 0.0,
			"0.02": 0.0,
			"0.021": 0.0,
			"0.022": 0.0,
			"0.023": 0.0,
			"0.024": 0.0,
			"0.025": 0.0
		}
	}
}
