{
	 "smiles": "C1=CC2=CC=NN=C2C=C1", 
	 "Tm": 311.15, 
	 "num_atms": 16, 
	 "gaussian": { 
		 "optdone": 1, 
		 "sigma_profile": "yes", 
		 "theory": "DFT", 
		 "functional": "B3LYP", 
		 "basiset": "6-31G**", 
		 "properties": { 
			 "R2extent": 1474.5878, 
			 "electric_dipole_moment_norm": 4.19913549912, 
			 "electric_quadrupole_moment_norm": 8.43768742962, 
			 "total_energy": -417.931901488, 
			 "HOMO_LUMO_gap": 0.15375, 
			 "cosmo_polarized_energy": -10.61, 
			 "cosmo_cavitation_energy": 20.12, 
			 "cosmo_dispersion_energy": -15.33, 
			 "cosmo_repulsion_energy": 1.21, 
			 "cosmo_total_nonelectrostatic_energy": 6.01, 
			 "SMD_solvation_energy": 1.61 
		},
		"coords": [
			{
				"x": -2.476777964,
				"y": -0.2235836407,
				"z": 1.4836234684,
				"element": "C" 
			},
			{
				"x": -2.3033073091,
				"y": -1.2493641724,
				"z": 0.5841723678,
				"element": "C" 
			},
			{
				"x": -1.0760772331,
				"y": -1.3729702829,
				"z": -0.1216444023,
				"element": "C" 
			},
			{
				"x": -0.779977465,
				"y": -2.377505914,
				"z": -1.0651446838,
				"element": "C" 
			},
			{
				"x": 0.460854855,
				"y": -2.3529107905,
				"z": -1.6602444886,
				"element": "C" 
			},
			{
				"x": 1.4149766049,
				"y": -1.4172124773,
				"z": -1.3905257383,
				"element": "N" 
			},
			{
				"x": 1.1721133056,
				"y": -0.4738311485,
				"z": -0.5218656998,
				"element": "N" 
			},
			{
				"x": -0.0364572783,
				"y": -0.4239337914,
				"z": 0.1162536991,
				"element": "C" 
			},
			{
				"x": -0.2440480691,
				"y": 0.6262131,
				"z": 1.0519463352,
				"element": "C" 
			},
			{
				"x": -1.4409206715,
				"y": 0.721476635,
				"z": 1.7201785866,
				"element": "C" 
			},
			{
				"x": -3.414686388,
				"y": -0.1289846659,
				"z": 2.0231041178,
				"element": "H" 
			},
			{
				"x": -3.0939147774,
				"y": -1.9725308357,
				"z": 0.4021200593,
				"element": "H" 
			},
			{
				"x": -1.5085925615,
				"y": -3.144917271,
				"z": -1.3129974629,
				"element": "H" 
			},
			{
				"x": 0.7555625884,
				"y": -3.0957520275,
				"z": -2.3955055353,
				"element": "H" 
			},
			{
				"x": 0.5674636622,
				"y": 1.329376698,
				"z": 1.2077813633,
				"element": "H" 
			},
			{
				"x": -1.6053112991,
				"y": 1.5213305848,
				"z": 2.4359480137,
				"element": "H" 
			}
		],
		 "valence_orbital": [ 
			{
				"type": "occ",
				"energy": -0.31887,
				"method": "rhf"
			},
			{
				"type": "occ",
				"energy": -0.31267,
				"method": "rhf"
			},
			{
				"type": "occ",
				"energy": -0.27471,
				"method": "rhf"
			},
			{
				"type": "occ",
				"energy": -0.24614,
				"method": "rhf"
			},
			{
				"type": "occ",
				"energy": -0.22661,
				"method": "rhf"
			},
			{
				"type": "unocc",
				"energy": -0.07286,
				"method": "rhf"
			},
			{
				"type": "unocc",
				"energy": -0.03258,
				"method": "rhf"
			},
			{
				"type": "unocc",
				"energy": 0.00697,
				"method": "rhf"
			},
			{
				"type": "unocc",
				"energy": 0.07279,
				"method": "rhf"
			},
			{
				"type": "unocc",
				"energy": 0.08811,
				"method": "rhf"
			}
		],
		"cosmo_sigma_profile": { 
			"-0.025": 0.0,
			"-0.024": 0.0,
			"-0.023": 0.0,
			"-0.022": 0.0,
			"-0.021": 0.0,
			"-0.02": 0.0,
			"-0.019": 0.0,
			"-0.018": 0.0,
			"-0.017": 0.0,
			"-0.016": 0.0,
			"-0.015": 0.0,
			"-0.014": 0.0,
			"-0.013": 0.0,
			"-0.012": 0.0,
			"-0.011": 0.0,
			"-0.01": 0.0,
			"-0.009": 0.240790175799,
			"-0.008": 3.91537786767,
			"-0.007": 11.2591143712,
			"-0.006": 12.9676075613,
			"-0.005": 12.1749965795,
			"-0.004": 9.06511189033,
			"-0.003": 8.38353733599,
			"-0.002": 8.15361897289,
			"-0.001": 11.2496811841,
			"0.0": 16.1334206405,
			"0.001": 18.5530687399,
			"0.002": 13.2834305625,
			"0.003": 10.7664130126,
			"0.004": 2.67395122453,
			"0.005": 2.42107026052,
			"0.006": 2.1078453456,
			"0.007": 1.486330571,
			"0.008": 1.44195329819,
			"0.009": 2.29063592098,
			"0.01": 1.49590836038,
			"0.011": 2.02529661235,
			"0.012": 1.9555965929,
			"0.013": 2.61413559664,
			"0.014": 2.62334978654,
			"0.015": 2.07953474986,
			"0.016": 1.29291442453,
			"0.017": 0.0302021797338,
			"0.018": 0.0,
			"0.019": 0.0,
			"0.02": 0.0,
			"0.021": 0.0,
			"0.022": 0.0,
			"0.023": 0.0,
			"0.024": 0.0,
			"0.025": 0.0
		}
	}
}
