{
	 "smiles": "CCN(CC)C(=O)C1=C(C)C2=C(S1)N=C(CCl)NC2=O", 
	 "Tm": 448.15, 
	 "num_atms": 36, 
	 "gaussian": { 
		 "optdone": 1, 
		 "sigma_profile": "yes", 
		 "theory": "DFT", 
		 "functional": "B3LYP", 
		 "basiset": "6-31G**", 
		 "properties": { 
			 "R2extent": 9639.3868, 
			 "electric_dipole_moment_norm": 4.99079138915, 
			 "electric_quadrupole_moment_norm": 13.1744198275, 
			 "total_energy": -1678.15263874, 
			 "HOMO_LUMO_gap": 0.158, 
			 "cosmo_polarized_energy": -18.44, 
			 "cosmo_cavitation_energy": 42.52, 
			 "cosmo_dispersion_energy": -29.78, 
			 "cosmo_repulsion_energy": 2.28, 
			 "cosmo_total_nonelectrostatic_energy": 15.03, 
			 "SMD_solvation_energy": 5.77 
		},
		"coords": [
			{
				"x": -0.9268886605,
				"y": 4.5101508817,
				"z": -1.5780259128,
				"element": "C" 
			},
			{
				"x": -1.9403990525,
				"y": 3.4019403579,
				"z": -1.2837693461,
				"element": "C" 
			},
			{
				"x": -1.3189801246,
				"y": 2.2325369702,
				"z": -0.6393543488,
				"element": "N" 
			},
			{
				"x": -1.613200804,
				"y": 2.010816316,
				"z": 0.7810142505,
				"element": "C" 
			},
			{
				"x": -3.0011891799,
				"y": 1.4083578674,
				"z": 1.026739862,
				"element": "C" 
			},
			{
				"x": -0.7359522077,
				"y": 1.3114114288,
				"z": -1.4720815522,
				"element": "C" 
			},
			{
				"x": -0.7683059575,
				"y": 1.4277650704,
				"z": -2.6968500834,
				"element": "O" 
			},
			{
				"x": -0.0094769477,
				"y": 0.1422750291,
				"z": -0.8644435753,
				"element": "C" 
			},
			{
				"x": -0.217741852,
				"y": -1.18218398,
				"z": -1.1705364007,
				"element": "C" 
			},
			{
				"x": -1.3184486968,
				"y": -1.7038182855,
				"z": -2.0524511067,
				"element": "C" 
			},
			{
				"x": 0.75724869,
				"y": -2.0226745281,
				"z": -0.5315855456,
				"element": "C" 
			},
			{
				"x": 1.7045909737,
				"y": -1.3212247631,
				"z": 0.2111733088,
				"element": "C" 
			},
			{
				"x": 1.403789024,
				"y": 0.3920921059,
				"z": 0.1597968215,
				"element": "S" 
			},
			{
				"x": 2.7591020804,
				"y": -1.8451739307,
				"z": 0.9000876915,
				"element": "N" 
			},
			{
				"x": 2.8522253314,
				"y": -3.1440778665,
				"z": 0.8505554606,
				"element": "C" 
			},
			{
				"x": 3.9336414849,
				"y": -3.8021589219,
				"z": 1.6654584979,
				"element": "C" 
			},
			{
				"x": 4.7701628856,
				"y": -5.149987687,
				"z": 0.7831091275,
				"element": "Cl" 
			},
			{
				"x": 1.9793891304,
				"y": -3.9357104085,
				"z": 0.1616208219,
				"element": "N" 
			},
			{
				"x": 0.8716241746,
				"y": -3.4704362921,
				"z": -0.5943824275,
				"element": "C" 
			},
			{
				"x": 0.1593526618,
				"y": -4.266132924,
				"z": -1.1885622566,
				"element": "O" 
			},
			{
				"x": -0.433451814,
				"y": 4.8520238982,
				"z": -0.6622306306,
				"element": "H" 
			},
			{
				"x": -1.4268866325,
				"y": 5.3693180907,
				"z": -2.0375569744,
				"element": "H" 
			},
			{
				"x": -0.1640044278,
				"y": 4.1479571525,
				"z": -2.2715022355,
				"element": "H" 
			},
			{
				"x": -2.7259173103,
				"y": 3.7685888689,
				"z": -0.6166430493,
				"element": "H" 
			},
			{
				"x": -2.4120522455,
				"y": 3.0729152625,
				"z": -2.2128534669,
				"element": "H" 
			},
			{
				"x": -0.8512676612,
				"y": 1.3595436285,
				"z": 1.2082603456,
				"element": "H" 
			},
			{
				"x": -1.5209528036,
				"y": 2.9758890057,
				"z": 1.2921577031,
				"element": "H" 
			},
			{
				"x": -3.1810999525,
				"y": 1.2994652682,
				"z": 2.1014969123,
				"element": "H" 
			},
			{
				"x": -3.0788934992,
				"y": 0.4196476063,
				"z": 0.5645452887,
				"element": "H" 
			},
			{
				"x": -3.7954600112,
				"y": 2.0390759862,
				"z": 0.6153536703,
				"element": "H" 
			},
			{
				"x": -1.8472191496,
				"y": -0.8851727893,
				"z": -2.5406510736,
				"element": "H" 
			},
			{
				"x": -2.0264615467,
				"y": -2.3078991112,
				"z": -1.4753532941,
				"element": "H" 
			},
			{
				"x": -0.9072550432,
				"y": -2.3648195565,
				"z": -2.8196539311,
				"element": "H" 
			},
			{
				"x": 4.6761421477,
				"y": -3.0512012573,
				"z": 1.9264445159,
				"element": "H" 
			},
			{
				"x": 3.5220116414,
				"y": -4.2471840127,
				"z": 2.5746215635,
				"element": "H" 
			},
			{
				"x": 2.1401253549,
				"y": -4.936314481,
				"z": 0.1131513697,
				"element": "H" 
			}
		],
		 "valence_orbital": [ 
			{
				"type": "occ",
				"energy": -0.27076,
				"method": "rhf"
			},
			{
				"type": "occ",
				"energy": -0.26267,
				"method": "rhf"
			},
			{
				"type": "occ",
				"energy": -0.25823,
				"method": "rhf"
			},
			{
				"type": "occ",
				"energy": -0.24394,
				"method": "rhf"
			},
			{
				"type": "occ",
				"energy": -0.22329,
				"method": "rhf"
			},
			{
				"type": "unocc",
				"energy": -0.06529,
				"method": "rhf"
			},
			{
				"type": "unocc",
				"energy": -0.02017,
				"method": "rhf"
			},
			{
				"type": "unocc",
				"energy": -0.00865,
				"method": "rhf"
			},
			{
				"type": "unocc",
				"energy": 0.00731,
				"method": "rhf"
			},
			{
				"type": "unocc",
				"energy": 0.01479,
				"method": "rhf"
			}
		],
		"cosmo_sigma_profile": { 
			"-0.025": 0.0,
			"-0.024": 0.0,
			"-0.023": 0.0,
			"-0.022": 0.0,
			"-0.021": 0.0,
			"-0.02": 0.0,
			"-0.019": 0.0,
			"-0.018": 0.0,
			"-0.017": 0.0,
			"-0.016": 0.0104991898647,
			"-0.015": 0.28039448304,
			"-0.014": 1.07066860925,
			"-0.013": 0.686202782925,
			"-0.012": 1.1151154861,
			"-0.011": 0.919342111876,
			"-0.01": 4.04509870116,
			"-0.009": 4.36061343659,
			"-0.008": 4.60409487039,
			"-0.007": 4.83619121575,
			"-0.006": 5.74104489928,
			"-0.005": 13.0286618108,
			"-0.004": 20.7701004325,
			"-0.003": 37.4792097814,
			"-0.002": 41.5363348624,
			"-0.001": 38.6720906926,
			"0.0": 39.2386495862,
			"0.001": 31.3666337099,
			"0.002": 16.6464847757,
			"0.003": 11.9518865395,
			"0.004": 9.65589385101,
			"0.005": 11.6959287406,
			"0.006": 4.71091209488,
			"0.007": 4.10780403666,
			"0.008": 4.03351827763,
			"0.009": 4.12393285249,
			"0.01": 3.80896211085,
			"0.011": 4.47373631562,
			"0.012": 6.17080114435,
			"0.013": 6.84948644962,
			"0.014": 2.62806798261,
			"0.015": 0.325706445364,
			"0.016": 0.0,
			"0.017": 0.0,
			"0.018": 0.0,
			"0.019": 0.0,
			"0.02": 0.0,
			"0.021": 0.0,
			"0.022": 0.0,
			"0.023": 0.0,
			"0.024": 0.0,
			"0.025": 0.0
		}
	}
}
