{
	 "smiles": "CC(C)(C)N(NC(=O)C1=CC=CC=C1)C(=O)C1=CC=CC=C1Br", 
	 "Tm": 469.15, 
	 "num_atms": 42, 
	 "gaussian": { 
		 "optdone": 1, 
		 "sigma_profile": "yes", 
		 "theory": "DFT", 
		 "functional": "B3LYP", 
		 "basiset": "6-31G**", 
		 "properties": { 
			 "R2extent": 8948.0362, 
			 "electric_dipole_moment_norm": 6.45917640106, 
			 "electric_quadrupole_moment_norm": 10.5801740647, 
			 "total_energy": -3528.71908293, 
			 "HOMO_LUMO_gap": 0.19129, 
			 "cosmo_polarized_energy": -21.47, 
			 "cosmo_cavitation_energy": 46.5, 
			 "cosmo_dispersion_energy": -30.24, 
			 "cosmo_repulsion_energy": 2.31, 
			 "cosmo_total_nonelectrostatic_energy": 18.56, 
			 "SMD_solvation_energy": 7.86 
		},
		"coords": [
			{
				"x": 3.7235535644,
				"y": -0.8366897764,
				"z": -0.0185367276,
				"element": "C" 
			},
			{
				"x": 2.4251099287,
				"y": -1.5814779504,
				"z": -0.3819486792,
				"element": "C" 
			},
			{
				"x": 2.1009571959,
				"y": -2.6139390232,
				"z": 0.7077960416,
				"element": "C" 
			},
			{
				"x": 2.5629933358,
				"y": -2.314342945,
				"z": -1.7303759765,
				"element": "C" 
			},
			{
				"x": 1.2718277417,
				"y": -0.6026996236,
				"z": -0.4847894825,
				"element": "N" 
			},
			{
				"x": 0.3590085566,
				"y": -0.5362207274,
				"z": 0.5593089318,
				"element": "N" 
			},
			{
				"x": 0.5370800573,
				"y": 0.326957221,
				"z": 1.6283980716,
				"element": "C" 
			},
			{
				"x": 1.5268621448,
				"y": 1.0333354218,
				"z": 1.7405716534,
				"element": "O" 
			},
			{
				"x": -0.5764335079,
				"y": 0.3262969991,
				"z": 2.6342850184,
				"element": "C" 
			},
			{
				"x": -1.4415064205,
				"y": -0.7598841943,
				"z": 2.8331405845,
				"element": "C" 
			},
			{
				"x": -2.4487046108,
				"y": -0.6878400237,
				"z": 3.7959179276,
				"element": "C" 
			},
			{
				"x": -2.5998197406,
				"y": 0.4674312089,
				"z": 4.5648791527,
				"element": "C" 
			},
			{
				"x": -1.7322183498,
				"y": 1.5473204413,
				"z": 4.3795215038,
				"element": "C" 
			},
			{
				"x": -0.7210663222,
				"y": 1.4747422836,
				"z": 3.4248189525,
				"element": "C" 
			},
			{
				"x": 1.2823869363,
				"y": 0.4366338717,
				"z": -1.4068307879,
				"element": "C" 
			},
			{
				"x": 2.1892163109,
				"y": 0.6087615323,
				"z": -2.2053962346,
				"element": "O" 
			},
			{
				"x": 0.0300115239,
				"y": 1.2841548264,
				"z": -1.4764550897,
				"element": "C" 
			},
			{
				"x": -1.1716733551,
				"y": 0.6749245895,
				"z": -1.869181462,
				"element": "C" 
			},
			{
				"x": -2.3291275346,
				"y": 1.4205161173,
				"z": -2.0793484025,
				"element": "C" 
			},
			{
				"x": -2.3005479383,
				"y": 2.8027062351,
				"z": -1.8888631121,
				"element": "C" 
			},
			{
				"x": -1.1168953661,
				"y": 3.4287242547,
				"z": -1.5013804093,
				"element": "C" 
			},
			{
				"x": 0.0417341608,
				"y": 2.6742110893,
				"z": -1.3072313631,
				"element": "C" 
			},
			{
				"x": 1.6259268974,
				"y": 3.5971876283,
				"z": -0.7844708037,
				"element": "Br" 
			},
			{
				"x": 4.5374303855,
				"y": -1.5597928192,
				"z": 0.1032819425,
				"element": "H" 
			},
			{
				"x": 3.9974873442,
				"y": -0.1322091571,
				"z": -0.8043090937,
				"element": "H" 
			},
			{
				"x": 3.596076367,
				"y": -0.2835833376,
				"z": 0.9145562686,
				"element": "H" 
			},
			{
				"x": 2.9004571671,
				"y": -3.3603001809,
				"z": 0.7183871266,
				"element": "H" 
			},
			{
				"x": 2.0495713591,
				"y": -2.1644981276,
				"z": 1.7019472384,
				"element": "H" 
			},
			{
				"x": 1.1593416449,
				"y": -3.1363125123,
				"z": 0.5099437183,
				"element": "H" 
			},
			{
				"x": 3.37467451,
				"y": -3.0458664719,
				"z": -1.6634376671,
				"element": "H" 
			},
			{
				"x": 2.7899291596,
				"y": -1.6186958808,
				"z": -2.5376457912,
				"element": "H" 
			},
			{
				"x": 1.6408860036,
				"y": -2.8533038732,
				"z": -1.9742936546,
				"element": "H" 
			},
			{
				"x": -0.5528183877,
				"y": -0.934721738,
				"z": 0.3895206069,
				"element": "H" 
			},
			{
				"x": -1.3117146684,
				"y": -1.679450423,
				"z": 2.2695612377,
				"element": "H" 
			},
			{
				"x": -3.1079803047,
				"y": -1.5367080536,
				"z": 3.9514910964,
				"element": "H" 
			},
			{
				"x": -3.3856832014,
				"y": 0.5226294322,
				"z": 5.3126568507,
				"element": "H" 
			},
			{
				"x": -1.8429074983,
				"y": 2.4438778689,
				"z": 4.9822931396,
				"element": "H" 
			},
			{
				"x": -0.02844746,
				"y": 2.2954322362,
				"z": 3.2719529306,
				"element": "H" 
			},
			{
				"x": -1.1829318489,
				"y": -0.400024319,
				"z": -2.0323644036,
				"element": "H" 
			},
			{
				"x": -3.2442429976,
				"y": 0.9271425323,
				"z": -2.3921498248,
				"element": "H" 
			},
			{
				"x": -3.1951444721,
				"y": 3.3981861232,
				"z": -2.0444667348,
				"element": "H" 
			},
			{
				"x": -1.0831583108,
				"y": 4.5017892451,
				"z": -1.3512542934,
				"element": "H" 
			}
		],
		 "valence_orbital": [ 
			{
				"type": "occ",
				"energy": -0.26669,
				"method": "rhf"
			},
			{
				"type": "occ",
				"energy": -0.25874,
				"method": "rhf"
			},
			{
				"type": "occ",
				"energy": -0.25402,
				"method": "rhf"
			},
			{
				"type": "occ",
				"energy": -0.24627,
				"method": "rhf"
			},
			{
				"type": "occ",
				"energy": -0.23667,
				"method": "rhf"
			},
			{
				"type": "unocc",
				"energy": -0.04538,
				"method": "rhf"
			},
			{
				"type": "unocc",
				"energy": -0.02934,
				"method": "rhf"
			},
			{
				"type": "unocc",
				"energy": -0.01848,
				"method": "rhf"
			},
			{
				"type": "unocc",
				"energy": -0.01641,
				"method": "rhf"
			},
			{
				"type": "unocc",
				"energy": 0.01257,
				"method": "rhf"
			}
		],
		"cosmo_sigma_profile": { 
			"-0.025": 0.0,
			"-0.024": 0.0,
			"-0.023": 0.0,
			"-0.022": 0.0,
			"-0.021": 0.0,
			"-0.02": 0.0,
			"-0.019": 0.0,
			"-0.018": 0.0,
			"-0.017": 0.0,
			"-0.016": 0.0,
			"-0.015": 0.110561790849,
			"-0.014": 0.977886673832,
			"-0.013": 1.08128935271,
			"-0.012": 1.19033970013,
			"-0.011": 1.38695115941,
			"-0.01": 1.65095011165,
			"-0.009": 1.71753230243,
			"-0.008": 2.3699582665,
			"-0.007": 9.97457191533,
			"-0.006": 18.9701962784,
			"-0.005": 21.4253396316,
			"-0.004": 25.9228052329,
			"-0.003": 29.2400507451,
			"-0.002": 27.4365933558,
			"-0.001": 28.8989393587,
			"0.0": 35.909294329,
			"0.001": 36.5263747362,
			"0.002": 26.7318160576,
			"0.003": 27.7861920896,
			"0.004": 24.7971105491,
			"0.005": 8.98059181126,
			"0.006": 6.80990362788,
			"0.007": 4.21434496895,
			"0.008": 4.72956561132,
			"0.009": 5.0978699023,
			"0.01": 4.57611082982,
			"0.011": 4.83556685129,
			"0.012": 4.59425114574,
			"0.013": 3.65504527255,
			"0.014": 0.39479381915,
			"0.015": 0.0,
			"0.016": 0.0,
			"0.017": 0.0,
			"0.018": 0.0,
			"0.019": 0.0,
			"0.02": 0.0,
			"0.021": 0.0,
			"0.022": 0.0,
			"0.023": 0.0,
			"0.024": 0.0,
			"0.025": 0.0
		}
	}
}
