{
	 "smiles": "CC1=CNC(=O)N1C1=C(C=CC=C1)[N+]([O-])=O", 
	 "Tm": 483.15, 
	 "num_atms": 25, 
	 "gaussian": { 
		 "optdone": 1, 
		 "sigma_profile": "yes", 
		 "theory": "DFT", 
		 "functional": "B3LYP", 
		 "basiset": "6-31G**", 
		 "properties": { 
			 "R2extent": 3361.7516, 
			 "electric_dipole_moment_norm": 6.01479984455, 
			 "electric_quadrupole_moment_norm": 27.7718611992, 
			 "total_energy": -776.317942323, 
			 "HOMO_LUMO_gap": 0.11693, 
			 "cosmo_polarized_energy": -19.78, 
			 "cosmo_cavitation_energy": 29.87, 
			 "cosmo_dispersion_energy": -20.93, 
			 "cosmo_repulsion_energy": 1.63, 
			 "cosmo_total_nonelectrostatic_energy": 10.57, 
			 "SMD_solvation_energy": 8.55 
		},
		"coords": [
			{
				"x": 2.3333458396,
				"y": -0.7319547782,
				"z": 1.7323431909,
				"element": "C" 
			},
			{
				"x": 1.0797902516,
				"y": -0.0389132967,
				"z": 2.1447748972,
				"element": "C" 
			},
			{
				"x": 0.6681414341,
				"y": 0.3496920789,
				"z": 3.3721422961,
				"element": "C" 
			},
			{
				"x": -0.544280701,
				"y": 1.0281507662,
				"z": 3.2327215617,
				"element": "N" 
			},
			{
				"x": -0.9115344843,
				"y": 1.1255731704,
				"z": 1.9057124965,
				"element": "C" 
			},
			{
				"x": -1.8846261188,
				"y": 1.6730690587,
				"z": 1.4121840828,
				"element": "O" 
			},
			{
				"x": 0.1031377594,
				"y": 0.4164641672,
				"z": 1.2305210635,
				"element": "N" 
			},
			{
				"x": 0.1028749792,
				"y": 0.2668820081,
				"z": -0.1722265986,
				"element": "C" 
			},
			{
				"x": 0.0370247768,
				"y": 1.3628279328,
				"z": -1.0517137692,
				"element": "C" 
			},
			{
				"x": -0.0636420918,
				"y": 1.1814597769,
				"z": -2.4298087188,
				"element": "C" 
			},
			{
				"x": -0.0493081203,
				"y": -0.1040122082,
				"z": -2.9637207212,
				"element": "C" 
			},
			{
				"x": 0.0378629019,
				"y": -1.2045001413,
				"z": -2.1097815201,
				"element": "C" 
			},
			{
				"x": 0.0893650122,
				"y": -1.0174960639,
				"z": -0.7296739184,
				"element": "C" 
			},
			{
				"x": 0.1346346725,
				"y": 2.7558728783,
				"z": -0.5783179589,
				"element": "N" 
			},
			{
				"x": 0.8287173187,
				"y": 2.9765350608,
				"z": 0.4116395138,
				"element": "O" 
			},
			{
				"x": -0.4355470597,
				"y": 3.6144885702,
				"z": -1.2458171539,
				"element": "O" 
			},
			{
				"x": 2.1501517868,
				"y": -1.7080230595,
				"z": 1.2689320135,
				"element": "H" 
			},
			{
				"x": 2.9014960811,
				"y": -0.1303280177,
				"z": 1.0133687438,
				"element": "H" 
			},
			{
				"x": 2.963576877,
				"y": -0.8924193298,
				"z": 2.6104771063,
				"element": "H" 
			},
			{
				"x": 1.1435252254,
				"y": 0.2101798669,
				"z": 4.3296856102,
				"element": "H" 
			},
			{
				"x": -1.0631875479,
				"y": 1.4960309347,
				"z": 3.9570876938,
				"element": "H" 
			},
			{
				"x": -0.138730488,
				"y": 2.0588384115,
				"z": -3.0604473518,
				"element": "H" 
			},
			{
				"x": -0.1110873933,
				"y": -0.2430436076,
				"z": -4.0380716708,
				"element": "H" 
			},
			{
				"x": 0.0367791043,
				"y": -2.2120522007,
				"z": -2.5141162003,
				"element": "H" 
			},
			{
				"x": 0.0890199844,
				"y": -1.8700219779,
				"z": -0.0590946882,
				"element": "H" 
			}
		],
		 "valence_orbital": [ 
			{
				"type": "occ",
				"energy": -0.29211,
				"method": "rhf"
			},
			{
				"type": "occ",
				"energy": -0.27267,
				"method": "rhf"
			},
			{
				"type": "occ",
				"energy": -0.26823,
				"method": "rhf"
			},
			{
				"type": "occ",
				"energy": -0.26018,
				"method": "rhf"
			},
			{
				"type": "occ",
				"energy": -0.19702,
				"method": "rhf"
			},
			{
				"type": "unocc",
				"energy": -0.08009,
				"method": "rhf"
			},
			{
				"type": "unocc",
				"energy": -0.03152,
				"method": "rhf"
			},
			{
				"type": "unocc",
				"energy": -0.00722,
				"method": "rhf"
			},
			{
				"type": "unocc",
				"energy": 0.03716,
				"method": "rhf"
			},
			{
				"type": "unocc",
				"energy": 0.0651,
				"method": "rhf"
			}
		],
		"cosmo_sigma_profile": { 
			"-0.025": 0.0,
			"-0.024": 0.0,
			"-0.023": 0.0,
			"-0.022": 0.0,
			"-0.021": 0.0,
			"-0.02": 0.0,
			"-0.019": 0.0,
			"-0.018": 0.0,
			"-0.017": 0.0,
			"-0.016": 1.07398440174,
			"-0.015": 1.40759778194,
			"-0.014": 1.3959946132,
			"-0.013": 0.672580554433,
			"-0.012": 0.839050458713,
			"-0.011": 1.32542712076,
			"-0.01": 0.910167357246,
			"-0.009": 2.41837591053,
			"-0.008": 6.62684576959,
			"-0.007": 13.0254745267,
			"-0.006": 15.5110518166,
			"-0.005": 14.8207897082,
			"-0.004": 12.803217386,
			"-0.003": 14.266229304,
			"-0.002": 14.4788328822,
			"-0.001": 18.0686086343,
			"0.0": 14.6182135916,
			"0.001": 16.6173710465,
			"0.002": 15.7457582297,
			"0.003": 7.67801865481,
			"0.004": 8.94271952446,
			"0.005": 8.61898491811,
			"0.006": 7.99954219209,
			"0.007": 10.1345375065,
			"0.008": 8.74778520888,
			"0.009": 5.76737333759,
			"0.01": 2.76713436525,
			"0.011": 0.724057048433,
			"0.012": 2.16432741281,
			"0.013": 2.91555433909,
			"0.014": 4.76828555688,
			"0.015": 1.03452663124,
			"0.016": 0.0,
			"0.017": 0.0,
			"0.018": 0.0,
			"0.019": 0.0,
			"0.02": 0.0,
			"0.021": 0.0,
			"0.022": 0.0,
			"0.023": 0.0,
			"0.024": 0.0,
			"0.025": 0.0
		}
	}
}
