{
	 "smiles": "NC(=O)NC1=CC=C(N)C=C1", 
	 "Tm": 429.15, 
	 "num_atms": 20, 
	 "gaussian": { 
		 "optdone": 1, 
		 "sigma_profile": "yes", 
		 "theory": "DFT", 
		 "functional": "B3LYP", 
		 "basiset": "6-31G**", 
		 "properties": { 
			 "R2extent": 2509.2825, 
			 "electric_dipole_moment_norm": 3.90205598499, 
			 "electric_quadrupole_moment_norm": 20.5265950835, 
			 "total_energy": -511.675538798, 
			 "HOMO_LUMO_gap": 0.1883, 
			 "cosmo_polarized_energy": -20.4, 
			 "cosmo_cavitation_energy": 24.17, 
			 "cosmo_dispersion_energy": -18.24, 
			 "cosmo_repulsion_energy": 1.48, 
			 "cosmo_total_nonelectrostatic_energy": 7.41, 
			 "SMD_solvation_energy": 4.86 
		},
		"coords": [
			{
				"x": 2.4276754541,
				"y": -2.9181312547,
				"z": 0.4994497709,
				"element": "N" 
			},
			{
				"x": 2.1968432713,
				"y": -1.5636757308,
				"z": 0.754353229,
				"element": "C" 
			},
			{
				"x": 2.8521864166,
				"y": -0.9383865121,
				"z": 1.5769805367,
				"element": "O" 
			},
			{
				"x": 1.1457787455,
				"y": -1.0529645804,
				"z": 0.0191643568,
				"element": "N" 
			},
			{
				"x": 0.6246773307,
				"y": 0.2627022722,
				"z": 0.0378993978,
				"element": "C" 
			},
			{
				"x": 1.1591214163,
				"y": 1.3027271937,
				"z": 0.8121625183,
				"element": "C" 
			},
			{
				"x": 0.5911945981,
				"y": 2.5730575918,
				"z": 0.7577087244,
				"element": "C" 
			},
			{
				"x": -0.5172536488,
				"y": 2.8534655141,
				"z": -0.0558760322,
				"element": "C" 
			},
			{
				"x": -1.1169484418,
				"y": 4.1216145231,
				"z": -0.0518232847,
				"element": "N" 
			},
			{
				"x": -1.0461439401,
				"y": 1.8059167938,
				"z": -0.8253038977,
				"element": "C" 
			},
			{
				"x": -0.4816001715,
				"y": 0.5354458302,
				"z": -0.7784927684,
				"element": "C" 
			},
			{
				"x": 3.296774861,
				"y": -3.2274614105,
				"z": 0.9120732487,
				"element": "H" 
			},
			{
				"x": 2.2924633575,
				"y": -3.2475572051,
				"z": -0.4472377135,
				"element": "H" 
			},
			{
				"x": 0.5894122123,
				"y": -1.721894302,
				"z": -0.4927387379,
				"element": "H" 
			},
			{
				"x": 2.0088555903,
				"y": 1.1045240397,
				"z": 1.4501073971,
				"element": "H" 
			},
			{
				"x": 1.0167238766,
				"y": 3.3650473128,
				"z": 1.3696976929,
				"element": "H" 
			},
			{
				"x": -1.6176839864,
				"y": 4.3492188061,
				"z": -0.9007362298,
				"element": "H" 
			},
			{
				"x": -0.4947172794,
				"y": 4.8738487116,
				"z": 0.2130321455,
				"element": "H" 
			},
			{
				"x": -1.9085063836,
				"y": 1.9857321158,
				"z": -1.4625634245,
				"element": "H" 
			},
			{
				"x": -0.9087532787,
				"y": -0.2561297092,
				"z": -1.3913569293,
				"element": "H" 
			}
		],
		 "valence_orbital": [ 
			{
				"type": "occ",
				"energy": -0.27515,
				"method": "rhf"
			},
			{
				"type": "occ",
				"energy": -0.26545,
				"method": "rhf"
			},
			{
				"type": "occ",
				"energy": -0.25166,
				"method": "rhf"
			},
			{
				"type": "occ",
				"energy": -0.24187,
				"method": "rhf"
			},
			{
				"type": "occ",
				"energy": -0.18164,
				"method": "rhf"
			},
			{
				"type": "unocc",
				"energy": 0.00666,
				"method": "rhf"
			},
			{
				"type": "unocc",
				"energy": 0.01869,
				"method": "rhf"
			},
			{
				"type": "unocc",
				"energy": 0.06028,
				"method": "rhf"
			},
			{
				"type": "unocc",
				"energy": 0.07135,
				"method": "rhf"
			},
			{
				"type": "unocc",
				"energy": 0.08669,
				"method": "rhf"
			}
		],
		"cosmo_sigma_profile": { 
			"-0.025": 0.0,
			"-0.024": 0.0,
			"-0.023": 0.0,
			"-0.022": 0.0,
			"-0.021": 0.0,
			"-0.02": 0.0,
			"-0.019": 0.0,
			"-0.018": 0.0,
			"-0.017": 0.0,
			"-0.016": 0.0179829084913,
			"-0.015": 2.11117079505,
			"-0.014": 2.72632503835,
			"-0.013": 3.1960806014,
			"-0.012": 5.35542731542,
			"-0.011": 5.68511823874,
			"-0.01": 5.64810303098,
			"-0.009": 6.31379264324,
			"-0.008": 5.45469690242,
			"-0.007": 6.82148067743,
			"-0.006": 6.42118333281,
			"-0.005": 7.77234800453,
			"-0.004": 8.01878040083,
			"-0.003": 6.96433793368,
			"-0.002": 7.48975530199,
			"-0.001": 7.52949656789,
			"0.0": 6.68087846937,
			"0.001": 7.95152385539,
			"0.002": 8.84266459942,
			"0.003": 9.42967592527,
			"0.004": 10.5657179968,
			"0.005": 12.1742611043,
			"0.006": 13.0338272536,
			"0.007": 9.92703405024,
			"0.008": 3.1518636599,
			"0.009": 4.00727120318,
			"0.01": 2.69624955939,
			"0.011": 2.83962709634,
			"0.012": 2.92773710286,
			"0.013": 3.19663163521,
			"0.014": 4.89393115127,
			"0.015": 1.14699638764,
			"0.016": 0.235025689604,
			"0.017": 0.0,
			"0.018": 0.0,
			"0.019": 0.0,
			"0.02": 0.0,
			"0.021": 0.0,
			"0.022": 0.0,
			"0.023": 0.0,
			"0.024": 0.0,
			"0.025": 0.0
		}
	}
}
