{
	 "smiles": "CC1=C(N=NN1C1=CC=C(F)C=C1)C(O)=O", 
	 "Tm": 455.15, 
	 "num_atms": 24, 
	 "gaussian": { 
		 "optdone": 1, 
		 "sigma_profile": "yes", 
		 "theory": "DFT", 
		 "functional": "B3LYP", 
		 "basiset": "6-31G**", 
		 "properties": { 
			 "R2extent": 4757.4662, 
			 "electric_dipole_moment_norm": 7.5656442614, 
			 "electric_quadrupole_moment_norm": 19.1109702768, 
			 "total_energy": -800.385221005, 
			 "HOMO_LUMO_gap": 0.20809, 
			 "cosmo_polarized_energy": -24.57, 
			 "cosmo_cavitation_energy": 29.98, 
			 "cosmo_dispersion_energy": -21.38, 
			 "cosmo_repulsion_energy": 1.62, 
			 "cosmo_total_nonelectrostatic_energy": 10.23, 
			 "SMD_solvation_energy": 5.38 
		},
		"coords": [
			{
				"x": 0.0398409443,
				"y": -1.4138269914,
				"z": 0.7477564256,
				"element": "C" 
			},
			{
				"x": 0.4749087213,
				"y": -0.4250354261,
				"z": -0.2879604098,
				"element": "C" 
			},
			{
				"x": 1.4105548532,
				"y": -0.505043354,
				"z": -1.3139100727,
				"element": "C" 
			},
			{
				"x": 1.3491979259,
				"y": 0.6394817583,
				"z": -2.062139234,
				"element": "N" 
			},
			{
				"x": 0.459034919,
				"y": 1.4293020796,
				"z": -1.5637762637,
				"element": "N" 
			},
			{
				"x": -0.0963801749,
				"y": 0.799753624,
				"z": -0.4763217378,
				"element": "N" 
			},
			{
				"x": -1.1633105916,
				"y": 1.4351713366,
				"z": 0.2230854042,
				"element": "C" 
			},
			{
				"x": -2.181101646,
				"y": 2.0467431557,
				"z": -0.5176869408,
				"element": "C" 
			},
			{
				"x": -3.2222642421,
				"y": 2.693476914,
				"z": 0.1417452918,
				"element": "C" 
			},
			{
				"x": -3.232579533,
				"y": 2.707542433,
				"z": 1.5335120974,
				"element": "C" 
			},
			{
				"x": -4.2438237567,
				"y": 3.3226559306,
				"z": 2.1722644018,
				"element": "F" 
			},
			{
				"x": -2.2271125303,
				"y": 2.1088501871,
				"z": 2.2848383016,
				"element": "C" 
			},
			{
				"x": -1.1774156552,
				"y": 1.4767701889,
				"z": 1.6204623422,
				"element": "C" 
			},
			{
				"x": 2.3126821881,
				"y": -1.6207162067,
				"z": -1.7019629634,
				"element": "C" 
			},
			{
				"x": 2.7086371404,
				"y": -2.4363036208,
				"z": -0.6752674505,
				"element": "O" 
			},
			{
				"x": 2.6686097626,
				"y": -1.8445808519,
				"z": -2.8287816331,
				"element": "O" 
			},
			{
				"x": -1.043286102,
				"y": -1.3781070711,
				"z": 0.8931264164,
				"element": "H" 
			},
			{
				"x": 0.3105138504,
				"y": -2.4237586442,
				"z": 0.4325703083,
				"element": "H" 
			},
			{
				"x": 0.5040813041,
				"y": -1.2285049194,
				"z": 1.7240036835,
				"element": "H" 
			},
			{
				"x": -2.1416404719,
				"y": 2.0166060355,
				"z": -1.6001545803,
				"element": "H" 
			},
			{
				"x": -4.0235462636,
				"y": 3.177043908,
				"z": -0.4055692828,
				"element": "H" 
			},
			{
				"x": -2.2644259622,
				"y": 2.1567387566,
				"z": 3.3672536244,
				"element": "H" 
			},
			{
				"x": -0.3644763365,
				"y": 1.0395139976,
				"z": 2.1890564635,
				"element": "H" 
			},
			{
				"x": 2.5435016568,
				"y": -2.0032732199,
				"z": 0.1734558082,
				"element": "H" 
			}
		],
		 "valence_orbital": [ 
			{
				"type": "occ",
				"energy": -0.29148,
				"method": "rhf"
			},
			{
				"type": "occ",
				"energy": -0.28417,
				"method": "rhf"
			},
			{
				"type": "occ",
				"energy": -0.28031,
				"method": "rhf"
			},
			{
				"type": "occ",
				"energy": -0.27295,
				"method": "rhf"
			},
			{
				"type": "occ",
				"energy": -0.26058,
				"method": "rhf"
			},
			{
				"type": "unocc",
				"energy": -0.05249,
				"method": "rhf"
			},
			{
				"type": "unocc",
				"energy": -0.04141,
				"method": "rhf"
			},
			{
				"type": "unocc",
				"energy": -0.02557,
				"method": "rhf"
			},
			{
				"type": "unocc",
				"energy": -0.00438,
				"method": "rhf"
			},
			{
				"type": "unocc",
				"energy": 0.04186,
				"method": "rhf"
			}
		],
		"cosmo_sigma_profile": { 
			"-0.025": 0.0,
			"-0.024": 0.0,
			"-0.023": 0.0,
			"-0.022": 0.0,
			"-0.021": 0.0,
			"-0.02": 0.0,
			"-0.019": 0.338799315496,
			"-0.018": 0.79273200984,
			"-0.017": 0.83034399875,
			"-0.016": 1.17514947148,
			"-0.015": 1.06020217218,
			"-0.014": 0.632196700202,
			"-0.013": 0.395161054535,
			"-0.012": 1.39837929743,
			"-0.011": 1.42313874599,
			"-0.01": 1.02681690116,
			"-0.009": 3.52812918283,
			"-0.008": 10.1272399851,
			"-0.007": 11.9835322548,
			"-0.006": 16.2416200538,
			"-0.005": 12.8287949603,
			"-0.004": 16.0264443254,
			"-0.003": 15.2522508722,
			"-0.002": 11.8954986059,
			"-0.001": 11.9370755834,
			"0.0": 15.6933904406,
			"0.001": 16.2153330874,
			"0.002": 14.9987724703,
			"0.003": 10.0696239639,
			"0.004": 12.5210773781,
			"0.005": 3.38571558107,
			"0.006": 3.89267992741,
			"0.007": 4.94541093382,
			"0.008": 5.13649092819,
			"0.009": 6.67916366891,
			"0.01": 8.95725795836,
			"0.011": 8.8303408581,
			"0.012": 6.37434587057,
			"0.013": 3.20547535436,
			"0.014": 1.11202301374,
			"0.015": 0.251821894399,
			"0.016": 0.0,
			"0.017": 0.0,
			"0.018": 0.0,
			"0.019": 0.0,
			"0.02": 0.0,
			"0.021": 0.0,
			"0.022": 0.0,
			"0.023": 0.0,
			"0.024": 0.0,
			"0.025": 0.0
		}
	}
}
