{
	 "smiles": "CCOC(=O)C(C)(C)C", 
	 "Tm": 183.35, 
	 "num_atms": 23, 
	 "gaussian": { 
		 "optdone": 1, 
		 "sigma_profile": "yes", 
		 "theory": "DFT", 
		 "functional": "B3LYP", 
		 "basiset": "6-31G**", 
		 "properties": { 
			 "R2extent": 1864.945, 
			 "electric_dipole_moment_norm": 1.91355077539, 
			 "electric_quadrupole_moment_norm": 8.81843197626, 
			 "total_energy": -425.661053609, 
			 "HOMO_LUMO_gap": 0.27762, 
			 "cosmo_polarized_energy": -5.97, 
			 "cosmo_cavitation_energy": 25.17, 
			 "cosmo_dispersion_energy": -17.55, 
			 "cosmo_repulsion_energy": 1.47, 
			 "cosmo_total_nonelectrostatic_energy": 9.1, 
			 "SMD_solvation_energy": 5.68 
		},
		"coords": [
			{
				"x": -1.974752792,
				"y": -2.532225369,
				"z": 0.7191527253,
				"element": "C" 
			},
			{
				"x": -2.3827662592,
				"y": -1.2605203797,
				"z": -0.0002302114,
				"element": "C" 
			},
			{
				"x": -1.182686028,
				"y": -0.4925834887,
				"z": -0.241654794,
				"element": "O" 
			},
			{
				"x": -1.353803047,
				"y": 0.6882897492,
				"z": -0.882326246,
				"element": "C" 
			},
			{
				"x": -2.4414254498,
				"y": 1.0911902838,
				"z": -1.2384019092,
				"element": "O" 
			},
			{
				"x": -0.0205928658,
				"y": 1.4196431661,
				"z": -1.0871338464,
				"element": "C" 
			},
			{
				"x": -0.2914991838,
				"y": 2.7440899241,
				"z": -1.8167980662,
				"element": "C" 
			},
			{
				"x": 0.6199494404,
				"y": 1.6902992351,
				"z": 0.292760719,
				"element": "C" 
			},
			{
				"x": 0.9170372346,
				"y": 0.5264030017,
				"z": -1.930089824,
				"element": "C" 
			},
			{
				"x": -1.2808340978,
				"y": -3.1202727884,
				"z": 0.1115098523,
				"element": "H" 
			},
			{
				"x": -1.4891739085,
				"y": -2.3041494636,
				"z": 1.6724352726,
				"element": "H" 
			},
			{
				"x": -2.8587838599,
				"y": -3.1450445544,
				"z": 0.9215696798,
				"element": "H" 
			},
			{
				"x": -3.0765157239,
				"y": -0.6562983639,
				"z": 0.5932031967,
				"element": "H" 
			},
			{
				"x": -2.8694317742,
				"y": -1.467781498,
				"z": -0.9587356261,
				"element": "H" 
			},
			{
				"x": -0.7576876382,
				"y": 2.5708895776,
				"z": -2.7903507827,
				"element": "H" 
			},
			{
				"x": -0.9650087131,
				"y": 3.3829304467,
				"z": -1.2393900028,
				"element": "H" 
			},
			{
				"x": 0.6493274566,
				"y": 3.2821591567,
				"z": -1.9727366665,
				"element": "H" 
			},
			{
				"x": 1.5705801962,
				"y": 2.218450438,
				"z": 0.1625994223,
				"element": "H" 
			},
			{
				"x": -0.0288831934,
				"y": 2.3167985815,
				"z": 0.9142141997,
				"element": "H" 
			},
			{
				"x": 0.813279287,
				"y": 0.7584501678,
				"z": 0.8296207975,
				"element": "H" 
			},
			{
				"x": 1.1149563884,
				"y": -0.4242630205,
				"z": -1.4290979955,
				"element": "H" 
			},
			{
				"x": 0.4826842596,
				"y": 0.3132252637,
				"z": -2.912726967,
				"element": "H" 
			},
			{
				"x": 1.8717302717,
				"y": 1.0388199343,
				"z": -2.0899929277,
				"element": "H" 
			}
		],
		 "valence_orbital": [ 
			{
				"type": "occ",
				"energy": -0.34206,
				"method": "rhf"
			},
			{
				"type": "occ",
				"energy": -0.32878,
				"method": "rhf"
			},
			{
				"type": "occ",
				"energy": -0.32819,
				"method": "rhf"
			},
			{
				"type": "occ",
				"energy": -0.29462,
				"method": "rhf"
			},
			{
				"type": "occ",
				"energy": -0.26021,
				"method": "rhf"
			},
			{
				"type": "unocc",
				"energy": 0.01741,
				"method": "rhf"
			},
			{
				"type": "unocc",
				"energy": 0.08413,
				"method": "rhf"
			},
			{
				"type": "unocc",
				"energy": 0.10459,
				"method": "rhf"
			},
			{
				"type": "unocc",
				"energy": 0.12623,
				"method": "rhf"
			},
			{
				"type": "unocc",
				"energy": 0.13695,
				"method": "rhf"
			}
		],
		"cosmo_sigma_profile": { 
			"-0.025": 0.0,
			"-0.024": 0.0,
			"-0.023": 0.0,
			"-0.022": 0.0,
			"-0.021": 0.0,
			"-0.02": 0.0,
			"-0.019": 0.0,
			"-0.018": 0.0,
			"-0.017": 0.0,
			"-0.016": 0.0,
			"-0.015": 0.0,
			"-0.014": 0.0,
			"-0.013": 0.0,
			"-0.012": 0.0,
			"-0.011": 0.0,
			"-0.01": 0.0,
			"-0.009": 0.0,
			"-0.008": 0.0,
			"-0.007": 0.0,
			"-0.006": 0.0225948056114,
			"-0.005": 4.01289182799,
			"-0.004": 16.0280355459,
			"-0.003": 33.4090321057,
			"-0.002": 27.0591391453,
			"-0.001": 24.7683248524,
			"0.0": 28.6757753706,
			"0.001": 23.1494862431,
			"0.002": 6.79105411054,
			"0.003": 4.36430015845,
			"0.004": 4.16021678574,
			"0.005": 3.60890317537,
			"0.006": 2.03565906435,
			"0.007": 2.90125484504,
			"0.008": 1.6705553786,
			"0.009": 1.69370042752,
			"0.01": 1.57109974741,
			"0.011": 2.33698209734,
			"0.012": 4.60063881797,
			"0.013": 1.91428718006,
			"0.014": 0.0,
			"0.015": 0.0,
			"0.016": 0.0,
			"0.017": 0.0,
			"0.018": 0.0,
			"0.019": 0.0,
			"0.02": 0.0,
			"0.021": 0.0,
			"0.022": 0.0,
			"0.023": 0.0,
			"0.024": 0.0,
			"0.025": 0.0
		}
	}
}
