{
	 "smiles": "ClC1=C(Cl)N=C2C=C(C=CC2=N1)S(Cl)(=O)=O", 
	 "Tm": 362.15, 
	 "num_atms": 19, 
	 "gaussian": { 
		 "optdone": 1, 
		 "sigma_profile": "yes", 
		 "theory": "DFT", 
		 "functional": "B3LYP", 
		 "basiset": "6-31G**", 
		 "properties": { 
			 "R2extent": 7348.6465, 
			 "electric_dipole_moment_norm": 3.23075514547, 
			 "electric_quadrupole_moment_norm": 12.5895858637, 
			 "total_energy": -2345.29558498, 
			 "HOMO_LUMO_gap": 0.16993, 
			 "cosmo_polarized_energy": -10.2, 
			 "cosmo_cavitation_energy": 31.85, 
			 "cosmo_dispersion_energy": -24.32, 
			 "cosmo_repulsion_energy": 1.85, 
			 "cosmo_total_nonelectrostatic_energy": 9.37, 
			 "SMD_solvation_energy": 0.52 
		},
		"coords": [
			{
				"x": 4.2894820593,
				"y": -2.4326550493,
				"z": 1.4340667193,
				"element": "Cl" 
			},
			{
				"x": 2.7285024438,
				"y": -1.6673962375,
				"z": 1.3484163693,
				"element": "C" 
			},
			{
				"x": 1.8330569175,
				"y": -1.6960216239,
				"z": 2.4834369537,
				"element": "C" 
			},
			{
				"x": 2.2970516925,
				"y": -2.4943215095,
				"z": 3.9592154102,
				"element": "Cl" 
			},
			{
				"x": 0.6654156312,
				"y": -1.1315998924,
				"z": 2.4385943711,
				"element": "N" 
			},
			{
				"x": 0.2983401455,
				"y": -0.5057433787,
				"z": 1.2830426386,
				"element": "C" 
			},
			{
				"x": -0.9683007972,
				"y": 0.117529527,
				"z": 1.1982982395,
				"element": "C" 
			},
			{
				"x": -1.3025529447,
				"y": 0.7417337256,
				"z": 0.016443021,
				"element": "C" 
			},
			{
				"x": -0.4413522873,
				"y": 0.7906663597,
				"z": -1.1057093878,
				"element": "C" 
			},
			{
				"x": 0.7918351182,
				"y": 0.1829734846,
				"z": -1.0286941989,
				"element": "C" 
			},
			{
				"x": 1.1803800979,
				"y": -0.4749338069,
				"z": 0.1640863005,
				"element": "C" 
			},
			{
				"x": 2.4032469972,
				"y": -1.0762812845,
				"z": 0.2392599495,
				"element": "N" 
			},
			{
				"x": -2.8954369408,
				"y": 1.5568766337,
				"z": -0.0948602644,
				"element": "S" 
			},
			{
				"x": -4.0568218811,
				"y": 0.0393451453,
				"z": -1.0307395721,
				"element": "Cl" 
			},
			{
				"x": -2.7995503464,
				"y": 2.6490759096,
				"z": -1.0542614825,
				"element": "O" 
			},
			{
				"x": -3.4417235981,
				"y": 1.7328104761,
				"z": 1.2434259494,
				"element": "O" 
			},
			{
				"x": -1.6370933164,
				"y": 0.097611717,
				"z": 2.050841673,
				"element": "H" 
			},
			{
				"x": -0.7567654194,
				"y": 1.3116079695,
				"z": -2.0024444308,
				"element": "H" 
			},
			{
				"x": 1.4869864282,
				"y": 0.1965218346,
				"z": -1.8608182588,
				"element": "H" 
			}
		],
		 "valence_orbital": [ 
			{
				"type": "occ",
				"energy": -0.32546,
				"method": "rhf"
			},
			{
				"type": "occ",
				"energy": -0.32486,
				"method": "rhf"
			},
			{
				"type": "occ",
				"energy": -0.30309,
				"method": "rhf"
			},
			{
				"type": "occ",
				"energy": -0.29279,
				"method": "rhf"
			},
			{
				"type": "occ",
				"energy": -0.29017,
				"method": "rhf"
			},
			{
				"type": "unocc",
				"energy": -0.12024,
				"method": "rhf"
			},
			{
				"type": "unocc",
				"energy": -0.09706,
				"method": "rhf"
			},
			{
				"type": "unocc",
				"energy": -0.07099,
				"method": "rhf"
			},
			{
				"type": "unocc",
				"energy": -0.04013,
				"method": "rhf"
			},
			{
				"type": "unocc",
				"energy": -0.00815,
				"method": "rhf"
			}
		],
		"cosmo_sigma_profile": { 
			"-0.025": 0.0,
			"-0.024": 0.0,
			"-0.023": 0.0,
			"-0.022": 0.0,
			"-0.021": 0.0,
			"-0.02": 0.0,
			"-0.019": 0.0,
			"-0.018": 0.0,
			"-0.017": 0.0,
			"-0.016": 0.0,
			"-0.015": 0.0,
			"-0.014": 0.0,
			"-0.013": 0.0,
			"-0.012": 0.0,
			"-0.011": 0.0,
			"-0.01": 0.349627613713,
			"-0.009": 4.12365840095,
			"-0.008": 7.31926684805,
			"-0.007": 8.52198253368,
			"-0.006": 10.8399657431,
			"-0.005": 10.6279801573,
			"-0.004": 16.2882611578,
			"-0.003": 19.9970819426,
			"-0.002": 23.1680769739,
			"-0.001": 21.2972852863,
			"0.0": 18.8805137766,
			"0.001": 19.9524497656,
			"0.002": 28.3753031398,
			"0.003": 29.5809852206,
			"0.004": 9.13541924978,
			"0.005": 5.6280481746,
			"0.006": 5.82006984605,
			"0.007": 10.1253473206,
			"0.008": 10.7026274903,
			"0.009": 3.10381203762,
			"0.01": 1.40239175933,
			"0.011": 0.433437934876,
			"0.012": 0.0,
			"0.013": 0.0,
			"0.014": 0.0,
			"0.015": 0.0,
			"0.016": 0.0,
			"0.017": 0.0,
			"0.018": 0.0,
			"0.019": 0.0,
			"0.02": 0.0,
			"0.021": 0.0,
			"0.022": 0.0,
			"0.023": 0.0,
			"0.024": 0.0,
			"0.025": 0.0
		}
	}
}
