{
	 "smiles": "COC(=O)C1=CN=C(SCC(=O)NC(=O)NC2=CC=CC=C2)N1C", 
	 "Tm": 477.15, 
	 "num_atms": 40, 
	 "gaussian": { 
		 "optdone": 1, 
		 "sigma_profile": "yes", 
		 "theory": "DFT", 
		 "functional": "B3LYP", 
		 "basiset": "6-31G**", 
		 "properties": { 
			 "R2extent": 14426.4123, 
			 "electric_dipole_moment_norm": 7.00004124702, 
			 "electric_quadrupole_moment_norm": 25.8907107382, 
			 "total_energy": -1499.38434727, 
			 "HOMO_LUMO_gap": 0.16239, 
			 "cosmo_polarized_energy": -19.52, 
			 "cosmo_cavitation_energy": 46.7, 
			 "cosmo_dispersion_energy": -33.58, 
			 "cosmo_repulsion_energy": 2.48, 
			 "cosmo_total_nonelectrostatic_energy": 15.61, 
			 "SMD_solvation_energy": 9.91 
		},
		"coords": [
			{
				"x": 0.0054817155,
				"y": -7.2994987548,
				"z": -1.8467184237,
				"element": "C" 
			},
			{
				"x": -0.4936543916,
				"y": -5.9496675907,
				"z": -1.8629613882,
				"element": "O" 
			},
			{
				"x": -0.2862073761,
				"y": -5.2510924948,
				"z": -0.7184814618,
				"element": "C" 
			},
			{
				"x": 0.2712687251,
				"y": -5.7131526999,
				"z": 0.2571863877,
				"element": "O" 
			},
			{
				"x": -0.7914770363,
				"y": -3.8770941523,
				"z": -0.7747290276,
				"element": "C" 
			},
			{
				"x": -0.643870611,
				"y": -2.9239171542,
				"z": 0.2098481131,
				"element": "C" 
			},
			{
				"x": -1.1962734801,
				"y": -1.7390837738,
				"z": -0.1782440603,
				"element": "N" 
			},
			{
				"x": -1.692250231,
				"y": -1.9609181061,
				"z": -1.3910652817,
				"element": "C" 
			},
			{
				"x": -2.5171679926,
				"y": -0.7522781323,
				"z": -2.384421536,
				"element": "S" 
			},
			{
				"x": -3.0384859096,
				"y": 0.4360583334,
				"z": -1.0763544531,
				"element": "C" 
			},
			{
				"x": -2.0277074096,
				"y": 1.5483522026,
				"z": -0.7919756954,
				"element": "C" 
			},
			{
				"x": -2.2530255166,
				"y": 2.6949539283,
				"z": -1.1779382027,
				"element": "O" 
			},
			{
				"x": -0.9282574269,
				"y": 1.1601342658,
				"z": -0.0813599378,
				"element": "N" 
			},
			{
				"x": 0.1933665946,
				"y": 1.9339517368,
				"z": 0.3381138001,
				"element": "C" 
			},
			{
				"x": 1.0885754214,
				"y": 1.3727062724,
				"z": 0.9512668157,
				"element": "O" 
			},
			{
				"x": 0.1252691248,
				"y": 3.2521795214,
				"z": -0.0039245309,
				"element": "N" 
			},
			{
				"x": 1.0699257217,
				"y": 4.2610228098,
				"z": 0.2714424403,
				"element": "C" 
			},
			{
				"x": 0.7686026006,
				"y": 5.5527989461,
				"z": -0.1915560153,
				"element": "C" 
			},
			{
				"x": 1.6479083294,
				"y": 6.6069094001,
				"z": 0.0383446481,
				"element": "C" 
			},
			{
				"x": 2.8405074349,
				"y": 6.3921906986,
				"z": 0.7324131597,
				"element": "C" 
			},
			{
				"x": 3.1371597083,
				"y": 5.1082034797,
				"z": 1.1910455998,
				"element": "C" 
			},
			{
				"x": 2.2675171533,
				"y": 4.0397625291,
				"z": 0.9695591558,
				"element": "C" 
			},
			{
				"x": -1.484961726,
				"y": -3.2400486957,
				"z": -1.8117601826,
				"element": "N" 
			},
			{
				"x": -1.9247295845,
				"y": -3.805704169,
				"z": -3.0851820563,
				"element": "C" 
			},
			{
				"x": -0.2398336353,
				"y": -7.7137654392,
				"z": -2.8244014437,
				"element": "H" 
			},
			{
				"x": -0.4733045001,
				"y": -7.8762607924,
				"z": -1.0520435023,
				"element": "H" 
			},
			{
				"x": 1.0859233519,
				"y": -7.3057053827,
				"z": -1.6858552074,
				"element": "H" 
			},
			{
				"x": -0.153054456,
				"y": -3.0474753431,
				"z": 1.1639117783,
				"element": "H" 
			},
			{
				"x": -3.2732102584,
				"y": -0.1370744477,
				"z": -0.1769343298,
				"element": "H" 
			},
			{
				"x": -3.9396081819,
				"y": 0.9123952024,
				"z": -1.4633920781,
				"element": "H" 
			},
			{
				"x": -0.845063271,
				"y": 0.161490601,
				"z": 0.1474189786,
				"element": "H" 
			},
			{
				"x": -0.7136192787,
				"y": 3.5152112445,
				"z": -0.5213858014,
				"element": "H" 
			},
			{
				"x": -0.1587811334,
				"y": 5.7250534077,
				"z": -0.7323921802,
				"element": "H" 
			},
			{
				"x": 1.39757519,
				"y": 7.5987733649,
				"z": -0.3273368851,
				"element": "H" 
			},
			{
				"x": 3.5272055379,
				"y": 7.2137833693,
				"z": 0.9124232981,
				"element": "H" 
			},
			{
				"x": 4.0615405359,
				"y": 4.9266362213,
				"z": 1.7325451881,
				"element": "H" 
			},
			{
				"x": 2.4992290938,
				"y": 3.046002994,
				"z": 1.3255512539,
				"element": "H" 
			},
			{
				"x": -2.6809176041,
				"y": -3.1464074422,
				"z": -3.5135357581,
				"element": "H" 
			},
			{
				"x": -2.3525867512,
				"y": -4.7927165399,
				"z": -2.9196372941,
				"element": "H" 
			},
			{
				"x": -1.0853084773,
				"y": -3.8977094184,
				"z": -3.7786838836,
				"element": "H" 
			}
		],
		 "valence_orbital": [ 
			{
				"type": "occ",
				"energy": -0.27851,
				"method": "rhf"
			},
			{
				"type": "occ",
				"energy": -0.2633,
				"method": "rhf"
			},
			{
				"type": "occ",
				"energy": -0.24021,
				"method": "rhf"
			},
			{
				"type": "occ",
				"energy": -0.23552,
				"method": "rhf"
			},
			{
				"type": "occ",
				"energy": -0.20933,
				"method": "rhf"
			},
			{
				"type": "unocc",
				"energy": -0.04694,
				"method": "rhf"
			},
			{
				"type": "unocc",
				"energy": -0.0378,
				"method": "rhf"
			},
			{
				"type": "unocc",
				"energy": 0.00097,
				"method": "rhf"
			},
			{
				"type": "unocc",
				"energy": 0.00956,
				"method": "rhf"
			},
			{
				"type": "unocc",
				"energy": 0.01727,
				"method": "rhf"
			}
		],
		"cosmo_sigma_profile": { 
			"-0.025": 0.0,
			"-0.024": 0.0,
			"-0.023": 0.0,
			"-0.022": 0.0,
			"-0.021": 0.0,
			"-0.02": 0.0,
			"-0.019": 0.0,
			"-0.018": 0.0,
			"-0.017": 0.0,
			"-0.016": 0.0,
			"-0.015": 0.0,
			"-0.014": 0.0,
			"-0.013": 0.0,
			"-0.012": 0.0,
			"-0.011": 0.0,
			"-0.01": 0.0559077073708,
			"-0.009": 3.00514406524,
			"-0.008": 6.15872117103,
			"-0.007": 9.65068811613,
			"-0.006": 23.305887939,
			"-0.005": 29.5933105479,
			"-0.004": 34.1060920255,
			"-0.003": 35.3776616159,
			"-0.002": 27.463623097,
			"-0.001": 25.8631998241,
			"0.0": 24.8576896214,
			"0.001": 27.623029396,
			"0.002": 22.9854945396,
			"0.003": 21.4380462884,
			"0.004": 18.1537114654,
			"0.005": 16.0237380465,
			"0.006": 12.0402064497,
			"0.007": 4.48542435328,
			"0.008": 4.29185332652,
			"0.009": 4.5385529007,
			"0.01": 6.26353452055,
			"0.011": 6.4024859159,
			"0.012": 9.58992505882,
			"0.013": 2.70895182973,
			"0.014": 0.0405428874301,
			"0.015": 0.0,
			"0.016": 0.0,
			"0.017": 0.0,
			"0.018": 0.0,
			"0.019": 0.0,
			"0.02": 0.0,
			"0.021": 0.0,
			"0.022": 0.0,
			"0.023": 0.0,
			"0.024": 0.0,
			"0.025": 0.0
		}
	}
}
