{
	 "smiles": "CC(C)(C)OC(=O)NC1CCNC1", 
	 "Tm": 340.15, 
	 "num_atms": 31, 
	 "gaussian": { 
		 "optdone": 1, 
		 "sigma_profile": "yes", 
		 "theory": "DFT", 
		 "functional": "B3LYP", 
		 "basiset": "6-31G**", 
		 "properties": { 
			 "R2extent": 3950.8835, 
			 "electric_dipole_moment_norm": 2.41666809885, 
			 "electric_quadrupole_moment_norm": 15.5138968251, 
			 "total_energy": -613.785353834, 
			 "HOMO_LUMO_gap": 0.27583, 
			 "cosmo_polarized_energy": -12.02, 
			 "cosmo_cavitation_energy": 32.03, 
			 "cosmo_dispersion_energy": -22.4, 
			 "cosmo_repulsion_energy": 1.8, 
			 "cosmo_total_nonelectrostatic_energy": 11.44, 
			 "SMD_solvation_energy": 2.86 
		},
		"coords": [
			{
				"x": -2.823817656,
				"y": 0.498115272,
				"z": -2.581677723,
				"element": "C" 
			},
			{
				"x": -1.9678123956,
				"y": -0.5014178921,
				"z": -1.7962312656,
				"element": "C" 
			},
			{
				"x": -0.6482437333,
				"y": -0.774342955,
				"z": -2.523293656,
				"element": "C" 
			},
			{
				"x": -2.7140299432,
				"y": -1.8103950146,
				"z": -1.5163544522,
				"element": "C" 
			},
			{
				"x": -1.5179918501,
				"y": 0.1037508635,
				"z": -0.533386998,
				"element": "O" 
			},
			{
				"x": -2.4147697076,
				"y": 0.4796696953,
				"z": 0.4128720202,
				"element": "C" 
			},
			{
				"x": -3.6306427798,
				"y": 0.4026453244,
				"z": 0.325235763,
				"element": "O" 
			},
			{
				"x": -1.7750382187,
				"y": 0.9580408134,
				"z": 1.5249772471,
				"element": "N" 
			},
			{
				"x": -0.3512522716,
				"y": 1.2119229426,
				"z": 1.6670299665,
				"element": "C" 
			},
			{
				"x": 0.0987761523,
				"y": 1.2763937937,
				"z": 3.1463999827,
				"element": "C" 
			},
			{
				"x": 1.2385046283,
				"y": 2.3412607541,
				"z": 3.1579577309,
				"element": "C" 
			},
			{
				"x": 1.4398371521,
				"y": 2.8064036278,
				"z": 1.7681689074,
				"element": "N" 
			},
			{
				"x": 0.1611334699,
				"y": 2.5595229796,
				"z": 1.0988085989,
				"element": "C" 
			},
			{
				"x": -3.0607909379,
				"y": 0.0846067761,
				"z": -3.5674722307,
				"element": "H" 
			},
			{
				"x": -3.7532537924,
				"y": 0.7121998875,
				"z": -2.0540721153,
				"element": "H" 
			},
			{
				"x": -2.2751379514,
				"y": 1.4339129922,
				"z": -2.7293525454,
				"element": "H" 
			},
			{
				"x": -0.0193631642,
				"y": -1.4545539852,
				"z": -1.9412207476,
				"element": "H" 
			},
			{
				"x": -0.0951752078,
				"y": 0.1560190779,
				"z": -2.6831919961,
				"element": "H" 
			},
			{
				"x": -0.8433422654,
				"y": -1.2320960489,
				"z": -3.4976418985,
				"element": "H" 
			},
			{
				"x": -3.6438538109,
				"y": -1.6210934949,
				"z": -0.979834598,
				"element": "H" 
			},
			{
				"x": -2.9450434102,
				"y": -2.3113701882,
				"z": -2.4621591739,
				"element": "H" 
			},
			{
				"x": -2.0897252795,
				"y": -2.4831660647,
				"z": -0.9195756243,
				"element": "H" 
			},
			{
				"x": -2.4093808703,
				"y": 1.3420317456,
				"z": 2.2103901732,
				"element": "H" 
			},
			{
				"x": 0.1744073026,
				"y": 0.4021426374,
				"z": 1.1536899737,
				"element": "H" 
			},
			{
				"x": 0.4243750046,
				"y": 0.2993953515,
				"z": 3.513570634,
				"element": "H" 
			},
			{
				"x": -0.7357565161,
				"y": 1.5946063265,
				"z": 3.7828606031,
				"element": "H" 
			},
			{
				"x": 0.9468850343,
				"y": 3.1963110267,
				"z": 3.7793415671,
				"element": "H" 
			},
			{
				"x": 2.1772200647,
				"y": 1.956076669,
				"z": 3.5655134551,
				"element": "H" 
			},
			{
				"x": 2.1501104971,
				"y": 2.2253528194,
				"z": 1.328391605,
				"element": "H" 
			},
			{
				"x": -0.5495796059,
				"y": 3.3571788384,
				"z": 1.3581945035,
				"element": "H" 
			},
			{
				"x": 0.2728520618,
				"y": 2.5502754287,
				"z": 0.0116622934,
				"element": "H" 
			}
		],
		 "valence_orbital": [ 
			{
				"type": "occ",
				"energy": -0.32658,
				"method": "rhf"
			},
			{
				"type": "occ",
				"energy": -0.28522,
				"method": "rhf"
			},
			{
				"type": "occ",
				"energy": -0.25963,
				"method": "rhf"
			},
			{
				"type": "occ",
				"energy": -0.25524,
				"method": "rhf"
			},
			{
				"type": "occ",
				"energy": -0.22018,
				"method": "rhf"
			},
			{
				"type": "unocc",
				"energy": 0.05565,
				"method": "rhf"
			},
			{
				"type": "unocc",
				"energy": 0.0687,
				"method": "rhf"
			},
			{
				"type": "unocc",
				"energy": 0.08375,
				"method": "rhf"
			},
			{
				"type": "unocc",
				"energy": 0.08692,
				"method": "rhf"
			},
			{
				"type": "unocc",
				"energy": 0.10539,
				"method": "rhf"
			}
		],
		"cosmo_sigma_profile": { 
			"-0.025": 0.0,
			"-0.024": 0.0,
			"-0.023": 0.0,
			"-0.022": 0.0,
			"-0.021": 0.0,
			"-0.02": 0.0,
			"-0.019": 0.0,
			"-0.018": 0.0,
			"-0.017": 0.0,
			"-0.016": 0.0,
			"-0.015": 0.0,
			"-0.014": 0.0104488124415,
			"-0.013": 0.706724352229,
			"-0.012": 0.931671584715,
			"-0.011": 1.04383043341,
			"-0.01": 2.32506018023,
			"-0.009": 2.60506549239,
			"-0.008": 2.55381904324,
			"-0.007": 3.48590930021,
			"-0.006": 3.2229270005,
			"-0.005": 4.80636378171,
			"-0.004": 19.4623998152,
			"-0.003": 30.4852441917,
			"-0.002": 30.2382021174,
			"-0.001": 26.8885427716,
			"0.0": 35.3326866146,
			"0.001": 25.0573570388,
			"0.002": 10.3438843312,
			"0.003": 8.38803385237,
			"0.004": 6.26923677536,
			"0.005": 5.92769966315,
			"0.006": 3.90351049151,
			"0.007": 1.92334655662,
			"0.008": 2.41424860854,
			"0.009": 2.22106392881,
			"0.01": 1.96739440548,
			"0.011": 2.38749446555,
			"0.012": 2.67846160114,
			"0.013": 3.64379434193,
			"0.014": 3.04308805481,
			"0.015": 1.0880206506,
			"0.016": 0.877921334372,
			"0.017": 0.477690147688,
			"0.018": 0.698873068039,
			"0.019": 0.305649754594,
			"0.02": 0.0,
			"0.021": 0.0,
			"0.022": 0.0,
			"0.023": 0.0,
			"0.024": 0.0,
			"0.025": 0.0
		}
	}
}
