{
	 "smiles": "CC1=C(C=C(Cl)C=C1)C(N)=O", 
	 "Tm": 424.15, 
	 "num_atms": 19, 
	 "gaussian": { 
		 "optdone": 1, 
		 "sigma_profile": "yes", 
		 "theory": "DFT", 
		 "functional": "B3LYP", 
		 "basiset": "6-31G**", 
		 "properties": { 
			 "R2extent": 3095.1973, 
			 "electric_dipole_moment_norm": 4.9153599268, 
			 "electric_quadrupole_moment_norm": 13.2819882209, 
			 "total_energy": -899.862601371, 
			 "HOMO_LUMO_gap": 0.20341, 
			 "cosmo_polarized_energy": -13.32, 
			 "cosmo_cavitation_energy": 24.59, 
			 "cosmo_dispersion_energy": -18.34, 
			 "cosmo_repulsion_energy": 1.48, 
			 "cosmo_total_nonelectrostatic_energy": 7.73, 
			 "SMD_solvation_energy": 4.77 
		},
		"coords": [
			{
				"x": -0.1471312351,
				"y": -2.6195993768,
				"z": -0.9095595862,
				"element": "C" 
			},
			{
				"x": 0.7641247895,
				"y": -1.619237724,
				"z": -0.2283150074,
				"element": "C" 
			},
			{
				"x": 0.5293552475,
				"y": -1.0672689432,
				"z": 1.0514037936,
				"element": "C" 
			},
			{
				"x": 1.4026269848,
				"y": -0.0996915982,
				"z": 1.5715993103,
				"element": "C" 
			},
			{
				"x": 2.5253848948,
				"y": 0.2911104173,
				"z": 0.855746151,
				"element": "C" 
			},
			{
				"x": 3.6200788356,
				"y": 1.4865449277,
				"z": 1.5344789679,
				"element": "Cl" 
			},
			{
				"x": 2.7886538242,
				"y": -0.2495380048,
				"z": -0.4015850108,
				"element": "C" 
			},
			{
				"x": 1.9006162142,
				"y": -1.1837721089,
				"z": -0.9267560198,
				"element": "C" 
			},
			{
				"x": -0.6382043803,
				"y": -1.3821446974,
				"z": 1.9587275988,
				"element": "C" 
			},
			{
				"x": -1.1800512118,
				"y": -2.640952717,
				"z": 1.8817789317,
				"element": "N" 
			},
			{
				"x": -1.07791869,
				"y": -0.5488179732,
				"z": 2.7409571822,
				"element": "O" 
			},
			{
				"x": 0.0651376784,
				"y": -3.6512661195,
				"z": -0.5962721519,
				"element": "H" 
			},
			{
				"x": 0.0045768316,
				"y": -2.5881433952,
				"z": -1.9916573796,
				"element": "H" 
			},
			{
				"x": -1.2021573719,
				"y": -2.4275771897,
				"z": -0.7048307979,
				"element": "H" 
			},
			{
				"x": 1.173818762,
				"y": 0.336464213,
				"z": 2.5365376477,
				"element": "H" 
			},
			{
				"x": 3.6622000515,
				"y": 0.0643063593,
				"z": -0.962355953,
				"element": "H" 
			},
			{
				"x": 2.0903222212,
				"y": -1.5844860531,
				"z": -1.9190003706,
				"element": "H" 
			},
			{
				"x": -0.6641666388,
				"y": -3.4061778008,
				"z": 1.4780319685,
				"element": "H" 
			},
			{
				"x": -1.8541668073,
				"y": -2.8631522155,
				"z": 2.6006707254,
				"element": "H" 
			}
		],
		 "valence_orbital": [ 
			{
				"type": "occ",
				"energy": -0.3124,
				"method": "rhf"
			},
			{
				"type": "occ",
				"energy": -0.2766,
				"method": "rhf"
			},
			{
				"type": "occ",
				"energy": -0.27061,
				"method": "rhf"
			},
			{
				"type": "occ",
				"energy": -0.25231,
				"method": "rhf"
			},
			{
				"type": "occ",
				"energy": -0.24588,
				"method": "rhf"
			},
			{
				"type": "unocc",
				"energy": -0.04247,
				"method": "rhf"
			},
			{
				"type": "unocc",
				"energy": -0.01651,
				"method": "rhf"
			},
			{
				"type": "unocc",
				"energy": 0.02854,
				"method": "rhf"
			},
			{
				"type": "unocc",
				"energy": 0.04636,
				"method": "rhf"
			},
			{
				"type": "unocc",
				"energy": 0.07121,
				"method": "rhf"
			}
		],
		"cosmo_sigma_profile": { 
			"-0.025": 0.0,
			"-0.024": 0.0,
			"-0.023": 0.0,
			"-0.022": 0.0,
			"-0.021": 0.0,
			"-0.02": 0.0,
			"-0.019": 0.0,
			"-0.018": 0.0,
			"-0.017": 0.0,
			"-0.016": 0.0,
			"-0.015": 0.00488397119159,
			"-0.014": 1.217615494,
			"-0.013": 2.32018463769,
			"-0.012": 2.87796209704,
			"-0.011": 2.33166000655,
			"-0.01": 2.27619565725,
			"-0.009": 2.73387509111,
			"-0.008": 2.3642245397,
			"-0.007": 4.21540824945,
			"-0.006": 8.49931754496,
			"-0.005": 9.35646032251,
			"-0.004": 9.71009393783,
			"-0.003": 11.7752564512,
			"-0.002": 13.2810152489,
			"-0.001": 17.0034825133,
			"0.0": 14.8622738215,
			"0.001": 16.0875095659,
			"0.002": 16.786039208,
			"0.003": 18.4033215273,
			"0.004": 13.2901605139,
			"0.005": 9.27902369379,
			"0.006": 2.13683801956,
			"0.007": 1.38000627194,
			"0.008": 1.25690740484,
			"0.009": 0.759892003681,
			"0.01": 1.63792146251,
			"0.011": 1.96060683486,
			"0.012": 2.00635588847,
			"0.013": 4.68448938922,
			"0.014": 3.37177580727,
			"0.015": 0.159168779583,
			"0.016": 0.0,
			"0.017": 0.0,
			"0.018": 0.0,
			"0.019": 0.0,
			"0.02": 0.0,
			"0.021": 0.0,
			"0.022": 0.0,
			"0.023": 0.0,
			"0.024": 0.0,
			"0.025": 0.0
		}
	}
}
