{
	 "smiles": "N1C=CC2=CC=CC=C12", 
	 "Tm": 325.15, 
	 "num_atms": 16, 
	 "gaussian": { 
		 "optdone": 1, 
		 "sigma_profile": "yes", 
		 "theory": "DFT", 
		 "functional": "B3LYP", 
		 "basiset": "6-31G**", 
		 "properties": { 
			 "R2extent": 1252.8681, 
			 "electric_dipole_moment_norm": 2.1664861712, 
			 "electric_quadrupole_moment_norm": 8.75400897589, 
			 "total_energy": -363.822331519, 
			 "HOMO_LUMO_gap": 0.19558, 
			 "cosmo_polarized_energy": -8.14, 
			 "cosmo_cavitation_energy": 19.43, 
			 "cosmo_dispersion_energy": -14.93, 
			 "cosmo_repulsion_energy": 1.21, 
			 "cosmo_total_nonelectrostatic_energy": 5.71, 
			 "SMD_solvation_energy": 3.33 
		},
		"coords": [
			{
				"x": 0.295929851,
				"y": -2.2626632605,
				"z": -0.9635735929,
				"element": "N" 
			},
			{
				"x": -0.7844512657,
				"y": -2.1777784421,
				"z": -1.8233163404,
				"element": "C" 
			},
			{
				"x": -1.6737364352,
				"y": -1.2485824966,
				"z": -1.3522541097,
				"element": "C" 
			},
			{
				"x": -1.1269363025,
				"y": -0.7197909384,
				"z": -0.1326530076,
				"element": "C" 
			},
			{
				"x": -1.5524426973,
				"y": 0.2415201931,
				"z": 0.8016563878,
				"element": "C" 
			},
			{
				"x": -0.7509073119,
				"y": 0.5157795121,
				"z": 1.9022387044,
				"element": "C" 
			},
			{
				"x": 0.4764236641,
				"y": -0.1520863412,
				"z": 2.0951231464,
				"element": "C" 
			},
			{
				"x": 0.926246774,
				"y": -1.1074561762,
				"z": 1.1909323478,
				"element": "C" 
			},
			{
				"x": 0.1156844642,
				"y": -1.3806055973,
				"z": 0.083677456,
				"element": "C" 
			},
			{
				"x": 1.0883692396,
				"y": -2.8716834214,
				"z": -1.0830865427,
				"element": "H" 
			},
			{
				"x": -0.8280235421,
				"y": -2.7949867189,
				"z": -2.7094159762,
				"element": "H" 
			},
			{
				"x": -2.6087465377,
				"y": -0.9725736686,
				"z": -1.8185918774,
				"element": "H" 
			},
			{
				"x": -2.4962030922,
				"y": 0.7617677914,
				"z": 0.6625063109,
				"element": "H" 
			},
			{
				"x": -1.0711755524,
				"y": 1.2566201757,
				"z": 2.6291789584,
				"element": "H" 
			},
			{
				"x": 1.081388249,
				"y": 0.0840159951,
				"z": 2.9657403165,
				"element": "H" 
			},
			{
				"x": 1.8718804951,
				"y": -1.6213966062,
				"z": 1.3404378185,
				"element": "H" 
			}
		],
		 "valence_orbital": [ 
			{
				"type": "occ",
				"energy": -0.32892,
				"method": "rhf"
			},
			{
				"type": "occ",
				"energy": -0.3259,
				"method": "rhf"
			},
			{
				"type": "occ",
				"energy": -0.27076,
				"method": "rhf"
			},
			{
				"type": "occ",
				"energy": -0.21543,
				"method": "rhf"
			},
			{
				"type": "occ",
				"energy": -0.19898,
				"method": "rhf"
			},
			{
				"type": "unocc",
				"energy": -0.0034,
				"method": "rhf"
			},
			{
				"type": "unocc",
				"energy": 0.03394,
				"method": "rhf"
			},
			{
				"type": "unocc",
				"energy": 0.0755,
				"method": "rhf"
			},
			{
				"type": "unocc",
				"energy": 0.08184,
				"method": "rhf"
			},
			{
				"type": "unocc",
				"energy": 0.10998,
				"method": "rhf"
			}
		],
		"cosmo_sigma_profile": { 
			"-0.025": 0.0,
			"-0.024": 0.0,
			"-0.023": 0.0,
			"-0.022": 0.0,
			"-0.021": 0.0,
			"-0.02": 0.0,
			"-0.019": 0.0,
			"-0.018": 0.0,
			"-0.017": 0.0,
			"-0.016": 0.193713349154,
			"-0.015": 1.41130580103,
			"-0.014": 1.6334661479,
			"-0.013": 1.12010097337,
			"-0.012": 1.02050644082,
			"-0.011": 1.10960131203,
			"-0.01": 1.34568677901,
			"-0.009": 1.61199213642,
			"-0.008": 2.57786058668,
			"-0.007": 3.90120087736,
			"-0.006": 4.66815571535,
			"-0.005": 9.43263607189,
			"-0.004": 9.60343369084,
			"-0.003": 12.6166795095,
			"-0.002": 11.7267063787,
			"-0.001": 8.85810075354,
			"0.0": 7.24208631462,
			"0.001": 8.03980243069,
			"0.002": 7.37317086947,
			"0.003": 8.01728727803,
			"0.004": 10.492025727,
			"0.005": 12.6859470962,
			"0.006": 13.7612551616,
			"0.007": 12.8799967896,
			"0.008": 2.55697429138,
			"0.009": 0.0,
			"0.01": 0.0,
			"0.011": 0.0,
			"0.012": 0.0,
			"0.013": 0.0,
			"0.014": 0.0,
			"0.015": 0.0,
			"0.016": 0.0,
			"0.017": 0.0,
			"0.018": 0.0,
			"0.019": 0.0,
			"0.02": 0.0,
			"0.021": 0.0,
			"0.022": 0.0,
			"0.023": 0.0,
			"0.024": 0.0,
			"0.025": 0.0
		}
	}
}
