{
	 "smiles": "[O-][N+](=O)C1=C(C=CC(=C1)S(=O)(=O)N1CCOCC1)N1CCOCC1", 
	 "Tm": 428.15, 
	 "num_atms": 43, 
	 "gaussian": { 
		 "optdone": 1, 
		 "sigma_profile": "yes", 
		 "theory": "DFT", 
		 "functional": "B3LYP", 
		 "basiset": "6-31G**", 
		 "properties": { 
			 "R2extent": 12495.1599, 
			 "electric_dipole_moment_norm": 6.19466096167, 
			 "electric_quadrupole_moment_norm": 29.8112786046, 
			 "total_energy": -1558.49710799, 
			 "HOMO_LUMO_gap": 0.13451, 
			 "cosmo_polarized_energy": -23.13, 
			 "cosmo_cavitation_energy": 44.9, 
			 "cosmo_dispersion_energy": -32.6, 
			 "cosmo_repulsion_energy": 2.4, 
			 "cosmo_total_nonelectrostatic_energy": 14.7, 
			 "SMD_solvation_energy": 7.44 
		},
		"coords": [
			{
				"x": 0.8855305539,
				"y": -4.7414652533,
				"z": -1.2134869499,
				"element": "O" 
			},
			{
				"x": 0.2198141346,
				"y": -3.7861755087,
				"z": -0.8070668897,
				"element": "N" 
			},
			{
				"x": -0.9801271843,
				"y": -3.8430638439,
				"z": -0.5362562903,
				"element": "O" 
			},
			{
				"x": 0.9163267523,
				"y": -2.5175412617,
				"z": -0.5652758201,
				"element": "C" 
			},
			{
				"x": 2.074454262,
				"y": -2.1013134819,
				"z": -1.2973632239,
				"element": "C" 
			},
			{
				"x": 2.7717846496,
				"y": -0.9944772376,
				"z": -0.7417771635,
				"element": "C" 
			},
			{
				"x": 2.3236501221,
				"y": -0.3152139927,
				"z": 0.3790248323,
				"element": "C" 
			},
			{
				"x": 1.1347725686,
				"y": -0.7005604298,
				"z": 1.0055641785,
				"element": "C" 
			},
			{
				"x": 0.4427942806,
				"y": -1.808799737,
				"z": 0.5367074164,
				"element": "C" 
			},
			{
				"x": 0.5887165232,
				"y": 0.1481222517,
				"z": 2.4821134375,
				"element": "S" 
			},
			{
				"x": 0.4671779388,
				"y": -0.8112991409,
				"z": 3.5848881115,
				"element": "O" 
			},
			{
				"x": 1.4553062943,
				"y": 1.3300433554,
				"z": 2.6212328738,
				"element": "O" 
			},
			{
				"x": -0.9922347669,
				"y": 0.5718601104,
				"z": 2.0553207244,
				"element": "N" 
			},
			{
				"x": -1.1404409835,
				"y": 1.7362561864,
				"z": 1.1579487707,
				"element": "C" 
			},
			{
				"x": -1.3023203627,
				"y": 3.0372805864,
				"z": 1.9481586483,
				"element": "C" 
			},
			{
				"x": -2.376919985,
				"y": 2.933167695,
				"z": 2.87552018,
				"element": "O" 
			},
			{
				"x": -2.1480580459,
				"y": 1.8911356828,
				"z": 3.8180900506,
				"element": "C" 
			},
			{
				"x": -2.0197861892,
				"y": 0.5377890329,
				"z": 3.1176611654,
				"element": "C" 
			},
			{
				"x": 2.5241225462,
				"y": -2.6693231468,
				"z": -2.4638381599,
				"element": "N" 
			},
			{
				"x": 3.8663948436,
				"y": -2.3457518949,
				"z": -2.9629218633,
				"element": "C" 
			},
			{
				"x": 4.203844831,
				"y": -3.243337779,
				"z": -4.1702269411,
				"element": "C" 
			},
			{
				"x": 3.7103393257,
				"y": -4.5497643523,
				"z": -3.9759123174,
				"element": "O" 
			},
			{
				"x": 2.2828484096,
				"y": -4.5921730629,
				"z": -3.9765888252,
				"element": "C" 
			},
			{
				"x": 1.6733642194,
				"y": -3.2642480702,
				"z": -3.4951979412,
				"element": "C" 
			},
			{
				"x": 3.6671622175,
				"y": -0.636021701,
				"z": -1.2305705212,
				"element": "H" 
			},
			{
				"x": 2.8752962067,
				"y": 0.5357786014,
				"z": 0.7634475388,
				"element": "H" 
			},
			{
				"x": -0.4526811343,
				"y": -2.1644536561,
				"z": 1.0308070108,
				"element": "H" 
			},
			{
				"x": -0.2825801514,
				"y": 1.7904157628,
				"z": 0.4823246011,
				"element": "H" 
			},
			{
				"x": -2.0365809059,
				"y": 1.5570237407,
				"z": 0.5518326936,
				"element": "H" 
			},
			{
				"x": -1.5503644334,
				"y": 3.8644443744,
				"z": 1.2757057228,
				"element": "H" 
			},
			{
				"x": -0.3623998948,
				"y": 3.2704883239,
				"z": 2.4692814154,
				"element": "H" 
			},
			{
				"x": -3.0068522216,
				"y": 1.8902945636,
				"z": 4.4964164261,
				"element": "H" 
			},
			{
				"x": -1.2393882697,
				"y": 2.0987540947,
				"z": 4.4057213847,
				"element": "H" 
			},
			{
				"x": -1.7723364874,
				"y": -0.2573372883,
				"z": 3.8222850195,
				"element": "H" 
			},
			{
				"x": -2.9676361308,
				"y": 0.2881341405,
				"z": 2.6256213569,
				"element": "H" 
			},
			{
				"x": 3.9529022087,
				"y": -1.289221238,
				"z": -3.2670908614,
				"element": "H" 
			},
			{
				"x": 4.584842607,
				"y": -2.525226998,
				"z": -2.1566589934,
				"element": "H" 
			},
			{
				"x": 3.8180177536,
				"y": -2.802728178,
				"z": -5.1034073949,
				"element": "H" 
			},
			{
				"x": 5.2896934633,
				"y": -3.3186629761,
				"z": -4.2714403399,
				"element": "H" 
			},
			{
				"x": 1.9995632768,
				"y": -5.4044928217,
				"z": -3.305925417,
				"element": "H" 
			},
			{
				"x": 1.9059959381,
				"y": -4.8135562142,
				"z": -4.9876492801,
				"element": "H" 
			},
			{
				"x": 0.6601227463,
				"y": -3.4268354256,
				"z": -3.1405095596,
				"element": "H" 
			},
			{
				"x": 1.599068473,
				"y": -2.5514438125,
				"z": -4.3302088065,
				"element": "H" 
			}
		],
		 "valence_orbital": [ 
			{
				"type": "occ",
				"energy": -0.28442,
				"method": "rhf"
			},
			{
				"type": "occ",
				"energy": -0.28235,
				"method": "rhf"
			},
			{
				"type": "occ",
				"energy": -0.26836,
				"method": "rhf"
			},
			{
				"type": "occ",
				"energy": -0.23953,
				"method": "rhf"
			},
			{
				"type": "occ",
				"energy": -0.22657,
				"method": "rhf"
			},
			{
				"type": "unocc",
				"energy": -0.09206,
				"method": "rhf"
			},
			{
				"type": "unocc",
				"energy": -0.04226,
				"method": "rhf"
			},
			{
				"type": "unocc",
				"energy": -0.0209,
				"method": "rhf"
			},
			{
				"type": "unocc",
				"energy": 0.05449,
				"method": "rhf"
			},
			{
				"type": "unocc",
				"energy": 0.06769,
				"method": "rhf"
			}
		],
		"cosmo_sigma_profile": { 
			"-0.025": 0.0,
			"-0.024": 0.0,
			"-0.023": 0.0,
			"-0.022": 0.0,
			"-0.021": 0.0,
			"-0.02": 0.0,
			"-0.019": 0.0,
			"-0.018": 0.0,
			"-0.017": 0.0,
			"-0.016": 0.0,
			"-0.015": 0.0,
			"-0.014": 0.0,
			"-0.013": 0.0,
			"-0.012": 0.0,
			"-0.011": 0.0,
			"-0.01": 0.164100521198,
			"-0.009": 0.996650333482,
			"-0.008": 3.85822591106,
			"-0.007": 8.89467674266,
			"-0.006": 28.2452575657,
			"-0.005": 45.2164188202,
			"-0.004": 37.7695884262,
			"-0.003": 32.8322163225,
			"-0.002": 24.3409010719,
			"-0.001": 20.7359124246,
			"0.0": 20.4019769788,
			"0.001": 15.9400858624,
			"0.002": 14.0791627434,
			"0.003": 9.50586391834,
			"0.004": 8.91180555735,
			"0.005": 7.57719011552,
			"0.006": 8.76902089323,
			"0.007": 12.2901199614,
			"0.008": 13.6098243945,
			"0.009": 9.6980080261,
			"0.01": 10.9891938952,
			"0.011": 9.83573328307,
			"0.012": 5.86222661369,
			"0.013": 3.28755057349,
			"0.014": 0.186486684004,
			"0.015": 0.0,
			"0.016": 0.0,
			"0.017": 0.0,
			"0.018": 0.0,
			"0.019": 0.0,
			"0.02": 0.0,
			"0.021": 0.0,
			"0.022": 0.0,
			"0.023": 0.0,
			"0.024": 0.0,
			"0.025": 0.0
		}
	}
}
