{
	 "smiles": "OC1=C(F)C=CC=C1F", 
	 "Tm": 311.95, 
	 "num_atms": 13, 
	 "gaussian": { 
		 "optdone": 1, 
		 "sigma_profile": "yes", 
		 "theory": "DFT", 
		 "functional": "B3LYP", 
		 "basiset": "6-31G**", 
		 "properties": { 
			 "R2extent": 1456.3059, 
			 "electric_dipole_moment_norm": 1.86438173398, 
			 "electric_quadrupole_moment_norm": 7.20698004437, 
			 "total_energy": -505.927677165, 
			 "HOMO_LUMO_gap": 0.22754, 
			 "cosmo_polarized_energy": -6.28, 
			 "cosmo_cavitation_energy": 18.24, 
			 "cosmo_dispersion_energy": -13.57, 
			 "cosmo_repulsion_energy": 1.07, 
			 "cosmo_total_nonelectrostatic_energy": 5.74, 
			 "SMD_solvation_energy": 4.57 
		},
		"coords": [
			{
				"x": -1.1178804834,
				"y": 0.3591165439,
				"z": 2.7625468087,
				"element": "O" 
			},
			{
				"x": -0.531279172,
				"y": 0.6992043601,
				"z": 1.5864880643,
				"element": "C" 
			},
			{
				"x": 0.8254419626,
				"y": 0.4841833345,
				"z": 1.3341919758,
				"element": "C" 
			},
			{
				"x": 1.5333204862,
				"y": -0.0913272673,
				"z": 2.3440500679,
				"element": "F" 
			},
			{
				"x": 1.4385132038,
				"y": 0.8258353801,
				"z": 0.1391982881,
				"element": "C" 
			},
			{
				"x": 0.6603132606,
				"y": 1.4137679899,
				"z": -0.8605813603,
				"element": "C" 
			},
			{
				"x": -0.7008687625,
				"y": 1.6464763934,
				"z": -0.6493605978,
				"element": "C" 
			},
			{
				"x": -1.2788474664,
				"y": 1.2896936111,
				"z": 0.5626002443,
				"element": "C" 
			},
			{
				"x": -2.5883269928,
				"y": 1.5083435684,
				"z": 0.7784931733,
				"element": "F" 
			},
			{
				"x": -0.4326293121,
				"y": -0.0296694027,
				"z": 3.3256912524,
				"element": "H" 
			},
			{
				"x": 2.4969590448,
				"y": 0.6312634537,
				"z": 0.0084640879,
				"element": "H" 
			},
			{
				"x": 1.1148390577,
				"y": 1.6910119368,
				"z": -1.8054437309,
				"element": "H" 
			},
			{
				"x": -1.3267548266,
				"y": 2.1013000982,
				"z": -1.4090382739,
				"element": "H" 
			}
		],
		 "valence_orbital": [ 
			{
				"type": "occ",
				"energy": -0.36982,
				"method": "rhf"
			},
			{
				"type": "occ",
				"energy": -0.36792,
				"method": "rhf"
			},
			{
				"type": "occ",
				"energy": -0.34406,
				"method": "rhf"
			},
			{
				"type": "occ",
				"energy": -0.2519,
				"method": "rhf"
			},
			{
				"type": "occ",
				"energy": -0.23143,
				"method": "rhf"
			},
			{
				"type": "unocc",
				"energy": -0.00389,
				"method": "rhf"
			},
			{
				"type": "unocc",
				"energy": -0.00206,
				"method": "rhf"
			},
			{
				"type": "unocc",
				"energy": 0.04971,
				"method": "rhf"
			},
			{
				"type": "unocc",
				"energy": 0.097,
				"method": "rhf"
			},
			{
				"type": "unocc",
				"energy": 0.14045,
				"method": "rhf"
			}
		],
		"cosmo_sigma_profile": { 
			"-0.025": 0.0,
			"-0.024": 0.0,
			"-0.023": 0.0,
			"-0.022": 0.0,
			"-0.021": 0.0,
			"-0.02": 0.0,
			"-0.019": 0.0,
			"-0.018": 0.0,
			"-0.017": 0.32746445165,
			"-0.016": 0.81031118919,
			"-0.015": 0.625840426989,
			"-0.014": 0.854928747232,
			"-0.013": 0.356980234939,
			"-0.012": 0.728174183334,
			"-0.011": 1.22242036356,
			"-0.01": 0.986571168022,
			"-0.009": 0.840822066583,
			"-0.008": 2.17042419068,
			"-0.007": 5.55521702348,
			"-0.006": 6.17077578804,
			"-0.005": 7.88122453693,
			"-0.004": 5.95503539149,
			"-0.003": 6.07085081649,
			"-0.002": 5.70627769474,
			"-0.001": 6.67098502762,
			"0.0": 14.8113968181,
			"0.001": 15.9470375332,
			"0.002": 12.6826564828,
			"0.003": 15.5949124023,
			"0.004": 20.2488966125,
			"0.005": 4.23427598523,
			"0.006": 2.10534260807,
			"0.007": 1.78147527251,
			"0.008": 2.26155140645,
			"0.009": 1.55214213051,
			"0.01": 2.27928089428,
			"0.011": 0.430726411987,
			"0.012": 0.0,
			"0.013": 0.0,
			"0.014": 0.0,
			"0.015": 0.0,
			"0.016": 0.0,
			"0.017": 0.0,
			"0.018": 0.0,
			"0.019": 0.0,
			"0.02": 0.0,
			"0.021": 0.0,
			"0.022": 0.0,
			"0.023": 0.0,
			"0.024": 0.0,
			"0.025": 0.0
		}
	}
}
