{
	 "smiles": "CC1=C(F)C=CC(N)=C1", 
	 "Tm": 309.15, 
	 "num_atms": 17, 
	 "gaussian": { 
		 "optdone": 1, 
		 "sigma_profile": "yes", 
		 "theory": "DFT", 
		 "functional": "B3LYP", 
		 "basiset": "6-31G**", 
		 "properties": { 
			 "R2extent": 1892.2895, 
			 "electric_dipole_moment_norm": 2.57074266312, 
			 "electric_quadrupole_moment_norm": 8.66398537337, 
			 "total_energy": -426.160960598, 
			 "HOMO_LUMO_gap": 0.19671, 
			 "cosmo_polarized_energy": -7.9, 
			 "cosmo_cavitation_energy": 20.9, 
			 "cosmo_dispersion_energy": -15.45, 
			 "cosmo_repulsion_energy": 1.25, 
			 "cosmo_total_nonelectrostatic_energy": 6.7, 
			 "SMD_solvation_energy": 4.09 
		},
		"coords": [
			{
				"x": 0.8481409109,
				"y": -1.2949101225,
				"z": -2.0453015977,
				"element": "C" 
			},
			{
				"x": 0.5935183658,
				"y": 0.1055784434,
				"z": -1.5491733518,
				"element": "C" 
			},
			{
				"x": 1.42845493,
				"y": 1.1529860693,
				"z": -1.9433166735,
				"element": "C" 
			},
			{
				"x": 2.4659717485,
				"y": 0.8751119581,
				"z": -2.775855296,
				"element": "F" 
			},
			{
				"x": 1.2361698987,
				"y": 2.4567976664,
				"z": -1.5129737897,
				"element": "C" 
			},
			{
				"x": 0.1745180498,
				"y": 2.7449445915,
				"z": -0.6560186483,
				"element": "C" 
			},
			{
				"x": -0.6916417863,
				"y": 1.724969666,
				"z": -0.232865675,
				"element": "C" 
			},
			{
				"x": -1.797682349,
				"y": 2.0129216087,
				"z": 0.5788817554,
				"element": "N" 
			},
			{
				"x": -0.4639179623,
				"y": 0.4153874931,
				"z": -0.690464542,
				"element": "C" 
			},
			{
				"x": 0.1122562012,
				"y": -1.9946977056,
				"z": -1.6414075214,
				"element": "H" 
			},
			{
				"x": 1.8462203675,
				"y": -1.6427775476,
				"z": -1.7576232241,
				"element": "H" 
			},
			{
				"x": 0.8012641316,
				"y": -1.3422809521,
				"z": -3.1386649419,
				"element": "H" 
			},
			{
				"x": 1.9157079039,
				"y": 3.2336005877,
				"z": -1.8475006814,
				"element": "H" 
			},
			{
				"x": 0.0145522396,
				"y": 3.7655770696,
				"z": -0.3186837891,
				"element": "H" 
			},
			{
				"x": -2.1297656654,
				"y": 1.2312000198,
				"z": 1.1277325668,
				"element": "H" 
			},
			{
				"x": -1.6931980662,
				"y": 2.840428185,
				"z": 1.1506568915,
				"element": "H" 
			},
			{
				"x": -1.1321689184,
				"y": -0.3821370308,
				"z": -0.3726214819,
				"element": "H" 
			}
		],
		 "valence_orbital": [ 
			{
				"type": "occ",
				"energy": -0.36355,
				"method": "rhf"
			},
			{
				"type": "occ",
				"energy": -0.33223,
				"method": "rhf"
			},
			{
				"type": "occ",
				"energy": -0.29369,
				"method": "rhf"
			},
			{
				"type": "occ",
				"energy": -0.24353,
				"method": "rhf"
			},
			{
				"type": "occ",
				"energy": -0.19542,
				"method": "rhf"
			},
			{
				"type": "unocc",
				"energy": 0.00129,
				"method": "rhf"
			},
			{
				"type": "unocc",
				"energy": 0.02413,
				"method": "rhf"
			},
			{
				"type": "unocc",
				"energy": 0.07992,
				"method": "rhf"
			},
			{
				"type": "unocc",
				"energy": 0.10644,
				"method": "rhf"
			},
			{
				"type": "unocc",
				"energy": 0.11617,
				"method": "rhf"
			}
		],
		"cosmo_sigma_profile": { 
			"-0.025": 0.0,
			"-0.024": 0.0,
			"-0.023": 0.0,
			"-0.022": 0.0,
			"-0.021": 0.0,
			"-0.02": 0.0,
			"-0.019": 0.0,
			"-0.018": 0.0,
			"-0.017": 0.0,
			"-0.016": 0.0,
			"-0.015": 0.0,
			"-0.014": 0.0,
			"-0.013": 0.032250361175,
			"-0.012": 1.91060664142,
			"-0.011": 3.11958105856,
			"-0.01": 2.34805804736,
			"-0.009": 3.22825037178,
			"-0.008": 3.39956380971,
			"-0.007": 3.64427329764,
			"-0.006": 6.25989047724,
			"-0.005": 7.45305135559,
			"-0.004": 10.6496177289,
			"-0.003": 11.0176777288,
			"-0.002": 10.410324656,
			"-0.001": 10.4800105505,
			"0.0": 12.4130494782,
			"0.001": 10.8461936449,
			"0.002": 9.07061744781,
			"0.003": 11.164023101,
			"0.004": 11.0419509007,
			"0.005": 18.2557217456,
			"0.006": 11.449618921,
			"0.007": 1.84769465129,
			"0.008": 0.494031162617,
			"0.009": 0.795216339262,
			"0.01": 0.697627498752,
			"0.011": 0.636009434435,
			"0.012": 0.700190256415,
			"0.013": 0.886573026094,
			"0.014": 0.581458612295,
			"0.015": 0.467030170803,
			"0.016": 0.145890255179,
			"0.017": 0.0,
			"0.018": 0.0,
			"0.019": 0.0,
			"0.02": 0.0,
			"0.021": 0.0,
			"0.022": 0.0,
			"0.023": 0.0,
			"0.024": 0.0,
			"0.025": 0.0
		}
	}
}
