{
	 "smiles": "CC1=CC=NC(C)=C1", 
	 "Tm": 211.15, 
	 "num_atms": 17, 
	 "gaussian": { 
		 "optdone": 1, 
		 "sigma_profile": "yes", 
		 "theory": "DFT", 
		 "functional": "B3LYP", 
		 "basiset": "6-31G**", 
		 "properties": { 
			 "R2extent": 1753.0672, 
			 "electric_dipole_moment_norm": 2.31791156, 
			 "electric_quadrupole_moment_norm": 7.51710103231, 
			 "total_energy": -326.93096085, 
			 "HOMO_LUMO_gap": 0.23263, 
			 "cosmo_polarized_energy": -5.83, 
			 "cosmo_cavitation_energy": 20.21, 
			 "cosmo_dispersion_energy": -15.04, 
			 "cosmo_repulsion_energy": 1.25, 
			 "cosmo_total_nonelectrostatic_energy": 6.43, 
			 "SMD_solvation_energy": 2.41 
		},
		"coords": [
			{
				"x": 2.3800680846,
				"y": -1.7462969789,
				"z": 0.6909126286,
				"element": "C" 
			},
			{
				"x": 1.6928045086,
				"y": -0.8839317623,
				"z": -0.3386386783,
				"element": "C" 
			},
			{
				"x": 0.3144682883,
				"y": -0.9918477848,
				"z": -0.5746126089,
				"element": "C" 
			},
			{
				"x": -0.2698142217,
				"y": -0.1733769477,
				"z": -1.5346851112,
				"element": "C" 
			},
			{
				"x": 0.4035429861,
				"y": 0.7283668468,
				"z": -2.2643350422,
				"element": "N" 
			},
			{
				"x": 1.7222220231,
				"y": 0.8404910435,
				"z": -2.0474519682,
				"element": "C" 
			},
			{
				"x": 2.4679754781,
				"y": 1.8593699159,
				"z": -2.8755467429,
				"element": "C" 
			},
			{
				"x": 2.3927031586,
				"y": 0.0538374527,
				"z": -1.0975678939,
				"element": "C" 
			},
			{
				"x": 2.2592298513,
				"y": -2.8101748006,
				"z": 0.4574800126,
				"element": "H" 
			},
			{
				"x": 1.9528098677,
				"y": -1.5861462417,
				"z": 1.6872752039,
				"element": "H" 
			},
			{
				"x": 3.4506757704,
				"y": -1.5318094222,
				"z": 0.7442285355,
				"element": "H" 
			},
			{
				"x": -0.2918619109,
				"y": -1.7020737689,
				"z": -0.0188960442,
				"element": "H" 
			},
			{
				"x": -1.338563055,
				"y": -0.241507621,
				"z": -1.7331432923,
				"element": "H" 
			},
			{
				"x": 2.9492125791,
				"y": 2.6126874169,
				"z": -2.2411099366,
				"element": "H" 
			},
			{
				"x": 1.772593569,
				"y": 2.3615018045,
				"z": -3.549867542,
				"element": "H" 
			},
			{
				"x": 3.2574913282,
				"y": 1.3870784601,
				"z": -3.4715080055,
				"element": "H" 
			},
			{
				"x": 3.4635416946,
				"y": 0.1790323877,
				"z": -0.9554335142,
				"element": "H" 
			}
		],
		 "valence_orbital": [ 
			{
				"type": "occ",
				"energy": -0.36311,
				"method": "rhf"
			},
			{
				"type": "occ",
				"energy": -0.3458,
				"method": "rhf"
			},
			{
				"type": "occ",
				"energy": -0.26728,
				"method": "rhf"
			},
			{
				"type": "occ",
				"energy": -0.24626,
				"method": "rhf"
			},
			{
				"type": "occ",
				"energy": -0.24501,
				"method": "rhf"
			},
			{
				"type": "unocc",
				"energy": -0.01238,
				"method": "rhf"
			},
			{
				"type": "unocc",
				"energy": -0.00454,
				"method": "rhf"
			},
			{
				"type": "unocc",
				"energy": 0.10207,
				"method": "rhf"
			},
			{
				"type": "unocc",
				"energy": 0.12301,
				"method": "rhf"
			},
			{
				"type": "unocc",
				"energy": 0.12792,
				"method": "rhf"
			}
		],
		"cosmo_sigma_profile": { 
			"-0.025": 0.0,
			"-0.024": 0.0,
			"-0.023": 0.0,
			"-0.022": 0.0,
			"-0.021": 0.0,
			"-0.02": 0.0,
			"-0.019": 0.0,
			"-0.018": 0.0,
			"-0.017": 0.0,
			"-0.016": 0.0,
			"-0.015": 0.0,
			"-0.014": 0.0,
			"-0.013": 0.0,
			"-0.012": 0.0,
			"-0.011": 0.0,
			"-0.01": 0.0,
			"-0.009": 0.0,
			"-0.008": 0.0,
			"-0.007": 0.014513501943,
			"-0.006": 3.28072956691,
			"-0.005": 11.1817176816,
			"-0.004": 16.7848423072,
			"-0.003": 19.8714412141,
			"-0.002": 16.8370526527,
			"-0.001": 18.4661003262,
			"0.0": 16.7239486356,
			"0.001": 10.935824897,
			"0.002": 8.39461730796,
			"0.003": 11.2229220748,
			"0.004": 10.3838986594,
			"0.005": 2.69551443452,
			"0.006": 1.92119966916,
			"0.007": 1.30119242945,
			"0.008": 1.63507596647,
			"0.009": 1.32198551002,
			"0.01": 1.11269904595,
			"0.011": 1.0276597193,
			"0.012": 0.864124993253,
			"0.013": 1.00082062217,
			"0.014": 1.20443917306,
			"0.015": 0.575777641458,
			"0.016": 0.639241446636,
			"0.017": 0.576466744243,
			"0.018": 0.0428460378855,
			"0.019": 0.0,
			"0.02": 0.0,
			"0.021": 0.0,
			"0.022": 0.0,
			"0.023": 0.0,
			"0.024": 0.0,
			"0.025": 0.0
		}
	}
}
