{
	 "smiles": "FC1=CC2=C(SC=C2S(Cl)(=O)=O)C=C1", 
	 "Tm": 403.15, 
	 "num_atms": 18, 
	 "gaussian": { 
		 "optdone": 1, 
		 "sigma_profile": "yes", 
		 "theory": "DFT", 
		 "functional": "B3LYP", 
		 "basiset": "6-31G**", 
		 "properties": { 
			 "R2extent": 5189.1076, 
			 "electric_dipole_moment_norm": 5.21005731542, 
			 "electric_quadrupole_moment_norm": 13.539205018, 
			 "total_energy": -1814.03677777, 
			 "HOMO_LUMO_gap": 0.16095, 
			 "cosmo_polarized_energy": -9.28, 
			 "cosmo_cavitation_energy": 28.21, 
			 "cosmo_dispersion_energy": -21.46, 
			 "cosmo_repulsion_energy": 1.56, 
			 "cosmo_total_nonelectrostatic_energy": 8.3, 
			 "SMD_solvation_energy": 3.7 
		},
		"coords": [
			{
				"x": 0.3110811455,
				"y": 2.4845354776,
				"z": 0.5494102583,
				"element": "F" 
			},
			{
				"x": -0.5994361953,
				"y": 1.501601119,
				"z": 0.423360537,
				"element": "C" 
			},
			{
				"x": -0.3326667331,
				"y": 0.4532718658,
				"z": -0.4373855892,
				"element": "C" 
			},
			{
				"x": -1.3023652798,
				"y": -0.5578079185,
				"z": -0.5507317812,
				"element": "C" 
			},
			{
				"x": -2.4927402375,
				"y": -0.4762979626,
				"z": 0.2132387027,
				"element": "C" 
			},
			{
				"x": -3.5491372714,
				"y": -1.8554722541,
				"z": -0.0765897812,
				"element": "S" 
			},
			{
				"x": -2.4304531851,
				"y": -2.5291059715,
				"z": -1.2098443291,
				"element": "C" 
			},
			{
				"x": -1.312608225,
				"y": -1.7602648758,
				"z": -1.3530049941,
				"element": "C" 
			},
			{
				"x": -0.0350401727,
				"y": -2.254629497,
				"z": -2.4670853643,
				"element": "S" 
			},
			{
				"x": -0.3959600587,
				"y": -0.9627684501,
				"z": -4.1261257917,
				"element": "Cl" 
			},
			{
				"x": -0.308168425,
				"y": -3.6084014895,
				"z": -2.9314842312,
				"element": "O" 
			},
			{
				"x": 1.2626301576,
				"y": -1.858584037,
				"z": -1.933671386,
				"element": "O" 
			},
			{
				"x": -2.7330241713,
				"y": 0.5942911172,
				"z": 1.0809682593,
				"element": "C" 
			},
			{
				"x": -1.7748248181,
				"y": 1.5934826049,
				"z": 1.1819095023,
				"element": "C" 
			},
			{
				"x": 0.5977129111,
				"y": 0.4173508127,
				"z": -0.9902003015,
				"element": "H" 
			},
			{
				"x": -2.6408657502,
				"y": -3.4600302418,
				"z": -1.7177633589,
				"element": "H" 
			},
			{
				"x": -3.6464122662,
				"y": 0.6474592013,
				"z": 1.6642650989,
				"element": "H" 
			},
			{
				"x": -1.9130214249,
				"y": 2.4451704993,
				"z": 1.8383345499,
				"element": "H" 
			}
		],
		 "valence_orbital": [ 
			{
				"type": "occ",
				"energy": -0.33773,
				"method": "rhf"
			},
			{
				"type": "occ",
				"energy": -0.31762,
				"method": "rhf"
			},
			{
				"type": "occ",
				"energy": -0.31401,
				"method": "rhf"
			},
			{
				"type": "occ",
				"energy": -0.26666,
				"method": "rhf"
			},
			{
				"type": "occ",
				"energy": -0.25518,
				"method": "rhf"
			},
			{
				"type": "unocc",
				"energy": -0.09423,
				"method": "rhf"
			},
			{
				"type": "unocc",
				"energy": -0.06322,
				"method": "rhf"
			},
			{
				"type": "unocc",
				"energy": -0.02693,
				"method": "rhf"
			},
			{
				"type": "unocc",
				"energy": -0.01626,
				"method": "rhf"
			},
			{
				"type": "unocc",
				"energy": -0.00605,
				"method": "rhf"
			}
		],
		"cosmo_sigma_profile": { 
			"-0.025": 0.0,
			"-0.024": 0.0,
			"-0.023": 0.0,
			"-0.022": 0.0,
			"-0.021": 0.0,
			"-0.02": 0.0,
			"-0.019": 0.0,
			"-0.018": 0.0,
			"-0.017": 0.0,
			"-0.016": 0.0,
			"-0.015": 0.0,
			"-0.014": 0.0,
			"-0.013": 0.0,
			"-0.012": 0.56513453203,
			"-0.011": 1.73677008118,
			"-0.01": 1.57027083308,
			"-0.009": 3.53519728614,
			"-0.008": 6.42635621543,
			"-0.007": 6.03505210608,
			"-0.006": 7.96265884479,
			"-0.005": 8.32298653355,
			"-0.004": 9.77095112062,
			"-0.003": 10.4036259701,
			"-0.002": 14.4668260566,
			"-0.001": 24.5424130013,
			"0.0": 26.4927902554,
			"0.001": 28.1744227915,
			"0.002": 20.92505266,
			"0.003": 20.8981899159,
			"0.004": 16.0858550809,
			"0.005": 3.53441091994,
			"0.006": 3.97436798356,
			"0.007": 6.19576120112,
			"0.008": 8.71636480447,
			"0.009": 2.97498322434,
			"0.01": 0.0,
			"0.011": 0.0,
			"0.012": 0.0,
			"0.013": 0.0,
			"0.014": 0.0,
			"0.015": 0.0,
			"0.016": 0.0,
			"0.017": 0.0,
			"0.018": 0.0,
			"0.019": 0.0,
			"0.02": 0.0,
			"0.021": 0.0,
			"0.022": 0.0,
			"0.023": 0.0,
			"0.024": 0.0,
			"0.025": 0.0
		}
	}
}
