{
	 "smiles": "NC(=O)C1=CC(C=CN1)=NCC1CCCO1", 
	 "Tm": 397.15, 
	 "num_atms": 31, 
	 "gaussian": { 
		 "optdone": 1, 
		 "sigma_profile": "yes", 
		 "theory": "DFT", 
		 "functional": "B3LYP", 
		 "basiset": "6-31G**", 
		 "properties": { 
			 "R2extent": 6311.1957, 
			 "electric_dipole_moment_norm": 2.63431988377, 
			 "electric_quadrupole_moment_norm": 13.3477643637, 
			 "total_energy": -742.900256406, 
			 "HOMO_LUMO_gap": 0.13916, 
			 "cosmo_polarized_energy": -20.75, 
			 "cosmo_cavitation_energy": 33.73, 
			 "cosmo_dispersion_energy": -24.85, 
			 "cosmo_repulsion_energy": 1.97, 
			 "cosmo_total_nonelectrostatic_energy": 10.86, 
			 "SMD_solvation_energy": 4.48 
		},
		"coords": [
			{
				"x": 4.1982007896,
				"y": 2.6023299055,
				"z": -1.9407486085,
				"element": "N" 
			},
			{
				"x": 4.8473086975,
				"y": 1.8236621269,
				"z": -1.0353985232,
				"element": "C" 
			},
			{
				"x": 6.0539006353,
				"y": 1.912450209,
				"z": -0.8192277269,
				"element": "O" 
			},
			{
				"x": 4.0254226939,
				"y": 0.8227262496,
				"z": -0.2686270771,
				"element": "C" 
			},
			{
				"x": 2.6677039427,
				"y": 0.7111190517,
				"z": -0.2544675196,
				"element": "C" 
			},
			{
				"x": 1.9909580244,
				"y": -0.3194973429,
				"z": 0.5429822487,
				"element": "C" 
			},
			{
				"x": 2.906279084,
				"y": -1.1627276827,
				"z": 1.3086170175,
				"element": "C" 
			},
			{
				"x": 4.2484761285,
				"y": -0.9917132315,
				"z": 1.2616137675,
				"element": "C" 
			},
			{
				"x": 4.8120593665,
				"y": -0.015206136,
				"z": 0.4751748215,
				"element": "N" 
			},
			{
				"x": 0.7150974689,
				"y": -0.5285632973,
				"z": 0.6240708358,
				"element": "N" 
			},
			{
				"x": -0.1899261409,
				"y": 0.3097125469,
				"z": -0.1368947657,
				"element": "C" 
			},
			{
				"x": -1.6319881022,
				"y": -0.20491596,
				"z": -0.0446510212,
				"element": "C" 
			},
			{
				"x": -2.1337614945,
				"y": -0.4231863546,
				"z": 1.4025803869,
				"element": "C" 
			},
			{
				"x": -2.8320793731,
				"y": -1.7920940372,
				"z": 1.3371328431,
				"element": "C" 
			},
			{
				"x": -2.0219027237,
				"y": -2.4890510351,
				"z": 0.2416131313,
				"element": "C" 
			},
			{
				"x": -1.7509828762,
				"y": -1.4689601096,
				"z": -0.7177299482,
				"element": "O" 
			},
			{
				"x": 3.2702689035,
				"y": 2.3811698475,
				"z": -2.2626267663,
				"element": "H" 
			},
			{
				"x": 4.7672152346,
				"y": 3.2171160672,
				"z": -2.5029623259,
				"element": "H" 
			},
			{
				"x": 2.0668160331,
				"y": 1.4126446175,
				"z": -0.8190674136,
				"element": "H" 
			},
			{
				"x": 2.4730388815,
				"y": -1.9396823837,
				"z": 1.9270638283,
				"element": "H" 
			},
			{
				"x": 4.944043629,
				"y": -1.603675824,
				"z": 1.8241336444,
				"element": "H" 
			},
			{
				"x": 5.8069918024,
				"y": 0.1736668651,
				"z": 0.4450519383,
				"element": "H" 
			},
			{
				"x": 0.0751214511,
				"y": 0.3452011465,
				"z": -1.2071385187,
				"element": "H" 
			},
			{
				"x": -0.1779107478,
				"y": 1.3553507299,
				"z": 0.2240645122,
				"element": "H" 
			},
			{
				"x": -2.2773310088,
				"y": 0.5040393677,
				"z": -0.5841775656,
				"element": "H" 
			},
			{
				"x": -2.7959583199,
				"y": 0.3816667471,
				"z": 1.7349339528,
				"element": "H" 
			},
			{
				"x": -1.274978675,
				"y": -0.4708000507,
				"z": 2.077732311,
				"element": "H" 
			},
			{
				"x": -2.8177458241,
				"y": -2.3294686888,
				"z": 2.2904656235,
				"element": "H" 
			},
			{
				"x": -3.8758852938,
				"y": -1.6842491623,
				"z": 1.0206666256,
				"element": "H" 
			},
			{
				"x": -1.0838645586,
				"y": -2.8938291629,
				"z": 0.6482017657,
				"element": "H" 
			},
			{
				"x": -2.5642876277,
				"y": -3.2933350188,
				"z": -0.2669814734,
				"element": "H" 
			}
		],
		 "valence_orbital": [ 
			{
				"type": "occ",
				"energy": -0.28413,
				"method": "rhf"
			},
			{
				"type": "occ",
				"energy": -0.28188,
				"method": "rhf"
			},
			{
				"type": "occ",
				"energy": -0.23195,
				"method": "rhf"
			},
			{
				"type": "occ",
				"energy": -0.21758,
				"method": "rhf"
			},
			{
				"type": "occ",
				"energy": -0.19447,
				"method": "rhf"
			},
			{
				"type": "unocc",
				"energy": -0.05531,
				"method": "rhf"
			},
			{
				"type": "unocc",
				"energy": -0.00544,
				"method": "rhf"
			},
			{
				"type": "unocc",
				"energy": 0.05024,
				"method": "rhf"
			},
			{
				"type": "unocc",
				"energy": 0.06158,
				"method": "rhf"
			},
			{
				"type": "unocc",
				"energy": 0.08776,
				"method": "rhf"
			}
		],
		"cosmo_sigma_profile": { 
			"-0.025": 0.0,
			"-0.024": 0.0,
			"-0.023": 0.0,
			"-0.022": 0.0,
			"-0.021": 0.0,
			"-0.02": 0.0,
			"-0.019": 0.0,
			"-0.018": 0.0,
			"-0.017": 0.0,
			"-0.016": 0.109383600757,
			"-0.015": 1.57846862266,
			"-0.014": 3.91884023051,
			"-0.013": 3.24146823892,
			"-0.012": 3.67051260976,
			"-0.011": 3.35982190185,
			"-0.01": 3.41769113637,
			"-0.009": 4.6312233713,
			"-0.008": 4.1877414165,
			"-0.007": 4.71151421732,
			"-0.006": 4.76677405164,
			"-0.005": 6.56176703076,
			"-0.004": 10.7336769281,
			"-0.003": 21.9294524281,
			"-0.002": 29.311094477,
			"-0.001": 29.5627472226,
			"0.0": 23.4677093814,
			"0.001": 19.7147746328,
			"0.002": 14.4260312547,
			"0.003": 12.89050329,
			"0.004": 10.1307459152,
			"0.005": 5.367878944,
			"0.006": 4.84182623861,
			"0.007": 4.09425724109,
			"0.008": 3.31690712017,
			"0.009": 3.97663505556,
			"0.01": 5.27421021559,
			"0.011": 5.33860965828,
			"0.012": 6.80470474532,
			"0.013": 5.74979296048,
			"0.014": 3.48206986703,
			"0.015": 0.875113619685,
			"0.016": 0.0,
			"0.017": 0.0,
			"0.018": 0.0,
			"0.019": 0.0,
			"0.02": 0.0,
			"0.021": 0.0,
			"0.022": 0.0,
			"0.023": 0.0,
			"0.024": 0.0,
			"0.025": 0.0
		}
	}
}
