{
	 "smiles": "NC1=CC(=CC=C1)C(=O)NCC(F)(F)F", 
	 "Tm": 392.15, 
	 "num_atms": 24, 
	 "gaussian": { 
		 "optdone": 1, 
		 "sigma_profile": "yes", 
		 "theory": "DFT", 
		 "functional": "B3LYP", 
		 "basiset": "6-31G**", 
		 "properties": { 
			 "R2extent": 4043.3926, 
			 "electric_dipole_moment_norm": 3.23843381591, 
			 "electric_quadrupole_moment_norm": 19.0401266968, 
			 "total_energy": -832.652494526, 
			 "HOMO_LUMO_gap": 0.1794, 
			 "cosmo_polarized_energy": -15.79, 
			 "cosmo_cavitation_energy": 29.89, 
			 "cosmo_dispersion_energy": -20.67, 
			 "cosmo_repulsion_energy": 1.59, 
			 "cosmo_total_nonelectrostatic_energy": 10.82, 
			 "SMD_solvation_energy": 6.0 
		},
		"coords": [
			{
				"x": 3.0036372332,
				"y": 2.805864031,
				"z": -2.0794275864,
				"element": "N" 
			},
			{
				"x": 1.8808329053,
				"y": 2.3277610871,
				"z": -1.4085864388,
				"element": "C" 
			},
			{
				"x": 1.9082963279,
				"y": 1.0810032238,
				"z": -0.7654222064,
				"element": "C" 
			},
			{
				"x": 0.7634692338,
				"y": 0.5655545986,
				"z": -0.1539606488,
				"element": "C" 
			},
			{
				"x": -0.4272169349,
				"y": 1.3073766622,
				"z": -0.1446873274,
				"element": "C" 
			},
			{
				"x": -0.4524324899,
				"y": 2.5558239801,
				"z": -0.7684571116,
				"element": "C" 
			},
			{
				"x": 0.6789620241,
				"y": 3.0605507183,
				"z": -1.4028227879,
				"element": "C" 
			},
			{
				"x": 0.9018676383,
				"y": -0.7453880995,
				"z": 0.5632559807,
				"element": "C" 
			},
			{
				"x": 1.9114550103,
				"y": -1.0307610542,
				"z": 1.1921368285,
				"element": "O" 
			},
			{
				"x": -0.1871674049,
				"y": -1.6129259253,
				"z": 0.5583079898,
				"element": "N" 
			},
			{
				"x": -1.0831394574,
				"y": -1.8237233968,
				"z": -0.5608199921,
				"element": "C" 
			},
			{
				"x": -0.5447351663,
				"y": -2.8505319013,
				"z": -1.5481101588,
				"element": "C" 
			},
			{
				"x": -0.3307073537,
				"y": -4.0415397601,
				"z": -0.9430813256,
				"element": "F" 
			},
			{
				"x": -1.424615787,
				"y": -3.0495853124,
				"z": -2.5509673287,
				"element": "F" 
			},
			{
				"x": 0.6236078403,
				"y": -2.4546866353,
				"z": -2.0885756984,
				"element": "F" 
			},
			{
				"x": 3.8865328741,
				"y": 2.4148671418,
				"z": -1.7816511273,
				"element": "H" 
			},
			{
				"x": 3.0485279188,
				"y": 3.8082508977,
				"z": -2.1975844451,
				"element": "H" 
			},
			{
				"x": 2.8254100656,
				"y": 0.5007494649,
				"z": -0.7284427947,
				"element": "H" 
			},
			{
				"x": -1.3021380535,
				"y": 0.9362908959,
				"z": 0.3787472664,
				"element": "H" 
			},
			{
				"x": -1.3630168549,
				"y": 3.1480981536,
				"z": -0.7543778455,
				"element": "H" 
			},
			{
				"x": 0.6412059366,
				"y": 4.0296515979,
				"z": -1.8942437483,
				"element": "H" 
			},
			{
				"x": 0.0337451253,
				"y": -2.4531756991,
				"z": 1.0829044948,
				"element": "H" 
			},
			{
				"x": -1.2384246613,
				"y": -0.8907045185,
				"z": -1.1014852314,
				"element": "H" 
			},
			{
				"x": -2.0559559699,
				"y": -2.1824201502,
				"z": -0.2097487568,
				"element": "H" 
			}
		],
		 "valence_orbital": [ 
			{
				"type": "occ",
				"energy": -0.31515,
				"method": "rhf"
			},
			{
				"type": "occ",
				"energy": -0.27318,
				"method": "rhf"
			},
			{
				"type": "occ",
				"energy": -0.26099,
				"method": "rhf"
			},
			{
				"type": "occ",
				"energy": -0.24482,
				"method": "rhf"
			},
			{
				"type": "occ",
				"energy": -0.21208,
				"method": "rhf"
			},
			{
				"type": "unocc",
				"energy": -0.03268,
				"method": "rhf"
			},
			{
				"type": "unocc",
				"energy": 0.00258,
				"method": "rhf"
			},
			{
				"type": "unocc",
				"energy": 0.04721,
				"method": "rhf"
			},
			{
				"type": "unocc",
				"energy": 0.07659,
				"method": "rhf"
			},
			{
				"type": "unocc",
				"energy": 0.08972,
				"method": "rhf"
			}
		],
		"cosmo_sigma_profile": { 
			"-0.025": 0.0,
			"-0.024": 0.0,
			"-0.023": 0.0,
			"-0.022": 0.0,
			"-0.021": 0.0,
			"-0.02": 0.0,
			"-0.019": 0.0,
			"-0.018": 0.0,
			"-0.017": 0.0,
			"-0.016": 0.0,
			"-0.015": 0.0,
			"-0.014": 0.0,
			"-0.013": 1.39137005132,
			"-0.012": 4.01962941089,
			"-0.011": 3.29388323478,
			"-0.01": 4.36106218949,
			"-0.009": 5.14658116095,
			"-0.008": 7.48187209719,
			"-0.007": 8.32912876932,
			"-0.006": 11.7990291112,
			"-0.005": 13.3296809775,
			"-0.004": 11.6838256576,
			"-0.003": 10.6651905527,
			"-0.002": 9.05780779222,
			"-0.001": 10.5118853382,
			"0.0": 12.3869809041,
			"0.001": 14.2766859944,
			"0.002": 27.8663421413,
			"0.003": 30.6574756021,
			"0.004": 10.858242978,
			"0.005": 12.1563727482,
			"0.006": 4.64036154078,
			"0.007": 2.31649456352,
			"0.008": 2.49315948789,
			"0.009": 2.55431363644,
			"0.01": 1.91328334623,
			"0.011": 3.03724221381,
			"0.012": 3.75458244117,
			"0.013": 5.65351478367,
			"0.014": 1.91143656054,
			"0.015": 0.0153061174482,
			"0.016": 0.0,
			"0.017": 0.0,
			"0.018": 0.0,
			"0.019": 0.0,
			"0.02": 0.0,
			"0.021": 0.0,
			"0.022": 0.0,
			"0.023": 0.0,
			"0.024": 0.0,
			"0.025": 0.0
		}
	}
}
