{
	 "smiles": "ClC1=CC(CC#N)=C(Cl)C=C1", 
	 "Tm": 366.15, 
	 "num_atms": 16, 
	 "gaussian": { 
		 "optdone": 1, 
		 "sigma_profile": "yes", 
		 "theory": "DFT", 
		 "functional": "B3LYP", 
		 "basiset": "6-31G**", 
		 "properties": { 
			 "R2extent": 3476.3793, 
			 "electric_dipole_moment_norm": 3.64377772374, 
			 "electric_quadrupole_moment_norm": 6.63366480537, 
			 "total_energy": -1282.98356648, 
			 "HOMO_LUMO_gap": 0.21832, 
			 "cosmo_polarized_energy": -9.22, 
			 "cosmo_cavitation_energy": 24.92, 
			 "cosmo_dispersion_energy": -17.97, 
			 "cosmo_repulsion_energy": 1.45, 
			 "cosmo_total_nonelectrostatic_energy": 8.39, 
			 "SMD_solvation_energy": 4.98 
		},
		"coords": [
			{
				"x": -1.250377741,
				"y": 1.1667463178,
				"z": -2.1358300783,
				"element": "Cl" 
			},
			{
				"x": -0.765840374,
				"y": -0.3930977538,
				"z": -1.4996609538,
				"element": "C" 
			},
			{
				"x": -0.8200233055,
				"y": -0.6140347137,
				"z": -0.1243042888,
				"element": "C" 
			},
			{
				"x": -0.438820898,
				"y": -1.8499077963,
				"z": 0.4071801857,
				"element": "C" 
			},
			{
				"x": -0.4831598313,
				"y": -2.1318927667,
				"z": 1.9020877219,
				"element": "C" 
			},
			{
				"x": -0.9533462498,
				"y": -1.0089155128,
				"z": 2.7142509151,
				"element": "C" 
			},
			{
				"x": -1.3260035068,
				"y": -0.1192005805,
				"z": 3.3589641046,
				"element": "N" 
			},
			{
				"x": -0.0058447696,
				"y": -2.8456910016,
				"z": -0.4812001206,
				"element": "C" 
			},
			{
				"x": 0.4855681046,
				"y": -4.4191438618,
				"z": 0.1329266186,
				"element": "Cl" 
			},
			{
				"x": 0.0476720107,
				"y": -2.62315839,
				"z": -1.8554464392,
				"element": "C" 
			},
			{
				"x": -0.3345587781,
				"y": -1.3878022158,
				"z": -2.3744524553,
				"element": "C" 
			},
			{
				"x": -1.1592026191,
				"y": 0.1754648902,
				"z": 0.5371289379,
				"element": "H" 
			},
			{
				"x": -1.1300320659,
				"y": -2.9955273333,
				"z": 2.10033144,
				"element": "H" 
			},
			{
				"x": 0.5136967253,
				"y": -2.4209768311,
				"z": 2.2574911078,
				"element": "H" 
			},
			{
				"x": 0.387130847,
				"y": -3.4140755812,
				"z": -2.5147444247,
				"element": "H" 
			},
			{
				"x": -0.2972575487,
				"y": -1.2027868692,
				"z": -3.4418222711,
				"element": "H" 
			}
		],
		 "valence_orbital": [ 
			{
				"type": "occ",
				"energy": -0.33309,
				"method": "rhf"
			},
			{
				"type": "occ",
				"energy": -0.33007,
				"method": "rhf"
			},
			{
				"type": "occ",
				"energy": -0.3257,
				"method": "rhf"
			},
			{
				"type": "occ",
				"energy": -0.28432,
				"method": "rhf"
			},
			{
				"type": "occ",
				"energy": -0.25741,
				"method": "rhf"
			},
			{
				"type": "unocc",
				"energy": -0.03909,
				"method": "rhf"
			},
			{
				"type": "unocc",
				"energy": -0.03718,
				"method": "rhf"
			},
			{
				"type": "unocc",
				"energy": 2e-05,
				"method": "rhf"
			},
			{
				"type": "unocc",
				"energy": 0.02414,
				"method": "rhf"
			},
			{
				"type": "unocc",
				"energy": 0.02712,
				"method": "rhf"
			}
		],
		"cosmo_sigma_profile": { 
			"-0.025": 0.0,
			"-0.024": 0.0,
			"-0.023": 0.0,
			"-0.022": 0.0,
			"-0.021": 0.0,
			"-0.02": 0.0,
			"-0.019": 0.0,
			"-0.018": 0.0,
			"-0.017": 0.0,
			"-0.016": 0.0,
			"-0.015": 0.0,
			"-0.014": 0.0,
			"-0.013": 0.0,
			"-0.012": 0.0,
			"-0.011": 0.0,
			"-0.01": 1.64032567741,
			"-0.009": 4.47516930719,
			"-0.008": 8.06097519729,
			"-0.007": 7.98783976209,
			"-0.006": 9.3805014396,
			"-0.005": 8.75319537381,
			"-0.004": 9.75878469005,
			"-0.003": 10.2881124308,
			"-0.002": 13.1775923031,
			"-0.001": 12.8709740573,
			"0.0": 17.6848317539,
			"0.001": 25.7330713046,
			"0.002": 19.8786492025,
			"0.003": 15.2342767674,
			"0.004": 16.1516073389,
			"0.005": 4.80296186359,
			"0.006": 2.55451488019,
			"0.007": 2.41967665607,
			"0.008": 3.18156766334,
			"0.009": 2.86828197206,
			"0.01": 3.0207535062,
			"0.011": 2.62845785835,
			"0.012": 2.21411712143,
			"0.013": 1.05741182677,
			"0.014": 0.0,
			"0.015": 0.0,
			"0.016": 0.0,
			"0.017": 0.0,
			"0.018": 0.0,
			"0.019": 0.0,
			"0.02": 0.0,
			"0.021": 0.0,
			"0.022": 0.0,
			"0.023": 0.0,
			"0.024": 0.0,
			"0.025": 0.0
		}
	}
}
