{
	 "smiles": "O=N(=O)C1=CC=C2C(OC3=CC=CC=C23)=C1", 
	 "Tm": 455.15, 
	 "num_atms": 23, 
	 "gaussian": { 
		 "optdone": 1, 
		 "sigma_profile": "yes", 
		 "theory": "DFT", 
		 "functional": "B3LYP", 
		 "basiset": "6-31G**", 
		 "properties": { 
			 "R2extent": 4639.2526, 
			 "electric_dipole_moment_norm": 5.79715033788, 
			 "electric_quadrupole_moment_norm": 16.4656002648, 
			 "total_energy": -741.826999111, 
			 "HOMO_LUMO_gap": 0.15349, 
			 "cosmo_polarized_energy": -9.28, 
			 "cosmo_cavitation_energy": 28.47, 
			 "cosmo_dispersion_energy": -21.29, 
			 "cosmo_repulsion_energy": 1.6, 
			 "cosmo_total_nonelectrostatic_energy": 8.78, 
			 "SMD_solvation_energy": 7.09 
		},
		"coords": [
			{
				"x": 4.3588011943,
				"y": -2.4211775408,
				"z": -2.6686830212,
				"element": "O" 
			},
			{
				"x": 3.3636603947,
				"y": -1.8071116143,
				"z": -3.0539130462,
				"element": "N" 
			},
			{
				"x": 3.1131986911,
				"y": -1.5496240805,
				"z": -4.2317088436,
				"element": "O" 
			},
			{
				"x": 2.4068594404,
				"y": -1.3480147478,
				"z": -2.0369485208,
				"element": "C" 
			},
			{
				"x": 2.6728511398,
				"y": -1.6304803563,
				"z": -0.6891640699,
				"element": "C" 
			},
			{
				"x": 1.7830481665,
				"y": -1.2069639347,
				"z": 0.2918498003,
				"element": "C" 
			},
			{
				"x": 0.634400576,
				"y": -0.5033489999,
				"z": -0.0933787517,
				"element": "C" 
			},
			{
				"x": 0.4139567124,
				"y": -0.2451112422,
				"z": -1.4640281948,
				"element": "C" 
			},
			{
				"x": -0.7515366866,
				"y": 0.4509884773,
				"z": -1.6675450662,
				"element": "O" 
			},
			{
				"x": -1.2970243257,
				"y": 0.6491292278,
				"z": -0.4191705491,
				"element": "C" 
			},
			{
				"x": -2.4878740478,
				"y": 1.3167586188,
				"z": -0.1673113016,
				"element": "C" 
			},
			{
				"x": -2.8761269349,
				"y": 1.4152482024,
				"z": 1.1693272974,
				"element": "C" 
			},
			{
				"x": -2.0975674298,
				"y": 0.8648779448,
				"z": 2.203452838,
				"element": "C" 
			},
			{
				"x": -0.9059578438,
				"y": 0.198943773,
				"z": 1.9291636984,
				"element": "C" 
			},
			{
				"x": -0.4958483869,
				"y": 0.0876210097,
				"z": 0.5941872734,
				"element": "C" 
			},
			{
				"x": 1.2768169065,
				"y": -0.6509775688,
				"z": -2.4664330537,
				"element": "C" 
			},
			{
				"x": 3.5734680029,
				"y": -2.1769959787,
				"z": -0.4414901871,
				"element": "H" 
			},
			{
				"x": 1.9812093866,
				"y": -1.4213497761,
				"z": 1.3370315295,
				"element": "H" 
			},
			{
				"x": -3.0787309405,
				"y": 1.7365123855,
				"z": -0.9736342617,
				"element": "H" 
			},
			{
				"x": -3.8006057765,
				"y": 1.9287759735,
				"z": 1.4150418394,
				"element": "H" 
			},
			{
				"x": -2.4336822807,
				"y": 0.9624509129,
				"z": 3.2309343739,
				"element": "H" 
			},
			{
				"x": -0.3092374606,
				"y": -0.2238317951,
				"z": 2.7316912887,
				"element": "H" 
			},
			{
				"x": 1.1049215027,
				"y": -0.4515188908,
				"z": -3.5155710713,
				"element": "H" 
			}
		],
		 "valence_orbital": [ 
			{
				"type": "occ",
				"energy": -0.30597,
				"method": "rhf"
			},
			{
				"type": "occ",
				"energy": -0.28856,
				"method": "rhf"
			},
			{
				"type": "occ",
				"energy": -0.28154,
				"method": "rhf"
			},
			{
				"type": "occ",
				"energy": -0.24775,
				"method": "rhf"
			},
			{
				"type": "occ",
				"energy": -0.24578,
				"method": "rhf"
			},
			{
				"type": "unocc",
				"energy": -0.09229,
				"method": "rhf"
			},
			{
				"type": "unocc",
				"energy": -0.03862,
				"method": "rhf"
			},
			{
				"type": "unocc",
				"energy": -0.01948,
				"method": "rhf"
			},
			{
				"type": "unocc",
				"energy": -0.00393,
				"method": "rhf"
			},
			{
				"type": "unocc",
				"energy": 0.02788,
				"method": "rhf"
			}
		],
		"cosmo_sigma_profile": { 
			"-0.025": 0.0,
			"-0.024": 0.0,
			"-0.023": 0.0,
			"-0.022": 0.0,
			"-0.021": 0.0,
			"-0.02": 0.0,
			"-0.019": 0.0,
			"-0.018": 0.0,
			"-0.017": 0.0,
			"-0.016": 0.0,
			"-0.015": 0.0,
			"-0.014": 0.0,
			"-0.013": 0.0,
			"-0.012": 0.0,
			"-0.011": 0.0,
			"-0.01": 0.0,
			"-0.009": 0.44717424871,
			"-0.008": 3.27540500175,
			"-0.007": 10.7833913042,
			"-0.006": 14.9136434347,
			"-0.005": 14.3070299587,
			"-0.004": 13.7545890141,
			"-0.003": 12.1801294685,
			"-0.002": 14.9512990011,
			"-0.001": 19.9342331204,
			"0.0": 24.7173684184,
			"0.001": 23.2283015139,
			"0.002": 16.8654640809,
			"0.003": 13.6437975872,
			"0.004": 11.8929040681,
			"0.005": 5.28091518626,
			"0.006": 5.24127640788,
			"0.007": 8.34881455079,
			"0.008": 8.77213297994,
			"0.009": 4.77220528807,
			"0.01": 2.94941359727,
			"0.011": 0.257604259098,
			"0.012": 0.0,
			"0.013": 0.0,
			"0.014": 0.0,
			"0.015": 0.0,
			"0.016": 0.0,
			"0.017": 0.0,
			"0.018": 0.0,
			"0.019": 0.0,
			"0.02": 0.0,
			"0.021": 0.0,
			"0.022": 0.0,
			"0.023": 0.0,
			"0.024": 0.0,
			"0.025": 0.0
		}
	}
}
