{
	 "smiles": "NC(=O)C1CCOC1", 
	 "Tm": 383.15, 
	 "num_atms": 17, 
	 "gaussian": { 
		 "optdone": 1, 
		 "sigma_profile": "yes", 
		 "theory": "DFT", 
		 "functional": "B3LYP", 
		 "basiset": "6-31G**", 
		 "properties": { 
			 "R2extent": 1068.7704, 
			 "electric_dipole_moment_norm": 3.48988009823, 
			 "electric_quadrupole_moment_norm": 11.6423747118, 
			 "total_energy": -401.156826365, 
			 "HOMO_LUMO_gap": 0.26794, 
			 "cosmo_polarized_energy": -14.1, 
			 "cosmo_cavitation_energy": 19.68, 
			 "cosmo_dispersion_energy": -14.96, 
			 "cosmo_repulsion_energy": 1.28, 
			 "cosmo_total_nonelectrostatic_energy": 6.01, 
			 "SMD_solvation_energy": 4.07 
		},
		"coords": [
			{
				"x": 1.107736264,
				"y": 0.1225840254,
				"z": -2.4999217098,
				"element": "N" 
			},
			{
				"x": 0.1753331519,
				"y": 0.1913215496,
				"z": -1.5040539638,
				"element": "C" 
			},
			{
				"x": -0.8792038904,
				"y": 0.7985366186,
				"z": -1.6376686179,
				"element": "O" 
			},
			{
				"x": 0.5172260468,
				"y": -0.5706606129,
				"z": -0.2274172062,
				"element": "C" 
			},
			{
				"x": 0.2819157481,
				"y": 0.2647891976,
				"z": 1.0523899925,
				"element": "C" 
			},
			{
				"x": -0.2611223391,
				"y": -0.7677427832,
				"z": 2.0758891668,
				"element": "C" 
			},
			{
				"x": -0.3240063105,
				"y": -2.0277373878,
				"z": 1.4032897879,
				"element": "O" 
			},
			{
				"x": -0.4404341223,
				"y": -1.7568699654,
				"z": 0.0170663827,
				"element": "C" 
			},
			{
				"x": 0.917468758,
				"y": 0.606407445,
				"z": -3.364555637,
				"element": "H" 
			},
			{
				"x": 1.9891156051,
				"y": -0.3498387137,
				"z": -2.3864824418,
				"element": "H" 
			},
			{
				"x": 1.5459959687,
				"y": -0.9477782005,
				"z": -0.253468069,
				"element": "H" 
			},
			{
				"x": -0.4615253524,
				"y": 1.0366274793,
				"z": 0.8395880581,
				"element": "H" 
			},
			{
				"x": 1.1977103065,
				"y": 0.7533311623,
				"z": 1.395520692,
				"element": "H" 
			},
			{
				"x": -1.2597945504,
				"y": -0.4744299216,
				"z": 2.4303824845,
				"element": "H" 
			},
			{
				"x": 0.3866343207,
				"y": -0.8941837954,
				"z": 2.9489415196,
				"element": "H" 
			},
			{
				"x": -0.1710851548,
				"y": -2.6646429535,
				"z": -0.530117925,
				"element": "H" 
			},
			{
				"x": -1.4640644499,
				"y": -1.4593131438,
				"z": -0.2589825137,
				"element": "H" 
			}
		],
		 "valence_orbital": [ 
			{
				"type": "occ",
				"energy": -0.33582,
				"method": "rhf"
			},
			{
				"type": "occ",
				"energy": -0.31287,
				"method": "rhf"
			},
			{
				"type": "occ",
				"energy": -0.27033,
				"method": "rhf"
			},
			{
				"type": "occ",
				"energy": -0.25608,
				"method": "rhf"
			},
			{
				"type": "occ",
				"energy": -0.24433,
				"method": "rhf"
			},
			{
				"type": "unocc",
				"energy": 0.02361,
				"method": "rhf"
			},
			{
				"type": "unocc",
				"energy": 0.06343,
				"method": "rhf"
			},
			{
				"type": "unocc",
				"energy": 0.09749,
				"method": "rhf"
			},
			{
				"type": "unocc",
				"energy": 0.10642,
				"method": "rhf"
			},
			{
				"type": "unocc",
				"energy": 0.13188,
				"method": "rhf"
			}
		],
		"cosmo_sigma_profile": { 
			"-0.025": 0.0,
			"-0.024": 0.0,
			"-0.023": 0.0,
			"-0.022": 0.0,
			"-0.021": 0.0,
			"-0.02": 0.0,
			"-0.019": 0.0,
			"-0.018": 0.0,
			"-0.017": 0.0,
			"-0.016": 0.0,
			"-0.015": 0.186874717215,
			"-0.014": 1.61818027044,
			"-0.013": 2.8853968064,
			"-0.012": 2.62496880562,
			"-0.011": 2.15815730503,
			"-0.01": 2.60428861874,
			"-0.009": 2.10157841274,
			"-0.008": 2.36850300613,
			"-0.007": 2.53504243229,
			"-0.006": 2.73016068274,
			"-0.005": 7.15524381475,
			"-0.004": 12.8652096491,
			"-0.003": 19.5816980845,
			"-0.002": 17.9130514755,
			"-0.001": 11.2280356428,
			"0.0": 8.2553217691,
			"0.001": 5.46677277597,
			"0.002": 4.00582320286,
			"0.003": 5.08766735156,
			"0.004": 4.28423155367,
			"0.005": 4.7657815113,
			"0.006": 2.32568352941,
			"0.007": 2.65759466162,
			"0.008": 2.8676966704,
			"0.009": 2.1406165816,
			"0.01": 3.04357901445,
			"0.011": 2.14323492936,
			"0.012": 3.30191270313,
			"0.013": 4.22998789151,
			"0.014": 6.69555859267,
			"0.015": 1.4291848924,
			"0.016": 0.0,
			"0.017": 0.0,
			"0.018": 0.0,
			"0.019": 0.0,
			"0.02": 0.0,
			"0.021": 0.0,
			"0.022": 0.0,
			"0.023": 0.0,
			"0.024": 0.0,
			"0.025": 0.0
		}
	}
}
