{
	 "smiles": "CSC1=NC=C(Cl)C(=N1)C(O)=O", 
	 "Tm": 473.15, 
	 "num_atms": 17, 
	 "gaussian": { 
		 "optdone": 1, 
		 "sigma_profile": "yes", 
		 "theory": "DFT", 
		 "functional": "B3LYP", 
		 "basiset": "6-31G**", 
		 "properties": { 
			 "R2extent": 2994.8691, 
			 "electric_dipole_moment_norm": 2.01589754452, 
			 "electric_quadrupole_moment_norm": 13.0731887369, 
			 "total_energy": -1349.97802547, 
			 "HOMO_LUMO_gap": 0.14821, 
			 "cosmo_polarized_energy": -12.39, 
			 "cosmo_cavitation_energy": 25.89, 
			 "cosmo_dispersion_energy": -19.54, 
			 "cosmo_repulsion_energy": 1.52, 
			 "cosmo_total_nonelectrostatic_energy": 7.88, 
			 "SMD_solvation_energy": 3.56 
		},
		"coords": [
			{
				"x": -2.8299078667,
				"y": -0.1301907512,
				"z": -2.7802390459,
				"element": "C" 
			},
			{
				"x": -3.4148507706,
				"y": -0.706680619,
				"z": -1.1511673449,
				"element": "S" 
			},
			{
				"x": -1.921295739,
				"y": -0.6468351542,
				"z": -0.2086839541,
				"element": "C" 
			},
			{
				"x": -2.062696018,
				"y": -1.0323372439,
				"z": 1.0752736911,
				"element": "N" 
			},
			{
				"x": -0.9643666014,
				"y": -1.0005643241,
				"z": 1.8129968764,
				"element": "C" 
			},
			{
				"x": 0.2856845646,
				"y": -0.593674839,
				"z": 1.3122261617,
				"element": "C" 
			},
			{
				"x": 1.6336940054,
				"y": -0.6072865134,
				"z": 2.4077556595,
				"element": "Cl" 
			},
			{
				"x": 0.3240001426,
				"y": -0.212607119,
				"z": -0.0357091208,
				"element": "C" 
			},
			{
				"x": -0.7910391612,
				"y": -0.2452953246,
				"z": -0.7828960463,
				"element": "N" 
			},
			{
				"x": 1.5804758563,
				"y": 0.2495587203,
				"z": -0.7315635967,
				"element": "C" 
			},
			{
				"x": 1.3593198025,
				"y": 0.559522472,
				"z": -2.0238313258,
				"element": "O" 
			},
			{
				"x": 2.6685414666,
				"y": 0.3379675289,
				"z": -0.2067520451,
				"element": "O" 
			},
			{
				"x": -3.7085569425,
				"y": -0.1396497447,
				"z": -3.4286915786,
				"element": "H" 
			},
			{
				"x": -2.4270883351,
				"y": 0.8805353914,
				"z": -2.7111070885,
				"element": "H" 
			},
			{
				"x": -2.0658991675,
				"y": -0.7997341889,
				"z": -3.1759762087,
				"element": "H" 
			},
			{
				"x": -1.0509955614,
				"y": -1.3069037062,
				"z": 2.8532158891,
				"element": "H" 
			},
			{
				"x": 2.2225803253,
				"y": 0.8408754156,
				"z": -2.3709509225,
				"element": "H" 
			}
		],
		 "valence_orbital": [ 
			{
				"type": "occ",
				"energy": -0.3255,
				"method": "rhf"
			},
			{
				"type": "occ",
				"energy": -0.30027,
				"method": "rhf"
			},
			{
				"type": "occ",
				"energy": -0.29888,
				"method": "rhf"
			},
			{
				"type": "occ",
				"energy": -0.26568,
				"method": "rhf"
			},
			{
				"type": "occ",
				"energy": -0.23813,
				"method": "rhf"
			},
			{
				"type": "unocc",
				"energy": -0.08992,
				"method": "rhf"
			},
			{
				"type": "unocc",
				"energy": -0.04759,
				"method": "rhf"
			},
			{
				"type": "unocc",
				"energy": 0.0183,
				"method": "rhf"
			},
			{
				"type": "unocc",
				"energy": 0.02698,
				"method": "rhf"
			},
			{
				"type": "unocc",
				"energy": 0.02834,
				"method": "rhf"
			}
		],
		"cosmo_sigma_profile": { 
			"-0.025": 0.0,
			"-0.024": 0.0,
			"-0.023": 0.0,
			"-0.022": 0.0,
			"-0.021": 0.0,
			"-0.02": 0.0,
			"-0.019": 0.541853431401,
			"-0.018": 1.16895284163,
			"-0.017": 0.827741251206,
			"-0.016": 0.621035100657,
			"-0.015": 0.77494567885,
			"-0.014": 0.685700815122,
			"-0.013": 0.772508688494,
			"-0.012": 0.891327531804,
			"-0.011": 0.695428669957,
			"-0.01": 0.824474709309,
			"-0.009": 2.29342014367,
			"-0.008": 3.4307392471,
			"-0.007": 5.22604711698,
			"-0.006": 8.81131414937,
			"-0.005": 11.750779825,
			"-0.004": 17.5903355053,
			"-0.003": 19.2386546218,
			"-0.002": 18.1700750044,
			"-0.001": 12.4663704293,
			"0.0": 10.5612512676,
			"0.001": 11.2673438937,
			"0.002": 11.3988255388,
			"0.003": 13.8099961528,
			"0.004": 12.4746463737,
			"0.005": 8.33092442145,
			"0.006": 7.85134676821,
			"0.007": 6.7776746259,
			"0.008": 3.98204380101,
			"0.009": 4.67846348204,
			"0.01": 6.65110644597,
			"0.011": 5.71457123125,
			"0.012": 1.59308316492,
			"0.013": 0.302960574224,
			"0.014": 0.0,
			"0.015": 0.0,
			"0.016": 0.0,
			"0.017": 0.0,
			"0.018": 0.0,
			"0.019": 0.0,
			"0.02": 0.0,
			"0.021": 0.0,
			"0.022": 0.0,
			"0.023": 0.0,
			"0.024": 0.0,
			"0.025": 0.0
		}
	}
}
