{
	 "smiles": "OC(=O)CCCC1=NC2=C(S1)C=CC=C2", 
	 "Tm": 422.15, 
	 "num_atms": 26, 
	 "gaussian": { 
		 "optdone": 1, 
		 "sigma_profile": "yes", 
		 "theory": "DFT", 
		 "functional": "B3LYP", 
		 "basiset": "6-31G**", 
		 "properties": { 
			 "R2extent": 4314.1476, 
			 "electric_dipole_moment_norm": 6.76356460012, 
			 "electric_quadrupole_moment_norm": 25.1745886612, 
			 "total_energy": -1029.22015484, 
			 "HOMO_LUMO_gap": 0.18912, 
			 "cosmo_polarized_energy": -15.07, 
			 "cosmo_cavitation_energy": 30.97, 
			 "cosmo_dispersion_energy": -22.94, 
			 "cosmo_repulsion_energy": 1.73, 
			 "cosmo_total_nonelectrostatic_energy": 9.76, 
			 "SMD_solvation_energy": 4.93 
		},
		"coords": [
			{
				"x": 2.0827332247,
				"y": -2.5758348206,
				"z": -0.047415769,
				"element": "O" 
			},
			{
				"x": 3.1711800194,
				"y": -1.8302515511,
				"z": -0.318773381,
				"element": "C" 
			},
			{
				"x": 4.2895207995,
				"y": -2.2647518983,
				"z": -0.166334947,
				"element": "O" 
			},
			{
				"x": 2.8809900396,
				"y": -0.4150175545,
				"z": -0.8233949224,
				"element": "C" 
			},
			{
				"x": 2.0032978773,
				"y": -0.3740958798,
				"z": -2.1055637458,
				"element": "C" 
			},
			{
				"x": 0.790176953,
				"y": 0.5648382407,
				"z": -2.0204928542,
				"element": "C" 
			},
			{
				"x": -0.2760651169,
				"y": 0.101940423,
				"z": -1.0634888336,
				"element": "C" 
			},
			{
				"x": -0.2046796327,
				"y": -0.9681779637,
				"z": -0.3323505568,
				"element": "N" 
			},
			{
				"x": -1.3381510768,
				"y": -1.1485502576,
				"z": 0.4531872078,
				"element": "C" 
			},
			{
				"x": -2.3271661886,
				"y": -0.1514163151,
				"z": 0.300375129,
				"element": "C" 
			},
			{
				"x": -1.7744000269,
				"y": 1.0315236803,
				"z": -0.8719525068,
				"element": "S" 
			},
			{
				"x": -3.5219895943,
				"y": -0.1976392849,
				"z": 1.0221513877,
				"element": "C" 
			},
			{
				"x": -3.7111547483,
				"y": -1.2595514254,
				"z": 1.9033936767,
				"element": "C" 
			},
			{
				"x": -2.7313139872,
				"y": -2.254628939,
				"z": 2.0641067927,
				"element": "C" 
			},
			{
				"x": -1.5425247028,
				"y": -2.2095487599,
				"z": 1.3456098249,
				"element": "C" 
			},
			{
				"x": 1.2574114043,
				"y": -2.0451888504,
				"z": -0.1763447971,
				"element": "H" 
			},
			{
				"x": 2.3836548916,
				"y": 0.1273312796,
				"z": -0.0095992841,
				"element": "H" 
			},
			{
				"x": 3.8455043218,
				"y": 0.066521307,
				"z": -0.9910071028,
				"element": "H" 
			},
			{
				"x": 2.6171503627,
				"y": -0.0481884248,
				"z": -2.9505112419,
				"element": "H" 
			},
			{
				"x": 1.6500573689,
				"y": -1.3788543497,
				"z": -2.3572425195,
				"element": "H" 
			},
			{
				"x": 0.3349633287,
				"y": 0.673177119,
				"z": -3.013456427,
				"element": "H" 
			},
			{
				"x": 1.1103208227,
				"y": 1.5742443931,
				"z": -1.7282190083,
				"element": "H" 
			},
			{
				"x": -4.2809811075,
				"y": 0.5685996992,
				"z": 0.903318714,
				"element": "H" 
			},
			{
				"x": -4.6318215135,
				"y": -1.3169514258,
				"z": 2.475965889,
				"element": "H" 
			},
			{
				"x": -2.9062596003,
				"y": -3.069114627,
				"z": 2.7599737839,
				"element": "H" 
			},
			{
				"x": -0.7762541186,
				"y": -2.9693138143,
				"z": 1.4615654918,
				"element": "H" 
			}
		],
		 "valence_orbital": [ 
			{
				"type": "occ",
				"energy": -0.30355,
				"method": "rhf"
			},
			{
				"type": "occ",
				"energy": -0.28515,
				"method": "rhf"
			},
			{
				"type": "occ",
				"energy": -0.25605,
				"method": "rhf"
			},
			{
				"type": "occ",
				"energy": -0.25307,
				"method": "rhf"
			},
			{
				"type": "occ",
				"energy": -0.24316,
				"method": "rhf"
			},
			{
				"type": "unocc",
				"energy": -0.05404,
				"method": "rhf"
			},
			{
				"type": "unocc",
				"energy": -0.02215,
				"method": "rhf"
			},
			{
				"type": "unocc",
				"energy": -0.00933,
				"method": "rhf"
			},
			{
				"type": "unocc",
				"energy": 0.01294,
				"method": "rhf"
			},
			{
				"type": "unocc",
				"energy": 0.03159,
				"method": "rhf"
			}
		],
		"cosmo_sigma_profile": { 
			"-0.025": 0.0,
			"-0.024": 0.0,
			"-0.023": 0.0,
			"-0.022": 0.0,
			"-0.021": 0.0,
			"-0.02": 0.0,
			"-0.019": 0.0,
			"-0.018": 0.0,
			"-0.017": 0.0,
			"-0.016": 0.0,
			"-0.015": 0.0,
			"-0.014": 0.0,
			"-0.013": 0.0,
			"-0.012": 0.0,
			"-0.011": 0.0,
			"-0.01": 0.0,
			"-0.009": 0.0,
			"-0.008": 0.565535881872,
			"-0.007": 5.17919836395,
			"-0.006": 19.1147785848,
			"-0.005": 24.1345076018,
			"-0.004": 28.0408860796,
			"-0.003": 24.9907931371,
			"-0.002": 19.3908927377,
			"-0.001": 15.0344628442,
			"0.0": 12.4814815122,
			"0.001": 18.1844693809,
			"0.002": 16.8270352971,
			"0.003": 16.26284639,
			"0.004": 13.4900006283,
			"0.005": 3.86783256901,
			"0.006": 2.59155573349,
			"0.007": 2.39402262011,
			"0.008": 1.55063573541,
			"0.009": 2.27132735075,
			"0.01": 3.16877129387,
			"0.011": 4.17824034883,
			"0.012": 6.54644553508,
			"0.013": 6.19501739346,
			"0.014": 2.45377378922,
			"0.015": 0.118189344218,
			"0.016": 0.0,
			"0.017": 0.0,
			"0.018": 0.0,
			"0.019": 0.0,
			"0.02": 0.0,
			"0.021": 0.0,
			"0.022": 0.0,
			"0.023": 0.0,
			"0.024": 0.0,
			"0.0": 0.0
		}
	}
}
