{
	 "smiles": "NC1=C(C=C(F)C=C1)C1=CC=C(Cl)C=C1", 
	 "Tm": 328.15, 
	 "num_atms": 24, 
	 "gaussian": { 
		 "optdone": 1, 
		 "sigma_profile": "yes", 
		 "theory": "DFT", 
		 "functional": "B3LYP", 
		 "basiset": "6-31G**", 
		 "properties": { 
			 "R2extent": 4991.6928, 
			 "electric_dipole_moment_norm": 2.72499451192, 
			 "electric_quadrupole_moment_norm": 11.3356352835, 
			 "total_energy": -1077.48856913, 
			 "HOMO_LUMO_gap": 0.16732, 
			 "cosmo_polarized_energy": -8.8, 
			 "cosmo_cavitation_energy": 30.32, 
			 "cosmo_dispersion_energy": -22.17, 
			 "cosmo_repulsion_energy": 1.71, 
			 "cosmo_total_nonelectrostatic_energy": 9.86, 
			 "SMD_solvation_energy": 5.16 
		},
		"coords": [
			{
				"x": -0.2742736532,
				"y": 0.0409772982,
				"z": -2.2229786752,
				"element": "N" 
			},
			{
				"x": 0.7563264701,
				"y": 0.7609332377,
				"z": -1.6039079547,
				"element": "C" 
			},
			{
				"x": 0.7401752732,
				"y": 1.0364806176,
				"z": -0.2123380281,
				"element": "C" 
			},
			{
				"x": 1.8138551533,
				"y": 1.7453185806,
				"z": 0.349669838,
				"element": "C" 
			},
			{
				"x": 2.8783663254,
				"y": 2.1564984464,
				"z": -0.4367270893,
				"element": "C" 
			},
			{
				"x": 3.9034952966,
				"y": 2.8286511647,
				"z": 0.1373246286,
				"element": "F" 
			},
			{
				"x": 2.9158026919,
				"y": 1.8860002131,
				"z": -1.7983033461,
				"element": "C" 
			},
			{
				"x": 1.8525711103,
				"y": 1.1932103188,
				"z": -2.3693921537,
				"element": "C" 
			},
			{
				"x": -0.3840512215,
				"y": 0.6155356615,
				"z": 0.6678219077,
				"element": "C" 
			},
			{
				"x": -0.953659012,
				"y": 1.5247166351,
				"z": 1.5762948361,
				"element": "C" 
			},
			{
				"x": -1.9790955055,
				"y": 1.144920859,
				"z": 2.4400096201,
				"element": "C" 
			},
			{
				"x": -2.4514076847,
				"y": -0.1662782782,
				"z": 2.3993112147,
				"element": "C" 
			},
			{
				"x": -3.748920182,
				"y": -0.6548377635,
				"z": 3.4800665505,
				"element": "Cl" 
			},
			{
				"x": -1.9099506249,
				"y": -1.0939297209,
				"z": 1.5106774223,
				"element": "C" 
			},
			{
				"x": -0.8834139571,
				"y": -0.6994801691,
				"z": 0.6534372035,
				"element": "C" 
			},
			{
				"x": -0.346245862,
				"y": 0.2030122754,
				"z": -3.2186936951,
				"element": "H" 
			},
			{
				"x": -1.1755382696,
				"y": 0.1174150517,
				"z": -1.7695345472,
				"element": "H" 
			},
			{
				"x": 1.8308783972,
				"y": 1.9556049215,
				"z": 1.4136532747,
				"element": "H" 
			},
			{
				"x": 3.7602048725,
				"y": 2.2157255068,
				"z": -2.393769947,
				"element": "H" 
			},
			{
				"x": 1.8652025307,
				"y": 0.9817399787,
				"z": -3.4356278212,
				"element": "H" 
			},
			{
				"x": -0.5961172689,
				"y": 2.5498282048,
				"z": 1.5973401394,
				"element": "H" 
			},
			{
				"x": -2.4128249392,
				"y": 1.8584688055,
				"z": 3.1319886643,
				"element": "H" 
			},
			{
				"x": -2.2796529204,
				"y": -2.1134125263,
				"z": 1.4966079469,
				"element": "H" 
			},
			{
				"x": -0.4532270201,
				"y": -1.4269993192,
				"z": -0.0272299892,
				"element": "H" 
			}
		],
		 "valence_orbital": [ 
			{
				"type": "occ",
				"energy": -0.30539,
				"method": "rhf"
			},
			{
				"type": "occ",
				"energy": -0.2709,
				"method": "rhf"
			},
			{
				"type": "occ",
				"energy": -0.26737,
				"method": "rhf"
			},
			{
				"type": "occ",
				"energy": -0.23897,
				"method": "rhf"
			},
			{
				"type": "occ",
				"energy": -0.20256,
				"method": "rhf"
			},
			{
				"type": "unocc",
				"energy": -0.03524,
				"method": "rhf"
			},
			{
				"type": "unocc",
				"energy": -0.01887,
				"method": "rhf"
			},
			{
				"type": "unocc",
				"energy": 0.0021,
				"method": "rhf"
			},
			{
				"type": "unocc",
				"energy": 0.0225,
				"method": "rhf"
			},
			{
				"type": "unocc",
				"energy": 0.02882,
				"method": "rhf"
			}
		],
		"cosmo_sigma_profile": { 
			"-0.025": 0.0,
			"-0.024": 0.0,
			"-0.023": 0.0,
			"-0.022": 0.0,
			"-0.021": 0.0,
			"-0.02": 0.0,
			"-0.019": 0.0,
			"-0.018": 0.0,
			"-0.017": 0.0,
			"-0.016": 0.0,
			"-0.015": 0.0,
			"-0.014": 0.0,
			"-0.013": 0.311795005896,
			"-0.012": 1.29752833903,
			"-0.011": 2.25653755831,
			"-0.01": 2.31738877713,
			"-0.009": 2.88854085627,
			"-0.008": 2.97232905268,
			"-0.007": 7.90164476455,
			"-0.006": 13.1159150896,
			"-0.005": 14.0322512271,
			"-0.004": 14.0609053358,
			"-0.003": 11.1437795645,
			"-0.002": 12.0132851085,
			"-0.001": 13.9238649843,
			"0.0": 14.1333869329,
			"0.001": 19.7559666174,
			"0.002": 26.3458254804,
			"0.003": 27.6325220729,
			"0.004": 29.1467092748,
			"0.005": 24.0284048314,
			"0.006": 1.84272407266,
			"0.007": 0.657473801192,
			"0.008": 0.607584616754,
			"0.009": 0.522600502364,
			"0.01": 0.884626822694,
			"0.011": 0.524909394482,
			"0.012": 0.468170576415,
			"0.013": 0.464721418643,
			"0.014": 0.140573882393,
			"0.015": 0.0,
			"0.016": 0.0,
			"0.017": 0.0,
			"0.018": 0.0,
			"0.019": 0.0,
			"0.02": 0.0,
			"0.021": 0.0,
			"0.022": 0.0,
			"0.023": 0.0,
			"0.024": 0.0,
			"0.025": 0.0
		}
	}
}
