{
	 "smiles": "OCCS(=O)(=O)C1=CC=C(C=C1)C(O)=O", 
	 "Tm": 463.15, 
	 "num_atms": 25, 
	 "gaussian": { 
		 "optdone": 1, 
		 "sigma_profile": "yes", 
		 "theory": "DFT", 
		 "functional": "B3LYP", 
		 "basiset": "6-31G**", 
		 "properties": { 
			 "R2extent": 4550.7246, 
			 "electric_dipole_moment_norm": 5.3265296357, 
			 "electric_quadrupole_moment_norm": 14.3254875704, 
			 "total_energy": -1123.22973156, 
			 "HOMO_LUMO_gap": 0.20021, 
			 "cosmo_polarized_energy": -23.2, 
			 "cosmo_cavitation_energy": 31.28, 
			 "cosmo_dispersion_energy": -22.81, 
			 "cosmo_repulsion_energy": 1.76, 
			 "cosmo_total_nonelectrostatic_energy": 10.22, 
			 "SMD_solvation_energy": 5.87 
		},
		"coords": [
			{
				"x": 1.7967296293,
				"y": 3.5278330129,
				"z": 2.0226645772,
				"element": "O" 
			},
			{
				"x": 0.8326099984,
				"y": 2.5191161207,
				"z": 1.7743553918,
				"element": "C" 
			},
			{
				"x": 1.2455270624,
				"y": 1.1941108696,
				"z": 2.4256342003,
				"element": "C" 
			},
			{
				"x": -0.0049381399,
				"y": -0.1234107497,
				"z": 2.2987687852,
				"element": "S" 
			},
			{
				"x": 0.5001786356,
				"y": -1.2730239446,
				"z": 3.0648884886,
				"element": "O" 
			},
			{
				"x": -1.3182027215,
				"y": 0.4772549886,
				"z": 2.585317813,
				"element": "O" 
			},
			{
				"x": 0.0123003798,
				"y": -0.5879397979,
				"z": 0.5521977635,
				"element": "C" 
			},
			{
				"x": 0.9401573404,
				"y": -1.534233701,
				"z": 0.1113840722,
				"element": "C" 
			},
			{
				"x": 0.9524408733,
				"y": -1.8951083275,
				"z": -1.2341670053,
				"element": "C" 
			},
			{
				"x": 0.0363225604,
				"y": -1.3134504842,
				"z": -2.1220500861,
				"element": "C" 
			},
			{
				"x": -0.8992024042,
				"y": -0.3781652047,
				"z": -1.6606972877,
				"element": "C" 
			},
			{
				"x": -0.9168910182,
				"y": -0.0119845751,
				"z": -0.3172822384,
				"element": "C" 
			},
			{
				"x": 0.007990466,
				"y": -1.6640824164,
				"z": -3.5717389391,
				"element": "C" 
			},
			{
				"x": 0.9437463839,
				"y": -2.5821017511,
				"z": -3.9107187252,
				"element": "O" 
			},
			{
				"x": -0.7622949197,
				"y": -1.1876542486,
				"z": -4.3798267519,
				"element": "O" 
			},
			{
				"x": 2.5860529866,
				"y": 3.3305219504,
				"z": 1.5020772345,
				"element": "H" 
			},
			{
				"x": -0.10216026,
				"y": 2.8625567367,
				"z": 2.2225950209,
				"element": "H" 
			},
			{
				"x": 0.6552071213,
				"y": 2.3786805948,
				"z": 0.6982057453,
				"element": "H" 
			},
			{
				"x": 2.1696457262,
				"y": 0.7876198752,
				"z": 2.0018684661,
				"element": "H" 
			},
			{
				"x": 1.3879295936,
				"y": 1.3241761154,
				"z": 3.5027390235,
				"element": "H" 
			},
			{
				"x": 1.6211611408,
				"y": -1.9941174989,
				"z": 0.8196414595,
				"element": "H" 
			},
			{
				"x": 1.6610422402,
				"y": -2.6299768385,
				"z": -1.5979662014,
				"element": "H" 
			},
			{
				"x": -1.6055581147,
				"y": 0.0439358425,
				"z": -2.3671678067,
				"element": "H" 
			},
			{
				"x": -1.6486164357,
				"y": 0.6910169416,
				"z": 0.0657460984,
				"element": "H" 
			},
			{
				"x": 0.8354218757,
				"y": -2.7374735104,
				"z": -4.8635690981,
				"element": "H" 
			}
		],
		 "valence_orbital": [ 
			{
				"type": "occ",
				"energy": -0.30469,
				"method": "rhf"
			},
			{
				"type": "occ",
				"energy": -0.29519,
				"method": "rhf"
			},
			{
				"type": "occ",
				"energy": -0.2892,
				"method": "rhf"
			},
			{
				"type": "occ",
				"energy": -0.2866,
				"method": "rhf"
			},
			{
				"type": "occ",
				"energy": -0.28059,
				"method": "rhf"
			},
			{
				"type": "unocc",
				"energy": -0.08038,
				"method": "rhf"
			},
			{
				"type": "unocc",
				"energy": -0.0369,
				"method": "rhf"
			},
			{
				"type": "unocc",
				"energy": 0.0184,
				"method": "rhf"
			},
			{
				"type": "unocc",
				"energy": 0.04256,
				"method": "rhf"
			},
			{
				"type": "unocc",
				"energy": 0.05865,
				"method": "rhf"
			}
		],
		"cosmo_sigma_profile": { 
			"-0.025": 0.0,
			"-0.024": 0.0,
			"-0.023": 0.0,
			"-0.022": 0.0,
			"-0.021": 0.0,
			"-0.02": 0.0,
			"-0.019": 0.399483781557,
			"-0.018": 0.732754974933,
			"-0.017": 1.04619153928,
			"-0.016": 2.08621321626,
			"-0.015": 2.34247770922,
			"-0.014": 1.7789408192,
			"-0.013": 1.54841051765,
			"-0.012": 1.91802709847,
			"-0.011": 1.79865757394,
			"-0.01": 1.66034994507,
			"-0.009": 3.87231231439,
			"-0.008": 8.6641920549,
			"-0.007": 12.5386898403,
			"-0.006": 12.5664730311,
			"-0.005": 13.4572410238,
			"-0.004": 14.4064237626,
			"-0.003": 13.7672555986,
			"-0.002": 14.3758011626,
			"-0.001": 15.3719595115,
			"0.0": 17.2246052895,
			"0.001": 20.2795367535,
			"0.002": 8.24347284282,
			"0.003": 6.22214382849,
			"0.004": 6.48623276129,
			"0.005": 6.97135373866,
			"0.006": 5.86945712743,
			"0.007": 4.86793286122,
			"0.008": 5.48202327655,
			"0.009": 7.12044856043,
			"0.01": 9.19683014353,
			"0.011": 14.5412569931,
			"0.012": 8.4015908985,
			"0.013": 2.3268806339,
			"0.014": 0.870308752643,
			"0.015": 0.0,
			"0.016": 0.0,
			"0.017": 0.0,
			"0.018": 0.0,
			"0.019": 0.0,
			"0.02": 0.0,
			"0.021": 0.0,
			"0.022": 0.0,
			"0.023": 0.0,
			"0.024": 0.0,
			"0.025": 0.0
		}
	}
}
