{
	 "smiles": "COC1=CC(=CC=C1)N1C=CN=C1S", 
	 "Tm": 423.15, 
	 "num_atms": 24, 
	 "gaussian": { 
		 "optdone": 1, 
		 "sigma_profile": "yes", 
		 "theory": "DFT", 
		 "functional": "B3LYP", 
		 "basiset": "6-31G**", 
		 "properties": { 
			 "R2extent": 3831.5106, 
			 "electric_dipole_moment_norm": 4.99961024981, 
			 "electric_quadrupole_moment_norm": 17.022416129, 
			 "total_energy": -969.974347206, 
			 "HOMO_LUMO_gap": 0.17755, 
			 "cosmo_polarized_energy": -12.89, 
			 "cosmo_cavitation_energy": 29.84, 
			 "cosmo_dispersion_energy": -21.79, 
			 "cosmo_repulsion_energy": 1.67, 
			 "cosmo_total_nonelectrostatic_energy": 9.72, 
			 "SMD_solvation_energy": 4.08 
		},
		"coords": [
			{
				"x": 3.1739963454,
				"y": 0.5427188262,
				"z": 0.4082389516,
				"element": "C" 
			},
			{
				"x": 2.6231541704,
				"y": 1.4875514792,
				"z": -0.499292136,
				"element": "O" 
			},
			{
				"x": 1.2697362377,
				"y": 1.5769897029,
				"z": -0.6006106967,
				"element": "C" 
			},
			{
				"x": 0.3697395425,
				"y": 0.7948692478,
				"z": 0.131192742,
				"element": "C" 
			},
			{
				"x": -1.0071605739,
				"y": 0.9782508332,
				"z": -0.0551835839,
				"element": "C" 
			},
			{
				"x": -1.4943206538,
				"y": 1.9233695802,
				"z": -0.95892864,
				"element": "C" 
			},
			{
				"x": -0.5801179726,
				"y": 2.6856761614,
				"z": -1.694976681,
				"element": "C" 
			},
			{
				"x": 0.7877970333,
				"y": 2.5222638267,
				"z": -1.5214759221,
				"element": "C" 
			},
			{
				"x": -1.9104906804,
				"y": 0.1869757793,
				"z": 0.7157800605,
				"element": "N" 
			},
			{
				"x": -1.973051161,
				"y": 0.1689934066,
				"z": 2.1093555595,
				"element": "C" 
			},
			{
				"x": -2.9527584908,
				"y": -0.7291708232,
				"z": 2.4264119695,
				"element": "C" 
			},
			{
				"x": -3.4969379862,
				"y": -1.2835076977,
				"z": 1.2878104595,
				"element": "N" 
			},
			{
				"x": -2.8597660144,
				"y": -0.7219293711,
				"z": 0.2870448768,
				"element": "C" 
			},
			{
				"x": -3.1785706809,
				"y": -1.1916443777,
				"z": -1.3921644034,
				"element": "S" 
			},
			{
				"x": 2.8883003822,
				"y": -0.4833921481,
				"z": 0.1450243695,
				"element": "H" 
			},
			{
				"x": 2.8668335271,
				"y": 0.7490829499,
				"z": 1.4412293804,
				"element": "H" 
			},
			{
				"x": 4.2567183233,
				"y": 0.6462005359,
				"z": 0.3278983963,
				"element": "H" 
			},
			{
				"x": 0.7056655928,
				"y": 0.0394338761,
				"z": 0.8300054864,
				"element": "H" 
			},
			{
				"x": -2.5632457753,
				"y": 2.0725641733,
				"z": -1.0639934521,
				"element": "H" 
			},
			{
				"x": -0.9452956475,
				"y": 3.4249535041,
				"z": -2.4013496635,
				"element": "H" 
			},
			{
				"x": 1.5060942075,
				"y": 3.1117927699,
				"z": -2.0809567176,
				"element": "H" 
			},
			{
				"x": -1.3477701032,
				"y": 0.8194645676,
				"z": 2.7003848356,
				"element": "H" 
			},
			{
				"x": -3.3066052611,
				"y": -1.0094051455,
				"z": 3.4087959497,
				"element": "H" 
			},
			{
				"x": -2.3006443612,
				"y": -0.337301657,
				"z": -1.953241141,
				"element": "H" 
			}
		],
		 "valence_orbital": [ 
			{
				"type": "occ",
				"energy": -0.28443,
				"method": "rhf"
			},
			{
				"type": "occ",
				"energy": -0.26912,
				"method": "rhf"
			},
			{
				"type": "occ",
				"energy": -0.25758,
				"method": "rhf"
			},
			{
				"type": "occ",
				"energy": -0.2376,
				"method": "rhf"
			},
			{
				"type": "occ",
				"energy": -0.20559,
				"method": "rhf"
			},
			{
				"type": "unocc",
				"energy": -0.02804,
				"method": "rhf"
			},
			{
				"type": "unocc",
				"energy": -0.01249,
				"method": "rhf"
			},
			{
				"type": "unocc",
				"energy": 0.02653,
				"method": "rhf"
			},
			{
				"type": "unocc",
				"energy": 0.03418,
				"method": "rhf"
			},
			{
				"type": "unocc",
				"energy": 0.0683,
				"method": "rhf"
			}
		],
		"cosmo_sigma_profile": { 
			"-0.025": 0.0,
			"-0.024": 0.0,
			"-0.023": 0.0,
			"-0.022": 0.0,
			"-0.021": 0.0,
			"-0.02": 0.0,
			"-0.019": 0.0,
			"-0.018": 0.0,
			"-0.017": 0.0,
			"-0.016": 0.0,
			"-0.015": 0.0,
			"-0.014": 0.0,
			"-0.013": 0.0,
			"-0.012": 0.0,
			"-0.011": 0.142003616186,
			"-0.01": 0.896835922704,
			"-0.009": 1.39070526396,
			"-0.008": 2.92019627753,
			"-0.007": 8.26357292489,
			"-0.006": 18.0266155544,
			"-0.005": 22.1177234356,
			"-0.004": 22.9638719159,
			"-0.003": 17.6307226379,
			"-0.002": 13.6347265212,
			"-0.001": 12.8979241725,
			"0.0": 12.0614118423,
			"0.001": 14.0832223595,
			"0.002": 17.0715985561,
			"0.003": 19.5815682187,
			"0.004": 15.3255017473,
			"0.005": 11.1404280795,
			"0.006": 8.3994987515,
			"0.007": 5.83474798341,
			"0.008": 4.45843646953,
			"0.009": 2.58908514518,
			"0.01": 2.52759466436,
			"0.011": 1.93936762149,
			"0.012": 1.16067008457,
			"0.013": 0.989732972152,
			"0.014": 0.954088503044,
			"0.015": 0.933036722699,
			"0.016": 1.32409461568,
			"0.017": 0.466763505072,
			"0.018": 0.0,
			"0.019": 0.0,
			"0.02": 0.0,
			"0.021": 0.0,
			"0.022": 0.0,
			"0.023": 0.0,
			"0.024": 0.0,
			"0.025": 0.0
		}
	}
}
