{
	 "smiles": "OC(=O)COC1=C(Cl)C=C(F)C=C1", 
	 "Tm": 414.15, 
	 "num_atms": 19, 
	 "gaussian": { 
		 "optdone": 1, 
		 "sigma_profile": "yes", 
		 "theory": "DFT", 
		 "functional": "B3LYP", 
		 "basiset": "6-31G**", 
		 "properties": { 
			 "R2extent": 3701.1195, 
			 "electric_dipole_moment_norm": 3.67623743112, 
			 "electric_quadrupole_moment_norm": 15.0260794188, 
			 "total_energy": -1094.15584875, 
			 "HOMO_LUMO_gap": 0.20595, 
			 "cosmo_polarized_energy": -13.05, 
			 "cosmo_cavitation_energy": 26.6, 
			 "cosmo_dispersion_energy": -19.32, 
			 "cosmo_repulsion_energy": 1.51, 
			 "cosmo_total_nonelectrostatic_energy": 8.79, 
			 "SMD_solvation_energy": 6.45 
		},
		"coords": [
			{
				"x": 3.1494438713,
				"y": -1.2382656827,
				"z": 0.0631344518,
				"element": "O" 
			},
			{
				"x": 2.1812239672,
				"y": -1.933434663,
				"z": -0.5503847921,
				"element": "C" 
			},
			{
				"x": 2.3902153119,
				"y": -2.9238086957,
				"z": -1.2046227763,
				"element": "O" 
			},
			{
				"x": 0.7586284282,
				"y": -1.3942657498,
				"z": -0.3756569581,
				"element": "C" 
			},
			{
				"x": 0.8118713749,
				"y": -0.2286310355,
				"z": 0.4362875547,
				"element": "O" 
			},
			{
				"x": -0.3376272025,
				"y": 0.4440483465,
				"z": 0.7411705534,
				"element": "C" 
			},
			{
				"x": -0.2075576218,
				"y": 1.5883040063,
				"z": 1.5492015746,
				"element": "C" 
			},
			{
				"x": 1.3776451581,
				"y": 2.0759604505,
				"z": 2.1057260582,
				"element": "Cl" 
			},
			{
				"x": -1.3211130464,
				"y": 2.3377494453,
				"z": 1.9121332064,
				"element": "C" 
			},
			{
				"x": -2.5738123214,
				"y": 1.9344110236,
				"z": 1.4598413451,
				"element": "C" 
			},
			{
				"x": -3.6523304219,
				"y": 2.6607721693,
				"z": 1.811674024,
				"element": "F" 
			},
			{
				"x": -2.7359239107,
				"y": 0.8117427208,
				"z": 0.6622457009,
				"element": "C" 
			},
			{
				"x": -1.6103436762,
				"y": 0.0663896636,
				"z": 0.3038585324,
				"element": "C" 
			},
			{
				"x": 2.7469095256,
				"y": -0.4828292064,
				"z": 0.5284546673,
				"element": "H" 
			},
			{
				"x": 0.1473429083,
				"y": -2.1783872129,
				"z": 0.0874138522,
				"element": "H" 
			},
			{
				"x": 0.3495130624,
				"y": -1.1731363218,
				"z": -1.3689819347,
				"element": "H" 
			},
			{
				"x": -1.2207390141,
				"y": 3.2187151703,
				"z": 2.534302723,
				"element": "H" 
			},
			{
				"x": -3.7263627497,
				"y": 0.5257329426,
				"z": 0.3273367138,
				"element": "H" 
			},
			{
				"x": -1.7348836434,
				"y": -0.8110673711,
				"z": -0.3191344962,
				"element": "H" 
			}
		],
		 "valence_orbital": [ 
			{
				"type": "occ",
				"energy": -0.33271,
				"method": "rhf"
			},
			{
				"type": "occ",
				"energy": -0.31933,
				"method": "rhf"
			},
			{
				"type": "occ",
				"energy": -0.28223,
				"method": "rhf"
			},
			{
				"type": "occ",
				"energy": -0.27723,
				"method": "rhf"
			},
			{
				"type": "occ",
				"energy": -0.24617,
				"method": "rhf"
			},
			{
				"type": "unocc",
				"energy": -0.04022,
				"method": "rhf"
			},
			{
				"type": "unocc",
				"energy": -0.01561,
				"method": "rhf"
			},
			{
				"type": "unocc",
				"energy": 0.00291,
				"method": "rhf"
			},
			{
				"type": "unocc",
				"energy": 0.00659,
				"method": "rhf"
			},
			{
				"type": "unocc",
				"energy": 0.0711,
				"method": "rhf"
			}
		],
		"cosmo_sigma_profile": { 
			"-0.025": 0.0,
			"-0.024": 0.0,
			"-0.023": 0.0,
			"-0.022": 0.0,
			"-0.021": 0.0,
			"-0.02": 0.0,
			"-0.019": 0.0,
			"-0.018": 0.0,
			"-0.017": 0.0,
			"-0.016": 0.0,
			"-0.015": 0.0,
			"-0.014": 0.0,
			"-0.013": 0.0,
			"-0.012": 0.0,
			"-0.011": 0.238323842873,
			"-0.01": 1.58827860535,
			"-0.009": 8.7747701416,
			"-0.008": 12.8134524526,
			"-0.007": 11.9276297208,
			"-0.006": 11.1192426518,
			"-0.005": 7.79656188214,
			"-0.004": 7.03853192807,
			"-0.003": 7.21472085867,
			"-0.002": 8.80896780068,
			"-0.001": 11.3639679367,
			"0.0": 18.8377133555,
			"0.001": 24.9260147588,
			"0.002": 19.4557239758,
			"0.003": 13.7270804515,
			"0.004": 18.226801741,
			"0.005": 4.68579334314,
			"0.006": 2.62480332477,
			"0.007": 2.44669229352,
			"0.008": 3.08420357978,
			"0.009": 4.2282948602,
			"0.01": 4.2669251652,
			"0.011": 5.51824255915,
			"0.012": 4.32799382267,
			"0.013": 0.736639890789,
			"0.014": 0.0,
			"0.015": 0.0,
			"0.016": 0.0,
			"0.017": 0.0,
			"0.018": 0.0,
			"0.019": 0.0,
			"0.02": 0.0,
			"0.021": 0.0,
			"0.022": 0.0,
			"0.023": 0.0,
			"0.024": 0.0,
			"0.025": 0.0
		}
	}
}
