{
	 "smiles": "OCC(O)CCl", 
	 "Tm": 233.15, 
	 "num_atms": 13, 
	 "gaussian": { 
		 "optdone": 1, 
		 "sigma_profile": "yes", 
		 "theory": "DFT", 
		 "functional": "B3LYP", 
		 "basiset": "6-31G**", 
		 "properties": { 
			 "R2extent": 1281.5145, 
			 "electric_dipole_moment_norm": 2.0395985708, 
			 "electric_quadrupole_moment_norm": 10.1233721294, 
			 "total_energy": -729.158764385, 
			 "HOMO_LUMO_gap": 0.28889, 
			 "cosmo_polarized_energy": -12.48, 
			 "cosmo_cavitation_energy": 17.76, 
			 "cosmo_dispersion_energy": -13.42, 
			 "cosmo_repulsion_energy": 1.19, 
			 "cosmo_total_nonelectrostatic_energy": 5.52, 
			 "SMD_solvation_energy": 2.83 
		},
		"coords": [
			{
				"x": 1.1897268703,
				"y": -1.6347854389,
				"z": 1.3781531317,
				"element": "O" 
			},
			{
				"x": 1.5934808984,
				"y": -0.3008354716,
				"z": 1.1273658146,
				"element": "C" 
			},
			{
				"x": 0.6221659404,
				"y": 0.2935332979,
				"z": 0.1041174252,
				"element": "C" 
			},
			{
				"x": -0.6911964828,
				"y": 0.4292152147,
				"z": 0.6050400225,
				"element": "O" 
			},
			{
				"x": 1.1285535027,
				"y": 1.5967261203,
				"z": -0.5143036914,
				"element": "C" 
			},
			{
				"x": 1.2816267818,
				"y": 2.9273121681,
				"z": 0.7293889148,
				"element": "Cl" 
			},
			{
				"x": 1.695440059,
				"y": -1.9673086763,
				"z": 2.1291582508,
				"element": "H" 
			},
			{
				"x": 1.5778113737,
				"y": 0.3139567225,
				"z": 2.0402252798,
				"element": "H" 
			},
			{
				"x": 2.6177973791,
				"y": -0.2552963496,
				"z": 0.7193255223,
				"element": "H" 
			},
			{
				"x": 0.5464442195,
				"y": -0.425604826,
				"z": -0.7229749619,
				"element": "H" 
			},
			{
				"x": -0.66555949,
				"y": 1.0885466967,
				"z": 1.3136739265,
				"element": "H" 
			},
			{
				"x": 2.1144811419,
				"y": 1.484687797,
				"z": -0.9682825383,
				"element": "H" 
			},
			{
				"x": 0.415927806,
				"y": 1.9636527452,
				"z": -1.2524870966,
				"element": "H" 
			}
		],
		 "valence_orbital": [ 
			{
				"type": "occ",
				"energy": -0.32691,
				"method": "rhf"
			},
			{
				"type": "occ",
				"energy": -0.31349,
				"method": "rhf"
			},
			{
				"type": "occ",
				"energy": -0.30503,
				"method": "rhf"
			},
			{
				"type": "occ",
				"energy": -0.27448,
				"method": "rhf"
			},
			{
				"type": "occ",
				"energy": -0.27298,
				"method": "rhf"
			},
			{
				"type": "unocc",
				"energy": 0.01591,
				"method": "rhf"
			},
			{
				"type": "unocc",
				"energy": 0.06963,
				"method": "rhf"
			},
			{
				"type": "unocc",
				"energy": 0.0805,
				"method": "rhf"
			},
			{
				"type": "unocc",
				"energy": 0.10948,
				"method": "rhf"
			},
			{
				"type": "unocc",
				"energy": 0.12844,
				"method": "rhf"
			}
		],
		"cosmo_sigma_profile": { 
			"-0.025": 0.0,
			"-0.024": 0.0,
			"-0.023": 0.0,
			"-0.022": 0.0,
			"-0.021": 0.0,
			"-0.02": 0.0,
			"-0.019": 0.0,
			"-0.018": 0.0,
			"-0.017": 0.0,
			"-0.016": 0.56293310357,
			"-0.015": 1.23633048531,
			"-0.014": 1.27772642722,
			"-0.013": 1.41486802738,
			"-0.012": 1.95183336512,
			"-0.011": 1.34117290801,
			"-0.01": 1.35836200937,
			"-0.009": 1.46505287844,
			"-0.008": 3.46448047149,
			"-0.007": 8.70754017113,
			"-0.006": 10.7734409579,
			"-0.005": 10.1407691506,
			"-0.004": 9.26390165166,
			"-0.003": 7.78989497926,
			"-0.002": 5.59620178504,
			"-0.001": 5.74512031133,
			"0.0": 6.52172656951,
			"0.001": 5.41204221175,
			"0.002": 5.6772035949,
			"0.003": 5.40208676646,
			"0.004": 6.28936730995,
			"0.005": 6.85978133314,
			"0.006": 8.83657318306,
			"0.007": 2.83696399607,
			"0.008": 1.16670991091,
			"0.009": 2.08892828157,
			"0.01": 2.9163834298,
			"0.011": 1.20785044981,
			"0.012": 3.17228109529,
			"0.013": 3.70002578793,
			"0.014": 3.71212120134,
			"0.015": 1.71691760825,
			"0.016": 0.527473977494,
			"0.017": 0.0,
			"0.018": 0.0,
			"0.019": 0.0,
			"0.02": 0.0,
			"0.021": 0.0,
			"0.022": 0.0,
			"0.023": 0.0,
			"0.024": 0.0,
			"0.025": 0.0
		}
	}
}
