{
	 "smiles": "COC1=CC(OC)=CC=C1", 
	 "Tm": 221.15, 
	 "num_atms": 20, 
	 "gaussian": { 
		 "optdone": 1, 
		 "sigma_profile": "yes", 
		 "theory": "DFT", 
		 "functional": "B3LYP", 
		 "basiset": "6-31G**", 
		 "properties": { 
			 "R2extent": 1813.3696, 
			 "electric_dipole_moment_norm": 1.29825417003, 
			 "electric_quadrupole_moment_norm": 10.9245351123, 
			 "total_energy": -461.300486634, 
			 "HOMO_LUMO_gap": 0.21761, 
			 "cosmo_polarized_energy": -6.94, 
			 "cosmo_cavitation_energy": 23.32, 
			 "cosmo_dispersion_energy": -17.5, 
			 "cosmo_repulsion_energy": 1.42, 
			 "cosmo_total_nonelectrostatic_energy": 7.24, 
			 "SMD_solvation_energy": 5.62 
		},
		"coords": [
			{
				"x": -3.1288871411,
				"y": 0.3245295134,
				"z": -0.6884331831,
				"element": "C" 
			},
			{
				"x": -2.018853421,
				"y": 1.1992836254,
				"z": -0.5718307597,
				"element": "O" 
			},
			{
				"x": -0.7690485669,
				"y": 0.6527720698,
				"z": -0.5141094957,
				"element": "C" 
			},
			{
				"x": -0.5108499471,
				"y": -0.7161391477,
				"z": -0.5625226654,
				"element": "C" 
			},
			{
				"x": 0.8151823993,
				"y": -1.1757828521,
				"z": -0.4955694062,
				"element": "C" 
			},
			{
				"x": 0.9520959264,
				"y": -2.5347177482,
				"z": -0.5517732035,
				"element": "O" 
			},
			{
				"x": 2.2605420075,
				"y": -3.0774939302,
				"z": -0.4900481627,
				"element": "C" 
			},
			{
				"x": 1.8770738521,
				"y": -0.275647698,
				"z": -0.3809433782,
				"element": "C" 
			},
			{
				"x": 1.5914921686,
				"y": 1.0957778401,
				"z": -0.3341835119,
				"element": "C" 
			},
			{
				"x": 0.2902952508,
				"y": 1.5702747169,
				"z": -0.398820305,
				"element": "C" 
			},
			{
				"x": -3.2014763475,
				"y": -0.3553174159,
				"z": 0.1703869236,
				"element": "H" 
			},
			{
				"x": -3.0818472488,
				"y": -0.2698084371,
				"z": -1.6101646288,
				"element": "H" 
			},
			{
				"x": -4.0139747733,
				"y": 0.9621513591,
				"z": -0.7172789967,
				"element": "H" 
			},
			{
				"x": -1.2976949718,
				"y": -1.4542071146,
				"z": -0.6507994446,
				"element": "H" 
			},
			{
				"x": 2.1411681767,
				"y": -4.1605527911,
				"z": -0.5503540596,
				"element": "H" 
			},
			{
				"x": 2.7620040436,
				"y": -2.8219727044,
				"z": 0.4524552773,
				"element": "H" 
			},
			{
				"x": 2.8816862928,
				"y": -2.7360155085,
				"z": -1.3282851545,
				"element": "H" 
			},
			{
				"x": 2.9034641673,
				"y": -0.6160866431,
				"z": -0.3283720509,
				"element": "H" 
			},
			{
				"x": 2.4121929622,
				"y": 1.8021336242,
				"z": -0.2450578743,
				"element": "H" 
			},
			{
				"x": 0.0637351703,
				"y": 2.6300192417,
				"z": -0.36309592,
				"element": "H" 
			}
		],
		 "valence_orbital": [ 
			{
				"type": "occ",
				"energy": -0.32929,
				"method": "rhf"
			},
			{
				"type": "occ",
				"energy": -0.32335,
				"method": "rhf"
			},
			{
				"type": "occ",
				"energy": -0.29386,
				"method": "rhf"
			},
			{
				"type": "occ",
				"energy": -0.22571,
				"method": "rhf"
			},
			{
				"type": "occ",
				"energy": -0.20667,
				"method": "rhf"
			},
			{
				"type": "unocc",
				"energy": 0.01094,
				"method": "rhf"
			},
			{
				"type": "unocc",
				"energy": 0.02542,
				"method": "rhf"
			},
			{
				"type": "unocc",
				"energy": 0.09458,
				"method": "rhf"
			},
			{
				"type": "unocc",
				"energy": 0.10766,
				"method": "rhf"
			},
			{
				"type": "unocc",
				"energy": 0.11318,
				"method": "rhf"
			}
		],
		"cosmo_sigma_profile": { 
			"-0.025": 0.0,
			"-0.024": 0.0,
			"-0.023": 0.0,
			"-0.022": 0.0,
			"-0.021": 0.0,
			"-0.02": 0.0,
			"-0.019": 0.0,
			"-0.018": 0.0,
			"-0.017": 0.0,
			"-0.016": 0.0,
			"-0.015": 0.0,
			"-0.014": 0.0,
			"-0.013": 0.0,
			"-0.012": 0.0,
			"-0.011": 0.0,
			"-0.01": 0.0,
			"-0.009": 0.0,
			"-0.008": 0.0,
			"-0.007": 0.0853135510266,
			"-0.006": 7.78908254126,
			"-0.005": 24.2432151889,
			"-0.004": 22.301165681,
			"-0.003": 23.131696672,
			"-0.002": 13.9420820192,
			"-0.001": 8.44045923578,
			"0.0": 8.24281568208,
			"0.001": 7.94973101782,
			"0.002": 7.11755030784,
			"0.003": 9.1645236574,
			"0.004": 13.0238745693,
			"0.005": 14.3523151059,
			"0.006": 10.4899479249,
			"0.007": 5.09524897695,
			"0.008": 2.64606334292,
			"0.009": 2.20992611694,
			"0.01": 3.64953816952,
			"0.011": 1.03484225525,
			"0.012": 0.0,
			"0.013": 0.0,
			"0.014": 0.0,
			"0.015": 0.0,
			"0.016": 0.0,
			"0.017": 0.0,
			"0.018": 0.0,
			"0.019": 0.0,
			"0.02": 0.0,
			"0.021": 0.0,
			"0.022": 0.0,
			"0.023": 0.0,
			"0.024": 0.0,
			"0.025": 0.0
		}
	}
}
