{
	 "smiles": "C(=CP(C1=CC=CC=C1)C1=CC=CC=C1)P(C1=CC=CC=C1)C1=CC=CC=C1", 
	 "Tm": 399.15, 
	 "num_atms": 50, 
	 "gaussian": { 
		 "optdone": 1, 
		 "sigma_profile": "yes", 
		 "theory": "DFT", 
		 "functional": "B3LYP", 
		 "basiset": "6-31G**", 
		 "properties": { 
			 "R2extent": 14154.501, 
			 "electric_dipole_moment_norm": 2.1019552255, 
			 "electric_quadrupole_moment_norm": 14.0417363841, 
			 "total_energy": -1686.6988183, 
			 "HOMO_LUMO_gap": 0.16817, 
			 "cosmo_polarized_energy": -12.63, 
			 "cosmo_cavitation_energy": 57.21, 
			 "cosmo_dispersion_energy": -37.81, 
			 "cosmo_repulsion_energy": 3.05, 
			 "cosmo_total_nonelectrostatic_energy": 22.45, 
			 "SMD_solvation_energy": 9.81 
		},
		"coords": [
			{
				"x": 0.6599510313,
				"y": 0.0167543881,
				"z": -0.5276181945,
				"element": "C" 
			},
			{
				"x": 1.1178883534,
				"y": -0.7264931327,
				"z": 0.4920335013,
				"element": "C" 
			},
			{
				"x": 0.073417669,
				"y": -1.7163932368,
				"z": 1.6518469004,
				"element": "P" 
			},
			{
				"x": 0.074273976,
				"y": -0.6354973691,
				"z": 3.161312275,
				"element": "C" 
			},
			{
				"x": 0.2549650694,
				"y": 0.7543095067,
				"z": 3.1055810045,
				"element": "C" 
			},
			{
				"x": 0.1351903281,
				"y": 1.5354674714,
				"z": 4.2582696907,
				"element": "C" 
			},
			{
				"x": -0.1660339248,
				"y": 0.9423871933,
				"z": 5.4838952733,
				"element": "C" 
			},
			{
				"x": -0.3534414568,
				"y": -0.4408380667,
				"z": 5.5507212291,
				"element": "C" 
			},
			{
				"x": -0.2407162328,
				"y": -1.2204186473,
				"z": 4.4009549737,
				"element": "C" 
			},
			{
				"x": 1.3237948093,
				"y": -3.0076640104,
				"z": 2.1174443283,
				"element": "C" 
			},
			{
				"x": 1.0982926254,
				"y": -4.3159882392,
				"z": 1.6639960805,
				"element": "C" 
			},
			{
				"x": 2.0105322398,
				"y": -5.3369657283,
				"z": 1.9420640758,
				"element": "C" 
			},
			{
				"x": 3.1590814292,
				"y": -5.0622117786,
				"z": 2.6845188578,
				"element": "C" 
			},
			{
				"x": 3.3930366101,
				"y": -3.7643244088,
				"z": 3.1477932487,
				"element": "C" 
			},
			{
				"x": 2.4832821985,
				"y": -2.7454053089,
				"z": 2.8663955715,
				"element": "C" 
			},
			{
				"x": -1.1248882431,
				"y": 0.2871501643,
				"z": -0.9180278725,
				"element": "P" 
			},
			{
				"x": -1.1428201022,
				"y": 2.1440583955,
				"z": -0.8385754007,
				"element": "C" 
			},
			{
				"x": -1.8224676201,
				"y": 2.734116645,
				"z": 0.2384165725,
				"element": "C" 
			},
			{
				"x": -1.8479160743,
				"y": 4.1222978891,
				"z": 0.3927217095,
				"element": "C" 
			},
			{
				"x": -1.1993155182,
				"y": 4.9395045213,
				"z": -0.5335086732,
				"element": "C" 
			},
			{
				"x": -0.5236785406,
				"y": 4.3645511822,
				"z": -1.613438881,
				"element": "C" 
			},
			{
				"x": -0.4937000037,
				"y": 2.9782876062,
				"z": -1.764042477,
				"element": "C" 
			},
			{
				"x": -1.1081955929,
				"y": -0.0247838007,
				"z": -2.7426325898,
				"element": "C" 
			},
			{
				"x": -2.0875337575,
				"y": 0.5648231966,
				"z": -3.5612835915,
				"element": "C" 
			},
			{
				"x": -2.163839755,
				"y": 0.2558651124,
				"z": -4.9185080777,
				"element": "C" 
			},
			{
				"x": -1.2703183749,
				"y": -0.6574968736,
				"z": -5.4840260381,
				"element": "C" 
			},
			{
				"x": -0.3025622786,
				"y": -1.2595986422,
				"z": -4.6799787549,
				"element": "C" 
			},
			{
				"x": -0.2230460012,
				"y": -0.9479816947,
				"z": -3.3206602884,
				"element": "C" 
			},
			{
				"x": 1.3846866781,
				"y": 0.5384281213,
				"z": -1.1567700131,
				"element": "H" 
			},
			{
				"x": 2.197067368,
				"y": -0.7853905196,
				"z": 0.645321967,
				"element": "H" 
			},
			{
				"x": 0.4926827629,
				"y": 1.2325231632,
				"z": 2.1607620502,
				"element": "H" 
			},
			{
				"x": 0.2832042744,
				"y": 2.6101244987,
				"z": 4.1939985828,
				"element": "H" 
			},
			{
				"x": -0.2567474541,
				"y": 1.5504472708,
				"z": 6.3794677559,
				"element": "H" 
			},
			{
				"x": -0.5912386491,
				"y": -0.9135402491,
				"z": 6.4998063069,
				"element": "H" 
			},
			{
				"x": -0.3924529753,
				"y": -2.2945914984,
				"z": 4.4686727616,
				"element": "H" 
			},
			{
				"x": 0.2001280505,
				"y": -4.5347140137,
				"z": 1.0921892923,
				"element": "H" 
			},
			{
				"x": 1.8204884029,
				"y": -6.3447996474,
				"z": 1.5835501564,
				"element": "H" 
			},
			{
				"x": 3.8679761804,
				"y": -5.8551535038,
				"z": 2.9060331129,
				"element": "H" 
			},
			{
				"x": 4.2844986133,
				"y": -3.5472231456,
				"z": 3.7300525362,
				"element": "H" 
			},
			{
				"x": 2.667640453,
				"y": -1.7422940719,
				"z": 3.2404995722,
				"element": "H" 
			},
			{
				"x": -2.3349456046,
				"y": 2.101166859,
				"z": 0.9579860066,
				"element": "H" 
			},
			{
				"x": -2.3800684095,
				"y": 4.5628797243,
				"z": 1.2312144491,
				"element": "H" 
			},
			{
				"x": -1.2225521189,
				"y": 6.0195947634,
				"z": -0.4186179956,
				"element": "H" 
			},
			{
				"x": -0.0191994579,
				"y": 4.9973658114,
				"z": -2.3386292836,
				"element": "H" 
			},
			{
				"x": 0.0258583226,
				"y": 2.5421452656,
				"z": -2.6122909821,
				"element": "H" 
			},
			{
				"x": -2.7895503265,
				"y": 1.2774146974,
				"z": -3.1365795376,
				"element": "H" 
			},
			{
				"x": -2.923343325,
				"y": 0.7281753841,
				"z": -5.5355931889,
				"element": "H" 
			},
			{
				"x": -1.3313680603,
				"y": -0.8990881308,
				"z": -6.5412950136,
				"element": "H" 
			},
			{
				"x": 0.3954537183,
				"y": -1.9734742242,
				"z": -5.1089224679,
				"element": "H" 
			},
			{
				"x": 0.533348694,
				"y": -1.4287088888,
				"z": -2.7067205208,
				"element": "H" 
			}
		],
		 "valence_orbital": [ 
			{
				"type": "occ",
				"energy": -0.2497,
				"method": "rhf"
			},
			{
				"type": "occ",
				"energy": -0.24669,
				"method": "rhf"
			},
			{
				"type": "occ",
				"energy": -0.24548,
				"method": "rhf"
			},
			{
				"type": "occ",
				"energy": -0.22268,
				"method": "rhf"
			},
			{
				"type": "occ",
				"energy": -0.20428,
				"method": "rhf"
			},
			{
				"type": "unocc",
				"energy": -0.03611,
				"method": "rhf"
			},
			{
				"type": "unocc",
				"energy": -0.01442,
				"method": "rhf"
			},
			{
				"type": "unocc",
				"energy": -0.00984,
				"method": "rhf"
			},
			{
				"type": "unocc",
				"energy": -0.00922,
				"method": "rhf"
			},
			{
				"type": "unocc",
				"energy": -0.00776,
				"method": "rhf"
			}
		],
		"cosmo_sigma_profile": { 
			"-0.025": 0.0,
			"-0.024": 0.0,
			"-0.023": 0.0,
			"-0.022": 0.0,
			"-0.021": 0.0,
			"-0.02": 0.0,
			"-0.019": 0.0,
			"-0.018": 0.0,
			"-0.017": 0.0,
			"-0.016": 0.0,
			"-0.015": 0.0,
			"-0.014": 0.0,
			"-0.013": 0.0,
			"-0.012": 0.0,
			"-0.011": 0.0,
			"-0.01": 0.0,
			"-0.009": 0.0,
			"-0.008": 0.0,
			"-0.007": 0.101282745362,
			"-0.006": 17.7233226407,
			"-0.005": 39.8328527727,
			"-0.004": 49.7597773457,
			"-0.003": 43.7784259974,
			"-0.002": 35.4168037757,
			"-0.001": 35.4159074528,
			"0.0": 33.6393787629,
			"0.001": 35.3582027005,
			"0.002": 34.7776793346,
			"0.003": 33.5324036781,
			"0.004": 34.4723434579,
			"0.005": 36.5693607996,
			"0.006": 17.23931252,
			"0.007": 1.09905109977,
			"0.008": 1.95908282892,
			"0.009": 1.35807333004,
			"0.01": 1.68023015756,
			"0.011": 1.36387128008,
			"0.012": 1.74589082093,
			"0.013": 1.69451147179,
			"0.014": 0.199760269133,
			"0.015": 0.0,
			"0.016": 0.0,
			"0.017": 0.0,
			"0.018": 0.0,
			"0.019": 0.0,
			"0.02": 0.0,
			"0.021": 0.0,
			"0.022": 0.0,
			"0.023": 0.0,
			"0.024": 0.0,
			"0.025": 0.0
		}
	}
}
