{
	 "smiles": "CC1=CC=C(CS(Cl)(=O)=O)C=C1", 
	 "Tm": 355.65, 
	 "num_atms": 21, 
	 "gaussian": { 
		 "optdone": 1, 
		 "sigma_profile": "yes", 
		 "theory": "DFT", 
		 "functional": "B3LYP", 
		 "basiset": "6-31G**", 
		 "properties": { 
			 "R2extent": 7772.4478, 
			 "electric_dipole_moment_norm": 5.22077440999, 
			 "electric_quadrupole_moment_norm": 26.4758907603, 
			 "total_energy": -1319.05043549, 
			 "HOMO_LUMO_gap": 0.17232, 
			 "cosmo_polarized_energy": -11.2, 
			 "cosmo_cavitation_energy": 28.52, 
			 "cosmo_dispersion_energy": -20.86, 
			 "cosmo_repulsion_energy": 1.63, 
			 "cosmo_total_nonelectrostatic_energy": 9.3, 
			 "SMD_solvation_energy": 3.43 
		},
		"coords": [
			{
				"x": -0.2828446483,
				"y": -1.0252878908,
				"z": -1.7999115879,
				"element": "C" 
			},
			{
				"x": -0.2575022022,
				"y": 0.2679335926,
				"z": -1.0219644142,
				"element": "C" 
			},
			{
				"x": -0.8507360828,
				"y": 1.4296234842,
				"z": -1.5362302023,
				"element": "C" 
			},
			{
				"x": -0.80422794,
				"y": 2.6314037668,
				"z": -0.8349987123,
				"element": "C" 
			},
			{
				"x": -0.1693703016,
				"y": 2.6997993673,
				"z": 0.4125281076,
				"element": "C" 
			},
			{
				"x": -0.1127339858,
				"y": 3.9921882713,
				"z": 1.167955639,
				"element": "C" 
			},
			{
				"x": 1.3948037086,
				"y": 4.9513521902,
				"z": 0.703649489,
				"element": "S" 
			},
			{
				"x": 1.0937308263,
				"y": 6.6631205982,
				"z": 1.9663532002,
				"element": "Cl" 
			},
			{
				"x": 2.5878728634,
				"y": 4.2701081264,
				"z": 1.1916866974,
				"element": "O" 
			},
			{
				"x": 1.283945801,
				"y": 5.416707448,
				"z": -0.6736045185,
				"element": "O" 
			},
			{
				"x": 0.4324201969,
				"y": 1.5450639504,
				"z": 0.9306960325,
				"element": "C" 
			},
			{
				"x": 0.3817142878,
				"y": 0.346979995,
				"z": 0.2234585095,
				"element": "C" 
			},
			{
				"x": 0.591235706,
				"y": -1.1019069951,
				"z": -2.4585648362,
				"element": "H" 
			},
			{
				"x": -1.1730777972,
				"y": -1.095944011,
				"z": -2.4316022934,
				"element": "H" 
			},
			{
				"x": -0.2659659371,
				"y": -1.8937193948,
				"z": -1.1350145128,
				"element": "H" 
			},
			{
				"x": -1.3553815674,
				"y": 1.3918419081,
				"z": -2.4979787358,
				"element": "H" 
			},
			{
				"x": -1.2647335918,
				"y": 3.5210596322,
				"z": -1.2553479204,
				"element": "H" 
			},
			{
				"x": -0.0266910623,
				"y": 3.8624523512,
				"z": 2.2485910753,
				"element": "H" 
			},
			{
				"x": -0.9409495415,
				"y": 4.6665270098,
				"z": 0.9413919247,
				"element": "H" 
			},
			{
				"x": 0.9388936898,
				"y": 1.5852697193,
				"z": 1.890965059,
				"element": "H" 
			},
			{
				"x": 0.8452975779,
				"y": -0.5413731195,
				"z": 0.6441419996,
				"element": "H" 
			}
		],
		 "valence_orbital": [ 
			{
				"type": "occ",
				"energy": -0.33164,
				"method": "rhf"
			},
			{
				"type": "occ",
				"energy": -0.32655,
				"method": "rhf"
			},
			{
				"type": "occ",
				"energy": -0.31096,
				"method": "rhf"
			},
			{
				"type": "occ",
				"energy": -0.26862,
				"method": "rhf"
			},
			{
				"type": "occ",
				"energy": -0.25795,
				"method": "rhf"
			},
			{
				"type": "unocc",
				"energy": -0.08563,
				"method": "rhf"
			},
			{
				"type": "unocc",
				"energy": -0.02074,
				"method": "rhf"
			},
			{
				"type": "unocc",
				"energy": -0.0207,
				"method": "rhf"
			},
			{
				"type": "unocc",
				"energy": 0.03776,
				"method": "rhf"
			},
			{
				"type": "unocc",
				"energy": 0.06957,
				"method": "rhf"
			}
		],
		"cosmo_sigma_profile": { 
			"-0.025": 0.0,
			"-0.024": 0.0,
			"-0.023": 0.0,
			"-0.022": 0.0,
			"-0.021": 0.0,
			"-0.02": 0.0,
			"-0.019": 0.0,
			"-0.018": 0.0,
			"-0.017": 0.0,
			"-0.016": 0.0,
			"-0.015": 0.0,
			"-0.014": 0.0,
			"-0.013": 0.0,
			"-0.012": 0.0,
			"-0.011": 0.265985012437,
			"-0.01": 4.05966781192,
			"-0.009": 4.74556857623,
			"-0.008": 4.69264130427,
			"-0.007": 6.0485655109,
			"-0.006": 9.7661706985,
			"-0.005": 14.1509730435,
			"-0.004": 16.2575503381,
			"-0.003": 14.200125616,
			"-0.002": 13.7995086823,
			"-0.001": 17.6815807848,
			"0.0": 17.3981527734,
			"0.001": 12.9148538069,
			"0.002": 14.9429043475,
			"0.003": 21.0853142186,
			"0.004": 24.3946636402,
			"0.005": 6.89047786362,
			"0.006": 3.03741771706,
			"0.007": 4.01909370553,
			"0.008": 10.7093180812,
			"0.009": 7.8311889958,
			"0.01": 0.550037255254,
			"0.011": 0.0,
			"0.012": 0.0,
			"0.013": 0.0,
			"0.014": 0.0,
			"0.015": 0.0,
			"0.016": 0.0,
			"0.017": 0.0,
			"0.018": 0.0,
			"0.019": 0.0,
			"0.02": 0.0,
			"0.021": 0.0,
			"0.022": 0.0,
			"0.023": 0.0,
			"0.024": 0.0,
			"0.025": 0.0
		}
	}
}
