{
	 "smiles": "COC1=CC=C(C=C1)C1=NOC(CCC(O)=O)=N1", 
	 "Tm": 415.15, 
	 "num_atms": 30, 
	 "gaussian": { 
		 "optdone": 1, 
		 "sigma_profile": "yes", 
		 "theory": "DFT", 
		 "functional": "B3LYP", 
		 "basiset": "6-31G**", 
		 "properties": { 
			 "R2extent": 8672.4233, 
			 "electric_dipole_moment_norm": 5.8872605395, 
			 "electric_quadrupole_moment_norm": 14.9998922446, 
			 "total_energy": -874.876592149, 
			 "HOMO_LUMO_gap": 0.18199, 
			 "cosmo_polarized_energy": -21.2, 
			 "cosmo_cavitation_energy": 35.88, 
			 "cosmo_dispersion_energy": -26.15, 
			 "cosmo_repulsion_energy": 2.03, 
			 "cosmo_total_nonelectrostatic_energy": 11.76, 
			 "SMD_solvation_energy": 6.73 
		},
		"coords": [
			{
				"x": -4.4074560285,
				"y": 2.7912723093,
				"z": 1.3070552376,
				"element": "C" 
			},
			{
				"x": -4.6723916373,
				"y": 1.5704885145,
				"z": 0.6315846898,
				"element": "O" 
			},
			{
				"x": -3.619132322,
				"y": 0.7934909214,
				"z": 0.2595434749,
				"element": "C" 
			},
			{
				"x": -2.2743292714,
				"y": 1.1078469762,
				"z": 0.4934240545,
				"element": "C" 
			},
			{
				"x": -1.2772978471,
				"y": 0.2313738473,
				"z": 0.0648684,
				"element": "C" 
			},
			{
				"x": -1.5984819564,
				"y": -0.9587713388,
				"z": -0.5959544792,
				"element": "C" 
			},
			{
				"x": -2.9536386948,
				"y": -1.2643463487,
				"z": -0.8255768471,
				"element": "C" 
			},
			{
				"x": -3.9503092751,
				"y": -0.40112163,
				"z": -0.4042176704,
				"element": "C" 
			},
			{
				"x": -0.5357272524,
				"y": -1.8651169008,
				"z": -1.0376096982,
				"element": "C" 
			},
			{
				"x": -0.7727088946,
				"y": -2.9977776287,
				"z": -1.6628170969,
				"element": "N" 
			},
			{
				"x": 0.5138816048,
				"y": -3.5228504364,
				"z": -1.8874886843,
				"element": "O" 
			},
			{
				"x": 1.3841454586,
				"y": -2.6415576789,
				"z": -1.3688358477,
				"element": "C" 
			},
			{
				"x": 2.8400157817,
				"y": -2.9545778873,
				"z": -1.469074149,
				"element": "C" 
			},
			{
				"x": 3.7068116533,
				"y": -1.8572572431,
				"z": -0.853201923,
				"element": "C" 
			},
			{
				"x": 5.1897456303,
				"y": -2.1864590368,
				"z": -0.9520714247,
				"element": "C" 
			},
			{
				"x": 6.0264548,
				"y": -1.2532924495,
				"z": -0.4267140868,
				"element": "O" 
			},
			{
				"x": 5.6351230459,
				"y": -3.1893110368,
				"z": -1.450983045,
				"element": "O" 
			},
			{
				"x": 0.8110181541,
				"y": -1.6049162413,
				"z": -0.8336593743,
				"element": "N" 
			},
			{
				"x": -5.3807526015,
				"y": 3.2419039664,
				"z": 1.5059201388,
				"element": "H" 
			},
			{
				"x": -3.8866440939,
				"y": 2.6218954186,
				"z": 2.2579648155,
				"element": "H" 
			},
			{
				"x": -3.8126559966,
				"y": 3.474645687,
				"z": 0.6878784889,
				"element": "H" 
			},
			{
				"x": -1.9948900825,
				"y": 2.0222342037,
				"z": 1.0027197557,
				"element": "H" 
			},
			{
				"x": -0.234167434,
				"y": 0.4692284489,
				"z": 0.2430751617,
				"element": "H" 
			},
			{
				"x": -3.2121915544,
				"y": -2.1853737138,
				"z": -1.3374467954,
				"element": "H" 
			},
			{
				"x": -4.9983342219,
				"y": -0.6238874343,
				"z": -0.5744179216,
				"element": "H" 
			},
			{
				"x": 3.1075564499,
				"y": -3.1045925937,
				"z": -2.52051835,
				"element": "H" 
			},
			{
				"x": 3.0396737862,
				"y": -3.9141193464,
				"z": -0.9799557034,
				"element": "H" 
			},
			{
				"x": 3.4402221217,
				"y": -1.7059417066,
				"z": 0.2001132649,
				"element": "H" 
			},
			{
				"x": 3.5165765103,
				"y": -0.8967765456,
				"z": -1.3479784112,
				"element": "H" 
			},
			{
				"x": 5.5212841676,
				"y": -0.5107330957,
				"z": -0.0656259742,
				"element": "H" 
			}
		],
		 "valence_orbital": [ 
			{
				"type": "occ",
				"energy": -0.29867,
				"method": "rhf"
			},
			{
				"type": "occ",
				"energy": -0.28841,
				"method": "rhf"
			},
			{
				"type": "occ",
				"energy": -0.28078,
				"method": "rhf"
			},
			{
				"type": "occ",
				"energy": -0.26028,
				"method": "rhf"
			},
			{
				"type": "occ",
				"energy": -0.22233,
				"method": "rhf"
			},
			{
				"type": "unocc",
				"energy": -0.04034,
				"method": "rhf"
			},
			{
				"type": "unocc",
				"energy": -0.01187,
				"method": "rhf"
			},
			{
				"type": "unocc",
				"energy": -0.0012,
				"method": "rhf"
			},
			{
				"type": "unocc",
				"energy": 0.00496,
				"method": "rhf"
			},
			{
				"type": "unocc",
				"energy": 0.04657,
				"method": "rhf"
			}
		],
		"cosmo_sigma_profile": { 
			"-0.025": 0.0,
			"-0.024": 0.0,
			"-0.023": 0.0,
			"-0.022": 0.0,
			"-0.021": 0.0,
			"-0.02": 0.019147588537,
			"-0.019": 0.962784127769,
			"-0.018": 1.09642154683,
			"-0.017": 0.928274467578,
			"-0.016": 1.48528749157,
			"-0.015": 1.1666399751,
			"-0.014": 0.91031672649,
			"-0.013": 1.15271777456,
			"-0.012": 1.11876220904,
			"-0.011": 1.29680978326,
			"-0.01": 1.59354655946,
			"-0.009": 1.60759209824,
			"-0.008": 3.94343843144,
			"-0.007": 12.7047736297,
			"-0.006": 21.1642741278,
			"-0.005": 21.7042736093,
			"-0.004": 21.6605000296,
			"-0.003": 17.2930935626,
			"-0.002": 13.9660890749,
			"-0.001": 11.2830440248,
			"0.0": 12.75616182,
			"0.001": 15.9953275366,
			"0.002": 19.4589250682,
			"0.003": 18.7498104739,
			"0.004": 18.7964316496,
			"0.005": 8.92221463746,
			"0.006": 7.74818614373,
			"0.007": 10.0610887785,
			"0.008": 6.83386830864,
			"0.009": 8.02549552473,
			"0.01": 7.77268652302,
			"0.011": 6.68991293669,
			"0.012": 5.57303371017,
			"0.013": 1.51781639107,
			"0.014": 0.0,
			"0.015": 0.0,
			"0.016": 0.0,
			"0.017": 0.0,
			"0.018": 0.0,
			"0.019": 0.0,
			"0.02": 0.0,
			"0.021": 0.0,
			"0.022": 0.0,
			"0.023": 0.0,
			"0.024": 0.0,
			"0.025": 0.0
		}
	}
}
