{
	 "smiles": "CC1=CC=CC2=C1C=CC=C2C", 
	 "Tm": 354.15, 
	 "num_atms": 24, 
	 "gaussian": { 
		 "optdone": 1, 
		 "sigma_profile": "yes", 
		 "theory": "DFT", 
		 "functional": "B3LYP", 
		 "basiset": "6-31G**", 
		 "properties": { 
			 "R2extent": 2164.5773, 
			 "electric_dipole_moment_norm": 0.0, 
			 "electric_quadrupole_moment_norm": 7.21944593927, 
			 "total_energy": -464.534418444, 
			 "HOMO_LUMO_gap": 0.17164, 
			 "cosmo_polarized_energy": -4.45, 
			 "cosmo_cavitation_energy": 26.14, 
			 "cosmo_dispersion_energy": -19.44, 
			 "cosmo_repulsion_energy": 1.51, 
			 "cosmo_total_nonelectrostatic_energy": 8.2, 
			 "SMD_solvation_energy": 4.2 
		},
		"coords": [
			{
				"x": 1.1428256533,
				"y": 0.9950971829,
				"z": -2.1239730629,
				"element": "C" 
			},
			{
				"x": 0.4386522473,
				"y": 1.1135194631,
				"z": -0.7928293746,
				"element": "C" 
			},
			{
				"x": -0.1455550169,
				"y": 2.3085109442,
				"z": -0.4217696258,
				"element": "C" 
			},
			{
				"x": -0.811155965,
				"y": 2.4509081196,
				"z": 0.8160093606,
				"element": "C" 
			},
			{
				"x": -0.8921833694,
				"y": 1.3901366799,
				"z": 1.687473858,
				"element": "C" 
			},
			{
				"x": -0.310213697,
				"y": 0.1341420111,
				"z": 1.3617162075,
				"element": "C" 
			},
			{
				"x": 0.3662237607,
				"y": -0.0058900253,
				"z": 0.1006611064,
				"element": "C" 
			},
			{
				"x": 0.948193035,
				"y": -1.2618898245,
				"z": -0.2250994591,
				"element": "C" 
			},
			{
				"x": 0.8671633521,
				"y": -2.3226590923,
				"z": 0.6463617649,
				"element": "C" 
			},
			{
				"x": 0.2015624767,
				"y": -2.1802608854,
				"z": 1.8841460975,
				"element": "C" 
			},
			{
				"x": -0.3826400632,
				"y": -0.9852736833,
				"z": 2.2552098794,
				"element": "C" 
			},
			{
				"x": -1.0868161786,
				"y": -0.8668450091,
				"z": 3.5863511265,
				"element": "C" 
			},
			{
				"x": 2.1994979985,
				"y": 0.7282133335,
				"z": -2.0035317954,
				"element": "H" 
			},
			{
				"x": 0.6889973645,
				"y": 0.2239186276,
				"z": -2.7576980768,
				"element": "H" 
			},
			{
				"x": 1.0993516818,
				"y": 1.9411986429,
				"z": -2.6695161401,
				"element": "H" 
			},
			{
				"x": -0.0918811094,
				"y": 3.1584447682,
				"z": -1.097466136,
				"element": "H" 
			},
			{
				"x": -1.2598144102,
				"y": 3.4055094743,
				"z": 1.0763374989,
				"element": "H" 
			},
			{
				"x": -1.4058274634,
				"y": 1.5114726736,
				"z": 2.6349578948,
				"element": "H" 
			},
			{
				"x": 1.4618325782,
				"y": -1.3832191103,
				"z": -1.1725867985,
				"element": "H" 
			},
			{
				"x": 1.3158176002,
				"y": -3.2772629296,
				"z": 0.3860363361,
				"element": "H" 
			},
			{
				"x": 0.1478911292,
				"y": -3.0302006751,
				"z": 2.5598357395,
				"element": "H" 
			},
			{
				"x": -2.1434906534,
				"y": -0.5999718084,
				"z": 3.4659038083,
				"element": "H" 
			},
			{
				"x": -0.632994931,
				"y": -0.0956565616,
				"z": 4.2200678718,
				"element": "H" 
			},
			{
				"x": -1.0433360202,
				"y": -1.812942316,
				"z": 4.1319019191,
				"element": "H" 
			}
		],
		 "valence_orbital": [ 
			{
				"type": "occ",
				"energy": -0.31736,
				"method": "rhf"
			},
			{
				"type": "occ",
				"energy": -0.31652,
				"method": "rhf"
			},
			{
				"type": "occ",
				"energy": -0.26355,
				"method": "rhf"
			},
			{
				"type": "occ",
				"energy": -0.23657,
				"method": "rhf"
			},
			{
				"type": "occ",
				"energy": -0.20511,
				"method": "rhf"
			},
			{
				"type": "unocc",
				"energy": -0.03347,
				"method": "rhf"
			},
			{
				"type": "unocc",
				"energy": -0.00274,
				"method": "rhf"
			},
			{
				"type": "unocc",
				"energy": 0.04292,
				"method": "rhf"
			},
			{
				"type": "unocc",
				"energy": 0.09579,
				"method": "rhf"
			},
			{
				"type": "unocc",
				"energy": 0.10085,
				"method": "rhf"
			}
		],
		"cosmo_sigma_profile": { 
			"-0.025": 0.0,
			"-0.024": 0.0,
			"-0.023": 0.0,
			"-0.022": 0.0,
			"-0.021": 0.0,
			"-0.02": 0.0,
			"-0.019": 0.0,
			"-0.018": 0.0,
			"-0.017": 0.0,
			"-0.016": 0.0,
			"-0.015": 0.0,
			"-0.014": 0.0,
			"-0.013": 0.0,
			"-0.012": 0.0,
			"-0.011": 0.0,
			"-0.01": 0.0,
			"-0.009": 0.0,
			"-0.008": 0.0,
			"-0.007": 0.0,
			"-0.006": 1.12274170755,
			"-0.005": 12.1166694555,
			"-0.004": 25.7325028126,
			"-0.003": 25.5954524611,
			"-0.002": 19.4124298889,
			"-0.001": 18.9204407927,
			"0.0": 20.1823131338,
			"0.001": 15.4126182041,
			"0.002": 11.2738801704,
			"0.003": 10.8893940311,
			"0.004": 14.6431955028,
			"0.005": 20.094794221,
			"0.006": 11.819567791,
			"0.007": 0.320899470241,
			"0.008": 0.0,
			"0.009": 0.0,
			"0.01": 0.0,
			"0.011": 0.0,
			"0.012": 0.0,
			"0.013": 0.0,
			"0.014": 0.0,
			"0.015": 0.0,
			"0.016": 0.0,
			"0.017": 0.0,
			"0.018": 0.0,
			"0.019": 0.0,
			"0.02": 0.0,
			"0.021": 0.0,
			"0.022": 0.0,
			"0.023": 0.0,
			"0.024": 0.0,
			"0.025": 0.0
		}
	}
}
