{
	 "smiles": "CC(=O)C1=CC=C(S1)C#N", 
	 "Tm": 351.15, 
	 "num_atms": 15, 
	 "gaussian": { 
		 "optdone": 1, 
		 "sigma_profile": "yes", 
		 "theory": "DFT", 
		 "functional": "B3LYP", 
		 "basiset": "6-31G**", 
		 "properties": { 
			 "R2extent": 2540.422, 
			 "electric_dipole_moment_norm": 2.09991348869, 
			 "electric_quadrupole_moment_norm": 22.0051421334, 
			 "total_energy": -797.887532509, 
			 "HOMO_LUMO_gap": 0.1684, 
			 "cosmo_polarized_energy": -10.95, 
			 "cosmo_cavitation_energy": 22.67, 
			 "cosmo_dispersion_energy": -16.39, 
			 "cosmo_repulsion_energy": 1.28, 
			 "cosmo_total_nonelectrostatic_energy": 7.57, 
			 "SMD_solvation_energy": 5.97 
		},
		"coords": [
			{
				"x": -2.044820561,
				"y": -0.0229760956,
				"z": 2.1966921308,
				"element": "C" 
			},
			{
				"x": -1.0859363595,
				"y": -1.1807788669,
				"z": 2.3874582279,
				"element": "C" 
			},
			{
				"x": -0.9889431832,
				"y": -1.7774120451,
				"z": 3.4476983212,
				"element": "O" 
			},
			{
				"x": -0.2380246661,
				"y": -1.5994025916,
				"z": 1.2381287855,
				"element": "C" 
			},
			{
				"x": 0.6753808809,
				"y": -2.6331711991,
				"z": 1.2675463815,
				"element": "C" 
			},
			{
				"x": 1.3489942778,
				"y": -2.8213790979,
				"z": 0.0407691325,
				"element": "C" 
			},
			{
				"x": 0.9440515614,
				"y": -1.92273,
				"z": -0.9297978586,
				"element": "C" 
			},
			{
				"x": -0.2783845148,
				"y": -0.8342551591,
				"z": -0.3280668165,
				"element": "S" 
			},
			{
				"x": 1.4120132933,
				"y": -1.8316991842,
				"z": -2.2641291433,
				"element": "C" 
			},
			{
				"x": 1.7935150655,
				"y": -1.7529655432,
				"z": -3.3617618257,
				"element": "N" 
			},
			{
				"x": -2.5837052033,
				"y": 0.1496162199,
				"z": 3.1285227309,
				"element": "H" 
			},
			{
				"x": -1.5039211956,
				"y": 0.8877014116,
				"z": 1.9147581742,
				"element": "H" 
			},
			{
				"x": -2.7616040472,
				"y": -0.2392454733,
				"z": 1.396163657,
				"element": "H" 
			},
			{
				"x": 0.833593371,
				"y": -3.2215638762,
				"z": 2.1628520631,
				"element": "H" 
			},
			{
				"x": 2.1019912808,
				"y": -3.5782384992,
				"z": -0.1422339603,
				"element": "H" 
			}
		],
		 "valence_orbital": [ 
			{
				"type": "occ",
				"energy": -0.35612,
				"method": "rhf"
			},
			{
				"type": "occ",
				"energy": -0.34598,
				"method": "rhf"
			},
			{
				"type": "occ",
				"energy": -0.29088,
				"method": "rhf"
			},
			{
				"type": "occ",
				"energy": -0.27213,
				"method": "rhf"
			},
			{
				"type": "occ",
				"energy": -0.26583,
				"method": "rhf"
			},
			{
				"type": "unocc",
				"energy": -0.09743,
				"method": "rhf"
			},
			{
				"type": "unocc",
				"energy": -0.02198,
				"method": "rhf"
			},
			{
				"type": "unocc",
				"energy": -0.01639,
				"method": "rhf"
			},
			{
				"type": "unocc",
				"energy": 0.00614,
				"method": "rhf"
			},
			{
				"type": "unocc",
				"energy": 0.05018,
				"method": "rhf"
			}
		],
		"cosmo_sigma_profile": { 
			"-0.025": 0.0,
			"-0.024": 0.0,
			"-0.023": 0.0,
			"-0.022": 0.0,
			"-0.021": 0.0,
			"-0.02": 0.0,
			"-0.019": 0.0,
			"-0.018": 0.0,
			"-0.017": 0.0,
			"-0.016": 0.0,
			"-0.015": 0.0,
			"-0.014": 0.0,
			"-0.013": 0.0,
			"-0.012": 0.0,
			"-0.011": 0.0,
			"-0.01": 0.669001204554,
			"-0.009": 2.55023053115,
			"-0.008": 4.0041013842,
			"-0.007": 8.9364397581,
			"-0.006": 10.7202692549,
			"-0.005": 12.9140586728,
			"-0.004": 12.1786453262,
			"-0.003": 13.1776226676,
			"-0.002": 18.2295631943,
			"-0.001": 19.757015937,
			"0.0": 16.9965594231,
			"0.001": 12.9760336178,
			"0.002": 5.31286922745,
			"0.003": 3.41146710635,
			"0.004": 4.36862987241,
			"0.005": 4.33366458401,
			"0.006": 3.62562319978,
			"0.007": 3.89966654245,
			"0.008": 5.82710478669,
			"0.009": 4.95411532905,
			"0.01": 5.54346979912,
			"0.011": 6.42527252909,
			"0.012": 4.1733395529,
			"0.013": 0.43446703506,
			"0.014": 0.0,
			"0.015": 0.0,
			"0.016": 0.0,
			"0.017": 0.0,
			"0.018": 0.0,
			"0.019": 0.0,
			"0.02": 0.0,
			"0.021": 0.0,
			"0.022": 0.0,
			"0.023": 0.0,
			"0.024": 0.0,
			"0.025": 0.0
		}
	}
}
