{
	 "smiles": "N(N=CC1=CC=CC=N1)C1=NC2=CC=CC=C2C=C1", 
	 "Tm": 477.65, 
	 "num_atms": 31, 
	 "gaussian": { 
		 "optdone": 1, 
		 "sigma_profile": "yes", 
		 "theory": "DFT", 
		 "functional": "B3LYP", 
		 "basiset": "6-31G**", 
		 "properties": { 
			 "R2extent": 5082.9837, 
			 "electric_dipole_moment_norm": 3.7703261225, 
			 "electric_quadrupole_moment_norm": 13.3364465462, 
			 "total_energy": -797.794805329, 
			 "HOMO_LUMO_gap": 0.1509, 
			 "cosmo_polarized_energy": -14.88, 
			 "cosmo_cavitation_energy": 35.45, 
			 "cosmo_dispersion_energy": -24.91, 
			 "cosmo_repulsion_energy": 1.9, 
			 "cosmo_total_nonelectrostatic_energy": 12.44, 
			 "SMD_solvation_energy": 3.26 
		},
		"coords": [
			{
				"x": 1.7851764327,
				"y": 1.2629529256,
				"z": -2.1454543019,
				"element": "N" 
			},
			{
				"x": 2.9051834761,
				"y": 0.4207250879,
				"z": -2.1507354322,
				"element": "N" 
			},
			{
				"x": 3.3515523242,
				"y": -0.0630275267,
				"z": -1.0474214488,
				"element": "C" 
			},
			{
				"x": 3.0450202726,
				"y": 0.1609298078,
				"z": 0.3821447539,
				"element": "C" 
			},
			{
				"x": 2.3177656202,
				"y": 1.253841963,
				"z": 0.8821671535,
				"element": "C" 
			},
			{
				"x": 2.1976730296,
				"y": 1.4034999774,
				"z": 2.2600747676,
				"element": "C" 
			},
			{
				"x": 2.781484412,
				"y": 0.4542586816,
				"z": 3.0988895544,
				"element": "C" 
			},
			{
				"x": 3.4890778496,
				"y": -0.5957303094,
				"z": 2.5107718533,
				"element": "C" 
			},
			{
				"x": 3.6388443943,
				"y": -0.7381605452,
				"z": 1.1921354391,
				"element": "N" 
			},
			{
				"x": 0.5035541442,
				"y": 0.8052541707,
				"z": -1.7955777623,
				"element": "C" 
			},
			{
				"x": 0.377750103,
				"y": -0.2454730515,
				"z": -1.0187596395,
				"element": "N" 
			},
			{
				"x": -0.8808711638,
				"y": -0.6560741683,
				"z": -0.6787737717,
				"element": "C" 
			},
			{
				"x": -1.023286233,
				"y": -1.7952832619,
				"z": 0.1530669783,
				"element": "C" 
			},
			{
				"x": -2.276842035,
				"y": -2.2412827566,
				"z": 0.5181808809,
				"element": "C" 
			},
			{
				"x": -3.4412257391,
				"y": -1.5727001276,
				"z": 0.0730275351,
				"element": "C" 
			},
			{
				"x": -3.3313954705,
				"y": -0.4610552957,
				"z": -0.7365987367,
				"element": "C" 
			},
			{
				"x": -2.0582102371,
				"y": 0.0187664256,
				"z": -1.1282950487,
				"element": "C" 
			},
			{
				"x": -1.8708061217,
				"y": 1.1584626584,
				"z": -1.9614840699,
				"element": "C" 
			},
			{
				"x": -0.6078625917,
				"y": 1.5573475155,
				"z": -2.2993525672,
				"element": "C" 
			},
			{
				"x": 1.7677656574,
				"y": 1.7470464828,
				"z": -3.0351705157,
				"element": "H" 
			},
			{
				"x": 4.1903255146,
				"y": -0.7461440391,
				"z": -1.1828925819,
				"element": "H" 
			},
			{
				"x": 1.8783429026,
				"y": 1.9712467173,
				"z": 0.201754142,
				"element": "H" 
			},
			{
				"x": 1.6503731059,
				"y": 2.2460876262,
				"z": 2.6729373571,
				"element": "H" 
			},
			{
				"x": 2.7011840325,
				"y": 0.5270201711,
				"z": 4.1789470946,
				"element": "H" 
			},
			{
				"x": 3.9691759831,
				"y": -1.3513689202,
				"z": 3.1306685234,
				"element": "H" 
			},
			{
				"x": -0.1191823175,
				"y": -2.2953262826,
				"z": 0.484641166,
				"element": "H" 
			},
			{
				"x": -2.3737301537,
				"y": -3.1162157668,
				"z": 1.1548880176,
				"element": "H" 
			},
			{
				"x": -4.4199030375,
				"y": -1.9376134235,
				"z": 0.3699977335,
				"element": "H" 
			},
			{
				"x": -4.2202068607,
				"y": 0.0595659888,
				"z": -1.0851277376,
				"element": "H" 
			},
			{
				"x": -2.7385357591,
				"y": 1.7024108435,
				"z": -2.3263137992,
				"element": "H" 
			},
			{
				"x": -0.4393915342,
				"y": 2.4238384319,
				"z": -2.932735537,
				"element": "H" 
			}
		],
		 "valence_orbital": [ 
			{
				"type": "occ",
				"energy": -0.2576,
				"method": "rhf"
			},
			{
				"type": "occ",
				"energy": -0.25413,
				"method": "rhf"
			},
			{
				"type": "occ",
				"energy": -0.24525,
				"method": "rhf"
			},
			{
				"type": "occ",
				"energy": -0.23094,
				"method": "rhf"
			},
			{
				"type": "occ",
				"energy": -0.20416,
				"method": "rhf"
			},
			{
				"type": "unocc",
				"energy": -0.05326,
				"method": "rhf"
			},
			{
				"type": "unocc",
				"energy": -0.04103,
				"method": "rhf"
			},
			{
				"type": "unocc",
				"energy": -0.0178,
				"method": "rhf"
			},
			{
				"type": "unocc",
				"energy": -0.00626,
				"method": "rhf"
			},
			{
				"type": "unocc",
				"energy": 0.02568,
				"method": "rhf"
			}
		],
		"cosmo_sigma_profile": { 
			"-0.025": 0.0,
			"-0.024": 0.0,
			"-0.023": 0.0,
			"-0.022": 0.0,
			"-0.021": 0.0,
			"-0.02": 0.0,
			"-0.019": 0.0,
			"-0.018": 0.0,
			"-0.017": 0.0,
			"-0.016": 0.0,
			"-0.015": 0.3714543482,
			"-0.014": 1.02377916002,
			"-0.013": 1.54070766727,
			"-0.012": 1.10800782492,
			"-0.011": 1.57769998352,
			"-0.01": 1.20263478562,
			"-0.009": 0.949619046638,
			"-0.008": 2.27417147449,
			"-0.007": 10.1957963853,
			"-0.006": 18.7169649939,
			"-0.005": 22.7191655794,
			"-0.004": 18.4197968893,
			"-0.003": 17.0578666796,
			"-0.002": 15.5427252564,
			"-0.001": 15.2511032669,
			"0.0": 19.5880985245,
			"0.001": 21.5338831191,
			"0.002": 27.3820954344,
			"0.003": 24.7281241349,
			"0.004": 19.292538139,
			"0.005": 14.2811132741,
			"0.006": 5.54559090885,
			"0.007": 4.41482602596,
			"0.008": 4.98110324255,
			"0.009": 4.14452148348,
			"0.01": 3.02346710615,
			"0.011": 2.67715886565,
			"0.012": 2.0094870172,
			"0.013": 1.50773571122,
			"0.014": 1.48692511798,
			"0.015": 0.725859668421,
			"0.016": 0.10259440723,
			"0.017": 0.0,
			"0.018": 0.0,
			"0.019": 0.0,
			"0.02": 0.0,
			"0.021": 0.0,
			"0.022": 0.0,
			"0.023": 0.0,
			"0.024": 0.0,
			"0.025": 0.0
		}
	}
}
