{
	 "smiles": "OC1=CC=C(C=C1)C(=O)N1CCC2=C(C1)C=CS2", 
	 "Tm": 474.15, 
	 "num_atms": 31, 
	 "gaussian": { 
		 "optdone": 1, 
		 "sigma_profile": "yes", 
		 "theory": "DFT", 
		 "functional": "B3LYP", 
		 "basiset": "6-31G**", 
		 "properties": { 
			 "R2extent": 6338.7579, 
			 "electric_dipole_moment_norm": 2.64608416533, 
			 "electric_quadrupole_moment_norm": 11.5450517864, 
			 "total_energy": -1144.70943978, 
			 "HOMO_LUMO_gap": 0.20048, 
			 "cosmo_polarized_energy": -16.01, 
			 "cosmo_cavitation_energy": 35.59, 
			 "cosmo_dispersion_energy": -26.25, 
			 "cosmo_repulsion_energy": 1.97, 
			 "cosmo_total_nonelectrostatic_energy": 11.31, 
			 "SMD_solvation_energy": 5.52 
		},
		"coords": [
			{
				"x": -0.3265743686,
				"y": 4.4581813057,
				"z": -2.6916537131,
				"element": "O" 
			},
			{
				"x": -0.1675363211,
				"y": 3.4563446852,
				"z": -1.7815358866,
				"element": "C" 
			},
			{
				"x": 1.0866389413,
				"y": 2.9277197546,
				"z": -1.4492030826,
				"element": "C" 
			},
			{
				"x": 1.1810536708,
				"y": 1.9095637476,
				"z": -0.5068156788,
				"element": "C" 
			},
			{
				"x": 0.0338349895,
				"y": 1.3786692937,
				"z": 0.0980578998,
				"element": "C" 
			},
			{
				"x": -1.2146886349,
				"y": 1.9290356762,
				"z": -0.2342184068,
				"element": "C" 
			},
			{
				"x": -1.3206714923,
				"y": 2.9597444312,
				"z": -1.1618439556,
				"element": "C" 
			},
			{
				"x": 0.2249112633,
				"y": 0.340590973,
				"z": 1.1634528103,
				"element": "C" 
			},
			{
				"x": 1.1992314162,
				"y": 0.3972950208,
				"z": 1.9131518481,
				"element": "O" 
			},
			{
				"x": -0.7469822943,
				"y": -0.6341995848,
				"z": 1.319191664,
				"element": "N" 
			},
			{
				"x": -0.5904587078,
				"y": -1.5506390016,
				"z": 2.4526632128,
				"element": "C" 
			},
			{
				"x": 0.1895947503,
				"y": -2.8138352591,
				"z": 2.048884006,
				"element": "C" 
			},
			{
				"x": -0.4088863958,
				"y": -3.3479973999,
				"z": 0.7783727713,
				"element": "C" 
			},
			{
				"x": -1.2085537557,
				"y": -2.6187392735,
				"z": -0.0624584838,
				"element": "C" 
			},
			{
				"x": -1.5534014885,
				"y": -1.170856809,
				"z": 0.2174248863,
				"element": "C" 
			},
			{
				"x": -1.6650120246,
				"y": -3.371179649,
				"z": -1.1936015548,
				"element": "C" 
			},
			{
				"x": -1.1994451261,
				"y": -4.6544987628,
				"z": -1.1973902997,
				"element": "C" 
			},
			{
				"x": -0.194132143,
				"y": -4.9737026164,
				"z": 0.1848881124,
				"element": "S" 
			},
			{
				"x": 0.5390797096,
				"y": 4.7206844867,
				"z": -3.031261746,
				"element": "H" 
			},
			{
				"x": 1.9847359397,
				"y": 3.3210676622,
				"z": -1.9211172774,
				"element": "H" 
			},
			{
				"x": 2.149816779,
				"y": 1.5154851862,
				"z": -0.2186639989,
				"element": "H" 
			},
			{
				"x": -2.1120859474,
				"y": 1.5675615555,
				"z": 0.2585810729,
				"element": "H" 
			},
			{
				"x": -2.2808175794,
				"y": 3.398464114,
				"z": -1.4119495906,
				"element": "H" 
			},
			{
				"x": -0.0725925122,
				"y": -1.0159660495,
				"z": 3.2477725299,
				"element": "H" 
			},
			{
				"x": -1.5934530321,
				"y": -1.828838686,
				"z": 2.7983406797,
				"element": "H" 
			},
			{
				"x": 0.1423585249,
				"y": -3.5535790856,
				"z": 2.8568693608,
				"element": "H" 
			},
			{
				"x": 1.2460293982,
				"y": -2.5523858628,
				"z": 1.9106665459,
				"element": "H" 
			},
			{
				"x": -2.6235996968,
				"y": -1.0810274597,
				"z": 0.460979965,
				"element": "H" 
			},
			{
				"x": -1.3805313905,
				"y": -0.5689303186,
				"z": -0.6759406597,
				"element": "H" 
			},
			{
				"x": -2.307707892,
				"y": -2.9679861169,
				"z": -1.969385423,
				"element": "H" 
			},
			{
				"x": -1.3790545797,
				"y": -5.4316459575,
				"z": -1.9270576077,
				"element": "H" 
			}
		],
		 "valence_orbital": [ 
			{
				"type": "occ",
				"energy": -0.2543,
				"method": "rhf"
			},
			{
				"type": "occ",
				"energy": -0.24604,
				"method": "rhf"
			},
			{
				"type": "occ",
				"energy": -0.23581,
				"method": "rhf"
			},
			{
				"type": "occ",
				"energy": -0.22575,
				"method": "rhf"
			},
			{
				"type": "occ",
				"energy": -0.22329,
				"method": "rhf"
			},
			{
				"type": "unocc",
				"energy": -0.02281,
				"method": "rhf"
			},
			{
				"type": "unocc",
				"energy": -0.01063,
				"method": "rhf"
			},
			{
				"type": "unocc",
				"energy": -0.00749,
				"method": "rhf"
			},
			{
				"type": "unocc",
				"energy": 0.03008,
				"method": "rhf"
			},
			{
				"type": "unocc",
				"energy": 0.05656,
				"method": "rhf"
			}
		],
		"cosmo_sigma_profile": { 
			"-0.025": 0.0,
			"-0.024": 0.0,
			"-0.023": 0.0,
			"-0.022": 0.0,
			"-0.021": 0.0,
			"-0.02": 0.0,
			"-0.019": 0.00859258962827,
			"-0.018": 0.844881755765,
			"-0.017": 1.14599340993,
			"-0.016": 1.03774796825,
			"-0.015": 1.18139189161,
			"-0.014": 0.984777368671,
			"-0.013": 0.940589970358,
			"-0.012": 0.714347655722,
			"-0.011": 1.10436558775,
			"-0.01": 1.06442777392,
			"-0.009": 1.27273682046,
			"-0.008": 2.58172776799,
			"-0.007": 4.92249660345,
			"-0.006": 11.3803434061,
			"-0.005": 22.146116144,
			"-0.004": 26.0025349479,
			"-0.003": 22.9059066011,
			"-0.002": 21.3706212674,
			"-0.001": 19.3083186874,
			"0.0": 16.8650739813,
			"0.001": 14.6970675598,
			"0.002": 17.7110957116,
			"0.003": 21.5841849882,
			"0.004": 23.1089707439,
			"0.005": 18.1201715011,
			"0.006": 8.31332168888,
			"0.007": 2.73384215519,
			"0.008": 3.0933316054,
			"0.009": 2.74263695157,
			"0.01": 3.5691495767,
			"0.011": 3.14746593164,
			"0.012": 1.55900328847,
			"0.013": 3.32407137115,
			"0.014": 3.49988635678,
			"0.015": 0.439808712858,
			"0.016": 0.0,
			"0.017": 0.0,
			"0.018": 0.0,
			"0.019": 0.0,
			"0.02": 0.0,
			"0.021": 0.0,
			"0.022": 0.0,
			"0.023": 0.0,
			"0.024": 0.0,
			"0.025": 0.0
		}
	}
}
