{
	 "smiles": "OC(=O)CCNS(=O)(=O)C1=CC(=C(Cl)C=C1)[N+]([O-])=O", 
	 "Tm": 387.15, 
	 "num_atms": 28, 
	 "gaussian": { 
		 "optdone": 1, 
		 "sigma_profile": "yes", 
		 "theory": "DFT", 
		 "functional": "B3LYP", 
		 "basiset": "6-31G**", 
		 "properties": { 
			 "R2extent": 8502.3665, 
			 "electric_dipole_moment_norm": 5.6999194775, 
			 "electric_quadrupole_moment_norm": 40.5824478508, 
			 "total_energy": -1767.42944577, 
			 "HOMO_LUMO_gap": 0.14823, 
			 "cosmo_polarized_energy": -27.72, 
			 "cosmo_cavitation_energy": 36.51, 
			 "cosmo_dispersion_energy": -26.16, 
			 "cosmo_repulsion_energy": 1.98, 
			 "cosmo_total_nonelectrostatic_energy": 12.33, 
			 "SMD_solvation_energy": 8.27 
		},
		"coords": [
			{
				"x": -0.4710844278,
				"y": 0.5977042604,
				"z": -3.6698349884,
				"element": "O" 
			},
			{
				"x": 0.8395811215,
				"y": 0.7176027237,
				"z": -3.3939218182,
				"element": "C" 
			},
			{
				"x": 1.6867649428,
				"y": 0.3434315945,
				"z": -4.1703605011,
				"element": "O" 
			},
			{
				"x": 1.194513153,
				"y": 1.3392812787,
				"z": -2.0398230864,
				"element": "C" 
			},
			{
				"x": 1.394794125,
				"y": 0.2708036319,
				"z": -0.9525980525,
				"element": "C" 
			},
			{
				"x": 0.2523969413,
				"y": -0.648625395,
				"z": -0.8016217362,
				"element": "N" 
			},
			{
				"x": -1.2410127518,
				"y": -0.1827754469,
				"z": -0.2394272313,
				"element": "S" 
			},
			{
				"x": -1.6746032985,
				"y": 0.947648811,
				"z": -1.0802759868,
				"element": "O" 
			},
			{
				"x": -2.0207644806,
				"y": -1.4099679415,
				"z": -0.1172928445,
				"element": "O" 
			},
			{
				"x": -1.0236940527,
				"y": 0.499063093,
				"z": 1.4123349454,
				"element": "C" 
			},
			{
				"x": -0.9804086706,
				"y": -0.3730851418,
				"z": 2.495441594,
				"element": "C" 
			},
			{
				"x": -0.8101330614,
				"y": 0.1389645716,
				"z": 3.7796760658,
				"element": "C" 
			},
			{
				"x": -0.6571112394,
				"y": 1.5201924718,
				"z": 3.9887659339,
				"element": "C" 
			},
			{
				"x": -0.3606452976,
				"y": 2.2268595316,
				"z": 5.5453531981,
				"element": "Cl" 
			},
			{
				"x": -0.6973454719,
				"y": 2.3774240041,
				"z": 2.8831986306,
				"element": "C" 
			},
			{
				"x": -0.891040755,
				"y": 1.8770479101,
				"z": 1.5991092332,
				"element": "C" 
			},
			{
				"x": -0.8125696002,
				"y": -0.8508791035,
				"z": 4.8765298532,
				"element": "N" 
			},
			{
				"x": -0.3535442322,
				"y": -1.9599437586,
				"z": 4.6088014889,
				"element": "O" 
			},
			{
				"x": -1.2900290799,
				"y": -0.5147082226,
				"z": 5.9524751896,
				"element": "O" 
			},
			{
				"x": -1.0144041938,
				"y": 0.8339527412,
				"z": -2.8935507771,
				"element": "H" 
			},
			{
				"x": 2.1458468361,
				"y": 1.8627617502,
				"z": -2.1638961528,
				"element": "H" 
			},
			{
				"x": 0.4400410493,
				"y": 2.0664877178,
				"z": -1.7310776584,
				"element": "H" 
			},
			{
				"x": 1.6536195053,
				"y": 0.7539737666,
				"z": -0.0000605211,
				"element": "H" 
			},
			{
				"x": 2.2360812958,
				"y": -0.3659999006,
				"z": -1.238170578,
				"element": "H" 
			},
			{
				"x": 0.4675151311,
				"y": -1.5980335881,
				"z": -0.5173605373,
				"element": "H" 
			},
			{
				"x": -1.0984941425,
				"y": -1.4424521635,
				"z": 2.3669557138,
				"element": "H" 
			},
			{
				"x": -0.5790157704,
				"y": 3.4427106611,
				"z": 3.0448798029,
				"element": "H" 
			},
			{
				"x": -0.9585535751,
				"y": 2.5486601428,
				"z": 0.7508508207,
				"element": "H" 
			}
		],
		 "valence_orbital": [ 
			{
				"type": "occ",
				"energy": -0.32147,
				"method": "rhf"
			},
			{
				"type": "occ",
				"energy": -0.30847,
				"method": "rhf"
			},
			{
				"type": "occ",
				"energy": -0.3044,
				"method": "rhf"
			},
			{
				"type": "occ",
				"energy": -0.29582,
				"method": "rhf"
			},
			{
				"type": "occ",
				"energy": -0.26481,
				"method": "rhf"
			},
			{
				"type": "unocc",
				"energy": -0.11658,
				"method": "rhf"
			},
			{
				"type": "unocc",
				"energy": -0.0847,
				"method": "rhf"
			},
			{
				"type": "unocc",
				"energy": -0.05039,
				"method": "rhf"
			},
			{
				"type": "unocc",
				"energy": -0.01452,
				"method": "rhf"
			},
			{
				"type": "unocc",
				"energy": 0.0078,
				"method": "rhf"
			}
		],
		"cosmo_sigma_profile": { 
			"-0.025": 0.0,
			"-0.024": 0.0,
			"-0.023": 0.0,
			"-0.022": 0.0,
			"-0.021": 0.0,
			"-0.02": 0.0,
			"-0.019": 0.0,
			"-0.018": 0.0,
			"-0.017": 0.0752784544118,
			"-0.016": 1.24617747439,
			"-0.015": 1.42941784588,
			"-0.014": 1.187547149,
			"-0.013": 1.41306783568,
			"-0.012": 1.3996535826,
			"-0.011": 1.62857219092,
			"-0.01": 2.23645933955,
			"-0.009": 7.84714328943,
			"-0.008": 10.3046413274,
			"-0.007": 13.9560976606,
			"-0.006": 19.8810814209,
			"-0.005": 18.6653968918,
			"-0.004": 19.4480042827,
			"-0.003": 20.5854476862,
			"-0.002": 20.0372773711,
			"-0.001": 15.8204193226,
			"0.0": 10.9400549295,
			"0.001": 10.0120570654,
			"0.002": 13.5629950495,
			"0.003": 11.7871579364,
			"0.004": 8.86307589457,
			"0.005": 9.04572566412,
			"0.006": 11.2047855877,
			"0.007": 15.5589562386,
			"0.008": 9.60940992469,
			"0.009": 10.1524209682,
			"0.01": 9.48387518606,
			"0.011": 6.71322165896,
			"0.012": 5.90254365127,
			"0.013": 3.55270275177,
			"0.014": 0.511328012067,
			"0.015": 0.0,
			"0.016": 0.0,
			"0.017": 0.0,
			"0.018": 0.0,
			"0.019": 0.0,
			"0.02": 0.0,
			"0.021": 0.0,
			"0.022": 0.0,
			"0.023": 0.0,
			"0.024": 0.0,
			"0.025": 0.0
		}
	}
}
