{
	 "smiles": "CCCNC(=O)C1=C(C=C(Cl)C=C1)[N+]([O-])=O", 
	 "Tm": 381.15, 
	 "num_atms": 27, 
	 "gaussian": { 
		 "optdone": 1, 
		 "sigma_profile": "yes", 
		 "theory": "DFT", 
		 "functional": "B3LYP", 
		 "basiset": "6-31G**", 
		 "properties": { 
			 "R2extent": 5327.4674, 
			 "electric_dipole_moment_norm": 5.15128400887, 
			 "electric_quadrupole_moment_norm": 16.5790448974, 
			 "total_energy": -1182.97273527, 
			 "HOMO_LUMO_gap": 0.15065, 
			 "cosmo_polarized_energy": -15.0, 
			 "cosmo_cavitation_energy": 33.87, 
			 "cosmo_dispersion_energy": -23.54, 
			 "cosmo_repulsion_energy": 1.89, 
			 "cosmo_total_nonelectrostatic_energy": 12.22, 
			 "SMD_solvation_energy": 7.34 
		},
		"coords": [
			{
				"x": 1.0988330409,
				"y": 3.3985952271,
				"z": 2.0277546686,
				"element": "C" 
			},
			{
				"x": -0.2447567917,
				"y": 2.6641151283,
				"z": 2.0032187381,
				"element": "C" 
			},
			{
				"x": -0.6035113315,
				"y": 2.1562436486,
				"z": 0.6036904554,
				"element": "C" 
			},
			{
				"x": -1.8975035205,
				"y": 1.480543173,
				"z": 0.5942174472,
				"element": "N" 
			},
			{
				"x": -2.286569855,
				"y": 0.4758455816,
				"z": -0.2407662218,
				"element": "C" 
			},
			{
				"x": -3.4533886453,
				"y": 0.1480484274,
				"z": -0.4009919833,
				"element": "O" 
			},
			{
				"x": -1.1945802053,
				"y": -0.384210919,
				"z": -0.8579666768,
				"element": "C" 
			},
			{
				"x": -0.7338002032,
				"y": -0.270161046,
				"z": -2.1746440097,
				"element": "C" 
			},
			{
				"x": 0.1359044433,
				"y": -1.1950044666,
				"z": -2.7518171321,
				"element": "C" 
			},
			{
				"x": 0.5701524988,
				"y": -2.2665745766,
				"z": -1.9807972438,
				"element": "C" 
			},
			{
				"x": 1.6736804999,
				"y": -3.4356507371,
				"z": -2.6735092156,
				"element": "Cl" 
			},
			{
				"x": 0.1390005597,
				"y": -2.4179762273,
				"z": -0.6611247564,
				"element": "C" 
			},
			{
				"x": -0.7415537558,
				"y": -1.4847620011,
				"z": -0.118728555,
				"element": "C" 
			},
			{
				"x": -1.1361653831,
				"y": 0.8761426233,
				"z": -3.0103540208,
				"element": "N" 
			},
			{
				"x": -0.9030884649,
				"y": 0.8158608982,
				"z": -4.2146557634,
				"element": "O" 
			},
			{
				"x": -1.6676384991,
				"y": 1.8316902145,
				"z": -2.4451897903,
				"element": "O" 
			},
			{
				"x": 1.0923089082,
				"y": 4.2639429782,
				"z": 1.3559245911,
				"element": "H" 
			},
			{
				"x": 1.9176833938,
				"y": 2.7413080129,
				"z": 1.7143535868,
				"element": "H" 
			},
			{
				"x": 1.3307474083,
				"y": 3.760579771,
				"z": 3.0336368141,
				"element": "H" 
			},
			{
				"x": -0.2286651074,
				"y": 1.8149084514,
				"z": 2.6967795434,
				"element": "H" 
			},
			{
				"x": -1.0377148648,
				"y": 3.3375491996,
				"z": 2.3559792928,
				"element": "H" 
			},
			{
				"x": 0.1536304579,
				"y": 1.4435477145,
				"z": 0.263899413,
				"element": "H" 
			},
			{
				"x": -0.6024161044,
				"y": 2.9879127788,
				"z": -0.1148123488,
				"element": "H" 
			},
			{
				"x": -2.6883741781,
				"y": 2.0081445906,
				"z": 0.9470554096,
				"element": "H" 
			},
			{
				"x": 0.4548642786,
				"y": -1.0611348044,
				"z": -3.7769401759,
				"element": "H" 
			},
			{
				"x": 0.4830749564,
				"y": -3.260254779,
				"z": -0.0713098472,
				"element": "H" 
			},
			{
				"x": -1.0957535359,
				"y": -1.614148862,
				"z": 0.8989977812,
				"element": "H" 
			}
		],
		 "valence_orbital": [ 
			{
				"type": "occ",
				"energy": -0.30674,
				"method": "rhf"
			},
			{
				"type": "occ",
				"energy": -0.29523,
				"method": "rhf"
			},
			{
				"type": "occ",
				"energy": -0.2822,
				"method": "rhf"
			},
			{
				"type": "occ",
				"energy": -0.26295,
				"method": "rhf"
			},
			{
				"type": "occ",
				"energy": -0.2523,
				"method": "rhf"
			},
			{
				"type": "unocc",
				"energy": -0.10165,
				"method": "rhf"
			},
			{
				"type": "unocc",
				"energy": -0.04412,
				"method": "rhf"
			},
			{
				"type": "unocc",
				"energy": -0.01742,
				"method": "rhf"
			},
			{
				"type": "unocc",
				"energy": 0.00821,
				"method": "rhf"
			},
			{
				"type": "unocc",
				"energy": 0.01643,
				"method": "rhf"
			}
		],
		"cosmo_sigma_profile": { 
			"-0.025": 0.0,
			"-0.024": 0.0,
			"-0.023": 0.0,
			"-0.022": 0.0,
			"-0.021": 0.0,
			"-0.02": 0.0,
			"-0.019": 0.0,
			"-0.018": 0.0,
			"-0.017": 0.0,
			"-0.016": 0.0,
			"-0.015": 0.0,
			"-0.014": 0.194887777398,
			"-0.013": 1.07058003479,
			"-0.012": 1.18023446111,
			"-0.011": 0.900977064955,
			"-0.01": 0.840789431124,
			"-0.009": 3.71954177054,
			"-0.008": 7.59564334197,
			"-0.007": 7.25876634458,
			"-0.006": 7.56595362902,
			"-0.005": 10.2133960894,
			"-0.004": 14.6365975834,
			"-0.003": 27.3471734151,
			"-0.002": 29.2144993597,
			"-0.001": 31.3824195973,
			"0.0": 27.5377686637,
			"0.001": 19.1656200877,
			"0.002": 10.4433477989,
			"0.003": 13.7332762186,
			"0.004": 12.3112931232,
			"0.005": 4.06748476858,
			"0.006": 6.52586251778,
			"0.007": 8.87161144267,
			"0.008": 5.8834000442,
			"0.009": 4.76962555725,
			"0.01": 1.58960371973,
			"0.011": 2.01609354507,
			"0.012": 2.99537304139,
			"0.013": 5.95154899431,
			"0.014": 1.8842786738,
			"0.015": 0.0161014506473,
			"0.016": 0.0,
			"0.017": 0.0,
			"0.018": 0.0,
			"0.019": 0.0,
			"0.02": 0.0,
			"0.021": 0.0,
			"0.022": 0.0,
			"0.023": 0.0,
			"0.024": 0.0,
			"0.025": 0.0
		}
	}
}
