{
	 "smiles": "CC1CCC(C)(CNC2=CC=CC=C2)C1(C)C", 
	 "Tm": 332.15, 
	 "num_atms": 42, 
	 "gaussian": { 
		 "optdone": 1, 
		 "sigma_profile": "yes", 
		 "theory": "DFT", 
		 "functional": "B3LYP", 
		 "basiset": "6-31G**", 
		 "properties": { 
			 "R2extent": 5919.2564, 
			 "electric_dipole_moment_norm": 2.20410068736, 
			 "electric_quadrupole_moment_norm": 5.75191174828, 
			 "total_energy": -679.534278131, 
			 "HOMO_LUMO_gap": 0.19976, 
			 "cosmo_polarized_energy": -6.42, 
			 "cosmo_cavitation_energy": 39.08, 
			 "cosmo_dispersion_energy": -27.38, 
			 "cosmo_repulsion_energy": 2.07, 
			 "cosmo_total_nonelectrostatic_energy": 13.77, 
			 "SMD_solvation_energy": 5.47 
		},
		"coords": [
			{
				"x": 4.2099369136,
				"y": 0.9262146575,
				"z": -2.1088636958,
				"element": "C" 
			},
			{
				"x": 3.7394406823,
				"y": -0.0823410986,
				"z": -1.0526897594,
				"element": "C" 
			},
			{
				"x": 3.5294190292,
				"y": -1.491303722,
				"z": -1.6614554282,
				"element": "C" 
			},
			{
				"x": 2.3645911596,
				"y": -2.0997824706,
				"z": -0.8787527862,
				"element": "C" 
			},
			{
				"x": 1.4016054908,
				"y": -0.9150752912,
				"z": -0.6166363784,
				"element": "C" 
			},
			{
				"x": 0.6015223622,
				"y": -0.6148779403,
				"z": -1.9029725762,
				"element": "C" 
			},
			{
				"x": 0.4116843842,
				"y": -1.339385241,
				"z": 0.4924970362,
				"element": "C" 
			},
			{
				"x": -0.6088406751,
				"y": -0.3469922841,
				"z": 0.7929079887,
				"element": "N" 
			},
			{
				"x": -1.6125381709,
				"y": -0.581922563,
				"z": 1.7298935531,
				"element": "C" 
			},
			{
				"x": -2.4019597518,
				"y": 0.4983630608,
				"z": 2.1774204482,
				"element": "C" 
			},
			{
				"x": -3.4384399833,
				"y": 0.2983804042,
				"z": 3.0812368122,
				"element": "C" 
			},
			{
				"x": -3.72562688,
				"y": -0.9813834021,
				"z": 3.5675353347,
				"element": "C" 
			},
			{
				"x": -2.9483117977,
				"y": -2.0533197304,
				"z": 3.1317940194,
				"element": "C" 
			},
			{
				"x": -1.8995468783,
				"y": -1.866221781,
				"z": 2.2294040925,
				"element": "C" 
			},
			{
				"x": 2.4086962754,
				"y": 0.2651104755,
				"z": -0.2456427164,
				"element": "C" 
			},
			{
				"x": 1.8719821559,
				"y": 1.6738487739,
				"z": -0.5709699673,
				"element": "C" 
			},
			{
				"x": 2.7603676038,
				"y": 0.2493551419,
				"z": 1.2598524697,
				"element": "C" 
			},
			{
				"x": 5.1319851599,
				"y": 0.5645308875,
				"z": -2.5778975876,
				"element": "H" 
			},
			{
				"x": 3.4718643086,
				"y": 1.0603971611,
				"z": -2.9072376476,
				"element": "H" 
			},
			{
				"x": 4.427163922,
				"y": 1.9107348123,
				"z": -1.6830384431,
				"element": "H" 
			},
			{
				"x": 4.5440864503,
				"y": -0.1526082261,
				"z": -0.3100086194,
				"element": "H" 
			},
			{
				"x": 3.2671567292,
				"y": -1.4073323234,
				"z": -2.7229959275,
				"element": "H" 
			},
			{
				"x": 4.4380774907,
				"y": -2.1005284815,
				"z": -1.6133906015,
				"element": "H" 
			},
			{
				"x": 1.8702529926,
				"y": -2.9212011018,
				"z": -1.4093867077,
				"element": "H" 
			},
			{
				"x": 2.7222789062,
				"y": -2.5064162641,
				"z": 0.0760928776,
				"element": "H" 
			},
			{
				"x": 1.247996476,
				"y": -0.3170212405,
				"z": -2.7332681805,
				"element": "H" 
			},
			{
				"x": -0.1366134402,
				"y": 0.1750325074,
				"z": -1.7481722348,
				"element": "H" 
			},
			{
				"x": 0.0535321013,
				"y": -1.5108250716,
				"z": -2.2154536216,
				"element": "H" 
			},
			{
				"x": -0.0962248598,
				"y": -2.2446495473,
				"z": 0.1351663519,
				"element": "H" 
			},
			{
				"x": 0.9672604081,
				"y": -1.6376807314,
				"z": 1.3958345352,
				"element": "H" 
			},
			{
				"x": -0.2844055257,
				"y": 0.608463607,
				"z": 0.7806627417,
				"element": "H" 
			},
			{
				"x": -2.1948235598,
				"y": 1.4974190039,
				"z": 1.7995285609,
				"element": "H" 
			},
			{
				"x": -4.0285741597,
				"y": 1.1504431404,
				"z": 3.4084018656,
				"element": "H" 
			},
			{
				"x": -4.536339071,
				"y": -1.1356452043,
				"z": 4.2726404993,
				"element": "H" 
			},
			{
				"x": -3.1503255047,
				"y": -3.0553574295,
				"z": 3.5014510805,
				"element": "H" 
			},
			{
				"x": -1.3067314337,
				"y": -2.7191385703,
				"z": 1.9191266973,
				"element": "H" 
			},
			{
				"x": 2.6162189866,
				"y": 2.4337990776,
				"z": -0.3114085664,
				"element": "H" 
			},
			{
				"x": 1.6203792258,
				"y": 1.8061440363,
				"z": -1.6247963582,
				"element": "H" 
			},
			{
				"x": 0.9745539998,
				"y": 1.9143911333,
				"z": 0.0099454745,
				"element": "H" 
			},
			{
				"x": 1.8970785593,
				"y": 0.4842239074,
				"z": 1.8916227522,
				"element": "H" 
			},
			{
				"x": 3.1570729533,
				"y": -0.7188340086,
				"z": 1.5817185387,
				"element": "H" 
			},
			{
				"x": 3.5308969649,
				"y": 1.0001919369,
				"z": 1.4675040738,
				"element": "H" 
			}
		],
		 "valence_orbital": [ 
			{
				"type": "occ",
				"energy": -0.30329,
				"method": "rhf"
			},
			{
				"type": "occ",
				"energy": -0.29156,
				"method": "rhf"
			},
			{
				"type": "occ",
				"energy": -0.28165,
				"method": "rhf"
			},
			{
				"type": "occ",
				"energy": -0.23707,
				"method": "rhf"
			},
			{
				"type": "occ",
				"energy": -0.18784,
				"method": "rhf"
			},
			{
				"type": "unocc",
				"energy": 0.01192,
				"method": "rhf"
			},
			{
				"type": "unocc",
				"energy": 0.02705,
				"method": "rhf"
			},
			{
				"type": "unocc",
				"energy": 0.06263,
				"method": "rhf"
			},
			{
				"type": "unocc",
				"energy": 0.08189,
				"method": "rhf"
			},
			{
				"type": "unocc",
				"energy": 0.09925,
				"method": "rhf"
			}
		],
		"cosmo_sigma_profile": { 
			"-0.025": 0.0,
			"-0.024": 0.0,
			"-0.023": 0.0,
			"-0.022": 0.0,
			"-0.021": 0.0,
			"-0.02": 0.0,
			"-0.019": 0.0,
			"-0.018": 0.0,
			"-0.017": 0.0,
			"-0.016": 0.0,
			"-0.015": 0.0,
			"-0.014": 0.0,
			"-0.013": 0.0,
			"-0.012": 0.0,
			"-0.011": 0.0565120268509,
			"-0.01": 1.25271803045,
			"-0.009": 1.15563502098,
			"-0.008": 1.61401553618,
			"-0.007": 1.53327658456,
			"-0.006": 2.66416209748,
			"-0.005": 7.9712870548,
			"-0.004": 11.846775913,
			"-0.003": 25.2261471148,
			"-0.002": 49.0300745136,
			"-0.001": 44.2307974477,
			"0.0": 42.9479457477,
			"0.001": 37.1375607632,
			"0.002": 26.3026539321,
			"0.003": 7.72277719644,
			"0.004": 7.45429869015,
			"0.005": 8.46977422972,
			"0.006": 9.68445047423,
			"0.007": 9.56372228114,
			"0.008": 5.0686714461,
			"0.009": 0.900786968978,
			"0.01": 0.629688521543,
			"0.011": 0.236404632234,
			"0.012": 0.0,
			"0.013": 0.0,
			"0.014": 0.0,
			"0.015": 0.0,
			"0.016": 0.0,
			"0.017": 0.0,
			"0.018": 0.0,
			"0.019": 0.0,
			"0.02": 0.0,
			"0.021": 0.0,
			"0.022": 0.0,
			"0.023": 0.0,
			"0.024": 0.0,
			"0.025": 0.0
		}
	}
}
