{
	 "smiles": "CC1=CC=CC(=C1O)C(C)(C)C", 
	 "Tm": 304.15, 
	 "num_atms": 28, 
	 "gaussian": { 
		 "optdone": 1, 
		 "sigma_profile": "yes", 
		 "theory": "DFT", 
		 "functional": "B3LYP", 
		 "basiset": "6-31G**", 
		 "properties": { 
			 "R2extent": 2313.1419, 
			 "electric_dipole_moment_norm": 1.71737709313, 
			 "electric_quadrupole_moment_norm": 9.48832673078, 
			 "total_energy": -504.052756147, 
			 "HOMO_LUMO_gap": 0.21972, 
			 "cosmo_polarized_energy": -6.44, 
			 "cosmo_cavitation_energy": 28.35, 
			 "cosmo_dispersion_energy": -20.64, 
			 "cosmo_repulsion_energy": 1.62, 
			 "cosmo_total_nonelectrostatic_energy": 9.34, 
			 "SMD_solvation_energy": 5.24 
		},
		"coords": [
			{
				"x": -0.62395964,
				"y": 3.3596862123,
				"z": 0.8341438406,
				"element": "C" 
			},
			{
				"x": -0.6296127075,
				"y": 1.8508571577,
				"z": 0.9340192255,
				"element": "C" 
			},
			{
				"x": -1.6433616815,
				"y": 1.1773147073,
				"z": 1.6199412083,
				"element": "C" 
			},
			{
				"x": -1.6359726529,
				"y": -0.2104943141,
				"z": 1.7038833829,
				"element": "C" 
			},
			{
				"x": -0.6075108994,
				"y": -0.9326800921,
				"z": 1.0979858306,
				"element": "C" 
			},
			{
				"x": 0.4362795879,
				"y": -0.3130788099,
				"z": 0.396594544,
				"element": "C" 
			},
			{
				"x": 0.3959908781,
				"y": 1.0983950335,
				"z": 0.3316397672,
				"element": "C" 
			},
			{
				"x": 1.4022312288,
				"y": 1.7457555275,
				"z": -0.3480808521,
				"element": "O" 
			},
			{
				"x": 1.566539953,
				"y": -1.1284915904,
				"z": -0.2674685937,
				"element": "C" 
			},
			{
				"x": 1.5785213628,
				"y": -0.8763764695,
				"z": -1.7957084987,
				"element": "C" 
			},
			{
				"x": 2.9353147547,
				"y": -0.7378130554,
				"z": 0.3433217431,
				"element": "C" 
			},
			{
				"x": 1.3822896691,
				"y": -2.6446798665,
				"z": -0.0523385001,
				"element": "C" 
			},
			{
				"x": -1.4860829008,
				"y": 3.7838755588,
				"z": 1.3539582248,
				"element": "H" 
			},
			{
				"x": -0.676115148,
				"y": 3.7096408234,
				"z": -0.2066591982,
				"element": "H" 
			},
			{
				"x": 0.2724389762,
				"y": 3.8050189023,
				"z": 1.2886860413,
				"element": "H" 
			},
			{
				"x": -2.4382889686,
				"y": 1.7530299419,
				"z": 2.0873242028,
				"element": "H" 
			},
			{
				"x": -2.4244778395,
				"y": -0.7327464604,
				"z": 2.2372452866,
				"element": "H" 
			},
			{
				"x": -0.6240706904,
				"y": -2.0126172547,
				"z": 1.1776282412,
				"element": "H" 
			},
			{
				"x": 1.2481465907,
				"y": 2.6973712649,
				"z": -0.3115109881,
				"element": "H" 
			},
			{
				"x": 1.7464880654,
				"y": 0.1753754356,
				"z": -2.0301480544,
				"element": "H" 
			},
			{
				"x": 0.6269709744,
				"y": -1.1819454131,
				"z": -2.244417833,
				"element": "H" 
			},
			{
				"x": 2.3754110574,
				"y": -1.4646870238,
				"z": -2.2654805296,
				"element": "H" 
			},
			{
				"x": 2.9505984933,
				"y": -0.9442409497,
				"z": 1.4191096315,
				"element": "H" 
			},
			{
				"x": 3.1573915078,
				"y": 0.3193517672,
				"z": 0.193575109,
				"element": "H" 
			},
			{
				"x": 3.734298234,
				"y": -1.32621508,
				"z": -0.1227515209,
				"element": "H" 
			},
			{
				"x": 1.3972696668,
				"y": -2.9156037758,
				"z": 1.0086013244,
				"element": "H" 
			},
			{
				"x": 2.2044930121,
				"y": -3.1791611076,
				"z": -0.5390618511,
				"element": "H" 
			},
			{
				"x": 0.4477791163,
				"y": -3.0127410694,
				"z": -0.4887311838,
				"element": "H" 
			}
		],
		 "valence_orbital": [ 
			{
				"type": "occ",
				"energy": -0.31645,
				"method": "rhf"
			},
			{
				"type": "occ",
				"energy": -0.30957,
				"method": "rhf"
			},
			{
				"type": "occ",
				"energy": -0.30398,
				"method": "rhf"
			},
			{
				"type": "occ",
				"energy": -0.23404,
				"method": "rhf"
			},
			{
				"type": "occ",
				"energy": -0.21146,
				"method": "rhf"
			},
			{
				"type": "unocc",
				"energy": 0.00826,
				"method": "rhf"
			},
			{
				"type": "unocc",
				"energy": 0.01665,
				"method": "rhf"
			},
			{
				"type": "unocc",
				"energy": 0.06531,
				"method": "rhf"
			},
			{
				"type": "unocc",
				"energy": 0.1008,
				"method": "rhf"
			},
			{
				"type": "unocc",
				"energy": 0.10853,
				"method": "rhf"
			}
		],
		"cosmo_sigma_profile": { 
			"-0.025": 0.0,
			"-0.024": 0.0,
			"-0.023": 0.0,
			"-0.022": 0.0,
			"-0.021": 0.0,
			"-0.02": 0.0,
			"-0.019": 0.0,
			"-0.018": 0.0,
			"-0.017": 0.0,
			"-0.016": 0.0771884257841,
			"-0.015": 0.609538913615,
			"-0.014": 0.657523259605,
			"-0.013": 1.12698955554,
			"-0.012": 0.949134111551,
			"-0.011": 0.868193049275,
			"-0.01": 1.14653607048,
			"-0.009": 1.41858433712,
			"-0.008": 1.30606281041,
			"-0.007": 1.25900484338,
			"-0.006": 1.97849355896,
			"-0.005": 8.31992814873,
			"-0.004": 11.1181711871,
			"-0.003": 15.4020186122,
			"-0.002": 27.3509114977,
			"-0.001": 25.3399260438,
			"0.0": 23.8852787334,
			"0.001": 22.8869952919,
			"0.002": 24.9686498506,
			"0.003": 11.4625840707,
			"0.004": 10.1293666611,
			"0.005": 10.0466465737,
			"0.006": 10.2118986118,
			"0.007": 7.342127105,
			"0.008": 1.32521365602,
			"0.009": 0.00329413333092,
			"0.01": 0.0,
			"0.011": 0.0,
			"0.012": 0.0,
			"0.013": 0.0,
			"0.014": 0.0,
			"0.015": 0.0,
			"0.016": 0.0,
			"0.017": 0.0,
			"0.018": 0.0,
			"0.019": 0.0,
			"0.02": 0.0,
			"0.021": 0.0,
			"0.022": 0.0,
			"0.023": 0.0,
			"0.024": 0.0,
			"0.025": 0.0
		}
	}
}
