{
	 "smiles": "O=C1C=CC(=O)N1C1=CC=C(C=C1)N1C(=O)C=CC1=O", 
	 "Tm": 573.15, 
	 "num_atms": 28, 
	 "gaussian": { 
		 "optdone": 1, 
		 "sigma_profile": "yes", 
		 "theory": "DFT", 
		 "functional": "B3LYP", 
		 "basiset": "6-31G**", 
		 "properties": { 
			 "R2extent": 7542.5102, 
			 "electric_dipole_moment_norm": 0.000141421356237, 
			 "electric_quadrupole_moment_norm": 33.5361566623, 
			 "total_energy": -948.699217191, 
			 "HOMO_LUMO_gap": 0.11757, 
			 "cosmo_polarized_energy": -14.61, 
			 "cosmo_cavitation_energy": 33.92, 
			 "cosmo_dispersion_energy": -25.12, 
			 "cosmo_repulsion_energy": 1.83, 
			 "cosmo_total_nonelectrostatic_energy": 10.63, 
			 "SMD_solvation_energy": 8.81 
		},
		"coords": [
			{
				"x": 2.3624340256,
				"y": -0.9056306887,
				"z": 3.0536507654,
				"element": "O" 
			},
			{
				"x": 2.1329833398,
				"y": -2.062336644,
				"z": 2.7688792839,
				"element": "C" 
			},
			{
				"x": 2.5370261835,
				"y": -3.2523064593,
				"z": 3.5816336403,
				"element": "C" 
			},
			{
				"x": 2.1187764569,
				"y": -4.3564157975,
				"z": 2.9655826872,
				"element": "C" 
			},
			{
				"x": 1.4108930256,
				"y": -3.9685090947,
				"z": 1.7053256327,
				"element": "C" 
			},
			{
				"x": 0.9099490673,
				"y": -4.739901743,
				"z": 0.914303941,
				"element": "O" 
			},
			{
				"x": 1.4453534105,
				"y": -2.55198256,
				"z": 1.628228692,
				"element": "N" 
			},
			{
				"x": 0.8815668879,
				"y": -1.7519103557,
				"z": 0.5770527816,
				"element": "C" 
			},
			{
				"x": 0.9775021509,
				"y": -0.3532688626,
				"z": 0.6065817614,
				"element": "C" 
			},
			{
				"x": 0.4310884005,
				"y": 0.4221351871,
				"z": -0.4122041962,
				"element": "C" 
			},
			{
				"x": -0.2299361995,
				"y": -0.1745815497,
				"z": -1.4953657183,
				"element": "C" 
			},
			{
				"x": -0.3258723904,
				"y": -1.573222163,
				"z": -1.5248933548,
				"element": "C" 
			},
			{
				"x": 0.2205430323,
				"y": -2.3486260088,
				"z": -0.50610847,
				"element": "C" 
			},
			{
				"x": -0.7937290015,
				"y": 0.6254720318,
				"z": -2.546552135,
				"element": "N" 
			},
			{
				"x": -0.7594595598,
				"y": 2.0420078979,
				"z": -2.6235905044,
				"element": "C" 
			},
			{
				"x": -0.2586973088,
				"y": 2.8134444271,
				"z": -1.8324965102,
				"element": "O" 
			},
			{
				"x": -1.4672671968,
				"y": 2.4298621559,
				"z": -3.8839063825,
				"element": "C" 
			},
			{
				"x": -1.8853111065,
				"y": 1.3257183695,
				"z": -4.5000353605,
				"element": "C" 
			},
			{
				"x": -1.4811778269,
				"y": 0.1357745963,
				"z": -3.6872882932,
				"element": "C" 
			},
			{
				"x": -1.710440624,
				"y": -1.0209541604,
				"z": -3.9721185468,
				"element": "O" 
			},
			{
				"x": 3.0806893747,
				"y": -3.1347979213,
				"z": 4.50946232,
				"element": "H" 
			},
			{
				"x": 2.2243905967,
				"y": -5.3952692387,
				"z": 3.2482026802,
				"element": "H" 
			},
			{
				"x": 1.4789351573,
				"y": 0.1412852762,
				"z": 1.4240809094,
				"element": "H" 
			},
			{
				"x": 0.5245455154,
				"y": 1.4956128941,
				"z": -0.355324553,
				"element": "H" 
			},
			{
				"x": -0.827301871,
				"y": -2.0677760121,
				"z": -2.3423959651,
				"element": "H" 
			},
			{
				"x": 0.127081756,
				"y": -3.422104393,
				"z": -0.5629845963,
				"element": "H" 
			},
			{
				"x": -1.5729950259,
				"y": 3.4687110366,
				"z": -4.1665005691,
				"element": "H" 
			},
			{
				"x": -2.4288702696,
				"y": 1.20816978,
				"z": -5.4279199397,
				"element": "H" 
			}
		],
		 "valence_orbital": [ 
			{
				"type": "occ",
				"energy": -0.29613,
				"method": "rhf"
			},
			{
				"type": "occ",
				"energy": -0.2806,
				"method": "rhf"
			},
			{
				"type": "occ",
				"energy": -0.27083,
				"method": "rhf"
			},
			{
				"type": "occ",
				"energy": -0.25213,
				"method": "rhf"
			},
			{
				"type": "occ",
				"energy": -0.22123,
				"method": "rhf"
			},
			{
				"type": "unocc",
				"energy": -0.10366,
				"method": "rhf"
			},
			{
				"type": "unocc",
				"energy": -0.10361,
				"method": "rhf"
			},
			{
				"type": "unocc",
				"energy": -0.01994,
				"method": "rhf"
			},
			{
				"type": "unocc",
				"energy": -0.00264,
				"method": "rhf"
			},
			{
				"type": "unocc",
				"energy": 0.04374,
				"method": "rhf"
			}
		],
		"cosmo_sigma_profile": { 
			"-0.025": 0.0,
			"-0.024": 0.0,
			"-0.023": 0.0,
			"-0.022": 0.0,
			"-0.021": 0.0,
			"-0.02": 0.0,
			"-0.019": 0.0,
			"-0.018": 0.0,
			"-0.017": 0.0,
			"-0.016": 0.0,
			"-0.015": 0.0,
			"-0.014": 0.0,
			"-0.013": 0.0,
			"-0.012": 0.0,
			"-0.011": 0.197559553827,
			"-0.01": 5.3807231527,
			"-0.009": 7.31080846768,
			"-0.008": 6.59980230314,
			"-0.007": 7.56564999688,
			"-0.006": 13.5870377632,
			"-0.005": 14.8827754189,
			"-0.004": 23.0812818778,
			"-0.003": 21.870168138,
			"-0.002": 18.452221439,
			"-0.001": 17.4651403086,
			"0.0": 20.0267815022,
			"0.001": 17.0611865672,
			"0.002": 16.9769426026,
			"0.003": 16.7145130383,
			"0.004": 16.1831528875,
			"0.005": 6.41618947423,
			"0.006": 7.57910974135,
			"0.007": 5.60983855405,
			"0.008": 8.38540276698,
			"0.009": 9.59273251496,
			"0.01": 10.1960432774,
			"0.011": 5.06785396709,
			"0.012": 0.182995101246,
			"0.013": 0.0,
			"0.014": 0.0,
			"0.015": 0.0,
			"0.016": 0.0,
			"0.017": 0.0,
			"0.018": 0.0,
			"0.019": 0.0,
			"0.02": 0.0,
			"0.021": 0.0,
			"0.022": 0.0,
			"0.023": 0.0,
			"0.024": 0.0,
			"0.025": 0.0
		}
	}
}
