{
	 "smiles": "NC1=CC2=C(C=C1)C(=O)N(C2=O)C1=CC=C(F)C=C1", 
	 "Tm": 485.15, 
	 "num_atms": 28, 
	 "gaussian": { 
		 "optdone": 1, 
		 "sigma_profile": "yes", 
		 "theory": "DFT", 
		 "functional": "B3LYP", 
		 "basiset": "6-31G**", 
		 "properties": { 
			 "R2extent": 7413.3997, 
			 "electric_dipole_moment_norm": 6.46173212924, 
			 "electric_quadrupole_moment_norm": 29.3922854411, 
			 "total_energy": -898.734004168, 
			 "HOMO_LUMO_gap": 0.14517, 
			 "cosmo_polarized_energy": -16.76, 
			 "cosmo_cavitation_energy": 33.94, 
			 "cosmo_dispersion_energy": -24.59, 
			 "cosmo_repulsion_energy": 1.82, 
			 "cosmo_total_nonelectrostatic_energy": 11.18, 
			 "SMD_solvation_energy": 7.36 
		},
		"coords": [
			{
				"x": -3.8828907714,
				"y": 5.357373,
				"z": -1.0267241931,
				"element": "N" 
			},
			{
				"x": -3.3566077809,
				"y": 4.0825512285,
				"z": -0.955823878,
				"element": "C" 
			},
			{
				"x": -2.0325765018,
				"y": 3.8332836435,
				"z": -1.3859428612,
				"element": "C" 
			},
			{
				"x": -1.5410601733,
				"y": 2.5505866591,
				"z": -1.2472223967,
				"element": "C" 
			},
			{
				"x": -2.2962592993,
				"y": 1.5116485906,
				"z": -0.7037938345,
				"element": "C" 
			},
			{
				"x": -3.6003988424,
				"y": 1.7395284426,
				"z": -0.2768927294,
				"element": "C" 
			},
			{
				"x": -4.1209524018,
				"y": 3.0248698501,
				"z": -0.407174596,
				"element": "C" 
			},
			{
				"x": -1.480459573,
				"y": 0.2802978518,
				"z": -0.6992524704,
				"element": "C" 
			},
			{
				"x": -1.7772383052,
				"y": -0.8299787927,
				"z": -0.3069937623,
				"element": "O" 
			},
			{
				"x": -0.2184347848,
				"y": 0.6468419776,
				"z": -1.262067049,
				"element": "N" 
			},
			{
				"x": -0.1990802688,
				"y": 2.0151160952,
				"z": -1.6185701937,
				"element": "C" 
			},
			{
				"x": 0.7282656315,
				"y": 2.612508471,
				"z": -2.1274327789,
				"element": "O" 
			},
			{
				"x": 0.8720590088,
				"y": -0.2519064576,
				"z": -1.4462080368,
				"element": "C" 
			},
			{
				"x": 1.1478965737,
				"y": -1.2268231351,
				"z": -0.4780938427,
				"element": "C" 
			},
			{
				"x": 2.2086908244,
				"y": -2.1114819926,
				"z": -0.6603350408,
				"element": "C" 
			},
			{
				"x": 2.9924265166,
				"y": -1.9998886229,
				"z": -1.8024221317,
				"element": "C" 
			},
			{
				"x": 4.0254096798,
				"y": -2.8512845594,
				"z": -1.9758922689,
				"element": "F" 
			},
			{
				"x": 2.7416340031,
				"y": -1.03512723,
				"z": -2.7705886256,
				"element": "C" 
			},
			{
				"x": 1.6702423117,
				"y": -0.1619966109,
				"z": -2.5944396715,
				"element": "C" 
			},
			{
				"x": -3.4364738091,
				"y": 6.0090445958,
				"z": -1.6543809464,
				"element": "H" 
			},
			{
				"x": -4.8864775885,
				"y": 5.4500736796,
				"z": -0.9817748523,
				"element": "H" 
			},
			{
				"x": -1.4189516876,
				"y": 4.6227971194,
				"z": -1.809774202,
				"element": "H" 
			},
			{
				"x": -4.1961802736,
				"y": 0.9361857187,
				"z": 0.1445761641,
				"element": "H" 
			},
			{
				"x": -5.1360942073,
				"y": 3.2308970438,
				"z": -0.0780596588,
				"element": "H" 
			},
			{
				"x": 0.5249358459,
				"y": -1.3037386068,
				"z": 0.4031493703,
				"element": "H" 
			},
			{
				"x": 2.4345592904,
				"y": -2.8769761841,
				"z": 0.0737900732,
				"element": "H" 
			},
			{
				"x": 3.3751917755,
				"y": -0.977565018,
				"z": -3.6487962232,
				"element": "H" 
			},
			{
				"x": 1.4652248075,
				"y": 0.5983632425,
				"z": -3.3364593638,
				"element": "H" 
			}
		],
		 "valence_orbital": [ 
			{
				"type": "occ",
				"energy": -0.27689,
				"method": "rhf"
			},
			{
				"type": "occ",
				"energy": -0.2639,
				"method": "rhf"
			},
			{
				"type": "occ",
				"energy": -0.25585,
				"method": "rhf"
			},
			{
				"type": "occ",
				"energy": -0.23628,
				"method": "rhf"
			},
			{
				"type": "occ",
				"energy": -0.21996,
				"method": "rhf"
			},
			{
				"type": "unocc",
				"energy": -0.07479,
				"method": "rhf"
			},
			{
				"type": "unocc",
				"energy": -0.03868,
				"method": "rhf"
			},
			{
				"type": "unocc",
				"energy": -0.0065,
				"method": "rhf"
			},
			{
				"type": "unocc",
				"energy": 0.00493,
				"method": "rhf"
			},
			{
				"type": "unocc",
				"energy": 0.03844,
				"method": "rhf"
			}
		],
		"cosmo_sigma_profile": { 
			"-0.025": 0.0,
			"-0.024": 0.0,
			"-0.023": 0.0,
			"-0.022": 0.0,
			"-0.021": 0.0,
			"-0.02": 0.0,
			"-0.019": 0.0,
			"-0.018": 0.0,
			"-0.017": 0.0,
			"-0.016": 0.0,
			"-0.015": 0.0,
			"-0.014": 1.25606080063,
			"-0.013": 3.36486262466,
			"-0.012": 2.54115970048,
			"-0.011": 3.92863042866,
			"-0.01": 3.48387456138,
			"-0.009": 2.73741282851,
			"-0.008": 4.68765903627,
			"-0.007": 9.87511044643,
			"-0.006": 11.6439580045,
			"-0.005": 15.8451150012,
			"-0.004": 15.3532705398,
			"-0.003": 14.3597834298,
			"-0.002": 13.196512386,
			"-0.001": 14.3720479796,
			"0.0": 19.4453005938,
			"0.001": 23.1190338256,
			"0.002": 26.9517870851,
			"0.003": 25.4012717999,
			"0.004": 18.1525156975,
			"0.005": 9.03721937784,
			"0.006": 3.63742748676,
			"0.007": 4.33888322516,
			"0.008": 4.1697370139,
			"0.009": 5.21938544281,
			"0.01": 4.86793169966,
			"0.011": 9.13888415307,
			"0.012": 3.28055680976,
			"0.013": 0.0595542802996,
			"0.014": 0.0,
			"0.015": 0.0,
			"0.016": 0.0,
			"0.017": 0.0,
			"0.018": 0.0,
			"0.019": 0.0,
			"0.02": 0.0,
			"0.021": 0.0,
			"0.022": 0.0,
			"0.023": 0.0,
			"0.024": 0.0,
			"0.025": 0.0
		}
	}
}
