{
	 "smiles": "COC1=C2C=CC=CC2=C(C=C1)C(=O)N1CCCC(C1)C(O)=O", 
	 "Tm": 529.15, 
	 "num_atms": 42, 
	 "gaussian": { 
		 "optdone": 1, 
		 "sigma_profile": "yes", 
		 "theory": "DFT", 
		 "functional": "B3LYP", 
		 "basiset": "6-31G**", 
		 "properties": { 
			 "R2extent": 9565.2424, 
			 "electric_dipole_moment_norm": 4.33774206933, 
			 "electric_quadrupole_moment_norm": 27.6821895111, 
			 "total_energy": -1053.03869643, 
			 "HOMO_LUMO_gap": 0.16383, 
			 "cosmo_polarized_energy": -18.92, 
			 "cosmo_cavitation_energy": 43.37, 
			 "cosmo_dispersion_energy": -30.29, 
			 "cosmo_repulsion_energy": 2.29, 
			 "cosmo_total_nonelectrostatic_energy": 15.37, 
			 "SMD_solvation_energy": 8.83 
		},
		"coords": [
			{
				"x": -0.1164741298,
				"y": 0.347218972,
				"z": -5.6127876808,
				"element": "C" 
			},
			{
				"x": 0.9364784623,
				"y": 0.3100914955,
				"z": -4.6611467204,
				"element": "O" 
			},
			{
				"x": 0.758196555,
				"y": 0.9494912122,
				"z": -3.4725366575,
				"element": "C" 
			},
			{
				"x": 1.8763860493,
				"y": 0.8904711158,
				"z": -2.5769416261,
				"element": "C" 
			},
			{
				"x": 3.0801543516,
				"y": 0.2385134369,
				"z": -2.9498473391,
				"element": "C" 
			},
			{
				"x": 4.1617949338,
				"y": 0.2158110457,
				"z": -2.0974887829,
				"element": "C" 
			},
			{
				"x": 4.0827792833,
				"y": 0.8548562165,
				"z": -0.8400227233,
				"element": "C" 
			},
			{
				"x": 2.9235392629,
				"y": 1.4888924322,
				"z": -0.4493778583,
				"element": "C" 
			},
			{
				"x": 1.7776634922,
				"y": 1.5190645787,
				"z": -1.2922987625,
				"element": "C" 
			},
			{
				"x": 0.5567755562,
				"y": 2.1822888202,
				"z": -0.9298543283,
				"element": "C" 
			},
			{
				"x": -0.4695489954,
				"y": 2.2507871317,
				"z": -1.8503916256,
				"element": "C" 
			},
			{
				"x": -0.3900831286,
				"y": 1.6288675761,
				"z": -3.1144031344,
				"element": "C" 
			},
			{
				"x": 0.3454684904,
				"y": 2.9127279068,
				"z": 0.3716085193,
				"element": "C" 
			},
			{
				"x": -0.0026453346,
				"y": 4.0923311871,
				"z": 0.3725862205,
				"element": "O" 
			},
			{
				"x": 0.5482448191,
				"y": 2.2200579073,
				"z": 1.5494272896,
				"element": "N" 
			},
			{
				"x": 0.3189105902,
				"y": 2.9305791105,
				"z": 2.8109485157,
				"element": "C" 
			},
			{
				"x": -1.1191645769,
				"y": 2.7013109803,
				"z": 3.3171122018,
				"element": "C" 
			},
			{
				"x": -1.6321672024,
				"y": 1.29977765,
				"z": 2.909212996,
				"element": "C" 
			},
			{
				"x": -0.491004452,
				"y": 0.2843998946,
				"z": 2.7446627016,
				"element": "C" 
			},
			{
				"x": 0.5260058013,
				"y": 0.7590977986,
				"z": 1.6546916218,
				"element": "C" 
			},
			{
				"x": 0.1723654301,
				"y": -0.0409978038,
				"z": 4.0743284623,
				"element": "C" 
			},
			{
				"x": 1.1669358194,
				"y": -0.9528106687,
				"z": 3.9273444348,
				"element": "O" 
			},
			{
				"x": -0.1332402684,
				"y": 0.4068832531,
				"z": 5.1587544338,
				"element": "O" 
			},
			{
				"x": -0.3446693928,
				"y": 1.3756198852,
				"z": -5.9191114702,
				"element": "H" 
			},
			{
				"x": -1.0278430158,
				"y": -0.1226298634,
				"z": -5.2222441389,
				"element": "H" 
			},
			{
				"x": 0.238623229,
				"y": -0.2167301117,
				"z": -6.4763965958,
				"element": "H" 
			},
			{
				"x": 3.1323694276,
				"y": -0.2332885249,
				"z": -3.9240034498,
				"element": "H" 
			},
			{
				"x": 5.0792204499,
				"y": -0.2835287164,
				"z": -2.3949686636,
				"element": "H" 
			},
			{
				"x": 4.9445205084,
				"y": 0.8523983865,
				"z": -0.1785325089,
				"element": "H" 
			},
			{
				"x": 2.8779102346,
				"y": 1.9901703232,
				"z": 0.5111341569,
				"element": "H" 
			},
			{
				"x": -1.3679535977,
				"y": 2.8008806412,
				"z": -1.5886769452,
				"element": "H" 
			},
			{
				"x": -1.2346819704,
				"y": 1.6974168956,
				"z": -3.7887599307,
				"element": "H" 
			},
			{
				"x": 1.0458570639,
				"y": 2.5566023468,
				"z": 3.5417393037,
				"element": "H" 
			},
			{
				"x": 0.5169968773,
				"y": 3.9881191655,
				"z": 2.6414492594,
				"element": "H" 
			},
			{
				"x": -1.1353156987,
				"y": 2.8080729254,
				"z": 4.4047890575,
				"element": "H" 
			},
			{
				"x": -1.7791200294,
				"y": 3.4648053581,
				"z": 2.8947639601,
				"element": "H" 
			},
			{
				"x": -2.1514131493,
				"y": 1.3628942019,
				"z": 1.9463250907,
				"element": "H" 
			},
			{
				"x": -2.3577266646,
				"y": 0.930351698,
				"z": 3.6388023493,
				"element": "H" 
			},
			{
				"x": -0.8936711868,
				"y": -0.6753871705,
				"z": 2.3962688421,
				"element": "H" 
			},
			{
				"x": 1.5232745916,
				"y": 0.3640232542,
				"z": 1.8787076238,
				"element": "H" 
			},
			{
				"x": 0.2263539457,
				"y": 0.3505515756,
				"z": 0.6893672353,
				"element": "H" 
			},
			{
				"x": 1.5225975686,
				"y": -1.1106535195,
				"z": 4.818066666,
				"element": "H" 
			}
		],
		 "valence_orbital": [ 
			{
				"type": "occ",
				"energy": -0.26381,
				"method": "rhf"
			},
			{
				"type": "occ",
				"energy": -0.24832,
				"method": "rhf"
			},
			{
				"type": "occ",
				"energy": -0.24423,
				"method": "rhf"
			},
			{
				"type": "occ",
				"energy": -0.22992,
				"method": "rhf"
			},
			{
				"type": "occ",
				"energy": -0.20355,
				"method": "rhf"
			},
			{
				"type": "unocc",
				"energy": -0.03972,
				"method": "rhf"
			},
			{
				"type": "unocc",
				"energy": -0.01193,
				"method": "rhf"
			},
			{
				"type": "unocc",
				"energy": -0.00143,
				"method": "rhf"
			},
			{
				"type": "unocc",
				"energy": 0.01452,
				"method": "rhf"
			},
			{
				"type": "unocc",
				"energy": 0.05791,
				"method": "rhf"
			}
		],
		"cosmo_sigma_profile": { 
			"-0.025": 0.0,
			"-0.024": 0.0,
			"-0.023": 0.0,
			"-0.022": 0.0,
			"-0.021": 0.0,
			"-0.02": 0.0,
			"-0.019": 0.000221871024957,
			"-0.018": 0.685808716528,
			"-0.017": 1.14862473812,
			"-0.016": 0.6855387985,
			"-0.015": 0.723256668621,
			"-0.014": 1.03177102876,
			"-0.013": 0.238395686449,
			"-0.012": 0.143747901843,
			"-0.011": 1.03893676752,
			"-0.01": 1.37868670217,
			"-0.009": 0.397724518288,
			"-0.008": 0.463588661422,
			"-0.007": 5.02762992708,
			"-0.006": 18.3148429608,
			"-0.005": 25.1253924068,
			"-0.004": 32.6346734924,
			"-0.003": 35.2070411348,
			"-0.002": 29.6783185465,
			"-0.001": 27.6877321887,
			"0.0": 22.1933223172,
			"0.001": 18.6688283043,
			"0.002": 19.3875746322,
			"0.003": 21.0782890803,
			"0.004": 22.2237766748,
			"0.005": 15.5507047617,
			"0.006": 6.13291921011,
			"0.007": 5.61194366539,
			"0.008": 4.40289105165,
			"0.009": 3.99207749985,
			"0.01": 3.37050309603,
			"0.011": 5.00471641822,
			"0.012": 4.85225856816,
			"0.013": 2.95466524778,
			"0.014": 4.26068731036,
			"0.015": 1.25747008332,
			"0.016": 0.066364658408,
			"0.017": 0.0,
			"0.018": 0.0,
			"0.019": 0.0,
			"0.02": 0.0,
			"0.021": 0.0,
			"0.022": 0.0,
			"0.023": 0.0,
			"0.024": 0.0,
			"0.025": 0.0
		}
	}
}
