{
	 "smiles": "SC1=NC(=NO1)C1=CN=CC=C1", 
	 "Tm": 453.15, 
	 "num_atms": 17, 
	 "gaussian": { 
		 "optdone": 1, 
		 "sigma_profile": "yes", 
		 "theory": "DFT", 
		 "functional": "B3LYP", 
		 "basiset": "6-31G**", 
		 "properties": { 
			 "R2extent": 3559.9865, 
			 "electric_dipole_moment_norm": 3.90916261366, 
			 "electric_quadrupole_moment_norm": 7.06130029315, 
			 "total_energy": -907.368283493, 
			 "HOMO_LUMO_gap": 0.19636, 
			 "cosmo_polarized_energy": -10.08, 
			 "cosmo_cavitation_energy": 24.41, 
			 "cosmo_dispersion_energy": -18.88, 
			 "cosmo_repulsion_energy": 1.44, 
			 "cosmo_total_nonelectrostatic_energy": 6.96, 
			 "SMD_solvation_energy": 1.0 
		},
		"coords": [
			{
				"x": -2.7325002168,
				"y": -1.6889111837,
				"z": 3.850019323,
				"element": "S" 
			},
			{
				"x": -1.9403419833,
				"y": -1.0719391129,
				"z": 2.4117322265,
				"element": "C" 
			},
			{
				"x": -1.5628976918,
				"y": 0.1419391512,
				"z": 2.1382950349,
				"element": "N" 
			},
			{
				"x": -1.0124174453,
				"y": -0.0120932438,
				"z": 0.8778727871,
				"element": "C" 
			},
			{
				"x": -1.0494502983,
				"y": -1.2394397403,
				"z": 0.4087425683,
				"element": "N" 
			},
			{
				"x": -1.6779664694,
				"y": -1.9629064078,
				"z": 1.4450853088,
				"element": "O" 
			},
			{
				"x": -0.434388509,
				"y": 1.1097559697,
				"z": 0.1290030339,
				"element": "C" 
			},
			{
				"x": 0.1182771096,
				"y": 0.9262123576,
				"z": -1.1496274691,
				"element": "C" 
			},
			{
				"x": 0.655021005,
				"y": 1.9130042568,
				"z": -1.8696425214,
				"element": "N" 
			},
			{
				"x": 0.6597308519,
				"y": 3.1403676651,
				"z": -1.330155823,
				"element": "C" 
			},
			{
				"x": 0.1376185552,
				"y": 3.4323383653,
				"z": -0.0691275487,
				"element": "C" 
			},
			{
				"x": -0.4205920024,
				"y": 2.3979197403,
				"z": 0.6760270399,
				"element": "C" 
			},
			{
				"x": -2.7583331817,
				"y": -0.4816598359,
				"z": 4.4452647008,
				"element": "H" 
			},
			{
				"x": 0.1210971456,
				"y": -0.0639939046,
				"z": -1.5992692676,
				"element": "H" 
			},
			{
				"x": 1.1031102197,
				"y": 3.9273503026,
				"z": -1.9375129408,
				"element": "H" 
			},
			{
				"x": 0.1690514677,
				"y": 4.4461776736,
				"z": 0.3168598959,
				"element": "H" 
			},
			{
				"x": -0.8408185569,
				"y": 2.5674779468,
				"z": 1.6616336515,
				"element": "H" 
			}
		],
		 "valence_orbital": [ 
			{
				"type": "occ",
				"energy": -0.31242,
				"method": "rhf"
			},
			{
				"type": "occ",
				"energy": -0.29363,
				"method": "rhf"
			},
			{
				"type": "occ",
				"energy": -0.27933,
				"method": "rhf"
			},
			{
				"type": "occ",
				"energy": -0.26176,
				"method": "rhf"
			},
			{
				"type": "occ",
				"energy": -0.25554,
				"method": "rhf"
			},
			{
				"type": "unocc",
				"energy": -0.05918,
				"method": "rhf"
			},
			{
				"type": "unocc",
				"energy": -0.03305,
				"method": "rhf"
			},
			{
				"type": "unocc",
				"energy": -0.0132,
				"method": "rhf"
			},
			{
				"type": "unocc",
				"energy": -0.01255,
				"method": "rhf"
			},
			{
				"type": "unocc",
				"energy": 0.03177,
				"method": "rhf"
			}
		],
		"cosmo_sigma_profile": { 
			"-0.025": 0.0,
			"-0.024": 0.0,
			"-0.023": 0.0,
			"-0.022": 0.0,
			"-0.021": 0.0,
			"-0.02": 0.0,
			"-0.019": 0.0,
			"-0.018": 0.0,
			"-0.017": 0.0,
			"-0.016": 0.0,
			"-0.015": 0.0,
			"-0.014": 0.267561137037,
			"-0.013": 2.05154742264,
			"-0.012": 1.41078299002,
			"-0.011": 1.54971836008,
			"-0.01": 1.23252761257,
			"-0.009": 1.33423621736,
			"-0.008": 1.57118335637,
			"-0.007": 7.67597814484,
			"-0.006": 9.96169115963,
			"-0.005": 8.23435554893,
			"-0.004": 10.3877662465,
			"-0.003": 12.0224083446,
			"-0.002": 16.8386936353,
			"-0.001": 19.326396508,
			"0.0": 21.7872836006,
			"0.001": 19.8158860299,
			"0.002": 13.5971113708,
			"0.003": 8.39110510936,
			"0.004": 8.24316175239,
			"0.005": 7.40138174818,
			"0.006": 7.13765039283,
			"0.007": 4.41987446001,
			"0.008": 2.89974112984,
			"0.009": 3.18269244966,
			"0.01": 2.92932597553,
			"0.011": 2.04881603688,
			"0.012": 1.36889862058,
			"0.013": 1.10957445093,
			"0.014": 0.981232513992,
			"0.015": 0.598217667493,
			"0.016": 0.618124544533,
			"0.017": 0.0212445716224,
			"0.018": 0.0,
			"0.019": 0.0,
			"0.02": 0.0,
			"0.021": 0.0,
			"0.022": 0.0,
			"0.023": 0.0,
			"0.024": 0.0,
			"0.025": 0.0
		}
	}
}
