{
	 "smiles": "CCC1=[N+]([O-])C(C)(C)N(C)C1(C)C", 
	 "Tm": 306.15, 
	 "num_atms": 33, 
	 "gaussian": { 
		 "optdone": 1, 
		 "sigma_profile": "yes", 
		 "theory": "DFT", 
		 "functional": "B3LYP", 
		 "basiset": "6-31G**", 
		 "properties": { 
			 "R2extent": 2437.1867, 
			 "electric_dipole_moment_norm": 3.55296833788, 
			 "electric_quadrupole_moment_norm": 9.69536080659, 
			 "total_energy": -577.794520375, 
			 "HOMO_LUMO_gap": 0.19774, 
			 "cosmo_polarized_energy": -11.05, 
			 "cosmo_cavitation_energy": 32.37, 
			 "cosmo_dispersion_energy": -21.67, 
			 "cosmo_repulsion_energy": 1.68, 
			 "cosmo_total_nonelectrostatic_energy": 12.39, 
			 "SMD_solvation_energy": 5.69 
		},
		"coords": [
			{
				"x": -2.5702048716,
				"y": -0.678632476,
				"z": -1.9320887814,
				"element": "C" 
			},
			{
				"x": -2.3846240804,
				"y": -0.9022242149,
				"z": -0.4180707423,
				"element": "C" 
			},
			{
				"x": -1.027881204,
				"y": -0.5052855991,
				"z": 0.0679220261,
				"element": "C" 
			},
			{
				"x": 0.0179926102,
				"y": -1.2241763488,
				"z": -0.2417472146,
				"element": "N" 
			},
			{
				"x": 0.0571448661,
				"y": -2.2922369292,
				"z": -0.9378165294,
				"element": "O" 
			},
			{
				"x": 1.2880106243,
				"y": -0.6879729671,
				"z": 0.3684463498,
				"element": "C" 
			},
			{
				"x": 2.3278227417,
				"y": -0.5329131947,
				"z": -0.7441796129,
				"element": "C" 
			},
			{
				"x": 1.7545085028,
				"y": -1.7149921184,
				"z": 1.4151670209,
				"element": "C" 
			},
			{
				"x": 0.8289243977,
				"y": 0.6061206818,
				"z": 0.8752872144,
				"element": "N" 
			},
			{
				"x": 1.6064042504,
				"y": 1.2300394048,
				"z": 1.9270433716,
				"element": "C" 
			},
			{
				"x": -0.650153688,
				"y": 0.6534987057,
				"z": 0.9587840757,
				"element": "C" 
			},
			{
				"x": -1.1578583741,
				"y": 1.9992907178,
				"z": 0.4000834138,
				"element": "C" 
			},
			{
				"x": -1.2200147802,
				"y": 0.4433408009,
				"z": 2.3860240324,
				"element": "C" 
			},
			{
				"x": -3.554538692,
				"y": -1.0329125376,
				"z": -2.2541550647,
				"element": "H" 
			},
			{
				"x": -1.8050267079,
				"y": -1.2348864511,
				"z": -2.4783654195,
				"element": "H" 
			},
			{
				"x": -2.4877733267,
				"y": 0.3812997474,
				"z": -2.1921915866,
				"element": "H" 
			},
			{
				"x": -2.5152539905,
				"y": -1.9715292925,
				"z": -0.2077758213,
				"element": "H" 
			},
			{
				"x": -3.1501260101,
				"y": -0.3581127987,
				"z": 0.1452575789,
				"element": "H" 
			},
			{
				"x": 1.9775015785,
				"y": 0.1930712184,
				"z": -1.4814774011,
				"element": "H" 
			},
			{
				"x": 3.2771113599,
				"y": -0.1803133037,
				"z": -0.3298871683,
				"element": "H" 
			},
			{
				"x": 2.4879849136,
				"y": -1.4959469933,
				"z": -1.2337725387,
				"element": "H" 
			},
			{
				"x": 1.8417828409,
				"y": -2.6901304726,
				"z": 0.9303983504,
				"element": "H" 
			},
			{
				"x": 2.7286472296,
				"y": -1.4367544243,
				"z": 1.826578997,
				"element": "H" 
			},
			{
				"x": 1.0390193063,
				"y": -1.80014496,
				"z": 2.2378608319,
				"element": "H" 
			},
			{
				"x": 1.5665900518,
				"y": 0.7196343013,
				"z": 2.9040949783,
				"element": "H" 
			},
			{
				"x": 2.6562924792,
				"y": 1.2843621186,
				"z": 1.6213184116,
				"element": "H" 
			},
			{
				"x": 1.264958952,
				"y": 2.2595583685,
				"z": 2.0732312342,
				"element": "H" 
			},
			{
				"x": -0.8158974466,
				"y": 2.8289320348,
				"z": 1.0280527508,
				"element": "H" 
			},
			{
				"x": -0.7782087545,
				"y": 2.1563159094,
				"z": -0.6121794011,
				"element": "H" 
			},
			{
				"x": -2.2523775613,
				"y": 2.032673316,
				"z": 0.3801924108,
				"element": "H" 
			},
			{
				"x": -0.8616299349,
				"y": -0.4907548245,
				"z": 2.8273740824,
				"element": "H" 
			},
			{
				"x": -2.313634728,
				"y": 0.4049387723,
				"z": 2.3585822789,
				"element": "H" 
			},
			{
				"x": -0.9384925543,
				"y": 1.2691438086,
				"z": 3.047407872,
				"element": "H" 
			}
		],
		 "valence_orbital": [ 
			{
				"type": "occ",
				"energy": -0.33703,
				"method": "rhf"
			},
			{
				"type": "occ",
				"energy": -0.33092,
				"method": "rhf"
			},
			{
				"type": "occ",
				"energy": -0.22981,
				"method": "rhf"
			},
			{
				"type": "occ",
				"energy": -0.211,
				"method": "rhf"
			},
			{
				"type": "occ",
				"energy": -0.19957,
				"method": "rhf"
			},
			{
				"type": "unocc",
				"energy": -0.00183,
				"method": "rhf"
			},
			{
				"type": "unocc",
				"energy": 0.06213,
				"method": "rhf"
			},
			{
				"type": "unocc",
				"energy": 0.09737,
				"method": "rhf"
			},
			{
				"type": "unocc",
				"energy": 0.10671,
				"method": "rhf"
			},
			{
				"type": "unocc",
				"energy": 0.11436,
				"method": "rhf"
			}
		],
		"cosmo_sigma_profile": { 
			"-0.025": 0.0,
			"-0.024": 0.0,
			"-0.023": 0.0,
			"-0.022": 0.0,
			"-0.021": 0.0,
			"-0.02": 0.0,
			"-0.019": 0.0,
			"-0.018": 0.0,
			"-0.017": 0.0,
			"-0.016": 0.0,
			"-0.015": 0.0,
			"-0.014": 0.0,
			"-0.013": 0.0,
			"-0.012": 0.0,
			"-0.011": 0.0,
			"-0.01": 0.0,
			"-0.009": 0.0,
			"-0.008": 0.0,
			"-0.007": 0.0,
			"-0.006": 0.347727177317,
			"-0.005": 9.32073217705,
			"-0.004": 23.7091405,
			"-0.003": 29.3924848193,
			"-0.002": 37.2561017613,
			"-0.001": 44.8003690302,
			"0.0": 36.7708328142,
			"0.001": 25.756010586,
			"0.002": 6.24081674438,
			"0.003": 4.13030329499,
			"0.004": 2.88565317679,
			"0.005": 3.08523723195,
			"0.006": 2.84344057708,
			"0.007": 2.56705041566,
			"0.008": 2.77704930426,
			"0.009": 2.1776732104,
			"0.01": 2.41833094606,
			"0.011": 1.72045533662,
			"0.012": 1.28796634187,
			"0.013": 2.36797365974,
			"0.014": 4.72657772109,
			"0.015": 2.85863133662,
			"0.016": 0.0665871920243,
			"0.017": 0.0,
			"0.018": 0.0,
			"0.019": 0.0,
			"0.02": 0.0,
			"0.021": 0.0,
			"0.022": 0.0,
			"0.023": 0.0,
			"0.024": 0.0,
			"0.025": 0.0
		}
	}
}
