{
	 "smiles": "SC1=NN=C(N1C1=CC=CC=C1)C1=CC=CC=C1", 
	 "Tm": 566.15, 
	 "num_atms": 29, 
	 "gaussian": { 
		 "optdone": 1, 
		 "sigma_profile": "yes", 
		 "theory": "DFT", 
		 "functional": "B3LYP", 
		 "basiset": "6-31G**", 
		 "properties": { 
			 "R2extent": 5138.3746, 
			 "electric_dipole_moment_norm": 6.82304909333, 
			 "electric_quadrupole_moment_norm": 15.9692289329, 
			 "total_energy": -1102.53325349, 
			 "HOMO_LUMO_gap": 0.18324, 
			 "cosmo_polarized_energy": -17.12, 
			 "cosmo_cavitation_energy": 35.18, 
			 "cosmo_dispersion_energy": -24.78, 
			 "cosmo_repulsion_energy": 1.88, 
			 "cosmo_total_nonelectrostatic_energy": 12.27, 
			 "SMD_solvation_energy": 3.53 
		},
		"coords": [
			{
				"x": 3.2420385479,
				"y": 0.079977438,
				"z": 2.3138968748,
				"element": "S" 
			},
			{
				"x": 2.2358896561,
				"y": 0.3176013595,
				"z": 0.881701759,
				"element": "C" 
			},
			{
				"x": 2.7236489817,
				"y": 0.462224404,
				"z": -0.3265397342,
				"element": "N" 
			},
			{
				"x": 1.6613656539,
				"y": 0.5307224856,
				"z": -1.1920855533,
				"element": "N" 
			},
			{
				"x": 0.5446144331,
				"y": 0.4440046825,
				"z": -0.495347586,
				"element": "C" 
			},
			{
				"x": 0.8505521891,
				"y": 0.2856627867,
				"z": 0.8497402318,
				"element": "N" 
			},
			{
				"x": -0.0230951716,
				"y": 0.2576322403,
				"z": 1.9848447906,
				"element": "C" 
			},
			{
				"x": -0.1682223401,
				"y": -0.9241123366,
				"z": 2.7178975214,
				"element": "C" 
			},
			{
				"x": -1.0109353714,
				"y": -0.9420449045,
				"z": 3.8296076334,
				"element": "C" 
			},
			{
				"x": -1.7065715812,
				"y": 0.2102090534,
				"z": 4.203298186,
				"element": "C" 
			},
			{
				"x": -1.5557806049,
				"y": 1.3869998733,
				"z": 3.4666260478,
				"element": "C" 
			},
			{
				"x": -0.7094764714,
				"y": 1.4169633034,
				"z": 2.3579111829,
				"element": "C" 
			},
			{
				"x": -0.7944432309,
				"y": 0.5182011485,
				"z": -1.099068695,
				"element": "C" 
			},
			{
				"x": -0.922899461,
				"y": 1.2136850733,
				"z": -2.3148748822,
				"element": "C" 
			},
			{
				"x": -2.1554749843,
				"y": 1.2899997978,
				"z": -2.9567383276,
				"element": "C" 
			},
			{
				"x": -3.2798608821,
				"y": 0.6767992912,
				"z": -2.3977496115,
				"element": "C" 
			},
			{
				"x": -3.1586602767,
				"y": -0.022710714,
				"z": -1.1964591148,
				"element": "C" 
			},
			{
				"x": -1.925706597,
				"y": -0.1068804547,
				"z": -0.5497640933,
				"element": "C" 
			},
			{
				"x": 2.562186542,
				"y": 0.9195695247,
				"z": 3.1228170037,
				"element": "H" 
			},
			{
				"x": 0.3763514051,
				"y": -1.8117718888,
				"z": 2.4141932999,
				"element": "H" 
			},
			{
				"x": -1.1250727368,
				"y": -1.8579780265,
				"z": 4.4012142403,
				"element": "H" 
			},
			{
				"x": -2.3640398135,
				"y": 0.1910544796,
				"z": 5.0671991476,
				"element": "H" 
			},
			{
				"x": -2.0940182728,
				"y": 2.2846350523,
				"z": 3.7551664313,
				"element": "H" 
			},
			{
				"x": -0.581427468,
				"y": 2.3247873951,
				"z": 1.7773505961,
				"element": "H" 
			},
			{
				"x": -0.0422216845,
				"y": 1.6808820496,
				"z": -2.741456641,
				"element": "H" 
			},
			{
				"x": -2.2396707474,
				"y": 1.8322817333,
				"z": -3.8940138845,
				"element": "H" 
			},
			{
				"x": -4.2420889078,
				"y": 0.7401229543,
				"z": -2.8975789024,
				"element": "H" 
			},
			{
				"x": -4.0245734898,
				"y": -0.5136623761,
				"z": -0.7618377879,
				"element": "H" 
			},
			{
				"x": -1.8460073156,
				"y": -0.672955425,
				"z": 0.3708498669,
				"element": "H" 
			}
		],
		 "valence_orbital": [ 
			{
				"type": "occ",
				"energy": -0.27826,
				"method": "rhf"
			},
			{
				"type": "occ",
				"energy": -0.26175,
				"method": "rhf"
			},
			{
				"type": "occ",
				"energy": -0.25565,
				"method": "rhf"
			},
			{
				"type": "occ",
				"energy": -0.24825,
				"method": "rhf"
			},
			{
				"type": "occ",
				"energy": -0.22394,
				"method": "rhf"
			},
			{
				"type": "unocc",
				"energy": -0.0407,
				"method": "rhf"
			},
			{
				"type": "unocc",
				"energy": -0.03101,
				"method": "rhf"
			},
			{
				"type": "unocc",
				"energy": -0.02917,
				"method": "rhf"
			},
			{
				"type": "unocc",
				"energy": -0.00541,
				"method": "rhf"
			},
			{
				"type": "unocc",
				"energy": 0.01083,
				"method": "rhf"
			}
		],
		"cosmo_sigma_profile": { 
			"-0.025": 0.0,
			"-0.024": 0.0,
			"-0.023": 0.0,
			"-0.022": 0.0,
			"-0.021": 0.0,
			"-0.02": 0.0,
			"-0.019": 0.0,
			"-0.018": 0.0,
			"-0.017": 0.0,
			"-0.016": 0.0,
			"-0.015": 0.0,
			"-0.014": 0.0,
			"-0.013": 0.0,
			"-0.012": 0.346124276936,
			"-0.011": 1.52061984786,
			"-0.01": 1.7363993603,
			"-0.009": 2.0571928288,
			"-0.008": 1.74313390735,
			"-0.007": 8.16185383874,
			"-0.006": 21.2659644865,
			"-0.005": 25.5222938976,
			"-0.004": 25.5655370465,
			"-0.003": 17.4310356681,
			"-0.002": 17.4654921459,
			"-0.001": 18.3280569593,
			"0.0": 18.4361777445,
			"0.001": 18.7205676062,
			"0.002": 22.2997280503,
			"0.003": 23.1505157399,
			"0.004": 20.677569501,
			"0.005": 10.0479492291,
			"0.006": 4.26762435025,
			"0.007": 4.28443905218,
			"0.008": 2.89873549491,
			"0.009": 2.30077305996,
			"0.01": 1.88921459751,
			"0.011": 2.77329609094,
			"0.012": 2.76047730655,
			"0.013": 4.04058553859,
			"0.014": 2.18387229269,
			"0.015": 2.70229875334,
			"0.016": 1.16910347973,
			"0.017": 0.0310464683672,
			"0.018": 0.0,
			"0.019": 0.0,
			"0.02": 0.0,
			"0.021": 0.0,
			"0.022": 0.0,
			"0.023": 0.0,
			"0.024": 0.0,
			"0.025": 0.0
		}
	}
}
