{
	 "smiles": "OC1=NC(S)=NC(=C1)C(F)(F)F", 
	 "Tm": 524.15, 
	 "num_atms": 15, 
	 "gaussian": { 
		 "optdone": 1, 
		 "sigma_profile": "yes", 
		 "theory": "DFT", 
		 "functional": "B3LYP", 
		 "basiset": "6-31G**", 
		 "properties": { 
			 "R2extent": 2464.5089, 
			 "electric_dipole_moment_norm": 1.93536849463, 
			 "electric_quadrupole_moment_norm": 5.08918122393, 
			 "total_energy": -1074.78058712, 
			 "HOMO_LUMO_gap": 0.19486, 
			 "cosmo_polarized_energy": -8.7, 
			 "cosmo_cavitation_energy": 23.62, 
			 "cosmo_dispersion_energy": -17.64, 
			 "cosmo_repulsion_energy": 1.33, 
			 "cosmo_total_nonelectrostatic_energy": 7.31, 
			 "SMD_solvation_energy": 2.79 
		},
		"coords": [
			{
				"x": 2.1744094355,
				"y": -0.9114611493,
				"z": 2.387021583,
				"element": "O" 
			},
			{
				"x": 1.2553026371,
				"y": -0.497970983,
				"z": 1.5060427525,
				"element": "C" 
			},
			{
				"x": 0.4802461943,
				"y": 0.5258696423,
				"z": 1.8466864568,
				"element": "N" 
			},
			{
				"x": -0.4284160976,
				"y": 0.9109258147,
				"z": 0.9377884948,
				"element": "C" 
			},
			{
				"x": -1.437131353,
				"y": 2.2802079705,
				"z": 1.4399959761,
				"element": "S" 
			},
			{
				"x": -0.6300160134,
				"y": 0.3730365059,
				"z": -0.2638131012,
				"element": "N" 
			},
			{
				"x": 0.1716602011,
				"y": -0.6581783119,
				"z": -0.5715806803,
				"element": "C" 
			},
			{
				"x": 1.1487743084,
				"y": -1.1575373949,
				"z": 0.268685634,
				"element": "C" 
			},
			{
				"x": -0.0683493712,
				"y": -1.2626465929,
				"z": -1.9439767785,
				"element": "C" 
			},
			{
				"x": 0.1166926802,
				"y": -0.3474128114,
				"z": -2.9107238402,
				"element": "F" 
			},
			{
				"x": 0.7749988833,
				"y": -2.290119293,
				"z": -2.1803561825,
				"element": "F" 
			},
			{
				"x": -1.3246990555,
				"y": -1.7285103743,
				"z": -2.0501397771,
				"element": "F" 
			},
			{
				"x": 2.0931098287,
				"y": -0.3394585027,
				"z": 3.1683169699,
				"element": "H" 
			},
			{
				"x": -2.1492826015,
				"y": 2.3139125813,
				"z": 0.2976666299,
				"element": "H" 
			},
			{
				"x": 1.7875003236,
				"y": -1.9890571014,
				"z": 0.0072858626,
				"element": "H" 
			}
		],
		 "valence_orbital": [ 
			{
				"type": "occ",
				"energy": -0.33671,
				"method": "rhf"
			},
			{
				"type": "occ",
				"energy": -0.33005,
				"method": "rhf"
			},
			{
				"type": "occ",
				"energy": -0.29838,
				"method": "rhf"
			},
			{
				"type": "occ",
				"energy": -0.2871,
				"method": "rhf"
			},
			{
				"type": "occ",
				"energy": -0.25527,
				"method": "rhf"
			},
			{
				"type": "unocc",
				"energy": -0.06041,
				"method": "rhf"
			},
			{
				"type": "unocc",
				"energy": -0.03722,
				"method": "rhf"
			},
			{
				"type": "unocc",
				"energy": 0.00975,
				"method": "rhf"
			},
			{
				"type": "unocc",
				"energy": 0.06463,
				"method": "rhf"
			},
			{
				"type": "unocc",
				"energy": 0.07387,
				"method": "rhf"
			}
		],
		"cosmo_sigma_profile": { 
			"-0.025": 0.0,
			"-0.024": 0.0,
			"-0.023": 0.0,
			"-0.022": 0.0,
			"-0.021": 0.0,
			"-0.02": 0.0,
			"-0.019": 0.245134342721,
			"-0.018": 0.89170552612,
			"-0.017": 0.961727379429,
			"-0.016": 0.494414741424,
			"-0.015": 0.939764491246,
			"-0.014": 0.516210571178,
			"-0.013": 0.731796052776,
			"-0.012": 1.25111246686,
			"-0.011": 2.57000048684,
			"-0.01": 1.45369793075,
			"-0.009": 3.04387054352,
			"-0.008": 3.0759663541,
			"-0.007": 3.22944955977,
			"-0.006": 3.37877362285,
			"-0.005": 6.07856621054,
			"-0.004": 8.87352532078,
			"-0.003": 12.1622529038,
			"-0.002": 12.4548661657,
			"-0.001": 12.5012527251,
			"0.0": 11.6736045813,
			"0.001": 14.5631503668,
			"0.002": 33.3708803537,
			"0.003": 21.2826812163,
			"0.004": 10.0807635355,
			"0.005": 7.34575130706,
			"0.006": 8.02748912017,
			"0.007": 4.39353553496,
			"0.008": 3.18393640865,
			"0.009": 3.15071081038,
			"0.01": 0.947044937646,
			"0.011": 0.0,
			"0.012": 0.0,
			"0.013": 0.0,
			"0.014": 0.0,
			"0.015": 0.0,
			"0.016": 0.0,
			"0.017": 0.0,
			"0.018": 0.0,
			"0.019": 0.0,
			"0.02": 0.0,
			"0.021": 0.0,
			"0.022": 0.0,
			"0.023": 0.0,
			"0.024": 0.0,
			"0.025": 0.0
		}
	}
}
