{
	 "smiles": "CC(C)(C)OC1=CC=C(O)C=C1", 
	 "Tm": 425.15, 
	 "num_atms": 26, 
	 "gaussian": { 
		 "optdone": 1, 
		 "sigma_profile": "yes", 
		 "theory": "DFT", 
		 "functional": "B3LYP", 
		 "basiset": "6-31G**", 
		 "properties": { 
			 "R2extent": 2609.8926, 
			 "electric_dipole_moment_norm": 1.81166471512, 
			 "electric_quadrupole_moment_norm": 11.1471265809, 
			 "total_energy": -539.947636776, 
			 "HOMO_LUMO_gap": 0.20737, 
			 "cosmo_polarized_energy": -9.75, 
			 "cosmo_cavitation_energy": 28.21, 
			 "cosmo_dispersion_energy": -20.09, 
			 "cosmo_repulsion_energy": 1.6, 
			 "cosmo_total_nonelectrostatic_energy": 9.71, 
			 "SMD_solvation_energy": 5.32 
		},
		"coords": [
			{
				"x": -0.2937035664,
				"y": -1.9686937416,
				"z": 1.5949805963,
				"element": "C" 
			},
			{
				"x": -1.1823159863,
				"y": -1.9360850194,
				"z": 0.3451751658,
				"element": "C" 
			},
			{
				"x": -2.5865884952,
				"y": -2.453545465,
				"z": 0.6653453137,
				"element": "C" 
			},
			{
				"x": -0.5511741721,
				"y": -2.7475742287,
				"z": -0.7932295254,
				"element": "C" 
			},
			{
				"x": -1.4301507369,
				"y": -0.5594920629,
				"z": -0.0780196178,
				"element": "O" 
			},
			{
				"x": -0.3776842358,
				"y": 0.2488838564,
				"z": -0.4547318292,
				"element": "C" 
			},
			{
				"x": 0.252930219,
				"y": 1.0771683768,
				"z": 0.4837050895,
				"element": "C" 
			},
			{
				"x": 1.2555814819,
				"y": 1.9607212755,
				"z": 0.0935661892,
				"element": "C" 
			},
			{
				"x": 1.6391346591,
				"y": 2.033598286,
				"z": -1.2500383158,
				"element": "C" 
			},
			{
				"x": 2.6306408007,
				"y": 2.9190174191,
				"z": -1.5775891307,
				"element": "O" 
			},
			{
				"x": 1.0030184141,
				"y": 1.2236055164,
				"z": -2.1957522411,
				"element": "C" 
			},
			{
				"x": -0.0011205083,
				"y": 0.3396272285,
				"z": -1.7984295357,
				"element": "C" 
			},
			{
				"x": -0.7449252553,
				"y": -1.3851446157,
				"z": 2.403305104,
				"element": "H" 
			},
			{
				"x": 0.7011672537,
				"y": -1.5640344806,
				"z": 1.3889655187,
				"element": "H" 
			},
			{
				"x": -0.1720073851,
				"y": -2.9991407518,
				"z": 1.9443801875,
				"element": "H" 
			},
			{
				"x": -3.2238146358,
				"y": -2.3951894781,
				"z": -0.2216802323,
				"element": "H" 
			},
			{
				"x": -3.0430205843,
				"y": -1.8486712236,
				"z": 1.4540302591,
				"element": "H" 
			},
			{
				"x": -2.5480220096,
				"y": -3.4944827864,
				"z": 1.0007022743,
				"element": "H" 
			},
			{
				"x": -1.1859938381,
				"y": -2.7185840735,
				"z": -1.6841891719,
				"element": "H" 
			},
			{
				"x": -0.4337445224,
				"y": -3.7933649198,
				"z": -0.4912318747,
				"element": "H" 
			},
			{
				"x": 0.4369589676,
				"y": -2.3614604104,
				"z": -1.0587728889,
				"element": "H" 
			},
			{
				"x": -0.0634425076,
				"y": 1.0334093703,
				"z": 1.520480345,
				"element": "H" 
			},
			{
				"x": 1.7457571735,
				"y": 2.6068703867,
				"z": 0.8144316517,
				"element": "H" 
			},
			{
				"x": 2.7866039823,
				"y": 2.8782104468,
				"z": -2.5297217674,
				"element": "H" 
			},
			{
				"x": 1.2848736135,
				"y": 1.2869164153,
				"z": -3.2450688186,
				"element": "H" 
			},
			{
				"x": -0.5115581261,
				"y": -0.2740653203,
				"z": -2.5330127455,
				"element": "H" 
			}
		],
		 "valence_orbital": [ 
			{
				"type": "occ",
				"energy": -0.3324,
				"method": "rhf"
			},
			{
				"type": "occ",
				"energy": -0.30241,
				"method": "rhf"
			},
			{
				"type": "occ",
				"energy": -0.26025,
				"method": "rhf"
			},
			{
				"type": "occ",
				"energy": -0.24934,
				"method": "rhf"
			},
			{
				"type": "occ",
				"energy": -0.20846,
				"method": "rhf"
			},
			{
				"type": "unocc",
				"energy": -0.00109,
				"method": "rhf"
			},
			{
				"type": "unocc",
				"energy": 0.01969,
				"method": "rhf"
			},
			{
				"type": "unocc",
				"energy": 0.07204,
				"method": "rhf"
			},
			{
				"type": "unocc",
				"energy": 0.08486,
				"method": "rhf"
			},
			{
				"type": "unocc",
				"energy": 0.09434,
				"method": "rhf"
			}
		],
		"cosmo_sigma_profile": { 
			"-0.025": 0.0,
			"-0.024": 0.0,
			"-0.023": 0.0,
			"-0.022": 0.0,
			"-0.021": 0.0,
			"-0.02": 0.0,
			"-0.019": 0.0,
			"-0.018": 0.227162703912,
			"-0.017": 0.959459101394,
			"-0.016": 1.08936295073,
			"-0.015": 1.32645423655,
			"-0.014": 0.93717331559,
			"-0.013": 0.955278616747,
			"-0.012": 0.779453996946,
			"-0.011": 0.356997796413,
			"-0.01": 1.58970308496,
			"-0.009": 1.39214938424,
			"-0.008": 1.0185714919,
			"-0.007": 1.28614610202,
			"-0.006": 3.85672230968,
			"-0.005": 6.63278732297,
			"-0.004": 12.7389235852,
			"-0.003": 23.6765617695,
			"-0.002": 23.8973561947,
			"-0.001": 22.5798138857,
			"0.0": 26.2074767196,
			"0.001": 21.3625240108,
			"0.002": 9.70401285195,
			"0.003": 8.5301690321,
			"0.004": 12.1523605054,
			"0.005": 13.9200828939,
			"0.006": 6.22483507099,
			"0.007": 2.97165114234,
			"0.008": 2.87551068885,
			"0.009": 2.28517816433,
			"0.01": 2.44953237203,
			"0.011": 3.52991010329,
			"0.012": 2.63954640285,
			"0.013": 0.532055130428,
			"0.014": 0.0,
			"0.015": 0.0,
			"0.016": 0.0,
			"0.017": 0.0,
			"0.018": 0.0,
			"0.019": 0.0,
			"0.02": 0.0,
			"0.021": 0.0,
			"0.022": 0.0,
			"0.023": 0.0,
			"0.024": 0.0,
			"0.025": 0.0
		}
	}
}
