{
	 "smiles": "CC(N=NC1=CC(Cl)=CC(Cl)=C1O)=C(N1CCOCC1)C(=O)N1CCOCC1", 
	 "Tm": 349.65, 
	 "num_atms": 50, 
	 "gaussian": { 
		 "optdone": 1, 
		 "sigma_profile": "yes", 
		 "theory": "DFT", 
		 "functional": "B3LYP", 
		 "basiset": "6-31G**", 
		 "properties": { 
			 "R2extent": 17260.5753, 
			 "electric_dipole_moment_norm": 7.54778457695, 
			 "electric_quadrupole_moment_norm": 19.399539894, 
			 "total_energy": -2139.36793806, 
			 "HOMO_LUMO_gap": 0.11876, 
			 "cosmo_polarized_energy": -23.36, 
			 "cosmo_cavitation_energy": 55.18, 
			 "cosmo_dispersion_energy": -36.65, 
			 "cosmo_repulsion_energy": 2.8, 
			 "cosmo_total_nonelectrostatic_energy": 21.33, 
			 "SMD_solvation_energy": 7.08 
		},
		"coords": [
			{
				"x": -1.5015805135,
				"y": 0.9374230326,
				"z": -2.7201887134,
				"element": "C" 
			},
			{
				"x": -0.4093716841,
				"y": 0.5994839982,
				"z": -1.7376684171,
				"element": "C" 
			},
			{
				"x": 0.3445286792,
				"y": -0.5422568063,
				"z": -1.8946570248,
				"element": "N" 
			},
			{
				"x": 0.1339272558,
				"y": -1.2209196152,
				"z": -2.9549685694,
				"element": "N" 
			},
			{
				"x": 0.9055411575,
				"y": -2.3867952816,
				"z": -3.08830988,
				"element": "C" 
			},
			{
				"x": 1.9197590924,
				"y": -2.8159148302,
				"z": -2.2206962214,
				"element": "C" 
			},
			{
				"x": 2.5867618823,
				"y": -3.9997145431,
				"z": -2.5000943087,
				"element": "C" 
			},
			{
				"x": 3.8630314401,
				"y": -4.5548197385,
				"z": -1.4212311195,
				"element": "Cl" 
			},
			{
				"x": 2.2743207366,
				"y": -4.7689817333,
				"z": -3.6251080979,
				"element": "C" 
			},
			{
				"x": 1.2721196504,
				"y": -4.3327696695,
				"z": -4.4889058711,
				"element": "C" 
			},
			{
				"x": 0.8720647526,
				"y": -5.2787025902,
				"z": -5.9038337324,
				"element": "Cl" 
			},
			{
				"x": 0.577415054,
				"y": -3.1416800966,
				"z": -4.2406862459,
				"element": "C" 
			},
			{
				"x": -0.3893458616,
				"y": -2.7139822212,
				"z": -5.0748730042,
				"element": "O" 
			},
			{
				"x": -0.0789648846,
				"y": 1.2964778654,
				"z": -0.5838783508,
				"element": "C" 
			},
			{
				"x": -0.5140064386,
				"y": 2.5390789333,
				"z": -0.2287430359,
				"element": "N" 
			},
			{
				"x": -0.8963943651,
				"y": 3.5669098295,
				"z": -1.2154404744,
				"element": "C" 
			},
			{
				"x": -0.3442726039,
				"y": 4.925467085,
				"z": -0.7862600358,
				"element": "C" 
			},
			{
				"x": -0.8603464199,
				"y": 5.3527217275,
				"z": 0.4685219746,
				"element": "O" 
			},
			{
				"x": -1.1013254519,
				"y": 4.2902558478,
				"z": 1.3865554134,
				"element": "C" 
			},
			{
				"x": -0.2317300607,
				"y": 3.0668424952,
				"z": 1.1203709646,
				"element": "C" 
			},
			{
				"x": 0.9978783807,
				"y": 0.7181917084,
				"z": 0.3382703509,
				"element": "C" 
			},
			{
				"x": 2.1092061771,
				"y": 1.2419133394,
				"z": 0.3237673743,
				"element": "O" 
			},
			{
				"x": 0.6678418963,
				"y": -0.2768169668,
				"z": 1.2067330305,
				"element": "N" 
			},
			{
				"x": -0.6124592929,
				"y": -0.99223211,
				"z": 1.2583043938,
				"element": "C" 
			},
			{
				"x": -0.3533396814,
				"y": -2.4693373406,
				"z": 1.5456165565,
				"element": "C" 
			},
			{
				"x": 0.3203878832,
				"y": -2.6817122206,
				"z": 2.7842530055,
				"element": "O" 
			},
			{
				"x": 1.1247184278,
				"y": -1.5901937344,
				"z": 3.2201029001,
				"element": "C" 
			},
			{
				"x": 1.7379034592,
				"y": -0.7993891523,
				"z": 2.0710254272,
				"element": "C" 
			},
			{
				"x": -2.0385528873,
				"y": 0.0182971594,
				"z": -2.9740589099,
				"element": "H" 
			},
			{
				"x": -1.1108441279,
				"y": 1.3344863518,
				"z": -3.6649242948,
				"element": "H" 
			},
			{
				"x": -2.220076257,
				"y": 1.6470655232,
				"z": -2.311433605,
				"element": "H" 
			},
			{
				"x": 2.171016514,
				"y": -2.2088078434,
				"z": -1.3604105618,
				"element": "H" 
			},
			{
				"x": 2.8037762979,
				"y": -5.6908766169,
				"z": -3.8310842155,
				"element": "H" 
			},
			{
				"x": -0.6929203511,
				"y": -1.8682080904,
				"z": -4.687907032,
				"element": "H" 
			},
			{
				"x": -1.9867405139,
				"y": 3.6354433534,
				"z": -1.3172574901,
				"element": "H" 
			},
			{
				"x": -0.4781737215,
				"y": 3.2994878401,
				"z": -2.1877861501,
				"element": "H" 
			},
			{
				"x": -0.6319733601,
				"y": 5.6831918426,
				"z": -1.5217942769,
				"element": "H" 
			},
			{
				"x": 0.7548122921,
				"y": 4.8811742082,
				"z": -0.7602008853,
				"element": "H" 
			},
			{
				"x": -2.1627431759,
				"y": 3.9994791405,
				"z": 1.3550960425,
				"element": "H" 
			},
			{
				"x": -0.8903473154,
				"y": 4.6731105623,
				"z": 2.3904520336,
				"element": "H" 
			},
			{
				"x": -0.4606658213,
				"y": 2.2974366367,
				"z": 1.8634087283,
				"element": "H" 
			},
			{
				"x": 0.8308131788,
				"y": 3.3181380505,
				"z": 1.220125808,
				"element": "H" 
			},
			{
				"x": -1.2576734886,
				"y": -0.572844865,
				"z": 2.043314603,
				"element": "H" 
			},
			{
				"x": -1.1298303899,
				"y": -0.8890000242,
				"z": 0.3052572308,
				"element": "H" 
			},
			{
				"x": 0.2294183383,
				"y": -2.8981847409,
				"z": 0.7173882551,
				"element": "H" 
			},
			{
				"x": -1.3056296921,
				"y": -3.007288589,
				"z": 1.6019075432,
				"element": "H" 
			},
			{
				"x": 0.53407851,
				"y": -0.9122014618,
				"z": 3.8572325168,
				"element": "H" 
			},
			{
				"x": 1.9211734732,
				"y": -2.0128993915,
				"z": 3.8400281308,
				"element": "H" 
			},
			{
				"x": 2.3291684294,
				"y": 0.0398511769,
				"z": 2.4470239088,
				"element": "H" 
			},
			{
				"x": 2.4157454014,
				"y": -1.4351974343,
				"z": 1.4868443319,
				"element": "H" 
			}
		],
		 "valence_orbital": [ 
			{
				"type": "occ",
				"energy": -0.26043,
				"method": "rhf"
			},
			{
				"type": "occ",
				"energy": -0.25403,
				"method": "rhf"
			},
			{
				"type": "occ",
				"energy": -0.23652,
				"method": "rhf"
			},
			{
				"type": "occ",
				"energy": -0.22667,
				"method": "rhf"
			},
			{
				"type": "occ",
				"energy": -0.20076,
				"method": "rhf"
			},
			{
				"type": "unocc",
				"energy": -0.082,
				"method": "rhf"
			},
			{
				"type": "unocc",
				"energy": -0.01028,
				"method": "rhf"
			},
			{
				"type": "unocc",
				"energy": 0.00111,
				"method": "rhf"
			},
			{
				"type": "unocc",
				"energy": 0.01644,
				"method": "rhf"
			},
			{
				"type": "unocc",
				"energy": 0.01673,
				"method": "rhf"
			}
		],
		"cosmo_sigma_profile": { 
			"-0.025": 0.0,
			"-0.024": 0.0,
			"-0.023": 0.0,
			"-0.022": 0.0,
			"-0.021": 0.0,
			"-0.02": 0.0,
			"-0.019": 0.0,
			"-0.018": 0.0,
			"-0.017": 0.0,
			"-0.016": 0.0,
			"-0.015": 0.0,
			"-0.014": 0.0,
			"-0.013": 0.0,
			"-0.012": 0.0,
			"-0.011": 0.135645593582,
			"-0.01": 0.869655422483,
			"-0.009": 0.759609943374,
			"-0.008": 1.57881591982,
			"-0.007": 6.85895639053,
			"-0.006": 27.021584536,
			"-0.005": 48.7740250103,
			"-0.004": 47.1272530807,
			"-0.003": 35.1868189859,
			"-0.002": 33.0272610039,
			"-0.001": 26.2463937541,
			"0.0": 26.7186294536,
			"0.001": 32.4928413462,
			"0.002": 33.5017859984,
			"0.003": 26.0265022608,
			"0.004": 24.2272619793,
			"0.005": 18.0292716158,
			"0.006": 5.80382523997,
			"0.007": 7.05299090841,
			"0.008": 6.37821432748,
			"0.009": 5.39329054965,
			"0.01": 5.96508088595,
			"0.011": 5.77711185736,
			"0.012": 4.63535586143,
			"0.013": 8.22345274941,
			"0.014": 1.98484960626,
			"0.015": 0.05113333141,
			"0.016": 0.0,
			"0.017": 0.0,
			"0.018": 0.0,
			"0.019": 0.0,
			"0.02": 0.0,
			"0.021": 0.0,
			"0.022": 0.0,
			"0.023": 0.0,
			"0.024": 0.0,
			"0.025": 0.0
		}
	}
}
