{
	 "smiles": "COC1=C(C=C(C=C1)[N+]([O-])=O)S(Cl)(=O)=O", 
	 "Tm": 359.15, 
	 "num_atms": 21, 
	 "gaussian": { 
		 "optdone": 1, 
		 "sigma_profile": "yes", 
		 "theory": "DFT", 
		 "functional": "B3LYP", 
		 "basiset": "6-31G**", 
		 "properties": { 
			 "R2extent": 4340.5534, 
			 "electric_dipole_moment_norm": 7.12724772826, 
			 "electric_quadrupole_moment_norm": 13.4533988204, 
			 "total_energy": -1559.42157778, 
			 "HOMO_LUMO_gap": 0.17605, 
			 "cosmo_polarized_energy": -16.24, 
			 "cosmo_cavitation_energy": 29.91, 
			 "cosmo_dispersion_energy": -21.93, 
			 "cosmo_repulsion_energy": 1.68, 
			 "cosmo_total_nonelectrostatic_energy": 9.66, 
			 "SMD_solvation_energy": 7.05 
		},
		"coords": [
			{
				"x": 2.6755089421,
				"y": -0.266538666,
				"z": -1.3339884864,
				"element": "C" 
			},
			{
				"x": 1.6588144773,
				"y": 0.4794704396,
				"z": -0.6614909921,
				"element": "O" 
			},
			{
				"x": 0.6582677167,
				"y": -0.1645525358,
				"z": -0.0504878797,
				"element": "C" 
			},
			{
				"x": -0.3173570388,
				"y": 0.6308979625,
				"z": 0.5995880508,
				"element": "C" 
			},
			{
				"x": -1.4099767137,
				"y": 0.0633210932,
				"z": 1.2413680634,
				"element": "C" 
			},
			{
				"x": -1.5275616768,
				"y": -1.3234989068,
				"z": 1.2458483991,
				"element": "C" 
			},
			{
				"x": -0.583110833,
				"y": -2.1367266056,
				"z": 0.6229033647,
				"element": "C" 
			},
			{
				"x": 0.5037765748,
				"y": -1.5615535311,
				"z": -0.0240805002,
				"element": "C" 
			},
			{
				"x": -2.6731503618,
				"y": -1.9397903102,
				"z": 1.9234974616,
				"element": "N" 
			},
			{
				"x": -3.4838984833,
				"y": -1.1903186739,
				"z": 2.4640741091,
				"element": "O" 
			},
			{
				"x": -2.7464069233,
				"y": -3.1682883591,
				"z": 1.9052281889,
				"element": "O" 
			},
			{
				"x": -0.1649851457,
				"y": 2.415574371,
				"z": 0.6811119079,
				"element": "S" 
			},
			{
				"x": -0.4581814915,
				"y": 2.9559840363,
				"z": -1.3528585784,
				"element": "Cl" 
			},
			{
				"x": 1.1942821989,
				"y": 2.7980514027,
				"z": 1.0314794348,
				"element": "O" 
			},
			{
				"x": -1.318644521,
				"y": 2.9294980351,
				"z": 1.4080754589,
				"element": "O" 
			},
			{
				"x": 3.2084207111,
				"y": -0.920863396,
				"z": -0.6359750118,
				"element": "H" 
			},
			{
				"x": 3.3618706099,
				"y": 0.4782835069,
				"z": -1.7343270328,
				"element": "H" 
			},
			{
				"x": 2.2527487241,
				"y": -0.857197161,
				"z": -2.1537639597,
				"element": "H" 
			},
			{
				"x": -2.1529252428,
				"y": 0.681436945,
				"z": 1.7294787299,
				"element": "H" 
			},
			{
				"x": -0.7137049485,
				"y": -3.2115592621,
				"z": 0.6505259407,
				"element": "H" 
			},
			{
				"x": 1.2315134252,
				"y": -2.1985303846,
				"z": -0.5103066686,
				"element": "H" 
			}
		],
		 "valence_orbital": [ 
			{
				"type": "occ",
				"energy": -0.32045,
				"method": "rhf"
			},
			{
				"type": "occ",
				"energy": -0.31814,
				"method": "rhf"
			},
			{
				"type": "occ",
				"energy": -0.30967,
				"method": "rhf"
			},
			{
				"type": "occ",
				"energy": -0.30475,
				"method": "rhf"
			},
			{
				"type": "occ",
				"energy": -0.2798,
				"method": "rhf"
			},
			{
				"type": "unocc",
				"energy": -0.10375,
				"method": "rhf"
			},
			{
				"type": "unocc",
				"energy": -0.09383,
				"method": "rhf"
			},
			{
				"type": "unocc",
				"energy": -0.06189,
				"method": "rhf"
			},
			{
				"type": "unocc",
				"energy": -0.01974,
				"method": "rhf"
			},
			{
				"type": "unocc",
				"energy": 0.03394,
				"method": "rhf"
			}
		],
		"cosmo_sigma_profile": { 
			"-0.025": 0.0,
			"-0.024": 0.0,
			"-0.023": 0.0,
			"-0.022": 0.0,
			"-0.021": 0.0,
			"-0.02": 0.0,
			"-0.019": 0.0,
			"-0.018": 0.0,
			"-0.017": 0.0,
			"-0.016": 0.0,
			"-0.015": 0.0,
			"-0.014": 0.0,
			"-0.013": 0.0,
			"-0.012": 0.0,
			"-0.011": 0.0,
			"-0.01": 0.837174377981,
			"-0.009": 5.2406262792,
			"-0.008": 6.96840504159,
			"-0.007": 14.1801272675,
			"-0.006": 13.9432821668,
			"-0.005": 16.3063421744,
			"-0.004": 16.2597025176,
			"-0.003": 20.4509979668,
			"-0.002": 17.8930429707,
			"-0.001": 12.7552466371,
			"0.0": 11.5660495073,
			"0.001": 8.75509727359,
			"0.002": 12.4263568504,
			"0.003": 16.367129841,
			"0.004": 9.87096464101,
			"0.005": 8.21161217121,
			"0.006": 8.0660380648,
			"0.007": 15.9501399905,
			"0.008": 16.934296303,
			"0.009": 8.33625408687,
			"0.01": 1.6907185398,
			"0.011": 0.0,
			"0.012": 0.0,
			"0.013": 0.0,
			"0.014": 0.0,
			"0.015": 0.0,
			"0.016": 0.0,
			"0.017": 0.0,
			"0.018": 0.0,
			"0.019": 0.0,
			"0.02": 0.0,
			"0.021": 0.0,
			"0.022": 0.0,
			"0.023": 0.0,
			"0.024": 0.0,
			"0.025": 0.0
		}
	}
}
