{
	 "smiles": "COC(=O)C1=CC(C=O)=CN1", 
	 "Tm": 398.15, 
	 "num_atms": 18, 
	 "gaussian": { 
		 "optdone": 1, 
		 "sigma_profile": "yes", 
		 "theory": "DFT", 
		 "functional": "B3LYP", 
		 "basiset": "6-31G**", 
		 "properties": { 
			 "R2extent": 3686.1712, 
			 "electric_dipole_moment_norm": 3.26894380802, 
			 "electric_quadrupole_moment_norm": 30.4876630157, 
			 "total_energy": -551.382674776, 
			 "HOMO_LUMO_gap": 0.20173, 
			 "cosmo_polarized_energy": -14.63, 
			 "cosmo_cavitation_energy": 23.76, 
			 "cosmo_dispersion_energy": -17.22, 
			 "cosmo_repulsion_energy": 1.4, 
			 "cosmo_total_nonelectrostatic_energy": 7.94, 
			 "SMD_solvation_energy": 7.05 
		},
		"coords": [
			{
				"x": -0.7369782641,
				"y": -4.7778090521,
				"z": 0.0506597299,
				"element": "C" 
			},
			{
				"x": -0.691737865,
				"y": -3.6584375082,
				"z": -0.8496898769,
				"element": "O" 
			},
			{
				"x": -0.0656476383,
				"y": -2.5653356499,
				"z": -0.3753118291,
				"element": "C" 
			},
			{
				"x": 0.4406965776,
				"y": -2.4863902315,
				"z": 0.7330067818,
				"element": "O" 
			},
			{
				"x": -0.0547379303,
				"y": -1.4641435993,
				"z": -1.3373101181,
				"element": "C" 
			},
			{
				"x": -0.5412264594,
				"y": -1.2976211787,
				"z": -2.6180344597,
				"element": "C" 
			},
			{
				"x": -0.2055758209,
				"y": 0.0255738169,
				"z": -3.0238479947,
				"element": "C" 
			},
			{
				"x": -0.5102981366,
				"y": 0.6615166258,
				"z": -4.302795229,
				"element": "C" 
			},
			{
				"x": -1.1109180851,
				"y": 0.1232482982,
				"z": -5.2166379436,
				"element": "O" 
			},
			{
				"x": 0.4803584554,
				"y": 0.6210267238,
				"z": -1.9622526707,
				"element": "C" 
			},
			{
				"x": 0.56298553,
				"y": -0.2827630584,
				"z": -0.9599510249,
				"element": "N" 
			},
			{
				"x": -1.2663163061,
				"y": -4.5117936757,
				"z": 0.9689531607,
				"element": "H" 
			},
			{
				"x": -1.2704002825,
				"y": -5.5622033215,
				"z": -0.48544878,
				"element": "H" 
			},
			{
				"x": 0.2732331129,
				"y": -5.1063720911,
				"z": 0.307067865,
				"element": "H" 
			},
			{
				"x": -1.0755643653,
				"y": -2.0282532558,
				"z": -3.2057408994,
				"element": "H" 
			},
			{
				"x": -0.1473442165,
				"y": 1.7100201244,
				"z": -4.3984300311,
				"element": "H" 
			},
			{
				"x": 0.9010383533,
				"y": 1.6124874362,
				"z": -1.8727834109,
				"element": "H" 
			},
			{
				"x": 0.996133341,
				"y": -0.169850403,
				"z": -0.0538532691,
				"element": "H" 
			}
		],
		 "valence_orbital": [ 
			{
				"type": "occ",
				"energy": -0.30984,
				"method": "rhf"
			},
			{
				"type": "occ",
				"energy": -0.28822,
				"method": "rhf"
			},
			{
				"type": "occ",
				"energy": -0.26923,
				"method": "rhf"
			},
			{
				"type": "occ",
				"energy": -0.24766,
				"method": "rhf"
			},
			{
				"type": "occ",
				"energy": -0.24465,
				"method": "rhf"
			},
			{
				"type": "unocc",
				"energy": -0.04292,
				"method": "rhf"
			},
			{
				"type": "unocc",
				"energy": -0.03662,
				"method": "rhf"
			},
			{
				"type": "unocc",
				"energy": 0.07631,
				"method": "rhf"
			},
			{
				"type": "unocc",
				"energy": 0.08399,
				"method": "rhf"
			},
			{
				"type": "unocc",
				"energy": 0.10819,
				"method": "rhf"
			}
		],
		"cosmo_sigma_profile": { 
			"-0.025": 0.0,
			"-0.024": 0.0,
			"-0.023": 0.0,
			"-0.022": 0.0,
			"-0.021": 0.0,
			"-0.02": 0.0,
			"-0.019": 0.0,
			"-0.018": 0.0,
			"-0.017": 0.244935519511,
			"-0.016": 0.898501123715,
			"-0.015": 0.899348730653,
			"-0.014": 1.4019097822,
			"-0.013": 0.740952033707,
			"-0.012": 0.696827138052,
			"-0.011": 0.910569071534,
			"-0.01": 3.51757583269,
			"-0.009": 3.13643484147,
			"-0.008": 3.85162519005,
			"-0.007": 4.82217792026,
			"-0.006": 11.7450618214,
			"-0.005": 11.7104906627,
			"-0.004": 14.318167874,
			"-0.003": 14.427699091,
			"-0.002": 12.5700275988,
			"-0.001": 10.1359221722,
			"0.0": 10.9584659183,
			"0.001": 11.9705959472,
			"0.002": 13.2451430816,
			"0.003": 11.1456550232,
			"0.004": 6.03266319618,
			"0.005": 4.42756173314,
			"0.006": 4.61397027276,
			"0.007": 4.13773301215,
			"0.008": 3.07414722358,
			"0.009": 3.15596914115,
			"0.01": 4.02129696302,
			"0.011": 6.11855480917,
			"0.012": 8.06873751694,
			"0.013": 2.66196637654,
			"0.014": 0.423026199982,
			"0.015": 0.0,
			"0.016": 0.0,
			"0.017": 0.0,
			"0.018": 0.0,
			"0.019": 0.0,
			"0.02": 0.0,
			"0.021": 0.0,
			"0.022": 0.0,
			"0.023": 0.0,
			"0.024": 0.0,
			"0.025": 0.0
		}
	}
}
