{
	 "smiles": "OC1=CC(Cl)=CC=C1OC1=CC=C(Cl)C=C1Cl", 
	 "Tm": 329.45, 
	 "num_atms": 24, 
	 "gaussian": { 
		 "optdone": 1, 
		 "sigma_profile": "yes", 
		 "theory": "DFT", 
		 "functional": "B3LYP", 
		 "basiset": "6-31G**", 
		 "properties": { 
			 "R2extent": 7883.6826, 
			 "electric_dipole_moment_norm": 2.47829235362, 
			 "electric_quadrupole_moment_norm": 13.1740388868, 
			 "total_energy": -1992.49989007, 
			 "HOMO_LUMO_gap": 0.20016, 
			 "cosmo_polarized_energy": -12.41, 
			 "cosmo_cavitation_energy": 34.89, 
			 "cosmo_dispersion_energy": -25.23, 
			 "cosmo_repulsion_energy": 1.99, 
			 "cosmo_total_nonelectrostatic_energy": 11.66, 
			 "SMD_solvation_energy": 5.66 
		},
		"coords": [
			{
				"x": -0.6119910204,
				"y": 1.3341701768,
				"z": -1.5466501864,
				"element": "O" 
			},
			{
				"x": -0.3052319827,
				"y": 1.3875986602,
				"z": -0.2243051207,
				"element": "C" 
			},
			{
				"x": -1.1030931855,
				"y": 2.0330867473,
				"z": 0.7235874671,
				"element": "C" 
			},
			{
				"x": -0.7078712232,
				"y": 2.0481711387,
				"z": 2.0619820464,
				"element": "C" 
			},
			{
				"x": -1.7249141619,
				"y": 2.8712814345,
				"z": 3.2337050271,
				"element": "Cl" 
			},
			{
				"x": 0.4669831453,
				"y": 1.4312512647,
				"z": 2.4825558409,
				"element": "C" 
			},
			{
				"x": 1.2550101349,
				"y": 0.7801147756,
				"z": 1.5307910724,
				"element": "C" 
			},
			{
				"x": 0.8788949249,
				"y": 0.7507440179,
				"z": 0.1929646816,
				"element": "C" 
			},
			{
				"x": 1.7325739589,
				"y": 0.1870526733,
				"z": -0.7366220272,
				"element": "O" 
			},
			{
				"x": 1.3848774347,
				"y": -0.9769889719,
				"z": -1.3706510434,
				"element": "C" 
			},
			{
				"x": 0.3426815953,
				"y": -1.8094539633,
				"z": -0.9567008992,
				"element": "C" 
			},
			{
				"x": 0.0691924118,
				"y": -2.9973109794,
				"z": -1.6326683537,
				"element": "C" 
			},
			{
				"x": 0.8499083575,
				"y": -3.3563239442,
				"z": -2.7285232738,
				"element": "C" 
			},
			{
				"x": 0.5144988261,
				"y": -4.8508919727,
				"z": -3.5889177283,
				"element": "Cl" 
			},
			{
				"x": 1.8999135681,
				"y": -2.5450479016,
				"z": -3.1558878265,
				"element": "C" 
			},
			{
				"x": 2.1627224213,
				"y": -1.3586694646,
				"z": -2.4753598073,
				"element": "C" 
			},
			{
				"x": 3.4782074502,
				"y": -0.3386677577,
				"z": -3.0072075681,
				"element": "Cl" 
			},
			{
				"x": -1.4370187909,
				"y": 1.8101241587,
				"z": -1.7083965396,
				"element": "H" 
			},
			{
				"x": -2.0204240941,
				"y": 2.5287847638,
				"z": 0.4205152184,
				"element": "H" 
			},
			{
				"x": 0.7602587254,
				"y": 1.4570331329,
				"z": 3.5249992104,
				"element": "H" 
			},
			{
				"x": 2.1818022378,
				"y": 0.2932876001,
				"z": 1.8154571055,
				"element": "H" 
			},
			{
				"x": -0.253965832,
				"y": -1.5262532255,
				"z": -0.0969835404,
				"element": "H" 
			},
			{
				"x": -0.7417341502,
				"y": -3.6382390074,
				"z": -1.3061326415,
				"element": "H" 
			},
			{
				"x": 2.5079192486,
				"y": -2.824953356,
				"z": -4.0073511137,
				"element": "H" 
			}
		],
		 "valence_orbital": [ 
			{
				"type": "occ",
				"energy": -0.31216,
				"method": "rhf"
			},
			{
				"type": "occ",
				"energy": -0.26535,
				"method": "rhf"
			},
			{
				"type": "occ",
				"energy": -0.26177,
				"method": "rhf"
			},
			{
				"type": "occ",
				"energy": -0.24353,
				"method": "rhf"
			},
			{
				"type": "occ",
				"energy": -0.22989,
				"method": "rhf"
			},
			{
				"type": "unocc",
				"energy": -0.02973,
				"method": "rhf"
			},
			{
				"type": "unocc",
				"energy": -0.02456,
				"method": "rhf"
			},
			{
				"type": "unocc",
				"energy": -0.01374,
				"method": "rhf"
			},
			{
				"type": "unocc",
				"energy": -0.0097,
				"method": "rhf"
			},
			{
				"type": "unocc",
				"energy": 0.00971,
				"method": "rhf"
			}
		],
		"cosmo_sigma_profile": { 
			"-0.025": 0.0,
			"-0.024": 0.0,
			"-0.023": 0.0,
			"-0.022": 0.0,
			"-0.021": 0.0,
			"-0.02": 0.0,
			"-0.019": 0.651414626464,
			"-0.018": 1.41666840376,
			"-0.017": 0.886180720294,
			"-0.016": 1.00460353771,
			"-0.015": 1.72963064429,
			"-0.014": 0.461186444522,
			"-0.013": 0.906047454794,
			"-0.012": 1.1783879353,
			"-0.011": 1.0672587192,
			"-0.01": 1.35083920786,
			"-0.009": 1.73089246195,
			"-0.008": 5.05588624725,
			"-0.007": 10.1170370845,
			"-0.006": 11.297225704,
			"-0.005": 8.97704356461,
			"-0.004": 9.8512835599,
			"-0.003": 12.012113217,
			"-0.002": 15.1929242363,
			"-0.001": 16.0949662768,
			"0.0": 22.3644390637,
			"0.001": 35.7284714154,
			"0.002": 38.1645358719,
			"0.003": 28.8326075404,
			"0.004": 31.1273521866,
			"0.005": 14.7931834467,
			"0.006": 3.97868413325,
			"0.007": 4.89130531896,
			"0.008": 4.50963698532,
			"0.009": 1.9258098641,
			"0.01": 0.390708022278,
			"0.011": 0.0,
			"0.012": 0.0,
			"0.013": 0.0,
			"0.014": 0.0,
			"0.015": 0.0,
			"0.016": 0.0,
			"0.017": 0.0,
			"0.018": 0.0,
			"0.019": 0.0,
			"0.02": 0.0,
			"0.021": 0.0,
			"0.022": 0.0,
			"0.023": 0.0,
			"0.024": 0.0,
			"0.025": 0.0
		}
	}
}
