{
	 "smiles": "NC1=C(N)C2=C(C=C1)C(=O)C1=CC=CC=C1C2=O", 
	 "Tm": 563.15, 
	 "num_atms": 28, 
	 "gaussian": { 
		 "optdone": 1, 
		 "sigma_profile": "yes", 
		 "theory": "DFT", 
		 "functional": "B3LYP", 
		 "basiset": "6-31G**", 
		 "properties": { 
			 "R2extent": 4531.4197, 
			 "electric_dipole_moment_norm": 3.07192168845, 
			 "electric_quadrupole_moment_norm": 23.3439121938, 
			 "total_energy": -799.503676249, 
			 "HOMO_LUMO_gap": 0.11299, 
			 "cosmo_polarized_energy": -15.88, 
			 "cosmo_cavitation_energy": 31.46, 
			 "cosmo_dispersion_energy": -23.95, 
			 "cosmo_repulsion_energy": 1.77, 
			 "cosmo_total_nonelectrostatic_energy": 9.29, 
			 "SMD_solvation_energy": 5.57 
		},
		"coords": [
			{
				"x": 2.0452486385,
				"y": -1.2737506567,
				"z": -4.0777360418,
				"element": "N" 
			},
			{
				"x": 1.5505720868,
				"y": -1.1427899468,
				"z": -2.7766201527,
				"element": "C" 
			},
			{
				"x": 0.6197704061,
				"y": -0.0855507993,
				"z": -2.5332830057,
				"element": "C" 
			},
			{
				"x": 0.2628436487,
				"y": 0.6996815992,
				"z": -3.6078010012,
				"element": "N" 
			},
			{
				"x": 0.0821574063,
				"y": 0.0772993953,
				"z": -1.2332694198,
				"element": "C" 
			},
			{
				"x": 0.5064149315,
				"y": -0.7945237354,
				"z": -0.188478444,
				"element": "C" 
			},
			{
				"x": 1.4460377296,
				"y": -1.7870871679,
				"z": -0.4431169889,
				"element": "C" 
			},
			{
				"x": 1.9582226728,
				"y": -1.9627831864,
				"z": -1.7293619662,
				"element": "C" 
			},
			{
				"x": -0.0141895113,
				"y": -0.6698426016,
				"z": 1.1950880008,
				"element": "C" 
			},
			{
				"x": 0.3464385127,
				"y": -1.4273324833,
				"z": 2.0944258383,
				"element": "O" 
			},
			{
				"x": -0.9927621061,
				"y": 0.4212920639,
				"z": 1.4648562262,
				"element": "C" 
			},
			{
				"x": -1.5089933779,
				"y": 0.5740946318,
				"z": 2.7568593353,
				"element": "C" 
			},
			{
				"x": -2.4185580339,
				"y": 1.5917469955,
				"z": 3.0303377878,
				"element": "C" 
			},
			{
				"x": -2.8194085917,
				"y": 2.4659601148,
				"z": 2.0124405678,
				"element": "C" 
			},
			{
				"x": -2.3108934378,
				"y": 2.3197207794,
				"z": 0.7248737587,
				"element": "C" 
			},
			{
				"x": -1.3949863929,
				"y": 1.2981558002,
				"z": 0.4414100573,
				"element": "C" 
			},
			{
				"x": -0.8742136548,
				"y": 1.1627127484,
				"z": -0.950481898,
				"element": "C" 
			},
			{
				"x": -1.2585574619,
				"y": 1.9618818265,
				"z": -1.8183789648,
				"element": "O" 
			},
			{
				"x": 1.3282445436,
				"y": -1.1817597624,
				"z": -4.7905475847,
				"element": "H" 
			},
			{
				"x": 2.5993027859,
				"y": -2.1076728233,
				"z": -4.2250008461,
				"element": "H" 
			},
			{
				"x": 1.0067105106,
				"y": 0.8782021942,
				"z": -4.2706094563,
				"element": "H" 
			},
			{
				"x": -0.3209283379,
				"y": 1.4925702385,
				"z": -3.3543918782,
				"element": "H" 
			},
			{
				"x": 1.7503135403,
				"y": -2.4294332866,
				"z": 0.375349497,
				"element": "H" 
			},
			{
				"x": 2.6700869279,
				"y": -2.760658436,
				"z": -1.927631926,
				"element": "H" 
			},
			{
				"x": -1.1781539005,
				"y": -0.1175825151,
				"z": 3.524230245,
				"element": "H" 
			},
			{
				"x": -2.8171649877,
				"y": 1.7079236098,
				"z": 4.0340798886,
				"element": "H" 
			},
			{
				"x": -3.5290879077,
				"y": 3.2598273564,
				"z": 2.2268603512,
				"element": "H" 
			},
			{
				"x": -2.6070666392,
				"y": 2.9826980469,
				"z": -0.0806019795,
				"element": "H" 
			}
		],
		 "valence_orbital": [ 
			{
				"type": "occ",
				"energy": -0.25999,
				"method": "rhf"
			},
			{
				"type": "occ",
				"energy": -0.25795,
				"method": "rhf"
			},
			{
				"type": "occ",
				"energy": -0.24572,
				"method": "rhf"
			},
			{
				"type": "occ",
				"energy": -0.2413,
				"method": "rhf"
			},
			{
				"type": "occ",
				"energy": -0.20359,
				"method": "rhf"
			},
			{
				"type": "unocc",
				"energy": -0.0906,
				"method": "rhf"
			},
			{
				"type": "unocc",
				"energy": -0.04291,
				"method": "rhf"
			},
			{
				"type": "unocc",
				"energy": -0.00979,
				"method": "rhf"
			},
			{
				"type": "unocc",
				"energy": 0.00612,
				"method": "rhf"
			},
			{
				"type": "unocc",
				"energy": 0.06073,
				"method": "rhf"
			}
		],
		"cosmo_sigma_profile": { 
			"-0.025": 0.0,
			"-0.024": 0.0,
			"-0.023": 0.0,
			"-0.022": 0.0,
			"-0.021": 0.0,
			"-0.02": 0.0,
			"-0.019": 0.0,
			"-0.018": 0.0,
			"-0.017": 0.0,
			"-0.016": 0.0,
			"-0.015": 0.0,
			"-0.014": 0.174022104753,
			"-0.013": 1.9321748079,
			"-0.012": 3.35041168881,
			"-0.011": 4.68200008003,
			"-0.01": 4.08812264231,
			"-0.009": 4.1986902096,
			"-0.008": 3.70890059122,
			"-0.007": 7.83980949004,
			"-0.006": 10.1646071655,
			"-0.005": 14.3768743402,
			"-0.004": 13.2286040179,
			"-0.003": 12.3085174971,
			"-0.002": 13.4672168497,
			"-0.001": 15.3351324023,
			"0.0": 18.6283842571,
			"0.001": 20.4912364787,
			"0.002": 26.9580952716,
			"0.003": 26.4661407664,
			"0.004": 11.2630467332,
			"0.005": 5.24092489952,
			"0.006": 5.1609374395,
			"0.007": 3.80376121639,
			"0.008": 4.81620586258,
			"0.009": 4.56949620094,
			"0.01": 5.02664787511,
			"0.011": 5.09514997204,
			"0.012": 5.00135421298,
			"0.013": 1.38605625461,
			"0.014": 0.0,
			"0.015": 0.0,
			"0.016": 0.0,
			"0.017": 0.0,
			"0.018": 0.0,
			"0.019": 0.0,
			"0.02": 0.0,
			"0.021": 0.0,
			"0.022": 0.0,
			"0.023": 0.0,
			"0.024": 0.0,
			"0.025": 0.0
		}
	}
}
