{
	 "smiles": "ClS(=O)(=O)C1=CC=C(S1)C1=CC=NO1", 
	 "Tm": 342.65, 
	 "num_atms": 18, 
	 "gaussian": { 
		 "optdone": 1, 
		 "sigma_profile": "yes", 
		 "theory": "DFT", 
		 "functional": "B3LYP", 
		 "basiset": "6-31G**", 
		 "properties": { 
			 "R2extent": 5877.4304, 
			 "electric_dipole_moment_norm": 3.66423406594, 
			 "electric_quadrupole_moment_norm": 30.29865807, 
			 "total_energy": -1805.99733942, 
			 "HOMO_LUMO_gap": 0.14734, 
			 "cosmo_polarized_energy": -12.46, 
			 "cosmo_cavitation_energy": 29.05, 
			 "cosmo_dispersion_energy": -22.09, 
			 "cosmo_repulsion_energy": 1.63, 
			 "cosmo_total_nonelectrostatic_energy": 8.6, 
			 "SMD_solvation_energy": 3.34 
		},
		"coords": [
			{
				"x": -1.1650522225,
				"y": 3.9951228781,
				"z": -0.2794278399,
				"element": "Cl" 
			},
			{
				"x": 0.9082425558,
				"y": 3.7224361987,
				"z": -0.6826295382,
				"element": "S" 
			},
			{
				"x": 1.0873746294,
				"y": 4.0377881058,
				"z": -2.0924354298,
				"element": "O" 
			},
			{
				"x": 1.6172800392,
				"y": 4.4116253853,
				"z": 0.3868888979,
				"element": "O" 
			},
			{
				"x": 1.104017975,
				"y": 1.9909338961,
				"z": -0.4671001573,
				"element": "C" 
			},
			{
				"x": 0.9796494139,
				"y": 1.0481533487,
				"z": -1.4600961743,
				"element": "C" 
			},
			{
				"x": 1.1818255397,
				"y": -0.2629288194,
				"z": -0.9698517975,
				"element": "C" 
			},
			{
				"x": 1.4466797832,
				"y": -0.2955801421,
				"z": 0.3869962239,
				"element": "C" 
			},
			{
				"x": 1.4624957528,
				"y": 1.3007181154,
				"z": 1.0878687853,
				"element": "S" 
			},
			{
				"x": 1.7118897926,
				"y": -1.4660517792,
				"z": 1.1940983285,
				"element": "C" 
			},
			{
				"x": 1.9722082376,
				"y": -1.6688366672,
				"z": 2.5242603205,
				"element": "C" 
			},
			{
				"x": 2.1297583099,
				"y": -3.0753950212,
				"z": 2.6191202803,
				"element": "C" 
			},
			{
				"x": 1.9800117121,
				"y": -3.677473115,
				"z": 1.4612394533,
				"element": "N" 
			},
			{
				"x": 1.7141101657,
				"y": -2.6569018984,
				"z": 0.5486191254,
				"element": "O" 
			},
			{
				"x": 0.7584835875,
				"y": 1.300173198,
				"z": -2.4898298226,
				"element": "H" 
			},
			{
				"x": 1.1432158393,
				"y": -1.1575436293,
				"z": -1.5783442326,
				"element": "H" 
			},
			{
				"x": 2.0397465378,
				"y": -0.9353122706,
				"z": 3.312883341,
				"element": "H" 
			},
			{
				"x": 2.3473623511,
				"y": -3.6719277834,
				"z": 3.495640236,
				"element": "H" 
			}
		],
		 "valence_orbital": [ 
			{
				"type": "occ",
				"energy": -0.3269,
				"method": "rhf"
			},
			{
				"type": "occ",
				"energy": -0.3206,
				"method": "rhf"
			},
			{
				"type": "occ",
				"energy": -0.3197,
				"method": "rhf"
			},
			{
				"type": "occ",
				"energy": -0.29952,
				"method": "rhf"
			},
			{
				"type": "occ",
				"energy": -0.25835,
				"method": "rhf"
			},
			{
				"type": "unocc",
				"energy": -0.11101,
				"method": "rhf"
			},
			{
				"type": "unocc",
				"energy": -0.07475,
				"method": "rhf"
			},
			{
				"type": "unocc",
				"energy": -0.02476,
				"method": "rhf"
			},
			{
				"type": "unocc",
				"energy": -0.0195,
				"method": "rhf"
			},
			{
				"type": "unocc",
				"energy": 0.01539,
				"method": "rhf"
			}
		],
		"cosmo_sigma_profile": { 
			"-0.025": 0.0,
			"-0.024": 0.0,
			"-0.023": 0.0,
			"-0.022": 0.0,
			"-0.021": 0.0,
			"-0.02": 0.0,
			"-0.019": 0.0,
			"-0.018": 0.0,
			"-0.017": 0.0,
			"-0.016": 0.0,
			"-0.015": 0.0,
			"-0.014": 0.0,
			"-0.013": 0.0,
			"-0.012": 0.0,
			"-0.011": 0.0387813939546,
			"-0.01": 4.20708209746,
			"-0.009": 7.25532086945,
			"-0.008": 7.98721663674,
			"-0.007": 7.36998322664,
			"-0.006": 8.19241822594,
			"-0.005": 9.56917976886,
			"-0.004": 8.6742034278,
			"-0.003": 11.3674756014,
			"-0.002": 23.6490558203,
			"-0.001": 28.8918180072,
			"0.0": 23.9660985641,
			"0.001": 16.0362943908,
			"0.002": 13.3048571721,
			"0.003": 16.6127429255,
			"0.004": 8.50256037904,
			"0.005": 6.05319136092,
			"0.006": 6.36512881606,
			"0.007": 12.1814953017,
			"0.008": 10.7392098132,
			"0.009": 3.65119344799,
			"0.01": 1.74738079931,
			"0.011": 0.983625626067,
			"0.012": 1.60390747965,
			"0.013": 1.03974310712,
			"0.014": 0.110275568652,
			"0.015": 0.0,
			"0.016": 0.0,
			"0.017": 0.0,
			"0.018": 0.0,
			"0.019": 0.0,
			"0.02": 0.0,
			"0.021": 0.0,
			"0.022": 0.0,
			"0.023": 0.0,
			"0.024": 0.0,
			"0.025": 0.0
		}
	}
}
