{
	 "smiles": "OC(=O)C1=CC=C(C=C1)N1C(=O)CSC1=S", 
	 "Tm": 555.15, 
	 "num_atms": 23, 
	 "gaussian": { 
		 "optdone": 1, 
		 "sigma_profile": "yes", 
		 "theory": "DFT", 
		 "functional": "B3LYP", 
		 "basiset": "6-31G**", 
		 "properties": { 
			 "R2extent": 5719.9123, 
			 "electric_dipole_moment_norm": 4.95117776999, 
			 "electric_quadrupole_moment_norm": 24.1878687199, 
			 "total_energy": -1462.09498756, 
			 "HOMO_LUMO_gap": 0.15986, 
			 "cosmo_polarized_energy": -23.04, 
			 "cosmo_cavitation_energy": 32.0, 
			 "cosmo_dispersion_energy": -23.51, 
			 "cosmo_repulsion_energy": 1.75, 
			 "cosmo_total_nonelectrostatic_energy": 10.24, 
			 "SMD_solvation_energy": 6.14 
		},
		"coords": [
			{
				"x": -1.313889418,
				"y": 3.9337125969,
				"z": -3.0499457198,
				"element": "O" 
			},
			{
				"x": -0.0877485432,
				"y": 3.4473382491,
				"z": -2.7228123873,
				"element": "C" 
			},
			{
				"x": 0.9072301683,
				"y": 4.0748118763,
				"z": -2.9962924424,
				"element": "O" 
			},
			{
				"x": -0.0523635232,
				"y": 2.1207657677,
				"z": -2.0200022307,
				"element": "C" 
			},
			{
				"x": -1.1387094787,
				"y": 1.6132351975,
				"z": -1.2950981084,
				"element": "C" 
			},
			{
				"x": -1.0425805146,
				"y": 0.3821774034,
				"z": -0.6497978312,
				"element": "C" 
			},
			{
				"x": 0.1457753213,
				"y": -0.3414707609,
				"z": -0.7324823322,
				"element": "C" 
			},
			{
				"x": 1.2440004159,
				"y": 0.160189113,
				"z": -1.4343019377,
				"element": "C" 
			},
			{
				"x": 1.1434464921,
				"y": 1.3918841669,
				"z": -2.0704185448,
				"element": "C" 
			},
			{
				"x": 0.2520479946,
				"y": -1.6035564338,
				"z": -0.0478139676,
				"element": "N" 
			},
			{
				"x": 0.2763817871,
				"y": -1.6297567306,
				"z": 1.3614172806,
				"element": "C" 
			},
			{
				"x": 0.1887726075,
				"y": -0.6473749041,
				"z": 2.0596238898,
				"element": "O" 
			},
			{
				"x": 0.428165307,
				"y": -3.0524446418,
				"z": 1.8796894617,
				"element": "C" 
			},
			{
				"x": 0.4692708485,
				"y": -4.1562820312,
				"z": 0.4259011837,
				"element": "S" 
			},
			{
				"x": 0.3183803633,
				"y": -2.8186567226,
				"z": -0.7239650776,
				"element": "C" 
			},
			{
				"x": 0.2574611369,
				"y": -3.0485675279,
				"z": -2.3483964431,
				"element": "S" 
			},
			{
				"x": -1.98988199,
				"y": 3.2526452311,
				"z": -2.929104006,
				"element": "H" 
			},
			{
				"x": -2.0566264077,
				"y": 2.1856735279,
				"z": -1.1909746173,
				"element": "H" 
			},
			{
				"x": -1.8774569509,
				"y": -0.009620264,
				"z": -0.0797832939,
				"element": "H" 
			},
			{
				"x": 2.1632621883,
				"y": -0.4129630398,
				"z": -1.4794930079,
				"element": "H" 
			},
			{
				"x": 1.9838175119,
				"y": 1.8108937656,
				"z": -2.6123706875,
				"element": "H" 
			},
			{
				"x": 1.3518195666,
				"y": -3.1246988824,
				"z": 2.4596544094,
				"element": "H" 
			},
			{
				"x": -0.4129748832,
				"y": -3.2896349564,
				"z": 2.5356664102,
				"element": "H" 
			}
		],
		 "valence_orbital": [ 
			{
				"type": "occ",
				"energy": -0.28548,
				"method": "rhf"
			},
			{
				"type": "occ",
				"energy": -0.28333,
				"method": "rhf"
			},
			{
				"type": "occ",
				"energy": -0.27424,
				"method": "rhf"
			},
			{
				"type": "occ",
				"energy": -0.25722,
				"method": "rhf"
			},
			{
				"type": "occ",
				"energy": -0.23982,
				"method": "rhf"
			},
			{
				"type": "unocc",
				"energy": -0.07996,
				"method": "rhf"
			},
			{
				"type": "unocc",
				"energy": -0.06673,
				"method": "rhf"
			},
			{
				"type": "unocc",
				"energy": -0.03508,
				"method": "rhf"
			},
			{
				"type": "unocc",
				"energy": -0.01237,
				"method": "rhf"
			},
			{
				"type": "unocc",
				"energy": -0.0095,
				"method": "rhf"
			}
		],
		"cosmo_sigma_profile": { 
			"-0.025": 0.0,
			"-0.024": 0.0,
			"-0.023": 0.0,
			"-0.022": 0.0,
			"-0.021": 0.0,
			"-0.02": 0.0360071031841,
			"-0.019": 0.581591240323,
			"-0.018": 0.8845563726,
			"-0.017": 0.926185272572,
			"-0.016": 1.56952983249,
			"-0.015": 0.536832441026,
			"-0.014": 0.692940847993,
			"-0.013": 1.05722764278,
			"-0.012": 1.52854606065,
			"-0.011": 1.3307672585,
			"-0.01": 6.55867408159,
			"-0.009": 8.65301800669,
			"-0.008": 13.6230023859,
			"-0.007": 16.1578418026,
			"-0.006": 12.9794968062,
			"-0.005": 9.21337589459,
			"-0.004": 9.93115138369,
			"-0.003": 8.63312431259,
			"-0.002": 9.71555511586,
			"-0.001": 11.1205764695,
			"0.0": 12.2367284041,
			"0.001": 18.1501026752,
			"0.002": 18.8830837754,
			"0.003": 14.6559928958,
			"0.004": 11.8266916963,
			"0.005": 11.7325187862,
			"0.006": 11.2463188821,
			"0.007": 9.19267853077,
			"0.008": 8.27054033045,
			"0.009": 8.11837135157,
			"0.01": 9.83703724772,
			"0.011": 7.64236952351,
			"0.012": 3.80485752773,
			"0.013": 0.891251749811,
			"0.014": 0.0,
			"0.015": 0.0,
			"0.016": 0.0,
			"0.017": 0.0,
			"0.018": 0.0,
			"0.019": 0.0,
			"0.02": 0.0,
			"0.021": 0.0,
			"0.022": 0.0,
			"0.023": 0.0,
			"0.024": 0.0,
			"0.0": 0.0
		}
	}
}
