{
	 "smiles": "CC(C(O)=O)C1=CC=C(Cl)C=C1", 
	 "Tm": 330.15, 
	 "num_atms": 21, 
	 "gaussian": { 
		 "optdone": 1, 
		 "sigma_profile": "yes", 
		 "theory": "DFT", 
		 "functional": "B3LYP", 
		 "basiset": "6-31G**", 
		 "properties": { 
			 "R2extent": 3784.2039, 
			 "electric_dipole_moment_norm": 3.17810887479, 
			 "electric_quadrupole_moment_norm": 13.6380236046, 
			 "total_energy": -959.037592014, 
			 "HOMO_LUMO_gap": 0.21926, 
			 "cosmo_polarized_energy": -13.41, 
			 "cosmo_cavitation_energy": 26.88, 
			 "cosmo_dispersion_energy": -19.26, 
			 "cosmo_repulsion_energy": 1.55, 
			 "cosmo_total_nonelectrostatic_energy": 9.17, 
			 "SMD_solvation_energy": 5.48 
		},
		"coords": [
			{
				"x": 2.0721545775,
				"y": 0.2287875487,
				"z": 1.2575580604,
				"element": "C" 
			},
			{
				"x": 0.8873680082,
				"y": 0.1956167314,
				"z": 0.2811505927,
				"element": "C" 
			},
			{
				"x": 1.3514030059,
				"y": -0.2532573488,
				"z": -1.1191191529,
				"element": "C" 
			},
			{
				"x": 0.3619237865,
				"y": -0.5566650674,
				"z": -1.9954452026,
				"element": "O" 
			},
			{
				"x": 2.5060068866,
				"y": -0.2984122962,
				"z": -1.4630701413,
				"element": "O" 
			},
			{
				"x": -0.2887478099,
				"y": -0.6253869165,
				"z": 0.7920961793,
				"element": "C" 
			},
			{
				"x": -0.1713502645,
				"y": -2.0131232365,
				"z": 0.9764125342,
				"element": "C" 
			},
			{
				"x": -1.2361039168,
				"y": -2.7699405274,
				"z": 1.4590850156,
				"element": "C" 
			},
			{
				"x": -2.4412055792,
				"y": -2.1342771083,
				"z": 1.7646031399,
				"element": "C" 
			},
			{
				"x": -3.7874978905,
				"y": -3.0816754118,
				"z": 2.374030957,
				"element": "Cl" 
			},
			{
				"x": -2.590406354,
				"y": -0.7605607243,
				"z": 1.5894964067,
				"element": "C" 
			},
			{
				"x": -1.5123569821,
				"y": -0.0177846851,
				"z": 1.1033250918,
				"element": "C" 
			},
			{
				"x": 2.463053245,
				"y": -0.7769249471,
				"z": 1.4347840974,
				"element": "H" 
			},
			{
				"x": 2.8836452345,
				"y": 0.8304951902,
				"z": 0.8441974632,
				"element": "H" 
			},
			{
				"x": 1.7609796178,
				"y": 0.6512541222,
				"z": 2.2167040222,
				"element": "H" 
			},
			{
				"x": 0.5304145424,
				"y": 1.2261304549,
				"z": 0.1387854089,
				"element": "H" 
			},
			{
				"x": -0.4933416105,
				"y": -0.5453040712,
				"z": -1.5382012075,
				"element": "H" 
			},
			{
				"x": 0.7634653367,
				"y": -2.5126959273,
				"z": 0.7361894337,
				"element": "H" 
			},
			{
				"x": -1.1370135981,
				"y": -3.8409895251,
				"z": 1.5963754852,
				"element": "H" 
			},
			{
				"x": -3.5315872966,
				"y": -0.2791017384,
				"z": 1.8306328567,
				"element": "H" 
			},
			{
				"x": -1.627302939,
				"y": 1.0556154842,
				"z": 0.9744089595,
				"element": "H" 
			}
		],
		 "valence_orbital": [ 
			{
				"type": "occ",
				"energy": -0.32377,
				"method": "rhf"
			},
			{
				"type": "occ",
				"energy": -0.31705,
				"method": "rhf"
			},
			{
				"type": "occ",
				"energy": -0.28107,
				"method": "rhf"
			},
			{
				"type": "occ",
				"energy": -0.27872,
				"method": "rhf"
			},
			{
				"type": "occ",
				"energy": -0.25429,
				"method": "rhf"
			},
			{
				"type": "unocc",
				"energy": -0.03503,
				"method": "rhf"
			},
			{
				"type": "unocc",
				"energy": -0.03207,
				"method": "rhf"
			},
			{
				"type": "unocc",
				"energy": 0.00336,
				"method": "rhf"
			},
			{
				"type": "unocc",
				"energy": 0.02148,
				"method": "rhf"
			},
			{
				"type": "unocc",
				"energy": 0.07523,
				"method": "rhf"
			}
		],
		"cosmo_sigma_profile": { 
			"-0.025": 0.0,
			"-0.024": 0.0,
			"-0.023": 0.0,
			"-0.022": 0.0,
			"-0.021": 0.0,
			"-0.02": 0.0,
			"-0.019": 0.0,
			"-0.018": 0.0,
			"-0.017": 0.0,
			"-0.016": 0.0670411270054,
			"-0.015": 0.778101152747,
			"-0.014": 0.55844080751,
			"-0.013": 0.791115780381,
			"-0.012": 1.3741065264,
			"-0.011": 1.57728096818,
			"-0.01": 0.947826315439,
			"-0.009": 1.50489589129,
			"-0.008": 4.92219080354,
			"-0.007": 12.3003850661,
			"-0.006": 11.7722110023,
			"-0.005": 10.6225097495,
			"-0.004": 11.7255846696,
			"-0.003": 12.9525609793,
			"-0.002": 13.978545485,
			"-0.001": 14.4690616155,
			"0.0": 18.2144129883,
			"0.001": 16.3600074908,
			"0.002": 15.9215268316,
			"0.003": 16.4650660179,
			"0.004": 12.7147312056,
			"0.005": 7.7774180831,
			"0.006": 1.82177533308,
			"0.007": 3.2439896468,
			"0.008": 2.79678791138,
			"0.009": 3.0100937873,
			"0.01": 5.276237181,
			"0.011": 5.1451656247,
			"0.012": 5.15391363406,
			"0.013": 1.50417357295,
			"0.014": 0.0242758274996,
			"0.015": 0.0,
			"0.016": 0.0,
			"0.017": 0.0,
			"0.018": 0.0,
			"0.019": 0.0,
			"0.02": 0.0,
			"0.021": 0.0,
			"0.022": 0.0,
			"0.023": 0.0,
			"0.024": 0.0,
			"0.025": 0.0
		}
	}
}
