{
	 "smiles": "CC(C)(C)OC(=O)N1CCCC2=C1C=CC(N)=C2", 
	 "Tm": 329.15, 
	 "num_atms": 38, 
	 "gaussian": { 
		 "optdone": 1, 
		 "sigma_profile": "yes", 
		 "theory": "DFT", 
		 "functional": "B3LYP", 
		 "basiset": "6-31G**", 
		 "properties": { 
			 "R2extent": 5267.3381, 
			 "electric_dipole_moment_norm": 3.13472065263, 
			 "electric_quadrupole_moment_norm": 10.6997171467, 
			 "total_energy": -805.541452849, 
			 "HOMO_LUMO_gap": 0.19076, 
			 "cosmo_polarized_energy": -13.0, 
			 "cosmo_cavitation_energy": 38.63, 
			 "cosmo_dispersion_energy": -26.9, 
			 "cosmo_repulsion_energy": 2.1, 
			 "cosmo_total_nonelectrostatic_energy": 13.83, 
			 "SMD_solvation_energy": 6.62 
		},
		"coords": [
			{
				"x": -1.4953777373,
				"y": 2.2169627499,
				"z": -2.4761374226,
				"element": "C" 
			},
			{
				"x": -2.1471370067,
				"y": 2.1972178007,
				"z": -1.0904298771,
				"element": "C" 
			},
			{
				"x": -2.0819705124,
				"y": 3.5857517917,
				"z": -0.4443139887,
				"element": "C" 
			},
			{
				"x": -3.5809995122,
				"y": 1.6619406704,
				"z": -1.1725795468,
				"element": "C" 
			},
			{
				"x": -1.2928295425,
				"y": 1.2547845899,
				"z": -0.3518279769,
				"element": "O" 
			},
			{
				"x": -1.5409831446,
				"y": 0.9702316961,
				"z": 0.9463145353,
				"element": "C" 
			},
			{
				"x": -2.4670805028,
				"y": 1.424953681,
				"z": 1.6054452149,
				"element": "O" 
			},
			{
				"x": -0.6131655985,
				"y": 0.103476834,
				"z": 1.4868659268,
				"element": "N" 
			},
			{
				"x": -0.7596061324,
				"y": -0.1020334829,
				"z": 2.9483895172,
				"element": "C" 
			},
			{
				"x": 0.4925092158,
				"y": -0.7157740335,
				"z": 3.5808048501,
				"element": "C" 
			},
			{
				"x": 1.7570800247,
				"y": -0.1617113974,
				"z": 2.9049673708,
				"element": "C" 
			},
			{
				"x": 1.7165458999,
				"y": -0.5918214581,
				"z": 1.4605166335,
				"element": "C" 
			},
			{
				"x": 0.4851510522,
				"y": -0.4855730473,
				"z": 0.7874305747,
				"element": "C" 
			},
			{
				"x": 0.377021098,
				"y": -1.0024590644,
				"z": -0.5090254415,
				"element": "C" 
			},
			{
				"x": 1.4806220015,
				"y": -1.559268079,
				"z": -1.1468802015,
				"element": "C" 
			},
			{
				"x": 2.7207465081,
				"y": -1.649504783,
				"z": -0.4950083018,
				"element": "C" 
			},
			{
				"x": 3.8158792274,
				"y": -2.2673837444,
				"z": -1.1116610385,
				"element": "N" 
			},
			{
				"x": 2.8100741604,
				"y": -1.1746745659,
				"z": 0.8220714476,
				"element": "C" 
			},
			{
				"x": -2.0337858057,
				"y": 2.905552623,
				"z": -3.1342671549,
				"element": "H" 
			},
			{
				"x": -1.5144108275,
				"y": 1.2209266549,
				"z": -2.928217074,
				"element": "H" 
			},
			{
				"x": -0.4537299966,
				"y": 2.5430147125,
				"z": -2.4072734478,
				"element": "H" 
			},
			{
				"x": -1.0418707254,
				"y": 3.9179243816,
				"z": -0.3652573996,
				"element": "H" 
			},
			{
				"x": -2.6220040619,
				"y": 4.3061107615,
				"z": -1.0675843658,
				"element": "H" 
			},
			{
				"x": -2.527483976,
				"y": 3.574565443,
				"z": 0.5503635472,
				"element": "H" 
			},
			{
				"x": -3.5867959161,
				"y": 0.6554255283,
				"z": -1.6034542579,
				"element": "H" 
			},
			{
				"x": -4.0417114765,
				"y": 1.6271247556,
				"z": -0.1854425797,
				"element": "H" 
			},
			{
				"x": -4.1782253601,
				"y": 2.311085511,
				"z": -1.8214212513,
				"element": "H" 
			},
			{
				"x": -0.9652762962,
				"y": 0.8760190068,
				"z": 3.3908084276,
				"element": "H" 
			},
			{
				"x": -1.6412774048,
				"y": -0.7238600735,
				"z": 3.1429549442,
				"element": "H" 
			},
			{
				"x": 0.4785999783,
				"y": -0.4979417931,
				"z": 4.6543386858,
				"element": "H" 
			},
			{
				"x": 0.4871132939,
				"y": -1.8062124832,
				"z": 3.472754825,
				"element": "H" 
			},
			{
				"x": 2.664422578,
				"y": -0.5301850366,
				"z": 3.3937251492,
				"element": "H" 
			},
			{
				"x": 1.7650418561,
				"y": 0.9346014073,
				"z": 2.9896120839,
				"element": "H" 
			},
			{
				"x": -0.5708715934,
				"y": -0.9524128487,
				"z": -1.0287146607,
				"element": "H" 
			},
			{
				"x": 1.3753922512,
				"y": -1.94684766,
				"z": -2.1572774968,
				"element": "H" 
			},
			{
				"x": 4.7175277605,
				"y": -1.9719544323,
				"z": -0.7619063238,
				"element": "H" 
			},
			{
				"x": 3.7923396713,
				"y": -2.2515692718,
				"z": -2.1224312873,
				"element": "H" 
			},
			{
				"x": 3.7496265522,
				"y": -1.2681833439,
				"z": 1.3631473611,
				"element": "H" 
			}
		],
		 "valence_orbital": [ 
			{
				"type": "occ",
				"energy": -0.28011,
				"method": "rhf"
			},
			{
				"type": "occ",
				"energy": -0.25674,
				"method": "rhf"
			},
			{
				"type": "occ",
				"energy": -0.24825,
				"method": "rhf"
			},
			{
				"type": "occ",
				"energy": -0.23713,
				"method": "rhf"
			},
			{
				"type": "occ",
				"energy": -0.18361,
				"method": "rhf"
			},
			{
				"type": "unocc",
				"energy": 0.00715,
				"method": "rhf"
			},
			{
				"type": "unocc",
				"energy": 0.01577,
				"method": "rhf"
			},
			{
				"type": "unocc",
				"energy": 0.06775,
				"method": "rhf"
			},
			{
				"type": "unocc",
				"energy": 0.08367,
				"method": "rhf"
			},
			{
				"type": "unocc",
				"energy": 0.08532,
				"method": "rhf"
			}
		],
		"cosmo_sigma_profile": { 
			"-0.025": 0.0,
			"-0.024": 0.0,
			"-0.023": 0.0,
			"-0.022": 0.0,
			"-0.021": 0.0,
			"-0.02": 0.0,
			"-0.019": 0.0,
			"-0.018": 0.0,
			"-0.017": 0.0,
			"-0.016": 0.0,
			"-0.015": 0.0,
			"-0.014": 0.0,
			"-0.013": 0.057453124009,
			"-0.012": 1.95500541027,
			"-0.011": 2.67901441394,
			"-0.01": 2.07898789691,
			"-0.009": 4.02686446942,
			"-0.008": 2.8176985856,
			"-0.007": 2.33808866631,
			"-0.006": 4.21450155936,
			"-0.005": 5.4917838489,
			"-0.004": 25.7433011987,
			"-0.003": 37.9926636038,
			"-0.002": 33.7105154967,
			"-0.001": 33.3418452868,
			"0.0": 36.5518278809,
			"0.001": 27.3339466328,
			"0.002": 12.0765035661,
			"0.003": 9.980861703,
			"0.004": 8.98714990182,
			"0.005": 9.03331221495,
			"0.006": 11.1240372809,
			"0.007": 9.16712273411,
			"0.008": 4.63383742175,
			"0.009": 2.7517209723,
			"0.01": 2.69330423892,
			"0.011": 2.53041035913,
			"0.012": 2.26346720391,
			"0.013": 3.30719505355,
			"0.014": 2.05810264132,
			"0.015": 0.66169863656,
			"0.016": 0.00314651925957,
			"0.017": 0.0,
			"0.018": 0.0,
			"0.019": 0.0,
			"0.02": 0.0,
			"0.021": 0.0,
			"0.022": 0.0,
			"0.023": 0.0,
			"0.024": 0.0,
			"0.025": 0.0
		}
	}
}
