{
	 "smiles": "COC(=O)COC1=CC(C)=C(N)C=C1", 
	 "Tm": 378.15, 
	 "num_atms": 27, 
	 "gaussian": { 
		 "optdone": 1, 
		 "sigma_profile": "yes", 
		 "theory": "DFT", 
		 "functional": "B3LYP", 
		 "basiset": "6-31G**", 
		 "properties": { 
			 "R2extent": 3916.6771, 
			 "electric_dipole_moment_norm": 3.52764882322, 
			 "electric_quadrupole_moment_norm": 12.2073755791, 
			 "total_energy": -669.31827414, 
			 "HOMO_LUMO_gap": 0.19895, 
			 "cosmo_polarized_energy": -14.69, 
			 "cosmo_cavitation_energy": 30.98, 
			 "cosmo_dispersion_energy": -22.3, 
			 "cosmo_repulsion_energy": 1.79, 
			 "cosmo_total_nonelectrostatic_energy": 10.47, 
			 "SMD_solvation_energy": 6.91 
		},
		"coords": [
			{
				"x": 2.1914426178,
				"y": 2.7770249138,
				"z": -2.6947924935,
				"element": "C" 
			},
			{
				"x": 2.1259385266,
				"y": 1.4068438605,
				"z": -2.264183953,
				"element": "O" 
			},
			{
				"x": 0.8817811188,
				"y": 0.8851215907,
				"z": -2.177879073,
				"element": "C" 
			},
			{
				"x": -0.1296758576,
				"y": 1.4970195227,
				"z": -2.4293290635,
				"element": "O" 
			},
			{
				"x": 0.9770236032,
				"y": -0.576099863,
				"z": -1.7390893554,
				"element": "C" 
			},
			{
				"x": -0.2785974551,
				"y": -1.1969295878,
				"z": -1.6030451909,
				"element": "O" 
			},
			{
				"x": -0.9213492482,
				"y": -1.0144478446,
				"z": -0.3813037099,
				"element": "C" 
			},
			{
				"x": -1.9421315182,
				"y": -0.0704930912,
				"z": -0.2661222768,
				"element": "C" 
			},
			{
				"x": -2.6509699316,
				"y": 0.084776438,
				"z": 0.9271070815,
				"element": "C" 
			},
			{
				"x": -3.7683720703,
				"y": 1.0925397822,
				"z": 1.0383228831,
				"element": "C" 
			},
			{
				"x": -2.3120704701,
				"y": -0.7249358725,
				"z": 2.0360942097,
				"element": "C" 
			},
			{
				"x": -3.044122803,
				"y": -0.6292830674,
				"z": 3.2284983864,
				"element": "N" 
			},
			{
				"x": -1.2827011888,
				"y": -1.6696392353,
				"z": 1.9085565634,
				"element": "C" 
			},
			{
				"x": -0.5944124479,
				"y": -1.822292594,
				"z": 0.7067300668,
				"element": "C" 
			},
			{
				"x": 1.6519648493,
				"y": 3.4244459219,
				"z": -1.9989939384,
				"element": "H" 
			},
			{
				"x": 3.2511121935,
				"y": 3.031281474,
				"z": -2.7107860476,
				"element": "H" 
			},
			{
				"x": 1.7550104157,
				"y": 2.8886067666,
				"z": -3.6905308538,
				"element": "H" 
			},
			{
				"x": 1.5327316056,
				"y": -1.1196541195,
				"z": -2.5116383034,
				"element": "H" 
			},
			{
				"x": 1.5688792507,
				"y": -0.6237125786,
				"z": -0.8148831555,
				"element": "H" 
			},
			{
				"x": -2.1694636055,
				"y": 0.5486848872,
				"z": -1.1270190831,
				"element": "H" 
			},
			{
				"x": -3.9413202914,
				"y": 1.5930891418,
				"z": 0.0828232599,
				"element": "H" 
			},
			{
				"x": -3.5466131467,
				"y": 1.8752346139,
				"z": 1.7785912244,
				"element": "H" 
			},
			{
				"x": -4.7070174832,
				"y": 0.6163453369,
				"z": 1.3480745681,
				"element": "H" 
			},
			{
				"x": -3.4106696421,
				"y": 0.2907140384,
				"z": 3.4322247791,
				"element": "H" 
			},
			{
				"x": -2.5765555499,
				"y": -1.0219419591,
				"z": 4.0346408876,
				"element": "H" 
			},
			{
				"x": -1.0308165275,
				"y": -2.3006016176,
				"z": 2.7579383256,
				"element": "H" 
			},
			{
				"x": 0.1855750558,
				"y": -2.5713968582,
				"z": 0.6075942623,
				"element": "H" 
			}
		],
		 "valence_orbital": [ 
			{
				"type": "occ",
				"energy": -0.29221,
				"method": "rhf"
			},
			{
				"type": "occ",
				"energy": -0.28476,
				"method": "rhf"
			},
			{
				"type": "occ",
				"energy": -0.26108,
				"method": "rhf"
			},
			{
				"type": "occ",
				"energy": -0.23511,
				"method": "rhf"
			},
			{
				"type": "occ",
				"energy": -0.19151,
				"method": "rhf"
			},
			{
				"type": "unocc",
				"energy": 0.00744,
				"method": "rhf"
			},
			{
				"type": "unocc",
				"energy": 0.01363,
				"method": "rhf"
			},
			{
				"type": "unocc",
				"energy": 0.02634,
				"method": "rhf"
			},
			{
				"type": "unocc",
				"energy": 0.0792,
				"method": "rhf"
			},
			{
				"type": "unocc",
				"energy": 0.10249,
				"method": "rhf"
			}
		],
		"cosmo_sigma_profile": { 
			"-0.025": 0.0,
			"-0.024": 0.0,
			"-0.023": 0.0,
			"-0.022": 0.0,
			"-0.021": 0.0,
			"-0.02": 0.0,
			"-0.019": 0.0,
			"-0.018": 0.0,
			"-0.017": 0.0,
			"-0.016": 0.0,
			"-0.015": 0.0,
			"-0.014": 0.0,
			"-0.013": 0.0290717174174,
			"-0.012": 1.26511219491,
			"-0.011": 2.42997050702,
			"-0.01": 2.665066819,
			"-0.009": 3.07266755682,
			"-0.008": 4.65761954899,
			"-0.007": 7.21223874873,
			"-0.006": 13.7889825276,
			"-0.005": 17.8057027433,
			"-0.004": 22.548518739,
			"-0.003": 22.9730545034,
			"-0.002": 17.1734808603,
			"-0.001": 12.7662343883,
			"0.0": 15.6612394844,
			"0.001": 11.3241797279,
			"0.002": 9.08784977568,
			"0.003": 9.86673696812,
			"0.004": 10.3469921331,
			"0.005": 13.0954900072,
			"0.006": 13.9887569902,
			"0.007": 7.26686480132,
			"0.008": 5.93963749376,
			"0.009": 3.04589020595,
			"0.01": 4.48178290983,
			"0.011": 7.15685807004,
			"0.012": 3.29724339547,
			"0.013": 0.387754587836,
			"0.014": 0.697650058541,
			"0.015": 0.418628742941,
			"0.016": 0.0,
			"0.017": 0.0,
			"0.018": 0.0,
			"0.019": 0.0,
			"0.02": 0.0,
			"0.021": 0.0,
			"0.022": 0.0,
			"0.023": 0.0,
			"0.024": 0.0,
			"0.025": 0.0
		}
	}
}
