{
	 "smiles": "[O-][N+](=O)C1=C(F)C=C(C=C1)S(Cl)(=O)=O", 
	 "Tm": 319.15, 
	 "num_atms": 17, 
	 "gaussian": { 
		 "optdone": 1, 
		 "sigma_profile": "yes", 
		 "theory": "DFT", 
		 "functional": "B3LYP", 
		 "basiset": "6-31G**", 
		 "properties": { 
			 "R2extent": 4085.2006, 
			 "electric_dipole_moment_norm": 0.843974679715, 
			 "electric_quadrupole_moment_norm": 18.8562336841, 
			 "total_energy": -1544.11664576, 
			 "HOMO_LUMO_gap": 0.17897, 
			 "cosmo_polarized_energy": -12.16, 
			 "cosmo_cavitation_energy": 27.03, 
			 "cosmo_dispersion_energy": -20.12, 
			 "cosmo_repulsion_energy": 1.52, 
			 "cosmo_total_nonelectrostatic_energy": 8.43, 
			 "SMD_solvation_energy": 6.1 
		},
		"coords": [
			{
				"x": 2.8249171649,
				"y": 2.91074782,
				"z": 1.2866003349,
				"element": "O" 
			},
			{
				"x": 2.525191994,
				"y": 2.4450714606,
				"z": 0.1935132558,
				"element": "N" 
			},
			{
				"x": 3.0889109139,
				"y": 2.6950257454,
				"z": -0.8702283188,
				"element": "O" 
			},
			{
				"x": 1.3801588652,
				"y": 1.5176815686,
				"z": 0.1334977407,
				"element": "C" 
			},
			{
				"x": 0.8772998684,
				"y": 0.8887602083,
				"z": 1.2822101307,
				"element": "C" 
			},
			{
				"x": 1.4263347328,
				"y": 1.0594157127,
				"z": 2.4798581848,
				"element": "F" 
			},
			{
				"x": -0.2134608782,
				"y": 0.028864348,
				"z": 1.1826222237,
				"element": "C" 
			},
			{
				"x": -0.7822028767,
				"y": -0.1736430545,
				"z": -0.0700741178,
				"element": "C" 
			},
			{
				"x": -0.2959410009,
				"y": 0.4324263185,
				"z": -1.2291366268,
				"element": "C" 
			},
			{
				"x": 0.7996475906,
				"y": 1.2802833244,
				"z": -1.113853419,
				"element": "C" 
			},
			{
				"x": -2.181020518,
				"y": -1.295515345,
				"z": -0.1971662914,
				"element": "S" 
			},
			{
				"x": -3.792716436,
				"y": 0.058205767,
				"z": 0.0625495613,
				"element": "Cl" 
			},
			{
				"x": -2.2632890669,
				"y": -1.7869346118,
				"z": -1.565120453,
				"element": "O" 
			},
			{
				"x": -2.1845079106,
				"y": -2.1782742363,
				"z": 0.9606198837,
				"element": "O" 
			},
			{
				"x": -0.5873882346,
				"y": -0.469278838,
				"z": 2.0693691984,
				"element": "H" 
			},
			{
				"x": -0.7560677098,
				"y": 0.2363737595,
				"z": -2.1901023303,
				"element": "H" 
			},
			{
				"x": 1.2304335019,
				"y": 1.7698900524,
				"z": -1.9784589568,
				"element": "H" 
			}
		],
		 "valence_orbital": [ 
			{
				"type": "occ",
				"energy": -0.33395,
				"method": "rhf"
			},
			{
				"type": "occ",
				"energy": -0.33322,
				"method": "rhf"
			},
			{
				"type": "occ",
				"energy": -0.32761,
				"method": "rhf"
			},
			{
				"type": "occ",
				"energy": -0.31413,
				"method": "rhf"
			},
			{
				"type": "occ",
				"energy": -0.30791,
				"method": "rhf"
			},
			{
				"type": "unocc",
				"energy": -0.12894,
				"method": "rhf"
			},
			{
				"type": "unocc",
				"energy": -0.09664,
				"method": "rhf"
			},
			{
				"type": "unocc",
				"energy": -0.06403,
				"method": "rhf"
			},
			{
				"type": "unocc",
				"energy": -0.04871,
				"method": "rhf"
			},
			{
				"type": "unocc",
				"energy": 0.02348,
				"method": "rhf"
			}
		],
		"cosmo_sigma_profile": { 
			"-0.025": 0.0,
			"-0.024": 0.0,
			"-0.023": 0.0,
			"-0.022": 0.0,
			"-0.021": 0.0,
			"-0.02": 0.0,
			"-0.019": 0.0,
			"-0.018": 0.0,
			"-0.017": 0.0,
			"-0.016": 0.0,
			"-0.015": 0.0,
			"-0.014": 0.0,
			"-0.013": 0.0,
			"-0.012": 0.0,
			"-0.011": 0.734971366542,
			"-0.01": 2.92223761233,
			"-0.009": 6.54353912104,
			"-0.008": 7.47367151511,
			"-0.007": 7.14641726597,
			"-0.006": 9.73938547501,
			"-0.005": 12.1855013109,
			"-0.004": 15.1469208041,
			"-0.003": 16.7818243575,
			"-0.002": 16.4335874395,
			"-0.001": 10.7983525896,
			"0.0": 9.04108739136,
			"0.001": 13.342198785,
			"0.002": 19.8102379628,
			"0.003": 14.1079905619,
			"0.004": 7.27487360317,
			"0.005": 6.92657579126,
			"0.006": 12.1315046191,
			"0.007": 18.0880441496,
			"0.008": 11.8586756727,
			"0.009": 2.86987261503,
			"0.01": 0.073820821474,
			"0.011": 0.0,
			"0.012": 0.0,
			"0.013": 0.0,
			"0.014": 0.0,
			"0.015": 0.0,
			"0.016": 0.0,
			"0.017": 0.0,
			"0.018": 0.0,
			"0.019": 0.0,
			"0.02": 0.0,
			"0.021": 0.0,
			"0.022": 0.0,
			"0.023": 0.0,
			"0.024": 0.0,
			"0.025": 0.0
		}
	}
}
