{
	 "smiles": "OC(=O)CC1=CSC(NC(=O)C2=CC=CS2)=N1", 
	 "Tm": 468.15, 
	 "num_atms": 25, 
	 "gaussian": { 
		 "optdone": 1, 
		 "sigma_profile": "yes", 
		 "theory": "DFT", 
		 "functional": "B3LYP", 
		 "basiset": "6-31G**", 
		 "properties": { 
			 "R2extent": 5889.5977, 
			 "electric_dipole_moment_norm": 3.99669350464, 
			 "electric_quadrupole_moment_norm": 14.7191973144, 
			 "total_energy": -1517.43298348, 
			 "HOMO_LUMO_gap": 0.17014, 
			 "cosmo_polarized_energy": -17.93, 
			 "cosmo_cavitation_energy": 34.35, 
			 "cosmo_dispersion_energy": -24.95, 
			 "cosmo_repulsion_energy": 1.84, 
			 "cosmo_total_nonelectrostatic_energy": 11.23, 
			 "SMD_solvation_energy": 7.03 
		},
		"coords": [
			{
				"x": -1.90816977,
				"y": 2.6950268787,
				"z": 1.7196604859,
				"element": "O" 
			},
			{
				"x": -1.8970234023,
				"y": 1.3424724426,
				"z": 1.6891219817,
				"element": "C" 
			},
			{
				"x": -1.5251335196,
				"y": 0.664888377,
				"z": 2.6201169128,
				"element": "O" 
			},
			{
				"x": -2.3905528313,
				"y": 0.8097340215,
				"z": 0.352294911,
				"element": "C" 
			},
			{
				"x": -1.3707592599,
				"y": 1.0157146149,
				"z": -0.7374985599,
				"element": "C" 
			},
			{
				"x": -1.5616440964,
				"y": 1.6982106181,
				"z": -1.8995307561,
				"element": "C" 
			},
			{
				"x": -0.1088323488,
				"y": 1.6649240918,
				"z": -2.8624616262,
				"element": "S" 
			},
			{
				"x": 0.657130472,
				"y": 0.7067612761,
				"z": -1.5764636983,
				"element": "C" 
			},
			{
				"x": 1.96664408,
				"y": 0.3190641386,
				"z": -1.7659126789,
				"element": "N" 
			},
			{
				"x": 2.9542105592,
				"y": -0.4141014991,
				"z": -1.0690444205,
				"element": "C" 
			},
			{
				"x": 3.9996849411,
				"y": -0.5862615367,
				"z": -1.6916701247,
				"element": "O" 
			},
			{
				"x": 2.8069339021,
				"y": -0.931998174,
				"z": 0.2955277528,
				"element": "C" 
			},
			{
				"x": 1.8261927055,
				"y": -0.8945411215,
				"z": 1.267330615,
				"element": "C" 
			},
			{
				"x": 2.2101049461,
				"y": -1.554489941,
				"z": 2.4638746477,
				"element": "C" 
			},
			{
				"x": 3.4730694345,
				"y": -2.0872868109,
				"z": 2.3929046292,
				"element": "C" 
			},
			{
				"x": 4.2247124073,
				"y": -1.7953379751,
				"z": 0.8713438829,
				"element": "S" 
			},
			{
				"x": -0.1166147578,
				"y": 0.4593576977,
				"z": -0.5647941034,
				"element": "N" 
			},
			{
				"x": -1.5534849599,
				"y": 2.9505659069,
				"z": 2.5880469456,
				"element": "H" 
			},
			{
				"x": -2.585376684,
				"y": -0.2573155964,
				"z": 0.4879577881,
				"element": "H" 
			},
			{
				"x": -3.3233182648,
				"y": 1.3140459741,
				"z": 0.0862132178,
				"element": "H" 
			},
			{
				"x": -2.4458271383,
				"y": 2.2129605985,
				"z": -2.245593536,
				"element": "H" 
			},
			{
				"x": 2.3646518322,
				"y": 0.5700226476,
				"z": -2.6635132894,
				"element": "H" 
			},
			{
				"x": 0.8684171596,
				"y": -0.4185338216,
				"z": 1.1160256123,
				"element": "H" 
			},
			{
				"x": 1.5704391372,
				"y": -1.6275429575,
				"z": 3.3356902947,
				"element": "H" 
			},
			{
				"x": 4.0025454562,
				"y": -2.6385398503,
				"z": 3.158973116,
				"element": "H" 
			}
		],
		 "valence_orbital": [ 
			{
				"type": "occ",
				"energy": -0.28209,
				"method": "rhf"
			},
			{
				"type": "occ",
				"energy": -0.27323,
				"method": "rhf"
			},
			{
				"type": "occ",
				"energy": -0.25282,
				"method": "rhf"
			},
			{
				"type": "occ",
				"energy": -0.24058,
				"method": "rhf"
			},
			{
				"type": "occ",
				"energy": -0.22998,
				"method": "rhf"
			},
			{
				"type": "unocc",
				"energy": -0.05984,
				"method": "rhf"
			},
			{
				"type": "unocc",
				"energy": -0.02425,
				"method": "rhf"
			},
			{
				"type": "unocc",
				"energy": -0.01354,
				"method": "rhf"
			},
			{
				"type": "unocc",
				"energy": 0.00299,
				"method": "rhf"
			},
			{
				"type": "unocc",
				"energy": 0.03206,
				"method": "rhf"
			}
		],
		"cosmo_sigma_profile": { 
			"-0.025": 0.0,
			"-0.024": 0.0,
			"-0.023": 0.0,
			"-0.022": 0.0,
			"-0.021": 0.0,
			"-0.02": 0.0,
			"-0.019": 0.0369558041008,
			"-0.018": 0.992948435025,
			"-0.017": 0.801997878242,
			"-0.016": 1.71883528918,
			"-0.015": 1.187375751,
			"-0.014": 2.74676426252,
			"-0.013": 1.71057987274,
			"-0.012": 1.15598966821,
			"-0.011": 1.21917077761,
			"-0.01": 2.3472353197,
			"-0.009": 4.80272715276,
			"-0.008": 8.27182178852,
			"-0.007": 10.0153299388,
			"-0.006": 11.4065063488,
			"-0.005": 11.8602006635,
			"-0.004": 11.0470698675,
			"-0.003": 12.5710139407,
			"-0.002": 14.742983612,
			"-0.001": 19.3161828075,
			"0.0": 18.9791294836,
			"0.001": 23.8922876128,
			"0.002": 30.6369809872,
			"0.003": 28.2365390581,
			"0.004": 15.9135846114,
			"0.005": 6.30473522602,
			"0.006": 5.28129215439,
			"0.007": 4.72763706036,
			"0.008": 4.87833797953,
			"0.009": 4.754749298,
			"0.01": 4.17367827699,
			"0.011": 5.91339918859,
			"0.012": 8.09550379858,
			"0.013": 0.632984959951,
			"0.014": 0.0,
			"0.015": 0.0,
			"0.016": 0.0,
			"0.017": 0.0,
			"0.018": 0.0,
			"0.019": 0.0,
			"0.02": 0.0,
			"0.021": 0.0,
			"0.022": 0.0,
			"0.023": 0.0,
			"0.024": 0.0,
			"0.025": 0.0
		}
	}
}
