{
	 "smiles": "CC1=CC(=CC(C)=C1)C1=NN=C(S)O1", 
	 "Tm": 514.15, 
	 "num_atms": 24, 
	 "gaussian": { 
		 "optdone": 1, 
		 "sigma_profile": "yes", 
		 "theory": "DFT", 
		 "functional": "B3LYP", 
		 "basiset": "6-31G**", 
		 "properties": { 
			 "R2extent": 4894.2686, 
			 "electric_dipole_moment_norm": 2.84447475995, 
			 "electric_quadrupole_moment_norm": 12.2065928866, 
			 "total_energy": -969.98509287, 
			 "HOMO_LUMO_gap": 0.17971, 
			 "cosmo_polarized_energy": -10.31, 
			 "cosmo_cavitation_energy": 30.6, 
			 "cosmo_dispersion_energy": -22.87, 
			 "cosmo_repulsion_energy": 1.76, 
			 "cosmo_total_nonelectrostatic_energy": 9.48, 
			 "SMD_solvation_energy": 3.41 
		},
		"coords": [
			{
				"x": 0.2194887962,
				"y": 2.6773361276,
				"z": 1.676670869,
				"element": "C" 
			},
			{
				"x": 0.5301524505,
				"y": 1.5462023184,
				"z": 0.7242164029,
				"element": "C" 
			},
			{
				"x": -0.1488374243,
				"y": 0.3307530355,
				"z": 0.8102328778,
				"element": "C" 
			},
			{
				"x": 0.1294689236,
				"y": -0.7033566282,
				"z": -0.0971457786,
				"element": "C" 
			},
			{
				"x": 1.0955627118,
				"y": -0.5216101846,
				"z": -1.0954257871,
				"element": "C" 
			},
			{
				"x": 1.7916738561,
				"y": 0.6871085954,
				"z": -1.1939232215,
				"element": "C" 
			},
			{
				"x": 2.8600130649,
				"y": 0.8789178168,
				"z": -2.2453183273,
				"element": "C" 
			},
			{
				"x": 1.4953845225,
				"y": 1.7056916743,
				"z": -0.2810010942,
				"element": "C" 
			},
			{
				"x": -0.6025092405,
				"y": -1.9583023084,
				"z": 0.0197910843,
				"element": "C" 
			},
			{
				"x": -1.5234075701,
				"y": -2.2926712281,
				"z": 0.8734056105,
				"element": "N" 
			},
			{
				"x": -1.9107422004,
				"y": -3.5997418208,
				"z": 0.5712370347,
				"element": "N" 
			},
			{
				"x": -1.1880676999,
				"y": -3.9501136855,
				"z": -0.4466748401,
				"element": "C" 
			},
			{
				"x": -1.1634363674,
				"y": -5.4638896203,
				"z": -1.3338445803,
				"element": "S" 
			},
			{
				"x": -0.3343974407,
				"y": -2.980348061,
				"z": -0.8640536696,
				"element": "O" 
			},
			{
				"x": 1.1341791786,
				"y": 3.163960146,
				"z": 2.03058886,
				"element": "H" 
			},
			{
				"x": -0.3890560701,
				"y": 3.4483577975,
				"z": 1.1885978593,
				"element": "H" 
			},
			{
				"x": -0.3357519306,
				"y": 2.3230361004,
				"z": 2.5491611636,
				"element": "H" 
			},
			{
				"x": -0.9010645857,
				"y": 0.1699246751,
				"z": 1.5758060064,
				"element": "H" 
			},
			{
				"x": 1.3047349544,
				"y": -1.3252763736,
				"z": -1.7943441101,
				"element": "H" 
			},
			{
				"x": 3.855487138,
				"y": 0.6551966527,
				"z": -1.8421596281,
				"element": "H" 
			},
			{
				"x": 2.8820976924,
				"y": 1.9106799981,
				"z": -2.6091710412,
				"element": "H" 
			},
			{
				"x": 2.6998258489,
				"y": 0.2199028601,
				"z": -3.1033765672,
				"element": "H" 
			},
			{
				"x": 2.0303775406,
				"y": 2.6507474528,
				"z": -0.3533678193,
				"element": "H" 
			},
			{
				"x": -2.1204761489,
				"y": -6.0121053403,
				"z": -0.561001304,
				"element": "H" 
			}
		],
		 "valence_orbital": [ 
			{
				"type": "occ",
				"energy": -0.32139,
				"method": "rhf"
			},
			{
				"type": "occ",
				"energy": -0.28028,
				"method": "rhf"
			},
			{
				"type": "occ",
				"energy": -0.27274,
				"method": "rhf"
			},
			{
				"type": "occ",
				"energy": -0.24703,
				"method": "rhf"
			},
			{
				"type": "occ",
				"energy": -0.22814,
				"method": "rhf"
			},
			{
				"type": "unocc",
				"energy": -0.04843,
				"method": "rhf"
			},
			{
				"type": "unocc",
				"energy": -0.00612,
				"method": "rhf"
			},
			{
				"type": "unocc",
				"energy": -0.00242,
				"method": "rhf"
			},
			{
				"type": "unocc",
				"energy": 0.01337,
				"method": "rhf"
			},
			{
				"type": "unocc",
				"energy": 0.05361,
				"method": "rhf"
			}
		],
		"cosmo_sigma_profile": { 
			"-0.025": 0.0,
			"-0.024": 0.0,
			"-0.023": 0.0,
			"-0.022": 0.0,
			"-0.021": 0.0,
			"-0.02": 0.0,
			"-0.019": 0.0,
			"-0.018": 0.0,
			"-0.017": 0.0,
			"-0.016": 0.0,
			"-0.015": 0.0,
			"-0.014": 0.0860451023191,
			"-0.013": 1.5608855916,
			"-0.012": 1.80767005665,
			"-0.011": 0.794303638945,
			"-0.01": 1.61519042064,
			"-0.009": 1.15028447798,
			"-0.008": 1.25985021108,
			"-0.007": 1.70976182759,
			"-0.006": 3.50109567377,
			"-0.005": 11.5266662716,
			"-0.004": 21.8757555735,
			"-0.003": 22.670308434,
			"-0.002": 25.0991763377,
			"-0.001": 29.8415292428,
			"0.0": 29.067595005,
			"0.001": 19.063275331,
			"0.002": 16.6957971431,
			"0.003": 14.3939420428,
			"0.004": 14.4819053809,
			"0.005": 6.64024457028,
			"0.006": 2.99974194231,
			"0.007": 1.75793333645,
			"0.008": 1.53396610954,
			"0.009": 2.74635462451,
			"0.01": 2.40905547201,
			"0.011": 3.57257884152,
			"0.012": 2.90819487159,
			"0.013": 2.08544141214,
			"0.014": 1.84650317711,
			"0.015": 0.37265252957,
			"0.016": 0.0,
			"0.017": 0.0,
			"0.018": 0.0,
			"0.019": 0.0,
			"0.02": 0.0,
			"0.021": 0.0,
			"0.022": 0.0,
			"0.023": 0.0,
			"0.024": 0.0,
			"0.025": 0.0
		}
	}
}
