{
	 "smiles": "CN1C=NN=C1C1=CC=CC(N)=C1", 
	 "Tm": 431.15, 
	 "num_atms": 23, 
	 "gaussian": { 
		 "optdone": 1, 
		 "sigma_profile": "yes", 
		 "theory": "DFT", 
		 "functional": "B3LYP", 
		 "basiset": "6-31G**", 
		 "properties": { 
			 "R2extent": 2971.2552, 
			 "electric_dipole_moment_norm": 7.43487820815, 
			 "electric_quadrupole_moment_norm": 20.3555263427, 
			 "total_energy": -567.970444647, 
			 "HOMO_LUMO_gap": 0.18222, 
			 "cosmo_polarized_energy": -23.23, 
			 "cosmo_cavitation_energy": 26.93, 
			 "cosmo_dispersion_energy": -19.72, 
			 "cosmo_repulsion_energy": 1.54, 
			 "cosmo_total_nonelectrostatic_energy": 8.75, 
			 "SMD_solvation_energy": 3.07 
		},
		"coords": [
			{
				"x": -0.8338350588,
				"y": -2.5653505115,
				"z": -0.3990715854,
				"element": "C" 
			},
			{
				"x": 0.6212706201,
				"y": -2.5727457642,
				"z": -0.4278823827,
				"element": "N" 
			},
			{
				"x": 1.4142681261,
				"y": -3.6893515832,
				"z": -0.4440181348,
				"element": "C" 
			},
			{
				"x": 2.6788347477,
				"y": -3.3722010304,
				"z": -0.5680967789,
				"element": "N" 
			},
			{
				"x": 2.7433380226,
				"y": -2.0006406883,
				"z": -0.6395840834,
				"element": "N" 
			},
			{
				"x": 1.5131022103,
				"y": -1.5245605898,
				"z": -0.5539498846,
				"element": "C" 
			},
			{
				"x": 1.1801251783,
				"y": -0.0936612708,
				"z": -0.6216135968,
				"element": "C" 
			},
			{
				"x": 1.9969676432,
				"y": 0.7362521191,
				"z": -1.4073190457,
				"element": "C" 
			},
			{
				"x": 1.722088983,
				"y": 2.0994593941,
				"z": -1.4743728947,
				"element": "C" 
			},
			{
				"x": 0.6490348732,
				"y": 2.6524084061,
				"z": -0.7783374842,
				"element": "C" 
			},
			{
				"x": -0.1688022291,
				"y": 1.8378700865,
				"z": 0.021962478,
				"element": "C" 
			},
			{
				"x": -1.1965692037,
				"y": 2.3919997519,
				"z": 0.7879331625,
				"element": "N" 
			},
			{
				"x": 0.1099530143,
				"y": 0.4627968756,
				"z": 0.0931008499,
				"element": "C" 
			},
			{
				"x": -1.2117104813,
				"y": -1.7517481607,
				"z": -1.0200904374,
				"element": "H" 
			},
			{
				"x": -1.1998751596,
				"y": -3.5132371505,
				"z": -0.7990168414,
				"element": "H" 
			},
			{
				"x": -1.216560721,
				"y": -2.4434026087,
				"z": 0.6193952629,
				"element": "H" 
			},
			{
				"x": 1.0154829343,
				"y": -4.6915875328,
				"z": -0.3675449249,
				"element": "H" 
			},
			{
				"x": 2.8305406405,
				"y": 0.2998434454,
				"z": -1.9442860062,
				"element": "H" 
			},
			{
				"x": 2.3485050655,
				"y": 2.7442603893,
				"z": -2.0842277718,
				"element": "H" 
			},
			{
				"x": 0.4467329396,
				"y": 3.7188103472,
				"z": -0.8403022256,
				"element": "H" 
			},
			{
				"x": -1.5465821448,
				"y": 3.2811172369,
				"z": 0.4591697619,
				"element": "H" 
			},
			{
				"x": -1.9450782663,
				"y": 1.7596342984,
				"z": 1.0344050774,
				"element": "H" 
			},
			{
				"x": -0.4909317339,
				"y": -0.1556654596,
				"z": 0.753047486,
				"element": "H" 
			}
		],
		 "valence_orbital": [ 
			{
				"type": "occ",
				"energy": -0.28305,
				"method": "rhf"
			},
			{
				"type": "occ",
				"energy": -0.27432,
				"method": "rhf"
			},
			{
				"type": "occ",
				"energy": -0.2414,
				"method": "rhf"
			},
			{
				"type": "occ",
				"energy": -0.23183,
				"method": "rhf"
			},
			{
				"type": "occ",
				"energy": -0.20698,
				"method": "rhf"
			},
			{
				"type": "unocc",
				"energy": -0.02476,
				"method": "rhf"
			},
			{
				"type": "unocc",
				"energy": 0.00745,
				"method": "rhf"
			},
			{
				"type": "unocc",
				"energy": 0.03561,
				"method": "rhf"
			},
			{
				"type": "unocc",
				"energy": 0.06082,
				"method": "rhf"
			},
			{
				"type": "unocc",
				"energy": 0.07657,
				"method": "rhf"
			}
		],
		"cosmo_sigma_profile": { 
			"-0.025": 0.0,
			"-0.024": 0.0,
			"-0.023": 0.0,
			"-0.022": 0.0,
			"-0.021": 0.0,
			"-0.02": 0.0,
			"-0.019": 0.0,
			"-0.018": 0.0,
			"-0.017": 0.0,
			"-0.016": 0.0,
			"-0.015": 0.0,
			"-0.014": 0.0,
			"-0.013": 0.416988775515,
			"-0.012": 2.9095061043,
			"-0.011": 2.87734169438,
			"-0.01": 5.7567352627,
			"-0.009": 5.91013998198,
			"-0.008": 7.73715949967,
			"-0.007": 10.7557596184,
			"-0.006": 13.2648146904,
			"-0.005": 13.7466356288,
			"-0.004": 18.9667542414,
			"-0.003": 13.922964185,
			"-0.002": 8.9361498601,
			"-0.001": 9.05581309066,
			"0.0": 8.19455943737,
			"0.001": 8.9218720508,
			"0.002": 8.60085452335,
			"0.003": 9.60754107427,
			"0.004": 9.08873730362,
			"0.005": 12.4401826212,
			"0.006": 10.2837931933,
			"0.007": 3.07140052084,
			"0.008": 3.71132433992,
			"0.009": 3.15622603816,
			"0.01": 2.74736403025,
			"0.011": 2.60047818616,
			"0.012": 2.69161157919,
			"0.013": 3.81596359335,
			"0.014": 4.11072636841,
			"0.015": 3.4661430585,
			"0.016": 2.00437198087,
			"0.017": 1.92665204294,
			"0.018": 0.126820988138,
			"0.019": 0.0,
			"0.02": 0.0,
			"0.021": 0.0,
			"0.022": 0.0,
			"0.023": 0.0,
			"0.024": 0.0,
			"0.025": 0.0
		}
	}
}
