{
	 "smiles": "COC1=CC(=CC=C1)C1CC1C(O)=O", 
	 "Tm": 364.15, 
	 "num_atms": 26, 
	 "gaussian": { 
		 "optdone": 1, 
		 "sigma_profile": "yes", 
		 "theory": "DFT", 
		 "functional": "B3LYP", 
		 "basiset": "6-31G**", 
		 "properties": { 
			 "R2extent": 3382.459, 
			 "electric_dipole_moment_norm": 4.67438318819, 
			 "electric_quadrupole_moment_norm": 26.184628473, 
			 "total_energy": -652.043098415, 
			 "HOMO_LUMO_gap": 0.20813, 
			 "cosmo_polarized_energy": -14.76, 
			 "cosmo_cavitation_energy": 29.45, 
			 "cosmo_dispersion_energy": -20.87, 
			 "cosmo_repulsion_energy": 1.66, 
			 "cosmo_total_nonelectrostatic_energy": 10.24, 
			 "SMD_solvation_energy": 6.42 
		},
		"coords": [
			{
				"x": 1.451251405,
				"y": -2.8435433227,
				"z": -0.1957340308,
				"element": "C" 
			},
			{
				"x": 1.4845414614,
				"y": -1.8590417332,
				"z": 0.828527535,
				"element": "O" 
			},
			{
				"x": 1.1580823096,
				"y": -0.577904543,
				"z": 0.5072323917,
				"element": "C" 
			},
			{
				"x": 0.8118794756,
				"y": -0.1444787156,
				"z": -0.7750410395,
				"element": "C" 
			},
			{
				"x": 0.4864529054,
				"y": 1.2057151213,
				"z": -1.0050143415,
				"element": "C" 
			},
			{
				"x": 0.5093218102,
				"y": 2.1103597374,
				"z": 0.0618834721,
				"element": "C" 
			},
			{
				"x": 0.8537526388,
				"y": 1.6670808037,
				"z": 1.3468067803,
				"element": "C" 
			},
			{
				"x": 1.1775563287,
				"y": 0.3382766799,
				"z": 1.5741840819,
				"element": "C" 
			},
			{
				"x": 0.161002298,
				"y": 1.6451241439,
				"z": -2.4042258408,
				"element": "C" 
			},
			{
				"x": -0.7796212614,
				"y": 2.7703024475,
				"z": -2.7030461122,
				"element": "C" 
			},
			{
				"x": -1.1833089381,
				"y": 1.3533870624,
				"z": -3.0814244186,
				"element": "C" 
			},
			{
				"x": -2.3560130701,
				"y": 0.6843385272,
				"z": -2.4257417849,
				"element": "C" 
			},
			{
				"x": -2.4984868765,
				"y": 0.8060521546,
				"z": -1.0823540097,
				"element": "O" 
			},
			{
				"x": -3.1813258612,
				"y": 0.0802336332,
				"z": -3.0705189528,
				"element": "O" 
			},
			{
				"x": 0.4476425786,
				"y": -2.9417587818,
				"z": -0.6277077008,
				"element": "H" 
			},
			{
				"x": 1.7308473972,
				"y": -3.7830367206,
				"z": 0.2826375602,
				"element": "H" 
			},
			{
				"x": 2.1681935843,
				"y": -2.618438284,
				"z": -0.9954997565,
				"element": "H" 
			},
			{
				"x": 0.7796861141,
				"y": -0.8381262997,
				"z": -1.6073029704,
				"element": "H" 
			},
			{
				"x": 0.2811173554,
				"y": 3.1571833279,
				"z": -0.1107549851,
				"element": "H" 
			},
			{
				"x": 0.8720547523,
				"y": 2.3720182938,
				"z": 2.172761374,
				"element": "H" 
			},
			{
				"x": 1.4443166554,
				"y": -0.022939146,
				"z": 2.5617102033,
				"element": "H" 
			},
			{
				"x": 0.99876877,
				"y": 1.5412986815,
				"z": -3.0920407188,
				"element": "H" 
			},
			{
				"x": -1.3183665816,
				"y": 3.2229724673,
				"z": -1.8757109964,
				"element": "H" 
			},
			{
				"x": -0.543509028,
				"y": 3.4586473357,
				"z": -3.5078543445,
				"element": "H" 
			},
			{
				"x": -1.1423652979,
				"y": 1.1006041235,
				"z": -4.1349569625,
				"element": "H" 
			},
			{
				"x": -1.6922709254,
				"y": 1.1570730057,
				"z": -0.6684144327,
				"element": "H" 
			}
		],
		 "valence_orbital": [ 
			{
				"type": "occ",
				"energy": -0.31571,
				"method": "rhf"
			},
			{
				"type": "occ",
				"energy": -0.29703,
				"method": "rhf"
			},
			{
				"type": "occ",
				"energy": -0.25986,
				"method": "rhf"
			},
			{
				"type": "occ",
				"energy": -0.2552,
				"method": "rhf"
			},
			{
				"type": "occ",
				"energy": -0.2342,
				"method": "rhf"
			},
			{
				"type": "unocc",
				"energy": -0.02607,
				"method": "rhf"
			},
			{
				"type": "unocc",
				"energy": -0.00481,
				"method": "rhf"
			},
			{
				"type": "unocc",
				"energy": 0.01764,
				"method": "rhf"
			},
			{
				"type": "unocc",
				"energy": 0.0774,
				"method": "rhf"
			},
			{
				"type": "unocc",
				"energy": 0.08668,
				"method": "rhf"
			}
		],
		"cosmo_sigma_profile": { 
			"-0.025": 0.0,
			"-0.024": 0.0,
			"-0.023": 0.0,
			"-0.022": 0.0,
			"-0.021": 0.0,
			"-0.02": 0.0,
			"-0.019": 0.0,
			"-0.018": 0.0,
			"-0.017": 0.0,
			"-0.016": 0.0,
			"-0.015": 0.0,
			"-0.014": 0.0,
			"-0.013": 0.0,
			"-0.012": 0.0385339549508,
			"-0.011": 0.266528894088,
			"-0.01": 0.516537908041,
			"-0.009": 0.813389271328,
			"-0.008": 1.48587711387,
			"-0.007": 5.12007509274,
			"-0.006": 21.7920866024,
			"-0.005": 24.3108094739,
			"-0.004": 22.475323355,
			"-0.003": 22.2215745754,
			"-0.002": 16.5221517081,
			"-0.001": 14.2038391388,
			"0.0": 11.9999699856,
			"0.001": 13.4689010258,
			"0.002": 11.5913193895,
			"0.003": 12.582645284,
			"0.004": 9.98483579022,
			"0.005": 7.39614911911,
			"0.006": 4.53019082699,
			"0.007": 3.05884033261,
			"0.008": 3.09184504424,
			"0.009": 4.7039144729,
			"0.01": 5.18371089843,
			"0.011": 5.05333891536,
			"0.012": 6.21237146571,
			"0.013": 4.26432113417,
			"0.014": 0.856737900727,
			"0.015": 0.0,
			"0.016": 0.0,
			"0.017": 0.0,
			"0.018": 0.0,
			"0.019": 0.0,
			"0.02": 0.0,
			"0.021": 0.0,
			"0.022": 0.0,
			"0.023": 0.0,
			"0.024": 0.0,
			"0.025": 0.0
		}
	}
}
