{
	 "smiles": "CCCCCCCCC#CCCCCCCCC(O)=O", 
	 "Tm": 319.65, 
	 "num_atms": 52, 
	 "gaussian": { 
		 "optdone": 1, 
		 "sigma_profile": "yes", 
		 "theory": "DFT", 
		 "functional": "B3LYP", 
		 "basiset": "6-31G**", 
		 "properties": { 
			 "R2extent": 8970.0451, 
			 "electric_dipole_moment_norm": 1.66365341643, 
			 "electric_quadrupole_moment_norm": 18.2462431369, 
			 "total_energy": -855.648231002, 
			 "HOMO_LUMO_gap": 0.24874, 
			 "cosmo_polarized_energy": -10.66, 
			 "cosmo_cavitation_energy": 52.85, 
			 "cosmo_dispersion_energy": -32.63, 
			 "cosmo_repulsion_energy": 2.6, 
			 "cosmo_total_nonelectrostatic_energy": 22.82, 
			 "SMD_solvation_energy": 8.51 
		},
		"coords": [
			{
				"x": 3.4146610305,
				"y": -2.4242747386,
				"z": -3.2220937276,
				"element": "C" 
			},
			{
				"x": 3.0284478276,
				"y": -1.376028997,
				"z": -2.1728839863,
				"element": "C" 
			},
			{
				"x": 3.4153633933,
				"y": -1.7898612003,
				"z": -0.7453430614,
				"element": "C" 
			},
			{
				"x": 3.1209929363,
				"y": -0.7397705943,
				"z": 0.3397592604,
				"element": "C" 
			},
			{
				"x": 1.6274800596,
				"y": -0.4644097496,
				"z": 0.5713154692,
				"element": "C" 
			},
			{
				"x": 1.3314806414,
				"y": 0.5872069057,
				"z": 1.6553384096,
				"element": "C" 
			},
			{
				"x": 1.7325745051,
				"y": 0.2102027751,
				"z": 3.0902079249,
				"element": "C" 
			},
			{
				"x": 1.0206347379,
				"y": -1.0435693196,
				"z": 3.6497774846,
				"element": "C" 
			},
			{
				"x": -0.4409911645,
				"y": -0.9395595372,
				"z": 3.6692683148,
				"element": "C" 
			},
			{
				"x": -1.6485732719,
				"y": -0.8491050505,
				"z": 3.6928408261,
				"element": "C" 
			},
			{
				"x": -3.1097843683,
				"y": -0.7534574256,
				"z": 3.7474204489,
				"element": "C" 
			},
			{
				"x": -3.7605913948,
				"y": -0.1097747896,
				"z": 2.5028751863,
				"element": "C" 
			},
			{
				"x": -3.5329719181,
				"y": -0.8994984214,
				"z": 1.2068490795,
				"element": "C" 
			},
			{
				"x": -4.3818906428,
				"y": -0.413416072,
				"z": 0.0182026969,
				"element": "C" 
			},
			{
				"x": -4.1007794612,
				"y": 1.0175240077,
				"z": -0.4766969707,
				"element": "C" 
			},
			{
				"x": -2.7249043394,
				"y": 1.2503577567,
				"z": -1.1244258337,
				"element": "C" 
			},
			{
				"x": -2.5313298158,
				"y": 0.4623088677,
				"z": -2.4370850957,
				"element": "C" 
			},
			{
				"x": -1.2810404205,
				"y": 0.8561005091,
				"z": -3.1886051118,
				"element": "C" 
			},
			{
				"x": -0.1548128573,
				"y": 0.6372155238,
				"z": -2.4566284247,
				"element": "O" 
			},
			{
				"x": -1.2377487117,
				"y": 1.3204232077,
				"z": -4.305922202,
				"element": "O" 
			},
			{
				"x": 4.4952959653,
				"y": -2.6076327029,
				"z": -3.2203602801,
				"element": "H" 
			},
			{
				"x": 2.9184456664,
				"y": -3.3815288448,
				"z": -3.0252200201,
				"element": "H" 
			},
			{
				"x": 3.1329828357,
				"y": -2.1068889627,
				"z": -4.2316443674,
				"element": "H" 
			},
			{
				"x": 1.9486302902,
				"y": -1.1911015846,
				"z": -2.2289903411,
				"element": "H" 
			},
			{
				"x": 3.519440259,
				"y": -0.4215749865,
				"z": -2.4127131385,
				"element": "H" 
			},
			{
				"x": 2.9005378648,
				"y": -2.7277875772,
				"z": -0.4909741485,
				"element": "H" 
			},
			{
				"x": 4.4891149464,
				"y": -2.0224898254,
				"z": -0.7296587912,
				"element": "H" 
			},
			{
				"x": 3.6260226935,
				"y": 0.202082978,
				"z": 0.0783170597,
				"element": "H" 
			},
			{
				"x": 3.5820959546,
				"y": -1.0761947501,
				"z": 1.2773800221,
				"element": "H" 
			},
			{
				"x": 1.1211785942,
				"y": -1.4075811394,
				"z": 0.8202307244,
				"element": "H" 
			},
			{
				"x": 1.1659003743,
				"y": -0.1211403041,
				"z": -0.3606806315,
				"element": "H" 
			},
			{
				"x": 1.8375311286,
				"y": 1.5252798503,
				"z": 1.3890950197,
				"element": "H" 
			},
			{
				"x": 0.2566605477,
				"y": 0.8063860815,
				"z": 1.6473657649,
				"element": "H" 
			},
			{
				"x": 2.8142305476,
				"y": 0.0400228494,
				"z": 3.1543245116,
				"element": "H" 
			},
			{
				"x": 1.5134360269,
				"y": 1.0574486682,
				"z": 3.7508016991,
				"element": "H" 
			},
			{
				"x": 1.3814721744,
				"y": -1.2279778716,
				"z": 4.6704104892,
				"element": "H" 
			},
			{
				"x": 1.3133522278,
				"y": -1.9267807743,
				"z": 3.0668281426,
				"element": "H" 
			},
			{
				"x": -3.5305551359,
				"y": -1.7592833857,
				"z": 3.8885336597,
				"element": "H" 
			},
			{
				"x": -3.3992306228,
				"y": -0.1787313547,
				"z": 4.6374188508,
				"element": "H" 
			},
			{
				"x": -4.8391392546,
				"y": -0.0293144779,
				"z": 2.6949283764,
				"element": "H" 
			},
			{
				"x": -3.38397474,
				"y": 0.9143912805,
				"z": 2.3985844534,
				"element": "H" 
			},
			{
				"x": -2.4654096137,
				"y": -0.8837165146,
				"z": 0.9555617299,
				"element": "H" 
			},
			{
				"x": -3.7796150214,
				"y": -1.9541165698,
				"z": 1.3913423696,
				"element": "H" 
			},
			{
				"x": -4.2619838238,
				"y": -1.1186220866,
				"z": -0.8144971875,
				"element": "H" 
			},
			{
				"x": -5.441580587,
				"y": -0.4728757871,
				"z": 0.3016084628,
				"element": "H" 
			},
			{
				"x": -4.8770904954,
				"y": 1.2923633595,
				"z": -1.2034747966,
				"element": "H" 
			},
			{
				"x": -4.2135230225,
				"y": 1.7209328368,
				"z": 0.3573596081,
				"element": "H" 
			},
			{
				"x": -1.9182248443,
				"y": 0.9966537317,
				"z": -0.4283851534,
				"element": "H" 
			},
			{
				"x": -2.6211405523,
				"y": 2.3212122565,
				"z": -1.3386355295,
				"element": "H" 
			},
			{
				"x": -2.473920966,
				"y": -0.6118739574,
				"z": -2.2257477635,
				"element": "H" 
			},
			{
				"x": -3.3717853541,
				"y": 0.6285467487,
				"z": -3.1160655176,
				"element": "H" 
			},
			{
				"x": 0.589729171,
				"y": 0.9269791583,
				"z": -3.010113965,
				"element": "H" 
			}
		],
		 "valence_orbital": [ 
			{
				"type": "occ",
				"energy": -0.30578,
				"method": "rhf"
			},
			{
				"type": "occ",
				"energy": -0.29947,
				"method": "rhf"
			},
			{
				"type": "occ",
				"energy": -0.27059,
				"method": "rhf"
			},
			{
				"type": "occ",
				"energy": -0.24182,
				"method": "rhf"
			},
			{
				"type": "occ",
				"energy": -0.24,
				"method": "rhf"
			},
			{
				"type": "unocc",
				"energy": 0.00874,
				"method": "rhf"
			},
			{
				"type": "unocc",
				"energy": 0.05225,
				"method": "rhf"
			},
			{
				"type": "unocc",
				"energy": 0.05849,
				"method": "rhf"
			},
			{
				"type": "unocc",
				"energy": 0.06354,
				"method": "rhf"
			},
			{
				"type": "unocc",
				"energy": 0.07762,
				"method": "rhf"
			}
		],
		"cosmo_sigma_profile": { 
			"-0.025": 0.0,
			"-0.024": 0.0,
			"-0.023": 0.0,
			"-0.022": 0.0,
			"-0.021": 0.0,
			"-0.02": 0.0,
			"-0.019": 0.0,
			"-0.018": 0.0,
			"-0.017": 0.0818356368324,
			"-0.016": 0.792474950955,
			"-0.015": 0.419540924592,
			"-0.014": 0.907294733779,
			"-0.013": 0.732173604399,
			"-0.012": 0.363381043986,
			"-0.011": 0.574150909939,
			"-0.01": 0.8111357717,
			"-0.009": 0.921670042867,
			"-0.008": 1.16621707629,
			"-0.007": 0.851102316984,
			"-0.006": 1.43573253001,
			"-0.005": 7.5468829993,
			"-0.004": 17.9043411599,
			"-0.003": 30.5618174802,
			"-0.002": 65.4232262695,
			"-0.001": 74.3377328091,
			"0.0": 64.5040969652,
			"0.001": 52.5057366885,
			"0.002": 24.8244730623,
			"0.003": 11.0832808584,
			"0.004": 8.43723265161,
			"0.005": 9.98054562056,
			"0.006": 7.24708906633,
			"0.007": 5.70154610486,
			"0.008": 4.96198139556,
			"0.009": 1.74070732021,
			"0.01": 2.3824273474,
			"0.011": 2.86750808534,
			"0.012": 5.36282011416,
			"0.013": 1.51218636056,
			"0.014": 0.056620687476,
			"0.015": 0.0,
			"0.016": 0.0,
			"0.017": 0.0,
			"0.018": 0.0,
			"0.019": 0.0,
			"0.02": 0.0,
			"0.021": 0.0,
			"0.022": 0.0,
			"0.023": 0.0,
			"0.024": 0.0,
			"0.025": 0.0
		}
	}
}
