{
	 "smiles": "OC(CBr)C(O)CBr", 
	 "Tm": 356.15, 
	 "num_atms": 16, 
	 "gaussian": { 
		 "optdone": 1, 
		 "sigma_profile": "yes", 
		 "theory": "DFT", 
		 "functional": "B3LYP", 
		 "basiset": "6-31G**", 
		 "properties": { 
			 "R2extent": 3455.3842, 
			 "electric_dipole_moment_norm": 3.20393508985, 
			 "electric_quadrupole_moment_norm": 7.34713965772, 
			 "total_energy": -5450.48668569, 
			 "HOMO_LUMO_gap": 0.24043, 
			 "cosmo_polarized_energy": -12.8, 
			 "cosmo_cavitation_energy": 23.1, 
			 "cosmo_dispersion_energy": -17.86, 
			 "cosmo_repulsion_energy": 1.5, 
			 "cosmo_total_nonelectrostatic_energy": 6.75, 
			 "SMD_solvation_energy": 1.6 
		},
		"coords": [
			{
				"x": 1.354381946,
				"y": -0.0304236475,
				"z": -1.1454820426,
				"element": "O" 
			},
			{
				"x": 0.1638136144,
				"y": 0.6932107331,
				"z": -1.4374777796,
				"element": "C" 
			},
			{
				"x": -0.6419048785,
				"y": -0.1900614965,
				"z": -2.3966074885,
				"element": "C" 
			},
			{
				"x": -2.3567991219,
				"y": 0.6097846638,
				"z": -3.0084066532,
				"element": "Br" 
			},
			{
				"x": -0.5713772883,
				"y": 1.0156005535,
				"z": -0.1107277084,
				"element": "C" 
			},
			{
				"x": -1.3799509491,
				"y": 2.1739786925,
				"z": -0.2737961074,
				"element": "O" 
			},
			{
				"x": 0.3857819759,
				"y": 1.3722356096,
				"z": 1.0312266322,
				"element": "C" 
			},
			{
				"x": 0.9396282694,
				"y": -0.1931266688,
				"z": 2.0947977141,
				"element": "Br" 
			},
			{
				"x": 1.9377344212,
				"y": 0.0132194203,
				"z": -1.9140331777,
				"element": "H" 
			},
			{
				"x": 0.387918467,
				"y": 1.6602488825,
				"z": -1.9095246446,
				"element": "H" 
			},
			{
				"x": -0.906135336,
				"y": -1.1338859567,
				"z": -1.9205933097,
				"element": "H" 
			},
			{
				"x": -0.0867153191,
				"y": -0.3816596191,
				"z": -3.3150122357,
				"element": "H" 
			},
			{
				"x": -1.1785373352,
				"y": 0.1509133095,
				"z": 0.1941067975,
				"element": "H" 
			},
			{
				"x": -2.0430456877,
				"y": 1.9828596693,
				"z": -0.9543874021,
				"element": "H" 
			},
			{
				"x": -0.1352733772,
				"y": 2.0299537733,
				"z": 1.7237822177,
				"element": "H" 
			},
			{
				"x": 1.303680599,
				"y": 1.8393520811,
				"z": 0.679635188,
				"element": "H" 
			}
		],
		 "valence_orbital": [ 
			{
				"type": "occ",
				"energy": -0.29447,
				"method": "rhf"
			},
			{
				"type": "occ",
				"energy": -0.29379,
				"method": "rhf"
			},
			{
				"type": "occ",
				"energy": -0.2779,
				"method": "rhf"
			},
			{
				"type": "occ",
				"energy": -0.26485,
				"method": "rhf"
			},
			{
				"type": "occ",
				"energy": -0.26114,
				"method": "rhf"
			},
			{
				"type": "unocc",
				"energy": -0.02071,
				"method": "rhf"
			},
			{
				"type": "unocc",
				"energy": 0.00624,
				"method": "rhf"
			},
			{
				"type": "unocc",
				"energy": 0.05436,
				"method": "rhf"
			},
			{
				"type": "unocc",
				"energy": 0.08644,
				"method": "rhf"
			},
			{
				"type": "unocc",
				"energy": 0.10388,
				"method": "rhf"
			}
		],
		"cosmo_sigma_profile": { 
			"-0.025": 0.0,
			"-0.024": 0.0,
			"-0.023": 0.0,
			"-0.022": 0.0,
			"-0.021": 0.0,
			"-0.02": 0.0,
			"-0.019": 0.0,
			"-0.018": 0.0,
			"-0.017": 0.586238959051,
			"-0.016": 1.40322353321,
			"-0.015": 1.21118338859,
			"-0.014": 1.14121291373,
			"-0.013": 1.37687822969,
			"-0.012": 0.809890786436,
			"-0.011": 1.02552027043,
			"-0.01": 1.35864552053,
			"-0.009": 1.81053343457,
			"-0.008": 3.95772514063,
			"-0.007": 7.96768243382,
			"-0.006": 10.0307365916,
			"-0.005": 12.9123269473,
			"-0.004": 10.8707922808,
			"-0.003": 10.6793423766,
			"-0.002": 10.564333148,
			"-0.001": 11.7450496984,
			"0.0": 9.93473744169,
			"0.001": 8.17022651406,
			"0.002": 10.0906021378,
			"0.003": 9.49353841108,
			"0.004": 11.5154673386,
			"0.005": 15.3922428917,
			"0.006": 11.9755057089,
			"0.007": 5.02609823546,
			"0.008": 2.98827334261,
			"0.009": 2.11658498639,
			"0.01": 2.56550896842,
			"0.011": 2.80567302713,
			"0.012": 3.3040876752,
			"0.013": 2.14884731435,
			"0.014": 0.0268922582363,
			"0.015": 0.0,
			"0.016": 0.0,
			"0.017": 0.0,
			"0.018": 0.0,
			"0.019": 0.0,
			"0.02": 0.0,
			"0.021": 0.0,
			"0.022": 0.0,
			"0.023": 0.0,
			"0.024": 0.0,
			"0.025": 0.0
		}
	}
}
