{
	 "smiles": "ClC1=CC(=CC(Cl)=C1)N1C=CC=C1C=O", 
	 "Tm": 424.15, 
	 "num_atms": 22, 
	 "gaussian": { 
		 "optdone": 1, 
		 "sigma_profile": "yes", 
		 "theory": "DFT", 
		 "functional": "B3LYP", 
		 "basiset": "6-31G**", 
		 "properties": { 
			 "R2extent": 5193.9443, 
			 "electric_dipole_moment_norm": 3.68185964018, 
			 "electric_quadrupole_moment_norm": 12.159132189, 
			 "total_energy": -1473.72479414, 
			 "HOMO_LUMO_gap": 0.17731, 
			 "cosmo_polarized_energy": -11.22, 
			 "cosmo_cavitation_energy": 31.06, 
			 "cosmo_dispersion_energy": -22.16, 
			 "cosmo_repulsion_energy": 1.74, 
			 "cosmo_total_nonelectrostatic_energy": 10.64, 
			 "SMD_solvation_energy": 6.1 
		},
		"coords": [
			{
				"x": 0.8920561062,
				"y": 0.87885571,
				"z": 4.1580181287,
				"element": "Cl" 
			},
			{
				"x": 0.2389929904,
				"y": -0.1602510618,
				"z": 2.9082564256,
				"element": "C" 
			},
			{
				"x": 0.374853347,
				"y": 0.2167610458,
				"z": 1.5737400358,
				"element": "C" 
			},
			{
				"x": -0.1514754701,
				"y": -0.6169232906,
				"z": 0.5815594809,
				"element": "C" 
			},
			{
				"x": -0.799490381,
				"y": -1.8105212141,
				"z": 0.918652023,
				"element": "C" 
			},
			{
				"x": -0.8961609736,
				"y": -2.1626578585,
				"z": 2.2632408963,
				"element": "C" 
			},
			{
				"x": -1.7014062513,
				"y": -3.6557727978,
				"z": 2.6970571939,
				"element": "Cl" 
			},
			{
				"x": -0.3875576269,
				"y": -1.3500771961,
				"z": 3.2765817468,
				"element": "C" 
			},
			{
				"x": -0.0521271998,
				"y": -0.2180730634,
				"z": -0.7800897829,
				"element": "N" 
			},
			{
				"x": -0.4669739391,
				"y": 1.003895887,
				"z": -1.2521771197,
				"element": "C" 
			},
			{
				"x": -0.2771542753,
				"y": 1.0433116677,
				"z": -2.6218197998,
				"element": "C" 
			},
			{
				"x": 0.2758288705,
				"y": -0.1966288963,
				"z": -3.002777087,
				"element": "C" 
			},
			{
				"x": 0.4146990235,
				"y": -0.9771202634,
				"z": -1.8614749814,
				"element": "C" 
			},
			{
				"x": 1.0511347954,
				"y": -2.2825443593,
				"z": -1.7474075537,
				"element": "C" 
			},
			{
				"x": 1.4364320437,
				"y": -2.9246079895,
				"z": -2.7123829488,
				"element": "O" 
			},
			{
				"x": 0.8940242971,
				"y": 1.1287996158,
				"z": 1.3057163977,
				"element": "H" 
			},
			{
				"x": -1.2363444144,
				"y": -2.4367530059,
				"z": 0.1507348744,
				"element": "H" 
			},
			{
				"x": -0.4774302281,
				"y": -1.6345659094,
				"z": 4.3172588285,
				"element": "H" 
			},
			{
				"x": -0.901353515,
				"y": 1.728645167,
				"z": -0.5792011107,
				"element": "H" 
			},
			{
				"x": -0.5205007629,
				"y": 1.8766025936,
				"z": -3.2654492757,
				"element": "H" 
			},
			{
				"x": 0.5776810787,
				"y": -0.5161554237,
				"z": -3.9896743833,
				"element": "H" 
			},
			{
				"x": 1.1859724851,
				"y": -2.6695193571,
				"z": -0.7162619888,
				"element": "H" 
			}
		],
		 "valence_orbital": [ 
			{
				"type": "occ",
				"energy": -0.29339,
				"method": "rhf"
			},
			{
				"type": "occ",
				"energy": -0.27234,
				"method": "rhf"
			},
			{
				"type": "occ",
				"energy": -0.2582,
				"method": "rhf"
			},
			{
				"type": "occ",
				"energy": -0.24945,
				"method": "rhf"
			},
			{
				"type": "occ",
				"energy": -0.23771,
				"method": "rhf"
			},
			{
				"type": "unocc",
				"energy": -0.0604,
				"method": "rhf"
			},
			{
				"type": "unocc",
				"energy": -0.04612,
				"method": "rhf"
			},
			{
				"type": "unocc",
				"energy": -0.03965,
				"method": "rhf"
			},
			{
				"type": "unocc",
				"energy": -0.00987,
				"method": "rhf"
			},
			{
				"type": "unocc",
				"energy": 0.03135,
				"method": "rhf"
			}
		],
		"cosmo_sigma_profile": { 
			"-0.025": 0.0,
			"-0.024": 0.0,
			"-0.023": 0.0,
			"-0.022": 0.0,
			"-0.021": 0.0,
			"-0.02": 0.0,
			"-0.019": 0.0,
			"-0.018": 0.0,
			"-0.017": 0.0,
			"-0.016": 0.0,
			"-0.015": 0.0,
			"-0.014": 0.0,
			"-0.013": 0.0,
			"-0.012": 0.0,
			"-0.011": 0.0,
			"-0.01": 0.0158010397082,
			"-0.009": 3.7887126944,
			"-0.008": 8.00345232197,
			"-0.007": 9.72480447908,
			"-0.006": 12.6667121332,
			"-0.005": 12.3418072207,
			"-0.004": 14.0509309669,
			"-0.003": 14.6816943475,
			"-0.002": 17.7561055402,
			"-0.001": 20.1736063354,
			"0.0": 30.6287070925,
			"0.001": 21.7283681995,
			"0.002": 15.9013338932,
			"0.003": 24.2650874004,
			"0.004": 23.3635637495,
			"0.005": 6.35381241583,
			"0.006": 1.7755974212,
			"0.007": 1.6983915301,
			"0.008": 1.35511009621,
			"0.009": 2.13633719296,
			"0.01": 1.67978650861,
			"0.011": 3.18798337551,
			"0.012": 4.88159875685,
			"0.013": 2.63667767559,
			"0.014": 0.499992498998,
			"0.015": 0.0,
			"0.016": 0.0,
			"0.017": 0.0,
			"0.018": 0.0,
			"0.019": 0.0,
			"0.02": 0.0,
			"0.021": 0.0,
			"0.022": 0.0,
			"0.023": 0.0,
			"0.024": 0.0,
			"0.025": 0.0
		}
	}
}
