{
	 "smiles": "OC(=O)C1=CC(=CC=C1)S(=O)(=O)NC1=CC2=C(OCO2)C=C1", 
	 "Tm": 523.15, 
	 "num_atms": 33, 
	 "gaussian": { 
		 "optdone": 1, 
		 "sigma_profile": "yes", 
		 "theory": "DFT", 
		 "functional": "B3LYP", 
		 "basiset": "6-31G**", 
		 "properties": { 
			 "R2extent": 8681.9598, 
			 "electric_dipole_moment_norm": 4.50834439013, 
			 "electric_quadrupole_moment_norm": 18.4817289321, 
			 "total_energy": -1444.31929858, 
			 "HOMO_LUMO_gap": 0.14428, 
			 "cosmo_polarized_energy": -22.14, 
			 "cosmo_cavitation_energy": 40.11, 
			 "cosmo_dispersion_energy": -28.62, 
			 "cosmo_repulsion_energy": 2.15, 
			 "cosmo_total_nonelectrostatic_energy": 13.65, 
			 "SMD_solvation_energy": 7.84 
		},
		"coords": [
			{
				"x": 4.068641211,
				"y": 3.8824658918,
				"z": 1.9568107805,
				"element": "O" 
			},
			{
				"x": 3.9922864622,
				"y": 3.7689289461,
				"z": 0.6099244356,
				"element": "C" 
			},
			{
				"x": 4.4763512148,
				"y": 4.5891572556,
				"z": -0.1434009193,
				"element": "O" 
			},
			{
				"x": 3.257522644,
				"y": 2.5493160732,
				"z": 0.171436165,
				"element": "C" 
			},
			{
				"x": 2.7261073482,
				"y": 1.6349289407,
				"z": 1.0882714706,
				"element": "C" 
			},
			{
				"x": 2.0562323616,
				"y": 0.5110464061,
				"z": 0.6063026319,
				"element": "C" 
			},
			{
				"x": 1.9130689107,
				"y": 0.2769438301,
				"z": -0.7644620247,
				"element": "C" 
			},
			{
				"x": 2.4448939384,
				"y": 1.1976901588,
				"z": -1.6691789113,
				"element": "C" 
			},
			{
				"x": 3.1120181909,
				"y": 2.3290015159,
				"z": -1.2052579171,
				"element": "C" 
			},
			{
				"x": 1.3423330614,
				"y": -0.6479593831,
				"z": 1.7821921267,
				"element": "S" 
			},
			{
				"x": 1.3043358197,
				"y": -1.9566255058,
				"z": 1.1316440701,
				"element": "O" 
			},
			{
				"x": 1.9817144834,
				"y": -0.4257372722,
				"z": 3.0788434275,
				"element": "O" 
			},
			{
				"x": -0.267697935,
				"y": -0.1654451132,
				"z": 2.0267868922,
				"element": "N" 
			},
			{
				"x": -1.2216728742,
				"y": -0.1040077518,
				"z": 0.9684404431,
				"element": "C" 
			},
			{
				"x": -1.5693336126,
				"y": -1.2920318279,
				"z": 0.2862948381,
				"element": "C" 
			},
			{
				"x": -2.5288403038,
				"y": -1.1748841855,
				"z": -0.69682404,
				"element": "C" 
			},
			{
				"x": -3.1577715354,
				"y": 0.034563504,
				"z": -0.9929223598,
				"element": "C" 
			},
			{
				"x": -4.062718043,
				"y": -0.1506175212,
				"z": -2.0095087991,
				"element": "O" 
			},
			{
				"x": -4.1072679159,
				"y": -1.5651909706,
				"z": -2.2336259894,
				"element": "C" 
			},
			{
				"x": -3.0204609889,
				"y": -2.1608890756,
				"z": -1.5148824571,
				"element": "O" 
			},
			{
				"x": -2.8396052498,
				"y": 1.1978652654,
				"z": -0.322776619,
				"element": "C" 
			},
			{
				"x": -1.8391462415,
				"y": 1.1131328654,
				"z": 0.6619907344,
				"element": "C" 
			},
			{
				"x": 4.5676990765,
				"y": 4.697416163,
				"z": 2.1309045933,
				"element": "H" 
			},
			{
				"x": 2.8493098435,
				"y": 1.782631634,
				"z": 2.1544904168,
				"element": "H" 
			},
			{
				"x": 1.4105328742,
				"y": -0.6199723001,
				"z": -1.1083837181,
				"element": "H" 
			},
			{
				"x": 2.3432748497,
				"y": 1.0252713854,
				"z": -2.735943986,
				"element": "H" 
			},
			{
				"x": 3.5362533731,
				"y": 3.0541988659,
				"z": -1.8913204971,
				"element": "H" 
			},
			{
				"x": -0.2888582449,
				"y": 0.6182428143,
				"z": 2.671695508,
				"element": "H" 
			},
			{
				"x": -1.0999036161,
				"y": -2.2351955765,
				"z": 0.5323121217,
				"element": "H" 
			},
			{
				"x": -3.9924733806,
				"y": -1.768599089,
				"z": -3.3024992896,
				"element": "H" 
			},
			{
				"x": -5.0590200347,
				"y": -1.9672293871,
				"z": -1.8582192597,
				"element": "H" 
			},
			{
				"x": -3.3279444607,
				"y": 2.1371591806,
				"z": -0.5549095253,
				"element": "H" 
			},
			{
				"x": -1.5457612263,
				"y": 2.0104242633,
				"z": 1.1988756569,
				"element": "H" 
			}
		],
		 "valence_orbital": [ 
			{
				"type": "occ",
				"energy": -0.28943,
				"method": "rhf"
			},
			{
				"type": "occ",
				"energy": -0.28334,
				"method": "rhf"
			},
			{
				"type": "occ",
				"energy": -0.27866,
				"method": "rhf"
			},
			{
				"type": "occ",
				"energy": -0.25177,
				"method": "rhf"
			},
			{
				"type": "occ",
				"energy": -0.21247,
				"method": "rhf"
			},
			{
				"type": "unocc",
				"energy": -0.06819,
				"method": "rhf"
			},
			{
				"type": "unocc",
				"energy": -0.04543,
				"method": "rhf"
			},
			{
				"type": "unocc",
				"energy": -0.01434,
				"method": "rhf"
			},
			{
				"type": "unocc",
				"energy": -0.00598,
				"method": "rhf"
			},
			{
				"type": "unocc",
				"energy": 0.03269,
				"method": "rhf"
			}
		],
		"cosmo_sigma_profile": { 
			"-0.025": 0.0,
			"-0.024": 0.0,
			"-0.023": 0.0,
			"-0.022": 0.0,
			"-0.021": 0.0,
			"-0.02": 0.0,
			"-0.019": 0.205323665943,
			"-0.018": 1.21015789337,
			"-0.017": 0.747800934799,
			"-0.016": 0.961850487181,
			"-0.015": 1.98257327144,
			"-0.014": 2.06109019286,
			"-0.013": 1.89917610168,
			"-0.012": 1.65033763136,
			"-0.011": 2.20780312561,
			"-0.01": 2.28339590049,
			"-0.009": 1.9245325507,
			"-0.008": 8.21231826939,
			"-0.007": 17.4425454927,
			"-0.006": 18.3931324417,
			"-0.005": 14.0275314344,
			"-0.004": 14.4636200304,
			"-0.003": 17.0110617658,
			"-0.002": 17.9606877708,
			"-0.001": 21.0233058076,
			"0.0": 24.3643170561,
			"0.001": 28.5090904925,
			"0.002": 22.1133258575,
			"0.003": 18.8698746496,
			"0.004": 13.1326541281,
			"0.005": 9.89039363847,
			"0.006": 8.64190936001,
			"0.007": 8.34338610867,
			"0.008": 9.21243893939,
			"0.009": 9.37952763745,
			"0.01": 11.1850795482,
			"0.011": 10.7917173055,
			"0.012": 1.98589129217,
			"0.013": 0.0,
			"0.014": 0.0,
			"0.015": 0.0,
			"0.016": 0.0,
			"0.017": 0.0,
			"0.018": 0.0,
			"0.019": 0.0,
			"0.02": 0.0,
			"0.021": 0.0,
			"0.022": 0.0,
			"0.023": 0.0,
			"0.024": 0.0,
			"0.025": 0.0
		}
	}
}
