{
	 "smiles": "COC(=O)C1=C(OC)C(=CC(=C1)[N+]([O-])=O)[N+]([O-])=O", 
	 "Tm": 343.15, 
	 "num_atms": 26, 
	 "gaussian": { 
		 "optdone": 1, 
		 "sigma_profile": "yes", 
		 "theory": "DFT", 
		 "functional": "B3LYP", 
		 "basiset": "6-31G**", 
		 "properties": { 
			 "R2extent": 5351.7568, 
			 "electric_dipole_moment_norm": 5.65163020995, 
			 "electric_quadrupole_moment_norm": 16.9694228947, 
			 "total_energy": -983.620572731, 
			 "HOMO_LUMO_gap": 0.18192, 
			 "cosmo_polarized_energy": -14.94, 
			 "cosmo_cavitation_energy": 32.6, 
			 "cosmo_dispersion_energy": -22.96, 
			 "cosmo_repulsion_energy": 1.76, 
			 "cosmo_total_nonelectrostatic_energy": 11.4, 
			 "SMD_solvation_energy": 12.41 
		},
		"coords": [
			{
				"x": -0.878536852,
				"y": 2.5050875072,
				"z": -2.3675446738,
				"element": "C" 
			},
			{
				"x": -0.8328948365,
				"y": 1.5837825838,
				"z": -1.2596283335,
				"element": "O" 
			},
			{
				"x": 0.4001785807,
				"y": 1.2674687208,
				"z": -0.835804924,
				"element": "C" 
			},
			{
				"x": 1.4137176916,
				"y": 1.7007090591,
				"z": -1.3465363306,
				"element": "O" 
			},
			{
				"x": 0.4340636314,
				"y": 0.3411047924,
				"z": 0.3508230998,
				"element": "C" 
			},
			{
				"x": -0.6884484443,
				"y": -0.2648525234,
				"z": 0.9712986039,
				"element": "C" 
			},
			{
				"x": -1.955918561,
				"y": -0.043346559,
				"z": 0.5699222582,
				"element": "O" 
			},
			{
				"x": -2.4570217438,
				"y": -0.8237288918,
				"z": -0.5336895396,
				"element": "C" 
			},
			{
				"x": -0.4557382038,
				"y": -1.0385958097,
				"z": 2.1325316277,
				"element": "C" 
			},
			{
				"x": 0.8073029735,
				"y": -1.2120602821,
				"z": 2.6794446261,
				"element": "C" 
			},
			{
				"x": 1.8855040501,
				"y": -0.6381055311,
				"z": 2.0191107141,
				"element": "C" 
			},
			{
				"x": 1.7136428287,
				"y": 0.1293428622,
				"z": 0.8764187113,
				"element": "C" 
			},
			{
				"x": 3.2403825115,
				"y": -0.8366399222,
				"z": 2.560828338,
				"element": "N" 
			},
			{
				"x": 4.1720127629,
				"y": -0.3064011378,
				"z": 1.9612806357,
				"element": "O" 
			},
			{
				"x": 3.3450234199,
				"y": -1.5218436356,
				"z": 3.5760538174,
				"element": "O" 
			},
			{
				"x": -1.5688396672,
				"y": -1.6974683663,
				"z": 2.8405210682,
				"element": "N" 
			},
			{
				"x": -1.4930599079,
				"y": -1.7369544963,
				"z": 4.066187345,
				"element": "O" 
			},
			{
				"x": -2.4714686747,
				"y": -2.188822099,
				"z": 2.1693224285,
				"element": "O" 
			},
			{
				"x": -1.9374419992,
				"y": 2.6558885578,
				"z": -2.5734186444,
				"element": "H" 
			},
			{
				"x": -0.3687324801,
				"y": 2.0839929063,
				"z": -3.2370234463,
				"element": "H" 
			},
			{
				"x": -0.3987729441,
				"y": 3.4480791445,
				"z": -2.0969151359,
				"element": "H" 
			},
			{
				"x": -3.4621575521,
				"y": -0.4466098823,
				"z": -0.721316368,
				"element": "H" 
			},
			{
				"x": -2.5027091173,
				"y": -1.8770802314,
				"z": -0.2502465278,
				"element": "H" 
			},
			{
				"x": -1.8398979216,
				"y": -0.6781743267,
				"z": -1.4234187024,
				"element": "H" 
			},
			{
				"x": 0.9461907653,
				"y": -1.7826347158,
				"z": 3.5883292605,
				"element": "H" 
			},
			{
				"x": 2.5649196898,
				"y": 0.5886622763,
				"z": 0.3898700922,
				"element": "H" 
			}
		],
		 "valence_orbital": [ 
			{
				"type": "occ",
				"energy": -0.31044,
				"method": "rhf"
			},
			{
				"type": "occ",
				"energy": -0.3057,
				"method": "rhf"
			},
			{
				"type": "occ",
				"energy": -0.30281,
				"method": "rhf"
			},
			{
				"type": "occ",
				"energy": -0.29849,
				"method": "rhf"
			},
			{
				"type": "occ",
				"energy": -0.2914,
				"method": "rhf"
			},
			{
				"type": "unocc",
				"energy": -0.10948,
				"method": "rhf"
			},
			{
				"type": "unocc",
				"energy": -0.10337,
				"method": "rhf"
			},
			{
				"type": "unocc",
				"energy": -0.07367,
				"method": "rhf"
			},
			{
				"type": "unocc",
				"energy": -0.01882,
				"method": "rhf"
			},
			{
				"type": "unocc",
				"energy": 0.02756,
				"method": "rhf"
			}
		],
		"cosmo_sigma_profile": { 
			"-0.025": 0.0,
			"-0.024": 0.0,
			"-0.023": 0.0,
			"-0.022": 0.0,
			"-0.021": 0.0,
			"-0.02": 0.0,
			"-0.019": 0.0,
			"-0.018": 0.0,
			"-0.017": 0.0,
			"-0.016": 0.0,
			"-0.015": 0.0,
			"-0.014": 0.0,
			"-0.013": 0.0,
			"-0.012": 0.0,
			"-0.011": 0.0,
			"-0.01": 0.11266216309,
			"-0.009": 1.77989006853,
			"-0.008": 3.67148594078,
			"-0.007": 8.6598236086,
			"-0.006": 15.7685165214,
			"-0.005": 27.5444977336,
			"-0.004": 36.4300307014,
			"-0.003": 28.7875466718,
			"-0.002": 13.3863208985,
			"-0.001": 9.86574563715,
			"0.0": 10.2112565917,
			"0.001": 8.01273354594,
			"0.002": 7.98078767149,
			"0.003": 8.18314948776,
			"0.004": 8.21372320712,
			"0.005": 11.6253926091,
			"0.006": 13.5191857285,
			"0.007": 19.2480550703,
			"0.008": 12.4876395859,
			"0.009": 8.37848736936,
			"0.01": 3.72109007735,
			"0.011": 3.55873249088,
			"0.012": 0.224969029659,
			"0.013": 0.0,
			"0.014": 0.0,
			"0.015": 0.0,
			"0.016": 0.0,
			"0.017": 0.0,
			"0.018": 0.0,
			"0.019": 0.0,
			"0.02": 0.0,
			"0.021": 0.0,
			"0.022": 0.0,
			"0.023": 0.0,
			"0.024": 0.0,
			"0.025": 0.0
		}
	}
}
