{
	 "smiles": "CN1C=CC(NC(=O)CC#N)=N1", 
	 "Tm": 433.15, 
	 "num_atms": 20, 
	 "gaussian": { 
		 "optdone": 1, 
		 "sigma_profile": "yes", 
		 "theory": "DFT", 
		 "functional": "B3LYP", 
		 "basiset": "6-31G**", 
		 "properties": { 
			 "R2extent": 2807.888, 
			 "electric_dipole_moment_norm": 3.15085066768, 
			 "electric_quadrupole_moment_norm": 14.1201015662, 
			 "total_energy": -565.761753695, 
			 "HOMO_LUMO_gap": 0.21963, 
			 "cosmo_polarized_energy": -21.05, 
			 "cosmo_cavitation_energy": 26.1, 
			 "cosmo_dispersion_energy": -18.42, 
			 "cosmo_repulsion_energy": 1.49, 
			 "cosmo_total_nonelectrostatic_energy": 9.16, 
			 "SMD_solvation_energy": 6.28 
		},
		"coords": [
			{
				"x": -3.5159995208,
				"y": -0.1044700675,
				"z": 1.0634783109,
				"element": "C" 
			},
			{
				"x": -2.2394201878,
				"y": -0.1497251005,
				"z": 0.3780010367,
				"element": "N" 
			},
			{
				"x": -1.93179378,
				"y": -0.7661881865,
				"z": -0.7904674441,
				"element": "C" 
			},
			{
				"x": -0.5923650815,
				"y": -0.5305179653,
				"z": -1.0312522399,
				"element": "C" 
			},
			{
				"x": -0.1835373176,
				"y": 0.2524159796,
				"z": 0.0762849485,
				"element": "C" 
			},
			{
				"x": 1.1217877777,
				"y": 0.7339717375,
				"z": 0.2599296158,
				"element": "N" 
			},
			{
				"x": 1.5962045625,
				"y": 1.4962744155,
				"z": 1.2927843981,
				"element": "C" 
			},
			{
				"x": 0.9615277479,
				"y": 1.8963240508,
				"z": 2.2469195922,
				"element": "O" 
			},
			{
				"x": 3.1044261731,
				"y": 1.8655585185,
				"z": 1.1970260385,
				"element": "C" 
			},
			{
				"x": 3.8270130531,
				"y": 1.3629996437,
				"z": 0.032556812,
				"element": "C" 
			},
			{
				"x": 4.3388150986,
				"y": 0.9312348933,
				"z": -0.9169887617,
				"element": "N" 
			},
			{
				"x": -1.1776271644,
				"y": 0.4840791741,
				"z": 0.9304493597,
				"element": "N" 
			},
			{
				"x": -4.2524306258,
				"y": -0.6531542533,
				"z": 0.473899325,
				"element": "H" 
			},
			{
				"x": -3.4290324359,
				"y": -0.561115201,
				"z": 2.0529514799,
				"element": "H" 
			},
			{
				"x": -3.8427421905,
				"y": 0.9320508372,
				"z": 1.1802952471,
				"element": "H" 
			},
			{
				"x": -2.6703890605,
				"y": -1.3160289918,
				"z": -1.355413811,
				"element": "H" 
			},
			{
				"x": -0.0026226935,
				"y": -0.8675123248,
				"z": -1.8708104586,
				"element": "H" 
			},
			{
				"x": 1.7765722975,
				"y": 0.4785501446,
				"z": -0.466754336,
				"element": "H" 
			},
			{
				"x": 3.1653459228,
				"y": 2.9583037642,
				"z": 1.2260881081,
				"element": "H" 
			},
			{
				"x": 3.5790674252,
				"y": 1.4985489316,
				"z": 2.1128227788,
				"element": "H" 
			}
		],
		 "valence_orbital": [ 
			{
				"type": "occ",
				"energy": -0.31564,
				"method": "rhf"
			},
			{
				"type": "occ",
				"energy": -0.29909,
				"method": "rhf"
			},
			{
				"type": "occ",
				"energy": -0.25658,
				"method": "rhf"
			},
			{
				"type": "occ",
				"energy": -0.25145,
				"method": "rhf"
			},
			{
				"type": "occ",
				"energy": -0.22513,
				"method": "rhf"
			},
			{
				"type": "unocc",
				"energy": -0.0055,
				"method": "rhf"
			},
			{
				"type": "unocc",
				"energy": 0.01355,
				"method": "rhf"
			},
			{
				"type": "unocc",
				"energy": 0.02343,
				"method": "rhf"
			},
			{
				"type": "unocc",
				"energy": 0.02858,
				"method": "rhf"
			},
			{
				"type": "unocc",
				"energy": 0.08035,
				"method": "rhf"
			}
		],
		"cosmo_sigma_profile": { 
			"-0.025": 0.0,
			"-0.024": 0.0,
			"-0.023": 0.0,
			"-0.022": 0.0,
			"-0.021": 0.0,
			"-0.02": 0.0,
			"-0.019": 0.0,
			"-0.018": 0.0,
			"-0.017": 0.0,
			"-0.016": 0.0,
			"-0.015": 0.0,
			"-0.014": 0.209531378579,
			"-0.013": 1.00705509325,
			"-0.012": 0.832609063618,
			"-0.011": 1.69018464185,
			"-0.01": 6.01857666641,
			"-0.009": 9.74674601057,
			"-0.008": 10.7693180759,
			"-0.007": 12.3106326801,
			"-0.006": 13.2776067534,
			"-0.005": 12.4387289996,
			"-0.004": 13.0026103264,
			"-0.003": 14.6924574131,
			"-0.002": 9.08474095584,
			"-0.001": 8.36668004055,
			"0.0": 7.17541791308,
			"0.001": 7.56846947245,
			"0.002": 7.75174377433,
			"0.003": 9.09059051593,
			"0.004": 9.31212629717,
			"0.005": 8.22506081421,
			"0.006": 4.9688726793,
			"0.007": 4.28117666762,
			"0.008": 4.78332100257,
			"0.009": 5.02879063223,
			"0.01": 4.76316745196,
			"0.011": 5.15587399461,
			"0.012": 6.47377261557,
			"0.013": 4.02671720566,
			"0.014": 1.96576536394,
			"0.015": 1.32168067858,
			"0.016": 1.4499787584,
			"0.017": 0.965231733497,
			"0.018": 1.14822108853,
			"0.019": 0.644098608627,
			"0.02": 0.0323126006765,
			"0.021": 0.0,
			"0.022": 0.0,
			"0.023": 0.0,
			"0.024": 0.0,
			"0.025": 0.0
		}
	}
}
