{
	 "smiles": "CSC1=NC2=C(N1)C=CC(=C2)N=C/C1=CC=C(F)C=C1", 
	 "Tm": 447.15, 
	 "num_atms": 32, 
	 "gaussian": { 
		 "optdone": 1, 
		 "sigma_profile": "yes", 
		 "theory": "DFT", 
		 "functional": "B3LYP", 
		 "basiset": "6-31G**", 
		 "properties": { 
			 "R2extent": 9060.4056, 
			 "electric_dipole_moment_norm": 1.73307970099, 
			 "electric_quadrupole_moment_norm": 17.9605151989, 
			 "total_energy": -1241.0981495, 
			 "HOMO_LUMO_gap": 0.14605, 
			 "cosmo_polarized_energy": -15.9, 
			 "cosmo_cavitation_energy": 39.2, 
			 "cosmo_dispersion_energy": -28.18, 
			 "cosmo_repulsion_energy": 2.1, 
			 "cosmo_total_nonelectrostatic_energy": 13.12, 
			 "SMD_solvation_energy": 3.87 
		},
		"coords": [
			{
				"x": 2.8569573883,
				"y": -3.4111470312,
				"z": -4.5938360635,
				"element": "C" 
			},
			{
				"x": 3.9721584941,
				"y": -2.0408716726,
				"z": -4.1322392847,
				"element": "S" 
			},
			{
				"x": 2.8908061888,
				"y": -1.1488684343,
				"z": -3.0632652281,
				"element": "C" 
			},
			{
				"x": 1.6687664543,
				"y": -1.4909181656,
				"z": -2.7353607171,
				"element": "N" 
			},
			{
				"x": 1.2367745299,
				"y": -0.4819018557,
				"z": -1.8794892669,
				"element": "C" 
			},
			{
				"x": 2.2534123855,
				"y": 0.4860167832,
				"z": -1.7033787143,
				"element": "C" 
			},
			{
				"x": 3.311263669,
				"y": 0.0274280105,
				"z": -2.4796217827,
				"element": "N" 
			},
			{
				"x": 2.0754943694,
				"y": 1.6112731587,
				"z": -0.900813076,
				"element": "C" 
			},
			{
				"x": 0.8406045938,
				"y": 1.7550332101,
				"z": -0.2726144119,
				"element": "C" 
			},
			{
				"x": -0.1802421836,
				"y": 0.7838668043,
				"z": -0.4093118797,
				"element": "C" 
			},
			{
				"x": 0.0090948289,
				"y": -0.3383860127,
				"z": -1.2261965765,
				"element": "C" 
			},
			{
				"x": -1.4322732416,
				"y": 1.0489531292,
				"z": 0.1854804651,
				"element": "N" 
			},
			{
				"x": -1.9722385063,
				"y": 0.3424186614,
				"z": 1.1027812255,
				"element": "C" 
			},
			{
				"x": -1.4910354822,
				"y": -0.8151739317,
				"z": 1.8935058089,
				"element": "C" 
			},
			{
				"x": -2.4601549769,
				"y": -1.5452284419,
				"z": 2.6049745344,
				"element": "C" 
			},
			{
				"x": -2.1140130999,
				"y": -2.6342318624,
				"z": 3.3999327586,
				"element": "C" 
			},
			{
				"x": -0.7706469252,
				"y": -2.9785004019,
				"z": 3.4968163142,
				"element": "C" 
			},
			{
				"x": -0.4178776031,
				"y": -4.0253931219,
				"z": 4.2672135101,
				"element": "F" 
			},
			{
				"x": 0.2228858345,
				"y": -2.2679063533,
				"z": 2.8287471924,
				"element": "C" 
			},
			{
				"x": -0.1401884601,
				"y": -1.1908502888,
				"z": 2.0264441459,
				"element": "C" 
			},
			{
				"x": 3.4329236834,
				"y": -4.0511093782,
				"z": -5.2647144598,
				"element": "H" 
			},
			{
				"x": 1.9746622948,
				"y": -3.0225827998,
				"z": -5.1019692357,
				"element": "H" 
			},
			{
				"x": 2.5549346039,
				"y": -3.964063066,
				"z": -3.7047825678,
				"element": "H" 
			},
			{
				"x": 4.2042486869,
				"y": 0.4748448406,
				"z": -2.6146745934,
				"element": "H" 
			},
			{
				"x": 2.8526067544,
				"y": 2.3592359855,
				"z": -0.7752803714,
				"element": "H" 
			},
			{
				"x": 0.6412728191,
				"y": 2.6258568524,
				"z": 0.3430880645,
				"element": "H" 
			},
			{
				"x": -0.7780031979,
				"y": -1.072668143,
				"z": -1.3569373615,
				"element": "H" 
			},
			{
				"x": -2.9868845726,
				"y": 0.6513192947,
				"z": 1.3801675591,
				"element": "H" 
			},
			{
				"x": -3.5045775014,
				"y": -1.2541171833,
				"z": 2.5285045111,
				"element": "H" 
			},
			{
				"x": -2.8574865988,
				"y": -3.2067420115,
				"z": 3.9435274491,
				"element": "H" 
			},
			{
				"x": 1.2598478572,
				"y": -2.5640929106,
				"z": 2.9437597129,
				"element": "H" 
			},
			{
				"x": 0.6300069137,
				"y": -0.6343936643,
				"z": 1.5086423393,
				"element": "H" 
			}
		],
		 "valence_orbital": [ 
			{
				"type": "occ",
				"energy": -0.26855,
				"method": "rhf"
			},
			{
				"type": "occ",
				"energy": -0.25728,
				"method": "rhf"
			},
			{
				"type": "occ",
				"energy": -0.24583,
				"method": "rhf"
			},
			{
				"type": "occ",
				"energy": -0.2149,
				"method": "rhf"
			},
			{
				"type": "occ",
				"energy": -0.19579,
				"method": "rhf"
			},
			{
				"type": "unocc",
				"energy": -0.04974,
				"method": "rhf"
			},
			{
				"type": "unocc",
				"energy": -0.02009,
				"method": "rhf"
			},
			{
				"type": "unocc",
				"energy": -0.00872,
				"method": "rhf"
			},
			{
				"type": "unocc",
				"energy": 0.016,
				"method": "rhf"
			},
			{
				"type": "unocc",
				"energy": 0.02531,
				"method": "rhf"
			}
		],
		"cosmo_sigma_profile": { 
			"-0.025": 0.0,
			"-0.024": 0.0,
			"-0.023": 0.0,
			"-0.022": 0.0,
			"-0.021": 0.0,
			"-0.02": 0.0,
			"-0.019": 0.0,
			"-0.018": 0.0,
			"-0.017": 0.535412451673,
			"-0.016": 1.63502611617,
			"-0.015": 1.25612258013,
			"-0.014": 1.46163988091,
			"-0.013": 1.04795543657,
			"-0.012": 1.26694599384,
			"-0.011": 1.3770893979,
			"-0.01": 0.971316064591,
			"-0.009": 1.14447911799,
			"-0.008": 3.4100486062,
			"-0.007": 12.8771721094,
			"-0.006": 16.7489201375,
			"-0.005": 18.083080905,
			"-0.004": 16.4283861236,
			"-0.003": 19.3302190919,
			"-0.002": 20.3364992736,
			"-0.001": 18.3666642926,
			"0.0": 25.7766256088,
			"0.001": 25.9305545466,
			"0.002": 29.5905620008,
			"0.003": 29.3466791342,
			"0.004": 24.5186206827,
			"0.005": 13.4208651806,
			"0.006": 8.6046973457,
			"0.007": 5.62319887298,
			"0.008": 3.97446899293,
			"0.009": 2.83839795238,
			"0.01": 2.08773661781,
			"0.011": 1.22863719639,
			"0.012": 2.80002839887,
			"0.013": 1.59242609341,
			"0.014": 1.83673704216,
			"0.015": 1.31012472006,
			"0.016": 0.234093513061,
			"0.017": 0.0,
			"0.018": 0.0,
			"0.019": 0.0,
			"0.02": 0.0,
			"0.021": 0.0,
			"0.022": 0.0,
			"0.023": 0.0,
			"0.024": 0.0,
			"0.025": 0.0
		}
	}
}
