{
	 "smiles": "NC1=NC(S)=NC2=C1C=NN2", 
	 "Tm": 573.15, 
	 "num_atms": 16, 
	 "gaussian": { 
		 "optdone": 1, 
		 "sigma_profile": "yes", 
		 "theory": "DFT", 
		 "functional": "B3LYP", 
		 "basiset": "6-31G**", 
		 "properties": { 
			 "R2extent": 2515.8059, 
			 "electric_dipole_moment_norm": 2.45602526249, 
			 "electric_quadrupole_moment_norm": 17.2555723904, 
			 "total_energy": -865.487710751, 
			 "HOMO_LUMO_gap": 0.18884, 
			 "cosmo_polarized_energy": -16.51, 
			 "cosmo_cavitation_energy": 22.61, 
			 "cosmo_dispersion_energy": -17.91, 
			 "cosmo_repulsion_energy": 1.4, 
			 "cosmo_total_nonelectrostatic_energy": 6.11, 
			 "SMD_solvation_energy": -0.54 
		},
		"coords": [
			{
				"x": -0.5234210759,
				"y": -2.6411558874,
				"z": -1.0681560042,
				"element": "N" 
			},
			{
				"x": -0.8853075308,
				"y": -1.3884427017,
				"z": -0.6880017247,
				"element": "C" 
			},
			{
				"x": -0.8210703722,
				"y": -1.1030927258,
				"z": 0.6181736709,
				"element": "N" 
			},
			{
				"x": -1.2021225737,
				"y": 0.1233721192,
				"z": 1.0216600275,
				"element": "C" 
			},
			{
				"x": -1.0646732945,
				"y": 0.3472955406,
				"z": 2.782465871,
				"element": "S" 
			},
			{
				"x": -1.6450392441,
				"y": 1.1431272351,
				"z": 0.2895965007,
				"element": "N" 
			},
			{
				"x": -1.6962164757,
				"y": 0.8278186643,
				"z": -1.0154633881,
				"element": "C" 
			},
			{
				"x": -1.3429886161,
				"y": -0.4049437854,
				"z": -1.601186177,
				"element": "C" 
			},
			{
				"x": -1.5814298479,
				"y": -0.2240578823,
				"z": -2.9949841217,
				"element": "C" 
			},
			{
				"x": -2.0327269632,
				"y": 0.9919407227,
				"z": -3.2508221426,
				"element": "N" 
			},
			{
				"x": -2.0977261398,
				"y": 1.6223561922,
				"z": -2.0408306579,
				"element": "N" 
			},
			{
				"x": -0.0936218515,
				"y": -3.2254317684,
				"z": -0.3671413636,
				"element": "H" 
			},
			{
				"x": -0.3561735318,
				"y": -2.8537394361,
				"z": -2.0372902454,
				"element": "H" 
			},
			{
				"x": -1.5063724999,
				"y": 1.6195681808,
				"z": 2.7726844229,
				"element": "H" 
			},
			{
				"x": -1.4487033931,
				"y": -0.9211997982,
				"z": -3.8120550392,
				"element": "H" 
			},
			{
				"x": -2.4234065898,
				"y": 2.5747853306,
				"z": -1.9867496286,
				"element": "H" 
			}
		],
		 "valence_orbital": [ 
			{
				"type": "occ",
				"energy": -0.29445,
				"method": "rhf"
			},
			{
				"type": "occ",
				"energy": -0.27488,
				"method": "rhf"
			},
			{
				"type": "occ",
				"energy": -0.26479,
				"method": "rhf"
			},
			{
				"type": "occ",
				"energy": -0.25111,
				"method": "rhf"
			},
			{
				"type": "occ",
				"energy": -0.22243,
				"method": "rhf"
			},
			{
				"type": "unocc",
				"energy": -0.03359,
				"method": "rhf"
			},
			{
				"type": "unocc",
				"energy": 0.00169,
				"method": "rhf"
			},
			{
				"type": "unocc",
				"energy": 0.0283,
				"method": "rhf"
			},
			{
				"type": "unocc",
				"energy": 0.04298,
				"method": "rhf"
			},
			{
				"type": "unocc",
				"energy": 0.06172,
				"method": "rhf"
			}
		],
		"cosmo_sigma_profile": { 
			"-0.025": 0.0,
			"-0.024": 0.0,
			"-0.023": 0.0,
			"-0.022": 0.0,
			"-0.021": 0.0,
			"-0.02": 0.0,
			"-0.019": 0.0,
			"-0.018": 0.0,
			"-0.017": 0.687863290306,
			"-0.016": 1.41862222424,
			"-0.015": 2.28742448028,
			"-0.014": 2.99457014352,
			"-0.013": 3.03263299725,
			"-0.012": 3.33665261579,
			"-0.011": 5.49970952345,
			"-0.01": 4.39480913669,
			"-0.009": 4.63300375351,
			"-0.008": 5.48461594453,
			"-0.007": 4.35011394547,
			"-0.006": 4.52350420996,
			"-0.005": 4.74553708048,
			"-0.004": 4.22416073209,
			"-0.003": 4.75435113384,
			"-0.002": 5.68108894086,
			"-0.001": 9.32149401406,
			"0.0": 12.3254986343,
			"0.001": 14.8935348103,
			"0.002": 14.0430019982,
			"0.003": 13.4692723982,
			"0.004": 9.22136975609,
			"0.005": 9.11046605568,
			"0.006": 9.96576680061,
			"0.007": 8.15742880705,
			"0.008": 4.57178829326,
			"0.009": 3.84827548694,
			"0.01": 3.00128447519,
			"0.011": 3.17368841379,
			"0.012": 3.09968110834,
			"0.013": 1.88421764908,
			"0.014": 1.07461251415,
			"0.015": 0.81703058777,
			"0.016": 0.0153701078229,
			"0.017": 0.0,
			"0.018": 0.0,
			"0.019": 0.0,
			"0.02": 0.0,
			"0.021": 0.0,
			"0.022": 0.0,
			"0.023": 0.0,
			"0.024": 0.0,
			"0.025": 0.0
		}
	}
}
