{
	 "smiles": "FC(F)(F)C(C(=O)NC1=C(Cl)C=C(Cl)C=C1Cl)C(F)(F)F", 
	 "Tm": 492.15, 
	 "num_atms": 25, 
	 "gaussian": { 
		 "optdone": 1, 
		 "sigma_profile": "yes", 
		 "theory": "DFT", 
		 "functional": "B3LYP", 
		 "basiset": "6-31G**", 
		 "properties": { 
			 "R2extent": 7817.9113, 
			 "electric_dipole_moment_norm": 4.48595082563, 
			 "electric_quadrupole_moment_norm": 3.37151503333, 
			 "total_energy": -2493.07682934, 
			 "HOMO_LUMO_gap": 0.20893, 
			 "cosmo_polarized_energy": -12.04, 
			 "cosmo_cavitation_energy": 37.16, 
			 "cosmo_dispersion_energy": -25.09, 
			 "cosmo_repulsion_energy": 1.82, 
			 "cosmo_total_nonelectrostatic_energy": 13.88, 
			 "SMD_solvation_energy": 8.23 
		},
		"coords": [
			{
				"x": -2.2897004419,
				"y": -2.1699323556,
				"z": 1.189023695,
				"element": "F" 
			},
			{
				"x": -1.1141555266,
				"y": -1.5207919205,
				"z": 1.2700675498,
				"element": "C" 
			},
			{
				"x": -0.3560120386,
				"y": -2.1413202409,
				"z": 2.1798371698,
				"element": "F" 
			},
			{
				"x": -1.3686034155,
				"y": -0.2713667333,
				"z": 1.724106075,
				"element": "F" 
			},
			{
				"x": -0.4408287572,
				"y": -1.4272654482,
				"z": -0.1043622226,
				"element": "C" 
			},
			{
				"x": 0.8936205467,
				"y": -0.6688446943,
				"z": 0.0149983243,
				"element": "C" 
			},
			{
				"x": 1.8939193933,
				"y": -1.209554537,
				"z": 0.4408499278,
				"element": "O" 
			},
			{
				"x": 0.9093852725,
				"y": 0.6581864067,
				"z": -0.371924931,
				"element": "N" 
			},
			{
				"x": -0.1604267351,
				"y": 1.5066222218,
				"z": -0.7397159072,
				"element": "C" 
			},
			{
				"x": -0.7597815998,
				"y": 1.4517947992,
				"z": -2.0135037855,
				"element": "C" 
			},
			{
				"x": -0.1976211334,
				"y": 0.2924547451,
				"z": -3.1922686587,
				"element": "Cl" 
			},
			{
				"x": -1.7956300673,
				"y": 2.3102180305,
				"z": -2.3789686444,
				"element": "C" 
			},
			{
				"x": -2.2210628149,
				"y": 3.2742219799,
				"z": -1.4684629721,
				"element": "C" 
			},
			{
				"x": -3.5119367683,
				"y": 4.3634524944,
				"z": -1.9171047979,
				"element": "Cl" 
			},
			{
				"x": -1.6323696903,
				"y": 3.3960679084,
				"z": -0.2115927308,
				"element": "C" 
			},
			{
				"x": -0.6138531584,
				"y": 2.5128907347,
				"z": 0.1368029991,
				"element": "C" 
			},
			{
				"x": 0.1325464662,
				"y": 2.6832675298,
				"z": 1.7054077118,
				"element": "Cl" 
			},
			{
				"x": -0.2207592584,
				"y": -2.8043176695,
				"z": -0.7453859686,
				"element": "C" 
			},
			{
				"x": 0.5058695365,
				"y": -2.6750220504,
				"z": -1.8731625726,
				"element": "F" 
			},
			{
				"x": -1.4067409329,
				"y": -3.3482732877,
				"z": -1.0875515123,
				"element": "F" 
			},
			{
				"x": 0.4071507887,
				"y": -3.6636500644,
				"z": 0.0636799355,
				"element": "F" 
			},
			{
				"x": -1.1455346318,
				"y": -0.9008558811,
				"z": -0.7487881837,
				"element": "H" 
			},
			{
				"x": 1.7876118296,
				"y": 1.1042996757,
				"z": -0.128406757,
				"element": "H" 
			},
			{
				"x": -2.2443505432,
				"y": 2.2365126513,
				"z": -3.3613671762,
				"element": "H" 
			},
			{
				"x": -1.9606363199,
				"y": 4.1560057055,
				"z": 0.4859934327,
				"element": "H" 
			}
		],
		 "valence_orbital": [ 
			{
				"type": "occ",
				"energy": -0.3352,
				"method": "rhf"
			},
			{
				"type": "occ",
				"energy": -0.30719,
				"method": "rhf"
			},
			{
				"type": "occ",
				"energy": -0.29015,
				"method": "rhf"
			},
			{
				"type": "occ",
				"energy": -0.28276,
				"method": "rhf"
			},
			{
				"type": "occ",
				"energy": -0.27069,
				"method": "rhf"
			},
			{
				"type": "unocc",
				"energy": -0.06176,
				"method": "rhf"
			},
			{
				"type": "unocc",
				"energy": -0.05801,
				"method": "rhf"
			},
			{
				"type": "unocc",
				"energy": -0.03287,
				"method": "rhf"
			},
			{
				"type": "unocc",
				"energy": -0.01698,
				"method": "rhf"
			},
			{
				"type": "unocc",
				"energy": 0.02478,
				"method": "rhf"
			}
		],
		"cosmo_sigma_profile": { 
			"-0.025": 0.0,
			"-0.024": 0.0,
			"-0.023": 0.0,
			"-0.022": 0.0,
			"-0.021": 0.0,
			"-0.02": 0.0,
			"-0.019": 0.0,
			"-0.018": 0.0,
			"-0.017": 0.0,
			"-0.016": 0.40962221594,
			"-0.015": 0.906407129652,
			"-0.014": 0.877911527151,
			"-0.013": 1.29905924307,
			"-0.012": 1.33332496024,
			"-0.011": 1.562888471,
			"-0.01": 2.63148997894,
			"-0.009": 5.54036518757,
			"-0.008": 5.73584279634,
			"-0.007": 5.85049706501,
			"-0.006": 4.7057271386,
			"-0.005": 6.81534201669,
			"-0.004": 8.12158178762,
			"-0.003": 13.6822764521,
			"-0.002": 23.2237963374,
			"-0.001": 31.0982607119,
			"0.0": 27.9524319609,
			"0.001": 40.7280736049,
			"0.002": 64.1513258412,
			"0.003": 31.6943017811,
			"0.004": 8.09620418186,
			"0.005": 2.09099327666,
			"0.006": 2.07344262886,
			"0.007": 1.82156008135,
			"0.008": 2.70423168503,
			"0.009": 1.84944782764,
			"0.01": 2.91831295837,
			"0.011": 4.49513704558,
			"0.012": 0.810569721205,
			"0.013": 0.0,
			"0.014": 0.0,
			"0.015": 0.0,
			"0.016": 0.0,
			"0.017": 0.0,
			"0.018": 0.0,
			"0.019": 0.0,
			"0.02": 0.0,
			"0.021": 0.0,
			"0.022": 0.0,
			"0.023": 0.0,
			"0.024": 0.0,
			"0.025": 0.0
		}
	}
}
