{
	 "smiles": "NC(=O)N1C2=CC=CC=C2C=CC2=CC=CC=C12", 
	 "Tm": 463.15, 
	 "num_atms": 30, 
	 "gaussian": { 
		 "optdone": 1, 
		 "sigma_profile": "yes", 
		 "theory": "DFT", 
		 "functional": "B3LYP", 
		 "basiset": "6-31G**", 
		 "properties": { 
			 "R2extent": 4883.0741, 
			 "electric_dipole_moment_norm": 3.54040239097, 
			 "electric_quadrupole_moment_norm": 19.1319868263, 
			 "total_energy": -763.57001376, 
			 "HOMO_LUMO_gap": 0.16235, 
			 "cosmo_polarized_energy": -15.25, 
			 "cosmo_cavitation_energy": 33.36, 
			 "cosmo_dispersion_energy": -23.71, 
			 "cosmo_repulsion_energy": 1.81, 
			 "cosmo_total_nonelectrostatic_energy": 11.46, 
			 "SMD_solvation_energy": 6.41 
		},
		"coords": [
			{
				"x": 1.172079191,
				"y": 2.0728073275,
				"z": -3.3775290569,
				"element": "N" 
			},
			{
				"x": 0.0872557131,
				"y": 2.2678777742,
				"z": -2.5421636704,
				"element": "C" 
			},
			{
				"x": -0.4587531659,
				"y": 3.3547828532,
				"z": -2.4247441491,
				"element": "O" 
			},
			{
				"x": -0.3644273623,
				"y": 1.1222189684,
				"z": -1.8722289023,
				"element": "N" 
			},
			{
				"x": -1.4331468681,
				"y": 1.2586910454,
				"z": -0.9289080655,
				"element": "C" 
			},
			{
				"x": -2.6958851404,
				"y": 1.6690522388,
				"z": -1.3629793434,
				"element": "C" 
			},
			{
				"x": -3.7257321127,
				"y": 1.8675467013,
				"z": -0.4471125948,
				"element": "C" 
			},
			{
				"x": -3.4976732793,
				"y": 1.6523331351,
				"z": 0.9153536374,
				"element": "C" 
			},
			{
				"x": -2.243692078,
				"y": 1.2382565653,
				"z": 1.348069408,
				"element": "C" 
			},
			{
				"x": -1.1890418221,
				"y": 1.0203284103,
				"z": 0.4395244199,
				"element": "C" 
			},
			{
				"x": 0.0971403323,
				"y": 0.5516531512,
				"z": 0.953340019,
				"element": "C" 
			},
			{
				"x": 1.0147374544,
				"y": -0.219864648,
				"z": 0.3293511915,
				"element": "C" 
			},
			{
				"x": 0.9295353351,
				"y": -0.7896350116,
				"z": -1.0143450189,
				"element": "C" 
			},
			{
				"x": 1.5639711629,
				"y": -2.0190633754,
				"z": -1.2810299809,
				"element": "C" 
			},
			{
				"x": 1.4610638344,
				"y": -2.635816741,
				"z": -2.5231134062,
				"element": "C" 
			},
			{
				"x": 0.7125842461,
				"y": -2.033809875,
				"z": -3.5391431304,
				"element": "C" 
			},
			{
				"x": 0.0861895654,
				"y": -0.8117361188,
				"z": -3.3040936617,
				"element": "C" 
			},
			{
				"x": 0.2084077798,
				"y": -0.1750545373,
				"z": -2.0624979069,
				"element": "C" 
			},
			{
				"x": 1.8026121612,
				"y": 1.3038413453,
				"z": -3.2056779146,
				"element": "H" 
			},
			{
				"x": 1.5953768834,
				"y": 2.940885094,
				"z": -3.6695819122,
				"element": "H" 
			},
			{
				"x": -2.8471125522,
				"y": 1.8632297574,
				"z": -2.4185724444,
				"element": "H" 
			},
			{
				"x": -4.6988328116,
				"y": 2.2023874183,
				"z": -0.7936276946,
				"element": "H" 
			},
			{
				"x": -4.2946011884,
				"y": 1.8120261911,
				"z": 1.6356040497,
				"element": "H" 
			},
			{
				"x": -2.0635134625,
				"y": 1.0685908777,
				"z": 2.4064029591,
				"element": "H" 
			},
			{
				"x": 0.2837482204,
				"y": 0.787086188,
				"z": 1.9996444208,
				"element": "H" 
			},
			{
				"x": 1.8687131212,
				"y": -0.5501258392,
				"z": 0.9178095827,
				"element": "H" 
			},
			{
				"x": 2.1342473821,
				"y": -2.4932781602,
				"z": -0.4865463596,
				"element": "H" 
			},
			{
				"x": 1.9584468388,
				"y": -3.5849398254,
				"z": -2.6995054338,
				"element": "H" 
			},
			{
				"x": 0.6220080644,
				"y": -2.5100057893,
				"z": -4.5107646545,
				"element": "H" 
			},
			{
				"x": -0.4815054424,
				"y": -0.319465121,
				"z": -4.0868343867,
				"element": "H" 
			}
		],
		 "valence_orbital": [ 
			{
				"type": "occ",
				"energy": -0.26413,
				"method": "rhf"
			},
			{
				"type": "occ",
				"energy": -0.25538,
				"method": "rhf"
			},
			{
				"type": "occ",
				"energy": -0.24087,
				"method": "rhf"
			},
			{
				"type": "occ",
				"energy": -0.23167,
				"method": "rhf"
			},
			{
				"type": "occ",
				"energy": -0.2122,
				"method": "rhf"
			},
			{
				"type": "unocc",
				"energy": -0.04985,
				"method": "rhf"
			},
			{
				"type": "unocc",
				"energy": -0.01685,
				"method": "rhf"
			},
			{
				"type": "unocc",
				"energy": 0.00102,
				"method": "rhf"
			},
			{
				"type": "unocc",
				"energy": 0.00279,
				"method": "rhf"
			},
			{
				"type": "unocc",
				"energy": 0.06357,
				"method": "rhf"
			}
		],
		"cosmo_sigma_profile": { 
			"-0.025": 0.0,
			"-0.024": 0.0,
			"-0.023": 0.0,
			"-0.022": 0.0,
			"-0.021": 0.0,
			"-0.02": 0.0,
			"-0.019": 0.0,
			"-0.018": 0.0,
			"-0.017": 0.0,
			"-0.016": 0.0,
			"-0.015": 0.0,
			"-0.014": 0.188164901173,
			"-0.013": 1.33935744887,
			"-0.012": 1.75972667586,
			"-0.011": 1.69047358078,
			"-0.01": 2.40973548045,
			"-0.009": 2.00620295107,
			"-0.008": 1.91802709261,
			"-0.007": 3.18505628408,
			"-0.006": 21.223800773,
			"-0.005": 22.4890658244,
			"-0.004": 22.9670695645,
			"-0.003": 17.0365393525,
			"-0.002": 14.992164431,
			"-0.001": 14.7264834104,
			"0.0": 15.7380468523,
			"0.001": 17.8844074488,
			"0.002": 20.615024822,
			"0.003": 23.1165504394,
			"0.004": 21.8658145575,
			"0.005": 13.2483569245,
			"0.006": 3.62845194545,
			"0.007": 3.28761616511,
			"0.008": 1.46506587508,
			"0.009": 1.54966680849,
			"0.01": 2.3341870114,
			"0.011": 1.66172819578,
			"0.012": 1.92137905967,
			"0.013": 2.64133862768,
			"0.014": 6.10652390069,
			"0.015": 1.87468460135,
			"0.016": 0.0,
			"0.017": 0.0,
			"0.018": 0.0,
			"0.019": 0.0,
			"0.02": 0.0,
			"0.021": 0.0,
			"0.022": 0.0,
			"0.023": 0.0,
			"0.024": 0.0,
			"0.025": 0.0
		}
	}
}
