{
	 "smiles": "COC1=CC=CC=C1P(C1=CC=CC=C1OC)C1=CC=CC=C1OC", 
	 "Tm": 479.15, 
	 "num_atms": 46, 
	 "gaussian": { 
		 "optdone": 1, 
		 "sigma_profile": "yes", 
		 "theory": "DFT", 
		 "functional": "B3LYP", 
		 "basiset": "6-31G**", 
		 "properties": { 
			 "R2extent": 8649.9644, 
			 "electric_dipole_moment_norm": 0.762262074355, 
			 "electric_quadrupole_moment_norm": 10.6721945035, 
			 "total_energy": -1379.8735584, 
			 "HOMO_LUMO_gap": 0.18317, 
			 "cosmo_polarized_energy": -17.94, 
			 "cosmo_cavitation_energy": 49.79, 
			 "cosmo_dispersion_energy": -33.01, 
			 "cosmo_repulsion_energy": 2.63, 
			 "cosmo_total_nonelectrostatic_energy": 19.41, 
			 "SMD_solvation_energy": 10.77 
		},
		"coords": [
			{
				"x": -0.8045535535,
				"y": 1.8627586845,
				"z": 4.0289794252,
				"element": "C" 
			},
			{
				"x": -0.6179361673,
				"y": 1.3769299941,
				"z": 2.7111621654,
				"element": "O" 
			},
			{
				"x": -0.6545136687,
				"y": 2.2588884342,
				"z": 1.6690039826,
				"element": "C" 
			},
			{
				"x": -0.9171815496,
				"y": 3.6246658333,
				"z": 1.8177268593,
				"element": "C" 
			},
			{
				"x": -0.9514245527,
				"y": 4.4495232406,
				"z": 0.6898079437,
				"element": "C" 
			},
			{
				"x": -0.7309976576,
				"y": 3.9178432931,
				"z": -0.5772739873,
				"element": "C" 
			},
			{
				"x": -0.4710993215,
				"y": 2.5507593992,
				"z": -0.7150740087,
				"element": "C" 
			},
			{
				"x": -0.4211914448,
				"y": 1.6973712091,
				"z": 0.3913824914,
				"element": "C" 
			},
			{
				"x": 0.0656189592,
				"y": -0.0928277188,
				"z": 0.3137576298,
				"element": "P" 
			},
			{
				"x": 0.4471087554,
				"y": -0.2991715899,
				"z": -1.4916519073,
				"element": "C" 
			},
			{
				"x": -0.3959739346,
				"y": -0.9327776133,
				"z": -2.4096584179,
				"element": "C" 
			},
			{
				"x": -0.002063295,
				"y": -1.1627794847,
				"z": -3.7315694139,
				"element": "C" 
			},
			{
				"x": 1.2579504175,
				"y": -0.7491307627,
				"z": -4.1534590667,
				"element": "C" 
			},
			{
				"x": 2.1241355826,
				"y": -0.1053228528,
				"z": -3.2651727902,
				"element": "C" 
			},
			{
				"x": 1.7210957125,
				"y": 0.1179442024,
				"z": -1.9445374139,
				"element": "C" 
			},
			{
				"x": 2.4938895173,
				"y": 0.752088898,
				"z": -1.0139655123,
				"element": "O" 
			},
			{
				"x": 3.7987004188,
				"y": 1.1703775038,
				"z": -1.37449625,
				"element": "C" 
			},
			{
				"x": -1.5838296727,
				"y": -0.935148679,
				"z": 0.4470696447,
				"element": "C" 
			},
			{
				"x": -2.8066722886,
				"y": -0.2650582993,
				"z": 0.5502908343,
				"element": "C" 
			},
			{
				"x": -4.0050797808,
				"y": -0.9524319336,
				"z": 0.7666683917,
				"element": "C" 
			},
			{
				"x": -3.9893546729,
				"y": -2.3395147767,
				"z": 0.8784552681,
				"element": "C" 
			},
			{
				"x": -2.786280077,
				"y": -3.0431344163,
				"z": 0.7721632108,
				"element": "C" 
			},
			{
				"x": -1.5929418088,
				"y": -2.3457592426,
				"z": 0.5576403846,
				"element": "C" 
			},
			{
				"x": -0.3756927092,
				"y": -2.950735322,
				"z": 0.4251419201,
				"element": "O" 
			},
			{
				"x": -0.2903933373,
				"y": -4.3587896033,
				"z": 0.5577912637,
				"element": "C" 
			},
			{
				"x": -0.7095514051,
				"y": 0.9959153595,
				"z": 4.6845139284,
				"element": "H" 
			},
			{
				"x": -1.8000619678,
				"y": 2.3065482502,
				"z": 4.1600363038,
				"element": "H" 
			},
			{
				"x": -0.0426886962,
				"y": 2.605557192,
				"z": 4.2987145414,
				"element": "H" 
			},
			{
				"x": -1.0959290366,
				"y": 4.0498932598,
				"z": 2.7983266004,
				"element": "H" 
			},
			{
				"x": -1.1552804411,
				"y": 5.5096127478,
				"z": 0.8132930523,
				"element": "H" 
			},
			{
				"x": -0.7632695161,
				"y": 4.5557529853,
				"z": -1.4555086691,
				"element": "H" 
			},
			{
				"x": -0.302662936,
				"y": 2.1372291637,
				"z": -1.7040554747,
				"element": "H" 
			},
			{
				"x": -1.3800266403,
				"y": -1.2530693878,
				"z": -2.0833780899,
				"element": "H" 
			},
			{
				"x": -0.6789782422,
				"y": -1.6576026318,
				"z": -4.4216471708,
				"element": "H" 
			},
			{
				"x": 1.5782872589,
				"y": -0.9199457409,
				"z": -5.1775675698,
				"element": "H" 
			},
			{
				"x": 3.100576117,
				"y": 0.2169338345,
				"z": -3.6073219183,
				"element": "H" 
			},
			{
				"x": 4.2274327224,
				"y": 1.6213599649,
				"z": -0.4784063094,
				"element": "H" 
			},
			{
				"x": 3.7769962456,
				"y": 1.917082399,
				"z": -2.1789221481,
				"element": "H" 
			},
			{
				"x": 4.4234979055,
				"y": 0.3239831873,
				"z": -1.6878601135,
				"element": "H" 
			},
			{
				"x": -2.8212681356,
				"y": 0.8161672457,
				"z": 0.4599532213,
				"element": "H" 
			},
			{
				"x": -4.9394347343,
				"y": -0.4042817229,
				"z": 0.8426442384,
				"element": "H" 
			},
			{
				"x": -4.9122152948,
				"y": -2.8880214425,
				"z": 1.0459840095,
				"element": "H" 
			},
			{
				"x": -2.7880721067,
				"y": -4.1235964624,
				"z": 0.8554664457,
				"element": "H" 
			},
			{
				"x": -0.6329385442,
				"y": -4.6943663096,
				"z": 1.5452096298,
				"element": "H" 
			},
			{
				"x": 0.7651573774,
				"y": -4.6078287854,
				"z": 0.4396380243,
				"element": "H" 
			},
			{
				"x": -0.8715898006,
				"y": -4.8746915036,
				"z": -0.217595179,
				"element": "H" 
			}
		],
		 "valence_orbital": [ 
			{
				"type": "occ",
				"energy": -0.24107,
				"method": "rhf"
			},
			{
				"type": "occ",
				"energy": -0.22006,
				"method": "rhf"
			},
			{
				"type": "occ",
				"energy": -0.21162,
				"method": "rhf"
			},
			{
				"type": "occ",
				"energy": -0.21161,
				"method": "rhf"
			},
			{
				"type": "occ",
				"energy": -0.18896,
				"method": "rhf"
			},
			{
				"type": "unocc",
				"energy": -0.00579,
				"method": "rhf"
			},
			{
				"type": "unocc",
				"energy": -0.00577,
				"method": "rhf"
			},
			{
				"type": "unocc",
				"energy": 0.00952,
				"method": "rhf"
			},
			{
				"type": "unocc",
				"energy": 0.01597,
				"method": "rhf"
			},
			{
				"type": "unocc",
				"energy": 0.02395,
				"method": "rhf"
			}
		],
		"cosmo_sigma_profile": { 
			"-0.025": 0.0,
			"-0.024": 0.0,
			"-0.023": 0.0,
			"-0.022": 0.0,
			"-0.021": 0.0,
			"-0.02": 0.0,
			"-0.019": 0.0,
			"-0.018": 0.0,
			"-0.017": 0.0,
			"-0.016": 0.0,
			"-0.015": 0.0,
			"-0.014": 0.0,
			"-0.013": 0.0,
			"-0.012": 0.0,
			"-0.011": 0.0,
			"-0.01": 0.0,
			"-0.009": 0.0,
			"-0.008": 0.0,
			"-0.007": 1.45592795687,
			"-0.006": 23.0147176786,
			"-0.005": 43.5601604476,
			"-0.004": 46.3075058309,
			"-0.003": 45.1543160368,
			"-0.002": 25.1405687746,
			"-0.001": 23.4138800823,
			"0.0": 21.0142839853,
			"0.001": 22.7981508735,
			"0.002": 23.5699490035,
			"0.003": 21.4769922505,
			"0.004": 22.3304510752,
			"0.005": 26.1986449763,
			"0.006": 19.8661367116,
			"0.007": 7.17795902148,
			"0.008": 6.28736319623,
			"0.009": 5.35269772495,
			"0.01": 2.93397548622,
			"0.011": 3.0546517493,
			"0.012": 3.20136638686,
			"0.013": 2.16272167974,
			"0.014": 0.821204115664,
			"0.015": 0.0,
			"0.016": 0.0,
			"0.017": 0.0,
			"0.018": 0.0,
			"0.019": 0.0,
			"0.02": 0.0,
			"0.021": 0.0,
			"0.022": 0.0,
			"0.023": 0.0,
			"0.024": 0.0,
			"0.025": 0.0
		}
	}
}
