{
	 "smiles": "OCC1=CN=C(O1)C1=CC=C(C=C1)[N+]([O-])=O", 
	 "Tm": 428.15, 
	 "num_atms": 24, 
	 "gaussian": { 
		 "optdone": 1, 
		 "sigma_profile": "yes", 
		 "theory": "DFT", 
		 "functional": "B3LYP", 
		 "basiset": "6-31G**", 
		 "properties": { 
			 "R2extent": 5561.1078, 
			 "electric_dipole_moment_norm": 4.5293186099, 
			 "electric_quadrupole_moment_norm": 21.3162565166, 
			 "total_energy": -796.162792091, 
			 "HOMO_LUMO_gap": 0.14441, 
			 "cosmo_polarized_energy": -14.61, 
			 "cosmo_cavitation_energy": 30.41, 
			 "cosmo_dispersion_energy": -22.19, 
			 "cosmo_repulsion_energy": 1.73, 
			 "cosmo_total_nonelectrostatic_energy": 9.95, 
			 "SMD_solvation_energy": 6.48 
		},
		"coords": [
			{
				"x": 1.5958062748,
				"y": 2.3065262329,
				"z": -3.7726171876,
				"element": "O" 
			},
			{
				"x": 1.8682158588,
				"y": 0.9119962565,
				"z": -3.7034146946,
				"element": "C" 
			},
			{
				"x": 1.6877965372,
				"y": 0.3382464942,
				"z": -2.3392498646,
				"element": "C" 
			},
			{
				"x": 2.510752476,
				"y": -0.1343347171,
				"z": -1.3622849444,
				"element": "C" 
			},
			{
				"x": 1.7643466425,
				"y": -0.524048667,
				"z": -0.2673645786,
				"element": "N" 
			},
			{
				"x": 0.5281578828,
				"y": -0.2749533151,
				"z": -0.6014675183,
				"element": "C" 
			},
			{
				"x": 0.4018758046,
				"y": 0.250550029,
				"z": -1.8564045237,
				"element": "O" 
			},
			{
				"x": -0.6758650197,
				"y": -0.4919798413,
				"z": 0.1912754816,
				"element": "C" 
			},
			{
				"x": -1.9497359102,
				"y": -0.1825177431,
				"z": -0.3160861172,
				"element": "C" 
			},
			{
				"x": -3.0836029002,
				"y": -0.3982389745,
				"z": 0.4580430927,
				"element": "C" 
			},
			{
				"x": -2.932160245,
				"y": -0.9248267552,
				"z": 1.7398116049,
				"element": "C" 
			},
			{
				"x": -1.6791769505,
				"y": -1.2408767241,
				"z": 2.2668175312,
				"element": "C" 
			},
			{
				"x": -0.5508847366,
				"y": -1.022625728,
				"z": 1.4882333094,
				"element": "C" 
			},
			{
				"x": -4.1300209274,
				"y": -1.1542286102,
				"z": 2.5606985041,
				"element": "N" 
			},
			{
				"x": -3.9680589807,
				"y": -1.6208167469,
				"z": 3.6879728382,
				"element": "O" 
			},
			{
				"x": -5.2216691366,
				"y": -0.8655773057,
				"z": 2.0702742012,
				"element": "O" 
			},
			{
				"x": 0.6631284314,
				"y": 2.4349045432,
				"z": -3.5552536403,
				"element": "H" 
			},
			{
				"x": 1.2544626533,
				"y": 0.3487646782,
				"z": -4.4233912328,
				"element": "H" 
			},
			{
				"x": 2.9142954343,
				"y": 0.7865109026,
				"z": -3.9943669508,
				"element": "H" 
			},
			{
				"x": 3.5877479304,
				"y": -0.2194123837,
				"z": -1.3784375095,
				"element": "H" 
			},
			{
				"x": -2.0463829454,
				"y": 0.2247133441,
				"z": -1.3160508122,
				"element": "H" 
			},
			{
				"x": -4.0760630407,
				"y": -0.168884627,
				"z": 0.091361543,
				"element": "H" 
			},
			{
				"x": -1.6105132954,
				"y": -1.6478657501,
				"z": 3.2677003111,
				"element": "H" 
			},
			{
				"x": 0.4379481621,
				"y": -1.2565245917,
				"z": 1.8661011573,
				"element": "H" 
			}
		],
		 "valence_orbital": [ 
			{
				"type": "occ",
				"energy": -0.30841,
				"method": "rhf"
			},
			{
				"type": "occ",
				"energy": -0.29312,
				"method": "rhf"
			},
			{
				"type": "occ",
				"energy": -0.29141,
				"method": "rhf"
			},
			{
				"type": "occ",
				"energy": -0.28499,
				"method": "rhf"
			},
			{
				"type": "occ",
				"energy": -0.24471,
				"method": "rhf"
			},
			{
				"type": "unocc",
				"energy": -0.1003,
				"method": "rhf"
			},
			{
				"type": "unocc",
				"energy": -0.04112,
				"method": "rhf"
			},
			{
				"type": "unocc",
				"energy": -0.03286,
				"method": "rhf"
			},
			{
				"type": "unocc",
				"energy": 0.01122,
				"method": "rhf"
			},
			{
				"type": "unocc",
				"energy": 0.05432,
				"method": "rhf"
			}
		],
		"cosmo_sigma_profile": { 
			"-0.025": 0.0,
			"-0.024": 0.0,
			"-0.023": 0.0,
			"-0.022": 0.0,
			"-0.021": 0.0,
			"-0.02": 0.0,
			"-0.019": 0.0,
			"-0.018": 0.0,
			"-0.017": 0.0,
			"-0.016": 0.304676331269,
			"-0.015": 0.713571931278,
			"-0.014": 1.07660312909,
			"-0.013": 0.964600019377,
			"-0.012": 0.497567633714,
			"-0.011": 0.803038938255,
			"-0.01": 1.1211343671,
			"-0.009": 1.99089979072,
			"-0.008": 5.25639975264,
			"-0.007": 12.2749999854,
			"-0.006": 15.6762362452,
			"-0.005": 13.8298681704,
			"-0.004": 13.5014641083,
			"-0.003": 13.7623998325,
			"-0.002": 19.443680734,
			"-0.001": 21.0469954541,
			"0.0": 23.5399734041,
			"0.001": 20.6534758335,
			"0.002": 10.7830958405,
			"0.003": 7.58624085133,
			"0.004": 6.18544676011,
			"0.005": 5.88819196915,
			"0.006": 5.87655179464,
			"0.007": 11.1623784756,
			"0.008": 9.53585774506,
			"0.009": 6.00527496784,
			"0.01": 5.5415114946,
			"0.011": 2.5558994115,
			"0.012": 2.1877694722,
			"0.013": 3.24439566491,
			"0.014": 1.2667700656,
			"0.015": 0.0,
			"0.016": 0.0,
			"0.017": 0.0,
			"0.018": 0.0,
			"0.019": 0.0,
			"0.02": 0.0,
			"0.021": 0.0,
			"0.022": 0.0,
			"0.023": 0.0,
			"0.024": 0.0,
			"0.025": 0.0
		}
	}
}
