{
	 "smiles": "COC1=C(C=C(C=C1)C(O)=O)C1=NC=CC=C1", 
	 "Tm": 500.15, 
	 "num_atms": 28, 
	 "gaussian": { 
		 "optdone": 1, 
		 "sigma_profile": "yes", 
		 "theory": "DFT", 
		 "functional": "B3LYP", 
		 "basiset": "6-31G**", 
		 "properties": { 
			 "R2extent": 4915.3303, 
			 "electric_dipole_moment_norm": 7.08126834826, 
			 "electric_quadrupole_moment_norm": 19.6001633687, 
			 "total_energy": -782.435352355, 
			 "HOMO_LUMO_gap": 0.17781, 
			 "cosmo_polarized_energy": -16.77, 
			 "cosmo_cavitation_energy": 32.46, 
			 "cosmo_dispersion_energy": -23.76, 
			 "cosmo_repulsion_energy": 1.82, 
			 "cosmo_total_nonelectrostatic_energy": 10.52, 
			 "SMD_solvation_energy": 6.53 
		},
		"coords": [
			{
				"x": 0.4012056002,
				"y": -0.6810085091,
				"z": 3.0745419251,
				"element": "C" 
			},
			{
				"x": 0.0245676964,
				"y": 0.1533938225,
				"z": 1.9850213006,
				"element": "O" 
			},
			{
				"x": 0.3396038925,
				"y": -0.2265560802,
				"z": 0.7163596414,
				"element": "C" 
			},
			{
				"x": 0.0090754947,
				"y": 0.6662745671,
				"z": -0.3351708252,
				"element": "C" 
			},
			{
				"x": 0.3747003628,
				"y": 0.2930268036,
				"z": -1.6345826747,
				"element": "C" 
			},
			{
				"x": 1.024419445,
				"y": -0.9100288669,
				"z": -1.9226474308,
				"element": "C" 
			},
			{
				"x": 1.3087612826,
				"y": -1.7862527962,
				"z": -0.8691034661,
				"element": "C" 
			},
			{
				"x": 0.9803781134,
				"y": -1.4438306867,
				"z": 0.4353152931,
				"element": "C" 
			},
			{
				"x": 1.4092218857,
				"y": -1.3310007753,
				"z": -3.3053592592,
				"element": "C" 
			},
			{
				"x": 1.4079028477,
				"y": -0.3699462885,
				"z": -4.2674506978,
				"element": "O" 
			},
			{
				"x": 1.7179469874,
				"y": -2.465928372,
				"z": -3.5914288525,
				"element": "O" 
			},
			{
				"x": -0.681214011,
				"y": 1.9783917015,
				"z": -0.1573433405,
				"element": "C" 
			},
			{
				"x": -0.4965302014,
				"y": 2.8584242996,
				"z": -1.1637996819,
				"element": "N" 
			},
			{
				"x": -1.1001208856,
				"y": 4.0459450701,
				"z": -1.1032494172,
				"element": "C" 
			},
			{
				"x": -1.9250294026,
				"y": 4.4419992008,
				"z": -0.0497506708,
				"element": "C" 
			},
			{
				"x": -2.1310259653,
				"y": 3.5328930728,
				"z": 0.9852397113,
				"element": "C" 
			},
			{
				"x": -1.5070075184,
				"y": 2.2884624858,
				"z": 0.9373149438,
				"element": "C" 
			},
			{
				"x": 0.0786216346,
				"y": -0.1560904817,
				"z": 3.9746416519,
				"element": "H" 
			},
			{
				"x": -0.0968360258,
				"y": -1.6566547223,
				"z": 3.0266094228,
				"element": "H" 
			},
			{
				"x": 1.4869456999,
				"y": -0.8278622798,
				"z": 3.1099848258,
				"element": "H" 
			},
			{
				"x": 0.102214036,
				"y": 0.9967151347,
				"z": -2.4149014389,
				"element": "H" 
			},
			{
				"x": 1.7928424377,
				"y": -2.7307727772,
				"z": -1.0920573933,
				"element": "H" 
			},
			{
				"x": 1.2262155716,
				"y": -2.1272855762,
				"z": 1.2383441973,
				"element": "H" 
			},
			{
				"x": 1.2720095212,
				"y": 0.5022111963,
				"z": -3.8718636071,
				"element": "H" 
			},
			{
				"x": -0.9141977596,
				"y": 4.718054576,
				"z": -1.9397565358,
				"element": "H" 
			},
			{
				"x": -2.3886710752,
				"y": 5.4231455213,
				"z": -0.0486496757,
				"element": "H" 
			},
			{
				"x": -2.7747199615,
				"y": 3.784267166,
				"z": 1.8235551577,
				"element": "H" 
			},
			{
				"x": -1.657279703,
				"y": 1.5669135941,
				"z": 1.7270868965,
				"element": "H" 
			}
		],
		 "valence_orbital": [ 
			{
				"type": "occ",
				"energy": -0.28421,
				"method": "rhf"
			},
			{
				"type": "occ",
				"energy": -0.26503,
				"method": "rhf"
			},
			{
				"type": "occ",
				"energy": -0.26132,
				"method": "rhf"
			},
			{
				"type": "occ",
				"energy": -0.25174,
				"method": "rhf"
			},
			{
				"type": "occ",
				"energy": -0.22947,
				"method": "rhf"
			},
			{
				"type": "unocc",
				"energy": -0.05166,
				"method": "rhf"
			},
			{
				"type": "unocc",
				"energy": -0.03648,
				"method": "rhf"
			},
			{
				"type": "unocc",
				"energy": -0.02087,
				"method": "rhf"
			},
			{
				"type": "unocc",
				"energy": 0.01118,
				"method": "rhf"
			},
			{
				"type": "unocc",
				"energy": 0.06443,
				"method": "rhf"
			}
		],
		"cosmo_sigma_profile": { 
			"-0.025": 0.0,
			"-0.024": 0.0,
			"-0.023": 0.0,
			"-0.022": 0.0,
			"-0.021": 0.0,
			"-0.02": 0.0,
			"-0.019": 0.0240251865844,
			"-0.018": 0.562657180041,
			"-0.017": 0.672187507459,
			"-0.016": 0.847999733264,
			"-0.015": 0.525137034316,
			"-0.014": 0.994965416636,
			"-0.013": 0.743041722425,
			"-0.012": 1.51287732263,
			"-0.011": 1.05234424314,
			"-0.01": 1.12629506752,
			"-0.009": 0.68845621357,
			"-0.008": 1.19980381943,
			"-0.007": 8.44752887706,
			"-0.006": 19.2191722672,
			"-0.005": 20.7118273802,
			"-0.004": 20.1006442478,
			"-0.003": 16.49717436,
			"-0.002": 11.8764579168,
			"-0.001": 14.1520145073,
			"0.0": 15.7406039442,
			"0.001": 20.1354725641,
			"0.002": 27.8474402048,
			"0.003": 24.5410805509,
			"0.004": 8.60261849126,
			"0.005": 5.16100666537,
			"0.006": 5.06719243217,
			"0.007": 4.1190467706,
			"0.008": 4.81298546827,
			"0.009": 4.41608936107,
			"0.01": 4.1476101646,
			"0.011": 6.07012243826,
			"0.012": 5.94922791888,
			"0.013": 2.8076033471,
			"0.014": 0.374893271963,
			"0.015": 0.0,
			"0.016": 0.0,
			"0.017": 0.0,
			"0.018": 0.0,
			"0.019": 0.0,
			"0.02": 0.0,
			"0.021": 0.0,
			"0.022": 0.0,
			"0.023": 0.0,
			"0.024": 0.0,
			"0.025": 0.0
		}
	}
}
