{
	 "smiles": "CC1=CC(O)=C2C(=O)C3=C(O)C=C(O)C=C3C(=O)C2=C1", 
	 "Tm": 530.15, 
	 "num_atms": 30, 
	 "gaussian": { 
		 "optdone": 1, 
		 "sigma_profile": "yes", 
		 "theory": "DFT", 
		 "functional": "B3LYP", 
		 "basiset": "6-31G**", 
		 "properties": { 
			 "R2extent": 6180.1322, 
			 "electric_dipole_moment_norm": 0.58614110076, 
			 "electric_quadrupole_moment_norm": 25.3380855832, 
			 "total_energy": -953.787271615, 
			 "HOMO_LUMO_gap": 0.12387, 
			 "cosmo_polarized_energy": -14.21, 
			 "cosmo_cavitation_energy": 33.92, 
			 "cosmo_dispersion_energy": -25.8, 
			 "cosmo_repulsion_energy": 1.89, 
			 "cosmo_total_nonelectrostatic_energy": 10.02, 
			 "SMD_solvation_energy": 7.14 
		},
		"coords": [
			{
				"x": 1.7973539273,
				"y": 3.1573945451,
				"z": 2.6746763119,
				"element": "C" 
			},
			{
				"x": 0.802995706,
				"y": 2.4153734918,
				"z": 1.8165770623,
				"element": "C" 
			},
			{
				"x": -0.4587268836,
				"y": 2.9407417816,
				"z": 1.5642396689,
				"element": "C" 
			},
			{
				"x": -1.3920849476,
				"y": 2.2547081783,
				"z": 0.7640685094,
				"element": "C" 
			},
			{
				"x": -2.5858627761,
				"y": 2.8270280765,
				"z": 0.5681662648,
				"element": "O" 
			},
			{
				"x": -1.0445688742,
				"y": 1.0013106188,
				"z": 0.2010013078,
				"element": "C" 
			},
			{
				"x": -1.9983759945,
				"y": 0.2747557395,
				"z": -0.6307344092,
				"element": "C" 
			},
			{
				"x": -3.1490720654,
				"y": 0.7624242057,
				"z": -0.85624104,
				"element": "O" 
			},
			{
				"x": -1.6201385869,
				"y": -1.008573385,
				"z": -1.1972573095,
				"element": "C" 
			},
			{
				"x": -2.53514417,
				"y": -1.7324144756,
				"z": -2.0103786354,
				"element": "C" 
			},
			{
				"x": -3.7604946101,
				"y": -1.2755204175,
				"z": -2.2861542511,
				"element": "O" 
			},
			{
				"x": -2.1603983468,
				"y": -2.9706202128,
				"z": -2.5522593482,
				"element": "C" 
			},
			{
				"x": -0.8951730723,
				"y": -3.4918635756,
				"z": -2.295822835,
				"element": "C" 
			},
			{
				"x": -0.4838490625,
				"y": -4.6831903405,
				"z": -2.7949349106,
				"element": "O" 
			},
			{
				"x": 0.0247721538,
				"y": -2.7903030251,
				"z": -1.4934436671,
				"element": "C" 
			},
			{
				"x": -0.3382401636,
				"y": -1.5684345134,
				"z": -0.9556586053,
				"element": "C" 
			},
			{
				"x": 0.6575623269,
				"y": -0.8424762236,
				"z": -0.1062599356,
				"element": "C" 
			},
			{
				"x": 1.7679840939,
				"y": -1.3141941973,
				"z": 0.1102349582,
				"element": "O" 
			},
			{
				"x": 0.2458787804,
				"y": 0.4736060978,
				"z": 0.4645869411,
				"element": "C" 
			},
			{
				"x": 1.1478788231,
				"y": 1.1683410063,
				"z": 1.2557239247,
				"element": "C" 
			},
			{
				"x": 2.7136403971,
				"y": 3.37214511,
				"z": 2.1133999004,
				"element": "H" 
			},
			{
				"x": 1.3904064749,
				"y": 4.104530166,
				"z": 3.03680556,
				"element": "H" 
			},
			{
				"x": 2.0882515257,
				"y": 2.556561665,
				"z": 3.5436200102,
				"element": "H" 
			},
			{
				"x": -0.7608256663,
				"y": 3.8977064899,
				"z": 1.9782289605,
				"element": "H" 
			},
			{
				"x": -3.1030110383,
				"y": 2.2109640527,
				"z": -0.0098525383,
				"element": "H" 
			},
			{
				"x": -3.8445496566,
				"y": -0.4010414588,
				"z": -1.8243448305,
				"element": "H" 
			},
			{
				"x": -2.8806684762,
				"y": -3.5001396167,
				"z": -3.1692926337,
				"element": "H" 
			},
			{
				"x": -1.1896606661,
				"y": -5.0749534131,
				"z": -3.327013487,
				"element": "H" 
			},
			{
				"x": 1.0080589735,
				"y": -3.1996962832,
				"z": -1.2967077137,
				"element": "H" 
			},
			{
				"x": 2.1236618743,
				"y": 0.7273299131,
				"z": 1.4310267699,
				"element": "H" 
			}
		],
		 "valence_orbital": [ 
			{
				"type": "occ",
				"energy": -0.27147,
				"method": "rhf"
			},
			{
				"type": "occ",
				"energy": -0.26146,
				"method": "rhf"
			},
			{
				"type": "occ",
				"energy": -0.25584,
				"method": "rhf"
			},
			{
				"type": "occ",
				"energy": -0.24207,
				"method": "rhf"
			},
			{
				"type": "occ",
				"energy": -0.23115,
				"method": "rhf"
			},
			{
				"type": "unocc",
				"energy": -0.10728,
				"method": "rhf"
			},
			{
				"type": "unocc",
				"energy": -0.05036,
				"method": "rhf"
			},
			{
				"type": "unocc",
				"energy": -0.0194,
				"method": "rhf"
			},
			{
				"type": "unocc",
				"energy": 0.00121,
				"method": "rhf"
			},
			{
				"type": "unocc",
				"energy": 0.05105,
				"method": "rhf"
			}
		],
		"cosmo_sigma_profile": { 
			"-0.025": 0.0,
			"-0.024": 0.0,
			"-0.023": 0.0,
			"-0.022": 0.0,
			"-0.021": 0.0,
			"-0.02": 0.0,
			"-0.019": 0.537397171014,
			"-0.018": 1.34758519508,
			"-0.017": 1.28009876798,
			"-0.016": 1.11391794624,
			"-0.015": 0.960828170136,
			"-0.014": 1.1032378345,
			"-0.013": 0.757967442312,
			"-0.012": 1.22643212157,
			"-0.011": 0.599593693433,
			"-0.01": 1.57814817102,
			"-0.009": 1.18373740099,
			"-0.008": 1.7977143644,
			"-0.007": 3.75436294294,
			"-0.006": 7.69318848184,
			"-0.005": 13.2503082281,
			"-0.004": 17.0163394941,
			"-0.003": 23.1058111729,
			"-0.002": 22.589859807,
			"-0.001": 22.441114696,
			"0.0": 27.8659310914,
			"0.001": 33.5905725513,
			"0.002": 23.4162382135,
			"0.003": 9.28684033219,
			"0.004": 8.90108268274,
			"0.005": 8.03829384217,
			"0.006": 5.77212844824,
			"0.007": 4.82789336838,
			"0.008": 6.93788801642,
			"0.009": 6.31240138656,
			"0.01": 7.31052337769,
			"0.011": 6.15897389377,
			"0.012": 0.77442547229,
			"0.013": 0.0,
			"0.014": 0.0,
			"0.015": 0.0,
			"0.016": 0.0,
			"0.017": 0.0,
			"0.018": 0.0,
			"0.019": 0.0,
			"0.02": 0.0,
			"0.021": 0.0,
			"0.022": 0.0,
			"0.023": 0.0,
			"0.024": 0.0,
			"0.025": 0.0
		}
	}
}
