{
	 "smiles": "FC(F)(F)C1=CC=CN(CCC#N)C1=O", 
	 "Tm": 362.15, 
	 "num_atms": 22, 
	 "gaussian": { 
		 "optdone": 1, 
		 "sigma_profile": "yes", 
		 "theory": "DFT", 
		 "functional": "B3LYP", 
		 "basiset": "6-31G**", 
		 "properties": { 
			 "R2extent": 3333.8643, 
			 "electric_dipole_moment_norm": 8.11512907229, 
			 "electric_quadrupole_moment_norm": 17.3060605451, 
			 "total_energy": -831.409064826, 
			 "HOMO_LUMO_gap": 0.17145, 
			 "cosmo_polarized_energy": -23.53, 
			 "cosmo_cavitation_energy": 28.9, 
			 "cosmo_dispersion_energy": -19.29, 
			 "cosmo_repulsion_energy": 1.46, 
			 "cosmo_total_nonelectrostatic_energy": 11.06, 
			 "SMD_solvation_energy": 8.16 
		},
		"coords": [
			{
				"x": -0.6209909216,
				"y": 3.3765060724,
				"z": 1.4244446676,
				"element": "F" 
			},
			{
				"x": 0.2529250295,
				"y": 2.343157734,
				"z": 1.5268668576,
				"element": "C" 
			},
			{
				"x": 0.206205928,
				"y": 1.9077772685,
				"z": 2.7980583388,
				"element": "F" 
			},
			{
				"x": 1.4846934127,
				"y": 2.8449937011,
				"z": 1.3110820013,
				"element": "F" 
			},
			{
				"x": -0.0868330003,
				"y": 1.2546552572,
				"z": 0.5428246128,
				"element": "C" 
			},
			{
				"x": -1.1432267066,
				"y": 1.3785504776,
				"z": -0.3152616982,
				"element": "C" 
			},
			{
				"x": -1.4482471537,
				"y": 0.355087709,
				"z": -1.2516329578,
				"element": "C" 
			},
			{
				"x": -0.6641757274,
				"y": -0.7603971538,
				"z": -1.2661412428,
				"element": "C" 
			},
			{
				"x": 0.3897260883,
				"y": -0.9155980219,
				"z": -0.4107145911,
				"element": "N" 
			},
			{
				"x": 1.1985155868,
				"y": -2.137496731,
				"z": -0.4573541247,
				"element": "C" 
			},
			{
				"x": 0.4622372526,
				"y": -3.3805951615,
				"z": 0.0835486281,
				"element": "C" 
			},
			{
				"x": 0.0199880347,
				"y": -3.2559300445,
				"z": 1.4748088961,
				"element": "C" 
			},
			{
				"x": -0.3522028812,
				"y": -3.1711583036,
				"z": 2.570212004,
				"element": "N" 
			},
			{
				"x": 0.7702140157,
				"y": 0.0758641951,
				"z": 0.5467244494,
				"element": "C" 
			},
			{
				"x": 1.7415123047,
				"y": -0.1022894631,
				"z": 1.2706863335,
				"element": "O" 
			},
			{
				"x": -1.750823285,
				"y": 2.2763358604,
				"z": -0.2794168544,
				"element": "H" 
			},
			{
				"x": -2.2758874706,
				"y": 0.4497041077,
				"z": -1.9425511626,
				"element": "H" 
			},
			{
				"x": -0.832946572,
				"y": -1.5784833172,
				"z": -1.9593221908,
				"element": "H" 
			},
			{
				"x": 2.0887670803,
				"y": -1.9327645253,
				"z": 0.1370311124,
				"element": "H" 
			},
			{
				"x": 1.4948031255,
				"y": -2.330834147,
				"z": -1.4928413073,
				"element": "H" 
			},
			{
				"x": 1.1345484857,
				"y": -4.2428200592,
				"z": 0.0041239191,
				"element": "H" 
			},
			{
				"x": -0.4156026263,
				"y": -3.6082654551,
				"z": -0.5330756909,
				"element": "H" 
			}
		],
		 "valence_orbital": [ 
			{
				"type": "occ",
				"energy": -0.33629,
				"method": "rhf"
			},
			{
				"type": "occ",
				"energy": -0.33262,
				"method": "rhf"
			},
			{
				"type": "occ",
				"energy": -0.31739,
				"method": "rhf"
			},
			{
				"type": "occ",
				"energy": -0.27087,
				"method": "rhf"
			},
			{
				"type": "occ",
				"energy": -0.23874,
				"method": "rhf"
			},
			{
				"type": "unocc",
				"energy": -0.06729,
				"method": "rhf"
			},
			{
				"type": "unocc",
				"energy": -0.00746,
				"method": "rhf"
			},
			{
				"type": "unocc",
				"energy": 0.01786,
				"method": "rhf"
			},
			{
				"type": "unocc",
				"energy": 0.02608,
				"method": "rhf"
			},
			{
				"type": "unocc",
				"energy": 0.06481,
				"method": "rhf"
			}
		],
		"cosmo_sigma_profile": { 
			"-0.025": 0.0,
			"-0.024": 0.0,
			"-0.023": 0.0,
			"-0.022": 0.0,
			"-0.021": 0.0,
			"-0.02": 0.0,
			"-0.019": 0.0,
			"-0.018": 0.0,
			"-0.017": 0.0,
			"-0.016": 0.0,
			"-0.015": 0.0,
			"-0.014": 0.0,
			"-0.013": 0.0810264696973,
			"-0.012": 0.989808523616,
			"-0.011": 2.46783835276,
			"-0.01": 4.55257042091,
			"-0.009": 9.79422901387,
			"-0.008": 13.5000543659,
			"-0.007": 13.8381514784,
			"-0.006": 11.9004994411,
			"-0.005": 8.62282235844,
			"-0.004": 7.75294163007,
			"-0.003": 11.2450465667,
			"-0.002": 10.1298058871,
			"-0.001": 11.3528429439,
			"0.0": 12.8412302135,
			"0.001": 12.5315042147,
			"0.002": 17.9103488074,
			"0.003": 27.9279072294,
			"0.004": 7.44369498666,
			"0.005": 5.0422188835,
			"0.006": 5.82593747492,
			"0.007": 5.2758689307,
			"0.008": 4.9819135991,
			"0.009": 5.73278864651,
			"0.01": 4.78585635523,
			"0.011": 5.24406480447,
			"0.012": 5.63360003909,
			"0.013": 4.89689333713,
			"0.014": 0.061401039167,
			"0.015": 0.0,
			"0.016": 0.0,
			"0.017": 0.0,
			"0.018": 0.0,
			"0.019": 0.0,
			"0.02": 0.0,
			"0.021": 0.0,
			"0.022": 0.0,
			"0.023": 0.0,
			"0.024": 0.0,
			"0.025": 0.0
		}
	}
}
