{
	 "smiles": "COC1=C(OC)C=C(C(C2=CC=C(C)O2)C2=CC=C(C)O2)C(NC(=S)NC2=CC=C(Br)C=C2)=C1", 
	 "Tm": 440.15, 
	 "num_atms": 59, 
	 "gaussian": { 
		 "optdone": 1, 
		 "sigma_profile": "yes", 
		 "theory": "DFT", 
		 "functional": "B3LYP", 
		 "basiset": "6-31G**", 
		 "properties": { 
			 "R2extent": 25168.6353, 
			 "electric_dipole_moment_norm": 7.63337650781, 
			 "electric_quadrupole_moment_norm": 26.060334649, 
			 "total_energy": -4385.77435083, 
			 "HOMO_LUMO_gap": 0.17496, 
			 "cosmo_polarized_energy": -20.99, 
			 "cosmo_cavitation_energy": 67.03, 
			 "cosmo_dispersion_energy": -42.64, 
			 "cosmo_repulsion_energy": 3.3, 
			 "cosmo_total_nonelectrostatic_energy": 27.68, 
			 "SMD_solvation_energy": 11.54 
		},
		"coords": [
			{
				"x": 1.0234124676,
				"y": 5.0076461705,
				"z": -1.8618468521,
				"element": "C" 
			},
			{
				"x": 0.4659331307,
				"y": 4.7309706242,
				"z": -0.5687269255,
				"element": "O" 
			},
			{
				"x": 0.138235746,
				"y": 3.4154617158,
				"z": -0.3468562932,
				"element": "C" 
			},
			{
				"x": -0.9320802153,
				"y": 2.7897549813,
				"z": -1.0186367518,
				"element": "C" 
			},
			{
				"x": -1.6687857065,
				"y": 3.4502744268,
				"z": -1.9717727874,
				"element": "O" 
			},
			{
				"x": -2.490957882,
				"y": 4.515991532,
				"z": -1.4737044977,
				"element": "C" 
			},
			{
				"x": -1.2317070684,
				"y": 1.4569020204,
				"z": -0.7460860404,
				"element": "C" 
			},
			{
				"x": -0.5087273477,
				"y": 0.7147247117,
				"z": 0.1985359644,
				"element": "C" 
			},
			{
				"x": -0.8495518594,
				"y": -0.7499345014,
				"z": 0.4734319346,
				"element": "C" 
			},
			{
				"x": -2.3021104091,
				"y": -0.984797492,
				"z": 0.7894182743,
				"element": "C" 
			},
			{
				"x": -2.9550582289,
				"y": -1.264925916,
				"z": 1.9514000592,
				"element": "C" 
			},
			{
				"x": -4.3473159816,
				"y": -1.3722248459,
				"z": 1.6221211304,
				"element": "C" 
			},
			{
				"x": -4.4516674213,
				"y": -1.153925721,
				"z": 0.2806581852,
				"element": "C" 
			},
			{
				"x": -5.5913761497,
				"y": -1.133572612,
				"z": -0.6761067344,
				"element": "C" 
			},
			{
				"x": -3.2048530778,
				"y": -0.9163748397,
				"z": -0.2414534559,
				"element": "O" 
			},
			{
				"x": -0.3534481045,
				"y": -1.6306503983,
				"z": -0.646519504,
				"element": "C" 
			},
			{
				"x": 0.049560801,
				"y": -1.4122211408,
				"z": -1.932611295,
				"element": "C" 
			},
			{
				"x": 0.3765553929,
				"y": -2.700158733,
				"z": -2.4796620706,
				"element": "C" 
			},
			{
				"x": 0.1534169342,
				"y": -3.6139931421,
				"z": -1.492206557,
				"element": "C" 
			},
			{
				"x": 0.2980720518,
				"y": -5.092258116,
				"z": -1.4017337197,
				"element": "C" 
			},
			{
				"x": -0.2923014214,
				"y": -2.9697761679,
				"z": -0.367784328,
				"element": "O" 
			},
			{
				"x": 0.5370567055,
				"y": 1.3567335771,
				"z": 0.8866041663,
				"element": "C" 
			},
			{
				"x": 1.2744878835,
				"y": 0.6795174339,
				"z": 1.9186131313,
				"element": "N" 
			},
			{
				"x": 2.5338196364,
				"y": 0.1255187358,
				"z": 1.7903763698,
				"element": "C" 
			},
			{
				"x": 3.4636648372,
				"y": -0.1268866698,
				"z": 3.1658956822,
				"element": "S" 
			},
			{
				"x": 2.8622537828,
				"y": -0.200076196,
				"z": 0.5061132029,
				"element": "N" 
			},
			{
				"x": 4.0528570284,
				"y": -0.7542841776,
				"z": -0.0209103665,
				"element": "C" 
			},
			{
				"x": 5.3265720806,
				"y": -0.4824467761,
				"z": 0.4963170909,
				"element": "C" 
			},
			{
				"x": 6.4561287694,
				"y": -1.0224164405,
				"z": -0.1161941395,
				"element": "C" 
			},
			{
				"x": 6.3193646481,
				"y": -1.8221073431,
				"z": -1.2487852141,
				"element": "C" 
			},
			{
				"x": 7.8751417009,
				"y": -2.5554908903,
				"z": -2.0855027437,
				"element": "Br" 
			},
			{
				"x": 5.060484342,
				"y": -2.0921656015,
				"z": -1.780189955,
				"element": "C" 
			},
			{
				"x": 3.9313943861,
				"y": -1.5601338813,
				"z": -1.1625671757,
				"element": "C" 
			},
			{
				"x": 0.8521263517,
				"y": 2.6931895413,
				"z": 0.6044419731,
				"element": "C" 
			},
			{
				"x": 1.9682858664,
				"y": 4.4674952491,
				"z": -1.9976005178,
				"element": "H" 
			},
			{
				"x": 0.3282141161,
				"y": 4.7364057743,
				"z": -2.6619793514,
				"element": "H" 
			},
			{
				"x": 1.2155071671,
				"y": 6.0817586421,
				"z": -1.8856500124,
				"element": "H" 
			},
			{
				"x": -1.8908449765,
				"y": 5.2854317164,
				"z": -0.9792462653,
				"element": "H" 
			},
			{
				"x": -3.2397752436,
				"y": 4.1281012155,
				"z": -0.7724765088,
				"element": "H" 
			},
			{
				"x": -2.9959229774,
				"y": 4.9407434255,
				"z": -2.3431378075,
				"element": "H" 
			},
			{
				"x": -2.062880697,
				"y": 1.0032566071,
				"z": -1.2738825199,
				"element": "H" 
			},
			{
				"x": -0.305770698,
				"y": -1.0397826336,
				"z": 1.3791888575,
				"element": "H" 
			},
			{
				"x": -2.5002075828,
				"y": -1.3861467843,
				"z": 2.9243755457,
				"element": "H" 
			},
			{
				"x": -5.1635639102,
				"y": -1.5907445105,
				"z": 2.2960423009,
				"element": "H" 
			},
			{
				"x": -5.4694986494,
				"y": -1.8876685839,
				"z": -1.4622583929,
				"element": "H" 
			},
			{
				"x": -6.5233694308,
				"y": -1.3408253429,
				"z": -0.1452282096,
				"element": "H" 
			},
			{
				"x": -5.6878592067,
				"y": -0.158949486,
				"z": -1.1689025563,
				"element": "H" 
			},
			{
				"x": 0.0889391612,
				"y": -0.4583602218,
				"z": -2.4373426469,
				"element": "H" 
			},
			{
				"x": 0.725671324,
				"y": -2.9150934701,
				"z": -3.4797832053,
				"element": "H" 
			},
			{
				"x": -0.6565891101,
				"y": -5.5728077108,
				"z": -1.1594836863,
				"element": "H" 
			},
			{
				"x": 1.0161539704,
				"y": -5.3771620628,
				"z": -0.6244124561,
				"element": "H" 
			},
			{
				"x": 0.6501964641,
				"y": -5.4898024333,
				"z": -2.3562964165,
				"element": "H" 
			},
			{
				"x": 1.0932923979,
				"y": 0.9648272578,
				"z": 2.8729581686,
				"element": "H" 
			},
			{
				"x": 2.0982956389,
				"y": -0.1604525588,
				"z": -0.1602070775,
				"element": "H" 
			},
			{
				"x": 5.4318149583,
				"y": 0.1372956527,
				"z": 1.3758250675,
				"element": "H" 
			},
			{
				"x": 7.4401956948,
				"y": -0.8126867491,
				"z": 0.2871621445,
				"element": "H" 
			},
			{
				"x": 4.9587635061,
				"y": -2.7165550793,
				"z": -2.660379161,
				"element": "H" 
			},
			{
				"x": 2.9465470755,
				"y": -1.7837427443,
				"z": -1.5636184493,
				"element": "H" 
			},
			{
				"x": 1.6650073384,
				"y": 3.184100962,
				"z": 1.1296633983,
				"element": "H" 
			}
		],
		 "valence_orbital": [ 
			{
				"type": "occ",
				"energy": -0.22998,
				"method": "rhf"
			},
			{
				"type": "occ",
				"energy": -0.22613,
				"method": "rhf"
			},
			{
				"type": "occ",
				"energy": -0.21298,
				"method": "rhf"
			},
			{
				"type": "occ",
				"energy": -0.20915,
				"method": "rhf"
			},
			{
				"type": "occ",
				"energy": -0.20342,
				"method": "rhf"
			},
			{
				"type": "unocc",
				"energy": -0.02846,
				"method": "rhf"
			},
			{
				"type": "unocc",
				"energy": -0.02656,
				"method": "rhf"
			},
			{
				"type": "unocc",
				"energy": -0.02117,
				"method": "rhf"
			},
			{
				"type": "unocc",
				"energy": -0.00882,
				"method": "rhf"
			},
			{
				"type": "unocc",
				"energy": 0.00438,
				"method": "rhf"
			}
		],
		"cosmo_sigma_profile": { 
			"-0.025": 0.0,
			"-0.024": 0.0,
			"-0.023": 0.0,
			"-0.022": 0.0,
			"-0.021": 0.0,
			"-0.02": 0.0,
			"-0.019": 0.0,
			"-0.018": 0.0,
			"-0.017": 0.0,
			"-0.016": 0.0,
			"-0.015": 0.0139928731262,
			"-0.014": 0.821182192085,
			"-0.013": 0.76698517929,
			"-0.012": 1.00147501373,
			"-0.011": 0.808829354434,
			"-0.01": 1.82153482786,
			"-0.009": 1.81840291547,
			"-0.008": 2.75658161363,
			"-0.007": 8.61265171129,
			"-0.006": 19.377185725,
			"-0.005": 35.0167349693,
			"-0.004": 45.8521008461,
			"-0.003": 53.3397192053,
			"-0.002": 50.7294421489,
			"-0.001": 49.6268199127,
			"0.0": 39.4407457176,
			"0.001": 38.1099686885,
			"0.002": 39.5969402902,
			"0.003": 37.7626243695,
			"0.004": 32.262820792,
			"0.005": 22.9280647844,
			"0.006": 16.7504696365,
			"0.007": 10.4201335999,
			"0.008": 8.02497509913,
			"0.009": 7.16125859447,
			"0.01": 7.57031048347,
			"0.011": 7.43359323915,
			"0.012": 1.17519011881,
			"0.013": 0.0,
			"0.014": 0.0,
			"0.015": 0.0,
			"0.016": 0.0,
			"0.017": 0.0,
			"0.018": 0.0,
			"0.019": 0.0,
			"0.02": 0.0,
			"0.021": 0.0,
			"0.022": 0.0,
			"0.023": 0.0,
			"0.024": 0.0,
			"0.025": 0.0
		}
	}
}
