{
	 "smiles": "COC(=O)C(C)(C)C1=CC[C@@]2(C)[C@@H](CCC3C4CC[C@H](O)[C@@]4(C)CCC23)C1", 
	 "Tm": 423.15, 
	 "num_atms": 65, 
	 "gaussian": { 
		 "optdone": 1, 
		 "sigma_profile": "yes", 
		 "theory": "DFT", 
		 "functional": "B3LYP", 
		 "basiset": "6-31G**", 
		 "properties": { 
			 "R2extent": 15121.2813, 
			 "electric_dipole_moment_norm": 3.40788420431, 
			 "electric_quadrupole_moment_norm": 9.42767730091, 
			 "total_energy": -1163.15465037, 
			 "HOMO_LUMO_gap": 0.24144, 
			 "cosmo_polarized_energy": -12.44, 
			 "cosmo_cavitation_energy": 55.82, 
			 "cosmo_dispersion_energy": -38.08, 
			 "cosmo_repulsion_energy": 2.81, 
			 "cosmo_total_nonelectrostatic_energy": 20.54, 
			 "SMD_solvation_energy": 9.19 
		},
		"coords": [
			{
				"x": 5.0085350326,
				"y": 2.669358869,
				"z": 3.6479588756,
				"element": "C" 
			},
			{
				"x": 4.8375511574,
				"y": 1.2936877001,
				"z": 3.2694066073,
				"element": "O" 
			},
			{
				"x": 3.5540120829,
				"y": 0.8791458545,
				"z": 3.1620580917,
				"element": "C" 
			},
			{
				"x": 2.6110157186,
				"y": 1.6169680202,
				"z": 3.3603845463,
				"element": "O" 
			},
			{
				"x": 3.4481465801,
				"y": -0.6243505439,
				"z": 2.8456752297,
				"element": "C" 
			},
			{
				"x": 4.6626564808,
				"y": -1.1264306807,
				"z": 2.0278768714,
				"element": "C" 
			},
			{
				"x": 3.4732034201,
				"y": -1.3205787402,
				"z": 4.228834174,
				"element": "C" 
			},
			{
				"x": 2.1446527877,
				"y": -0.8644177801,
				"z": 2.0713855064,
				"element": "C" 
			},
			{
				"x": 1.2091070357,
				"y": -1.7344160236,
				"z": 2.4730479595,
				"element": "C" 
			},
			{
				"x": -0.0921998871,
				"y": -1.9947566122,
				"z": 1.7541221983,
				"element": "C" 
			},
			{
				"x": -0.481965902,
				"y": -0.8988741914,
				"z": 0.7307965273,
				"element": "C" 
			},
			{
				"x": -0.9696164018,
				"y": 0.3459958481,
				"z": 1.5077075186,
				"element": "C" 
			},
			{
				"x": 0.80314222,
				"y": -0.5825201241,
				"z": -0.090094282,
				"element": "C" 
			},
			{
				"x": 0.5383063471,
				"y": 0.3687491663,
				"z": -1.2657214749,
				"element": "C" 
			},
			{
				"x": -0.5404548852,
				"y": -0.1846634785,
				"z": -2.20099969,
				"element": "C" 
			},
			{
				"x": -1.8417136765,
				"y": -0.521541343,
				"z": -1.4520087038,
				"element": "C" 
			},
			{
				"x": -2.9175716187,
				"y": -1.0791628819,
				"z": -2.4147104498,
				"element": "C" 
			},
			{
				"x": -2.5034514079,
				"y": -2.3202259414,
				"z": -3.2559838665,
				"element": "C" 
			},
			{
				"x": -3.8125233335,
				"y": -3.1120268985,
				"z": -3.5311402388,
				"element": "C" 
			},
			{
				"x": -4.953124367,
				"y": -2.3294415764,
				"z": -2.8378777174,
				"element": "C" 
			},
			{
				"x": -5.6780069566,
				"y": -1.5202705138,
				"z": -3.7669279678,
				"element": "O" 
			},
			{
				"x": -4.2471615156,
				"y": -1.5022727438,
				"z": -1.7245556378,
				"element": "C" 
			},
			{
				"x": -5.1034798058,
				"y": -0.3129474822,
				"z": -1.2684697777,
				"element": "C" 
			},
			{
				"x": -3.9224526374,
				"y": -2.4306153271,
				"z": -0.5281346367,
				"element": "C" 
			},
			{
				"x": -2.9046078339,
				"y": -1.8235482527,
				"z": 0.4484599419,
				"element": "C" 
			},
			{
				"x": -1.5762017698,
				"y": -1.456383432,
				"z": -0.2445067672,
				"element": "C" 
			},
			{
				"x": 1.9456700268,
				"y": -0.0654354987,
				"z": 0.7986929602,
				"element": "C" 
			},
			{
				"x": 4.5423427555,
				"y": 3.3311510035,
				"z": 2.9138871775,
				"element": "H" 
			},
			{
				"x": 4.5583821748,
				"y": 2.8589675891,
				"z": 4.6256679922,
				"element": "H" 
			},
			{
				"x": 6.0855932127,
				"y": 2.8335243495,
				"z": 3.6830498215,
				"element": "H" 
			},
			{
				"x": 5.5915471977,
				"y": -0.9913255224,
				"z": 2.5859355323,
				"element": "H" 
			},
			{
				"x": 4.7690105773,
				"y": -0.5981725983,
				"z": 1.0771477689,
				"element": "H" 
			},
			{
				"x": 4.5347992104,
				"y": -2.1916815555,
				"z": 1.8126237366,
				"element": "H" 
			},
			{
				"x": 4.3973662481,
				"y": -1.0666486817,
				"z": 4.7559635957,
				"element": "H" 
			},
			{
				"x": 3.4436560406,
				"y": -2.4076954208,
				"z": 4.1103604473,
				"element": "H" 
			},
			{
				"x": 2.6247309799,
				"y": -1.0120131489,
				"z": 4.8450145224,
				"element": "H" 
			},
			{
				"x": 1.3555589927,
				"y": -2.3075083295,
				"z": 3.3844879769,
				"element": "H" 
			},
			{
				"x": -0.8843962235,
				"y": -2.1080334095,
				"z": 2.5052328117,
				"element": "H" 
			},
			{
				"x": -0.0331465326,
				"y": -2.9702221355,
				"z": 1.2448402998,
				"element": "H" 
			},
			{
				"x": -0.1998823569,
				"y": 0.704185588,
				"z": 2.1963084313,
				"element": "H" 
			},
			{
				"x": -1.8515056707,
				"y": 0.1091885248,
				"z": 2.1101379457,
				"element": "H" 
			},
			{
				"x": -1.2374983184,
				"y": 1.1758494469,
				"z": 0.8475302793,
				"element": "H" 
			},
			{
				"x": 1.132422521,
				"y": -1.5429079592,
				"z": -0.5190432729,
				"element": "H" 
			},
			{
				"x": 1.4708899301,
				"y": 0.5310846284,
				"z": -1.8220566894,
				"element": "H" 
			},
			{
				"x": 0.2360410554,
				"y": 1.3539157629,
				"z": -0.886264087,
				"element": "H" 
			},
			{
				"x": -0.1557341833,
				"y": -1.0922826753,
				"z": -2.6857279896,
				"element": "H" 
			},
			{
				"x": -0.7518528126,
				"y": 0.5299606473,
				"z": -3.0076063038,
				"element": "H" 
			},
			{
				"x": -2.2415073898,
				"y": 0.4221701706,
				"z": -1.0525001266,
				"element": "H" 
			},
			{
				"x": -3.1540437362,
				"y": -0.2644875722,
				"z": -3.1185374798,
				"element": "H" 
			},
			{
				"x": -1.7908245018,
				"y": -2.9436611581,
				"z": -2.7071252077,
				"element": "H" 
			},
			{
				"x": -1.9991032675,
				"y": -2.0245297542,
				"z": -4.1807571867,
				"element": "H" 
			},
			{
				"x": -4.0402588255,
				"y": -3.2059446392,
				"z": -4.5972108361,
				"element": "H" 
			},
			{
				"x": -3.743664698,
				"y": -4.1314877421,
				"z": -3.1387824962,
				"element": "H" 
			},
			{
				"x": -5.7132978851,
				"y": -2.9938265676,
				"z": -2.4126931924,
				"element": "H" 
			},
			{
				"x": -5.043607373,
				"y": -0.9549232859,
				"z": -4.2275862855,
				"element": "H" 
			},
			{
				"x": -4.5838039168,
				"y": 0.307993523,
				"z": -0.5328624689,
				"element": "H" 
			},
			{
				"x": -5.3772364064,
				"y": 0.3207342878,
				"z": -2.1152394504,
				"element": "H" 
			},
			{
				"x": -6.0358178435,
				"y": -0.6610524222,
				"z": -0.8094553941,
				"element": "H" 
			},
			{
				"x": -4.8527476281,
				"y": -2.6700427982,
				"z": 0.0030807603,
				"element": "H" 
			},
			{
				"x": -3.5275956538,
				"y": -3.3875258139,
				"z": -0.8934323585,
				"element": "H" 
			},
			{
				"x": -3.3385852859,
				"y": -0.9324926497,
				"z": 0.9159227549,
				"element": "H" 
			},
			{
				"x": -2.7239304104,
				"y": -2.5363174054,
				"z": 1.2609209558,
				"element": "H" 
			},
			{
				"x": -1.1564085214,
				"y": -2.3927175534,
				"z": -0.6471598822,
				"element": "H" 
			},
			{
				"x": 2.8694072072,
				"y": -0.0643931247,
				"z": 0.2048298061,
				"element": "H" 
			},
			{
				"x": 1.7691344469,
				"y": 0.9852430094,
				"z": 1.0638222939,
				"element": "H" 
			}
		],
		 "valence_orbital": [ 
			{
				"type": "occ",
				"energy": -0.27251,
				"method": "rhf"
			},
			{
				"type": "occ",
				"energy": -0.26709,
				"method": "rhf"
			},
			{
				"type": "occ",
				"energy": -0.26474,
				"method": "rhf"
			},
			{
				"type": "occ",
				"energy": -0.24767,
				"method": "rhf"
			},
			{
				"type": "occ",
				"energy": -0.23088,
				"method": "rhf"
			},
			{
				"type": "unocc",
				"energy": 0.01056,
				"method": "rhf"
			},
			{
				"type": "unocc",
				"energy": 0.031,
				"method": "rhf"
			},
			{
				"type": "unocc",
				"energy": 0.06387,
				"method": "rhf"
			},
			{
				"type": "unocc",
				"energy": 0.07938,
				"method": "rhf"
			},
			{
				"type": "unocc",
				"energy": 0.08242,
				"method": "rhf"
			}
		],
		"cosmo_sigma_profile": { 
			"-0.025": 0.0,
			"-0.024": 0.0,
			"-0.023": 0.0,
			"-0.022": 0.0,
			"-0.021": 0.0,
			"-0.02": 0.0,
			"-0.019": 0.0,
			"-0.018": 0.0,
			"-0.017": 0.0,
			"-0.016": 0.0,
			"-0.015": 0.0,
			"-0.014": 0.140991535048,
			"-0.013": 0.806468063989,
			"-0.012": 0.672998692991,
			"-0.011": 1.18765478323,
			"-0.01": 1.22800660163,
			"-0.009": 1.31155921995,
			"-0.008": 0.763207202412,
			"-0.007": 0.964376986984,
			"-0.006": 5.26500904375,
			"-0.005": 8.43994592975,
			"-0.004": 16.7217104983,
			"-0.003": 33.9058229963,
			"-0.002": 70.3075803118,
			"-0.001": 79.440676407,
			"0.0": 67.2204279487,
			"0.001": 51.3474498668,
			"0.002": 29.5712357023,
			"0.003": 8.79526942799,
			"0.004": 8.43434873601,
			"0.005": 6.09599127522,
			"0.006": 5.54129604947,
			"0.007": 5.28261610985,
			"0.008": 4.09951635434,
			"0.009": 3.22576795409,
			"0.01": 2.74503068287,
			"0.011": 3.7848990933,
			"0.012": 4.26230249468,
			"0.013": 2.18881469957,
			"0.014": 1.67780967297,
			"0.015": 1.87622162206,
			"0.016": 0.11819426565,
			"0.017": 0.0,
			"0.018": 0.0,
			"0.019": 0.0,
			"0.02": 0.0,
			"0.021": 0.0,
			"0.022": 0.0,
			"0.023": 0.0,
			"0.024": 0.0,
			"0.025": 0.0
		}
	}
}
