{
	 "smiles": "CCN(CC)C1=CC=C(C=O)C=C1", 
	 "Tm": 313.65, 
	 "num_atms": 28, 
	 "gaussian": { 
		 "optdone": 1, 
		 "sigma_profile": "yes", 
		 "theory": "DFT", 
		 "functional": "B3LYP", 
		 "basiset": "6-31G**", 
		 "properties": { 
			 "R2extent": 3876.4409, 
			 "electric_dipole_moment_norm": 6.3065891994, 
			 "electric_quadrupole_moment_norm": 22.9600604193, 
			 "total_energy": -558.185501251, 
			 "HOMO_LUMO_gap": 0.16147, 
			 "cosmo_polarized_energy": -11.2, 
			 "cosmo_cavitation_energy": 30.06, 
			 "cosmo_dispersion_energy": -21.51, 
			 "cosmo_repulsion_energy": 1.69, 
			 "cosmo_total_nonelectrostatic_energy": 10.24, 
			 "SMD_solvation_energy": 5.92 
		},
		"coords": [
			{
				"x": -1.8459555226,
				"y": 1.0796312428,
				"z": -1.0697810853,
				"element": "C" 
			},
			{
				"x": -0.4101208793,
				"y": 1.1642534512,
				"z": -1.6074008825,
				"element": "C" 
			},
			{
				"x": 0.2678599448,
				"y": -0.122875497,
				"z": -1.763273693,
				"element": "N" 
			},
			{
				"x": 0.2502624175,
				"y": -0.7460131848,
				"z": -3.0874119658,
				"element": "C" 
			},
			{
				"x": -0.8539519252,
				"y": -1.7920709009,
				"z": -3.2969288052,
				"element": "C" 
			},
			{
				"x": 0.8348282068,
				"y": -0.7655007466,
				"z": -0.678763085,
				"element": "C" 
			},
			{
				"x": 0.8276117486,
				"y": -0.18338669,
				"z": 0.6166124098,
				"element": "C" 
			},
			{
				"x": 1.436391807,
				"y": -0.820067007,
				"z": 1.6871480433,
				"element": "C" 
			},
			{
				"x": 2.0695956749,
				"y": -2.0618664774,
				"z": 1.5385630056,
				"element": "C" 
			},
			{
				"x": 2.7051408502,
				"y": -2.7254197902,
				"z": 2.6815085004,
				"element": "C" 
			},
			{
				"x": 3.2729520791,
				"y": -3.8054569062,
				"z": 2.6423181269,
				"element": "O" 
			},
			{
				"x": 2.068396175,
				"y": -2.6536463866,
				"z": 0.2641352081,
				"element": "C" 
			},
			{
				"x": 1.4666919012,
				"y": -2.0336992272,
				"z": -0.81528493,
				"element": "C" 
			},
			{
				"x": -2.2638994976,
				"y": 2.0851066339,
				"z": -0.9496941914,
				"element": "H" 
			},
			{
				"x": -1.8786755381,
				"y": 0.5788715753,
				"z": -0.0982826561,
				"element": "H" 
			},
			{
				"x": -2.4924235278,
				"y": 0.5244359757,
				"z": -1.7556004462,
				"element": "H" 
			},
			{
				"x": -0.4175991292,
				"y": 1.6469426458,
				"z": -2.5895088119,
				"element": "H" 
			},
			{
				"x": 0.1948469451,
				"y": 1.8105298898,
				"z": -0.9616177913,
				"element": "H" 
			},
			{
				"x": 0.1337690137,
				"y": 0.0577207456,
				"z": -3.8209439774,
				"element": "H" 
			},
			{
				"x": 1.2313792915,
				"y": -1.1913000677,
				"z": -3.2858685771,
				"element": "H" 
			},
			{
				"x": -1.8469240885,
				"y": -1.342874917,
				"z": -3.2029573066,
				"element": "H" 
			},
			{
				"x": -0.7737063866,
				"y": -2.2298878405,
				"z": -4.2978774167,
				"element": "H" 
			},
			{
				"x": -0.7805176738,
				"y": -2.6009357196,
				"z": -2.5648171355,
				"element": "H" 
			},
			{
				"x": 0.3433910887,
				"y": 0.7690790405,
				"z": 0.7880846765,
				"element": "H" 
			},
			{
				"x": 1.417498766,
				"y": -0.3449844097,
				"z": 2.6660745004,
				"element": "H" 
			},
			{
				"x": 2.6369604951,
				"y": -2.1564260677,
				"z": 3.6378211036,
				"element": "H" 
			},
			{
				"x": 2.5509930385,
				"y": -3.6191346392,
				"z": 0.1452672481,
				"element": "H" 
			},
			{
				"x": 1.4834047252,
				"y": -2.5355247254,
				"z": -1.7741200658,
				"element": "H" 
			}
		],
		 "valence_orbital": [ 
			{
				"type": "occ",
				"energy": -0.33382,
				"method": "rhf"
			},
			{
				"type": "occ",
				"energy": -0.28926,
				"method": "rhf"
			},
			{
				"type": "occ",
				"energy": -0.25494,
				"method": "rhf"
			},
			{
				"type": "occ",
				"energy": -0.23435,
				"method": "rhf"
			},
			{
				"type": "occ",
				"energy": -0.20015,
				"method": "rhf"
			},
			{
				"type": "unocc",
				"energy": -0.03868,
				"method": "rhf"
			},
			{
				"type": "unocc",
				"energy": -0.00344,
				"method": "rhf"
			},
			{
				"type": "unocc",
				"energy": 0.05738,
				"method": "rhf"
			},
			{
				"type": "unocc",
				"energy": 0.07274,
				"method": "rhf"
			},
			{
				"type": "unocc",
				"energy": 0.09284,
				"method": "rhf"
			}
		],
		"cosmo_sigma_profile": { 
			"-0.025": 0.0,
			"-0.024": 0.0,
			"-0.023": 0.0,
			"-0.022": 0.0,
			"-0.021": 0.0,
			"-0.02": 0.0,
			"-0.019": 0.0,
			"-0.018": 0.0,
			"-0.017": 0.0,
			"-0.016": 0.0,
			"-0.015": 0.0,
			"-0.014": 0.0,
			"-0.013": 0.0,
			"-0.012": 0.0,
			"-0.011": 0.0,
			"-0.01": 0.0,
			"-0.009": 0.0,
			"-0.008": 0.0,
			"-0.007": 1.4978348512,
			"-0.006": 10.3979774905,
			"-0.005": 16.4589789286,
			"-0.004": 22.115876368,
			"-0.003": 28.9719398975,
			"-0.002": 28.6711389336,
			"-0.001": 20.6174231618,
			"0.0": 21.5381800762,
			"0.001": 18.3227245302,
			"0.002": 12.0888774653,
			"0.003": 12.0924766894,
			"0.004": 10.9117196495,
			"0.005": 11.8529823281,
			"0.006": 2.82454249335,
			"0.007": 1.634077615,
			"0.008": 1.16695043031,
			"0.009": 2.29681583042,
			"0.01": 1.74563367425,
			"0.011": 1.96382246789,
			"0.012": 4.36253309903,
			"0.013": 4.25282315122,
			"0.014": 1.30202858566,
			"0.015": 0.0484001761146,
			"0.016": 0.0,
			"0.017": 0.0,
			"0.018": 0.0,
			"0.019": 0.0,
			"0.02": 0.0,
			"0.021": 0.0,
			"0.022": 0.0,
			"0.023": 0.0,
			"0.024": 0.0,
			"0.025": 0.0
		}
	}
}
