{
	 "smiles": "ClC1=NC=NC2=C1C(=CS2)C1=CC=CC=C1", 
	 "Tm": 403.15, 
	 "num_atms": 23, 
	 "gaussian": { 
		 "optdone": 1, 
		 "sigma_profile": "yes", 
		 "theory": "DFT", 
		 "functional": "B3LYP", 
		 "basiset": "6-31G**", 
		 "properties": { 
			 "R2extent": 4664.6653, 
			 "electric_dipole_moment_norm": 3.03216460305, 
			 "electric_quadrupole_moment_norm": 3.01941943095, 
			 "total_energy": -1429.37105229, 
			 "HOMO_LUMO_gap": 0.18543, 
			 "cosmo_polarized_energy": -8.27, 
			 "cosmo_cavitation_energy": 31.18, 
			 "cosmo_dispersion_energy": -22.88, 
			 "cosmo_repulsion_energy": 1.73, 
			 "cosmo_total_nonelectrostatic_energy": 10.03, 
			 "SMD_solvation_energy": 1.78 
		},
		"coords": [
			{
				"x": -0.8115945421,
				"y": -0.0354259469,
				"z": -1.2556986649,
				"element": "Cl" 
			},
			{
				"x": 0.1314378468,
				"y": 1.3775604551,
				"z": -0.8249795723,
				"element": "C" 
			},
			{
				"x": 0.2537167148,
				"y": 2.2969717835,
				"z": -1.7606976313,
				"element": "N" 
			},
			{
				"x": 0.9711354106,
				"y": 3.3959172123,
				"z": -1.4653890192,
				"element": "C" 
			},
			{
				"x": 1.5808947377,
				"y": 3.6613083613,
				"z": -0.3142348896,
				"element": "N" 
			},
			{
				"x": 1.4392210132,
				"y": 2.7137466656,
				"z": 0.6116165174,
				"element": "C" 
			},
			{
				"x": 0.7148841647,
				"y": 1.5012593617,
				"z": 0.4525235875,
				"element": "C" 
			},
			{
				"x": 0.7476368523,
				"y": 0.6766082775,
				"z": 1.6446828502,
				"element": "C" 
			},
			{
				"x": 1.4741853146,
				"y": 1.2795813274,
				"z": 2.6302708882,
				"element": "C" 
			},
			{
				"x": 2.1496024744,
				"y": 2.8339976622,
				"z": 2.2072218676,
				"element": "S" 
			},
			{
				"x": 0.1031467114,
				"y": -0.6543564288,
				"z": 1.8434545383,
				"element": "C" 
			},
			{
				"x": -1.1953625773,
				"y": -0.744043875,
				"z": 2.3640042011,
				"element": "C" 
			},
			{
				"x": -1.7851446099,
				"y": -1.9895419412,
				"z": 2.5809095882,
				"element": "C" 
			},
			{
				"x": -1.0828271901,
				"y": -3.1589703687,
				"z": 2.2838631558,
				"element": "C" 
			},
			{
				"x": 0.213323826,
				"y": -3.0781644297,
				"z": 1.7714942729,
				"element": "C" 
			},
			{
				"x": 0.8042434641,
				"y": -1.8332962651,
				"z": 1.5541184433,
				"element": "C" 
			},
			{
				"x": 1.0571505801,
				"y": 4.1390067914,
				"z": -2.2536979082,
				"element": "H" 
			},
			{
				"x": 1.6551186406,
				"y": 0.8783545178,
				"z": 3.618600352,
				"element": "H" 
			},
			{
				"x": -1.7419758066,
				"y": 0.165597156,
				"z": 2.5948888224,
				"element": "H" 
			},
			{
				"x": -2.7924761183,
				"y": -2.0457375728,
				"z": 2.9833346962,
				"element": "H" 
			},
			{
				"x": -1.5424987876,
				"y": -4.1284386125,
				"z": 2.4528221594,
				"element": "H" 
			},
			{
				"x": 0.7664100763,
				"y": -3.9843764799,
				"z": 1.5419383571,
				"element": "H" 
			},
			{
				"x": 1.8124718044,
				"y": -1.7706576513,
				"z": 1.155253388,
				"element": "H" 
			}
		],
		 "valence_orbital": [ 
			{
				"type": "occ",
				"energy": -0.27963,
				"method": "rhf"
			},
			{
				"type": "occ",
				"energy": -0.27228,
				"method": "rhf"
			},
			{
				"type": "occ",
				"energy": -0.25834,
				"method": "rhf"
			},
			{
				"type": "occ",
				"energy": -0.25444,
				"method": "rhf"
			},
			{
				"type": "occ",
				"energy": -0.24544,
				"method": "rhf"
			},
			{
				"type": "unocc",
				"energy": -0.06001,
				"method": "rhf"
			},
			{
				"type": "unocc",
				"energy": -0.04242,
				"method": "rhf"
			},
			{
				"type": "unocc",
				"energy": -0.01961,
				"method": "rhf"
			},
			{
				"type": "unocc",
				"energy": -0.00818,
				"method": "rhf"
			},
			{
				"type": "unocc",
				"energy": 0.00994,
				"method": "rhf"
			}
		],
		"cosmo_sigma_profile": { 
			"-0.025": 0.0,
			"-0.024": 0.0,
			"-0.023": 0.0,
			"-0.022": 0.0,
			"-0.021": 0.0,
			"-0.02": 0.0,
			"-0.019": 0.0,
			"-0.018": 0.0,
			"-0.017": 0.0,
			"-0.016": 0.0,
			"-0.015": 0.0,
			"-0.014": 0.0,
			"-0.013": 0.0,
			"-0.012": 0.0,
			"-0.011": 0.0,
			"-0.01": 1.20595375053,
			"-0.009": 2.66191817483,
			"-0.008": 3.65835252308,
			"-0.007": 3.28549360736,
			"-0.006": 10.8999593555,
			"-0.005": 13.9461166028,
			"-0.004": 16.2855122461,
			"-0.003": 22.0420445336,
			"-0.002": 22.7143204062,
			"-0.001": 24.0372179047,
			"0.0": 24.3335380414,
			"0.001": 23.2272664737,
			"0.002": 19.3657040381,
			"0.003": 18.2557789522,
			"0.004": 16.4970794527,
			"0.005": 14.4971208253,
			"0.006": 6.37908860682,
			"0.007": 2.57215974489,
			"0.008": 1.73664266121,
			"0.009": 1.66063120715,
			"0.01": 2.2119585601,
			"0.011": 1.91913565572,
			"0.012": 1.5436330828,
			"0.013": 1.56178504953,
			"0.014": 0.23759471361,
			"0.015": 0.0,
			"0.016": 0.0,
			"0.017": 0.0,
			"0.018": 0.0,
			"0.019": 0.0,
			"0.02": 0.0,
			"0.021": 0.0,
			"0.022": 0.0,
			"0.023": 0.0,
			"0.024": 0.0,
			"0.025": 0.0
		}
	}
}
