{
	 "smiles": "NC1=NC(=CS1)C1=CC2=C(OCC2)C=C1", 
	 "Tm": 447.15, 
	 "num_atms": 25, 
	 "gaussian": { 
		 "optdone": 1, 
		 "sigma_profile": "yes", 
		 "theory": "DFT", 
		 "functional": "B3LYP", 
		 "basiset": "6-31G**", 
		 "properties": { 
			 "R2extent": 4961.0075, 
			 "electric_dipole_moment_norm": 1.77802349816, 
			 "electric_quadrupole_moment_norm": 21.0698816352, 
			 "total_energy": -1008.10537256, 
			 "HOMO_LUMO_gap": 0.16692, 
			 "cosmo_polarized_energy": -13.69, 
			 "cosmo_cavitation_energy": 30.33, 
			 "cosmo_dispersion_energy": -23.57, 
			 "cosmo_repulsion_energy": 1.8, 
			 "cosmo_total_nonelectrostatic_energy": 8.55, 
			 "SMD_solvation_energy": 3.7 
		},
		"coords": [
			{
				"x": 4.5647573626,
				"y": -1.6091464021,
				"z": -2.1059915116,
				"element": "N" 
			},
			{
				"x": 3.6741606485,
				"y": -0.8599397116,
				"z": -1.3677271256,
				"element": "C" 
			},
			{
				"x": 2.5075617358,
				"y": -1.2837232168,
				"z": -0.988763035,
				"element": "N" 
			},
			{
				"x": 1.7935756585,
				"y": -0.2918583019,
				"z": -0.3247632306,
				"element": "C" 
			},
			{
				"x": 2.4507949188,
				"y": 0.9030985136,
				"z": -0.2003703502,
				"element": "C" 
			},
			{
				"x": 4.0264158818,
				"y": 0.8225474104,
				"z": -0.9490665572,
				"element": "S" 
			},
			{
				"x": 0.4419918931,
				"y": -0.607042561,
				"z": 0.1742126691,
				"element": "C" 
			},
			{
				"x": -0.2921157567,
				"y": 0.3119768941,
				"z": 0.953752082,
				"element": "C" 
			},
			{
				"x": -1.5649843374,
				"y": -0.0176322199,
				"z": 1.3875607748,
				"element": "C" 
			},
			{
				"x": -2.1165646062,
				"y": -1.26142375,
				"z": 1.0624834936,
				"element": "C" 
			},
			{
				"x": -3.3711218944,
				"y": -1.4470411039,
				"z": 1.5686329964,
				"element": "O" 
			},
			{
				"x": -3.8167788199,
				"y": -0.173156926,
				"z": 2.1000509206,
				"element": "C" 
			},
			{
				"x": -2.5581222751,
				"y": 0.7136738142,
				"z": 2.2640357598,
				"element": "C" 
			},
			{
				"x": -1.4193060353,
				"y": -2.1963545927,
				"z": 0.3067350978,
				"element": "C" 
			},
			{
				"x": -0.1380083818,
				"y": -1.8518022197,
				"z": -0.1292840377,
				"element": "C" 
			},
			{
				"x": 4.336054494,
				"y": -2.5948953342,
				"z": -2.1073425768,
				"element": "H" 
			},
			{
				"x": 5.546191709,
				"y": -1.420678927,
				"z": -1.9587906032,
				"element": "H" 
			},
			{
				"x": 2.1234974659,
				"y": 1.8192406494,
				"z": 0.2666346239,
				"element": "H" 
			},
			{
				"x": 0.1383144891,
				"y": 1.2732993802,
				"z": 1.2196384034,
				"element": "H" 
			},
			{
				"x": -4.3439449816,
				"y": -0.371012296,
				"z": 3.0359212295,
				"element": "H" 
			},
			{
				"x": -4.5224179772,
				"y": 0.2633426224,
				"z": 1.3825510263,
				"element": "H" 
			},
			{
				"x": -2.2186473663,
				"y": 0.7446104432,
				"z": 3.3071726984,
				"element": "H" 
			},
			{
				"x": -2.7453431446,
				"y": 1.7452247276,
				"z": 1.9500469269,
				"element": "H" 
			},
			{
				"x": -1.8617494531,
				"y": -3.1563407472,
				"z": 0.0635396009,
				"element": "H" 
			},
			{
				"x": 0.4370887725,
				"y": -2.551166145,
				"z": -0.7249692752,
				"element": "H" 
			}
		],
		 "valence_orbital": [ 
			{
				"type": "occ",
				"energy": -0.27086,
				"method": "rhf"
			},
			{
				"type": "occ",
				"energy": -0.26847,
				"method": "rhf"
			},
			{
				"type": "occ",
				"energy": -0.24331,
				"method": "rhf"
			},
			{
				"type": "occ",
				"energy": -0.22399,
				"method": "rhf"
			},
			{
				"type": "occ",
				"energy": -0.18589,
				"method": "rhf"
			},
			{
				"type": "unocc",
				"energy": -0.01897,
				"method": "rhf"
			},
			{
				"type": "unocc",
				"energy": 0.00315,
				"method": "rhf"
			},
			{
				"type": "unocc",
				"energy": 0.01385,
				"method": "rhf"
			},
			{
				"type": "unocc",
				"energy": 0.02427,
				"method": "rhf"
			},
			{
				"type": "unocc",
				"energy": 0.07315,
				"method": "rhf"
			}
		],
		"cosmo_sigma_profile": { 
			"-0.025": 0.0,
			"-0.024": 0.0,
			"-0.023": 0.0,
			"-0.022": 0.0,
			"-0.021": 0.0,
			"-0.02": 0.0,
			"-0.019": 0.0,
			"-0.018": 0.0,
			"-0.017": 0.0,
			"-0.016": 0.0,
			"-0.015": 0.26506374278,
			"-0.014": 1.55164780029,
			"-0.013": 3.02088026612,
			"-0.012": 1.85250699326,
			"-0.011": 2.9735804235,
			"-0.01": 3.19827583718,
			"-0.009": 2.18269483591,
			"-0.008": 4.05327632688,
			"-0.007": 4.66819085708,
			"-0.006": 8.61615806277,
			"-0.005": 16.445586892,
			"-0.004": 19.5750255665,
			"-0.003": 17.4852671382,
			"-0.002": 15.8593845676,
			"-0.001": 11.846942298,
			"0.0": 10.0197065429,
			"0.001": 13.308842949,
			"0.002": 14.6878877584,
			"0.003": 17.1194928289,
			"0.004": 24.2452736425,
			"0.005": 22.4871017913,
			"0.006": 8.72294273483,
			"0.007": 4.77978429702,
			"0.008": 3.31611049649,
			"0.009": 3.33810263067,
			"0.01": 3.81964798078,
			"0.011": 3.93432085375,
			"0.012": 1.13034115749,
			"0.013": 0.0,
			"0.014": 0.0,
			"0.015": 0.0,
			"0.016": 0.0,
			"0.017": 0.0,
			"0.018": 0.0,
			"0.019": 0.0,
			"0.02": 0.0,
			"0.021": 0.0,
			"0.022": 0.0,
			"0.023": 0.0,
			"0.024": 0.0,
			"0.025": 0.0
		}
	}
}
