{
	 "smiles": "CC1CN(CC(C)O1)C1=CC=C(NC(=O)CCl)C=C1", 
	 "Tm": 449.15, 
	 "num_atms": 38, 
	 "gaussian": { 
		 "optdone": 1, 
		 "sigma_profile": "yes", 
		 "theory": "DFT", 
		 "functional": "B3LYP", 
		 "basiset": "6-31G**", 
		 "properties": { 
			 "R2extent": 10429.7984, 
			 "electric_dipole_moment_norm": 7.07270006504, 
			 "electric_quadrupole_moment_norm": 43.4611216857, 
			 "total_energy": -1265.0808018, 
			 "HOMO_LUMO_gap": 0.18947, 
			 "cosmo_polarized_energy": -18.24, 
			 "cosmo_cavitation_energy": 41.13, 
			 "cosmo_dispersion_energy": -29.16, 
			 "cosmo_repulsion_energy": 2.29, 
			 "cosmo_total_nonelectrostatic_energy": 14.26, 
			 "SMD_solvation_energy": 6.79 
		},
		"coords": [
			{
				"x": -3.2518851434,
				"y": -0.1265640664,
				"z": 2.9605109275,
				"element": "C" 
			},
			{
				"x": -3.4593752288,
				"y": -0.4589963646,
				"z": 1.4788938301,
				"element": "C" 
			},
			{
				"x": -2.4992547534,
				"y": 0.2961134629,
				"z": 0.5499101617,
				"element": "C" 
			},
			{
				"x": -1.1376815086,
				"y": -0.2124159571,
				"z": 0.6669922467,
				"element": "N" 
			},
			{
				"x": -0.9774909363,
				"y": -1.5950392757,
				"z": 1.1015479329,
				"element": "C" 
			},
			{
				"x": -2.2122999948,
				"y": -2.4366729948,
				"z": 0.7524453274,
				"element": "C" 
			},
			{
				"x": -2.347366186,
				"y": -2.7157082796,
				"z": -0.7484967385,
				"element": "C" 
			},
			{
				"x": -3.4220771568,
				"y": -1.8745429219,
				"z": 1.2707079159,
				"element": "O" 
			},
			{
				"x": -0.0431854477,
				"y": 0.5845580235,
				"z": 0.3796087202,
				"element": "C" 
			},
			{
				"x": -0.1895257569,
				"y": 1.8155225264,
				"z": -0.3030330123,
				"element": "C" 
			},
			{
				"x": 0.9141816042,
				"y": 2.6123865949,
				"z": -0.5856933185,
				"element": "C" 
			},
			{
				"x": 2.2040063506,
				"y": 2.2251593192,
				"z": -0.2049377004,
				"element": "C" 
			},
			{
				"x": 3.3378976052,
				"y": 3.0427956211,
				"z": -0.5136641455,
				"element": "N" 
			},
			{
				"x": 3.8515573702,
				"y": 4.0822622063,
				"z": 0.2279657857,
				"element": "C" 
			},
			{
				"x": 4.8272394654,
				"y": 4.7133722193,
				"z": -0.1320987537,
				"element": "O" 
			},
			{
				"x": 3.0806219826,
				"y": 4.3556074263,
				"z": 1.529039515,
				"element": "C" 
			},
			{
				"x": 3.8066260849,
				"y": 5.6828553981,
				"z": 2.4861000531,
				"element": "Cl" 
			},
			{
				"x": 2.360356911,
				"y": 1.0052225478,
				"z": 0.4627626878,
				"element": "C" 
			},
			{
				"x": 1.2657725554,
				"y": 0.1993414295,
				"z": 0.7551932276,
				"element": "C" 
			},
			{
				"x": -3.4821423439,
				"y": 0.9268489342,
				"z": 3.1545293759,
				"element": "H" 
			},
			{
				"x": -2.223903215,
				"y": -0.313019303,
				"z": 3.2836061896,
				"element": "H" 
			},
			{
				"x": -3.9194559402,
				"y": -0.7428095993,
				"z": 3.5683654784,
				"element": "H" 
			},
			{
				"x": -4.4758949529,
				"y": -0.1525836457,
				"z": 1.2003275772,
				"element": "H" 
			},
			{
				"x": -2.5174985568,
				"y": 1.3537731685,
				"z": 0.8340451551,
				"element": "H" 
			},
			{
				"x": -2.8695721509,
				"y": 0.232986823,
				"z": -0.4852032211,
				"element": "H" 
			},
			{
				"x": -0.7856082516,
				"y": -1.6616176887,
				"z": 2.1838041857,
				"element": "H" 
			},
			{
				"x": -0.1137163398,
				"y": -2.0376954645,
				"z": 0.593933575,
				"element": "H" 
			},
			{
				"x": -2.0962130399,
				"y": -3.3984586365,
				"z": 1.2684765268,
				"element": "H" 
			},
			{
				"x": -2.3657915984,
				"y": -1.794536042,
				"z": -1.337575788,
				"element": "H" 
			},
			{
				"x": -3.2764314513,
				"y": -3.2606894656,
				"z": -0.9348842186,
				"element": "H" 
			},
			{
				"x": -1.5107210393,
				"y": -3.3278511785,
				"z": -1.1030208691,
				"element": "H" 
			},
			{
				"x": -1.165777493,
				"y": 2.1388271073,
				"z": -0.6437413585,
				"element": "H" 
			},
			{
				"x": 0.7796199813,
				"y": 3.5456326307,
				"z": -1.1254855344,
				"element": "H" 
			},
			{
				"x": 3.8593265582,
				"y": 2.8668100855,
				"z": -1.3645095623,
				"element": "H" 
			},
			{
				"x": 2.0474514412,
				"y": 4.6289087825,
				"z": 1.3074367603,
				"element": "H" 
			},
			{
				"x": 3.0614974172,
				"y": 3.4610470895,
				"z": 2.1541076037,
				"element": "H" 
			},
			{
				"x": 3.3556021501,
				"y": 0.6912121416,
				"z": 0.7648097601,
				"element": "H" 
			},
			{
				"x": 1.4289110083,
				"y": -0.7212426544,
				"z": 1.3025237015,
				"element": "H" 
			}
		],
		 "valence_orbital": [ 
			{
				"type": "occ",
				"energy": -0.26489,
				"method": "rhf"
			},
			{
				"type": "occ",
				"energy": -0.26055,
				"method": "rhf"
			},
			{
				"type": "occ",
				"energy": -0.25816,
				"method": "rhf"
			},
			{
				"type": "occ",
				"energy": -0.2535,
				"method": "rhf"
			},
			{
				"type": "occ",
				"energy": -0.20669,
				"method": "rhf"
			},
			{
				"type": "unocc",
				"energy": -0.01722,
				"method": "rhf"
			},
			{
				"type": "unocc",
				"energy": -0.00675,
				"method": "rhf"
			},
			{
				"type": "unocc",
				"energy": 0.0267,
				"method": "rhf"
			},
			{
				"type": "unocc",
				"energy": 0.03752,
				"method": "rhf"
			},
			{
				"type": "unocc",
				"energy": 0.06223,
				"method": "rhf"
			}
		],
		"cosmo_sigma_profile": { 
			"-0.025": 0.0,
			"-0.024": 0.0,
			"-0.023": 0.0,
			"-0.022": 0.0,
			"-0.021": 0.0,
			"-0.02": 0.0,
			"-0.019": 0.0,
			"-0.018": 0.0,
			"-0.017": 0.0,
			"-0.016": 0.0,
			"-0.015": 0.0,
			"-0.014": 0.850588520137,
			"-0.013": 0.968849196349,
			"-0.012": 0.388739502756,
			"-0.011": 1.09811148375,
			"-0.01": 0.895164225257,
			"-0.009": 1.37730317419,
			"-0.008": 3.53902089586,
			"-0.007": 5.13404591314,
			"-0.006": 12.5126283255,
			"-0.005": 23.4090176164,
			"-0.004": 40.2846585287,
			"-0.003": 34.9342133876,
			"-0.002": 24.394487701,
			"-0.001": 23.968769266,
			"0.0": 25.8317232284,
			"0.001": 23.7734662166,
			"0.002": 14.6996055369,
			"0.003": 12.4222630865,
			"0.004": 12.7172123378,
			"0.005": 16.3904894847,
			"0.006": 13.1295023523,
			"0.007": 4.86028200479,
			"0.008": 4.18683784987,
			"0.009": 2.01864670611,
			"0.01": 2.07996623149,
			"0.011": 3.4478744175,
			"0.012": 4.35822758747,
			"0.013": 7.03495741553,
			"0.014": 3.85946862825,
			"0.015": 0.675415119183,
			"0.016": 0.0,
			"0.017": 0.0,
			"0.018": 0.0,
			"0.019": 0.0,
			"0.02": 0.0,
			"0.021": 0.0,
			"0.022": 0.0,
			"0.023": 0.0,
			"0.024": 0.0,
			"0.025": 0.0
		}
	}
}
