{
	 "smiles": "CN(C)C(=O)OC1=CC(C)=NN1C1=CC=CC=C1", 
	 "Tm": 323.15, 
	 "num_atms": 33, 
	 "gaussian": { 
		 "optdone": 1, 
		 "sigma_profile": "yes", 
		 "theory": "DFT", 
		 "functional": "B3LYP", 
		 "basiset": "6-31G**", 
		 "properties": { 
			 "R2extent": 5646.485, 
			 "electric_dipole_moment_norm": 4.05676724252, 
			 "electric_quadrupole_moment_norm": 15.2914652087, 
			 "total_energy": -819.121167134, 
			 "HOMO_LUMO_gap": 0.20221, 
			 "cosmo_polarized_energy": -11.65, 
			 "cosmo_cavitation_energy": 36.79, 
			 "cosmo_dispersion_energy": -26.03, 
			 "cosmo_repulsion_energy": 2.01, 
			 "cosmo_total_nonelectrostatic_energy": 12.77, 
			 "SMD_solvation_energy": 7.1 
		},
		"coords": [
			{
				"x": -3.8382451909,
				"y": 0.2341891992,
				"z": 1.7967623357,
				"element": "C" 
			},
			{
				"x": -3.7166077294,
				"y": -1.0644174337,
				"z": 1.1484942044,
				"element": "N" 
			},
			{
				"x": -4.7810637564,
				"y": -2.0219121153,
				"z": 1.4133569669,
				"element": "C" 
			},
			{
				"x": -2.7141643777,
				"y": -1.4333002572,
				"z": 0.3027125374,
				"element": "C" 
			},
			{
				"x": -2.5961046212,
				"y": -2.5177570119,
				"z": -0.2313945078,
				"element": "O" 
			},
			{
				"x": -1.8279162252,
				"y": -0.3840520823,
				"z": 0.1199506837,
				"element": "O" 
			},
			{
				"x": -0.6738162797,
				"y": -0.569615928,
				"z": -0.5869989215,
				"element": "C" 
			},
			{
				"x": -0.0673735551,
				"y": -1.6495900521,
				"z": -1.1887607687,
				"element": "C" 
			},
			{
				"x": 1.1634396453,
				"y": -1.1274378567,
				"z": -1.6676616832,
				"element": "C" 
			},
			{
				"x": 2.2374574271,
				"y": -1.8534422462,
				"z": -2.4179930858,
				"element": "C" 
			},
			{
				"x": 1.3010639897,
				"y": 0.1631432537,
				"z": -1.385661632,
				"element": "N" 
			},
			{
				"x": 0.1549097159,
				"y": 0.5151519089,
				"z": -0.7222294807,
				"element": "N" 
			},
			{
				"x": 0.0064228692,
				"y": 1.8430377134,
				"z": -0.2425639982,
				"element": "C" 
			},
			{
				"x": 1.1462251085,
				"y": 2.5283659063,
				"z": 0.195379456,
				"element": "C" 
			},
			{
				"x": 1.0300354616,
				"y": 3.8395568677,
				"z": 0.6511324878,
				"element": "C" 
			},
			{
				"x": -0.2149032902,
				"y": 4.4724713164,
				"z": 0.6839902984,
				"element": "C" 
			},
			{
				"x": -1.3455767676,
				"y": 3.7866554844,
				"z": 0.2384406865,
				"element": "C" 
			},
			{
				"x": -1.2414065385,
				"y": 2.4783977359,
				"z": -0.2358281324,
				"element": "C" 
			},
			{
				"x": -3.9642996952,
				"y": 0.0952670571,
				"z": 2.8772413916,
				"element": "H" 
			},
			{
				"x": -4.7167140053,
				"y": 0.7738022132,
				"z": 1.4190038439,
				"element": "H" 
			},
			{
				"x": -2.9510901965,
				"y": 0.836916432,
				"z": 1.6219930393,
				"element": "H" 
			},
			{
				"x": -5.7483487012,
				"y": -1.6187886641,
				"z": 1.0882369369,
				"element": "H" 
			},
			{
				"x": -4.8402835837,
				"y": -2.2374776417,
				"z": 2.4871239077,
				"element": "H" 
			},
			{
				"x": -4.5725316474,
				"y": -2.942075704,
				"z": 0.8710924386,
				"element": "H" 
			},
			{
				"x": -0.4575760244,
				"y": -2.6487463659,
				"z": -1.2635248229,
				"element": "H" 
			},
			{
				"x": 3.0648566332,
				"y": -1.1727146995,
				"z": -2.6303249159,
				"element": "H" 
			},
			{
				"x": 1.8617265124,
				"y": -2.2499345757,
				"z": -3.3678298132,
				"element": "H" 
			},
			{
				"x": 2.6228419791,
				"y": -2.7013395869,
				"z": -1.8407555011,
				"element": "H" 
			},
			{
				"x": 2.1044901131,
				"y": 2.0245008506,
				"z": 0.1596275847,
				"element": "H" 
			},
			{
				"x": 1.9179197797,
				"y": 4.3664239314,
				"z": 0.9884940699,
				"element": "H" 
			},
			{
				"x": -0.3011867664,
				"y": 5.4927016713,
				"z": 1.0455702142,
				"element": "H" 
			},
			{
				"x": -2.3156059665,
				"y": 4.2756090726,
				"z": 0.2402337792,
				"element": "H" 
			},
			{
				"x": -2.1145743164,
				"y": 1.9609116072,
				"z": -0.6134095996,
				"element": "H" 
			}
		],
		 "valence_orbital": [ 
			{
				"type": "occ",
				"energy": -0.27554,
				"method": "rhf"
			},
			{
				"type": "occ",
				"energy": -0.25663,
				"method": "rhf"
			},
			{
				"type": "occ",
				"energy": -0.25381,
				"method": "rhf"
			},
			{
				"type": "occ",
				"energy": -0.22349,
				"method": "rhf"
			},
			{
				"type": "occ",
				"energy": -0.21755,
				"method": "rhf"
			},
			{
				"type": "unocc",
				"energy": -0.01534,
				"method": "rhf"
			},
			{
				"type": "unocc",
				"energy": -0.00463,
				"method": "rhf"
			},
			{
				"type": "unocc",
				"energy": 0.02986,
				"method": "rhf"
			},
			{
				"type": "unocc",
				"energy": 0.05364,
				"method": "rhf"
			},
			{
				"type": "unocc",
				"energy": 0.08024,
				"method": "rhf"
			}
		],
		"cosmo_sigma_profile": { 
			"-0.025": 0.0,
			"-0.024": 0.0,
			"-0.023": 0.0,
			"-0.022": 0.0,
			"-0.021": 0.0,
			"-0.02": 0.0,
			"-0.019": 0.0,
			"-0.018": 0.0,
			"-0.017": 0.0,
			"-0.016": 0.0,
			"-0.015": 0.0,
			"-0.014": 0.0,
			"-0.013": 0.0,
			"-0.012": 0.0,
			"-0.011": 0.0,
			"-0.01": 0.0,
			"-0.009": 0.0,
			"-0.008": 0.0,
			"-0.007": 0.277638111275,
			"-0.006": 7.84600024162,
			"-0.005": 24.9622503087,
			"-0.004": 29.5038682981,
			"-0.003": 32.0501168232,
			"-0.002": 41.1863509364,
			"-0.001": 26.0573060238,
			"0.0": 23.0152269921,
			"0.001": 16.787228657,
			"0.002": 14.7844919803,
			"0.003": 15.9335812423,
			"0.004": 18.1910955211,
			"0.005": 15.146755189,
			"0.006": 5.12427198186,
			"0.007": 4.06506881658,
			"0.008": 2.60009395864,
			"0.009": 2.8970188882,
			"0.01": 3.8533163775,
			"0.011": 3.02170172337,
			"0.012": 3.3758186852,
			"0.013": 1.60471589721,
			"0.014": 0.739042209948,
			"0.015": 0.340418191558,
			"0.016": 0.0,
			"0.017": 0.0,
			"0.018": 0.0,
			"0.019": 0.0,
			"0.02": 0.0,
			"0.021": 0.0,
			"0.022": 0.0,
			"0.023": 0.0,
			"0.024": 0.0,
			"0.025": 0.0
		}
	}
}
