{
	 "smiles": "COC1=C(O)C=CC(CCO)=C1", 
	 "Tm": 314.15, 
	 "num_atms": 24, 
	 "gaussian": { 
		 "optdone": 1, 
		 "sigma_profile": "yes", 
		 "theory": "DFT", 
		 "functional": "B3LYP", 
		 "basiset": "6-31G**", 
		 "properties": { 
			 "R2extent": 2709.468, 
			 "electric_dipole_moment_norm": 3.72880970418, 
			 "electric_quadrupole_moment_norm": 9.35353469818, 
			 "total_energy": -575.832683484, 
			 "HOMO_LUMO_gap": 0.21035, 
			 "cosmo_polarized_energy": -13.1, 
			 "cosmo_cavitation_energy": 27.11, 
			 "cosmo_dispersion_energy": -19.75, 
			 "cosmo_repulsion_energy": 1.6, 
			 "cosmo_total_nonelectrostatic_energy": 8.96, 
			 "SMD_solvation_energy": 5.55 
		},
		"coords": [
			{
				"x": -3.9895170189,
				"y": -0.3335990307,
				"z": 0.9813059814,
				"element": "C" 
			},
			{
				"x": -3.0336567885,
				"y": 0.5827960233,
				"z": 0.4404774841,
				"element": "O" 
			},
			{
				"x": -1.7273990989,
				"y": 0.3907493048,
				"z": 0.8142545219,
				"element": "C" 
			},
			{
				"x": -1.2989793775,
				"y": 0.5470936635,
				"z": 2.1472319066,
				"element": "C" 
			},
			{
				"x": -2.2393455956,
				"y": 0.8585821099,
				"z": 3.0924475298,
				"element": "O" 
			},
			{
				"x": 0.0545113506,
				"y": 0.3863828926,
				"z": 2.4497292294,
				"element": "C" 
			},
			{
				"x": 0.9811389975,
				"y": 0.0957419621,
				"z": 1.4477868515,
				"element": "C" 
			},
			{
				"x": 0.5775612099,
				"y": -0.0496152481,
				"z": 0.1158174913,
				"element": "C" 
			},
			{
				"x": 1.5795286893,
				"y": -0.3022729837,
				"z": -0.9888592571,
				"element": "C" 
			},
			{
				"x": 2.034309983,
				"y": 0.9953347964,
				"z": -1.6853453244,
				"element": "C" 
			},
			{
				"x": 0.9740740978,
				"y": 1.6777684743,
				"z": -2.332407488,
				"element": "O" 
			},
			{
				"x": -0.7880940025,
				"y": 0.0981335279,
				"z": -0.1751169285,
				"element": "C" 
			},
			{
				"x": -4.9493044257,
				"y": -0.0656812817,
				"z": 0.5349848205,
				"element": "H" 
			},
			{
				"x": -4.0563315979,
				"y": -0.2525382983,
				"z": 2.0698004826,
				"element": "H" 
			},
			{
				"x": -3.7397351629,
				"y": -1.3663515072,
				"z": 0.705063687,
				"element": "H" 
			},
			{
				"x": -1.8031686202,
				"y": 0.9383120381,
				"z": 3.9505736822,
				"element": "H" 
			},
			{
				"x": 0.3853211174,
				"y": 0.4987369919,
				"z": 3.4808750789,
				"element": "H" 
			},
			{
				"x": 2.0291650703,
				"y": -0.0200719078,
				"z": 1.7111363916,
				"element": "H" 
			},
			{
				"x": 1.1458668523,
				"y": -0.9627951437,
				"z": -1.7483432245,
				"element": "H" 
			},
			{
				"x": 2.4649318917,
				"y": -0.808290344,
				"z": -0.584589808,
				"element": "H" 
			},
			{
				"x": 2.7600216018,
				"y": 0.7544534709,
				"z": -2.469359002,
				"element": "H" 
			},
			{
				"x": 2.541848672,
				"y": 1.6439782963,
				"z": -0.9528336371,
				"element": "H" 
			},
			{
				"x": 0.3340958636,
				"y": 1.9287381622,
				"z": -1.6519339806,
				"element": "H" 
			},
			{
				"x": -1.1531437088,
				"y": -0.020485969,
				"z": -1.1911964886,
				"element": "H" 
			}
		],
		 "valence_orbital": [ 
			{
				"type": "occ",
				"energy": -0.31515,
				"method": "rhf"
			},
			{
				"type": "occ",
				"energy": -0.27751,
				"method": "rhf"
			},
			{
				"type": "occ",
				"energy": -0.26152,
				"method": "rhf"
			},
			{
				"type": "occ",
				"energy": -0.24225,
				"method": "rhf"
			},
			{
				"type": "occ",
				"energy": -0.21465,
				"method": "rhf"
			},
			{
				"type": "unocc",
				"energy": -0.0043,
				"method": "rhf"
			},
			{
				"type": "unocc",
				"energy": 0.00794,
				"method": "rhf"
			},
			{
				"type": "unocc",
				"energy": 0.06182,
				"method": "rhf"
			},
			{
				"type": "unocc",
				"energy": 0.09046,
				"method": "rhf"
			},
			{
				"type": "unocc",
				"energy": 0.10736,
				"method": "rhf"
			}
		],
		"cosmo_sigma_profile": { 
			"-0.025": 0.0,
			"-0.024": 0.0,
			"-0.023": 0.0,
			"-0.022": 0.0,
			"-0.021": 0.0,
			"-0.02": 0.0,
			"-0.019": 0.0,
			"-0.018": 0.471020100085,
			"-0.017": 1.04238421016,
			"-0.016": 1.21128553643,
			"-0.015": 1.0818727225,
			"-0.014": 0.901224259384,
			"-0.013": 0.852099947294,
			"-0.012": 1.23130447424,
			"-0.011": 1.79717727174,
			"-0.01": 2.16711223977,
			"-0.009": 2.37522167007,
			"-0.008": 1.62275824851,
			"-0.007": 1.98833060125,
			"-0.006": 3.93653359149,
			"-0.005": 10.2841324301,
			"-0.004": 18.4750929869,
			"-0.003": 24.9071844445,
			"-0.002": 23.8068475229,
			"-0.001": 16.4959093992,
			"0.0": 13.0809537793,
			"0.001": 8.82455126836,
			"0.002": 10.2882610022,
			"0.003": 11.3341785582,
			"0.004": 10.9471981733,
			"0.005": 10.0222019281,
			"0.006": 7.03602303548,
			"0.007": 4.00879304122,
			"0.008": 3.47135795051,
			"0.009": 3.44269407698,
			"0.01": 3.98335593619,
			"0.011": 4.35066061402,
			"0.012": 2.21956109194,
			"0.013": 2.09916400077,
			"0.014": 2.2378398815,
			"0.015": 1.03246869743,
			"0.016": 0.0,
			"0.017": 0.0,
			"0.018": 0.0,
			"0.019": 0.0,
			"0.02": 0.0,
			"0.021": 0.0,
			"0.022": 0.0,
			"0.023": 0.0,
			"0.024": 0.0,
			"0.025": 0.0
		}
	}
}
