{
	 "smiles": "CC(C)C(OC(=O)C(C)C)C(C)(C)COC(=O)C(C)C", 
	 "Tm": 203.15, 
	 "num_atms": 50, 
	 "gaussian": { 
		 "optdone": 1, 
		 "sigma_profile": "yes", 
		 "theory": "DFT", 
		 "functional": "B3LYP", 
		 "basiset": "6-31G**", 
		 "properties": { 
			 "R2extent": 6739.5478, 
			 "electric_dipole_moment_norm": 2.02215063732, 
			 "electric_quadrupole_moment_norm": 16.1365403098, 
			 "total_energy": -928.734502812, 
			 "HOMO_LUMO_gap": 0.2774, 
			 "cosmo_polarized_energy": -11.32, 
			 "cosmo_cavitation_energy": 48.83, 
			 "cosmo_dispersion_energy": -29.52, 
			 "cosmo_repulsion_energy": 2.26, 
			 "cosmo_total_nonelectrostatic_energy": 21.58, 
			 "SMD_solvation_energy": 9.87 
		},
		"coords": [
			{
				"x": -1.1867310143,
				"y": -2.2448457579,
				"z": 1.3413847066,
				"element": "C" 
			},
			{
				"x": -1.1896923814,
				"y": -1.9552151304,
				"z": -0.1663867574,
				"element": "C" 
			},
			{
				"x": -2.4318222959,
				"y": -2.5504089453,
				"z": -0.8537933831,
				"element": "C" 
			},
			{
				"x": -0.8797093931,
				"y": -0.4887868937,
				"z": -0.5815864326,
				"element": "C" 
			},
			{
				"x": 0.5397040214,
				"y": -0.2771378425,
				"z": -0.3168442837,
				"element": "O" 
			},
			{
				"x": 1.4041564496,
				"y": -0.47159158,
				"z": -1.3415586915,
				"element": "C" 
			},
			{
				"x": 1.0665314498,
				"y": -0.7596409639,
				"z": -2.4713589464,
				"element": "O" 
			},
			{
				"x": 2.8471759215,
				"y": -0.327860833,
				"z": -0.8749386267,
				"element": "C" 
			},
			{
				"x": 3.7741348374,
				"y": -0.0392561791,
				"z": -2.0590263223,
				"element": "C" 
			},
			{
				"x": 3.2639812847,
				"y": -1.6047452659,
				"z": -0.1153994515,
				"element": "C" 
			},
			{
				"x": -1.6369118115,
				"y": 0.7389384739,
				"z": 0.0132430674,
				"element": "C" 
			},
			{
				"x": -1.2664246718,
				"y": 1.0565682047,
				"z": 1.4755411489,
				"element": "C" 
			},
			{
				"x": -3.162526677,
				"y": 0.5274948212,
				"z": -0.0943558121,
				"element": "C" 
			},
			{
				"x": -1.3412593675,
				"y": 1.9860390151,
				"z": -0.8623128491,
				"element": "C" 
			},
			{
				"x": -0.0256051723,
				"y": 2.5464331508,
				"z": -0.6570972322,
				"element": "O" 
			},
			{
				"x": 0.0453108404,
				"y": 3.7879635615,
				"z": -0.1108304968,
				"element": "C" 
			},
			{
				"x": -0.919316639,
				"y": 4.4297291575,
				"z": 0.248565141,
				"element": "O" 
			},
			{
				"x": 1.4866014384,
				"y": 4.2648899581,
				"z": 0.015174012,
				"element": "C" 
			},
			{
				"x": 2.1855162314,
				"y": 3.5309163488,
				"z": 1.1754549744,
				"element": "C" 
			},
			{
				"x": 2.2653560971,
				"y": 4.1249927884,
				"z": -1.3019927701,
				"element": "C" 
			},
			{
				"x": -0.3069913827,
				"y": -1.8179327195,
				"z": 1.8309428465,
				"element": "H" 
			},
			{
				"x": -2.0794492248,
				"y": -1.8518343045,
				"z": 1.8386317016,
				"element": "H" 
			},
			{
				"x": -1.1734958369,
				"y": -3.3268045821,
				"z": 1.5123021449,
				"element": "H" 
			},
			{
				"x": -0.3358645019,
				"y": -2.4980176134,
				"z": -0.5929888265,
				"element": "H" 
			},
			{
				"x": -2.4282999794,
				"y": -3.6392526353,
				"z": -0.7358702008,
				"element": "H" 
			},
			{
				"x": -2.4364375014,
				"y": -2.3364113264,
				"z": -1.9279223511,
				"element": "H" 
			},
			{
				"x": -3.370763947,
				"y": -2.18406763,
				"z": -0.4317861043,
				"element": "H" 
			},
			{
				"x": -1.0056647133,
				"y": -0.4530789683,
				"z": -1.6678410889,
				"element": "H" 
			},
			{
				"x": 2.8735773885,
				"y": 0.508539587,
				"z": -0.1669919984,
				"element": "H" 
			},
			{
				"x": 3.7199379403,
				"y": -0.8458516764,
				"z": -2.7950028567,
				"element": "H" 
			},
			{
				"x": 3.4964617741,
				"y": 0.8886629195,
				"z": -2.5676408078,
				"element": "H" 
			},
			{
				"x": 4.8096324971,
				"y": 0.0537713172,
				"z": -1.7168857037,
				"element": "H" 
			},
			{
				"x": 2.6072945786,
				"y": -1.791172365,
				"z": 0.7386505929,
				"element": "H" 
			},
			{
				"x": 3.2278376927,
				"y": -2.4772755059,
				"z": -0.7766362632,
				"element": "H" 
			},
			{
				"x": 4.2889974299,
				"y": -1.5052674133,
				"z": 0.255090353,
				"element": "H" 
			},
			{
				"x": -1.6541829346,
				"y": 0.3018338203,
				"z": 2.1622487691,
				"element": "H" 
			},
			{
				"x": -0.1843527774,
				"y": 1.11252328,
				"z": 1.6041838419,
				"element": "H" 
			},
			{
				"x": -1.694651883,
				"y": 2.0222628203,
				"z": 1.7634034346,
				"element": "H" 
			},
			{
				"x": -3.6871373281,
				"y": 1.4327283561,
				"z": 0.2278579059,
				"element": "H" 
			},
			{
				"x": -3.4990125614,
				"y": -0.2886014014,
				"z": 0.547930914,
				"element": "H" 
			},
			{
				"x": -3.4779992764,
				"y": 0.3051973916,
				"z": -1.1197937711,
				"element": "H" 
			},
			{
				"x": -1.3958707415,
				"y": 1.7307211248,
				"z": -1.9254518219,
				"element": "H" 
			},
			{
				"x": -2.0717160128,
				"y": 2.766315269,
				"z": -0.6414688734,
				"element": "H" 
			},
			{
				"x": 1.4023694328,
				"y": 5.3248535513,
				"z": 0.2753637054,
				"element": "H" 
			},
			{
				"x": 2.2512367419,
				"y": 2.4575529084,
				"z": 0.9742072895,
				"element": "H" 
			},
			{
				"x": 3.2010060843,
				"y": 3.9177998913,
				"z": 1.3079090139,
				"element": "H" 
			},
			{
				"x": 1.6447272621,
				"y": 3.6697527185,
				"z": 2.1167239369,
				"element": "H" 
			},
			{
				"x": 2.3507238123,
				"y": 3.0760962693,
				"z": -1.5976826489,
				"element": "H" 
			},
			{
				"x": 3.2742855429,
				"y": 4.534044881,
				"z": -1.1861996135,
				"element": "H" 
			},
			{
				"x": 1.7748332774,
				"y": 4.6664359477,
				"z": -2.1170645148,
				"element": "H" 
			}
		],
		 "valence_orbital": [ 
			{
				"type": "occ",
				"energy": -0.31463,
				"method": "rhf"
			},
			{
				"type": "occ",
				"energy": -0.2932,
				"method": "rhf"
			},
			{
				"type": "occ",
				"energy": -0.27934,
				"method": "rhf"
			},
			{
				"type": "occ",
				"energy": -0.26486,
				"method": "rhf"
			},
			{
				"type": "occ",
				"energy": -0.26423,
				"method": "rhf"
			},
			{
				"type": "unocc",
				"energy": 0.01317,
				"method": "rhf"
			},
			{
				"type": "unocc",
				"energy": 0.01528,
				"method": "rhf"
			},
			{
				"type": "unocc",
				"energy": 0.06037,
				"method": "rhf"
			},
			{
				"type": "unocc",
				"energy": 0.06956,
				"method": "rhf"
			},
			{
				"type": "unocc",
				"energy": 0.09491,
				"method": "rhf"
			}
		],
		"cosmo_sigma_profile": { 
			"-0.025": 0.0,
			"-0.024": 0.0,
			"-0.023": 0.0,
			"-0.022": 0.0,
			"-0.021": 0.0,
			"-0.02": 0.0,
			"-0.019": 0.0,
			"-0.018": 0.0,
			"-0.017": 0.0,
			"-0.016": 0.0,
			"-0.015": 0.0,
			"-0.014": 0.0,
			"-0.013": 0.0,
			"-0.012": 0.0,
			"-0.011": 0.0,
			"-0.01": 0.0,
			"-0.009": 0.0,
			"-0.008": 0.0,
			"-0.007": 0.0610742613088,
			"-0.006": 1.92659151891,
			"-0.005": 6.2292526944,
			"-0.004": 25.9945450142,
			"-0.003": 54.2474781983,
			"-0.002": 58.8413676332,
			"-0.001": 58.8421714719,
			"0.0": 57.3014736258,
			"0.001": 44.821235989,
			"0.002": 14.283124686,
			"0.003": 9.89069597829,
			"0.004": 6.72100901243,
			"0.005": 5.32186509655,
			"0.006": 3.99895993904,
			"0.007": 3.55904007284,
			"0.008": 2.27228026452,
			"0.009": 2.49997023838,
			"0.01": 3.78986794703,
			"0.011": 4.38798533809,
			"0.012": 8.485237542,
			"0.013": 3.27151230002,
			"0.014": 0.0641375897916,
			"0.015": 0.0,
			"0.016": 0.0,
			"0.017": 0.0,
			"0.018": 0.0,
			"0.019": 0.0,
			"0.02": 0.0,
			"0.021": 0.0,
			"0.022": 0.0,
			"0.023": 0.0,
			"0.024": 0.0,
			"0.025": 0.0
		}
	}
}
