{
	 "smiles": "O=C1NN=C2CCCCC2=C1", 
	 "Tm": 466.15, 
	 "num_atms": 21, 
	 "gaussian": { 
		 "optdone": 1, 
		 "sigma_profile": "yes", 
		 "theory": "DFT", 
		 "functional": "B3LYP", 
		 "basiset": "6-31G**", 
		 "properties": { 
			 "R2extent": 1976.3372, 
			 "electric_dipole_moment_norm": 4.37421007955, 
			 "electric_quadrupole_moment_norm": 11.0511613236, 
			 "total_energy": -495.599710188, 
			 "HOMO_LUMO_gap": 0.16948, 
			 "cosmo_polarized_energy": -11.9, 
			 "cosmo_cavitation_energy": 23.41, 
			 "cosmo_dispersion_energy": -17.97, 
			 "cosmo_repulsion_energy": 1.45, 
			 "cosmo_total_nonelectrostatic_energy": 6.9, 
			 "SMD_solvation_energy": 3.26 
		},
		"coords": [
			{
				"x": 2.7439314312,
				"y": 2.6435322339,
				"z": 1.0658617565,
				"element": "O" 
			},
			{
				"x": 1.9588935273,
				"y": 1.9231532515,
				"z": 0.457425227,
				"element": "C" 
			},
			{
				"x": 1.1952786137,
				"y": 2.429188092,
				"z": -0.603328871,
				"element": "N" 
			},
			{
				"x": 0.2838393938,
				"y": 1.7928555192,
				"z": -1.3530563927,
				"element": "N" 
			},
			{
				"x": 0.0709939082,
				"y": 0.5266248005,
				"z": -1.0993876761,
				"element": "C" 
			},
			{
				"x": -1.0157095771,
				"y": -0.1493929485,
				"z": -1.9127343652,
				"element": "C" 
			},
			{
				"x": -0.8983651446,
				"y": -1.6791070924,
				"z": -1.9081055134,
				"element": "C" 
			},
			{
				"x": -0.725310514,
				"y": -2.1945785261,
				"z": -0.4742106297,
				"element": "C" 
			},
			{
				"x": 0.5858260599,
				"y": -1.6718244421,
				"z": 0.1290221571,
				"element": "C" 
			},
			{
				"x": 0.7951278023,
				"y": -0.181001827,
				"z": -0.0642353472,
				"element": "C" 
			},
			{
				"x": 1.6959788297,
				"y": 0.5136764847,
				"z": 0.6881475295,
				"element": "C" 
			},
			{
				"x": 1.3360181687,
				"y": 3.4066277339,
				"z": -0.8309381407,
				"element": "H" 
			},
			{
				"x": -1.9892135965,
				"y": 0.1299832259,
				"z": -1.4848319305,
				"element": "H" 
			},
			{
				"x": -1.0016808459,
				"y": 0.2559862176,
				"z": -2.9288583802,
				"element": "H" 
			},
			{
				"x": -1.7876996179,
				"y": -2.1173733221,
				"z": -2.3733020041,
				"element": "H" 
			},
			{
				"x": -0.0378071985,
				"y": -1.9923712141,
				"z": -2.5147200328,
				"element": "H" 
			},
			{
				"x": -0.7261693981,
				"y": -3.2895591678,
				"z": -0.4497624958,
				"element": "H" 
			},
			{
				"x": -1.5763308119,
				"y": -1.864422519,
				"z": 0.1364855794,
				"element": "H" 
			},
			{
				"x": 1.425766032,
				"y": -2.189865924,
				"z": -0.355827329,
				"element": "H" 
			},
			{
				"x": 0.6556915265,
				"y": -1.9150662668,
				"z": 1.1949006371,
				"element": "H" 
			},
			{
				"x": 2.2655414113,
				"y": 0.040435691,
				"z": 1.4822562219,
				"element": "H" 
			}
		],
		 "valence_orbital": [ 
			{
				"type": "occ",
				"energy": -0.34004,
				"method": "rhf"
			},
			{
				"type": "occ",
				"energy": -0.30094,
				"method": "rhf"
			},
			{
				"type": "occ",
				"energy": -0.29356,
				"method": "rhf"
			},
			{
				"type": "occ",
				"energy": -0.24195,
				"method": "rhf"
			},
			{
				"type": "occ",
				"energy": -0.2271,
				"method": "rhf"
			},
			{
				"type": "unocc",
				"energy": -0.05762,
				"method": "rhf"
			},
			{
				"type": "unocc",
				"energy": 0.00682,
				"method": "rhf"
			},
			{
				"type": "unocc",
				"energy": 0.08134,
				"method": "rhf"
			},
			{
				"type": "unocc",
				"energy": 0.09663,
				"method": "rhf"
			},
			{
				"type": "unocc",
				"energy": 0.11151,
				"method": "rhf"
			}
		],
		"cosmo_sigma_profile": { 
			"-0.025": 0.0,
			"-0.024": 0.0,
			"-0.023": 0.0,
			"-0.022": 0.0,
			"-0.021": 0.0,
			"-0.02": 0.0,
			"-0.019": 0.0,
			"-0.018": 0.0,
			"-0.017": 0.0,
			"-0.016": 0.334966933862,
			"-0.015": 0.968510044811,
			"-0.014": 1.17316426097,
			"-0.013": 0.951918318239,
			"-0.012": 0.869866127381,
			"-0.011": 0.503865496133,
			"-0.01": 0.682445392876,
			"-0.009": 0.834812519561,
			"-0.008": 0.568384446469,
			"-0.007": 2.17283248242,
			"-0.006": 2.79216265432,
			"-0.005": 6.9577070891,
			"-0.004": 16.8590068935,
			"-0.003": 24.5256483997,
			"-0.002": 26.6159407735,
			"-0.001": 26.9599048107,
			"0.0": 18.2462100085,
			"0.001": 10.6483725497,
			"0.002": 5.16483222331,
			"0.003": 3.02659799035,
			"0.004": 2.50443826278,
			"0.005": 2.74246491602,
			"0.006": 2.2850133864,
			"0.007": 2.13759158133,
			"0.008": 2.21470170222,
			"0.009": 2.25599978933,
			"0.01": 1.91522826612,
			"0.011": 1.60522829523,
			"0.012": 2.48213549336,
			"0.013": 2.99333475978,
			"0.014": 6.61582390486,
			"0.015": 3.21525786635,
			"0.016": 0.228021969825,
			"0.017": 0.0,
			"0.018": 0.0,
			"0.019": 0.0,
			"0.02": 0.0,
			"0.021": 0.0,
			"0.022": 0.0,
			"0.023": 0.0,
			"0.024": 0.0,
			"0.025": 0.0
		}
	}
}
