{
	 "smiles": "OC1=CC=CC2=C1C=CN2", 
	 "Tm": 372.15, 
	 "num_atms": 17, 
	 "gaussian": { 
		 "optdone": 1, 
		 "sigma_profile": "yes", 
		 "theory": "DFT", 
		 "functional": "B3LYP", 
		 "basiset": "6-31G**", 
		 "properties": { 
			 "R2extent": 1372.7448, 
			 "electric_dipole_moment_norm": 1.37240755609, 
			 "electric_quadrupole_moment_norm": 12.1607475457, 
			 "total_energy": -439.041670297, 
			 "HOMO_LUMO_gap": 0.19244, 
			 "cosmo_polarized_energy": -12.48, 
			 "cosmo_cavitation_energy": 20.77, 
			 "cosmo_dispersion_energy": -15.9, 
			 "cosmo_repulsion_energy": 1.28, 
			 "cosmo_total_nonelectrostatic_energy": 6.14, 
			 "SMD_solvation_energy": 3.89 
		},
		"coords": [
			{
				"x": -1.8118183375,
				"y": -2.3418710267,
				"z": -0.109016233,
				"element": "O" 
			},
			{
				"x": -0.7137995883,
				"y": -1.5536501082,
				"z": 0.0997645738,
				"element": "C" 
			},
			{
				"x": 0.1368440474,
				"y": -1.6965083105,
				"z": 1.191483772,
				"element": "C" 
			},
			{
				"x": 1.2545854942,
				"y": -0.8518699528,
				"z": 1.3519028143,
				"element": "C" 
			},
			{
				"x": 1.5514496186,
				"y": 0.1485738572,
				"z": 0.4366235552,
				"element": "C" 
			},
			{
				"x": 0.6861665964,
				"y": 0.2819552641,
				"z": -0.6591643393,
				"element": "C" 
			},
			{
				"x": -0.4477498701,
				"y": -0.5506005331,
				"z": -0.8518745632,
				"element": "C" 
			},
			{
				"x": -1.0919213059,
				"y": -0.1304752114,
				"z": -2.0635636832,
				"element": "C" 
			},
			{
				"x": -0.3572105993,
				"y": 0.9126540298,
				"z": -2.5604179096,
				"element": "C" 
			},
			{
				"x": 0.7138699235,
				"y": 1.1649661454,
				"z": -1.7191520753,
				"element": "N" 
			},
			{
				"x": -1.8760540202,
				"y": -2.9818250903,
				"z": 0.6117860048,
				"element": "H" 
			},
			{
				"x": -0.0631589109,
				"y": -2.4696928827,
				"z": 1.9305179122,
				"element": "H" 
			},
			{
				"x": 1.8961200538,
				"y": -0.9931943236,
				"z": 2.2167366217,
				"element": "H" 
			},
			{
				"x": 2.4134108989,
				"y": 0.7957114535,
				"z": 0.5655215016,
				"element": "H" 
			},
			{
				"x": -1.9835002714,
				"y": -0.5530462042,
				"z": -2.5014376754,
				"element": "H" 
			},
			{
				"x": -0.5049857399,
				"y": 1.505748764,
				"z": -3.4514803551,
				"element": "H" 
			},
			{
				"x": 1.4066520106,
				"y": 1.8817241293,
				"z": -1.8582299215,
				"element": "H" 
			}
		],
		 "valence_orbital": [ 
			{
				"type": "occ",
				"energy": -0.3361,
				"method": "rhf"
			},
			{
				"type": "occ",
				"energy": -0.30785,
				"method": "rhf"
			},
			{
				"type": "occ",
				"energy": -0.25379,
				"method": "rhf"
			},
			{
				"type": "occ",
				"energy": -0.21546,
				"method": "rhf"
			},
			{
				"type": "occ",
				"energy": -0.18593,
				"method": "rhf"
			},
			{
				"type": "unocc",
				"energy": 0.00651,
				"method": "rhf"
			},
			{
				"type": "unocc",
				"energy": 0.03616,
				"method": "rhf"
			},
			{
				"type": "unocc",
				"energy": 0.07554,
				"method": "rhf"
			},
			{
				"type": "unocc",
				"energy": 0.07921,
				"method": "rhf"
			},
			{
				"type": "unocc",
				"energy": 0.08751,
				"method": "rhf"
			}
		],
		"cosmo_sigma_profile": { 
			"-0.025": 0.0,
			"-0.024": 0.0,
			"-0.023": 0.0,
			"-0.022": 0.0,
			"-0.021": 0.0,
			"-0.02": 0.0,
			"-0.019": 0.0,
			"-0.018": 0.0967111711442,
			"-0.017": 0.862547268074,
			"-0.016": 1.13978484742,
			"-0.015": 2.90153094613,
			"-0.014": 1.73261909438,
			"-0.013": 2.33845260132,
			"-0.012": 2.46513822996,
			"-0.011": 0.977680508694,
			"-0.01": 2.5051403762,
			"-0.009": 3.29361066697,
			"-0.008": 3.11566610776,
			"-0.007": 4.29351861919,
			"-0.006": 6.00748337456,
			"-0.005": 9.19306546636,
			"-0.004": 7.99979383008,
			"-0.003": 8.32349525395,
			"-0.002": 8.95896825626,
			"-0.001": 7.26151492811,
			"0.0": 6.44172419403,
			"0.001": 5.96060551764,
			"0.002": 7.00654883857,
			"0.003": 7.43531287521,
			"0.004": 10.6559453667,
			"0.005": 15.7337204598,
			"0.006": 16.7730671863,
			"0.007": 12.5136146321,
			"0.008": 4.19889446144,
			"0.009": 1.35289117722,
			"0.01": 2.08258058159,
			"0.011": 2.0482925971,
			"0.012": 0.326514644769,
			"0.013": 0.0,
			"0.014": 0.0,
			"0.015": 0.0,
			"0.016": 0.0,
			"0.017": 0.0,
			"0.018": 0.0,
			"0.019": 0.0,
			"0.02": 0.0,
			"0.021": 0.0,
			"0.022": 0.0,
			"0.023": 0.0,
			"0.024": 0.0,
			"0.025": 0.0
		}
	}
}
