{
	 "smiles": "COCC(=O)NC1=CC=C(O)C=C1", 
	 "Tm": 413.15, 
	 "num_atms": 24, 
	 "gaussian": { 
		 "optdone": 1, 
		 "sigma_profile": "yes", 
		 "theory": "DFT", 
		 "functional": "B3LYP", 
		 "basiset": "6-31G**", 
		 "properties": { 
			 "R2extent": 3401.8278, 
			 "electric_dipole_moment_norm": 4.75823651892, 
			 "electric_quadrupole_moment_norm": 5.99352767325, 
			 "total_energy": -629.993711098, 
			 "HOMO_LUMO_gap": 0.20388, 
			 "cosmo_polarized_energy": -17.77, 
			 "cosmo_cavitation_energy": 28.39, 
			 "cosmo_dispersion_energy": -20.44, 
			 "cosmo_repulsion_energy": 1.65, 
			 "cosmo_total_nonelectrostatic_energy": 9.6, 
			 "SMD_solvation_energy": 6.6 
		},
		"coords": [
			{
				"x": 2.4054808259,
				"y": -1.5751600333,
				"z": -2.3954142238,
				"element": "C" 
			},
			{
				"x": 1.997641728,
				"y": -0.2383541492,
				"z": -2.1430969452,
				"element": "O" 
			},
			{
				"x": 1.1003595819,
				"y": -0.1013264865,
				"z": -1.0779935397,
				"element": "C" 
			},
			{
				"x": 1.7742713163,
				"y": -0.2306794045,
				"z": 0.2995855862,
				"element": "C" 
			},
			{
				"x": 2.9287222797,
				"y": -0.6039285312,
				"z": 0.4399512301,
				"element": "O" 
			},
			{
				"x": 0.9961507626,
				"y": 0.0999424485,
				"z": 1.3893120725,
				"element": "N" 
			},
			{
				"x": -0.3305836372,
				"y": 0.6294114122,
				"z": 1.3934086557,
				"element": "C" 
			},
			{
				"x": -1.4298163502,
				"y": -0.1946941278,
				"z": 1.1307770909,
				"element": "C" 
			},
			{
				"x": -2.7249205428,
				"y": 0.3211556142,
				"z": 1.1463874177,
				"element": "C" 
			},
			{
				"x": -2.9359330813,
				"y": 1.6701288279,
				"z": 1.4526877026,
				"element": "C" 
			},
			{
				"x": -4.1767791143,
				"y": 2.2340005407,
				"z": 1.4943052683,
				"element": "O" 
			},
			{
				"x": -1.8430044044,
				"y": 2.4988980767,
				"z": 1.7364344427,
				"element": "C" 
			},
			{
				"x": -0.5534870813,
				"y": 1.9801175744,
				"z": 1.6985149762,
				"element": "C" 
			},
			{
				"x": 1.5362140801,
				"y": -2.2239236404,
				"z": -2.5925061681,
				"element": "H" 
			},
			{
				"x": 3.0295836318,
				"y": -1.5462159353,
				"z": -3.2917721257,
				"element": "H" 
			},
			{
				"x": 2.9840988152,
				"y": -1.9844877433,
				"z": -1.5619869808,
				"element": "H" 
			},
			{
				"x": 0.2754953718,
				"y": -0.8313602799,
				"z": -1.1444084793,
				"element": "H" 
			},
			{
				"x": 0.6488234852,
				"y": 0.8935099035,
				"z": -1.1616458674,
				"element": "H" 
			},
			{
				"x": 1.5072700325,
				"y": 0.0659607967,
				"z": 2.2637340363,
				"element": "H" 
			},
			{
				"x": -1.267521183,
				"y": -1.2477576113,
				"z": 0.9226910914,
				"element": "H" 
			},
			{
				"x": -3.5711055096,
				"y": -0.3290863583,
				"z": 0.9353755551,
				"element": "H" 
			},
			{
				"x": -4.8406397465,
				"y": 1.565214939,
				"z": 1.2816170679,
				"element": "H" 
			},
			{
				"x": -2.0236995385,
				"y": 3.5418457996,
				"z": 1.9737538147,
				"element": "H" 
			},
			{
				"x": 0.2968782781,
				"y": 2.6235883678,
				"z": 1.9041883218,
				"element": "H" 
			}
		],
		 "valence_orbital": [ 
			{
				"type": "occ",
				"energy": -0.27283,
				"method": "rhf"
			},
			{
				"type": "occ",
				"energy": -0.26873,
				"method": "rhf"
			},
			{
				"type": "occ",
				"energy": -0.26308,
				"method": "rhf"
			},
			{
				"type": "occ",
				"energy": -0.2421,
				"method": "rhf"
			},
			{
				"type": "occ",
				"energy": -0.22424,
				"method": "rhf"
			},
			{
				"type": "unocc",
				"energy": -0.02036,
				"method": "rhf"
			},
			{
				"type": "unocc",
				"energy": -0.00948,
				"method": "rhf"
			},
			{
				"type": "unocc",
				"energy": 0.03092,
				"method": "rhf"
			},
			{
				"type": "unocc",
				"energy": 0.05845,
				"method": "rhf"
			},
			{
				"type": "unocc",
				"energy": 0.08154,
				"method": "rhf"
			}
		],
		"cosmo_sigma_profile": { 
			"-0.025": 0.0,
			"-0.024": 0.0,
			"-0.023": 0.0,
			"-0.022": 0.0,
			"-0.021": 0.0,
			"-0.02": 0.0,
			"-0.019": 0.0,
			"-0.018": 0.493564178394,
			"-0.017": 1.38089380006,
			"-0.016": 0.792987100768,
			"-0.015": 1.32133436823,
			"-0.014": 1.39356218425,
			"-0.013": 1.73459254219,
			"-0.012": 2.50256532184,
			"-0.011": 1.77441884773,
			"-0.01": 1.36178634749,
			"-0.009": 2.51558813404,
			"-0.008": 1.79455551531,
			"-0.007": 5.06794094636,
			"-0.006": 13.3574581793,
			"-0.005": 15.0384841362,
			"-0.004": 17.4425082484,
			"-0.003": 16.2479285699,
			"-0.002": 18.8016913048,
			"-0.001": 16.7642316164,
			"0.0": 8.72549654245,
			"0.001": 10.127370042,
			"0.002": 11.3592145239,
			"0.003": 14.4708391331,
			"0.004": 14.0303030893,
			"0.005": 6.4920355352,
			"0.006": 4.2373950662,
			"0.007": 4.1936949895,
			"0.008": 3.62511550915,
			"0.009": 3.98310195545,
			"0.01": 3.47858640303,
			"0.011": 4.87659315183,
			"0.012": 4.53113057747,
			"0.013": 6.91335753404,
			"0.014": 3.54178653986,
			"0.015": 0.116345478779,
			"0.016": 0.0,
			"0.017": 0.0,
			"0.018": 0.0,
			"0.019": 0.0,
			"0.02": 0.0,
			"0.021": 0.0,
			"0.022": 0.0,
			"0.023": 0.0,
			"0.024": 0.0,
			"0.025": 0.0
		}
	}
}
