{
	 "smiles": "CC(CCC(O)(C1=CC=CC=C1)C1=CC=CC=C1)C1CCC2C3C(O)CC4CC(O)CCC4(C)C3CC(O)C12C", 
	 "Tm": 439.15, 
	 "num_atms": 90, 
	 "gaussian": { 
		 "optdone": 1, 
		 "sigma_profile": "yes", 
		 "theory": "DFT", 
		 "functional": "B3LYP", 
		 "basiset": "6-31G**", 
		 "properties": { 
			 "R2extent": 21854.2977, 
			 "electric_dipole_moment_norm": 2.49285347143, 
			 "electric_quadrupole_moment_norm": 14.4491576443, 
			 "total_energy": -1702.84792158, 
			 "HOMO_LUMO_gap": 0.21902, 
			 "cosmo_polarized_energy": -22.66, 
			 "cosmo_cavitation_energy": 75.35, 
			 "cosmo_dispersion_energy": -46.74, 
			 "cosmo_repulsion_energy": 3.34, 
			 "cosmo_total_nonelectrostatic_energy": 31.95, 
			 "SMD_solvation_energy": 10.36 
		},
		"coords": [
			{
				"x": 0.9586540644,
				"y": 3.2824727503,
				"z": -2.0990924755,
				"element": "C" 
			},
			{
				"x": 1.431749707,
				"y": 1.9778340743,
				"z": -1.4281366128,
				"element": "C" 
			},
			{
				"x": 2.2658240445,
				"y": 2.3532930603,
				"z": -0.1597859675,
				"element": "C" 
			},
			{
				"x": 1.6806144412,
				"y": 2.0791462805,
				"z": 1.2410241162,
				"element": "C" 
			},
			{
				"x": 0.5613227838,
				"y": 3.0338137995,
				"z": 1.7508186871,
				"element": "C" 
			},
			{
				"x": 0.9079988176,
				"y": 4.3847340774,
				"z": 1.4155046635,
				"element": "O" 
			},
			{
				"x": 0.397803538,
				"y": 2.9284669966,
				"z": 3.2845643143,
				"element": "C" 
			},
			{
				"x": 0.7376027204,
				"y": 1.7796963684,
				"z": 4.012136115,
				"element": "C" 
			},
			{
				"x": 0.5491521025,
				"y": 1.7283190353,
				"z": 5.3956292484,
				"element": "C" 
			},
			{
				"x": 0.0194546627,
				"y": 2.8238030435,
				"z": 6.0763513759,
				"element": "C" 
			},
			{
				"x": -0.324947401,
				"y": 3.9727797069,
				"z": 5.3611889234,
				"element": "C" 
			},
			{
				"x": -0.1403329129,
				"y": 4.0221131017,
				"z": 3.9804368768,
				"element": "C" 
			},
			{
				"x": -0.8096880245,
				"y": 2.7646834334,
				"z": 1.1084071411,
				"element": "C" 
			},
			{
				"x": -1.5260353966,
				"y": 3.7852667666,
				"z": 0.4719920246,
				"element": "C" 
			},
			{
				"x": -2.7908739904,
				"y": 3.5388248811,
				"z": -0.0687264837,
				"element": "C" 
			},
			{
				"x": -3.3662238855,
				"y": 2.2728503445,
				"z": 0.0274036417,
				"element": "C" 
			},
			{
				"x": -2.6665053308,
				"y": 1.2523590207,
				"z": 0.6759749334,
				"element": "C" 
			},
			{
				"x": -1.4025608745,
				"y": 1.4975859318,
				"z": 1.2118831645,
				"element": "C" 
			},
			{
				"x": 2.253195925,
				"y": 1.0560716422,
				"z": -2.4003756723,
				"element": "C" 
			},
			{
				"x": 1.8315270765,
				"y": 1.1645980238,
				"z": -3.8846782898,
				"element": "C" 
			},
			{
				"x": 0.6211904369,
				"y": 0.2378456054,
				"z": -3.9962944976,
				"element": "C" 
			},
			{
				"x": 1.0026887741,
				"y": -0.9998299222,
				"z": -3.1473414168,
				"element": "C" 
			},
			{
				"x": -0.2058180827,
				"y": -1.6796292881,
				"z": -2.4658052548,
				"element": "C" 
			},
			{
				"x": -1.2151628462,
				"y": -2.2217358305,
				"z": -3.5171285702,
				"element": "C" 
			},
			{
				"x": -2.07036256,
				"y": -1.1875869766,
				"z": -4.0163440049,
				"element": "O" 
			},
			{
				"x": -2.0394699998,
				"y": -3.4094724155,
				"z": -2.9749109572,
				"element": "C" 
			},
			{
				"x": -2.3234939743,
				"y": -3.2303917398,
				"z": -1.4773146283,
				"element": "C" 
			},
			{
				"x": -3.4722410243,
				"y": -4.1142038921,
				"z": -0.9382456502,
				"element": "C" 
			},
			{
				"x": -3.0904889677,
				"y": -5.5634066098,
				"z": -0.6145736202,
				"element": "C" 
			},
			{
				"x": -2.723719926,
				"y": -6.3080006966,
				"z": -1.7809378843,
				"element": "O" 
			},
			{
				"x": -1.8861906832,
				"y": -5.5921028813,
				"z": 0.326504912,
				"element": "C" 
			},
			{
				"x": -0.7031712972,
				"y": -4.8272118669,
				"z": -0.2783412885,
				"element": "C" 
			},
			{
				"x": -0.997043992,
				"y": -3.3457145145,
				"z": -0.6426268487,
				"element": "C" 
			},
			{
				"x": -1.1808971854,
				"y": -2.5078378761,
				"z": 0.6416557062,
				"element": "C" 
			},
			{
				"x": 0.211224601,
				"y": -2.8301375851,
				"z": -1.5164194709,
				"element": "C" 
			},
			{
				"x": 1.4913493445,
				"y": -2.4903521572,
				"z": -0.7070977486,
				"element": "C" 
			},
			{
				"x": 1.8573129417,
				"y": -1.0033190792,
				"z": -0.7339847104,
				"element": "C" 
			},
			{
				"x": 2.9561633576,
				"y": -0.8654808502,
				"z": 0.1716198079,
				"element": "O" 
			},
			{
				"x": 2.1627004434,
				"y": -0.5169980614,
				"z": -2.1731371413,
				"element": "C" 
			},
			{
				"x": 3.5074862216,
				"y": -1.1284325908,
				"z": -2.6343129836,
				"element": "C" 
			},
			{
				"x": 1.8011999888,
				"y": 3.8216253514,
				"z": -2.54935341,
				"element": "H" 
			},
			{
				"x": 0.213075138,
				"y": 3.1062550494,
				"z": -2.8791829099,
				"element": "H" 
			},
			{
				"x": 0.5083082754,
				"y": 3.9408479856,
				"z": -1.3538661279,
				"element": "H" 
			},
			{
				"x": 0.5301418513,
				"y": 1.4448181134,
				"z": -1.106842166,
				"element": "H" 
			},
			{
				"x": 3.238686549,
				"y": 1.8439451524,
				"z": -0.1996957358,
				"element": "H" 
			},
			{
				"x": 2.5215499714,
				"y": 3.4169948192,
				"z": -0.2121023515,
				"element": "H" 
			},
			{
				"x": 1.3457822606,
				"y": 1.0403991476,
				"z": 1.3102179932,
				"element": "H" 
			},
			{
				"x": 2.508861756,
				"y": 2.1693601952,
				"z": 1.9567961952,
				"element": "H" 
			},
			{
				"x": 1.6748923339,
				"y": 4.6240161726,
				"z": 1.9532023713,
				"element": "H" 
			},
			{
				"x": 1.15766614,
				"y": 0.9141993411,
				"z": 3.5109580376,
				"element": "H" 
			},
			{
				"x": 0.8232815926,
				"y": 0.8285929863,
				"z": 5.9394220297,
				"element": "H" 
			},
			{
				"x": -0.1239222106,
				"y": 2.7835393731,
				"z": 7.1522751415,
				"element": "H" 
			},
			{
				"x": -0.7405783103,
				"y": 4.8329212455,
				"z": 5.8788788675,
				"element": "H" 
			},
			{
				"x": -0.4115561757,
				"y": 4.9148466853,
				"z": 3.4267970864,
				"element": "H" 
			},
			{
				"x": -1.0889891272,
				"y": 4.7737632318,
				"z": 0.4039381607,
				"element": "H" 
			},
			{
				"x": -3.3269199424,
				"y": 4.3447359844,
				"z": -0.5624519935,
				"element": "H" 
			},
			{
				"x": -4.3524014877,
				"y": 2.0842843388,
				"z": -0.3873121415,
				"element": "H" 
			},
			{
				"x": -3.1089670153,
				"y": 0.2654141826,
				"z": 0.7782570999,
				"element": "H" 
			},
			{
				"x": -0.8875211781,
				"y": 0.6985235229,
				"z": 1.7367190332,
				"element": "H" 
			},
			{
				"x": 3.302456694,
				"y": 1.3681463288,
				"z": -2.3076819812,
				"element": "H" 
			},
			{
				"x": 2.645021451,
				"y": 0.7949983658,
				"z": -4.5196549582,
				"element": "H" 
			},
			{
				"x": 1.6294853707,
				"y": 2.1854524191,
				"z": -4.2129074211,
				"element": "H" 
			},
			{
				"x": -0.264468889,
				"y": 0.7244800562,
				"z": -3.5729348279,
				"element": "H" 
			},
			{
				"x": 0.361534044,
				"y": -0.0212685865,
				"z": -5.0262658766,
				"element": "H" 
			},
			{
				"x": 1.4429850848,
				"y": -1.7547041021,
				"z": -3.8140666988,
				"element": "H" 
			},
			{
				"x": -0.7365110315,
				"y": -0.9138137178,
				"z": -1.8780013857,
				"element": "H" 
			},
			{
				"x": -0.6591790828,
				"y": -2.5543138837,
				"z": -4.4019841518,
				"element": "H" 
			},
			{
				"x": -2.5109924497,
				"y": -0.7815599385,
				"z": -3.257712813,
				"element": "H" 
			},
			{
				"x": -2.9716620046,
				"y": -3.4464161458,
				"z": -3.5507309011,
				"element": "H" 
			},
			{
				"x": -1.5253142155,
				"y": -4.3594479014,
				"z": -3.1506643341,
				"element": "H" 
			},
			{
				"x": -2.6815939554,
				"y": -2.1956308519,
				"z": -1.3576447944,
				"element": "H" 
			},
			{
				"x": -4.3034231689,
				"y": -4.0999889556,
				"z": -1.6580889447,
				"element": "H" 
			},
			{
				"x": -3.8749750867,
				"y": -3.6729601077,
				"z": -0.0170614911,
				"element": "H" 
			},
			{
				"x": -3.948214094,
				"y": -6.0505897091,
				"z": -0.1216647302,
				"element": "H" 
			},
			{
				"x": -3.4376104708,
				"y": -6.2207849014,
				"z": -2.4254660266,
				"element": "H" 
			},
			{
				"x": -1.6007727236,
				"y": -6.6333662862,
				"z": 0.5125289007,
				"element": "H" 
			},
			{
				"x": -2.1861329443,
				"y": -5.1658345844,
				"z": 1.2916858401,
				"element": "H" 
			},
			{
				"x": -0.3983297207,
				"y": -5.3615332301,
				"z": -1.1844231065,
				"element": "H" 
			},
			{
				"x": 0.1534445267,
				"y": -4.8642412159,
				"z": 0.4059549156,
				"element": "H" 
			},
			{
				"x": -0.3670913169,
				"y": -2.6532518594,
				"z": 1.3575739853,
				"element": "H" 
			},
			{
				"x": -1.2377241547,
				"y": -1.4391598314,
				"z": 0.4093084664,
				"element": "H" 
			},
			{
				"x": -2.1082292551,
				"y": -2.774975324,
				"z": 1.158184647,
				"element": "H" 
			},
			{
				"x": 0.4762713146,
				"y": -3.6685130225,
				"z": -2.1730798427,
				"element": "H" 
			},
			{
				"x": 1.3995234354,
				"y": -2.7850467126,
				"z": 0.3408067057,
				"element": "H" 
			},
			{
				"x": 2.3442723478,
				"y": -3.0576732179,
				"z": -1.0905875315,
				"element": "H" 
			},
			{
				"x": 0.9993381542,
				"y": -0.4359617521,
				"z": -0.3459718606,
				"element": "H" 
			},
			{
				"x": 3.2746915786,
				"y": 0.0436694323,
				"z": 0.1205366254,
				"element": "H" 
			},
			{
				"x": 3.7818584487,
				"y": -0.769788077,
				"z": -3.6301045496,
				"element": "H" 
			},
			{
				"x": 4.3140003682,
				"y": -0.8708089415,
				"z": -1.9427685572,
				"element": "H" 
			},
			{
				"x": 3.4590636862,
				"y": -2.2201097346,
				"z": -2.6888519563,
				"element": "H" 
			}
		],
		 "valence_orbital": [ 
			{
				"type": "occ",
				"energy": -0.25258,
				"method": "rhf"
			},
			{
				"type": "occ",
				"energy": -0.25088,
				"method": "rhf"
			},
			{
				"type": "occ",
				"energy": -0.24763,
				"method": "rhf"
			},
			{
				"type": "occ",
				"energy": -0.24635,
				"method": "rhf"
			},
			{
				"type": "occ",
				"energy": -0.23467,
				"method": "rhf"
			},
			{
				"type": "unocc",
				"energy": -0.01565,
				"method": "rhf"
			},
			{
				"type": "unocc",
				"energy": -0.00929,
				"method": "rhf"
			},
			{
				"type": "unocc",
				"energy": 0.00161,
				"method": "rhf"
			},
			{
				"type": "unocc",
				"energy": 0.00854,
				"method": "rhf"
			},
			{
				"type": "unocc",
				"energy": 0.05076,
				"method": "rhf"
			}
		],
		"cosmo_sigma_profile": { 
			"-0.025": 0.0,
			"-0.024": 0.0,
			"-0.023": 0.0,
			"-0.022": 0.0,
			"-0.021": 0.0,
			"-0.02": 0.0,
			"-0.019": 0.0,
			"-0.018": 0.0,
			"-0.017": 0.0,
			"-0.016": 0.000714151986537,
			"-0.015": 0.849014408894,
			"-0.014": 2.04391942994,
			"-0.013": 1.13554870859,
			"-0.012": 2.55219702359,
			"-0.011": 3.85583233196,
			"-0.01": 4.38920589445,
			"-0.009": 4.2442276336,
			"-0.008": 3.95840649708,
			"-0.007": 4.43222010155,
			"-0.006": 8.84514252556,
			"-0.005": 19.822843885,
			"-0.004": 27.8021573091,
			"-0.003": 52.9097983531,
			"-0.002": 79.0498674281,
			"-0.001": 80.5397324879,
			"0.0": 64.5230693238,
			"0.001": 54.7085805332,
			"0.002": 39.0107273292,
			"0.003": 22.8088641794,
			"0.004": 20.8704314268,
			"0.005": 22.7888386334,
			"0.006": 20.6039683064,
			"0.007": 6.98366173256,
			"0.008": 5.81676111994,
			"0.009": 4.77195621679,
			"0.01": 3.7884948836,
			"0.011": 4.08242436681,
			"0.012": 2.89544106553,
			"0.013": 3.62194476821,
			"0.014": 4.52316306031,
			"0.015": 3.18399604615,
			"0.016": 0.119507191438,
			"0.017": 0.0,
			"0.018": 0.0,
			"0.019": 0.0,
			"0.02": 0.0,
			"0.021": 0.0,
			"0.022": 0.0,
			"0.023": 0.0,
			"0.024": 0.0,
			"0.025": 0.0
		}
	}
}
