{
	 "smiles": "CC(=O)C(=N/NC1=CC=CC=C1)C1=CC(C(=NNC2=CC=CC=C2)C(C)=O)=C(C=C1[N+]([O-])=O)[N+]([O-])=O", 
	 "Tm": 488.15, 
	 "num_atms": 56, 
	 "gaussian": { 
		 "optdone": 1, 
		 "sigma_profile": "yes", 
		 "theory": "DFT", 
		 "functional": "B3LYP", 
		 "basiset": "6-31G**", 
		 "properties": { 
			 "R2extent": 21644.8459, 
			 "electric_dipole_moment_norm": 8.04704756914, 
			 "electric_quadrupole_moment_norm": 27.6572083456, 
			 "total_energy": -1706.14965696, 
			 "HOMO_LUMO_gap": 0.10978, 
			 "cosmo_polarized_energy": -29.39, 
			 "cosmo_cavitation_energy": 63.07, 
			 "cosmo_dispersion_energy": -40.83, 
			 "cosmo_repulsion_energy": 3.02, 
			 "cosmo_total_nonelectrostatic_energy": 25.26, 
			 "SMD_solvation_energy": 14.74 
		},
		"coords": [
			{
				"x": -2.5231575626,
				"y": 3.3175018986,
				"z": -2.8593931616,
				"element": "C" 
			},
			{
				"x": -1.5801533523,
				"y": 2.5497497214,
				"z": -1.9578478927,
				"element": "C" 
			},
			{
				"x": -0.3912413574,
				"y": 2.8102687108,
				"z": -1.894505942,
				"element": "O" 
			},
			{
				"x": -2.1322678306,
				"y": 1.4559476079,
				"z": -1.0511956272,
				"element": "C" 
			},
			{
				"x": -3.0006543374,
				"y": 0.5403446433,
				"z": -1.3384216507,
				"element": "N" 
			},
			{
				"x": -3.5368624732,
				"y": 0.419408099,
				"z": -2.5893424176,
				"element": "N" 
			},
			{
				"x": -2.815325796,
				"y": 0.3274820627,
				"z": -3.8170973389,
				"element": "C" 
			},
			{
				"x": -3.5719544309,
				"y": 0.3421619212,
				"z": -4.998463296,
				"element": "C" 
			},
			{
				"x": -2.9470003151,
				"y": 0.1926164778,
				"z": -6.2340323615,
				"element": "C" 
			},
			{
				"x": -1.5601495396,
				"y": 0.0436661342,
				"z": -6.3109246581,
				"element": "C" 
			},
			{
				"x": -0.8097141572,
				"y": 0.0327982433,
				"z": -5.1347586691,
				"element": "C" 
			},
			{
				"x": -1.4255303951,
				"y": 0.1643386336,
				"z": -3.8891312639,
				"element": "C" 
			},
			{
				"x": -1.539769898,
				"y": 1.3419899654,
				"z": 0.3130313236,
				"element": "C" 
			},
			{
				"x": -1.2035280112,
				"y": 0.0600462513,
				"z": 0.7715099127,
				"element": "C" 
			},
			{
				"x": -0.584828361,
				"y": -0.1836338454,
				"z": 2.0049697706,
				"element": "C" 
			},
			{
				"x": -0.1262519833,
				"y": -1.5522007987,
				"z": 2.3831479626,
				"element": "C" 
			},
			{
				"x": 1.1021849923,
				"y": -1.5678843377,
				"z": 2.830176413,
				"element": "N" 
			},
			{
				"x": 1.7878549305,
				"y": -2.6163025025,
				"z": 3.2181534877,
				"element": "N" 
			},
			{
				"x": 3.1117700458,
				"y": -2.485060848,
				"z": 3.6888227951,
				"element": "C" 
			},
			{
				"x": 3.6956941818,
				"y": -1.231163165,
				"z": 3.9077768823,
				"element": "C" 
			},
			{
				"x": 5.0056716082,
				"y": -1.1685464174,
				"z": 4.3766194884,
				"element": "C" 
			},
			{
				"x": 5.7351445892,
				"y": -2.3328208375,
				"z": 4.633510158,
				"element": "C" 
			},
			{
				"x": 5.1407733321,
				"y": -3.5771343797,
				"z": 4.4178687096,
				"element": "C" 
			},
			{
				"x": 3.8326485912,
				"y": -3.6583695935,
				"z": 3.9448937297,
				"element": "C" 
			},
			{
				"x": -1.0989466033,
				"y": -2.6782193007,
				"z": 2.2230739808,
				"element": "C" 
			},
			{
				"x": -0.7638965447,
				"y": -4.0750322741,
				"z": 2.7264554218,
				"element": "C" 
			},
			{
				"x": -2.1876325931,
				"y": -2.4759079893,
				"z": 1.7033119086,
				"element": "O" 
			},
			{
				"x": -0.2950562067,
				"y": 0.9414617569,
				"z": 2.7971419678,
				"element": "C" 
			},
			{
				"x": -0.5814336737,
				"y": 2.2313912063,
				"z": 2.3795194601,
				"element": "C" 
			},
			{
				"x": -1.2228389301,
				"y": 2.4222445464,
				"z": 1.1611470857,
				"element": "C" 
			},
			{
				"x": -1.6319554398,
				"y": 3.8007629058,
				"z": 0.8627314635,
				"element": "N" 
			},
			{
				"x": -1.0894211407,
				"y": 4.7094929365,
				"z": 1.4847546435,
				"element": "O" 
			},
			{
				"x": -2.5284126084,
				"y": 3.9659857552,
				"z": 0.0308250091,
				"element": "O" 
			},
			{
				"x": 0.2749953906,
				"y": 0.8142008844,
				"z": 4.1508400189,
				"element": "N" 
			},
			{
				"x": 1.1737309084,
				"y": 1.5987122087,
				"z": 4.4524311988,
				"element": "O" 
			},
			{
				"x": -0.2131190315,
				"y": -0.0276823588,
				"z": 4.8982767753,
				"element": "O" 
			},
			{
				"x": -2.42135882,
				"y": 4.375367064,
				"z": -2.6033285217,
				"element": "H" 
			},
			{
				"x": -2.2188122974,
				"y": 3.1873148588,
				"z": -3.9015012875,
				"element": "H" 
			},
			{
				"x": -3.5631621976,
				"y": 3.0122357519,
				"z": -2.7426057803,
				"element": "H" 
			},
			{
				"x": -4.290468423,
				"y": -0.255033412,
				"z": -2.5444853762,
				"element": "H" 
			},
			{
				"x": -4.6482259643,
				"y": 0.4794176297,
				"z": -4.938641988,
				"element": "H" 
			},
			{
				"x": -3.5463849572,
				"y": 0.2058921247,
				"z": -7.1397544454,
				"element": "H" 
			},
			{
				"x": -1.0715419928,
				"y": -0.05964901,
				"z": -7.2746271121,
				"element": "H" 
			},
			{
				"x": 0.2686234246,
				"y": -0.0889688429,
				"z": -5.1780217564,
				"element": "H" 
			},
			{
				"x": -0.8239019876,
				"y": 0.1363657123,
				"z": -2.9888075168,
				"element": "H" 
			},
			{
				"x": -1.420982561,
				"y": -0.7750485645,
				"z": 0.1213963395,
				"element": "H" 
			},
			{
				"x": 1.4062821195,
				"y": -3.5548497179,
				"z": 3.1806491695,
				"element": "H" 
			},
			{
				"x": 3.12406731,
				"y": -0.3297853702,
				"z": 3.7247126025,
				"element": "H" 
			},
			{
				"x": 5.4567219314,
				"y": -0.196014879,
				"z": 4.5492998573,
				"element": "H" 
			},
			{
				"x": 6.7543779241,
				"y": -2.2701233034,
				"z": 5.0013776158,
				"element": "H" 
			},
			{
				"x": 5.6944549537,
				"y": -4.490307583,
				"z": 4.6144249211,
				"element": "H" 
			},
			{
				"x": 3.3734005773,
				"y": -4.6290521157,
				"z": 3.7714930919,
				"element": "H" 
			},
			{
				"x": -0.4642549691,
				"y": -4.0666824678,
				"z": 3.7811509967,
				"element": "H" 
			},
			{
				"x": 0.0375229956,
				"y": -4.5314366966,
				"z": 2.130148271,
				"element": "H" 
			},
			{
				"x": -1.6571765741,
				"y": -4.6915860864,
				"z": 2.6182153478,
				"element": "H" 
			},
			{
				"x": -0.3456464895,
				"y": 3.0816309861,
				"z": 3.0051302834,
				"element": "H" 
			}
		],
		 "valence_orbital": [ 
			{
				"type": "occ",
				"energy": -0.26254,
				"method": "rhf"
			},
			{
				"type": "occ",
				"energy": -0.26172,
				"method": "rhf"
			},
			{
				"type": "occ",
				"energy": -0.24925,
				"method": "rhf"
			},
			{
				"type": "occ",
				"energy": -0.22346,
				"method": "rhf"
			},
			{
				"type": "occ",
				"energy": -0.21357,
				"method": "rhf"
			},
			{
				"type": "unocc",
				"energy": -0.10379,
				"method": "rhf"
			},
			{
				"type": "unocc",
				"energy": -0.08531,
				"method": "rhf"
			},
			{
				"type": "unocc",
				"energy": -0.08001,
				"method": "rhf"
			},
			{
				"type": "unocc",
				"energy": -0.06117,
				"method": "rhf"
			},
			{
				"type": "unocc",
				"energy": -0.02961,
				"method": "rhf"
			}
		],
		"cosmo_sigma_profile": { 
			"-0.025": 0.0,
			"-0.024": 0.0,
			"-0.023": 0.0,
			"-0.022": 0.0,
			"-0.021": 0.0,
			"-0.02": 0.0,
			"-0.019": 0.0,
			"-0.018": 0.0,
			"-0.017": 0.0,
			"-0.016": 0.0116300524844,
			"-0.015": 1.60741081969,
			"-0.014": 2.52062074224,
			"-0.013": 3.14874463289,
			"-0.012": 3.24245788528,
			"-0.011": 3.56830831706,
			"-0.01": 2.41809211217,
			"-0.009": 5.52172722146,
			"-0.008": 8.42772607295,
			"-0.007": 9.63718654559,
			"-0.006": 25.6716579159,
			"-0.005": 33.3494835875,
			"-0.004": 33.7506126413,
			"-0.003": 36.5908545672,
			"-0.002": 41.3743221292,
			"-0.001": 35.0270800751,
			"0.0": 33.6757238719,
			"0.001": 33.428925629,
			"0.002": 30.0970016865,
			"0.003": 30.4603376815,
			"0.004": 28.711787415,
			"0.005": 28.1235503217,
			"0.006": 14.6612068831,
			"0.007": 18.9717476424,
			"0.008": 13.3493527264,
			"0.009": 9.57712603414,
			"0.01": 6.57673427288,
			"0.011": 6.84604609517,
			"0.012": 4.20574009092,
			"0.013": 0.656128281362,
			"0.014": 0.0,
			"0.015": 0.0,
			"0.016": 0.0,
			"0.017": 0.0,
			"0.018": 0.0,
			"0.019": 0.0,
			"0.02": 0.0,
			"0.021": 0.0,
			"0.022": 0.0,
			"0.023": 0.0,
			"0.024": 0.0,
			"0.025": 0.0
		}
	}
}
