{
	 "smiles": "CC(C)(C)OC(=O)N[C@@H](CCC1=CC=CC=C1)C(O)=O", 
	 "Tm": 351.15, 
	 "num_atms": 41, 
	 "gaussian": { 
		 "optdone": 1, 
		 "sigma_profile": "yes", 
		 "theory": "DFT", 
		 "functional": "B3LYP", 
		 "basiset": "6-31G**", 
		 "properties": { 
			 "R2extent": 6066.8233, 
			 "electric_dipole_moment_norm": 3.57042748141, 
			 "electric_quadrupole_moment_norm": 14.7636743607, 
			 "total_energy": -939.958368887, 
			 "HOMO_LUMO_gap": 0.2389, 
			 "cosmo_polarized_energy": -17.06, 
			 "cosmo_cavitation_energy": 43.4, 
			 "cosmo_dispersion_energy": -27.26, 
			 "cosmo_repulsion_energy": 2.11, 
			 "cosmo_total_nonelectrostatic_energy": 18.25, 
			 "SMD_solvation_energy": 9.41 
		},
		"coords": [
			{
				"x": -0.6502874536,
				"y": 4.1932792837,
				"z": -0.9561451463,
				"element": "C" 
			},
			{
				"x": -0.976606534,
				"y": 2.7169960413,
				"z": -0.7153302623,
				"element": "C" 
			},
			{
				"x": -2.0237857668,
				"y": 2.178375204,
				"z": -1.6938930506,
				"element": "C" 
			},
			{
				"x": -1.404072895,
				"y": 2.4760928488,
				"z": 0.7337794802,
				"element": "C" 
			},
			{
				"x": 0.25818808,
				"y": 1.9072002417,
				"z": -0.8209361865,
				"element": "O" 
			},
			{
				"x": 0.9472360088,
				"y": 1.8298344686,
				"z": -1.9695936392,
				"element": "C" 
			},
			{
				"x": 0.7290997966,
				"y": 2.4347509324,
				"z": -3.0024059377,
				"element": "O" 
			},
			{
				"x": 2.0396287695,
				"y": 0.9678910857,
				"z": -1.835272393,
				"element": "N" 
			},
			{
				"x": 2.0818431129,
				"y": -0.147069375,
				"z": -0.8756717344,
				"element": "C" 
			},
			{
				"x": 1.7894541282,
				"y": -1.5004637413,
				"z": -1.5575326895,
				"element": "C" 
			},
			{
				"x": 1.4485631716,
				"y": -2.6659511041,
				"z": -0.600867988,
				"element": "C" 
			},
			{
				"x": 0.2445403363,
				"y": -2.3852248543,
				"z": 0.2749479044,
				"element": "C" 
			},
			{
				"x": -1.0581598102,
				"y": -2.5207274171,
				"z": -0.2277207267,
				"element": "C" 
			},
			{
				"x": -2.167971491,
				"y": -2.228296085,
				"z": 0.5658668923,
				"element": "C" 
			},
			{
				"x": -1.9925759626,
				"y": -1.7931593638,
				"z": 1.8822551139,
				"element": "C" 
			},
			{
				"x": -0.7015564384,
				"y": -1.6563866046,
				"z": 2.3959568199,
				"element": "C" 
			},
			{
				"x": 0.4070587711,
				"y": -1.9504995739,
				"z": 1.5984506762,
				"element": "C" 
			},
			{
				"x": 3.4093196174,
				"y": -0.1354199556,
				"z": -0.0924227018,
				"element": "C" 
			},
			{
				"x": 4.1207702358,
				"y": 0.999651061,
				"z": -0.1953241243,
				"element": "O" 
			},
			{
				"x": 3.7773400454,
				"y": -1.0582421051,
				"z": 0.5991167947,
				"element": "O" 
			},
			{
				"x": -1.5421733822,
				"y": 4.798163719,
				"z": -0.7637746451,
				"element": "H" 
			},
			{
				"x": 0.137414135,
				"y": 4.5255891315,
				"z": -0.2727395659,
				"element": "H" 
			},
			{
				"x": -0.3244947981,
				"y": 4.3621561367,
				"z": -1.9826826665,
				"element": "H" 
			},
			{
				"x": -2.1940428811,
				"y": 1.1117497541,
				"z": -1.5168038252,
				"element": "H" 
			},
			{
				"x": -2.971378489,
				"y": 2.703974371,
				"z": -1.5393181054,
				"element": "H" 
			},
			{
				"x": -1.7086013849,
				"y": 2.3242711622,
				"z": -2.7278160183,
				"element": "H" 
			},
			{
				"x": -0.6317620558,
				"y": 2.8221797503,
				"z": 1.4268279092,
				"element": "H" 
			},
			{
				"x": -1.5815022053,
				"y": 1.4123918455,
				"z": 0.9163873056,
				"element": "H" 
			},
			{
				"x": -2.3270676662,
				"y": 3.0244497222,
				"z": 0.9442125395,
				"element": "H" 
			},
			{
				"x": 2.432328986,
				"y": 0.772310659,
				"z": -2.7499468257,
				"element": "H" 
			},
			{
				"x": 1.3011103502,
				"y": 0.0490066452,
				"z": -0.1360558764,
				"element": "H" 
			},
			{
				"x": 2.6441844617,
				"y": -1.7876164246,
				"z": -2.1836545628,
				"element": "H" 
			},
			{
				"x": 0.9396504573,
				"y": -1.3361680138,
				"z": -2.2310117285,
				"element": "H" 
			},
			{
				"x": 2.3203894949,
				"y": -2.8807956382,
				"z": 0.0190495291,
				"element": "H" 
			},
			{
				"x": 1.2553027001,
				"y": -3.5510163328,
				"z": -1.2189742954,
				"element": "H" 
			},
			{
				"x": -1.2036628826,
				"y": -2.86829387,
				"z": -1.2484362997,
				"element": "H" 
			},
			{
				"x": -3.1691689485,
				"y": -2.3484148382,
				"z": 0.1609334476,
				"element": "H" 
			},
			{
				"x": -2.8554367293,
				"y": -1.5720600081,
				"z": 2.5041104768,
				"element": "H" 
			},
			{
				"x": -0.5553550308,
				"y": -1.3257947733,
				"z": 3.4205885369,
				"element": "H" 
			},
			{
				"x": 1.4118920473,
				"y": -1.8423754862,
				"z": 1.9984982946,
				"element": "H" 
			},
			{
				"x": 3.6276480997,
				"y": 1.5817615009,
				"z": -0.8070507259,
				"element": "H" 
			}
		],
		 "valence_orbital": [ 
			{
				"type": "occ",
				"energy": -0.29573,
				"method": "rhf"
			},
			{
				"type": "occ",
				"energy": -0.28406,
				"method": "rhf"
			},
			{
				"type": "occ",
				"energy": -0.25739,
				"method": "rhf"
			},
			{
				"type": "occ",
				"energy": -0.25142,
				"method": "rhf"
			},
			{
				"type": "occ",
				"energy": -0.24473,
				"method": "rhf"
			},
			{
				"type": "unocc",
				"energy": -0.00583,
				"method": "rhf"
			},
			{
				"type": "unocc",
				"energy": -0.00408,
				"method": "rhf"
			},
			{
				"type": "unocc",
				"energy": 0.00984,
				"method": "rhf"
			},
			{
				"type": "unocc",
				"energy": 0.02668,
				"method": "rhf"
			},
			{
				"type": "unocc",
				"energy": 0.06688,
				"method": "rhf"
			}
		],
		"cosmo_sigma_profile": { 
			"-0.025": 0.0,
			"-0.024": 0.0,
			"-0.023": 0.0,
			"-0.022": 0.0,
			"-0.021": 0.0,
			"-0.02": 0.0,
			"-0.019": 0.0,
			"-0.018": 0.0,
			"-0.017": 0.0,
			"-0.016": 0.0,
			"-0.015": 0.0544917649594,
			"-0.014": 1.32623471438,
			"-0.013": 2.57727028275,
			"-0.012": 1.80440945065,
			"-0.011": 1.98750713286,
			"-0.01": 3.07180192566,
			"-0.009": 2.89075037542,
			"-0.008": 1.97372246159,
			"-0.007": 2.74459085027,
			"-0.006": 6.16273794051,
			"-0.005": 16.9814160371,
			"-0.004": 30.9889182442,
			"-0.003": 31.9677178238,
			"-0.002": 30.2911149698,
			"-0.001": 35.6802890353,
			"0.0": 39.9585866289,
			"0.001": 28.3021571151,
			"0.002": 19.8657986463,
			"0.003": 16.0231615602,
			"0.004": 11.982994382,
			"0.005": 9.72388392683,
			"0.006": 9.19764357259,
			"0.007": 4.41654939926,
			"0.008": 3.87905207213,
			"0.009": 4.48189029748,
			"0.01": 6.08898864147,
			"0.011": 5.38966020492,
			"0.012": 6.47180136617,
			"0.013": 4.15631996392,
			"0.014": 0.147083388482,
			"0.015": 0.0,
			"0.016": 0.0,
			"0.017": 0.0,
			"0.018": 0.0,
			"0.019": 0.0,
			"0.02": 0.0,
			"0.021": 0.0,
			"0.022": 0.0,
			"0.023": 0.0,
			"0.024": 0.0,
			"0.025": 0.0
		}
	}
}
