{
	 "smiles": "O=C=NC1=CC=C(C=C1)N1C=CC=C1", 
	 "Tm": 338.65, 
	 "num_atms": 22, 
	 "gaussian": { 
		 "optdone": 1, 
		 "sigma_profile": "yes", 
		 "theory": "DFT", 
		 "functional": "B3LYP", 
		 "basiset": "6-31G**", 
		 "properties": { 
			 "R2extent": 4786.3398, 
			 "electric_dipole_moment_norm": 1.20302371548, 
			 "electric_quadrupole_moment_norm": 16.9368037433, 
			 "total_energy": -608.702610256, 
			 "HOMO_LUMO_gap": 0.18121, 
			 "cosmo_polarized_energy": -7.58, 
			 "cosmo_cavitation_energy": 27.95, 
			 "cosmo_dispersion_energy": -20.09, 
			 "cosmo_repulsion_energy": 1.55, 
			 "cosmo_total_nonelectrostatic_energy": 9.41, 
			 "SMD_solvation_energy": 7.78 
		},
		"coords": [
			{
				"x": 6.4100214224,
				"y": 1.0212191215,
				"z": 2.524946538,
				"element": "O" 
			},
			{
				"x": 5.4251701558,
				"y": 0.6838931279,
				"z": 1.9719870513,
				"element": "C" 
			},
			{
				"x": 4.4957721992,
				"y": 0.2384094475,
				"z": 1.3389952879,
				"element": "N" 
			},
			{
				"x": 3.1249675713,
				"y": 0.4352026653,
				"z": 1.1560274647,
				"element": "C" 
			},
			{
				"x": 2.4157440008,
				"y": 1.4316395605,
				"z": 1.8431312182,
				"element": "C" 
			},
			{
				"x": 1.053228392,
				"y": 1.5984495718,
				"z": 1.6230888288,
				"element": "C" 
			},
			{
				"x": 0.369932024,
				"y": 0.7614645598,
				"z": 0.729681407,
				"element": "C" 
			},
			{
				"x": 1.0787779335,
				"y": -0.2393640417,
				"z": 0.0523657543,
				"element": "C" 
			},
			{
				"x": 2.4460509234,
				"y": -0.3943914036,
				"z": 0.2558661974,
				"element": "C" 
			},
			{
				"x": -1.0182559759,
				"y": 0.9267457962,
				"z": 0.5153521306,
				"element": "N" 
			},
			{
				"x": -1.6794166792,
				"y": 0.7409731571,
				"z": -0.6884799479,
				"element": "C" 
			},
			{
				"x": -3.0149064569,
				"y": 1.000001961,
				"z": -0.4925603913,
				"element": "C" 
			},
			{
				"x": -3.1852519235,
				"y": 1.3504409112,
				"z": 0.8796540726,
				"element": "C" 
			},
			{
				"x": -1.9466898419,
				"y": 1.3021712152,
				"z": 1.4735011613,
				"element": "C" 
			},
			{
				"x": 2.9381682681,
				"y": 2.0850472777,
				"z": 2.5352489866,
				"element": "H" 
			},
			{
				"x": 0.5191483929,
				"y": 2.3959183213,
				"z": 2.1282997467,
				"element": "H" 
			},
			{
				"x": 0.5529490457,
				"y": -0.9110108333,
				"z": -0.6174237863,
				"element": "H" 
			},
			{
				"x": 2.9967643066,
				"y": -1.1694813862,
				"z": -0.265806021,
				"element": "H" 
			},
			{
				"x": -1.1303696793,
				"y": 0.4925729367,
				"z": -1.5836265456,
				"element": "H" 
			},
			{
				"x": -3.7833857752,
				"y": 0.9544959391,
				"z": -1.2514150896,
				"element": "H" 
			},
			{
				"x": -4.1128097654,
				"y": 1.5981173961,
				"z": 1.3764288974,
				"element": "H" 
			},
			{
				"x": -1.6477085384,
				"y": 1.448784699,
				"z": 2.4999370389,
				"element": "H" 
			}
		],
		 "valence_orbital": [ 
			{
				"type": "occ",
				"energy": -0.31198,
				"method": "rhf"
			},
			{
				"type": "occ",
				"energy": -0.2732,
				"method": "rhf"
			},
			{
				"type": "occ",
				"energy": -0.26675,
				"method": "rhf"
			},
			{
				"type": "occ",
				"energy": -0.21891,
				"method": "rhf"
			},
			{
				"type": "occ",
				"energy": -0.21507,
				"method": "rhf"
			},
			{
				"type": "unocc",
				"energy": -0.03386,
				"method": "rhf"
			},
			{
				"type": "unocc",
				"energy": -0.0231,
				"method": "rhf"
			},
			{
				"type": "unocc",
				"energy": 0.00829,
				"method": "rhf"
			},
			{
				"type": "unocc",
				"energy": 0.03521,
				"method": "rhf"
			},
			{
				"type": "unocc",
				"energy": 0.07732,
				"method": "rhf"
			}
		],
		"cosmo_sigma_profile": { 
			"-0.025": 0.0,
			"-0.024": 0.0,
			"-0.023": 0.0,
			"-0.022": 0.0,
			"-0.021": 0.0,
			"-0.02": 0.0,
			"-0.019": 0.0,
			"-0.018": 0.0,
			"-0.017": 0.0,
			"-0.016": 0.0,
			"-0.015": 0.0,
			"-0.014": 0.0,
			"-0.013": 0.0,
			"-0.012": 0.0,
			"-0.011": 0.0,
			"-0.01": 0.0,
			"-0.009": 0.0108097034153,
			"-0.008": 3.4215376999,
			"-0.007": 12.7030618104,
			"-0.006": 12.883070609,
			"-0.005": 15.1517893046,
			"-0.004": 13.577104581,
			"-0.003": 15.1571739385,
			"-0.002": 17.1777366761,
			"-0.001": 13.8416420549,
			"0.0": 16.1401668122,
			"0.001": 15.7369582453,
			"0.002": 20.1081695007,
			"0.003": 22.2467383861,
			"0.004": 10.9347155884,
			"0.005": 8.40310197326,
			"0.006": 8.27466039774,
			"0.007": 11.9767905748,
			"0.008": 8.2776582885,
			"0.009": 0.555882073159,
			"0.01": 0.0,
			"0.011": 0.0,
			"0.012": 0.0,
			"0.013": 0.0,
			"0.014": 0.0,
			"0.015": 0.0,
			"0.016": 0.0,
			"0.017": 0.0,
			"0.018": 0.0,
			"0.019": 0.0,
			"0.02": 0.0,
			"0.021": 0.0,
			"0.022": 0.0,
			"0.023": 0.0,
			"0.024": 0.0,
			"0.025": 0.0
		}
	}
}
