{
	 "smiles": "NC1=C(C=CC=C1)C(=O)NCC1CCCO1", 
	 "Tm": 352.15, 
	 "num_atms": 32, 
	 "gaussian": { 
		 "optdone": 1, 
		 "sigma_profile": "yes", 
		 "theory": "DFT", 
		 "functional": "B3LYP", 
		 "basiset": "6-31G**", 
		 "properties": { 
			 "R2extent": 4911.0697, 
			 "electric_dipole_moment_norm": 2.16143352431, 
			 "electric_quadrupole_moment_norm": 15.4119816305, 
			 "total_energy": -726.882500231, 
			 "HOMO_LUMO_gap": 0.17076, 
			 "cosmo_polarized_energy": -13.9, 
			 "cosmo_cavitation_energy": 33.8, 
			 "cosmo_dispersion_energy": -24.43, 
			 "cosmo_repulsion_energy": 1.92, 
			 "cosmo_total_nonelectrostatic_energy": 11.29, 
			 "SMD_solvation_energy": 5.23 
		},
		"coords": [
			{
				"x": 0.0943022051,
				"y": 1.3275414973,
				"z": 4.3357467899,
				"element": "N" 
			},
			{
				"x": -0.6906929968,
				"y": 0.4387676591,
				"z": 3.6346917171,
				"element": "C" 
			},
			{
				"x": -0.5782313875,
				"y": 0.3030134856,
				"z": 2.2214332945,
				"element": "C" 
			},
			{
				"x": -1.4225070546,
				"y": -0.6000658225,
				"z": 1.5544553126,
				"element": "C" 
			},
			{
				"x": -2.3292593804,
				"y": -1.4025343763,
				"z": 2.2369344473,
				"element": "C" 
			},
			{
				"x": -2.394332499,
				"y": -1.3071919058,
				"z": 3.6319308631,
				"element": "C" 
			},
			{
				"x": -1.5932954409,
				"y": -0.4048278626,
				"z": 4.3165964232,
				"element": "C" 
			},
			{
				"x": 0.3606321541,
				"y": 1.1872833127,
				"z": 1.4717387597,
				"element": "C" 
			},
			{
				"x": 0.5937648921,
				"y": 2.3468157425,
				"z": 1.8346214975,
				"element": "O" 
			},
			{
				"x": 0.9508398382,
				"y": 0.7198639723,
				"z": 0.3120218876,
				"element": "N" 
			},
			{
				"x": 1.4360633084,
				"y": -0.6383539916,
				"z": 0.0574085933,
				"element": "C" 
			},
			{
				"x": 1.5757091484,
				"y": -0.9033142074,
				"z": -1.448265554,
				"element": "C" 
			},
			{
				"x": 0.2404530945,
				"y": -1.0330630002,
				"z": -2.2082171055,
				"element": "C" 
			},
			{
				"x": 0.0217928335,
				"y": -2.5539449108,
				"z": -2.252007142,
				"element": "C" 
			},
			{
				"x": 1.4612123092,
				"y": -3.0556879471,
				"z": -2.3807322071,
				"element": "C" 
			},
			{
				"x": 2.2524588222,
				"y": -2.1601505125,
				"z": -1.5950090622,
				"element": "O" 
			},
			{
				"x": 0.4257462056,
				"y": 2.1140505212,
				"z": 3.788511659,
				"element": "H" 
			},
			{
				"x": -0.2048490469,
				"y": 1.5389067418,
				"z": 5.2756723542,
				"element": "H" 
			},
			{
				"x": -1.3820252799,
				"y": -0.6435058033,
				"z": 0.4710116883,
				"element": "H" 
			},
			{
				"x": -2.9779180601,
				"y": -2.0837974128,
				"z": 1.6961334973,
				"element": "H" 
			},
			{
				"x": -3.0887465053,
				"y": -1.9306065613,
				"z": 4.1887221179,
				"element": "H" 
			},
			{
				"x": -1.6657102809,
				"y": -0.3237905401,
				"z": 5.3984815427,
				"element": "H" 
			},
			{
				"x": 1.5528517877,
				"y": 1.44838369,
				"z": -0.0597140787,
				"element": "H" 
			},
			{
				"x": 2.4194523132,
				"y": -0.8005462435,
				"z": 0.5202771883,
				"element": "H" 
			},
			{
				"x": 0.7513033032,
				"y": -1.3613135791,
				"z": 0.5001976306,
				"element": "H" 
			},
			{
				"x": 2.2023263961,
				"y": -0.1126665504,
				"z": -1.8887973924,
				"element": "H" 
			},
			{
				"x": -0.5661327381,
				"y": -0.4775095098,
				"z": -1.7233266504,
				"element": "H" 
			},
			{
				"x": 0.3452258815,
				"y": -0.6387840941,
				"z": -3.2246544819,
				"element": "H" 
			},
			{
				"x": -0.6195526781,
				"y": -2.8749061381,
				"z": -3.0775013726,
				"element": "H" 
			},
			{
				"x": -0.4238974766,
				"y": -2.9122931728,
				"z": -1.317384341,
				"element": "H" 
			},
			{
				"x": 1.7910923987,
				"y": -3.0324734759,
				"z": -3.4315756905,
				"element": "H" 
			},
			{
				"x": 1.6147239335,
				"y": -4.0693990044,
				"z": -1.9975021859,
				"element": "H" 
			}
		],
		 "valence_orbital": [ 
			{
				"type": "occ",
				"energy": -0.26476,
				"method": "rhf"
			},
			{
				"type": "occ",
				"energy": -0.25737,
				"method": "rhf"
			},
			{
				"type": "occ",
				"energy": -0.24934,
				"method": "rhf"
			},
			{
				"type": "occ",
				"energy": -0.2386,
				"method": "rhf"
			},
			{
				"type": "occ",
				"energy": -0.20057,
				"method": "rhf"
			},
			{
				"type": "unocc",
				"energy": -0.02981,
				"method": "rhf"
			},
			{
				"type": "unocc",
				"energy": 0.01259,
				"method": "rhf"
			},
			{
				"type": "unocc",
				"energy": 0.05189,
				"method": "rhf"
			},
			{
				"type": "unocc",
				"energy": 0.06852,
				"method": "rhf"
			},
			{
				"type": "unocc",
				"energy": 0.08869,
				"method": "rhf"
			}
		],
		"cosmo_sigma_profile": { 
			"-0.025": 0.0,
			"-0.024": 0.0,
			"-0.023": 0.0,
			"-0.022": 0.0,
			"-0.021": 0.0,
			"-0.02": 0.0,
			"-0.019": 0.0,
			"-0.018": 0.0,
			"-0.017": 0.0,
			"-0.016": 0.0,
			"-0.015": 0.0,
			"-0.014": 0.0,
			"-0.013": 0.601353157245,
			"-0.012": 2.53587066236,
			"-0.011": 2.50396160646,
			"-0.01": 2.54727528412,
			"-0.009": 3.25607327796,
			"-0.008": 3.09556605511,
			"-0.007": 3.58822526144,
			"-0.006": 6.98775366609,
			"-0.005": 13.2171804524,
			"-0.004": 23.9038261573,
			"-0.003": 33.0037907205,
			"-0.002": 29.6676419838,
			"-0.001": 21.6336807042,
			"0.0": 18.4644475299,
			"0.001": 12.2625121889,
			"0.002": 10.7982452501,
			"0.003": 11.950152145,
			"0.004": 13.5448902948,
			"0.005": 14.2053459175,
			"0.006": 10.041891922,
			"0.007": 3.30636771383,
			"0.008": 3.8689235751,
			"0.009": 3.06684353972,
			"0.01": 2.73400676566,
			"0.011": 3.04270068774,
			"0.012": 4.65430854135,
			"0.013": 4.94312399599,
			"0.014": 2.27056136652,
			"0.015": 0.0850517999753,
			"0.016": 0.0,
			"0.017": 0.0,
			"0.018": 0.0,
			"0.019": 0.0,
			"0.02": 0.0,
			"0.021": 0.0,
			"0.022": 0.0,
			"0.023": 0.0,
			"0.024": 0.0,
			"0.025": 0.0
		}
	}
}
