{
	 "smiles": "CC1=NN(C(=O)OC(C)(C)C)C(N)=C1", 
	 "Tm": 409.15, 
	 "num_atms": 29, 
	 "gaussian": { 
		 "optdone": 1, 
		 "sigma_profile": "yes", 
		 "theory": "DFT", 
		 "functional": "B3LYP", 
		 "basiset": "6-31G**", 
		 "properties": { 
			 "R2extent": 3492.2296, 
			 "electric_dipole_moment_norm": 1.27674172016, 
			 "electric_quadrupole_moment_norm": 11.9051884819, 
			 "total_energy": -666.718763036, 
			 "HOMO_LUMO_gap": 0.19308, 
			 "cosmo_polarized_energy": -12.47, 
			 "cosmo_cavitation_energy": 31.69, 
			 "cosmo_dispersion_energy": -22.75, 
			 "cosmo_repulsion_energy": 1.83, 
			 "cosmo_total_nonelectrostatic_energy": 10.77, 
			 "SMD_solvation_energy": 5.88 
		},
		"coords": [
			{
				"x": -3.2185964213,
				"y": -3.2640775943,
				"z": 0.0414899753,
				"element": "C" 
			},
			{
				"x": -2.1116832423,
				"y": -2.5281132818,
				"z": 0.7312305243,
				"element": "C" 
			},
			{
				"x": -1.5487820049,
				"y": -1.4868213698,
				"z": 0.1475077214,
				"element": "N" 
			},
			{
				"x": -0.5860720416,
				"y": -1.0649196846,
				"z": 1.056726985,
				"element": "N" 
			},
			{
				"x": 0.2952730269,
				"y": -0.0173918171,
				"z": 0.7782082336,
				"element": "C" 
			},
			{
				"x": 1.1972056526,
				"y": 0.286677052,
				"z": 1.5496019048,
				"element": "O" 
			},
			{
				"x": 0.0127177561,
				"y": 0.5559287878,
				"z": -0.3837697513,
				"element": "O" 
			},
			{
				"x": 0.8168507964,
				"y": 1.6865926675,
				"z": -0.8972925466,
				"element": "C" 
			},
			{
				"x": 0.7111635784,
				"y": 2.8769192252,
				"z": 0.0604470381,
				"element": "C" 
			},
			{
				"x": 0.1268012311,
				"y": 1.9910789054,
				"z": -2.228493572,
				"element": "C" 
			},
			{
				"x": 2.2639034702,
				"y": 1.2373051832,
				"z": -1.1200336193,
				"element": "C" 
			},
			{
				"x": -0.5729995033,
				"y": -1.8613085476,
				"z": 2.2018636358,
				"element": "C" 
			},
			{
				"x": 0.2445043896,
				"y": -1.6025469826,
				"z": 3.2714239802,
				"element": "N" 
			},
			{
				"x": -1.5501606439,
				"y": -2.8140646034,
				"z": 2.0102989576,
				"element": "C" 
			},
			{
				"x": -4.1378726486,
				"y": -3.2435434218,
				"z": 0.6375705844,
				"element": "H" 
			},
			{
				"x": -2.9557048557,
				"y": -4.3162639116,
				"z": -0.1153484552,
				"element": "H" 
			},
			{
				"x": -3.4213669929,
				"y": -2.8058970903,
				"z": -0.9286104768,
				"element": "H" 
			},
			{
				"x": -0.3385649848,
				"y": 3.1321218497,
				"z": 0.2348033454,
				"element": "H" 
			},
			{
				"x": 1.2020598904,
				"y": 3.7469572895,
				"z": -0.3872984572,
				"element": "H" 
			},
			{
				"x": 1.1874380021,
				"y": 2.6599913543,
				"z": 1.0169628122,
				"element": "H" 
			},
			{
				"x": 0.1592562002,
				"y": 1.1190381074,
				"z": -2.8871681241,
				"element": "H" 
			},
			{
				"x": -0.9206046679,
				"y": 2.2594753516,
				"z": -2.0664033039,
				"element": "H" 
			},
			{
				"x": 0.6290449712,
				"y": 2.8255835292,
				"z": -2.7267717206,
				"element": "H" 
			},
			{
				"x": 2.8189680012,
				"y": 2.0376843354,
				"z": -1.6197124201,
				"element": "H" 
			},
			{
				"x": 2.2921006376,
				"y": 0.3523790375,
				"z": -1.7631914647,
				"element": "H" 
			},
			{
				"x": 2.7575597617,
				"y": 1.0065272654,
				"z": -0.1756210377,
				"element": "H" 
			},
			{
				"x": 0.4217244971,
				"y": -2.3856979836,
				"z": 3.8814464934,
				"element": "H" 
			},
			{
				"x": 1.0270383912,
				"y": -0.991346347,
				"z": 3.0724984511,
				"element": "H" 
			},
			{
				"x": -1.8328022466,
				"y": -3.5957673054,
				"z": 2.6998343068,
				"element": "H" 
			}
		],
		 "valence_orbital": [ 
			{
				"type": "occ",
				"energy": -0.2998,
				"method": "rhf"
			},
			{
				"type": "occ",
				"energy": -0.2866,
				"method": "rhf"
			},
			{
				"type": "occ",
				"energy": -0.27215,
				"method": "rhf"
			},
			{
				"type": "occ",
				"energy": -0.24741,
				"method": "rhf"
			},
			{
				"type": "occ",
				"energy": -0.19979,
				"method": "rhf"
			},
			{
				"type": "unocc",
				"energy": -0.00671,
				"method": "rhf"
			},
			{
				"type": "unocc",
				"energy": 0.0736,
				"method": "rhf"
			},
			{
				"type": "unocc",
				"energy": 0.08332,
				"method": "rhf"
			},
			{
				"type": "unocc",
				"energy": 0.08707,
				"method": "rhf"
			},
			{
				"type": "unocc",
				"energy": 0.09554,
				"method": "rhf"
			}
		],
		"cosmo_sigma_profile": { 
			"-0.025": 0.0,
			"-0.024": 0.0,
			"-0.023": 0.0,
			"-0.022": 0.0,
			"-0.021": 0.0,
			"-0.02": 0.0,
			"-0.019": 0.0,
			"-0.018": 0.0,
			"-0.017": 0.0,
			"-0.016": 0.0,
			"-0.015": 0.0,
			"-0.014": 0.695067849888,
			"-0.013": 1.56774767073,
			"-0.012": 1.08568326267,
			"-0.011": 1.43658328327,
			"-0.01": 1.4962004647,
			"-0.009": 2.35763532943,
			"-0.008": 2.08201824133,
			"-0.007": 2.62318552466,
			"-0.006": 3.07262580682,
			"-0.005": 8.36979411365,
			"-0.004": 22.5204328278,
			"-0.003": 25.1732538613,
			"-0.002": 29.6610622248,
			"-0.001": 30.2532534558,
			"0.0": 32.7464641026,
			"0.001": 16.8604267633,
			"0.002": 8.44726385117,
			"0.003": 8.18107925665,
			"0.004": 10.3247351915,
			"0.005": 8.08721064141,
			"0.006": 6.16257010557,
			"0.007": 4.56949957585,
			"0.008": 3.80321989932,
			"0.009": 3.8754784346,
			"0.01": 3.17018145107,
			"0.011": 2.08023891011,
			"0.012": 1.57254257898,
			"0.013": 1.56746991727,
			"0.014": 1.02248807664,
			"0.015": 1.1099648705,
			"0.016": 1.43133764171,
			"0.017": 1.02634429095,
			"0.018": 0.355867515897,
			"0.019": 0.0,
			"0.02": 0.0,
			"0.021": 0.0,
			"0.022": 0.0,
			"0.023": 0.0,
			"0.024": 0.0,
			"0.025": 0.0
		}
	}
}
