{
	 "smiles": "OC(=O)C1=CC(=O)NC2=C1C=C(C=C2)[N+]([O-])=O", 
	 "Tm": 649.15, 
	 "num_atms": 23, 
	 "gaussian": { 
		 "optdone": 1, 
		 "sigma_profile": "yes", 
		 "theory": "DFT", 
		 "functional": "B3LYP", 
		 "basiset": "6-31G**", 
		 "properties": { 
			 "R2extent": 4662.1171, 
			 "electric_dipole_moment_norm": 5.00016557726, 
			 "electric_quadrupole_moment_norm": 22.3281829505, 
			 "total_energy": -870.223190119, 
			 "HOMO_LUMO_gap": 0.15471, 
			 "cosmo_polarized_energy": -25.81, 
			 "cosmo_cavitation_energy": 29.39, 
			 "cosmo_dispersion_energy": -21.4, 
			 "cosmo_repulsion_energy": 1.63, 
			 "cosmo_total_nonelectrostatic_energy": 9.62, 
			 "SMD_solvation_energy": 8.98 
		},
		"coords": [
			{
				"x": 1.2661079176,
				"y": 1.600303397,
				"z": -1.3584836273,
				"element": "O" 
			},
			{
				"x": -0.0025767738,
				"y": 1.1195908013,
				"z": -1.3922787744,
				"element": "C" 
			},
			{
				"x": -0.8348809661,
				"y": 1.6344319525,
				"z": -2.0932580123,
				"element": "O" 
			},
			{
				"x": -0.2851166239,
				"y": -0.1034358974,
				"z": -0.5467605507,
				"element": "C" 
			},
			{
				"x": -1.0444741522,
				"y": -1.069809798,
				"z": -1.123380731,
				"element": "C" 
			},
			{
				"x": -1.3563508844,
				"y": -2.3329090482,
				"z": -0.454637071,
				"element": "C" 
			},
			{
				"x": -2.0140294436,
				"y": -3.244918728,
				"z": -0.9314552397,
				"element": "O" 
			},
			{
				"x": -0.8122121793,
				"y": -2.4399474225,
				"z": 0.8333910286,
				"element": "N" 
			},
			{
				"x": -0.0858972496,
				"y": -1.4774751479,
				"z": 1.4888579364,
				"element": "C" 
			},
			{
				"x": 0.2092080672,
				"y": -0.2560948978,
				"z": 0.81680212,
				"element": "C" 
			},
			{
				"x": 0.9102101138,
				"y": 0.7368739125,
				"z": 1.5227488728,
				"element": "C" 
			},
			{
				"x": 1.3235818268,
				"y": 0.4991189473,
				"z": 2.8244110935,
				"element": "C" 
			},
			{
				"x": 1.0583468897,
				"y": -0.7096557528,
				"z": 3.4791666798,
				"element": "C" 
			},
			{
				"x": 0.3522454,
				"y": -1.6912842116,
				"z": 2.8106402413,
				"element": "C" 
			},
			{
				"x": 2.060388907,
				"y": 1.5486258011,
				"z": 3.537266817,
				"element": "N" 
			},
			{
				"x": 2.3991549978,
				"y": 1.3149784548,
				"z": 4.6972031322,
				"element": "O" 
			},
			{
				"x": 2.2961253641,
				"y": 2.5930829726,
				"z": 2.9305005075,
				"element": "O" 
			},
			{
				"x": 1.8455829476,
				"y": 1.0149924989,
				"z": -0.8490022919,
				"element": "H" 
			},
			{
				"x": -1.4392371859,
				"y": -0.9424085223,
				"z": -2.1242322467,
				"element": "H" 
			},
			{
				"x": -1.0258065617,
				"y": -3.3111261595,
				"z": 1.3053281209,
				"element": "H" 
			},
			{
				"x": 1.124516102,
				"y": 1.7033088749,
				"z": 1.0836944152,
				"element": "H" 
			},
			{
				"x": 1.4030860383,
				"y": -0.8492555845,
				"z": 4.4958915718,
				"element": "H" 
			},
			{
				"x": 0.1233274487,
				"y": -2.6316864424,
				"z": 3.3028860079,
				"element": "H" 
			}
		],
		 "valence_orbital": [ 
			{
				"type": "occ",
				"energy": -0.30597,
				"method": "rhf"
			},
			{
				"type": "occ",
				"energy": -0.30402,
				"method": "rhf"
			},
			{
				"type": "occ",
				"energy": -0.28991,
				"method": "rhf"
			},
			{
				"type": "occ",
				"energy": -0.28404,
				"method": "rhf"
			},
			{
				"type": "occ",
				"energy": -0.26205,
				"method": "rhf"
			},
			{
				"type": "unocc",
				"energy": -0.10734,
				"method": "rhf"
			},
			{
				"type": "unocc",
				"energy": -0.09951,
				"method": "rhf"
			},
			{
				"type": "unocc",
				"energy": -0.04842,
				"method": "rhf"
			},
			{
				"type": "unocc",
				"energy": -0.02467,
				"method": "rhf"
			},
			{
				"type": "unocc",
				"energy": 0.01098,
				"method": "rhf"
			}
		],
		"cosmo_sigma_profile": { 
			"-0.025": 0.0,
			"-0.024": 0.0,
			"-0.023": 0.0,
			"-0.022": 0.0,
			"-0.021": 0.0,
			"-0.02": 0.0453326978365,
			"-0.019": 0.735171339904,
			"-0.018": 1.10516001809,
			"-0.017": 0.980571358585,
			"-0.016": 2.38359688769,
			"-0.015": 2.63549036651,
			"-0.014": 2.89805391615,
			"-0.013": 2.03030841091,
			"-0.012": 2.02948148126,
			"-0.011": 1.99822012271,
			"-0.01": 2.79343942071,
			"-0.009": 3.58626060772,
			"-0.008": 7.57828791718,
			"-0.007": 7.56154740827,
			"-0.006": 10.304594104,
			"-0.005": 11.9205954719,
			"-0.004": 12.8812099802,
			"-0.003": 17.5841901274,
			"-0.002": 21.1440865568,
			"-0.001": 15.9576504711,
			"0.0": 10.2390090017,
			"0.001": 8.08438213605,
			"0.002": 6.2582695297,
			"0.003": 5.60718810075,
			"0.004": 4.81535941759,
			"0.005": 6.90925435032,
			"0.006": 6.59366918329,
			"0.007": 12.2069616651,
			"0.008": 12.1631954611,
			"0.009": 9.93906649788,
			"0.01": 9.23591338481,
			"0.011": 6.42519985555,
			"0.012": 5.78391085601,
			"0.013": 4.13862100442,
			"0.014": 0.411671477814,
			"0.015": 0.0,
			"0.016": 0.0,
			"0.017": 0.0,
			"0.018": 0.0,
			"0.019": 0.0,
			"0.02": 0.0,
			"0.021": 0.0,
			"0.022": 0.0,
			"0.023": 0.0,
			"0.024": 0.0,
			"0.025": 0.0
		}
	}
}
