{
	 "smiles": "CN1CCN(CC1)C1=NC=CC(CN)=C1", 
	 "Tm": 346.15, 
	 "num_atms": 33, 
	 "gaussian": { 
		 "optdone": 1, 
		 "sigma_profile": "yes", 
		 "theory": "DFT", 
		 "functional": "B3LYP", 
		 "basiset": "6-31G**", 
		 "properties": { 
			 "R2extent": 4758.7147, 
			 "electric_dipole_moment_norm": 1.07835748247, 
			 "electric_quadrupole_moment_norm": 7.9958960461, 
			 "total_energy": -649.008009834, 
			 "HOMO_LUMO_gap": 0.17953, 
			 "cosmo_polarized_energy": -11.69, 
			 "cosmo_cavitation_energy": 33.66, 
			 "cosmo_dispersion_energy": -24.63, 
			 "cosmo_repulsion_energy": 1.94, 
			 "cosmo_total_nonelectrostatic_energy": 10.97, 
			 "SMD_solvation_energy": -0.61 
		},
		"coords": [
			{
				"x": 1.7841716447,
				"y": 3.0354601221,
				"z": 1.0751632677,
				"element": "C" 
			},
			{
				"x": 0.9824757242,
				"y": 2.1441964224,
				"z": 1.906228447,
				"element": "N" 
			},
			{
				"x": -0.3226158183,
				"y": 1.8107001838,
				"z": 1.3444010641,
				"element": "C" 
			},
			{
				"x": -0.2888160622,
				"y": 0.7841969937,
				"z": 0.1950509418,
				"element": "C" 
			},
			{
				"x": 0.4578869047,
				"y": -0.4052039557,
				"z": 0.5956043369,
				"element": "N" 
			},
			{
				"x": 1.7786772438,
				"y": -0.1285192371,
				"z": 1.1768088862,
				"element": "C" 
			},
			{
				"x": 1.6660540679,
				"y": 0.9098699245,
				"z": 2.2996678618,
				"element": "C" 
			},
			{
				"x": 0.2470966117,
				"y": -1.6280139856,
				"z": -0.0301307738,
				"element": "C" 
			},
			{
				"x": 1.0953642083,
				"y": -2.6212040977,
				"z": 0.3002065623,
				"element": "N" 
			},
			{
				"x": 0.9021301773,
				"y": -3.8286665724,
				"z": -0.2362190271,
				"element": "C" 
			},
			{
				"x": -0.121421439,
				"y": -4.1382533156,
				"z": -1.1243853858,
				"element": "C" 
			},
			{
				"x": -1.0015155187,
				"y": -3.1103870762,
				"z": -1.4954220161,
				"element": "C" 
			},
			{
				"x": -2.1689457201,
				"y": -3.3809961937,
				"z": -2.4286770255,
				"element": "C" 
			},
			{
				"x": -3.3622275594,
				"y": -3.9497326296,
				"z": -1.7812922681,
				"element": "N" 
			},
			{
				"x": -0.8076929969,
				"y": -1.8438544013,
				"z": -0.9508050158,
				"element": "C" 
			},
			{
				"x": 2.7018468477,
				"y": 3.2967490694,
				"z": 1.6128035142,
				"element": "H" 
			},
			{
				"x": 1.2255156352,
				"y": 3.9611619767,
				"z": 0.8996416185,
				"element": "H" 
			},
			{
				"x": 2.0795215289,
				"y": 2.6327138235,
				"z": 0.0903911665,
				"element": "H" 
			},
			{
				"x": -0.8113990793,
				"y": 2.7272980267,
				"z": 0.9952408148,
				"element": "H" 
			},
			{
				"x": -0.9382724376,
				"y": 1.393599225,
				"z": 2.1523390796,
				"element": "H" 
			},
			{
				"x": -1.3211350829,
				"y": 0.5105349536,
				"z": -0.0330255253,
				"element": "H" 
			},
			{
				"x": 0.1397445992,
				"y": 1.2338378711,
				"z": -0.7176609789,
				"element": "H" 
			},
			{
				"x": 2.4675452283,
				"y": 0.2282550527,
				"z": 0.3922550809,
				"element": "H" 
			},
			{
				"x": 2.1820179121,
				"y": -1.0659554505,
				"z": 1.556868357,
				"element": "H" 
			},
			{
				"x": 1.1043876256,
				"y": 0.4667850157,
				"z": 3.1325743652,
				"element": "H" 
			},
			{
				"x": 2.6669560408,
				"y": 1.1575869284,
				"z": 2.6704758217,
				"element": "H" 
			},
			{
				"x": 1.6196312942,
				"y": -4.5933301394,
				"z": 0.0605183011,
				"element": "H" 
			},
			{
				"x": -0.2185522077,
				"y": -5.1401871068,
				"z": -1.5324183748,
				"element": "H" 
			},
			{
				"x": -2.4681221924,
				"y": -2.4508831411,
				"z": -2.9249770242,
				"element": "H" 
			},
			{
				"x": -1.8568878599,
				"y": -4.075083192,
				"z": -3.217315758,
				"element": "H" 
			},
			{
				"x": -3.6578516947,
				"y": -3.3322456483,
				"z": -1.0272963851,
				"element": "H" 
			},
			{
				"x": -3.1127316043,
				"y": -4.8285420237,
				"z": -1.3314559113,
				"element": "H" 
			},
			{
				"x": -1.4607360213,
				"y": -1.0361874227,
				"z": -1.2599580174,
				"element": "H" 
			}
		],
		 "valence_orbital": [ 
			{
				"type": "occ",
				"energy": -0.27219,
				"method": "rhf"
			},
			{
				"type": "occ",
				"energy": -0.24871,
				"method": "rhf"
			},
			{
				"type": "occ",
				"energy": -0.23486,
				"method": "rhf"
			},
			{
				"type": "occ",
				"energy": -0.21408,
				"method": "rhf"
			},
			{
				"type": "occ",
				"energy": -0.19207,
				"method": "rhf"
			},
			{
				"type": "unocc",
				"energy": -0.01254,
				"method": "rhf"
			},
			{
				"type": "unocc",
				"energy": 0.0099,
				"method": "rhf"
			},
			{
				"type": "unocc",
				"energy": 0.07903,
				"method": "rhf"
			},
			{
				"type": "unocc",
				"energy": 0.08836,
				"method": "rhf"
			},
			{
				"type": "unocc",
				"energy": 0.10933,
				"method": "rhf"
			}
		],
		"cosmo_sigma_profile": { 
			"-0.025": 0.0,
			"-0.024": 0.0,
			"-0.023": 0.0,
			"-0.022": 0.0,
			"-0.021": 0.0,
			"-0.02": 0.0,
			"-0.019": 0.0,
			"-0.018": 0.0,
			"-0.017": 0.0,
			"-0.016": 0.0,
			"-0.015": 0.0,
			"-0.014": 0.0,
			"-0.013": 0.0,
			"-0.012": 0.0,
			"-0.011": 0.0,
			"-0.01": 0.365988630493,
			"-0.009": 2.43706816169,
			"-0.008": 2.47266498609,
			"-0.007": 4.20405511275,
			"-0.006": 7.17670638154,
			"-0.005": 13.9063312704,
			"-0.004": 23.9520164154,
			"-0.003": 37.8970749285,
			"-0.002": 35.6992366531,
			"-0.001": 27.1658715875,
			"0.0": 20.5930978258,
			"0.001": 10.8580260343,
			"0.002": 9.54908776629,
			"0.003": 9.44989275908,
			"0.004": 14.3390964014,
			"0.005": 10.2982830147,
			"0.006": 4.73751599316,
			"0.007": 4.36630603656,
			"0.008": 3.97169716606,
			"0.009": 3.06336582079,
			"0.01": 3.29866853974,
			"0.011": 2.52858657704,
			"0.012": 2.88208964707,
			"0.013": 1.70724959619,
			"0.014": 1.02944938585,
			"0.015": 1.30093456312,
			"0.016": 0.823400535553,
			"0.017": 0.972738641824,
			"0.018": 0.71493617801,
			"0.019": 0.505092288532,
			"0.02": 0.247330588462,
			"0.021": 0.0,
			"0.022": 0.0,
			"0.023": 0.0,
			"0.024": 0.0,
			"0.025": 0.0
		}
	}
}
