{
	 "smiles": "CCC(CC)N1N=C(C=C1C)C(O)=O", 
	 "Tm": 384.15, 
	 "num_atms": 30, 
	 "gaussian": { 
		 "optdone": 1, 
		 "sigma_profile": "yes", 
		 "theory": "DFT", 
		 "functional": "B3LYP", 
		 "basiset": "6-31G**", 
		 "properties": { 
			 "R2extent": 3503.7477, 
			 "electric_dipole_moment_norm": 7.31359448356, 
			 "electric_quadrupole_moment_norm": 20.083506412, 
			 "total_energy": -650.678677057, 
			 "HOMO_LUMO_gap": 0.22841, 
			 "cosmo_polarized_energy": -13.95, 
			 "cosmo_cavitation_energy": 32.54, 
			 "cosmo_dispersion_energy": -21.98, 
			 "cosmo_repulsion_energy": 1.76, 
			 "cosmo_total_nonelectrostatic_energy": 12.32, 
			 "SMD_solvation_energy": 6.79 
		},
		"coords": [
			{
				"x": 0.7442269988,
				"y": -0.251051947,
				"z": -2.7205828542,
				"element": "C" 
			},
			{
				"x": 1.2300739181,
				"y": -1.3189229551,
				"z": -1.7362576264,
				"element": "C" 
			},
			{
				"x": 0.3537756426,
				"y": -1.4483004529,
				"z": -0.4809693773,
				"element": "C" 
			},
			{
				"x": 0.697406259,
				"y": -2.6687779758,
				"z": 0.4036392092,
				"element": "C" 
			},
			{
				"x": 2.1367221953,
				"y": -2.7405641739,
				"z": 0.9242982399,
				"element": "C" 
			},
			{
				"x": 0.3611871427,
				"y": -0.1971825417,
				"z": 0.2998745174,
				"element": "N" 
			},
			{
				"x": 1.5138379241,
				"y": 0.4591618634,
				"z": 0.5285804911,
				"element": "N" 
			},
			{
				"x": 1.1797467395,
				"y": 1.5005761886,
				"z": 1.2993666335,
				"element": "C" 
			},
			{
				"x": -0.2002885144,
				"y": 1.5152071344,
				"z": 1.575488403,
				"element": "C" 
			},
			{
				"x": -0.7063481804,
				"y": 0.407158128,
				"z": 0.9195752642,
				"element": "C" 
			},
			{
				"x": -2.1103023383,
				"y": -0.1038744274,
				"z": 0.8338178006,
				"element": "C" 
			},
			{
				"x": 2.2241677737,
				"y": 2.4577466453,
				"z": 1.7397919228,
				"element": "C" 
			},
			{
				"x": 3.4687900575,
				"y": 2.1683796886,
				"z": 1.2929327737,
				"element": "O" 
			},
			{
				"x": 2.0003589339,
				"y": 3.4193920043,
				"z": 2.4385889055,
				"element": "O" 
			},
			{
				"x": 0.7659890832,
				"y": 0.7439204417,
				"z": -2.2668466067,
				"element": "H" 
			},
			{
				"x": 1.382165887,
				"y": -0.2252455944,
				"z": -3.6091649155,
				"element": "H" 
			},
			{
				"x": -0.2808914346,
				"y": -0.4499277253,
				"z": -3.0543795765,
				"element": "H" 
			},
			{
				"x": 1.2384137724,
				"y": -2.3008596189,
				"z": -2.2252058386,
				"element": "H" 
			},
			{
				"x": 2.2595013329,
				"y": -1.1051184538,
				"z": -1.4363864137,
				"element": "H" 
			},
			{
				"x": -0.6849511939,
				"y": -1.5679171921,
				"z": -0.8082298931,
				"element": "H" 
			},
			{
				"x": 0.0019547455,
				"y": -2.6791436337,
				"z": 1.2521281014,
				"element": "H" 
			},
			{
				"x": 0.4724726982,
				"y": -3.5662036053,
				"z": -0.1869363319,
				"element": "H" 
			},
			{
				"x": 2.2571649513,
				"y": -3.6116651791,
				"z": 1.5757901762,
				"element": "H" 
			},
			{
				"x": 2.3987531693,
				"y": -1.8481647076,
				"z": 1.4980952736,
				"element": "H" 
			},
			{
				"x": 2.8592662141,
				"y": -2.8378160011,
				"z": 0.1083273517,
				"element": "H" 
			},
			{
				"x": -0.7416787585,
				"y": 2.2395489133,
				"z": 2.1640399715,
				"element": "H" 
			},
			{
				"x": -2.4836554464,
				"y": -0.1120654037,
				"z": -0.1967188294,
				"element": "H" 
			},
			{
				"x": -2.7664517031,
				"y": 0.54417971,
				"z": 1.4183147671,
				"element": "H" 
			},
			{
				"x": -2.2070792756,
				"y": -1.1208969832,
				"z": 1.2299927027,
				"element": "H" 
			},
			{
				"x": 3.4091714059,
				"y": 1.3604278544,
				"z": 0.7525357582,
				"element": "H" 
			}
		],
		 "valence_orbital": [ 
			{
				"type": "occ",
				"energy": -0.31048,
				"method": "rhf"
			},
			{
				"type": "occ",
				"energy": -0.29983,
				"method": "rhf"
			},
			{
				"type": "occ",
				"energy": -0.26017,
				"method": "rhf"
			},
			{
				"type": "occ",
				"energy": -0.25904,
				"method": "rhf"
			},
			{
				"type": "occ",
				"energy": -0.25484,
				"method": "rhf"
			},
			{
				"type": "unocc",
				"energy": -0.02643,
				"method": "rhf"
			},
			{
				"type": "unocc",
				"energy": 0.0221,
				"method": "rhf"
			},
			{
				"type": "unocc",
				"energy": 0.06111,
				"method": "rhf"
			},
			{
				"type": "unocc",
				"energy": 0.08506,
				"method": "rhf"
			},
			{
				"type": "unocc",
				"energy": 0.09864,
				"method": "rhf"
			}
		],
		"cosmo_sigma_profile": { 
			"-0.025": 0.0,
			"-0.024": 0.0,
			"-0.023": 0.0,
			"-0.022": 0.0,
			"-0.021": 0.0,
			"-0.02": 0.0,
			"-0.019": 0.0,
			"-0.018": 0.0,
			"-0.017": 0.0,
			"-0.016": 0.0,
			"-0.015": 0.0,
			"-0.014": 0.403836432266,
			"-0.013": 0.497884394781,
			"-0.012": 0.277250435664,
			"-0.011": 0.51593786189,
			"-0.01": 0.975414529059,
			"-0.009": 0.58930073752,
			"-0.008": 0.605815492834,
			"-0.007": 2.25312076957,
			"-0.006": 6.96289953436,
			"-0.005": 16.0572869781,
			"-0.004": 19.2326944135,
			"-0.003": 26.0255711268,
			"-0.002": 30.7985797727,
			"-0.001": 32.4439967033,
			"0.0": 28.1788766194,
			"0.001": 24.4287611265,
			"0.002": 13.7168728024,
			"0.003": 9.63079929722,
			"0.004": 6.70908133581,
			"0.005": 3.68924701819,
			"0.006": 3.66010777688,
			"0.007": 2.20184150779,
			"0.008": 2.56992532519,
			"0.009": 3.54184928641,
			"0.01": 4.3894588712,
			"0.011": 5.60757336877,
			"0.012": 5.83125607475,
			"0.013": 2.7283907474,
			"0.014": 0.280596616805,
			"0.015": 0.0,
			"0.016": 0.0,
			"0.017": 0.0,
			"0.018": 0.0,
			"0.019": 0.0,
			"0.02": 0.0,
			"0.021": 0.0,
			"0.022": 0.0,
			"0.023": 0.0,
			"0.024": 0.0,
			"0.025": 0.0
		}
	}
}
