{
	 "smiles": "COC1=CC=C(C=C1)N(C)C(Cl)=S", 
	 "Tm": 344.15, 
	 "num_atms": 23, 
	 "gaussian": { 
		 "optdone": 1, 
		 "sigma_profile": "yes", 
		 "theory": "DFT", 
		 "functional": "B3LYP", 
		 "basiset": "6-31G**", 
		 "properties": { 
			 "R2extent": 5195.1646, 
			 "electric_dipole_moment_norm": 5.63151922398, 
			 "electric_quadrupole_moment_norm": 26.4368574955, 
			 "total_energy": -1337.31630195, 
			 "HOMO_LUMO_gap": 0.17438, 
			 "cosmo_polarized_energy": -12.89, 
			 "cosmo_cavitation_energy": 30.55, 
			 "cosmo_dispersion_energy": -21.98, 
			 "cosmo_repulsion_energy": 1.72, 
			 "cosmo_total_nonelectrostatic_energy": 10.29, 
			 "SMD_solvation_energy": 5.39 
		},
		"coords": [
			{
				"x": 1.2689581742,
				"y": -4.4736778033,
				"z": -1.392940766,
				"element": "C" 
			},
			{
				"x": 1.464815188,
				"y": -3.2700790438,
				"z": -0.6651135993,
				"element": "O" 
			},
			{
				"x": 0.5031490439,
				"y": -2.3086788895,
				"z": -0.7321745106,
				"element": "C" 
			},
			{
				"x": -0.6667484843,
				"y": -2.4045016048,
				"z": -1.4967531469,
				"element": "C" 
			},
			{
				"x": -1.5843557584,
				"y": -1.3520082148,
				"z": -1.4897216184,
				"element": "C" 
			},
			{
				"x": -1.3439680079,
				"y": -0.2122576394,
				"z": -0.7273528692,
				"element": "C" 
			},
			{
				"x": -0.1746541112,
				"y": -0.1152873374,
				"z": 0.035089151,
				"element": "C" 
			},
			{
				"x": 0.7434082911,
				"y": -1.1557973543,
				"z": 0.0328309629,
				"element": "C" 
			},
			{
				"x": -2.2684517736,
				"y": 0.898489156,
				"z": -0.7748979734,
				"element": "N" 
			},
			{
				"x": -2.0155333583,
				"y": 1.923109,
				"z": -1.8043784747,
				"element": "C" 
			},
			{
				"x": -3.2907030813,
				"y": 0.9416347596,
				"z": 0.1094194757,
				"element": "C" 
			},
			{
				"x": -4.3211182709,
				"y": 2.4038356875,
				"z": -0.1265661055,
				"element": "Cl" 
			},
			{
				"x": -3.6536146682,
				"y": -0.1370527758,
				"z": 1.2922565581,
				"element": "S" 
			},
			{
				"x": 1.207888358,
				"y": -4.288064021,
				"z": -2.4729694643,
				"element": "H" 
			},
			{
				"x": 0.3633569682,
				"y": -5.0000880599,
				"z": -1.0662309292,
				"element": "H" 
			},
			{
				"x": 2.140733402,
				"y": -5.0955100114,
				"z": -1.1851153586,
				"element": "H" 
			},
			{
				"x": -0.8752206434,
				"y": -3.2845381445,
				"z": -2.0927114213,
				"element": "H" 
			},
			{
				"x": -2.4970032197,
				"y": -1.4252684755,
				"z": -2.0727244588,
				"element": "H" 
			},
			{
				"x": 0.0043763032,
				"y": 0.7715337773,
				"z": 0.6347314624,
				"element": "H" 
			},
			{
				"x": 1.6542064589,
				"y": -1.1039745957,
				"z": 0.6196437772,
				"element": "H" 
			},
			{
				"x": -1.8433979422,
				"y": 2.9031820225,
				"z": -1.3520601387,
				"element": "H" 
			},
			{
				"x": -2.8564902875,
				"y": 2.0009910316,
				"z": -2.4984698428,
				"element": "H" 
			},
			{
				"x": -1.1249325805,
				"y": 1.6194085364,
				"z": -2.3525907096,
				"element": "H" 
			}
		],
		 "valence_orbital": [ 
			{
				"type": "occ",
				"energy": -0.30631,
				"method": "rhf"
			},
			{
				"type": "occ",
				"energy": -0.26629,
				"method": "rhf"
			},
			{
				"type": "occ",
				"energy": -0.23762,
				"method": "rhf"
			},
			{
				"type": "occ",
				"energy": -0.23246,
				"method": "rhf"
			},
			{
				"type": "occ",
				"energy": -0.21161,
				"method": "rhf"
			},
			{
				"type": "unocc",
				"energy": -0.03723,
				"method": "rhf"
			},
			{
				"type": "unocc",
				"energy": -0.01645,
				"method": "rhf"
			},
			{
				"type": "unocc",
				"energy": -0.01224,
				"method": "rhf"
			},
			{
				"type": "unocc",
				"energy": 0.01772,
				"method": "rhf"
			},
			{
				"type": "unocc",
				"energy": 0.07804,
				"method": "rhf"
			}
		],
		"cosmo_sigma_profile": { 
			"-0.025": 0.0,
			"-0.024": 0.0,
			"-0.023": 0.0,
			"-0.022": 0.0,
			"-0.021": 0.0,
			"-0.02": 0.0,
			"-0.019": 0.0,
			"-0.018": 0.0,
			"-0.017": 0.0,
			"-0.016": 0.0,
			"-0.015": 0.0,
			"-0.014": 0.0,
			"-0.013": 0.0,
			"-0.012": 0.0,
			"-0.011": 0.0,
			"-0.01": 0.0,
			"-0.009": 0.0,
			"-0.008": 0.125621847958,
			"-0.007": 7.56821633463,
			"-0.006": 20.0422775724,
			"-0.005": 25.4692361514,
			"-0.004": 25.9788419221,
			"-0.003": 22.4104358613,
			"-0.002": 12.9933172968,
			"-0.001": 11.2768436329,
			"0.0": 10.8408274183,
			"0.001": 11.9620535775,
			"0.002": 16.2959564638,
			"0.003": 18.3544530368,
			"0.004": 15.4534915014,
			"0.005": 10.7729409381,
			"0.006": 9.58059542957,
			"0.007": 9.95240337501,
			"0.008": 8.66938161379,
			"0.009": 6.43817183908,
			"0.01": 3.73457463084,
			"0.011": 0.289508027257,
			"0.012": 0.0,
			"0.013": 0.0,
			"0.014": 0.0,
			"0.015": 0.0,
			"0.016": 0.0,
			"0.017": 0.0,
			"0.018": 0.0,
			"0.019": 0.0,
			"0.02": 0.0,
			"0.021": 0.0,
			"0.022": 0.0,
			"0.023": 0.0,
			"0.024": 0.0,
			"0.025": 0.0
		}
	}
}
