{
	 "smiles": "CCOC(=O)C(=O)C1=C(N=C2C=CC=CN12)C1=CC=C(C)C=C1", 
	 "Tm": 390.15, 
	 "num_atms": 39, 
	 "gaussian": { 
		 "optdone": 1, 
		 "sigma_profile": "yes", 
		 "theory": "DFT", 
		 "functional": "B3LYP", 
		 "basiset": "6-31G**", 
		 "properties": { 
			 "R2extent": 7991.675, 
			 "electric_dipole_moment_norm": 2.93694276757, 
			 "electric_quadrupole_moment_norm": 22.7787764322, 
			 "total_energy": -1030.7486759, 
			 "HOMO_LUMO_gap": 0.16056, 
			 "cosmo_polarized_energy": -14.89, 
			 "cosmo_cavitation_energy": 43.18, 
			 "cosmo_dispersion_energy": -29.25, 
			 "cosmo_repulsion_energy": 2.21, 
			 "cosmo_total_nonelectrostatic_energy": 16.13, 
			 "SMD_solvation_energy": 7.08 
		},
		"coords": [
			{
				"x": 2.3637235403,
				"y": 1.0410056885,
				"z": -1.7811256856,
				"element": "C" 
			},
			{
				"x": 1.476386159,
				"y": 2.2732931148,
				"z": -1.8323733334,
				"element": "C" 
			},
			{
				"x": 0.3479988805,
				"y": 2.1467420746,
				"z": -0.9227490829,
				"element": "O" 
			},
			{
				"x": -0.7924408783,
				"y": 1.6504570358,
				"z": -1.4301916258,
				"element": "C" 
			},
			{
				"x": -0.9556983959,
				"y": 1.2525776975,
				"z": -2.5607408499,
				"element": "O" 
			},
			{
				"x": -1.9300994271,
				"y": 1.8165834983,
				"z": -0.407315192,
				"element": "C" 
			},
			{
				"x": -2.7728668952,
				"y": 2.6710428111,
				"z": -0.6889216237,
				"element": "O" 
			},
			{
				"x": -1.925163993,
				"y": 1.0671755965,
				"z": 0.825870225,
				"element": "C" 
			},
			{
				"x": -1.1625958415,
				"y": -0.0193231882,
				"z": 1.3209839443,
				"element": "C" 
			},
			{
				"x": -1.4146183948,
				"y": -0.242773364,
				"z": 2.6302001591,
				"element": "N" 
			},
			{
				"x": -2.343946432,
				"y": 0.6529516156,
				"z": 2.9902464708,
				"element": "C" 
			},
			{
				"x": -2.9587992051,
				"y": 0.8533242166,
				"z": 4.2418510189,
				"element": "C" 
			},
			{
				"x": -3.9065828403,
				"y": 1.8439436659,
				"z": 4.3726800294,
				"element": "C" 
			},
			{
				"x": -4.2562644546,
				"y": 2.6480778858,
				"z": 3.2590027249,
				"element": "C" 
			},
			{
				"x": -3.6598641119,
				"y": 2.4513286785,
				"z": 2.0397725485,
				"element": "C" 
			},
			{
				"x": -2.7134665638,
				"y": 1.4652533976,
				"z": 1.9171351296,
				"element": "N" 
			},
			{
				"x": -0.2453547841,
				"y": -0.9162159868,
				"z": 0.5988836911,
				"element": "C" 
			},
			{
				"x": -0.5181863101,
				"y": -1.3712239712,
				"z": -0.6990782959,
				"element": "C" 
			},
			{
				"x": 0.3379461625,
				"y": -2.2773943066,
				"z": -1.3257001388,
				"element": "C" 
			},
			{
				"x": 1.4816413987,
				"y": -2.7613853509,
				"z": -0.6803068014,
				"element": "C" 
			},
			{
				"x": 2.3928220482,
				"y": -3.7638022624,
				"z": -1.3473343784,
				"element": "C" 
			},
			{
				"x": 1.7433361464,
				"y": -2.3094950361,
				"z": 0.6237314179,
				"element": "C" 
			},
			{
				"x": 0.8930288496,
				"y": -1.4121101263,
				"z": 1.2585311204,
				"element": "C" 
			},
			{
				"x": 2.6963508133,
				"y": 0.8405669948,
				"z": -0.7590718808,
				"element": "H" 
			},
			{
				"x": 1.8305406741,
				"y": 0.1623386619,
				"z": -2.1499738543,
				"element": "H" 
			},
			{
				"x": 3.2473550858,
				"y": 1.2006703973,
				"z": -2.4085470403,
				"element": "H" 
			},
			{
				"x": 2.0030537447,
				"y": 3.1644723231,
				"z": -1.4830167835,
				"element": "H" 
			},
			{
				"x": 1.0910529267,
				"y": 2.4481233538,
				"z": -2.8392850766,
				"element": "H" 
			},
			{
				"x": -2.6608136379,
				"y": 0.2140285787,
				"z": 5.0641966328,
				"element": "H" 
			},
			{
				"x": -4.3922975768,
				"y": 2.0098062338,
				"z": 5.3288295978,
				"element": "H" 
			},
			{
				"x": -5.0061618493,
				"y": 3.425077045,
				"z": 3.3510167009,
				"element": "H" 
			},
			{
				"x": -3.8729493259,
				"y": 3.0083607074,
				"z": 1.1393078628,
				"element": "H" 
			},
			{
				"x": -1.4088388478,
				"y": -1.0357250476,
				"z": -1.2188307449,
				"element": "H" 
			},
			{
				"x": 0.1032558132,
				"y": -2.6204982593,
				"z": -2.3299549684,
				"element": "H" 
			},
			{
				"x": 3.4470234149,
				"y": -3.5113244129,
				"z": -1.1921957909,
				"element": "H" 
			},
			{
				"x": 2.2399544318,
				"y": -4.7701136517,
				"z": -0.9379584709,
				"element": "H" 
			},
			{
				"x": 2.2114747827,
				"y": -3.8159168645,
				"z": -2.424412711,
				"element": "H" 
			},
			{
				"x": 2.6239268634,
				"y": -2.6731198831,
				"z": 1.1480475763,
				"element": "H" 
			},
			{
				"x": 1.0943380293,
				"y": -1.0839795612,
				"z": 2.2727974787,
				"element": "H" 
			}
		],
		 "valence_orbital": [ 
			{
				"type": "occ",
				"energy": -0.27305,
				"method": "rhf"
			},
			{
				"type": "occ",
				"energy": -0.25215,
				"method": "rhf"
			},
			{
				"type": "occ",
				"energy": -0.24637,
				"method": "rhf"
			},
			{
				"type": "occ",
				"energy": -0.23127,
				"method": "rhf"
			},
			{
				"type": "occ",
				"energy": -0.22581,
				"method": "rhf"
			},
			{
				"type": "unocc",
				"energy": -0.06525,
				"method": "rhf"
			},
			{
				"type": "unocc",
				"energy": -0.04655,
				"method": "rhf"
			},
			{
				"type": "unocc",
				"energy": -0.01063,
				"method": "rhf"
			},
			{
				"type": "unocc",
				"energy": -0.00014,
				"method": "rhf"
			},
			{
				"type": "unocc",
				"energy": 0.00453,
				"method": "rhf"
			}
		],
		"cosmo_sigma_profile": { 
			"-0.025": 0.0,
			"-0.024": 0.0,
			"-0.023": 0.0,
			"-0.022": 0.0,
			"-0.021": 0.0,
			"-0.02": 0.0,
			"-0.019": 0.0,
			"-0.018": 0.0,
			"-0.017": 0.0,
			"-0.016": 0.0,
			"-0.015": 0.0,
			"-0.014": 0.0,
			"-0.013": 0.0,
			"-0.012": 0.0,
			"-0.011": 0.0,
			"-0.01": 0.0,
			"-0.009": 0.0170809519699,
			"-0.008": 3.97513065892,
			"-0.007": 8.65681400984,
			"-0.006": 14.7899383726,
			"-0.005": 21.3093656733,
			"-0.004": 32.3523452148,
			"-0.003": 29.5530787069,
			"-0.002": 32.0757136678,
			"-0.001": 32.8059758473,
			"0.0": 33.2098637974,
			"0.001": 29.5926293344,
			"0.002": 27.856399799,
			"0.003": 17.5110228618,
			"0.004": 12.21684036,
			"0.005": 8.42105082796,
			"0.006": 5.80274482948,
			"0.007": 5.36055265343,
			"0.008": 5.67997371772,
			"0.009": 4.81147936387,
			"0.01": 6.85689688807,
			"0.011": 7.05478278754,
			"0.012": 2.751307963,
			"0.013": 0.978241767775,
			"0.014": 0.909463029117,
			"0.015": 0.516527980695,
			"0.016": 0.176522060374,
			"0.017": 0.0,
			"0.018": 0.0,
			"0.019": 0.0,
			"0.02": 0.0,
			"0.021": 0.0,
			"0.022": 0.0,
			"0.023": 0.0,
			"0.024": 0.0,
			"0.025": 0.0
		}
	}
}
