{
	 "smiles": "COC(=O)C1=NN(C)C(C)=C1", 
	 "Tm": 366.15, 
	 "num_atms": 21, 
	 "gaussian": { 
		 "optdone": 1, 
		 "sigma_profile": "yes", 
		 "theory": "DFT", 
		 "functional": "B3LYP", 
		 "basiset": "6-31G**", 
		 "properties": { 
			 "R2extent": 2234.0745, 
			 "electric_dipole_moment_norm": 4.43968123856, 
			 "electric_quadrupole_moment_norm": 15.9385085507, 
			 "total_energy": -532.71491307, 
			 "HOMO_LUMO_gap": 0.22498, 
			 "cosmo_polarized_energy": -14.36, 
			 "cosmo_cavitation_energy": 25.49, 
			 "cosmo_dispersion_energy": -18.5, 
			 "cosmo_repulsion_energy": 1.51, 
			 "cosmo_total_nonelectrostatic_energy": 8.5, 
			 "SMD_solvation_energy": 5.34 
		},
		"coords": [
			{
				"x": 2.0032267009,
				"y": -1.7041318581,
				"z": 2.4787352264,
				"element": "C" 
			},
			{
				"x": 1.1023576975,
				"y": -0.9066982261,
				"z": 1.6993060219,
				"element": "O" 
			},
			{
				"x": 1.0878582942,
				"y": -1.1954090571,
				"z": 0.3705544901,
				"element": "C" 
			},
			{
				"x": 1.7762948413,
				"y": -2.056697113,
				"z": -0.1328548175,
				"element": "O" 
			},
			{
				"x": 0.1299177444,
				"y": -0.3190708506,
				"z": -0.3359094756,
				"element": "C" 
			},
			{
				"x": -0.0350348905,
				"y": -0.4434629237,
				"z": -1.6581704137,
				"element": "N" 
			},
			{
				"x": -0.9554890128,
				"y": 0.4821375648,
				"z": -1.972643419,
				"element": "N" 
			},
			{
				"x": -1.3787277937,
				"y": 0.6242243707,
				"z": -3.3543762604,
				"element": "C" 
			},
			{
				"x": -1.3897628335,
				"y": 1.2016703987,
				"z": -0.8875078423,
				"element": "C" 
			},
			{
				"x": -2.4129868717,
				"y": 2.2865742579,
				"z": -0.9931091208,
				"element": "C" 
			},
			{
				"x": -0.6968577518,
				"y": 0.6991583249,
				"z": 0.1964161558,
				"element": "C" 
			},
			{
				"x": 1.8963754971,
				"y": -1.3532180932,
				"z": 3.505449473,
				"element": "H" 
			},
			{
				"x": 1.7440947862,
				"y": -2.7639348972,
				"z": 2.4073840042,
				"element": "H" 
			},
			{
				"x": 3.032942356,
				"y": -1.5742038138,
				"z": 2.1348947386,
				"element": "H" 
			},
			{
				"x": -0.8240921675,
				"y": -0.1103975537,
				"z": -3.9361448523,
				"element": "H" 
			},
			{
				"x": -1.1578620104,
				"y": 1.6286413221,
				"z": -3.7292972805,
				"element": "H" 
			},
			{
				"x": -2.4520716687,
				"y": 0.4348050166,
				"z": -3.4556172567,
				"element": "H" 
			},
			{
				"x": -2.0845204555,
				"y": 3.0981561867,
				"z": -1.6534754619,
				"element": "H" 
			},
			{
				"x": -3.36822529,
				"y": 1.9138990906,
				"z": -1.3820534591,
				"element": "H" 
			},
			{
				"x": -2.6001057663,
				"y": 2.7155001108,
				"z": -0.0065933092,
				"element": "H" 
			},
			{
				"x": -0.7704314051,
				"y": 1.0148577427,
				"z": 1.2254128589,
				"element": "H" 
			}
		],
		 "valence_orbital": [ 
			{
				"type": "occ",
				"energy": -0.28938,
				"method": "rhf"
			},
			{
				"type": "occ",
				"energy": -0.28901,
				"method": "rhf"
			},
			{
				"type": "occ",
				"energy": -0.25952,
				"method": "rhf"
			},
			{
				"type": "occ",
				"energy": -0.25043,
				"method": "rhf"
			},
			{
				"type": "occ",
				"energy": -0.24182,
				"method": "rhf"
			},
			{
				"type": "unocc",
				"energy": -0.01684,
				"method": "rhf"
			},
			{
				"type": "unocc",
				"energy": 0.03057,
				"method": "rhf"
			},
			{
				"type": "unocc",
				"energy": 0.07812,
				"method": "rhf"
			},
			{
				"type": "unocc",
				"energy": 0.11022,
				"method": "rhf"
			},
			{
				"type": "unocc",
				"energy": 0.121,
				"method": "rhf"
			}
		],
		"cosmo_sigma_profile": { 
			"-0.025": 0.0,
			"-0.024": 0.0,
			"-0.023": 0.0,
			"-0.022": 0.0,
			"-0.021": 0.0,
			"-0.02": 0.0,
			"-0.019": 0.0,
			"-0.018": 0.0,
			"-0.017": 0.0,
			"-0.016": 0.0,
			"-0.015": 0.0,
			"-0.014": 0.0,
			"-0.013": 0.0,
			"-0.012": 0.0,
			"-0.011": 0.0,
			"-0.01": 0.0,
			"-0.009": 0.0,
			"-0.008": 0.0,
			"-0.007": 4.13637599409,
			"-0.006": 17.3518036282,
			"-0.005": 21.5748055515,
			"-0.004": 21.1890086127,
			"-0.003": 25.314486453,
			"-0.002": 16.5531658929,
			"-0.001": 13.7084717184,
			"0.0": 9.54492532462,
			"0.001": 7.08829456729,
			"0.002": 8.58224617568,
			"0.003": 10.6868448374,
			"0.004": 9.56106714609,
			"0.005": 4.04385128931,
			"0.006": 4.22726246231,
			"0.007": 4.2366008452,
			"0.008": 2.43310177491,
			"0.009": 2.32953981158,
			"0.01": 2.23888623703,
			"0.011": 3.75903041424,
			"0.012": 5.87233285413,
			"0.013": 3.03076433194,
			"0.014": 2.39114685336,
			"0.015": 1.63665406954,
			"0.016": 0.456640020605,
			"0.017": 0.0,
			"0.018": 0.0,
			"0.019": 0.0,
			"0.02": 0.0,
			"0.021": 0.0,
			"0.022": 0.0,
			"0.023": 0.0,
			"0.024": 0.0,
			"0.025": 0.0
		}
	}
}
