{
	 "smiles": "CN1N=C(C=C1N)C1=CC=CC=C1", 
	 "Tm": 407.15, 
	 "num_atms": 24, 
	 "gaussian": { 
		 "optdone": 1, 
		 "sigma_profile": "yes", 
		 "theory": "DFT", 
		 "functional": "B3LYP", 
		 "basiset": "6-31G**", 
		 "properties": { 
			 "R2extent": 3573.9228, 
			 "electric_dipole_moment_norm": 3.67855049986, 
			 "electric_quadrupole_moment_norm": 20.3231994602, 
			 "total_energy": -551.93423773, 
			 "HOMO_LUMO_gap": 0.19051, 
			 "cosmo_polarized_energy": -13.6, 
			 "cosmo_cavitation_energy": 27.8, 
			 "cosmo_dispersion_energy": -20.63, 
			 "cosmo_repulsion_energy": 1.63, 
			 "cosmo_total_nonelectrostatic_energy": 8.81, 
			 "SMD_solvation_energy": 4.04 
		},
		"coords": [
			{
				"x": 0.201883627,
				"y": 3.7801216985,
				"z": 3.1867432597,
				"element": "C" 
			},
			{
				"x": 0.1269453977,
				"y": 2.8618770327,
				"z": 2.0707962806,
				"element": "N" 
			},
			{
				"x": 0.5018156578,
				"y": 1.5677582991,
				"z": 2.2222346432,
				"element": "N" 
			},
			{
				"x": 0.3006727715,
				"y": 1.0019445929,
				"z": 1.0266159506,
				"element": "C" 
			},
			{
				"x": -0.1846015889,
				"y": 1.9511994057,
				"z": 0.0879807137,
				"element": "C" 
			},
			{
				"x": -0.2760120487,
				"y": 3.1366648505,
				"z": 0.7963917014,
				"element": "C" 
			},
			{
				"x": -0.7443629398,
				"y": 4.4129083948,
				"z": 0.451183355,
				"element": "N" 
			},
			{
				"x": 0.591228417,
				"y": -0.4266043117,
				"z": 0.8185357407,
				"element": "C" 
			},
			{
				"x": 0.2871118218,
				"y": -1.0608757556,
				"z": -0.3962520093,
				"element": "C" 
			},
			{
				"x": 0.5670901162,
				"y": -2.4139089124,
				"z": -0.5853913135,
				"element": "C" 
			},
			{
				"x": 1.154840483,
				"y": -3.1602432145,
				"z": 0.4370553761,
				"element": "C" 
			},
			{
				"x": 1.4595827292,
				"y": -2.5392268629,
				"z": 1.6516454459,
				"element": "C" 
			},
			{
				"x": 1.1826760442,
				"y": -1.188084454,
				"z": 1.8415320057,
				"element": "C" 
			},
			{
				"x": 1.1835010902,
				"y": 4.2655603697,
				"z": 3.2510555666,
				"element": "H" 
			},
			{
				"x": -0.5713754552,
				"y": 4.5432056268,
				"z": 3.0705942002,
				"element": "H" 
			},
			{
				"x": 0.0292122201,
				"y": 3.2153584725,
				"z": 4.1034543093,
				"element": "H" 
			},
			{
				"x": -0.4174642084,
				"y": 1.8083723497,
				"z": -0.9564382545,
				"element": "H" 
			},
			{
				"x": -1.1294192052,
				"y": 4.4218706029,
				"z": -0.4853612493,
				"element": "H" 
			},
			{
				"x": -0.0337438949,
				"y": 5.1352424577,
				"z": 0.5224420425,
				"element": "H" 
			},
			{
				"x": -0.1777363832,
				"y": -0.4958360148,
				"z": -1.1987677667,
				"element": "H" 
			},
			{
				"x": 0.322909602,
				"y": -2.8855803546,
				"z": -1.5333650855,
				"element": "H" 
			},
			{
				"x": 1.3726890142,
				"y": -4.2142886722,
				"z": 0.2901309062,
				"element": "H" 
			},
			{
				"x": 1.9170889921,
				"y": -3.111267355,
				"z": 2.4543889316,
				"element": "H" 
			},
			{
				"x": 1.4188677403,
				"y": -0.7010682459,
				"z": 2.7814952498,
				"element": "H" 
			}
		],
		 "valence_orbital": [ 
			{
				"type": "occ",
				"energy": -0.2749,
				"method": "rhf"
			},
			{
				"type": "occ",
				"energy": -0.26762,
				"method": "rhf"
			},
			{
				"type": "occ",
				"energy": -0.23765,
				"method": "rhf"
			},
			{
				"type": "occ",
				"energy": -0.21714,
				"method": "rhf"
			},
			{
				"type": "occ",
				"energy": -0.20015,
				"method": "rhf"
			},
			{
				"type": "unocc",
				"energy": -0.00964,
				"method": "rhf"
			},
			{
				"type": "unocc",
				"energy": 0.01226,
				"method": "rhf"
			},
			{
				"type": "unocc",
				"energy": 0.04562,
				"method": "rhf"
			},
			{
				"type": "unocc",
				"energy": 0.06769,
				"method": "rhf"
			},
			{
				"type": "unocc",
				"energy": 0.10102,
				"method": "rhf"
			}
		],
		"cosmo_sigma_profile": { 
			"-0.025": 0.0,
			"-0.024": 0.0,
			"-0.023": 0.0,
			"-0.022": 0.0,
			"-0.021": 0.0,
			"-0.02": 0.0,
			"-0.019": 0.0,
			"-0.018": 0.0,
			"-0.017": 0.0,
			"-0.016": 0.0,
			"-0.015": 0.0,
			"-0.014": 0.0,
			"-0.013": 1.39101509477,
			"-0.012": 2.74010853097,
			"-0.011": 3.20876015767,
			"-0.01": 3.57269919919,
			"-0.009": 2.37666830525,
			"-0.008": 2.15881038753,
			"-0.007": 4.18725561174,
			"-0.006": 10.0756312091,
			"-0.005": 17.7173766797,
			"-0.004": 17.6387399411,
			"-0.003": 20.2463201494,
			"-0.002": 13.6664915162,
			"-0.001": 10.6453261667,
			"0.0": 9.30318101306,
			"0.001": 8.84202926539,
			"0.002": 11.2341495351,
			"0.003": 11.3078474784,
			"0.004": 16.6195037204,
			"0.005": 19.1582110049,
			"0.006": 17.2675652178,
			"0.007": 4.11067758815,
			"0.008": 2.51457339475,
			"0.009": 2.87255370782,
			"0.01": 2.37758436634,
			"0.011": 1.73989831969,
			"0.012": 1.90788509762,
			"0.013": 1.16391131273,
			"0.014": 1.40961963965,
			"0.015": 0.0,
			"0.016": 0.0,
			"0.017": 0.0,
			"0.018": 0.0,
			"0.019": 0.0,
			"0.02": 0.0,
			"0.021": 0.0,
			"0.022": 0.0,
			"0.023": 0.0,
			"0.024": 0.0,
			"0.025": 0.0
		}
	}
}
