{
	 "smiles": "COC1=CC=C(C=CNC=O)C=C1", 
	 "Tm": 405.15, 
	 "num_atms": 24, 
	 "gaussian": { 
		 "optdone": 1, 
		 "sigma_profile": "yes", 
		 "theory": "DFT", 
		 "functional": "B3LYP", 
		 "basiset": "6-31G**", 
		 "properties": { 
			 "R2extent": 4440.2668, 
			 "electric_dipole_moment_norm": 4.14905205318, 
			 "electric_quadrupole_moment_norm": 24.8632287304, 
			 "total_energy": -592.871280598, 
			 "HOMO_LUMO_gap": 0.16619, 
			 "cosmo_polarized_energy": -14.0, 
			 "cosmo_cavitation_energy": 28.92, 
			 "cosmo_dispersion_energy": -21.05, 
			 "cosmo_repulsion_energy": 1.67, 
			 "cosmo_total_nonelectrostatic_energy": 9.54, 
			 "SMD_solvation_energy": 7.5 
		},
		"coords": [
			{
				"x": 2.3969753396,
				"y": -3.1293552822,
				"z": -2.8550811634,
				"element": "C" 
			},
			{
				"x": 2.0343522128,
				"y": -1.7586692712,
				"z": -2.9090104335,
				"element": "O" 
			},
			{
				"x": 1.5444527636,
				"y": -1.175875424,
				"z": -1.7775781177,
				"element": "C" 
			},
			{
				"x": 1.2157810622,
				"y": 0.1855657695,
				"z": -1.8853757591,
				"element": "C" 
			},
			{
				"x": 0.7165237346,
				"y": 0.8751008443,
				"z": -0.7922723687,
				"element": "C" 
			},
			{
				"x": 0.5071378565,
				"y": 0.2346577548,
				"z": 0.4479141168,
				"element": "C" 
			},
			{
				"x": -0.0526847357,
				"y": 0.9105321945,
				"z": 1.6208499447,
				"element": "C" 
			},
			{
				"x": -0.7186330162,
				"y": 2.0805239598,
				"z": 1.6103608541,
				"element": "C" 
			},
			{
				"x": -1.15552014,
				"y": 2.7672372096,
				"z": 2.7528367079,
				"element": "N" 
			},
			{
				"x": -0.5580980953,
				"y": 2.771348379,
				"z": 3.991395838,
				"element": "C" 
			},
			{
				"x": -1.0179733491,
				"y": 3.3430370925,
				"z": 4.9620879935,
				"element": "O" 
			},
			{
				"x": 0.8580967957,
				"y": -1.1211561707,
				"z": 0.5370296234,
				"element": "C" 
			},
			{
				"x": 1.3682646784,
				"y": -1.8284384972,
				"z": -0.5523250469,
				"element": "C" 
			},
			{
				"x": 3.1970860146,
				"y": -3.308267855,
				"z": -2.1252016535,
				"element": "H" 
			},
			{
				"x": 1.5378612347,
				"y": -3.7662863244,
				"z": -2.6078490474,
				"element": "H" 
			},
			{
				"x": 2.7577186681,
				"y": -3.3855102107,
				"z": -3.8523716698,
				"element": "H" 
			},
			{
				"x": 1.3790921932,
				"y": 0.6820490147,
				"z": -2.8364135099,
				"element": "H" 
			},
			{
				"x": 0.5046133234,
				"y": 1.9351431663,
				"z": -0.8959162228,
				"element": "H" 
			},
			{
				"x": 0.070224173,
				"y": 0.3908552016,
				"z": 2.5688692568,
				"element": "H" 
			},
			{
				"x": -0.9567124117,
				"y": 2.5863226106,
				"z": 0.6783703787,
				"element": "H" 
			},
			{
				"x": -1.9763203463,
				"y": 3.356322662,
				"z": 2.6817555237,
				"element": "H" 
			},
			{
				"x": 0.3957779925,
				"y": 2.2143959505,
				"z": 4.0004786532,
				"element": "H" 
			},
			{
				"x": 0.720250345,
				"y": -1.6424998467,
				"z": 1.4810608085,
				"element": "H" 
			},
			{
				"x": 1.6214337063,
				"y": -2.8753329279,
				"z": -0.4342147066,
				"element": "H" 
			}
		],
		 "valence_orbital": [ 
			{
				"type": "occ",
				"energy": -0.31436,
				"method": "rhf"
			},
			{
				"type": "occ",
				"energy": -0.26065,
				"method": "rhf"
			},
			{
				"type": "occ",
				"energy": -0.2569,
				"method": "rhf"
			},
			{
				"type": "occ",
				"energy": -0.25491,
				"method": "rhf"
			},
			{
				"type": "occ",
				"energy": -0.19933,
				"method": "rhf"
			},
			{
				"type": "unocc",
				"energy": -0.03314,
				"method": "rhf"
			},
			{
				"type": "unocc",
				"energy": -0.00604,
				"method": "rhf"
			},
			{
				"type": "unocc",
				"energy": 0.02424,
				"method": "rhf"
			},
			{
				"type": "unocc",
				"energy": 0.06502,
				"method": "rhf"
			},
			{
				"type": "unocc",
				"energy": 0.07833,
				"method": "rhf"
			}
		],
		"cosmo_sigma_profile": { 
			"-0.025": 0.0,
			"-0.024": 0.0,
			"-0.023": 0.0,
			"-0.022": 0.0,
			"-0.021": 0.0,
			"-0.02": 0.0,
			"-0.019": 0.0,
			"-0.018": 0.0,
			"-0.017": 0.0,
			"-0.016": 0.0,
			"-0.015": 1.03381379371,
			"-0.014": 1.21658247353,
			"-0.013": 1.14338986414,
			"-0.012": 1.19420940517,
			"-0.011": 0.665212830151,
			"-0.01": 1.05316328138,
			"-0.009": 1.45742350411,
			"-0.008": 2.71455511712,
			"-0.007": 7.8773333724,
			"-0.006": 16.0174213275,
			"-0.005": 21.5975642408,
			"-0.004": 18.4237416489,
			"-0.003": 18.9571370938,
			"-0.002": 12.0201870847,
			"-0.001": 13.2810497735,
			"0.0": 10.3975565006,
			"0.001": 11.4403032841,
			"0.002": 11.0513884025,
			"0.003": 13.3932939968,
			"0.004": 15.9549313848,
			"0.005": 16.3740086526,
			"0.006": 8.31883531882,
			"0.007": 2.49144080324,
			"0.008": 2.27762576972,
			"0.009": 3.18358022884,
			"0.01": 3.02704772337,
			"0.011": 2.39783071651,
			"0.012": 3.65485989376,
			"0.013": 5.79868605935,
			"0.014": 1.86607844881,
			"0.015": 0.0987670333185,
			"0.016": 0.0,
			"0.017": 0.0,
			"0.018": 0.0,
			"0.019": 0.0,
			"0.02": 0.0,
			"0.021": 0.0,
			"0.022": 0.0,
			"0.023": 0.0,
			"0.024": 0.0,
			"0.025": 0.0
		}
	}
}
