{
	 "smiles": "CCC1CC2=C(C=CC=C2Br)C(=O)N1", 
	 "Tm": 375.15, 
	 "num_atms": 26, 
	 "gaussian": { 
		 "optdone": 1, 
		 "sigma_profile": "yes", 
		 "theory": "DFT", 
		 "functional": "B3LYP", 
		 "basiset": "6-31G**", 
		 "properties": { 
			 "R2extent": 4064.8592, 
			 "electric_dipole_moment_norm": 2.48957688373, 
			 "electric_quadrupole_moment_norm": 17.9477345899, 
			 "total_energy": -3127.81665519, 
			 "HOMO_LUMO_gap": 0.19985, 
			 "cosmo_polarized_energy": -11.15, 
			 "cosmo_cavitation_energy": 29.99, 
			 "cosmo_dispersion_energy": -21.95, 
			 "cosmo_repulsion_energy": 1.72, 
			 "cosmo_total_nonelectrostatic_energy": 9.76, 
			 "SMD_solvation_energy": 3.72 
		},
		"coords": [
			{
				"x": -2.1853687218,
				"y": 0.2491750591,
				"z": -0.0365248026,
				"element": "C" 
			},
			{
				"x": -1.6946760443,
				"y": -0.3489727964,
				"z": -1.358290731,
				"element": "C" 
			},
			{
				"x": -0.3799677336,
				"y": -1.162212154,
				"z": -1.3109224355,
				"element": "C" 
			},
			{
				"x": 0.8539636524,
				"y": -0.3622364346,
				"z": -0.8536366437,
				"element": "C" 
			},
			{
				"x": 1.038158925,
				"y": -0.3122767441,
				"z": 0.6443386815,
				"element": "C" 
			},
			{
				"x": 0.5493386755,
				"y": -1.3699150096,
				"z": 1.4346517971,
				"element": "C" 
			},
			{
				"x": 0.7444180282,
				"y": -1.3951910739,
				"z": 2.8177933361,
				"element": "C" 
			},
			{
				"x": 1.4300252734,
				"y": -0.3589272072,
				"z": 3.4435449762,
				"element": "C" 
			},
			{
				"x": 1.9289895458,
				"y": 0.6999038578,
				"z": 2.6843033988,
				"element": "C" 
			},
			{
				"x": 1.7334917001,
				"y": 0.7089805783,
				"z": 1.3035414495,
				"element": "C" 
			},
			{
				"x": 2.473834287,
				"y": 2.1808167208,
				"z": 0.3161679846,
				"element": "Br" 
			},
			{
				"x": -0.1996114266,
				"y": -2.512292444,
				"z": 0.8158413194,
				"element": "C" 
			},
			{
				"x": -0.5170245191,
				"y": -3.5095357462,
				"z": 1.4586597521,
				"element": "O" 
			},
			{
				"x": -0.4951635059,
				"y": -2.3849097966,
				"z": -0.5141698848,
				"element": "N" 
			},
			{
				"x": -1.480405778,
				"y": 0.9803469942,
				"z": 0.3697342503,
				"element": "H" 
			},
			{
				"x": -2.3417440327,
				"y": -0.5233959504,
				"z": 0.7223640851,
				"element": "H" 
			},
			{
				"x": -3.1414124731,
				"y": 0.7605708316,
				"z": -0.1871084993,
				"element": "H" 
			},
			{
				"x": -2.4732050784,
				"y": -1.0066709425,
				"z": -1.7679011419,
				"element": "H" 
			},
			{
				"x": -1.5569470636,
				"y": 0.4513304098,
				"z": -2.097755002,
				"element": "H" 
			},
			{
				"x": -0.1828154062,
				"y": -1.4822454865,
				"z": -2.3414446558,
				"element": "H" 
			},
			{
				"x": 1.7523118999,
				"y": -0.8198313692,
				"z": -1.2899259032,
				"element": "H" 
			},
			{
				"x": 0.7994602374,
				"y": 0.6490510752,
				"z": -1.2642329868,
				"element": "H" 
			},
			{
				"x": 0.3482759262,
				"y": -2.2393167492,
				"z": 3.3712380447,
				"element": "H" 
			},
			{
				"x": 1.5834943041,
				"y": -0.3685686168,
				"z": 4.518242721,
				"element": "H" 
			},
			{
				"x": 2.4692274039,
				"y": 1.5136465449,
				"z": 3.1546272051,
				"element": "H" 
			},
			{
				"x": -1.0704480755,
				"y": -3.1372235506,
				"z": -0.8713363151,
				"element": "H" 
			}
		],
		 "valence_orbital": [ 
			{
				"type": "occ",
				"energy": -0.29288,
				"method": "rhf"
			},
			{
				"type": "occ",
				"energy": -0.26124,
				"method": "rhf"
			},
			{
				"type": "occ",
				"energy": -0.2525,
				"method": "rhf"
			},
			{
				"type": "occ",
				"energy": -0.24917,
				"method": "rhf"
			},
			{
				"type": "occ",
				"energy": -0.24358,
				"method": "rhf"
			},
			{
				"type": "unocc",
				"energy": -0.04373,
				"method": "rhf"
			},
			{
				"type": "unocc",
				"energy": -0.01793,
				"method": "rhf"
			},
			{
				"type": "unocc",
				"energy": 0.00221,
				"method": "rhf"
			},
			{
				"type": "unocc",
				"energy": 0.05943,
				"method": "rhf"
			},
			{
				"type": "unocc",
				"energy": 0.06765,
				"method": "rhf"
			}
		],
		"cosmo_sigma_profile": { 
			"-0.025": 0.0,
			"-0.024": 0.0,
			"-0.023": 0.0,
			"-0.022": 0.0,
			"-0.021": 0.0,
			"-0.02": 0.0,
			"-0.019": 0.0,
			"-0.018": 0.0,
			"-0.017": 0.0,
			"-0.016": 0.0,
			"-0.015": 0.0,
			"-0.014": 0.255620003837,
			"-0.013": 1.27145895792,
			"-0.012": 0.699177109902,
			"-0.011": 1.21008469551,
			"-0.01": 1.27752351182,
			"-0.009": 1.00046801028,
			"-0.008": 1.02201776023,
			"-0.007": 3.9862901907,
			"-0.006": 8.06041056742,
			"-0.005": 14.5086666015,
			"-0.004": 17.8044679374,
			"-0.003": 22.0894407862,
			"-0.002": 22.1738919598,
			"-0.001": 20.9232911493,
			"0.0": 22.6878682963,
			"0.001": 23.1244650702,
			"0.002": 21.3441738112,
			"0.003": 17.6934083488,
			"0.004": 13.7805643572,
			"0.005": 5.73929537664,
			"0.006": 1.30856070676,
			"0.007": 1.21764559723,
			"0.008": 1.87378257058,
			"0.009": 1.21133993529,
			"0.01": 1.15695836186,
			"0.011": 1.23207906061,
			"0.012": 2.16008759035,
			"0.013": 3.31222574864,
			"0.014": 5.16506278756,
			"0.015": 0.689606875068,
			"0.016": 0.0,
			"0.017": 0.0,
			"0.018": 0.0,
			"0.019": 0.0,
			"0.02": 0.0,
			"0.021": 0.0,
			"0.022": 0.0,
			"0.023": 0.0,
			"0.024": 0.0,
			"0.025": 0.0
		}
	}
}
