{
	 "smiles": "NC(=O)C1=NN(C=N1)[C@@H]1O[C@H](CO)[C@@H](O)[C@H]1O", 
	 "Tm": 448.15, 
	 "num_atms": 29, 
	 "gaussian": { 
		 "optdone": 1, 
		 "sigma_profile": "yes", 
		 "theory": "DFT", 
		 "functional": "B3LYP", 
		 "basiset": "6-31G**", 
		 "properties": { 
			 "R2extent": 4629.7006, 
			 "electric_dipole_moment_norm": 5.61357238129, 
			 "electric_quadrupole_moment_norm": 41.7121566444, 
			 "total_energy": -907.169080961, 
			 "HOMO_LUMO_gap": 0.21564, 
			 "cosmo_polarized_energy": -32.27, 
			 "cosmo_cavitation_energy": 33.5, 
			 "cosmo_dispersion_energy": -23.59, 
			 "cosmo_repulsion_energy": 1.88, 
			 "cosmo_total_nonelectrostatic_energy": 11.79, 
			 "SMD_solvation_energy": 4.46 
		},
		"coords": [
			{
				"x": -2.7712954707,
				"y": -1.3131640318,
				"z": 2.1948469003,
				"element": "N" 
			},
			{
				"x": -3.4579610613,
				"y": -1.4165586613,
				"z": 1.0203103038,
				"element": "C" 
			},
			{
				"x": -4.5739909751,
				"y": -1.8977368131,
				"z": 0.9193151107,
				"element": "O" 
			},
			{
				"x": -2.713404968,
				"y": -0.8683559209,
				"z": -0.1635851526,
				"element": "C" 
			},
			{
				"x": -1.5010433412,
				"y": -0.3284872325,
				"z": -0.0542093354,
				"element": "N" 
			},
			{
				"x": -1.2171292423,
				"y": 0.0308305747,
				"z": -1.3285163171,
				"element": "N" 
			},
			{
				"x": -2.257051291,
				"y": -0.3175586166,
				"z": -2.1309357318,
				"element": "C" 
			},
			{
				"x": -3.2186071931,
				"y": -0.8808674331,
				"z": -1.4300527443,
				"element": "N" 
			},
			{
				"x": 0.0606471896,
				"y": 0.6327527835,
				"z": -1.6983491587,
				"element": "C" 
			},
			{
				"x": 1.0807739862,
				"y": -0.3414926717,
				"z": -1.7167291428,
				"element": "O" 
			},
			{
				"x": 2.1075899359,
				"y": -0.0435550974,
				"z": -0.739002536,
				"element": "C" 
			},
			{
				"x": 2.5335209337,
				"y": -1.3527218217,
				"z": -0.0954852348,
				"element": "C" 
			},
			{
				"x": 3.0775945811,
				"y": -2.2580834141,
				"z": -1.0366711107,
				"element": "O" 
			},
			{
				"x": 1.4734089733,
				"y": 0.9794249011,
				"z": 0.2216288197,
				"element": "C" 
			},
			{
				"x": 2.3906523621,
				"y": 1.8157312335,
				"z": 0.875059134,
				"element": "O" 
			},
			{
				"x": 0.5027854223,
				"y": 1.7334194299,
				"z": -0.7105096485,
				"element": "C" 
			},
			{
				"x": 1.2852805051,
				"y": 2.7189368389,
				"z": -1.3797785801,
				"element": "O" 
			},
			{
				"x": -1.8302708224,
				"y": -0.9544213654,
				"z": 2.2211088772,
				"element": "H" 
			},
			{
				"x": -3.1919469503,
				"y": -1.698554959,
				"z": 3.0253589213,
				"element": "H" 
			},
			{
				"x": -2.2579203601,
				"y": -0.1385339147,
				"z": -3.19769973,
				"element": "H" 
			},
			{
				"x": -0.0820844076,
				"y": 1.0419686518,
				"z": -2.7049155436,
				"element": "H" 
			},
			{
				"x": 2.9628013592,
				"y": 0.4102739068,
				"z": -1.2572013332,
				"element": "H" 
			},
			{
				"x": 3.3150728704,
				"y": -1.1467035166,
				"z": 0.6431515543,
				"element": "H" 
			},
			{
				"x": 1.667290984,
				"y": -1.7835479245,
				"z": 0.4328032379,
				"element": "H" 
			},
			{
				"x": 2.3968685542,
				"y": -2.3974502892,
				"z": -1.7094123909,
				"element": "H" 
			},
			{
				"x": 0.8915177481,
				"y": 0.4559781734,
				"z": 0.9861826502,
				"element": "H" 
			},
			{
				"x": 2.6355709679,
				"y": 2.4953588596,
				"z": 0.2271155806,
				"element": "H" 
			},
			{
				"x": -0.3435024205,
				"y": 2.1771039728,
				"z": -0.1784458372,
				"element": "H" 
			},
			{
				"x": 0.7176321304,
				"y": 3.4504143575,
				"z": -1.6489815625,
				"element": "H" 
			}
		],
		 "valence_orbital": [ 
			{
				"type": "occ",
				"energy": -0.28619,
				"method": "rhf"
			},
			{
				"type": "occ",
				"energy": -0.27688,
				"method": "rhf"
			},
			{
				"type": "occ",
				"energy": -0.26678,
				"method": "rhf"
			},
			{
				"type": "occ",
				"energy": -0.26661,
				"method": "rhf"
			},
			{
				"type": "occ",
				"energy": -0.25359,
				"method": "rhf"
			},
			{
				"type": "unocc",
				"energy": -0.03795,
				"method": "rhf"
			},
			{
				"type": "unocc",
				"energy": 0.0026,
				"method": "rhf"
			},
			{
				"type": "unocc",
				"energy": 0.0276,
				"method": "rhf"
			},
			{
				"type": "unocc",
				"energy": 0.07037,
				"method": "rhf"
			},
			{
				"type": "unocc",
				"energy": 0.07565,
				"method": "rhf"
			}
		],
		"cosmo_sigma_profile": { 
			"-0.025": 0.0,
			"-0.024": 0.0,
			"-0.023": 0.0,
			"-0.022": 0.0,
			"-0.021": 0.0,
			"-0.02": 0.0,
			"-0.019": 0.0,
			"-0.018": 0.251607201204,
			"-0.017": 1.35285115537,
			"-0.016": 1.47522251106,
			"-0.015": 0.74476225829,
			"-0.014": 2.80529126913,
			"-0.013": 4.04333158646,
			"-0.012": 5.16556111243,
			"-0.011": 7.81258907825,
			"-0.01": 8.20782390957,
			"-0.009": 7.46205952316,
			"-0.008": 6.20214230827,
			"-0.007": 7.8959165645,
			"-0.006": 7.30111936885,
			"-0.005": 12.5207330398,
			"-0.004": 14.1160659038,
			"-0.003": 15.3072136234,
			"-0.002": 15.2985043792,
			"-0.001": 15.7294446622,
			"0.0": 14.2880032216,
			"0.001": 14.2448305681,
			"0.002": 11.4347721655,
			"0.003": 11.4858709882,
			"0.004": 8.9713405991,
			"0.005": 7.10257396197,
			"0.006": 6.44767612236,
			"0.007": 4.81571251535,
			"0.008": 4.80402938302,
			"0.009": 5.68732147523,
			"0.01": 5.41318904817,
			"0.011": 5.90439118925,
			"0.012": 6.74700777562,
			"0.013": 9.76612958202,
			"0.014": 7.51395600866,
			"0.015": 2.71419753841,
			"0.016": 2.07454630418,
			"0.017": 0.167393528298,
			"0.018": 0.0,
			"0.019": 0.0,
			"0.02": 0.0,
			"0.021": 0.0,
			"0.022": 0.0,
			"0.023": 0.0,
			"0.024": 0.0,
			"0.025": 0.0
		}
	}
}
