{
	 "smiles": "CC1=C2CN(CCNC2=CC=C1)C(=O)OC(C)(C)C", 
	 "Tm": 369.15, 
	 "num_atms": 41, 
	 "gaussian": { 
		 "optdone": 1, 
		 "sigma_profile": "yes", 
		 "theory": "DFT", 
		 "functional": "B3LYP", 
		 "basiset": "6-31G**", 
		 "properties": { 
			 "R2extent": 5866.6014, 
			 "electric_dipole_moment_norm": 3.25401007067, 
			 "electric_quadrupole_moment_norm": 3.99748300434, 
			 "total_energy": -844.844706853, 
			 "HOMO_LUMO_gap": 0.19939, 
			 "cosmo_polarized_energy": -13.18, 
			 "cosmo_cavitation_energy": 40.68, 
			 "cosmo_dispersion_energy": -28.25, 
			 "cosmo_repulsion_energy": 2.18, 
			 "cosmo_total_nonelectrostatic_energy": 14.61, 
			 "SMD_solvation_energy": 6.15 
		},
		"coords": [
			{
				"x": -1.4003401381,
				"y": 3.2557382509,
				"z": -1.4369043612,
				"element": "C" 
			},
			{
				"x": -2.1667391503,
				"y": 2.4916193503,
				"z": -0.3771327152,
				"element": "C" 
			},
			{
				"x": -2.0333005893,
				"y": 1.0924447468,
				"z": -0.2445933128,
				"element": "C" 
			},
			{
				"x": -1.1027221181,
				"y": 0.3429862791,
				"z": -1.196687662,
				"element": "C" 
			},
			{
				"x": -0.3063367014,
				"y": -0.7078130133,
				"z": -0.5680634148,
				"element": "N" 
			},
			{
				"x": -0.9083076157,
				"y": -2.0243525998,
				"z": -0.38386353,
				"element": "C" 
			},
			{
				"x": -2.4027871817,
				"y": -1.9006296933,
				"z": -0.066663445,
				"element": "C" 
			},
			{
				"x": -2.6434435245,
				"y": -0.9548566884,
				"z": 1.0156602255,
				"element": "N" 
			},
			{
				"x": -2.7500001821,
				"y": 0.4255856051,
				"z": 0.7782548505,
				"element": "C" 
			},
			{
				"x": -3.5749338455,
				"y": 1.1690024433,
				"z": 1.6417313151,
				"element": "C" 
			},
			{
				"x": -3.6957589767,
				"y": 2.5441903838,
				"z": 1.5028564458,
				"element": "C" 
			},
			{
				"x": -2.9993719574,
				"y": 3.2044324568,
				"z": 0.4930358112,
				"element": "C" 
			},
			{
				"x": 0.9519087398,
				"y": -0.3735947429,
				"z": -0.1359350223,
				"element": "C" 
			},
			{
				"x": 1.4357148726,
				"y": 0.7443014364,
				"z": -0.2625456338,
				"element": "O" 
			},
			{
				"x": 1.5791416218,
				"y": -1.4406734639,
				"z": 0.4192480918,
				"element": "O" 
			},
			{
				"x": 2.9283048894,
				"y": -1.3081833445,
				"z": 0.9881090022,
				"element": "C" 
			},
			{
				"x": 3.9276376232,
				"y": -0.9328756387,
				"z": -0.1117914145,
				"element": "C" 
			},
			{
				"x": 2.9212586379,
				"y": -0.2949551232,
				"z": 2.1378700841,
				"element": "C" 
			},
			{
				"x": 3.2064308278,
				"y": -2.7199172279,
				"z": 1.5124151548,
				"element": "C" 
			},
			{
				"x": -1.6373284357,
				"y": 4.321482691,
				"z": -1.3854108113,
				"element": "H" 
			},
			{
				"x": -1.6366922493,
				"y": 2.9157138797,
				"z": -2.4519926576,
				"element": "H" 
			},
			{
				"x": -0.3180251214,
				"y": 3.1475354822,
				"z": -1.2999904682,
				"element": "H" 
			},
			{
				"x": -0.3970323956,
				"y": 1.0422516092,
				"z": -1.637731719,
				"element": "H" 
			},
			{
				"x": -1.6627610492,
				"y": -0.1055511587,
				"z": -2.0270960956,
				"element": "H" 
			},
			{
				"x": -0.7803687117,
				"y": -2.6489516225,
				"z": -1.2823352537,
				"element": "H" 
			},
			{
				"x": -0.3991326278,
				"y": -2.5181617793,
				"z": 0.4425915267,
				"element": "H" 
			},
			{
				"x": -2.9741771506,
				"y": -1.6391080697,
				"z": -0.9698049326,
				"element": "H" 
			},
			{
				"x": -2.762514546,
				"y": -2.8844449494,
				"z": 0.2513186977,
				"element": "H" 
			},
			{
				"x": -3.3382994074,
				"y": -1.2765242312,
				"z": 1.6745054229,
				"element": "H" 
			},
			{
				"x": -4.1216210726,
				"y": 0.6490204004,
				"z": 2.4258039078,
				"element": "H" 
			},
			{
				"x": -4.3386711769,
				"y": 3.1004583203,
				"z": 2.1794087773,
				"element": "H" 
			},
			{
				"x": -3.0906132234,
				"y": 4.2809282885,
				"z": 0.3811866492,
				"element": "H" 
			},
			{
				"x": 3.8785713837,
				"y": -1.6567359364,
				"z": -0.9316775641,
				"element": "H" 
			},
			{
				"x": 3.7171793161,
				"y": 0.0618035436,
				"z": -0.504477259,
				"element": "H" 
			},
			{
				"x": 4.9444822587,
				"y": -0.9481618196,
				"z": 0.2942557427,
				"element": "H" 
			},
			{
				"x": 2.7053223525,
				"y": 0.7087220287,
				"z": 1.7718612373,
				"element": "H" 
			},
			{
				"x": 3.8993509772,
				"y": -0.2916078537,
				"z": 2.6302321505,
				"element": "H" 
			},
			{
				"x": 2.1670428264,
				"y": -0.5708652216,
				"z": 2.881724557,
				"element": "H" 
			},
			{
				"x": 2.4700900496,
				"y": -3.0028748308,
				"z": 2.2705445916,
				"element": "H" 
			},
			{
				"x": 4.202042018,
				"y": -2.7640523412,
				"z": 1.9639254776,
				"element": "H" 
			},
			{
				"x": 3.1625007538,
				"y": -3.449825846,
				"z": 0.6986575533,
				"element": "H" 
			}
		],
		 "valence_orbital": [ 
			{
				"type": "occ",
				"energy": -0.2802,
				"method": "rhf"
			},
			{
				"type": "occ",
				"energy": -0.2534,
				"method": "rhf"
			},
			{
				"type": "occ",
				"energy": -0.23261,
				"method": "rhf"
			},
			{
				"type": "occ",
				"energy": -0.22668,
				"method": "rhf"
			},
			{
				"type": "occ",
				"energy": -0.19075,
				"method": "rhf"
			},
			{
				"type": "unocc",
				"energy": 0.00864,
				"method": "rhf"
			},
			{
				"type": "unocc",
				"energy": 0.0223,
				"method": "rhf"
			},
			{
				"type": "unocc",
				"energy": 0.06055,
				"method": "rhf"
			},
			{
				"type": "unocc",
				"energy": 0.07705,
				"method": "rhf"
			},
			{
				"type": "unocc",
				"energy": 0.09028,
				"method": "rhf"
			}
		],
		"cosmo_sigma_profile": { 
			"-0.025": 0.0,
			"-0.024": 0.0,
			"-0.023": 0.0,
			"-0.022": 0.0,
			"-0.021": 0.0,
			"-0.02": 0.0,
			"-0.019": 0.0,
			"-0.018": 0.0,
			"-0.017": 0.0,
			"-0.016": 0.0,
			"-0.015": 0.0,
			"-0.014": 0.0,
			"-0.013": 0.0761529732846,
			"-0.012": 1.05877248013,
			"-0.011": 1.56931218231,
			"-0.01": 1.62184178064,
			"-0.009": 1.47320789092,
			"-0.008": 1.38423469698,
			"-0.007": 2.52839341836,
			"-0.006": 5.96569448359,
			"-0.005": 11.6836610183,
			"-0.004": 31.3088199014,
			"-0.003": 38.4454347933,
			"-0.002": 33.8240110322,
			"-0.001": 29.4803022053,
			"0.0": 34.9130360596,
			"0.001": 31.8668626455,
			"0.002": 14.8938850352,
			"0.003": 12.0626417853,
			"0.004": 12.1432479934,
			"0.005": 11.6719300745,
			"0.006": 11.867756236,
			"0.007": 11.6110064836,
			"0.008": 5.62533613465,
			"0.009": 2.14326906331,
			"0.01": 2.35372276704,
			"0.011": 1.69001239276,
			"0.012": 2.46472403353,
			"0.013": 1.85774124957,
			"0.014": 0.258267268626,
			"0.015": 0.0,
			"0.016": 0.0,
			"0.017": 0.0,
			"0.018": 0.0,
			"0.019": 0.0,
			"0.02": 0.0,
			"0.021": 0.0,
			"0.022": 0.0,
			"0.023": 0.0,
			"0.024": 0.0,
			"0.025": 0.0
		}
	}
}
