{
	 "smiles": "OC(=O)CSCC(O)=O", 
	 "Tm": 402.15, 
	 "num_atms": 15, 
	 "gaussian": { 
		 "optdone": 1, 
		 "sigma_profile": "yes", 
		 "theory": "DFT", 
		 "functional": "B3LYP", 
		 "basiset": "6-31G**", 
		 "properties": { 
			 "R2extent": 2009.8806, 
			 "electric_dipole_moment_norm": 2.52924971681, 
			 "electric_quadrupole_moment_norm": 9.06020538343, 
			 "total_energy": -855.146339801, 
			 "HOMO_LUMO_gap": 0.21979, 
			 "cosmo_polarized_energy": -14.57, 
			 "cosmo_cavitation_energy": 21.48, 
			 "cosmo_dispersion_energy": -16.07, 
			 "cosmo_repulsion_energy": 1.31, 
			 "cosmo_total_nonelectrostatic_energy": 6.72, 
			 "SMD_solvation_energy": 5.97 
		},
		"coords": [
			{
				"x": -1.5011384361,
				"y": 1.7336628427,
				"z": -0.4035236932,
				"element": "O" 
			},
			{
				"x": -1.3263974342,
				"y": 0.4256662512,
				"z": -0.1198041004,
				"element": "C" 
			},
			{
				"x": -1.9982664714,
				"y": -0.1673889211,
				"z": 0.6995979545,
				"element": "O" 
			},
			{
				"x": -0.1948943307,
				"y": -0.1857245142,
				"z": -0.9134343239,
				"element": "C" 
			},
			{
				"x": 1.2967383738,
				"y": -0.414619012,
				"z": 0.1420995532,
				"element": "S" 
			},
			{
				"x": 0.745866248,
				"y": -1.7977492033,
				"z": 1.2260824415,
				"element": "C" 
			},
			{
				"x": 0.9476051518,
				"y": -3.1599799033,
				"z": 0.5995786506,
				"element": "C" 
			},
			{
				"x": 0.122400292,
				"y": -3.358259817,
				"z": -0.4605585035,
				"element": "O" 
			},
			{
				"x": 1.7369446586,
				"y": -3.9943793413,
				"z": 0.9771534372,
				"element": "O" 
			},
			{
				"x": -2.2174675352,
				"y": 2.0473845985,
				"z": 0.1747991335,
				"element": "H" 
			},
			{
				"x": -0.5011488087,
				"y": -1.1556015139,
				"z": -1.3083806259,
				"element": "H" 
			},
			{
				"x": 0.1147939736,
				"y": 0.4715633411,
				"z": -1.7269606909,
				"element": "H" 
			},
			{
				"x": -0.3045352814,
				"y": -1.6340512423,
				"z": 1.4820923428,
				"element": "H" 
			},
			{
				"x": 1.3590965738,
				"y": -1.7445530066,
				"z": 2.1257333775,
				"element": "H" 
			},
			{
				"x": 0.3351030263,
				"y": -4.2407705586,
				"z": -0.808274953,
				"element": "H" 
			}
		],
		 "valence_orbital": [ 
			{
				"type": "occ",
				"energy": -0.32859,
				"method": "rhf"
			},
			{
				"type": "occ",
				"energy": -0.32565,
				"method": "rhf"
			},
			{
				"type": "occ",
				"energy": -0.29384,
				"method": "rhf"
			},
			{
				"type": "occ",
				"energy": -0.28728,
				"method": "rhf"
			},
			{
				"type": "occ",
				"energy": -0.24074,
				"method": "rhf"
			},
			{
				"type": "unocc",
				"energy": -0.02095,
				"method": "rhf"
			},
			{
				"type": "unocc",
				"energy": -0.0138,
				"method": "rhf"
			},
			{
				"type": "unocc",
				"energy": 0.04464,
				"method": "rhf"
			},
			{
				"type": "unocc",
				"energy": 0.06285,
				"method": "rhf"
			},
			{
				"type": "unocc",
				"energy": 0.07242,
				"method": "rhf"
			}
		],
		"cosmo_sigma_profile": { 
			"-0.025": 0.0,
			"-0.024": 0.0,
			"-0.023": 0.0,
			"-0.022": 0.0,
			"-0.021": 0.0,
			"-0.02": 0.0,
			"-0.019": 0.413561407822,
			"-0.018": 1.7785706774,
			"-0.017": 2.03003951614,
			"-0.016": 1.60375321951,
			"-0.015": 1.77313911047,
			"-0.014": 1.01175436548,
			"-0.013": 0.906893218597,
			"-0.012": 1.38900819735,
			"-0.011": 2.3312256681,
			"-0.01": 1.48561893532,
			"-0.009": 1.31291845257,
			"-0.008": 4.67592734741,
			"-0.007": 6.82905037084,
			"-0.006": 8.68747740296,
			"-0.005": 10.2454233653,
			"-0.004": 9.38957110644,
			"-0.003": 7.44129891453,
			"-0.002": 7.18718636232,
			"-0.001": 6.7533466879,
			"0.0": 9.79553861006,
			"0.001": 9.72746153241,
			"0.002": 9.81089973492,
			"0.003": 9.40178810872,
			"0.004": 8.9614957283,
			"0.005": 6.08544317841,
			"0.006": 5.88944122571,
			"0.007": 7.45373290131,
			"0.008": 5.75311699445,
			"0.009": 4.56137851142,
			"0.01": 5.0365286266,
			"0.011": 8.8573882048,
			"0.012": 3.29823107854,
			"0.013": 0.126220049922,
			"0.014": 0.0,
			"0.015": 0.0,
			"0.016": 0.0,
			"0.017": 0.0,
			"0.018": 0.0,
			"0.019": 0.0,
			"0.02": 0.0,
			"0.021": 0.0,
			"0.022": 0.0,
			"0.023": 0.0,
			"0.024": 0.0,
			"0.025": 0.0
		}
	}
}
