{
	 "smiles": "BrC1=C(OC2=CC=CC=C2)C=CC=C1", 
	 "Tm": 293.15, 
	 "num_atms": 23, 
	 "gaussian": { 
		 "optdone": 1, 
		 "sigma_profile": "yes", 
		 "theory": "DFT", 
		 "functional": "B3LYP", 
		 "basiset": "6-31G**", 
		 "properties": { 
			 "R2extent": 6423.2112, 
			 "electric_dipole_moment_norm": 2.51860979113, 
			 "electric_quadrupole_moment_norm": 9.18821884154, 
			 "total_energy": -3109.31645261, 
			 "HOMO_LUMO_gap": 0.20465, 
			 "cosmo_polarized_energy": -6.66, 
			 "cosmo_cavitation_energy": 29.67, 
			 "cosmo_dispersion_energy": -21.74, 
			 "cosmo_repulsion_energy": 1.72, 
			 "cosmo_total_nonelectrostatic_energy": 9.64, 
			 "SMD_solvation_energy": 4.17 
		},
		"coords": [
			{
				"x": -2.3902126171,
				"y": -0.0815789488,
				"z": 3.7893993381,
				"element": "Br" 
			},
			{
				"x": -3.2206459919,
				"y": -0.7433850149,
				"z": 2.2074067413,
				"element": "C" 
			},
			{
				"x": -2.7982634398,
				"y": -0.2861203701,
				"z": 0.95085757,
				"element": "C" 
			},
			{
				"x": -1.8335082902,
				"y": 0.6873416433,
				"z": 0.9123562328,
				"element": "O" 
			},
			{
				"x": -0.9335422877,
				"y": 0.7521315699,
				"z": -0.1384699537,
				"element": "C" 
			},
			{
				"x": -0.6586566077,
				"y": 2.0187504122,
				"z": -0.6550660096,
				"element": "C" 
			},
			{
				"x": 0.3027560904,
				"y": 2.1554106195,
				"z": -1.6568072076,
				"element": "C" 
			},
			{
				"x": 0.9791418676,
				"y": 1.0353779897,
				"z": -2.1446395356,
				"element": "C" 
			},
			{
				"x": 0.6948834013,
				"y": -0.2265032675,
				"z": -1.617252033,
				"element": "C" 
			},
			{
				"x": -0.2575528792,
				"y": -0.3770173493,
				"z": -0.6089327381,
				"element": "C" 
			},
			{
				"x": -3.4241703016,
				"y": -0.7802687525,
				"z": -0.1994127508,
				"element": "C" 
			},
			{
				"x": -4.4458687491,
				"y": -1.7221251384,
				"z": -0.0933098712,
				"element": "C" 
			},
			{
				"x": -4.8612259711,
				"y": -2.1741581334,
				"z": 1.15996735,
				"element": "C" 
			},
			{
				"x": -4.2484519728,
				"y": -1.678963212,
				"z": 2.311032903,
				"element": "C" 
			},
			{
				"x": -1.1957233218,
				"y": 2.8747278064,
				"z": -0.2603170565,
				"element": "H" 
			},
			{
				"x": 0.5190705906,
				"y": 3.1411215413,
				"z": -2.0583076432,
				"element": "H" 
			},
			{
				"x": 1.7242044653,
				"y": 1.1446690636,
				"z": -2.9266457956,
				"element": "H" 
			},
			{
				"x": 1.2232063698,
				"y": -1.1017506977,
				"z": -1.9842300194,
				"element": "H" 
			},
			{
				"x": -0.4725813974,
				"y": -1.3528598755,
				"z": -0.1867101669,
				"element": "H" 
			},
			{
				"x": -3.104061161,
				"y": -0.4172209195,
				"z": -1.1698676577,
				"element": "H" 
			},
			{
				"x": -4.9217066956,
				"y": -2.0952271971,
				"z": -0.9951361614,
				"element": "H" 
			},
			{
				"x": -5.6577583659,
				"y": -2.9062149122,
				"z": 1.2469414309,
				"element": "H" 
			},
			{
				"x": -4.5576327349,
				"y": -2.016836857,
				"z": 3.2937430342,
				"element": "H" 
			}
		],
		 "valence_orbital": [ 
			{
				"type": "occ",
				"energy": -0.281,
				"method": "rhf"
			},
			{
				"type": "occ",
				"energy": -0.26128,
				"method": "rhf"
			},
			{
				"type": "occ",
				"energy": -0.25546,
				"method": "rhf"
			},
			{
				"type": "occ",
				"energy": -0.24358,
				"method": "rhf"
			},
			{
				"type": "occ",
				"energy": -0.2229,
				"method": "rhf"
			},
			{
				"type": "unocc",
				"energy": -0.01825,
				"method": "rhf"
			},
			{
				"type": "unocc",
				"energy": -0.01201,
				"method": "rhf"
			},
			{
				"type": "unocc",
				"energy": -0.00459,
				"method": "rhf"
			},
			{
				"type": "unocc",
				"energy": 0.00384,
				"method": "rhf"
			},
			{
				"type": "unocc",
				"energy": 0.013,
				"method": "rhf"
			}
		],
		"cosmo_sigma_profile": { 
			"-0.025": 0.0,
			"-0.024": 0.0,
			"-0.023": 0.0,
			"-0.022": 0.0,
			"-0.021": 0.0,
			"-0.02": 0.0,
			"-0.019": 0.0,
			"-0.018": 0.0,
			"-0.017": 0.0,
			"-0.016": 0.0,
			"-0.015": 0.0,
			"-0.014": 0.0,
			"-0.013": 0.0,
			"-0.012": 0.0,
			"-0.011": 0.0,
			"-0.01": 0.0,
			"-0.009": 0.0,
			"-0.008": 0.0408706941416,
			"-0.007": 4.65687939026,
			"-0.006": 15.4881078293,
			"-0.005": 19.5269243848,
			"-0.004": 20.1028222758,
			"-0.003": 16.8086701851,
			"-0.002": 15.012495452,
			"-0.001": 14.0481827521,
			"0.0": 15.5354634026,
			"0.001": 18.6546081269,
			"0.002": 24.0021030569,
			"0.003": 25.5342473909,
			"0.004": 26.0986881197,
			"0.005": 17.848411317,
			"0.006": 3.35237258075,
			"0.007": 1.71519536611,
			"0.008": 2.0397333745,
			"0.009": 1.27763226972,
			"0.01": 0.165285834442,
			"0.011": 0.0,
			"0.012": 0.0,
			"0.013": 0.0,
			"0.014": 0.0,
			"0.015": 0.0,
			"0.016": 0.0,
			"0.017": 0.0,
			"0.018": 0.0,
			"0.019": 0.0,
			"0.02": 0.0,
			"0.021": 0.0,
			"0.022": 0.0,
			"0.023": 0.0,
			"0.024": 0.0,
			"0.025": 0.0
		}
	}
}
