{
	 "smiles": "NC1=NC=C(C=C1)C(F)(F)F", 
	 "Tm": 320.15, 
	 "num_atms": 16, 
	 "gaussian": { 
		 "optdone": 1, 
		 "sigma_profile": "yes", 
		 "theory": "DFT", 
		 "functional": "B3LYP", 
		 "basiset": "6-31G**", 
		 "properties": { 
			 "R2extent": 3125.618, 
			 "electric_dipole_moment_norm": 4.09312927477, 
			 "electric_quadrupole_moment_norm": 5.26455420525, 
			 "total_energy": -640.688483807, 
			 "HOMO_LUMO_gap": 0.19998, 
			 "cosmo_polarized_energy": -9.35, 
			 "cosmo_cavitation_energy": 21.88, 
			 "cosmo_dispersion_energy": -15.91, 
			 "cosmo_repulsion_energy": 1.23, 
			 "cosmo_total_nonelectrostatic_energy": 7.2, 
			 "SMD_solvation_energy": 3.61 
		},
		"coords": [
			{
				"x": 0.3483071133,
				"y": 1.2729451743,
				"z": -1.0523064494,
				"element": "N" 
			},
			{
				"x": 0.1878563143,
				"y": 0.2267396371,
				"z": -0.1773762617,
				"element": "C" 
			},
			{
				"x": 1.089012887,
				"y": -0.7658292464,
				"z": -0.2709560833,
				"element": "N" 
			},
			{
				"x": 0.9972062771,
				"y": -1.7785402582,
				"z": 0.5938724247,
				"element": "C" 
			},
			{
				"x": 0.0163892058,
				"y": -1.8724780681,
				"z": 1.5800685578,
				"element": "C" 
			},
			{
				"x": -0.9264459469,
				"y": -0.8370772831,
				"z": 1.6652848108,
				"element": "C" 
			},
			{
				"x": -0.8482842963,
				"y": 0.2250665562,
				"z": 0.7853979604,
				"element": "C" 
			},
			{
				"x": -0.0140397136,
				"y": -3.0118860572,
				"z": 2.5487835538,
				"element": "C" 
			},
			{
				"x": 0.5226303918,
				"y": -2.678291457,
				"z": 3.7484804607,
				"element": "F" 
			},
			{
				"x": -1.2820076448,
				"y": -3.4187396028,
				"z": 2.8004442766,
				"element": "F" 
			},
			{
				"x": 0.6751616702,
				"y": -4.0825220375,
				"z": 2.0956870601,
				"element": "F" 
			},
			{
				"x": -0.4400355474,
				"y": 1.8701790717,
				"z": -1.2452166071,
				"element": "H" 
			},
			{
				"x": 0.9776889663,
				"y": 1.0978243939,
				"z": -1.821866289,
				"element": "H" 
			},
			{
				"x": 1.7391516537,
				"y": -2.5660530967,
				"z": 0.487883099,
				"element": "H" 
			},
			{
				"x": -1.7136254368,
				"y": -0.8763927614,
				"z": 2.4117102793,
				"element": "H" 
			},
			{
				"x": -1.5614658936,
				"y": 1.0423550351,
				"z": 0.8287092074,
				"element": "H" 
			}
		],
		 "valence_orbital": [ 
			{
				"type": "occ",
				"energy": -0.37096,
				"method": "rhf"
			},
			{
				"type": "occ",
				"energy": -0.3312,
				"method": "rhf"
			},
			{
				"type": "occ",
				"energy": -0.2927,
				"method": "rhf"
			},
			{
				"type": "occ",
				"energy": -0.26807,
				"method": "rhf"
			},
			{
				"type": "occ",
				"energy": -0.22852,
				"method": "rhf"
			},
			{
				"type": "unocc",
				"energy": -0.02854,
				"method": "rhf"
			},
			{
				"type": "unocc",
				"energy": -0.0132,
				"method": "rhf"
			},
			{
				"type": "unocc",
				"energy": 0.07426,
				"method": "rhf"
			},
			{
				"type": "unocc",
				"energy": 0.10195,
				"method": "rhf"
			},
			{
				"type": "unocc",
				"energy": 0.12599,
				"method": "rhf"
			}
		],
		"cosmo_sigma_profile": { 
			"-0.025": 0.0,
			"-0.024": 0.0,
			"-0.023": 0.0,
			"-0.022": 0.0,
			"-0.021": 0.0,
			"-0.02": 0.0,
			"-0.019": 0.0,
			"-0.018": 0.0,
			"-0.017": 0.0,
			"-0.016": 0.0,
			"-0.015": 0.0134538610477,
			"-0.014": 0.98714980313,
			"-0.013": 2.3008557675,
			"-0.012": 2.58137983028,
			"-0.011": 2.33377500233,
			"-0.01": 2.36824796293,
			"-0.009": 3.15367467654,
			"-0.008": 3.24515095951,
			"-0.007": 5.55012373662,
			"-0.006": 6.35693868907,
			"-0.005": 6.81107976327,
			"-0.004": 6.78504108903,
			"-0.003": 5.62382443614,
			"-0.002": 6.18521716042,
			"-0.001": 7.20776935181,
			"0.0": 12.0881965031,
			"0.001": 17.5265765649,
			"0.002": 22.6614632907,
			"0.003": 35.7568877096,
			"0.004": 8.92960844198,
			"0.005": 2.37556725467,
			"0.006": 2.34297109475,
			"0.007": 2.15810398147,
			"0.008": 2.01851150651,
			"0.009": 1.85034308476,
			"0.01": 1.67795318788,
			"0.011": 1.156057422,
			"0.012": 0.800000443846,
			"0.013": 0.996415462627,
			"0.014": 0.662067930768,
			"0.015": 0.575338076111,
			"0.016": 0.048113245687,
			"0.017": 0.0,
			"0.018": 0.0,
			"0.019": 0.0,
			"0.02": 0.0,
			"0.021": 0.0,
			"0.022": 0.0,
			"0.023": 0.0,
			"0.024": 0.0,
			"0.025": 0.0
		}
	}
}
