{
	 "smiles": "CN1C(C(CC1=O)C(O)=O)C1=CC=C(C=C1)C(F)(F)F", 
	 "Tm": 419.15, 
	 "num_atms": 32, 
	 "gaussian": { 
		 "optdone": 1, 
		 "sigma_profile": "yes", 
		 "theory": "DFT", 
		 "functional": "B3LYP", 
		 "basiset": "6-31G**", 
		 "properties": { 
			 "R2extent": 7559.915, 
			 "electric_dipole_moment_norm": 2.60398405525, 
			 "electric_quadrupole_moment_norm": 24.6863286248, 
			 "total_energy": -1082.60286723, 
			 "HOMO_LUMO_gap": 0.2111, 
			 "cosmo_polarized_energy": -17.0, 
			 "cosmo_cavitation_energy": 37.6, 
			 "cosmo_dispersion_energy": -25.37, 
			 "cosmo_repulsion_energy": 1.9, 
			 "cosmo_total_nonelectrostatic_energy": 14.12, 
			 "SMD_solvation_energy": 9.51 
		},
		"coords": [
			{
				"x": 1.5082608761,
				"y": -1.0883641802,
				"z": 1.8249305274,
				"element": "C" 
			},
			{
				"x": 0.8497993311,
				"y": 0.2025454649,
				"z": 1.8514601893,
				"element": "N" 
			},
			{
				"x": 0.6110825666,
				"y": 0.9781374403,
				"z": 0.6420087513,
				"element": "C" 
			},
			{
				"x": 0.2116323951,
				"y": 2.3834364387,
				"z": 1.1916211403,
				"element": "C" 
			},
			{
				"x": -0.1985020109,
				"y": 2.1359518996,
				"z": 2.6603248762,
				"element": "C" 
			},
			{
				"x": 0.4276481017,
				"y": 0.7891242463,
				"z": 3.0191318926,
				"element": "C" 
			},
			{
				"x": 0.5241156762,
				"y": 0.3072703776,
				"z": 4.1357776949,
				"element": "O" 
			},
			{
				"x": 1.3625362209,
				"y": 3.3735002503,
				"z": 1.0579169352,
				"element": "C" 
			},
			{
				"x": 1.0561547044,
				"y": 4.5572779684,
				"z": 1.6349177722,
				"element": "O" 
			},
			{
				"x": 2.4162993122,
				"y": 3.1762036164,
				"z": 0.4934203724,
				"element": "O" 
			},
			{
				"x": -0.4467177726,
				"y": 0.3780714234,
				"z": -0.2771355679,
				"element": "C" 
			},
			{
				"x": -1.5244475533,
				"y": -0.3636881317,
				"z": 0.2214887164,
				"element": "C" 
			},
			{
				"x": -2.5013737929,
				"y": -0.8640399108,
				"z": -0.637543591,
				"element": "C" 
			},
			{
				"x": -2.410261352,
				"y": -0.6275541215,
				"z": -2.0112066587,
				"element": "C" 
			},
			{
				"x": -1.3359789762,
				"y": 0.105757598,
				"z": -2.5220536468,
				"element": "C" 
			},
			{
				"x": -0.3612065474,
				"y": 0.5987247991,
				"z": -1.6580278549,
				"element": "C" 
			},
			{
				"x": -3.4928688783,
				"y": -1.1181672748,
				"z": -2.9338301555,
				"element": "C" 
			},
			{
				"x": -4.4776827274,
				"y": -0.2002356774,
				"z": -3.077889931,
				"element": "F" 
			},
			{
				"x": -4.0745890823,
				"y": -2.2470928692,
				"z": -2.4723949919,
				"element": "F" 
			},
			{
				"x": -3.0184407353,
				"y": -1.3800372874,
				"z": -4.1719117394,
				"element": "F" 
			},
			{
				"x": 2.5171000132,
				"y": -1.001412755,
				"z": 1.4041425414,
				"element": "H" 
			},
			{
				"x": 1.5735156422,
				"y": -1.4420989112,
				"z": 2.8551174349,
				"element": "H" 
			},
			{
				"x": 0.9412068961,
				"y": -1.8105897406,
				"z": 1.2269755982,
				"element": "H" 
			},
			{
				"x": 1.5457768939,
				"y": 1.07904269,
				"z": 0.0789563505,
				"element": "H" 
			},
			{
				"x": -0.6188178074,
				"y": 2.8048709774,
				"z": 0.6170470959,
				"element": "H" 
			},
			{
				"x": 0.1424242401,
				"y": 2.9109965031,
				"z": 3.3479423546,
				"element": "H" 
			},
			{
				"x": -1.2849130932,
				"y": 2.0595290047,
				"z": 2.7703127371,
				"element": "H" 
			},
			{
				"x": 1.8243702163,
				"y": 5.1373503746,
				"z": 1.4986110374,
				"element": "H" 
			},
			{
				"x": -1.5926076433,
				"y": -0.5639469635,
				"z": 1.286558888,
				"element": "H" 
			},
			{
				"x": -3.3278383821,
				"y": -1.4464332312,
				"z": -0.2445146069,
				"element": "H" 
			},
			{
				"x": -1.2566869403,
				"y": 0.2738112224,
				"z": -3.5907382725,
				"element": "H" 
			},
			{
				"x": 0.479910209,
				"y": 1.1575587595,
				"z": -2.0607158897,
				"element": "H" 
			}
		],
		 "valence_orbital": [ 
			{
				"type": "occ",
				"energy": -0.29542,
				"method": "rhf"
			},
			{
				"type": "occ",
				"energy": -0.27511,
				"method": "rhf"
			},
			{
				"type": "occ",
				"energy": -0.27105,
				"method": "rhf"
			},
			{
				"type": "occ",
				"energy": -0.2533,
				"method": "rhf"
			},
			{
				"type": "occ",
				"energy": -0.24844,
				"method": "rhf"
			},
			{
				"type": "unocc",
				"energy": -0.03734,
				"method": "rhf"
			},
			{
				"type": "unocc",
				"energy": -0.02714,
				"method": "rhf"
			},
			{
				"type": "unocc",
				"energy": -0.01222,
				"method": "rhf"
			},
			{
				"type": "unocc",
				"energy": 0.02353,
				"method": "rhf"
			},
			{
				"type": "unocc",
				"energy": 0.06077,
				"method": "rhf"
			}
		],
		"cosmo_sigma_profile": { 
			"-0.025": 0.0,
			"-0.024": 0.0,
			"-0.023": 0.0,
			"-0.022": 0.0,
			"-0.021": 0.0,
			"-0.02": 0.0,
			"-0.019": 0.0969247236668,
			"-0.018": 1.05528721038,
			"-0.017": 0.939906326136,
			"-0.016": 0.74469002487,
			"-0.015": 1.23076448957,
			"-0.014": 0.365354755607,
			"-0.013": 0.54727113839,
			"-0.012": 0.507972302618,
			"-0.011": 1.276457447,
			"-0.01": 0.322231947213,
			"-0.009": 0.360437484465,
			"-0.008": 2.18042374435,
			"-0.007": 9.13198185082,
			"-0.006": 19.6517586663,
			"-0.005": 24.3397588299,
			"-0.004": 20.5129973037,
			"-0.003": 21.353286914,
			"-0.002": 24.1493253576,
			"-0.001": 16.2185957793,
			"0.0": 16.9203288186,
			"0.001": 18.2015263186,
			"0.002": 26.9413380438,
			"0.003": 41.9768480167,
			"0.004": 8.6933301815,
			"0.005": 4.11925308276,
			"0.006": 2.7306992048,
			"0.007": 3.76816743067,
			"0.008": 4.80366817902,
			"0.009": 3.50335213895,
			"0.01": 3.39357859274,
			"0.011": 6.1276464193,
			"0.012": 3.15041820239,
			"0.013": 4.64538798796,
			"0.014": 4.17398238736,
			"0.015": 0.660228198929,
			"0.016": 0.0,
			"0.017": 0.0,
			"0.018": 0.0,
			"0.019": 0.0,
			"0.02": 0.0,
			"0.021": 0.0,
			"0.022": 0.0,
			"0.023": 0.0,
			"0.024": 0.0,
			"0.025": 0.0
		}
	}
}
