{
	 "smiles": "CC(=O)C1=CC(C(N)=O)=C(O)C=C1", 
	 "Tm": 497.15, 
	 "num_atms": 22, 
	 "gaussian": { 
		 "optdone": 1, 
		 "sigma_profile": "yes", 
		 "theory": "DFT", 
		 "functional": "B3LYP", 
		 "basiset": "6-31G**", 
		 "properties": { 
			 "R2extent": 3227.6766, 
			 "electric_dipole_moment_norm": 4.6131790091, 
			 "electric_quadrupole_moment_norm": 25.8124759649, 
			 "total_energy": -628.826969316, 
			 "HOMO_LUMO_gap": 0.18542, 
			 "cosmo_polarized_energy": -18.82, 
			 "cosmo_cavitation_energy": 26.58, 
			 "cosmo_dispersion_energy": -19.51, 
			 "cosmo_repulsion_energy": 1.54, 
			 "cosmo_total_nonelectrostatic_energy": 8.61, 
			 "SMD_solvation_energy": 6.54 
		},
		"coords": [
			{
				"x": -1.5307143246,
				"y": -0.5116075997,
				"z": -4.5043243362,
				"element": "C" 
			},
			{
				"x": -1.9874064443,
				"y": 0.2034135662,
				"z": -3.2423694406,
				"element": "C" 
			},
			{
				"x": -3.0511206075,
				"y": 0.8050759761,
				"z": -3.2207691114,
				"element": "O" 
			},
			{
				"x": -1.1106992177,
				"y": 0.1555670276,
				"z": -2.0320741961,
				"element": "C" 
			},
			{
				"x": -1.5503455285,
				"y": 0.7885572059,
				"z": -0.8664073729,
				"element": "C" 
			},
			{
				"x": -0.7774292172,
				"y": 0.8099780711,
				"z": 0.2974862281,
				"element": "C" 
			},
			{
				"x": -1.3422087968,
				"y": 1.502147398,
				"z": 1.4948327089,
				"element": "C" 
			},
			{
				"x": -0.3899326132,
				"y": 1.9812048257,
				"z": 2.4171062098,
				"element": "N" 
			},
			{
				"x": -2.5357617039,
				"y": 1.6124891022,
				"z": 1.7082807721,
				"element": "O" 
			},
			{
				"x": 0.4658817829,
				"y": 0.1284025283,
				"z": 0.3090298922,
				"element": "C" 
			},
			{
				"x": 1.265618484,
				"y": 0.0407168556,
				"z": 1.3967592726,
				"element": "O" 
			},
			{
				"x": 0.9081098943,
				"y": -0.5203436152,
				"z": -0.8540066702,
				"element": "C" 
			},
			{
				"x": 0.1356881928,
				"y": -0.4986529847,
				"z": -2.005172358,
				"element": "C" 
			},
			{
				"x": -2.2911833415,
				"y": -0.3779536393,
				"z": -5.2740316245,
				"element": "H" 
			},
			{
				"x": -0.5773792417,
				"y": -0.1080584885,
				"z": -4.8637101754,
				"element": "H" 
			},
			{
				"x": -1.3841783986,
				"y": -1.5818167144,
				"z": -4.3204823425,
				"element": "H" 
			},
			{
				"x": -2.5159607568,
				"y": 1.2827035151,
				"z": -0.868032989,
				"element": "H" 
			},
			{
				"x": -0.8311497182,
				"y": 2.5018243895,
				"z": 3.1684117361,
				"element": "H" 
			},
			{
				"x": 0.3984492765,
				"y": 2.4760411229,
				"z": 2.0106718257,
				"element": "H" 
			},
			{
				"x": 0.8168522438,
				"y": 0.459380753,
				"z": 2.1570210908,
				"element": "H" 
			},
			{
				"x": 1.8596346251,
				"y": -1.0399668332,
				"z": -0.819773753,
				"element": "H" 
			},
			{
				"x": 0.5066354111,
				"y": -1.0046024621,
				"z": -2.8908453664,
				"element": "H" 
			}
		],
		 "valence_orbital": [ 
			{
				"type": "occ",
				"energy": -0.30589,
				"method": "rhf"
			},
			{
				"type": "occ",
				"energy": -0.27822,
				"method": "rhf"
			},
			{
				"type": "occ",
				"energy": -0.26509,
				"method": "rhf"
			},
			{
				"type": "occ",
				"energy": -0.24598,
				"method": "rhf"
			},
			{
				"type": "occ",
				"energy": -0.23956,
				"method": "rhf"
			},
			{
				"type": "unocc",
				"energy": -0.05414,
				"method": "rhf"
			},
			{
				"type": "unocc",
				"energy": -0.0446,
				"method": "rhf"
			},
			{
				"type": "unocc",
				"energy": 0.01597,
				"method": "rhf"
			},
			{
				"type": "unocc",
				"energy": 0.05297,
				"method": "rhf"
			},
			{
				"type": "unocc",
				"energy": 0.07247,
				"method": "rhf"
			}
		],
		"cosmo_sigma_profile": { 
			"-0.025": 0.0,
			"-0.024": 0.0,
			"-0.023": 0.0,
			"-0.022": 0.0,
			"-0.021": 0.0,
			"-0.02": 0.0,
			"-0.019": 0.0,
			"-0.018": 0.0,
			"-0.017": 0.0,
			"-0.016": 0.0,
			"-0.015": 1.09453248104,
			"-0.014": 2.45363156712,
			"-0.013": 2.02476937719,
			"-0.012": 3.31090994993,
			"-0.011": 2.86518586434,
			"-0.01": 3.11615545676,
			"-0.009": 3.78205569604,
			"-0.008": 3.39978289729,
			"-0.007": 6.60455998704,
			"-0.006": 13.3506750947,
			"-0.005": 11.9447478555,
			"-0.004": 11.0817661934,
			"-0.003": 12.1478006019,
			"-0.002": 12.5163843748,
			"-0.001": 14.2852041528,
			"0.0": 12.4457947292,
			"0.001": 14.1138931293,
			"0.002": 17.4149972672,
			"0.003": 11.6659231858,
			"0.004": 5.22127267617,
			"0.005": 4.25913749636,
			"0.006": 4.64016928585,
			"0.007": 3.23728507393,
			"0.008": 5.14219311403,
			"0.009": 4.41188785547,
			"0.01": 6.13387842593,
			"0.011": 5.29993336356,
			"0.012": 9.11732876945,
			"0.013": 4.1271241692,
			"0.014": 0.292009138655,
			"0.015": 0.0,
			"0.016": 0.0,
			"0.017": 0.0,
			"0.018": 0.0,
			"0.019": 0.0,
			"0.02": 0.0,
			"0.021": 0.0,
			"0.022": 0.0,
			"0.023": 0.0,
			"0.024": 0.0,
			"0.025": 0.0
		}
	}
}
