{
	 "smiles": "CC(C)CC1=CSC2=C1C(Cl)=NC(C)=N2", 
	 "Tm": 334.15, 
	 "num_atms": 28, 
	 "gaussian": { 
		 "optdone": 1, 
		 "sigma_profile": "yes", 
		 "theory": "DFT", 
		 "functional": "B3LYP", 
		 "basiset": "6-31G**", 
		 "properties": { 
			 "R2extent": 4288.0825, 
			 "electric_dipole_moment_norm": 2.06148097493, 
			 "electric_quadrupole_moment_norm": 6.84489635787, 
			 "total_energy": -1394.90817463, 
			 "HOMO_LUMO_gap": 0.18164, 
			 "cosmo_polarized_energy": -6.42, 
			 "cosmo_cavitation_energy": 33.68, 
			 "cosmo_dispersion_energy": -24.51, 
			 "cosmo_repulsion_energy": 1.88, 
			 "cosmo_total_nonelectrostatic_energy": 11.06, 
			 "SMD_solvation_energy": 2.27 
		},
		"coords": [
			{
				"x": -0.1106817285,
				"y": -0.3736120586,
				"z": -2.8176805568,
				"element": "C" 
			},
			{
				"x": -1.0546004879,
				"y": -1.50686663,
				"z": -2.3944935637,
				"element": "C" 
			},
			{
				"x": -2.1652226258,
				"y": -1.7163205636,
				"z": -3.4334334471,
				"element": "C" 
			},
			{
				"x": -1.6789974201,
				"y": -1.2764869734,
				"z": -0.993230089,
				"element": "C" 
			},
			{
				"x": -0.6710628991,
				"y": -1.1857983374,
				"z": 0.1334611309,
				"element": "C" 
			},
			{
				"x": -0.0563497495,
				"y": -2.3021168813,
				"z": 0.6231810327,
				"element": "C" 
			},
			{
				"x": 1.112011881,
				"y": -2.0224332997,
				"z": 1.8886448285,
				"element": "S" 
			},
			{
				"x": 0.7935042701,
				"y": -0.3053489238,
				"z": 1.8061816048,
				"element": "C" 
			},
			{
				"x": -0.1900209296,
				"y": -0.0010078327,
				"z": 0.8232233899,
				"element": "C" 
			},
			{
				"x": -0.469957456,
				"y": 1.3819908471,
				"z": 0.7816742662,
				"element": "C" 
			},
			{
				"x": -1.687159827,
				"y": 2.0483861762,
				"z": -0.3088814294,
				"element": "Cl" 
			},
			{
				"x": 0.128328421,
				"y": 2.2681334552,
				"z": 1.5422574368,
				"element": "N" 
			},
			{
				"x": 1.060722943,
				"y": 1.8413545025,
				"z": 2.4246277387,
				"element": "C" 
			},
			{
				"x": 1.7260982354,
				"y": 2.8914835218,
				"z": 3.2675340515,
				"element": "C" 
			},
			{
				"x": 1.4173093335,
				"y": 0.5684084666,
				"z": 2.5941558805,
				"element": "N" 
			},
			{
				"x": 0.7076026558,
				"y": -0.2404881133,
				"z": -2.1031388496,
				"element": "H" 
			},
			{
				"x": -0.6468569727,
				"y": 0.5786736788,
				"z": -2.894178272,
				"element": "H" 
			},
			{
				"x": 0.3340679147,
				"y": -0.5864581566,
				"z": -3.7956684322,
				"element": "H" 
			},
			{
				"x": -0.463818037,
				"y": -2.4326899868,
				"z": -2.3369582649,
				"element": "H" 
			},
			{
				"x": -2.8220427195,
				"y": -2.5494566947,
				"z": -3.1593577962,
				"element": "H" 
			},
			{
				"x": -1.7440379367,
				"y": -1.9323482821,
				"z": -4.4209271006,
				"element": "H" 
			},
			{
				"x": -2.78759045,
				"y": -0.8183610523,
				"z": -3.5280826243,
				"element": "H" 
			},
			{
				"x": -2.3517079588,
				"y": -2.1160353999,
				"z": -0.7797113552,
				"element": "H" 
			},
			{
				"x": -2.3029076771,
				"y": -0.3812154479,
				"z": -1.0195368202,
				"element": "H" 
			},
			{
				"x": -0.2334543636,
				"y": -3.3183709738,
				"z": 0.2950940462,
				"element": "H" 
			},
			{
				"x": 0.9782198673,
				"y": 3.4410927985,
				"z": 3.8481964451,
				"element": "H" 
			},
			{
				"x": 2.2350559955,
				"y": 3.6219577334,
				"z": 2.630212815,
				"element": "H" 
			},
			{
				"x": 2.4476477218,
				"y": 2.4313344279,
				"z": 3.9430339344,
				"element": "H" 
			}
		],
		 "valence_orbital": [ 
			{
				"type": "occ",
				"energy": -0.31187,
				"method": "rhf"
			},
			{
				"type": "occ",
				"energy": -0.30286,
				"method": "rhf"
			},
			{
				"type": "occ",
				"energy": -0.2715,
				"method": "rhf"
			},
			{
				"type": "occ",
				"energy": -0.26483,
				"method": "rhf"
			},
			{
				"type": "occ",
				"energy": -0.23451,
				"method": "rhf"
			},
			{
				"type": "unocc",
				"energy": -0.05287,
				"method": "rhf"
			},
			{
				"type": "unocc",
				"energy": -0.03878,
				"method": "rhf"
			},
			{
				"type": "unocc",
				"energy": 0.00433,
				"method": "rhf"
			},
			{
				"type": "unocc",
				"energy": 0.02036,
				"method": "rhf"
			},
			{
				"type": "unocc",
				"energy": 0.03748,
				"method": "rhf"
			}
		],
		"cosmo_sigma_profile": { 
			"-0.025": 0.0,
			"-0.024": 0.0,
			"-0.023": 0.0,
			"-0.022": 0.0,
			"-0.021": 0.0,
			"-0.02": 0.0,
			"-0.019": 0.0,
			"-0.018": 0.0,
			"-0.017": 0.0,
			"-0.016": 0.0,
			"-0.015": 0.0,
			"-0.014": 0.0,
			"-0.013": 0.0,
			"-0.012": 0.0,
			"-0.011": 0.0,
			"-0.01": 0.0191327280493,
			"-0.009": 1.780095883,
			"-0.008": 2.0816931948,
			"-0.007": 1.83986837699,
			"-0.006": 3.6941487648,
			"-0.005": 6.68728837598,
			"-0.004": 10.9718924818,
			"-0.003": 21.2687502066,
			"-0.002": 37.7445142376,
			"-0.001": 43.1832985668,
			"0.0": 38.3315011399,
			"0.001": 36.2704631437,
			"0.002": 24.1313807733,
			"0.003": 13.3921266199,
			"0.004": 8.50371981142,
			"0.005": 4.71006374259,
			"0.006": 2.98722385172,
			"0.007": 2.32533043865,
			"0.008": 2.91985452403,
			"0.009": 1.87801999673,
			"0.01": 1.78750533767,
			"0.011": 1.43474658339,
			"0.012": 1.80808072913,
			"0.013": 1.17934826699,
			"0.014": 0.0770741455474,
			"0.015": 0.0,
			"0.016": 0.0,
			"0.017": 0.0,
			"0.018": 0.0,
			"0.019": 0.0,
			"0.02": 0.0,
			"0.021": 0.0,
			"0.022": 0.0,
			"0.023": 0.0,
			"0.024": 0.0,
			"0.025": 0.0
		}
	}
}
