{
	 "smiles": "CCCCCCCCC(=O)NCO", 
	 "Tm": 358.15, 
	 "num_atms": 34, 
	 "gaussian": { 
		 "optdone": 1, 
		 "sigma_profile": "yes", 
		 "theory": "DFT", 
		 "functional": "B3LYP", 
		 "basiset": "6-31G**", 
		 "properties": { 
			 "R2extent": 4898.3012, 
			 "electric_dipole_moment_norm": 2.57001128402, 
			 "electric_quadrupole_moment_norm": 15.5723253013, 
			 "total_energy": -598.948929802, 
			 "HOMO_LUMO_gap": 0.27062, 
			 "cosmo_polarized_energy": -14.22, 
			 "cosmo_cavitation_energy": 35.58, 
			 "cosmo_dispersion_energy": -24.76, 
			 "cosmo_repulsion_energy": 2.07, 
			 "cosmo_total_nonelectrostatic_energy": 12.89, 
			 "SMD_solvation_energy": 5.38 
		},
		"coords": [
			{
				"x": 1.8935627157,
				"y": 1.6642012475,
				"z": 4.1820496556,
				"element": "C" 
			},
			{
				"x": 2.5410470128,
				"y": 1.1661845776,
				"z": 2.8840979621,
				"element": "C" 
			},
			{
				"x": 1.5495548962,
				"y": 0.8653821648,
				"z": 1.7469442947,
				"element": "C" 
			},
			{
				"x": 0.8169324698,
				"y": 2.0993290065,
				"z": 1.1986898904,
				"element": "C" 
			},
			{
				"x": -0.1783758015,
				"y": 1.7981129669,
				"z": 0.0642497035,
				"element": "C" 
			},
			{
				"x": 0.4717744912,
				"y": 1.3096076967,
				"z": -1.2394536636,
				"element": "C" 
			},
			{
				"x": -0.5019545443,
				"y": 1.1473293277,
				"z": -2.4187188443,
				"element": "C" 
			},
			{
				"x": -1.5534271102,
				"y": 0.0436676054,
				"z": -2.2425933185,
				"element": "C" 
			},
			{
				"x": -0.9504422432,
				"y": -1.3597043534,
				"z": -2.2495140424,
				"element": "C" 
			},
			{
				"x": 0.1099152572,
				"y": -1.6251334709,
				"z": -2.7975684921,
				"element": "O" 
			},
			{
				"x": -1.6949134515,
				"y": -2.3098212507,
				"z": -1.5795442508,
				"element": "N" 
			},
			{
				"x": -1.4300422759,
				"y": -3.7118578068,
				"z": -1.7244940223,
				"element": "C" 
			},
			{
				"x": -2.2699339601,
				"y": -4.2352925577,
				"z": -2.7469622421,
				"element": "O" 
			},
			{
				"x": 1.3784157622,
				"y": 2.6202533579,
				"z": 4.0436014627,
				"element": "H" 
			},
			{
				"x": 2.6442411691,
				"y": 1.8086343701,
				"z": 4.9662093263,
				"element": "H" 
			},
			{
				"x": 1.1574098567,
				"y": 0.9431003265,
				"z": 4.5567985596,
				"element": "H" 
			},
			{
				"x": 3.2755617761,
				"y": 1.9052558176,
				"z": 2.5352806045,
				"element": "H" 
			},
			{
				"x": 3.1115753478,
				"y": 0.2539172096,
				"z": 3.1007500275,
				"element": "H" 
			},
			{
				"x": 2.0952900819,
				"y": 0.3745183742,
				"z": 0.9320467094,
				"element": "H" 
			},
			{
				"x": 0.8076438822,
				"y": 0.1334493336,
				"z": 2.099624883,
				"element": "H" 
			},
			{
				"x": 0.2728645453,
				"y": 2.5918340868,
				"z": 2.0142384321,
				"element": "H" 
			},
			{
				"x": 1.5583634059,
				"y": 2.830032044,
				"z": 0.8434306292,
				"element": "H" 
			},
			{
				"x": -0.9072847709,
				"y": 1.058369178,
				"z": 0.4242102208,
				"element": "H" 
			},
			{
				"x": -0.7535979506,
				"y": 2.709940185,
				"z": -0.1498490115,
				"element": "H" 
			},
			{
				"x": 1.247095258,
				"y": 2.0303367743,
				"z": -1.5332949182,
				"element": "H" 
			},
			{
				"x": 0.9895429328,
				"y": 0.357293142,
				"z": -1.0796201886,
				"element": "H" 
			},
			{
				"x": 0.0721265388,
				"y": 0.9178829184,
				"z": -3.3217925163,
				"element": "H" 
			},
			{
				"x": -1.0214908747,
				"y": 2.0974096316,
				"z": -2.5986519683,
				"element": "H" 
			},
			{
				"x": -2.1458436385,
				"y": 0.192852212,
				"z": -1.3319600979,
				"element": "H" 
			},
			{
				"x": -2.2657915524,
				"y": 0.0810337886,
				"z": -3.0786133208,
				"element": "H" 
			},
			{
				"x": -2.6229326228,
				"y": -2.0515798813,
				"z": -1.2742555028,
				"element": "H" 
			},
			{
				"x": -1.6275342262,
				"y": -4.2118729863,
				"z": -0.7645427328,
				"element": "H" 
			},
			{
				"x": -0.3683154075,
				"y": -3.8048214831,
				"z": -1.9750545707,
				"element": "H" 
			},
			{
				"x": -1.9743369697,
				"y": -5.1338435532,
				"z": -2.9441386573,
				"element": "H" 
			}
		],
		 "valence_orbital": [ 
			{
				"type": "occ",
				"energy": -0.30334,
				"method": "rhf"
			},
			{
				"type": "occ",
				"energy": -0.2995,
				"method": "rhf"
			},
			{
				"type": "occ",
				"energy": -0.27594,
				"method": "rhf"
			},
			{
				"type": "occ",
				"energy": -0.26345,
				"method": "rhf"
			},
			{
				"type": "occ",
				"energy": -0.24693,
				"method": "rhf"
			},
			{
				"type": "unocc",
				"energy": 0.02369,
				"method": "rhf"
			},
			{
				"type": "unocc",
				"energy": 0.07643,
				"method": "rhf"
			},
			{
				"type": "unocc",
				"energy": 0.08486,
				"method": "rhf"
			},
			{
				"type": "unocc",
				"energy": 0.09383,
				"method": "rhf"
			},
			{
				"type": "unocc",
				"energy": 0.10468,
				"method": "rhf"
			}
		],
		"cosmo_sigma_profile": { 
			"-0.025": 0.0,
			"-0.024": 0.0,
			"-0.023": 0.0,
			"-0.022": 0.0,
			"-0.021": 0.0,
			"-0.02": 0.0,
			"-0.019": 0.0,
			"-0.018": 0.0,
			"-0.017": 0.0643195497501,
			"-0.016": 0.813286939758,
			"-0.015": 1.17453758184,
			"-0.014": 1.94116425371,
			"-0.013": 1.93165869221,
			"-0.012": 1.7518834052,
			"-0.011": 2.3364104305,
			"-0.01": 1.96217868525,
			"-0.009": 2.30999045176,
			"-0.008": 1.96618349677,
			"-0.007": 3.13814513328,
			"-0.006": 3.44724849446,
			"-0.005": 10.7335171401,
			"-0.004": 10.0745037837,
			"-0.003": 11.1423432279,
			"-0.002": 30.3815587131,
			"-0.001": 43.3763754798,
			"0.0": 45.7019164957,
			"0.001": 39.4672227999,
			"0.002": 14.8819635084,
			"0.003": 4.89151377758,
			"0.004": 4.11791856208,
			"0.005": 3.46602124891,
			"0.006": 2.86175949042,
			"0.007": 3.79928115248,
			"0.008": 2.97624173098,
			"0.009": 2.91500210358,
			"0.01": 3.13302007791,
			"0.011": 3.50037482427,
			"0.012": 2.97436519138,
			"0.013": 5.6392200333,
			"0.014": 4.8128005367,
			"0.015": 0.102431482255,
			"0.016": 0.0,
			"0.017": 0.0,
			"0.018": 0.0,
			"0.019": 0.0,
			"0.02": 0.0,
			"0.021": 0.0,
			"0.022": 0.0,
			"0.023": 0.0,
			"0.024": 0.0,
			"0.025": 0.0
		}
	}
}
