{
	 "smiles": "OCC1=C(I)C=CC(O)=C1", 
	 "Tm": 420.15, 
	 "num_atms": 17, 
	 "gaussian": { 
		 "optdone": 1, 
		 "sigma_profile": "no", 
		 "theory": "DFT", 
		 "functional": "B3LYP", 
		 "basiset": "6-31G**", 
		 "properties": { 
			 "R2extent": 1806.5014, 
			 "electric_dipole_moment_norm": 1.74899447969, 
			 "electric_quadrupole_moment_norm": 16.3203323535, 
			 "total_energy": -432.775829852, 
			 "HOMO_LUMO_gap": 0.18739, 
			 "cosmo_polarized_energy": -83399.07, 
			 "cosmo_cavitation_energy": 24.0, 
			 "cosmo_dispersion_energy": -19.05, 
			 "cosmo_repulsion_energy": 1.51, 
			 "cosmo_total_nonelectrostatic_energy": 6.46, 
			 "SMD_solvation_energy": 3.72 
		},
		"coords": [
			{
				"x": 1.490419607,
				"y": 1.2511398732,
				"z": -1.2182314006,
				"element": "O" 
			},
			{
				"x": 1.4568928563,
				"y": 0.913706109,
				"z": 0.1652191075,
				"element": "C" 
			},
			{
				"x": 0.556791191,
				"y": -0.2850502752,
				"z": 0.354200213,
				"element": "C" 
			},
			{
				"x": 0.9423485421,
				"y": -1.5953946041,
				"z": 0.0217611649,
				"element": "C" 
			},
			{
				"x": 2.8795142065,
				"y": -2.0344073955,
				"z": -0.7427261009,
				"element": "I" 
			},
			{
				"x": 0.0660390236,
				"y": -2.6652149853,
				"z": 0.1975583796,
				"element": "C" 
			},
			{
				"x": -1.2151581334,
				"y": -2.4481487346,
				"z": 0.7050313754,
				"element": "C" 
			},
			{
				"x": -1.617404303,
				"y": -1.1529498952,
				"z": 1.0380251251,
				"element": "C" 
			},
			{
				"x": -2.852529095,
				"y": -0.862543496,
				"z": 1.5390865332,
				"element": "O" 
			},
			{
				"x": -0.7305348746,
				"y": -0.0870360681,
				"z": 0.8591436293,
				"element": "C" 
			},
			{
				"x": 2.313350011,
				"y": 1.7252518905,
				"z": -1.389236588,
				"element": "H" 
			},
			{
				"x": 2.4613603495,
				"y": 0.674884263,
				"z": 0.540787269,
				"element": "H" 
			},
			{
				"x": 1.0676690877,
				"y": 1.7495186053,
				"z": 0.7654474959,
				"element": "H" 
			},
			{
				"x": 0.3752300793,
				"y": -3.6726744578,
				"z": -0.0568103602,
				"element": "H" 
			},
			{
				"x": -1.8920247366,
				"y": -3.2888479433,
				"z": 0.8401740075,
				"element": "H" 
			},
			{
				"x": -3.3706139516,
				"y": -1.6753149716,
				"z": 1.6030374615,
				"element": "H" 
			},
			{
				"x": -1.0635498597,
				"y": 0.9133820856,
				"z": 1.1169326878,
				"element": "H" 
			}
		],
		 "valence_orbital": [ 
			{
				"type": "occ",
				"energy": -0.2807,
				"method": "rhf"
			},
			{
				"type": "occ",
				"energy": -0.26955,
				"method": "rhf"
			},
			{
				"type": "occ",
				"energy": -0.26036,
				"method": "rhf"
			},
			{
				"type": "occ",
				"energy": -0.25994,
				"method": "rhf"
			},
			{
				"type": "occ",
				"energy": -0.2203,
				"method": "rhf"
			},
			{
				"type": "unocc",
				"energy": -0.03291,
				"method": "rhf"
			},
			{
				"type": "unocc",
				"energy": -0.01802,
				"method": "rhf"
			},
			{
				"type": "unocc",
				"energy": -0.00519,
				"method": "rhf"
			},
			{
				"type": "unocc",
				"energy": 0.03856,
				"method": "rhf"
			},
			{
				"type": "unocc",
				"energy": 0.05215,
				"method": "rhf"
			}
		],
		"cosmo_sigma_profile": { 
			"0.0": 0.0,
			"0.0": 0.0,
			"0.0": 0.0,
			"0.0": 0.0,
			"0.0": 0.0,
			"0.0": 0.0,
			"0.0": 0.0,
			"0.0": 0.0,
			"0.0": 0.0,
			"0.0": 0.0,
			"0.0": 0.0,
			"0.0": 0.0,
			"0.0": 0.0,
			"0.0": 0.0,
			"0.0": 0.0,
			"0.0": 0.0,
			"0.0": 0.0,
			"0.0": 0.0,
			"0.0": 0.0,
			"0.0": 0.0,
			"0.0": 0.0,
			"0.0": 0.0,
			"0.0": 0.0,
			"0.0": 0.0,
			"0.0": 0.0,
			"0.0": 0.0,
			"0.0": 0.0,
			"0.0": 0.0,
			"0.0": 0.0,
			"0.0": 0.0,
			"0.0": 0.0,
			"0.0": 0.0,
			"0.0": 0.0,
			"0.0": 0.0,
			"0.0": 0.0,
			"0.0": 0.0,
			"0.0": 0.0,
			"0.0": 0.0,
			"0.0": 0.0,
			"0.0": 0.0,
			"0.0": 0.0,
			"0.0": 0.0,
			"0.0": 0.0,
			"0.0": 0.0,
			"0.0": 0.0,
			"0.0": 0.0,
			"0.0": 0.0,
			"0.0": 0.0,
			"0.0": 0.0,
			"0.0": 0.0,
			"0.0": 0.0
		}
	}
}
