{
	 "smiles": "CC1(C)OC2OC3COC(C)(C)OC3C2O1", 
	 "Tm": 317.15, 
	 "num_atms": 34, 
	 "gaussian": { 
		 "optdone": 1, 
		 "sigma_profile": "yes", 
		 "theory": "DFT", 
		 "functional": "B3LYP", 
		 "basiset": "6-31G**", 
		 "properties": { 
			 "R2extent": 4250.6064, 
			 "electric_dipole_moment_norm": 1.19727429188, 
			 "electric_quadrupole_moment_norm": 12.0606109916, 
			 "total_energy": -806.115984633, 
			 "HOMO_LUMO_gap": 0.31103, 
			 "cosmo_polarized_energy": -11.37, 
			 "cosmo_cavitation_energy": 33.42, 
			 "cosmo_dispersion_energy": -24.19, 
			 "cosmo_repulsion_energy": 1.86, 
			 "cosmo_total_nonelectrostatic_energy": 11.09, 
			 "SMD_solvation_energy": 5.19 
		},
		"coords": [
			{
				"x": 1.3374404408,
				"y": -0.5984557114,
				"z": 3.507717981,
				"element": "C" 
			},
			{
				"x": 1.7563988258,
				"y": -0.4510577147,
				"z": 2.0416852521,
				"element": "C" 
			},
			{
				"x": 3.1286415528,
				"y": 0.1833282135,
				"z": 1.8770548624,
				"element": "C" 
			},
			{
				"x": 1.7540086808,
				"y": -1.7177881747,
				"z": 1.3904032791,
				"element": "O" 
			},
			{
				"x": 0.4764788355,
				"y": -1.9368396314,
				"z": 0.8113423331,
				"element": "C" 
			},
			{
				"x": 0.5774643716,
				"y": -2.4507365754,
				"z": -0.4830713364,
				"element": "O" 
			},
			{
				"x": 0.6407087216,
				"y": -1.3705638458,
				"z": -1.4275388433,
				"element": "C" 
			},
			{
				"x": 0.0054820901,
				"y": -1.8138002676,
				"z": -2.7343302896,
				"element": "C" 
			},
			{
				"x": -1.3439106878,
				"y": -2.1898060065,
				"z": -2.536078834,
				"element": "O" 
			},
			{
				"x": -2.1869438085,
				"y": -1.2415877366,
				"z": -1.8709908577,
				"element": "C" 
			},
			{
				"x": -2.8835799999,
				"y": -1.9977892369,
				"z": -0.7363052582,
				"element": "C" 
			},
			{
				"x": -3.1823391341,
				"y": -0.6786466427,
				"z": -2.8843658867,
				"element": "C" 
			},
			{
				"x": -1.4743448876,
				"y": -0.0987613561,
				"z": -1.3941336407,
				"element": "O" 
			},
			{
				"x": -0.1834811895,
				"y": -0.2255383679,
				"z": -0.8085482279,
				"element": "C" 
			},
			{
				"x": -0.1435359807,
				"y": -0.5165401252,
				"z": 0.7091267852,
				"element": "C" 
			},
			{
				"x": 0.7976778487,
				"y": 0.3451139389,
				"z": 1.3338344994,
				"element": "O" 
			},
			{
				"x": 1.3124639404,
				"y": 0.3797947935,
				"z": 3.99585402,
				"element": "H" 
			},
			{
				"x": 2.0409833202,
				"y": -1.243420925,
				"z": 4.0415014348,
				"element": "H" 
			},
			{
				"x": 0.3403441601,
				"y": -1.0431634107,
				"z": 3.5797632721,
				"element": "H" 
			},
			{
				"x": 3.1356203583,
				"y": 1.1852912856,
				"z": 2.3140392044,
				"element": "H" 
			},
			{
				"x": 3.37235056,
				"y": 0.2560832403,
				"z": 0.8149412013,
				"element": "H" 
			},
			{
				"x": 3.8883879532,
				"y": -0.4241770864,
				"z": 2.3755159615,
				"element": "H" 
			},
			{
				"x": -0.0884858328,
				"y": -2.6659022778,
				"z": 1.401991178,
				"element": "H" 
			},
			{
				"x": 1.6846446156,
				"y": -1.0669648831,
				"z": -1.5815057093,
				"element": "H" 
			},
			{
				"x": 0.1096938232,
				"y": -1.0011799709,
				"z": -3.4706542439,
				"element": "H" 
			},
			{
				"x": 0.5067971467,
				"y": -2.7015247154,
				"z": -3.1285883305,
				"element": "H" 
			},
			{
				"x": -3.5383438497,
				"y": -1.3256567101,
				"z": -0.1746602254,
				"element": "H" 
			},
			{
				"x": -3.4837386434,
				"y": -2.8124855574,
				"z": -1.1505723351,
				"element": "H" 
			},
			{
				"x": -2.1459416265,
				"y": -2.4422264333,
				"z": -0.0657630135,
				"element": "H" 
			},
			{
				"x": -3.7669298011,
				"y": -1.4923481874,
				"z": -3.3205081642,
				"element": "H" 
			},
			{
				"x": -3.8594440933,
				"y": 0.0341794912,
				"z": -2.4056019209,
				"element": "H" 
			},
			{
				"x": -2.6409606306,
				"y": -0.1638925561,
				"z": -3.6821626515,
				"element": "H" 
			},
			{
				"x": 0.2887540205,
				"y": 0.745802027,
				"z": -0.9735352466,
				"element": "H" 
			},
			{
				"x": -1.1346611004,
				"y": -0.4240388833,
				"z": 1.1655437511,
				"element": "H" 
			}
		],
		 "valence_orbital": [ 
			{
				"type": "occ",
				"energy": -0.29001,
				"method": "rhf"
			},
			{
				"type": "occ",
				"energy": -0.28183,
				"method": "rhf"
			},
			{
				"type": "occ",
				"energy": -0.26957,
				"method": "rhf"
			},
			{
				"type": "occ",
				"energy": -0.25993,
				"method": "rhf"
			},
			{
				"type": "occ",
				"energy": -0.24429,
				"method": "rhf"
			},
			{
				"type": "unocc",
				"energy": 0.06674,
				"method": "rhf"
			},
			{
				"type": "unocc",
				"energy": 0.0776,
				"method": "rhf"
			},
			{
				"type": "unocc",
				"energy": 0.09154,
				"method": "rhf"
			},
			{
				"type": "unocc",
				"energy": 0.10385,
				"method": "rhf"
			},
			{
				"type": "unocc",
				"energy": 0.10958,
				"method": "rhf"
			}
		],
		"cosmo_sigma_profile": { 
			"-0.025": 0.0,
			"-0.024": 0.0,
			"-0.023": 0.0,
			"-0.022": 0.0,
			"-0.021": 0.0,
			"-0.02": 0.0,
			"-0.019": 0.0,
			"-0.018": 0.0,
			"-0.017": 0.0,
			"-0.016": 0.0,
			"-0.015": 0.0,
			"-0.014": 0.0,
			"-0.013": 0.0,
			"-0.012": 0.0,
			"-0.011": 0.0,
			"-0.01": 0.0,
			"-0.009": 0.0,
			"-0.008": 0.0,
			"-0.007": 2.4173118863,
			"-0.006": 16.0920268785,
			"-0.005": 17.6937396019,
			"-0.004": 28.6868590291,
			"-0.003": 29.751571548,
			"-0.002": 26.5535746988,
			"-0.001": 25.9071818247,
			"0.0": 29.1166561289,
			"0.001": 16.0366167281,
			"0.002": 7.74648772932,
			"0.003": 6.3755852399,
			"0.004": 5.1186873722,
			"0.005": 5.72604095493,
			"0.006": 5.80602326384,
			"0.007": 5.75058090116,
			"0.008": 4.92069507144,
			"0.009": 5.45413961096,
			"0.01": 5.39843962183,
			"0.011": 7.70455618547,
			"0.012": 6.48624431295,
			"0.013": 0.321826720768,
			"0.014": 0.0,
			"0.015": 0.0,
			"0.016": 0.0,
			"0.017": 0.0,
			"0.018": 0.0,
			"0.019": 0.0,
			"0.02": 0.0,
			"0.021": 0.0,
			"0.022": 0.0,
			"0.023": 0.0,
			"0.024": 0.0,
			"0.025": 0.0
		}
	}
}
