{
	 "smiles": "CN1C=CC2=C1C(Cl)=NC=C2", 
	 "Tm": 331.15, 
	 "num_atms": 18, 
	 "gaussian": { 
		 "optdone": 1, 
		 "sigma_profile": "yes", 
		 "theory": "DFT", 
		 "functional": "B3LYP", 
		 "basiset": "6-31G**", 
		 "properties": { 
			 "R2extent": 2245.3196, 
			 "electric_dipole_moment_norm": 4.23487318464, 
			 "electric_quadrupole_moment_norm": 12.6613024682, 
			 "total_energy": -878.76118066, 
			 "HOMO_LUMO_gap": 0.19025, 
			 "cosmo_polarized_energy": -9.08, 
			 "cosmo_cavitation_energy": 23.27, 
			 "cosmo_dispersion_energy": -17.63, 
			 "cosmo_repulsion_energy": 1.38, 
			 "cosmo_total_nonelectrostatic_energy": 7.03, 
			 "SMD_solvation_energy": 2.6 
		},
		"coords": [
			{
				"x": 0.3668921566,
				"y": -0.3794336411,
				"z": 2.1589899864,
				"element": "C" 
			},
			{
				"x": 0.7953180832,
				"y": 0.0696984791,
				"z": 0.8401541758,
				"element": "N" 
			},
			{
				"x": 1.3000519862,
				"y": 1.3285867868,
				"z": 0.5854410043,
				"element": "C" 
			},
			{
				"x": 1.6195677688,
				"y": 1.4713234711,
				"z": -0.7402026238,
				"element": "C" 
			},
			{
				"x": 1.3002800621,
				"y": 0.2304031904,
				"z": -1.3704324401,
				"element": "C" 
			},
			{
				"x": 0.7848483921,
				"y": -0.630567275,
				"z": -0.3546451845,
				"element": "C" 
			},
			{
				"x": 0.393327675,
				"y": -1.9268264335,
				"z": -0.7264812205,
				"element": "C" 
			},
			{
				"x": -0.2583878089,
				"y": -3.0627852927,
				"z": 0.4728006849,
				"element": "Cl" 
			},
			{
				"x": 0.4810307424,
				"y": -2.3726799911,
				"z": -1.9537174546,
				"element": "N" 
			},
			{
				"x": 0.9698077824,
				"y": -1.5566418742,
				"z": -2.9175336509,
				"element": "C" 
			},
			{
				"x": 1.3898162396,
				"y": -0.259635529,
				"z": -2.6853021166,
				"element": "C" 
			},
			{
				"x": 0.5214855303,
				"y": 0.4422626897,
				"z": 2.8604750447,
				"element": "H" 
			},
			{
				"x": -0.6910069912,
				"y": -0.6507333648,
				"z": 2.158920178,
				"element": "H" 
			},
			{
				"x": 0.948965339,
				"y": -1.242110341,
				"z": 2.4902251554,
				"element": "H" 
			},
			{
				"x": 1.3914419269,
				"y": 2.0380227114,
				"z": 1.3963657373,
				"element": "H" 
			},
			{
				"x": 2.0317022448,
				"y": 2.3537134143,
				"z": -1.2072621014,
				"element": "H" 
			},
			{
				"x": 1.0159857842,
				"y": -1.988154511,
				"z": -3.9138750526,
				"element": "H" 
			},
			{
				"x": 1.7742730866,
				"y": 0.3541575105,
				"z": -3.4935201218,
				"element": "H" 
			}
		],
		 "valence_orbital": [ 
			{
				"type": "occ",
				"energy": -0.30955,
				"method": "rhf"
			},
			{
				"type": "occ",
				"energy": -0.28416,
				"method": "rhf"
			},
			{
				"type": "occ",
				"energy": -0.26327,
				"method": "rhf"
			},
			{
				"type": "occ",
				"energy": -0.24385,
				"method": "rhf"
			},
			{
				"type": "occ",
				"energy": -0.21878,
				"method": "rhf"
			},
			{
				"type": "unocc",
				"energy": -0.02853,
				"method": "rhf"
			},
			{
				"type": "unocc",
				"energy": 0.00395,
				"method": "rhf"
			},
			{
				"type": "unocc",
				"energy": 0.03704,
				"method": "rhf"
			},
			{
				"type": "unocc",
				"energy": 0.05704,
				"method": "rhf"
			},
			{
				"type": "unocc",
				"energy": 0.08816,
				"method": "rhf"
			}
		],
		"cosmo_sigma_profile": { 
			"-0.025": 0.0,
			"-0.024": 0.0,
			"-0.023": 0.0,
			"-0.022": 0.0,
			"-0.021": 0.0,
			"-0.02": 0.0,
			"-0.019": 0.0,
			"-0.018": 0.0,
			"-0.017": 0.0,
			"-0.016": 0.0,
			"-0.015": 0.0,
			"-0.014": 0.0,
			"-0.013": 0.0,
			"-0.012": 0.0,
			"-0.011": 0.0,
			"-0.01": 0.329734626299,
			"-0.009": 2.51135337849,
			"-0.008": 3.3595827016,
			"-0.007": 5.03271606569,
			"-0.006": 10.3087947138,
			"-0.005": 13.259014332,
			"-0.004": 14.9300912283,
			"-0.003": 15.3733865932,
			"-0.002": 11.6763518676,
			"-0.001": 11.5855953393,
			"0.0": 11.4714437549,
			"0.001": 15.7013349919,
			"0.002": 15.8115854189,
			"0.003": 16.3572583462,
			"0.004": 14.8728050122,
			"0.005": 10.3438833448,
			"0.006": 4.00967090806,
			"0.007": 2.42227521912,
			"0.008": 1.66471929387,
			"0.009": 1.61587803969,
			"0.01": 1.36737346287,
			"0.011": 1.1469964377,
			"0.012": 0.964604827181,
			"0.013": 1.10883680243,
			"0.014": 0.824620509294,
			"0.015": 0.908511247848,
			"0.016": 0.147260916521,
			"0.017": 0.0,
			"0.018": 0.0,
			"0.019": 0.0,
			"0.02": 0.0,
			"0.021": 0.0,
			"0.022": 0.0,
			"0.023": 0.0,
			"0.024": 0.0,
			"0.025": 0.0
		}
	}
}
