{
	 "smiles": "NCCNS(=O)(=O)C1=CC(Cl)=CC=C1", 
	 "Tm": 358.15, 
	 "num_atms": 25, 
	 "gaussian": { 
		 "optdone": 1, 
		 "sigma_profile": "yes", 
		 "theory": "DFT", 
		 "functional": "B3LYP", 
		 "basiset": "6-31G**", 
		 "properties": { 
			 "R2extent": 5466.8242, 
			 "electric_dipole_moment_norm": 3.30578234159, 
			 "electric_quadrupole_moment_norm": 24.8077386964, 
			 "total_energy": -1429.73550842, 
			 "HOMO_LUMO_gap": 0.1919, 
			 "cosmo_polarized_energy": -17.16, 
			 "cosmo_cavitation_energy": 32.25, 
			 "cosmo_dispersion_energy": -22.95, 
			 "cosmo_repulsion_energy": 1.81, 
			 "cosmo_total_nonelectrostatic_energy": 11.11, 
			 "SMD_solvation_energy": 2.7 
		},
		"coords": [
			{
				"x": -1.958248235,
				"y": -1.4859581543,
				"z": -0.410087681,
				"element": "N" 
			},
			{
				"x": -1.1325021359,
				"y": -2.587133897,
				"z": -0.8926416875,
				"element": "C" 
			},
			{
				"x": 0.3334799654,
				"y": -2.2507102005,
				"z": -1.2129686215,
				"element": "C" 
			},
			{
				"x": 1.0072297041,
				"y": -1.7832264971,
				"z": 0.0125737002,
				"element": "N" 
			},
			{
				"x": 2.5598481671,
				"y": -1.1239337502,
				"z": -0.1332213622,
				"element": "S" 
			},
			{
				"x": 3.1419746481,
				"y": -1.2439287544,
				"z": 1.2063916427,
				"element": "O" 
			},
			{
				"x": 3.2453316136,
				"y": -1.6517902448,
				"z": -1.318080978,
				"element": "O" 
			},
			{
				"x": 2.1997433748,
				"y": 0.6074756515,
				"z": -0.4559193709,
				"element": "C" 
			},
			{
				"x": 2.3842672716,
				"y": 1.101945303,
				"z": -1.7462734843,
				"element": "C" 
			},
			{
				"x": 2.1062450373,
				"y": 2.449471235,
				"z": -1.9784164169,
				"element": "C" 
			},
			{
				"x": 2.3230338548,
				"y": 3.102796245,
				"z": -3.5918639268,
				"element": "Cl" 
			},
			{
				"x": 1.6643536514,
				"y": 3.2847086823,
				"z": -0.9526491696,
				"element": "C" 
			},
			{
				"x": 1.4998115898,
				"y": 2.7632551678,
				"z": 0.3333804762,
				"element": "C" 
			},
			{
				"x": 1.7662872489,
				"y": 1.4206817134,
				"z": 0.5934467852,
				"element": "C" 
			},
			{
				"x": -2.0495190846,
				"y": -0.7786068698,
				"z": -1.1360472572,
				"element": "H" 
			},
			{
				"x": -1.4871157342,
				"y": -1.0317567938,
				"z": 0.3691948232,
				"element": "H" 
			},
			{
				"x": -1.5913221601,
				"y": -3.0026718736,
				"z": -1.7971314919,
				"element": "H" 
			},
			{
				"x": -1.1568239592,
				"y": -3.3912401961,
				"z": -0.1439261694,
				"element": "H" 
			},
			{
				"x": 0.3696849888,
				"y": -1.4346773556,
				"z": -1.9430556719,
				"element": "H" 
			},
			{
				"x": 0.8460275415,
				"y": -3.1134820822,
				"z": -1.6586048862,
				"element": "H" 
			},
			{
				"x": 1.0637203862,
				"y": -2.4926221376,
				"z": 0.7424751837,
				"element": "H" 
			},
			{
				"x": 2.7492235181,
				"y": 0.4544995332,
				"z": -2.5345756228,
				"element": "H" 
			},
			{
				"x": 1.458825689,
				"y": 4.3293752286,
				"z": -1.1580765738,
				"element": "H" 
			},
			{
				"x": 1.1660162912,
				"y": 3.4146355096,
				"z": 1.1350460516,
				"element": "H" 
			},
			{
				"x": 1.6566267673,
				"y": 1.0085945376,
				"z": 1.5902317093,
				"element": "H" 
			}
		],
		 "valence_orbital": [ 
			{
				"type": "occ",
				"energy": -0.30931,
				"method": "rhf"
			},
			{
				"type": "occ",
				"energy": -0.29694,
				"method": "rhf"
			},
			{
				"type": "occ",
				"energy": -0.27801,
				"method": "rhf"
			},
			{
				"type": "occ",
				"energy": -0.26551,
				"method": "rhf"
			},
			{
				"type": "occ",
				"energy": -0.24476,
				"method": "rhf"
			},
			{
				"type": "unocc",
				"energy": -0.05286,
				"method": "rhf"
			},
			{
				"type": "unocc",
				"energy": -0.03602,
				"method": "rhf"
			},
			{
				"type": "unocc",
				"energy": 0.01044,
				"method": "rhf"
			},
			{
				"type": "unocc",
				"energy": 0.05248,
				"method": "rhf"
			},
			{
				"type": "unocc",
				"energy": 0.0795,
				"method": "rhf"
			}
		],
		"cosmo_sigma_profile": { 
			"-0.025": 0.0,
			"-0.024": 0.0,
			"-0.023": 0.0,
			"-0.022": 0.0,
			"-0.021": 0.0,
			"-0.02": 0.0,
			"-0.019": 0.0,
			"-0.018": 0.0,
			"-0.017": 0.0,
			"-0.016": 0.0,
			"-0.015": 0.0910650440909,
			"-0.014": 0.915674988491,
			"-0.013": 1.22480239349,
			"-0.012": 1.12559568669,
			"-0.011": 1.59228344199,
			"-0.01": 1.47351927393,
			"-0.009": 2.6894556809,
			"-0.008": 8.30208566672,
			"-0.007": 11.9647049065,
			"-0.006": 11.8911514445,
			"-0.005": 15.9271393237,
			"-0.004": 22.0543165245,
			"-0.003": 15.1157751277,
			"-0.002": 16.6101966947,
			"-0.001": 16.7068288448,
			"0.0": 19.0599304711,
			"0.001": 23.1243581993,
			"0.002": 15.9514694993,
			"0.003": 12.2946615049,
			"0.004": 14.4722264543,
			"0.005": 4.96771193044,
			"0.006": 2.99258531431,
			"0.007": 3.40790198075,
			"0.008": 3.3625718203,
			"0.009": 4.70025371773,
			"0.01": 9.03758464444,
			"0.011": 8.86339500251,
			"0.012": 2.86319563838,
			"0.013": 0.479752775989,
			"0.014": 0.991151256673,
			"0.015": 0.538149402698,
			"0.016": 0.629375901994,
			"0.017": 0.7240025523,
			"0.018": 0.426165375804,
			"0.019": 0.832007820658,
			"0.02": 0.211623424345,
			"0.021": 0.0,
			"0.022": 0.0,
			"0.023": 0.0,
			"0.024": 0.0,
			"0.025": 0.0
		}
	}
}
