{
	 "smiles": "OC(=O)CNC1=NC=C(C=C1)C(F)(F)F", 
	 "Tm": 408.15, 
	 "num_atms": 22, 
	 "gaussian": { 
		 "optdone": 1, 
		 "sigma_profile": "yes", 
		 "theory": "DFT", 
		 "functional": "B3LYP", 
		 "basiset": "6-31G**", 
		 "properties": { 
			 "R2extent": 5322.213, 
			 "electric_dipole_moment_norm": 4.93107502072, 
			 "electric_quadrupole_moment_norm": 10.9427707995, 
			 "total_energy": -868.561768069, 
			 "HOMO_LUMO_gap": 0.19581, 
			 "cosmo_polarized_energy": -15.38, 
			 "cosmo_cavitation_energy": 28.88, 
			 "cosmo_dispersion_energy": -20.32, 
			 "cosmo_repulsion_energy": 1.55, 
			 "cosmo_total_nonelectrostatic_energy": 10.11, 
			 "SMD_solvation_energy": 5.18 
		},
		"coords": [
			{
				"x": 2.7146448374,
				"y": -1.3874762229,
				"z": 2.9314024268,
				"element": "O" 
			},
			{
				"x": 1.5391662761,
				"y": -0.9205889884,
				"z": 2.4497708086,
				"element": "C" 
			},
			{
				"x": 0.8026663517,
				"y": -0.1905560226,
				"z": 3.0675020569,
				"element": "O" 
			},
			{
				"x": 1.2828073563,
				"y": -1.4675849104,
				"z": 1.0431101195,
				"element": "C" 
			},
			{
				"x": 0.1193674348,
				"y": -0.9268044404,
				"z": 0.399264758,
				"element": "N" 
			},
			{
				"x": 0.0243028458,
				"y": 0.3660905091,
				"z": -0.0682112774,
				"element": "C" 
			},
			{
				"x": -1.2276992244,
				"y": 0.7620907827,
				"z": -0.3623481808,
				"element": "N" 
			},
			{
				"x": -1.4009872116,
				"y": 1.9805245706,
				"z": -0.871117109,
				"element": "C" 
			},
			{
				"x": -0.3577522006,
				"y": 2.8751646591,
				"z": -1.1163594942,
				"element": "C" 
			},
			{
				"x": 0.9411114408,
				"y": 2.4616023828,
				"z": -0.7977447477,
				"element": "C" 
			},
			{
				"x": 1.1466491749,
				"y": 1.2007822836,
				"z": -0.2645679138,
				"element": "C" 
			},
			{
				"x": -0.6076302253,
				"y": 4.2126693671,
				"z": -1.7385776499,
				"element": "C" 
			},
			{
				"x": -0.4095366768,
				"y": 4.1979193317,
				"z": -3.0801211146,
				"element": "F" 
			},
			{
				"x": -1.8753147072,
				"y": 4.6359663108,
				"z": -1.5368634238,
				"element": "F" 
			},
			{
				"x": 0.2243205361,
				"y": 5.1585636638,
				"z": -1.2409075531,
				"element": "F" 
			},
			{
				"x": 2.8097592164,
				"y": -1.0271588032,
				"z": 3.8293833885,
				"element": "H" 
			},
			{
				"x": 2.1808034023,
				"y": -1.3084449665,
				"z": 0.436831943,
				"element": "H" 
			},
			{
				"x": 1.1756870552,
				"y": -2.5545276501,
				"z": 1.1263102227,
				"element": "H" 
			},
			{
				"x": -0.7788731353,
				"y": -1.3020936074,
				"z": 0.6723764509,
				"element": "H" 
			},
			{
				"x": -2.4271267223,
				"y": 2.2675403802,
				"z": -1.0875447096,
				"element": "H" 
			},
			{
				"x": 1.7800464323,
				"y": 3.132098383,
				"z": -0.9547315275,
				"element": "H" 
			},
			{
				"x": 2.1462877433,
				"y": 0.8773229874,
				"z": 0.0002425267,
				"element": "H" 
			}
		],
		 "valence_orbital": [ 
			{
				"type": "occ",
				"energy": -0.32478,
				"method": "rhf"
			},
			{
				"type": "occ",
				"energy": -0.29528,
				"method": "rhf"
			},
			{
				"type": "occ",
				"energy": -0.29077,
				"method": "rhf"
			},
			{
				"type": "occ",
				"energy": -0.26892,
				"method": "rhf"
			},
			{
				"type": "occ",
				"energy": -0.2262,
				"method": "rhf"
			},
			{
				"type": "unocc",
				"energy": -0.03039,
				"method": "rhf"
			},
			{
				"type": "unocc",
				"energy": -0.01387,
				"method": "rhf"
			},
			{
				"type": "unocc",
				"energy": -0.00595,
				"method": "rhf"
			},
			{
				"type": "unocc",
				"energy": 0.06261,
				"method": "rhf"
			},
			{
				"type": "unocc",
				"energy": 0.07708,
				"method": "rhf"
			}
		],
		"cosmo_sigma_profile": { 
			"-0.025": 0.0,
			"-0.024": 0.0,
			"-0.023": 0.0,
			"-0.022": 0.0,
			"-0.021": 0.0,
			"-0.02": 0.0,
			"-0.019": 0.253859184217,
			"-0.018": 1.038131185,
			"-0.017": 0.834553511678,
			"-0.016": 0.618003519176,
			"-0.015": 0.940407606011,
			"-0.014": 0.983593467887,
			"-0.013": 1.77201354461,
			"-0.012": 1.7791714152,
			"-0.011": 2.11572404748,
			"-0.01": 2.7903669634,
			"-0.009": 5.08701917772,
			"-0.008": 8.40261847187,
			"-0.007": 8.55098196703,
			"-0.006": 10.5735551071,
			"-0.005": 8.17234066579,
			"-0.004": 9.05205196034,
			"-0.003": 8.13724922285,
			"-0.002": 9.19207770885,
			"-0.001": 11.2515648801,
			"0.0": 12.7506605613,
			"0.001": 18.4613402117,
			"0.002": 24.2102371545,
			"0.003": 35.5540991977,
			"0.004": 10.5743310429,
			"0.005": 5.39822931235,
			"0.006": 5.17158238125,
			"0.007": 4.45024974922,
			"0.008": 4.99810699871,
			"0.009": 4.12387731545,
			"0.01": 3.10026344633,
			"0.011": 5.26027326917,
			"0.012": 3.24308116847,
			"0.013": 0.788629314126,
			"0.014": 0.800390003901,
			"0.015": 0.141263433669,
			"0.016": 0.0,
			"0.017": 0.0,
			"0.018": 0.0,
			"0.019": 0.0,
			"0.02": 0.0,
			"0.021": 0.0,
			"0.022": 0.0,
			"0.023": 0.0,
			"0.024": 0.0,
			"0.025": 0.0
		}
	}
}
