{
	 "smiles": "CC(=O)NC1=CC=C(C=C1)C(N)=S", 
	 "Tm": 513.15, 
	 "num_atms": 23, 
	 "gaussian": { 
		 "optdone": 1, 
		 "sigma_profile": "yes", 
		 "theory": "DFT", 
		 "functional": "B3LYP", 
		 "basiset": "6-31G**", 
		 "properties": { 
			 "R2extent": 4744.5156, 
			 "electric_dipole_moment_norm": 3.64629673779, 
			 "electric_quadrupole_moment_norm": 34.5914499903, 
			 "total_energy": -931.925777686, 
			 "HOMO_LUMO_gap": 0.14334, 
			 "cosmo_polarized_energy": -22.44, 
			 "cosmo_cavitation_energy": 28.97, 
			 "cosmo_dispersion_energy": -21.63, 
			 "cosmo_repulsion_energy": 1.68, 
			 "cosmo_total_nonelectrostatic_energy": 9.02, 
			 "SMD_solvation_energy": 4.92 
		},
		"coords": [
			{
				"x": -1.2515416374,
				"y": -0.1616989575,
				"z": -3.3813956652,
				"element": "C" 
			},
			{
				"x": -1.9427400352,
				"y": 0.9991791021,
				"z": -2.6962641462,
				"element": "C" 
			},
			{
				"x": -3.007468531,
				"y": 1.4466628091,
				"z": -3.0929159633,
				"element": "O" 
			},
			{
				"x": -1.3390216568,
				"y": 1.5959580889,
				"z": -1.5930068269,
				"element": "N" 
			},
			{
				"x": -0.1356390583,
				"y": 1.3546349928,
				"z": -0.9108853347,
				"element": "C" 
			},
			{
				"x": 0.5273085186,
				"y": 2.4523721699,
				"z": -0.3348225674,
				"element": "C" 
			},
			{
				"x": 1.7006275061,
				"y": 2.2745462749,
				"z": 0.3862877408,
				"element": "C" 
			},
			{
				"x": 2.2683674968,
				"y": 0.997110522,
				"z": 0.5448157636,
				"element": "C" 
			},
			{
				"x": 1.603756398,
				"y": -0.0927496739,
				"z": -0.0379329956,
				"element": "C" 
			},
			{
				"x": 0.4133614518,
				"y": 0.0726359898,
				"z": -0.7344456494,
				"element": "C" 
			},
			{
				"x": 3.5308458009,
				"y": 0.7929748917,
				"z": 1.3006007816,
				"element": "C" 
			},
			{
				"x": 3.7848954037,
				"y": 1.7145759933,
				"z": 2.2611598909,
				"element": "N" 
			},
			{
				"x": 4.6018772455,
				"y": -0.4499942447,
				"z": 0.988961377,
				"element": "S" 
			},
			{
				"x": -1.6386229579,
				"y": -0.2101066326,
				"z": -4.3995155208,
				"element": "H" 
			},
			{
				"x": -1.5010817552,
				"y": -1.1036492398,
				"z": -2.8813960095,
				"element": "H" 
			},
			{
				"x": -0.1639953528,
				"y": -0.0609908568,
				"z": -3.3969892047,
				"element": "H" 
			},
			{
				"x": -1.8435637304,
				"y": 2.4324497376,
				"z": -1.3237096844,
				"element": "H" 
			},
			{
				"x": 0.1264001293,
				"y": 3.4520949471,
				"z": -0.4781492357,
				"element": "H" 
			},
			{
				"x": 2.2077475028,
				"y": 3.1504289766,
				"z": 0.7799781192,
				"element": "H" 
			},
			{
				"x": 2.0282798074,
				"y": -1.0830524793,
				"z": 0.0851617778,
				"element": "H" 
			},
			{
				"x": -0.1000566559,
				"y": -0.8000896377,
				"z": -1.1165071856,
				"element": "H" 
			},
			{
				"x": 3.0536093169,
				"y": 2.3111601462,
				"z": 2.6189024441,
				"element": "H" 
			},
			{
				"x": 4.6181547931,
				"y": 1.5944470804,
				"z": 2.8184680946,
				"element": "H" 
			}
		],
		 "valence_orbital": [ 
			{
				"type": "occ",
				"energy": -0.27484,
				"method": "rhf"
			},
			{
				"type": "occ",
				"energy": -0.26354,
				"method": "rhf"
			},
			{
				"type": "occ",
				"energy": -0.24596,
				"method": "rhf"
			},
			{
				"type": "occ",
				"energy": -0.22801,
				"method": "rhf"
			},
			{
				"type": "occ",
				"energy": -0.20934,
				"method": "rhf"
			},
			{
				"type": "unocc",
				"energy": -0.066,
				"method": "rhf"
			},
			{
				"type": "unocc",
				"energy": -0.02547,
				"method": "rhf"
			},
			{
				"type": "unocc",
				"energy": -0.00062,
				"method": "rhf"
			},
			{
				"type": "unocc",
				"energy": 0.03393,
				"method": "rhf"
			},
			{
				"type": "unocc",
				"energy": 0.06479,
				"method": "rhf"
			}
		],
		"cosmo_sigma_profile": { 
			"-0.025": 0.0,
			"-0.024": 0.0,
			"-0.023": 0.0,
			"-0.022": 0.0,
			"-0.021": 0.0,
			"-0.02": 0.0,
			"-0.019": 0.0,
			"-0.018": 0.0,
			"-0.017": 0.0,
			"-0.016": 0.0781876721543,
			"-0.015": 1.74965339084,
			"-0.014": 3.97990448622,
			"-0.013": 3.52873643779,
			"-0.012": 3.76262497827,
			"-0.011": 3.0231798292,
			"-0.01": 3.12783460152,
			"-0.009": 4.45199603967,
			"-0.008": 5.96765174771,
			"-0.007": 8.19811875519,
			"-0.006": 8.80686882787,
			"-0.005": 14.4879305362,
			"-0.004": 12.6235741279,
			"-0.003": 13.2057647788,
			"-0.002": 14.6746934275,
			"-0.001": 13.4825669025,
			"0.0": 10.7948104917,
			"0.001": 13.6799808353,
			"0.002": 12.0285476045,
			"0.003": 16.5433863958,
			"0.004": 9.41661084581,
			"0.005": 4.60256463542,
			"0.006": 5.51283745057,
			"0.007": 6.15778465118,
			"0.008": 6.98608414837,
			"0.009": 8.07920275689,
			"0.01": 6.71374607203,
			"0.011": 4.57501804976,
			"0.012": 5.48496457802,
			"0.013": 5.37665169067,
			"0.014": 2.15723111773,
			"0.015": 0.0925938529837,
			"0.016": 0.0,
			"0.017": 0.0,
			"0.018": 0.0,
			"0.019": 0.0,
			"0.02": 0.0,
			"0.021": 0.0,
			"0.022": 0.0,
			"0.023": 0.0,
			"0.024": 0.0,
			"0.025": 0.0
		}
	}
}
