{
	 "smiles": "FC1=CC=C(C=C1)N1N=CC=C1Br", 
	 "Tm": 347.15, 
	 "num_atms": 19, 
	 "gaussian": { 
		 "optdone": 1, 
		 "sigma_profile": "yes", 
		 "theory": "DFT", 
		 "functional": "B3LYP", 
		 "basiset": "6-31G**", 
		 "properties": { 
			 "R2extent": 4002.1185, 
			 "electric_dipole_moment_norm": 1.03046988796, 
			 "electric_quadrupole_moment_norm": 5.63033258076, 
			 "total_energy": -3127.279658, 
			 "HOMO_LUMO_gap": 0.21186, 
			 "cosmo_polarized_energy": -6.42, 
			 "cosmo_cavitation_energy": 26.48, 
			 "cosmo_dispersion_energy": -19.58, 
			 "cosmo_repulsion_energy": 1.51, 
			 "cosmo_total_nonelectrostatic_energy": 8.41, 
			 "SMD_solvation_energy": 3.57 
		},
		"coords": [
			{
				"x": -1.3808667463,
				"y": 1.8001854111,
				"z": -3.9554367958,
				"element": "F" 
			},
			{
				"x": -1.0100670613,
				"y": 1.6128722806,
				"z": -2.673320077,
				"element": "C" 
			},
			{
				"x": -1.8198430537,
				"y": 0.8458350027,
				"z": -1.8416709024,
				"element": "C" 
			},
			{
				"x": -1.4289202556,
				"y": 0.6462840691,
				"z": -0.5205998191,
				"element": "C" 
			},
			{
				"x": -0.2444119223,
				"y": 1.2213558075,
				"z": -0.0487715349,
				"element": "C" 
			},
			{
				"x": 0.5454990904,
				"y": 2.0088799741,
				"z": -0.8912534368,
				"element": "C" 
			},
			{
				"x": 0.1665979698,
				"y": 2.197409966,
				"z": -2.2194315646,
				"element": "C" 
			},
			{
				"x": 0.1107824354,
				"y": 1.0217586903,
				"z": 1.3173760532,
				"element": "N" 
			},
			{
				"x": -0.8546217397,
				"y": 1.1391042152,
				"z": 2.2716101616,
				"element": "N" 
			},
			{
				"x": -0.2430818598,
				"y": 0.8759107056,
				"z": 3.4225458681,
				"element": "C" 
			},
			{
				"x": 1.1239928308,
				"y": 0.5805830777,
				"z": 3.245555804,
				"element": "C" 
			},
			{
				"x": 1.3102416855,
				"y": 0.6779793851,
				"z": 1.8825838459,
				"element": "C" 
			},
			{
				"x": 2.8803342994,
				"y": 0.3212911135,
				"z": 0.9113934889,
				"element": "Br" 
			},
			{
				"x": -2.733589425,
				"y": 0.4123005405,
				"z": -2.2325761961,
				"element": "H" 
			},
			{
				"x": -2.0365495988,
				"y": 0.0581925094,
				"z": 0.1566824724,
				"element": "H" 
			},
			{
				"x": 1.4448095292,
				"y": 2.4793977282,
				"z": -0.5130242498,
				"element": "H" 
			},
			{
				"x": 0.7615533391,
				"y": 2.8017737691,
				"z": -2.8949203888,
				"element": "H" 
			},
			{
				"x": -0.8072796297,
				"y": 0.9130432713,
				"z": 4.3449096079,
				"element": "H" 
			},
			{
				"x": 1.8677201125,
				"y": 0.323342483,
				"z": 3.9830476634,
				"element": "H" 
			}
		],
		 "valence_orbital": [ 
			{
				"type": "occ",
				"energy": -0.2912,
				"method": "rhf"
			},
			{
				"type": "occ",
				"energy": -0.28683,
				"method": "rhf"
			},
			{
				"type": "occ",
				"energy": -0.27073,
				"method": "rhf"
			},
			{
				"type": "occ",
				"energy": -0.24522,
				"method": "rhf"
			},
			{
				"type": "occ",
				"energy": -0.23752,
				"method": "rhf"
			},
			{
				"type": "unocc",
				"energy": -0.02566,
				"method": "rhf"
			},
			{
				"type": "unocc",
				"energy": -0.02153,
				"method": "rhf"
			},
			{
				"type": "unocc",
				"energy": -0.001,
				"method": "rhf"
			},
			{
				"type": "unocc",
				"energy": 0.01949,
				"method": "rhf"
			},
			{
				"type": "unocc",
				"energy": 0.0573,
				"method": "rhf"
			}
		],
		"cosmo_sigma_profile": { 
			"-0.025": 0.0,
			"-0.024": 0.0,
			"-0.023": 0.0,
			"-0.022": 0.0,
			"-0.021": 0.0,
			"-0.02": 0.0,
			"-0.019": 0.0,
			"-0.018": 0.0,
			"-0.017": 0.0,
			"-0.016": 0.0,
			"-0.015": 0.0,
			"-0.014": 0.0,
			"-0.013": 0.0,
			"-0.012": 0.0,
			"-0.011": 0.0,
			"-0.01": 0.0,
			"-0.009": 0.0363953287312,
			"-0.008": 4.44197337853,
			"-0.007": 10.2159811142,
			"-0.006": 12.1942100608,
			"-0.005": 12.6235949228,
			"-0.004": 10.2635388913,
			"-0.003": 10.0600402092,
			"-0.002": 11.5954033586,
			"-0.001": 15.3311632176,
			"0.0": 19.6461772778,
			"0.001": 23.9867473192,
			"0.002": 26.6092146188,
			"0.003": 29.291259882,
			"0.004": 16.1368967379,
			"0.005": 3.4095653017,
			"0.006": 2.41308810094,
			"0.007": 1.47788618687,
			"0.008": 1.18836258341,
			"0.009": 1.94487466323,
			"0.01": 0.670662049807,
			"0.011": 1.03958166471,
			"0.012": 1.03293187307,
			"0.013": 0.901656558295,
			"0.014": 0.748066735957,
			"0.015": 0.0822127414892,
			"0.016": 0.0,
			"0.017": 0.0,
			"0.018": 0.0,
			"0.019": 0.0,
			"0.02": 0.0,
			"0.021": 0.0,
			"0.022": 0.0,
			"0.023": 0.0,
			"0.024": 0.0,
			"0.025": 0.0
		}
	}
}
