{
	 "smiles": "N=C1SC(=NN1C1=CC=CC=C1)C(=O)C1=CC=CS1", 
	 "Tm": 407.15, 
	 "num_atms": 28, 
	 "gaussian": { 
		 "optdone": 1, 
		 "sigma_profile": "yes", 
		 "theory": "DFT", 
		 "functional": "B3LYP", 
		 "basiset": "6-31G**", 
		 "properties": { 
			 "R2extent": 7282.386, 
			 "electric_dipole_moment_norm": 6.50128598125, 
			 "electric_quadrupole_moment_norm": 16.5286648139, 
			 "total_energy": -1536.60522209, 
			 "HOMO_LUMO_gap": 0.12988, 
			 "cosmo_polarized_energy": -13.99, 
			 "cosmo_cavitation_energy": 36.7, 
			 "cosmo_dispersion_energy": -27.24, 
			 "cosmo_repulsion_energy": 1.98, 
			 "cosmo_total_nonelectrostatic_energy": 11.45, 
			 "SMD_solvation_energy": 5.11 
		},
		"coords": [
			{
				"x": 2.7847460506,
				"y": 2.6178930265,
				"z": 2.2774295461,
				"element": "N" 
			},
			{
				"x": 2.128603039,
				"y": 1.8012886242,
				"z": 1.5611406232,
				"element": "C" 
			},
			{
				"x": 2.6319753117,
				"y": 1.3409662601,
				"z": -0.0920055855,
				"element": "S" 
			},
			{
				"x": 1.1575093586,
				"y": 0.3810117016,
				"z": -0.2311997057,
				"element": "C" 
			},
			{
				"x": 0.3936111435,
				"y": 0.3686232788,
				"z": 0.8127402186,
				"element": "N" 
			},
			{
				"x": 0.9150662151,
				"y": 1.1056037063,
				"z": 1.8253919461,
				"element": "N" 
			},
			{
				"x": 0.1617995915,
				"y": 1.2288481375,
				"z": 3.0297144066,
				"element": "C" 
			},
			{
				"x": -1.2147350041,
				"y": 1.4705448311,
				"z": 2.9617884474,
				"element": "C" 
			},
			{
				"x": -1.9520043536,
				"y": 1.5771760575,
				"z": 4.1393073076,
				"element": "C" 
			},
			{
				"x": -1.3219100372,
				"y": 1.4628905482,
				"z": 5.381128835,
				"element": "C" 
			},
			{
				"x": 0.0514557337,
				"y": 1.222872183,
				"z": 5.441535033,
				"element": "C" 
			},
			{
				"x": 0.7979284252,
				"y": 1.0947314798,
				"z": 4.2694150175,
				"element": "C" 
			},
			{
				"x": 0.9092768932,
				"y": -0.3365915597,
				"z": -1.5101301619,
				"element": "C" 
			},
			{
				"x": 1.733251823,
				"y": -0.1839761236,
				"z": -2.4116760273,
				"element": "O" 
			},
			{
				"x": -0.2692048376,
				"y": -1.1887828984,
				"z": -1.6840338793,
				"element": "C" 
			},
			{
				"x": -1.2888501733,
				"y": -1.551555259,
				"z": -0.8240194871,
				"element": "C" 
			},
			{
				"x": -2.2331674848,
				"y": -2.4219390807,
				"z": -1.4254592528,
				"element": "C" 
			},
			{
				"x": -1.9217259495,
				"y": -2.711818068,
				"z": -2.7323010053,
				"element": "C" 
			},
			{
				"x": -0.474886102,
				"y": -1.935742808,
				"z": -3.2546951836,
				"element": "S" 
			},
			{
				"x": 2.3377520405,
				"y": 2.7943444559,
				"z": 3.176399358,
				"element": "H" 
			},
			{
				"x": -1.6901902574,
				"y": 1.5683795312,
				"z": 1.9921467632,
				"element": "H" 
			},
			{
				"x": -3.0208065337,
				"y": 1.761253387,
				"z": 4.0855842201,
				"element": "H" 
			},
			{
				"x": -1.8994377216,
				"y": 1.5560071203,
				"z": 6.2956589661,
				"element": "H" 
			},
			{
				"x": 0.5458455162,
				"y": 1.117794628,
				"z": 6.4024708167,
				"element": "H" 
			},
			{
				"x": 1.8574050522,
				"y": 0.8657900649,
				"z": 4.3140262361,
				"element": "H" 
			},
			{
				"x": -1.3404723657,
				"y": -1.1997461891,
				"z": 0.1973185398,
				"element": "H" 
			},
			{
				"x": -3.1032067986,
				"y": -2.8174397419,
				"z": -0.9143274215,
				"element": "H" 
			},
			{
				"x": -2.4704285748,
				"y": -3.3453272936,
				"z": -3.4165485708,
				"element": "H" 
			}
		],
		 "valence_orbital": [ 
			{
				"type": "occ",
				"energy": -0.2704,
				"method": "rhf"
			},
			{
				"type": "occ",
				"energy": -0.26994,
				"method": "rhf"
			},
			{
				"type": "occ",
				"energy": -0.26574,
				"method": "rhf"
			},
			{
				"type": "occ",
				"energy": -0.25238,
				"method": "rhf"
			},
			{
				"type": "occ",
				"energy": -0.22036,
				"method": "rhf"
			},
			{
				"type": "unocc",
				"energy": -0.09048,
				"method": "rhf"
			},
			{
				"type": "unocc",
				"energy": -0.0328,
				"method": "rhf"
			},
			{
				"type": "unocc",
				"energy": -0.02607,
				"method": "rhf"
			},
			{
				"type": "unocc",
				"energy": -0.02354,
				"method": "rhf"
			},
			{
				"type": "unocc",
				"energy": 0.01056,
				"method": "rhf"
			}
		],
		"cosmo_sigma_profile": { 
			"-0.025": 0.0,
			"-0.024": 0.0,
			"-0.023": 0.0,
			"-0.022": 0.0,
			"-0.021": 0.0,
			"-0.02": 0.0,
			"-0.019": 0.0,
			"-0.018": 0.0,
			"-0.017": 0.0,
			"-0.016": 0.0,
			"-0.015": 0.0,
			"-0.014": 0.0,
			"-0.013": 0.0,
			"-0.012": 0.0,
			"-0.011": 0.0,
			"-0.01": 0.901554055783,
			"-0.009": 3.066087157,
			"-0.008": 4.90620138192,
			"-0.007": 10.5650428657,
			"-0.006": 16.4403616845,
			"-0.005": 21.3847879587,
			"-0.004": 20.1028198892,
			"-0.003": 19.7964402745,
			"-0.002": 18.3832833163,
			"-0.001": 20.4783113761,
			"0.0": 22.8524249363,
			"0.001": 27.6726329397,
			"0.002": 35.2586876325,
			"0.003": 31.570306757,
			"0.004": 15.7705667364,
			"0.005": 3.51700864293,
			"0.006": 3.83818252065,
			"0.007": 3.51737945652,
			"0.008": 2.62187670294,
			"0.009": 3.70238864163,
			"0.01": 4.06244414822,
			"0.011": 4.9727244126,
			"0.012": 1.37694846143,
			"0.013": 1.16273160869,
			"0.014": 1.1637255833,
			"0.015": 1.11038561233,
			"0.016": 0.784912042015,
			"0.017": 0.197776512022,
			"0.018": 0.0,
			"0.019": 0.0,
			"0.02": 0.0,
			"0.021": 0.0,
			"0.022": 0.0,
			"0.023": 0.0,
			"0.024": 0.0,
			"0.025": 0.0
		}
	}
}
