{
	 "smiles": "FC1=C(OC2=CC=C(Cl)C=C2)C=CC(=C1)C#N", 
	 "Tm": 341.15, 
	 "num_atms": 24, 
	 "gaussian": { 
		 "optdone": 1, 
		 "sigma_profile": "yes", 
		 "theory": "DFT", 
		 "functional": "B3LYP", 
		 "basiset": "6-31G**", 
		 "properties": { 
			 "R2extent": 6700.5446, 
			 "electric_dipole_moment_norm": 3.52910584993, 
			 "electric_quadrupole_moment_norm": 27.5449032356, 
			 "total_energy": -1189.57128879, 
			 "HOMO_LUMO_gap": 0.18852, 
			 "cosmo_polarized_energy": -11.54, 
			 "cosmo_cavitation_energy": 33.17, 
			 "cosmo_dispersion_energy": -23.18, 
			 "cosmo_repulsion_energy": 1.78, 
			 "cosmo_total_nonelectrostatic_energy": 11.77, 
			 "SMD_solvation_energy": 7.51 
		},
		"coords": [
			{
				"x": -1.3472788784,
				"y": 0.0143199854,
				"z": 2.5958417346,
				"element": "F" 
			},
			{
				"x": -1.4266579771,
				"y": 0.8677474696,
				"z": 1.5632647728,
				"element": "C" 
			},
			{
				"x": -1.0242348104,
				"y": 0.4223126323,
				"z": 0.2928867415,
				"element": "C" 
			},
			{
				"x": -0.6199594884,
				"y": -0.8797299967,
				"z": 0.2161092958,
				"element": "O" 
			},
			{
				"x": 0.1240950005,
				"y": -1.3188786741,
				"z": -0.8706398537,
				"element": "C" 
			},
			{
				"x": -0.3804737257,
				"y": -2.3851480793,
				"z": -1.6124958483,
				"element": "C" 
			},
			{
				"x": 0.3748775271,
				"y": -2.917467671,
				"z": -2.6573789191,
				"element": "C" 
			},
			{
				"x": 1.6234189386,
				"y": -2.3679703729,
				"z": -2.9480709854,
				"element": "C" 
			},
			{
				"x": 2.5740941985,
				"y": -3.0303372304,
				"z": -4.2668541343,
				"element": "Cl" 
			},
			{
				"x": 2.1315780973,
				"y": -1.3014131229,
				"z": -2.2044821445,
				"element": "C" 
			},
			{
				"x": 1.3788704617,
				"y": -0.7764005144,
				"z": -1.1552658359,
				"element": "C" 
			},
			{
				"x": -1.1104030007,
				"y": 1.3035522618,
				"z": -0.7887398118,
				"element": "C" 
			},
			{
				"x": -1.5782605111,
				"y": 2.6018140725,
				"z": -0.5998776311,
				"element": "C" 
			},
			{
				"x": -1.972554581,
				"y": 3.0354562003,
				"z": 0.6748789246,
				"element": "C" 
			},
			{
				"x": -1.8957358191,
				"y": 2.1513223567,
				"z": 1.7668319181,
				"element": "C" 
			},
			{
				"x": -2.4520872713,
				"y": 4.3710868877,
				"z": 0.8685586583,
				"element": "C" 
			},
			{
				"x": -2.8406656917,
				"y": 5.4568586886,
				"z": 1.0227040948,
				"element": "N" 
			},
			{
				"x": -1.3532852818,
				"y": -2.7938918036,
				"z": -1.3615521732,
				"element": "H" 
			},
			{
				"x": -0.0034955477,
				"y": -3.7485675022,
				"z": -3.2416865221,
				"element": "H" 
			},
			{
				"x": 3.1086317323,
				"y": -0.8932287829,
				"z": -2.4373202621,
				"element": "H" 
			},
			{
				"x": 1.7654198604,
				"y": 0.0422137366,
				"z": -0.5573880625,
				"element": "H" 
			},
			{
				"x": -0.8128317106,
				"y": 0.9691198443,
				"z": -1.775559904,
				"element": "H" 
			},
			{
				"x": -1.6441512239,
				"y": 3.281166694,
				"z": -1.4422841888,
				"element": "H" 
			},
			{
				"x": -2.1927102973,
				"y": 2.4566629206,
				"z": 2.7633201361,
				"element": "H" 
			}
		],
		 "valence_orbital": [ 
			{
				"type": "occ",
				"energy": -0.32536,
				"method": "rhf"
			},
			{
				"type": "occ",
				"energy": -0.28635,
				"method": "rhf"
			},
			{
				"type": "occ",
				"energy": -0.28031,
				"method": "rhf"
			},
			{
				"type": "occ",
				"energy": -0.26439,
				"method": "rhf"
			},
			{
				"type": "occ",
				"energy": -0.24437,
				"method": "rhf"
			},
			{
				"type": "unocc",
				"energy": -0.05585,
				"method": "rhf"
			},
			{
				"type": "unocc",
				"energy": -0.03934,
				"method": "rhf"
			},
			{
				"type": "unocc",
				"energy": -0.02729,
				"method": "rhf"
			},
			{
				"type": "unocc",
				"energy": -0.02617,
				"method": "rhf"
			},
			{
				"type": "unocc",
				"energy": 0.0162,
				"method": "rhf"
			}
		],
		"cosmo_sigma_profile": { 
			"-0.025": 0.0,
			"-0.024": 0.0,
			"-0.023": 0.0,
			"-0.022": 0.0,
			"-0.021": 0.0,
			"-0.02": 0.0,
			"-0.019": 0.0,
			"-0.018": 0.0,
			"-0.017": 0.0,
			"-0.016": 0.0,
			"-0.015": 0.0,
			"-0.014": 0.0,
			"-0.013": 0.0,
			"-0.012": 0.0,
			"-0.011": 0.0,
			"-0.01": 0.200814546707,
			"-0.009": 2.36936337515,
			"-0.008": 9.47381853883,
			"-0.007": 15.0259035379,
			"-0.006": 12.4983012698,
			"-0.005": 11.3507333738,
			"-0.004": 13.4253367668,
			"-0.003": 13.0613595804,
			"-0.002": 19.3894366791,
			"-0.001": 24.4202964632,
			"0.0": 24.4921292698,
			"0.001": 26.5862328291,
			"0.002": 25.3852871463,
			"0.003": 20.7258418448,
			"0.004": 17.498118268,
			"0.005": 9.14942623943,
			"0.006": 4.20915027604,
			"0.007": 4.9294302094,
			"0.008": 3.89881264519,
			"0.009": 3.73152693829,
			"0.01": 2.75546888318,
			"0.011": 3.062552362,
			"0.012": 2.33721958017,
			"0.013": 1.4992877026,
			"0.014": 0.0350402889958,
			"0.015": 0.0,
			"0.016": 0.0,
			"0.017": 0.0,
			"0.018": 0.0,
			"0.019": 0.0,
			"0.02": 0.0,
			"0.021": 0.0,
			"0.022": 0.0,
			"0.023": 0.0,
			"0.024": 0.0,
			"0.025": 0.0
		}
	}
}
