{
	 "smiles": "OC(=O)CC1=CSC(NC(=O)CC2=CC=CS2)=N1", 
	 "Tm": 474.15, 
	 "num_atms": 28, 
	 "gaussian": { 
		 "optdone": 1, 
		 "sigma_profile": "yes", 
		 "theory": "DFT", 
		 "functional": "B3LYP", 
		 "basiset": "6-31G**", 
		 "properties": { 
			 "R2extent": 7829.065, 
			 "electric_dipole_moment_norm": 6.42445934924, 
			 "electric_quadrupole_moment_norm": 31.7239096178, 
			 "total_energy": -1556.74644764, 
			 "HOMO_LUMO_gap": 0.18012, 
			 "cosmo_polarized_energy": -21.45, 
			 "cosmo_cavitation_energy": 36.13, 
			 "cosmo_dispersion_energy": -26.91, 
			 "cosmo_repulsion_energy": 2.0, 
			 "cosmo_total_nonelectrostatic_energy": 11.22, 
			 "SMD_solvation_energy": 7.19 
		},
		"coords": [
			{
				"x": 2.0127775444,
				"y": 1.7864890957,
				"z": -3.6179102008,
				"element": "O" 
			},
			{
				"x": 1.7947637444,
				"y": 3.077534281,
				"z": -3.3169772642,
				"element": "C" 
			},
			{
				"x": 1.9024550909,
				"y": 3.9541507431,
				"z": -4.1393202521,
				"element": "O" 
			},
			{
				"x": 1.4777064895,
				"y": 3.3855119834,
				"z": -1.8409045959,
				"element": "C" 
			},
			{
				"x": 0.5920846263,
				"y": 2.3956990872,
				"z": -1.1358347739,
				"element": "C" 
			},
			{
				"x": -0.4985415346,
				"y": 2.67978774,
				"z": -0.371955098,
				"element": "C" 
			},
			{
				"x": -1.1955185317,
				"y": 1.2134170439,
				"z": 0.2613112652,
				"element": "S" 
			},
			{
				"x": 0.0781490372,
				"y": 0.3066089388,
				"z": -0.5380206602,
				"element": "C" 
			},
			{
				"x": 0.1936978492,
				"y": -1.0708554687,
				"z": -0.5656193709,
				"element": "N" 
			},
			{
				"x": -0.2477892094,
				"y": -2.1158673461,
				"z": 0.2477149551,
				"element": "C" 
			},
			{
				"x": 0.0381839046,
				"y": -3.2553333147,
				"z": -0.074338898,
				"element": "O" 
			},
			{
				"x": -1.0609208388,
				"y": -1.8303405645,
				"z": 1.5048323016,
				"element": "C" 
			},
			{
				"x": -2.5424528542,
				"y": -2.0235402359,
				"z": 1.2968891209,
				"element": "C" 
			},
			{
				"x": -3.556199391,
				"y": -1.1826156406,
				"z": 1.6794939951,
				"element": "C" 
			},
			{
				"x": -4.8573825285,
				"y": -1.6907373646,
				"z": 1.3819291694,
				"element": "C" 
			},
			{
				"x": -4.8146174998,
				"y": -2.9153044987,
				"z": 0.7772876867,
				"element": "C" 
			},
			{
				"x": -3.1865656012,
				"y": -3.4722994293,
				"z": 0.5595370208,
				"element": "S" 
			},
			{
				"x": 0.9092246391,
				"y": 1.0510126897,
				"z": -1.223264697,
				"element": "N" 
			},
			{
				"x": 1.8154461504,
				"y": 1.2250579209,
				"z": -2.8351951876,
				"element": "H" 
			},
			{
				"x": 1.0508417894,
				"y": 4.3880153296,
				"z": -1.8052153492,
				"element": "H" 
			},
			{
				"x": 2.4479839273,
				"y": 3.4265686274,
				"z": -1.3250027696,
				"element": "H" 
			},
			{
				"x": -0.9273141121,
				"y": 3.6415526556,
				"z": -0.1312195462,
				"element": "H" 
			},
			{
				"x": 0.802524411,
				"y": -1.4063728664,
				"z": -1.3059308671,
				"element": "H" 
			},
			{
				"x": -0.8840223849,
				"y": -0.8264254428,
				"z": 1.8985127237,
				"element": "H" 
			},
			{
				"x": -0.6815541023,
				"y": -2.5450991473,
				"z": 2.2437986031,
				"element": "H" 
			},
			{
				"x": -3.3779611713,
				"y": -0.2321121022,
				"z": 2.1704540292,
				"element": "H" 
			},
			{
				"x": -5.7776889832,
				"y": -1.1640942311,
				"z": 1.6067243705,
				"element": "H" 
			},
			{
				"x": -5.6402104608,
				"y": -3.5243084836,
				"z": 0.4356242895,
				"element": "H" 
			}
		],
		 "valence_orbital": [ 
			{
				"type": "occ",
				"energy": -0.28863,
				"method": "rhf"
			},
			{
				"type": "occ",
				"energy": -0.26698,
				"method": "rhf"
			},
			{
				"type": "occ",
				"energy": -0.25996,
				"method": "rhf"
			},
			{
				"type": "occ",
				"energy": -0.24482,
				"method": "rhf"
			},
			{
				"type": "occ",
				"energy": -0.24027,
				"method": "rhf"
			},
			{
				"type": "unocc",
				"energy": -0.06015,
				"method": "rhf"
			},
			{
				"type": "unocc",
				"energy": -0.02705,
				"method": "rhf"
			},
			{
				"type": "unocc",
				"energy": -0.01374,
				"method": "rhf"
			},
			{
				"type": "unocc",
				"energy": -0.00209,
				"method": "rhf"
			},
			{
				"type": "unocc",
				"energy": 0.01844,
				"method": "rhf"
			}
		],
		"cosmo_sigma_profile": { 
			"-0.025": 0.0,
			"-0.024": 0.0,
			"-0.023": 0.0,
			"-0.022": 0.0,
			"-0.021": 0.0,
			"-0.02": 0.0,
			"-0.019": 0.0,
			"-0.018": 0.0,
			"-0.017": 0.0,
			"-0.016": 0.191885194241,
			"-0.015": 0.908011306106,
			"-0.014": 0.746374723177,
			"-0.013": 0.974611496761,
			"-0.012": 0.72369431281,
			"-0.011": 0.771005979378,
			"-0.01": 1.68367733422,
			"-0.009": 3.72561852798,
			"-0.008": 9.75610406179,
			"-0.007": 16.9610270839,
			"-0.006": 19.6899261441,
			"-0.005": 18.5863482574,
			"-0.004": 20.1066817995,
			"-0.003": 19.2903681642,
			"-0.002": 18.5137772661,
			"-0.001": 17.61792492,
			"0.0": 15.1231821858,
			"0.001": 17.0274150841,
			"0.002": 16.9723899845,
			"0.003": 15.2517039805,
			"0.004": 16.7809411085,
			"0.005": 13.1715326841,
			"0.006": 6.26953906541,
			"0.007": 4.50509121492,
			"0.008": 3.99125393322,
			"0.009": 4.91435543622,
			"0.01": 5.47273014833,
			"0.011": 9.11803129054,
			"0.012": 10.5940494372,
			"0.013": 3.46171522716,
			"0.014": 0.337488762832,
			"0.015": 0.0,
			"0.016": 0.0,
			"0.017": 0.0,
			"0.018": 0.0,
			"0.019": 0.0,
			"0.02": 0.0,
			"0.021": 0.0,
			"0.022": 0.0,
			"0.023": 0.0,
			"0.024": 0.0,
			"0.025": 0.0
		}
	}
}
