{
	 "smiles": "CCC(C)(CC)OC(N)=O", 
	 "Tm": 329.15, 
	 "num_atms": 25, 
	 "gaussian": { 
		 "optdone": 1, 
		 "sigma_profile": "yes", 
		 "theory": "DFT", 
		 "functional": "B3LYP", 
		 "basiset": "6-31G**", 
		 "properties": { 
			 "R2extent": 1883.4173, 
			 "electric_dipole_moment_norm": 2.36910811277, 
			 "electric_quadrupole_moment_norm": 11.8193296134, 
			 "total_energy": -481.023357306, 
			 "HOMO_LUMO_gap": 0.31389, 
			 "cosmo_polarized_energy": -9.5, 
			 "cosmo_cavitation_energy": 25.93, 
			 "cosmo_dispersion_energy": -18.64, 
			 "cosmo_repulsion_energy": 1.54, 
			 "cosmo_total_nonelectrostatic_energy": 8.82, 
			 "SMD_solvation_energy": 5.64 
		},
		"coords": [
			{
				"x": 1.1787981563,
				"y": -1.5264099972,
				"z": 0.877834697,
				"element": "C" 
			},
			{
				"x": 0.1523411992,
				"y": -1.0121548606,
				"z": -0.1410294186,
				"element": "C" 
			},
			{
				"x": -0.1021891443,
				"y": 0.5079781208,
				"z": -0.0915557875,
				"element": "C" 
			},
			{
				"x": -0.684544899,
				"y": 0.9307046581,
				"z": 1.2652415648,
				"element": "C" 
			},
			{
				"x": 1.1350618634,
				"y": 1.3849907106,
				"z": -0.3964701068,
				"element": "C" 
			},
			{
				"x": 2.027810279,
				"y": 1.019021058,
				"z": -1.5884645182,
				"element": "C" 
			},
			{
				"x": -1.2145211266,
				"y": 0.8697123129,
				"z": -0.9935184703,
				"element": "O" 
			},
			{
				"x": -1.3092415272,
				"y": 0.4853862415,
				"z": -2.2873727207,
				"element": "C" 
			},
			{
				"x": -2.463381322,
				"y": 1.0017833243,
				"z": -2.8213667244,
				"element": "N" 
			},
			{
				"x": -0.5144625394,
				"y": -0.1827389682,
				"z": -2.9251241388,
				"element": "O" 
			},
			{
				"x": 2.158577205,
				"y": -1.0564445586,
				"z": 0.7440677426,
				"element": "H" 
			},
			{
				"x": 0.8649372731,
				"y": -1.3562820103,
				"z": 1.9123453182,
				"element": "H" 
			},
			{
				"x": 1.3166115545,
				"y": -2.6050464795,
				"z": 0.7529862973,
				"element": "H" 
			},
			{
				"x": -0.8101390964,
				"y": -1.5106779701,
				"z": 0.0310453011,
				"element": "H" 
			},
			{
				"x": 0.4653689773,
				"y": -1.2834973314,
				"z": -1.1495434983,
				"element": "H" 
			},
			{
				"x": -1.5943477175,
				"y": 0.364119047,
				"z": 1.484200651,
				"element": "H" 
			},
			{
				"x": -0.93895193,
				"y": 1.9945240869,
				"z": 1.2512230519,
				"element": "H" 
			},
			{
				"x": 0.0334161823,
				"y": 0.7621355309,
				"z": 2.0710507024,
				"element": "H" 
			},
			{
				"x": 1.7505436,
				"y": 1.3885619318,
				"z": 0.5121055829,
				"element": "H" 
			},
			{
				"x": 0.7688332745,
				"y": 2.4126300882,
				"z": -0.5107472934,
				"element": "H" 
			},
			{
				"x": 2.8527714785,
				"y": 1.7363095856,
				"z": -1.6589968915,
				"element": "H" 
			},
			{
				"x": 2.4687550613,
				"y": 0.0238562084,
				"z": -1.4734829355,
				"element": "H" 
			},
			{
				"x": 1.4788637663,
				"y": 1.0225731946,
				"z": -2.5299915824,
				"element": "H" 
			},
			{
				"x": -3.1749968695,
				"y": 1.3535360009,
				"z": -2.2011290379,
				"element": "H" 
			},
			{
				"x": -2.7446136988,
				"y": 0.6247300756,
				"z": -3.711707785,
				"element": "H" 
			}
		],
		 "valence_orbital": [ 
			{
				"type": "occ",
				"energy": -0.32339,
				"method": "rhf"
			},
			{
				"type": "occ",
				"energy": -0.31614,
				"method": "rhf"
			},
			{
				"type": "occ",
				"energy": -0.2783,
				"method": "rhf"
			},
			{
				"type": "occ",
				"energy": -0.26783,
				"method": "rhf"
			},
			{
				"type": "occ",
				"energy": -0.25675,
				"method": "rhf"
			},
			{
				"type": "unocc",
				"energy": 0.05714,
				"method": "rhf"
			},
			{
				"type": "unocc",
				"energy": 0.08145,
				"method": "rhf"
			},
			{
				"type": "unocc",
				"energy": 0.0868,
				"method": "rhf"
			},
			{
				"type": "unocc",
				"energy": 0.10917,
				"method": "rhf"
			},
			{
				"type": "unocc",
				"energy": 0.12306,
				"method": "rhf"
			}
		],
		"cosmo_sigma_profile": { 
			"-0.025": 0.0,
			"-0.024": 0.0,
			"-0.023": 0.0,
			"-0.022": 0.0,
			"-0.021": 0.0,
			"-0.02": 0.0,
			"-0.019": 0.0,
			"-0.018": 0.0,
			"-0.017": 0.0,
			"-0.016": 0.0,
			"-0.015": 0.0,
			"-0.014": 1.0366844676,
			"-0.013": 2.68288784374,
			"-0.012": 1.56900167924,
			"-0.011": 1.67342314995,
			"-0.01": 2.51573254343,
			"-0.009": 2.49081674864,
			"-0.008": 1.18359721079,
			"-0.007": 1.2283040873,
			"-0.006": 1.5277054118,
			"-0.005": 1.46746573152,
			"-0.004": 4.51204695351,
			"-0.003": 20.8543463757,
			"-0.002": 25.416353505,
			"-0.001": 26.4139627786,
			"0.0": 33.5065425375,
			"0.001": 23.7766845575,
			"0.002": 10.2730098337,
			"0.003": 4.70428914184,
			"0.004": 5.18862519741,
			"0.005": 4.82930554445,
			"0.006": 4.11873613833,
			"0.007": 3.80790415319,
			"0.008": 2.90095917241,
			"0.009": 2.31913244828,
			"0.01": 1.12395494073,
			"0.011": 2.09727979262,
			"0.012": 1.78231093005,
			"0.013": 2.85863577799,
			"0.014": 2.34868393064,
			"0.015": 0.0881056944596,
			"0.016": 0.0,
			"0.017": 0.0,
			"0.018": 0.0,
			"0.019": 0.0,
			"0.02": 0.0,
			"0.021": 0.0,
			"0.022": 0.0,
			"0.023": 0.0,
			"0.024": 0.0,
			"0.025": 0.0
		}
	}
}
