{
	 "smiles": "CC1=CC=C(N)C=C1", 
	 "Tm": 316.65, 
	 "num_atms": 17, 
	 "gaussian": { 
		 "optdone": 1, 
		 "sigma_profile": "yes", 
		 "theory": "DFT", 
		 "functional": "B3LYP", 
		 "basiset": "6-31G**", 
		 "properties": { 
			 "R2extent": 1363.2522, 
			 "electric_dipole_moment_norm": 1.48221862085, 
			 "electric_quadrupole_moment_norm": 11.3665014442, 
			 "total_energy": -326.929405695, 
			 "HOMO_LUMO_gap": 0.20119, 
			 "cosmo_polarized_energy": -7.46, 
			 "cosmo_cavitation_energy": 20.12, 
			 "cosmo_dispersion_energy": -15.1, 
			 "cosmo_repulsion_energy": 1.26, 
			 "cosmo_total_nonelectrostatic_energy": 6.28, 
			 "SMD_solvation_energy": 3.51 
		},
		"coords": [
			{
				"x": -1.0474659371,
				"y": 0.6139397554,
				"z": 1.7407824839,
				"element": "C" 
			},
			{
				"x": -0.1910988293,
				"y": 0.7497454598,
				"z": 0.5034098442,
				"element": "C" 
			},
			{
				"x": 1.1331264431,
				"y": 0.2933173341,
				"z": 0.47904142,
				"element": "C" 
			},
			{
				"x": 1.9381808827,
				"y": 0.4406138625,
				"z": -0.6478685775,
				"element": "C" 
			},
			{
				"x": 1.4395575067,
				"y": 1.0571761352,
				"z": -1.8068190175,
				"element": "C" 
			},
			{
				"x": 2.2598027684,
				"y": 1.2598264907,
				"z": -2.9239769321,
				"element": "N" 
			},
			{
				"x": 0.1118860682,
				"y": 1.5144130497,
				"z": -1.794045422,
				"element": "C" 
			},
			{
				"x": -0.6802929853,
				"y": 1.359544899,
				"z": -0.6590529775,
				"element": "C" 
			},
			{
				"x": -2.1082491476,
				"y": 0.5221295829,
				"z": 1.4861131744,
				"element": "H" 
			},
			{
				"x": -0.948471019,
				"y": 1.485925185,
				"z": 2.4006484113,
				"element": "H" 
			},
			{
				"x": -0.7673021456,
				"y": -0.26684472,
				"z": 2.3275347317,
				"element": "H" 
			},
			{
				"x": 1.5459782339,
				"y": -0.193358803,
				"z": 1.3600312408,
				"element": "H" 
			},
			{
				"x": 2.9626367782,
				"y": 0.075398231,
				"z": -0.6338042382,
				"element": "H" 
			},
			{
				"x": 1.7621990995,
				"y": 1.3505433955,
				"z": -3.799758627,
				"element": "H" 
			},
			{
				"x": 3.0275629656,
				"y": 0.6066027014,
				"z": -3.0056794844,
				"element": "H" 
			},
			{
				"x": -0.2984965495,
				"y": 1.9928664893,
				"z": -2.6804746598,
				"element": "H" 
			},
			{
				"x": -1.706754133,
				"y": 1.7191609515,
				"z": -0.6813813703,
				"element": "H" 
			}
		],
		 "valence_orbital": [ 
			{
				"type": "occ",
				"energy": -0.34199,
				"method": "rhf"
			},
			{
				"type": "occ",
				"energy": -0.32635,
				"method": "rhf"
			},
			{
				"type": "occ",
				"energy": -0.29225,
				"method": "rhf"
			},
			{
				"type": "occ",
				"energy": -0.23882,
				"method": "rhf"
			},
			{
				"type": "occ",
				"energy": -0.19193,
				"method": "rhf"
			},
			{
				"type": "unocc",
				"energy": 0.00926,
				"method": "rhf"
			},
			{
				"type": "unocc",
				"energy": 0.0252,
				"method": "rhf"
			},
			{
				"type": "unocc",
				"energy": 0.08581,
				"method": "rhf"
			},
			{
				"type": "unocc",
				"energy": 0.10658,
				"method": "rhf"
			},
			{
				"type": "unocc",
				"energy": 0.12441,
				"method": "rhf"
			}
		],
		"cosmo_sigma_profile": { 
			"-0.025": 0.0,
			"-0.024": 0.0,
			"-0.023": 0.0,
			"-0.022": 0.0,
			"-0.021": 0.0,
			"-0.02": 0.0,
			"-0.019": 0.0,
			"-0.018": 0.0,
			"-0.017": 0.0,
			"-0.016": 0.0,
			"-0.015": 0.0,
			"-0.014": 0.0,
			"-0.013": 0.0182121709523,
			"-0.012": 1.55509156577,
			"-0.011": 2.76052215061,
			"-0.01": 2.78595075601,
			"-0.009": 3.15510874339,
			"-0.008": 2.654020804,
			"-0.007": 2.75687135751,
			"-0.006": 3.17970538336,
			"-0.005": 6.82953977304,
			"-0.004": 10.772139614,
			"-0.003": 15.5037658795,
			"-0.002": 12.9279405152,
			"-0.001": 12.0296591886,
			"0.0": 13.7491051299,
			"0.001": 11.8889415377,
			"0.002": 8.34408173672,
			"0.003": 6.5134919004,
			"0.004": 6.83879814027,
			"0.005": 7.00696093137,
			"0.006": 8.01108416075,
			"0.007": 9.46680310061,
			"0.008": 4.5913378754,
			"0.009": 0.849881675066,
			"0.01": 1.25243825441,
			"0.011": 0.501367674291,
			"0.012": 0.487400369302,
			"0.013": 0.952364338501,
			"0.014": 0.621985553017,
			"0.015": 0.56541870402,
			"0.016": 0.104218926329,
			"0.017": 0.0,
			"0.018": 0.0,
			"0.019": 0.0,
			"0.02": 0.0,
			"0.021": 0.0,
			"0.022": 0.0,
			"0.023": 0.0,
			"0.024": 0.0,
			"0.025": 0.0
		}
	}
}
