{
	 "smiles": "NC1=CSC=C1S(=O)(=O)C1=CC=CC=C1", 
	 "Tm": 399.15, 
	 "num_atms": 24, 
	 "gaussian": { 
		 "optdone": 1, 
		 "sigma_profile": "yes", 
		 "theory": "DFT", 
		 "functional": "B3LYP", 
		 "basiset": "6-31G**", 
		 "properties": { 
			 "R2extent": 4493.5761, 
			 "electric_dipole_moment_norm": 4.20446870484, 
			 "electric_quadrupole_moment_norm": 17.6169999764, 
			 "total_energy": -1387.97823022, 
			 "HOMO_LUMO_gap": 0.16994, 
			 "cosmo_polarized_energy": -14.09, 
			 "cosmo_cavitation_energy": 30.54, 
			 "cosmo_dispersion_energy": -23.28, 
			 "cosmo_repulsion_energy": 1.73, 
			 "cosmo_total_nonelectrostatic_energy": 8.98, 
			 "SMD_solvation_energy": 4.82 
		},
		"coords": [
			{
				"x": 0.7867169836,
				"y": -2.1033218765,
				"z": -2.6056162895,
				"element": "N" 
			},
			{
				"x": -0.294132362,
				"y": -1.3152905145,
				"z": -2.9989286056,
				"element": "C" 
			},
			{
				"x": -0.5223199195,
				"y": -0.8139769313,
				"z": -4.2583093305,
				"element": "C" 
			},
			{
				"x": -1.9487108775,
				"y": 0.1801234533,
				"z": -4.3269100752,
				"element": "S" 
			},
			{
				"x": -2.2698172725,
				"y": -0.0662415874,
				"z": -2.6569255777,
				"element": "C" 
			},
			{
				"x": -1.3162936019,
				"y": -0.8634267989,
				"z": -2.0809451133,
				"element": "C" 
			},
			{
				"x": -1.3971545781,
				"y": -1.2956778556,
				"z": -0.3553892798,
				"element": "S" 
			},
			{
				"x": -0.7686479263,
				"y": -2.6265379533,
				"z": -0.2215417908,
				"element": "O" 
			},
			{
				"x": -2.775025317,
				"y": -1.062411898,
				"z": 0.102637725,
				"element": "O" 
			},
			{
				"x": -0.3436768476,
				"y": -0.1001590189,
				"z": 0.4832744137,
				"element": "C" 
			},
			{
				"x": -0.942714013,
				"y": 0.8471179987,
				"z": 1.3145139348,
				"element": "C" 
			},
			{
				"x": -0.1327236906,
				"y": 1.7637026473,
				"z": 1.986645832,
				"element": "C" 
			},
			{
				"x": 1.2527987161,
				"y": 1.7292413242,
				"z": 1.8179641783,
				"element": "C" 
			},
			{
				"x": 1.8378758516,
				"y": 0.7758211112,
				"z": 0.9798089579,
				"element": "C" 
			},
			{
				"x": 1.0424526317,
				"y": -0.1518538518,
				"z": 0.3084948624,
				"element": "C" 
			},
			{
				"x": 0.5445629021,
				"y": -2.7572666487,
				"z": -1.8666981826,
				"element": "H" 
			},
			{
				"x": 1.2683416474,
				"y": -2.5504324396,
				"z": -3.3742781076,
				"element": "H" 
			},
			{
				"x": 0.0639832217,
				"y": -0.9815379128,
				"z": -5.1507942806,
				"element": "H" 
			},
			{
				"x": -3.135974176,
				"y": 0.3608024032,
				"z": -2.1728183683,
				"element": "H" 
			},
			{
				"x": -2.0205697746,
				"y": 0.847617229,
				"z": 1.4329411949,
				"element": "H" 
			},
			{
				"x": -0.5847282681,
				"y": 2.5021592122,
				"z": 2.6419317261,
				"element": "H" 
			},
			{
				"x": 1.8793890202,
				"y": 2.4454848306,
				"z": 2.3414712977,
				"element": "H" 
			},
			{
				"x": 2.9158543048,
				"y": 0.7511336819,
				"z": 0.8518709156,
				"element": "H" 
			},
			{
				"x": 1.4861133455,
				"y": -0.8933686042,
				"z": -0.3476000369,
				"element": "H" 
			}
		],
		 "valence_orbital": [ 
			{
				"type": "occ",
				"energy": -0.29057,
				"method": "rhf"
			},
			{
				"type": "occ",
				"energy": -0.27842,
				"method": "rhf"
			},
			{
				"type": "occ",
				"energy": -0.26768,
				"method": "rhf"
			},
			{
				"type": "occ",
				"energy": -0.25471,
				"method": "rhf"
			},
			{
				"type": "occ",
				"energy": -0.21505,
				"method": "rhf"
			},
			{
				"type": "unocc",
				"energy": -0.04511,
				"method": "rhf"
			},
			{
				"type": "unocc",
				"energy": -0.02435,
				"method": "rhf"
			},
			{
				"type": "unocc",
				"energy": -0.01496,
				"method": "rhf"
			},
			{
				"type": "unocc",
				"energy": 0.01702,
				"method": "rhf"
			},
			{
				"type": "unocc",
				"energy": 0.04067,
				"method": "rhf"
			}
		],
		"cosmo_sigma_profile": { 
			"-0.025": 0.0,
			"-0.024": 0.0,
			"-0.023": 0.0,
			"-0.022": 0.0,
			"-0.021": 0.0,
			"-0.02": 0.0,
			"-0.019": 0.0,
			"-0.018": 0.0,
			"-0.017": 0.0,
			"-0.016": 0.0,
			"-0.015": 0.0,
			"-0.014": 0.0,
			"-0.013": 1.2720100411,
			"-0.012": 1.15587224007,
			"-0.011": 1.57977849964,
			"-0.01": 2.32038792412,
			"-0.009": 4.78238312373,
			"-0.008": 6.07240382428,
			"-0.007": 10.2947234851,
			"-0.006": 13.1547204548,
			"-0.005": 16.0096678063,
			"-0.004": 12.2139176936,
			"-0.003": 11.6997172,
			"-0.002": 12.9743458176,
			"-0.001": 14.4272173268,
			"0.0": 17.1687232666,
			"0.001": 21.5672852373,
			"0.002": 27.0386996013,
			"0.003": 26.720100871,
			"0.004": 9.77940054429,
			"0.005": 5.76830941668,
			"0.006": 3.6255544934,
			"0.007": 3.80222415245,
			"0.008": 3.64837301866,
			"0.009": 4.58855490216,
			"0.01": 6.05259518049,
			"0.011": 5.94894058639,
			"0.012": 4.12205183013,
			"0.013": 0.0,
			"0.014": 0.0,
			"0.015": 0.0,
			"0.016": 0.0,
			"0.017": 0.0,
			"0.018": 0.0,
			"0.019": 0.0,
			"0.02": 0.0,
			"0.021": 0.0,
			"0.022": 0.0,
			"0.023": 0.0,
			"0.024": 0.0,
			"0.025": 0.0
		}
	}
}
