{
	 "smiles": "COC1=CC(OC)=C(C=O)C(C)=C1", 
	 "Tm": 338.15, 
	 "num_atms": 25, 
	 "gaussian": { 
		 "optdone": 1, 
		 "sigma_profile": "yes", 
		 "theory": "DFT", 
		 "functional": "B3LYP", 
		 "basiset": "6-31G**", 
		 "properties": { 
			 "R2extent": 2853.3698, 
			 "electric_dipole_moment_norm": 4.73766411114, 
			 "electric_quadrupole_moment_norm": 14.0547813146, 
			 "total_energy": -613.942122828, 
			 "HOMO_LUMO_gap": 0.17989, 
			 "cosmo_polarized_energy": -10.66, 
			 "cosmo_cavitation_energy": 28.33, 
			 "cosmo_dispersion_energy": -20.75, 
			 "cosmo_repulsion_energy": 1.63, 
			 "cosmo_total_nonelectrostatic_energy": 9.21, 
			 "SMD_solvation_energy": 7.46 
		},
		"coords": [
			{
				"x": -0.0693051734,
				"y": -0.4321849039,
				"z": 4.2858730779,
				"element": "C" 
			},
			{
				"x": 0.1473921922,
				"y": -1.1663592022,
				"z": 3.087608474,
				"element": "O" 
			},
			{
				"x": -0.1392582524,
				"y": -0.5737419059,
				"z": 1.8989671856,
				"element": "C" 
			},
			{
				"x": 0.1035121846,
				"y": -1.3663988277,
				"z": 0.7691219959,
				"element": "C" 
			},
			{
				"x": -0.1587496228,
				"y": -0.8477550795,
				"z": -0.4935564827,
				"element": "C" 
			},
			{
				"x": 0.0518720465,
				"y": -1.5572509011,
				"z": -1.6365813858,
				"element": "O" 
			},
			{
				"x": 0.5598519401,
				"y": -2.8802602567,
				"z": -1.5416610738,
				"element": "C" 
			},
			{
				"x": -0.6690277227,
				"y": 0.4727149124,
				"z": -0.6597004346,
				"element": "C" 
			},
			{
				"x": -0.9268348589,
				"y": 0.9659275323,
				"z": -2.0226935096,
				"element": "C" 
			},
			{
				"x": -1.3624636989,
				"y": 2.0740324872,
				"z": -2.3090029686,
				"element": "O" 
			},
			{
				"x": -0.9066843995,
				"y": 1.2553255265,
				"z": 0.4962515711,
				"element": "C" 
			},
			{
				"x": -1.4457269884,
				"y": 2.6628142856,
				"z": 0.4131475398,
				"element": "C" 
			},
			{
				"x": -0.6397835891,
				"y": 0.7250107719,
				"z": 1.7628625123,
				"element": "C" 
			},
			{
				"x": 0.5450812762,
				"y": 0.4757019491,
				"z": 4.3186499728,
				"element": "H" 
			},
			{
				"x": 0.2251927221,
				"y": -1.096183146,
				"z": 5.0996446989,
				"element": "H" 
			},
			{
				"x": -1.1246152708,
				"y": -0.1586018554,
				"z": 4.4053464142,
				"element": "H" 
			},
			{
				"x": 0.4907116054,
				"y": -2.3648023068,
				"z": 0.9209898968,
				"element": "H" 
			},
			{
				"x": 0.6440227268,
				"y": -3.240680707,
				"z": -2.5677099531,
				"element": "H" 
			},
			{
				"x": 1.5490609898,
				"y": -2.8984572292,
				"z": -1.0681925278,
				"element": "H" 
			},
			{
				"x": -0.1207827104,
				"y": -3.5335033503,
				"z": -0.9821441535,
				"element": "H" 
			},
			{
				"x": -0.6934752863,
				"y": 0.2419398815,
				"z": -2.8243355752,
				"element": "H" 
			},
			{
				"x": -0.7894247888,
				"y": 3.3067894466,
				"z": -0.1780868477,
				"element": "H" 
			},
			{
				"x": -2.4133476249,
				"y": 2.6897911582,
				"z": -0.0947545024,
				"element": "H" 
			},
			{
				"x": -1.5553504902,
				"y": 3.0867847534,
				"z": 1.4154192064,
				"element": "H" 
			},
			{
				"x": -0.8281672061,
				"y": 1.3391469669,
				"z": 2.6347368693,
				"element": "H" 
			}
		],
		 "valence_orbital": [ 
			{
				"type": "occ",
				"energy": -0.33511,
				"method": "rhf"
			},
			{
				"type": "occ",
				"energy": -0.2967,
				"method": "rhf"
			},
			{
				"type": "occ",
				"energy": -0.23556,
				"method": "rhf"
			},
			{
				"type": "occ",
				"energy": -0.22853,
				"method": "rhf"
			},
			{
				"type": "occ",
				"energy": -0.22229,
				"method": "rhf"
			},
			{
				"type": "unocc",
				"energy": -0.0424,
				"method": "rhf"
			},
			{
				"type": "unocc",
				"energy": 0.00714,
				"method": "rhf"
			},
			{
				"type": "unocc",
				"energy": 0.05578,
				"method": "rhf"
			},
			{
				"type": "unocc",
				"energy": 0.08892,
				"method": "rhf"
			},
			{
				"type": "unocc",
				"energy": 0.09754,
				"method": "rhf"
			}
		],
		"cosmo_sigma_profile": { 
			"-0.025": 0.0,
			"-0.024": 0.0,
			"-0.023": 0.0,
			"-0.022": 0.0,
			"-0.021": 0.0,
			"-0.02": 0.0,
			"-0.019": 0.0,
			"-0.018": 0.0,
			"-0.017": 0.0,
			"-0.016": 0.0,
			"-0.015": 0.0,
			"-0.014": 0.0,
			"-0.013": 0.0,
			"-0.012": 0.0,
			"-0.011": 0.0,
			"-0.01": 0.0,
			"-0.009": 0.0,
			"-0.008": 0.0030768241634,
			"-0.007": 2.39584768017,
			"-0.006": 16.0611518752,
			"-0.005": 20.8984691703,
			"-0.004": 21.8116068029,
			"-0.003": 22.5545603834,
			"-0.002": 15.4715656871,
			"-0.001": 14.7932348565,
			"0.0": 16.3105662539,
			"0.001": 17.6831964865,
			"0.002": 15.6380844511,
			"0.003": 18.4152909617,
			"0.004": 10.9702720611,
			"0.005": 5.85421380093,
			"0.006": 4.93971133706,
			"0.007": 3.00555237261,
			"0.008": 3.10995649823,
			"0.009": 3.22984417835,
			"0.01": 2.43039354377,
			"0.011": 2.00279939198,
			"0.012": 2.99401994418,
			"0.013": 2.58850510337,
			"0.014": 1.33581382578,
			"0.015": 0.028935579818,
			"0.016": 0.0,
			"0.017": 0.0,
			"0.018": 0.0,
			"0.019": 0.0,
			"0.02": 0.0,
			"0.021": 0.0,
			"0.022": 0.0,
			"0.023": 0.0,
			"0.024": 0.0,
			"0.025": 0.0
		}
	}
}
