{
	 "smiles": "COC(=O)CO", 
	 "Tm": 423.15, 
	 "num_atms": 12, 
	 "gaussian": { 
		 "optdone": 1, 
		 "sigma_profile": "yes", 
		 "theory": "DFT", 
		 "functional": "B3LYP", 
		 "basiset": "6-31G**", 
		 "properties": { 
			 "R2extent": 699.8805, 
			 "electric_dipole_moment_norm": 2.96329426315, 
			 "electric_quadrupole_moment_norm": 2.23750145028, 
			 "total_energy": -343.599869457, 
			 "HOMO_LUMO_gap": 0.26877, 
			 "cosmo_polarized_energy": -7.92, 
			 "cosmo_cavitation_energy": 15.91, 
			 "cosmo_dispersion_energy": -12.08, 
			 "cosmo_repulsion_energy": 1.07, 
			 "cosmo_total_nonelectrostatic_energy": 4.9, 
			 "SMD_solvation_energy": 4.71 
		},
		"coords": [
			{
				"x": -0.3189767841,
				"y": -0.8110345661,
				"z": -1.880297664,
				"element": "C" 
			},
			{
				"x": 0.5740486341,
				"y": 0.0045090846,
				"z": -1.0967964674,
				"element": "O" 
			},
			{
				"x": 0.4752634708,
				"y": -0.1384911907,
				"z": 0.2308673006,
				"element": "C" 
			},
			{
				"x": -0.2977955822,
				"y": -0.8903740624,
				"z": 0.7920034474,
				"element": "O" 
			},
			{
				"x": 1.4466185901,
				"y": 0.7513325827,
				"z": 0.9876072029,
				"element": "C" 
			},
			{
				"x": 1.3101547408,
				"y": 0.5715580064,
				"z": 2.3708650923,
				"element": "O" 
			},
			{
				"x": -0.1391289317,
				"y": -1.8705735095,
				"z": -1.6841905909,
				"element": "H" 
			},
			{
				"x": -1.3587790812,
				"y": -0.5758151181,
				"z": -1.6415833129,
				"element": "H" 
			},
			{
				"x": -0.0994186559,
				"y": -0.5698277912,
				"z": -2.9197015343,
				"element": "H" 
			},
			{
				"x": 2.4661519373,
				"y": 0.5121986756,
				"z": 0.6487867365,
				"element": "H" 
			},
			{
				"x": 1.2543426022,
				"y": 1.7950912998,
				"z": 0.6961191736,
				"element": "H" 
			},
			{
				"x": 0.6110190598,
				"y": -0.0942734113,
				"z": 2.4820206163,
				"element": "H" 
			}
		],
		 "valence_orbital": [ 
			{
				"type": "occ",
				"energy": -0.37635,
				"method": "rhf"
			},
			{
				"type": "occ",
				"energy": -0.34266,
				"method": "rhf"
			},
			{
				"type": "occ",
				"energy": -0.31947,
				"method": "rhf"
			},
			{
				"type": "occ",
				"energy": -0.29532,
				"method": "rhf"
			},
			{
				"type": "occ",
				"energy": -0.26943,
				"method": "rhf"
			},
			{
				"type": "unocc",
				"energy": -0.00066,
				"method": "rhf"
			},
			{
				"type": "unocc",
				"energy": 0.0956,
				"method": "rhf"
			},
			{
				"type": "unocc",
				"energy": 0.10597,
				"method": "rhf"
			},
			{
				"type": "unocc",
				"energy": 0.12086,
				"method": "rhf"
			},
			{
				"type": "unocc",
				"energy": 0.12855,
				"method": "rhf"
			}
		],
		"cosmo_sigma_profile": { 
			"-0.025": 0.0,
			"-0.024": 0.0,
			"-0.023": 0.0,
			"-0.022": 0.0,
			"-0.021": 0.0,
			"-0.02": 0.0,
			"-0.019": 0.0,
			"-0.018": 0.0,
			"-0.017": 0.0,
			"-0.016": 0.0,
			"-0.015": 0.0,
			"-0.014": 0.0,
			"-0.013": 0.0,
			"-0.012": 0.0,
			"-0.011": 0.597099463649,
			"-0.01": 0.277236335351,
			"-0.009": 0.477341516699,
			"-0.008": 0.891374092695,
			"-0.007": 5.5471168387,
			"-0.006": 12.0449563839,
			"-0.005": 13.0478187776,
			"-0.004": 15.667772431,
			"-0.003": 11.2952589045,
			"-0.002": 8.47544266603,
			"-0.001": 5.63132154848,
			"0.0": 4.55034753463,
			"0.001": 4.50745394806,
			"0.002": 3.05041623129,
			"0.003": 4.67234446815,
			"0.004": 3.98546080383,
			"0.005": 2.73630032684,
			"0.006": 3.27318606633,
			"0.007": 4.7390410781,
			"0.008": 3.36219722433,
			"0.009": 2.73467978702,
			"0.01": 3.81362910413,
			"0.011": 3.83469196496,
			"0.012": 2.27667148759,
			"0.013": 1.90580629219,
			"0.014": 1.74907142203,
			"0.015": 0.0,
			"0.016": 0.0,
			"0.017": 0.0,
			"0.018": 0.0,
			"0.019": 0.0,
			"0.02": 0.0,
			"0.021": 0.0,
			"0.022": 0.0,
			"0.023": 0.0,
			"0.024": 0.0,
			"0.025": 0.0
		}
	}
}
