{
	 "smiles": "CCC(N)=S", 
	 "Tm": 314.15, 
	 "num_atms": 12, 
	 "gaussian": { 
		 "optdone": 1, 
		 "sigma_profile": "yes", 
		 "theory": "DFT", 
		 "functional": "B3LYP", 
		 "basiset": "6-31G**", 
		 "properties": { 
			 "R2extent": 662.7646, 
			 "electric_dipole_moment_norm": 4.65258605401, 
			 "electric_quadrupole_moment_norm": 8.47710411992, 
			 "total_energy": -571.48959526, 
			 "HOMO_LUMO_gap": 0.17713, 
			 "cosmo_polarized_energy": -14.6, 
			 "cosmo_cavitation_energy": 16.8, 
			 "cosmo_dispersion_energy": -12.95, 
			 "cosmo_repulsion_energy": 1.11, 
			 "cosmo_total_nonelectrostatic_energy": 4.96, 
			 "SMD_solvation_energy": 2.24 
		},
		"coords": [
			{
				"x": 0.396090699,
				"y": -0.8286541822,
				"z": -1.3134921977,
				"element": "C" 
			},
			{
				"x": 0.6278861652,
				"y": -0.4807219971,
				"z": 0.1638954344,
				"element": "C" 
			},
			{
				"x": -0.1519857309,
				"y": 0.7426848929,
				"z": 0.6200948662,
				"element": "C" 
			},
			{
				"x": 0.6054616696,
				"y": 1.7526728475,
				"z": 1.0893148793,
				"element": "N" 
			},
			{
				"x": -1.8133512965,
				"y": 0.8391269829,
				"z": 0.5540884584,
				"element": "S" 
			},
			{
				"x": -0.6665630957,
				"y": -0.9994309805,
				"z": -1.4978959435,
				"element": "H" 
			},
			{
				"x": 0.9510740683,
				"y": -1.7333436587,
				"z": -1.5799791854,
				"element": "H" 
			},
			{
				"x": 0.7300768655,
				"y": -0.0171459426,
				"z": -1.9677276757,
				"element": "H" 
			},
			{
				"x": 0.3061881432,
				"y": -1.3213180014,
				"z": 0.7880368035,
				"element": "H" 
			},
			{
				"x": 1.7006278762,
				"y": -0.3363350037,
				"z": 0.35036013,
				"element": "H" 
			},
			{
				"x": 0.1537772048,
				"y": 2.5957295149,
				"z": 1.4141389799,
				"element": "H" 
			},
			{
				"x": 1.6121174311,
				"y": 1.6923355279,
				"z": 1.1290654506,
				"element": "H" 
			}
		],
		 "valence_orbital": [ 
			{
				"type": "occ",
				"energy": -0.36048,
				"method": "rhf"
			},
			{
				"type": "occ",
				"energy": -0.34834,
				"method": "rhf"
			},
			{
				"type": "occ",
				"energy": -0.34394,
				"method": "rhf"
			},
			{
				"type": "occ",
				"energy": -0.22771,
				"method": "rhf"
			},
			{
				"type": "occ",
				"energy": -0.2051,
				"method": "rhf"
			},
			{
				"type": "unocc",
				"energy": -0.02797,
				"method": "rhf"
			},
			{
				"type": "unocc",
				"energy": 0.05865,
				"method": "rhf"
			},
			{
				"type": "unocc",
				"energy": 0.09141,
				"method": "rhf"
			},
			{
				"type": "unocc",
				"energy": 0.11416,
				"method": "rhf"
			},
			{
				"type": "unocc",
				"energy": 0.13924,
				"method": "rhf"
			}
		],
		"cosmo_sigma_profile": { 
			"-0.025": 0.0,
			"-0.024": 0.0,
			"-0.023": 0.0,
			"-0.022": 0.0,
			"-0.021": 0.0,
			"-0.02": 0.0,
			"-0.019": 0.0,
			"-0.018": 0.0,
			"-0.017": 0.0,
			"-0.016": 0.44478436328,
			"-0.015": 2.12882924458,
			"-0.014": 2.53095662801,
			"-0.013": 2.94779798652,
			"-0.012": 3.0998724961,
			"-0.011": 1.91809152871,
			"-0.01": 1.7659645763,
			"-0.009": 2.01929646167,
			"-0.008": 1.64977928004,
			"-0.007": 2.65383343463,
			"-0.006": 2.09592172691,
			"-0.005": 4.06798286469,
			"-0.004": 8.00724580143,
			"-0.003": 11.348589887,
			"-0.002": 11.9310240134,
			"-0.001": 9.49012455097,
			"0.0": 9.57318844492,
			"0.001": 7.65685796063,
			"0.002": 4.02429389155,
			"0.003": 3.63597539222,
			"0.004": 3.46785179811,
			"0.005": 3.69192575935,
			"0.006": 4.44529634681,
			"0.007": 3.86265735333,
			"0.008": 4.87470442278,
			"0.009": 5.75439203529,
			"0.01": 6.44476961618,
			"0.011": 4.57275631888,
			"0.012": 3.25102655505,
			"0.013": 0.886915527711,
			"0.014": 0.0,
			"0.015": 0.0,
			"0.016": 0.0,
			"0.017": 0.0,
			"0.018": 0.0,
			"0.019": 0.0,
			"0.02": 0.0,
			"0.021": 0.0,
			"0.022": 0.0,
			"0.023": 0.0,
			"0.024": 0.0,
			"0.025": 0.0
		}
	}
}
