{
	 "smiles": "CC(C)(C)C1=CC=C(C=C1)C1(CC1)C(O)=O", 
	 "Tm": 475.15, 
	 "num_atms": 34, 
	 "gaussian": { 
		 "optdone": 1, 
		 "sigma_profile": "yes", 
		 "theory": "DFT", 
		 "functional": "B3LYP", 
		 "basiset": "6-31G**", 
		 "properties": { 
			 "R2extent": 5119.0887, 
			 "electric_dipole_moment_norm": 5.40994015586, 
			 "electric_quadrupole_moment_norm": 21.5041772456, 
			 "total_energy": -694.787056193, 
			 "HOMO_LUMO_gap": 0.22279, 
			 "cosmo_polarized_energy": -11.56, 
			 "cosmo_cavitation_energy": 35.54, 
			 "cosmo_dispersion_energy": -24.47, 
			 "cosmo_repulsion_energy": 1.89, 
			 "cosmo_total_nonelectrostatic_energy": 12.96, 
			 "SMD_solvation_energy": 7.09 
		},
		"coords": [
			{
				"x": 1.0054431621,
				"y": -2.3057324605,
				"z": 3.2086603763,
				"element": "C" 
			},
			{
				"x": 0.0030768923,
				"y": -1.1938785479,
				"z": 2.8454356859,
				"element": "C" 
			},
			{
				"x": -1.4074734119,
				"y": -1.8244121902,
				"z": 2.7578083085,
				"element": "C" 
			},
			{
				"x": 0.0230630846,
				"y": -0.1371688412,
				"z": 3.9758579839,
				"element": "C" 
			},
			{
				"x": 0.342508685,
				"y": -0.5155169803,
				"z": 1.5059920781,
				"element": "C" 
			},
			{
				"x": 1.4429921626,
				"y": -0.8850046993,
				"z": 0.7201839787,
				"element": "C" 
			},
			{
				"x": 1.7193662538,
				"y": -0.2502966086,
				"z": -0.493093771,
				"element": "C" 
			},
			{
				"x": 0.9027647268,
				"y": 0.7810640399,
				"z": -0.9747328949,
				"element": "C" 
			},
			{
				"x": -0.1979980991,
				"y": 1.1606713521,
				"z": -0.1891196015,
				"element": "C" 
			},
			{
				"x": -0.4689670645,
				"y": 0.5249577042,
				"z": 1.0194191471,
				"element": "C" 
			},
			{
				"x": 1.220985965,
				"y": 1.49224331,
				"z": -2.2618742744,
				"element": "C" 
			},
			{
				"x": 1.3678081365,
				"y": 0.6926336578,
				"z": -3.5528717961,
				"element": "C" 
			},
			{
				"x": 0.1710447031,
				"y": 1.564862794,
				"z": -3.3658584844,
				"element": "C" 
			},
			{
				"x": 2.1200412492,
				"y": 2.7093240333,
				"z": -2.1922802373,
				"element": "C" 
			},
			{
				"x": 2.5771149001,
				"y": 3.0500928771,
				"z": -0.9653011394,
				"element": "O" 
			},
			{
				"x": 2.4300605159,
				"y": 3.3593513641,
				"z": -3.1647571075,
				"element": "O" 
			},
			{
				"x": 2.0242145121,
				"y": -1.9186484075,
				"z": 3.3148752762,
				"element": "H" 
			},
			{
				"x": 0.7237406888,
				"y": -2.7562330815,
				"z": 4.1656706938,
				"element": "H" 
			},
			{
				"x": 1.0181510484,
				"y": -3.1048875653,
				"z": 2.4602094811,
				"element": "H" 
			},
			{
				"x": -2.1767137619,
				"y": -1.0761480514,
				"z": 2.5451168699,
				"element": "H" 
			},
			{
				"x": -1.6669382965,
				"y": -2.3076668673,
				"z": 3.7062988366,
				"element": "H" 
			},
			{
				"x": -1.4502333437,
				"y": -2.5816737855,
				"z": 1.9681464926,
				"element": "H" 
			},
			{
				"x": -0.7017208414,
				"y": 0.6632133068,
				"z": 3.7999225491,
				"element": "H" 
			},
			{
				"x": 1.0129601686,
				"y": 0.3219711362,
				"z": 4.0666913013,
				"element": "H" 
			},
			{
				"x": -0.2236741691,
				"y": -0.6036659029,
				"z": 4.9360341164,
				"element": "H" 
			},
			{
				"x": 2.1028952026,
				"y": -1.6809297069,
				"z": 1.0453982551,
				"element": "H" 
			},
			{
				"x": 2.5787501351,
				"y": -0.5659491117,
				"z": -1.0790458128,
				"element": "H" 
			},
			{
				"x": -0.8496915127,
				"y": 1.9581792809,
				"z": -0.5365179735,
				"element": "H" 
			},
			{
				"x": -1.3338012103,
				"y": 0.8474629235,
				"z": 1.5916239191,
				"element": "H" 
			},
			{
				"x": 1.2410628292,
				"y": -0.3823795478,
				"z": -3.4741713214,
				"element": "H" 
			},
			{
				"x": 2.1356377338,
				"y": 1.0316047641,
				"z": -4.239615701,
				"element": "H" 
			},
			{
				"x": 0.1316833734,
				"y": 2.4925408254,
				"z": -3.9261387571,
				"element": "H" 
			},
			{
				"x": -0.7841975657,
				"y": 1.093368262,
				"z": -3.1580781185,
				"element": "H" 
			},
			{
				"x": 2.2329431476,
				"y": 2.4225507245,
				"z": -0.3092883589,
				"element": "H" 
			}
		],
		 "valence_orbital": [ 
			{
				"type": "occ",
				"energy": -0.31027,
				"method": "rhf"
			},
			{
				"type": "occ",
				"energy": -0.28868,
				"method": "rhf"
			},
			{
				"type": "occ",
				"energy": -0.27392,
				"method": "rhf"
			},
			{
				"type": "occ",
				"energy": -0.26366,
				"method": "rhf"
			},
			{
				"type": "occ",
				"energy": -0.24404,
				"method": "rhf"
			},
			{
				"type": "unocc",
				"energy": -0.02125,
				"method": "rhf"
			},
			{
				"type": "unocc",
				"energy": -0.01692,
				"method": "rhf"
			},
			{
				"type": "unocc",
				"energy": 0.01792,
				"method": "rhf"
			},
			{
				"type": "unocc",
				"energy": 0.07196,
				"method": "rhf"
			},
			{
				"type": "unocc",
				"energy": 0.09675,
				"method": "rhf"
			}
		],
		"cosmo_sigma_profile": { 
			"-0.025": 0.0,
			"-0.024": 0.0,
			"-0.023": 0.0,
			"-0.022": 0.0,
			"-0.021": 0.0,
			"-0.02": 0.0,
			"-0.019": 0.0,
			"-0.018": 0.0,
			"-0.017": 0.0,
			"-0.016": 0.0,
			"-0.015": 0.0,
			"-0.014": 0.0935874705089,
			"-0.013": 0.48201521449,
			"-0.012": 0.366549707444,
			"-0.011": 1.02247919057,
			"-0.01": 0.511878074864,
			"-0.009": 0.865164997991,
			"-0.008": 0.90857106784,
			"-0.007": 1.16389397799,
			"-0.006": 5.45133718229,
			"-0.005": 15.7655075584,
			"-0.004": 20.1164539828,
			"-0.003": 33.5515780642,
			"-0.002": 35.5425434385,
			"-0.001": 32.3062361129,
			"0.0": 28.4246073606,
			"0.001": 30.098688918,
			"0.002": 17.3751158825,
			"0.003": 10.2756032213,
			"0.004": 10.0461474566,
			"0.005": 6.27876904015,
			"0.006": 3.15773102442,
			"0.007": 1.96301417126,
			"0.008": 2.75186463539,
			"0.009": 2.92644321542,
			"0.01": 4.16611226423,
			"0.011": 4.25211926274,
			"0.012": 4.95415669202,
			"0.013": 3.24226822828,
			"0.014": 0.513066328369,
			"0.015": 0.0,
			"0.016": 0.0,
			"0.017": 0.0,
			"0.018": 0.0,
			"0.019": 0.0,
			"0.02": 0.0,
			"0.021": 0.0,
			"0.022": 0.0,
			"0.023": 0.0,
			"0.024": 0.0,
			"0.025": 0.0
		}
	}
}
