{
	 "smiles": "OC(=O)C1=NOC2=C1CCCC2", 
	 "Tm": 398.15, 
	 "num_atms": 21, 
	 "gaussian": { 
		 "optdone": 1, 
		 "sigma_profile": "yes", 
		 "theory": "DFT", 
		 "functional": "B3LYP", 
		 "basiset": "6-31G**", 
		 "properties": { 
			 "R2extent": 2486.3263, 
			 "electric_dipole_moment_norm": 7.50233916989, 
			 "electric_quadrupole_moment_norm": 15.6242945073, 
			 "total_energy": -590.657522525, 
			 "HOMO_LUMO_gap": 0.21254, 
			 "cosmo_polarized_energy": -17.99, 
			 "cosmo_cavitation_energy": 24.26, 
			 "cosmo_dispersion_energy": -18.32, 
			 "cosmo_repulsion_energy": 1.46, 
			 "cosmo_total_nonelectrostatic_energy": 7.4, 
			 "SMD_solvation_energy": 4.58 
		},
		"coords": [
			{
				"x": -0.4062381767,
				"y": 2.3394999042,
				"z": -1.35442376,
				"element": "O" 
			},
			{
				"x": -1.2272640095,
				"y": 1.488418084,
				"z": -2.0301650133,
				"element": "C" 
			},
			{
				"x": -1.6645396783,
				"y": 1.7819311727,
				"z": -3.1107727681,
				"element": "O" 
			},
			{
				"x": -1.4945889063,
				"y": 0.1903804294,
				"z": -1.3302495149,
				"element": "C" 
			},
			{
				"x": -2.5824340791,
				"y": -0.4854998302,
				"z": -1.6494150532,
				"element": "N" 
			},
			{
				"x": -2.5478505121,
				"y": -1.633239535,
				"z": -0.865650444,
				"element": "O" 
			},
			{
				"x": -1.4359668059,
				"y": -1.6200184869,
				"z": -0.1032846901,
				"element": "C" 
			},
			{
				"x": -0.7145080051,
				"y": -0.4880994265,
				"z": -0.3386641953,
				"element": "C" 
			},
			{
				"x": 0.5980676188,
				"y": -0.2059478377,
				"z": 0.3424784128,
				"element": "C" 
			},
			{
				"x": 1.1366003616,
				"y": -1.5048648096,
				"z": 0.9831522154,
				"element": "C" 
			},
			{
				"x": 0.0451313901,
				"y": -2.2749147817,
				"z": 1.7496738144,
				"element": "C" 
			},
			{
				"x": -1.1011103674,
				"y": -2.7388353841,
				"z": 0.822588709,
				"element": "C" 
			},
			{
				"x": -0.2383062504,
				"y": 2.0156972011,
				"z": -0.4585464748,
				"element": "H" 
			},
			{
				"x": 0.4708691793,
				"y": 0.5546893686,
				"z": 1.129285027,
				"element": "H" 
			},
			{
				"x": 1.3315638929,
				"y": 0.1971380836,
				"z": -0.3654036905,
				"element": "H" 
			},
			{
				"x": 1.5442914358,
				"y": -2.1470294231,
				"z": 0.1921622028,
				"element": "H" 
			},
			{
				"x": 1.9666610599,
				"y": -1.2647506959,
				"z": 1.6552964633,
				"element": "H" 
			},
			{
				"x": 0.4814399987,
				"y": -3.1438412575,
				"z": 2.2521051685,
				"element": "H" 
			},
			{
				"x": -0.3679564375,
				"y": -1.6301261261,
				"z": 2.5357787417,
				"element": "H" 
			},
			{
				"x": -1.9820291091,
				"y": -3.0386757042,
				"z": 1.4009641778,
				"element": "H" 
			},
			{
				"x": -0.7956325997,
				"y": -3.618810945,
				"z": 0.2404906716,
				"element": "H" 
			}
		],
		 "valence_orbital": [ 
			{
				"type": "occ",
				"energy": -0.32687,
				"method": "rhf"
			},
			{
				"type": "occ",
				"energy": -0.31566,
				"method": "rhf"
			},
			{
				"type": "occ",
				"energy": -0.30487,
				"method": "rhf"
			},
			{
				"type": "occ",
				"energy": -0.27928,
				"method": "rhf"
			},
			{
				"type": "occ",
				"energy": -0.2641,
				"method": "rhf"
			},
			{
				"type": "unocc",
				"energy": -0.05156,
				"method": "rhf"
			},
			{
				"type": "unocc",
				"energy": 0.00232,
				"method": "rhf"
			},
			{
				"type": "unocc",
				"energy": 0.04705,
				"method": "rhf"
			},
			{
				"type": "unocc",
				"energy": 0.06992,
				"method": "rhf"
			},
			{
				"type": "unocc",
				"energy": 0.08456,
				"method": "rhf"
			}
		],
		"cosmo_sigma_profile": { 
			"-0.025": 0.0,
			"-0.024": 0.0,
			"-0.023": 0.0,
			"-0.022": 0.0,
			"-0.021": 0.0,
			"-0.02": 0.0,
			"-0.019": 0.0,
			"-0.018": 0.0741100946827,
			"-0.017": 0.97407265833,
			"-0.016": 0.72744896152,
			"-0.015": 1.01958711518,
			"-0.014": 1.09038997647,
			"-0.013": 1.32700023023,
			"-0.012": 0.684864166284,
			"-0.011": 1.18918660365,
			"-0.01": 1.04672628139,
			"-0.009": 0.82166466101,
			"-0.008": 1.6572145028,
			"-0.007": 2.64670757026,
			"-0.006": 7.36557884794,
			"-0.005": 11.2327454966,
			"-0.004": 21.1230846734,
			"-0.003": 27.2489956856,
			"-0.002": 20.8318588944,
			"-0.001": 16.5481945101,
			"0.0": 10.7082586814,
			"0.001": 3.7971083479,
			"0.002": 3.70407013272,
			"0.003": 2.68102706747,
			"0.004": 3.80462166597,
			"0.005": 4.20717393712,
			"0.006": 5.28706382485,
			"0.007": 7.66302503604,
			"0.008": 4.75684580572,
			"0.009": 6.49894426017,
			"0.01": 6.80453492668,
			"0.011": 7.58286307158,
			"0.012": 5.01141437695,
			"0.013": 1.32952573378,
			"0.014": 0.24848450574,
			"0.015": 0.0,
			"0.016": 0.0,
			"0.017": 0.0,
			"0.018": 0.0,
			"0.019": 0.0,
			"0.02": 0.0,
			"0.021": 0.0,
			"0.022": 0.0,
			"0.023": 0.0,
			"0.024": 0.0,
			"0.025": 0.0
		}
	}
}
