{
	 "smiles": "COCCOC1=CN=C(NS(=O)(=O)C2=CC=CC=C2)N=C1", 
	 "Tm": 425.15, 
	 "num_atms": 36, 
	 "gaussian": { 
		 "optdone": 1, 
		 "sigma_profile": "yes", 
		 "theory": "DFT", 
		 "functional": "B3LYP", 
		 "basiset": "6-31G**", 
		 "properties": { 
			 "R2extent": 10514.5587, 
			 "electric_dipole_moment_norm": 7.64999487647, 
			 "electric_quadrupole_moment_norm": 32.8143055842, 
			 "total_energy": -1367.65475556, 
			 "HOMO_LUMO_gap": 0.18445, 
			 "cosmo_polarized_energy": -19.57, 
			 "cosmo_cavitation_energy": 41.79, 
			 "cosmo_dispersion_energy": -30.19, 
			 "cosmo_repulsion_energy": 2.28, 
			 "cosmo_total_nonelectrostatic_energy": 13.87, 
			 "SMD_solvation_energy": 5.27 
		},
		"coords": [
			{
				"x": -4.8256031131,
				"y": -0.176514765,
				"z": -3.0601948068,
				"element": "C" 
			},
			{
				"x": -3.6298303251,
				"y": 0.2354818354,
				"z": -3.7007881123,
				"element": "O" 
			},
			{
				"x": -2.8360266274,
				"y": -0.838389024,
				"z": -4.1799871932,
				"element": "C" 
			},
			{
				"x": -1.8804663516,
				"y": -1.4380887283,
				"z": -3.1469002764,
				"element": "C" 
			},
			{
				"x": -0.6611865379,
				"y": -0.6966933279,
				"z": -3.006268393,
				"element": "O" 
			},
			{
				"x": -0.5050689017,
				"y": 0.1553282467,
				"z": -1.9499445884,
				"element": "C" 
			},
			{
				"x": -1.4807525962,
				"y": 1.0268272725,
				"z": -1.4561496781,
				"element": "C" 
			},
			{
				"x": -1.2346590398,
				"y": 1.8545665496,
				"z": -0.4350679687,
				"element": "N" 
			},
			{
				"x": -0.0036298484,
				"y": 1.8077648385,
				"z": 0.0860995946,
				"element": "C" 
			},
			{
				"x": 0.2055261774,
				"y": 2.6438149728,
				"z": 1.1865136158,
				"element": "N" 
			},
			{
				"x": 1.6964560485,
				"y": 3.3575371596,
				"z": 1.6179951258,
				"element": "S" 
			},
			{
				"x": 2.4994162042,
				"y": 3.6228033087,
				"z": 0.4276483264,
				"element": "O" 
			},
			{
				"x": 1.2730386777,
				"y": 4.4346032251,
				"z": 2.51713083,
				"element": "O" 
			},
			{
				"x": 2.5198762132,
				"y": 2.0983982062,
				"z": 2.5888873865,
				"element": "C" 
			},
			{
				"x": 2.288481641,
				"y": 2.0577348566,
				"z": 3.9653338162,
				"element": "C" 
			},
			{
				"x": 2.9487337685,
				"y": 1.095901251,
				"z": 4.729347155,
				"element": "C" 
			},
			{
				"x": 3.8267172876,
				"y": 0.1975340345,
				"z": 4.1176583643,
				"element": "C" 
			},
			{
				"x": 4.0525123651,
				"y": 0.2578254485,
				"z": 2.7404105737,
				"element": "C" 
			},
			{
				"x": 3.3992657685,
				"y": 1.2140004198,
				"z": 1.9626445724,
				"element": "C" 
			},
			{
				"x": 1.007453701,
				"y": 1.0263323637,
				"z": -0.3090989361,
				"element": "N" 
			},
			{
				"x": 0.7465281719,
				"y": 0.2090139192,
				"z": -1.3288573054,
				"element": "C" 
			},
			{
				"x": -4.6386152663,
				"y": -0.7783388464,
				"z": -2.1582708402,
				"element": "H" 
			},
			{
				"x": -5.4611550965,
				"y": -0.7613690215,
				"z": -3.7417352997,
				"element": "H" 
			},
			{
				"x": -5.359167174,
				"y": 0.7302889182,
				"z": -2.7673687537,
				"element": "H" 
			},
			{
				"x": -2.2417949133,
				"y": -0.4473340817,
				"z": -5.0122799003,
				"element": "H" 
			},
			{
				"x": -3.4806085354,
				"y": -1.641973482,
				"z": -4.5706902628,
				"element": "H" 
			},
			{
				"x": -1.5724007661,
				"y": -2.4314694581,
				"z": -3.4929125165,
				"element": "H" 
			},
			{
				"x": -2.3702167063,
				"y": -1.5544458084,
				"z": -2.1718978127,
				"element": "H" 
			},
			{
				"x": -2.4631562475,
				"y": 1.0739233125,
				"z": -1.917816721,
				"element": "H" 
			},
			{
				"x": -0.5666996674,
				"y": 3.2697796139,
				"z": 1.3914917604,
				"element": "H" 
			},
			{
				"x": 1.6180474552,
				"y": 2.7776290713,
				"z": 4.4213646717,
				"element": "H" 
			},
			{
				"x": 2.7828662325,
				"y": 1.0530616288,
				"z": 5.8015236086,
				"element": "H" 
			},
			{
				"x": 4.3408615055,
				"y": -0.5480039307,
				"z": 4.717398827,
				"element": "H" 
			},
			{
				"x": 4.7413307788,
				"y": -0.4376012779,
				"z": 2.2703895877,
				"element": "H" 
			},
			{
				"x": 3.5538878564,
				"y": 1.2798972517,
				"z": 0.8929074594,
				"element": "H" 
			},
			{
				"x": 1.5511378609,
				"y": -0.4342259527,
				"z": -1.6795159102,
				"element": "H" 
			}
		],
		 "valence_orbital": [ 
			{
				"type": "occ",
				"energy": -0.27429,
				"method": "rhf"
			},
			{
				"type": "occ",
				"energy": -0.26646,
				"method": "rhf"
			},
			{
				"type": "occ",
				"energy": -0.26459,
				"method": "rhf"
			},
			{
				"type": "occ",
				"energy": -0.25212,
				"method": "rhf"
			},
			{
				"type": "occ",
				"energy": -0.22842,
				"method": "rhf"
			},
			{
				"type": "unocc",
				"energy": -0.04397,
				"method": "rhf"
			},
			{
				"type": "unocc",
				"energy": -0.03381,
				"method": "rhf"
			},
			{
				"type": "unocc",
				"energy": -0.01366,
				"method": "rhf"
			},
			{
				"type": "unocc",
				"energy": -0.01013,
				"method": "rhf"
			},
			{
				"type": "unocc",
				"energy": 0.06199,
				"method": "rhf"
			}
		],
		"cosmo_sigma_profile": { 
			"-0.025": 0.0,
			"-0.024": 0.0,
			"-0.023": 0.0,
			"-0.022": 0.0,
			"-0.021": 0.0,
			"-0.02": 0.0,
			"-0.019": 0.0,
			"-0.018": 0.0,
			"-0.017": 0.0,
			"-0.016": 0.0,
			"-0.015": 0.321343856452,
			"-0.014": 0.851778540404,
			"-0.013": 0.834450277561,
			"-0.012": 0.58371633404,
			"-0.011": 0.371763457913,
			"-0.01": 0.75598944088,
			"-0.009": 1.37061012023,
			"-0.008": 2.42729929825,
			"-0.007": 9.4804675494,
			"-0.006": 23.73340639,
			"-0.005": 30.1415891503,
			"-0.004": 27.4431206204,
			"-0.003": 27.1446701722,
			"-0.002": 26.8538229603,
			"-0.001": 21.4181901588,
			"0.0": 19.8886083306,
			"0.001": 22.1869705797,
			"0.002": 19.6978846268,
			"0.003": 23.0955899454,
			"0.004": 12.6089076461,
			"0.005": 8.29427573945,
			"0.006": 7.47141563748,
			"0.007": 7.90918668931,
			"0.008": 5.9797423635,
			"0.009": 8.17742647903,
			"0.01": 12.802090371,
			"0.011": 8.60642977182,
			"0.012": 1.9866069191,
			"0.013": 1.02010184914,
			"0.014": 0.121324455457,
			"0.015": 0.0,
			"0.016": 0.0,
			"0.017": 0.0,
			"0.018": 0.0,
			"0.019": 0.0,
			"0.02": 0.0,
			"0.021": 0.0,
			"0.022": 0.0,
			"0.023": 0.0,
			"0.024": 0.0,
			"0.025": 0.0
		}
	}
}
