{
	 "smiles": "CC1=NN=C(N)O1", 
	 "Tm": 457.15, 
	 "num_atms": 12, 
	 "gaussian": { 
		 "optdone": 1, 
		 "sigma_profile": "yes", 
		 "theory": "DFT", 
		 "functional": "B3LYP", 
		 "basiset": "6-31G**", 
		 "properties": { 
			 "R2extent": 1310.3494, 
			 "electric_dipole_moment_norm": 3.96607835903, 
			 "electric_quadrupole_moment_norm": 17.3154875646, 
			 "total_energy": -356.785232079, 
			 "HOMO_LUMO_gap": 0.24259, 
			 "cosmo_polarized_energy": -15.18, 
			 "cosmo_cavitation_energy": 16.51, 
			 "cosmo_dispersion_energy": -12.64, 
			 "cosmo_repulsion_energy": 1.1, 
			 "cosmo_total_nonelectrostatic_energy": 4.96, 
			 "SMD_solvation_energy": 1.71 
		},
		"coords": [
			{
				"x": -0.1688804432,
				"y": 2.6665421118,
				"z": -0.3697741401,
				"element": "C" 
			},
			{
				"x": -0.1473787437,
				"y": 1.4916926706,
				"z": -1.276019517,
				"element": "C" 
			},
			{
				"x": 0.6418357954,
				"y": 1.230379909,
				"z": -2.2611093395,
				"element": "N" 
			},
			{
				"x": 0.2530683762,
				"y": -0.0152936743,
				"z": -2.7852249858,
				"element": "N" 
			},
			{
				"x": -0.759829044,
				"y": -0.3884501152,
				"z": -2.0639839474,
				"element": "C" 
			},
			{
				"x": -1.5544497462,
				"y": -1.494961349,
				"z": -2.2122566506,
				"element": "N" 
			},
			{
				"x": -1.0863373619,
				"y": 0.4945172707,
				"z": -1.0833355649,
				"element": "O" 
			},
			{
				"x": 0.6329351925,
				"y": 3.3454238591,
				"z": -0.662709335,
				"element": "H" 
			},
			{
				"x": -1.1253346059,
				"y": 3.1963399555,
				"z": -0.4309346676,
				"element": "H" 
			},
			{
				"x": -0.0184585595,
				"y": 2.3659700317,
				"z": 0.6725958292,
				"element": "H" 
			},
			{
				"x": -1.9353294046,
				"y": -1.8709471107,
				"z": -1.3546142699,
				"element": "H" 
			},
			{
				"x": -1.144041455,
				"y": -2.1927135592,
				"z": -2.8177334113,
				"element": "H" 
			}
		],
		 "valence_orbital": [ 
			{
				"type": "occ",
				"energy": -0.34358,
				"method": "rhf"
			},
			{
				"type": "occ",
				"energy": -0.32998,
				"method": "rhf"
			},
			{
				"type": "occ",
				"energy": -0.30685,
				"method": "rhf"
			},
			{
				"type": "occ",
				"energy": -0.26601,
				"method": "rhf"
			},
			{
				"type": "occ",
				"energy": -0.22978,
				"method": "rhf"
			},
			{
				"type": "unocc",
				"energy": 0.01281,
				"method": "rhf"
			},
			{
				"type": "unocc",
				"energy": 0.0549,
				"method": "rhf"
			},
			{
				"type": "unocc",
				"energy": 0.07149,
				"method": "rhf"
			},
			{
				"type": "unocc",
				"energy": 0.10568,
				"method": "rhf"
			},
			{
				"type": "unocc",
				"energy": 0.11914,
				"method": "rhf"
			}
		],
		"cosmo_sigma_profile": { 
			"-0.025": 0.0,
			"-0.024": 0.0,
			"-0.023": 0.0,
			"-0.022": 0.0,
			"-0.021": 0.0,
			"-0.02": 0.0,
			"-0.019": 0.0,
			"-0.018": 0.0,
			"-0.017": 0.0,
			"-0.016": 0.0,
			"-0.015": 1.61395795253,
			"-0.014": 2.56399636359,
			"-0.013": 2.48042470133,
			"-0.012": 3.01478724672,
			"-0.011": 2.28746908601,
			"-0.01": 1.87344214134,
			"-0.009": 1.65012805067,
			"-0.008": 2.11600087975,
			"-0.007": 3.198803879,
			"-0.006": 7.73005414293,
			"-0.005": 7.13168102173,
			"-0.004": 9.10845321683,
			"-0.003": 11.8865817905,
			"-0.002": 12.0327325527,
			"-0.001": 6.31481788064,
			"0.0": 4.86515978219,
			"0.001": 2.97185695123,
			"0.002": 4.02879500399,
			"0.003": 4.59457887046,
			"0.004": 4.67136575758,
			"0.005": 4.1248189767,
			"0.006": 3.46396912946,
			"0.007": 2.14505077148,
			"0.008": 2.27459670177,
			"0.009": 2.7296674648,
			"0.01": 2.70177692735,
			"0.011": 3.10164539802,
			"0.012": 2.83412106796,
			"0.013": 3.8494788629,
			"0.014": 2.99782348827,
			"0.015": 2.37808728862,
			"0.016": 2.19656264096,
			"0.017": 0.355034399956,
			"0.018": 0.0,
			"0.019": 0.0,
			"0.02": 0.0,
			"0.021": 0.0,
			"0.022": 0.0,
			"0.023": 0.0,
			"0.024": 0.0,
			"0.025": 0.0
		}
	}
}
