{
	 "smiles": "OCCOC1=CC=C(O)C=C1", 
	 "Tm": 360.15, 
	 "num_atms": 21, 
	 "gaussian": { 
		 "optdone": 1, 
		 "sigma_profile": "yes", 
		 "theory": "DFT", 
		 "functional": "B3LYP", 
		 "basiset": "6-31G**", 
		 "properties": { 
			 "R2extent": 3088.1361, 
			 "electric_dipole_moment_norm": 1.50457574751, 
			 "electric_quadrupole_moment_norm": 13.3918835132, 
			 "total_energy": -536.518960371, 
			 "HOMO_LUMO_gap": 0.19642, 
			 "cosmo_polarized_energy": -14.1, 
			 "cosmo_cavitation_energy": 25.05, 
			 "cosmo_dispersion_energy": -18.72, 
			 "cosmo_repulsion_energy": 1.54, 
			 "cosmo_total_nonelectrostatic_energy": 7.86, 
			 "SMD_solvation_energy": 4.83 
		},
		"coords": [
			{
				"x": -2.2752762044,
				"y": -2.3062998581,
				"z": 3.0258345227,
				"element": "O" 
			},
			{
				"x": -1.8779502461,
				"y": -1.1105652477,
				"z": 2.3742011831,
				"element": "C" 
			},
			{
				"x": -1.3843277564,
				"y": -1.3900418307,
				"z": 0.9560791773,
				"element": "C" 
			},
			{
				"x": -1.0275320294,
				"y": -0.1428387005,
				"z": 0.3819171667,
				"element": "O" 
			},
			{
				"x": -0.5506965717,
				"y": -0.124719292,
				"z": -0.9041997758,
				"element": "C" 
			},
			{
				"x": -0.3899651147,
				"y": -1.2564761894,
				"z": -1.7116916975,
				"element": "C" 
			},
			{
				"x": 0.1063889313,
				"y": -1.1253973767,
				"z": -3.0104231398,
				"element": "C" 
			},
			{
				"x": 0.4461160796,
				"y": 0.1298694444,
				"z": -3.5155011731,
				"element": "C" 
			},
			{
				"x": 0.9283537668,
				"y": 0.1936352316,
				"z": -4.7974290658,
				"element": "O" 
			},
			{
				"x": 0.2846058306,
				"y": 1.2616278584,
				"z": -2.7068619039,
				"element": "C" 
			},
			{
				"x": -0.2095406542,
				"y": 1.1342459591,
				"z": -1.4125187302,
				"element": "C" 
			},
			{
				"x": -1.4803864131,
				"y": -2.8168865974,
				"z": 3.2260096079,
				"element": "H" 
			},
			{
				"x": -2.7620272953,
				"y": -0.4681494759,
				"z": 2.3310276784,
				"element": "H" 
			},
			{
				"x": -1.1014535896,
				"y": -0.5662273899,
				"z": 2.9312091699,
				"element": "H" 
			},
			{
				"x": -0.5153131143,
				"y": -2.067385066,
				"z": 0.9839562786,
				"element": "H" 
			},
			{
				"x": -2.1777406905,
				"y": -1.883692072,
				"z": 0.3782344471,
				"element": "H" 
			},
			{
				"x": -0.6477953571,
				"y": -2.2433677249,
				"z": -1.3458296283,
				"element": "H" 
			},
			{
				"x": 0.2334062781,
				"y": -1.9974576594,
				"z": -3.6433930071,
				"element": "H" 
			},
			{
				"x": 1.1174757537,
				"y": 1.1148376559,
				"z": -5.0159649235,
				"element": "H" 
			},
			{
				"x": 0.5454951255,
				"y": 2.2466948088,
				"z": -3.0886831288,
				"element": "H" 
			},
			{
				"x": -0.3387367288,
				"y": 2.0045935226,
				"z": -0.7775730579,
				"element": "H" 
			}
		],
		 "valence_orbital": [ 
			{
				"type": "occ",
				"energy": -0.32482,
				"method": "rhf"
			},
			{
				"type": "occ",
				"energy": -0.2938,
				"method": "rhf"
			},
			{
				"type": "occ",
				"energy": -0.27704,
				"method": "rhf"
			},
			{
				"type": "occ",
				"energy": -0.25184,
				"method": "rhf"
			},
			{
				"type": "occ",
				"energy": -0.19929,
				"method": "rhf"
			},
			{
				"type": "unocc",
				"energy": -0.00287,
				"method": "rhf"
			},
			{
				"type": "unocc",
				"energy": 0.02739,
				"method": "rhf"
			},
			{
				"type": "unocc",
				"energy": 0.06327,
				"method": "rhf"
			},
			{
				"type": "unocc",
				"energy": 0.07314,
				"method": "rhf"
			},
			{
				"type": "unocc",
				"energy": 0.09662,
				"method": "rhf"
			}
		],
		"cosmo_sigma_profile": { 
			"-0.025": 0.0,
			"-0.024": 0.0,
			"-0.023": 0.0,
			"-0.022": 0.0,
			"-0.021": 0.0,
			"-0.02": 0.0,
			"-0.019": 0.0,
			"-0.018": 0.0987338712037,
			"-0.017": 1.01166531496,
			"-0.016": 1.49199012555,
			"-0.015": 2.30373578751,
			"-0.014": 2.26427970266,
			"-0.013": 2.2139112626,
			"-0.012": 2.02120338471,
			"-0.011": 1.5239878038,
			"-0.01": 1.77366874845,
			"-0.009": 2.57029877548,
			"-0.008": 2.15403126026,
			"-0.007": 3.15839968854,
			"-0.006": 7.42749915098,
			"-0.005": 15.1328120748,
			"-0.004": 16.5025515886,
			"-0.003": 13.9751422522,
			"-0.002": 10.5836736594,
			"-0.001": 9.11119830901,
			"0.0": 8.4269330762,
			"0.001": 9.08512553862,
			"0.002": 7.57749112482,
			"0.003": 10.0857932077,
			"0.004": 15.0742860029,
			"0.005": 16.0009370527,
			"0.006": 9.26184026397,
			"0.007": 4.7533569179,
			"0.008": 3.93118238498,
			"0.009": 4.04601514396,
			"0.01": 3.2215924039,
			"0.011": 3.510497131,
			"0.012": 3.19851270788,
			"0.013": 1.40350747824,
			"0.014": 2.40938830823,
			"0.015": 0.062390344251,
			"0.016": 0.0,
			"0.017": 0.0,
			"0.018": 0.0,
			"0.019": 0.0,
			"0.02": 0.0,
			"0.021": 0.0,
			"0.022": 0.0,
			"0.023": 0.0,
			"0.024": 0.0,
			"0.025": 0.0
		}
	}
}
