{
	 "smiles": "FC(F)(F)C1=C(SC(Cl)=N1)C(=O)OCC1=CC=CC=C1", 
	 "Tm": 325.15, 
	 "num_atms": 27, 
	 "gaussian": { 
		 "optdone": 1, 
		 "sigma_profile": "yes", 
		 "theory": "DFT", 
		 "functional": "B3LYP", 
		 "basiset": "6-31G**", 
		 "properties": { 
			 "R2extent": 7938.8213, 
			 "electric_dipole_moment_norm": 1.96660801127, 
			 "electric_quadrupole_moment_norm": 11.7152489496, 
			 "total_energy": -1824.58480219, 
			 "HOMO_LUMO_gap": 0.16431, 
			 "cosmo_polarized_energy": -8.79, 
			 "cosmo_cavitation_energy": 37.57, 
			 "cosmo_dispersion_energy": -26.44, 
			 "cosmo_repulsion_energy": 1.95, 
			 "cosmo_total_nonelectrostatic_energy": 13.07, 
			 "SMD_solvation_energy": 6.37 
		},
		"coords": [
			{
				"x": -0.2971156142,
				"y": -2.5007869787,
				"z": -0.533157043,
				"element": "F" 
			},
			{
				"x": -0.2971031061,
				"y": -2.6850365348,
				"z": 0.805447457,
				"element": "C" 
			},
			{
				"x": 0.9709802569,
				"y": -2.5580194093,
				"z": 1.2390203366,
				"element": "F" 
			},
			{
				"x": -0.685088151,
				"y": -3.9453106378,
				"z": 1.0388944257,
				"element": "F" 
			},
			{
				"x": -1.2240563495,
				"y": -1.7004765372,
				"z": 1.4966931294,
				"element": "C" 
			},
			{
				"x": -1.1479027427,
				"y": -0.3234423205,
				"z": 1.4564811948,
				"element": "C" 
			},
			{
				"x": -2.4483617508,
				"y": 0.3562485765,
				"z": 2.3961599471,
				"element": "S" 
			},
			{
				"x": -2.9586339811,
				"y": -1.2678116949,
				"z": 2.7550592171,
				"element": "C" 
			},
			{
				"x": -4.3372422647,
				"y": -1.5535056721,
				"z": 3.7523817373,
				"element": "Cl" 
			},
			{
				"x": -2.2519910017,
				"y": -2.2234620479,
				"z": 2.235098567,
				"element": "N" 
			},
			{
				"x": -0.2357893884,
				"y": 0.6373241106,
				"z": 0.7940058697,
				"element": "C" 
			},
			{
				"x": -0.4107590708,
				"y": 1.8394411052,
				"z": 0.8493043333,
				"element": "O" 
			},
			{
				"x": 0.7753333021,
				"y": 0.025190921,
				"z": 0.1656818516,
				"element": "O" 
			},
			{
				"x": 1.6762747576,
				"y": 0.8722136668,
				"z": -0.6021698255,
				"element": "C" 
			},
			{
				"x": 1.1556510848,
				"y": 1.1144055063,
				"z": -1.9975174842,
				"element": "C" 
			},
			{
				"x": 1.0650112978,
				"y": 2.4145987349,
				"z": -2.5037810388,
				"element": "C" 
			},
			{
				"x": 0.6206402685,
				"y": 2.635268983,
				"z": -3.809127542,
				"element": "C" 
			},
			{
				"x": 0.2504729373,
				"y": 1.5561976968,
				"z": -4.6121094584,
				"element": "C" 
			},
			{
				"x": 0.3255753726,
				"y": 0.2551247513,
				"z": -4.1067082848,
				"element": "C" 
			},
			{
				"x": 0.7793569426,
				"y": 0.0337664518,
				"z": -2.80764416,
				"element": "C" 
			},
			{
				"x": 1.826529558,
				"y": 1.8102590927,
				"z": -0.0649438586,
				"element": "H" 
			},
			{
				"x": 2.608160417,
				"y": 0.3017995965,
				"z": -0.6117390557,
				"element": "H" 
			},
			{
				"x": 1.3371782982,
				"y": 3.2566707358,
				"z": -1.8730659495,
				"element": "H" 
			},
			{
				"x": 0.5548800759,
				"y": 3.6491963382,
				"z": -4.1929343387,
				"element": "H" 
			},
			{
				"x": -0.0999915139,
				"y": 1.726687683,
				"z": -5.6260019571,
				"element": "H" 
			},
			{
				"x": 0.0322429933,
				"y": -0.5871585049,
				"z": -4.7266991411,
				"element": "H" 
			},
			{
				"x": 0.8252473722,
				"y": -0.9752836122,
				"z": -2.408528929,
				"element": "H" 
			}
		],
		 "valence_orbital": [ 
			{
				"type": "occ",
				"energy": -0.31469,
				"method": "rhf"
			},
			{
				"type": "occ",
				"energy": -0.29388,
				"method": "rhf"
			},
			{
				"type": "occ",
				"energy": -0.27584,
				"method": "rhf"
			},
			{
				"type": "occ",
				"energy": -0.25676,
				"method": "rhf"
			},
			{
				"type": "occ",
				"energy": -0.25411,
				"method": "rhf"
			},
			{
				"type": "unocc",
				"energy": -0.0898,
				"method": "rhf"
			},
			{
				"type": "unocc",
				"energy": -0.02106,
				"method": "rhf"
			},
			{
				"type": "unocc",
				"energy": -0.01669,
				"method": "rhf"
			},
			{
				"type": "unocc",
				"energy": -0.01549,
				"method": "rhf"
			},
			{
				"type": "unocc",
				"energy": -0.00721,
				"method": "rhf"
			}
		],
		"cosmo_sigma_profile": { 
			"-0.025": 0.0,
			"-0.024": 0.0,
			"-0.023": 0.0,
			"-0.022": 0.0,
			"-0.021": 0.0,
			"-0.02": 0.0,
			"-0.019": 0.0,
			"-0.018": 0.0,
			"-0.017": 0.0,
			"-0.016": 0.0,
			"-0.015": 0.0,
			"-0.014": 0.0,
			"-0.013": 0.0,
			"-0.012": 0.0,
			"-0.011": 0.0,
			"-0.01": 0.0,
			"-0.009": 0.0,
			"-0.008": 0.436660751766,
			"-0.007": 4.2984366229,
			"-0.006": 11.2363774995,
			"-0.005": 22.6732964524,
			"-0.004": 31.2463975258,
			"-0.003": 25.8640980295,
			"-0.002": 23.8204614081,
			"-0.001": 25.4376605839,
			"0.0": 20.9490737565,
			"0.001": 27.4970260104,
			"0.002": 39.6801161143,
			"0.003": 22.0867271651,
			"0.004": 16.1974309585,
			"0.005": 14.2127201468,
			"0.006": 6.09250103607,
			"0.007": 2.87443098872,
			"0.008": 2.92016430996,
			"0.009": 3.38246114286,
			"0.01": 4.0641130648,
			"0.011": 2.49843020624,
			"0.012": 0.0956146599622,
			"0.013": 0.0,
			"0.014": 0.0,
			"0.015": 0.0,
			"0.016": 0.0,
			"0.017": 0.0,
			"0.018": 0.0,
			"0.019": 0.0,
			"0.02": 0.0,
			"0.021": 0.0,
			"0.022": 0.0,
			"0.023": 0.0,
			"0.024": 0.0,
			"0.025": 0.0
		}
	}
}
