{
	 "smiles": "CS(=O)(=O)C1=C(Br)C=CC=C1", 
	 "Tm": 381.15, 
	 "num_atms": 18, 
	 "gaussian": { 
		 "optdone": 1, 
		 "sigma_profile": "yes", 
		 "theory": "DFT", 
		 "functional": "B3LYP", 
		 "basiset": "6-31G**", 
		 "properties": { 
			 "R2extent": 3223.494, 
			 "electric_dipole_moment_norm": 4.9644944657, 
			 "electric_quadrupole_moment_norm": 14.5833867281, 
			 "total_energy": -3390.93045338, 
			 "HOMO_LUMO_gap": 0.2127, 
			 "cosmo_polarized_energy": -13.92, 
			 "cosmo_cavitation_energy": 25.01, 
			 "cosmo_dispersion_energy": -19.33, 
			 "cosmo_repulsion_energy": 1.48, 
			 "cosmo_total_nonelectrostatic_energy": 7.16, 
			 "SMD_solvation_energy": 3.21 
		},
		"coords": [
			{
				"x": 0.1055902936,
				"y": -1.1695089601,
				"z": 2.4350481482,
				"element": "C" 
			},
			{
				"x": -1.0277523377,
				"y": 0.1557935004,
				"z": 1.9664580003,
				"element": "S" 
			},
			{
				"x": -0.9234486219,
				"y": 1.236120155,
				"z": 2.9538423116,
				"element": "O" 
			},
			{
				"x": -2.3299972421,
				"y": -0.4694165113,
				"z": 1.6848866179,
				"element": "O" 
			},
			{
				"x": -0.3922220989,
				"y": 0.7453737663,
				"z": 0.3656084973,
				"element": "C" 
			},
			{
				"x": 0.818858578,
				"y": 1.4264222271,
				"z": 0.1827454008,
				"element": "C" 
			},
			{
				"x": 2.0450676537,
				"y": 1.7806545523,
				"z": 1.6040677511,
				"element": "Br" 
			},
			{
				"x": 1.1827313852,
				"y": 1.8734391524,
				"z": -1.0884428115,
				"element": "C" 
			},
			{
				"x": 0.3374351406,
				"y": 1.6520986313,
				"z": -2.1753906948,
				"element": "C" 
			},
			{
				"x": -0.8720260873,
				"y": 0.9806217536,
				"z": -1.9998069597,
				"element": "C" 
			},
			{
				"x": -1.2322238423,
				"y": 0.5286381236,
				"z": -0.7321330344,
				"element": "C" 
			},
			{
				"x": 0.0559547179,
				"y": -1.9556169023,
				"z": 1.6805542006,
				"element": "H" 
			},
			{
				"x": 1.1140136788,
				"y": -0.7690451952,
				"z": 2.535208745,
				"element": "H" 
			},
			{
				"x": -0.2567728981,
				"y": -1.5404776956,
				"z": 3.3960927144,
				"element": "H" 
			},
			{
				"x": 2.1237236954,
				"y": 2.395685674,
				"z": -1.2176110787,
				"element": "H" 
			},
			{
				"x": 0.6306857795,
				"y": 2.0087787961,
				"z": -3.1581459277,
				"element": "H" 
			},
			{
				"x": -1.5335587138,
				"y": 0.8089952701,
				"z": -2.8428361581,
				"element": "H" 
			},
			{
				"x": -2.1683590809,
				"y": 0.0079436622,
				"z": -0.5637457222,
				"element": "H" 
			}
		],
		 "valence_orbital": [ 
			{
				"type": "occ",
				"energy": -0.30667,
				"method": "rhf"
			},
			{
				"type": "occ",
				"energy": -0.29463,
				"method": "rhf"
			},
			{
				"type": "occ",
				"energy": -0.29163,
				"method": "rhf"
			},
			{
				"type": "occ",
				"energy": -0.28096,
				"method": "rhf"
			},
			{
				"type": "occ",
				"energy": -0.26261,
				"method": "rhf"
			},
			{
				"type": "unocc",
				"energy": -0.04991,
				"method": "rhf"
			},
			{
				"type": "unocc",
				"energy": -0.03351,
				"method": "rhf"
			},
			{
				"type": "unocc",
				"energy": -0.01466,
				"method": "rhf"
			},
			{
				"type": "unocc",
				"energy": 0.07228,
				"method": "rhf"
			},
			{
				"type": "unocc",
				"energy": 0.07711,
				"method": "rhf"
			}
		],
		"cosmo_sigma_profile": { 
			"-0.025": 0.0,
			"-0.024": 0.0,
			"-0.023": 0.0,
			"-0.022": 0.0,
			"-0.021": 0.0,
			"-0.02": 0.0,
			"-0.019": 0.0,
			"-0.018": 0.0,
			"-0.017": 0.0,
			"-0.016": 0.0,
			"-0.015": 0.0,
			"-0.014": 0.0,
			"-0.013": 0.0,
			"-0.012": 0.0,
			"-0.011": 0.0,
			"-0.01": 0.111348238886,
			"-0.009": 2.95569751901,
			"-0.008": 6.4225935761,
			"-0.007": 12.9075451658,
			"-0.006": 13.4992885262,
			"-0.005": 15.1173470094,
			"-0.004": 15.1366532952,
			"-0.003": 11.5157552228,
			"-0.002": 11.2637622983,
			"-0.001": 12.3284197415,
			"0.0": 15.4301098449,
			"0.001": 18.3993906708,
			"0.002": 16.777240846,
			"0.003": 9.3737632745,
			"0.004": 4.75622200299,
			"0.005": 2.53440879976,
			"0.006": 2.77105072118,
			"0.007": 2.47169476002,
			"0.008": 3.42144451217,
			"0.009": 4.13575469193,
			"0.01": 5.73990276452,
			"0.011": 10.3098019338,
			"0.012": 6.22881563261,
			"0.013": 0.0418659127025,
			"0.014": 0.0,
			"0.015": 0.0,
			"0.016": 0.0,
			"0.017": 0.0,
			"0.018": 0.0,
			"0.019": 0.0,
			"0.02": 0.0,
			"0.021": 0.0,
			"0.022": 0.0,
			"0.023": 0.0,
			"0.024": 0.0,
			"0.025": 0.0
		}
	}
}
