{
	 "smiles": "COC1=CC=C(C=C1)N=NC1=C2NC(=O)C=C(C)N2N=C1N", 
	 "Tm": 549.15, 
	 "num_atms": 36, 
	 "gaussian": { 
		 "optdone": 1, 
		 "sigma_profile": "yes", 
		 "theory": "DFT", 
		 "functional": "B3LYP", 
		 "basiset": "6-31G**", 
		 "properties": { 
			 "R2extent": 10341.1609, 
			 "electric_dipole_moment_norm": 2.9046212025, 
			 "electric_quadrupole_moment_norm": 30.2036122287, 
			 "total_energy": -1020.84343645, 
			 "HOMO_LUMO_gap": 0.12866, 
			 "cosmo_polarized_energy": -18.77, 
			 "cosmo_cavitation_energy": 41.58, 
			 "cosmo_dispersion_energy": -30.16, 
			 "cosmo_repulsion_energy": 2.29, 
			 "cosmo_total_nonelectrostatic_energy": 13.71, 
			 "SMD_solvation_energy": 6.66 
		},
		"coords": [
			{
				"x": -4.566912003,
				"y": 1.04730405,
				"z": 4.840659498,
				"element": "C" 
			},
			{
				"x": -4.5461594741,
				"y": 1.6552354067,
				"z": 3.5576325322,
				"element": "O" 
			},
			{
				"x": -3.6222558155,
				"y": 1.2272092279,
				"z": 2.6539851294,
				"element": "C" 
			},
			{
				"x": -2.6765294379,
				"y": 0.2225933445,
				"z": 2.8932740595,
				"element": "C" 
			},
			{
				"x": -1.7809471209,
				"y": -0.1280282355,
				"z": 1.8835928029,
				"element": "C" 
			},
			{
				"x": -1.8065242683,
				"y": 0.5048545033,
				"z": 0.6352279705,
				"element": "C" 
			},
			{
				"x": -2.7646900579,
				"y": 1.5143544131,
				"z": 0.4058615509,
				"element": "C" 
			},
			{
				"x": -3.6572887869,
				"y": 1.8685317286,
				"z": 1.4003682719,
				"element": "C" 
			},
			{
				"x": -0.8539646055,
				"y": 0.0665376324,
				"z": -0.3052213953,
				"element": "N" 
			},
			{
				"x": -0.8812331161,
				"y": 0.6690129481,
				"z": -1.4310289835,
				"element": "N" 
			},
			{
				"x": 0.0541166042,
				"y": 0.232125478,
				"z": -2.3309534643,
				"element": "C" 
			},
			{
				"x": 1.0480409765,
				"y": -0.7452006134,
				"z": -2.2158898437,
				"element": "C" 
			},
			{
				"x": 1.40920272,
				"y": -1.5849252171,
				"z": -1.2161843655,
				"element": "N" 
			},
			{
				"x": 2.4760178864,
				"y": -2.5051319992,
				"z": -1.3220947251,
				"element": "C" 
			},
			{
				"x": 2.7585260878,
				"y": -3.2381683288,
				"z": -0.3853545556,
				"element": "O" 
			},
			{
				"x": 3.1501221271,
				"y": -2.4642255472,
				"z": -2.6173065552,
				"element": "C" 
			},
			{
				"x": 2.7874918462,
				"y": -1.619678128,
				"z": -3.6244920754,
				"element": "C" 
			},
			{
				"x": 3.4433393727,
				"y": -1.538436575,
				"z": -4.9664316876,
				"element": "C" 
			},
			{
				"x": 1.7284775429,
				"y": -0.7648277215,
				"z": -3.397774057,
				"element": "N" 
			},
			{
				"x": 1.2376803385,
				"y": 0.1619098919,
				"z": -4.3121728912,
				"element": "N" 
			},
			{
				"x": 0.2357442125,
				"y": 0.7444684609,
				"z": -3.6637750345,
				"element": "C" 
			},
			{
				"x": -0.5573957956,
				"y": 1.6968142567,
				"z": -4.2446104761,
				"element": "N" 
			},
			{
				"x": -4.7736647826,
				"y": -0.0283705173,
				"z": 4.7743840422,
				"element": "H" 
			},
			{
				"x": -3.62026383,
				"y": 1.1988721315,
				"z": 5.3746552792,
				"element": "H" 
			},
			{
				"x": -5.3723508397,
				"y": 1.5347949256,
				"z": 5.3917233347,
				"element": "H" 
			},
			{
				"x": -2.6293900077,
				"y": -0.2865438056,
				"z": 3.8482602509,
				"element": "H" 
			},
			{
				"x": -1.0424192274,
				"y": -0.9054664676,
				"z": 2.0540132805,
				"element": "H" 
			},
			{
				"x": -2.7891745096,
				"y": 2.0033695083,
				"z": -0.5609623443,
				"element": "H" 
			},
			{
				"x": -4.4019123241,
				"y": 2.6419052614,
				"z": 1.2409658585,
				"element": "H" 
			},
			{
				"x": 0.8664972494,
				"y": -1.5246490058,
				"z": -0.3594407425,
				"element": "H" 
			},
			{
				"x": 3.9746483788,
				"y": -3.1514190102,
				"z": -2.7531426534,
				"element": "H" 
			},
			{
				"x": 2.7167123416,
				"y": -1.7398352502,
				"z": -5.7595387812,
				"element": "H" 
			},
			{
				"x": 3.8290147017,
				"y": -0.5296624846,
				"z": -5.143173271,
				"element": "H" 
			},
			{
				"x": 4.2613168021,
				"y": -2.2572200026,
				"z": -5.0304788637,
				"element": "H" 
			},
			{
				"x": -1.0770019084,
				"y": 2.2734029059,
				"z": -3.5993982107,
				"element": "H" 
			},
			{
				"x": -0.1651712775,
				"y": 2.1743928349,
				"z": -5.0426788846,
				"element": "H" 
			}
		],
		 "valence_orbital": [ 
			{
				"type": "occ",
				"energy": -0.25686,
				"method": "rhf"
			},
			{
				"type": "occ",
				"energy": -0.25013,
				"method": "rhf"
			},
			{
				"type": "occ",
				"energy": -0.23147,
				"method": "rhf"
			},
			{
				"type": "occ",
				"energy": -0.21208,
				"method": "rhf"
			},
			{
				"type": "occ",
				"energy": -0.19795,
				"method": "rhf"
			},
			{
				"type": "unocc",
				"energy": -0.06929,
				"method": "rhf"
			},
			{
				"type": "unocc",
				"energy": -0.03448,
				"method": "rhf"
			},
			{
				"type": "unocc",
				"energy": -0.00466,
				"method": "rhf"
			},
			{
				"type": "unocc",
				"energy": 0.01645,
				"method": "rhf"
			},
			{
				"type": "unocc",
				"energy": 0.04074,
				"method": "rhf"
			}
		],
		"cosmo_sigma_profile": { 
			"-0.025": 0.0,
			"-0.024": 0.0,
			"-0.023": 0.0,
			"-0.022": 0.0,
			"-0.021": 0.0,
			"-0.02": 0.0,
			"-0.019": 0.0,
			"-0.018": 0.0,
			"-0.017": 0.0,
			"-0.016": 0.0,
			"-0.015": 0.0,
			"-0.014": 0.586039585944,
			"-0.013": 1.89471610546,
			"-0.012": 1.94090744726,
			"-0.011": 2.07894332393,
			"-0.01": 3.07771297438,
			"-0.009": 2.15501874614,
			"-0.008": 3.51772813024,
			"-0.007": 7.89362122088,
			"-0.006": 18.9794929962,
			"-0.005": 23.8033296351,
			"-0.004": 26.9923661163,
			"-0.003": 27.6530845968,
			"-0.002": 26.7413068653,
			"-0.001": 22.1934905105,
			"0.0": 18.705623128,
			"0.001": 18.3785812217,
			"0.002": 21.4441755549,
			"0.003": 26.0489002032,
			"0.004": 24.2584883977,
			"0.005": 12.235616501,
			"0.006": 5.62918608372,
			"0.007": 5.15659638937,
			"0.008": 4.12239165061,
			"0.009": 4.04558477331,
			"0.01": 5.40815947614,
			"0.011": 3.04040195779,
			"0.012": 3.73643222602,
			"0.013": 6.3947804702,
			"0.014": 3.87115471889,
			"0.015": 0.316873877196,
			"0.016": 0.0,
			"0.017": 0.0,
			"0.018": 0.0,
			"0.019": 0.0,
			"0.02": 0.0,
			"0.021": 0.0,
			"0.022": 0.0,
			"0.023": 0.0,
			"0.024": 0.0,
			"0.025": 0.0
		}
	}
}
