{
	 "smiles": "CC1NC(CC2=C1NC1=CC=CC=C21)C(O)=O", 
	 "Tm": 517.15, 
	 "num_atms": 31, 
	 "gaussian": { 
		 "optdone": 1, 
		 "sigma_profile": "yes", 
		 "theory": "DFT", 
		 "functional": "B3LYP", 
		 "basiset": "6-31G**", 
		 "properties": { 
			 "R2extent": 4847.2912, 
			 "electric_dipole_moment_norm": 6.31654173579, 
			 "electric_quadrupole_moment_norm": 20.7432703164, 
			 "total_energy": -763.797151922, 
			 "HOMO_LUMO_gap": 0.18987, 
			 "cosmo_polarized_energy": -19.18, 
			 "cosmo_cavitation_energy": 33.4, 
			 "cosmo_dispersion_energy": -24.33, 
			 "cosmo_repulsion_energy": 1.87, 
			 "cosmo_total_nonelectrostatic_energy": 10.94, 
			 "SMD_solvation_energy": 5.19 
		},
		"coords": [
			{
				"x": -3.7239308077,
				"y": 0.5556747184,
				"z": 1.3342255993,
				"element": "C" 
			},
			{
				"x": -2.6754396707,
				"y": 0.5231564797,
				"z": 0.2171694123,
				"element": "C" 
			},
			{
				"x": -2.8414185227,
				"y": -0.712290924,
				"z": -0.5805566597,
				"element": "N" 
			},
			{
				"x": -1.729584982,
				"y": -0.9287334231,
				"z": -1.5312896594,
				"element": "C" 
			},
			{
				"x": -0.3772788511,
				"y": -1.1824530295,
				"z": -0.8462542649,
				"element": "C" 
			},
			{
				"x": -0.20872252,
				"y": -0.1636359717,
				"z": 0.2463191754,
				"element": "C" 
			},
			{
				"x": -1.251749252,
				"y": 0.602188994,
				"z": 0.711164857,
				"element": "C" 
			},
			{
				"x": -0.789257988,
				"y": 1.4754810695,
				"z": 1.6830937621,
				"element": "N" 
			},
			{
				"x": 0.5666003684,
				"y": 1.2715796202,
				"z": 1.8671529016,
				"element": "C" 
			},
			{
				"x": 1.4666296684,
				"y": 1.8985078677,
				"z": 2.7340226252,
				"element": "C" 
			},
			{
				"x": 2.7924985905,
				"y": 1.4792826082,
				"z": 2.6961935577,
				"element": "C" 
			},
			{
				"x": 3.2123242221,
				"y": 0.4607792791,
				"z": 1.8165715466,
				"element": "C" 
			},
			{
				"x": 2.3143830553,
				"y": -0.1611416508,
				"z": 0.9575080771,
				"element": "C" 
			},
			{
				"x": 0.9671497414,
				"y": 0.2391724317,
				"z": 0.9728698265,
				"element": "C" 
			},
			{
				"x": -2.1258633891,
				"y": -2.025844832,
				"z": -2.5299490293,
				"element": "C" 
			},
			{
				"x": -3.4568352955,
				"y": -2.1606720563,
				"z": -2.6766839094,
				"element": "O" 
			},
			{
				"x": -1.3252790496,
				"y": -2.6826099077,
				"z": -3.1514325709,
				"element": "O" 
			},
			{
				"x": -3.5560125905,
				"y": -0.2527035856,
				"z": 2.05424599,
				"element": "H" 
			},
			{
				"x": -3.6930188801,
				"y": 1.5031940224,
				"z": 1.8812695678,
				"element": "H" 
			},
			{
				"x": -4.725650341,
				"y": 0.4450893167,
				"z": 0.9101054834,
				"element": "H" 
			},
			{
				"x": -2.8775103625,
				"y": 1.3646748455,
				"z": -0.4634929044,
				"element": "H" 
			},
			{
				"x": -2.8450402818,
				"y": -1.4961068298,
				"z": 0.0752190443,
				"element": "H" 
			},
			{
				"x": -1.6489383449,
				"y": -0.0030440538,
				"z": -2.1198366229,
				"element": "H" 
			},
			{
				"x": -0.3435732593,
				"y": -2.2103008932,
				"z": -0.4572288652,
				"element": "H" 
			},
			{
				"x": 0.4238502848,
				"y": -1.1196815808,
				"z": -1.5899559544,
				"element": "H" 
			},
			{
				"x": -1.3509252591,
				"y": 2.1356458615,
				"z": 2.1948926219,
				"element": "H" 
			},
			{
				"x": 1.1452162086,
				"y": 2.6847461077,
				"z": 3.4116665952,
				"element": "H" 
			},
			{
				"x": 3.5174463384,
				"y": 1.9466329967,
				"z": 3.3561303418,
				"element": "H" 
			},
			{
				"x": 4.2557595058,
				"y": 0.1596492661,
				"z": 1.8132228886,
				"element": "H" 
			},
			{
				"x": 2.6483788262,
				"y": -0.945379036,
				"z": 0.2838245498,
				"element": "H" 
			},
			{
				"x": -3.8539071622,
				"y": -1.5442577107,
				"z": -2.0214879832,
				"element": "H" 
			}
		],
		 "valence_orbital": [ 
			{
				"type": "occ",
				"energy": -0.27612,
				"method": "rhf"
			},
			{
				"type": "occ",
				"energy": -0.27227,
				"method": "rhf"
			},
			{
				"type": "occ",
				"energy": -0.25586,
				"method": "rhf"
			},
			{
				"type": "occ",
				"energy": -0.22251,
				"method": "rhf"
			},
			{
				"type": "occ",
				"energy": -0.20338,
				"method": "rhf"
			},
			{
				"type": "unocc",
				"energy": -0.01351,
				"method": "rhf"
			},
			{
				"type": "unocc",
				"energy": 0.01324,
				"method": "rhf"
			},
			{
				"type": "unocc",
				"energy": 0.02379,
				"method": "rhf"
			},
			{
				"type": "unocc",
				"energy": 0.05403,
				"method": "rhf"
			},
			{
				"type": "unocc",
				"energy": 0.06025,
				"method": "rhf"
			}
		],
		"cosmo_sigma_profile": { 
			"-0.025": 0.0,
			"-0.024": 0.0,
			"-0.023": 0.0,
			"-0.022": 0.0,
			"-0.021": 0.0,
			"-0.02": 0.0,
			"-0.019": 0.0,
			"-0.018": 0.0,
			"-0.017": 0.0,
			"-0.016": 0.0,
			"-0.015": 0.366719014513,
			"-0.014": 1.4315972066,
			"-0.013": 1.41215643866,
			"-0.012": 1.98829860765,
			"-0.011": 3.96048395581,
			"-0.01": 4.06525527728,
			"-0.009": 3.56682420612,
			"-0.008": 4.48509941963,
			"-0.007": 7.95835459287,
			"-0.006": 10.2102935409,
			"-0.005": 15.2866402691,
			"-0.004": 21.7959129105,
			"-0.003": 21.9420531684,
			"-0.002": 20.4010425729,
			"-0.001": 19.7502675529,
			"0.0": 15.9066873356,
			"0.001": 10.3390618357,
			"0.002": 8.98489976086,
			"0.003": 11.467555508,
			"0.004": 12.0238076285,
			"0.005": 15.0374431004,
			"0.006": 13.8604421192,
			"0.007": 10.585330054,
			"0.008": 4.63523959818,
			"0.009": 3.7330180076,
			"0.01": 4.40370544833,
			"0.011": 5.22088949268,
			"0.012": 5.8945500594,
			"0.013": 2.70765269698,
			"0.014": 0.277207177705,
			"0.015": 0.0,
			"0.016": 0.0,
			"0.017": 0.0,
			"0.018": 0.0,
			"0.019": 0.0,
			"0.02": 0.0,
			"0.021": 0.0,
			"0.022": 0.0,
			"0.023": 0.0,
			"0.024": 0.0,
			"0.025": 0.0
		}
	}
}
