{
	 "smiles": "SC1=NC2=C(N=N1)C1=C(N2)C=CC=C1", 
	 "Tm": 360.65, 
	 "num_atms": 20, 
	 "gaussian": { 
		 "optdone": 1, 
		 "sigma_profile": "yes", 
		 "theory": "DFT", 
		 "functional": "B3LYP", 
		 "basiset": "6-31G**", 
		 "properties": { 
			 "R2extent": 3578.1021, 
			 "electric_dipole_moment_norm": 4.35396832671, 
			 "electric_quadrupole_moment_norm": 8.68170921708, 
			 "total_energy": -963.743274153, 
			 "HOMO_LUMO_gap": 0.15826, 
			 "cosmo_polarized_energy": -14.39, 
			 "cosmo_cavitation_energy": 26.71, 
			 "cosmo_dispersion_energy": -20.91, 
			 "cosmo_repulsion_energy": 1.57, 
			 "cosmo_total_nonelectrostatic_energy": 7.36, 
			 "SMD_solvation_energy": -0.11 
		},
		"coords": [
			{
				"x": -3.6324363825,
				"y": 0.8878983885,
				"z": -2.557316027,
				"element": "S" 
			},
			{
				"x": -2.2534884396,
				"y": 0.3152871404,
				"z": -1.5993298489,
				"element": "C" 
			},
			{
				"x": -1.0599294405,
				"y": 0.8277982683,
				"z": -1.9533271683,
				"element": "N" 
			},
			{
				"x": -0.0849742618,
				"y": 0.3571877837,
				"z": -1.197840018,
				"element": "C" 
			},
			{
				"x": -0.2971742139,
				"y": -0.5800106568,
				"z": -0.1408365732,
				"element": "C" 
			},
			{
				"x": -1.5143559826,
				"y": -1.0283283717,
				"z": 0.1331267397,
				"element": "N" 
			},
			{
				"x": -2.5229972477,
				"y": -0.5679698011,
				"z": -0.6172159807,
				"element": "N" 
			},
			{
				"x": 0.9959831366,
				"y": -0.8547567414,
				"z": 0.4505468058,
				"element": "C" 
			},
			{
				"x": 1.9280183362,
				"y": -0.0703427275,
				"z": -0.2773400066,
				"element": "C" 
			},
			{
				"x": 1.2462515766,
				"y": 0.651694883,
				"z": -1.2672702237,
				"element": "N" 
			},
			{
				"x": 3.28847186,
				"y": -0.083844467,
				"z": 0.0211451874,
				"element": "C" 
			},
			{
				"x": 3.7069050669,
				"y": -0.9032135563,
				"z": 1.070614961,
				"element": "C" 
			},
			{
				"x": 2.7968495939,
				"y": -1.6857590884,
				"z": 1.8008469054,
				"element": "C" 
			},
			{
				"x": 1.4372983754,
				"y": -1.6681972935,
				"z": 1.4978000225,
				"element": "C" 
			},
			{
				"x": -4.5342092201,
				"y": 0.1525712314,
				"z": -1.8789944982,
				"element": "H" 
			},
			{
				"x": 1.6577137985,
				"y": 1.2898936478,
				"z": -1.9314730332,
				"element": "H" 
			},
			{
				"x": 3.9979252102,
				"y": 0.517960909,
				"z": -0.5384773753,
				"element": "H" 
			},
			{
				"x": 4.7617319735,
				"y": -0.9345860743,
				"z": 1.326589078,
				"element": "H" 
			},
			{
				"x": 3.1604821864,
				"y": -2.310614449,
				"z": 2.6104237044,
				"element": "H" 
			},
			{
				"x": 0.7269340745,
				"y": -2.2690690251,
				"z": 2.0561273488,
				"element": "H" 
			}
		],
		 "valence_orbital": [ 
			{
				"type": "occ",
				"energy": -0.30454,
				"method": "rhf"
			},
			{
				"type": "occ",
				"energy": -0.27415,
				"method": "rhf"
			},
			{
				"type": "occ",
				"energy": -0.24123,
				"method": "rhf"
			},
			{
				"type": "occ",
				"energy": -0.23816,
				"method": "rhf"
			},
			{
				"type": "occ",
				"energy": -0.23094,
				"method": "rhf"
			},
			{
				"type": "unocc",
				"energy": -0.07268,
				"method": "rhf"
			},
			{
				"type": "unocc",
				"energy": -0.03433,
				"method": "rhf"
			},
			{
				"type": "unocc",
				"energy": 0.0012,
				"method": "rhf"
			},
			{
				"type": "unocc",
				"energy": 0.01281,
				"method": "rhf"
			},
			{
				"type": "unocc",
				"energy": 0.02003,
				"method": "rhf"
			}
		],
		"cosmo_sigma_profile": { 
			"-0.025": 0.0,
			"-0.024": 0.0,
			"-0.023": 0.0,
			"-0.022": 0.0,
			"-0.021": 0.0,
			"-0.02": 0.0,
			"-0.019": 0.0,
			"-0.018": 0.0,
			"-0.017": 1.00426134404,
			"-0.016": 1.62846298924,
			"-0.015": 1.40008259835,
			"-0.014": 1.24604300069,
			"-0.013": 0.417201531359,
			"-0.012": 1.20049070511,
			"-0.011": 2.9965224812,
			"-0.01": 2.25985435379,
			"-0.009": 2.56419795278,
			"-0.008": 3.20350177769,
			"-0.007": 5.87079472608,
			"-0.006": 9.6155362154,
			"-0.005": 12.1015475202,
			"-0.004": 12.7541042313,
			"-0.003": 12.0346836935,
			"-0.002": 13.5546782267,
			"-0.001": 13.6576075207,
			"0.0": 13.665417559,
			"0.001": 16.7670406523,
			"0.002": 17.3480316608,
			"0.003": 19.4453708952,
			"0.004": 16.3393922145,
			"0.005": 8.48401741349,
			"0.006": 5.34046593089,
			"0.007": 4.74672570046,
			"0.008": 3.3956584926,
			"0.009": 2.92679629642,
			"0.01": 2.44934763143,
			"0.011": 2.20305811366,
			"0.012": 3.36319085455,
			"0.013": 2.53084228753,
			"0.014": 1.90424994109,
			"0.015": 0.230828020848,
			"0.016": 0.0,
			"0.017": 0.0,
			"0.018": 0.0,
			"0.019": 0.0,
			"0.02": 0.0,
			"0.021": 0.0,
			"0.022": 0.0,
			"0.023": 0.0,
			"0.024": 0.0,
			"0.025": 0.0
		}
	}
}
