{
	 "smiles": "CC1CCN(CC1)C(=O)C1=CC=C(N)C=C1", 
	 "Tm": 392.15, 
	 "num_atms": 34, 
	 "gaussian": { 
		 "optdone": 1, 
		 "sigma_profile": "yes", 
		 "theory": "DFT", 
		 "functional": "B3LYP", 
		 "basiset": "6-31G**", 
		 "properties": { 
			 "R2extent": 4780.9503, 
			 "electric_dipole_moment_norm": 4.7673872058, 
			 "electric_quadrupole_moment_norm": 15.2504160494, 
			 "total_energy": -690.984710259, 
			 "HOMO_LUMO_gap": 0.19212, 
			 "cosmo_polarized_energy": -15.64, 
			 "cosmo_cavitation_energy": 34.96, 
			 "cosmo_dispersion_energy": -25.15, 
			 "cosmo_repulsion_energy": 1.96, 
			 "cosmo_total_nonelectrostatic_energy": 11.77, 
			 "SMD_solvation_energy": 5.14 
		},
		"coords": [
			{
				"x": -3.0761208147,
				"y": 3.9418518786,
				"z": -0.5084987888,
				"element": "C" 
			},
			{
				"x": -2.2342716877,
				"y": 2.780736411,
				"z": 0.0290291992,
				"element": "C" 
			},
			{
				"x": -1.7691499456,
				"y": 3.0285152825,
				"z": 1.4864880743,
				"element": "C" 
			},
			{
				"x": -1.5090346467,
				"y": 1.7009782822,
				"z": 2.2302498879,
				"element": "C" 
			},
			{
				"x": -1.0381076728,
				"y": 0.6580522471,
				"z": 1.3159375239,
				"element": "N" 
			},
			{
				"x": -2.0268717297,
				"y": 0.2598016653,
				"z": 0.3023537809,
				"element": "C" 
			},
			{
				"x": -2.9713573773,
				"y": 1.4345453799,
				"z": -0.0467011415,
				"element": "C" 
			},
			{
				"x": 0.3301560487,
				"y": 0.5102683869,
				"z": 1.1778470324,
				"element": "C" 
			},
			{
				"x": 1.115277792,
				"y": 1.2514258937,
				"z": 1.7728472593,
				"element": "O" 
			},
			{
				"x": 0.8516280664,
				"y": -0.6053027753,
				"z": 0.3245587598,
				"element": "C" 
			},
			{
				"x": 2.089806677,
				"y": -0.4156157898,
				"z": -0.3094655091,
				"element": "C" 
			},
			{
				"x": 2.6759160734,
				"y": -1.4222650074,
				"z": -1.0626874409,
				"element": "C" 
			},
			{
				"x": 2.053345001,
				"y": -2.6797469489,
				"z": -1.1840923305,
				"element": "C" 
			},
			{
				"x": 2.6656816601,
				"y": -3.7107484554,
				"z": -1.8875205376,
				"element": "N" 
			},
			{
				"x": 0.8291729155,
				"y": -2.8865905701,
				"z": -0.5230426057,
				"element": "C" 
			},
			{
				"x": 0.241713952,
				"y": -1.8638673096,
				"z": 0.2138129923,
				"element": "C" 
			},
			{
				"x": -4.0135011668,
				"y": 4.0398947737,
				"z": 0.0525185237,
				"element": "H" 
			},
			{
				"x": -2.5380460315,
				"y": 4.89219019,
				"z": -0.4209830204,
				"element": "H" 
			},
			{
				"x": -3.3318738721,
				"y": 3.7979387131,
				"z": -1.5642037706,
				"element": "H" 
			},
			{
				"x": -1.3366465372,
				"y": 2.6951019198,
				"z": -0.5998093261,
				"element": "H" 
			},
			{
				"x": -2.5346830028,
				"y": 3.5963014506,
				"z": 2.0319243194,
				"element": "H" 
			},
			{
				"x": -0.8587258689,
				"y": 3.6359847084,
				"z": 1.4841324755,
				"element": "H" 
			},
			{
				"x": -0.7606237509,
				"y": 1.8266876356,
				"z": 3.011425545,
				"element": "H" 
			},
			{
				"x": -2.4334738407,
				"y": 1.3366943288,
				"z": 2.6951058395,
				"element": "H" 
			},
			{
				"x": -1.490274305,
				"y": -0.0571217523,
				"z": -0.5937189826,
				"element": "H" 
			},
			{
				"x": -2.6177543707,
				"y": -0.6002526976,
				"z": 0.6497224556,
				"element": "H" 
			},
			{
				"x": -3.8290920997,
				"y": 1.4533617926,
				"z": 0.6387307739,
				"element": "H" 
			},
			{
				"x": -3.3831500564,
				"y": 1.2677476442,
				"z": -1.0489575938,
				"element": "H" 
			},
			{
				"x": 2.5868578815,
				"y": 0.5416186164,
				"z": -0.191555482,
				"element": "H" 
			},
			{
				"x": 3.630899048,
				"y": -1.2493058054,
				"z": -1.5531074892,
				"element": "H" 
			},
			{
				"x": 2.0574738827,
				"y": -4.4481956919,
				"z": -2.2133210804,
				"element": "H" 
			},
			{
				"x": 3.3457773542,
				"y": -3.4308553282,
				"z": -2.5796832456,
				"element": "H" 
			},
			{
				"x": 0.3480216023,
				"y": -3.860006812,
				"z": -0.5797489106,
				"element": "H" 
			},
			{
				"x": -0.6921691776,
				"y": -2.0608222564,
				"z": 0.7307128125,
				"element": "H" 
			}
		],
		 "valence_orbital": [ 
			{
				"type": "occ",
				"energy": -0.30279,
				"method": "rhf"
			},
			{
				"type": "occ",
				"energy": -0.24957,
				"method": "rhf"
			},
			{
				"type": "occ",
				"energy": -0.23823,
				"method": "rhf"
			},
			{
				"type": "occ",
				"energy": -0.21961,
				"method": "rhf"
			},
			{
				"type": "occ",
				"energy": -0.2036,
				"method": "rhf"
			},
			{
				"type": "unocc",
				"energy": -0.01148,
				"method": "rhf"
			},
			{
				"type": "unocc",
				"energy": 0.00164,
				"method": "rhf"
			},
			{
				"type": "unocc",
				"energy": 0.06682,
				"method": "rhf"
			},
			{
				"type": "unocc",
				"energy": 0.07945,
				"method": "rhf"
			},
			{
				"type": "unocc",
				"energy": 0.08549,
				"method": "rhf"
			}
		],
		"cosmo_sigma_profile": { 
			"-0.025": 0.0,
			"-0.024": 0.0,
			"-0.023": 0.0,
			"-0.022": 0.0,
			"-0.021": 0.0,
			"-0.02": 0.0,
			"-0.019": 0.0,
			"-0.018": 0.0,
			"-0.017": 0.0,
			"-0.016": 0.0,
			"-0.015": 0.0,
			"-0.014": 0.0,
			"-0.013": 0.978637677711,
			"-0.012": 3.11485158109,
			"-0.011": 2.4680388691,
			"-0.01": 3.13408734898,
			"-0.009": 3.29413906971,
			"-0.008": 2.47996797083,
			"-0.007": 3.89716584383,
			"-0.006": 5.20730686368,
			"-0.005": 7.22899009338,
			"-0.004": 15.8902604232,
			"-0.003": 27.9115881697,
			"-0.002": 38.5147393806,
			"-0.001": 33.0384815934,
			"0.0": 25.8133600879,
			"0.001": 21.8835894286,
			"0.002": 12.8217351495,
			"0.003": 9.15687646108,
			"0.004": 9.33520180144,
			"0.005": 13.4988520084,
			"0.006": 8.85820193593,
			"0.007": 3.1510742258,
			"0.008": 2.1515864889,
			"0.009": 2.02265515809,
			"0.01": 3.19023111362,
			"0.011": 1.99645375613,
			"0.012": 2.03621310129,
			"0.013": 2.60145416972,
			"0.014": 3.99264383497,
			"0.015": 3.10408568827,
			"0.016": 0.215606837082,
			"0.017": 0.0,
			"0.018": 0.0,
			"0.019": 0.0,
			"0.02": 0.0,
			"0.021": 0.0,
			"0.022": 0.0,
			"0.023": 0.0,
			"0.024": 0.0,
			"0.025": 0.0
		}
	}
}
