{
	 "smiles": "COC(=O)C1=CC=CC2=C1C1=C(C=CC=C1)C2=O", 
	 "Tm": 409.15, 
	 "num_atms": 28, 
	 "gaussian": { 
		 "optdone": 1, 
		 "sigma_profile": "yes", 
		 "theory": "DFT", 
		 "functional": "B3LYP", 
		 "basiset": "6-31G**", 
		 "properties": { 
			 "R2extent": 4809.9603, 
			 "electric_dipole_moment_norm": 3.45542009747, 
			 "electric_quadrupole_moment_norm": 13.7750267778, 
			 "total_energy": -803.310245333, 
			 "HOMO_LUMO_gap": 0.14792, 
			 "cosmo_polarized_energy": -9.96, 
			 "cosmo_cavitation_energy": 32.55, 
			 "cosmo_dispersion_energy": -23.92, 
			 "cosmo_repulsion_energy": 1.79, 
			 "cosmo_total_nonelectrostatic_energy": 10.43, 
			 "SMD_solvation_energy": 7.09 
		},
		"coords": [
			{
				"x": -1.3408373674,
				"y": -2.0815746721,
				"z": -3.1080182482,
				"element": "C" 
			},
			{
				"x": -0.4482852947,
				"y": -1.1050371696,
				"z": -2.5501298562,
				"element": "O" 
			},
			{
				"x": -0.3928785317,
				"y": -1.0785339553,
				"z": -1.1971149967,
				"element": "C" 
			},
			{
				"x": -1.0702866222,
				"y": -1.8257842431,
				"z": -0.5170234645,
				"element": "O" 
			},
			{
				"x": 0.5815385755,
				"y": -0.063244764,
				"z": -0.6979718615,
				"element": "C" 
			},
			{
				"x": 1.4770522111,
				"y": 0.5053128149,
				"z": -1.6356603451,
				"element": "C" 
			},
			{
				"x": 2.4422503729,
				"y": 1.439312174,
				"z": -1.2802163876,
				"element": "C" 
			},
			{
				"x": 2.5403046162,
				"y": 1.8528275346,
				"z": 0.0517658466,
				"element": "C" 
			},
			{
				"x": 1.6640248721,
				"y": 1.3079308063,
				"z": 0.9730325563,
				"element": "C" 
			},
			{
				"x": 0.6751152724,
				"y": 0.3475095513,
				"z": 0.6491515141,
				"element": "C" 
			},
			{
				"x": -0.0688874533,
				"y": 0.0314610667,
				"z": 1.916087274,
				"element": "C" 
			},
			{
				"x": 0.488722423,
				"y": 0.8054706853,
				"z": 2.9611028071,
				"element": "C" 
			},
			{
				"x": 0.020032105,
				"y": 0.7548163873,
				"z": 4.2648071886,
				"element": "C" 
			},
			{
				"x": -1.0515488349,
				"y": -0.0975558915,
				"z": 4.5520725763,
				"element": "C" 
			},
			{
				"x": -1.6134873415,
				"y": -0.8679327767,
				"z": 3.5324710845,
				"element": "C" 
			},
			{
				"x": -1.1346341322,
				"y": -0.8179482237,
				"z": 2.2137837645,
				"element": "C" 
			},
			{
				"x": 1.6003551548,
				"y": 1.6352993479,
				"z": 2.4293044768,
				"element": "C" 
			},
			{
				"x": 2.3121907771,
				"y": 2.4187712973,
				"z": 3.0353960131,
				"element": "O" 
			},
			{
				"x": -1.0479120534,
				"y": -3.0899552759,
				"z": -2.8052319826,
				"element": "H" 
			},
			{
				"x": -2.3660668366,
				"y": -1.8988911188,
				"z": -2.7770576231,
				"element": "H" 
			},
			{
				"x": -1.2605573112,
				"y": -1.9665284845,
				"z": -4.1888072625,
				"element": "H" 
			},
			{
				"x": 1.3986948208,
				"y": 0.1874147043,
				"z": -2.6675645222,
				"element": "H" 
			},
			{
				"x": 3.1094830277,
				"y": 1.841078949,
				"z": -2.0362126669,
				"element": "H" 
			},
			{
				"x": 3.2742303349,
				"y": 2.5834218724,
				"z": 0.3790596324,
				"element": "H" 
			},
			{
				"x": 0.485656801,
				"y": 1.3700877485,
				"z": 5.0289572191,
				"element": "H" 
			},
			{
				"x": -1.4442730308,
				"y": -0.1620610386,
				"z": 5.5624573253,
				"element": "H" 
			},
			{
				"x": -2.4438650345,
				"y": -1.5305227603,
				"z": 3.7604573477,
				"element": "H" 
			},
			{
				"x": -1.5772315202,
				"y": -1.4353445656,
				"z": 1.4467025908,
				"element": "H" 
			}
		],
		 "valence_orbital": [ 
			{
				"type": "occ",
				"energy": -0.28178,
				"method": "rhf"
			},
			{
				"type": "occ",
				"energy": -0.26952,
				"method": "rhf"
			},
			{
				"type": "occ",
				"energy": -0.25809,
				"method": "rhf"
			},
			{
				"type": "occ",
				"energy": -0.25109,
				"method": "rhf"
			},
			{
				"type": "occ",
				"energy": -0.23322,
				"method": "rhf"
			},
			{
				"type": "unocc",
				"energy": -0.0853,
				"method": "rhf"
			},
			{
				"type": "unocc",
				"energy": -0.06308,
				"method": "rhf"
			},
			{
				"type": "unocc",
				"energy": -0.01392,
				"method": "rhf"
			},
			{
				"type": "unocc",
				"energy": 0.01955,
				"method": "rhf"
			},
			{
				"type": "unocc",
				"energy": 0.03875,
				"method": "rhf"
			}
		],
		"cosmo_sigma_profile": { 
			"-0.025": 0.0,
			"-0.024": 0.0,
			"-0.023": 0.0,
			"-0.022": 0.0,
			"-0.021": 0.0,
			"-0.02": 0.0,
			"-0.019": 0.0,
			"-0.018": 0.0,
			"-0.017": 0.0,
			"-0.016": 0.0,
			"-0.015": 0.0,
			"-0.014": 0.0,
			"-0.013": 0.0,
			"-0.012": 0.0,
			"-0.011": 0.0,
			"-0.01": 0.0,
			"-0.009": 0.0,
			"-0.008": 0.227514771021,
			"-0.007": 7.0461817809,
			"-0.006": 16.8379394292,
			"-0.005": 19.5478991692,
			"-0.004": 19.474575028,
			"-0.003": 22.6358689995,
			"-0.002": 18.5533312121,
			"-0.001": 18.5763389977,
			"0.0": 24.117562198,
			"0.001": 26.8543715566,
			"0.002": 26.050429304,
			"0.003": 20.8463238681,
			"0.004": 10.1965408827,
			"0.005": 4.4276331409,
			"0.006": 3.475188125,
			"0.007": 3.58522283569,
			"0.008": 3.78178538985,
			"0.009": 3.30238346908,
			"0.01": 4.48040245844,
			"0.011": 5.9580486796,
			"0.012": 2.66837867001,
			"0.013": 0.0663413605246,
			"0.014": 0.0,
			"0.015": 0.0,
			"0.016": 0.0,
			"0.017": 0.0,
			"0.018": 0.0,
			"0.019": 0.0,
			"0.02": 0.0,
			"0.021": 0.0,
			"0.022": 0.0,
			"0.023": 0.0,
			"0.024": 0.0,
			"0.025": 0.0
		}
	}
}
