{
	 "smiles": "BrCC1=CC(=CC=C1)C1=CC=CS1", 
	 "Tm": 330.15, 
	 "num_atms": 22, 
	 "gaussian": { 
		 "optdone": 1, 
		 "sigma_profile": "yes", 
		 "theory": "DFT", 
		 "functional": "B3LYP", 
		 "basiset": "6-31G**", 
		 "properties": { 
			 "R2extent": 5518.1997, 
			 "electric_dipole_moment_norm": 2.47580835082, 
			 "electric_quadrupole_moment_norm": 12.4829321792, 
			 "total_energy": -3394.18351856, 
			 "HOMO_LUMO_gap": 0.17139, 
			 "cosmo_polarized_energy": -8.09, 
			 "cosmo_cavitation_energy": 29.96, 
			 "cosmo_dispersion_energy": -22.54, 
			 "cosmo_repulsion_energy": 1.74, 
			 "cosmo_total_nonelectrostatic_energy": 9.16, 
			 "SMD_solvation_energy": 3.65 
		},
		"coords": [
			{
				"x": -4.3421769162,
				"y": -1.3904348918,
				"z": -1.0416731654,
				"element": "Br" 
			},
			{
				"x": -3.5670398814,
				"y": 0.4603515793,
				"z": -1.1045762017,
				"element": "C" 
			},
			{
				"x": -2.4557531554,
				"y": 0.644993916,
				"z": -0.1225386181,
				"element": "C" 
			},
			{
				"x": -1.1307053458,
				"y": 0.4203155134,
				"z": -0.5093956673,
				"element": "C" 
			},
			{
				"x": -0.0645291506,
				"y": 0.6020534489,
				"z": 0.3864975287,
				"element": "C" 
			},
			{
				"x": -0.3616494245,
				"y": 1.0177918033,
				"z": 1.6977075201,
				"element": "C" 
			},
			{
				"x": -1.6800432531,
				"y": 1.2291097624,
				"z": 2.0943924911,
				"element": "C" 
			},
			{
				"x": -2.7268643882,
				"y": 1.0474428463,
				"z": 1.1920300857,
				"element": "C" 
			},
			{
				"x": 1.3279909942,
				"y": 0.3672523528,
				"z": -0.0177335668,
				"element": "C" 
			},
			{
				"x": 2.3927778893,
				"y": -0.0166782807,
				"z": 0.7661447403,
				"element": "C" 
			},
			{
				"x": 3.6143118558,
				"y": -0.1532978847,
				"z": 0.0456135071,
				"element": "C" 
			},
			{
				"x": 3.4782381192,
				"y": 0.1279700727,
				"z": -1.2861452149,
				"element": "C" 
			},
			{
				"x": 1.8498623439,
				"y": 0.5711083891,
				"z": -1.6794485514,
				"element": "S" 
			},
			{
				"x": -3.2416180332,
				"y": 0.5785931052,
				"z": -2.1363437786,
				"element": "H" 
			},
			{
				"x": -4.4172337252,
				"y": 1.1097554681,
				"z": -0.9041609217,
				"element": "H" 
			},
			{
				"x": -0.9268342414,
				"y": 0.0766031539,
				"z": -1.520097698,
				"element": "H" 
			},
			{
				"x": 0.4482627905,
				"y": 1.1965566528,
				"z": 2.3976750064,
				"element": "H" 
			},
			{
				"x": -1.890351821,
				"y": 1.5524664003,
				"z": 3.1096502653,
				"element": "H" 
			},
			{
				"x": -3.7540063878,
				"y": 1.2152993872,
				"z": 1.5038603999,
				"element": "H" 
			},
			{
				"x": 2.2956940526,
				"y": -0.2259250964,
				"z": 1.8253562918,
				"element": "H" 
			},
			{
				"x": 4.5512238526,
				"y": -0.456568543,
				"z": 0.4988921658,
				"element": "H" 
			},
			{
				"x": 4.2332438257,
				"y": 0.104740845,
				"z": -2.0596066183,
				"element": "H" 
			}
		],
		 "valence_orbital": [ 
			{
				"type": "occ",
				"energy": -0.27215,
				"method": "rhf"
			},
			{
				"type": "occ",
				"energy": -0.26795,
				"method": "rhf"
			},
			{
				"type": "occ",
				"energy": -0.25551,
				"method": "rhf"
			},
			{
				"type": "occ",
				"energy": -0.25252,
				"method": "rhf"
			},
			{
				"type": "occ",
				"energy": -0.21764,
				"method": "rhf"
			},
			{
				"type": "unocc",
				"energy": -0.04625,
				"method": "rhf"
			},
			{
				"type": "unocc",
				"energy": -0.03441,
				"method": "rhf"
			},
			{
				"type": "unocc",
				"energy": 0.00964,
				"method": "rhf"
			},
			{
				"type": "unocc",
				"energy": 0.02875,
				"method": "rhf"
			},
			{
				"type": "unocc",
				"energy": 0.03203,
				"method": "rhf"
			}
		],
		"cosmo_sigma_profile": { 
			"-0.025": 0.0,
			"-0.024": 0.0,
			"-0.023": 0.0,
			"-0.022": 0.0,
			"-0.021": 0.0,
			"-0.02": 0.0,
			"-0.019": 0.0,
			"-0.018": 0.0,
			"-0.017": 0.0,
			"-0.016": 0.0,
			"-0.015": 0.0,
			"-0.014": 0.0,
			"-0.013": 0.0,
			"-0.012": 0.0,
			"-0.011": 0.0,
			"-0.01": 0.0,
			"-0.009": 0.30782271006,
			"-0.008": 4.65528314529,
			"-0.007": 10.9607176021,
			"-0.006": 18.4440007121,
			"-0.005": 15.0538617569,
			"-0.004": 17.8813711548,
			"-0.003": 13.9557761525,
			"-0.002": 13.4913131714,
			"-0.001": 12.2404923037,
			"0.0": 13.8414622667,
			"0.001": 16.3988191537,
			"0.002": 18.3523687311,
			"0.003": 22.6614557489,
			"0.004": 29.4642052718,
			"0.005": 20.2126109873,
			"0.006": 12.9755828574,
			"0.007": 4.84770067641,
			"0.008": 0.0,
			"0.009": 0.0,
			"0.01": 0.0,
			"0.011": 0.0,
			"0.012": 0.0,
			"0.013": 0.0,
			"0.014": 0.0,
			"0.015": 0.0,
			"0.016": 0.0,
			"0.017": 0.0,
			"0.018": 0.0,
			"0.019": 0.0,
			"0.02": 0.0,
			"0.021": 0.0,
			"0.022": 0.0,
			"0.023": 0.0,
			"0.024": 0.0,
			"0.025": 0.0
		}
	}
}
