{
	 "smiles": "CC1=C(C=CC(O)=N1)C(O)=O", 
	 "Tm": 603.15, 
	 "num_atms": 18, 
	 "gaussian": { 
		 "optdone": 1, 
		 "sigma_profile": "yes", 
		 "theory": "DFT", 
		 "functional": "B3LYP", 
		 "basiset": "6-31G**", 
		 "properties": { 
			 "R2extent": 2265.1579, 
			 "electric_dipole_moment_norm": 1.54318218302, 
			 "electric_quadrupole_moment_norm": 5.17725063813, 
			 "total_energy": -551.41525129, 
			 "HOMO_LUMO_gap": 0.19829, 
			 "cosmo_polarized_energy": -10.92, 
			 "cosmo_cavitation_energy": 22.53, 
			 "cosmo_dispersion_energy": -16.97, 
			 "cosmo_repulsion_energy": 1.37, 
			 "cosmo_total_nonelectrostatic_energy": 6.93, 
			 "SMD_solvation_energy": 4.53 
		},
		"coords": [
			{
				"x": -1.7005906942,
				"y": -0.4316401839,
				"z": 1.5932817728,
				"element": "C" 
			},
			{
				"x": -1.157113257,
				"y": -1.0430713914,
				"z": 0.325654555,
				"element": "C" 
			},
			{
				"x": -0.6147415266,
				"y": -0.3134194121,
				"z": -0.7571729532,
				"element": "C" 
			},
			{
				"x": -0.1469947272,
				"y": -1.0341846846,
				"z": -1.8742097176,
				"element": "C" 
			},
			{
				"x": -0.2168006238,
				"y": -2.4115236994,
				"z": -1.909297292,
				"element": "C" 
			},
			{
				"x": -0.7721252071,
				"y": -3.037781052,
				"z": -0.7844006921,
				"element": "C" 
			},
			{
				"x": -0.8646954438,
				"y": -4.3814844145,
				"z": -0.7651094496,
				"element": "O" 
			},
			{
				"x": -1.2221408963,
				"y": -2.385870748,
				"z": 0.2848698657,
				"element": "N" 
			},
			{
				"x": -0.480018188,
				"y": 1.1609943875,
				"z": -0.8507587319,
				"element": "C" 
			},
			{
				"x": -0.9345045856,
				"y": 1.8472354936,
				"z": 0.228255771,
				"element": "O" 
			},
			{
				"x": -0.0027741803,
				"y": 1.7421329437,
				"z": -1.8087308593,
				"element": "O" 
			},
			{
				"x": -2.0481878832,
				"y": -1.2356591068,
				"z": 2.2428802021,
				"element": "H" 
			},
			{
				"x": -0.9379110246,
				"y": 0.1547922082,
				"z": 2.1125560591,
				"element": "H" 
			},
			{
				"x": -2.5269514779,
				"y": 0.2528607057,
				"z": 1.3838068281,
				"element": "H" 
			},
			{
				"x": 0.2684174335,
				"y": -0.4708164826,
				"z": -2.7027167622,
				"element": "H" 
			},
			{
				"x": 0.1328123003,
				"y": -2.9972156181,
				"z": -2.7508878494,
				"element": "H" 
			},
			{
				"x": -1.2702554255,
				"y": -4.6087855686,
				"z": 0.0876337966,
				"element": "H" 
			},
			{
				"x": -0.7788245925,
				"y": 2.7828366232,
				"z": 0.0161454567,
				"element": "H" 
			}
		],
		 "valence_orbital": [ 
			{
				"type": "occ",
				"energy": -0.31804,
				"method": "rhf"
			},
			{
				"type": "occ",
				"energy": -0.29085,
				"method": "rhf"
			},
			{
				"type": "occ",
				"energy": -0.28874,
				"method": "rhf"
			},
			{
				"type": "occ",
				"energy": -0.27005,
				"method": "rhf"
			},
			{
				"type": "occ",
				"energy": -0.24367,
				"method": "rhf"
			},
			{
				"type": "unocc",
				"energy": -0.04538,
				"method": "rhf"
			},
			{
				"type": "unocc",
				"energy": -0.02623,
				"method": "rhf"
			},
			{
				"type": "unocc",
				"energy": 0.05612,
				"method": "rhf"
			},
			{
				"type": "unocc",
				"energy": 0.07699,
				"method": "rhf"
			},
			{
				"type": "unocc",
				"energy": 0.08487,
				"method": "rhf"
			}
		],
		"cosmo_sigma_profile": { 
			"-0.025": 0.0,
			"-0.024": 0.0,
			"-0.023": 0.0,
			"-0.022": 0.0,
			"-0.021": 0.0,
			"-0.02": 0.0,
			"-0.019": 0.0315021723997,
			"-0.018": 0.595801869377,
			"-0.017": 1.8343849773,
			"-0.016": 1.31052170388,
			"-0.015": 1.17083592919,
			"-0.014": 2.08333208243,
			"-0.013": 1.8334133268,
			"-0.012": 0.285529824939,
			"-0.011": 1.0767066372,
			"-0.01": 2.46128864188,
			"-0.009": 0.951085114866,
			"-0.008": 1.29573100817,
			"-0.007": 4.12303206289,
			"-0.006": 4.3307083007,
			"-0.005": 6.12156452031,
			"-0.004": 7.62877433363,
			"-0.003": 10.0571374419,
			"-0.002": 14.3514080234,
			"-0.001": 17.0591171847,
			"0.0": 23.709569477,
			"0.001": 17.1451584304,
			"0.002": 10.5528598411,
			"0.003": 7.4311700637,
			"0.004": 5.57127094881,
			"0.005": 7.46454015167,
			"0.006": 4.25534833509,
			"0.007": 2.91229971896,
			"0.008": 4.07970816402,
			"0.009": 4.92771298015,
			"0.01": 3.57987286501,
			"0.011": 4.14167122088,
			"0.012": 4.70851237508,
			"0.013": 0.290200894189,
			"0.014": 0.0,
			"0.015": 0.0,
			"0.016": 0.0,
			"0.017": 0.0,
			"0.018": 0.0,
			"0.019": 0.0,
			"0.02": 0.0,
			"0.021": 0.0,
			"0.022": 0.0,
			"0.023": 0.0,
			"0.024": 0.0,
			"0.025": 0.0
		}
	}
}
