{
	 "smiles": "OCCNC(=O)C1=C(O)C=C(O)C=C1", 
	 "Tm": 437.15, 
	 "num_atms": 25, 
	 "gaussian": { 
		 "optdone": 1, 
		 "sigma_profile": "yes", 
		 "theory": "DFT", 
		 "functional": "B3LYP", 
		 "basiset": "6-31G**", 
		 "properties": { 
			 "R2extent": 3876.0525, 
			 "electric_dipole_moment_norm": 2.39669728794, 
			 "electric_quadrupole_moment_norm": 9.60848604672, 
			 "total_energy": -705.250402045, 
			 "HOMO_LUMO_gap": 0.18411, 
			 "cosmo_polarized_energy": -19.19, 
			 "cosmo_cavitation_energy": 28.86, 
			 "cosmo_dispersion_energy": -21.47, 
			 "cosmo_repulsion_energy": 1.69, 
			 "cosmo_total_nonelectrostatic_energy": 9.09, 
			 "SMD_solvation_energy": 5.8 
		},
		"coords": [
			{
				"x": 0.0224821537,
				"y": -3.1227693566,
				"z": 2.1130916324,
				"element": "O" 
			},
			{
				"x": 0.2774489314,
				"y": -1.9470137688,
				"z": 2.8655818232,
				"element": "C" 
			},
			{
				"x": 1.277422275,
				"y": -1.0208315813,
				"z": 2.1683557709,
				"element": "C" 
			},
			{
				"x": 0.7993841943,
				"y": -0.5880690168,
				"z": 0.8537587381,
				"element": "N" 
			},
			{
				"x": 0.0100516606,
				"y": 0.516913953,
				"z": 0.7122128331,
				"element": "C" 
			},
			{
				"x": -0.3976936205,
				"y": 1.1145315565,
				"z": 1.7330080713,
				"element": "O" 
			},
			{
				"x": -0.3483731032,
				"y": 0.9748194124,
				"z": -0.6451631081,
				"element": "C" 
			},
			{
				"x": -1.0777622502,
				"y": 2.1915270471,
				"z": -0.7724165855,
				"element": "C" 
			},
			{
				"x": -1.4634926145,
				"y": 2.9089633717,
				"z": 0.2880159125,
				"element": "O" 
			},
			{
				"x": -1.4131597067,
				"y": 2.6764579157,
				"z": -2.0454060153,
				"element": "C" 
			},
			{
				"x": -1.0527003573,
				"y": 1.9665657477,
				"z": -3.1854200634,
				"element": "C" 
			},
			{
				"x": -1.3585852769,
				"y": 2.3938949347,
				"z": -4.4393123431,
				"element": "O" 
			},
			{
				"x": -0.3511324232,
				"y": 0.7505447607,
				"z": -3.0812307446,
				"element": "C" 
			},
			{
				"x": -0.0153291455,
				"y": 0.2798848157,
				"z": -1.8258941118,
				"element": "C" 
			},
			{
				"x": -0.437034939,
				"y": -2.8435999856,
				"z": 1.3100665981,
				"element": "H" 
			},
			{
				"x": 0.698179293,
				"y": -2.2737130816,
				"z": 3.8223444186,
				"element": "H" 
			},
			{
				"x": -0.6451333247,
				"y": -1.3884009393,
				"z": 3.0757537381,
				"element": "H" 
			},
			{
				"x": 1.4628463108,
				"y": -0.138232998,
				"z": 2.7885559599,
				"element": "H" 
			},
			{
				"x": 2.2208590652,
				"y": -1.5527502617,
				"z": 2.0156463096,
				"element": "H" 
			},
			{
				"x": 1.2696306556,
				"y": -0.9509109436,
				"z": 0.0407634252,
				"element": "H" 
			},
			{
				"x": -1.162715934,
				"y": 2.3930912208,
				"z": 1.0885567884,
				"element": "H" 
			},
			{
				"x": -1.9642120618,
				"y": 3.6106689273,
				"z": -2.1071565254,
				"element": "H" 
			},
			{
				"x": -1.840516775,
				"y": 3.2298422885,
				"z": -4.3832937105,
				"element": "H" 
			},
			{
				"x": -0.0955596348,
				"y": 0.2070135679,
				"z": -3.9832230442,
				"element": "H" 
			},
			{
				"x": 0.5041966275,
				"y": -0.6728275865,
				"z": -1.7685957675,
				"element": "H" 
			}
		],
		 "valence_orbital": [ 
			{
				"type": "occ",
				"energy": -0.28725,
				"method": "rhf"
			},
			{
				"type": "occ",
				"energy": -0.27161,
				"method": "rhf"
			},
			{
				"type": "occ",
				"energy": -0.26055,
				"method": "rhf"
			},
			{
				"type": "occ",
				"energy": -0.24278,
				"method": "rhf"
			},
			{
				"type": "occ",
				"energy": -0.22241,
				"method": "rhf"
			},
			{
				"type": "unocc",
				"energy": -0.0383,
				"method": "rhf"
			},
			{
				"type": "unocc",
				"energy": 0.0025,
				"method": "rhf"
			},
			{
				"type": "unocc",
				"energy": 0.05308,
				"method": "rhf"
			},
			{
				"type": "unocc",
				"energy": 0.05917,
				"method": "rhf"
			},
			{
				"type": "unocc",
				"energy": 0.06502,
				"method": "rhf"
			}
		],
		"cosmo_sigma_profile": { 
			"-0.025": 0.0,
			"-0.024": 0.0,
			"-0.023": 0.0,
			"-0.022": 0.0,
			"-0.021": 0.0,
			"-0.02": 0.0,
			"-0.019": 0.101263745545,
			"-0.018": 0.830148017168,
			"-0.017": 1.32524446479,
			"-0.016": 1.1703019237,
			"-0.015": 1.95405146781,
			"-0.014": 2.77738364703,
			"-0.013": 2.98708610072,
			"-0.012": 2.4332270277,
			"-0.011": 3.65689460217,
			"-0.01": 3.68317894416,
			"-0.009": 3.43215102865,
			"-0.008": 3.89102144801,
			"-0.007": 4.71951973957,
			"-0.006": 7.83007762822,
			"-0.005": 11.6069246421,
			"-0.004": 13.9217198084,
			"-0.003": 12.8729877756,
			"-0.002": 14.2740426449,
			"-0.001": 13.4133063959,
			"0.0": 13.5694901152,
			"0.001": 10.1039569816,
			"0.002": 12.1164585084,
			"0.003": 18.5520834507,
			"0.004": 15.7270940437,
			"0.005": 8.33320278823,
			"0.006": 5.02544825597,
			"0.007": 5.13027345367,
			"0.008": 6.38676457061,
			"0.009": 5.61455591842,
			"0.01": 5.0100503897,
			"0.011": 6.76815699064,
			"0.012": 3.94834755142,
			"0.013": 2.04043492212,
			"0.014": 2.35233841225,
			"0.015": 0.662134859199,
			"0.016": 0.0,
			"0.017": 0.0,
			"0.018": 0.0,
			"0.019": 0.0,
			"0.02": 0.0,
			"0.021": 0.0,
			"0.022": 0.0,
			"0.023": 0.0,
			"0.024": 0.0,
			"0.025": 0.0
		}
	}
}
