{
	 "smiles": "CCCCCN1C(O)=NN=C1S", 
	 "Tm": 421.15, 
	 "num_atms": 25, 
	 "gaussian": { 
		 "optdone": 1, 
		 "sigma_profile": "yes", 
		 "theory": "DFT", 
		 "functional": "B3LYP", 
		 "basiset": "6-31G**", 
		 "properties": { 
			 "R2extent": 3762.0684, 
			 "electric_dipole_moment_norm": 5.15507019739, 
			 "electric_quadrupole_moment_norm": 21.6730690256, 
			 "total_energy": -912.226630488, 
			 "HOMO_LUMO_gap": 0.2362, 
			 "cosmo_polarized_energy": -17.1, 
			 "cosmo_cavitation_energy": 30.11, 
			 "cosmo_dispersion_energy": -21.56, 
			 "cosmo_repulsion_energy": 1.72, 
			 "cosmo_total_nonelectrostatic_energy": 10.26, 
			 "SMD_solvation_energy": 2.82 
		},
		"coords": [
			{
				"x": 3.133585418,
				"y": 0.488911875,
				"z": -2.1842628241,
				"element": "C" 
			},
			{
				"x": 2.0647989673,
				"y": 0.4780384475,
				"z": -1.0864530467,
				"element": "C" 
			},
			{
				"x": 1.1288419445,
				"y": -0.736153727,
				"z": -1.1814407939,
				"element": "C" 
			},
			{
				"x": 0.0892515128,
				"y": -0.8439843685,
				"z": -0.0546548558,
				"element": "C" 
			},
			{
				"x": -0.9570094501,
				"y": 0.2791628821,
				"z": -0.0839603148,
				"element": "C" 
			},
			{
				"x": -1.9805643855,
				"y": 0.121598543,
				"z": 0.9485675237,
				"element": "N" 
			},
			{
				"x": -3.0632396067,
				"y": -0.6982035089,
				"z": 0.9086358212,
				"element": "C" 
			},
			{
				"x": -3.3036589856,
				"y": -1.4589701395,
				"z": -0.1720815158,
				"element": "O" 
			},
			{
				"x": -3.7844987598,
				"y": -0.6340804617,
				"z": 2.0002183221,
				"element": "N" 
			},
			{
				"x": -3.1542335383,
				"y": 0.2767261108,
				"z": 2.8296640191,
				"element": "N" 
			},
			{
				"x": -2.0850452331,
				"y": 0.7100595064,
				"z": 2.2066476796,
				"element": "C" 
			},
			{
				"x": -0.9866334412,
				"y": 1.9538360493,
				"z": 2.8107675895,
				"element": "S" 
			},
			{
				"x": 3.7615657746,
				"y": -0.407811826,
				"z": -2.1339085031,
				"element": "H" 
			},
			{
				"x": 2.6781577926,
				"y": 0.5170205896,
				"z": -3.1806921003,
				"element": "H" 
			},
			{
				"x": 3.789590197,
				"y": 1.3604881045,
				"z": -2.0943181622,
				"element": "H" 
			},
			{
				"x": 2.5505555374,
				"y": 0.4809981422,
				"z": -0.1010920742,
				"element": "H" 
			},
			{
				"x": 1.485135872,
				"y": 1.4084226258,
				"z": -1.141881416,
				"element": "H" 
			},
			{
				"x": 1.7361235718,
				"y": -1.6504314515,
				"z": -1.1758225899,
				"element": "H" 
			},
			{
				"x": 0.6131991141,
				"y": -0.7250748483,
				"z": -2.152422679,
				"element": "H" 
			},
			{
				"x": -0.4345740083,
				"y": -1.803330265,
				"z": -0.1331781804,
				"element": "H" 
			},
			{
				"x": 0.5929478968,
				"y": -0.8370895282,
				"z": 0.9206824656,
				"element": "H" 
			},
			{
				"x": -1.4677334038,
				"y": 0.2968974918,
				"z": -1.0520215676,
				"element": "H" 
			},
			{
				"x": -0.4989550642,
				"y": 1.2571848699,
				"z": 0.0756693275,
				"element": "H" 
			},
			{
				"x": -4.1261016201,
				"y": -1.9392173599,
				"z": 0.0097369158,
				"element": "H" 
			},
			{
				"x": -0.0521061023,
				"y": 1.1285022467,
				"z": 3.3332009595,
				"element": "H" 
			}
		],
		 "valence_orbital": [ 
			{
				"type": "occ",
				"energy": -0.31373,
				"method": "rhf"
			},
			{
				"type": "occ",
				"energy": -0.28763,
				"method": "rhf"
			},
			{
				"type": "occ",
				"energy": -0.26941,
				"method": "rhf"
			},
			{
				"type": "occ",
				"energy": -0.25641,
				"method": "rhf"
			},
			{
				"type": "occ",
				"energy": -0.23985,
				"method": "rhf"
			},
			{
				"type": "unocc",
				"energy": -0.00365,
				"method": "rhf"
			},
			{
				"type": "unocc",
				"energy": 0.04073,
				"method": "rhf"
			},
			{
				"type": "unocc",
				"energy": 0.05579,
				"method": "rhf"
			},
			{
				"type": "unocc",
				"energy": 0.05607,
				"method": "rhf"
			},
			{
				"type": "unocc",
				"energy": 0.06452,
				"method": "rhf"
			}
		],
		"cosmo_sigma_profile": { 
			"-0.025": 0.0,
			"-0.024": 0.0,
			"-0.023": 0.0,
			"-0.022": 0.0,
			"-0.021": 0.0,
			"-0.02": 0.0658358975982,
			"-0.019": 0.888819740911,
			"-0.018": 0.900537408239,
			"-0.017": 0.766554985902,
			"-0.016": 0.954582337602,
			"-0.015": 0.927039950497,
			"-0.014": 0.237747660547,
			"-0.013": 0.706762507105,
			"-0.012": 1.15636862702,
			"-0.011": 2.51227643809,
			"-0.01": 3.15098188309,
			"-0.009": 1.45557478002,
			"-0.008": 3.29749265433,
			"-0.007": 2.2384317085,
			"-0.006": 4.58372628031,
			"-0.005": 7.681900994,
			"-0.004": 10.7857073091,
			"-0.003": 22.0846375189,
			"-0.002": 33.9680252826,
			"-0.001": 29.4488558089,
			"0.0": 25.6371701397,
			"0.001": 20.0625277423,
			"0.002": 12.156396599,
			"0.003": 6.72243967437,
			"0.004": 5.17216419611,
			"0.005": 5.05550262466,
			"0.006": 4.53851263812,
			"0.007": 5.04886114587,
			"0.008": 3.34713893777,
			"0.009": 2.47200496512,
			"0.01": 2.50190788445,
			"0.011": 2.62150361885,
			"0.012": 2.79395176465,
			"0.013": 3.99474050296,
			"0.014": 3.10813169649,
			"0.015": 2.59217103872,
			"0.016": 2.26342911152,
			"0.017": 0.472738834062,
			"0.018": 0.0,
			"0.019": 0.0,
			"0.02": 0.0,
			"0.021": 0.0,
			"0.022": 0.0,
			"0.023": 0.0,
			"0.024": 0.0,
			"0.025": 0.0
		}
	}
}
