{
	 "smiles": "COC1=CC(=CC=C1C=O)N(C)C", 
	 "Tm": 332.15, 
	 "num_atms": 26, 
	 "gaussian": { 
		 "optdone": 1, 
		 "sigma_profile": "yes", 
		 "theory": "DFT", 
		 "functional": "B3LYP", 
		 "basiset": "6-31G**", 
		 "properties": { 
			 "R2extent": 3102.6351, 
			 "electric_dipole_moment_norm": 7.34198704507, 
			 "electric_quadrupole_moment_norm": 13.9899678856, 
			 "total_energy": -594.073636148, 
			 "HOMO_LUMO_gap": 0.16382, 
			 "cosmo_polarized_energy": -13.9, 
			 "cosmo_cavitation_energy": 28.96, 
			 "cosmo_dispersion_energy": -20.94, 
			 "cosmo_repulsion_energy": 1.64, 
			 "cosmo_total_nonelectrostatic_energy": 9.67, 
			 "SMD_solvation_energy": 6.68 
		},
		"coords": [
			{
				"x": 1.966298188,
				"y": 1.6321332594,
				"z": 1.95445531,
				"element": "C" 
			},
			{
				"x": 0.6092137495,
				"y": 1.5499870745,
				"z": 1.5506328277,
				"element": "O" 
			},
			{
				"x": 0.1664176368,
				"y": 0.4186196046,
				"z": 0.931999371,
				"element": "C" 
			},
			{
				"x": 0.9889691856,
				"y": -0.6767586587,
				"z": 0.6724122928,
				"element": "C" 
			},
			{
				"x": 0.4770779886,
				"y": -1.8287461356,
				"z": 0.0262393127,
				"element": "C" 
			},
			{
				"x": -0.8911977016,
				"y": -1.8391478791,
				"z": -0.3489421347,
				"element": "C" 
			},
			{
				"x": -1.6874668777,
				"y": -0.7416053754,
				"z": -0.0814834816,
				"element": "C" 
			},
			{
				"x": -1.1982703005,
				"y": 0.407958778,
				"z": 0.5572608026,
				"element": "C" 
			},
			{
				"x": -2.0989213727,
				"y": 1.5392209511,
				"z": 0.8111481155,
				"element": "C" 
			},
			{
				"x": -3.2820128698,
				"y": 1.5545654594,
				"z": 0.4971555467,
				"element": "O" 
			},
			{
				"x": 1.2922031844,
				"y": -2.9103948892,
				"z": -0.2292979253,
				"element": "N" 
			},
			{
				"x": 0.7549535479,
				"y": -4.0883514621,
				"z": -0.8923151227,
				"element": "C" 
			},
			{
				"x": 2.6912428948,
				"y": -2.8845435219,
				"z": 0.1607718405,
				"element": "C" 
			},
			{
				"x": 2.2178202298,
				"y": 0.8551701882,
				"z": 2.6875000957,
				"element": "H" 
			},
			{
				"x": 2.0818316928,
				"y": 2.6131793716,
				"z": 2.417546251,
				"element": "H" 
			},
			{
				"x": 2.6484507127,
				"y": 1.554585554,
				"z": 1.098337999,
				"element": "H" 
			},
			{
				"x": 2.026789792,
				"y": -0.6457718811,
				"z": 0.9676692581,
				"element": "H" 
			},
			{
				"x": -1.320980412,
				"y": -2.699929907,
				"z": -0.8442525201,
				"element": "H" 
			},
			{
				"x": -2.7359070165,
				"y": -0.7379714749,
				"z": -0.3639935054,
				"element": "H" 
			},
			{
				"x": -1.6400519097,
				"y": 2.4091523234,
				"z": 1.3185489682,
				"element": "H" 
			},
			{
				"x": -0.0581244484,
				"y": -4.547246119,
				"z": -0.3146008652,
				"element": "H" 
			},
			{
				"x": 0.3690315916,
				"y": -3.8536792921,
				"z": -1.8930299288,
				"element": "H" 
			},
			{
				"x": 1.547117131,
				"y": -4.8293145845,
				"z": -1.0035043084,
				"element": "H" 
			},
			{
				"x": 3.1625113323,
				"y": -3.8246827712,
				"z": -0.1270219167,
				"element": "H" 
			},
			{
				"x": 3.2387781057,
				"y": -2.0692529486,
				"z": -0.3317355717,
				"element": "H" 
			},
			{
				"x": 2.8119259454,
				"y": -2.7662756639,
				"z": 1.246399289,
				"element": "H" 
			}
		],
		 "valence_orbital": [ 
			{
				"type": "occ",
				"energy": -0.33344,
				"method": "rhf"
			},
			{
				"type": "occ",
				"energy": -0.27624,
				"method": "rhf"
			},
			{
				"type": "occ",
				"energy": -0.23102,
				"method": "rhf"
			},
			{
				"type": "occ",
				"energy": -0.22454,
				"method": "rhf"
			},
			{
				"type": "occ",
				"energy": -0.19706,
				"method": "rhf"
			},
			{
				"type": "unocc",
				"energy": -0.03324,
				"method": "rhf"
			},
			{
				"type": "unocc",
				"energy": 0.01232,
				"method": "rhf"
			},
			{
				"type": "unocc",
				"energy": 0.06522,
				"method": "rhf"
			},
			{
				"type": "unocc",
				"energy": 0.07391,
				"method": "rhf"
			},
			{
				"type": "unocc",
				"energy": 0.09069,
				"method": "rhf"
			}
		],
		"cosmo_sigma_profile": { 
			"-0.025": 0.0,
			"-0.024": 0.0,
			"-0.023": 0.0,
			"-0.022": 0.0,
			"-0.021": 0.0,
			"-0.02": 0.0,
			"-0.019": 0.0,
			"-0.018": 0.0,
			"-0.017": 0.0,
			"-0.016": 0.0,
			"-0.015": 0.0,
			"-0.014": 0.0,
			"-0.013": 0.0,
			"-0.012": 0.0,
			"-0.011": 0.0,
			"-0.01": 0.0,
			"-0.009": 0.0,
			"-0.008": 0.518249454521,
			"-0.007": 2.74905234975,
			"-0.006": 10.6923824837,
			"-0.005": 22.3940204153,
			"-0.004": 27.5586302489,
			"-0.003": 26.5810309644,
			"-0.002": 23.8138704614,
			"-0.001": 15.3697885319,
			"0.0": 10.5599656042,
			"0.001": 10.5010720353,
			"0.002": 12.3591755508,
			"0.003": 13.7601468111,
			"0.004": 13.7985078781,
			"0.005": 12.9574675751,
			"0.006": 4.92056619784,
			"0.007": 3.3697579101,
			"0.008": 1.5622649787,
			"0.009": 1.49176690503,
			"0.01": 2.02668201592,
			"0.011": 2.28043000528,
			"0.012": 3.08540875748,
			"0.013": 4.79435884311,
			"0.014": 1.8778565292,
			"0.015": 0.315219992849,
			"0.016": 0.0,
			"0.017": 0.0,
			"0.018": 0.0,
			"0.019": 0.0,
			"0.02": 0.0,
			"0.021": 0.0,
			"0.022": 0.0,
			"0.023": 0.0,
			"0.024": 0.0,
			"0.025": 0.0
		}
	}
}
