{
	 "smiles": "CN(C)S(=O)(=O)C1=CC(=CC=C1)C1=NN=C(S)N1N", 
	 "Tm": 474.15, 
	 "num_atms": 32, 
	 "gaussian": { 
		 "optdone": 1, 
		 "sigma_profile": "yes", 
		 "theory": "DFT", 
		 "functional": "B3LYP", 
		 "basiset": "6-31G**", 
		 "properties": { 
			 "R2extent": 8266.9834, 
			 "electric_dipole_moment_norm": 8.33977995213, 
			 "electric_quadrupole_moment_norm": 33.7348147717, 
			 "total_energy": -1609.34357947, 
			 "HOMO_LUMO_gap": 0.18071, 
			 "cosmo_polarized_energy": -27.96, 
			 "cosmo_cavitation_energy": 38.94, 
			 "cosmo_dispersion_energy": -28.43, 
			 "cosmo_repulsion_energy": 2.09, 
			 "cosmo_total_nonelectrostatic_energy": 12.6, 
			 "SMD_solvation_energy": 3.33 
		},
		"coords": [
			{
				"x": 0.3205882247,
				"y": -1.1111819808,
				"z": -3.1048785303,
				"element": "C" 
			},
			{
				"x": -1.09895621,
				"y": -0.8942209909,
				"z": -3.396291564,
				"element": "N" 
			},
			{
				"x": -1.4123094555,
				"y": 0.380786325,
				"z": -4.0442774177,
				"element": "C" 
			},
			{
				"x": -2.1956680127,
				"y": -1.4279016594,
				"z": -2.227832517,
				"element": "S" 
			},
			{
				"x": -1.7333356624,
				"y": -2.7488026195,
				"z": -1.8010958961,
				"element": "O" 
			},
			{
				"x": -3.5314327447,
				"y": -1.2121236248,
				"z": -2.7889307879,
				"element": "O" 
			},
			{
				"x": -2.029773076,
				"y": -0.3132398569,
				"z": -0.8208935293,
				"element": "C" 
			},
			{
				"x": -1.032501584,
				"y": -0.5495411994,
				"z": 0.1210399757,
				"element": "C" 
			},
			{
				"x": -0.8706541483,
				"y": 0.3372185196,
				"z": 1.2007168871,
				"element": "C" 
			},
			{
				"x": -1.7306113348,
				"y": 1.4424929731,
				"z": 1.3115028058,
				"element": "C" 
			},
			{
				"x": -2.7325948626,
				"y": 1.6542802599,
				"z": 0.3636872698,
				"element": "C" 
			},
			{
				"x": -2.891207677,
				"y": 0.7834194212,
				"z": -0.7126675864,
				"element": "C" 
			},
			{
				"x": 0.2238618599,
				"y": 0.0530349698,
				"z": 2.138344952,
				"element": "C" 
			},
			{
				"x": 1.2070044789,
				"y": -0.7837439979,
				"z": 1.8766347886,
				"element": "N" 
			},
			{
				"x": 2.0556931864,
				"y": -0.8359635153,
				"z": 2.9644342503,
				"element": "N" 
			},
			{
				"x": 1.5640842863,
				"y": -0.0237601276,
				"z": 3.8652052564,
				"element": "C" 
			},
			{
				"x": 2.2036964371,
				"y": 0.3324137254,
				"z": 5.4704075297,
				"element": "S" 
			},
			{
				"x": 0.4136079524,
				"y": 0.5754602042,
				"z": 3.4094057994,
				"element": "N" 
			},
			{
				"x": -0.4086534368,
				"y": 1.4723294304,
				"z": 4.1001611776,
				"element": "N" 
			},
			{
				"x": 0.4564176335,
				"y": -2.1086356503,
				"z": -2.6882522198,
				"element": "H" 
			},
			{
				"x": 0.7328481922,
				"y": -0.3632496927,
				"z": -2.4105268705,
				"element": "H" 
			},
			{
				"x": 0.8713134269,
				"y": -1.0502197269,
				"z": -4.0481446157,
				"element": "H" 
			},
			{
				"x": -2.4738666093,
				"y": 0.4113122255,
				"z": -4.2881659749,
				"element": "H" 
			},
			{
				"x": -1.1505142726,
				"y": 1.2510967311,
				"z": -3.4224848365,
				"element": "H" 
			},
			{
				"x": -0.8401309342,
				"y": 0.4363241962,
				"z": -4.9749855411,
				"element": "H" 
			},
			{
				"x": -0.39220343,
				"y": -1.4202544686,
				"z": 0.0457725884,
				"element": "H" 
			},
			{
				"x": -1.6220103221,
				"y": 2.1231679301,
				"z": 2.1458131186,
				"element": "H" 
			},
			{
				"x": -3.3972286856,
				"y": 2.5064127326,
				"z": 0.4696538511,
				"element": "H" 
			},
			{
				"x": -3.6794649378,
				"y": 0.9229271139,
				"z": -1.443785294,
				"element": "H" 
			},
			{
				"x": 3.257360471,
				"y": -0.4898018409,
				"z": 5.3109015594,
				"element": "H" 
			},
			{
				"x": -0.7825364464,
				"y": 1.0171811658,
				"z": 4.9305345378,
				"element": "H" 
			},
			{
				"x": 0.1403776934,
				"y": 2.2824830281,
				"z": 4.3794968333,
				"element": "H" 
			}
		],
		 "valence_orbital": [ 
			{
				"type": "occ",
				"energy": -0.28429,
				"method": "rhf"
			},
			{
				"type": "occ",
				"energy": -0.27637,
				"method": "rhf"
			},
			{
				"type": "occ",
				"energy": -0.26268,
				"method": "rhf"
			},
			{
				"type": "occ",
				"energy": -0.25089,
				"method": "rhf"
			},
			{
				"type": "occ",
				"energy": -0.23277,
				"method": "rhf"
			},
			{
				"type": "unocc",
				"energy": -0.05206,
				"method": "rhf"
			},
			{
				"type": "unocc",
				"energy": -0.03433,
				"method": "rhf"
			},
			{
				"type": "unocc",
				"energy": -0.01309,
				"method": "rhf"
			},
			{
				"type": "unocc",
				"energy": 0.01405,
				"method": "rhf"
			},
			{
				"type": "unocc",
				"energy": 0.03422,
				"method": "rhf"
			}
		],
		"cosmo_sigma_profile": { 
			"-0.025": 0.0,
			"-0.024": 0.0,
			"-0.023": 0.0,
			"-0.022": 0.0,
			"-0.021": 0.0,
			"-0.02": 0.0,
			"-0.019": 0.0,
			"-0.018": 0.0,
			"-0.017": 0.0,
			"-0.016": 0.0,
			"-0.015": 0.0589782884155,
			"-0.014": 2.7596313928,
			"-0.013": 4.47780225398,
			"-0.012": 4.48501785247,
			"-0.011": 4.73093344954,
			"-0.01": 3.99353603115,
			"-0.009": 3.53612437681,
			"-0.008": 4.09684910223,
			"-0.007": 5.68872986644,
			"-0.006": 13.5560895974,
			"-0.005": 18.025009559,
			"-0.004": 23.9245573327,
			"-0.003": 31.6209920254,
			"-0.002": 24.7760167892,
			"-0.001": 16.5813794041,
			"0.0": 16.2337023458,
			"0.001": 21.1248233425,
			"0.002": 22.1260535793,
			"0.003": 12.0697102202,
			"0.004": 8.70798090523,
			"0.005": 9.14377264031,
			"0.006": 9.51264438233,
			"0.007": 5.90384018383,
			"0.008": 6.37457569603,
			"0.009": 5.47283633637,
			"0.01": 8.83600747913,
			"0.011": 10.7488756242,
			"0.012": 5.58270275174,
			"0.013": 3.42940959833,
			"0.014": 2.65319423081,
			"0.015": 1.84450434091,
			"0.016": 0.694800658789,
			"0.017": 0.00207471069364,
			"0.018": 0.0,
			"0.019": 0.0,
			"0.02": 0.0,
			"0.021": 0.0,
			"0.022": 0.0,
			"0.023": 0.0,
			"0.024": 0.0,
			"0.025": 0.0
		}
	}
}
