{
	 "smiles": "OC(=O)C1CCCN(C1)C(=O)C1=CC(Cl)=C(Cl)C=C1", 
	 "Tm": 437.15, 
	 "num_atms": 32, 
	 "gaussian": { 
		 "optdone": 1, 
		 "sigma_profile": "yes", 
		 "theory": "DFT", 
		 "functional": "B3LYP", 
		 "basiset": "6-31G**", 
		 "properties": { 
			 "R2extent": 8051.7807, 
			 "electric_dipole_moment_norm": 3.99002071924, 
			 "electric_quadrupole_moment_norm": 25.7559207812, 
			 "total_energy": -1704.04891606, 
			 "HOMO_LUMO_gap": 0.19839, 
			 "cosmo_polarized_energy": -21.95, 
			 "cosmo_cavitation_energy": 38.82, 
			 "cosmo_dispersion_energy": -27.17, 
			 "cosmo_repulsion_energy": 2.11, 
			 "cosmo_total_nonelectrostatic_energy": 13.77, 
			 "SMD_solvation_energy": 6.69 
		},
		"coords": [
			{
				"x": -2.6014773765,
				"y": -2.9874429426,
				"z": -1.8934447492,
				"element": "O" 
			},
			{
				"x": -2.343980421,
				"y": -1.6608275543,
				"z": -1.7472271786,
				"element": "C" 
			},
			{
				"x": -2.6312551809,
				"y": -0.8893570396,
				"z": -2.6288774846,
				"element": "O" 
			},
			{
				"x": -1.7072031007,
				"y": -1.2508250033,
				"z": -0.4216589495,
				"element": "C" 
			},
			{
				"x": -2.6628467912,
				"y": -1.500987551,
				"z": 0.7707172559,
				"element": "C" 
			},
			{
				"x": -2.052170246,
				"y": -0.9753618385,
				"z": 2.0774965847,
				"element": "C" 
			},
			{
				"x": -1.6206561585,
				"y": 0.4890732869,
				"z": 1.9493734536,
				"element": "C" 
			},
			{
				"x": -0.7142578802,
				"y": 0.6450353926,
				"z": 0.8072258369,
				"element": "N" 
			},
			{
				"x": -1.2972061959,
				"y": 0.2293637668,
				"z": -0.4706482362,
				"element": "C" 
			},
			{
				"x": 0.3383982207,
				"y": 1.527928804,
				"z": 0.9383307326,
				"element": "C" 
			},
			{
				"x": 0.5008768238,
				"y": 2.2070577826,
				"z": 1.9485952899,
				"element": "O" 
			},
			{
				"x": 1.354307251,
				"y": 1.6105966005,
				"z": -0.1719585333,
				"element": "C" 
			},
			{
				"x": 1.8845042638,
				"y": 0.4759104903,
				"z": -0.792784853,
				"element": "C" 
			},
			{
				"x": 2.9042326787,
				"y": 0.5929798824,
				"z": -1.7390673677,
				"element": "C" 
			},
			{
				"x": 3.5404070111,
				"y": -0.8614326914,
				"z": -2.4680822102,
				"element": "Cl" 
			},
			{
				"x": 3.3977575253,
				"y": 1.8598035362,
				"z": -2.0783830063,
				"element": "C" 
			},
			{
				"x": 4.6608350324,
				"y": 2.0585375839,
				"z": -3.2641380251,
				"element": "Cl" 
			},
			{
				"x": 2.8769906529,
				"y": 2.9945675016,
				"z": -1.4484423407,
				"element": "C" 
			},
			{
				"x": 1.8758840155,
				"y": 2.8700705136,
				"z": -0.4927696844,
				"element": "C" 
			},
			{
				"x": -2.2988598434,
				"y": -3.4793095754,
				"z": -1.1169276674,
				"element": "H" 
			},
			{
				"x": -0.8026701301,
				"y": -1.8603948722,
				"z": -0.2733280211,
				"element": "H" 
			},
			{
				"x": -2.9022960337,
				"y": -2.5668894372,
				"z": 0.8670362165,
				"element": "H" 
			},
			{
				"x": -3.6113859988,
				"y": -0.9850024356,
				"z": 0.5711683836,
				"element": "H" 
			},
			{
				"x": -2.7765022641,
				"y": -1.0703999356,
				"z": 2.8939729457,
				"element": "H" 
			},
			{
				"x": -1.1783180831,
				"y": -1.5813029249,
				"z": 2.3477643191,
				"element": "H" 
			},
			{
				"x": -1.098662443,
				"y": 0.8388748798,
				"z": 2.8393343673,
				"element": "H" 
			},
			{
				"x": -2.503473956,
				"y": 1.1325382554,
				"z": 1.8098912103,
				"element": "H" 
			},
			{
				"x": -0.5986295661,
				"y": 0.4085558594,
				"z": -1.2848450977,
				"element": "H" 
			},
			{
				"x": -2.1916560648,
				"y": 0.8318900341,
				"z": -0.6829974805,
				"element": "H" 
			},
			{
				"x": 1.5307027315,
				"y": -0.5142568589,
				"z": -0.5287819181,
				"element": "H" 
			},
			{
				"x": 3.2733874605,
				"y": 3.9689075716,
				"z": -1.7114988802,
				"element": "H" 
			},
			{
				"x": 1.494724067,
				"y": 3.7455989191,
				"z": 0.0209550878,
				"element": "H" 
			}
		],
		 "valence_orbital": [ 
			{
				"type": "occ",
				"energy": -0.28351,
				"method": "rhf"
			},
			{
				"type": "occ",
				"energy": -0.27369,
				"method": "rhf"
			},
			{
				"type": "occ",
				"energy": -0.27001,
				"method": "rhf"
			},
			{
				"type": "occ",
				"energy": -0.2546,
				"method": "rhf"
			},
			{
				"type": "occ",
				"energy": -0.2486,
				"method": "rhf"
			},
			{
				"type": "unocc",
				"energy": -0.05021,
				"method": "rhf"
			},
			{
				"type": "unocc",
				"energy": -0.03207,
				"method": "rhf"
			},
			{
				"type": "unocc",
				"energy": -0.00579,
				"method": "rhf"
			},
			{
				"type": "unocc",
				"energy": -0.0026,
				"method": "rhf"
			},
			{
				"type": "unocc",
				"energy": 0.02689,
				"method": "rhf"
			}
		],
		"cosmo_sigma_profile": { 
			"-0.025": 0.0,
			"-0.024": 0.0,
			"-0.023": 0.0,
			"-0.022": 0.0,
			"-0.021": 0.0,
			"-0.02": 0.0,
			"-0.019": 0.266752852795,
			"-0.018": 0.996925941082,
			"-0.017": 1.34679819136,
			"-0.016": 0.907394068391,
			"-0.015": 1.0120788468,
			"-0.014": 1.13155126003,
			"-0.013": 1.09719414507,
			"-0.012": 1.45740935672,
			"-0.011": 0.999673704937,
			"-0.01": 1.09168376912,
			"-0.009": 1.1938802349,
			"-0.008": 5.39882996268,
			"-0.007": 10.0001834305,
			"-0.006": 10.3771428195,
			"-0.005": 15.8623992625,
			"-0.004": 26.3096520025,
			"-0.003": 29.8516096239,
			"-0.002": 25.3076496357,
			"-0.001": 22.6726096824,
			"0.0": 25.8347355637,
			"0.001": 20.7210623675,
			"0.002": 19.2847701721,
			"0.003": 18.691383976,
			"0.004": 18.0332278462,
			"0.005": 7.0631096106,
			"0.006": 3.5275240387,
			"0.007": 4.78467889029,
			"0.008": 4.51197533534,
			"0.009": 4.1698917508,
			"0.01": 6.26435179554,
			"0.011": 7.2623466824,
			"0.012": 6.76843696178,
			"0.013": 6.03896429375,
			"0.014": 1.62307687752,
			"0.015": 0.0,
			"0.016": 0.0,
			"0.017": 0.0,
			"0.018": 0.0,
			"0.019": 0.0,
			"0.02": 0.0,
			"0.021": 0.0,
			"0.022": 0.0,
			"0.023": 0.0,
			"0.024": 0.0,
			"0.025": 0.0
		}
	}
}
