{
	 "smiles": "CCNS(=O)(=O)C1=CC(C(O)=O)=C(C)C=C1", 
	 "Tm": 455.15, 
	 "num_atms": 29, 
	 "gaussian": { 
		 "optdone": 1, 
		 "sigma_profile": "yes", 
		 "theory": "DFT", 
		 "functional": "B3LYP", 
		 "basiset": "6-31G**", 
		 "properties": { 
			 "R2extent": 5044.5866, 
			 "electric_dipole_moment_norm": 5.25695545825, 
			 "electric_quadrupole_moment_norm": 25.1642801347, 
			 "total_energy": -1142.69007038, 
			 "HOMO_LUMO_gap": 0.19584, 
			 "cosmo_polarized_energy": -18.64, 
			 "cosmo_cavitation_energy": 34.34, 
			 "cosmo_dispersion_energy": -24.78, 
			 "cosmo_repulsion_energy": 1.92, 
			 "cosmo_total_nonelectrostatic_energy": 11.48, 
			 "SMD_solvation_energy": 5.84 
		},
		"coords": [
			{
				"x": -3.8370261893,
				"y": 2.5187454078,
				"z": 0.3907181369,
				"element": "C" 
			},
			{
				"x": -2.9976004478,
				"y": 1.5569977298,
				"z": 1.2269172835,
				"element": "C" 
			},
			{
				"x": -1.7859207111,
				"y": 2.2477271745,
				"z": 1.7071150677,
				"element": "N" 
			},
			{
				"x": -0.6996458373,
				"y": 1.358786822,
				"z": 2.6527134924,
				"element": "S" 
			},
			{
				"x": -1.3861453127,
				"y": 0.2688066315,
				"z": 3.3553680196,
				"element": "O" 
			},
			{
				"x": 0.0752366309,
				"y": 2.3697937411,
				"z": 3.3798902099,
				"element": "O" 
			},
			{
				"x": 0.3574910724,
				"y": 0.6128471838,
				"z": 1.4111364671,
				"element": "C" 
			},
			{
				"x": 0.1741592089,
				"y": -0.7146395506,
				"z": 1.0526248241,
				"element": "C" 
			},
			{
				"x": 1.0014722536,
				"y": -1.3097705016,
				"z": 0.085664132,
				"element": "C" 
			},
			{
				"x": 0.6745010692,
				"y": -2.7410784345,
				"z": -0.1965213923,
				"element": "C" 
			},
			{
				"x": 1.5148404458,
				"y": -3.3564946477,
				"z": -1.063284732,
				"element": "O" 
			},
			{
				"x": -0.263771766,
				"y": -3.332845637,
				"z": 0.2999513173,
				"element": "O" 
			},
			{
				"x": 2.0344715417,
				"y": -0.558367576,
				"z": -0.5256264801,
				"element": "C" 
			},
			{
				"x": 2.9803460506,
				"y": -1.0965840986,
				"z": -1.5735262412,
				"element": "C" 
			},
			{
				"x": 2.1897621284,
				"y": 0.7807054594,
				"z": -0.1267960551,
				"element": "C" 
			},
			{
				"x": 1.372126047,
				"y": 1.3737852443,
				"z": 0.8274499676,
				"element": "C" 
			},
			{
				"x": -4.1780213413,
				"y": 3.3712040393,
				"z": 0.9893258729,
				"element": "H" 
			},
			{
				"x": -3.2641639932,
				"y": 2.9041791039,
				"z": -0.4573086322,
				"element": "H" 
			},
			{
				"x": -4.7253045427,
				"y": 2.0071621995,
				"z": 0.0085992946,
				"element": "H" 
			},
			{
				"x": -2.6710363731,
				"y": 0.713395198,
				"z": 0.6097704623,
				"element": "H" 
			},
			{
				"x": -3.5838791322,
				"y": 1.1440181155,
				"z": 2.0570216762,
				"element": "H" 
			},
			{
				"x": -1.9824357232,
				"y": 3.1050813249,
				"z": 2.2216341722,
				"element": "H" 
			},
			{
				"x": -0.5972820956,
				"y": -1.3137107203,
				"z": 1.5221944912,
				"element": "H" 
			},
			{
				"x": 1.1803666128,
				"y": -4.266082766,
				"z": -1.1406615938,
				"element": "H" 
			},
			{
				"x": 3.6617213419,
				"y": -0.3087470312,
				"z": -1.9034512947,
				"element": "H" 
			},
			{
				"x": 2.4420922326,
				"y": -1.4790133058,
				"z": -2.4445481758,
				"element": "H" 
			},
			{
				"x": 3.5732325091,
				"y": -1.9300906129,
				"z": -1.187809359,
				"element": "H" 
			},
			{
				"x": 2.9818421278,
				"y": 1.3688093446,
				"z": -0.5809294796,
				"element": "H" 
			},
			{
				"x": 1.5216721931,
				"y": 2.4048801623,
				"z": 1.1290685484,
				"element": "H" 
			}
		],
		 "valence_orbital": [ 
			{
				"type": "occ",
				"energy": -0.29889,
				"method": "rhf"
			},
			{
				"type": "occ",
				"energy": -0.28713,
				"method": "rhf"
			},
			{
				"type": "occ",
				"energy": -0.2831,
				"method": "rhf"
			},
			{
				"type": "occ",
				"energy": -0.27582,
				"method": "rhf"
			},
			{
				"type": "occ",
				"energy": -0.26034,
				"method": "rhf"
			},
			{
				"type": "unocc",
				"energy": -0.0645,
				"method": "rhf"
			},
			{
				"type": "unocc",
				"energy": -0.03486,
				"method": "rhf"
			},
			{
				"type": "unocc",
				"energy": 0.03331,
				"method": "rhf"
			},
			{
				"type": "unocc",
				"energy": 0.05807,
				"method": "rhf"
			},
			{
				"type": "unocc",
				"energy": 0.07117,
				"method": "rhf"
			}
		],
		"cosmo_sigma_profile": { 
			"-0.025": 0.0,
			"-0.024": 0.0,
			"-0.023": 0.0,
			"-0.022": 0.0,
			"-0.021": 0.0,
			"-0.02": 0.0,
			"-0.019": 0.0929674121332,
			"-0.018": 0.860946674381,
			"-0.017": 0.854386552182,
			"-0.016": 1.24291584514,
			"-0.015": 0.288661344529,
			"-0.014": 1.26752327698,
			"-0.013": 1.81260577769,
			"-0.012": 1.83335367096,
			"-0.011": 1.44392406487,
			"-0.01": 2.26368463978,
			"-0.009": 1.6929506917,
			"-0.008": 3.01834824982,
			"-0.007": 6.21846841501,
			"-0.006": 7.8972181491,
			"-0.005": 11.680680318,
			"-0.004": 20.7506054731,
			"-0.003": 25.0107765506,
			"-0.002": 26.7394306829,
			"-0.001": 27.723630425,
			"0.0": 25.8801413812,
			"0.001": 20.795176166,
			"0.002": 13.1918750888,
			"0.003": 7.40712651346,
			"0.004": 6.90019904615,
			"0.005": 6.90980143304,
			"0.006": 4.27757528422,
			"0.007": 5.48430985268,
			"0.008": 4.6907112493,
			"0.009": 5.62688060163,
			"0.01": 9.20182061045,
			"0.011": 13.2211357257,
			"0.012": 5.41778652155,
			"0.013": 0.0,
			"0.014": 0.0,
			"0.015": 0.0,
			"0.016": 0.0,
			"0.017": 0.0,
			"0.018": 0.0,
			"0.019": 0.0,
			"0.02": 0.0,
			"0.021": 0.0,
			"0.022": 0.0,
			"0.023": 0.0,
			"0.024": 0.0,
			"0.025": 0.0
		}
	}
}
