{
	 "smiles": "O=C=NC1=CC=CC(COC2=CC=CC=C2)=C1", 
	 "Tm": 325.15, 
	 "num_atms": 28, 
	 "gaussian": { 
		 "optdone": 1, 
		 "sigma_profile": "yes", 
		 "theory": "DFT", 
		 "functional": "B3LYP", 
		 "basiset": "6-31G**", 
		 "properties": { 
			 "R2extent": 6129.1662, 
			 "electric_dipole_moment_norm": 3.09282696736, 
			 "electric_quadrupole_moment_norm": 16.8736228499, 
			 "total_energy": -745.309023349, 
			 "HOMO_LUMO_gap": 0.19401, 
			 "cosmo_polarized_energy": -8.49, 
			 "cosmo_cavitation_energy": 33.85, 
			 "cosmo_dispersion_energy": -23.52, 
			 "cosmo_repulsion_energy": 1.85, 
			 "cosmo_total_nonelectrostatic_energy": 12.18, 
			 "SMD_solvation_energy": 8.16 
		},
		"coords": [
			{
				"x": -0.5783082654,
				"y": -4.3683774656,
				"z": -1.4453120072,
				"element": "O" 
			},
			{
				"x": -1.5049126524,
				"y": -3.8748044127,
				"z": -0.9103046569,
				"element": "C" 
			},
			{
				"x": -2.5362976547,
				"y": -3.479792543,
				"z": -0.4160861973,
				"element": "N" 
			},
			{
				"x": -3.0109489091,
				"y": -2.4375041696,
				"z": 0.3858553613,
				"element": "C" 
			},
			{
				"x": -4.3754400087,
				"y": -2.4154978778,
				"z": 0.6990763473,
				"element": "C" 
			},
			{
				"x": -4.8790194684,
				"y": -1.3876864114,
				"z": 1.493122293,
				"element": "C" 
			},
			{
				"x": -4.0354172723,
				"y": -0.3847687903,
				"z": 1.9721853031,
				"element": "C" 
			},
			{
				"x": -2.6693076495,
				"y": -0.4075380105,
				"z": 1.6650871348,
				"element": "C" 
			},
			{
				"x": -1.7425384421,
				"y": 0.6475680923,
				"z": 2.2430498915,
				"element": "C" 
			},
			{
				"x": -0.5601565664,
				"y": 0.8661280683,
				"z": 1.4841057884,
				"element": "O" 
			},
			{
				"x": -0.6188857578,
				"y": 1.6638213095,
				"z": 0.3669074485,
				"element": "C" 
			},
			{
				"x": -1.7980144165,
				"y": 2.1679607116,
				"z": -0.1925711472,
				"element": "C" 
			},
			{
				"x": -1.7234990648,
				"y": 2.9804577033,
				"z": -1.3286410794,
				"element": "C" 
			},
			{
				"x": -0.4960992559,
				"y": 3.2881322624,
				"z": -1.9115821352,
				"element": "C" 
			},
			{
				"x": 0.6757736839,
				"y": 2.7719587094,
				"z": -1.3484756034,
				"element": "C" 
			},
			{
				"x": 0.6194405041,
				"y": 1.9656500633,
				"z": -0.2164192674,
				"element": "C" 
			},
			{
				"x": -2.1590686295,
				"y": -1.4364635531,
				"z": 0.8725279575,
				"element": "C" 
			},
			{
				"x": -5.0195272001,
				"y": -3.1981779335,
				"z": 0.313530873,
				"element": "H" 
			},
			{
				"x": -5.9379537923,
				"y": -1.36504021,
				"z": 1.7326567879,
				"element": "H" 
			},
			{
				"x": -4.4393635745,
				"y": 0.4175745699,
				"z": 2.5845642993,
				"element": "H" 
			},
			{
				"x": -1.3774493918,
				"y": 0.317914168,
				"z": 3.2223038497,
				"element": "H" 
			},
			{
				"x": -2.2842843527,
				"y": 1.5901429782,
				"z": 2.3967882797,
				"element": "H" 
			},
			{
				"x": -2.7658552601,
				"y": 1.9209405626,
				"z": 0.2266580257,
				"element": "H" 
			},
			{
				"x": -2.6427996277,
				"y": 3.3670528132,
				"z": -1.7597054004,
				"element": "H" 
			},
			{
				"x": -0.4500210954,
				"y": 3.9179414366,
				"z": -2.7945212834,
				"element": "H" 
			},
			{
				"x": 1.640707547,
				"y": 3.0015110798,
				"z": -1.7916265856,
				"element": "H" 
			},
			{
				"x": 1.5185409564,
				"y": 1.5622250146,
				"z": 0.2380837929,
				"element": "H" 
			},
			{
				"x": -1.1021943833,
				"y": -1.4521281656,
				"z": 0.6268419296,
				"element": "H" 
			}
		],
		 "valence_orbital": [ 
			{
				"type": "occ",
				"energy": -0.30633,
				"method": "rhf"
			},
			{
				"type": "occ",
				"energy": -0.26171,
				"method": "rhf"
			},
			{
				"type": "occ",
				"energy": -0.2492,
				"method": "rhf"
			},
			{
				"type": "occ",
				"energy": -0.23862,
				"method": "rhf"
			},
			{
				"type": "occ",
				"energy": -0.22161,
				"method": "rhf"
			},
			{
				"type": "unocc",
				"energy": -0.0276,
				"method": "rhf"
			},
			{
				"type": "unocc",
				"energy": -0.01737,
				"method": "rhf"
			},
			{
				"type": "unocc",
				"energy": -4e-05,
				"method": "rhf"
			},
			{
				"type": "unocc",
				"energy": 0.01178,
				"method": "rhf"
			},
			{
				"type": "unocc",
				"energy": 0.01314,
				"method": "rhf"
			}
		],
		"cosmo_sigma_profile": { 
			"-0.025": 0.0,
			"-0.024": 0.0,
			"-0.023": 0.0,
			"-0.022": 0.0,
			"-0.021": 0.0,
			"-0.02": 0.0,
			"-0.019": 0.0,
			"-0.018": 0.0,
			"-0.017": 0.0,
			"-0.016": 0.0,
			"-0.015": 0.0,
			"-0.014": 0.0,
			"-0.013": 0.0,
			"-0.012": 0.0,
			"-0.011": 0.0,
			"-0.01": 0.0,
			"-0.009": 0.0,
			"-0.008": 0.785652367776,
			"-0.007": 6.03141726797,
			"-0.006": 18.3391349759,
			"-0.005": 20.8018351017,
			"-0.004": 25.1231176497,
			"-0.003": 21.4060660386,
			"-0.002": 20.1862861456,
			"-0.001": 16.2836541398,
			"0.0": 17.0590547175,
			"0.001": 17.6973165497,
			"0.002": 20.4499674052,
			"0.003": 23.0965335946,
			"0.004": 23.0459825763,
			"0.005": 15.6395762786,
			"0.006": 12.164856015,
			"0.007": 8.32317289476,
			"0.008": 4.20996776803,
			"0.009": 1.23145489266,
			"0.01": 0.669178277698,
			"0.011": 0.106785363054,
			"0.012": 0.0,
			"0.013": 0.0,
			"0.014": 0.0,
			"0.015": 0.0,
			"0.016": 0.0,
			"0.017": 0.0,
			"0.018": 0.0,
			"0.019": 0.0,
			"0.02": 0.0,
			"0.021": 0.0,
			"0.022": 0.0,
			"0.023": 0.0,
			"0.024": 0.0,
			"0.025": 0.0
		}
	}
}
