{
	 "smiles": "CC1=CC(=CC=C1)C(=O)NC1=CC=C(O)C=C1", 
	 "Tm": 432.15, 
	 "num_atms": 30, 
	 "gaussian": { 
		 "optdone": 1, 
		 "sigma_profile": "yes", 
		 "theory": "DFT", 
		 "functional": "B3LYP", 
		 "basiset": "6-31G**", 
		 "properties": { 
			 "R2extent": 6681.8657, 
			 "electric_dipole_moment_norm": 2.10564379229, 
			 "electric_quadrupole_moment_norm": 17.338111556, 
			 "total_energy": -746.547919167, 
			 "HOMO_LUMO_gap": 0.16107, 
			 "cosmo_polarized_energy": -16.89, 
			 "cosmo_cavitation_energy": 34.4, 
			 "cosmo_dispersion_energy": -25.26, 
			 "cosmo_repulsion_energy": 1.93, 
			 "cosmo_total_nonelectrostatic_energy": 11.07, 
			 "SMD_solvation_energy": 6.56 
		},
		"coords": [
			{
				"x": -3.426849233,
				"y": -2.502953034,
				"z": -2.5401608419,
				"element": "C" 
			},
			{
				"x": -2.2136021353,
				"y": -1.6033270411,
				"z": -2.5742297972,
				"element": "C" 
			},
			{
				"x": -1.6138629771,
				"y": -1.1625757301,
				"z": -1.3917353718,
				"element": "C" 
			},
			{
				"x": -0.466174031,
				"y": -0.359456891,
				"z": -1.4080250944,
				"element": "C" 
			},
			{
				"x": 0.0744796274,
				"y": 0.0383500765,
				"z": -2.6386576719,
				"element": "C" 
			},
			{
				"x": -0.520397619,
				"y": -0.3854705121,
				"z": -3.8270428544,
				"element": "C" 
			},
			{
				"x": -1.6490799107,
				"y": -1.2033546892,
				"z": -3.7947342243,
				"element": "C" 
			},
			{
				"x": 0.0928153326,
				"y": 0.0584244553,
				"z": -0.0744796557,
				"element": "C" 
			},
			{
				"x": -0.6097955184,
				"y": 0.0876963892,
				"z": 0.9325476712,
				"element": "O" 
			},
			{
				"x": 1.4312586762,
				"y": 0.3775648246,
				"z": -0.081742547,
				"element": "N" 
			},
			{
				"x": 2.242030806,
				"y": 0.8144518216,
				"z": 0.9899854123,
				"element": "C" 
			},
			{
				"x": 1.7531460171,
				"y": 1.0716916966,
				"z": 2.2786373945,
				"element": "C" 
			},
			{
				"x": 2.6249772428,
				"y": 1.5112706292,
				"z": 3.2747053714,
				"element": "C" 
			},
			{
				"x": 3.9838810099,
				"y": 1.7002929665,
				"z": 3.0113288929,
				"element": "C" 
			},
			{
				"x": 4.8759240871,
				"y": 2.1288391359,
				"z": 3.9566528376,
				"element": "O" 
			},
			{
				"x": 4.4743994587,
				"y": 1.4437265603,
				"z": 1.7268102573,
				"element": "C" 
			},
			{
				"x": 3.6091597807,
				"y": 1.0070318855,
				"z": 0.7315280184,
				"element": "C" 
			},
			{
				"x": -3.9702015911,
				"y": -2.4032056782,
				"z": -1.5965418777,
				"element": "H" 
			},
			{
				"x": -3.1401421379,
				"y": -3.5569211158,
				"z": -2.6435848815,
				"element": "H" 
			},
			{
				"x": -4.1179626224,
				"y": -2.2738928853,
				"z": -3.3573659347,
				"element": "H" 
			},
			{
				"x": -2.0308267195,
				"y": -1.4312890977,
				"z": -0.4261137249,
				"element": "H" 
			},
			{
				"x": 0.9253069091,
				"y": 0.7128748045,
				"z": -2.682762155,
				"element": "H" 
			},
			{
				"x": -0.1105276739,
				"y": -0.0650395484,
				"z": -4.7805603826,
				"element": "H" 
			},
			{
				"x": -2.1058414477,
				"y": -1.5265801995,
				"z": -4.7270300765,
				"element": "H" 
			},
			{
				"x": 1.9264502369,
				"y": 0.1928970047,
				"z": -0.9412661469,
				"element": "H" 
			},
			{
				"x": 0.7040989718,
				"y": 0.9199732352,
				"z": 2.4879777935,
				"element": "H" 
			},
			{
				"x": 2.2338425511,
				"y": 1.7067420758,
				"z": 4.2713151981,
				"element": "H" 
			},
			{
				"x": 4.4077864573,
				"y": 2.2661474695,
				"z": 4.7901734935,
				"element": "H" 
			},
			{
				"x": 5.5299586191,
				"y": 1.5910277651,
				"z": 1.5246882499,
				"element": "H" 
			},
			{
				"x": 4.0018478334,
				"y": 0.8123636261,
				"z": -0.264317352,
				"element": "H" 
			}
		],
		 "valence_orbital": [ 
			{
				"type": "occ",
				"energy": -0.26031,
				"method": "rhf"
			},
			{
				"type": "occ",
				"energy": -0.2521,
				"method": "rhf"
			},
			{
				"type": "occ",
				"energy": -0.25003,
				"method": "rhf"
			},
			{
				"type": "occ",
				"energy": -0.24666,
				"method": "rhf"
			},
			{
				"type": "occ",
				"energy": -0.19974,
				"method": "rhf"
			},
			{
				"type": "unocc",
				"energy": -0.03867,
				"method": "rhf"
			},
			{
				"type": "unocc",
				"energy": -0.008,
				"method": "rhf"
			},
			{
				"type": "unocc",
				"energy": -0.00217,
				"method": "rhf"
			},
			{
				"type": "unocc",
				"energy": 0.01933,
				"method": "rhf"
			},
			{
				"type": "unocc",
				"energy": 0.06712,
				"method": "rhf"
			}
		],
		"cosmo_sigma_profile": { 
			"-0.025": 0.0,
			"-0.024": 0.0,
			"-0.023": 0.0,
			"-0.022": 0.0,
			"-0.021": 0.0,
			"-0.02": 0.0,
			"-0.019": 0.0,
			"-0.018": 0.232206434207,
			"-0.017": 1.01870267788,
			"-0.016": 1.13744861051,
			"-0.015": 0.935827373677,
			"-0.014": 2.98138590122,
			"-0.013": 2.07880090543,
			"-0.012": 2.38754994731,
			"-0.011": 1.56151155759,
			"-0.01": 3.12670172246,
			"-0.009": 2.81067882513,
			"-0.008": 2.60827172546,
			"-0.007": 4.75728744763,
			"-0.006": 9.99936962336,
			"-0.005": 14.4820155731,
			"-0.004": 21.5415979197,
			"-0.003": 16.3111165032,
			"-0.002": 17.1959148725,
			"-0.001": 19.2205205641,
			"0.0": 20.8645853973,
			"0.001": 17.5519332256,
			"0.002": 15.1300106138,
			"0.003": 19.4256211612,
			"0.004": 24.8921560929,
			"0.005": 22.3235396369,
			"0.006": 6.50158752136,
			"0.007": 3.1185228905,
			"0.008": 3.34229360969,
			"0.009": 2.50196063847,
			"0.01": 3.64829911681,
			"0.011": 3.86555433627,
			"0.012": 3.22054061338,
			"0.013": 2.84560160014,
			"0.014": 0.989900239247,
			"0.015": 0.0,
			"0.016": 0.0,
			"0.017": 0.0,
			"0.018": 0.0,
			"0.019": 0.0,
			"0.02": 0.0,
			"0.021": 0.0,
			"0.022": 0.0,
			"0.023": 0.0,
			"0.024": 0.0,
			"0.025": 0.0
		}
	}
}
