{
	 "smiles": "CC1=CC(C)=CC(=O)O1", 
	 "Tm": 324.65, 
	 "num_atms": 17, 
	 "gaussian": { 
		 "optdone": 1, 
		 "sigma_profile": "yes", 
		 "theory": "DFT", 
		 "functional": "B3LYP", 
		 "basiset": "6-31G**", 
		 "properties": { 
			 "R2extent": 1640.2164, 
			 "electric_dipole_moment_norm": 5.0697884877, 
			 "electric_quadrupole_moment_norm": 12.5113069897, 
			 "total_energy": -422.016335119, 
			 "HOMO_LUMO_gap": 0.17912, 
			 "cosmo_polarized_energy": -11.09, 
			 "cosmo_cavitation_energy": 21.04, 
			 "cosmo_dispersion_energy": -15.58, 
			 "cosmo_repulsion_energy": 1.29, 
			 "cosmo_total_nonelectrostatic_energy": 6.75, 
			 "SMD_solvation_energy": 5.28 
		},
		"coords": [
			{
				"x": 0.6371143015,
				"y": -1.9200031693,
				"z": -1.0521494524,
				"element": "C" 
			},
			{
				"x": 0.2738363819,
				"y": -1.1222521635,
				"z": 0.1591511359,
				"element": "C" 
			},
			{
				"x": -0.9824275161,
				"y": -0.8601692118,
				"z": 0.5986930059,
				"element": "C" 
			},
			{
				"x": -1.1691045855,
				"y": -0.0728984118,
				"z": 1.7876219987,
				"element": "C" 
			},
			{
				"x": -2.5672347523,
				"y": 0.2115452064,
				"z": 2.265948945,
				"element": "C" 
			},
			{
				"x": -0.0704883146,
				"y": 0.3934944455,
				"z": 2.4476104357,
				"element": "C" 
			},
			{
				"x": 1.275379188,
				"y": 0.1231340408,
				"z": 1.9923524459,
				"element": "C" 
			},
			{
				"x": 2.3154449443,
				"y": 0.4815768725,
				"z": 2.4923590327,
				"element": "O" 
			},
			{
				"x": 1.3625539755,
				"y": -0.6597781505,
				"z": 0.813745889,
				"element": "O" 
			},
			{
				"x": 1.2590413907,
				"y": -2.7768667338,
				"z": -0.771395586,
				"element": "H" 
			},
			{
				"x": -0.2571306735,
				"y": -2.2820285638,
				"z": -1.5629934288,
				"element": "H" 
			},
			{
				"x": 1.2231828618,
				"y": -1.310097582,
				"z": -1.748119418,
				"element": "H" 
			},
			{
				"x": -1.8339433813,
				"y": -1.2460291926,
				"z": 0.0504700069,
				"element": "H" 
			},
			{
				"x": -2.5679868949,
				"y": 0.8166506145,
				"z": 3.1751561493,
				"element": "H" 
			},
			{
				"x": -3.1028773715,
				"y": -0.7226578483,
				"z": 2.4715122738,
				"element": "H" 
			},
			{
				"x": -3.1384266297,
				"y": 0.7432324108,
				"z": 1.4959106552,
				"element": "H" 
			},
			{
				"x": -0.1506329243,
				"y": 0.9913474369,
				"z": 3.3482259111,
				"element": "H" 
			}
		],
		 "valence_orbital": [ 
			{
				"type": "occ",
				"energy": -0.34947,
				"method": "rhf"
			},
			{
				"type": "occ",
				"energy": -0.34554,
				"method": "rhf"
			},
			{
				"type": "occ",
				"energy": -0.30905,
				"method": "rhf"
			},
			{
				"type": "occ",
				"energy": -0.26392,
				"method": "rhf"
			},
			{
				"type": "occ",
				"energy": -0.22684,
				"method": "rhf"
			},
			{
				"type": "unocc",
				"energy": -0.04772,
				"method": "rhf"
			},
			{
				"type": "unocc",
				"energy": 0.01366,
				"method": "rhf"
			},
			{
				"type": "unocc",
				"energy": 0.0872,
				"method": "rhf"
			},
			{
				"type": "unocc",
				"energy": 0.10726,
				"method": "rhf"
			},
			{
				"type": "unocc",
				"energy": 0.11631,
				"method": "rhf"
			}
		],
		"cosmo_sigma_profile": { 
			"-0.025": 0.0,
			"-0.024": 0.0,
			"-0.023": 0.0,
			"-0.022": 0.0,
			"-0.021": 0.0,
			"-0.02": 0.0,
			"-0.019": 0.0,
			"-0.018": 0.0,
			"-0.017": 0.0,
			"-0.016": 0.0,
			"-0.015": 0.0,
			"-0.014": 0.0,
			"-0.013": 0.0,
			"-0.012": 0.0,
			"-0.011": 0.0,
			"-0.01": 0.0,
			"-0.009": 0.0,
			"-0.008": 0.0227917932282,
			"-0.007": 3.14526675311,
			"-0.006": 10.5752672756,
			"-0.005": 16.1023883128,
			"-0.004": 16.7250881071,
			"-0.003": 15.2029708462,
			"-0.002": 19.8445051968,
			"-0.001": 20.5848759175,
			"0.0": 10.8338554415,
			"0.001": 9.98116830744,
			"0.002": 9.91773953173,
			"0.003": 4.19206474957,
			"0.004": 1.6634314238,
			"0.005": 1.98053581673,
			"0.006": 1.93595618739,
			"0.007": 3.05473455937,
			"0.008": 1.68789896695,
			"0.009": 1.8138430916,
			"0.01": 2.22894692193,
			"0.011": 3.0804924437,
			"0.012": 4.65168779399,
			"0.013": 6.00971931635,
			"0.014": 1.79717605414,
			"0.015": 7.84435526183e-05,
			"0.016": 0.0,
			"0.017": 0.0,
			"0.018": 0.0,
			"0.019": 0.0,
			"0.02": 0.0,
			"0.021": 0.0,
			"0.022": 0.0,
			"0.023": 0.0,
			"0.024": 0.0,
			"0.025": 0.0
		}
	}
}
