{
	 "smiles": "N#CC(=C/C1=CC=CS1)C1=NC(=CS1)C1=C2C=CC=CC2=CC=C1", 
	 "Tm": 479.15, 
	 "num_atms": 36, 
	 "gaussian": { 
		 "optdone": 1, 
		 "sigma_profile": "yes", 
		 "theory": "DFT", 
		 "functional": "B3LYP", 
		 "basiset": "6-31G**", 
		 "properties": { 
			 "R2extent": 12787.081, 
			 "electric_dipole_moment_norm": 2.83785989964, 
			 "electric_quadrupole_moment_norm": 33.6206637351, 
			 "total_energy": -1675.20439303, 
			 "HOMO_LUMO_gap": 0.11479, 
			 "cosmo_polarized_energy": -12.35, 
			 "cosmo_cavitation_energy": 45.18, 
			 "cosmo_dispersion_energy": -32.45, 
			 "cosmo_repulsion_energy": 2.33, 
			 "cosmo_total_nonelectrostatic_energy": 15.06, 
			 "SMD_solvation_energy": 7.29 
		},
		"coords": [
			{
				"x": 4.9861915566,
				"y": -2.952222096,
				"z": 0.593553168,
				"element": "N" 
			},
			{
				"x": 3.92030466,
				"y": -2.4900222515,
				"z": 0.6796865477,
				"element": "C" 
			},
			{
				"x": 2.6188825355,
				"y": -1.9103508571,
				"z": 0.7821313529,
				"element": "C" 
			},
			{
				"x": 1.5020246942,
				"y": -2.6511400464,
				"z": 1.0632704559,
				"element": "C" 
			},
			{
				"x": 1.3787607464,
				"y": -4.0593133663,
				"z": 1.3086775931,
				"element": "C" 
			},
			{
				"x": 2.3106774893,
				"y": -5.0885808451,
				"z": 1.3448000873,
				"element": "C" 
			},
			{
				"x": 1.7383349827,
				"y": -6.3516830941,
				"z": 1.6291511188,
				"element": "C" 
			},
			{
				"x": 0.376861349,
				"y": -6.2972942208,
				"z": 1.8111837244,
				"element": "C" 
			},
			{
				"x": -0.2300751369,
				"y": -4.6953531218,
				"z": 1.6367399802,
				"element": "S" 
			},
			{
				"x": 2.5100761114,
				"y": -0.4626572836,
				"z": 0.5704354058,
				"element": "C" 
			},
			{
				"x": 1.3905613608,
				"y": 0.205705681,
				"z": 0.6651554456,
				"element": "N" 
			},
			{
				"x": 1.5639575581,
				"y": 1.5467282553,
				"z": 0.3987929959,
				"element": "C" 
			},
			{
				"x": 2.8610474854,
				"y": 1.9032888451,
				"z": 0.1044955458,
				"element": "C" 
			},
			{
				"x": 3.9037219986,
				"y": 0.5272001623,
				"z": 0.1435991586,
				"element": "S" 
			},
			{
				"x": 0.4240952449,
				"y": 2.4939266617,
				"z": 0.3959271904,
				"element": "C" 
			},
			{
				"x": -0.5727805654,
				"y": 2.508673121,
				"z": 1.4325913721,
				"element": "C" 
			},
			{
				"x": -0.5485753001,
				"y": 1.6352012747,
				"z": 2.5553427684,
				"element": "C" 
			},
			{
				"x": -1.5213029555,
				"y": 1.7004991011,
				"z": 3.5286402582,
				"element": "C" 
			},
			{
				"x": -2.5729342835,
				"y": 2.6420827776,
				"z": 3.4368936823,
				"element": "C" 
			},
			{
				"x": -2.6229727326,
				"y": 3.5088025724,
				"z": 2.3702175957,
				"element": "C" 
			},
			{
				"x": -1.6332105076,
				"y": 3.4741708569,
				"z": 1.3506550883,
				"element": "C" 
			},
			{
				"x": -1.6734115272,
				"y": 4.3868310672,
				"z": 0.2631317656,
				"element": "C" 
			},
			{
				"x": -0.7042068821,
				"y": 4.3582589357,
				"z": -0.7110414083,
				"element": "C" 
			},
			{
				"x": 0.3385448585,
				"y": 3.4089653367,
				"z": -0.6419092534,
				"element": "C" 
			},
			{
				"x": 0.5841772413,
				"y": -2.0691519916,
				"z": 1.1010166151,
				"element": "H" 
			},
			{
				"x": 3.3678237857,
				"y": -4.9363565643,
				"z": 1.172082273,
				"element": "H" 
			},
			{
				"x": 2.3111061365,
				"y": -7.2691647231,
				"z": 1.6972703102,
				"element": "H" 
			},
			{
				"x": -0.2976730968,
				"y": -7.1117139324,
				"z": 2.0371837277,
				"element": "H" 
			},
			{
				"x": 3.2476167804,
				"y": 2.8904919785,
				"z": -0.102053078,
				"element": "H" 
			},
			{
				"x": 0.2432367501,
				"y": 0.9011218817,
				"z": 2.6318850895,
				"element": "H" 
			},
			{
				"x": -1.4800625198,
				"y": 1.0224287931,
				"z": 4.3763458234,
				"element": "H" 
			},
			{
				"x": -3.3345887353,
				"y": 2.6805342406,
				"z": 4.2103420196,
				"element": "H" 
			},
			{
				"x": -3.4216948777,
				"y": 4.2420114923,
				"z": 2.2916937129,
				"element": "H" 
			},
			{
				"x": -2.4852849363,
				"y": 5.1079932734,
				"z": 0.2160895976,
				"element": "H" 
			},
			{
				"x": -0.7398923097,
				"y": 5.0535922062,
				"z": -1.544435332,
				"element": "H" 
			},
			{
				"x": 1.0791630407,
				"y": 3.3752958797,
				"z": -1.4352423983,
				"element": "H" 
			}
		],
		 "valence_orbital": [ 
			{
				"type": "occ",
				"energy": -0.27003,
				"method": "rhf"
			},
			{
				"type": "occ",
				"energy": -0.26291,
				"method": "rhf"
			},
			{
				"type": "occ",
				"energy": -0.24462,
				"method": "rhf"
			},
			{
				"type": "occ",
				"energy": -0.2232,
				"method": "rhf"
			},
			{
				"type": "occ",
				"energy": -0.20814,
				"method": "rhf"
			},
			{
				"type": "unocc",
				"energy": -0.09335,
				"method": "rhf"
			},
			{
				"type": "unocc",
				"energy": -0.04736,
				"method": "rhf"
			},
			{
				"type": "unocc",
				"energy": -0.01897,
				"method": "rhf"
			},
			{
				"type": "unocc",
				"energy": -0.01075,
				"method": "rhf"
			},
			{
				"type": "unocc",
				"energy": -0.0028,
				"method": "rhf"
			}
		],
		"cosmo_sigma_profile": { 
			"-0.025": 0.0,
			"-0.024": 0.0,
			"-0.023": 0.0,
			"-0.022": 0.0,
			"-0.021": 0.0,
			"-0.02": 0.0,
			"-0.019": 0.0,
			"-0.018": 0.0,
			"-0.017": 0.0,
			"-0.016": 0.0,
			"-0.015": 0.0,
			"-0.014": 0.0,
			"-0.013": 0.0,
			"-0.012": 0.0,
			"-0.011": 0.0,
			"-0.01": 0.991311064249,
			"-0.009": 4.5949664324,
			"-0.008": 5.66881148755,
			"-0.007": 7.12000121204,
			"-0.006": 17.849197148,
			"-0.005": 23.6928654205,
			"-0.004": 21.1875108771,
			"-0.003": 24.7493744509,
			"-0.002": 26.3277249912,
			"-0.001": 27.869633898,
			"0.0": 32.6395529011,
			"0.001": 41.2258406319,
			"0.002": 37.8362376711,
			"0.003": 30.9778651754,
			"0.004": 27.3957853154,
			"0.005": 17.3131619424,
			"0.006": 4.46179931842,
			"0.007": 4.01174295265,
			"0.008": 3.48082867368,
			"0.009": 3.47286214714,
			"0.01": 3.16159197676,
			"0.011": 2.44978709066,
			"0.012": 2.16139086572,
			"0.013": 0.316905111719,
			"0.014": 0.0,
			"0.015": 0.0,
			"0.016": 0.0,
			"0.017": 0.0,
			"0.018": 0.0,
			"0.019": 0.0,
			"0.02": 0.0,
			"0.021": 0.0,
			"0.022": 0.0,
			"0.023": 0.0,
			"0.024": 0.0,
			"0.025": 0.0
		}
	}
}
