{
	 "smiles": "CC1=C(I)N2C=CC=CC2=N1", 
	 "Tm": 397.15, 
	 "num_atms": 18, 
	 "gaussian": { 
		 "optdone": 1, 
		 "sigma_profile": "yes", 
		 "theory": "DFT", 
		 "functional": "B3LYP", 
		 "basiset": "6-31G**", 
		 "properties": { 
			 "R2extent": 1886.5211, 
			 "electric_dipole_moment_norm": 2.26009489403, 
			 "electric_quadrupole_moment_norm": 6.94438446228, 
			 "total_energy": -429.955537432, 
			 "HOMO_LUMO_gap": 0.16933, 
			 "cosmo_polarized_energy": -7.64, 
			 "cosmo_cavitation_energy": 24.89, 
			 "cosmo_dispersion_energy": -19.84, 
			 "cosmo_repulsion_energy": 1.54, 
			 "cosmo_total_nonelectrostatic_energy": 6.59, 
			 "SMD_solvation_energy": 1.99 
		},
		"coords": [
			{
				"x": 1.0397546984,
				"y": 1.3845067421,
				"z": 2.6350987347,
				"element": "C" 
			},
			{
				"x": 0.7855227539,
				"y": 0.4955052171,
				"z": 1.4593382005,
				"element": "C" 
			},
			{
				"x": 1.5585208446,
				"y": 0.3578094386,
				"z": 0.312325797,
				"element": "C" 
			},
			{
				"x": 3.3283901646,
				"y": 1.2970999294,
				"z": -0.2284990856,
				"element": "I" 
			},
			{
				"x": 0.9209266196,
				"y": -0.5767421702,
				"z": -0.4837394629,
				"element": "N" 
			},
			{
				"x": 1.2219036245,
				"y": -1.1032700246,
				"z": -1.7163297397,
				"element": "C" 
			},
			{
				"x": 0.3830505666,
				"y": -2.0334310721,
				"z": -2.2661335496,
				"element": "C" 
			},
			{
				"x": -0.7863400601,
				"y": -2.4524181216,
				"z": -1.5737232627,
				"element": "C" 
			},
			{
				"x": -1.0858162862,
				"y": -1.9241206461,
				"z": -0.3399612444,
				"element": "C" 
			},
			{
				"x": -0.2269344582,
				"y": -0.9634709619,
				"z": 0.2367118256,
				"element": "C" 
			},
			{
				"x": -0.3050472862,
				"y": -0.319003262,
				"z": 1.4007090585,
				"element": "N" 
			},
			{
				"x": 0.2382101509,
				"y": 1.2505595075,
				"z": 3.3632839705,
				"element": "H" 
			},
			{
				"x": 1.9950232998,
				"y": 1.1500151013,
				"z": 3.1176517891,
				"element": "H" 
			},
			{
				"x": 1.074600155,
				"y": 2.4395057243,
				"z": 2.3416116045,
				"element": "H" 
			},
			{
				"x": 2.1261345443,
				"y": -0.7414331136,
				"z": -2.1886989064,
				"element": "H" 
			},
			{
				"x": 0.6268583545,
				"y": -2.4445227283,
				"z": -3.2390116326,
				"element": "H" 
			},
			{
				"x": -1.4402234866,
				"y": -3.1911643459,
				"z": -2.0250421084,
				"element": "H" 
			},
			{
				"x": -1.9659341995,
				"y": -2.2150252141,
				"z": 0.221808012,
				"element": "H" 
			}
		],
		 "valence_orbital": [ 
			{
				"type": "occ",
				"energy": -0.29034,
				"method": "rhf"
			},
			{
				"type": "occ",
				"energy": -0.28962,
				"method": "rhf"
			},
			{
				"type": "occ",
				"energy": -0.26857,
				"method": "rhf"
			},
			{
				"type": "occ",
				"energy": -0.24186,
				"method": "rhf"
			},
			{
				"type": "occ",
				"energy": -0.20726,
				"method": "rhf"
			},
			{
				"type": "unocc",
				"energy": -0.03793,
				"method": "rhf"
			},
			{
				"type": "unocc",
				"energy": -0.03598,
				"method": "rhf"
			},
			{
				"type": "unocc",
				"energy": -0.00414,
				"method": "rhf"
			},
			{
				"type": "unocc",
				"energy": 0.03746,
				"method": "rhf"
			},
			{
				"type": "unocc",
				"energy": 0.04493,
				"method": "rhf"
			}
		],
		"cosmo_sigma_profile": { 
			"-0.025": 0.0,
			"-0.024": 0.0,
			"-0.023": 0.0,
			"-0.022": 0.0,
			"-0.021": 0.0,
			"-0.02": 0.0,
			"-0.019": 0.0,
			"-0.018": 0.0,
			"-0.017": 0.0,
			"-0.016": 0.0,
			"-0.015": 0.0,
			"-0.014": 0.0,
			"-0.013": 0.0,
			"-0.012": 0.0,
			"-0.011": 0.0,
			"-0.01": 0.0,
			"-0.009": 0.222361675437,
			"-0.008": 2.54092660929,
			"-0.007": 8.03192298,
			"-0.006": 8.9955320409,
			"-0.005": 11.6631060992,
			"-0.004": 14.0232718271,
			"-0.003": 13.1350266153,
			"-0.002": 15.1134864693,
			"-0.001": 20.1434466287,
			"0.0": 20.2594402338,
			"0.001": 19.3802576908,
			"0.002": 23.1136850546,
			"0.003": 21.6768273392,
			"0.004": 9.93657168437,
			"0.005": 2.5395481606,
			"0.006": 1.70884270449,
			"0.007": 1.78890988257,
			"0.008": 1.86871548478,
			"0.009": 0.759396811601,
			"0.01": 0.953990808822,
			"0.011": 1.3544613006,
			"0.012": 1.1216837021,
			"0.013": 0.674444847696,
			"0.014": 1.38500924971,
			"0.015": 0.707515023218,
			"0.016": 0.858288982619,
			"0.017": 0.819208068731,
			"0.018": 0.184265000428,
			"0.019": 0.0,
			"0.02": 0.0,
			"0.021": 0.0,
			"0.022": 0.0,
			"0.023": 0.0,
			"0.024": 0.0,
			"0.025": 0.0
		}
	}
}
