{
	 "smiles": "OC(=O)CCC(=O)C1=CC=C2C3=CC=CC4=CC=CC(C2=C1)=C34", 
	 "Tm": 481.15, 
	 "num_atms": 37, 
	 "gaussian": { 
		 "optdone": 1, 
		 "sigma_profile": "yes", 
		 "theory": "DFT", 
		 "functional": "B3LYP", 
		 "basiset": "6-31G**", 
		 "properties": { 
			 "R2extent": 10607.8457, 
			 "electric_dipole_moment_norm": 9.13101147354, 
			 "electric_quadrupole_moment_norm": 28.7439889798, 
			 "total_energy": -996.283057948, 
			 "HOMO_LUMO_gap": 0.13797, 
			 "cosmo_polarized_energy": -18.43, 
			 "cosmo_cavitation_energy": 41.14, 
			 "cosmo_dispersion_energy": -29.9, 
			 "cosmo_repulsion_energy": 2.19, 
			 "cosmo_total_nonelectrostatic_energy": 13.43, 
			 "SMD_solvation_energy": 7.19 
		},
		"coords": [
			{
				"x": 5.2953065167,
				"y": 0.3520579251,
				"z": -0.4417190288,
				"element": "O" 
			},
			{
				"x": 5.1393900763,
				"y": -0.9695768344,
				"z": -0.2554680981,
				"element": "C" 
			},
			{
				"x": 5.7792970289,
				"y": -1.7789941937,
				"z": -0.8871439795,
				"element": "O" 
			},
			{
				"x": 4.1134040426,
				"y": -1.3790393497,
				"z": 0.8065593881,
				"element": "C" 
			},
			{
				"x": 2.6479316625,
				"y": -1.0471112961,
				"z": 0.4650664619,
				"element": "C" 
			},
			{
				"x": 2.2542617182,
				"y": 0.4118062902,
				"z": 0.6662939237,
				"element": "C" 
			},
			{
				"x": 3.1170551172,
				"y": 1.2685213207,
				"z": 0.8756833948,
				"element": "O" 
			},
			{
				"x": 0.8192059551,
				"y": 0.794127866,
				"z": 0.6149962916,
				"element": "C" 
			},
			{
				"x": 0.4890150608,
				"y": 2.1444696439,
				"z": 0.8427918739,
				"element": "C" 
			},
			{
				"x": -0.8329002634,
				"y": 2.5821321242,
				"z": 0.8042609172,
				"element": "C" 
			},
			{
				"x": -1.843471559,
				"y": 1.6620094657,
				"z": 0.5282306585,
				"element": "C" 
			},
			{
				"x": -3.3029833261,
				"y": 1.813798719,
				"z": 0.4177122857,
				"element": "C" 
			},
			{
				"x": -4.1935272825,
				"y": 2.8635057477,
				"z": 0.5387454135,
				"element": "C" 
			},
			{
				"x": -5.5793681734,
				"y": 2.6054970688,
				"z": 0.3535635143,
				"element": "C" 
			},
			{
				"x": -6.0673876094,
				"y": 1.342604772,
				"z": 0.0566183223,
				"element": "C" 
			},
			{
				"x": -5.17444952,
				"y": 0.2412976557,
				"z": -0.0745982944,
				"element": "C" 
			},
			{
				"x": -5.4962306981,
				"y": -1.1135205525,
				"z": -0.3744845329,
				"element": "C" 
			},
			{
				"x": -4.4912285514,
				"y": -2.0620520464,
				"z": -0.4653478018,
				"element": "C" 
			},
			{
				"x": -3.1183301286,
				"y": -1.7423222472,
				"z": -0.268728753,
				"element": "C" 
			},
			{
				"x": -2.7768602583,
				"y": -0.4369551671,
				"z": 0.0235491347,
				"element": "C" 
			},
			{
				"x": -1.5205189524,
				"y": 0.2895172533,
				"z": 0.2892579601,
				"element": "C" 
			},
			{
				"x": -0.2015561643,
				"y": -0.1379530401,
				"z": 0.3353280742,
				"element": "C" 
			},
			{
				"x": -3.8127126102,
				"y": 0.5259666417,
				"z": 0.1139223352,
				"element": "C" 
			},
			{
				"x": 4.660073009,
				"y": 0.8369258901,
				"z": 0.1314802079,
				"element": "H" 
			},
			{
				"x": 4.2136395749,
				"y": -2.4590754377,
				"z": 0.9237241954,
				"element": "H" 
			},
			{
				"x": 4.3753659509,
				"y": -0.9070000041,
				"z": 1.7607669773,
				"element": "H" 
			},
			{
				"x": 2.4175966667,
				"y": -1.3305863132,
				"z": -0.5711264488,
				"element": "H" 
			},
			{
				"x": 1.9920255955,
				"y": -1.6637525163,
				"z": 1.0902192621,
				"element": "H" 
			},
			{
				"x": 1.2971439594,
				"y": 2.8370183946,
				"z": 1.0500197009,
				"element": "H" 
			},
			{
				"x": -1.0657262778,
				"y": 3.6274909274,
				"z": 0.9853020907,
				"element": "H" 
			},
			{
				"x": -3.863342011,
				"y": 3.8724493081,
				"z": 0.769695586,
				"element": "H" 
			},
			{
				"x": -6.2775841719,
				"y": 3.4318787225,
				"z": 0.4490204859,
				"element": "H" 
			},
			{
				"x": -7.1353059754,
				"y": 1.1919742266,
				"z": -0.0769244689,
				"element": "H" 
			},
			{
				"x": -6.5318357828,
				"y": -1.4021898889,
				"z": -0.5324605499,
				"element": "H" 
			},
			{
				"x": -4.7549218066,
				"y": -3.0902288327,
				"z": -0.6954218757,
				"element": "H" 
			},
			{
				"x": -2.3713265177,
				"y": -2.5269324421,
				"z": -0.3527625549,
				"element": "H" 
			},
			{
				"x": 0.0351557056,
				"y": -1.1804598009,
				"z": 0.149677931,
				"element": "H" 
			}
		],
		 "valence_orbital": [ 
			{
				"type": "occ",
				"energy": -0.27837,
				"method": "rhf"
			},
			{
				"type": "occ",
				"energy": -0.26349,
				"method": "rhf"
			},
			{
				"type": "occ",
				"energy": -0.24738,
				"method": "rhf"
			},
			{
				"type": "occ",
				"energy": -0.24064,
				"method": "rhf"
			},
			{
				"type": "occ",
				"energy": -0.23305,
				"method": "rhf"
			},
			{
				"type": "unocc",
				"energy": -0.09508,
				"method": "rhf"
			},
			{
				"type": "unocc",
				"energy": -0.06317,
				"method": "rhf"
			},
			{
				"type": "unocc",
				"energy": -0.03037,
				"method": "rhf"
			},
			{
				"type": "unocc",
				"energy": -0.01674,
				"method": "rhf"
			},
			{
				"type": "unocc",
				"energy": 0.02638,
				"method": "rhf"
			}
		],
		"cosmo_sigma_profile": { 
			"-0.025": 0.0,
			"-0.024": 0.0,
			"-0.023": 0.0,
			"-0.022": 0.0,
			"-0.021": 0.0,
			"-0.02": 0.0,
			"-0.019": 0.0,
			"-0.018": 0.0,
			"-0.017": 0.0,
			"-0.016": 0.0,
			"-0.015": 0.0,
			"-0.014": 0.0,
			"-0.013": 0.0,
			"-0.012": 0.0,
			"-0.011": 0.0,
			"-0.01": 0.0,
			"-0.009": 0.00407810239059,
			"-0.008": 3.72357477884,
			"-0.007": 16.97009041,
			"-0.006": 31.873241577,
			"-0.005": 27.7835068677,
			"-0.004": 26.9011286475,
			"-0.003": 19.2247409077,
			"-0.002": 17.4150637743,
			"-0.001": 14.5118316601,
			"0.0": 16.9898882549,
			"0.001": 20.6046063294,
			"0.002": 29.0594316393,
			"0.003": 41.4691038062,
			"0.004": 21.916487789,
			"0.005": 4.85864445456,
			"0.006": 3.11310315818,
			"0.007": 3.77928555341,
			"0.008": 3.83663577189,
			"0.009": 4.5898826809,
			"0.01": 3.68300782208,
			"0.011": 5.44851353621,
			"0.012": 6.58413196769,
			"0.013": 4.79995536253,
			"0.014": 1.33387097197,
			"0.015": 0.0,
			"0.016": 0.0,
			"0.017": 0.0,
			"0.018": 0.0,
			"0.019": 0.0,
			"0.02": 0.0,
			"0.021": 0.0,
			"0.022": 0.0,
			"0.023": 0.0,
			"0.024": 0.0,
			"0.025": 0.0
		}
	}
}
