{
	 "smiles": "NC1=NN=C(NS(=O)(=O)C2=CC=CC=C2)N1", 
	 "Tm": 577.15, 
	 "num_atms": 25, 
	 "gaussian": { 
		 "optdone": 1, 
		 "sigma_profile": "yes", 
		 "theory": "DFT", 
		 "functional": "B3LYP", 
		 "basiset": "6-31G**", 
		 "properties": { 
			 "R2extent": 5126.2739, 
			 "electric_dipole_moment_norm": 5.09246750112, 
			 "electric_quadrupole_moment_norm": 28.0225460517, 
			 "total_energy": -1132.57432335, 
			 "HOMO_LUMO_gap": 0.15464, 
			 "cosmo_polarized_energy": -26.51, 
			 "cosmo_cavitation_energy": 31.62, 
			 "cosmo_dispersion_energy": -23.6, 
			 "cosmo_repulsion_energy": 1.8, 
			 "cosmo_total_nonelectrostatic_energy": 9.82, 
			 "SMD_solvation_energy": 2.48 
		},
		"coords": [
			{
				"x": 2.6698040583,
				"y": 5.2846274167,
				"z": 0.0020844897,
				"element": "N" 
			},
			{
				"x": 2.3682070526,
				"y": 4.0783209452,
				"z": -0.6181352363,
				"element": "C" 
			},
			{
				"x": 2.6276944629,
				"y": 3.7555264939,
				"z": -1.8615451168,
				"element": "N" 
			},
			{
				"x": 2.0984504544,
				"y": 2.4822704331,
				"z": -2.0777965986,
				"element": "N" 
			},
			{
				"x": 1.5490972052,
				"y": 2.1105748991,
				"z": -0.9555867024,
				"element": "C" 
			},
			{
				"x": 0.8250270039,
				"y": 0.9165267265,
				"z": -0.779444762,
				"element": "N" 
			},
			{
				"x": 1.0760476046,
				"y": 0.0021912673,
				"z": 0.6554395847,
				"element": "S" 
			},
			{
				"x": 2.2887509947,
				"y": -0.8170272112,
				"z": 0.5893976577,
				"element": "O" 
			},
			{
				"x": 0.90415031,
				"y": 0.9801105818,
				"z": 1.7403723514,
				"element": "O" 
			},
			{
				"x": -0.3438209528,
				"y": -1.0802842555,
				"z": 0.5724260315,
				"element": "C" 
			},
			{
				"x": -0.1331655123,
				"y": -2.449694714,
				"z": 0.4072043064,
				"element": "C" 
			},
			{
				"x": -1.2412928816,
				"y": -3.2979993667,
				"z": 0.3688017665,
				"element": "C" 
			},
			{
				"x": -2.5286744821,
				"y": -2.7739897027,
				"z": 0.4968036684,
				"element": "C" 
			},
			{
				"x": -2.721315621,
				"y": -1.3992975331,
				"z": 0.6679944776,
				"element": "C" 
			},
			{
				"x": -1.6256760541,
				"y": -0.5400916211,
				"z": 0.7104663622,
				"element": "C" 
			},
			{
				"x": 1.6659661156,
				"y": 3.0766116924,
				"z": 0.0092436784,
				"element": "N" 
			},
			{
				"x": 3.1676845916,
				"y": 5.1788521429,
				"z": 0.8802417126,
				"element": "H" 
			},
			{
				"x": 3.2045017521,
				"y": 5.8663026641,
				"z": -0.6336963232,
				"element": "H" 
			},
			{
				"x": 0.9210427549,
				"y": 0.3379197836,
				"z": -1.6131787245,
				"element": "H" 
			},
			{
				"x": 0.8777313394,
				"y": -2.8312409426,
				"z": 0.3167466313,
				"element": "H" 
			},
			{
				"x": -1.0963867417,
				"y": -4.366155893,
				"z": 0.2410098943,
				"element": "H" 
			},
			{
				"x": -3.3872357457,
				"y": -3.4382014609,
				"z": 0.465575819,
				"element": "H" 
			},
			{
				"x": -3.7246269419,
				"y": -0.9979384348,
				"z": 0.7708795978,
				"element": "H" 
			},
			{
				"x": -1.7566564803,
				"y": 0.5275264198,
				"z": 0.8476249601,
				"element": "H" 
			},
			{
				"x": 1.3435957132,
				"y": 2.9967596691,
				"z": 0.9642704741,
				"element": "H" 
			}
		],
		 "valence_orbital": [ 
			{
				"type": "occ",
				"energy": -0.29207,
				"method": "rhf"
			},
			{
				"type": "occ",
				"energy": -0.28516,
				"method": "rhf"
			},
			{
				"type": "occ",
				"energy": -0.28225,
				"method": "rhf"
			},
			{
				"type": "occ",
				"energy": -0.25169,
				"method": "rhf"
			},
			{
				"type": "occ",
				"energy": -0.21094,
				"method": "rhf"
			},
			{
				"type": "unocc",
				"energy": -0.0563,
				"method": "rhf"
			},
			{
				"type": "unocc",
				"energy": -0.03356,
				"method": "rhf"
			},
			{
				"type": "unocc",
				"energy": 0.02128,
				"method": "rhf"
			},
			{
				"type": "unocc",
				"energy": 0.05042,
				"method": "rhf"
			},
			{
				"type": "unocc",
				"energy": 0.05586,
				"method": "rhf"
			}
		],
		"cosmo_sigma_profile": { 
			"-0.025": 0.0,
			"-0.024": 0.0,
			"-0.023": 0.0,
			"-0.022": 0.0,
			"-0.021": 0.0,
			"-0.02": 0.0,
			"-0.019": 0.0,
			"-0.018": 0.0,
			"-0.017": 0.727006841237,
			"-0.016": 1.23330859543,
			"-0.015": 1.91231094708,
			"-0.014": 3.82501595013,
			"-0.013": 4.58590964936,
			"-0.012": 4.71934879525,
			"-0.011": 3.80001546579,
			"-0.01": 3.84172567878,
			"-0.009": 2.80745856659,
			"-0.008": 4.65575254751,
			"-0.007": 12.737197086,
			"-0.006": 15.3200579036,
			"-0.005": 12.1788692191,
			"-0.004": 10.63672164,
			"-0.003": 13.98118682,
			"-0.002": 12.6679535692,
			"-0.001": 13.4823655429,
			"0.0": 14.2246827696,
			"0.001": 15.2159806989,
			"0.002": 19.7203742428,
			"0.003": 13.262317686,
			"0.004": 6.5356826059,
			"0.005": 4.30894469674,
			"0.006": 6.142876182,
			"0.007": 5.78647221087,
			"0.008": 4.29045068162,
			"0.009": 7.7560370273,
			"0.01": 9.47325157876,
			"0.011": 5.53553921445,
			"0.012": 3.02798007327,
			"0.013": 3.47040677932,
			"0.014": 4.37899773468,
			"0.015": 2.72317597144,
			"0.016": 2.76608273358,
			"0.017": 1.33359293826,
			"0.018": 0.209008002478,
			"0.019": 0.0,
			"0.02": 0.0,
			"0.021": 0.0,
			"0.022": 0.0,
			"0.023": 0.0,
			"0.024": 0.0,
			"0.025": 0.0
		}
	}
}
