{
	 "smiles": "COC1=C(OC)C(OC1=O)=CC1CCC=CC11OC(=O)C(OC)=C1OC", 
	 "Tm": 392.15, 
	 "num_atms": 46, 
	 "gaussian": { 
		 "optdone": 1, 
		 "sigma_profile": "yes", 
		 "theory": "DFT", 
		 "functional": "B3LYP", 
		 "basiset": "6-31G**", 
		 "properties": { 
			 "R2extent": 10384.9635, 
			 "electric_dipole_moment_norm": 7.65942528784, 
			 "electric_quadrupole_moment_norm": 17.4598550635, 
			 "total_energy": -1299.65771592, 
			 "HOMO_LUMO_gap": 0.16098, 
			 "cosmo_polarized_energy": -20.16, 
			 "cosmo_cavitation_energy": 49.71, 
			 "cosmo_dispersion_energy": -32.56, 
			 "cosmo_repulsion_energy": 2.54, 
			 "cosmo_total_nonelectrostatic_energy": 19.69, 
			 "SMD_solvation_energy": 13.56 
		},
		"coords": [
			{
				"x": -5.168766381,
				"y": -1.417883741,
				"z": -2.5099565525,
				"element": "C" 
			},
			{
				"x": -4.1502286795,
				"y": -1.7527573539,
				"z": -1.5505366001,
				"element": "O" 
			},
			{
				"x": -3.1340017844,
				"y": -0.8604268242,
				"z": -1.4223407443,
				"element": "C" 
			},
			{
				"x": -2.5453332225,
				"y": -0.4215122332,
				"z": -0.2737728399,
				"element": "C" 
			},
			{
				"x": -2.7803011501,
				"y": -0.6412441304,
				"z": 1.0265266054,
				"element": "O" 
			},
			{
				"x": -3.957045097,
				"y": -1.3802167551,
				"z": 1.3840293767,
				"element": "C" 
			},
			{
				"x": -1.4263791944,
				"y": 0.4420596723,
				"z": -0.6423515256,
				"element": "C" 
			},
			{
				"x": -1.3716113916,
				"y": 0.511345356,
				"z": -2.0267217369,
				"element": "O" 
			},
			{
				"x": -2.3845329694,
				"y": -0.2879132995,
				"z": -2.5526835396,
				"element": "C" 
			},
			{
				"x": -2.5351547943,
				"y": -0.4179755705,
				"z": -3.7444696569,
				"element": "O" 
			},
			{
				"x": -0.5696822094,
				"y": 1.0949106171,
				"z": 0.1523498319,
				"element": "C" 
			},
			{
				"x": 0.514838907,
				"y": 2.0110102271,
				"z": -0.3438853352,
				"element": "C" 
			},
			{
				"x": 0.1520803216,
				"y": 3.4969699952,
				"z": -0.0969221062,
				"element": "C" 
			},
			{
				"x": 0.0183782107,
				"y": 3.8116631382,
				"z": 1.3994440494,
				"element": "C" 
			},
			{
				"x": 1.1169311836,
				"y": 3.1793357171,
				"z": 2.2114180323,
				"element": "C" 
			},
			{
				"x": 1.9586668922,
				"y": 2.2557860373,
				"z": 1.7377408581,
				"element": "C" 
			},
			{
				"x": 1.8994093229,
				"y": 1.7363540945,
				"z": 0.3183920063,
				"element": "C" 
			},
			{
				"x": 2.8896203529,
				"y": 2.4523667949,
				"z": -0.4790062713,
				"element": "O" 
			},
			{
				"x": 3.7880137453,
				"y": 1.5737325034,
				"z": -1.0340601738,
				"element": "C" 
			},
			{
				"x": 4.7002912017,
				"y": 1.943546606,
				"z": -1.7374339349,
				"element": "O" 
			},
			{
				"x": 3.4269306353,
				"y": 0.2083965498,
				"z": -0.6075321828,
				"element": "C" 
			},
			{
				"x": 4.1675845281,
				"y": -0.8960132178,
				"z": -0.9007773055,
				"element": "O" 
			},
			{
				"x": 4.48580252,
				"y": -1.0786881413,
				"z": -2.2917078719,
				"element": "C" 
			},
			{
				"x": 2.3470807385,
				"y": 0.2934550656,
				"z": 0.201168069,
				"element": "C" 
			},
			{
				"x": 1.6615832531,
				"y": -0.6078899513,
				"z": 0.9141002552,
				"element": "O" 
			},
			{
				"x": 1.9414036485,
				"y": -2.0003063597,
				"z": 0.7009410472,
				"element": "C" 
			},
			{
				"x": -5.6851784698,
				"y": -0.4950420324,
				"z": -2.2175950714,
				"element": "H" 
			},
			{
				"x": -4.7415239052,
				"y": -1.3012287133,
				"z": -3.5074090084,
				"element": "H" 
			},
			{
				"x": -5.8737669558,
				"y": -2.2502523406,
				"z": -2.4941524643,
				"element": "H" 
			},
			{
				"x": -3.9339403175,
				"y": -1.4555118603,
				"z": 2.4715541926,
				"element": "H" 
			},
			{
				"x": -3.948913882,
				"y": -2.3749263758,
				"z": 0.9332785287,
				"element": "H" 
			},
			{
				"x": -4.8595773638,
				"y": -0.8480289757,
				"z": 1.0678805053,
				"element": "H" 
			},
			{
				"x": -0.7022804486,
				"y": 0.9606593852,
				"z": 1.2204208892,
				"element": "H" 
			},
			{
				"x": 0.6439902589,
				"y": 1.8551728775,
				"z": -1.4184951757,
				"element": "H" 
			},
			{
				"x": 0.9489109855,
				"y": 4.1095007106,
				"z": -0.5308630952,
				"element": "H" 
			},
			{
				"x": -0.7751241529,
				"y": 3.7365079028,
				"z": -0.6263303052,
				"element": "H" 
			},
			{
				"x": 0.0285748614,
				"y": 4.8975928435,
				"z": 1.5567437583,
				"element": "H" 
			},
			{
				"x": -0.9547608346,
				"y": 3.4713100211,
				"z": 1.7840789463,
				"element": "H" 
			},
			{
				"x": 1.2214038393,
				"y": 3.505769996,
				"z": 3.2448830043,
				"element": "H" 
			},
			{
				"x": 2.7508219229,
				"y": 1.8549603722,
				"z": 2.3646380409,
				"element": "H" 
			},
			{
				"x": 5.0312112362,
				"y": -0.2172650808,
				"z": -2.6814257481,
				"element": "H" 
			},
			{
				"x": 3.5726445879,
				"y": -1.2381978384,
				"z": -2.8790200364,
				"element": "H" 
			},
			{
				"x": 5.1088001863,
				"y": -1.973313216,
				"z": -2.3381981255,
				"element": "H" 
			},
			{
				"x": 1.7101783394,
				"y": -2.2848773408,
				"z": -0.3299904752,
				"element": "H" 
			},
			{
				"x": 1.2875836955,
				"y": -2.5367095873,
				"z": 1.3892304785,
				"element": "H" 
			},
			{
				"x": 2.9883678288,
				"y": -2.2263255441,
				"z": 0.9119194072,
				"element": "H" 
			}
		],
		 "valence_orbital": [ 
			{
				"type": "occ",
				"energy": -0.26678,
				"method": "rhf"
			},
			{
				"type": "occ",
				"energy": -0.25599,
				"method": "rhf"
			},
			{
				"type": "occ",
				"energy": -0.25078,
				"method": "rhf"
			},
			{
				"type": "occ",
				"energy": -0.22665,
				"method": "rhf"
			},
			{
				"type": "occ",
				"energy": -0.21985,
				"method": "rhf"
			},
			{
				"type": "unocc",
				"energy": -0.05887,
				"method": "rhf"
			},
			{
				"type": "unocc",
				"energy": -0.01805,
				"method": "rhf"
			},
			{
				"type": "unocc",
				"energy": -0.0013,
				"method": "rhf"
			},
			{
				"type": "unocc",
				"energy": 0.05428,
				"method": "rhf"
			},
			{
				"type": "unocc",
				"energy": 0.0668,
				"method": "rhf"
			}
		],
		"cosmo_sigma_profile": { 
			"-0.025": 0.0,
			"-0.024": 0.0,
			"-0.023": 0.0,
			"-0.022": 0.0,
			"-0.021": 0.0,
			"-0.02": 0.0,
			"-0.019": 0.0,
			"-0.018": 0.0,
			"-0.017": 0.0,
			"-0.016": 0.0,
			"-0.015": 0.0,
			"-0.014": 0.0,
			"-0.013": 0.0,
			"-0.012": 0.0,
			"-0.011": 0.0,
			"-0.01": 0.0,
			"-0.009": 0.0,
			"-0.008": 0.0,
			"-0.007": 2.23665841425,
			"-0.006": 16.9050185557,
			"-0.005": 33.8240311387,
			"-0.004": 48.9850567832,
			"-0.003": 54.8177427115,
			"-0.002": 42.732054483,
			"-0.001": 33.1206077303,
			"0.0": 22.0947811802,
			"0.001": 19.2561929229,
			"0.002": 14.0640090081,
			"0.003": 16.6763184666,
			"0.004": 15.9663653713,
			"0.005": 11.3508336142,
			"0.006": 11.1841697865,
			"0.007": 8.60449014123,
			"0.008": 8.22052959378,
			"0.009": 8.17626817723,
			"0.01": 6.6741675442,
			"0.011": 8.63879959085,
			"0.012": 7.47291147332,
			"0.013": 2.36982142227,
			"0.014": 0.13162696462,
			"0.015": 0.0,
			"0.016": 0.0,
			"0.017": 0.0,
			"0.018": 0.0,
			"0.019": 0.0,
			"0.02": 0.0,
			"0.021": 0.0,
			"0.022": 0.0,
			"0.023": 0.0,
			"0.024": 0.0,
			"0.025": 0.0
		}
	}
}
