{
	 "smiles": "CC(C)(C)OC(=O)NCC1CCCCS1(=O)=O", 
	 "Tm": 371.15, 
	 "num_atms": 38, 
	 "gaussian": { 
		 "optdone": 1, 
		 "sigma_profile": "yes", 
		 "theory": "DFT", 
		 "functional": "B3LYP", 
		 "basiset": "6-31G**", 
		 "properties": { 
			 "R2extent": 5963.3658, 
			 "electric_dipole_moment_norm": 3.9321157778, 
			 "electric_quadrupole_moment_norm": 20.4547926998, 
			 "total_energy": -1185.64502609, 
			 "HOMO_LUMO_gap": 0.29394, 
			 "cosmo_polarized_energy": -21.17, 
			 "cosmo_cavitation_energy": 39.38, 
			 "cosmo_dispersion_energy": -26.92, 
			 "cosmo_repulsion_energy": 2.05, 
			 "cosmo_total_nonelectrostatic_energy": 14.5, 
			 "SMD_solvation_energy": 6.08 
		},
		"coords": [
			{
				"x": 3.9037266947,
				"y": 2.409336459,
				"z": -0.6529147148,
				"element": "C" 
			},
			{
				"x": 2.6637841626,
				"y": 3.0950267774,
				"z": -1.2310995966,
				"element": "C" 
			},
			{
				"x": 2.5811512933,
				"y": 4.5537405422,
				"z": -0.7704459957,
				"element": "C" 
			},
			{
				"x": 2.6259545794,
				"y": 2.9634736299,
				"z": -2.7568757617,
				"element": "C" 
			},
			{
				"x": 1.5603291031,
				"y": 2.3181556042,
				"z": -0.6346598115,
				"element": "O" 
			},
			{
				"x": 0.2694700524,
				"y": 2.6334693144,
				"z": -0.8871667675,
				"element": "C" 
			},
			{
				"x": -0.1364478605,
				"y": 3.5128216816,
				"z": -1.6290544381,
				"element": "O" 
			},
			{
				"x": -0.5696983006,
				"y": 1.8048780579,
				"z": -0.1839807751,
				"element": "N" 
			},
			{
				"x": -0.168787523,
				"y": 0.7659388408,
				"z": 0.7519975026,
				"element": "C" 
			},
			{
				"x": 0.2480729237,
				"y": -0.5317628185,
				"z": 0.0276172596,
				"element": "C" 
			},
			{
				"x": -0.860870661,
				"y": -1.2203345139,
				"z": -0.7820354222,
				"element": "C" 
			},
			{
				"x": -2.0741978448,
				"y": -1.6947535757,
				"z": 0.0486740557,
				"element": "C" 
			},
			{
				"x": -1.6922474982,
				"y": -2.3384943583,
				"z": 1.4039612253,
				"element": "C" 
			},
			{
				"x": -0.317211426,
				"y": -3.0088832508,
				"z": 1.3737458089,
				"element": "C" 
			},
			{
				"x": 0.9971236269,
				"y": -1.7522738015,
				"z": 1.1986921209,
				"element": "S" 
			},
			{
				"x": 2.1485431049,
				"y": -2.3783572514,
				"z": 0.5258609456,
				"element": "O" 
			},
			{
				"x": 1.1625715551,
				"y": -1.1033761778,
				"z": 2.5146816902,
				"element": "O" 
			},
			{
				"x": 3.9374194158,
				"y": 1.3554643951,
				"z": -0.9440086794,
				"element": "H" 
			},
			{
				"x": 3.9030865373,
				"y": 2.4639865865,
				"z": 0.4394277975,
				"element": "H" 
			},
			{
				"x": 4.8087568987,
				"y": 2.8994335873,
				"z": -1.0239147945,
				"element": "H" 
			},
			{
				"x": 1.686217607,
				"y": 5.0380123024,
				"z": -1.1619429126,
				"element": "H" 
			},
			{
				"x": 3.462180794,
				"y": 5.099063496,
				"z": -1.1238846536,
				"element": "H" 
			},
			{
				"x": 2.5661006788,
				"y": 4.6066324044,
				"z": 0.3227695903,
				"element": "H" 
			},
			{
				"x": 3.5055057795,
				"y": 3.452178726,
				"z": -3.1882955856,
				"element": "H" 
			},
			{
				"x": 2.6487455649,
				"y": 1.9085095619,
				"z": -3.0485099278,
				"element": "H" 
			},
			{
				"x": 1.7278830884,
				"y": 3.4263632815,
				"z": -3.1664920443,
				"element": "H" 
			},
			{
				"x": -1.5470795096,
				"y": 1.9950012922,
				"z": -0.339999584,
				"element": "H" 
			},
			{
				"x": -1.0073545476,
				"y": 0.5849713209,
				"z": 1.4288474132,
				"element": "H" 
			},
			{
				"x": 0.6639600008,
				"y": 1.1175541517,
				"z": 1.3612188074,
				"element": "H" 
			},
			{
				"x": 1.0918721253,
				"y": -0.2958637601,
				"z": -0.6274170346,
				"element": "H" 
			},
			{
				"x": -0.4187003681,
				"y": -2.0706375259,
				"z": -1.313544238,
				"element": "H" 
			},
			{
				"x": -1.1915634111,
				"y": -0.5235502522,
				"z": -1.559694802,
				"element": "H" 
			},
			{
				"x": -2.757968913,
				"y": -0.8585345604,
				"z": 0.2330869222,
				"element": "H" 
			},
			{
				"x": -2.6368254715,
				"y": -2.4132455613,
				"z": -0.5575109627,
				"element": "H" 
			},
			{
				"x": -2.4440548342,
				"y": -3.0793564674,
				"z": 1.6952459816,
				"element": "H" 
			},
			{
				"x": -1.6859396337,
				"y": -1.5872489301,
				"z": 2.2017325895,
				"element": "H" 
			},
			{
				"x": -0.0765307522,
				"y": -3.5151325662,
				"z": 2.3122769098,
				"element": "H" 
			},
			{
				"x": -0.2024770314,
				"y": -3.7148066416,
				"z": 0.5476118818,
				"element": "H" 
			}
		],
		 "valence_orbital": [ 
			{
				"type": "occ",
				"energy": -0.29354,
				"method": "rhf"
			},
			{
				"type": "occ",
				"energy": -0.29071,
				"method": "rhf"
			},
			{
				"type": "occ",
				"energy": -0.27974,
				"method": "rhf"
			},
			{
				"type": "occ",
				"energy": -0.26562,
				"method": "rhf"
			},
			{
				"type": "occ",
				"energy": -0.25458,
				"method": "rhf"
			},
			{
				"type": "unocc",
				"energy": 0.03936,
				"method": "rhf"
			},
			{
				"type": "unocc",
				"energy": 0.05154,
				"method": "rhf"
			},
			{
				"type": "unocc",
				"energy": 0.06407,
				"method": "rhf"
			},
			{
				"type": "unocc",
				"energy": 0.06573,
				"method": "rhf"
			},
			{
				"type": "unocc",
				"energy": 0.06961,
				"method": "rhf"
			}
		],
		"cosmo_sigma_profile": { 
			"-0.025": 0.0,
			"-0.024": 0.0,
			"-0.023": 0.0,
			"-0.022": 0.0,
			"-0.021": 0.0,
			"-0.02": 0.0,
			"-0.019": 0.0,
			"-0.018": 0.0,
			"-0.017": 0.0,
			"-0.016": 0.0,
			"-0.015": 0.024479132326,
			"-0.014": 0.747877224472,
			"-0.013": 1.00614040693,
			"-0.012": 0.670173044697,
			"-0.011": 1.43685967816,
			"-0.01": 1.15755216531,
			"-0.009": 1.08725568397,
			"-0.008": 4.50344712987,
			"-0.007": 8.73759553533,
			"-0.006": 9.54166124063,
			"-0.005": 14.0951549474,
			"-0.004": 33.1253786851,
			"-0.003": 37.8010284114,
			"-0.002": 32.1862742308,
			"-0.001": 30.9273175331,
			"0.0": 31.7757309889,
			"0.001": 21.2466651507,
			"0.002": 8.39278216793,
			"0.003": 6.12034792654,
			"0.004": 5.51240247256,
			"0.005": 4.25093774471,
			"0.006": 3.80301227564,
			"0.007": 3.65103579515,
			"0.008": 3.83235357047,
			"0.009": 4.18321596227,
			"0.01": 4.08605850783,
			"0.011": 9.46473068021,
			"0.012": 12.2699754291,
			"0.013": 7.55302744992,
			"0.014": 2.18122634961,
			"0.015": 0.0220019920072,
			"0.016": 0.0,
			"0.017": 0.0,
			"0.018": 0.0,
			"0.019": 0.0,
			"0.02": 0.0,
			"0.021": 0.0,
			"0.022": 0.0,
			"0.023": 0.0,
			"0.024": 0.0,
			"0.025": 0.0
		}
	}
}
