{
	 "smiles": "CCCCCCCCCCCCl", 
	 "Tm": 256.15, 
	 "num_atms": 35, 
	 "gaussian": { 
		 "optdone": 1, 
		 "sigma_profile": "yes", 
		 "theory": "DFT", 
		 "functional": "B3LYP", 
		 "basiset": "6-31G**", 
		 "properties": { 
			 "R2extent": 7450.0036, 
			 "electric_dipole_moment_norm": 2.25655108739, 
			 "electric_quadrupole_moment_norm": 20.4184531096, 
			 "total_energy": -893.264937797, 
			 "HOMO_LUMO_gap": 0.31714, 
			 "cosmo_polarized_energy": -4.08, 
			 "cosmo_cavitation_energy": 37.0, 
			 "cosmo_dispersion_energy": -25.81, 
			 "cosmo_repulsion_energy": 2.15, 
			 "cosmo_total_nonelectrostatic_energy": 13.33, 
			 "SMD_solvation_energy": 4.76 
		},
		"coords": [
			{
				"x": 0.5104116232,
				"y": -2.1449467029,
				"z": 4.3005774708,
				"element": "C" 
			},
			{
				"x": 1.0800957608,
				"y": -1.1130010159,
				"z": 3.3220255893,
				"element": "C" 
			},
			{
				"x": 0.1423730064,
				"y": -0.8091250304,
				"z": 2.1461497591,
				"element": "C" 
			},
			{
				"x": 0.715100125,
				"y": 0.2233659707,
				"z": 1.1654440689,
				"element": "C" 
			},
			{
				"x": -0.2372577143,
				"y": 0.626912489,
				"z": 0.0258584156,
				"element": "C" 
			},
			{
				"x": -0.6515985811,
				"y": -0.5015502628,
				"z": -0.9372072342,
				"element": "C" 
			},
			{
				"x": 0.4993354128,
				"y": -1.19219202,
				"z": -1.6926390669,
				"element": "C" 
			},
			{
				"x": 1.3547540351,
				"y": -0.2826433896,
				"z": -2.5921345765,
				"element": "C" 
			},
			{
				"x": 0.5867560921,
				"y": 0.3699927592,
				"z": -3.7500150519,
				"element": "C" 
			},
			{
				"x": 1.4961369873,
				"y": 1.1893099769,
				"z": -4.6729321628,
				"element": "C" 
			},
			{
				"x": 0.7791581362,
				"y": 1.8933878712,
				"z": -5.8175110034,
				"element": "C" 
			},
			{
				"x": 0.060518943,
				"y": 0.7249957896,
				"z": -7.0214302399,
				"element": "Cl" 
			},
			{
				"x": -0.436351166,
				"y": -1.8008762203,
				"z": 4.7326525974,
				"element": "H" 
			},
			{
				"x": 0.3154085871,
				"y": -3.1005080713,
				"z": 3.8002454623,
				"element": "H" 
			},
			{
				"x": 1.2017331835,
				"y": -2.3383537143,
				"z": 5.1274523108,
				"element": "H" 
			},
			{
				"x": 2.043369499,
				"y": -1.4705231905,
				"z": 2.932839436,
				"element": "H" 
			},
			{
				"x": 1.2993156761,
				"y": -0.1802403327,
				"z": 3.8595570942,
				"element": "H" 
			},
			{
				"x": -0.080771678,
				"y": -1.7460691843,
				"z": 1.6182148813,
				"element": "H" 
			},
			{
				"x": -0.8197739246,
				"y": -0.444704755,
				"z": 2.5351541011,
				"element": "H" 
			},
			{
				"x": 1.6575415757,
				"y": -0.1580151018,
				"z": 0.749245742,
				"element": "H" 
			},
			{
				"x": 0.9843901494,
				"y": 1.1292241261,
				"z": 1.725787457,
				"element": "H" 
			},
			{
				"x": 0.2266428657,
				"y": 1.4413125903,
				"z": -0.5459081306,
				"element": "H" 
			},
			{
				"x": -1.1486782819,
				"y": 1.0557094774,
				"z": 0.4645938797,
				"element": "H" 
			},
			{
				"x": -1.3682787073,
				"y": -0.0919350466,
				"z": -1.6602906379,
				"element": "H" 
			},
			{
				"x": -1.205707655,
				"y": -1.2685217994,
				"z": -0.3817704013,
				"element": "H" 
			},
			{
				"x": 1.1603133223,
				"y": -1.6900603246,
				"z": -0.9717844431,
				"element": "H" 
			},
			{
				"x": 0.0738742032,
				"y": -1.9954483966,
				"z": -2.3093237679,
				"element": "H" 
			},
			{
				"x": 2.1751821782,
				"y": -0.8829076068,
				"z": -3.0083996302,
				"element": "H" 
			},
			{
				"x": 1.8349719316,
				"y": 0.4984010781,
				"z": -1.9868916036,
				"element": "H" 
			},
			{
				"x": 0.0811198822,
				"y": -0.4062957815,
				"z": -4.3372470906,
				"element": "H" 
			},
			{
				"x": -0.2033475577,
				"y": 1.0242041051,
				"z": -3.3578635834,
				"element": "H" 
			},
			{
				"x": 2.2913173336,
				"y": 0.5545680696,
				"z": -5.0824401049,
				"element": "H" 
			},
			{
				"x": 1.9969146507,
				"y": 1.9764659168,
				"z": -4.0897094705,
				"element": "H" 
			},
			{
				"x": -0.0541208698,
				"y": 2.5029888527,
				"z": -5.4615381783,
				"element": "H" 
			},
			{
				"x": 1.4603509758,
				"y": 2.5226788746,
				"z": -6.3920618878,
				"element": "H" 
			}
		],
		 "valence_orbital": [ 
			{
				"type": "occ",
				"energy": -0.30947,
				"method": "rhf"
			},
			{
				"type": "occ",
				"energy": -0.30422,
				"method": "rhf"
			},
			{
				"type": "occ",
				"energy": -0.30207,
				"method": "rhf"
			},
			{
				"type": "occ",
				"energy": -0.2901,
				"method": "rhf"
			},
			{
				"type": "occ",
				"energy": -0.28758,
				"method": "rhf"
			},
			{
				"type": "unocc",
				"energy": 0.02956,
				"method": "rhf"
			},
			{
				"type": "unocc",
				"energy": 0.07233,
				"method": "rhf"
			},
			{
				"type": "unocc",
				"energy": 0.08905,
				"method": "rhf"
			},
			{
				"type": "unocc",
				"energy": 0.10175,
				"method": "rhf"
			},
			{
				"type": "unocc",
				"energy": 0.10768,
				"method": "rhf"
			}
		],
		"cosmo_sigma_profile": { 
			"-0.025": 0.0,
			"-0.024": 0.0,
			"-0.023": 0.0,
			"-0.022": 0.0,
			"-0.021": 0.0,
			"-0.02": 0.0,
			"-0.019": 0.0,
			"-0.018": 0.0,
			"-0.017": 0.0,
			"-0.016": 0.0,
			"-0.015": 0.0,
			"-0.014": 0.0,
			"-0.013": 0.0,
			"-0.012": 0.0,
			"-0.011": 0.0,
			"-0.01": 0.0,
			"-0.009": 0.0,
			"-0.008": 0.0,
			"-0.007": 0.78445176331,
			"-0.006": 4.6131575788,
			"-0.005": 5.35746898867,
			"-0.004": 9.40503559824,
			"-0.003": 13.0410555903,
			"-0.002": 34.3505062213,
			"-0.001": 58.426424061,
			"0.0": 57.0750983392,
			"0.001": 47.9088586249,
			"0.002": 23.6423611103,
			"0.003": 5.2153834369,
			"0.004": 5.1457493731,
			"0.005": 5.09136689201,
			"0.006": 6.29151390253,
			"0.007": 9.19126313852,
			"0.008": 0.611275150964,
			"0.009": 0.0,
			"0.01": 0.0,
			"0.011": 0.0,
			"0.012": 0.0,
			"0.013": 0.0,
			"0.014": 0.0,
			"0.015": 0.0,
			"0.016": 0.0,
			"0.017": 0.0,
			"0.018": 0.0,
			"0.019": 0.0,
			"0.02": 0.0,
			"0.021": 0.0,
			"0.022": 0.0,
			"0.023": 0.0,
			"0.024": 0.0,
			"0.025": 0.0
		}
	}
}
