{
	 "smiles": "FC1=C(F)C=C2N=C(S)NC2=C1", 
	 "Tm": 565.15, 
	 "num_atms": 16, 
	 "gaussian": { 
		 "optdone": 1, 
		 "sigma_profile": "yes", 
		 "theory": "DFT", 
		 "functional": "B3LYP", 
		 "basiset": "6-31G**", 
		 "properties": { 
			 "R2extent": 3114.891, 
			 "electric_dipole_moment_norm": 3.59559324869, 
			 "electric_quadrupole_moment_norm": 10.5124684195, 
			 "total_energy": -976.508721357, 
			 "HOMO_LUMO_gap": 0.19236, 
			 "cosmo_polarized_energy": -12.42, 
			 "cosmo_cavitation_energy": 23.7, 
			 "cosmo_dispersion_energy": -18.14, 
			 "cosmo_repulsion_energy": 1.34, 
			 "cosmo_total_nonelectrostatic_energy": 6.91, 
			 "SMD_solvation_energy": 2.4 
		},
		"coords": [
			{
				"x": -4.288704526,
				"y": 1.5234745278,
				"z": -0.0835631661,
				"element": "F" 
			},
			{
				"x": -3.0187666212,
				"y": 1.1661903216,
				"z": 0.1822540142,
				"element": "C" 
			},
			{
				"x": -2.7656550119,
				"y": 0.4348802348,
				"z": 1.3569216388,
				"element": "C" 
			},
			{
				"x": -3.8133672204,
				"y": 0.1348189947,
				"z": 2.1483093612,
				"element": "F" 
			},
			{
				"x": -1.4887324544,
				"y": 0.028746567,
				"z": 1.7040095133,
				"element": "C" 
			},
			{
				"x": -0.4448848291,
				"y": 0.3745953309,
				"z": 0.8358662308,
				"element": "C" 
			},
			{
				"x": 0.9135413362,
				"y": 0.1014313056,
				"z": 0.935129526,
				"element": "N" 
			},
			{
				"x": 1.4381904419,
				"y": 0.6464039658,
				"z": -0.1320111039,
				"element": "C" 
			},
			{
				"x": 3.150669846,
				"y": 0.6332209204,
				"z": -0.5696728569,
				"element": "S" 
			},
			{
				"x": 0.5181607884,
				"y": 1.2716230554,
				"z": -0.9473876161,
				"element": "N" 
			},
			{
				"x": -0.7191283294,
				"y": 1.1106400625,
				"z": -0.341305548,
				"element": "C" 
			},
			{
				"x": -2.0045197294,
				"y": 1.5218296372,
				"z": -0.6946653239,
				"element": "C" 
			},
			{
				"x": -1.3172107987,
				"y": -0.5338327997,
				"z": 2.6139679174,
				"element": "H" 
			},
			{
				"x": 3.503961388,
				"y": -0.0653027513,
				"z": 0.5246241854,
				"element": "H" 
			},
			{
				"x": 0.7107065543,
				"y": 1.7507415904,
				"z": -1.8131863685,
				"element": "H" 
			},
			{
				"x": -2.2358608342,
				"y": 2.085839037,
				"z": -1.5909904036,
				"element": "H" 
			}
		],
		 "valence_orbital": [ 
			{
				"type": "occ",
				"energy": -0.32408,
				"method": "rhf"
			},
			{
				"type": "occ",
				"energy": -0.2898,
				"method": "rhf"
			},
			{
				"type": "occ",
				"energy": -0.28695,
				"method": "rhf"
			},
			{
				"type": "occ",
				"energy": -0.24042,
				"method": "rhf"
			},
			{
				"type": "occ",
				"energy": -0.2191,
				"method": "rhf"
			},
			{
				"type": "unocc",
				"energy": -0.02674,
				"method": "rhf"
			},
			{
				"type": "unocc",
				"energy": -0.00632,
				"method": "rhf"
			},
			{
				"type": "unocc",
				"energy": 0.01437,
				"method": "rhf"
			},
			{
				"type": "unocc",
				"energy": 0.04197,
				"method": "rhf"
			},
			{
				"type": "unocc",
				"energy": 0.05548,
				"method": "rhf"
			}
		],
		"cosmo_sigma_profile": { 
			"-0.025": 0.0,
			"-0.024": 0.0,
			"-0.023": 0.0,
			"-0.022": 0.0,
			"-0.021": 0.0,
			"-0.02": 0.0,
			"-0.019": 0.0,
			"-0.018": 0.144335567863,
			"-0.017": 1.56745880358,
			"-0.016": 1.87274513642,
			"-0.015": 1.05473968849,
			"-0.014": 1.4274002344,
			"-0.013": 1.5864263199,
			"-0.012": 2.4570124457,
			"-0.011": 2.69796752043,
			"-0.01": 2.21588732534,
			"-0.009": 3.38214854693,
			"-0.008": 5.6166022151,
			"-0.007": 4.31059032026,
			"-0.006": 5.06532060065,
			"-0.005": 5.2663874254,
			"-0.004": 4.68523094451,
			"-0.003": 5.03504943888,
			"-0.002": 5.95339506496,
			"-0.001": 9.16670779792,
			"0.0": 17.8437066762,
			"0.001": 22.4746661986,
			"0.002": 22.0757211838,
			"0.003": 19.044854186,
			"0.004": 25.1131719633,
			"0.005": 8.81745532213,
			"0.006": 3.85821974159,
			"0.007": 2.96400882716,
			"0.008": 0.990555937332,
			"0.009": 1.21031208173,
			"0.01": 1.12330616264,
			"0.011": 1.00174533737,
			"0.012": 0.980122738788,
			"0.013": 0.535943691485,
			"0.014": 1.17058455634,
			"0.015": 1.01295674626,
			"0.016": 0.373888963375,
			"0.017": 0.0,
			"0.018": 0.0,
			"0.019": 0.0,
			"0.02": 0.0,
			"0.021": 0.0,
			"0.022": 0.0,
			"0.023": 0.0,
			"0.024": 0.0,
			"0.025": 0.0
		}
	}
}
