{
	 "smiles": "NC1=CC=C(C=C1)S(=O)C(F)F", 
	 "Tm": 357.15, 
	 "num_atms": 19, 
	 "gaussian": { 
		 "optdone": 1, 
		 "sigma_profile": "yes", 
		 "theory": "DFT", 
		 "functional": "B3LYP", 
		 "basiset": "6-31G**", 
		 "properties": { 
			 "R2extent": 3566.6597, 
			 "electric_dipole_moment_norm": 4.55455879861, 
			 "electric_quadrupole_moment_norm": 9.5986121976, 
			 "total_energy": -998.736260078, 
			 "HOMO_LUMO_gap": 0.19512, 
			 "cosmo_polarized_energy": -15.63, 
			 "cosmo_cavitation_energy": 25.52, 
			 "cosmo_dispersion_energy": -18.82, 
			 "cosmo_repulsion_energy": 1.43, 
			 "cosmo_total_nonelectrostatic_energy": 8.14, 
			 "SMD_solvation_energy": 4.63 
		},
		"coords": [
			{
				"x": -0.3751940143,
				"y": -0.9424812352,
				"z": 3.4325597433,
				"element": "N" 
			},
			{
				"x": -0.2754921976,
				"y": -0.0759319653,
				"z": 2.3530525774,
				"element": "C" 
			},
			{
				"x": -0.3979797189,
				"y": -0.5569210109,
				"z": 1.0342745149,
				"element": "C" 
			},
			{
				"x": -0.247519509,
				"y": 0.3006443202,
				"z": -0.0477100198,
				"element": "C" 
			},
			{
				"x": 0.0306611409,
				"y": 1.6498618087,
				"z": 0.172903961,
				"element": "C" 
			},
			{
				"x": 0.1721394563,
				"y": 2.1447465233,
				"z": 1.4716425611,
				"element": "C" 
			},
			{
				"x": 0.0121533512,
				"y": 1.2885939403,
				"z": 2.554775645,
				"element": "C" 
			},
			{
				"x": 0.2674553529,
				"y": 2.7299832906,
				"z": -1.2524249952,
				"element": "S" 
			},
			{
				"x": 0.3319729333,
				"y": 1.8693771984,
				"z": -2.4946822493,
				"element": "O" 
			},
			{
				"x": -1.4697555077,
				"y": 3.4585919464,
				"z": -1.2429853129,
				"element": "C" 
			},
			{
				"x": -2.4075087636,
				"y": 2.4924119927,
				"z": -1.1801995804,
				"element": "F" 
			},
			{
				"x": -1.5729427761,
				"y": 4.2546340368,
				"z": -0.1476895526,
				"element": "F" 
			},
			{
				"x": -0.8726556347,
				"y": -1.8055893455,
				"z": 3.2676401007,
				"element": "H" 
			},
			{
				"x": -0.5973698588,
				"y": -0.5237814147,
				"z": 4.3240913864,
				"element": "H" 
			},
			{
				"x": -0.6079882642,
				"y": -1.610403716,
				"z": 0.8672968083,
				"element": "H" 
			},
			{
				"x": -0.3295247607,
				"y": -0.0576038179,
				"z": -1.0694412365,
				"element": "H" 
			},
			{
				"x": 0.3980665896,
				"y": 3.1935009343,
				"z": 1.6417516067,
				"element": "H" 
			},
			{
				"x": 0.1211753891,
				"y": 1.669000229,
				"z": 3.5670776672,
				"element": "H" 
			},
			{
				"x": -1.6044932076,
				"y": 4.0462662848,
				"z": -2.1583336254,
				"element": "H" 
			}
		],
		 "valence_orbital": [ 
			{
				"type": "occ",
				"energy": -0.32326,
				"method": "rhf"
			},
			{
				"type": "occ",
				"energy": -0.26878,
				"method": "rhf"
			},
			{
				"type": "occ",
				"energy": -0.2608,
				"method": "rhf"
			},
			{
				"type": "occ",
				"energy": -0.23843,
				"method": "rhf"
			},
			{
				"type": "occ",
				"energy": -0.21256,
				"method": "rhf"
			},
			{
				"type": "unocc",
				"energy": -0.01744,
				"method": "rhf"
			},
			{
				"type": "unocc",
				"energy": -0.01094,
				"method": "rhf"
			},
			{
				"type": "unocc",
				"energy": 0.03063,
				"method": "rhf"
			},
			{
				"type": "unocc",
				"energy": 0.04009,
				"method": "rhf"
			},
			{
				"type": "unocc",
				"energy": 0.06795,
				"method": "rhf"
			}
		],
		"cosmo_sigma_profile": { 
			"-0.025": 0.0,
			"-0.024": 0.0,
			"-0.023": 0.0,
			"-0.022": 0.0,
			"-0.021": 0.0,
			"-0.02": 0.0,
			"-0.019": 0.0,
			"-0.018": 0.0,
			"-0.017": 0.0,
			"-0.016": 0.0,
			"-0.015": 0.0,
			"-0.014": 0.00553108435372,
			"-0.013": 1.77963112525,
			"-0.012": 3.98088729373,
			"-0.011": 5.02115561837,
			"-0.01": 6.90090971104,
			"-0.009": 4.36543821669,
			"-0.008": 4.92391674651,
			"-0.007": 6.42600921222,
			"-0.006": 8.32969189217,
			"-0.005": 9.94263203383,
			"-0.004": 9.24180062018,
			"-0.003": 9.60776401959,
			"-0.002": 9.63910284197,
			"-0.001": 9.48717889385,
			"0.0": 8.93655897129,
			"0.001": 11.804202097,
			"0.002": 14.4910290133,
			"0.003": 26.0898800034,
			"0.004": 17.9336649314,
			"0.005": 11.7901270201,
			"0.006": 2.1536100758,
			"0.007": 1.93286438553,
			"0.008": 1.84358224674,
			"0.009": 2.08347662105,
			"0.01": 2.09769662543,
			"0.011": 1.34758850152,
			"0.012": 3.00287370199,
			"0.013": 4.88017921575,
			"0.014": 3.41476013311,
			"0.015": 1.18763096184,
			"0.016": 0.0,
			"0.017": 0.0,
			"0.018": 0.0,
			"0.019": 0.0,
			"0.02": 0.0,
			"0.021": 0.0,
			"0.022": 0.0,
			"0.023": 0.0,
			"0.024": 0.0,
			"0.025": 0.0
		}
	}
}
