{
	 "smiles": "NNC(=O)C1=CNC2=C1C=CC=C2", 
	 "Tm": 503.15, 
	 "num_atms": 22, 
	 "gaussian": { 
		 "optdone": 1, 
		 "sigma_profile": "yes", 
		 "theory": "DFT", 
		 "functional": "B3LYP", 
		 "basiset": "6-31G**", 
		 "properties": { 
			 "R2extent": 2603.1006, 
			 "electric_dipole_moment_norm": 4.61876205276, 
			 "electric_quadrupole_moment_norm": 14.512410768, 
			 "total_energy": -587.840623504, 
			 "HOMO_LUMO_gap": 0.18749, 
			 "cosmo_polarized_energy": -17.93, 
			 "cosmo_cavitation_energy": 25.88, 
			 "cosmo_dispersion_energy": -19.14, 
			 "cosmo_repulsion_energy": 1.52, 
			 "cosmo_total_nonelectrostatic_energy": 8.25, 
			 "SMD_solvation_energy": 5.35 
		},
		"coords": [
			{
				"x": -2.404565484,
				"y": 1.1879955635,
				"z": -2.1541363836,
				"element": "N" 
			},
			{
				"x": -1.056042978,
				"y": 1.5975683382,
				"z": -2.2979518282,
				"element": "N" 
			},
			{
				"x": -0.2563024927,
				"y": 2.0208647889,
				"z": -1.2440110591,
				"element": "C" 
			},
			{
				"x": 0.5946517027,
				"y": 2.8881755551,
				"z": -1.4185045721,
				"element": "O" 
			},
			{
				"x": -0.4748896874,
				"y": 1.3729752383,
				"z": 0.0700250401,
				"element": "C" 
			},
			{
				"x": -0.3029984796,
				"y": 2.0514086624,
				"z": 1.2568214748,
				"element": "C" 
			},
			{
				"x": -0.5353647355,
				"y": 1.2095173432,
				"z": 2.3136609888,
				"element": "N" 
			},
			{
				"x": -0.8328940106,
				"y": -0.0571262261,
				"z": 1.8386329384,
				"element": "C" 
			},
			{
				"x": -0.7966866308,
				"y": 0.0054976637,
				"z": 0.4187825622,
				"element": "C" 
			},
			{
				"x": -0.9990599928,
				"y": -1.1809965958,
				"z": -0.3099665845,
				"element": "C" 
			},
			{
				"x": -1.2707934334,
				"y": -2.358681568,
				"z": 0.3761519429,
				"element": "C" 
			},
			{
				"x": -1.3343587209,
				"y": -2.3862870012,
				"z": 1.7836791136,
				"element": "C" 
			},
			{
				"x": -1.1076736085,
				"y": -1.2381250668,
				"z": 2.534229849,
				"element": "C" 
			},
			{
				"x": -2.8418535093,
				"y": 1.6977511161,
				"z": -1.388686337,
				"element": "H" 
			},
			{
				"x": -2.4325110872,
				"y": 0.20173627,
				"z": -1.9130806884,
				"element": "H" 
			},
			{
				"x": -0.9034825545,
				"y": 2.1518154729,
				"z": -3.1330585982,
				"element": "H" 
			},
			{
				"x": -0.0357822479,
				"y": 3.0874065362,
				"z": 1.4053394431,
				"element": "H" 
			},
			{
				"x": -0.4816335766,
				"y": 1.4697859941,
				"z": 3.2853445622,
				"element": "H" 
			},
			{
				"x": -0.9032514989,
				"y": -1.1846540797,
				"z": -1.3921262075,
				"element": "H" 
			},
			{
				"x": -1.4263601272,
				"y": -3.2781093354,
				"z": -0.1803221373,
				"element": "H" 
			},
			{
				"x": -1.5495685116,
				"y": -3.3217556501,
				"z": 2.29107755,
				"element": "H" 
			},
			{
				"x": -1.1339783355,
				"y": -1.2612630193,
				"z": 3.6199989308,
				"element": "H" 
			}
		],
		 "valence_orbital": [ 
			{
				"type": "occ",
				"energy": -0.27985,
				"method": "rhf"
			},
			{
				"type": "occ",
				"energy": -0.24864,
				"method": "rhf"
			},
			{
				"type": "occ",
				"energy": -0.24031,
				"method": "rhf"
			},
			{
				"type": "occ",
				"energy": -0.23457,
				"method": "rhf"
			},
			{
				"type": "occ",
				"energy": -0.21496,
				"method": "rhf"
			},
			{
				"type": "unocc",
				"energy": -0.02747,
				"method": "rhf"
			},
			{
				"type": "unocc",
				"energy": 0.00167,
				"method": "rhf"
			},
			{
				"type": "unocc",
				"energy": 0.01581,
				"method": "rhf"
			},
			{
				"type": "unocc",
				"energy": 0.06845,
				"method": "rhf"
			},
			{
				"type": "unocc",
				"energy": 0.08677,
				"method": "rhf"
			}
		],
		"cosmo_sigma_profile": { 
			"-0.025": 0.0,
			"-0.024": 0.0,
			"-0.023": 0.0,
			"-0.022": 0.0,
			"-0.021": 0.0,
			"-0.02": 0.0,
			"-0.019": 0.0,
			"-0.018": 0.0,
			"-0.017": 0.289025189426,
			"-0.016": 1.60228977974,
			"-0.015": 1.71105049335,
			"-0.014": 0.797018174743,
			"-0.013": 1.73563156581,
			"-0.012": 1.98913357602,
			"-0.011": 3.08122999068,
			"-0.01": 4.65282058159,
			"-0.009": 4.47603975722,
			"-0.008": 7.40590881195,
			"-0.007": 7.74279547146,
			"-0.006": 7.36883686876,
			"-0.005": 11.0350934536,
			"-0.004": 12.1202850207,
			"-0.003": 11.2771017933,
			"-0.002": 10.3877126147,
			"-0.001": 11.0488633204,
			"0.0": 9.50257818727,
			"0.001": 10.2672709214,
			"0.002": 11.813136053,
			"0.003": 14.4503923284,
			"0.004": 11.8569337378,
			"0.005": 12.0819696369,
			"0.006": 10.3274430305,
			"0.007": 3.81021102598,
			"0.008": 2.30180594902,
			"0.009": 1.28530209952,
			"0.01": 2.03875230005,
			"0.011": 2.78370947738,
			"0.012": 2.17953605004,
			"0.013": 5.12240807457,
			"0.014": 5.41909890087,
			"0.015": 1.52575853841,
			"0.016": 0.588296819952,
			"0.017": 0.16344416641,
			"0.018": 0.0,
			"0.019": 0.0,
			"0.02": 0.0,
			"0.021": 0.0,
			"0.022": 0.0,
			"0.023": 0.0,
			"0.024": 0.0,
			"0.025": 0.0
		}
	}
}
