{
	 "smiles": "COC1=C(OC)C=C2C(CC#N)NCCC2=C1", 
	 "Tm": 385.15, 
	 "num_atms": 33, 
	 "gaussian": { 
		 "optdone": 1, 
		 "sigma_profile": "yes", 
		 "theory": "DFT", 
		 "functional": "B3LYP", 
		 "basiset": "6-31G**", 
		 "properties": { 
			 "R2extent": 5324.1517, 
			 "electric_dipole_moment_norm": 4.15575575076, 
			 "electric_quadrupole_moment_norm": 23.3369774446, 
			 "total_energy": -764.928243977, 
			 "HOMO_LUMO_gap": 0.21566, 
			 "cosmo_polarized_energy": -13.25, 
			 "cosmo_cavitation_energy": 35.65, 
			 "cosmo_dispersion_energy": -24.98, 
			 "cosmo_repulsion_energy": 1.96, 
			 "cosmo_total_nonelectrostatic_energy": 12.62, 
			 "SMD_solvation_energy": 6.59 
		},
		"coords": [
			{
				"x": -1.1859635977,
				"y": -4.1981983069,
				"z": -0.2935634905,
				"element": "C" 
			},
			{
				"x": -0.2508691537,
				"y": -3.3410735772,
				"z": 0.3733597087,
				"element": "O" 
			},
			{
				"x": -0.2353383168,
				"y": -2.0404900703,
				"z": -0.0781197025,
				"element": "C" 
			},
			{
				"x": 0.2511589747,
				"y": -1.7049625808,
				"z": -1.356233033,
				"element": "C" 
			},
			{
				"x": 0.6892910294,
				"y": -2.6644375826,
				"z": -2.242460735,
				"element": "O" 
			},
			{
				"x": 1.9076165032,
				"y": -3.3187040645,
				"z": -1.865971955,
				"element": "C" 
			},
			{
				"x": 0.2571304785,
				"y": -0.3707734499,
				"z": -1.7517727904,
				"element": "C" 
			},
			{
				"x": -0.205481462,
				"y": 0.6516001931,
				"z": -0.9110834526,
				"element": "C" 
			},
			{
				"x": -0.1648321808,
				"y": 2.1003082953,
				"z": -1.3907422301,
				"element": "C" 
			},
			{
				"x": -0.8784177984,
				"y": 2.2526742999,
				"z": -2.7626544467,
				"element": "C" 
			},
			{
				"x": -0.8118034616,
				"y": 3.6302640238,
				"z": -3.2575774418,
				"element": "C" 
			},
			{
				"x": -0.7382247671,
				"y": 4.731749469,
				"z": -3.6177232648,
				"element": "N" 
			},
			{
				"x": -0.8286352104,
				"y": 2.9940125094,
				"z": -0.4454745462,
				"element": "N" 
			},
			{
				"x": -0.4770991781,
				"y": 2.7504188478,
				"z": 0.9508604673,
				"element": "C" 
			},
			{
				"x": -1.0709322039,
				"y": 1.4022386661,
				"z": 1.3544532232,
				"element": "C" 
			},
			{
				"x": -0.6404910161,
				"y": 0.3220772913,
				"z": 0.3840568379,
				"element": "C" 
			},
			{
				"x": -0.655653373,
				"y": -1.0234668156,
				"z": 0.7736544758,
				"element": "C" 
			},
			{
				"x": -1.0763307476,
				"y": -5.1836765665,
				"z": 0.1635505722,
				"element": "H" 
			},
			{
				"x": -2.2127755345,
				"y": -3.8418647265,
				"z": -0.1432869605,
				"element": "H" 
			},
			{
				"x": -0.9758617833,
				"y": -4.2613346087,
				"z": -1.365660325,
				"element": "H" 
			},
			{
				"x": 1.8048214415,
				"y": -3.8314173541,
				"z": -0.9047042001,
				"element": "H" 
			},
			{
				"x": 2.1194861272,
				"y": -4.0458315485,
				"z": -2.6524719207,
				"element": "H" 
			},
			{
				"x": 2.732587584,
				"y": -2.5975057775,
				"z": -1.808113507,
				"element": "H" 
			},
			{
				"x": 0.6479152216,
				"y": -0.1537861488,
				"z": -2.7417554228,
				"element": "H" 
			},
			{
				"x": 0.8983707187,
				"y": 2.3700773128,
				"z": -1.5427953785,
				"element": "H" 
			},
			{
				"x": -0.4306524694,
				"y": 1.5959994724,
				"z": -3.514102659,
				"element": "H" 
			},
			{
				"x": -1.9286214925,
				"y": 1.9676427009,
				"z": -2.6444321271,
				"element": "H" 
			},
			{
				"x": -0.6389872209,
				"y": 3.9577854061,
				"z": -0.7046311878,
				"element": "H" 
			},
			{
				"x": 0.6142579755,
				"y": 2.7446437744,
				"z": 1.1307744557,
				"element": "H" 
			},
			{
				"x": -0.903427234,
				"y": 3.5545524022,
				"z": 1.5585461734,
				"element": "H" 
			},
			{
				"x": -0.7629655145,
				"y": 1.1339521402,
				"z": 2.3716091156,
				"element": "H" 
			},
			{
				"x": -2.1650988059,
				"y": 1.4894581255,
				"z": 1.3593022033,
				"element": "H" 
			},
			{
				"x": -0.996473532,
				"y": -1.3026317519,
				"z": 1.766963544,
				"element": "H" 
			}
		],
		 "valence_orbital": [ 
			{
				"type": "occ",
				"energy": -0.29748,
				"method": "rhf"
			},
			{
				"type": "occ",
				"energy": -0.26925,
				"method": "rhf"
			},
			{
				"type": "occ",
				"energy": -0.2484,
				"method": "rhf"
			},
			{
				"type": "occ",
				"energy": -0.23196,
				"method": "rhf"
			},
			{
				"type": "occ",
				"energy": -0.22773,
				"method": "rhf"
			},
			{
				"type": "unocc",
				"energy": -0.01207,
				"method": "rhf"
			},
			{
				"type": "unocc",
				"energy": -0.00326,
				"method": "rhf"
			},
			{
				"type": "unocc",
				"energy": 0.03382,
				"method": "rhf"
			},
			{
				"type": "unocc",
				"energy": 0.04126,
				"method": "rhf"
			},
			{
				"type": "unocc",
				"energy": 0.08039,
				"method": "rhf"
			}
		],
		"cosmo_sigma_profile": { 
			"-0.025": 0.0,
			"-0.024": 0.0,
			"-0.023": 0.0,
			"-0.022": 0.0,
			"-0.021": 0.0,
			"-0.02": 0.0,
			"-0.019": 0.0,
			"-0.018": 0.0,
			"-0.017": 0.0,
			"-0.016": 0.0,
			"-0.015": 0.0,
			"-0.014": 0.0,
			"-0.013": 0.0,
			"-0.012": 0.0,
			"-0.011": 0.0765446163548,
			"-0.01": 0.757753263216,
			"-0.009": 3.02482435145,
			"-0.008": 5.19432811579,
			"-0.007": 6.12503757004,
			"-0.006": 8.78668093597,
			"-0.005": 18.2375805228,
			"-0.004": 25.9818437181,
			"-0.003": 32.7031770334,
			"-0.002": 34.4488778631,
			"-0.001": 25.8503620055,
			"0.0": 18.6336613121,
			"0.001": 11.9790694437,
			"0.002": 13.0944813412,
			"0.003": 12.3882775639,
			"0.004": 14.1600750626,
			"0.005": 8.53575871233,
			"0.006": 6.29684338384,
			"0.007": 4.99014487584,
			"0.008": 5.65342706886,
			"0.009": 5.62013434966,
			"0.01": 5.28211002978,
			"0.011": 5.48896502599,
			"0.012": 4.69783916191,
			"0.013": 2.50541912432,
			"0.014": 0.50537322232,
			"0.015": 0.422434371041,
			"0.016": 0.0,
			"0.017": 0.0,
			"0.018": 0.0,
			"0.019": 0.0,
			"0.02": 0.0,
			"0.021": 0.0,
			"0.022": 0.0,
			"0.023": 0.0,
			"0.024": 0.0,
			"0.025": 0.0
		}
	}
}
