{
	 "smiles": "OC1=CC2=C(C=C1)C=CC(N2)=C1C(=O)C2=C(C=CC=C2)C1=O", 
	 "Tm": 539.15, 
	 "num_atms": 33, 
	 "gaussian": { 
		 "optdone": 1, 
		 "sigma_profile": "yes", 
		 "theory": "DFT", 
		 "functional": "B3LYP", 
		 "basiset": "6-31G**", 
		 "properties": { 
			 "R2extent": 9023.5967, 
			 "electric_dipole_moment_norm": 3.38353800333, 
			 "electric_quadrupole_moment_norm": 15.2460875696, 
			 "total_energy": -973.002418166, 
			 "HOMO_LUMO_gap": 0.12778, 
			 "cosmo_polarized_energy": -18.57, 
			 "cosmo_cavitation_energy": 37.96, 
			 "cosmo_dispersion_energy": -28.02, 
			 "cosmo_repulsion_energy": 2.04, 
			 "cosmo_total_nonelectrostatic_energy": 11.98, 
			 "SMD_solvation_energy": 6.81 
		},
		"coords": [
			{
				"x": -5.977466577,
				"y": 2.2731293366,
				"z": -1.8505811087,
				"element": "O" 
			},
			{
				"x": -4.7950685695,
				"y": 1.6428830091,
				"z": -2.0758954352,
				"element": "C" 
			},
			{
				"x": -3.7085078762,
				"y": 1.7546156865,
				"z": -1.2162272815,
				"element": "C" 
			},
			{
				"x": -2.5192381506,
				"y": 1.0707615783,
				"z": -1.5199206216,
				"element": "C" 
			},
			{
				"x": -2.4180623085,
				"y": 0.2716319682,
				"z": -2.6895975484,
				"element": "C" 
			},
			{
				"x": -3.5450287573,
				"y": 0.1846413278,
				"z": -3.5366749499,
				"element": "C" 
			},
			{
				"x": -4.7155800508,
				"y": 0.8531236306,
				"z": -3.244966934,
				"element": "C" 
			},
			{
				"x": -1.1772770981,
				"y": -0.3967838035,
				"z": -2.9367540298,
				"element": "C" 
			},
			{
				"x": -0.117051448,
				"y": -0.2795389951,
				"z": -2.0853860553,
				"element": "C" 
			},
			{
				"x": -0.2318926417,
				"y": 0.5303173183,
				"z": -0.9081634774,
				"element": "C" 
			},
			{
				"x": -1.4279267328,
				"y": 1.1605567237,
				"z": -0.6913060212,
				"element": "N" 
			},
			{
				"x": 0.7893131562,
				"y": 0.7223367501,
				"z": 0.0331135134,
				"element": "C" 
			},
			{
				"x": 0.6383692886,
				"y": 1.5502414519,
				"z": 1.2143647376,
				"element": "C" 
			},
			{
				"x": -0.3697612021,
				"y": 2.1907657589,
				"z": 1.5655831526,
				"element": "O" 
			},
			{
				"x": 1.9383364358,
				"y": 1.4972396053,
				"z": 1.9529767242,
				"element": "C" 
			},
			{
				"x": 2.8238012184,
				"y": 0.6742513038,
				"z": 1.2429939315,
				"element": "C" 
			},
			{
				"x": 4.112803328,
				"y": 0.4436876518,
				"z": 1.7010209275,
				"element": "C" 
			},
			{
				"x": 4.5040479789,
				"y": 1.0600149165,
				"z": 2.8981173398,
				"element": "C" 
			},
			{
				"x": 3.6192381776,
				"y": 1.8820320885,
				"z": 3.6069771338,
				"element": "C" 
			},
			{
				"x": 2.3179685442,
				"y": 2.1111370895,
				"z": 3.1389522041,
				"element": "C" 
			},
			{
				"x": 2.1384124616,
				"y": 0.1527862761,
				"z": 0.0064012551,
				"element": "C" 
			},
			{
				"x": 2.6521752137,
				"y": -0.5953815945,
				"z": -0.8229330247,
				"element": "O" 
			},
			{
				"x": -5.924972143,
				"y": 2.7824155304,
				"z": -1.0307680491,
				"element": "H" 
			},
			{
				"x": -3.7682549,
				"y": 2.3619854671,
				"z": -0.3163849442,
				"element": "H" 
			},
			{
				"x": -3.4777830174,
				"y": -0.4241179976,
				"z": -4.4339686451,
				"element": "H" 
			},
			{
				"x": -5.5849575457,
				"y": 0.7916448695,
				"z": -3.8896724811,
				"element": "H" 
			},
			{
				"x": -1.0903878138,
				"y": -1.010814118,
				"z": -3.829603202,
				"element": "H" 
			},
			{
				"x": 0.8313106392,
				"y": -0.7750679813,
				"z": -2.2506552405,
				"element": "H" 
			},
			{
				"x": -1.4478972566,
				"y": 1.7276891149,
				"z": 0.1710468525,
				"element": "H" 
			},
			{
				"x": 4.7885358662,
				"y": -0.1958720591,
				"z": 1.1414495991,
				"element": "H" 
			},
			{
				"x": 5.5069930427,
				"y": 0.8994954366,
				"z": 3.2835765953,
				"element": "H" 
			},
			{
				"x": 3.9482426347,
				"y": 2.3472946433,
				"z": 4.5318639448,
				"element": "H" 
			},
			{
				"x": 1.6229661035,
				"y": 2.7462980157,
				"z": 3.6795211385,
				"element": "H" 
			}
		],
		 "valence_orbital": [ 
			{
				"type": "occ",
				"energy": -0.25657,
				"method": "rhf"
			},
			{
				"type": "occ",
				"energy": -0.25516,
				"method": "rhf"
			},
			{
				"type": "occ",
				"energy": -0.24598,
				"method": "rhf"
			},
			{
				"type": "occ",
				"energy": -0.23058,
				"method": "rhf"
			},
			{
				"type": "occ",
				"energy": -0.20192,
				"method": "rhf"
			},
			{
				"type": "unocc",
				"energy": -0.07414,
				"method": "rhf"
			},
			{
				"type": "unocc",
				"energy": -0.0586,
				"method": "rhf"
			},
			{
				"type": "unocc",
				"energy": -0.03137,
				"method": "rhf"
			},
			{
				"type": "unocc",
				"energy": -0.01167,
				"method": "rhf"
			},
			{
				"type": "unocc",
				"energy": 0.00755,
				"method": "rhf"
			}
		],
		"cosmo_sigma_profile": { 
			"-0.025": 0.0,
			"-0.024": 0.0,
			"-0.023": 0.0,
			"-0.022": 0.0,
			"-0.021": 0.0,
			"-0.02": 0.0,
			"-0.019": 0.558195552167,
			"-0.018": 1.03913282393,
			"-0.017": 0.74219680864,
			"-0.016": 1.49056304908,
			"-0.015": 1.30302240055,
			"-0.014": 0.500266749057,
			"-0.013": 0.636622731227,
			"-0.012": 0.778055384344,
			"-0.011": 2.56639004523,
			"-0.01": 2.17226990273,
			"-0.009": 2.91612807917,
			"-0.008": 5.56726715787,
			"-0.007": 10.342324255,
			"-0.006": 15.4151061064,
			"-0.005": 16.5439030129,
			"-0.004": 16.3933655018,
			"-0.003": 12.312358445,
			"-0.002": 15.6592208051,
			"-0.001": 21.6829038227,
			"0.0": 25.787003457,
			"0.001": 35.0770244681,
			"0.002": 37.1271036526,
			"0.003": 22.459221195,
			"0.004": 14.2511685465,
			"0.005": 5.3217728802,
			"0.006": 4.18380744329,
			"0.007": 4.31257021489,
			"0.008": 4.30247933945,
			"0.009": 4.56570763811,
			"0.01": 5.47129096605,
			"0.011": 4.46295731138,
			"0.012": 5.37623678314,
			"0.013": 4.60315198514,
			"0.014": 0.70957221928,
			"0.015": 0.0,
			"0.016": 0.0,
			"0.017": 0.0,
			"0.018": 0.0,
			"0.019": 0.0,
			"0.02": 0.0,
			"0.021": 0.0,
			"0.022": 0.0,
			"0.023": 0.0,
			"0.024": 0.0,
			"0.025": 0.0
		}
	}
}
