{
	 "smiles": "ClC1=CC=C(C=C1)C1=CC2=CC=CC=C2N1", 
	 "Tm": 479.15, 
	 "num_atms": 26, 
	 "gaussian": { 
		 "optdone": 1, 
		 "sigma_profile": "yes", 
		 "theory": "DFT", 
		 "functional": "B3LYP", 
		 "basiset": "6-31G**", 
		 "properties": { 
			 "R2extent": 6797.2907, 
			 "electric_dipole_moment_norm": 1.34871336095, 
			 "electric_quadrupole_moment_norm": 16.2171452987, 
			 "total_energy": -1054.47663532, 
			 "HOMO_LUMO_gap": 0.1565, 
			 "cosmo_polarized_energy": -9.97, 
			 "cosmo_cavitation_energy": 32.05, 
			 "cosmo_dispersion_energy": -23.9, 
			 "cosmo_repulsion_energy": 1.82, 
			 "cosmo_total_nonelectrostatic_energy": 9.98, 
			 "SMD_solvation_energy": 4.49 
		},
		"coords": [
			{
				"x": -0.5008453241,
				"y": -1.3996113967,
				"z": 6.2713926224,
				"element": "Cl" 
			},
			{
				"x": -0.2263600548,
				"y": -1.294122853,
				"z": 4.5392272103,
				"element": "C" 
			},
			{
				"x": -1.2278631241,
				"y": -1.6970884426,
				"z": 3.6573756383,
				"element": "C" 
			},
			{
				"x": -1.0022157266,
				"y": -1.611759858,
				"z": 2.2853303306,
				"element": "C" 
			},
			{
				"x": 0.2115196736,
				"y": -1.118371558,
				"z": 1.7736267645,
				"element": "C" 
			},
			{
				"x": 1.2001803509,
				"y": -0.7163771055,
				"z": 2.6903122032,
				"element": "C" 
			},
			{
				"x": 0.9917697317,
				"y": -0.8068540977,
				"z": 4.0627050851,
				"element": "C" 
			},
			{
				"x": 0.4529267104,
				"y": -1.0236855757,
				"z": 0.3337745355,
				"element": "C" 
			},
			{
				"x": 1.6383506715,
				"y": -1.0508112388,
				"z": -0.3722562551,
				"element": "C" 
			},
			{
				"x": 1.3219556941,
				"y": -0.9355589369,
				"z": -1.764328561,
				"element": "C" 
			},
			{
				"x": 2.0832037314,
				"y": -0.9073783766,
				"z": -2.9474060971,
				"element": "C" 
			},
			{
				"x": 1.4305340725,
				"y": -0.7648677777,
				"z": -4.1644886036,
				"element": "C" 
			},
			{
				"x": 0.0256035392,
				"y": -0.6522385898,
				"z": -4.2305177806,
				"element": "C" 
			},
			{
				"x": -0.7557583191,
				"y": -0.6868694446,
				"z": -3.0808698781,
				"element": "C" 
			},
			{
				"x": -0.0949371983,
				"y": -0.8346096836,
				"z": -1.8572368399,
				"element": "C" 
			},
			{
				"x": -0.5970261268,
				"y": -0.9180932665,
				"z": -0.5740738942,
				"element": "N" 
			},
			{
				"x": -2.1658360782,
				"y": -2.0842999627,
				"z": 4.0397760091,
				"element": "H" 
			},
			{
				"x": -1.7721101578,
				"y": -1.9673583715,
				"z": 1.6066329867,
				"element": "H" 
			},
			{
				"x": 2.1355760274,
				"y": -0.3091998207,
				"z": 2.3201666719,
				"element": "H" 
			},
			{
				"x": 1.7599297243,
				"y": -0.4905272585,
				"z": 4.7597200567,
				"element": "H" 
			},
			{
				"x": 2.620986224,
				"y": -1.1888286358,
				"z": 0.0560926443,
				"element": "H" 
			},
			{
				"x": 3.1656362307,
				"y": -0.9911191603,
				"z": -2.9062570927,
				"element": "H" 
			},
			{
				"x": 2.0076251652,
				"y": -0.7380179256,
				"z": -5.0841500504,
				"element": "H" 
			},
			{
				"x": -0.4551093684,
				"y": -0.5394739928,
				"z": -5.1978011528,
				"element": "H" 
			},
			{
				"x": -1.8378491401,
				"y": -0.6052370301,
				"z": -3.1335684448,
				"element": "H" 
			},
			{
				"x": -1.5465869285,
				"y": -0.7028396403,
				"z": -0.3153781083,
				"element": "H" 
			}
		],
		 "valence_orbital": [ 
			{
				"type": "occ",
				"energy": -0.2815,
				"method": "rhf"
			},
			{
				"type": "occ",
				"energy": -0.26947,
				"method": "rhf"
			},
			{
				"type": "occ",
				"energy": -0.25958,
				"method": "rhf"
			},
			{
				"type": "occ",
				"energy": -0.21843,
				"method": "rhf"
			},
			{
				"type": "occ",
				"energy": -0.19924,
				"method": "rhf"
			},
			{
				"type": "unocc",
				"energy": -0.04274,
				"method": "rhf"
			},
			{
				"type": "unocc",
				"energy": -0.01984,
				"method": "rhf"
			},
			{
				"type": "unocc",
				"energy": 0.00977,
				"method": "rhf"
			},
			{
				"type": "unocc",
				"energy": 0.02574,
				"method": "rhf"
			},
			{
				"type": "unocc",
				"energy": 0.0288,
				"method": "rhf"
			}
		],
		"cosmo_sigma_profile": { 
			"-0.025": 0.0,
			"-0.024": 0.0,
			"-0.023": 0.0,
			"-0.022": 0.0,
			"-0.021": 0.0,
			"-0.02": 0.0,
			"-0.019": 0.0,
			"-0.018": 0.0,
			"-0.017": 0.0,
			"-0.016": 0.134137881867,
			"-0.015": 0.948053588257,
			"-0.014": 1.24624199361,
			"-0.013": 0.867779727012,
			"-0.012": 1.72365006236,
			"-0.011": 1.48636273555,
			"-0.01": 1.63801109469,
			"-0.009": 1.44889684344,
			"-0.008": 2.16692168441,
			"-0.007": 6.70817804356,
			"-0.006": 12.0498129441,
			"-0.005": 16.4122239797,
			"-0.004": 15.7982364609,
			"-0.003": 16.6464909471,
			"-0.002": 14.6922814364,
			"-0.001": 15.5677727642,
			"0.0": 14.3348727749,
			"0.001": 17.8725809552,
			"0.002": 23.7329507586,
			"0.003": 28.8843669508,
			"0.004": 25.0440005211,
			"0.005": 20.1167831875,
			"0.006": 13.2772430524,
			"0.007": 7.10942257157,
			"0.008": 0.253301366953,
			"0.009": 0.0,
			"0.01": 0.0,
			"0.011": 0.0,
			"0.012": 0.0,
			"0.013": 0.0,
			"0.014": 0.0,
			"0.015": 0.0,
			"0.016": 0.0,
			"0.017": 0.0,
			"0.018": 0.0,
			"0.019": 0.0,
			"0.02": 0.0,
			"0.021": 0.0,
			"0.022": 0.0,
			"0.023": 0.0,
			"0.024": 0.0,
			"0.025": 0.0
		}
	}
}
