{
	 "smiles": "CC(C)(C)C1=CC(Br)=CC(=C1O)C(C)(C)C", 
	 "Tm": 356.15, 
	 "num_atms": 37, 
	 "gaussian": { 
		 "optdone": 1, 
		 "sigma_profile": "yes", 
		 "theory": "DFT", 
		 "functional": "B3LYP", 
		 "basiset": "6-31G**", 
		 "properties": { 
			 "R2extent": 6113.768, 
			 "electric_dipole_moment_norm": 3.10988203956, 
			 "electric_quadrupole_moment_norm": 10.7662053352, 
			 "total_energy": -3192.79282691, 
			 "HOMO_LUMO_gap": 0.20726, 
			 "cosmo_polarized_energy": -6.3, 
			 "cosmo_cavitation_energy": 37.77, 
			 "cosmo_dispersion_energy": -26.73, 
			 "cosmo_repulsion_energy": 2.08, 
			 "cosmo_total_nonelectrostatic_energy": 13.11, 
			 "SMD_solvation_energy": 5.67 
		},
		"coords": [
			{
				"x": 1.4680827126,
				"y": -2.200681296,
				"z": 1.3100010611,
				"element": "C" 
			},
			{
				"x": 0.4884568613,
				"y": -2.4628648012,
				"z": 0.1334537604,
				"element": "C" 
			},
			{
				"x": -0.6967218967,
				"y": -3.3629932823,
				"z": 0.5782377468,
				"element": "C" 
			},
			{
				"x": 1.2806724716,
				"y": -3.2827237463,
				"z": -0.9075132175,
				"element": "C" 
			},
			{
				"x": -0.0302947312,
				"y": -1.1264599721,
				"z": -0.455716748,
				"element": "C" 
			},
			{
				"x": 0.2397744159,
				"y": -0.7918371442,
				"z": -1.7896676605,
				"element": "C" 
			},
			{
				"x": -0.2203761101,
				"y": 0.4007927951,
				"z": -2.3256976638,
				"element": "C" 
			},
			{
				"x": 0.1707124383,
				"y": 0.8204514915,
				"z": -4.1551122662,
				"element": "Br" 
			},
			{
				"x": -0.9586084315,
				"y": 1.2967189775,
				"z": -1.5637441932,
				"element": "C" 
			},
			{
				"x": -1.2613707135,
				"y": 1.0207162615,
				"z": -0.2262227116,
				"element": "C" 
			},
			{
				"x": -0.7846351367,
				"y": -0.2019286399,
				"z": 0.3075106752,
				"element": "C" 
			},
			{
				"x": -1.0981768046,
				"y": -0.4444238733,
				"z": 1.6241830334,
				"element": "O" 
			},
			{
				"x": -2.0839541503,
				"y": 2.0212958268,
				"z": 0.6193040366,
				"element": "C" 
			},
			{
				"x": -2.4790729457,
				"y": 3.2698676219,
				"z": -0.1969470742,
				"element": "C" 
			},
			{
				"x": -3.3972079067,
				"y": 1.3590974494,
				"z": 1.105955511,
				"element": "C" 
			},
			{
				"x": -1.251289943,
				"y": 2.5115376874,
				"z": 1.8301635473,
				"element": "C" 
			},
			{
				"x": 2.3384519871,
				"y": -1.6401653039,
				"z": 0.9556939509,
				"element": "H" 
			},
			{
				"x": 1.821120969,
				"y": -3.1507604086,
				"z": 1.725114119,
				"element": "H" 
			},
			{
				"x": 1.0429807574,
				"y": -1.6227092013,
				"z": 2.1364639649,
				"element": "H" 
			},
			{
				"x": -1.3268652722,
				"y": -3.6060109771,
				"z": -0.2826553173,
				"element": "H" 
			},
			{
				"x": -1.3552722061,
				"y": -2.9115139712,
				"z": 1.3267476359,
				"element": "H" 
			},
			{
				"x": -0.3200222831,
				"y": -4.3010793938,
				"z": 0.9997749298,
				"element": "H" 
			},
			{
				"x": 1.6248377275,
				"y": -4.2138100765,
				"z": -0.4463179657,
				"element": "H" 
			},
			{
				"x": 2.1648171059,
				"y": -2.7464354445,
				"z": -1.265071646,
				"element": "H" 
			},
			{
				"x": 0.6657627379,
				"y": -3.551432251,
				"z": -1.7717074549,
				"element": "H" 
			},
			{
				"x": 0.8104219343,
				"y": -1.4589774833,
				"z": -2.4193192653,
				"element": "H" 
			},
			{
				"x": -1.2966246902,
				"y": 2.2144487382,
				"z": -2.0229947314,
				"element": "H" 
			},
			{
				"x": -0.733835229,
				"y": -1.2923360785,
				"z": 1.8947815249,
				"element": "H" 
			},
			{
				"x": -1.6052052678,
				"y": 3.8252091912,
				"z": -0.55334972,
				"element": "H" 
			},
			{
				"x": -3.0572377097,
				"y": 3.9451059964,
				"z": 0.4416152288,
				"element": "H" 
			},
			{
				"x": -3.1053818946,
				"y": 3.019615394,
				"z": -1.0596066294,
				"element": "H" 
			},
			{
				"x": -4.0083827712,
				"y": 1.043404729,
				"z": 0.2534102859,
				"element": "H" 
			},
			{
				"x": -3.9821012503,
				"y": 2.0801818061,
				"z": 1.6883983068,
				"element": "H" 
			},
			{
				"x": -3.2055943643,
				"y": 0.4883906759,
				"z": 1.7330954816,
				"element": "H" 
			},
			{
				"x": -0.9689930368,
				"y": 1.6901768023,
				"z": 2.4887683944,
				"element": "H" 
			},
			{
				"x": -1.8341781865,
				"y": 3.23431493,
				"z": 2.4125286301,
				"element": "H" 
			},
			{
				"x": -0.3379891869,
				"y": 3.0131169707,
				"z": 1.4920424405,
				"element": "H" 
			}
		],
		 "valence_orbital": [ 
			{
				"type": "occ",
				"energy": -0.30802,
				"method": "rhf"
			},
			{
				"type": "occ",
				"energy": -0.28385,
				"method": "rhf"
			},
			{
				"type": "occ",
				"energy": -0.27745,
				"method": "rhf"
			},
			{
				"type": "occ",
				"energy": -0.24717,
				"method": "rhf"
			},
			{
				"type": "occ",
				"energy": -0.21256,
				"method": "rhf"
			},
			{
				"type": "unocc",
				"energy": -0.0053,
				"method": "rhf"
			},
			{
				"type": "unocc",
				"energy": 0.00305,
				"method": "rhf"
			},
			{
				"type": "unocc",
				"energy": 0.01656,
				"method": "rhf"
			},
			{
				"type": "unocc",
				"energy": 0.05707,
				"method": "rhf"
			},
			{
				"type": "unocc",
				"energy": 0.09548,
				"method": "rhf"
			}
		],
		"cosmo_sigma_profile": { 
			"-0.025": 0.0,
			"-0.024": 0.0,
			"-0.023": 0.0,
			"-0.022": 0.0,
			"-0.021": 0.0,
			"-0.02": 0.0,
			"-0.019": 0.0,
			"-0.018": 0.0,
			"-0.017": 0.0,
			"-0.016": 0.0,
			"-0.015": 0.203174892884,
			"-0.014": 0.598563674633,
			"-0.013": 0.559585529558,
			"-0.012": 0.321698018192,
			"-0.011": 0.995689665819,
			"-0.01": 1.33103721916,
			"-0.009": 0.235842806312,
			"-0.008": 0.82626868965,
			"-0.007": 0.570892326357,
			"-0.006": 1.94809407201,
			"-0.005": 4.22536624389,
			"-0.004": 13.5383331862,
			"-0.003": 33.2711261321,
			"-0.002": 37.4168822861,
			"-0.001": 35.7934915245,
			"0.0": 38.3412802708,
			"0.001": 36.7236063115,
			"0.002": 26.1663486755,
			"0.003": 20.1131777472,
			"0.004": 21.7477973859,
			"0.005": 18.2558165824,
			"0.006": 3.96385452626,
			"0.007": 0.506627857184,
			"0.008": 0.011257888722,
			"0.009": 0.0,
			"0.01": 0.0,
			"0.011": 0.0,
			"0.012": 0.0,
			"0.013": 0.0,
			"0.014": 0.0,
			"0.015": 0.0,
			"0.016": 0.0,
			"0.017": 0.0,
			"0.018": 0.0,
			"0.019": 0.0,
			"0.02": 0.0,
			"0.021": 0.0,
			"0.022": 0.0,
			"0.023": 0.0,
			"0.024": 0.0,
			"0.025": 0.0
		}
	}
}
