{
	 "smiles": "OC(=O)C1=CC(=O)NC(O)=C1", 
	 "Tm": 573.15, 
	 "num_atms": 16, 
	 "gaussian": { 
		 "optdone": 1, 
		 "sigma_profile": "yes", 
		 "theory": "DFT", 
		 "functional": "B3LYP", 
		 "basiset": "6-31G**", 
		 "properties": { 
			 "R2extent": 1892.6224, 
			 "electric_dipole_moment_norm": 3.58977640669, 
			 "electric_quadrupole_moment_norm": 21.0005550979, 
			 "total_energy": -587.316014184, 
			 "HOMO_LUMO_gap": 0.14867, 
			 "cosmo_polarized_energy": -20.59, 
			 "cosmo_cavitation_energy": 21.65, 
			 "cosmo_dispersion_energy": -16.24, 
			 "cosmo_repulsion_energy": 1.31, 
			 "cosmo_total_nonelectrostatic_energy": 6.73, 
			 "SMD_solvation_energy": 6.42 
		},
		"coords": [
			{
				"x": 1.0572099238,
				"y": 2.6164350719,
				"z": 1.0157162761,
				"element": "O" 
			},
			{
				"x": 0.3613853284,
				"y": 1.4853426321,
				"z": 1.2607109017,
				"element": "C" 
			},
			{
				"x": -0.2246958235,
				"y": 1.2905527816,
				"z": 2.3065833886,
				"element": "O" 
			},
			{
				"x": 0.388867967,
				"y": 0.5127462231,
				"z": 0.1235037208,
				"element": "C" 
			},
			{
				"x": 1.0672888498,
				"y": 0.7835064342,
				"z": -1.0370148975,
				"element": "C" 
			},
			{
				"x": 1.086041385,
				"y": -0.1678776354,
				"z": -2.1322812414,
				"element": "C" 
			},
			{
				"x": 1.6516368347,
				"y": -0.0438578591,
				"z": -3.211388696,
				"element": "O" 
			},
			{
				"x": 0.3499753388,
				"y": -1.3490772959,
				"z": -1.8561210265,
				"element": "N" 
			},
			{
				"x": -0.3205510761,
				"y": -1.6108547152,
				"z": -0.7025034738,
				"element": "C" 
			},
			{
				"x": -0.9350900041,
				"y": -2.8132990987,
				"z": -0.7117228517,
				"element": "O" 
			},
			{
				"x": -0.3286528967,
				"y": -0.7025687007,
				"z": 0.3213457398,
				"element": "C" 
			},
			{
				"x": 0.9692758911,
				"y": 3.1648122219,
				"z": 1.8127031822,
				"element": "H" 
			},
			{
				"x": 1.6097032236,
				"y": 1.7079395309,
				"z": -1.1800162394,
				"element": "H" 
			},
			{
				"x": 0.3370485465,
				"y": -2.0418874688,
				"z": -2.5957356225,
				"element": "H" 
			},
			{
				"x": -1.3920865345,
				"y": -2.9413553942,
				"z": 0.1304413797,
				"element": "H" 
			},
			{
				"x": -0.8523569539,
				"y": -0.8808567277,
				"z": 1.2512794598,
				"element": "H" 
			}
		],
		 "valence_orbital": [ 
			{
				"type": "occ",
				"energy": -0.3203,
				"method": "rhf"
			},
			{
				"type": "occ",
				"energy": -0.30752,
				"method": "rhf"
			},
			{
				"type": "occ",
				"energy": -0.29368,
				"method": "rhf"
			},
			{
				"type": "occ",
				"energy": -0.25557,
				"method": "rhf"
			},
			{
				"type": "occ",
				"energy": -0.21888,
				"method": "rhf"
			},
			{
				"type": "unocc",
				"energy": -0.07021,
				"method": "rhf"
			},
			{
				"type": "unocc",
				"energy": 0.01007,
				"method": "rhf"
			},
			{
				"type": "unocc",
				"energy": 0.04292,
				"method": "rhf"
			},
			{
				"type": "unocc",
				"energy": 0.04642,
				"method": "rhf"
			},
			{
				"type": "unocc",
				"energy": 0.0668,
				"method": "rhf"
			}
		],
		"cosmo_sigma_profile": { 
			"-0.025": 0.0,
			"-0.024": 0.0,
			"-0.023": 0.0,
			"-0.022": 0.0,
			"-0.021": 0.00774298238897,
			"-0.02": 0.738708558589,
			"-0.019": 1.84816271086,
			"-0.018": 1.79793901081,
			"-0.017": 1.71397811342,
			"-0.016": 3.5250538016,
			"-0.015": 2.0785899287,
			"-0.014": 2.33104703979,
			"-0.013": 2.30826983277,
			"-0.012": 2.34767708718,
			"-0.011": 2.80200405621,
			"-0.01": 1.92214849014,
			"-0.009": 2.58794122992,
			"-0.008": 2.56759667051,
			"-0.007": 3.48075704513,
			"-0.006": 3.80930900463,
			"-0.005": 3.76920070246,
			"-0.004": 5.53424128493,
			"-0.003": 8.03647887267,
			"-0.002": 10.8116508891,
			"-0.001": 13.2850608422,
			"0.0": 9.98085767137,
			"0.001": 15.4439024178,
			"0.002": 11.4630023784,
			"0.003": 6.58712399162,
			"0.004": 5.38938621512,
			"0.005": 4.7517134972,
			"0.006": 5.42042810558,
			"0.007": 5.25183605049,
			"0.008": 4.51247386728,
			"0.009": 3.00096665234,
			"0.01": 4.14408597661,
			"0.011": 6.14146224655,
			"0.012": 2.47569366702,
			"0.013": 3.32463648896,
			"0.014": 6.18258697641,
			"0.015": 1.4633703852,
			"0.016": 0.0214798270532,
			"0.017": 0.0,
			"0.018": 0.0,
			"0.019": 0.0,
			"0.02": 0.0,
			"0.021": 0.0,
			"0.022": 0.0,
			"0.023": 0.0,
			"0.024": 0.0,
			"0.025": 0.0
		}
	}
}
