{
	 "smiles": "CN(C)C1=CC=C(C=C1)C1=CC(=CN=C1)C(O)=O", 
	 "Tm": 558.15, 
	 "num_atms": 32, 
	 "gaussian": { 
		 "optdone": 1, 
		 "sigma_profile": "yes", 
		 "theory": "DFT", 
		 "functional": "B3LYP", 
		 "basiset": "6-31G**", 
		 "properties": { 
			 "R2extent": 7762.3364, 
			 "electric_dipole_moment_norm": 8.88656334136, 
			 "electric_quadrupole_moment_norm": 22.3012836671, 
			 "total_energy": -801.878979361, 
			 "HOMO_LUMO_gap": 0.14337, 
			 "cosmo_polarized_energy": -18.85, 
			 "cosmo_cavitation_energy": 35.9, 
			 "cosmo_dispersion_energy": -26.13, 
			 "cosmo_repulsion_energy": 1.98, 
			 "cosmo_total_nonelectrostatic_energy": 11.74, 
			 "SMD_solvation_energy": 5.35 
		},
		"coords": [
			{
				"x": -2.1793397657,
				"y": -3.3121185133,
				"z": 1.8051578972,
				"element": "C" 
			},
			{
				"x": -1.8247447111,
				"y": -2.7370129915,
				"z": 0.5187880288,
				"element": "N" 
			},
			{
				"x": -1.9752887978,
				"y": -3.5440942602,
				"z": -0.6802116373,
				"element": "C" 
			},
			{
				"x": -1.097021638,
				"y": -1.5615554087,
				"z": 0.4683194776,
				"element": "C" 
			},
			{
				"x": -0.7934127503,
				"y": -0.8284973086,
				"z": 1.6403057364,
				"element": "C" 
			},
			{
				"x": -0.0828989606,
				"y": 0.3628043846,
				"z": 1.5771866935,
				"element": "C" 
			},
			{
				"x": 0.3747799534,
				"y": 0.8912424681,
				"z": 0.3584606373,
				"element": "C" 
			},
			{
				"x": 0.0821820279,
				"y": 0.1567248257,
				"z": -0.8027118336,
				"element": "C" 
			},
			{
				"x": -0.62842238,
				"y": -1.0353743584,
				"z": -0.7592192965,
				"element": "C" 
			},
			{
				"x": 1.1332354987,
				"y": 2.1579972835,
				"z": 0.3027805809,
				"element": "C" 
			},
			{
				"x": 2.1741488486,
				"y": 2.3673334206,
				"z": -0.6129907819,
				"element": "C" 
			},
			{
				"x": 2.8525950244,
				"y": 3.5887795758,
				"z": -0.6362625054,
				"element": "C" 
			},
			{
				"x": 2.4578126623,
				"y": 4.5816060052,
				"z": 0.2717706365,
				"element": "C" 
			},
			{
				"x": 1.4780951597,
				"y": 4.4077139777,
				"z": 1.1619439856,
				"element": "N" 
			},
			{
				"x": 0.8403081033,
				"y": 3.2331947118,
				"z": 1.1640183843,
				"element": "C" 
			},
			{
				"x": 3.966496075,
				"y": 3.9014964411,
				"z": -1.5870753807,
				"element": "C" 
			},
			{
				"x": 4.6363433638,
				"y": 2.8391905333,
				"z": -2.1125754798,
				"element": "O" 
			},
			{
				"x": 4.2806761264,
				"y": 5.0267296854,
				"z": -1.8937104415,
				"element": "O" 
			},
			{
				"x": -2.7817210808,
				"y": -2.6144498201,
				"z": 2.3990992128,
				"element": "H" 
			},
			{
				"x": -2.7791068586,
				"y": -4.2086799083,
				"z": 1.6434786949,
				"element": "H" 
			},
			{
				"x": -1.2986773211,
				"y": -3.593015612,
				"z": 2.4025664695,
				"element": "H" 
			},
			{
				"x": -2.4915719652,
				"y": -2.9888690451,
				"z": -1.472841405,
				"element": "H" 
			},
			{
				"x": -1.0106834549,
				"y": -3.8893011378,
				"z": -1.08168337,
				"element": "H" 
			},
			{
				"x": -2.5790177405,
				"y": -4.4220872865,
				"z": -0.4474750175,
				"element": "H" 
			},
			{
				"x": -1.1024950772,
				"y": -1.1953098758,
				"z": 2.6111059418,
				"element": "H" 
			},
			{
				"x": 0.1482796251,
				"y": 0.8776007974,
				"z": 2.5054594904,
				"element": "H" 
			},
			{
				"x": 0.3919920543,
				"y": 0.5381290564,
				"z": -1.7721125671,
				"element": "H" 
			},
			{
				"x": -0.8308390851,
				"y": -1.5517903518,
				"z": -1.6892637676,
				"element": "H" 
			},
			{
				"x": 2.4303185366,
				"y": 1.5718089745,
				"z": -1.3091486753,
				"element": "H" 
			},
			{
				"x": 2.9667648671,
				"y": 5.5415595229,
				"z": 0.2656065884,
				"element": "H" 
			},
			{
				"x": 0.0239036639,
				"y": 3.1386362235,
				"z": 1.8774914966,
				"element": "H" 
			},
			{
				"x": 4.3881099967,
				"y": 2.0259079905,
				"z": -1.6516577932,
				"element": "H" 
			}
		],
		 "valence_orbital": [ 
			{
				"type": "occ",
				"energy": -0.27843,
				"method": "rhf"
			},
			{
				"type": "occ",
				"energy": -0.26365,
				"method": "rhf"
			},
			{
				"type": "occ",
				"energy": -0.25895,
				"method": "rhf"
			},
			{
				"type": "occ",
				"energy": -0.25658,
				"method": "rhf"
			},
			{
				"type": "occ",
				"energy": -0.1981,
				"method": "rhf"
			},
			{
				"type": "unocc",
				"energy": -0.05473,
				"method": "rhf"
			},
			{
				"type": "unocc",
				"energy": -0.04132,
				"method": "rhf"
			},
			{
				"type": "unocc",
				"energy": -0.00978,
				"method": "rhf"
			},
			{
				"type": "unocc",
				"energy": 0.01318,
				"method": "rhf"
			},
			{
				"type": "unocc",
				"energy": 0.04857,
				"method": "rhf"
			}
		],
		"cosmo_sigma_profile": { 
			"-0.025": 0.0,
			"-0.024": 0.0,
			"-0.023": 0.0,
			"-0.022": 0.0,
			"-0.021": 0.0,
			"-0.02": 0.0,
			"-0.019": 0.48299299244,
			"-0.018": 0.754670918777,
			"-0.017": 1.00951534718,
			"-0.016": 1.26335542835,
			"-0.015": 1.2624318752,
			"-0.014": 0.826292048293,
			"-0.013": 0.793434745222,
			"-0.012": 1.20372510952,
			"-0.011": 1.26079666917,
			"-0.01": 1.3295700767,
			"-0.009": 1.14946922682,
			"-0.008": 2.04404305077,
			"-0.007": 5.43817843091,
			"-0.006": 13.4993679966,
			"-0.005": 17.7268487414,
			"-0.004": 24.5797871802,
			"-0.003": 26.1988392255,
			"-0.002": 26.5909720589,
			"-0.001": 21.4697148273,
			"0.0": 21.0373415472,
			"0.001": 20.1770442482,
			"0.002": 12.2833680646,
			"0.003": 11.476321621,
			"0.004": 11.9095674396,
			"0.005": 12.5208596119,
			"0.006": 12.8083683063,
			"0.007": 4.90149001438,
			"0.008": 4.95796762905,
			"0.009": 4.62874271574,
			"0.01": 5.4861145778,
			"0.011": 6.60386394086,
			"0.012": 4.64532169173,
			"0.013": 1.53622610002,
			"0.014": 1.21923945583,
			"0.015": 0.622984933786,
			"0.016": 0.660870038688,
			"0.017": 0.0158855821752,
			"0.018": 0.0,
			"0.019": 0.0,
			"0.02": 0.0,
			"0.021": 0.0,
			"0.022": 0.0,
			"0.023": 0.0,
			"0.024": 0.0,
			"0.025": 0.0
		}
	}
}
