{
	 "smiles": "COC1=CC(Br)=CN=C1", 
	 "Tm": 304.15, 
	 "num_atms": 15, 
	 "gaussian": { 
		 "optdone": 1, 
		 "sigma_profile": "yes", 
		 "theory": "DFT", 
		 "functional": "B3LYP", 
		 "basiset": "6-31G**", 
		 "properties": { 
			 "R2extent": 2474.3815, 
			 "electric_dipole_moment_norm": 3.29419236536, 
			 "electric_quadrupole_moment_norm": 5.07831016186, 
			 "total_energy": -2933.61077901, 
			 "HOMO_LUMO_gap": 0.20418, 
			 "cosmo_polarized_energy": -7.21, 
			 "cosmo_cavitation_energy": 21.53, 
			 "cosmo_dispersion_energy": -16.51, 
			 "cosmo_repulsion_energy": 1.35, 
			 "cosmo_total_nonelectrostatic_energy": 6.37, 
			 "SMD_solvation_energy": 2.11 
		},
		"coords": [
			{
				"x": -1.0727803247,
				"y": -2.443351282,
				"z": -0.186550451,
				"element": "C" 
			},
			{
				"x": 0.326153009,
				"y": -2.1950913407,
				"z": -0.1286857066,
				"element": "O" 
			},
			{
				"x": 0.7445131686,
				"y": -0.9641848533,
				"z": 0.2612397365,
				"element": "C" 
			},
			{
				"x": -0.0928580265,
				"y": 0.0969989371,
				"z": 0.6166606809,
				"element": "C" 
			},
			{
				"x": 0.5144650992,
				"y": 1.2950011471,
				"z": 0.9926920741,
				"element": "C" 
			},
			{
				"x": -0.569423789,
				"y": 2.7864870259,
				"z": 1.4906108618,
				"element": "Br" 
			},
			{
				"x": 1.9008411483,
				"y": 1.4131308717,
				"z": 1.0082692063,
				"element": "C" 
			},
			{
				"x": 2.6945364342,
				"y": 0.3890695552,
				"z": 0.6655822464,
				"element": "N" 
			},
			{
				"x": 2.1364415718,
				"y": -0.7619766608,
				"z": 0.3038624788,
				"element": "C" 
			},
			{
				"x": -1.1803257326,
				"y": -3.4765707493,
				"z": -0.5180323588,
				"element": "H" 
			},
			{
				"x": -1.569671358,
				"y": -1.7790461519,
				"z": -0.9047317063,
				"element": "H" 
			},
			{
				"x": -1.5427197951,
				"y": -2.3282653284,
				"z": 0.7982848236,
				"element": "H" 
			},
			{
				"x": -1.1714160538,
				"y": 0.0110962801,
				"z": 0.6064385076,
				"element": "H" 
			},
			{
				"x": 2.3790822882,
				"y": 2.3432560912,
				"z": 1.3000694536,
				"element": "H" 
			},
			{
				"x": 2.7952623604,
				"y": -1.5824535418,
				"z": 0.0288901531,
				"element": "H" 
			}
		],
		 "valence_orbital": [ 
			{
				"type": "occ",
				"energy": -0.32937,
				"method": "rhf"
			},
			{
				"type": "occ",
				"energy": -0.29616,
				"method": "rhf"
			},
			{
				"type": "occ",
				"energy": -0.2704,
				"method": "rhf"
			},
			{
				"type": "occ",
				"energy": -0.26249,
				"method": "rhf"
			},
			{
				"type": "occ",
				"energy": -0.23753,
				"method": "rhf"
			},
			{
				"type": "unocc",
				"energy": -0.03335,
				"method": "rhf"
			},
			{
				"type": "unocc",
				"energy": -0.01231,
				"method": "rhf"
			},
			{
				"type": "unocc",
				"energy": 0.00074,
				"method": "rhf"
			},
			{
				"type": "unocc",
				"energy": 0.08871,
				"method": "rhf"
			},
			{
				"type": "unocc",
				"energy": 0.10331,
				"method": "rhf"
			}
		],
		"cosmo_sigma_profile": { 
			"-0.025": 0.0,
			"-0.024": 0.0,
			"-0.023": 0.0,
			"-0.022": 0.0,
			"-0.021": 0.0,
			"-0.02": 0.0,
			"-0.019": 0.0,
			"-0.018": 0.0,
			"-0.017": 0.0,
			"-0.016": 0.0,
			"-0.015": 0.0,
			"-0.014": 0.0,
			"-0.013": 0.0,
			"-0.012": 0.0,
			"-0.011": 0.0,
			"-0.01": 0.0,
			"-0.009": 0.434606199321,
			"-0.008": 1.98460248855,
			"-0.007": 6.56417698419,
			"-0.006": 12.4684166051,
			"-0.005": 12.2147250754,
			"-0.004": 13.6085831384,
			"-0.003": 11.8344511303,
			"-0.002": 8.54007324426,
			"-0.001": 9.4742047932,
			"0.0": 18.2802645039,
			"0.001": 20.9583664597,
			"0.002": 11.2669962463,
			"0.003": 12.9336228011,
			"0.004": 14.1611613155,
			"0.005": 4.78402747619,
			"0.006": 2.40487044316,
			"0.007": 3.2217978695,
			"0.008": 2.05886898906,
			"0.009": 2.42584151922,
			"0.01": 1.44506720179,
			"0.011": 0.697093240982,
			"0.012": 1.12523276711,
			"0.013": 0.776774893067,
			"0.014": 1.07699371356,
			"0.015": 0.852232518169,
			"0.016": 0.216299161931,
			"0.017": 0.0,
			"0.018": 0.0,
			"0.019": 0.0,
			"0.02": 0.0,
			"0.021": 0.0,
			"0.022": 0.0,
			"0.023": 0.0,
			"0.024": 0.0,
			"0.025": 0.0
		}
	}
}
