{
	 "smiles": "CC(C)(OC1=CC=C(Cl)C=C1)C(=O)NC(=O)NCN1CCOCC1", 
	 "Tm": 373.15, 
	 "num_atms": 46, 
	 "gaussian": { 
		 "optdone": 1, 
		 "sigma_profile": "yes", 
		 "theory": "DFT", 
		 "functional": "B3LYP", 
		 "basiset": "6-31G**", 
		 "properties": { 
			 "R2extent": 14323.06, 
			 "electric_dipole_moment_norm": 4.39634870887, 
			 "electric_quadrupole_moment_norm": 23.7787153944, 
			 "total_energy": -1548.30051706, 
			 "HOMO_LUMO_gap": 0.21231, 
			 "cosmo_polarized_energy": -18.68, 
			 "cosmo_cavitation_energy": 48.64, 
			 "cosmo_dispersion_energy": -33.54, 
			 "cosmo_repulsion_energy": 2.56, 
			 "cosmo_total_nonelectrostatic_energy": 17.66, 
			 "SMD_solvation_energy": 8.43 
		},
		"coords": [
			{
				"x": 3.4414100527,
				"y": -1.2012745862,
				"z": 2.4085802553,
				"element": "C" 
			},
			{
				"x": 2.2149964459,
				"y": -0.4769458683,
				"z": 1.8406630269,
				"element": "C" 
			},
			{
				"x": 1.5373416485,
				"y": 0.3717139579,
				"z": 2.9287038072,
				"element": "C" 
			},
			{
				"x": 2.5925425252,
				"y": 0.2804763188,
				"z": 0.6606223782,
				"element": "O" 
			},
			{
				"x": 3.2732323131,
				"y": 1.4727761116,
				"z": 0.7992164374,
				"element": "C" 
			},
			{
				"x": 2.5653495008,
				"y": 2.6798868856,
				"z": 0.8241064185,
				"element": "C" 
			},
			{
				"x": 3.2533799094,
				"y": 3.8916799732,
				"z": 0.87746353,
				"element": "C" 
			},
			{
				"x": 4.6480981814,
				"y": 3.888826108,
				"z": 0.9004373975,
				"element": "C" 
			},
			{
				"x": 5.5174400691,
				"y": 5.4189014063,
				"z": 0.9683947426,
				"element": "Cl" 
			},
			{
				"x": 5.3657638623,
				"y": 2.6945545479,
				"z": 0.8586486,
				"element": "C" 
			},
			{
				"x": 4.6725156321,
				"y": 1.4848993783,
				"z": 0.8050754758,
				"element": "C" 
			},
			{
				"x": 1.2211465936,
				"y": -1.5382681346,
				"z": 1.3173334332,
				"element": "C" 
			},
			{
				"x": 1.2414597854,
				"y": -2.6812009807,
				"z": 1.7432644062,
				"element": "O" 
			},
			{
				"x": 0.3205778999,
				"y": -1.2333489605,
				"z": 0.2975256252,
				"element": "N" 
			},
			{
				"x": -0.2078806036,
				"y": -0.0247974051,
				"z": -0.1680929997,
				"element": "C" 
			},
			{
				"x": -0.1990690737,
				"y": 1.0453375841,
				"z": 0.420758115,
				"element": "O" 
			},
			{
				"x": -0.8543657112,
				"y": -0.1749950305,
				"z": -1.3822496062,
				"element": "N" 
			},
			{
				"x": -0.6655452885,
				"y": -1.274911652,
				"z": -2.3106636221,
				"element": "C" 
			},
			{
				"x": -1.2032115995,
				"y": -2.529709755,
				"z": -1.7846940583,
				"element": "N" 
			},
			{
				"x": -0.7042684435,
				"y": -3.6896786081,
				"z": -2.5487861762,
				"element": "C" 
			},
			{
				"x": -1.5968642969,
				"y": -4.8978316921,
				"z": -2.2949092204,
				"element": "C" 
			},
			{
				"x": -2.924149191,
				"y": -4.6966957455,
				"z": -2.7770393448,
				"element": "O" 
			},
			{
				"x": -3.3621183837,
				"y": -3.3398473268,
				"z": -2.7407625426,
				"element": "C" 
			},
			{
				"x": -2.6774716262,
				"y": -2.5482271707,
				"z": -1.6290625244,
				"element": "C" 
			},
			{
				"x": 3.9358963634,
				"y": -1.7872564926,
				"z": 1.6297782545,
				"element": "H" 
			},
			{
				"x": 4.1480596479,
				"y": -0.4690997211,
				"z": 2.8081684309,
				"element": "H" 
			},
			{
				"x": 3.1447908032,
				"y": -1.8808693293,
				"z": 3.2086405614,
				"element": "H" 
			},
			{
				"x": 0.6651186414,
				"y": 0.8913164368,
				"z": 2.5330357595,
				"element": "H" 
			},
			{
				"x": 2.2444251253,
				"y": 1.1039461728,
				"z": 3.3282762722,
				"element": "H" 
			},
			{
				"x": 1.2288839438,
				"y": -0.2837667447,
				"z": 3.7487050713,
				"element": "H" 
			},
			{
				"x": 1.4827291654,
				"y": 2.6486489517,
				"z": 0.7810340052,
				"element": "H" 
			},
			{
				"x": 2.712333311,
				"y": 4.8315042508,
				"z": 0.896200015,
				"element": "H" 
			},
			{
				"x": 6.450102123,
				"y": 2.7101470627,
				"z": 0.861713485,
				"element": "H" 
			},
			{
				"x": 5.2134700116,
				"y": 0.5466059177,
				"z": 0.7489594881,
				"element": "H" 
			},
			{
				"x": -0.1409914068,
				"y": -2.0642541682,
				"z": -0.0870310181,
				"element": "H" 
			},
			{
				"x": -1.2369936065,
				"y": 0.6920653193,
				"z": -1.7289593927,
				"element": "H" 
			},
			{
				"x": -1.13309293,
				"y": -0.9728637926,
				"z": -3.2626843457,
				"element": "H" 
			},
			{
				"x": 0.4010405996,
				"y": -1.4451066568,
				"z": -2.5073591357,
				"element": "H" 
			},
			{
				"x": 0.3259222117,
				"y": -3.9094691831,
				"z": -2.2436709173,
				"element": "H" 
			},
			{
				"x": -0.6898690587,
				"y": -3.4906879128,
				"z": -3.6346769353,
				"element": "H" 
			},
			{
				"x": -1.2003977405,
				"y": -5.7740618331,
				"z": -2.8169290036,
				"element": "H" 
			},
			{
				"x": -1.6071027814,
				"y": -5.1250930242,
				"z": -1.2178285027,
				"element": "H" 
			},
			{
				"x": -4.4460548995,
				"y": -3.3575191739,
				"z": -2.5836281282,
				"element": "H" 
			},
			{
				"x": -3.1792633339,
				"y": -2.8572843331,
				"z": -3.7149651119,
				"element": "H" 
			},
			{
				"x": -3.0458558249,
				"y": -1.5185411866,
				"z": -1.6046857108,
				"element": "H" 
			},
			{
				"x": -2.9313605667,
				"y": -2.9964799152,
				"z": -0.6614266953,
				"element": "H" 
			}
		],
		 "valence_orbital": [ 
			{
				"type": "occ",
				"energy": -0.26277,
				"method": "rhf"
			},
			{
				"type": "occ",
				"energy": -0.26007,
				"method": "rhf"
			},
			{
				"type": "occ",
				"energy": -0.25695,
				"method": "rhf"
			},
			{
				"type": "occ",
				"energy": -0.24391,
				"method": "rhf"
			},
			{
				"type": "occ",
				"energy": -0.23022,
				"method": "rhf"
			},
			{
				"type": "unocc",
				"energy": -0.01791,
				"method": "rhf"
			},
			{
				"type": "unocc",
				"energy": -0.00841,
				"method": "rhf"
			},
			{
				"type": "unocc",
				"energy": -0.00257,
				"method": "rhf"
			},
			{
				"type": "unocc",
				"energy": 0.03558,
				"method": "rhf"
			},
			{
				"type": "unocc",
				"energy": 0.04981,
				"method": "rhf"
			}
		],
		"cosmo_sigma_profile": { 
			"-0.025": 0.0,
			"-0.024": 0.0,
			"-0.023": 0.0,
			"-0.022": 0.0,
			"-0.021": 0.0,
			"-0.02": 0.0,
			"-0.019": 0.0,
			"-0.018": 0.0,
			"-0.017": 0.0,
			"-0.016": 0.0,
			"-0.015": 0.0117735240755,
			"-0.014": 0.977352014241,
			"-0.013": 1.43084912184,
			"-0.012": 0.9959085949,
			"-0.011": 1.09030159819,
			"-0.01": 1.05541577542,
			"-0.009": 1.11372910424,
			"-0.008": 1.70010042665,
			"-0.007": 5.25416536439,
			"-0.006": 12.2019456792,
			"-0.005": 27.008677746,
			"-0.004": 40.4328041183,
			"-0.003": 44.0666296297,
			"-0.002": 36.3752046543,
			"-0.001": 30.5454430877,
			"0.0": 29.434139078,
			"0.001": 23.8666555349,
			"0.002": 21.663700361,
			"0.003": 25.3971657674,
			"0.004": 19.7338410575,
			"0.005": 14.6231113132,
			"0.006": 6.35364255694,
			"0.007": 6.43646528911,
			"0.008": 5.44230696654,
			"0.009": 4.45482085785,
			"0.01": 4.22764835075,
			"0.011": 5.03580393453,
			"0.012": 8.02593047497,
			"0.013": 4.33690762411,
			"0.014": 1.21306187093,
			"0.015": 0.0,
			"0.016": 0.0,
			"0.017": 0.0,
			"0.018": 0.0,
			"0.019": 0.0,
			"0.02": 0.0,
			"0.021": 0.0,
			"0.022": 0.0,
			"0.023": 0.0,
			"0.024": 0.0,
			"0.025": 0.0
		}
	}
}
