{
	 "smiles": "CCC1(C)NC(=O)NC1=O", 
	 "Tm": 420.15, 
	 "num_atms": 20, 
	 "gaussian": { 
		 "optdone": 1, 
		 "sigma_profile": "yes", 
		 "theory": "DFT", 
		 "functional": "B3LYP", 
		 "basiset": "6-31G**", 
		 "properties": { 
			 "R2extent": 1936.6677, 
			 "electric_dipole_moment_norm": 2.77787888325, 
			 "electric_quadrupole_moment_norm": 14.2044910863, 
			 "total_energy": -494.668056262, 
			 "HOMO_LUMO_gap": 0.25211, 
			 "cosmo_polarized_energy": -15.04, 
			 "cosmo_cavitation_energy": 23.25, 
			 "cosmo_dispersion_energy": -16.68, 
			 "cosmo_repulsion_energy": 1.37, 
			 "cosmo_total_nonelectrostatic_energy": 7.95, 
			 "SMD_solvation_energy": 5.45 
		},
		"coords": [
			{
				"x": 3.0786805484,
				"y": -1.0921335982,
				"z": -0.4614719342,
				"element": "C" 
			},
			{
				"x": 1.8585861345,
				"y": -0.3011706592,
				"z": 0.0192883434,
				"element": "C" 
			},
			{
				"x": 0.7045503542,
				"y": -0.1986764175,
				"z": -1.0058120245,
				"element": "C" 
			},
			{
				"x": 0.1029334131,
				"y": -1.5671530826,
				"z": -1.3682288126,
				"element": "C" 
			},
			{
				"x": 1.082245075,
				"y": 0.5737372895,
				"z": -2.1918546201,
				"element": "N" 
			},
			{
				"x": 0.3054238811,
				"y": 1.6840038814,
				"z": -2.4043606937,
				"element": "C" 
			},
			{
				"x": 0.3283138832,
				"y": 2.4620729753,
				"z": -3.3351220384,
				"element": "O" 
			},
			{
				"x": -0.5556789036,
				"y": 1.7543470403,
				"z": -1.2863864767,
				"element": "N" 
			},
			{
				"x": -0.4051963492,
				"y": 0.6995288792,
				"z": -0.4134439826,
				"element": "C" 
			},
			{
				"x": -1.0149342671,
				"y": 0.5032063214,
				"z": 0.6173374919,
				"element": "O" 
			},
			{
				"x": 2.84226206,
				"y": -2.1423283783,
				"z": -0.658159201,
				"element": "H" 
			},
			{
				"x": 3.502556595,
				"y": -0.6604225219,
				"z": -1.3749911633,
				"element": "H" 
			},
			{
				"x": 3.8640440003,
				"y": -1.0724378675,
				"z": 0.2999750715,
				"element": "H" 
			},
			{
				"x": 1.4469563175,
				"y": -0.7454227774,
				"z": 0.9319349902,
				"element": "H" 
			},
			{
				"x": 2.168180727,
				"y": 0.7183716794,
				"z": 0.2769427971,
				"element": "H" 
			},
			{
				"x": -0.2714559814,
				"y": -2.057425878,
				"z": -0.4657358428,
				"element": "H" 
			},
			{
				"x": -0.7287714474,
				"y": -1.449053152,
				"z": -2.068768398,
				"element": "H" 
			},
			{
				"x": 0.8509439114,
				"y": -2.2150487012,
				"z": -1.8339549815,
				"element": "H" 
			},
			{
				"x": 1.6540016478,
				"y": 0.2184092375,
				"z": -2.9421224451,
				"element": "H" 
			},
			{
				"x": -1.2199415997,
				"y": 2.5053957297,
				"z": -1.1657660795,
				"element": "H" 
			}
		],
		 "valence_orbital": [ 
			{
				"type": "occ",
				"energy": -0.35191,
				"method": "rhf"
			},
			{
				"type": "occ",
				"energy": -0.28922,
				"method": "rhf"
			},
			{
				"type": "occ",
				"energy": -0.28762,
				"method": "rhf"
			},
			{
				"type": "occ",
				"energy": -0.26767,
				"method": "rhf"
			},
			{
				"type": "occ",
				"energy": -0.25987,
				"method": "rhf"
			},
			{
				"type": "unocc",
				"energy": -0.00776,
				"method": "rhf"
			},
			{
				"type": "unocc",
				"energy": 0.05888,
				"method": "rhf"
			},
			{
				"type": "unocc",
				"energy": 0.0638,
				"method": "rhf"
			},
			{
				"type": "unocc",
				"energy": 0.09411,
				"method": "rhf"
			},
			{
				"type": "unocc",
				"energy": 0.10022,
				"method": "rhf"
			}
		],
		"cosmo_sigma_profile": { 
			"-0.025": 0.0,
			"-0.024": 0.0,
			"-0.023": 0.0,
			"-0.022": 0.0,
			"-0.021": 0.0,
			"-0.02": 0.0,
			"-0.019": 0.0,
			"-0.018": 0.0,
			"-0.017": 0.0899319288064,
			"-0.016": 1.35602846047,
			"-0.015": 1.33231603897,
			"-0.014": 2.37085608251,
			"-0.013": 1.83186202709,
			"-0.012": 1.31692480254,
			"-0.011": 2.05644562988,
			"-0.01": 2.02197887734,
			"-0.009": 1.60452998291,
			"-0.008": 2.70057167199,
			"-0.007": 2.75835106368,
			"-0.006": 3.14937100382,
			"-0.005": 8.6458314124,
			"-0.004": 14.5356047265,
			"-0.003": 17.7420266343,
			"-0.002": 20.8954834525,
			"-0.001": 21.9524897273,
			"0.0": 16.7184696304,
			"0.001": 8.41085864529,
			"0.002": 3.70702848396,
			"0.003": 4.14267352922,
			"0.004": 3.05164613603,
			"0.005": 2.6907808388,
			"0.006": 2.68058347972,
			"0.007": 2.65905222246,
			"0.008": 2.47037088815,
			"0.009": 1.45358652856,
			"0.01": 3.98578278412,
			"0.011": 4.62306198182,
			"0.012": 8.65701920538,
			"0.013": 8.74429221053,
			"0.014": 1.40221643743,
			"0.015": 0.0,
			"0.016": 0.0,
			"0.017": 0.0,
			"0.018": 0.0,
			"0.019": 0.0,
			"0.02": 0.0,
			"0.021": 0.0,
			"0.022": 0.0,
			"0.023": 0.0,
			"0.024": 0.0,
			"0.025": 0.0
		}
	}
}
