{
	 "smiles": "CC(C)CNC(=O)C1=C(N)C=CC(Cl)=C1", 
	 "Tm": 411.15, 
	 "num_atms": 30, 
	 "gaussian": { 
		 "optdone": 1, 
		 "sigma_profile": "yes", 
		 "theory": "DFT", 
		 "functional": "B3LYP", 
		 "basiset": "6-31G**", 
		 "properties": { 
			 "R2extent": 5015.9375, 
			 "electric_dipole_moment_norm": 5.55709445034, 
			 "electric_quadrupole_moment_norm": 7.34231688502, 
			 "total_energy": -1073.16720953, 
			 "HOMO_LUMO_gap": 0.18274, 
			 "cosmo_polarized_energy": -15.44, 
			 "cosmo_cavitation_energy": 34.5, 
			 "cosmo_dispersion_energy": -24.37, 
			 "cosmo_repulsion_energy": 1.92, 
			 "cosmo_total_nonelectrostatic_energy": 12.04, 
			 "SMD_solvation_energy": 6.01 
		},
		"coords": [
			{
				"x": 1.716351172,
				"y": -1.850470538,
				"z": -3.7462465353,
				"element": "C" 
			},
			{
				"x": 2.7119451217,
				"y": -1.4593939981,
				"z": -2.6449145302,
				"element": "C" 
			},
			{
				"x": 3.0515407686,
				"y": 0.0360143761,
				"z": -2.6946820315,
				"element": "C" 
			},
			{
				"x": 2.2251322071,
				"y": -1.8917061618,
				"z": -1.2458699615,
				"element": "C" 
			},
			{
				"x": 1.0004156361,
				"y": -1.2294227886,
				"z": -0.8028768076,
				"element": "N" 
			},
			{
				"x": 1.0093132059,
				"y": -0.3184371294,
				"z": 0.2233257054,
				"element": "C" 
			},
			{
				"x": 2.0500671669,
				"y": 0.0750301356,
				"z": 0.7441506629,
				"element": "O" 
			},
			{
				"x": -0.3349890772,
				"y": 0.1552987778,
				"z": 0.7223197379,
				"element": "C" 
			},
			{
				"x": -1.5423003694,
				"y": 0.1533325305,
				"z": -0.0160914011,
				"element": "C" 
			},
			{
				"x": -1.6007698702,
				"y": -0.2924564705,
				"z": -1.3506664545,
				"element": "N" 
			},
			{
				"x": -2.7217018563,
				"y": 0.5744307489,
				"z": 0.6203284882,
				"element": "C" 
			},
			{
				"x": -2.7231462218,
				"y": 1.001380212,
				"z": 1.9430156809,
				"element": "C" 
			},
			{
				"x": -1.5197885699,
				"y": 1.035042611,
				"z": 2.6478106196,
				"element": "C" 
			},
			{
				"x": -1.5025918985,
				"y": 1.5995545717,
				"z": 4.3137414157,
				"element": "Cl" 
			},
			{
				"x": -0.3400516886,
				"y": 0.6258926515,
				"z": 2.0427700095,
				"element": "C" 
			},
			{
				"x": 2.1017927723,
				"y": -1.589784437,
				"z": -4.7373814374,
				"element": "H" 
			},
			{
				"x": 0.760602666,
				"y": -1.3267617163,
				"z": -3.6210316565,
				"element": "H" 
			},
			{
				"x": 1.5099669615,
				"y": -2.926975944,
				"z": -3.7404333366,
				"element": "H" 
			},
			{
				"x": 3.6393515535,
				"y": -2.0251931331,
				"z": -2.8168397788,
				"element": "H" 
			},
			{
				"x": 3.475379947,
				"y": 0.3082764294,
				"z": -3.6671489249,
				"element": "H" 
			},
			{
				"x": 3.7705794868,
				"y": 0.308700717,
				"z": -1.9166373315,
				"element": "H" 
			},
			{
				"x": 2.1554085739,
				"y": 0.6469732152,
				"z": -2.539616738,
				"element": "H" 
			},
			{
				"x": 2.9903863082,
				"y": -1.663862449,
				"z": -0.500501185,
				"element": "H" 
			},
			{
				"x": 2.053306639,
				"y": -2.9754097165,
				"z": -1.238061027,
				"element": "H" 
			},
			{
				"x": 0.1087530283,
				"y": -1.6262324798,
				"z": -1.0697228329,
				"element": "H" 
			},
			{
				"x": -0.8287152557,
				"y": 0.0267103145,
				"z": -1.9248969117,
				"element": "H" 
			},
			{
				"x": -2.4850839076,
				"y": -0.0836794199,
				"z": -1.7978208662,
				"element": "H" 
			},
			{
				"x": -3.6534967631,
				"y": 0.5749004567,
				"z": 0.0598956012,
				"element": "H" 
			},
			{
				"x": -3.6449493349,
				"y": 1.3209669197,
				"z": 2.4165698332,
				"element": "H" 
			},
			{
				"x": 0.6044915982,
				"y": 0.6522817149,
				"z": 2.5730119936,
				"element": "H" 
			}
		],
		 "valence_orbital": [ 
			{
				"type": "occ",
				"energy": -0.29948,
				"method": "rhf"
			},
			{
				"type": "occ",
				"energy": -0.26604,
				"method": "rhf"
			},
			{
				"type": "occ",
				"energy": -0.25203,
				"method": "rhf"
			},
			{
				"type": "occ",
				"energy": -0.24944,
				"method": "rhf"
			},
			{
				"type": "occ",
				"energy": -0.22026,
				"method": "rhf"
			},
			{
				"type": "unocc",
				"energy": -0.03752,
				"method": "rhf"
			},
			{
				"type": "unocc",
				"energy": -0.00507,
				"method": "rhf"
			},
			{
				"type": "unocc",
				"energy": 0.03319,
				"method": "rhf"
			},
			{
				"type": "unocc",
				"energy": 0.05038,
				"method": "rhf"
			},
			{
				"type": "unocc",
				"energy": 0.05875,
				"method": "rhf"
			}
		],
		"cosmo_sigma_profile": { 
			"-0.025": 0.0,
			"-0.024": 0.0,
			"-0.023": 0.0,
			"-0.022": 0.0,
			"-0.021": 0.0,
			"-0.02": 0.0,
			"-0.019": 0.0,
			"-0.018": 0.0,
			"-0.017": 0.0,
			"-0.016": 0.0,
			"-0.015": 0.0,
			"-0.014": 0.053507205238,
			"-0.013": 1.33112368177,
			"-0.012": 1.76058515583,
			"-0.011": 2.34319423885,
			"-0.01": 3.11149882743,
			"-0.009": 3.95836502909,
			"-0.008": 4.414920268,
			"-0.007": 6.29909549664,
			"-0.006": 8.81493036438,
			"-0.005": 10.2134633733,
			"-0.004": 11.1962144325,
			"-0.003": 18.5623734259,
			"-0.002": 27.2020662595,
			"-0.001": 27.2970492041,
			"0.0": 24.5036367793,
			"0.001": 25.8652400403,
			"0.002": 24.4402885517,
			"0.003": 21.3954377918,
			"0.004": 15.4855578961,
			"0.005": 12.7185150485,
			"0.006": 3.44712908658,
			"0.007": 2.74849460303,
			"0.008": 2.14071884857,
			"0.009": 2.20957229663,
			"0.01": 2.2263423607,
			"0.011": 1.23868830182,
			"0.012": 1.8564119167,
			"0.013": 2.59486743833,
			"0.014": 4.00668884854,
			"0.015": 0.168657848821,
			"0.016": 0.0,
			"0.017": 0.0,
			"0.018": 0.0,
			"0.019": 0.0,
			"0.02": 0.0,
			"0.021": 0.0,
			"0.022": 0.0,
			"0.023": 0.0,
			"0.024": 0.0,
			"0.025": 0.0
		}
	}
}
