{
	 "smiles": "FC(F)(F)C1=C2NC(=O)C(=O)C2=CC=C1", 
	 "Tm": 461.15, 
	 "num_atms": 19, 
	 "gaussian": { 
		 "optdone": 1, 
		 "sigma_profile": "yes", 
		 "theory": "DFT", 
		 "functional": "B3LYP", 
		 "basiset": "6-31G**", 
		 "properties": { 
			 "R2extent": 3624.9959, 
			 "electric_dipole_moment_norm": 4.54932726675, 
			 "electric_quadrupole_moment_norm": 20.2438234472, 
			 "total_energy": -850.09373518, 
			 "HOMO_LUMO_gap": 0.1453, 
			 "cosmo_polarized_energy": -13.1, 
			 "cosmo_cavitation_energy": 25.94, 
			 "cosmo_dispersion_energy": -18.61, 
			 "cosmo_repulsion_energy": 1.38, 
			 "cosmo_total_nonelectrostatic_energy": 8.71, 
			 "SMD_solvation_energy": 6.79 
		},
		"coords": [
			{
				"x": -2.0272969625,
				"y": -2.2156794518,
				"z": 0.6440614124,
				"element": "F" 
			},
			{
				"x": -2.4088733548,
				"y": -0.9863943281,
				"z": 0.2390856745,
				"element": "C" 
			},
			{
				"x": -3.0585426928,
				"y": -0.4067297936,
				"z": 1.2824099233,
				"element": "F" 
			},
			{
				"x": -3.3169568027,
				"y": -1.1647440483,
				"z": -0.7429129433,
				"element": "F" 
			},
			{
				"x": -1.2374202298,
				"y": -0.1708459162,
				"z": -0.2322941158,
				"element": "C" 
			},
			{
				"x": -0.8486278224,
				"y": 1.0459198268,
				"z": 0.3285830499,
				"element": "C" 
			},
			{
				"x": -1.4053446963,
				"y": 1.763439951,
				"z": 1.3906224231,
				"element": "N" 
			},
			{
				"x": -0.7185531095,
				"y": 2.9439026333,
				"z": 1.6469468596,
				"element": "C" 
			},
			{
				"x": -0.9698417579,
				"y": 3.7613093463,
				"z": 2.5007465603,
				"element": "O" 
			},
			{
				"x": 0.43899122,
				"y": 2.9735468357,
				"z": 0.5924352034,
				"element": "C" 
			},
			{
				"x": 1.2634806817,
				"y": 3.8546170938,
				"z": 0.4934926331,
				"element": "O" 
			},
			{
				"x": 0.2711745932,
				"y": 1.7359951186,
				"z": -0.18988427,
				"element": "C" 
			},
			{
				"x": 1.0066201111,
				"y": 1.2343761296,
				"z": -1.2542891048,
				"element": "C" 
			},
			{
				"x": 0.6219121769,
				"y": 0.0143945239,
				"z": -1.8213608557,
				"element": "C" 
			},
			{
				"x": -0.4814928546,
				"y": -0.6665458654,
				"z": -1.3112542778,
				"element": "C" 
			},
			{
				"x": -2.2131189893,
				"y": 1.4636442632,
				"z": 1.9149209073,
				"element": "H" 
			},
			{
				"x": 1.860810527,
				"y": 1.7921054175,
				"z": -1.626001031,
				"element": "H" 
			},
			{
				"x": 1.1758734363,
				"y": -0.4045241892,
				"z": -2.6542589528,
				"element": "H" 
			},
			{
				"x": -0.7773934737,
				"y": -1.6129875471,
				"z": -1.7535490956,
				"element": "H" 
			}
		],
		 "valence_orbital": [ 
			{
				"type": "occ",
				"energy": -0.34241,
				"method": "rhf"
			},
			{
				"type": "occ",
				"energy": -0.3203,
				"method": "rhf"
			},
			{
				"type": "occ",
				"energy": -0.29531,
				"method": "rhf"
			},
			{
				"type": "occ",
				"energy": -0.25697,
				"method": "rhf"
			},
			{
				"type": "occ",
				"energy": -0.25513,
				"method": "rhf"
			},
			{
				"type": "unocc",
				"energy": -0.10983,
				"method": "rhf"
			},
			{
				"type": "unocc",
				"energy": -0.04816,
				"method": "rhf"
			},
			{
				"type": "unocc",
				"energy": -0.00798,
				"method": "rhf"
			},
			{
				"type": "unocc",
				"energy": 0.06955,
				"method": "rhf"
			},
			{
				"type": "unocc",
				"energy": 0.07555,
				"method": "rhf"
			}
		],
		"cosmo_sigma_profile": { 
			"-0.025": 0.0,
			"-0.024": 0.0,
			"-0.023": 0.0,
			"-0.022": 0.0,
			"-0.021": 0.0,
			"-0.02": 0.0,
			"-0.019": 0.0,
			"-0.018": 0.0,
			"-0.017": 0.0,
			"-0.016": 0.0686254246208,
			"-0.015": 0.715077949913,
			"-0.014": 0.770191296845,
			"-0.013": 0.704491908991,
			"-0.012": 0.717216038158,
			"-0.011": 1.06783405214,
			"-0.01": 0.733110586514,
			"-0.009": 2.28947954122,
			"-0.008": 7.23510294705,
			"-0.007": 11.1926934871,
			"-0.006": 11.2041654262,
			"-0.005": 9.48062543292,
			"-0.004": 8.76650226982,
			"-0.003": 12.7682451708,
			"-0.002": 12.8500794913,
			"-0.001": 14.8957175559,
			"0.0": 17.2844195574,
			"0.001": 17.9421612074,
			"0.002": 28.7065005426,
			"0.003": 13.3289915626,
			"0.004": 1.81696371494,
			"0.005": 2.23211681358,
			"0.006": 2.66014156283,
			"0.007": 2.85746996724,
			"0.008": 4.03559477188,
			"0.009": 6.35370893632,
			"0.01": 8.91699748161,
			"0.011": 6.83896674169,
			"0.012": 1.54495853554,
			"0.013": 0.0,
			"0.014": 0.0,
			"0.015": 0.0,
			"0.016": 0.0,
			"0.017": 0.0,
			"0.018": 0.0,
			"0.019": 0.0,
			"0.02": 0.0,
			"0.021": 0.0,
			"0.022": 0.0,
			"0.023": 0.0,
			"0.024": 0.0,
			"0.025": 0.0
		}
	}
}
