{
	 "smiles": "OC(=O)C(CBr)CBr", 
	 "Tm": 373.15, 
	 "num_atms": 14, 
	 "gaussian": { 
		 "optdone": 1, 
		 "sigma_profile": "yes", 
		 "theory": "DFT", 
		 "functional": "B3LYP", 
		 "basiset": "6-31G**", 
		 "properties": { 
			 "R2extent": 3198.8554, 
			 "electric_dipole_moment_norm": 2.27729269309, 
			 "electric_quadrupole_moment_norm": 9.29928073993, 
			 "total_energy": -5449.3116877, 
			 "HOMO_LUMO_gap": 0.24609, 
			 "cosmo_polarized_energy": -11.79, 
			 "cosmo_cavitation_energy": 21.9, 
			 "cosmo_dispersion_energy": -16.94, 
			 "cosmo_repulsion_energy": 1.41, 
			 "cosmo_total_nonelectrostatic_energy": 6.37, 
			 "SMD_solvation_energy": 2.61 
		},
		"coords": [
			{
				"x": -0.6018813691,
				"y": -3.0502037434,
				"z": -0.8931198555,
				"element": "O" 
			},
			{
				"x": -1.3458837158,
				"y": -2.0447439622,
				"z": -0.4005821527,
				"element": "C" 
			},
			{
				"x": -2.5007131396,
				"y": -1.9111734617,
				"z": -0.7297589922,
				"element": "O" 
			},
			{
				"x": -0.6635732586,
				"y": -1.098551925,
				"z": 0.6127663488,
				"element": "C" 
			},
			{
				"x": -1.6808286309,
				"y": -0.0152871505,
				"z": 0.9941342633,
				"element": "C" 
			},
			{
				"x": -1.0725937621,
				"y": 1.0604446097,
				"z": 2.5380707999,
				"element": "Br" 
			},
			{
				"x": 0.6334839457,
				"y": -0.4656625275,
				"z": 0.0898373434,
				"element": "C" 
			},
			{
				"x": 2.1735178765,
				"y": -1.7227139224,
				"z": 0.1041535809,
				"element": "Br" 
			},
			{
				"x": 0.3175034016,
				"y": -3.00858268,
				"z": -0.5697635687,
				"element": "H" 
			},
			{
				"x": -0.4256776204,
				"y": -1.6824933305,
				"z": 1.5102189365,
				"element": "H" 
			},
			{
				"x": -2.6250706386,
				"y": -0.4634716591,
				"z": 1.2893820108,
				"element": "H" 
			},
			{
				"x": -1.860505266,
				"y": 0.6893892681,
				"z": 0.18327311,
				"element": "H" 
			},
			{
				"x": 0.9463995341,
				"y": 0.3495071964,
				"z": 0.7386101475,
				"element": "H" 
			},
			{
				"x": 0.5498226431,
				"y": -0.1172567119,
				"z": -0.939721972,
				"element": "H" 
			}
		],
		 "valence_orbital": [ 
			{
				"type": "occ",
				"energy": -0.31454,
				"method": "rhf"
			},
			{
				"type": "occ",
				"energy": -0.30786,
				"method": "rhf"
			},
			{
				"type": "occ",
				"energy": -0.29577,
				"method": "rhf"
			},
			{
				"type": "occ",
				"energy": -0.28901,
				"method": "rhf"
			},
			{
				"type": "occ",
				"energy": -0.28355,
				"method": "rhf"
			},
			{
				"type": "unocc",
				"energy": -0.03746,
				"method": "rhf"
			},
			{
				"type": "unocc",
				"energy": -0.01439,
				"method": "rhf"
			},
			{
				"type": "unocc",
				"energy": -0.00545,
				"method": "rhf"
			},
			{
				"type": "unocc",
				"energy": 0.0839,
				"method": "rhf"
			},
			{
				"type": "unocc",
				"energy": 0.09119,
				"method": "rhf"
			}
		],
		"cosmo_sigma_profile": { 
			"-0.025": 0.0,
			"-0.024": 0.0,
			"-0.023": 0.0,
			"-0.022": 0.0,
			"-0.021": 0.0,
			"-0.02": 0.0,
			"-0.019": 0.0,
			"-0.018": 0.0,
			"-0.017": 0.0,
			"-0.016": 0.0,
			"-0.015": 0.0,
			"-0.014": 0.0,
			"-0.013": 0.0196624924449,
			"-0.012": 0.323443061776,
			"-0.011": 1.20451233209,
			"-0.01": 3.99940333523,
			"-0.009": 6.66448270367,
			"-0.008": 8.06807293858,
			"-0.007": 8.58114470554,
			"-0.006": 10.1500554976,
			"-0.005": 9.07664671051,
			"-0.004": 8.91822179583,
			"-0.003": 10.0238985506,
			"-0.002": 8.95439848307,
			"-0.001": 10.0924461104,
			"0.0": 7.6138912097,
			"0.001": 8.70426800208,
			"0.002": 10.7466877719,
			"0.003": 11.8310863832,
			"0.004": 14.6752117118,
			"0.005": 11.5495974323,
			"0.006": 6.04967913247,
			"0.007": 2.61891803922,
			"0.008": 3.10036975722,
			"0.009": 3.51167340969,
			"0.01": 5.12300909073,
			"0.011": 4.81631085748,
			"0.012": 2.80550405331,
			"0.013": 0.540802366658,
			"0.014": 0.0,
			"0.015": 0.0,
			"0.016": 0.0,
			"0.017": 0.0,
			"0.018": 0.0,
			"0.019": 0.0,
			"0.02": 0.0,
			"0.021": 0.0,
			"0.022": 0.0,
			"0.023": 0.0,
			"0.024": 0.0,
			"0.025": 0.0
		}
	}
}
