{
	 "smiles": "NC1=C(C=O)C(Cl)=NC=N1", 
	 "Tm": 433.15, 
	 "num_atms": 14, 
	 "gaussian": { 
		 "optdone": 1, 
		 "sigma_profile": "yes", 
		 "theory": "DFT", 
		 "functional": "B3LYP", 
		 "basiset": "6-31G**", 
		 "properties": { 
			 "R2extent": 2419.061, 
			 "electric_dipole_moment_norm": 2.48196846676, 
			 "electric_quadrupole_moment_norm": 17.3236278799, 
			 "total_energy": -892.573763882, 
			 "HOMO_LUMO_gap": 0.16669, 
			 "cosmo_polarized_energy": -16.97, 
			 "cosmo_cavitation_energy": 20.87, 
			 "cosmo_dispersion_energy": -15.71, 
			 "cosmo_repulsion_energy": 1.27, 
			 "cosmo_total_nonelectrostatic_energy": 6.43, 
			 "SMD_solvation_energy": 1.64 
		},
		"coords": [
			{
				"x": -3.3138285395,
				"y": 0.5182803903,
				"z": 0.0769237773,
				"element": "N" 
			},
			{
				"x": -1.9791783667,
				"y": 0.2115635655,
				"z": -0.3342413798,
				"element": "C" 
			},
			{
				"x": -1.594213653,
				"y": -1.049841627,
				"z": -0.8630487364,
				"element": "C" 
			},
			{
				"x": -2.6047077292,
				"y": -2.1326906544,
				"z": -1.0121171013,
				"element": "C" 
			},
			{
				"x": -2.4051294372,
				"y": -3.2472572398,
				"z": -1.4471206147,
				"element": "O" 
			},
			{
				"x": -0.2295298302,
				"y": -1.1597371858,
				"z": -1.2118493908,
				"element": "C" 
			},
			{
				"x": 0.4385733481,
				"y": -2.6235501948,
				"z": -1.8757013225,
				"element": "Cl" 
			},
			{
				"x": 0.6375549093,
				"y": -0.169793602,
				"z": -1.0629420356,
				"element": "N" 
			},
			{
				"x": 0.1515038782,
				"y": 0.9662545189,
				"z": -0.555195587,
				"element": "C" 
			},
			{
				"x": -1.1054046398,
				"y": 1.2099637735,
				"z": -0.1839292616,
				"element": "N" 
			},
			{
				"x": -3.9762301829,
				"y": 0.4435835026,
				"z": -0.6893302096,
				"element": "H" 
			},
			{
				"x": -3.6309733512,
				"y": -0.0879505329,
				"z": 0.8275225267,
				"element": "H" 
			},
			{
				"x": -3.6183938258,
				"y": -1.8355680504,
				"z": -0.678313905,
				"element": "H" 
			},
			{
				"x": 0.8638574197,
				"y": 1.7793433364,
				"z": -0.4329567598,
				"element": "H" 
			}
		],
		 "valence_orbital": [ 
			{
				"type": "occ",
				"energy": -0.32094,
				"method": "rhf"
			},
			{
				"type": "occ",
				"energy": -0.29701,
				"method": "rhf"
			},
			{
				"type": "occ",
				"energy": -0.28976,
				"method": "rhf"
			},
			{
				"type": "occ",
				"energy": -0.28242,
				"method": "rhf"
			},
			{
				"type": "occ",
				"energy": -0.26474,
				"method": "rhf"
			},
			{
				"type": "unocc",
				"energy": -0.09805,
				"method": "rhf"
			},
			{
				"type": "unocc",
				"energy": -0.06252,
				"method": "rhf"
			},
			{
				"type": "unocc",
				"energy": 0.00117,
				"method": "rhf"
			},
			{
				"type": "unocc",
				"energy": 0.02305,
				"method": "rhf"
			},
			{
				"type": "unocc",
				"energy": 0.05398,
				"method": "rhf"
			}
		],
		"cosmo_sigma_profile": { 
			"-0.025": 0.0,
			"-0.024": 0.0,
			"-0.023": 0.0,
			"-0.022": 0.0,
			"-0.021": 0.0,
			"-0.02": 0.0,
			"-0.019": 0.0,
			"-0.018": 0.0,
			"-0.017": 0.0,
			"-0.016": 0.0,
			"-0.015": 0.0,
			"-0.014": 0.811228597409,
			"-0.013": 4.80436649484,
			"-0.012": 5.180657955,
			"-0.011": 4.68228199147,
			"-0.01": 2.65404390959,
			"-0.009": 4.7288138813,
			"-0.008": 5.43276009415,
			"-0.007": 3.93145762765,
			"-0.006": 6.72543107906,
			"-0.005": 8.79070294903,
			"-0.004": 11.4318547618,
			"-0.003": 10.3978731851,
			"-0.002": 7.98150958386,
			"-0.001": 7.38927575551,
			"0.0": 7.62492189911,
			"0.001": 7.77550862877,
			"0.002": 6.8438766999,
			"0.003": 10.6721974387,
			"0.004": 6.22360678217,
			"0.005": 5.52222369684,
			"0.006": 4.74873491068,
			"0.007": 3.93588316171,
			"0.008": 5.34970230655,
			"0.009": 5.4446745798,
			"0.01": 5.51009905979,
			"0.011": 6.07821751231,
			"0.012": 2.59763075052,
			"0.013": 1.6640864815,
			"0.014": 1.33763684258,
			"0.015": 1.10540855147,
			"0.016": 1.45212400079,
			"0.017": 1.15920509831,
			"0.018": 0.286399290699,
			"0.019": 0.0,
			"0.02": 0.0,
			"0.021": 0.0,
			"0.022": 0.0,
			"0.023": 0.0,
			"0.024": 0.0,
			"0.025": 0.0
		}
	}
}
