{
	 "smiles": "NC1=NC=C(F)C=C1", 
	 "Tm": 368.15, 
	 "num_atms": 13, 
	 "gaussian": { 
		 "optdone": 1, 
		 "sigma_profile": "yes", 
		 "theory": "DFT", 
		 "functional": "B3LYP", 
		 "basiset": "6-31G**", 
		 "properties": { 
			 "R2extent": 2523.1585, 
			 "electric_dipole_moment_norm": 2.69838818927, 
			 "electric_quadrupole_moment_norm": 6.92144654678, 
			 "total_energy": -402.881373523, 
			 "HOMO_LUMO_gap": 0.18755, 
			 "cosmo_polarized_energy": -8.69, 
			 "cosmo_cavitation_energy": 17.67, 
			 "cosmo_dispersion_energy": -13.29, 
			 "cosmo_repulsion_energy": 1.09, 
			 "cosmo_total_nonelectrostatic_energy": 5.47, 
			 "SMD_solvation_energy": 2.31 
		},
		"coords": [
			{
				"x": -0.5120675165,
				"y": 0.1600470716,
				"z": -0.0137332494,
				"element": "N" 
			},
			{
				"x": -0.3752287464,
				"y": 0.8320576838,
				"z": 1.1917511003,
				"element": "C" 
			},
			{
				"x": 0.5764624184,
				"y": 1.7756356245,
				"z": 1.2409619122,
				"element": "N" 
			},
			{
				"x": 0.785410625,
				"y": 2.4100304997,
				"z": 2.4005243388,
				"element": "C" 
			},
			{
				"x": 0.0486656243,
				"y": 2.136051052,
				"z": 3.5431232062,
				"element": "C" 
			},
			{
				"x": 0.2961751145,
				"y": 2.813370396,
				"z": 4.6860712273,
				"element": "F" 
			},
			{
				"x": -0.9486243199,
				"y": 1.1654007357,
				"z": 3.5068536599,
				"element": "C" 
			},
			{
				"x": -1.1655270332,
				"y": 0.4953924355,
				"z": 2.3115016457,
				"element": "C" 
			},
			{
				"x": -0.0706704844,
				"y": 0.6351950598,
				"z": -0.7890391016,
				"element": "H" 
			},
			{
				"x": -1.4257182157,
				"y": -0.2139009213,
				"z": -0.2242202723,
				"element": "H" 
			},
			{
				"x": 1.5630915648,
				"y": 3.1703325443,
				"z": 2.4237358553,
				"element": "H" 
			},
			{
				"x": -1.5293306709,
				"y": 0.9472974231,
				"z": 4.3971734242,
				"element": "H" 
			},
			{
				"x": -1.9236383599,
				"y": -0.2785096046,
				"z": 2.2391962533,
				"element": "H" 
			}
		],
		 "valence_orbital": [ 
			{
				"type": "occ",
				"energy": -0.37596,
				"method": "rhf"
			},
			{
				"type": "occ",
				"energy": -0.31083,
				"method": "rhf"
			},
			{
				"type": "occ",
				"energy": -0.28553,
				"method": "rhf"
			},
			{
				"type": "occ",
				"energy": -0.26129,
				"method": "rhf"
			},
			{
				"type": "occ",
				"energy": -0.21166,
				"method": "rhf"
			},
			{
				"type": "unocc",
				"energy": -0.02411,
				"method": "rhf"
			},
			{
				"type": "unocc",
				"energy": 0.01268,
				"method": "rhf"
			},
			{
				"type": "unocc",
				"energy": 0.08091,
				"method": "rhf"
			},
			{
				"type": "unocc",
				"energy": 0.10104,
				"method": "rhf"
			},
			{
				"type": "unocc",
				"energy": 0.13232,
				"method": "rhf"
			}
		],
		"cosmo_sigma_profile": { 
			"-0.025": 0.0,
			"-0.024": 0.0,
			"-0.023": 0.0,
			"-0.022": 0.0,
			"-0.021": 0.0,
			"-0.02": 0.0,
			"-0.019": 0.0,
			"-0.018": 0.0,
			"-0.017": 0.0,
			"-0.016": 0.0,
			"-0.015": 0.0,
			"-0.014": 0.0283619827275,
			"-0.013": 1.2124433591,
			"-0.012": 2.30093248364,
			"-0.011": 2.64680700399,
			"-0.01": 2.34262986357,
			"-0.009": 2.65524359223,
			"-0.008": 4.74467814925,
			"-0.007": 6.05857985574,
			"-0.006": 6.75228742807,
			"-0.005": 7.321209003,
			"-0.004": 5.36072135892,
			"-0.003": 4.89962059079,
			"-0.002": 5.35781725131,
			"-0.001": 4.80834872959,
			"0.0": 9.73672302371,
			"0.001": 13.021220645,
			"0.002": 13.8910457144,
			"0.003": 10.470078107,
			"0.004": 12.3256444336,
			"0.005": 8.37926644695,
			"0.006": 2.47809159502,
			"0.007": 2.42090033457,
			"0.008": 2.03504601842,
			"0.009": 2.01223223101,
			"0.01": 2.29011027545,
			"0.011": 1.22884041139,
			"0.012": 1.34931366142,
			"0.013": 1.52995418506,
			"0.014": 0.824973109542,
			"0.015": 0.708463671402,
			"0.016": 0.173782924034,
			"0.017": 0.0,
			"0.018": 0.0,
			"0.019": 0.0,
			"0.02": 0.0,
			"0.021": 0.0,
			"0.022": 0.0,
			"0.023": 0.0,
			"0.024": 0.0,
			"0.025": 0.0
		}
	}
}
