{
	 "smiles": "CC(C)(C)C1=NN=C(N)O1", 
	 "Tm": 500.15, 
	 "num_atms": 21, 
	 "gaussian": { 
		 "optdone": 1, 
		 "sigma_profile": "yes", 
		 "theory": "DFT", 
		 "functional": "B3LYP", 
		 "basiset": "6-31G**", 
		 "properties": { 
			 "R2extent": 1736.3741, 
			 "electric_dipole_moment_norm": 3.86423345439, 
			 "electric_quadrupole_moment_norm": 15.1325243053, 
			 "total_energy": -474.733093914, 
			 "HOMO_LUMO_gap": 0.24348, 
			 "cosmo_polarized_energy": -14.82, 
			 "cosmo_cavitation_energy": 24.15, 
			 "cosmo_dispersion_energy": -17.37, 
			 "cosmo_repulsion_energy": 1.43, 
			 "cosmo_total_nonelectrostatic_energy": 8.22, 
			 "SMD_solvation_energy": 2.91 
		},
		"coords": [
			{
				"x": 1.6216794093,
				"y": -1.1560202067,
				"z": -0.3183536329,
				"element": "C" 
			},
			{
				"x": 0.2186062984,
				"y": -0.7361110548,
				"z": 0.1787348481,
				"element": "C" 
			},
			{
				"x": 0.180442543,
				"y": -0.7399419521,
				"z": 1.7172607599,
				"element": "C" 
			},
			{
				"x": -0.8432281063,
				"y": -1.7115011122,
				"z": -0.3806541518,
				"element": "C" 
			},
			{
				"x": -0.0822335321,
				"y": 0.6545401098,
				"z": -0.3080300626,
				"element": "C" 
			},
			{
				"x": -0.3414961564,
				"y": 1.7296749923,
				"z": 0.3546930132,
				"element": "N" 
			},
			{
				"x": -0.5658407636,
				"y": 2.7568511021,
				"z": -0.5798957609,
				"element": "N" 
			},
			{
				"x": -0.4046797722,
				"y": 2.2007822724,
				"z": -1.7416410845,
				"element": "C" 
			},
			{
				"x": -0.4351898239,
				"y": 2.7857313327,
				"z": -2.9809839734,
				"element": "N" 
			},
			{
				"x": -0.101258003,
				"y": 0.8787067265,
				"z": -1.6766837992,
				"element": "O" 
			},
			{
				"x": 1.6779832136,
				"y": -1.1428808728,
				"z": -1.4108398114,
				"element": "H" 
			},
			{
				"x": 1.8489737421,
				"y": -2.1714157575,
				"z": 0.0227533914,
				"element": "H" 
			},
			{
				"x": 2.3933202329,
				"y": -0.4849698168,
				"z": 0.0716939954,
				"element": "H" 
			},
			{
				"x": 0.9170416403,
				"y": -0.0474076298,
				"z": 2.1325152188,
				"element": "H" 
			},
			{
				"x": 0.4006654712,
				"y": -1.7469157747,
				"z": 2.0861924914,
				"element": "H" 
			},
			{
				"x": -0.8023046212,
				"y": -0.4391270277,
				"z": 2.0893667319,
				"element": "H" 
			},
			{
				"x": -0.8456035798,
				"y": -1.7134337421,
				"z": -1.4747588827,
				"element": "H" 
			},
			{
				"x": -1.846205548,
				"y": -1.4405597733,
				"z": -0.0359781767,
				"element": "H" 
			},
			{
				"x": -0.6298096253,
				"y": -2.7297725355,
				"z": -0.039323155,
				"element": "H" 
			},
			{
				"x": -0.8547891923,
				"y": 3.7054251969,
				"z": -2.967850937,
				"element": "H" 
			},
			{
				"x": -0.7737738268,
				"y": 2.1945455235,
				"z": -3.7280170221,
				"element": "H" 
			}
		],
		 "valence_orbital": [ 
			{
				"type": "occ",
				"energy": -0.33284,
				"method": "rhf"
			},
			{
				"type": "occ",
				"energy": -0.32727,
				"method": "rhf"
			},
			{
				"type": "occ",
				"energy": -0.30316,
				"method": "rhf"
			},
			{
				"type": "occ",
				"energy": -0.26373,
				"method": "rhf"
			},
			{
				"type": "occ",
				"energy": -0.22838,
				"method": "rhf"
			},
			{
				"type": "unocc",
				"energy": 0.0151,
				"method": "rhf"
			},
			{
				"type": "unocc",
				"energy": 0.05519,
				"method": "rhf"
			},
			{
				"type": "unocc",
				"energy": 0.0716,
				"method": "rhf"
			},
			{
				"type": "unocc",
				"energy": 0.08308,
				"method": "rhf"
			},
			{
				"type": "unocc",
				"energy": 0.11871,
				"method": "rhf"
			}
		],
		"cosmo_sigma_profile": { 
			"-0.025": 0.0,
			"-0.024": 0.0,
			"-0.023": 0.0,
			"-0.022": 0.0,
			"-0.021": 0.0,
			"-0.02": 0.0,
			"-0.019": 0.0,
			"-0.018": 0.0,
			"-0.017": 0.0,
			"-0.016": 0.00106521845317,
			"-0.015": 1.37963687902,
			"-0.014": 2.86608497593,
			"-0.013": 2.6802248112,
			"-0.012": 2.03583152499,
			"-0.011": 2.38791483923,
			"-0.01": 2.16075092848,
			"-0.009": 1.82045336135,
			"-0.008": 2.19898691977,
			"-0.007": 1.64766557434,
			"-0.006": 1.15269696427,
			"-0.005": 1.54042309397,
			"-0.004": 10.7771494637,
			"-0.003": 24.2708089907,
			"-0.002": 22.5948616999,
			"-0.001": 20.0169217593,
			"0.0": 24.8829682833,
			"0.001": 16.0083432372,
			"0.002": 5.757191615,
			"0.003": 4.19177832088,
			"0.004": 4.89741847032,
			"0.005": 4.12942884037,
			"0.006": 1.70934231088,
			"0.007": 2.57036893946,
			"0.008": 2.18224040815,
			"0.009": 3.12305774433,
			"0.01": 2.80041689491,
			"0.011": 2.71239562198,
			"0.012": 3.51949640645,
			"0.013": 3.22405689577,
			"0.014": 2.76636614016,
			"0.015": 2.65809336794,
			"0.016": 1.83295604105,
			"0.017": 0.248894319307,
			"0.018": 0.0,
			"0.019": 0.0,
			"0.02": 0.0,
			"0.021": 0.0,
			"0.022": 0.0,
			"0.023": 0.0,
			"0.024": 0.0,
			"0.025": 0.0
		}
	}
}
