{
	 "smiles": "CC(Cl)C(O)=O", 
	 "Tm": 277.15, 
	 "num_atms": 11, 
	 "gaussian": { 
		 "optdone": 1, 
		 "sigma_profile": "yes", 
		 "theory": "DFT", 
		 "functional": "B3LYP", 
		 "basiset": "6-31G**", 
		 "properties": { 
			 "R2extent": 1152.927, 
			 "electric_dipole_moment_norm": 2.51792108296, 
			 "electric_quadrupole_moment_norm": 11.0722344917, 
			 "total_energy": -727.98555938, 
			 "HOMO_LUMO_gap": 0.27529, 
			 "cosmo_polarized_energy": -9.48, 
			 "cosmo_cavitation_energy": 16.42, 
			 "cosmo_dispersion_energy": -12.46, 
			 "cosmo_repulsion_energy": 1.09, 
			 "cosmo_total_nonelectrostatic_energy": 5.05, 
			 "SMD_solvation_energy": 4.04 
		},
		"coords": [
			{
				"x": -1.3201927992,
				"y": -0.6562886149,
				"z": 0.0374784022,
				"element": "C" 
			},
			{
				"x": -0.101673445,
				"y": -0.2962272985,
				"z": -0.8045500485,
				"element": "C" 
			},
			{
				"x": 0.1150117338,
				"y": 1.5288540674,
				"z": -0.8709170193,
				"element": "Cl" 
			},
			{
				"x": -0.1745185524,
				"y": -0.9391070018,
				"z": -2.2037585577,
				"element": "C" 
			},
			{
				"x": -0.0444972736,
				"y": -0.1594235497,
				"z": -3.2841668881,
				"element": "O" 
			},
			{
				"x": -0.3358012464,
				"y": -2.132266634,
				"z": -2.2851554781,
				"element": "O" 
			},
			{
				"x": -1.4129571493,
				"y": -1.7449067931,
				"z": 0.0531118935,
				"element": "H" 
			},
			{
				"x": -2.2320096483,
				"y": -0.2323238071,
				"z": -0.3909030944,
				"element": "H" 
			},
			{
				"x": -1.2049280838,
				"y": -0.287858758,
				"z": 1.0586392262,
				"element": "H" 
			},
			{
				"x": 0.8141545851,
				"y": -0.6627246407,
				"z": -0.3361413645,
				"element": "H" 
			},
			{
				"x": 0.0718118791,
				"y": 0.7666730304,
				"z": -3.0088370712,
				"element": "H" 
			}
		],
		 "valence_orbital": [ 
			{
				"type": "occ",
				"energy": -0.38043,
				"method": "rhf"
			},
			{
				"type": "occ",
				"energy": -0.34535,
				"method": "rhf"
			},
			{
				"type": "occ",
				"energy": -0.33397,
				"method": "rhf"
			},
			{
				"type": "occ",
				"energy": -0.31935,
				"method": "rhf"
			},
			{
				"type": "occ",
				"energy": -0.28308,
				"method": "rhf"
			},
			{
				"type": "unocc",
				"energy": -0.00779,
				"method": "rhf"
			},
			{
				"type": "unocc",
				"energy": -0.00592,
				"method": "rhf"
			},
			{
				"type": "unocc",
				"energy": 0.07779,
				"method": "rhf"
			},
			{
				"type": "unocc",
				"energy": 0.10814,
				"method": "rhf"
			},
			{
				"type": "unocc",
				"energy": 0.12386,
				"method": "rhf"
			}
		],
		"cosmo_sigma_profile": { 
			"-0.025": 0.0,
			"-0.024": 0.0,
			"-0.023": 0.0,
			"-0.022": 0.0,
			"-0.021": 0.0,
			"-0.02": 0.0,
			"-0.019": 0.0,
			"-0.018": 0.0,
			"-0.017": 0.0,
			"-0.016": 0.00373184606562,
			"-0.015": 0.464504805647,
			"-0.014": 0.518902928553,
			"-0.013": 0.538034142131,
			"-0.012": 0.822309743298,
			"-0.011": 1.06363763231,
			"-0.01": 2.49353334048,
			"-0.009": 4.11103165949,
			"-0.008": 4.99570174155,
			"-0.007": 5.06503465396,
			"-0.006": 4.60760778113,
			"-0.005": 8.75280959524,
			"-0.004": 7.71696150291,
			"-0.003": 8.12542350372,
			"-0.002": 9.37486853726,
			"-0.001": 9.37082115562,
			"0.0": 6.36792959589,
			"0.001": 6.73345140675,
			"0.002": 5.22177063839,
			"0.003": 5.91513522332,
			"0.004": 7.33832485544,
			"0.005": 7.36020167094,
			"0.006": 2.56134953932,
			"0.007": 2.48072628514,
			"0.008": 3.26743459996,
			"0.009": 4.98045960087,
			"0.01": 3.54781492219,
			"0.011": 5.3696622469,
			"0.012": 2.54391599106,
			"0.013": 0.180104232465,
			"0.014": 0.0,
			"0.015": 0.0,
			"0.016": 0.0,
			"0.017": 0.0,
			"0.018": 0.0,
			"0.019": 0.0,
			"0.02": 0.0,
			"0.021": 0.0,
			"0.022": 0.0,
			"0.023": 0.0,
			"0.024": 0.0,
			"0.025": 0.0
		}
	}
}
