{
	 "smiles": "OC(=O)C(CC1=CC=CC=C1)NC(=O)C1=CC=CS1", 
	 "Tm": 476.15, 
	 "num_atms": 32, 
	 "gaussian": { 
		 "optdone": 1, 
		 "sigma_profile": "yes", 
		 "theory": "DFT", 
		 "functional": "B3LYP", 
		 "basiset": "6-31G**", 
		 "properties": { 
			 "R2extent": 8145.2264, 
			 "electric_dipole_moment_norm": 5.85284580866, 
			 "electric_quadrupole_moment_norm": 26.0852991731, 
			 "total_energy": -1219.95761486, 
			 "HOMO_LUMO_gap": 0.17197, 
			 "cosmo_polarized_energy": -17.71, 
			 "cosmo_cavitation_energy": 37.91, 
			 "cosmo_dispersion_energy": -27.48, 
			 "cosmo_repulsion_energy": 2.06, 
			 "cosmo_total_nonelectrostatic_energy": 12.49, 
			 "SMD_solvation_energy": 7.25 
		},
		"coords": [
			{
				"x": 0.5159064972,
				"y": 2.8860414224,
				"z": -1.8999625126,
				"element": "O" 
			},
			{
				"x": 1.2092092667,
				"y": 2.2461569731,
				"z": -0.9535616467,
				"element": "C" 
			},
			{
				"x": 2.3388329774,
				"y": 2.5635076557,
				"z": -0.6551963116,
				"element": "O" 
			},
			{
				"x": 0.4417738252,
				"y": 1.0881556763,
				"z": -0.2612474439,
				"element": "C" 
			},
			{
				"x": 1.3546808698,
				"y": 0.2320499541,
				"z": 0.6340699437,
				"element": "C" 
			},
			{
				"x": 2.2026825946,
				"y": -0.7585640159,
				"z": -0.1420769923,
				"element": "C" 
			},
			{
				"x": 1.722182189,
				"y": -2.0540661555,
				"z": -0.3800105587,
				"element": "C" 
			},
			{
				"x": 2.4795573283,
				"y": -2.9778251194,
				"z": -1.1009947012,
				"element": "C" 
			},
			{
				"x": 3.7347306805,
				"y": -2.6172406441,
				"z": -1.5942480412,
				"element": "C" 
			},
			{
				"x": 4.2230465861,
				"y": -1.3302317622,
				"z": -1.362001422,
				"element": "C" 
			},
			{
				"x": 3.4637144782,
				"y": -0.4061776963,
				"z": -0.6423386586,
				"element": "C" 
			},
			{
				"x": -0.677010227,
				"y": 1.6306345037,
				"z": 0.5231731628,
				"element": "N" 
			},
			{
				"x": -1.8396769756,
				"y": 2.0319081259,
				"z": -0.0596455316,
				"element": "C" 
			},
			{
				"x": -1.9690723302,
				"y": 2.0639982616,
				"z": -1.2955124163,
				"element": "O" 
			},
			{
				"x": -2.9540786892,
				"y": 2.4233813023,
				"z": 0.8232148146,
				"element": "C" 
			},
			{
				"x": -4.0789995527,
				"y": 3.0956906123,
				"z": 0.4067550349,
				"element": "C" 
			},
			{
				"x": -4.9940146016,
				"y": 3.3600429024,
				"z": 1.4616710549,
				"element": "C" 
			},
			{
				"x": -4.5591919602,
				"y": 2.8823455023,
				"z": 2.6706093894,
				"element": "C" 
			},
			{
				"x": -3.0270105977,
				"y": 2.0905180105,
				"z": 2.5394690029,
				"element": "S" 
			},
			{
				"x": -0.4164448023,
				"y": 2.5526974157,
				"z": -1.9210833245,
				"element": "H" 
			},
			{
				"x": -0.00434167,
				"y": 0.4656194699,
				"z": -1.0445977532,
				"element": "H" 
			},
			{
				"x": 1.9934875315,
				"y": 0.903124996,
				"z": 1.2169515956,
				"element": "H" 
			},
			{
				"x": 0.7123018385,
				"y": -0.3184500108,
				"z": 1.3307209378,
				"element": "H" 
			},
			{
				"x": 0.7486526564,
				"y": -2.3446156904,
				"z": 0.009361123,
				"element": "H" 
			},
			{
				"x": 2.0920055779,
				"y": -3.9782786033,
				"z": -1.2720568752,
				"element": "H" 
			},
			{
				"x": 4.3284153435,
				"y": -3.3349064498,
				"z": -2.1533157701,
				"element": "H" 
			},
			{
				"x": 5.199174917,
				"y": -1.0420111879,
				"z": -1.7419761764,
				"element": "H" 
			},
			{
				"x": 3.835992113,
				"y": 0.5990971036,
				"z": -0.4758588903,
				"element": "H" 
			},
			{
				"x": -0.5202189429,
				"y": 1.8063421621,
				"z": 1.5061436081,
				"element": "H" 
			},
			{
				"x": -4.2186953294,
				"y": 3.3833804943,
				"z": -0.6279120183,
				"element": "H" 
			},
			{
				"x": -5.9350212425,
				"y": 3.8815165393,
				"z": 1.3321964131,
				"element": "H" 
			},
			{
				"x": -5.0540703499,
				"y": 2.9363582521,
				"z": 3.630660964,
				"element": "H" 
			}
		],
		 "valence_orbital": [ 
			{
				"type": "occ",
				"energy": -0.27755,
				"method": "rhf"
			},
			{
				"type": "occ",
				"energy": -0.26559,
				"method": "rhf"
			},
			{
				"type": "occ",
				"energy": -0.25498,
				"method": "rhf"
			},
			{
				"type": "occ",
				"energy": -0.2464,
				"method": "rhf"
			},
			{
				"type": "occ",
				"energy": -0.24026,
				"method": "rhf"
			},
			{
				"type": "unocc",
				"energy": -0.06829,
				"method": "rhf"
			},
			{
				"type": "unocc",
				"energy": -0.00344,
				"method": "rhf"
			},
			{
				"type": "unocc",
				"energy": -0.00311,
				"method": "rhf"
			},
			{
				"type": "unocc",
				"energy": 0.00156,
				"method": "rhf"
			},
			{
				"type": "unocc",
				"energy": 0.01121,
				"method": "rhf"
			}
		],
		"cosmo_sigma_profile": { 
			"-0.025": 0.0,
			"-0.024": 0.0,
			"-0.023": 0.0,
			"-0.022": 0.0,
			"-0.021": 0.0,
			"-0.02": 0.0,
			"-0.019": 0.0,
			"-0.018": 0.0,
			"-0.017": 0.0,
			"-0.016": 0.0367785133216,
			"-0.015": 0.751866750646,
			"-0.014": 0.857404664335,
			"-0.013": 1.07757767678,
			"-0.012": 1.64184908113,
			"-0.011": 1.13162302411,
			"-0.01": 2.25495450192,
			"-0.009": 3.79928813111,
			"-0.008": 5.36503607073,
			"-0.007": 8.24783312243,
			"-0.006": 12.1399692875,
			"-0.005": 23.4158056037,
			"-0.004": 23.4032873054,
			"-0.003": 23.7726921556,
			"-0.002": 21.8807370303,
			"-0.001": 18.9114071031,
			"0.0": 19.6376065084,
			"0.001": 20.7635927662,
			"0.002": 22.6151260184,
			"0.003": 22.8074721425,
			"0.004": 14.7890997753,
			"0.005": 12.0479557969,
			"0.006": 11.6833349504,
			"0.007": 5.18936717352,
			"0.008": 4.04750534476,
			"0.009": 3.68022349034,
			"0.01": 5.65474421602,
			"0.011": 7.10355220901,
			"0.012": 4.60336759941,
			"0.013": 1.89419497319,
			"0.014": 0.0304908924829,
			"0.015": 0.0,
			"0.016": 0.0,
			"0.017": 0.0,
			"0.018": 0.0,
			"0.019": 0.0,
			"0.02": 0.0,
			"0.021": 0.0,
			"0.022": 0.0,
			"0.023": 0.0,
			"0.024": 0.0,
			"0.025": 0.0
		}
	}
}
