{
	 "smiles": "NC1=NC(=CN=N1)C1=C(F)C=CC=C1", 
	 "Tm": 478.15, 
	 "num_atms": 21, 
	 "gaussian": { 
		 "optdone": 1, 
		 "sigma_profile": "yes", 
		 "theory": "DFT", 
		 "functional": "B3LYP", 
		 "basiset": "6-31G**", 
		 "properties": { 
			 "R2extent": 3157.7277, 
			 "electric_dipole_moment_norm": 4.40392698509, 
			 "electric_quadrupole_moment_norm": 14.9011775488, 
			 "total_energy": -665.989788137, 
			 "HOMO_LUMO_gap": 0.15091, 
			 "cosmo_polarized_energy": -12.7, 
			 "cosmo_cavitation_energy": 26.19, 
			 "cosmo_dispersion_energy": -19.69, 
			 "cosmo_repulsion_energy": 1.51, 
			 "cosmo_total_nonelectrostatic_energy": 8.01, 
			 "SMD_solvation_energy": 2.18 
		},
		"coords": [
			{
				"x": -3.5668088921,
				"y": 0.3164056705,
				"z": -2.0852041295,
				"element": "N" 
			},
			{
				"x": -2.8167706604,
				"y": -0.2401058463,
				"z": -1.0951988152,
				"element": "C" 
			},
			{
				"x": -1.4828179029,
				"y": -0.241056361,
				"z": -1.2494811053,
				"element": "N" 
			},
			{
				"x": -0.7738895937,
				"y": -0.7479413601,
				"z": -0.2359927893,
				"element": "C" 
			},
			{
				"x": -1.457650819,
				"y": -1.2449240944,
				"z": 0.8934662634,
				"element": "C" 
			},
			{
				"x": -2.7903992902,
				"y": -1.2307473029,
				"z": 0.9632255074,
				"element": "N" 
			},
			{
				"x": -3.5000583542,
				"y": -0.724661416,
				"z": -0.0314260703,
				"element": "N" 
			},
			{
				"x": 0.701168801,
				"y": -0.7711098003,
				"z": -0.4076510663,
				"element": "C" 
			},
			{
				"x": 1.6179696348,
				"y": -1.0500971109,
				"z": 0.6173200444,
				"element": "C" 
			},
			{
				"x": 1.1845535123,
				"y": -1.3104460346,
				"z": 1.872270332,
				"element": "F" 
			},
			{
				"x": 2.992970726,
				"y": -1.0629132641,
				"z": 0.4159189019,
				"element": "C" 
			},
			{
				"x": 3.49785186,
				"y": -0.789087848,
				"z": -0.852876858,
				"element": "C" 
			},
			{
				"x": 2.6194014784,
				"y": -0.5014155976,
				"z": -1.9015154549,
				"element": "C" 
			},
			{
				"x": 1.2480208721,
				"y": -0.4910714939,
				"z": -1.6753606628,
				"element": "C" 
			},
			{
				"x": -4.5612650336,
				"y": 0.1577521857,
				"z": -2.0557360045,
				"element": "H" 
			},
			{
				"x": -3.12318082,
				"y": 0.4991787136,
				"z": -2.9702053539,
				"element": "H" 
			},
			{
				"x": -0.9460714476,
				"y": -1.6744285972,
				"z": 1.7419921116,
				"element": "H" 
			},
			{
				"x": 3.6393356772,
				"y": -1.2837285399,
				"z": 1.2582330304,
				"element": "H" 
			},
			{
				"x": 4.5707353248,
				"y": -0.799530949,
				"z": -1.0190236204,
				"element": "H" 
			},
			{
				"x": 3.0044701111,
				"y": -0.2860310925,
				"z": -2.8931843923,
				"element": "H" 
			},
			{
				"x": 0.554434816,
				"y": -0.2642398612,
				"z": -2.4763698685,
				"element": "H" 
			}
		],
		 "valence_orbital": [ 
			{
				"type": "occ",
				"energy": -0.31203,
				"method": "rhf"
			},
			{
				"type": "occ",
				"energy": -0.26478,
				"method": "rhf"
			},
			{
				"type": "occ",
				"energy": -0.25805,
				"method": "rhf"
			},
			{
				"type": "occ",
				"energy": -0.2353,
				"method": "rhf"
			},
			{
				"type": "occ",
				"energy": -0.22436,
				"method": "rhf"
			},
			{
				"type": "unocc",
				"energy": -0.07345,
				"method": "rhf"
			},
			{
				"type": "unocc",
				"energy": -0.02362,
				"method": "rhf"
			},
			{
				"type": "unocc",
				"energy": -0.01141,
				"method": "rhf"
			},
			{
				"type": "unocc",
				"energy": 0.01913,
				"method": "rhf"
			},
			{
				"type": "unocc",
				"energy": 0.07994,
				"method": "rhf"
			}
		],
		"cosmo_sigma_profile": { 
			"-0.025": 0.0,
			"-0.024": 0.0,
			"-0.023": 0.0,
			"-0.022": 0.0,
			"-0.021": 0.0,
			"-0.02": 0.0,
			"-0.019": 0.0,
			"-0.018": 0.0,
			"-0.017": 0.0,
			"-0.016": 0.0,
			"-0.015": 0.0763079992554,
			"-0.014": 1.932987868,
			"-0.013": 1.97336902855,
			"-0.012": 2.26774049148,
			"-0.011": 1.17834935732,
			"-0.01": 2.73992699113,
			"-0.009": 2.27325794455,
			"-0.008": 2.64280786072,
			"-0.007": 5.45905355758,
			"-0.006": 8.99215655044,
			"-0.005": 10.9595130649,
			"-0.004": 10.9481191683,
			"-0.003": 11.770620648,
			"-0.002": 16.6356462285,
			"-0.001": 16.3904792902,
			"0.0": 19.874233011,
			"0.001": 16.1657729043,
			"0.002": 18.0752516961,
			"0.003": 20.0968779382,
			"0.004": 10.2795445449,
			"0.005": 4.46931056666,
			"0.006": 4.43024906276,
			"0.007": 3.19631969065,
			"0.008": 2.99026926636,
			"0.009": 2.24766135368,
			"0.01": 1.39790140276,
			"0.011": 2.09818321761,
			"0.012": 2.5133568564,
			"0.013": 3.15222289135,
			"0.014": 2.00661186605,
			"0.015": 1.92886813831,
			"0.016": 0.175809870959,
			"0.017": 0.0,
			"0.018": 0.0,
			"0.019": 0.0,
			"0.02": 0.0,
			"0.021": 0.0,
			"0.022": 0.0,
			"0.023": 0.0,
			"0.024": 0.0,
			"0.025": 0.0
		}
	}
}
