{
	 "smiles": "OC1CCN(CC1)S(=O)(=O)C1=C(SC=C1)C(O)=O", 
	 "Tm": 493.15, 
	 "num_atms": 31, 
	 "gaussian": { 
		 "optdone": 1, 
		 "sigma_profile": "yes", 
		 "theory": "DFT", 
		 "functional": "B3LYP", 
		 "basiset": "6-31G**", 
		 "properties": { 
			 "R2extent": 5810.448, 
			 "electric_dipole_moment_norm": 4.08270880789, 
			 "electric_quadrupole_moment_norm": 26.2619056512, 
			 "total_energy": -1616.04316414, 
			 "HOMO_LUMO_gap": 0.17024, 
			 "cosmo_polarized_energy": -23.91, 
			 "cosmo_cavitation_energy": 36.02, 
			 "cosmo_dispersion_energy": -26.56, 
			 "cosmo_repulsion_energy": 1.97, 
			 "cosmo_total_nonelectrostatic_energy": 11.42, 
			 "SMD_solvation_energy": 5.3 
		},
		"coords": [
			{
				"x": -2.2403127682,
				"y": -2.859914844,
				"z": -3.4718836854,
				"element": "O" 
			},
			{
				"x": -1.6278378403,
				"y": -2.2934703795,
				"z": -2.3180205499,
				"element": "C" 
			},
			{
				"x": -2.4286009965,
				"y": -1.0497952081,
				"z": -1.9416019443,
				"element": "C" 
			},
			{
				"x": -1.9425400496,
				"y": -0.4820556359,
				"z": -0.5977761667,
				"element": "C" 
			},
			{
				"x": -0.4744364174,
				"y": -0.626603098,
				"z": -0.5028049377,
				"element": "N" 
			},
			{
				"x": 0.2790662523,
				"y": -0.6662329723,
				"z": -1.7682211867,
				"element": "C" 
			},
			{
				"x": -0.1469292218,
				"y": -1.9169849384,
				"z": -2.563662536,
				"element": "C" 
			},
			{
				"x": 0.2547045772,
				"y": -0.2826973794,
				"z": 0.9414290772,
				"element": "S" 
			},
			{
				"x": -0.6027690816,
				"y": -0.8470095,
				"z": 1.9880969902,
				"element": "O" 
			},
			{
				"x": 1.6697602635,
				"y": -0.6296454322,
				"z": 0.8330456411,
				"element": "O" 
			},
			{
				"x": 0.1499323576,
				"y": 1.5040949965,
				"z": 1.2293737363,
				"element": "C" 
			},
			{
				"x": 1.0165164661,
				"y": 2.4701266607,
				"z": 0.763151985,
				"element": "C" 
			},
			{
				"x": 0.5869247574,
				"y": 4.0360206344,
				"z": 1.4136322075,
				"element": "S" 
			},
			{
				"x": -0.7395825159,
				"y": 3.368902108,
				"z": 2.2979297769,
				"element": "C" 
			},
			{
				"x": -0.8480766219,
				"y": 2.0195942005,
				"z": 2.1110218895,
				"element": "C" 
			},
			{
				"x": 2.1507688074,
				"y": 2.3582922076,
				"z": -0.2002273183,
				"element": "C" 
			},
			{
				"x": 3.2444797483,
				"y": 3.1024942362,
				"z": 0.097874446,
				"element": "O" 
			},
			{
				"x": 2.1073205973,
				"y": 1.7075843535,
				"z": -1.2142939444,
				"element": "O" 
			},
			{
				"x": -1.7470556051,
				"y": -3.65572675,
				"z": -3.7098007524,
				"element": "H" 
			},
			{
				"x": -1.6822190476,
				"y": -3.0020420437,
				"z": -1.4761167992,
				"element": "H" 
			},
			{
				"x": -3.491214212,
				"y": -1.2983492603,
				"z": -1.866767785,
				"element": "H" 
			},
			{
				"x": -2.3285715929,
				"y": -0.3082239258,
				"z": -2.7423995845,
				"element": "H" 
			},
			{
				"x": -2.2457189935,
				"y": 0.5714071825,
				"z": -0.5040865029,
				"element": "H" 
			},
			{
				"x": -2.3840557787,
				"y": -1.0364776814,
				"z": 0.2334658195,
				"element": "H" 
			},
			{
				"x": 1.3411321236,
				"y": -0.6803048116,
				"z": -1.5353662623,
				"element": "H" 
			},
			{
				"x": 0.0903194768,
				"y": 0.2486979415,
				"z": -2.3412342302,
				"element": "H" 
			},
			{
				"x": -0.026057466,
				"y": -1.7107672034,
				"z": -3.6333078096,
				"element": "H" 
			},
			{
				"x": 0.5013277805,
				"y": -2.7632529355,
				"z": -2.3106026593,
				"element": "H" 
			},
			{
				"x": -1.3640654713,
				"y": 4.0132083169,
				"z": 2.9015490983,
				"element": "H" 
			},
			{
				"x": -1.5823969376,
				"y": 1.3883161447,
				"z": 2.5935052461,
				"element": "H" 
			},
			{
				"x": 3.2039874099,
				"y": 3.4153150165,
				"z": 1.0136987412,
				"element": "H" 
			}
		],
		 "valence_orbital": [ 
			{
				"type": "occ",
				"energy": -0.29831,
				"method": "rhf"
			},
			{
				"type": "occ",
				"energy": -0.28855,
				"method": "rhf"
			},
			{
				"type": "occ",
				"energy": -0.27193,
				"method": "rhf"
			},
			{
				"type": "occ",
				"energy": -0.26904,
				"method": "rhf"
			},
			{
				"type": "occ",
				"energy": -0.24668,
				"method": "rhf"
			},
			{
				"type": "unocc",
				"energy": -0.07644,
				"method": "rhf"
			},
			{
				"type": "unocc",
				"energy": -0.01822,
				"method": "rhf"
			},
			{
				"type": "unocc",
				"energy": 0.00156,
				"method": "rhf"
			},
			{
				"type": "unocc",
				"energy": 0.01825,
				"method": "rhf"
			},
			{
				"type": "unocc",
				"energy": 0.05579,
				"method": "rhf"
			}
		],
		"cosmo_sigma_profile": { 
			"-0.025": 0.0,
			"-0.024": 0.0,
			"-0.023": 0.0,
			"-0.022": 0.0,
			"-0.021": 0.0,
			"-0.02": 0.0,
			"-0.019": 0.442471099788,
			"-0.018": 1.37738198418,
			"-0.017": 0.56969529003,
			"-0.016": 0.651038507441,
			"-0.015": 2.10023991023,
			"-0.014": 2.2007168249,
			"-0.013": 1.70753530144,
			"-0.012": 1.94839140443,
			"-0.011": 2.04010191761,
			"-0.01": 4.42018092531,
			"-0.009": 4.21619892097,
			"-0.008": 4.00364314296,
			"-0.007": 5.79699978557,
			"-0.006": 6.63126766419,
			"-0.005": 13.0726763402,
			"-0.004": 28.7651417419,
			"-0.003": 30.4459797884,
			"-0.002": 21.891149677,
			"-0.001": 22.511353388,
			"0.0": 19.6738633202,
			"0.001": 14.1411611158,
			"0.002": 11.4118714545,
			"0.003": 8.40401592792,
			"0.004": 7.75319178682,
			"0.005": 6.35948983764,
			"0.006": 7.2626934599,
			"0.007": 7.94092501298,
			"0.008": 9.03321789005,
			"0.009": 10.2163018843,
			"0.01": 10.0953513376,
			"0.011": 10.0698067802,
			"0.012": 5.27780235357,
			"0.013": 1.68552867013,
			"0.014": 2.03631066753,
			"0.015": 0.128075713255,
			"0.016": 0.0,
			"0.017": 0.0,
			"0.018": 0.0,
			"0.019": 0.0,
			"0.02": 0.0,
			"0.021": 0.0,
			"0.022": 0.0,
			"0.023": 0.0,
			"0.024": 0.0,
			"0.025": 0.0
		}
	}
}
