{
	 "smiles": "CC1=C(NC(=O)C(C)(C)C)C=CC=C1", 
	 "Tm": 386.15, 
	 "num_atms": 31, 
	 "gaussian": { 
		 "optdone": 1, 
		 "sigma_profile": "yes", 
		 "theory": "DFT", 
		 "functional": "B3LYP", 
		 "basiset": "6-31G**", 
		 "properties": { 
			 "R2extent": 3830.9521, 
			 "electric_dipole_moment_norm": 3.03095268521, 
			 "electric_quadrupole_moment_norm": 10.13873478, 
			 "total_energy": -597.533557499, 
			 "HOMO_LUMO_gap": 0.2205, 
			 "cosmo_polarized_energy": -11.71, 
			 "cosmo_cavitation_energy": 32.61, 
			 "cosmo_dispersion_energy": -22.54, 
			 "cosmo_repulsion_energy": 1.76, 
			 "cosmo_total_nonelectrostatic_energy": 11.83, 
			 "SMD_solvation_energy": 6.27 
		},
		"coords": [
			{
				"x": 2.9061713354,
				"y": 0.185011011,
				"z": -0.5740873227,
				"element": "C" 
			},
			{
				"x": 2.4623545633,
				"y": -1.124885943,
				"z": -1.1708708156,
				"element": "C" 
			},
			{
				"x": 1.123410694,
				"y": -1.5606481285,
				"z": -1.1136539704,
				"element": "C" 
			},
			{
				"x": 0.1095593506,
				"y": -0.7814269569,
				"z": -0.4795370071,
				"element": "N" 
			},
			{
				"x": -0.2951846409,
				"y": 0.478322477,
				"z": -0.8767862703,
				"element": "C" 
			},
			{
				"x": 0.2845251704,
				"y": 1.1068130375,
				"z": -1.7507194496,
				"element": "O" 
			},
			{
				"x": -1.5269014688,
				"y": 1.0411204974,
				"z": -0.1215279041,
				"element": "C" 
			},
			{
				"x": -1.2345474372,
				"y": 1.1063543632,
				"z": 1.3942251637,
				"element": "C" 
			},
			{
				"x": -2.7586402031,
				"y": 0.1437872933,
				"z": -0.3830052018,
				"element": "C" 
			},
			{
				"x": -1.8081868846,
				"y": 2.4561542679,
				"z": -0.6520695902,
				"element": "C" 
			},
			{
				"x": 0.7604134804,
				"y": -2.8125759932,
				"z": -1.6250951844,
				"element": "C" 
			},
			{
				"x": 1.70870968,
				"y": -3.6453931782,
				"z": -2.213685399,
				"element": "C" 
			},
			{
				"x": 3.0329976526,
				"y": -3.2171132898,
				"z": -2.304334202,
				"element": "C" 
			},
			{
				"x": 3.3925073253,
				"y": -1.9735072069,
				"z": -1.7869918773,
				"element": "C" 
			},
			{
				"x": 3.9951555897,
				"y": 0.219722913,
				"z": -0.4832985237,
				"element": "H" 
			},
			{
				"x": 2.4734907658,
				"y": 0.3288764163,
				"z": 0.4221806218,
				"element": "H" 
			},
			{
				"x": 2.5710321743,
				"y": 1.0248051313,
				"z": -1.1895385159,
				"element": "H" 
			},
			{
				"x": -0.5282665879,
				"y": -1.2971638286,
				"z": 0.1094270218,
				"element": "H" 
			},
			{
				"x": -0.3538833811,
				"y": 1.7234662599,
				"z": 1.599249703,
				"element": "H" 
			},
			{
				"x": -1.0579738671,
				"y": 0.117560932,
				"z": 1.8299815103,
				"element": "H" 
			},
			{
				"x": -2.0864959311,
				"y": 1.551163722,
				"z": 1.9199652889,
				"element": "H" 
			},
			{
				"x": -2.6426319278,
				"y": -0.8656781962,
				"z": 0.0278543235,
				"element": "H" 
			},
			{
				"x": -2.9590514406,
				"y": 0.0495717108,
				"z": -1.4550914961,
				"element": "H" 
			},
			{
				"x": -3.6451404712,
				"y": 0.5818438262,
				"z": 0.087833056,
				"element": "H" 
			},
			{
				"x": -2.6760142483,
				"y": 2.8814944347,
				"z": -0.1369026672,
				"element": "H" 
			},
			{
				"x": -0.9499092622,
				"y": 3.1131637195,
				"z": -0.4920237855,
				"element": "H" 
			},
			{
				"x": -2.0102148,
				"y": 2.4411843916,
				"z": -1.7256722086,
				"element": "H" 
			},
			{
				"x": -0.280112878,
				"y": -3.1226055756,
				"z": -1.5686787432,
				"element": "H" 
			},
			{
				"x": 1.4115044332,
				"y": -4.6131783649,
				"z": -2.606561812,
				"element": "H" 
			},
			{
				"x": 3.7845891682,
				"y": -3.8502808813,
				"z": -2.766730373,
				"element": "H" 
			},
			{
				"x": 4.428934047,
				"y": -1.6503588614,
				"z": -1.8423543695,
				"element": "H" 
			}
		],
		 "valence_orbital": [ 
			{
				"type": "occ",
				"energy": -0.33096,
				"method": "rhf"
			},
			{
				"type": "occ",
				"energy": -0.28085,
				"method": "rhf"
			},
			{
				"type": "occ",
				"energy": -0.24551,
				"method": "rhf"
			},
			{
				"type": "occ",
				"energy": -0.24056,
				"method": "rhf"
			},
			{
				"type": "occ",
				"energy": -0.22593,
				"method": "rhf"
			},
			{
				"type": "unocc",
				"energy": -0.00543,
				"method": "rhf"
			},
			{
				"type": "unocc",
				"energy": 0.00425,
				"method": "rhf"
			},
			{
				"type": "unocc",
				"energy": 0.03274,
				"method": "rhf"
			},
			{
				"type": "unocc",
				"energy": 0.05834,
				"method": "rhf"
			},
			{
				"type": "unocc",
				"energy": 0.09781,
				"method": "rhf"
			}
		],
		"cosmo_sigma_profile": { 
			"-0.025": 0.0,
			"-0.024": 0.0,
			"-0.023": 0.0,
			"-0.022": 0.0,
			"-0.021": 0.0,
			"-0.02": 0.0,
			"-0.019": 0.0,
			"-0.018": 0.0,
			"-0.017": 0.0,
			"-0.016": 0.0,
			"-0.015": 0.0,
			"-0.014": 0.221767172979,
			"-0.013": 0.846701715842,
			"-0.012": 1.34325465407,
			"-0.011": 1.84582432649,
			"-0.01": 1.38724550264,
			"-0.009": 1.42510471465,
			"-0.008": 1.73654216637,
			"-0.007": 1.9112712554,
			"-0.006": 5.05763849484,
			"-0.005": 9.92844257509,
			"-0.004": 15.8000164948,
			"-0.003": 29.5113537441,
			"-0.002": 27.6286006309,
			"-0.001": 27.5714251323,
			"0.0": 30.8222168148,
			"0.001": 28.8085884379,
			"0.002": 13.7214322421,
			"0.003": 9.35834850037,
			"0.004": 9.0816435615,
			"0.005": 9.52593069963,
			"0.006": 9.96734531625,
			"0.007": 2.37613174806,
			"0.008": 2.25586570423,
			"0.009": 2.01876630585,
			"0.01": 1.04676779604,
			"0.011": 2.24810265052,
			"0.012": 2.27727418119,
			"0.013": 2.94253350299,
			"0.014": 2.40963063458,
			"0.015": 0.232874421544,
			"0.016": 0.0,
			"0.017": 0.0,
			"0.018": 0.0,
			"0.019": 0.0,
			"0.02": 0.0,
			"0.021": 0.0,
			"0.022": 0.0,
			"0.023": 0.0,
			"0.024": 0.0,
			"0.025": 0.0
		}
	}
}
