{
	 "smiles": "FC(Cl)(Cl)C1=CC=CC=C1", 
	 "Tm": 246.35, 
	 "num_atms": 15, 
	 "gaussian": { 
		 "optdone": 1, 
		 "sigma_profile": "yes", 
		 "theory": "DFT", 
		 "functional": "B3LYP", 
		 "basiset": "6-31G**", 
		 "properties": { 
			 "R2extent": 2176.3371, 
			 "electric_dipole_moment_norm": 2.80196164321, 
			 "electric_quadrupole_moment_norm": 5.55759931085, 
			 "total_energy": -1289.97233344, 
			 "HOMO_LUMO_gap": 0.2212, 
			 "cosmo_polarized_energy": -3.98, 
			 "cosmo_cavitation_energy": 22.87, 
			 "cosmo_dispersion_energy": -16.87, 
			 "cosmo_repulsion_energy": 1.35, 
			 "cosmo_total_nonelectrostatic_energy": 7.36, 
			 "SMD_solvation_energy": 3.58 
		},
		"coords": [
			{
				"x": 1.4560391773,
				"y": 1.136029474,
				"z": 0.9682376378,
				"element": "F" 
			},
			{
				"x": 0.3602417506,
				"y": 0.4323199938,
				"z": 1.3319125521,
				"element": "C" 
			},
			{
				"x": 0.5864052825,
				"y": -0.0286773914,
				"z": 3.0730874787,
				"element": "Cl" 
			},
			{
				"x": -1.0540210572,
				"y": 1.5641620909,
				"z": 1.2124664061,
				"element": "Cl" 
			},
			{
				"x": 0.1756834232,
				"y": -0.781721121,
				"z": 0.4552963091,
				"element": "C" 
			},
			{
				"x": -0.9017764521,
				"y": -1.6524053733,
				"z": 0.6612077854,
				"element": "C" 
			},
			{
				"x": -1.0568794142,
				"y": -2.767609303,
				"z": -0.1566528912,
				"element": "C" 
			},
			{
				"x": -0.1406347311,
				"y": -3.0204650121,
				"z": -1.1821940458,
				"element": "C" 
			},
			{
				"x": 0.9309023078,
				"y": -2.1525707006,
				"z": -1.3853514699,
				"element": "C" 
			},
			{
				"x": 1.093452891,
				"y": -1.0314415846,
				"z": -0.5689940451,
				"element": "C" 
			},
			{
				"x": -1.6123424535,
				"y": -1.4553271187,
				"z": 1.4574294087,
				"element": "H" 
			},
			{
				"x": -1.8932190941,
				"y": -3.4406940053,
				"z": 0.0055981935,
				"element": "H" 
			},
			{
				"x": -0.2642309322,
				"y": -3.8915368906,
				"z": -1.8187714047,
				"element": "H" 
			},
			{
				"x": 1.6455745462,
				"y": -2.3438779774,
				"z": -2.1801868815,
				"element": "H" 
			},
			{
				"x": 1.9254047557,
				"y": -0.3555850807,
				"z": -0.7249850331,
				"element": "H" 
			}
		],
		 "valence_orbital": [ 
			{
				"type": "occ",
				"energy": -0.32728,
				"method": "rhf"
			},
			{
				"type": "occ",
				"energy": -0.32493,
				"method": "rhf"
			},
			{
				"type": "occ",
				"energy": -0.3098,
				"method": "rhf"
			},
			{
				"type": "occ",
				"energy": -0.26928,
				"method": "rhf"
			},
			{
				"type": "occ",
				"energy": -0.26453,
				"method": "rhf"
			},
			{
				"type": "unocc",
				"energy": -0.04333,
				"method": "rhf"
			},
			{
				"type": "unocc",
				"energy": -0.02375,
				"method": "rhf"
			},
			{
				"type": "unocc",
				"energy": -0.01816,
				"method": "rhf"
			},
			{
				"type": "unocc",
				"energy": 0.04316,
				"method": "rhf"
			},
			{
				"type": "unocc",
				"energy": 0.0838,
				"method": "rhf"
			}
		],
		"cosmo_sigma_profile": { 
			"-0.025": 0.0,
			"-0.024": 0.0,
			"-0.023": 0.0,
			"-0.022": 0.0,
			"-0.021": 0.0,
			"-0.02": 0.0,
			"-0.019": 0.0,
			"-0.018": 0.0,
			"-0.017": 0.0,
			"-0.016": 0.0,
			"-0.015": 0.0,
			"-0.014": 0.0,
			"-0.013": 0.0,
			"-0.012": 0.0,
			"-0.011": 0.0,
			"-0.01": 0.0,
			"-0.009": 0.0,
			"-0.008": 0.0106054025227,
			"-0.007": 4.25881261349,
			"-0.006": 10.4164486531,
			"-0.005": 11.7870347114,
			"-0.004": 10.6694698051,
			"-0.003": 10.4792434469,
			"-0.002": 13.168986488,
			"-0.001": 12.0722035286,
			"0.0": 14.467618185,
			"0.001": 16.5869981275,
			"0.002": 27.2398191167,
			"0.003": 35.8652047046,
			"0.004": 20.8790257268,
			"0.005": 0.180026761325,
			"0.006": 0.0,
			"0.007": 0.0,
			"0.008": 0.0,
			"0.009": 0.0,
			"0.01": 0.0,
			"0.011": 0.0,
			"0.012": 0.0,
			"0.013": 0.0,
			"0.014": 0.0,
			"0.015": 0.0,
			"0.016": 0.0,
			"0.017": 0.0,
			"0.018": 0.0,
			"0.019": 0.0,
			"0.02": 0.0,
			"0.021": 0.0,
			"0.022": 0.0,
			"0.023": 0.0,
			"0.024": 0.0,
			"0.025": 0.0
		}
	}
}
