{
	 "smiles": "C1CC2(CCN1)OCCC1=C2SC=C1", 
	 "Tm": 369.15, 
	 "num_atms": 29, 
	 "gaussian": { 
		 "optdone": 1, 
		 "sigma_profile": "yes", 
		 "theory": "DFT", 
		 "functional": "B3LYP", 
		 "basiset": "6-31G**", 
		 "properties": { 
			 "R2extent": 3624.7587, 
			 "electric_dipole_moment_norm": 2.07234463109, 
			 "electric_quadrupole_moment_norm": 7.60276621895, 
			 "total_energy": -956.341589186, 
			 "HOMO_LUMO_gap": 0.19996, 
			 "cosmo_polarized_energy": -8.16, 
			 "cosmo_cavitation_energy": 29.98, 
			 "cosmo_dispersion_energy": -22.86, 
			 "cosmo_repulsion_energy": 1.74, 
			 "cosmo_total_nonelectrostatic_energy": 8.86, 
			 "SMD_solvation_energy": 1.74 
		},
		"coords": [
			{
				"x": -3.3528267246,
				"y": -2.1397077669,
				"z": -0.8459224043,
				"element": "C" 
			},
			{
				"x": -1.8933521838,
				"y": -1.6926139094,
				"z": -0.9049531435,
				"element": "C" 
			},
			{
				"x": -1.5174522107,
				"y": -0.8266922252,
				"z": 0.3213691305,
				"element": "C" 
			},
			{
				"x": -2.248758236,
				"y": -1.3756778713,
				"z": 1.5936529704,
				"element": "C" 
			},
			{
				"x": -2.6586352505,
				"y": -2.8456292455,
				"z": 1.4202765724,
				"element": "C" 
			},
			{
				"x": -3.547236423,
				"y": -3.0835206041,
				"z": 0.2717726579,
				"element": "N" 
			},
			{
				"x": -2.0167781827,
				"y": 0.4877164634,
				"z": 0.0039785345,
				"element": "O" 
			},
			{
				"x": -1.5186034871,
				"y": 1.5400916423,
				"z": 0.8232739699,
				"element": "C" 
			},
			{
				"x": -0.0263125739,
				"y": 1.7657299379,
				"z": 0.5670685332,
				"element": "C" 
			},
			{
				"x": 0.6845125259,
				"y": 0.4388369926,
				"z": 0.6359534364,
				"element": "C" 
			},
			{
				"x": -0.0159938474,
				"y": -0.7344145288,
				"z": 0.5132663894,
				"element": "C" 
			},
			{
				"x": 1.0437124451,
				"y": -2.1168426533,
				"z": 0.6550904251,
				"element": "S" 
			},
			{
				"x": 2.4300068414,
				"y": -1.0917757823,
				"z": 0.8718231967,
				"element": "C" 
			},
			{
				"x": 2.0878770188,
				"y": 0.2290229872,
				"z": 0.8359511647,
				"element": "C" 
			},
			{
				"x": -3.9832391949,
				"y": -1.2399993935,
				"z": -0.7617308115,
				"element": "H" 
			},
			{
				"x": -3.628332947,
				"y": -2.6356620957,
				"z": -1.785143159,
				"element": "H" 
			},
			{
				"x": -1.7013977036,
				"y": -1.0995551906,
				"z": -1.8030148348,
				"element": "H" 
			},
			{
				"x": -1.2480441351,
				"y": -2.5762208852,
				"z": -0.951372334,
				"element": "H" 
			},
			{
				"x": -1.6257594811,
				"y": -1.2564217709,
				"z": 2.485850698,
				"element": "H" 
			},
			{
				"x": -3.148993035,
				"y": -0.7654727394,
				"z": 1.7328284465,
				"element": "H" 
			},
			{
				"x": -1.7540475012,
				"y": -3.4617268765,
				"z": 1.3153201536,
				"element": "H" 
			},
			{
				"x": -3.1591346262,
				"y": -3.2062022563,
				"z": 2.3249164467,
				"element": "H" 
			},
			{
				"x": -4.5132160971,
				"y": -3.0420478941,
				"z": 0.5789880328,
				"element": "H" 
			},
			{
				"x": -1.6888424349,
				"y": 1.3211348586,
				"z": 1.8883711754,
				"element": "H" 
			},
			{
				"x": -2.1075174113,
				"y": 2.4243354623,
				"z": 0.5631405123,
				"element": "H" 
			},
			{
				"x": 0.1129747393,
				"y": 2.2243351418,
				"z": -0.4209546619,
				"element": "H" 
			},
			{
				"x": 0.3803364075,
				"y": 2.4684968287,
				"z": 1.3052358521,
				"element": "H" 
			},
			{
				"x": 3.4084581954,
				"y": -1.5309840583,
				"z": 1.0078851243,
				"element": "H" 
			},
			{
				"x": 2.8049955137,
				"y": 1.0351674323,
				"z": 0.9503779263,
				"element": "H" 
			}
		],
		 "valence_orbital": [ 
			{
				"type": "occ",
				"energy": -0.29946,
				"method": "rhf"
			},
			{
				"type": "occ",
				"energy": -0.25259,
				"method": "rhf"
			},
			{
				"type": "occ",
				"energy": -0.24125,
				"method": "rhf"
			},
			{
				"type": "occ",
				"energy": -0.22093,
				"method": "rhf"
			},
			{
				"type": "occ",
				"energy": -0.20665,
				"method": "rhf"
			},
			{
				"type": "unocc",
				"energy": -0.00669,
				"method": "rhf"
			},
			{
				"type": "unocc",
				"energy": 0.03191,
				"method": "rhf"
			},
			{
				"type": "unocc",
				"energy": 0.06308,
				"method": "rhf"
			},
			{
				"type": "unocc",
				"energy": 0.08378,
				"method": "rhf"
			},
			{
				"type": "unocc",
				"energy": 0.08978,
				"method": "rhf"
			}
		],
		"cosmo_sigma_profile": { 
			"-0.025": 0.0,
			"-0.024": 0.0,
			"-0.023": 0.0,
			"-0.022": 0.0,
			"-0.021": 0.0,
			"-0.02": 0.0,
			"-0.019": 0.0,
			"-0.018": 0.0,
			"-0.017": 0.0,
			"-0.016": 0.0,
			"-0.015": 0.0,
			"-0.014": 0.0,
			"-0.013": 0.0,
			"-0.012": 0.0,
			"-0.011": 0.0,
			"-0.01": 0.544317726082,
			"-0.009": 1.35232294551,
			"-0.008": 2.99377404791,
			"-0.007": 2.91213069924,
			"-0.006": 5.11818746146,
			"-0.005": 8.80447371897,
			"-0.004": 17.4974145538,
			"-0.003": 30.5156237328,
			"-0.002": 32.3488185895,
			"-0.001": 29.8784767068,
			"0.0": 22.2346439335,
			"0.001": 11.7715294121,
			"0.002": 11.176400755,
			"0.003": 11.2836778989,
			"0.004": 10.9521924868,
			"0.005": 13.8367912371,
			"0.006": 7.33847568524,
			"0.007": 3.13241070583,
			"0.008": 1.62396815083,
			"0.009": 1.57228609173,
			"0.01": 2.10560303558,
			"0.011": 1.71039844513,
			"0.012": 1.55895919228,
			"0.013": 0.843918530371,
			"0.014": 0.316781946214,
			"0.015": 0.821120967561,
			"0.016": 0.44875970117,
			"0.017": 0.568203853021,
			"0.018": 0.544115864151,
			"0.019": 0.286531747462,
			"0.02": 0.0,
			"0.021": 0.0,
			"0.022": 0.0,
			"0.023": 0.0,
			"0.024": 0.0,
			"0.025": 0.0
		}
	}
}
