{
	 "smiles": "OC(=O)CCC1=NC2=C(C=CC=C2)N1C1=CC=CC=C1", 
	 "Tm": 506.15, 
	 "num_atms": 34, 
	 "gaussian": { 
		 "optdone": 1, 
		 "sigma_profile": "yes", 
		 "theory": "DFT", 
		 "functional": "B3LYP", 
		 "basiset": "6-31G**", 
		 "properties": { 
			 "R2extent": 6674.8008, 
			 "electric_dipole_moment_norm": 3.09304429002, 
			 "electric_quadrupole_moment_norm": 26.3737553513, 
			 "total_energy": -878.119755583, 
			 "HOMO_LUMO_gap": 0.19489, 
			 "cosmo_polarized_energy": -19.32, 
			 "cosmo_cavitation_energy": 38.65, 
			 "cosmo_dispersion_energy": -27.04, 
			 "cosmo_repulsion_energy": 2.09, 
			 "cosmo_total_nonelectrostatic_energy": 13.7, 
			 "SMD_solvation_energy": 5.78 
		},
		"coords": [
			{
				"x": -3.8792141696,
				"y": -3.9047171977,
				"z": 2.7851026543,
				"element": "O" 
			},
			{
				"x": -3.5814405516,
				"y": -2.8489835812,
				"z": 1.9798739928,
				"element": "C" 
			},
			{
				"x": -4.4584141754,
				"y": -2.2924846891,
				"z": 1.3663347219,
				"element": "O" 
			},
			{
				"x": -2.1124101141,
				"y": -2.4600500999,
				"z": 1.9433012691,
				"element": "C" 
			},
			{
				"x": -1.8410959584,
				"y": -1.3205751883,
				"z": 0.9613089805,
				"element": "C" 
			},
			{
				"x": -0.4286610523,
				"y": -0.8266592911,
				"z": 1.0654937887,
				"element": "C" 
			},
			{
				"x": 0.3847819725,
				"y": -1.1015266181,
				"z": 2.0568242828,
				"element": "N" 
			},
			{
				"x": 1.5781996344,
				"y": -0.4640188794,
				"z": 1.7482979643,
				"element": "C" 
			},
			{
				"x": 1.4655661963,
				"y": 0.2123597488,
				"z": 0.5129094606,
				"element": "C" 
			},
			{
				"x": 2.5149036843,
				"y": 0.9512982377,
				"z": -0.0363288209,
				"element": "C" 
			},
			{
				"x": 3.7036310925,
				"y": 0.9861718112,
				"z": 0.6901828766,
				"element": "C" 
			},
			{
				"x": 3.8359470945,
				"y": 0.3120876562,
				"z": 1.9202701219,
				"element": "C" 
			},
			{
				"x": 2.7810981504,
				"y": -0.4157379633,
				"z": 2.4629748604,
				"element": "C" 
			},
			{
				"x": 0.158720285,
				"y": -0.027655836,
				"z": 0.0865552728,
				"element": "N" 
			},
			{
				"x": -0.4209437027,
				"y": 0.4237310056,
				"z": -1.1365442343,
				"element": "C" 
			},
			{
				"x": 0.1571937336,
				"y": 0.0479267108,
				"z": -2.3551164718,
				"element": "C" 
			},
			{
				"x": -0.4000373536,
				"y": 0.4955258204,
				"z": -3.5526538649,
				"element": "C" 
			},
			{
				"x": -1.5386680998,
				"y": 1.3041584833,
				"z": -3.5402222577,
				"element": "C" 
			},
			{
				"x": -2.1143255776,
				"y": 1.6744057402,
				"z": -2.3234866737,
				"element": "C" 
			},
			{
				"x": -1.5527190907,
				"y": 1.2457675937,
				"z": -1.1205899716,
				"element": "C" 
			},
			{
				"x": -3.0759498002,
				"y": -4.234595256,
				"z": 3.2129295775,
				"element": "H" 
			},
			{
				"x": -1.7893273126,
				"y": -2.167415047,
				"z": 2.9494978026,
				"element": "H" 
			},
			{
				"x": -1.5099217732,
				"y": -3.3409585178,
				"z": 1.687916626,
				"element": "H" 
			},
			{
				"x": -2.5510842746,
				"y": -0.5093240055,
				"z": 1.1596367522,
				"element": "H" 
			},
			{
				"x": -2.0543425674,
				"y": -1.6436635562,
				"z": -0.0633500872,
				"element": "H" 
			},
			{
				"x": 2.4121357346,
				"y": 1.4754366651,
				"z": -0.9807834274,
				"element": "H" 
			},
			{
				"x": 4.546395506,
				"y": 1.5485527858,
				"z": 0.2991010948,
				"element": "H" 
			},
			{
				"x": 4.7803581363,
				"y": 0.3660888782,
				"z": 2.453723686,
				"element": "H" 
			},
			{
				"x": 2.8731211693,
				"y": -0.9324431952,
				"z": 3.412944537,
				"element": "H" 
			},
			{
				"x": 1.0311086749,
				"y": -0.5955619382,
				"z": -2.3543987179,
				"element": "H" 
			},
			{
				"x": 0.0506608805,
				"y": 0.2025910132,
				"z": -4.4962030331,
				"element": "H" 
			},
			{
				"x": -1.9746505386,
				"y": 1.6447614842,
				"z": -4.474453746,
				"element": "H" 
			},
			{
				"x": -2.9965359353,
				"y": 2.3070912975,
				"z": -2.3070598826,
				"element": "H" 
			},
			{
				"x": -1.9792798972,
				"y": 1.5529159283,
				"z": -0.1713891337,
				"element": "H" 
			}
		],
		 "valence_orbital": [ 
			{
				"type": "occ",
				"energy": -0.2703,
				"method": "rhf"
			},
			{
				"type": "occ",
				"energy": -0.26927,
				"method": "rhf"
			},
			{
				"type": "occ",
				"energy": -0.261,
				"method": "rhf"
			},
			{
				"type": "occ",
				"energy": -0.22345,
				"method": "rhf"
			},
			{
				"type": "occ",
				"energy": -0.22148,
				"method": "rhf"
			},
			{
				"type": "unocc",
				"energy": -0.02659,
				"method": "rhf"
			},
			{
				"type": "unocc",
				"energy": -0.02072,
				"method": "rhf"
			},
			{
				"type": "unocc",
				"energy": -0.01292,
				"method": "rhf"
			},
			{
				"type": "unocc",
				"energy": 0.01239,
				"method": "rhf"
			},
			{
				"type": "unocc",
				"energy": 0.02349,
				"method": "rhf"
			}
		],
		"cosmo_sigma_profile": { 
			"-0.025": 0.0,
			"-0.024": 0.0,
			"-0.023": 0.0,
			"-0.022": 0.0,
			"-0.021": 0.0,
			"-0.02": 0.0,
			"-0.019": 0.654117720496,
			"-0.018": 1.099735927,
			"-0.017": 1.22232467952,
			"-0.016": 0.967911841382,
			"-0.015": 0.823975120678,
			"-0.014": 1.14922184084,
			"-0.013": 1.21429438991,
			"-0.012": 1.20067577111,
			"-0.011": 1.40892027264,
			"-0.01": 0.905351014292,
			"-0.009": 1.4801512814,
			"-0.008": 2.18611557276,
			"-0.007": 7.11274239919,
			"-0.006": 20.0702939223,
			"-0.005": 27.2817400958,
			"-0.004": 25.7304033384,
			"-0.003": 23.0195250936,
			"-0.002": 18.6675706654,
			"-0.001": 17.6393755431,
			"0.0": 17.1694287532,
			"0.001": 16.3832004818,
			"0.002": 17.8086825573,
			"0.003": 18.25789307,
			"0.004": 21.4032483993,
			"0.005": 15.6431896503,
			"0.006": 11.0811545717,
			"0.007": 5.19311116295,
			"0.008": 4.22063749238,
			"0.009": 4.36087965956,
			"0.01": 5.56186403241,
			"0.011": 6.98425538233,
			"0.012": 6.06150808865,
			"0.013": 2.61238580685,
			"0.014": 1.25641935587,
			"0.015": 0.596856165257,
			"0.016": 0.0576276324214,
			"0.017": 0.0,
			"0.018": 0.0,
			"0.019": 0.0,
			"0.02": 0.0,
			"0.021": 0.0,
			"0.022": 0.0,
			"0.023": 0.0,
			"0.024": 0.0,
			"0.0": 0.0
		}
	}
}
