{
	 "smiles": "OC(=O)C1=CSC(=N1)C1=CC=C(F)C=C1", 
	 "Tm": 470.15, 
	 "num_atms": 21, 
	 "gaussian": { 
		 "optdone": 1, 
		 "sigma_profile": "yes", 
		 "theory": "DFT", 
		 "functional": "B3LYP", 
		 "basiset": "6-31G**", 
		 "properties": { 
			 "R2extent": 4936.7934, 
			 "electric_dipole_moment_norm": 4.93939902923, 
			 "electric_quadrupole_moment_norm": 27.7006015568, 
			 "total_energy": -1087.91248977, 
			 "HOMO_LUMO_gap": 0.16573, 
			 "cosmo_polarized_energy": -12.41, 
			 "cosmo_cavitation_energy": 28.71, 
			 "cosmo_dispersion_energy": -21.54, 
			 "cosmo_repulsion_energy": 1.59, 
			 "cosmo_total_nonelectrostatic_energy": 8.76, 
			 "SMD_solvation_energy": 5.84 
		},
		"coords": [
			{
				"x": -3.3344355374,
				"y": -0.1518784399,
				"z": -3.4863816744,
				"element": "O" 
			},
			{
				"x": -3.3309895531,
				"y": 1.1099603151,
				"z": -3.0109954076,
				"element": "C" 
			},
			{
				"x": -4.1389849811,
				"y": 1.9408045752,
				"z": -3.3553393256,
				"element": "O" 
			},
			{
				"x": -2.2414211679,
				"y": 1.3783208034,
				"z": -2.0265602724,
				"element": "C" 
			},
			{
				"x": -2.0314013168,
				"y": 2.5782875985,
				"z": -1.4066988317,
				"element": "C" 
			},
			{
				"x": -0.6740193796,
				"y": 2.456909103,
				"z": -0.3510030579,
				"element": "S" 
			},
			{
				"x": -0.4734968292,
				"y": 0.7611837373,
				"z": -0.8234218615,
				"element": "C" 
			},
			{
				"x": -1.367326908,
				"y": 0.3695039066,
				"z": -1.695251366,
				"element": "N" 
			},
			{
				"x": 0.589398624,
				"y": -0.0914773305,
				"z": -0.2805158899,
				"element": "C" 
			},
			{
				"x": 1.5217214356,
				"y": 0.386064215,
				"z": 0.6559912292,
				"element": "C" 
			},
			{
				"x": 2.5211241856,
				"y": -0.4426721541,
				"z": 1.1563565318,
				"element": "C" 
			},
			{
				"x": 2.5825178239,
				"y": -1.7594426028,
				"z": 0.7116665728,
				"element": "C" 
			},
			{
				"x": 3.5461946994,
				"y": -2.5656076044,
				"z": 1.1914865322,
				"element": "F" 
			},
			{
				"x": 1.6759020385,
				"y": -2.266599041,
				"z": -0.2150703792,
				"element": "C" 
			},
			{
				"x": 0.681965933,
				"y": -1.4290979467,
				"z": -0.7077061074,
				"element": "C" 
			},
			{
				"x": -2.5946801989,
				"y": -0.6266444864,
				"z": -3.0640722415,
				"element": "H" 
			},
			{
				"x": -2.5997479711,
				"y": 3.488750742,
				"z": -1.5267730371,
				"element": "H" 
			},
			{
				"x": 1.473760099,
				"y": 1.4141007139,
				"z": 1.0032405872,
				"element": "H" 
			},
			{
				"x": 3.2460512414,
				"y": -0.0856522825,
				"z": 1.8792016049,
				"element": "H" 
			},
			{
				"x": 1.7585627206,
				"y": -3.2991947987,
				"z": -0.5357792267,
				"element": "H" 
			},
			{
				"x": -0.0357949578,
				"y": -1.8001190231,
				"z": -1.4299743793,
				"element": "H" 
			}
		],
		 "valence_orbital": [ 
			{
				"type": "occ",
				"energy": -0.31125,
				"method": "rhf"
			},
			{
				"type": "occ",
				"energy": -0.29555,
				"method": "rhf"
			},
			{
				"type": "occ",
				"energy": -0.2834,
				"method": "rhf"
			},
			{
				"type": "occ",
				"energy": -0.27327,
				"method": "rhf"
			},
			{
				"type": "occ",
				"energy": -0.24223,
				"method": "rhf"
			},
			{
				"type": "unocc",
				"energy": -0.0765,
				"method": "rhf"
			},
			{
				"type": "unocc",
				"energy": -0.04173,
				"method": "rhf"
			},
			{
				"type": "unocc",
				"energy": -0.03064,
				"method": "rhf"
			},
			{
				"type": "unocc",
				"energy": -0.00473,
				"method": "rhf"
			},
			{
				"type": "unocc",
				"energy": 0.02558,
				"method": "rhf"
			}
		],
		"cosmo_sigma_profile": { 
			"-0.025": 0.0,
			"-0.024": 0.0,
			"-0.023": 0.0,
			"-0.022": 0.0,
			"-0.021": 0.0,
			"-0.02": 0.0,
			"-0.019": 0.0,
			"-0.018": 0.0,
			"-0.017": 0.0,
			"-0.016": 0.0,
			"-0.015": 0.0,
			"-0.014": 0.359875493757,
			"-0.013": 0.337602120396,
			"-0.012": 0.870168962789,
			"-0.011": 1.18021132055,
			"-0.01": 2.30510223638,
			"-0.009": 2.07072591326,
			"-0.008": 5.39641180026,
			"-0.007": 10.5141809631,
			"-0.006": 10.9610079444,
			"-0.005": 10.3006844544,
			"-0.004": 9.67947319056,
			"-0.003": 13.7430294171,
			"-0.002": 14.9752738,
			"-0.001": 21.6634506044,
			"0.0": 28.6535728305,
			"0.001": 23.1935397039,
			"0.002": 21.1741416646,
			"0.003": 14.2802704011,
			"0.004": 12.5486170066,
			"0.005": 2.43357318848,
			"0.006": 2.59460734181,
			"0.007": 2.53017646044,
			"0.008": 3.14975088228,
			"0.009": 3.20039977195,
			"0.01": 5.65413739156,
			"0.011": 4.73074872817,
			"0.012": 4.40923628033,
			"0.013": 1.50619025756,
			"0.014": 0.0296414174857,
			"0.015": 0.0,
			"0.016": 0.0,
			"0.017": 0.0,
			"0.018": 0.0,
			"0.019": 0.0,
			"0.02": 0.0,
			"0.021": 0.0,
			"0.022": 0.0,
			"0.023": 0.0,
			"0.024": 0.0,
			"0.025": 0.0
		}
	}
}
