{
	 "smiles": "OC(=O)CCN1CCSC1=O", 
	 "Tm": 365.15, 
	 "num_atms": 20, 
	 "gaussian": { 
		 "optdone": 1, 
		 "sigma_profile": "yes", 
		 "theory": "DFT", 
		 "functional": "B3LYP", 
		 "basiset": "6-31G**", 
		 "properties": { 
			 "R2extent": 2861.9585, 
			 "electric_dipole_moment_norm": 4.50070921633, 
			 "electric_quadrupole_moment_norm": 22.3898851571, 
			 "total_energy": -912.696535456, 
			 "HOMO_LUMO_gap": 0.24928, 
			 "cosmo_polarized_energy": -21.31, 
			 "cosmo_cavitation_energy": 25.53, 
			 "cosmo_dispersion_energy": -19.05, 
			 "cosmo_repulsion_energy": 1.51, 
			 "cosmo_total_nonelectrostatic_energy": 7.99, 
			 "SMD_solvation_energy": 4.96 
		},
		"coords": [
			{
				"x": 1.1329643019,
				"y": 1.3084423535,
				"z": -3.894472143,
				"element": "O" 
			},
			{
				"x": 1.1761550644,
				"y": 1.3740695799,
				"z": -2.5385687254,
				"element": "C" 
			},
			{
				"x": 1.7029316235,
				"y": 2.3120650721,
				"z": -1.9929875319,
				"element": "O" 
			},
			{
				"x": 0.500742825,
				"y": 0.2262451282,
				"z": -1.8005763018,
				"element": "C" 
			},
			{
				"x": 0.8758062172,
				"y": 0.2159256678,
				"z": -0.3113415117,
				"element": "C" 
			},
			{
				"x": 0.1199999965,
				"y": -0.7606674379,
				"z": 0.466677102,
				"element": "N" 
			},
			{
				"x": -1.1725406443,
				"y": -0.4378421396,
				"z": 1.0562015529,
				"element": "C" 
			},
			{
				"x": -1.5159923393,
				"y": -1.5939907398,
				"z": 2.0045507584,
				"element": "C" 
			},
			{
				"x": -0.8224293765,
				"y": -3.0959422068,
				"z": 1.2062779764,
				"element": "S" 
			},
			{
				"x": 0.3908209019,
				"y": -2.0960633472,
				"z": 0.2897910433,
				"element": "C" 
			},
			{
				"x": 1.2942591344,
				"y": -2.5558224008,
				"z": -0.3781058509,
				"element": "O" 
			},
			{
				"x": 0.7109407946,
				"y": 0.4847491032,
				"z": -4.1777423144,
				"element": "H" 
			},
			{
				"x": 0.777188741,
				"y": -0.7351806242,
				"z": -2.2480739619,
				"element": "H" 
			},
			{
				"x": -0.585022802,
				"y": 0.3394479858,
				"z": -1.9265224632,
				"element": "H" 
			},
			{
				"x": 0.7181673419,
				"y": 1.2062811543,
				"z": 0.1203465871,
				"element": "H" 
			},
			{
				"x": 1.9370543739,
				"y": -0.0217981372,
				"z": -0.2103335668,
				"element": "H" 
			},
			{
				"x": -1.9486421305,
				"y": -0.332661346,
				"z": 0.2822901255,
				"element": "H" 
			},
			{
				"x": -1.1071065008,
				"y": 0.50950434,
				"z": 1.6009144966,
				"element": "H" 
			},
			{
				"x": -1.0452457649,
				"y": -1.4580967706,
				"z": 2.9812621999,
				"element": "H" 
			},
			{
				"x": -2.5930517579,
				"y": -1.7051652347,
				"z": 2.1362125288,
				"element": "H" 
			}
		],
		 "valence_orbital": [ 
			{
				"type": "occ",
				"energy": -0.32294,
				"method": "rhf"
			},
			{
				"type": "occ",
				"energy": -0.28228,
				"method": "rhf"
			},
			{
				"type": "occ",
				"energy": -0.27392,
				"method": "rhf"
			},
			{
				"type": "occ",
				"energy": -0.26225,
				"method": "rhf"
			},
			{
				"type": "occ",
				"energy": -0.24768,
				"method": "rhf"
			},
			{
				"type": "unocc",
				"energy": 0.0016,
				"method": "rhf"
			},
			{
				"type": "unocc",
				"energy": 0.0057,
				"method": "rhf"
			},
			{
				"type": "unocc",
				"energy": 0.01425,
				"method": "rhf"
			},
			{
				"type": "unocc",
				"energy": 0.05029,
				"method": "rhf"
			},
			{
				"type": "unocc",
				"energy": 0.06559,
				"method": "rhf"
			}
		],
		"cosmo_sigma_profile": { 
			"-0.025": 0.0,
			"-0.024": 0.0,
			"-0.023": 0.0,
			"-0.022": 0.0,
			"-0.021": 0.0,
			"-0.02": 0.0,
			"-0.019": 0.76045899707,
			"-0.018": 1.1254132033,
			"-0.017": 1.13772540838,
			"-0.016": 1.56817179048,
			"-0.015": 0.641728337042,
			"-0.014": 0.753222526463,
			"-0.013": 0.930871584762,
			"-0.012": 1.62003810009,
			"-0.011": 1.41171037384,
			"-0.01": 0.959441409665,
			"-0.009": 1.15478486107,
			"-0.008": 2.98210525354,
			"-0.007": 12.545672641,
			"-0.006": 19.1088906743,
			"-0.005": 18.4124656302,
			"-0.004": 15.2013588784,
			"-0.003": 11.5562180293,
			"-0.002": 7.69464401754,
			"-0.001": 6.46353886428,
			"0.0": 7.16265983337,
			"0.001": 8.61536400686,
			"0.002": 6.92808522545,
			"0.003": 8.51115826237,
			"0.004": 8.57259979897,
			"0.005": 7.15565147882,
			"0.006": 6.13430380112,
			"0.007": 6.52367480134,
			"0.008": 5.74539700606,
			"0.009": 4.89664711964,
			"0.01": 6.10713623006,
			"0.011": 7.3664020164,
			"0.012": 9.4039167233,
			"0.013": 3.8857451482,
			"0.014": 0.211560216333,
			"0.015": 0.0,
			"0.016": 0.0,
			"0.017": 0.0,
			"0.018": 0.0,
			"0.019": 0.0,
			"0.02": 0.0,
			"0.021": 0.0,
			"0.022": 0.0,
			"0.023": 0.0,
			"0.024": 0.0,
			"0.025": 0.0
		}
	}
}
