{
	 "smiles": "CC(C)CI", 
	 "Tm": 180.15, 
	 "num_atms": 14, 
	 "gaussian": { 
		 "optdone": 1, 
		 "sigma_profile": "no", 
		 "theory": "DFT", 
		 "functional": "B3LYP", 
		 "basiset": "6-31G**", 
		 "properties": { 
			 "R2extent": 726.3703, 
			 "electric_dipole_moment_norm": 2.36493663551, 
			 "electric_quadrupole_moment_norm": 5.38828471594, 
			 "total_energy": -169.255086715, 
			 "HOMO_LUMO_gap": 0.21456, 
			 "cosmo_polarized_energy": -98233.79, 
			 "cosmo_cavitation_energy": 19.09, 
			 "cosmo_dispersion_energy": -15.46, 
			 "cosmo_repulsion_energy": 1.3, 
			 "cosmo_total_nonelectrostatic_energy": 4.93, 
			 "SMD_solvation_energy": 2.52 
		},
		"coords": [
			{
				"x": 1.2316531898,
				"y": 1.6057258466,
				"z": 0.0861423206,
				"element": "C" 
			},
			{
				"x": 0.6240918024,
				"y": 0.2330438437,
				"z": -0.225245581,
				"element": "C" 
			},
			{
				"x": -0.9040940005,
				"y": 0.3348442831,
				"z": -0.4020258764,
				"element": "C" 
			},
			{
				"x": 0.9063752826,
				"y": -0.8052634827,
				"z": 0.8617709441,
				"element": "C" 
			},
			{
				"x": 3.0212789785,
				"y": -1.3561225778,
				"z": 1.065893521,
				"element": "I" 
			},
			{
				"x": 0.8270361261,
				"y": 2.0079513945,
				"z": 1.0229195655,
				"element": "H" 
			},
			{
				"x": 0.9990887951,
				"y": 2.3190600899,
				"z": -0.7108863336,
				"element": "H" 
			},
			{
				"x": 2.3192262526,
				"y": 1.5512321562,
				"z": 0.1843257519,
				"element": "H" 
			},
			{
				"x": 1.0508193215,
				"y": -0.1351169584,
				"z": -1.1668611003,
				"element": "H" 
			},
			{
				"x": -1.346309554,
				"y": -0.63042246,
				"z": -0.6699650401,
				"element": "H" 
			},
			{
				"x": -1.1484519636,
				"y": 1.0481135215,
				"z": -1.1959031785,
				"element": "H" 
			},
			{
				"x": -1.3864145934,
				"y": 0.684460996,
				"z": 0.5183545136,
				"element": "H" 
			},
			{
				"x": 0.4136950386,
				"y": -1.7555446774,
				"z": 0.6582909616,
				"element": "H" 
			},
			{
				"x": 0.6190053242,
				"y": -0.4532619754,
				"z": 1.8537895315,
				"element": "H" 
			}
		],
		 "valence_orbital": [ 
			{
				"type": "occ",
				"energy": -0.35216,
				"method": "rhf"
			},
			{
				"type": "occ",
				"energy": -0.34172,
				"method": "rhf"
			},
			{
				"type": "occ",
				"energy": -0.32274,
				"method": "rhf"
			},
			{
				"type": "occ",
				"energy": -0.25565,
				"method": "rhf"
			},
			{
				"type": "occ",
				"energy": -0.25394,
				"method": "rhf"
			},
			{
				"type": "unocc",
				"energy": -0.03938,
				"method": "rhf"
			},
			{
				"type": "unocc",
				"energy": 0.04181,
				"method": "rhf"
			},
			{
				"type": "unocc",
				"energy": 0.04403,
				"method": "rhf"
			},
			{
				"type": "unocc",
				"energy": 0.05783,
				"method": "rhf"
			},
			{
				"type": "unocc",
				"energy": 0.09546,
				"method": "rhf"
			}
		],
		"cosmo_sigma_profile": { 
			"0.0": 0.0,
			"0.0": 0.0,
			"0.0": 0.0,
			"0.0": 0.0,
			"0.0": 0.0,
			"0.0": 0.0,
			"0.0": 0.0,
			"0.0": 0.0,
			"0.0": 0.0,
			"0.0": 0.0,
			"0.0": 0.0,
			"0.0": 0.0,
			"0.0": 0.0,
			"0.0": 0.0,
			"0.0": 0.0,
			"0.0": 0.0,
			"0.0": 0.0,
			"0.0": 0.0,
			"0.0": 0.0,
			"0.0": 0.0,
			"0.0": 0.0,
			"0.0": 0.0,
			"0.0": 0.0,
			"0.0": 0.0,
			"0.0": 0.0,
			"0.0": 0.0,
			"0.0": 0.0,
			"0.0": 0.0,
			"0.0": 0.0,
			"0.0": 0.0,
			"0.0": 0.0,
			"0.0": 0.0,
			"0.0": 0.0,
			"0.0": 0.0,
			"0.0": 0.0,
			"0.0": 0.0,
			"0.0": 0.0,
			"0.0": 0.0,
			"0.0": 0.0,
			"0.0": 0.0,
			"0.0": 0.0,
			"0.0": 0.0,
			"0.0": 0.0,
			"0.0": 0.0,
			"0.0": 0.0,
			"0.0": 0.0,
			"0.0": 0.0,
			"0.0": 0.0,
			"0.0": 0.0,
			"0.0": 0.0,
			"0.0": 0.0
		}
	}
}
