{
	 "smiles": "CC1=C(C=NC=C1)S(O)(=O)=O", 
	 "Tm": 573.15, 
	 "num_atms": 18, 
	 "gaussian": { 
		 "optdone": 1, 
		 "sigma_profile": "yes", 
		 "theory": "DFT", 
		 "functional": "B3LYP", 
		 "basiset": "6-31G**", 
		 "properties": { 
			 "R2extent": 2168.4722, 
			 "electric_dipole_moment_norm": 4.03907998188, 
			 "electric_quadrupole_moment_norm": 11.9372390573, 
			 "total_energy": -911.394122679, 
			 "HOMO_LUMO_gap": 0.21523, 
			 "cosmo_polarized_energy": -14.29, 
			 "cosmo_cavitation_energy": 23.19, 
			 "cosmo_dispersion_energy": -17.96, 
			 "cosmo_repulsion_energy": 1.37, 
			 "cosmo_total_nonelectrostatic_energy": 6.6, 
			 "SMD_solvation_energy": 1.91 
		},
		"coords": [
			{
				"x": 0.418789372,
				"y": -1.2310841162,
				"z": -0.9114232662,
				"element": "C" 
			},
			{
				"x": -0.3068656708,
				"y": -0.3447785935,
				"z": 0.0657118856,
				"element": "C" 
			},
			{
				"x": -0.3656200154,
				"y": 1.0584080939,
				"z": -0.0426270486,
				"element": "C" 
			},
			{
				"x": -1.0609724245,
				"y": 1.8195946831,
				"z": 0.9019103599,
				"element": "C" 
			},
			{
				"x": -1.6969446383,
				"y": 1.2830344983,
				"z": 1.947912942,
				"element": "N" 
			},
			{
				"x": -1.644661601,
				"y": -0.0486005555,
				"z": 2.0642926575,
				"element": "C" 
			},
			{
				"x": -0.9767388334,
				"y": -0.8836986978,
				"z": 1.1684301002,
				"element": "C" 
			},
			{
				"x": 0.3962105997,
				"y": 1.9404015248,
				"z": -1.3989178234,
				"element": "S" 
			},
			{
				"x": 1.9941467035,
				"y": 1.6090360443,
				"z": -1.1700369425,
				"element": "O" 
			},
			{
				"x": 0.2315995046,
				"y": 3.3761818808,
				"z": -1.1786010989,
				"element": "O" 
			},
			{
				"x": 0.0279493687,
				"y": 1.3093413078,
				"z": -2.6568337209,
				"element": "O" 
			},
			{
				"x": 0.356677276,
				"y": -2.2756992211,
				"z": -0.599298196,
				"element": "H" 
			},
			{
				"x": 1.4740468882,
				"y": -0.9503842106,
				"z": -0.9853032019,
				"element": "H" 
			},
			{
				"x": -0.0053546355,
				"y": -1.1317289841,
				"z": -1.9143246222,
				"element": "H" 
			},
			{
				"x": -1.1003322835,
				"y": 2.9000284197,
				"z": 0.7973258501,
				"element": "H" 
			},
			{
				"x": -2.1641919125,
				"y": -0.4748073306,
				"z": 2.9205776981,
				"element": "H" 
			},
			{
				"x": -0.9770202047,
				"y": -1.9579210184,
				"z": 1.3267277116,
				"element": "H" 
			},
			{
				"x": 2.3957825068,
				"y": 2.4167762751,
				"z": -0.8074232846,
				"element": "H" 
			}
		],
		 "valence_orbital": [ 
			{
				"type": "occ",
				"energy": -0.33575,
				"method": "rhf"
			},
			{
				"type": "occ",
				"energy": -0.31978,
				"method": "rhf"
			},
			{
				"type": "occ",
				"energy": -0.29815,
				"method": "rhf"
			},
			{
				"type": "occ",
				"energy": -0.28712,
				"method": "rhf"
			},
			{
				"type": "occ",
				"energy": -0.27395,
				"method": "rhf"
			},
			{
				"type": "unocc",
				"energy": -0.05872,
				"method": "rhf"
			},
			{
				"type": "unocc",
				"energy": -0.03877,
				"method": "rhf"
			},
			{
				"type": "unocc",
				"energy": 0.03151,
				"method": "rhf"
			},
			{
				"type": "unocc",
				"energy": 0.0622,
				"method": "rhf"
			},
			{
				"type": "unocc",
				"energy": 0.07607,
				"method": "rhf"
			}
		],
		"cosmo_sigma_profile": { 
			"-0.025": 0.0,
			"-0.024": 0.0,
			"-0.023": 0.0,
			"-0.022": 0.0,
			"-0.021": 0.00571323660936,
			"-0.02": 0.63935123598,
			"-0.019": 1.01197298426,
			"-0.018": 0.943684026254,
			"-0.017": 1.08149217259,
			"-0.016": 0.458516094307,
			"-0.015": 0.445600990551,
			"-0.014": 1.076594963,
			"-0.013": 0.903216562812,
			"-0.012": 0.505372687549,
			"-0.011": 0.81263951684,
			"-0.01": 0.900674525876,
			"-0.009": 0.761839714787,
			"-0.008": 3.63115949386,
			"-0.007": 8.68666296434,
			"-0.006": 7.42627752397,
			"-0.005": 9.60891136506,
			"-0.004": 10.0462200508,
			"-0.003": 12.9777862991,
			"-0.002": 16.8582130435,
			"-0.001": 18.281170898,
			"0.0": 14.6577157244,
			"0.001": 10.0365729774,
			"0.002": 6.41473801034,
			"0.003": 6.44725120256,
			"0.004": 4.31130773093,
			"0.005": 5.18809176604,
			"0.006": 5.63506965795,
			"0.007": 6.65709847919,
			"0.008": 5.67065583797,
			"0.009": 9.12435875133,
			"0.01": 8.38322181924,
			"0.011": 2.06780814843,
			"0.012": 1.29353364726,
			"0.013": 0.729543451199,
			"0.014": 0.767538008757,
			"0.015": 0.785090399103,
			"0.016": 0.231065914979,
			"0.017": 0.0,
			"0.018": 0.0,
			"0.019": 0.0,
			"0.02": 0.0,
			"0.021": 0.0,
			"0.022": 0.0,
			"0.023": 0.0,
			"0.024": 0.0,
			"0.025": 0.0
		}
	}
}
