{
	 "smiles": "CC1=C(C=CC(=C1)N1CCCC1=O)S(Cl)(=O)=O", 
	 "Tm": 378.15, 
	 "num_atms": 29, 
	 "gaussian": { 
		 "optdone": 1, 
		 "sigma_profile": "no", 
		 "theory": "DFT", 
		 "functional": "B3LYP", 
		 "basiset": "6-31G**", 
		 "properties": { 
			 "R2extent": 7218.293, 
			 "electric_dipole_moment_norm": 8.08092706192, 
			 "electric_quadrupole_moment_norm": 18.287331611, 
			 "total_energy": -1565.16691668, 
			 "HOMO_LUMO_gap": 0.16352, 
			 "cosmo_polarized_energy": -13.57, 
			 "cosmo_cavitation_energy": 34.74, 
			 "cosmo_dispersion_energy": -26.14, 
			 "cosmo_repulsion_energy": 1.96, 
			 "cosmo_total_nonelectrostatic_energy": 10.57, 
			 "SMD_solvation_energy": 4.59 
		},
		"coords": [
			{
				"x": -2.1418543246,
				"y": -1.7023592751,
				"z": 2.113926821,
				"element": "C" 
			},
			{
				"x": -1.5379429498,
				"y": -0.508931829,
				"z": 1.4142044315,
				"element": "C" 
			},
			{
				"x": -1.952161615,
				"y": 0.82241977,
				"z": 1.6299503056,
				"element": "C" 
			},
			{
				"x": -1.3504153699,
				"y": 1.8953826391,
				"z": 0.9691532954,
				"element": "C" 
			},
			{
				"x": -0.3272948116,
				"y": 1.6656059487,
				"z": 0.0608381539,
				"element": "C" 
			},
			{
				"x": 0.1136916858,
				"y": 0.3519745087,
				"z": -0.1855302624,
				"element": "C" 
			},
			{
				"x": -0.5033246416,
				"y": -0.7137016469,
				"z": 0.4997664328,
				"element": "C" 
			},
			{
				"x": 1.1637102008,
				"y": 0.1349989129,
				"z": -1.0939804742,
				"element": "N" 
			},
			{
				"x": 1.9059791927,
				"y": 1.2560914012,
				"z": -1.692426258,
				"element": "C" 
			},
			{
				"x": 3.1171084586,
				"y": 0.5859907124,
				"z": -2.3643352684,
				"element": "C" 
			},
			{
				"x": 2.6117480531,
				"y": -0.820942885,
				"z": -2.6954096931,
				"element": "C" 
			},
			{
				"x": 1.5381428303,
				"y": -1.0949566056,
				"z": -1.648457328,
				"element": "C" 
			},
			{
				"x": 1.0776915582,
				"y": -2.1854323079,
				"z": -1.3663594153,
				"element": "O" 
			},
			{
				"x": -3.2775313767,
				"y": 1.2456627204,
				"z": 2.7452238754,
				"element": "S" 
			},
			{
				"x": -2.3378327768,
				"y": 1.0012423656,
				"z": 4.6644265626,
				"element": "Cl" 
			},
			{
				"x": -3.5678866558,
				"y": 2.6705418896,
				"z": 2.6303748582,
				"element": "O" 
			},
			{
				"x": -4.3406970841,
				"y": 0.2485149322,
				"z": 2.6979782775,
				"element": "O" 
			},
			{
				"x": -1.5916678753,
				"y": -2.6075094528,
				"z": 1.8499802263,
				"element": "H" 
			},
			{
				"x": -2.1158462503,
				"y": -1.5867549315,
				"z": 3.2017292525,
				"element": "H" 
			},
			{
				"x": -3.1909517859,
				"y": -1.8325806428,
				"z": 1.8361558943,
				"element": "H" 
			},
			{
				"x": -1.6950018329,
				"y": 2.9042375034,
				"z": 1.1621928644,
				"element": "H" 
			},
			{
				"x": 0.1100248184,
				"y": 2.5105945678,
				"z": -0.4550247768,
				"element": "H" 
			},
			{
				"x": -0.1678050265,
				"y": -1.7213308181,
				"z": 0.3025714424,
				"element": "H" 
			},
			{
				"x": 1.276170677,
				"y": 1.7847980035,
				"z": -2.4209203588,
				"element": "H" 
			},
			{
				"x": 2.2033154391,
				"y": 1.9709816796,
				"z": -0.9204869316,
				"element": "H" 
			},
			{
				"x": 3.4594827978,
				"y": 1.1476996658,
				"z": -3.2360121792,
				"element": "H" 
			},
			{
				"x": 3.9475535208,
				"y": 0.5302067471,
				"z": -1.6538619547,
				"element": "H" 
			},
			{
				"x": 3.3732128901,
				"y": -1.6024234701,
				"z": -2.664193541,
				"element": "H" 
			},
			{
				"x": 2.1344822541,
				"y": -0.8668201031,
				"z": -3.6824742523,
				"element": "H" 
			}
		],
		 "valence_orbital": [ 
			{
				"type": "occ",
				"energy": -0.31351,
				"method": "rhf"
			},
			{
				"type": "occ",
				"energy": -0.30519,
				"method": "rhf"
			},
			{
				"type": "occ",
				"energy": -0.27277,
				"method": "rhf"
			},
			{
				"type": "occ",
				"energy": -0.26952,
				"method": "rhf"
			},
			{
				"type": "occ",
				"energy": -0.24667,
				"method": "rhf"
			},
			{
				"type": "unocc",
				"energy": -0.08315,
				"method": "rhf"
			},
			{
				"type": "unocc",
				"energy": -0.04272,
				"method": "rhf"
			},
			{
				"type": "unocc",
				"energy": -0.02619,
				"method": "rhf"
			},
			{
				"type": "unocc",
				"energy": 0.01005,
				"method": "rhf"
			},
			{
				"type": "unocc",
				"energy": 0.06374,
				"method": "rhf"
			}
		],
		"cosmo_sigma_profile": { 
			"0.0": 0.0,
			"0.0": 0.0,
			"0.0": 0.0,
			"0.0": 0.0,
			"0.0": 0.0,
			"0.0": 0.0,
			"0.0": 0.0,
			"0.0": 0.0,
			"0.0": 0.0,
			"0.0": 0.0,
			"0.0": 0.0,
			"0.0": 0.0,
			"0.0": 0.0,
			"0.0": 0.0,
			"0.0": 0.0,
			"0.0": 0.0,
			"0.0": 0.0,
			"0.0": 0.0,
			"0.0": 0.0,
			"0.0": 0.0,
			"0.0": 0.0,
			"0.0": 0.0,
			"0.0": 0.0,
			"0.0": 0.0,
			"0.0": 0.0,
			"0.0": 0.0,
			"0.0": 0.0,
			"0.0": 0.0,
			"0.0": 0.0,
			"0.0": 0.0,
			"0.0": 0.0,
			"0.0": 0.0,
			"0.0": 0.0,
			"0.0": 0.0,
			"0.0": 0.0,
			"0.0": 0.0,
			"0.0": 0.0,
			"0.0": 0.0,
			"0.0": 0.0,
			"0.0": 0.0,
			"0.0": 0.0,
			"0.0": 0.0,
			"0.0": 0.0,
			"0.0": 0.0,
			"0.0": 0.0,
			"0.0": 0.0,
			"0.0": 0.0,
			"0.0": 0.0,
			"0.0": 0.0,
			"0.0": 0.0,
			"0.0": 0.0
		}
	}
}
