{
	 "smiles": "FC1=CC=CC(=C1)C(=O)CBr", 
	 "Tm": 307.65, 
	 "num_atms": 17, 
	 "gaussian": { 
		 "optdone": 1, 
		 "sigma_profile": "yes", 
		 "theory": "DFT", 
		 "functional": "B3LYP", 
		 "basiset": "6-31G**", 
		 "properties": { 
			 "R2extent": 3444.0031, 
			 "electric_dipole_moment_norm": 3.1863866589, 
			 "electric_quadrupole_moment_norm": 6.03449284944, 
			 "total_energy": -3054.92582779, 
			 "HOMO_LUMO_gap": 0.17837, 
			 "cosmo_polarized_energy": -8.32, 
			 "cosmo_cavitation_energy": 24.31, 
			 "cosmo_dispersion_energy": -17.92, 
			 "cosmo_repulsion_energy": 1.42, 
			 "cosmo_total_nonelectrostatic_energy": 7.81, 
			 "SMD_solvation_energy": 4.17 
		},
		"coords": [
			{
				"x": 2.9179114474,
				"y": -1.6959039598,
				"z": 2.4414127893,
				"element": "F" 
			},
			{
				"x": 2.2302918488,
				"y": -1.3054003935,
				"z": 1.3502662945,
				"element": "C" 
			},
			{
				"x": 2.3608847223,
				"y": -2.0443693077,
				"z": 0.1764958127,
				"element": "C" 
			},
			{
				"x": 1.6489991307,
				"y": -1.6378550321,
				"z": -0.9521133589,
				"element": "C" 
			},
			{
				"x": 0.8217240842,
				"y": -0.5155118716,
				"z": -0.9014488078,
				"element": "C" 
			},
			{
				"x": 0.7005300402,
				"y": 0.2141737003,
				"z": 0.2913175861,
				"element": "C" 
			},
			{
				"x": 1.4165068648,
				"y": -0.1878685368,
				"z": 1.4297309602,
				"element": "C" 
			},
			{
				"x": -0.1874202326,
				"y": 1.4089461551,
				"z": 0.4335758179,
				"element": "C" 
			},
			{
				"x": -0.273446189,
				"y": 2.0182126316,
				"z": 1.4870450157,
				"element": "O" 
			},
			{
				"x": -1.0503705933,
				"y": 1.8607725544,
				"z": -0.7405685999,
				"element": "C" 
			},
			{
				"x": 0.0443941623,
				"y": 2.764260869,
				"z": -2.121054385,
				"element": "Br" 
			},
			{
				"x": 3.0100659535,
				"y": -2.9132270637,
				"z": 0.1615110313,
				"element": "H" 
			},
			{
				"x": 1.7440345771,
				"y": -2.1986506546,
				"z": -1.8766065369,
				"element": "H" 
			},
			{
				"x": 0.2964583599,
				"y": -0.2022984665,
				"z": -1.7961533071,
				"element": "H" 
			},
			{
				"x": 1.3248014864,
				"y": 0.3725653406,
				"z": 2.3526871245,
				"element": "H" 
			},
			{
				"x": -1.760776361,
				"y": 2.6021999194,
				"z": -0.3842735568,
				"element": "H" 
			},
			{
				"x": -1.5576893018,
				"y": 1.0391541157,
				"z": -1.2453238799,
				"element": "H" 
			}
		],
		 "valence_orbital": [ 
			{
				"type": "occ",
				"energy": -0.29891,
				"method": "rhf"
			},
			{
				"type": "occ",
				"energy": -0.28922,
				"method": "rhf"
			},
			{
				"type": "occ",
				"energy": -0.27492,
				"method": "rhf"
			},
			{
				"type": "occ",
				"energy": -0.26584,
				"method": "rhf"
			},
			{
				"type": "occ",
				"energy": -0.26049,
				"method": "rhf"
			},
			{
				"type": "unocc",
				"energy": -0.08212,
				"method": "rhf"
			},
			{
				"type": "unocc",
				"energy": -0.02018,
				"method": "rhf"
			},
			{
				"type": "unocc",
				"energy": -0.01541,
				"method": "rhf"
			},
			{
				"type": "unocc",
				"energy": 0.04215,
				"method": "rhf"
			},
			{
				"type": "unocc",
				"energy": 0.07956,
				"method": "rhf"
			}
		],
		"cosmo_sigma_profile": { 
			"-0.025": 0.0,
			"-0.024": 0.0,
			"-0.023": 0.0,
			"-0.022": 0.0,
			"-0.021": 0.0,
			"-0.02": 0.0,
			"-0.019": 0.0,
			"-0.018": 0.0,
			"-0.017": 0.0,
			"-0.016": 0.0,
			"-0.015": 0.0,
			"-0.014": 0.0,
			"-0.013": 0.0,
			"-0.012": 0.0,
			"-0.011": 0.0,
			"-0.01": 0.762438979305,
			"-0.009": 3.60836139572,
			"-0.008": 5.96840141787,
			"-0.007": 10.1514418261,
			"-0.006": 12.0524538713,
			"-0.005": 9.76363373228,
			"-0.004": 8.25001265474,
			"-0.003": 7.96914786549,
			"-0.002": 8.4038385638,
			"-0.001": 13.0663426021,
			"0.0": 19.1770471676,
			"0.001": 20.0294340533,
			"0.002": 18.8990521611,
			"0.003": 16.5923312383,
			"0.004": 19.6456374002,
			"0.005": 10.0153675863,
			"0.006": 1.99648801854,
			"0.007": 1.47078122784,
			"0.008": 1.56981952342,
			"0.009": 2.2761452609,
			"0.01": 3.14905496317,
			"0.011": 3.19767085485,
			"0.012": 0.554359518936,
			"0.013": 0.0,
			"0.014": 0.0,
			"0.015": 0.0,
			"0.016": 0.0,
			"0.017": 0.0,
			"0.018": 0.0,
			"0.019": 0.0,
			"0.02": 0.0,
			"0.021": 0.0,
			"0.022": 0.0,
			"0.023": 0.0,
			"0.024": 0.0,
			"0.025": 0.0
		}
	}
}
