{
	 "smiles": "ClC1=CC=C(CNC2=NCCS2)C=C1", 
	 "Tm": 380.15, 
	 "num_atms": 25, 
	 "gaussian": { 
		 "optdone": 1, 
		 "sigma_profile": "yes", 
		 "theory": "DFT", 
		 "functional": "B3LYP", 
		 "basiset": "6-31G**", 
		 "properties": { 
			 "R2extent": 6038.7009, 
			 "electric_dipole_moment_norm": 1.58290882555, 
			 "electric_quadrupole_moment_norm": 19.6297427574, 
			 "total_energy": -1355.57776894, 
			 "HOMO_LUMO_gap": 0.20571, 
			 "cosmo_polarized_energy": -9.75, 
			 "cosmo_cavitation_energy": 31.73, 
			 "cosmo_dispersion_energy": -23.8, 
			 "cosmo_repulsion_energy": 1.85, 
			 "cosmo_total_nonelectrostatic_energy": 9.79, 
			 "SMD_solvation_energy": 1.75 
		},
		"coords": [
			{
				"x": 6.1678535409,
				"y": 1.6761079759,
				"z": 0.0216327311,
				"element": "Cl" 
			},
			{
				"x": 4.4899397703,
				"y": 1.4802482609,
				"z": -0.4708813752,
				"element": "C" 
			},
			{
				"x": 3.4885153592,
				"y": 1.4523117725,
				"z": 0.5011045183,
				"element": "C" 
			},
			{
				"x": 2.1608305516,
				"y": 1.2999001697,
				"z": 0.1066641116,
				"element": "C" 
			},
			{
				"x": 1.8232925797,
				"y": 1.1719076327,
				"z": -1.2494727602,
				"element": "C" 
			},
			{
				"x": 0.3781114055,
				"y": 0.9862264231,
				"z": -1.6748608083,
				"element": "C" 
			},
			{
				"x": -0.1635511512,
				"y": -0.3509506208,
				"z": -1.4133288534,
				"element": "N" 
			},
			{
				"x": -0.7688364021,
				"y": -0.6521140909,
				"z": -0.2257716072,
				"element": "C" 
			},
			{
				"x": -0.9954821635,
				"y": 0.1718084653,
				"z": 0.726794915,
				"element": "N" 
			},
			{
				"x": -1.8308485305,
				"y": -0.4185764438,
				"z": 1.763830427,
				"element": "C" 
			},
			{
				"x": -1.6869989341,
				"y": -1.9600977839,
				"z": 1.7363351869,
				"element": "C" 
			},
			{
				"x": -1.3750249004,
				"y": -2.351857981,
				"z": -0.0311115836,
				"element": "S" 
			},
			{
				"x": 2.847813443,
				"y": 1.2058724223,
				"z": -2.201649923,
				"element": "C" 
			},
			{
				"x": 4.1832328643,
				"y": 1.3597993949,
				"z": -1.8241040676,
				"element": "C" 
			},
			{
				"x": 3.7477250791,
				"y": 1.5540706723,
				"z": 1.5493220023,
				"element": "H" 
			},
			{
				"x": 1.3702913093,
				"y": 1.2746395351,
				"z": 0.8505950033,
				"element": "H" 
			},
			{
				"x": -0.2712267528,
				"y": 1.6879028683,
				"z": -1.1472056591,
				"element": "H" 
			},
			{
				"x": 0.2820904092,
				"y": 1.1792104641,
				"z": -2.7487857901,
				"element": "H" 
			},
			{
				"x": 0.2918424711,
				"y": -1.1201826329,
				"z": -1.8844121202,
				"element": "H" 
			},
			{
				"x": -2.8804024404,
				"y": -0.136587448,
				"z": 1.5937637008,
				"element": "H" 
			},
			{
				"x": -1.5459464943,
				"y": -0.0285339814,
				"z": 2.7469963074,
				"element": "H" 
			},
			{
				"x": -2.5892827354,
				"y": -2.4744665217,
				"z": 2.0716929702,
				"element": "H" 
			},
			{
				"x": -0.8356747487,
				"y": -2.3002525951,
				"z": 2.3321215047,
				"element": "H" 
			},
			{
				"x": 2.6050345504,
				"y": 1.1167856439,
				"z": -3.2580595942,
				"element": "H" 
			},
			{
				"x": 4.9726019199,
				"y": 1.3880283985,
				"z": -2.5671092365,
				"element": "H" 
			}
		],
		 "valence_orbital": [ 
			{
				"type": "occ",
				"energy": -0.2633,
				"method": "rhf"
			},
			{
				"type": "occ",
				"energy": -0.26241,
				"method": "rhf"
			},
			{
				"type": "occ",
				"energy": -0.2507,
				"method": "rhf"
			},
			{
				"type": "occ",
				"energy": -0.2396,
				"method": "rhf"
			},
			{
				"type": "occ",
				"energy": -0.22272,
				"method": "rhf"
			},
			{
				"type": "unocc",
				"energy": -0.01701,
				"method": "rhf"
			},
			{
				"type": "unocc",
				"energy": -0.01292,
				"method": "rhf"
			},
			{
				"type": "unocc",
				"energy": 0.0065,
				"method": "rhf"
			},
			{
				"type": "unocc",
				"energy": 0.02711,
				"method": "rhf"
			},
			{
				"type": "unocc",
				"energy": 0.03445,
				"method": "rhf"
			}
		],
		"cosmo_sigma_profile": { 
			"-0.025": 0.0,
			"-0.024": 0.0,
			"-0.023": 0.0,
			"-0.022": 0.0,
			"-0.021": 0.0,
			"-0.02": 0.0,
			"-0.019": 0.0,
			"-0.018": 0.0,
			"-0.017": 0.0,
			"-0.016": 0.0,
			"-0.015": 0.0,
			"-0.014": 0.54359813889,
			"-0.013": 1.1828782168,
			"-0.012": 1.07946169567,
			"-0.011": 1.27502493759,
			"-0.01": 1.05235991263,
			"-0.009": 0.970462671715,
			"-0.008": 1.35439198183,
			"-0.007": 6.03905944788,
			"-0.006": 12.5078837472,
			"-0.005": 15.8079431499,
			"-0.004": 21.036714572,
			"-0.003": 20.8196329607,
			"-0.002": 19.1337213298,
			"-0.001": 14.6285215242,
			"0.0": 15.2575872175,
			"0.001": 17.5535816825,
			"0.002": 20.2343206705,
			"0.003": 22.5014788149,
			"0.004": 28.0107492778,
			"0.005": 16.7764613756,
			"0.006": 5.11678165308,
			"0.007": 4.30286536344,
			"0.008": 4.42143288715,
			"0.009": 2.2549938649,
			"0.01": 0.387031270728,
			"0.011": 0.723434717212,
			"0.012": 0.718221427181,
			"0.013": 0.792461370805,
			"0.014": 0.329223360898,
			"0.015": 0.0170700299039,
			"0.016": 0.0,
			"0.017": 0.0,
			"0.018": 0.0,
			"0.019": 0.0,
			"0.02": 0.0,
			"0.021": 0.0,
			"0.022": 0.0,
			"0.023": 0.0,
			"0.024": 0.0,
			"0.025": 0.0
		}
	}
}
