{
	 "smiles": "CC(=O)C1=C(O)C=CC2=C1OC(=O)C=C2", 
	 "Tm": 442.15, 
	 "num_atms": 23, 
	 "gaussian": { 
		 "optdone": 1, 
		 "sigma_profile": "yes", 
		 "theory": "DFT", 
		 "functional": "B3LYP", 
		 "basiset": "6-31G**", 
		 "properties": { 
			 "R2extent": 3092.7626, 
			 "electric_dipole_moment_norm": 3.60285321516, 
			 "electric_quadrupole_moment_norm": 14.4825258764, 
			 "total_energy": -724.903830731, 
			 "HOMO_LUMO_gap": 0.1528, 
			 "cosmo_polarized_energy": -12.19, 
			 "cosmo_cavitation_energy": 27.33, 
			 "cosmo_dispersion_energy": -20.34, 
			 "cosmo_repulsion_energy": 1.53, 
			 "cosmo_total_nonelectrostatic_energy": 8.53, 
			 "SMD_solvation_energy": 6.71 
		},
		"coords": [
			{
				"x": -2.7653842746,
				"y": -0.8958638737,
				"z": 1.0612657428,
				"element": "C" 
			},
			{
				"x": -1.7199881874,
				"y": -0.1038273496,
				"z": 1.806052298,
				"element": "C" 
			},
			{
				"x": -1.8653838182,
				"y": 0.0316087846,
				"z": 3.0355842395,
				"element": "O" 
			},
			{
				"x": -0.5463608276,
				"y": 0.5101927916,
				"z": 1.1463720579,
				"element": "C" 
			},
			{
				"x": 0.3794624972,
				"y": 1.2408929148,
				"z": 1.9579778734,
				"element": "C" 
			},
			{
				"x": 0.2089173665,
				"y": 1.3754663877,
				"z": 3.266236583,
				"element": "O" 
			},
			{
				"x": 1.5204063725,
				"y": 1.8517901244,
				"z": 1.3899690804,
				"element": "C" 
			},
			{
				"x": 1.7555123613,
				"y": 1.7497305346,
				"z": 0.039610435,
				"element": "C" 
			},
			{
				"x": 0.8749554926,
				"y": 1.040637359,
				"z": -0.8075242816,
				"element": "C" 
			},
			{
				"x": -0.2605592835,
				"y": 0.4329787023,
				"z": -0.2409177315,
				"element": "C" 
			},
			{
				"x": -1.1210527572,
				"y": -0.2531700107,
				"z": -1.0317364658,
				"element": "O" 
			},
			{
				"x": -0.96609792,
				"y": -0.4145549184,
				"z": -2.4292793563,
				"element": "C" 
			},
			{
				"x": -1.8164534322,
				"y": -1.0534872734,
				"z": -2.9986195778,
				"element": "O" 
			},
			{
				"x": 0.2071709388,
				"y": 0.2160295365,
				"z": -3.0001194125,
				"element": "C" 
			},
			{
				"x": 1.0764921494,
				"y": 0.9055140581,
				"z": -2.221788208,
				"element": "C" 
			},
			{
				"x": -3.2381193337,
				"y": -0.2930190398,
				"z": 0.2814516754,
				"element": "H" 
			},
			{
				"x": -3.5090951748,
				"y": -1.2277526031,
				"z": 1.7865143964,
				"element": "H" 
			},
			{
				"x": -2.3226534787,
				"y": -1.7552608573,
				"z": 0.5509924899,
				"element": "H" 
			},
			{
				"x": -0.6414096198,
				"y": 0.8820409259,
				"z": 3.4840194241,
				"element": "H" 
			},
			{
				"x": 2.1868840363,
				"y": 2.392268725,
				"z": 2.0520297654,
				"element": "H" 
			},
			{
				"x": 2.6327478804,
				"y": 2.2193531939,
				"z": -0.3973011725,
				"element": "H" 
			},
			{
				"x": 0.3382319818,
				"y": 0.1005537786,
				"z": -4.0688162623,
				"element": "H" 
			},
			{
				"x": 1.9529770309,
				"y": 1.3737781091,
				"z": -2.6633735928,
				"element": "H" 
			}
		],
		 "valence_orbital": [ 
			{
				"type": "occ",
				"energy": -0.30381,
				"method": "rhf"
			},
			{
				"type": "occ",
				"energy": -0.28481,
				"method": "rhf"
			},
			{
				"type": "occ",
				"energy": -0.27529,
				"method": "rhf"
			},
			{
				"type": "occ",
				"energy": -0.26989,
				"method": "rhf"
			},
			{
				"type": "occ",
				"energy": -0.23102,
				"method": "rhf"
			},
			{
				"type": "unocc",
				"energy": -0.07822,
				"method": "rhf"
			},
			{
				"type": "unocc",
				"energy": -0.06394,
				"method": "rhf"
			},
			{
				"type": "unocc",
				"energy": -0.00771,
				"method": "rhf"
			},
			{
				"type": "unocc",
				"energy": 0.0217,
				"method": "rhf"
			},
			{
				"type": "unocc",
				"energy": 0.08169,
				"method": "rhf"
			}
		],
		"cosmo_sigma_profile": { 
			"-0.025": 0.0,
			"-0.024": 0.0,
			"-0.023": 0.0,
			"-0.022": 0.0,
			"-0.021": 0.0,
			"-0.02": 0.0,
			"-0.019": 0.0,
			"-0.018": 0.0,
			"-0.017": 0.0,
			"-0.016": 0.0,
			"-0.015": 0.0,
			"-0.014": 0.0,
			"-0.013": 0.0,
			"-0.012": 0.0,
			"-0.011": 0.0,
			"-0.01": 0.103905435287,
			"-0.009": 2.24480768231,
			"-0.008": 6.75517591568,
			"-0.007": 7.43988654278,
			"-0.006": 11.3173052695,
			"-0.005": 14.417427851,
			"-0.004": 15.8149441669,
			"-0.003": 17.9415397399,
			"-0.002": 20.233314071,
			"-0.001": 24.5577422099,
			"0.0": 19.3387680622,
			"0.001": 15.7671940571,
			"0.002": 11.8393232264,
			"0.003": 6.35523908152,
			"0.004": 4.57975845726,
			"0.005": 4.10154604888,
			"0.006": 4.27315845502,
			"0.007": 3.82144546562,
			"0.008": 4.66577877269,
			"0.009": 5.21110047132,
			"0.01": 5.06050571113,
			"0.011": 6.41927551421,
			"0.012": 6.31194383611,
			"0.013": 1.38215140042,
			"0.014": 0.0,
			"0.015": 0.0,
			"0.016": 0.0,
			"0.017": 0.0,
			"0.018": 0.0,
			"0.019": 0.0,
			"0.02": 0.0,
			"0.021": 0.0,
			"0.022": 0.0,
			"0.023": 0.0,
			"0.024": 0.0,
			"0.025": 0.0
		}
	}
}
