{
	 "smiles": "NC1=NC(=CC=N1)C1=CC=CC=C1", 
	 "Tm": 436.15, 
	 "num_atms": 22, 
	 "gaussian": { 
		 "optdone": 1, 
		 "sigma_profile": "yes", 
		 "theory": "DFT", 
		 "functional": "B3LYP", 
		 "basiset": "6-31G**", 
		 "properties": { 
			 "R2extent": 3051.634, 
			 "electric_dipole_moment_norm": 0.952856211608, 
			 "electric_quadrupole_moment_norm": 10.8021182492, 
			 "total_energy": -550.762187029, 
			 "HOMO_LUMO_gap": 0.17263, 
			 "cosmo_polarized_energy": -10.31, 
			 "cosmo_cavitation_energy": 26.23, 
			 "cosmo_dispersion_energy": -19.75, 
			 "cosmo_repulsion_energy": 1.55, 
			 "cosmo_total_nonelectrostatic_energy": 8.04, 
			 "SMD_solvation_energy": 1.95 
		},
		"coords": [
			{
				"x": -1.8798976536,
				"y": 1.4277871028,
				"z": 3.508280247,
				"element": "N" 
			},
			{
				"x": -1.0330029463,
				"y": 1.8664251552,
				"z": 2.5293816516,
				"element": "C" 
			},
			{
				"x": -0.8079988977,
				"y": 1.0272974555,
				"z": 1.5046441651,
				"element": "N" 
			},
			{
				"x": -0.0128674673,
				"y": 1.4646703487,
				"z": 0.5154452229,
				"element": "C" 
			},
			{
				"x": 0.5449825803,
				"y": 2.7525055401,
				"z": 0.5617135206,
				"element": "C" 
			},
			{
				"x": 0.2521147135,
				"y": 3.5230839342,
				"z": 1.6831243216,
				"element": "C" 
			},
			{
				"x": -0.5261376069,
				"y": 3.1071768086,
				"z": 2.6829987077,
				"element": "N" 
			},
			{
				"x": 0.2256700896,
				"y": 0.5274321414,
				"z": -0.6139343564,
				"element": "C" 
			},
			{
				"x": -0.6268781181,
				"y": -0.5742638131,
				"z": -0.7939503242,
				"element": "C" 
			},
			{
				"x": -0.4297541899,
				"y": -1.4597755001,
				"z": -1.8505586076,
				"element": "C" 
			},
			{
				"x": 0.6278042309,
				"y": -1.266577437,
				"z": -2.7426600659,
				"element": "C" 
			},
			{
				"x": 1.4887331384,
				"y": -0.18150899,
				"z": -2.5673668471,
				"element": "C" 
			},
			{
				"x": 1.2893465058,
				"y": 0.7081203023,
				"z": -1.5129645673,
				"element": "C" 
			},
			{
				"x": -1.8824095255,
				"y": 1.9428420361,
				"z": 4.3740109028,
				"element": "H" 
			},
			{
				"x": -2.0823395124,
				"y": 0.4414332025,
				"z": 3.5331067953,
				"element": "H" 
			},
			{
				"x": 1.1614289905,
				"y": 3.147414325,
				"z": -0.2351195457,
				"element": "H" 
			},
			{
				"x": 0.6623183668,
				"y": 4.5273479172,
				"z": 1.7836348608,
				"element": "H" 
			},
			{
				"x": -1.4403739883,
				"y": -0.7155524611,
				"z": -0.0916702157,
				"element": "H" 
			},
			{
				"x": -1.1029172705,
				"y": -2.3026428253,
				"z": -1.9795578072,
				"element": "H" 
			},
			{
				"x": 0.7824920621,
				"y": -1.9583328486,
				"z": -3.5658136804,
				"element": "H" 
			},
			{
				"x": 2.3208312761,
				"y": -0.0300341959,
				"z": -3.2489510956,
				"element": "H" 
			},
			{
				"x": 1.9819552226,
				"y": 1.5328518016,
				"z": -1.3794932821,
				"element": "H" 
			}
		],
		 "valence_orbital": [ 
			{
				"type": "occ",
				"energy": -0.30185,
				"method": "rhf"
			},
			{
				"type": "occ",
				"energy": -0.2527,
				"method": "rhf"
			},
			{
				"type": "occ",
				"energy": -0.24531,
				"method": "rhf"
			},
			{
				"type": "occ",
				"energy": -0.24192,
				"method": "rhf"
			},
			{
				"type": "occ",
				"energy": -0.22104,
				"method": "rhf"
			},
			{
				"type": "unocc",
				"energy": -0.04841,
				"method": "rhf"
			},
			{
				"type": "unocc",
				"energy": -0.00771,
				"method": "rhf"
			},
			{
				"type": "unocc",
				"energy": 0.00534,
				"method": "rhf"
			},
			{
				"type": "unocc",
				"energy": 0.03432,
				"method": "rhf"
			},
			{
				"type": "unocc",
				"energy": 0.09158,
				"method": "rhf"
			}
		],
		"cosmo_sigma_profile": { 
			"-0.025": 0.0,
			"-0.024": 0.0,
			"-0.023": 0.0,
			"-0.022": 0.0,
			"-0.021": 0.0,
			"-0.02": 0.0,
			"-0.019": 0.0,
			"-0.018": 0.0,
			"-0.017": 0.0,
			"-0.016": 0.0,
			"-0.015": 0.0,
			"-0.014": 0.444574581599,
			"-0.013": 1.78754118393,
			"-0.012": 1.88219748309,
			"-0.011": 1.78031884455,
			"-0.01": 2.17291961739,
			"-0.009": 2.22157414336,
			"-0.008": 3.10279856461,
			"-0.007": 5.60999474275,
			"-0.006": 11.4763218385,
			"-0.005": 13.4489427657,
			"-0.004": 14.2631901815,
			"-0.003": 12.2283954013,
			"-0.002": 11.1885039005,
			"-0.001": 9.5798886587,
			"0.0": 13.5246615674,
			"0.001": 18.1816570282,
			"0.002": 18.6547499482,
			"0.003": 16.891794975,
			"0.004": 14.1535536408,
			"0.005": 14.9462823197,
			"0.006": 5.28899510398,
			"0.007": 4.44048565841,
			"0.008": 3.04086199173,
			"0.009": 2.78286035457,
			"0.01": 2.17382295981,
			"0.011": 1.56751573267,
			"0.012": 1.26828167829,
			"0.013": 0.65980288387,
			"0.014": 0.848780543271,
			"0.015": 0.81676155201,
			"0.016": 0.11111545665,
			"0.017": 0.0,
			"0.018": 0.0,
			"0.019": 0.0,
			"0.02": 0.0,
			"0.021": 0.0,
			"0.022": 0.0,
			"0.023": 0.0,
			"0.024": 0.0,
			"0.025": 0.0
		}
	}
}
