{
	 "smiles": "CCOP(=S)(OCC)SCN1C(=O)OC2=C1C=CC(Cl)=C2", 
	 "Tm": 320.95, 
	 "num_atms": 36, 
	 "gaussian": { 
		 "optdone": 1, 
		 "sigma_profile": "yes", 
		 "theory": "DFT", 
		 "functional": "B3LYP", 
		 "basiset": "6-31G**", 
		 "properties": { 
			 "R2extent": 10266.4345, 
			 "electric_dipole_moment_norm": 3.26632453378, 
			 "electric_quadrupole_moment_norm": 21.6867878548, 
			 "total_energy": -2419.97107988, 
			 "HOMO_LUMO_gap": 0.20022, 
			 "cosmo_polarized_energy": -16.77, 
			 "cosmo_cavitation_energy": 46.35, 
			 "cosmo_dispersion_energy": -31.28, 
			 "cosmo_repulsion_energy": 2.32, 
			 "cosmo_total_nonelectrostatic_energy": 17.4, 
			 "SMD_solvation_energy": 7.24 
		},
		"coords": [
			{
				"x": -2.1667633004,
				"y": -2.6237107774,
				"z": 3.7313453679,
				"element": "C" 
			},
			{
				"x": -0.6745096379,
				"y": -2.524822675,
				"z": 3.4780979084,
				"element": "C" 
			},
			{
				"x": -0.4902865408,
				"y": -2.0329617535,
				"z": 2.124603772,
				"element": "O" 
			},
			{
				"x": 0.9853574957,
				"y": -1.9413976672,
				"z": 1.4482536308,
				"element": "P" 
			},
			{
				"x": 2.202187639,
				"y": -3.4047165941,
				"z": 1.8203016529,
				"element": "S" 
			},
			{
				"x": 0.5770149845,
				"y": -1.6304275674,
				"z": -0.0789361707,
				"element": "O" 
			},
			{
				"x": -0.3077561912,
				"y": -2.5415335721,
				"z": -0.8044483246,
				"element": "C" 
			},
			{
				"x": -0.1798814248,
				"y": -2.2284130427,
				"z": -2.2815670514,
				"element": "C" 
			},
			{
				"x": 1.7763594106,
				"y": -0.0704325391,
				"z": 2.0454471108,
				"element": "S" 
			},
			{
				"x": 0.3766421573,
				"y": 1.0976882702,
				"z": 1.6666405943,
				"element": "C" 
			},
			{
				"x": 0.2864561429,
				"y": 1.5343426501,
				"z": 0.3012806249,
				"element": "N" 
			},
			{
				"x": -0.7544619184,
				"y": 1.1442040945,
				"z": -0.5348918799,
				"element": "C" 
			},
			{
				"x": -1.7319212725,
				"y": 0.4922114214,
				"z": -0.2706212371,
				"element": "O" 
			},
			{
				"x": -0.4898982442,
				"y": 1.671105356,
				"z": -1.7925141506,
				"element": "O" 
			},
			{
				"x": 0.6980626867,
				"y": 2.3631852053,
				"z": -1.722766234,
				"element": "C" 
			},
			{
				"x": 1.2103496792,
				"y": 2.2885966739,
				"z": -0.4248675098,
				"element": "C" 
			},
			{
				"x": 2.4077215855,
				"y": 2.9093355215,
				"z": -0.0972126421,
				"element": "C" 
			},
			{
				"x": 3.0702945094,
				"y": 3.6109896224,
				"z": -1.1136828386,
				"element": "C" 
			},
			{
				"x": 2.5340090621,
				"y": 3.6736124839,
				"z": -2.4018823245,
				"element": "C" 
			},
			{
				"x": 3.3967287318,
				"y": 4.5651869706,
				"z": -3.6448765971,
				"element": "Cl" 
			},
			{
				"x": 1.3270118881,
				"y": 3.0472188832,
				"z": -2.7434800571,
				"element": "C" 
			},
			{
				"x": -2.650121719,
				"y": -1.6487237586,
				"z": 3.6233228498,
				"element": "H" 
			},
			{
				"x": -2.6332983585,
				"y": -3.3201872338,
				"z": 3.029366558,
				"element": "H" 
			},
			{
				"x": -2.3431780612,
				"y": -2.9874123007,
				"z": 4.7485845653,
				"element": "H" 
			},
			{
				"x": -0.1941660681,
				"y": -1.8263936351,
				"z": 4.1733956747,
				"element": "H" 
			},
			{
				"x": -0.1798994256,
				"y": -3.4962546652,
				"z": 3.5698708615,
				"element": "H" 
			},
			{
				"x": -1.3230960044,
				"y": -2.3726543811,
				"z": -0.4390894756,
				"element": "H" 
			},
			{
				"x": -0.0063297873,
				"y": -3.571733648,
				"z": -0.5884156307,
				"element": "H" 
			},
			{
				"x": -0.4792726538,
				"y": -1.1978717789,
				"z": -2.4882725283,
				"element": "H" 
			},
			{
				"x": -0.8346632759,
				"y": -2.8955767183,
				"z": -2.8516683776,
				"element": "H" 
			},
			{
				"x": 0.8480464596,
				"y": -2.3759197497,
				"z": -2.6237594023,
				"element": "H" 
			},
			{
				"x": -0.5718828507,
				"y": 0.6246238972,
				"z": 1.9217630855,
				"element": "H" 
			},
			{
				"x": 0.5552895232,
				"y": 1.9493565034,
				"z": 2.3283220091,
				"element": "H" 
			},
			{
				"x": 2.8311852114,
				"y": 2.8522524503,
				"z": 0.8988301855,
				"element": "H" 
			},
			{
				"x": 4.0098422216,
				"y": 4.1080262011,
				"z": -0.9029577184,
				"element": "H" 
			},
			{
				"x": 0.9151273459,
				"y": 3.0968078527,
				"z": -3.7434163008,
				"element": "H" 
			}
		],
		 "valence_orbital": [ 
			{
				"type": "occ",
				"energy": -0.27994,
				"method": "rhf"
			},
			{
				"type": "occ",
				"energy": -0.27008,
				"method": "rhf"
			},
			{
				"type": "occ",
				"energy": -0.24961,
				"method": "rhf"
			},
			{
				"type": "occ",
				"energy": -0.24385,
				"method": "rhf"
			},
			{
				"type": "occ",
				"energy": -0.23206,
				"method": "rhf"
			},
			{
				"type": "unocc",
				"energy": -0.03184,
				"method": "rhf"
			},
			{
				"type": "unocc",
				"energy": -0.02002,
				"method": "rhf"
			},
			{
				"type": "unocc",
				"energy": -0.01188,
				"method": "rhf"
			},
			{
				"type": "unocc",
				"energy": -0.00179,
				"method": "rhf"
			},
			{
				"type": "unocc",
				"energy": 0.01742,
				"method": "rhf"
			}
		],
		"cosmo_sigma_profile": { 
			"-0.025": 0.0,
			"-0.024": 0.0,
			"-0.023": 0.0,
			"-0.022": 0.0,
			"-0.021": 0.0,
			"-0.02": 0.0,
			"-0.019": 0.0,
			"-0.018": 0.0,
			"-0.017": 0.0,
			"-0.016": 0.0,
			"-0.015": 0.0,
			"-0.014": 0.0,
			"-0.013": 0.0,
			"-0.012": 0.0325944626086,
			"-0.011": 0.859760819338,
			"-0.01": 3.21943021939,
			"-0.009": 4.55907055267,
			"-0.008": 7.26054186571,
			"-0.007": 8.11671395054,
			"-0.006": 11.3487023732,
			"-0.005": 21.7199771538,
			"-0.004": 33.1967812156,
			"-0.003": 27.5041626842,
			"-0.002": 27.3161192659,
			"-0.001": 31.7512345241,
			"0.0": 32.5590792238,
			"0.001": 26.1795608599,
			"0.002": 29.7378898701,
			"0.003": 25.89379048,
			"0.004": 22.992574097,
			"0.005": 14.9823000696,
			"0.006": 12.5339686193,
			"0.007": 10.4929760439,
			"0.008": 9.93317037781,
			"0.009": 4.85605255028,
			"0.01": 2.08322227942,
			"0.011": 3.89214394346,
			"0.012": 1.2144164587,
			"0.013": 0.0181228016006,
			"0.014": 0.0,
			"0.015": 0.0,
			"0.016": 0.0,
			"0.017": 0.0,
			"0.018": 0.0,
			"0.019": 0.0,
			"0.02": 0.0,
			"0.021": 0.0,
			"0.022": 0.0,
			"0.023": 0.0,
			"0.024": 0.0,
			"0.025": 0.0
		}
	}
}
