{
	 "smiles": "NC1=C(Cl)C(=CC(Cl)=C1)C(O)=O", 
	 "Tm": 473.15, 
	 "num_atms": 17, 
	 "gaussian": { 
		 "optdone": 1, 
		 "sigma_profile": "yes", 
		 "theory": "DFT", 
		 "functional": "B3LYP", 
		 "basiset": "6-31G**", 
		 "properties": { 
			 "R2extent": 3785.8258, 
			 "electric_dipole_moment_norm": 3.55923921365, 
			 "electric_quadrupole_moment_norm": 14.5910198989, 
			 "total_energy": -1395.35506125, 
			 "HOMO_LUMO_gap": 0.1652, 
			 "cosmo_polarized_energy": -13.11, 
			 "cosmo_cavitation_energy": 25.22, 
			 "cosmo_dispersion_energy": -19.19, 
			 "cosmo_repulsion_energy": 1.54, 
			 "cosmo_total_nonelectrostatic_energy": 7.56, 
			 "SMD_solvation_energy": 5.02 
		},
		"coords": [
			{
				"x": 2.9800089002,
				"y": -1.6271560269,
				"z": 0.2996233905,
				"element": "N" 
			},
			{
				"x": 2.3897498466,
				"y": -0.3807977825,
				"z": 0.3691450811,
				"element": "C" 
			},
			{
				"x": 1.3420207795,
				"y": -0.0048038666,
				"z": -0.5059703519,
				"element": "C" 
			},
			{
				"x": 0.8717533683,
				"y": -1.1995144857,
				"z": -1.7057989844,
				"element": "Cl" 
			},
			{
				"x": 0.7084034593,
				"y": 1.2435546269,
				"z": -0.3761231442,
				"element": "C" 
			},
			{
				"x": 1.1165431882,
				"y": 2.1210928745,
				"z": 0.6402564623,
				"element": "C" 
			},
			{
				"x": 2.1532991116,
				"y": 1.7548150327,
				"z": 1.4864875235,
				"element": "C" 
			},
			{
				"x": 2.6748790412,
				"y": 2.8626984159,
				"z": 2.7441230303,
				"element": "Cl" 
			},
			{
				"x": 2.7917176564,
				"y": 0.5288435709,
				"z": 1.3624347179,
				"element": "C" 
			},
			{
				"x": -0.4031378954,
				"y": 1.7863929311,
				"z": -1.2263190238,
				"element": "C" 
			},
			{
				"x": -0.5586310553,
				"y": 1.1840698617,
				"z": -2.4209768124,
				"element": "O" 
			},
			{
				"x": -1.0938712316,
				"y": 2.7269010719,
				"z": -0.8868250375,
				"element": "O" 
			},
			{
				"x": 3.889412113,
				"y": -1.7164551311,
				"z": 0.7267253083,
				"element": "H" 
			},
			{
				"x": 2.8721677027,
				"y": -2.1320376053,
				"z": -0.5674969932,
				"element": "H" 
			},
			{
				"x": 0.6087035765,
				"y": 3.0710456164,
				"z": 0.7396504289,
				"element": "H" 
			},
			{
				"x": 3.594339048,
				"y": 0.2599075477,
				"z": 2.0410957768,
				"element": "H" 
			},
			{
				"x": -1.2965576093,
				"y": 1.6492433485,
				"z": -2.8506313719,
				"element": "H" 
			}
		],
		 "valence_orbital": [ 
			{
				"type": "occ",
				"energy": -0.31754,
				"method": "rhf"
			},
			{
				"type": "occ",
				"energy": -0.30981,
				"method": "rhf"
			},
			{
				"type": "occ",
				"energy": -0.28582,
				"method": "rhf"
			},
			{
				"type": "occ",
				"energy": -0.25789,
				"method": "rhf"
			},
			{
				"type": "occ",
				"energy": -0.2245,
				"method": "rhf"
			},
			{
				"type": "unocc",
				"energy": -0.0593,
				"method": "rhf"
			},
			{
				"type": "unocc",
				"energy": -0.01198,
				"method": "rhf"
			},
			{
				"type": "unocc",
				"energy": 0.01417,
				"method": "rhf"
			},
			{
				"type": "unocc",
				"energy": 0.03124,
				"method": "rhf"
			},
			{
				"type": "unocc",
				"energy": 0.04442,
				"method": "rhf"
			}
		],
		"cosmo_sigma_profile": { 
			"-0.025": 0.0,
			"-0.024": 0.0,
			"-0.023": 0.0,
			"-0.022": 0.0,
			"-0.021": 0.0,
			"-0.02": 0.0,
			"-0.019": 0.259094954624,
			"-0.018": 0.889958698602,
			"-0.017": 0.862070335517,
			"-0.016": 0.995285152207,
			"-0.015": 0.830217812241,
			"-0.014": 1.48211814309,
			"-0.013": 2.36184338193,
			"-0.012": 3.30408932184,
			"-0.011": 3.73408103874,
			"-0.01": 3.76511715987,
			"-0.009": 3.05617786476,
			"-0.008": 3.52335762622,
			"-0.007": 3.87826905909,
			"-0.006": 4.7570900818,
			"-0.005": 3.92431332103,
			"-0.004": 5.25006492127,
			"-0.003": 9.76196964704,
			"-0.002": 11.0677498741,
			"-0.001": 12.408040667,
			"0.0": 16.3502481091,
			"0.001": 26.196257819,
			"0.002": 22.1533991824,
			"0.003": 14.2418134691,
			"0.004": 18.1940600771,
			"0.005": 7.3172064661,
			"0.006": 4.34969130012,
			"0.007": 4.33019265675,
			"0.008": 3.91188629701,
			"0.009": 3.2401277238,
			"0.01": 2.88772674703,
			"0.011": 5.15988044137,
			"0.012": 1.83226367518,
			"0.013": 0.0,
			"0.014": 0.0,
			"0.015": 0.0,
			"0.016": 0.0,
			"0.017": 0.0,
			"0.018": 0.0,
			"0.019": 0.0,
			"0.02": 0.0,
			"0.021": 0.0,
			"0.022": 0.0,
			"0.023": 0.0,
			"0.024": 0.0,
			"0.025": 0.0
		}
	}
}
