{
	 "smiles": "NC1=C(C=NN1)C1=C(Br)C=CC=C1", 
	 "Tm": 403.15, 
	 "num_atms": 21, 
	 "gaussian": { 
		 "optdone": 1, 
		 "sigma_profile": "yes", 
		 "theory": "DFT", 
		 "functional": "B3LYP", 
		 "basiset": "6-31G**", 
		 "properties": { 
			 "R2extent": 3967.3773, 
			 "electric_dipole_moment_norm": 4.17485420704, 
			 "electric_quadrupole_moment_norm": 12.3598480986, 
			 "total_energy": -3083.41527132, 
			 "HOMO_LUMO_gap": 0.18543, 
			 "cosmo_polarized_energy": -15.79, 
			 "cosmo_cavitation_energy": 27.16, 
			 "cosmo_dispersion_energy": -20.4, 
			 "cosmo_repulsion_energy": 1.62, 
			 "cosmo_total_nonelectrostatic_energy": 8.38, 
			 "SMD_solvation_energy": 2.5 
		},
		"coords": [
			{
				"x": -1.0582328158,
				"y": -0.2661738786,
				"z": -1.6767743775,
				"element": "N" 
			},
			{
				"x": -1.0168672165,
				"y": -1.0614410462,
				"z": -0.5320565697,
				"element": "C" 
			},
			{
				"x": -0.2633960935,
				"y": -0.9628467635,
				"z": 0.64040369,
				"element": "C" 
			},
			{
				"x": -0.6591990007,
				"y": -2.1093978783,
				"z": 1.3892138233,
				"element": "C" 
			},
			{
				"x": -1.5594554454,
				"y": -2.8493681246,
				"z": 0.763075869,
				"element": "N" 
			},
			{
				"x": -1.7690155976,
				"y": -2.184273225,
				"z": -0.4115658248,
				"element": "N" 
			},
			{
				"x": 0.7247934036,
				"y": 0.0821111998,
				"z": 0.9417530912,
				"element": "C" 
			},
			{
				"x": 0.8222936412,
				"y": 0.7657101577,
				"z": 2.1706126394,
				"element": "C" 
			},
			{
				"x": -0.389585769,
				"y": 0.401170883,
				"z": 3.6105060665,
				"element": "Br" 
			},
			{
				"x": 1.7793314425,
				"y": 1.7550223702,
				"z": 2.3927730074,
				"element": "C" 
			},
			{
				"x": 2.6700900005,
				"y": 2.1073722037,
				"z": 1.3795366126,
				"element": "C" 
			},
			{
				"x": 2.601006863,
				"y": 1.4567165244,
				"z": 0.1482141708,
				"element": "C" 
			},
			{
				"x": 1.6512367567,
				"y": 0.4584573783,
				"z": -0.0550067163,
				"element": "C" 
			},
			{
				"x": -1.9986734937,
				"y": -0.0893953528,
				"z": -2.0137843999,
				"element": "H" 
			},
			{
				"x": -0.5714664365,
				"y": 0.611789691,
				"z": -1.5382656242,
				"element": "H" 
			},
			{
				"x": -0.3039709404,
				"y": -2.4094167155,
				"z": 2.3646820891,
				"element": "H" 
			},
			{
				"x": -2.3837128593,
				"y": -2.5856313588,
				"z": -1.1017627522,
				"element": "H" 
			},
			{
				"x": 1.8147971379,
				"y": 2.2524142136,
				"z": 3.3553499945,
				"element": "H" 
			},
			{
				"x": 3.4099431349,
				"y": 2.8816440528,
				"z": 1.5582002223,
				"element": "H" 
			},
			{
				"x": 3.2951346444,
				"y": 1.7107203715,
				"z": -0.6474431087,
				"element": "H" 
			},
			{
				"x": 1.6323486437,
				"y": -0.0782847026,
				"z": -0.9993619029,
				"element": "H" 
			}
		],
		 "valence_orbital": [ 
			{
				"type": "occ",
				"energy": -0.28234,
				"method": "rhf"
			},
			{
				"type": "occ",
				"energy": -0.27,
				"method": "rhf"
			},
			{
				"type": "occ",
				"energy": -0.24596,
				"method": "rhf"
			},
			{
				"type": "occ",
				"energy": -0.23552,
				"method": "rhf"
			},
			{
				"type": "occ",
				"energy": -0.20395,
				"method": "rhf"
			},
			{
				"type": "unocc",
				"energy": -0.01852,
				"method": "rhf"
			},
			{
				"type": "unocc",
				"energy": -0.01448,
				"method": "rhf"
			},
			{
				"type": "unocc",
				"energy": 0.01215,
				"method": "rhf"
			},
			{
				"type": "unocc",
				"energy": 0.03339,
				"method": "rhf"
			},
			{
				"type": "unocc",
				"energy": 0.06731,
				"method": "rhf"
			}
		],
		"cosmo_sigma_profile": { 
			"-0.025": 0.0,
			"-0.024": 0.0,
			"-0.023": 0.0,
			"-0.022": 0.0,
			"-0.021": 0.0,
			"-0.02": 0.0,
			"-0.019": 0.0,
			"-0.018": 0.0,
			"-0.017": 0.108409021073,
			"-0.016": 1.50330867488,
			"-0.015": 1.86044181495,
			"-0.014": 2.49594149704,
			"-0.013": 2.92239672708,
			"-0.012": 3.04657799275,
			"-0.011": 3.26014365683,
			"-0.01": 3.01369826081,
			"-0.009": 2.43621235802,
			"-0.008": 1.91470104268,
			"-0.007": 4.2849309686,
			"-0.006": 10.8507128219,
			"-0.005": 12.4616575356,
			"-0.004": 11.6672405663,
			"-0.003": 10.9004976506,
			"-0.002": 10.2884732006,
			"-0.001": 11.4901090183,
			"0.0": 10.0004162452,
			"0.001": 13.9230135705,
			"0.002": 17.547165871,
			"0.003": 20.2914263362,
			"0.004": 22.5876865814,
			"0.005": 15.0589671583,
			"0.006": 6.24748264152,
			"0.007": 3.31550604871,
			"0.008": 2.4110770296,
			"0.009": 2.20565906388,
			"0.01": 2.02674754069,
			"0.011": 1.92716197237,
			"0.012": 1.78862730463,
			"0.013": 2.21292753283,
			"0.014": 1.32226879511,
			"0.015": 1.44424255496,
			"0.016": 1.09696528508,
			"0.017": 0.417842467112,
			"0.018": 0.0,
			"0.019": 0.0,
			"0.02": 0.0,
			"0.021": 0.0,
			"0.022": 0.0,
			"0.023": 0.0,
			"0.024": 0.0,
			"0.025": 0.0
		}
	}
}
