{
	 "smiles": "FC1=CC2=C(SC(CC#N)=N2)C=C1", 
	 "Tm": 407.15, 
	 "num_atms": 18, 
	 "gaussian": { 
		 "optdone": 1, 
		 "sigma_profile": "yes", 
		 "theory": "DFT", 
		 "functional": "B3LYP", 
		 "basiset": "6-31G**", 
		 "properties": { 
			 "R2extent": 3626.1041, 
			 "electric_dipole_moment_norm": 2.57926831873, 
			 "electric_quadrupole_moment_norm": 17.4887502767, 
			 "total_energy": -953.478872874, 
			 "HOMO_LUMO_gap": 0.18927, 
			 "cosmo_polarized_energy": -11.18, 
			 "cosmo_cavitation_energy": 26.07, 
			 "cosmo_dispersion_energy": -19.05, 
			 "cosmo_repulsion_energy": 1.43, 
			 "cosmo_total_nonelectrostatic_energy": 8.44, 
			 "SMD_solvation_energy": 4.12 
		},
		"coords": [
			{
				"x": 3.5297366575,
				"y": 1.2822354785,
				"z": -3.0514231008,
				"element": "F" 
			},
			{
				"x": 2.9184692024,
				"y": 0.6245230353,
				"z": -2.0453938698,
				"element": "C" 
			},
			{
				"x": 2.1868440356,
				"y": 1.34803432,
				"z": -1.1205419056,
				"element": "C" 
			},
			{
				"x": 1.5651738555,
				"y": 0.6337216332,
				"z": -0.0860547,
				"element": "C" 
			},
			{
				"x": 1.698571765,
				"y": -0.7747372125,
				"z": -0.0154877299,
				"element": "C" 
			},
			{
				"x": 0.807872889,
				"y": -1.3717482181,
				"z": 1.3710813968,
				"element": "S" 
			},
			{
				"x": 0.3490603261,
				"y": 0.3028669239,
				"z": 1.7265811101,
				"element": "C" 
			},
			{
				"x": -0.4634471922,
				"y": 0.6628229542,
				"z": 2.9495509357,
				"element": "C" 
			},
			{
				"x": -1.5554356133,
				"y": -0.2691223279,
				"z": 3.2450425199,
				"element": "C" 
			},
			{
				"x": -2.4142144148,
				"y": -1.0093938265,
				"z": 3.4904691365,
				"element": "N" 
			},
			{
				"x": 0.7945259917,
				"y": 1.20494997,
				"z": 0.9148695497,
				"element": "N" 
			},
			{
				"x": 2.440381059,
				"y": -1.4820380248,
				"z": -0.9655218608,
				"element": "C" 
			},
			{
				"x": 3.0564747402,
				"y": -0.7686191813,
				"z": -1.9884540578,
				"element": "C" 
			},
			{
				"x": 2.0964916177,
				"y": 2.4252434878,
				"z": -1.1916700897,
				"element": "H" 
			},
			{
				"x": 0.1921555489,
				"y": 0.7140414351,
				"z": 3.8291946322,
				"element": "H" 
			},
			{
				"x": -0.8676714603,
				"y": 1.6671493197,
				"z": 2.7897820019,
				"element": "H" 
			},
			{
				"x": 2.5400658506,
				"y": -2.5609644622,
				"z": -0.9140894534,
				"element": "H" 
			},
			{
				"x": 3.6448451413,
				"y": -1.2698653043,
				"z": -2.7488345147,
				"element": "H" 
			}
		],
		 "valence_orbital": [ 
			{
				"type": "occ",
				"energy": -0.33674,
				"method": "rhf"
			},
			{
				"type": "occ",
				"energy": -0.31762,
				"method": "rhf"
			},
			{
				"type": "occ",
				"energy": -0.29794,
				"method": "rhf"
			},
			{
				"type": "occ",
				"energy": -0.25784,
				"method": "rhf"
			},
			{
				"type": "occ",
				"energy": -0.24622,
				"method": "rhf"
			},
			{
				"type": "unocc",
				"energy": -0.05695,
				"method": "rhf"
			},
			{
				"type": "unocc",
				"energy": -0.01781,
				"method": "rhf"
			},
			{
				"type": "unocc",
				"energy": -0.01214,
				"method": "rhf"
			},
			{
				"type": "unocc",
				"energy": 0.01201,
				"method": "rhf"
			},
			{
				"type": "unocc",
				"energy": 0.02707,
				"method": "rhf"
			}
		],
		"cosmo_sigma_profile": { 
			"-0.025": 0.0,
			"-0.024": 0.0,
			"-0.023": 0.0,
			"-0.022": 0.0,
			"-0.021": 0.0,
			"-0.02": 0.0,
			"-0.019": 0.0,
			"-0.018": 0.0,
			"-0.017": 0.0,
			"-0.016": 0.0,
			"-0.015": 0.0,
			"-0.014": 0.0,
			"-0.013": 0.0,
			"-0.012": 0.0,
			"-0.011": 1.35553331181,
			"-0.01": 5.74479233352,
			"-0.009": 4.81739961711,
			"-0.008": 8.94512426049,
			"-0.007": 11.0828819867,
			"-0.006": 8.61032238435,
			"-0.005": 8.05745753159,
			"-0.004": 7.53665010238,
			"-0.003": 8.87668132891,
			"-0.002": 10.3081860305,
			"-0.001": 12.3284599956,
			"0.0": 18.1383985235,
			"0.001": 23.2964586885,
			"0.002": 24.1174425617,
			"0.003": 13.8388727314,
			"0.004": 13.9648550262,
			"0.005": 5.37229292053,
			"0.006": 3.85449115022,
			"0.007": 4.02802235462,
			"0.008": 4.10258828126,
			"0.009": 4.04683378032,
			"0.01": 3.97491999759,
			"0.011": 2.98316042413,
			"0.012": 3.22707222664,
			"0.013": 1.10957144799,
			"0.014": 0.0519419763852,
			"0.015": 0.0,
			"0.016": 0.0,
			"0.017": 0.0,
			"0.018": 0.0,
			"0.019": 0.0,
			"0.02": 0.0,
			"0.021": 0.0,
			"0.022": 0.0,
			"0.023": 0.0,
			"0.024": 0.0,
			"0.025": 0.0
		}
	}
}
