{
	 "smiles": "CC(CO)C1CCC2C3CCC4=CC(=O)C=CC4(C)C3CCC12C", 
	 "Tm": 454.15, 
	 "num_atms": 56, 
	 "gaussian": { 
		 "optdone": 1, 
		 "sigma_profile": "yes", 
		 "theory": "DFT", 
		 "functional": "B3LYP", 
		 "basiset": "6-31G**", 
		 "properties": { 
			 "R2extent": 10676.5839, 
			 "electric_dipole_moment_norm": 6.11000580851, 
			 "electric_quadrupole_moment_norm": 33.2739857063, 
			 "total_energy": -1008.05179811, 
			 "HOMO_LUMO_gap": 0.17777, 
			 "cosmo_polarized_energy": -15.28, 
			 "cosmo_cavitation_energy": 48.46, 
			 "cosmo_dispersion_energy": -33.59, 
			 "cosmo_repulsion_energy": 2.49, 
			 "cosmo_total_nonelectrostatic_energy": 17.36, 
			 "SMD_solvation_energy": 7.86 
		},
		"coords": [
			{
				"x": 0.5647443608,
				"y": -0.7642814733,
				"z": -3.5615323457,
				"element": "C" 
			},
			{
				"x": -0.9328576377,
				"y": -0.422405978,
				"z": -3.4759447302,
				"element": "C" 
			},
			{
				"x": -1.4999648673,
				"y": -0.1799974951,
				"z": -4.8830181468,
				"element": "C" 
			},
			{
				"x": -0.8217884345,
				"y": 0.9036088558,
				"z": -5.5118758432,
				"element": "O" 
			},
			{
				"x": -1.3320255909,
				"y": 0.7200853097,
				"z": -2.4942409458,
				"element": "C" 
			},
			{
				"x": -0.5366930518,
				"y": 2.0496613996,
				"z": -2.6964781848,
				"element": "C" 
			},
			{
				"x": 0.2502543234,
				"y": 2.3115559316,
				"z": -1.3914433984,
				"element": "C" 
			},
			{
				"x": 0.1724749085,
				"y": 1.0076979563,
				"z": -0.5644840924,
				"element": "C" 
			},
			{
				"x": 0.4591595346,
				"y": 1.2226567114,
				"z": 0.9547640042,
				"element": "C" 
			},
			{
				"x": 1.5800707296,
				"y": 0.3245371224,
				"z": 1.4955409156,
				"element": "C" 
			},
			{
				"x": 1.8980467364,
				"y": 0.6733056727,
				"z": 2.9636376979,
				"element": "C" 
			},
			{
				"x": 0.6483082733,
				"y": 0.6301169585,
				"z": 3.8079786323,
				"element": "C" 
			},
			{
				"x": 0.5550276846,
				"y": -0.1946359361,
				"z": 4.8693745387,
				"element": "C" 
			},
			{
				"x": -0.6665833422,
				"y": -0.3478285289,
				"z": 5.6778225344,
				"element": "C" 
			},
			{
				"x": -0.7206385987,
				"y": -1.0964360432,
				"z": 6.6517177404,
				"element": "O" 
			},
			{
				"x": -1.8291993822,
				"y": 0.4474983544,
				"z": 5.2335501601,
				"element": "C" 
			},
			{
				"x": -1.7565241381,
				"y": 1.2690244516,
				"z": 4.1769751977,
				"element": "C" 
			},
			{
				"x": -0.5180553197,
				"y": 1.4973928477,
				"z": 3.3431070477,
				"element": "C" 
			},
			{
				"x": -0.1590160176,
				"y": 3.0038421478,
				"z": 3.5043314335,
				"element": "C" 
			},
			{
				"x": -0.807632109,
				"y": 1.1013595335,
				"z": 1.8363793916,
				"element": "C" 
			},
			{
				"x": -1.9582763941,
				"y": 1.8548684913,
				"z": 1.1532413192,
				"element": "C" 
			},
			{
				"x": -2.3431593391,
				"y": 1.228318457,
				"z": -0.2142905564,
				"element": "C" 
			},
			{
				"x": -1.2165916714,
				"y": 0.4214711045,
				"z": -0.9483371486,
				"element": "C" 
			},
			{
				"x": -1.3615515621,
				"y": -1.0758527674,
				"z": -0.6175809595,
				"element": "C" 
			},
			{
				"x": 0.9706586525,
				"y": -1.078708318,
				"z": -2.59666929,
				"element": "H" 
			},
			{
				"x": 0.7222507526,
				"y": -1.589213703,
				"z": -4.2656475438,
				"element": "H" 
			},
			{
				"x": 1.1542708567,
				"y": 0.0827001379,
				"z": -3.9201595115,
				"element": "H" 
			},
			{
				"x": -1.457174497,
				"y": -1.326691978,
				"z": -3.1389385263,
				"element": "H" 
			},
			{
				"x": -2.581072578,
				"y": 0.0229375899,
				"z": -4.809607029,
				"element": "H" 
			},
			{
				"x": -1.3794662114,
				"y": -1.1043333067,
				"z": -5.4720044735,
				"element": "H" 
			},
			{
				"x": -1.1799751059,
				"y": 1.0067466307,
				"z": -6.4015801542,
				"element": "H" 
			},
			{
				"x": -2.3956163816,
				"y": 0.8958094645,
				"z": -2.7022605377,
				"element": "H" 
			},
			{
				"x": 0.121598518,
				"y": 1.9760042421,
				"z": -3.5614977577,
				"element": "H" 
			},
			{
				"x": -1.2168753297,
				"y": 2.8787135556,
				"z": -2.9149223952,
				"element": "H" 
			},
			{
				"x": -0.2064834746,
				"y": 3.1320770163,
				"z": -0.825728577,
				"element": "H" 
			},
			{
				"x": 1.2884873195,
				"y": 2.6089456751,
				"z": -1.5770744492,
				"element": "H" 
			},
			{
				"x": 0.9365338042,
				"y": 0.3219840757,
				"z": -0.9509315153,
				"element": "H" 
			},
			{
				"x": 0.8148140493,
				"y": 2.2580537529,
				"z": 1.0529680147,
				"element": "H" 
			},
			{
				"x": 2.4843487723,
				"y": 0.4373177579,
				"z": 0.8849631304,
				"element": "H" 
			},
			{
				"x": 1.2800277559,
				"y": -0.7297254544,
				"z": 1.4272734455,
				"element": "H" 
			},
			{
				"x": 2.6461089794,
				"y": -0.0123053921,
				"z": 3.3739699852,
				"element": "H" 
			},
			{
				"x": 2.3401217999,
				"y": 1.6791780898,
				"z": 2.9950542984,
				"element": "H" 
			},
			{
				"x": 1.3969505876,
				"y": -0.8130349663,
				"z": 5.1718027011,
				"element": "H" 
			},
			{
				"x": -2.7402708376,
				"y": 0.3369099467,
				"z": 5.8150607584,
				"element": "H" 
			},
			{
				"x": -2.6289702114,
				"y": 1.8581811629,
				"z": 3.9028151187,
				"element": "H" 
			},
			{
				"x": -0.9984181282,
				"y": 3.6353603035,
				"z": 3.1984946019,
				"element": "H" 
			},
			{
				"x": 0.7101390901,
				"y": 3.2911706832,
				"z": 2.9086062595,
				"element": "H" 
			},
			{
				"x": 0.0619776579,
				"y": 3.2229531152,
				"z": 4.5527599691,
				"element": "H" 
			},
			{
				"x": -1.0863929794,
				"y": 0.0424795729,
				"z": 1.8935573267,
				"element": "H" 
			},
			{
				"x": -1.6568580822,
				"y": 2.89947531,
				"z": 1.0072898769,
				"element": "H" 
			},
			{
				"x": -2.8505951745,
				"y": 1.8828226799,
				"z": 1.7856642341,
				"element": "H" 
			},
			{
				"x": -3.2010941857,
				"y": 0.5590831907,
				"z": -0.0773759561,
				"element": "H" 
			},
			{
				"x": -2.7013381838,
				"y": 2.0347353567,
				"z": -0.8630042696,
				"element": "H" 
			},
			{
				"x": -0.5456281578,
				"y": -1.6721871302,
				"z": -1.0360440294,
				"element": "H" 
			},
			{
				"x": -2.3036311427,
				"y": -1.4725758258,
				"z": -1.014364204,
				"element": "H" 
			},
			{
				"x": -1.3741570293,
				"y": -1.2588263192,
				"z": 0.4594362371,
				"element": "H" 
			}
		],
		 "valence_orbital": [ 
			{
				"type": "occ",
				"energy": -0.28131,
				"method": "rhf"
			},
			{
				"type": "occ",
				"energy": -0.26646,
				"method": "rhf"
			},
			{
				"type": "occ",
				"energy": -0.26351,
				"method": "rhf"
			},
			{
				"type": "occ",
				"energy": -0.2501,
				"method": "rhf"
			},
			{
				"type": "occ",
				"energy": -0.22772,
				"method": "rhf"
			},
			{
				"type": "unocc",
				"energy": -0.04995,
				"method": "rhf"
			},
			{
				"type": "unocc",
				"energy": 0.00416,
				"method": "rhf"
			},
			{
				"type": "unocc",
				"energy": 0.06381,
				"method": "rhf"
			},
			{
				"type": "unocc",
				"energy": 0.06963,
				"method": "rhf"
			},
			{
				"type": "unocc",
				"energy": 0.08281,
				"method": "rhf"
			}
		],
		"cosmo_sigma_profile": { 
			"-0.025": 0.0,
			"-0.024": 0.0,
			"-0.023": 0.0,
			"-0.022": 0.0,
			"-0.021": 0.0,
			"-0.02": 0.0,
			"-0.019": 0.0,
			"-0.018": 0.0,
			"-0.017": 0.0,
			"-0.016": 0.151372221673,
			"-0.015": 0.75636624365,
			"-0.014": 1.07645369376,
			"-0.013": 1.25729420057,
			"-0.012": 0.801620992425,
			"-0.011": 0.423350665852,
			"-0.01": 0.956275239807,
			"-0.009": 0.627927254582,
			"-0.008": 0.954883245144,
			"-0.007": 1.02821693368,
			"-0.006": 4.96078296535,
			"-0.005": 10.4450179689,
			"-0.004": 17.9431215865,
			"-0.003": 30.3905851572,
			"-0.002": 62.4034234186,
			"-0.001": 67.4754727002,
			"0.0": 55.7125179037,
			"0.001": 37.0215705182,
			"0.002": 23.9611400225,
			"0.003": 11.4081249827,
			"0.004": 5.49882662232,
			"0.005": 3.07651817101,
			"0.006": 3.02275258894,
			"0.007": 3.1295366825,
			"0.008": 3.49849319781,
			"0.009": 3.08780356347,
			"0.01": 3.3410421011,
			"0.011": 4.20952506821,
			"0.012": 4.21638276399,
			"0.013": 4.7192639619,
			"0.014": 4.14003814813,
			"0.015": 1.73166881293,
			"0.016": 0.0231233208118,
			"0.017": 0.0,
			"0.018": 0.0,
			"0.019": 0.0,
			"0.02": 0.0,
			"0.021": 0.0,
			"0.022": 0.0,
			"0.023": 0.0,
			"0.024": 0.0,
			"0.025": 0.0
		}
	}
}
