{
	 "smiles": "COC1=C(C=C(N)C=C1)N1N=NN=C1C", 
	 "Tm": 404.15, 
	 "num_atms": 26, 
	 "gaussian": { 
		 "optdone": 1, 
		 "sigma_profile": "yes", 
		 "theory": "DFT", 
		 "functional": "B3LYP", 
		 "basiset": "6-31G**", 
		 "properties": { 
			 "R2extent": 3296.3171, 
			 "electric_dipole_moment_norm": 7.53735352826, 
			 "electric_quadrupole_moment_norm": 20.0060983747, 
			 "total_energy": -698.506779211, 
			 "HOMO_LUMO_gap": 0.17578, 
			 "cosmo_polarized_energy": -19.72, 
			 "cosmo_cavitation_energy": 30.33, 
			 "cosmo_dispersion_energy": -21.54, 
			 "cosmo_repulsion_energy": 1.69, 
			 "cosmo_total_nonelectrostatic_energy": 10.48, 
			 "SMD_solvation_energy": 4.26 
		},
		"coords": [
			{
				"x": -2.7008770605,
				"y": 1.3095083248,
				"z": 2.509727123,
				"element": "C" 
			},
			{
				"x": -1.508248865,
				"y": 1.2292481748,
				"z": 1.7422869619,
				"element": "O" 
			},
			{
				"x": -1.2520570027,
				"y": 0.0642678461,
				"z": 1.0742289109,
				"element": "C" 
			},
			{
				"x": -0.1424297745,
				"y": 0.0551357591,
				"z": 0.2082042012,
				"element": "C" 
			},
			{
				"x": 0.1793067046,
				"y": -1.075025283,
				"z": -0.5384947769,
				"element": "C" 
			},
			{
				"x": -0.5919940601,
				"y": -2.2429813885,
				"z": -0.4450525218,
				"element": "C" 
			},
			{
				"x": -0.2342957763,
				"y": -3.3937087393,
				"z": -1.1543131163,
				"element": "N" 
			},
			{
				"x": -1.6861255232,
				"y": -2.2375714343,
				"z": 0.4321495172,
				"element": "C" 
			},
			{
				"x": -2.010319436,
				"y": -1.105301754,
				"z": 1.1790978647,
				"element": "C" 
			},
			{
				"x": 0.6494344353,
				"y": 1.2272697851,
				"z": 0.0392247985,
				"element": "N" 
			},
			{
				"x": 0.8115813423,
				"y": 1.788652173,
				"z": -1.1971293656,
				"element": "N" 
			},
			{
				"x": 1.608198689,
				"y": 2.7886254457,
				"z": -1.0369850261,
				"element": "N" 
			},
			{
				"x": 1.9916646757,
				"y": 2.9155896328,
				"z": 0.2617170592,
				"element": "N" 
			},
			{
				"x": 1.3942423294,
				"y": 1.9406905442,
				"z": 0.9236316438,
				"element": "C" 
			},
			{
				"x": 1.5435754768,
				"y": 1.6517867292,
				"z": 2.3761776326,
				"element": "C" 
			},
			{
				"x": -2.689993592,
				"y": 0.6054234369,
				"z": 3.3517260263,
				"element": "H" 
			},
			{
				"x": -2.7407653078,
				"y": 2.3291044521,
				"z": 2.8950478384,
				"element": "H" 
			},
			{
				"x": -3.5876058273,
				"y": 1.1199646968,
				"z": 1.8922272057,
				"element": "H" 
			},
			{
				"x": 1.0358421348,
				"y": -1.0271142724,
				"z": -1.2030781977,
				"element": "H" 
			},
			{
				"x": 0.2980577748,
				"y": -3.2235431926,
				"z": -1.9969746509,
				"element": "H" 
			},
			{
				"x": -0.9934663624,
				"y": -4.039665845,
				"z": -1.3231764887,
				"element": "H" 
			},
			{
				"x": -2.2956380078,
				"y": -3.131475007,
				"z": 0.5350583887,
				"element": "H" 
			},
			{
				"x": -2.8711046016,
				"y": -1.1408280807,
				"z": 1.8358797322,
				"element": "H" 
			},
			{
				"x": 0.6052361717,
				"y": 1.8362633992,
				"z": 2.9054239631,
				"element": "H" 
			},
			{
				"x": 2.3228638781,
				"y": 2.2986686978,
				"z": 2.7807240582,
				"element": "H" 
			},
			{
				"x": 1.8229175849,
				"y": 0.6065158993,
				"z": 2.5433712184,
				"element": "H" 
			}
		],
		 "valence_orbital": [ 
			{
				"type": "occ",
				"energy": -0.27827,
				"method": "rhf"
			},
			{
				"type": "occ",
				"energy": -0.27684,
				"method": "rhf"
			},
			{
				"type": "occ",
				"energy": -0.27356,
				"method": "rhf"
			},
			{
				"type": "occ",
				"energy": -0.25448,
				"method": "rhf"
			},
			{
				"type": "occ",
				"energy": -0.20573,
				"method": "rhf"
			},
			{
				"type": "unocc",
				"energy": -0.02995,
				"method": "rhf"
			},
			{
				"type": "unocc",
				"energy": 0.00055,
				"method": "rhf"
			},
			{
				"type": "unocc",
				"energy": 0.01369,
				"method": "rhf"
			},
			{
				"type": "unocc",
				"energy": 0.04289,
				"method": "rhf"
			},
			{
				"type": "unocc",
				"energy": 0.06861,
				"method": "rhf"
			}
		],
		"cosmo_sigma_profile": { 
			"-0.025": 0.0,
			"-0.024": 0.0,
			"-0.023": 0.0,
			"-0.022": 0.0,
			"-0.021": 0.0,
			"-0.02": 0.0,
			"-0.019": 0.0,
			"-0.018": 0.0,
			"-0.017": 0.0,
			"-0.016": 0.0,
			"-0.015": 0.0,
			"-0.014": 0.0,
			"-0.013": 0.66293256686,
			"-0.012": 2.95735223572,
			"-0.011": 2.99452970346,
			"-0.01": 3.51127992352,
			"-0.009": 3.10507635525,
			"-0.008": 3.63132349256,
			"-0.007": 6.72802177055,
			"-0.006": 16.4043589108,
			"-0.005": 19.8184747188,
			"-0.004": 21.2775154595,
			"-0.003": 20.1578555345,
			"-0.002": 16.8086276776,
			"-0.001": 11.6343048905,
			"0.0": 11.5063293948,
			"0.001": 11.4046871406,
			"0.002": 10.9390854732,
			"0.003": 10.7170829653,
			"0.004": 13.8190168797,
			"0.005": 9.60947125253,
			"0.006": 4.44518346981,
			"0.007": 4.56466714955,
			"0.008": 6.34131167114,
			"0.009": 5.47266202936,
			"0.01": 5.47962637762,
			"0.011": 5.36340544098,
			"0.012": 4.60033431665,
			"0.013": 3.26540950957,
			"0.014": 2.65316444182,
			"0.015": 1.29616538383,
			"0.016": 0.31425831698,
			"0.017": 0.0,
			"0.018": 0.0,
			"0.019": 0.0,
			"0.02": 0.0,
			"0.021": 0.0,
			"0.022": 0.0,
			"0.023": 0.0,
			"0.024": 0.0,
			"0.025": 0.0
		}
	}
}
