{
	 "smiles": "FC1=C(Cl)C=C2C(=O)C(=O)NC2=C1", 
	 "Tm": 530.15, 
	 "num_atms": 16, 
	 "gaussian": { 
		 "optdone": 1, 
		 "sigma_profile": "yes", 
		 "theory": "DFT", 
		 "functional": "B3LYP", 
		 "basiset": "6-31G**", 
		 "properties": { 
			 "R2extent": 3528.0384, 
			 "electric_dipole_moment_norm": 4.1391624201, 
			 "electric_quadrupole_moment_norm": 17.9385180957, 
			 "total_energy": -1071.87889157, 
			 "HOMO_LUMO_gap": 0.13973, 
			 "cosmo_polarized_energy": -15.36, 
			 "cosmo_cavitation_energy": 24.3, 
			 "cosmo_dispersion_energy": -17.93, 
			 "cosmo_repulsion_energy": 1.39, 
			 "cosmo_total_nonelectrostatic_energy": 7.76, 
			 "SMD_solvation_energy": 5.74 
		},
		"coords": [
			{
				"x": 0.9306082182,
				"y": 2.5267355084,
				"z": 1.6474766478,
				"element": "F" 
			},
			{
				"x": 1.0864015423,
				"y": 1.3671810515,
				"z": 1.0035974005,
				"element": "C" 
			},
			{
				"x": 2.2389596088,
				"y": 0.6032845778,
				"z": 1.2432162812,
				"element": "C" 
			},
			{
				"x": 3.4351670827,
				"y": 1.1837901762,
				"z": 2.3711823168,
				"element": "Cl" 
			},
			{
				"x": 2.4056063324,
				"y": -0.607705457,
				"z": 0.5733746629,
				"element": "C" 
			},
			{
				"x": 1.4180459958,
				"y": -1.0205293356,
				"z": -0.3153008617,
				"element": "C" 
			},
			{
				"x": 1.3151038791,
				"y": -2.2267462189,
				"z": -1.1516975445,
				"element": "C" 
			},
			{
				"x": 2.0691247059,
				"y": -3.1652066762,
				"z": -1.2772829103,
				"element": "O" 
			},
			{
				"x": -0.0477885715,
				"y": -2.069638982,
				"z": -1.916215668,
				"element": "C" 
			},
			{
				"x": -0.5452459377,
				"y": -2.8266882098,
				"z": -2.7153335634,
				"element": "O" 
			},
			{
				"x": -0.5707683685,
				"y": -0.8601758348,
				"z": -1.4711919512,
				"element": "N" 
			},
			{
				"x": 0.2672127191,
				"y": -0.2372179507,
				"z": -0.541818465,
				"element": "C" 
			},
			{
				"x": 0.0835779589,
				"y": 0.9709809824,
				"z": 0.1157632183,
				"element": "C" 
			},
			{
				"x": 3.287092272,
				"y": -1.2173420117,
				"z": 0.7406872928,
				"element": "H" 
			},
			{
				"x": -1.4540850041,
				"y": -0.4943052885,
				"z": -1.795779645,
				"element": "H" 
			},
			{
				"x": -0.7834124333,
				"y": 1.6058836692,
				"z": -0.026077211,
				"element": "H" 
			}
		],
		 "valence_orbital": [ 
			{
				"type": "occ",
				"energy": -0.32235,
				"method": "rhf"
			},
			{
				"type": "occ",
				"energy": -0.32076,
				"method": "rhf"
			},
			{
				"type": "occ",
				"energy": -0.2908,
				"method": "rhf"
			},
			{
				"type": "occ",
				"energy": -0.25935,
				"method": "rhf"
			},
			{
				"type": "occ",
				"energy": -0.24863,
				"method": "rhf"
			},
			{
				"type": "unocc",
				"energy": -0.1089,
				"method": "rhf"
			},
			{
				"type": "unocc",
				"energy": -0.04333,
				"method": "rhf"
			},
			{
				"type": "unocc",
				"energy": -0.00533,
				"method": "rhf"
			},
			{
				"type": "unocc",
				"energy": 0.00608,
				"method": "rhf"
			},
			{
				"type": "unocc",
				"energy": 0.06334,
				"method": "rhf"
			}
		],
		"cosmo_sigma_profile": { 
			"-0.025": 0.0,
			"-0.024": 0.0,
			"-0.023": 0.0,
			"-0.022": 0.0,
			"-0.021": 0.0,
			"-0.02": 0.0,
			"-0.019": 0.0,
			"-0.018": 0.0,
			"-0.017": 1.19545954938,
			"-0.016": 1.54880572831,
			"-0.015": 1.29492349788,
			"-0.014": 1.81722211175,
			"-0.013": 1.10164710853,
			"-0.012": 1.08545874918,
			"-0.011": 1.40104565566,
			"-0.01": 2.39405092934,
			"-0.009": 4.07869033604,
			"-0.008": 5.07795222993,
			"-0.007": 5.42788233627,
			"-0.006": 4.919529832,
			"-0.005": 6.37215490996,
			"-0.004": 6.49925745769,
			"-0.003": 12.3526837546,
			"-0.002": 21.2647404992,
			"-0.001": 19.2806062819,
			"0.0": 16.7931053662,
			"0.001": 8.74572161834,
			"0.002": 11.6187686317,
			"0.003": 16.535912592,
			"0.004": 12.20963204,
			"0.005": 2.82902325107,
			"0.006": 2.98774902801,
			"0.007": 2.76082361574,
			"0.008": 3.85361814668,
			"0.009": 5.37241675174,
			"0.01": 9.39558295968,
			"0.011": 7.34780051513,
			"0.012": 1.67733921361,
			"0.013": 0.00274847038865,
			"0.014": 0.0,
			"0.015": 0.0,
			"0.016": 0.0,
			"0.017": 0.0,
			"0.018": 0.0,
			"0.019": 0.0,
			"0.02": 0.0,
			"0.021": 0.0,
			"0.022": 0.0,
			"0.023": 0.0,
			"0.024": 0.0,
			"0.025": 0.0
		}
	}
}
