{
	 "smiles": "OC(=O)C1=CC=C(OC2=NC=C(C=C2)C#N)C=C1", 
	 "Tm": 520.15, 
	 "num_atms": 26, 
	 "gaussian": { 
		 "optdone": 1, 
		 "sigma_profile": "yes", 
		 "theory": "DFT", 
		 "functional": "B3LYP", 
		 "basiset": "6-31G**", 
		 "properties": { 
			 "R2extent": 7081.5719, 
			 "electric_dipole_moment_norm": 1.53834260813, 
			 "electric_quadrupole_moment_norm": 50.186468592, 
			 "total_energy": -835.356051328, 
			 "HOMO_LUMO_gap": 0.19018, 
			 "cosmo_polarized_energy": -24.14, 
			 "cosmo_cavitation_energy": 33.54, 
			 "cosmo_dispersion_energy": -23.63, 
			 "cosmo_repulsion_energy": 1.81, 
			 "cosmo_total_nonelectrostatic_energy": 11.73, 
			 "SMD_solvation_energy": 7.09 
		},
		"coords": [
			{
				"x": -2.4632916387,
				"y": 3.111575722,
				"z": -2.2532301423,
				"element": "O" 
			},
			{
				"x": -1.2871823733,
				"y": 3.5073890201,
				"z": -1.6972134421,
				"element": "C" 
			},
			{
				"x": -0.8498314375,
				"y": 4.6093057562,
				"z": -1.9297007761,
				"element": "O" 
			},
			{
				"x": -0.5899490017,
				"y": 2.5216104054,
				"z": -0.8077662992,
				"element": "C" 
			},
			{
				"x": -1.2387544685,
				"y": 1.434480415,
				"z": -0.2035367969,
				"element": "C" 
			},
			{
				"x": -0.5417614096,
				"y": 0.5632419458,
				"z": 0.6302389838,
				"element": "C" 
			},
			{
				"x": 0.8206393055,
				"y": 0.7793395643,
				"z": 0.8525974784,
				"element": "C" 
			},
			{
				"x": 1.5361795813,
				"y": -0.0113504632,
				"z": 1.7334004945,
				"element": "O" 
			},
			{
				"x": 1.6524148315,
				"y": -1.3581990665,
				"z": 1.5431566599,
				"element": "C" 
			},
			{
				"x": 2.0440576759,
				"y": -2.0067104287,
				"z": 2.6361446705,
				"element": "N" 
			},
			{
				"x": 2.2285802218,
				"y": -3.3219413671,
				"z": 2.5489868964,
				"element": "C" 
			},
			{
				"x": 2.0277109431,
				"y": -4.0546297556,
				"z": 1.3671859967,
				"element": "C" 
			},
			{
				"x": 1.6224706452,
				"y": -3.347962701,
				"z": 0.2213488147,
				"element": "C" 
			},
			{
				"x": 1.4315164274,
				"y": -1.9776188128,
				"z": 0.3014448979,
				"element": "C" 
			},
			{
				"x": 2.2346987627,
				"y": -5.4690811316,
				"z": 1.3391870055,
				"element": "C" 
			},
			{
				"x": 2.4024120796,
				"y": -6.6201849187,
				"z": 1.3189982913,
				"element": "N" 
			},
			{
				"x": 1.4799925945,
				"y": 1.8664737131,
				"z": 0.2757232939,
				"element": "C" 
			},
			{
				"x": 0.7698029994,
				"y": 2.7377277426,
				"z": -0.54286847,
				"element": "C" 
			},
			{
				"x": -2.5998078075,
				"y": 2.1638303796,
				"z": -2.1195381198,
				"element": "H" 
			},
			{
				"x": -2.3070073262,
				"y": 1.2797008863,
				"z": -0.3334238664,
				"element": "H" 
			},
			{
				"x": -1.0475902656,
				"y": -0.260799314,
				"z": 1.1220032936,
				"element": "H" 
			},
			{
				"x": 2.5492970701,
				"y": -3.8291617942,
				"z": 3.4557627592,
				"element": "H" 
			},
			{
				"x": 1.4694522301,
				"y": -3.8723678573,
				"z": -0.7160404581,
				"element": "H" 
			},
			{
				"x": 1.1317187361,
				"y": -1.4033997946,
				"z": -0.5661316951,
				"element": "H" 
			},
			{
				"x": 2.5332780242,
				"y": 2.0175919016,
				"z": 0.4858833381,
				"element": "H" 
			},
			{
				"x": 1.2524536003,
				"y": 3.5979399533,
				"z": -0.9935128081,
				"element": "H" 
			}
		],
		 "valence_orbital": [ 
			{
				"type": "occ",
				"energy": -0.29729,
				"method": "rhf"
			},
			{
				"type": "occ",
				"energy": -0.29245,
				"method": "rhf"
			},
			{
				"type": "occ",
				"energy": -0.28839,
				"method": "rhf"
			},
			{
				"type": "occ",
				"energy": -0.28113,
				"method": "rhf"
			},
			{
				"type": "occ",
				"energy": -0.26131,
				"method": "rhf"
			},
			{
				"type": "unocc",
				"energy": -0.07113,
				"method": "rhf"
			},
			{
				"type": "unocc",
				"energy": -0.06085,
				"method": "rhf"
			},
			{
				"type": "unocc",
				"energy": -0.05649,
				"method": "rhf"
			},
			{
				"type": "unocc",
				"energy": -0.04033,
				"method": "rhf"
			},
			{
				"type": "unocc",
				"energy": 0.02129,
				"method": "rhf"
			}
		],
		"cosmo_sigma_profile": { 
			"-0.025": 0.0,
			"-0.024": 0.0,
			"-0.023": 0.0,
			"-0.022": 0.0,
			"-0.021": 0.0,
			"-0.02": 0.0,
			"-0.019": 0.539958621718,
			"-0.018": 1.03873050967,
			"-0.017": 0.938950605036,
			"-0.016": 0.924277098312,
			"-0.015": 1.13328283221,
			"-0.014": 0.951435240868,
			"-0.013": 0.701816096656,
			"-0.012": 1.40654611101,
			"-0.011": 1.25693069811,
			"-0.01": 1.77521179606,
			"-0.009": 6.37432726715,
			"-0.008": 11.3514958765,
			"-0.007": 14.0546632947,
			"-0.006": 13.4317867838,
			"-0.005": 12.6713805342,
			"-0.004": 13.1840170172,
			"-0.003": 18.6545007762,
			"-0.002": 22.234798713,
			"-0.001": 19.9705882465,
			"0.0": 16.3671955476,
			"0.001": 17.6139954028,
			"0.002": 15.0923022764,
			"0.003": 6.40851916796,
			"0.004": 5.55914360054,
			"0.005": 5.88959888285,
			"0.006": 8.08150402948,
			"0.007": 7.36570708248,
			"0.008": 7.2174578516,
			"0.009": 8.58862113234,
			"0.01": 9.30906132853,
			"0.011": 9.73144823626,
			"0.012": 7.88687781949,
			"0.013": 3.25267185374,
			"0.014": 0.881818030594,
			"0.015": 0.17011147654,
			"0.016": 0.0,
			"0.017": 0.0,
			"0.018": 0.0,
			"0.019": 0.0,
			"0.02": 0.0,
			"0.021": 0.0,
			"0.022": 0.0,
			"0.023": 0.0,
			"0.024": 0.0,
			"0.025": 0.0
		}
	}
}
