{
	 "smiles": "COC1=CC=C(C=C1)C1=NN=C(CCl)O1", 
	 "Tm": 366.15, 
	 "num_atms": 24, 
	 "gaussian": { 
		 "optdone": 1, 
		 "sigma_profile": "yes", 
		 "theory": "DFT", 
		 "functional": "B3LYP", 
		 "basiset": "6-31G**", 
		 "properties": { 
			 "R2extent": 6111.2835, 
			 "electric_dipole_moment_norm": 4.1808729543, 
			 "electric_quadrupole_moment_norm": 18.7866909651, 
			 "total_energy": -1106.59616093, 
			 "HOMO_LUMO_gap": 0.17182, 
			 "cosmo_polarized_energy": -13.26, 
			 "cosmo_cavitation_energy": 31.19, 
			 "cosmo_dispersion_energy": -23.03, 
			 "cosmo_repulsion_energy": 1.81, 
			 "cosmo_total_nonelectrostatic_energy": 9.97, 
			 "SMD_solvation_energy": 4.2 
		},
		"coords": [
			{
				"x": 1.6806383607,
				"y": -4.0348396222,
				"z": 2.1162045132,
				"element": "C" 
			},
			{
				"x": 1.8281868292,
				"y": -3.1957393017,
				"z": 0.9780866567,
				"element": "O" 
			},
			{
				"x": 1.2834163061,
				"y": -1.9518297349,
				"z": 1.012599094,
				"element": "C" 
			},
			{
				"x": 0.5777379923,
				"y": -1.4204740177,
				"z": 2.102971709,
				"element": "C" 
			},
			{
				"x": 0.0618841655,
				"y": -0.1302662969,
				"z": 2.0275154511,
				"element": "C" 
			},
			{
				"x": 0.2381188868,
				"y": 0.6476441458,
				"z": 0.8744084643,
				"element": "C" 
			},
			{
				"x": 0.9463123472,
				"y": 0.1063573432,
				"z": -0.2143745278,
				"element": "C" 
			},
			{
				"x": 1.4627537097,
				"y": -1.1772034525,
				"z": -0.1459807797,
				"element": "C" 
			},
			{
				"x": -0.3144981082,
				"y": 1.9911489668,
				"z": 0.828952757,
				"element": "C" 
			},
			{
				"x": -1.0005785089,
				"y": 2.6225329664,
				"z": 1.7425345198,
				"element": "N" 
			},
			{
				"x": -1.303099162,
				"y": 3.8732666822,
				"z": 1.2194807876,
				"element": "N" 
			},
			{
				"x": -0.7777156312,
				"y": 3.9132405663,
				"z": 0.0352701462,
				"element": "C" 
			},
			{
				"x": -0.8043698574,
				"y": 5.0340226605,
				"z": -0.9271089724,
				"element": "C" 
			},
			{
				"x": -1.8479950757,
				"y": 4.6779839006,
				"z": -2.3808817766,
				"element": "Cl" 
			},
			{
				"x": -0.12971197,
				"y": 2.7585402699,
				"z": -0.2879204644,
				"element": "O" 
			},
			{
				"x": 0.6247199928,
				"y": -4.2413232206,
				"z": 2.3301507132,
				"element": "H" 
			},
			{
				"x": 2.1864977228,
				"y": -4.9683859479,
				"z": 1.8670033142,
				"element": "H" 
			},
			{
				"x": 2.1501953785,
				"y": -3.5948576202,
				"z": 3.0046751273,
				"element": "H" 
			},
			{
				"x": 0.4268156078,
				"y": -1.9995272587,
				"z": 3.0057886516,
				"element": "H" 
			},
			{
				"x": -0.4851276835,
				"y": 0.2880435413,
				"z": 2.8657588107,
				"element": "H" 
			},
			{
				"x": 1.0865455492,
				"y": 0.6971459862,
				"z": -1.1132892111,
				"element": "H" 
			},
			{
				"x": 2.0100889215,
				"y": -1.6089190594,
				"z": -0.9769867707,
				"element": "H" 
			},
			{
				"x": -1.2224365446,
				"y": 5.9091717739,
				"z": -0.433273286,
				"element": "H" 
			},
			{
				"x": 0.1897207714,
				"y": 5.2545667295,
				"z": -1.3171849272,
				"element": "H" 
			}
		],
		 "valence_orbital": [ 
			{
				"type": "occ",
				"energy": -0.30657,
				"method": "rhf"
			},
			{
				"type": "occ",
				"energy": -0.28801,
				"method": "rhf"
			},
			{
				"type": "occ",
				"energy": -0.27974,
				"method": "rhf"
			},
			{
				"type": "occ",
				"energy": -0.2684,
				"method": "rhf"
			},
			{
				"type": "occ",
				"energy": -0.22524,
				"method": "rhf"
			},
			{
				"type": "unocc",
				"energy": -0.05342,
				"method": "rhf"
			},
			{
				"type": "unocc",
				"energy": -0.02127,
				"method": "rhf"
			},
			{
				"type": "unocc",
				"energy": -0.01356,
				"method": "rhf"
			},
			{
				"type": "unocc",
				"energy": 0.04481,
				"method": "rhf"
			},
			{
				"type": "unocc",
				"energy": 0.06319,
				"method": "rhf"
			}
		],
		"cosmo_sigma_profile": { 
			"-0.025": 0.0,
			"-0.024": 0.0,
			"-0.023": 0.0,
			"-0.022": 0.0,
			"-0.021": 0.0,
			"-0.02": 0.0,
			"-0.019": 0.0,
			"-0.018": 0.0,
			"-0.017": 0.0,
			"-0.016": 0.0,
			"-0.015": 0.0,
			"-0.014": 0.0,
			"-0.013": 0.0,
			"-0.012": 0.0,
			"-0.011": 0.107511663702,
			"-0.01": 2.8018142053,
			"-0.009": 3.94082698353,
			"-0.008": 4.67448522392,
			"-0.007": 8.50089414463,
			"-0.006": 18.4223066256,
			"-0.005": 19.0044895692,
			"-0.004": 18.0960137257,
			"-0.003": 15.7567477293,
			"-0.002": 14.6778056757,
			"-0.001": 14.4526240366,
			"0.0": 15.6847741049,
			"0.001": 16.6221255171,
			"0.002": 19.8753161401,
			"0.003": 23.4631141227,
			"0.004": 13.0836885195,
			"0.005": 12.7672291173,
			"0.006": 6.41323899803,
			"0.007": 3.68893186516,
			"0.008": 3.06806911511,
			"0.009": 3.79669872634,
			"0.01": 3.43539039539,
			"0.011": 2.98251229686,
			"0.012": 2.82140249236,
			"0.013": 2.32287500555,
			"0.014": 1.82262580366,
			"0.015": 0.271215050924,
			"0.016": 0.0,
			"0.017": 0.0,
			"0.018": 0.0,
			"0.019": 0.0,
			"0.02": 0.0,
			"0.021": 0.0,
			"0.022": 0.0,
			"0.023": 0.0,
			"0.024": 0.0,
			"0.025": 0.0
		}
	}
}
