{
	 "smiles": "NC1=CC=C(C=C1)C1=CC=C(N)C=C1", 
	 "Tm": 397.15, 
	 "num_atms": 26, 
	 "gaussian": { 
		 "optdone": 1, 
		 "sigma_profile": "yes", 
		 "theory": "DFT", 
		 "functional": "B3LYP", 
		 "basiset": "6-31G**", 
		 "properties": { 
			 "R2extent": 4293.755, 
			 "electric_dipole_moment_norm": 2.09076093803, 
			 "electric_quadrupole_moment_norm": 21.7754156507, 
			 "total_energy": -574.026366116, 
			 "HOMO_LUMO_gap": 0.17554, 
			 "cosmo_polarized_energy": -14.62, 
			 "cosmo_cavitation_energy": 29.64, 
			 "cosmo_dispersion_energy": -21.99, 
			 "cosmo_repulsion_energy": 1.72, 
			 "cosmo_total_nonelectrostatic_energy": 9.37, 
			 "SMD_solvation_energy": 4.67 
		},
		"coords": [
			{
				"x": 0.7457801904,
				"y": -2.5333902351,
				"z": 3.0116836555,
				"element": "N" 
			},
			{
				"x": 0.5274927777,
				"y": -1.5414384505,
				"z": 2.0502203267,
				"element": "C" 
			},
			{
				"x": 0.4124593028,
				"y": -0.190653082,
				"z": 2.4183740143,
				"element": "C" 
			},
			{
				"x": 0.2508122448,
				"y": 0.7977753284,
				"z": 1.4532043036,
				"element": "C" 
			},
			{
				"x": 0.2004800268,
				"y": 0.492741687,
				"z": 0.0818036352,
				"element": "C" 
			},
			{
				"x": 0.3197160888,
				"y": -0.8621561574,
				"z": -0.2737193583,
				"element": "C" 
			},
			{
				"x": 0.4768274895,
				"y": -1.8596007831,
				"z": 0.6828268265,
				"element": "C" 
			},
			{
				"x": 0.0278081192,
				"y": 1.5503753309,
				"z": -0.9418560455,
				"element": "C" 
			},
			{
				"x": 0.6151009765,
				"y": 2.8191336294,
				"z": -0.7945008061,
				"element": "C" 
			},
			{
				"x": 0.4523084371,
				"y": 3.8172699278,
				"z": -1.7493771012,
				"element": "C" 
			},
			{
				"x": -0.3082556599,
				"y": 3.5856360563,
				"z": -2.9075832662,
				"element": "C" 
			},
			{
				"x": -0.4249970321,
				"y": 4.5651714625,
				"z": -3.8990032045,
				"element": "N" 
			},
			{
				"x": -0.897991,
				"y": 2.3207817669,
				"z": -3.0680710177,
				"element": "C" 
			},
			{
				"x": -0.73227037,
				"y": 1.331851264,
				"z": -2.1041112995,
				"element": "C" 
			},
			{
				"x": 0.4218988256,
				"y": -2.3019077271,
				"z": 3.9410740962,
				"element": "H" 
			},
			{
				"x": 0.4532907041,
				"y": -3.4616556469,
				"z": 2.737743568,
				"element": "H" 
			},
			{
				"x": 0.4417336973,
				"y": 0.0818270786,
				"z": 3.4710035764,
				"element": "H" 
			},
			{
				"x": 0.1334698354,
				"y": 1.8290471323,
				"z": 1.7740734278,
				"element": "H" 
			},
			{
				"x": 0.312356976,
				"y": -1.1398215593,
				"z": -1.3239694035,
				"element": "H" 
			},
			{
				"x": 0.5794105599,
				"y": -2.8963852645,
				"z": 0.3704377995,
				"element": "H" 
			},
			{
				"x": 1.2322962905,
				"y": 3.0224421984,
				"z": 0.0760857778,
				"element": "H" 
			},
			{
				"x": 0.9325240961,
				"y": 4.7830056417,
				"z": -1.6087435656,
				"element": "H" 
			},
			{
				"x": -0.3115824435,
				"y": 5.5152845199,
				"z": -3.572367845,
				"element": "H" 
			},
			{
				"x": -1.2373975027,
				"y": 4.4721463918,
				"z": -4.4936461922,
				"element": "H" 
			},
			{
				"x": -1.497466122,
				"y": 2.1178342074,
				"z": -3.9527014589,
				"element": "H" 
			},
			{
				"x": -1.2278065084,
				"y": 0.3752852825,
				"z": -2.2443804433,
				"element": "H" 
			}
		],
		 "valence_orbital": [ 
			{
				"type": "occ",
				"energy": -0.28695,
				"method": "rhf"
			},
			{
				"type": "occ",
				"energy": -0.23955,
				"method": "rhf"
			},
			{
				"type": "occ",
				"energy": -0.23866,
				"method": "rhf"
			},
			{
				"type": "occ",
				"energy": -0.2139,
				"method": "rhf"
			},
			{
				"type": "occ",
				"energy": -0.17527,
				"method": "rhf"
			},
			{
				"type": "unocc",
				"energy": 0.00027,
				"method": "rhf"
			},
			{
				"type": "unocc",
				"energy": 0.00689,
				"method": "rhf"
			},
			{
				"type": "unocc",
				"energy": 0.0119,
				"method": "rhf"
			},
			{
				"type": "unocc",
				"energy": 0.05446,
				"method": "rhf"
			},
			{
				"type": "unocc",
				"energy": 0.08569,
				"method": "rhf"
			}
		],
		"cosmo_sigma_profile": { 
			"-0.025": 0.0,
			"-0.024": 0.0,
			"-0.023": 0.0,
			"-0.022": 0.0,
			"-0.021": 0.0,
			"-0.02": 0.0,
			"-0.019": 0.0,
			"-0.018": 0.0,
			"-0.017": 0.0,
			"-0.016": 0.0,
			"-0.015": 0.0,
			"-0.014": 0.0,
			"-0.013": 0.231492811124,
			"-0.012": 3.96216269491,
			"-0.011": 5.68883336163,
			"-0.01": 5.55879880016,
			"-0.009": 6.28988996097,
			"-0.008": 5.92714975359,
			"-0.007": 5.35113670421,
			"-0.006": 7.84169751434,
			"-0.005": 13.6138675435,
			"-0.004": 17.9351343013,
			"-0.003": 15.4558441821,
			"-0.002": 14.4469042683,
			"-0.001": 11.2723065613,
			"0.0": 10.5722286082,
			"0.001": 9.34868138595,
			"0.002": 10.2518285122,
			"0.003": 11.3529709293,
			"0.004": 14.2689513644,
			"0.005": 15.4267779577,
			"0.006": 20.3958529716,
			"0.007": 17.9400809092,
			"0.008": 3.13277597332,
			"0.009": 1.28905355286,
			"0.01": 1.44439181321,
			"0.011": 1.5567686906,
			"0.012": 1.30308607501,
			"0.013": 1.321228129,
			"0.014": 1.22497287111,
			"0.015": 0.831568211078,
			"0.016": 0.027448236788,
			"0.017": 0.0,
			"0.018": 0.0,
			"0.019": 0.0,
			"0.02": 0.0,
			"0.021": 0.0,
			"0.022": 0.0,
			"0.023": 0.0,
			"0.024": 0.0,
			"0.025": 0.0
		}
	}
}
