{
	 "smiles": "CCN(CC)CCOC(=O)C=C", 
	 "Tm": 213.15, 
	 "num_atms": 29, 
	 "gaussian": { 
		 "optdone": 1, 
		 "sigma_profile": "yes", 
		 "theory": "DFT", 
		 "functional": "B3LYP", 
		 "basiset": "6-31G**", 
		 "properties": { 
			 "R2extent": 3114.7992, 
			 "electric_dipole_moment_norm": 1.39210606277, 
			 "electric_quadrupole_moment_norm": 9.2543088267, 
			 "total_energy": -558.383508222, 
			 "HOMO_LUMO_gap": 0.15986, 
			 "cosmo_polarized_energy": -7.97, 
			 "cosmo_cavitation_energy": 31.55, 
			 "cosmo_dispersion_energy": -21.54, 
			 "cosmo_repulsion_energy": 1.76, 
			 "cosmo_total_nonelectrostatic_energy": 11.76, 
			 "SMD_solvation_energy": 5.43 
		},
		"coords": [
			{
				"x": -1.0915887211,
				"y": 1.4090524119,
				"z": -2.9652021051,
				"element": "C" 
			},
			{
				"x": 0.0105588785,
				"y": 0.8366294977,
				"z": -2.0708221423,
				"element": "C" 
			},
			{
				"x": -0.2268621088,
				"y": -0.5479703868,
				"z": -1.6588712705,
				"element": "N" 
			},
			{
				"x": 0.9824573564,
				"y": -1.2155222639,
				"z": -1.1592067493,
				"element": "C" 
			},
			{
				"x": 1.9151834357,
				"y": -1.6635595913,
				"z": -2.2886572007,
				"element": "C" 
			},
			{
				"x": -1.423524804,
				"y": -0.7554197765,
				"z": -0.848698715,
				"element": "C" 
			},
			{
				"x": -1.5339307169,
				"y": -0.026816539,
				"z": 0.4930950014,
				"element": "C" 
			},
			{
				"x": -0.5564050869,
				"y": -0.5740862506,
				"z": 1.4039046141,
				"element": "O" 
			},
			{
				"x": -0.500064002,
				"y": 0.0042515497,
				"z": 2.6269763602,
				"element": "C" 
			},
			{
				"x": -1.2146515903,
				"y": 0.9251908827,
				"z": 2.9703285704,
				"element": "O" 
			},
			{
				"x": 0.5414416728,
				"y": -0.6434808245,
				"z": 3.4658336314,
				"element": "C" 
			},
			{
				"x": 0.7640799323,
				"y": -0.227896372,
				"z": 4.7141237747,
				"element": "C" 
			},
			{
				"x": -2.038098424,
				"y": 1.5430969209,
				"z": -2.4319847627,
				"element": "H" 
			},
			{
				"x": -0.7932131554,
				"y": 2.3915600381,
				"z": -3.3447255635,
				"element": "H" 
			},
			{
				"x": -1.2726091765,
				"y": 0.7478833524,
				"z": -3.8182406967,
				"element": "H" 
			},
			{
				"x": 0.1742559816,
				"y": 1.5103365281,
				"z": -1.2073289455,
				"element": "H" 
			},
			{
				"x": 0.9478631427,
				"y": 0.8483196093,
				"z": -2.6353694877,
				"element": "H" 
			},
			{
				"x": 1.5378562476,
				"y": -0.5848551825,
				"z": -0.4429655351,
				"element": "H" 
			},
			{
				"x": 0.6651630194,
				"y": -2.0978713073,
				"z": -0.5952300914,
				"element": "H" 
			},
			{
				"x": 2.3037840039,
				"y": -0.8192369197,
				"z": -2.8670197892,
				"element": "H" 
			},
			{
				"x": 1.3870915173,
				"y": -2.3281891657,
				"z": -2.9788180431,
				"element": "H" 
			},
			{
				"x": 2.7773925715,
				"y": -2.1999745174,
				"z": -1.8773808286,
				"element": "H" 
			},
			{
				"x": -2.3006948593,
				"y": -0.4577298058,
				"z": -1.4362048079,
				"element": "H" 
			},
			{
				"x": -1.5276889034,
				"y": -1.8314656588,
				"z": -0.6684799908,
				"element": "H" 
			},
			{
				"x": -2.5337679378,
				"y": -0.1665962968,
				"z": 0.919875094,
				"element": "H" 
			},
			{
				"x": -1.3691751833,
				"y": 1.0509198284,
				"z": 0.4020503293,
				"element": "H" 
			},
			{
				"x": 1.0997716167,
				"y": -1.4579629436,
				"z": 3.0147175099,
				"element": "H" 
			},
			{
				"x": 1.5198963125,
				"y": -0.6871311522,
				"z": 5.3429180179,
				"element": "H" 
			},
			{
				"x": 0.1828789809,
				"y": 0.5906243352,
				"z": 5.1282838217,
				"element": "H" 
			}
		],
		 "valence_orbital": [ 
			{
				"type": "occ",
				"energy": -0.32595,
				"method": "rhf"
			},
			{
				"type": "occ",
				"energy": -0.29806,
				"method": "rhf"
			},
			{
				"type": "occ",
				"energy": -0.28222,
				"method": "rhf"
			},
			{
				"type": "occ",
				"energy": -0.27132,
				"method": "rhf"
			},
			{
				"type": "occ",
				"energy": -0.20417,
				"method": "rhf"
			},
			{
				"type": "unocc",
				"energy": -0.04431,
				"method": "rhf"
			},
			{
				"type": "unocc",
				"energy": 0.08065,
				"method": "rhf"
			},
			{
				"type": "unocc",
				"energy": 0.08603,
				"method": "rhf"
			},
			{
				"type": "unocc",
				"energy": 0.09989,
				"method": "rhf"
			},
			{
				"type": "unocc",
				"energy": 0.11492,
				"method": "rhf"
			}
		],
		"cosmo_sigma_profile": { 
			"-0.025": 0.0,
			"-0.024": 0.0,
			"-0.023": 0.0,
			"-0.022": 0.0,
			"-0.021": 0.0,
			"-0.02": 0.0,
			"-0.019": 0.0,
			"-0.018": 0.0,
			"-0.017": 0.0,
			"-0.016": 0.0,
			"-0.015": 0.0,
			"-0.014": 0.0,
			"-0.013": 0.0,
			"-0.012": 0.0,
			"-0.011": 0.0,
			"-0.01": 0.0,
			"-0.009": 0.0,
			"-0.008": 0.172869732746,
			"-0.007": 2.84380055696,
			"-0.006": 5.42341726429,
			"-0.005": 10.9449305579,
			"-0.004": 21.4263159057,
			"-0.003": 24.7096941148,
			"-0.002": 28.9316763399,
			"-0.001": 32.858517385,
			"0.0": 32.9625700321,
			"0.001": 25.5944784947,
			"0.002": 15.7107208584,
			"0.003": 10.9852526354,
			"0.004": 6.2129002617,
			"0.005": 3.91598378689,
			"0.006": 3.58750899891,
			"0.007": 1.87000251897,
			"0.008": 2.64628345584,
			"0.009": 2.28820509212,
			"0.01": 2.63913003195,
			"0.011": 2.97086397855,
			"0.012": 5.36688607754,
			"0.013": 1.37499748008,
			"0.014": 0.357530048609,
			"0.015": 0.268225682861,
			"0.016": 0.0,
			"0.017": 0.0,
			"0.018": 0.0,
			"0.019": 0.0,
			"0.02": 0.0,
			"0.021": 0.0,
			"0.022": 0.0,
			"0.023": 0.0,
			"0.024": 0.0,
			"0.025": 0.0
		}
	}
}
