{
	 "smiles": "COC1=C(NC2=C(N)C=C(C=C2)[N+]([O-])=O)C=CC=C1", 
	 "Tm": 423.15, 
	 "num_atms": 32, 
	 "gaussian": { 
		 "optdone": 1, 
		 "sigma_profile": "yes", 
		 "theory": "DFT", 
		 "functional": "B3LYP", 
		 "basiset": "6-31G**", 
		 "properties": { 
			 "R2extent": 7407.0568, 
			 "electric_dipole_moment_norm": 8.20853867689, 
			 "electric_quadrupole_moment_norm": 29.4477387609, 
			 "total_energy": -893.043518211, 
			 "HOMO_LUMO_gap": 0.12571, 
			 "cosmo_polarized_energy": -16.6, 
			 "cosmo_cavitation_energy": 36.46, 
			 "cosmo_dispersion_energy": -26.48, 
			 "cosmo_repulsion_energy": 2.04, 
			 "cosmo_total_nonelectrostatic_energy": 12.02, 
			 "SMD_solvation_energy": 9.01 
		},
		"coords": [
			{
				"x": 2.7248363767,
				"y": -1.3016145572,
				"z": 2.9603971619,
				"element": "C" 
			},
			{
				"x": 1.9081543397,
				"y": -0.9775074361,
				"z": 1.8452944331,
				"element": "O" 
			},
			{
				"x": 1.0136230594,
				"y": 0.0542066413,
				"z": 1.9694140984,
				"element": "C" 
			},
			{
				"x": 0.2553031972,
				"y": 0.3198605488,
				"z": 0.8017280797,
				"element": "C" 
			},
			{
				"x": 0.5274516905,
				"y": -0.4559862242,
				"z": -0.3328417214,
				"element": "N" 
			},
			{
				"x": -0.3611587838,
				"y": -0.8912200072,
				"z": -1.3116304334,
				"element": "C" 
			},
			{
				"x": 0.2226524434,
				"y": -1.4849089708,
				"z": -2.4691601833,
				"element": "C" 
			},
			{
				"x": 1.6247963454,
				"y": -1.5836783341,
				"z": -2.5224563241,
				"element": "N" 
			},
			{
				"x": -0.5987926406,
				"y": -1.9912660744,
				"z": -3.4681152698,
				"element": "C" 
			},
			{
				"x": -1.9873705192,
				"y": -1.9084322475,
				"z": -3.3311057948,
				"element": "C" 
			},
			{
				"x": -2.5772651194,
				"y": -1.3180365133,
				"z": -2.2168423778,
				"element": "C" 
			},
			{
				"x": -1.7591944811,
				"y": -0.8148170624,
				"z": -1.2111144686,
				"element": "C" 
			},
			{
				"x": -2.8322631231,
				"y": -2.4413748432,
				"z": -4.3927961254,
				"element": "N" 
			},
			{
				"x": -2.2776674923,
				"y": -2.9763096533,
				"z": -5.3579971794,
				"element": "O" 
			},
			{
				"x": -4.0550264787,
				"y": -2.3297703043,
				"z": -4.2701316399,
				"element": "O" 
			},
			{
				"x": -0.6531720006,
				"y": 1.3829367643,
				"z": 0.8196136832,
				"element": "C" 
			},
			{
				"x": -0.8401227168,
				"y": 2.1418739763,
				"z": 1.9780659538,
				"element": "C" 
			},
			{
				"x": -0.1047128702,
				"y": 1.860733495,
				"z": 3.1250462807,
				"element": "C" 
			},
			{
				"x": 0.8314242703,
				"y": 0.8197028813,
				"z": 3.1186152155,
				"element": "C" 
			},
			{
				"x": 3.3527626529,
				"y": -2.1351604734,
				"z": 2.6428543964,
				"element": "H" 
			},
			{
				"x": 2.120756811,
				"y": -1.6115362423,
				"z": 3.8220546359,
				"element": "H" 
			},
			{
				"x": 3.3614141257,
				"y": -0.456650245,
				"z": 3.2513591941,
				"element": "H" 
			},
			{
				"x": 1.3519799835,
				"y": -1.0392866147,
				"z": -0.2401251644,
				"element": "H" 
			},
			{
				"x": 1.9651205087,
				"y": -1.948084715,
				"z": -3.4037060616,
				"element": "H" 
			},
			{
				"x": 2.0905355358,
				"y": -0.7091700173,
				"z": -2.2986360925,
				"element": "H" 
			},
			{
				"x": -0.1836200555,
				"y": -2.4405989228,
				"z": -4.3626074207,
				"element": "H" 
			},
			{
				"x": -3.6560848879,
				"y": -1.2772156797,
				"z": -2.1413938267,
				"element": "H" 
			},
			{
				"x": -2.2069184712,
				"y": -0.3903923105,
				"z": -0.3212625654,
				"element": "H" 
			},
			{
				"x": -1.2011646641,
				"y": 1.6275579583,
				"z": -0.0831907429,
				"element": "H" 
			},
			{
				"x": -1.5549809551,
				"y": 2.9586965344,
				"z": 1.9705581489,
				"element": "H" 
			},
			{
				"x": -0.2444817808,
				"y": 2.4474471127,
				"z": 4.0274725616,
				"element": "H" 
			},
			{
				"x": 1.4079857004,
				"y": 0.6103015363,
				"z": 4.011939549,
				"element": "H" 
			}
		],
		 "valence_orbital": [ 
			{
				"type": "occ",
				"energy": -0.27071,
				"method": "rhf"
			},
			{
				"type": "occ",
				"energy": -0.26621,
				"method": "rhf"
			},
			{
				"type": "occ",
				"energy": -0.24313,
				"method": "rhf"
			},
			{
				"type": "occ",
				"energy": -0.23228,
				"method": "rhf"
			},
			{
				"type": "occ",
				"energy": -0.19584,
				"method": "rhf"
			},
			{
				"type": "unocc",
				"energy": -0.07013,
				"method": "rhf"
			},
			{
				"type": "unocc",
				"energy": -0.01185,
				"method": "rhf"
			},
			{
				"type": "unocc",
				"energy": -0.00176,
				"method": "rhf"
			},
			{
				"type": "unocc",
				"energy": 0.00276,
				"method": "rhf"
			},
			{
				"type": "unocc",
				"energy": 0.03313,
				"method": "rhf"
			}
		],
		"cosmo_sigma_profile": { 
			"-0.025": 0.0,
			"-0.024": 0.0,
			"-0.023": 0.0,
			"-0.022": 0.0,
			"-0.021": 0.0,
			"-0.02": 0.0,
			"-0.019": 0.0,
			"-0.018": 0.0,
			"-0.017": 0.0,
			"-0.016": 0.0,
			"-0.015": 0.0,
			"-0.014": 0.0,
			"-0.013": 0.871297697415,
			"-0.012": 2.90580529704,
			"-0.011": 2.82946758563,
			"-0.01": 3.56185057151,
			"-0.009": 3.30017371094,
			"-0.008": 2.86058493904,
			"-0.007": 4.23066249841,
			"-0.006": 14.1443385292,
			"-0.005": 22.782606461,
			"-0.004": 24.6448911603,
			"-0.003": 23.0168828093,
			"-0.002": 16.576980888,
			"-0.001": 15.4275899993,
			"0.0": 18.3949971907,
			"0.001": 20.070918336,
			"0.002": 23.3026362799,
			"0.003": 21.7958180506,
			"0.004": 15.8811242944,
			"0.005": 12.2211660165,
			"0.006": 10.034833746,
			"0.007": 4.49756383619,
			"0.008": 8.59945033342,
			"0.009": 9.17776614389,
			"0.01": 5.02575471247,
			"0.011": 3.70874994729,
			"0.012": 0.699406029127,
			"0.013": 0.475485710681,
			"0.014": 0.0,
			"0.015": 0.0,
			"0.016": 0.0,
			"0.017": 0.0,
			"0.018": 0.0,
			"0.019": 0.0,
			"0.02": 0.0,
			"0.021": 0.0,
			"0.022": 0.0,
			"0.023": 0.0,
			"0.024": 0.0,
			"0.025": 0.0
		}
	}
}
