{
	 "smiles": "FC1=C(Br)C=C2C=CC(Cl)=NC2=C1", 
	 "Tm": 435.15, 
	 "num_atms": 17, 
	 "gaussian": { 
		 "optdone": 1, 
		 "sigma_profile": "yes", 
		 "theory": "DFT", 
		 "functional": "B3LYP", 
		 "basiset": "6-31G**", 
		 "properties": { 
			 "R2extent": 4918.9523, 
			 "electric_dipole_moment_norm": 2.97368519686, 
			 "electric_quadrupole_moment_norm": 9.76458734407, 
			 "total_energy": -3531.55505251, 
			 "HOMO_LUMO_gap": 0.17445, 
			 "cosmo_polarized_energy": -7.39, 
			 "cosmo_cavitation_energy": 26.51, 
			 "cosmo_dispersion_energy": -20.25, 
			 "cosmo_repulsion_energy": 1.56, 
			 "cosmo_total_nonelectrostatic_energy": 7.82, 
			 "SMD_solvation_energy": 1.94 
		},
		"coords": [
			{
				"x": 0.884288205,
				"y": -3.2508275164,
				"z": 0.8826884458,
				"element": "F" 
			},
			{
				"x": 0.5595042913,
				"y": -1.9636273719,
				"z": 0.7066848246,
				"element": "C" 
			},
			{
				"x": 0.6010899658,
				"y": -1.0918316859,
				"z": 1.8235040292,
				"element": "C" 
			},
			{
				"x": 1.1128586322,
				"y": -1.7818771938,
				"z": 3.5149399572,
				"element": "Br" 
			},
			{
				"x": 0.2717328122,
				"y": 0.2345923729,
				"z": 1.6670239087,
				"element": "C" 
			},
			{
				"x": -0.1083426411,
				"y": 0.7314145775,
				"z": 0.3953944984,
				"element": "C" 
			},
			{
				"x": -0.4601100521,
				"y": 2.0874873204,
				"z": 0.1644783011,
				"element": "C" 
			},
			{
				"x": -0.8179377839,
				"y": 2.4939159596,
				"z": -1.0968151608,
				"element": "C" 
			},
			{
				"x": -0.8166108661,
				"y": 1.5135225383,
				"z": -2.1246993364,
				"element": "C" 
			},
			{
				"x": -1.2768608563,
				"y": 2.0388849209,
				"z": -3.7431699126,
				"element": "Cl" 
			},
			{
				"x": -0.5046124676,
				"y": 0.2600134264,
				"z": -1.9735927109,
				"element": "N" 
			},
			{
				"x": -0.1466547335,
				"y": -0.1579812304,
				"z": -0.7240040106,
				"element": "C" 
			},
			{
				"x": 0.1965291149,
				"y": -1.5197874983,
				"z": -0.5399045899,
				"element": "C" 
			},
			{
				"x": 0.3029130057,
				"y": 0.9034813729,
				"z": 2.5204515723,
				"element": "H" 
			},
			{
				"x": -0.4434733945,
				"y": 2.7947516439,
				"z": 0.9892175829,
				"element": "H" 
			},
			{
				"x": -1.0934050893,
				"y": 3.517598443,
				"z": -1.3179378951,
				"element": "H" 
			},
			{
				"x": 0.1697918574,
				"y": -2.1993300791,
				"z": -1.3833595039,
				"element": "H" 
			}
		],
		 "valence_orbital": [ 
			{
				"type": "occ",
				"energy": -0.30374,
				"method": "rhf"
			},
			{
				"type": "occ",
				"energy": -0.30189,
				"method": "rhf"
			},
			{
				"type": "occ",
				"energy": -0.28643,
				"method": "rhf"
			},
			{
				"type": "occ",
				"energy": -0.25864,
				"method": "rhf"
			},
			{
				"type": "occ",
				"energy": -0.25029,
				"method": "rhf"
			},
			{
				"type": "unocc",
				"energy": -0.07584,
				"method": "rhf"
			},
			{
				"type": "unocc",
				"energy": -0.03956,
				"method": "rhf"
			},
			{
				"type": "unocc",
				"energy": -0.01075,
				"method": "rhf"
			},
			{
				"type": "unocc",
				"energy": -0.00628,
				"method": "rhf"
			},
			{
				"type": "unocc",
				"energy": 0.02682,
				"method": "rhf"
			}
		],
		"cosmo_sigma_profile": { 
			"-0.025": 0.0,
			"-0.024": 0.0,
			"-0.023": 0.0,
			"-0.022": 0.0,
			"-0.021": 0.0,
			"-0.02": 0.0,
			"-0.019": 0.0,
			"-0.018": 0.0,
			"-0.017": 0.0,
			"-0.016": 0.0,
			"-0.015": 0.0,
			"-0.014": 0.0,
			"-0.013": 0.0,
			"-0.012": 0.0,
			"-0.011": 0.0,
			"-0.01": 0.273106436379,
			"-0.009": 3.68171477313,
			"-0.008": 8.1682532523,
			"-0.007": 6.82712187402,
			"-0.006": 6.63575477089,
			"-0.005": 5.7623136868,
			"-0.004": 7.55022741338,
			"-0.003": 8.04847320573,
			"-0.002": 16.0002194224,
			"-0.001": 28.6663303506,
			"0.0": 29.6521193944,
			"0.001": 21.8338626598,
			"0.002": 14.9771677634,
			"0.003": 23.9698700697,
			"0.004": 22.7037790944,
			"0.005": 5.75175285493,
			"0.006": 2.0228287628,
			"0.007": 1.6630592175,
			"0.008": 1.642913244,
			"0.009": 1.22580029987,
			"0.01": 0.674960266143,
			"0.011": 1.07127781276,
			"0.012": 0.627919870465,
			"0.013": 0.940778875828,
			"0.014": 0.0445164273218,
			"0.015": 0.0,
			"0.016": 0.0,
			"0.017": 0.0,
			"0.018": 0.0,
			"0.019": 0.0,
			"0.02": 0.0,
			"0.021": 0.0,
			"0.022": 0.0,
			"0.023": 0.0,
			"0.024": 0.0,
			"0.025": 0.0
		}
	}
}
