{
	 "smiles": "COC1=C(SCC(O)=O)C=CC=C1", 
	 "Tm": 373.15, 
	 "num_atms": 23, 
	 "gaussian": { 
		 "optdone": 1, 
		 "sigma_profile": "yes", 
		 "theory": "DFT", 
		 "functional": "B3LYP", 
		 "basiset": "6-31G**", 
		 "properties": { 
			 "R2extent": 3200.3301, 
			 "electric_dipole_moment_norm": 6.19221917248, 
			 "electric_quadrupole_moment_norm": 19.5825703303, 
			 "total_energy": -972.838277229, 
			 "HOMO_LUMO_gap": 0.2016, 
			 "cosmo_polarized_energy": -13.36, 
			 "cosmo_cavitation_energy": 28.17, 
			 "cosmo_dispersion_energy": -20.66, 
			 "cosmo_repulsion_energy": 1.58, 
			 "cosmo_total_nonelectrostatic_energy": 9.09, 
			 "SMD_solvation_energy": 6.4 
		},
		"coords": [
			{
				"x": 0.3163094108,
				"y": -2.7980106553,
				"z": 1.0620503672,
				"element": "C" 
			},
			{
				"x": -0.241193176,
				"y": -1.6255323713,
				"z": 0.4719560627,
				"element": "O" 
			},
			{
				"x": 0.5270757628,
				"y": -0.500262465,
				"z": 0.360973957,
				"element": "C" 
			},
			{
				"x": -0.0675695155,
				"y": 0.6038053547,
				"z": -0.2901046595,
				"element": "C" 
			},
			{
				"x": -1.773683432,
				"y": 0.5787667383,
				"z": -0.8287115032,
				"element": "S" 
			},
			{
				"x": -1.7904537315,
				"y": -0.7012439095,
				"z": -2.165724964,
				"element": "C" 
			},
			{
				"x": -2.6503208282,
				"y": -1.9436530457,
				"z": -1.8977987774,
				"element": "C" 
			},
			{
				"x": -2.6953541162,
				"y": -2.396576383,
				"z": -0.6342474291,
				"element": "O" 
			},
			{
				"x": -3.2302114463,
				"y": -2.5034175956,
				"z": -2.7972245811,
				"element": "O" 
			},
			{
				"x": 0.6678316381,
				"y": 1.7842911073,
				"z": -0.4283268284,
				"element": "C" 
			},
			{
				"x": 1.9709956721,
				"y": 1.8838169634,
				"z": 0.0635824797,
				"element": "C" 
			},
			{
				"x": 2.5499154321,
				"y": 0.7845549351,
				"z": 0.6922657609,
				"element": "C" 
			},
			{
				"x": 1.8363473626,
				"y": -0.4076132137,
				"z": 0.8413953811,
				"element": "C" 
			},
			{
				"x": -0.4605221129,
				"y": -3.5594991258,
				"z": 0.9885743191,
				"element": "H" 
			},
			{
				"x": 1.2060970339,
				"y": -3.1305942427,
				"z": 0.5157797783,
				"element": "H" 
			},
			{
				"x": 0.5719915685,
				"y": -2.6304624979,
				"z": 2.11447681,
				"element": "H" 
			},
			{
				"x": -2.1642144805,
				"y": -0.2430958726,
				"z": -3.0818248498,
				"element": "H" 
			},
			{
				"x": -0.7592868997,
				"y": -1.0187566122,
				"z": -2.3426855953,
				"element": "H" 
			},
			{
				"x": -2.1334672566,
				"y": -1.831915438,
				"z": -0.0694529819,
				"element": "H" 
			},
			{
				"x": 0.2036767264,
				"y": 2.6275271865,
				"z": -0.9296655742,
				"element": "H" 
			},
			{
				"x": 2.5266016691,
				"y": 2.8086335768,
				"z": -0.0532544565,
				"element": "H" 
			},
			{
				"x": 3.5650877249,
				"y": 0.8437170783,
				"z": 1.0733943726,
				"element": "H" 
			},
			{
				"x": 2.301046994,
				"y": -1.2507795121,
				"z": 1.3382729117,
				"element": "H" 
			}
		],
		 "valence_orbital": [ 
			{
				"type": "occ",
				"energy": -0.30188,
				"method": "rhf"
			},
			{
				"type": "occ",
				"energy": -0.2866,
				"method": "rhf"
			},
			{
				"type": "occ",
				"energy": -0.26129,
				"method": "rhf"
			},
			{
				"type": "occ",
				"energy": -0.24778,
				"method": "rhf"
			},
			{
				"type": "occ",
				"energy": -0.23385,
				"method": "rhf"
			},
			{
				"type": "unocc",
				"energy": -0.03225,
				"method": "rhf"
			},
			{
				"type": "unocc",
				"energy": -0.01209,
				"method": "rhf"
			},
			{
				"type": "unocc",
				"energy": 0.00895,
				"method": "rhf"
			},
			{
				"type": "unocc",
				"energy": 0.03237,
				"method": "rhf"
			},
			{
				"type": "unocc",
				"energy": 0.06788,
				"method": "rhf"
			}
		],
		"cosmo_sigma_profile": { 
			"-0.025": 0.0,
			"-0.024": 0.0,
			"-0.023": 0.0,
			"-0.022": 0.0,
			"-0.021": 0.0,
			"-0.02": 0.0,
			"-0.019": 0.0,
			"-0.018": 0.0,
			"-0.017": 0.0,
			"-0.016": 0.0,
			"-0.015": 0.0,
			"-0.014": 0.0,
			"-0.013": 0.0,
			"-0.012": 0.0,
			"-0.011": 0.0,
			"-0.01": 0.0,
			"-0.009": 1.08607205147,
			"-0.008": 2.71568655048,
			"-0.007": 7.63516820747,
			"-0.006": 20.2134796917,
			"-0.005": 22.8435836709,
			"-0.004": 22.288689456,
			"-0.003": 15.7153759979,
			"-0.002": 12.786956657,
			"-0.001": 12.9970469607,
			"0.0": 12.7679741983,
			"0.001": 11.6495916327,
			"0.002": 14.41177409,
			"0.003": 13.0815097803,
			"0.004": 14.4237381642,
			"0.005": 9.96934517391,
			"0.006": 4.42983379316,
			"0.007": 3.66717506645,
			"0.008": 2.74822988066,
			"0.009": 3.29957158393,
			"0.01": 4.71990630663,
			"0.011": 5.21172081921,
			"0.012": 5.51562228789,
			"0.013": 2.21377082512,
			"0.014": 0.076768868969,
			"0.015": 0.0,
			"0.016": 0.0,
			"0.017": 0.0,
			"0.018": 0.0,
			"0.019": 0.0,
			"0.02": 0.0,
			"0.021": 0.0,
			"0.022": 0.0,
			"0.023": 0.0,
			"0.024": 0.0,
			"0.025": 0.0
		}
	}
}
