{
	 "smiles": "CN(C)CCOC(=O)C=C", 
	 "Tm": 213.15, 
	 "num_atms": 23, 
	 "gaussian": { 
		 "optdone": 1, 
		 "sigma_profile": "yes", 
		 "theory": "DFT", 
		 "functional": "B3LYP", 
		 "basiset": "6-31G**", 
		 "properties": { 
			 "R2extent": 1923.5904, 
			 "electric_dipole_moment_norm": 1.8434195019, 
			 "electric_quadrupole_moment_norm": 11.8255448259, 
			 "total_energy": -479.749974764, 
			 "HOMO_LUMO_gap": 0.16033, 
			 "cosmo_polarized_energy": -8.05, 
			 "cosmo_cavitation_energy": 26.42, 
			 "cosmo_dispersion_energy": -18.05, 
			 "cosmo_repulsion_energy": 1.47, 
			 "cosmo_total_nonelectrostatic_energy": 9.84, 
			 "SMD_solvation_energy": 4.2 
		},
		"coords": [
			{
				"x": 0.1336918167,
				"y": 2.6406126145,
				"z": 0.2293515321,
				"element": "C" 
			},
			{
				"x": 0.3098449314,
				"y": 2.0213162525,
				"z": 1.5354726578,
				"element": "N" 
			},
			{
				"x": -0.9263112712,
				"y": 1.9555198688,
				"z": 2.2968352638,
				"element": "C" 
			},
			{
				"x": 1.0918650852,
				"y": 0.7922072837,
				"z": 1.5480864331,
				"element": "C" 
			},
			{
				"x": 0.4836763995,
				"y": -0.473096282,
				"z": 0.9366620479,
				"element": "C" 
			},
			{
				"x": 0.466636537,
				"y": -0.3358530429,
				"z": -0.500958824,
				"element": "O" 
			},
			{
				"x": -0.0960838877,
				"y": -1.3613016271,
				"z": -1.1821018646,
				"element": "C" 
			},
			{
				"x": -0.5667984872,
				"y": -2.3457012337,
				"z": -0.6458022272,
				"element": "O" 
			},
			{
				"x": -0.0801604374,
				"y": -1.1642400611,
				"z": -2.6531903573,
				"element": "C" 
			},
			{
				"x": 0.4430274462,
				"y": -0.1045441374,
				"z": -3.2742791516,
				"element": "C" 
			},
			{
				"x": -0.5649467987,
				"y": 2.1063950961,
				"z": -0.4368799539,
				"element": "H" 
			},
			{
				"x": -0.2430411475,
				"y": 3.6613030419,
				"z": 0.364587705,
				"element": "H" 
			},
			{
				"x": 1.1004769363,
				"y": 2.7033837581,
				"z": -0.2802764209,
				"element": "H" 
			},
			{
				"x": -1.3335395117,
				"y": 2.9657887639,
				"z": 2.4151417614,
				"element": "H" 
			},
			{
				"x": -0.7261209866,
				"y": 1.5557374117,
				"z": 3.2969781703,
				"element": "H" 
			},
			{
				"x": -1.7176836355,
				"y": 1.335526074,
				"z": 1.8348592314,
				"element": "H" 
			},
			{
				"x": 1.3196815294,
				"y": 0.5530383155,
				"z": 2.5960084901,
				"element": "H" 
			},
			{
				"x": 2.0504896068,
				"y": 0.9888411589,
				"z": 1.0524764271,
				"element": "H" 
			},
			{
				"x": 1.0860223306,
				"y": -1.3498797907,
				"z": 1.2006131463,
				"element": "H" 
			},
			{
				"x": -0.5347329062,
				"y": -0.6606546377,
				"z": 1.2898729574,
				"element": "H" 
			},
			{
				"x": -0.540442539,
				"y": -1.9807680739,
				"z": -3.2012219561,
				"element": "H" 
			},
			{
				"x": 0.9037041233,
				"y": 0.7052145979,
				"z": -2.7186398277,
				"element": "H" 
			},
			{
				"x": 0.4242448665,
				"y": -0.021645351,
				"z": -4.3566952402,
				"element": "H" 
			}
		],
		 "valence_orbital": [ 
			{
				"type": "occ",
				"energy": -0.351,
				"method": "rhf"
			},
			{
				"type": "occ",
				"energy": -0.29854,
				"method": "rhf"
			},
			{
				"type": "occ",
				"energy": -0.28499,
				"method": "rhf"
			},
			{
				"type": "occ",
				"energy": -0.27081,
				"method": "rhf"
			},
			{
				"type": "occ",
				"energy": -0.2064,
				"method": "rhf"
			},
			{
				"type": "unocc",
				"energy": -0.04607,
				"method": "rhf"
			},
			{
				"type": "unocc",
				"energy": 0.07742,
				"method": "rhf"
			},
			{
				"type": "unocc",
				"energy": 0.08485,
				"method": "rhf"
			},
			{
				"type": "unocc",
				"energy": 0.10736,
				"method": "rhf"
			},
			{
				"type": "unocc",
				"energy": 0.10995,
				"method": "rhf"
			}
		],
		"cosmo_sigma_profile": { 
			"-0.025": 0.0,
			"-0.024": 0.0,
			"-0.023": 0.0,
			"-0.022": 0.0,
			"-0.021": 0.0,
			"-0.02": 0.0,
			"-0.019": 0.0,
			"-0.018": 0.0,
			"-0.017": 0.0,
			"-0.016": 0.0,
			"-0.015": 0.0,
			"-0.014": 0.0,
			"-0.013": 0.0,
			"-0.012": 0.0,
			"-0.011": 0.0,
			"-0.01": 0.0,
			"-0.009": 0.0,
			"-0.008": 0.208650613833,
			"-0.007": 2.7367002154,
			"-0.006": 4.46606765267,
			"-0.005": 11.1241719855,
			"-0.004": 22.711566322,
			"-0.003": 24.6430098653,
			"-0.002": 23.8028970477,
			"-0.001": 25.8219051355,
			"0.0": 25.9324366265,
			"0.001": 13.3059222981,
			"0.002": 11.2373845609,
			"0.003": 8.98689228651,
			"0.004": 4.80821605679,
			"0.005": 2.91468051684,
			"0.006": 2.27194147017,
			"0.007": 2.58012989591,
			"0.008": 2.18707362079,
			"0.009": 1.91738667074,
			"0.01": 2.97919986989,
			"0.011": 2.98002222027,
			"0.012": 5.46755220449,
			"0.013": 2.41064723651,
			"0.014": 0.694023446414,
			"0.015": 0.317644330454,
			"0.016": 0.272385579847,
			"0.017": 0.0,
			"0.018": 0.0,
			"0.019": 0.0,
			"0.02": 0.0,
			"0.021": 0.0,
			"0.022": 0.0,
			"0.023": 0.0,
			"0.024": 0.0,
			"0.025": 0.0
		}
	}
}
