{
	 "smiles": "BrCC1=CC=C(C=C1)C1=CC=CS1", 
	 "Tm": 356.65, 
	 "num_atms": 22, 
	 "gaussian": { 
		 "optdone": 1, 
		 "sigma_profile": "yes", 
		 "theory": "DFT", 
		 "functional": "B3LYP", 
		 "basiset": "6-31G**", 
		 "properties": { 
			 "R2extent": 6027.2937, 
			 "electric_dipole_moment_norm": 2.8523236247, 
			 "electric_quadrupole_moment_norm": 8.0934649088, 
			 "total_energy": -3394.18409403, 
			 "HOMO_LUMO_gap": 0.16144, 
			 "cosmo_polarized_energy": -8.21, 
			 "cosmo_cavitation_energy": 29.96, 
			 "cosmo_dispersion_energy": -22.7, 
			 "cosmo_repulsion_energy": 1.74, 
			 "cosmo_total_nonelectrostatic_energy": 9.0, 
			 "SMD_solvation_energy": 3.65 
		},
		"coords": [
			{
				"x": 1.0784090614,
				"y": -2.5425689195,
				"z": 3.5952542655,
				"element": "Br" 
			},
			{
				"x": 2.2965984171,
				"y": -1.6866523844,
				"z": 2.2403448898,
				"element": "C" 
			},
			{
				"x": 1.5697602632,
				"y": -0.7581951943,
				"z": 1.3277017131,
				"element": "C" 
			},
			{
				"x": 1.4312444382,
				"y": 0.5998725261,
				"z": 1.6451421765,
				"element": "C" 
			},
			{
				"x": 0.7728217164,
				"y": 1.4713638098,
				"z": 0.7848179065,
				"element": "C" 
			},
			{
				"x": 0.2157487132,
				"y": 1.0133274349,
				"z": -0.4234237914,
				"element": "C" 
			},
			{
				"x": 0.3454285364,
				"y": -0.3544904272,
				"z": -0.7316419752,
				"element": "C" 
			},
			{
				"x": 1.0149031988,
				"y": -1.2197420855,
				"z": 0.1253615511,
				"element": "C" 
			},
			{
				"x": -0.4748465128,
				"y": 1.9193175541,
				"z": -1.3477826681,
				"element": "C" 
			},
			{
				"x": -0.6376062502,
				"y": 1.7928972577,
				"z": -2.7099506493,
				"element": "C" 
			},
			{
				"x": -1.3669369567,
				"y": 2.8635163828,
				"z": -3.3016154464,
				"element": "C" 
			},
			{
				"x": -1.7600817678,
				"y": 3.8043166046,
				"z": -2.3892643239,
				"element": "C" 
			},
			{
				"x": -1.2475374734,
				"y": 3.3908088776,
				"z": -0.7870411241,
				"element": "S" 
			},
			{
				"x": 3.0478932428,
				"y": -1.1827469718,
				"z": 2.8454588168,
				"element": "H" 
			},
			{
				"x": 2.7414165292,
				"y": -2.5316653744,
				"z": 1.7182171334,
				"element": "H" 
			},
			{
				"x": 1.8510724573,
				"y": 0.9790664844,
				"z": 2.5731549413,
				"element": "H" 
			},
			{
				"x": 0.7069268999,
				"y": 2.5245144567,
				"z": 1.0415993994,
				"element": "H" 
			},
			{
				"x": -0.1004051148,
				"y": -0.7420696801,
				"z": -1.6420307296,
				"element": "H" 
			},
			{
				"x": 1.096004423,
				"y": -2.2725178722,
				"z": -0.132553111,
				"element": "H" 
			},
			{
				"x": -0.2195657263,
				"y": 0.9691151598,
				"z": -3.2770956714,
				"element": "H" 
			},
			{
				"x": -1.5822880383,
				"y": 2.9333095746,
				"z": -4.361782208,
				"element": "H" 
			},
			{
				"x": -2.3222600566,
				"y": 4.7121227861,
				"z": -2.5586710951,
				"element": "H" 
			}
		],
		 "valence_orbital": [ 
			{
				"type": "occ",
				"energy": -0.26959,
				"method": "rhf"
			},
			{
				"type": "occ",
				"energy": -0.26612,
				"method": "rhf"
			},
			{
				"type": "occ",
				"energy": -0.26078,
				"method": "rhf"
			},
			{
				"type": "occ",
				"energy": -0.25497,
				"method": "rhf"
			},
			{
				"type": "occ",
				"energy": -0.21625,
				"method": "rhf"
			},
			{
				"type": "unocc",
				"energy": -0.05481,
				"method": "rhf"
			},
			{
				"type": "unocc",
				"energy": -0.01334,
				"method": "rhf"
			},
			{
				"type": "unocc",
				"energy": -0.00771,
				"method": "rhf"
			},
			{
				"type": "unocc",
				"energy": 0.02589,
				"method": "rhf"
			},
			{
				"type": "unocc",
				"energy": 0.03675,
				"method": "rhf"
			}
		],
		"cosmo_sigma_profile": { 
			"-0.025": 0.0,
			"-0.024": 0.0,
			"-0.023": 0.0,
			"-0.022": 0.0,
			"-0.021": 0.0,
			"-0.02": 0.0,
			"-0.019": 0.0,
			"-0.018": 0.0,
			"-0.017": 0.0,
			"-0.016": 0.0,
			"-0.015": 0.0,
			"-0.014": 0.0,
			"-0.013": 0.0,
			"-0.012": 0.0,
			"-0.011": 0.0,
			"-0.01": 0.0,
			"-0.009": 0.40638365157,
			"-0.008": 4.18252473761,
			"-0.007": 12.5886666266,
			"-0.006": 17.5660864646,
			"-0.005": 15.9158574189,
			"-0.004": 17.3328835392,
			"-0.003": 13.4442641464,
			"-0.002": 12.6339983664,
			"-0.001": 12.9600773606,
			"0.0": 13.0727443626,
			"0.001": 16.2063230694,
			"0.002": 18.9342591583,
			"0.003": 23.1723484814,
			"0.004": 30.2956925518,
			"0.005": 18.7440526656,
			"0.006": 12.1017774062,
			"0.007": 6.17027029181,
			"0.008": 0.0,
			"0.009": 0.0,
			"0.01": 0.0,
			"0.011": 0.0,
			"0.012": 0.0,
			"0.013": 0.0,
			"0.014": 0.0,
			"0.015": 0.0,
			"0.016": 0.0,
			"0.017": 0.0,
			"0.018": 0.0,
			"0.019": 0.0,
			"0.02": 0.0,
			"0.021": 0.0,
			"0.022": 0.0,
			"0.023": 0.0,
			"0.024": 0.0,
			"0.025": 0.0
		}
	}
}
