{
	 "smiles": "OC(=O)C1=C2N=CC=NC2=CC(F)=C1", 
	 "Tm": 493.15, 
	 "num_atms": 19, 
	 "gaussian": { 
		 "optdone": 1, 
		 "sigma_profile": "yes", 
		 "theory": "DFT", 
		 "functional": "B3LYP", 
		 "basiset": "6-31G**", 
		 "properties": { 
			 "R2extent": 2725.2592, 
			 "electric_dipole_moment_norm": 5.38364068359, 
			 "electric_quadrupole_moment_norm": 18.3603924364, 
			 "total_energy": -705.768002971, 
			 "HOMO_LUMO_gap": 0.16214, 
			 "cosmo_polarized_energy": -13.02, 
			 "cosmo_cavitation_energy": 24.51, 
			 "cosmo_dispersion_energy": -18.46, 
			 "cosmo_repulsion_energy": 1.39, 
			 "cosmo_total_nonelectrostatic_energy": 7.43, 
			 "SMD_solvation_energy": 3.94 
		},
		"coords": [
			{
				"x": 1.0945838451,
				"y": -0.0059625579,
				"z": -2.7194888127,
				"element": "O" 
			},
			{
				"x": -0.2287528206,
				"y": -0.1487191727,
				"z": -2.6145273755,
				"element": "C" 
			},
			{
				"x": -0.9555122497,
				"y": -0.1602881018,
				"z": -3.5848965457,
				"element": "O" 
			},
			{
				"x": -0.7997388971,
				"y": -0.298628661,
				"z": -1.215287757,
				"element": "C" 
			},
			{
				"x": -0.0187160657,
				"y": -0.2965969729,
				"z": -0.0171888337,
				"element": "C" 
			},
			{
				"x": 1.3354359989,
				"y": -0.1532618875,
				"z": -0.0818431644,
				"element": "N" 
			},
			{
				"x": 2.0126308503,
				"y": -0.1575350078,
				"z": 1.0479468252,
				"element": "C" 
			},
			{
				"x": 1.3646178621,
				"y": -0.3059915359,
				"z": 2.3009117253,
				"element": "C" 
			},
			{
				"x": 0.0603592107,
				"y": -0.4471358355,
				"z": 2.4110578877,
				"element": "N" 
			},
			{
				"x": -0.6613352636,
				"y": -0.4456729609,
				"z": 1.2544587525,
				"element": "C" 
			},
			{
				"x": -2.0676806301,
				"y": -0.5945306336,
				"z": 1.3219211584,
				"element": "C" 
			},
			{
				"x": -2.7791566835,
				"y": -0.5909788477,
				"z": 0.1480039318,
				"element": "C" 
			},
			{
				"x": -4.1138227174,
				"y": -0.730346641,
				"z": 0.1826077691,
				"element": "F" 
			},
			{
				"x": -2.1680637448,
				"y": -0.4458646808,
				"z": -1.1132790948,
				"element": "C" 
			},
			{
				"x": 1.501242189,
				"y": -0.0229822806,
				"z": -1.815668194,
				"element": "H" 
			},
			{
				"x": 3.0922277241,
				"y": -0.0427690157,
				"z": 0.9888592734,
				"element": "H" 
			},
			{
				"x": 1.949026907,
				"y": -0.3059689185,
				"z": 3.2188710943,
				"element": "H" 
			},
			{
				"x": -2.5517762564,
				"y": -0.7071093753,
				"z": 2.2845930708,
				"element": "H" 
			},
			{
				"x": -2.7679692584,
				"y": -0.4485569129,
				"z": -2.0164517105,
				"element": "H" 
			}
		],
		 "valence_orbital": [ 
			{
				"type": "occ",
				"energy": -0.3074,
				"method": "rhf"
			},
			{
				"type": "occ",
				"energy": -0.28449,
				"method": "rhf"
			},
			{
				"type": "occ",
				"energy": -0.28435,
				"method": "rhf"
			},
			{
				"type": "occ",
				"energy": -0.27131,
				"method": "rhf"
			},
			{
				"type": "occ",
				"energy": -0.27028,
				"method": "rhf"
			},
			{
				"type": "unocc",
				"energy": -0.10814,
				"method": "rhf"
			},
			{
				"type": "unocc",
				"energy": -0.05204,
				"method": "rhf"
			},
			{
				"type": "unocc",
				"energy": -0.04547,
				"method": "rhf"
			},
			{
				"type": "unocc",
				"energy": 0.04115,
				"method": "rhf"
			},
			{
				"type": "unocc",
				"energy": 0.07175,
				"method": "rhf"
			}
		],
		"cosmo_sigma_profile": { 
			"-0.025": 0.0,
			"-0.024": 0.0,
			"-0.023": 0.0,
			"-0.022": 0.0,
			"-0.021": 0.0,
			"-0.02": 0.0,
			"-0.019": 0.0,
			"-0.018": 0.0,
			"-0.017": 0.0,
			"-0.016": 0.0,
			"-0.015": 0.0,
			"-0.014": 0.0,
			"-0.013": 0.0,
			"-0.012": 0.0,
			"-0.011": 0.0,
			"-0.01": 0.406839098401,
			"-0.009": 5.18745065703,
			"-0.008": 7.96890609071,
			"-0.007": 6.22615529624,
			"-0.006": 7.93817584968,
			"-0.005": 9.78973751487,
			"-0.004": 13.1512484196,
			"-0.003": 19.8345635299,
			"-0.002": 24.4177456161,
			"-0.001": 20.1557651292,
			"0.0": 12.623595943,
			"0.001": 8.31893491194,
			"0.002": 7.46408525451,
			"0.003": 12.1791346899,
			"0.004": 6.20167978592,
			"0.005": 3.87597183001,
			"0.006": 2.87472809428,
			"0.007": 3.50540401833,
			"0.008": 3.57040850705,
			"0.009": 3.07467880969,
			"0.01": 4.73528074029,
			"0.011": 6.81776033553,
			"0.012": 5.91563097835,
			"0.013": 2.44561254055,
			"0.014": 0.477702736858,
			"0.015": 0.0,
			"0.016": 0.0,
			"0.017": 0.0,
			"0.018": 0.0,
			"0.019": 0.0,
			"0.02": 0.0,
			"0.021": 0.0,
			"0.022": 0.0,
			"0.023": 0.0,
			"0.024": 0.0,
			"0.025": 0.0
		}
	}
}
