{
	 "smiles": "CC(=O)NC1=NC=CS1", 
	 "Tm": 479.15, 
	 "num_atms": 15, 
	 "gaussian": { 
		 "optdone": 1, 
		 "sigma_profile": "yes", 
		 "theory": "DFT", 
		 "functional": "B3LYP", 
		 "basiset": "6-31G**", 
		 "properties": { 
			 "R2extent": 1908.4377, 
			 "electric_dipole_moment_norm": 2.19918168645, 
			 "electric_quadrupole_moment_norm": 12.0620312941, 
			 "total_energy": -777.070639939, 
			 "HOMO_LUMO_gap": 0.19539, 
			 "cosmo_polarized_energy": -12.28, 
			 "cosmo_cavitation_energy": 20.92, 
			 "cosmo_dispersion_energy": -16.4, 
			 "cosmo_repulsion_energy": 1.3, 
			 "cosmo_total_nonelectrostatic_energy": 5.82, 
			 "SMD_solvation_energy": 3.16 
		},
		"coords": [
			{
				"x": 0.7508937319,
				"y": -1.2932426496,
				"z": 2.1461547125,
				"element": "C" 
			},
			{
				"x": 0.8612175278,
				"y": -0.0082771314,
				"z": 1.3493990111,
				"element": "C" 
			},
			{
				"x": 1.6459702449,
				"y": 0.8855015165,
				"z": 1.6335996298,
				"element": "O" 
			},
			{
				"x": 0.0225722876,
				"y": 0.0854865122,
				"z": 0.2591591858,
				"element": "N" 
			},
			{
				"x": -0.0361644093,
				"y": 1.1548016636,
				"z": -0.6255135579,
				"element": "C" 
			},
			{
				"x": -0.8676495942,
				"y": 1.141780657,
				"z": -1.6308454012,
				"element": "N" 
			},
			{
				"x": -0.7413128696,
				"y": 2.3038786564,
				"z": -2.360259367,
				"element": "C" 
			},
			{
				"x": 0.1829412968,
				"y": 3.1970344202,
				"z": -1.9105022962,
				"element": "C" 
			},
			{
				"x": 0.9714408051,
				"y": 2.5830577143,
				"z": -0.4804098212,
				"element": "S" 
			},
			{
				"x": -0.1094335439,
				"y": -1.9081484811,
				"z": 1.8695855215,
				"element": "H" 
			},
			{
				"x": 0.6888043563,
				"y": -1.0411422805,
				"z": 3.2071128007,
				"element": "H" 
			},
			{
				"x": 1.6640240891,
				"y": -1.8787325048,
				"z": 2.0008980767,
				"element": "H" 
			},
			{
				"x": -0.6224905464,
				"y": -0.6614503075,
				"z": 0.0390351754,
				"element": "H" 
			},
			{
				"x": -1.3693864386,
				"y": 2.4421859275,
				"z": -3.2325000993,
				"element": "H" 
			},
			{
				"x": 0.4472730623,
				"y": 4.1612662873,
				"z": -2.3204135708,
				"element": "H" 
			}
		],
		 "valence_orbital": [ 
			{
				"type": "occ",
				"energy": -0.31672,
				"method": "rhf"
			},
			{
				"type": "occ",
				"energy": -0.2819,
				"method": "rhf"
			},
			{
				"type": "occ",
				"energy": -0.27507,
				"method": "rhf"
			},
			{
				"type": "occ",
				"energy": -0.26844,
				"method": "rhf"
			},
			{
				"type": "occ",
				"energy": -0.22293,
				"method": "rhf"
			},
			{
				"type": "unocc",
				"energy": -0.02754,
				"method": "rhf"
			},
			{
				"type": "unocc",
				"energy": 0.02608,
				"method": "rhf"
			},
			{
				"type": "unocc",
				"energy": 0.03337,
				"method": "rhf"
			},
			{
				"type": "unocc",
				"energy": 0.06211,
				"method": "rhf"
			},
			{
				"type": "unocc",
				"energy": 0.06705,
				"method": "rhf"
			}
		],
		"cosmo_sigma_profile": { 
			"-0.025": 0.0,
			"-0.024": 0.0,
			"-0.023": 0.0,
			"-0.022": 0.0,
			"-0.021": 0.0,
			"-0.02": 0.0,
			"-0.019": 0.0,
			"-0.018": 0.0,
			"-0.017": 0.000838681792242,
			"-0.016": 0.63331480558,
			"-0.015": 1.13432776161,
			"-0.014": 1.31903756366,
			"-0.013": 1.10239793777,
			"-0.012": 0.988766450514,
			"-0.011": 0.785663448744,
			"-0.01": 1.41178805245,
			"-0.009": 1.89939017543,
			"-0.008": 4.00374874703,
			"-0.007": 7.23237731396,
			"-0.006": 9.35511717952,
			"-0.005": 9.29349930624,
			"-0.004": 11.7895916695,
			"-0.003": 11.4905488579,
			"-0.002": 12.2251653929,
			"-0.001": 10.6211602432,
			"0.0": 9.03364185483,
			"0.001": 9.41248339933,
			"0.002": 9.26260942567,
			"0.003": 12.3787925378,
			"0.004": 9.63963759121,
			"0.005": 6.0696113717,
			"0.006": 3.86408433585,
			"0.007": 2.74840233373,
			"0.008": 2.9072629153,
			"0.009": 2.63686464113,
			"0.01": 3.67132450373,
			"0.011": 3.85902684366,
			"0.012": 3.89568320273,
			"0.013": 2.96846200782,
			"0.014": 1.3634149163,
			"0.015": 0.29951725554,
			"0.016": 0.0,
			"0.017": 0.0,
			"0.018": 0.0,
			"0.019": 0.0,
			"0.02": 0.0,
			"0.021": 0.0,
			"0.022": 0.0,
			"0.023": 0.0,
			"0.024": 0.0,
			"0.025": 0.0
		}
	}
}
