{
	 "smiles": "C1=CC2=CC=CC=CC2=C1", 
	 "Tm": 372.65, 
	 "num_atms": 18, 
	 "gaussian": { 
		 "optdone": 1, 
		 "sigma_profile": "yes", 
		 "theory": "DFT", 
		 "functional": "B3LYP", 
		 "basiset": "6-31G**", 
		 "properties": { 
			 "R2extent": 1576.9908, 
			 "electric_dipole_moment_norm": 1.05471273814, 
			 "electric_quadrupole_moment_norm": 7.04458549455, 
			 "total_energy": -385.842393817, 
			 "HOMO_LUMO_gap": 0.12298, 
			 "cosmo_polarized_energy": -4.84, 
			 "cosmo_cavitation_energy": 21.43, 
			 "cosmo_dispersion_energy": -16.13, 
			 "cosmo_repulsion_energy": 1.27, 
			 "cosmo_total_nonelectrostatic_energy": 6.58, 
			 "SMD_solvation_energy": 3.42 
		},
		"coords": [
			{
				"x": 1.2366525715,
				"y": -2.8287617154,
				"z": -0.378438411,
				"element": "C" 
			},
			{
				"x": 0.5179552121,
				"y": -2.4871861872,
				"z": -1.5357884613,
				"element": "C" 
			},
			{
				"x": -0.2559005205,
				"y": -1.3466058136,
				"z": -1.2597199761,
				"element": "C" 
			},
			{
				"x": -1.1072627805,
				"y": -0.697945023,
				"z": -2.1499796114,
				"element": "C" 
			},
			{
				"x": -1.9017198758,
				"y": 0.4338243155,
				"z": -1.9436951334,
				"element": "C" 
			},
			{
				"x": -2.0417161452,
				"y": 1.2032951806,
				"z": -0.7845125104,
				"element": "C" 
			},
			{
				"x": -1.4359271723,
				"y": 1.055438352,
				"z": 0.4668251275,
				"element": "C" 
			},
			{
				"x": -0.5206513485,
				"y": 0.0849462256,
				"z": 0.8858940896,
				"element": "C" 
			},
			{
				"x": 0.0202826173,
				"y": -0.9784837707,
				"z": 0.1686869,
				"element": "C" 
			},
			{
				"x": 0.9412588765,
				"y": -1.9230261967,
				"z": 0.6536293367,
				"element": "C" 
			},
			{
				"x": 1.9187277771,
				"y": -3.6676515006,
				"z": -0.2939052124,
				"element": "H" 
			},
			{
				"x": 0.5468747937,
				"y": -3.0067496931,
				"z": -2.4855426233,
				"element": "H" 
			},
			{
				"x": -1.1593211721,
				"y": -1.1364413784,
				"z": -3.146276944,
				"element": "H" 
			},
			{
				"x": -2.4893792875,
				"y": 0.7594568959,
				"z": -2.7987127798,
				"element": "H" 
			},
			{
				"x": -2.7264609501,
				"y": 2.045429582,
				"z": -0.8694120002,
				"element": "H" 
			},
			{
				"x": -1.7136943976,
				"y": 1.7942798646,
				"z": 1.214807205,
				"element": "H" 
			},
			{
				"x": -0.1817055817,
				"y": 0.1707642535,
				"z": 1.9180427654,
				"element": "H" 
			},
			{
				"x": 1.3480873836,
				"y": -1.939583391,
				"z": 1.6571982392,
				"element": "H" 
			}
		],
		 "valence_orbital": [ 
			{
				"type": "occ",
				"energy": -0.3286,
				"method": "rhf"
			},
			{
				"type": "occ",
				"energy": -0.32625,
				"method": "rhf"
			},
			{
				"type": "occ",
				"energy": -0.29711,
				"method": "rhf"
			},
			{
				"type": "occ",
				"energy": -0.22893,
				"method": "rhf"
			},
			{
				"type": "occ",
				"energy": -0.19076,
				"method": "rhf"
			},
			{
				"type": "unocc",
				"energy": -0.06778,
				"method": "rhf"
			},
			{
				"type": "unocc",
				"energy": -0.03555,
				"method": "rhf"
			},
			{
				"type": "unocc",
				"energy": 0.0812,
				"method": "rhf"
			},
			{
				"type": "unocc",
				"energy": 0.08585,
				"method": "rhf"
			},
			{
				"type": "unocc",
				"energy": 0.11489,
				"method": "rhf"
			}
		],
		"cosmo_sigma_profile": { 
			"-0.025": 0.0,
			"-0.024": 0.0,
			"-0.023": 0.0,
			"-0.022": 0.0,
			"-0.021": 0.0,
			"-0.02": 0.0,
			"-0.019": 0.0,
			"-0.018": 0.0,
			"-0.017": 0.0,
			"-0.016": 0.0,
			"-0.015": 0.0,
			"-0.014": 0.0,
			"-0.013": 0.0,
			"-0.012": 0.0,
			"-0.011": 0.0,
			"-0.01": 0.0,
			"-0.009": 0.0,
			"-0.008": 0.0,
			"-0.007": 0.50380918094,
			"-0.006": 10.6817487299,
			"-0.005": 21.0683688034,
			"-0.004": 15.5073958333,
			"-0.003": 10.9876993918,
			"-0.002": 11.1451190099,
			"-0.001": 10.6244271771,
			"0.0": 10.1372288255,
			"0.001": 9.20224200129,
			"0.002": 11.1652862076,
			"0.003": 17.3494520084,
			"0.004": 20.7850721193,
			"0.005": 9.61399593205,
			"0.006": 8.08046553203,
			"0.007": 5.32936646235,
			"0.008": 0.0176238720539,
			"0.009": 0.0,
			"0.01": 0.0,
			"0.011": 0.0,
			"0.012": 0.0,
			"0.013": 0.0,
			"0.014": 0.0,
			"0.015": 0.0,
			"0.016": 0.0,
			"0.017": 0.0,
			"0.018": 0.0,
			"0.019": 0.0,
			"0.02": 0.0,
			"0.021": 0.0,
			"0.022": 0.0,
			"0.023": 0.0,
			"0.024": 0.0,
			"0.025": 0.0
		}
	}
}
