{
	 "smiles": "CS(=O)(=O)C1=CC=CC=C1", 
	 "Tm": 359.65, 
	 "num_atms": 18, 
	 "gaussian": { 
		 "optdone": 1, 
		 "sigma_profile": "yes", 
		 "theory": "DFT", 
		 "functional": "B3LYP", 
		 "basiset": "6-31G**", 
		 "properties": { 
			 "R2extent": 1710.0336, 
			 "electric_dipole_moment_norm": 5.13059872724, 
			 "electric_quadrupole_moment_norm": 8.90098258396, 
			 "total_energy": -820.136907612, 
			 "HOMO_LUMO_gap": 0.23225, 
			 "cosmo_polarized_energy": -14.08, 
			 "cosmo_cavitation_energy": 23.16, 
			 "cosmo_dispersion_energy": -17.46, 
			 "cosmo_repulsion_energy": 1.36, 
			 "cosmo_total_nonelectrostatic_energy": 7.06, 
			 "SMD_solvation_energy": 3.8 
		},
		"coords": [
			{
				"x": 1.3583580694,
				"y": -2.5888662072,
				"z": -0.0641480954,
				"element": "C" 
			},
			{
				"x": -0.2655439508,
				"y": -1.7904422025,
				"z": -0.0525327372,
				"element": "S" 
			},
			{
				"x": -0.8439074582,
				"y": -1.9902838004,
				"z": 1.2854841482,
				"element": "O" 
			},
			{
				"x": -0.9775730508,
				"y": -2.224922133,
				"z": -1.2645502115,
				"element": "O" 
			},
			{
				"x": 0.1228469913,
				"y": -0.0408382603,
				"z": -0.2339546991,
				"element": "C" 
			},
			{
				"x": 0.3292815997,
				"y": 0.7329032144,
				"z": 0.9098089414,
				"element": "C" 
			},
			{
				"x": 0.6368780594,
				"y": 2.0858371988,
				"z": 0.7623231665,
				"element": "C" 
			},
			{
				"x": 0.7297857701,
				"y": 2.6477670066,
				"z": -0.5135320332,
				"element": "C" 
			},
			{
				"x": 0.5080852624,
				"y": 1.8641991671,
				"z": -1.6488992475,
				"element": "C" 
			},
			{
				"x": 0.1998278221,
				"y": 0.5100430079,
				"z": -1.5146071061,
				"element": "C" 
			},
			{
				"x": 1.1722436398,
				"y": -3.6594280645,
				"z": 0.0442375808,
				"element": "H" 
			},
			{
				"x": 1.9473455417,
				"y": -2.21861921,
				"z": 0.7760314817,
				"element": "H" 
			},
			{
				"x": 1.8534776575,
				"y": -2.383522969,
				"z": -1.0141904695,
				"element": "H" 
			},
			{
				"x": 0.2273721499,
				"y": 0.2808943744,
				"z": 1.8908348952,
				"element": "H" 
			},
			{
				"x": 0.7954329495,
				"y": 2.7019763271,
				"z": 1.6422285895,
				"element": "H" 
			},
			{
				"x": 0.9672460358,
				"y": 3.7019129939,
				"z": -0.6231097086,
				"element": "H" 
			},
			{
				"x": 0.5668322195,
				"y": 2.308525208,
				"z": -2.6378998349,
				"element": "H" 
			},
			{
				"x": -0.0006893084,
				"y": -0.1118356515,
				"z": -2.3807246603,
				"element": "H" 
			}
		],
		 "valence_orbital": [ 
			{
				"type": "occ",
				"energy": -0.3102,
				"method": "rhf"
			},
			{
				"type": "occ",
				"energy": -0.29408,
				"method": "rhf"
			},
			{
				"type": "occ",
				"energy": -0.2882,
				"method": "rhf"
			},
			{
				"type": "occ",
				"energy": -0.27563,
				"method": "rhf"
			},
			{
				"type": "occ",
				"energy": -0.27342,
				"method": "rhf"
			},
			{
				"type": "unocc",
				"energy": -0.04117,
				"method": "rhf"
			},
			{
				"type": "unocc",
				"energy": -0.0241,
				"method": "rhf"
			},
			{
				"type": "unocc",
				"energy": 0.06269,
				"method": "rhf"
			},
			{
				"type": "unocc",
				"energy": 0.07949,
				"method": "rhf"
			},
			{
				"type": "unocc",
				"energy": 0.09427,
				"method": "rhf"
			}
		],
		"cosmo_sigma_profile": { 
			"-0.025": 0.0,
			"-0.024": 0.0,
			"-0.023": 0.0,
			"-0.022": 0.0,
			"-0.021": 0.0,
			"-0.02": 0.0,
			"-0.019": 0.0,
			"-0.018": 0.0,
			"-0.017": 0.0,
			"-0.016": 0.0,
			"-0.015": 0.0,
			"-0.014": 0.0,
			"-0.013": 0.0,
			"-0.012": 0.0,
			"-0.011": 0.0,
			"-0.01": 0.0,
			"-0.009": 1.44251012788,
			"-0.008": 6.54216445329,
			"-0.007": 11.7102717022,
			"-0.006": 17.755874056,
			"-0.005": 17.0926813624,
			"-0.004": 14.5736578443,
			"-0.003": 12.4578353761,
			"-0.002": 8.86207141585,
			"-0.001": 6.7907696037,
			"0.0": 9.05067893103,
			"0.001": 10.6192745817,
			"0.002": 11.7933427041,
			"0.003": 14.4283332953,
			"0.004": 5.30150699836,
			"0.005": 2.86409669962,
			"0.006": 2.38657247485,
			"0.007": 1.9775734988,
			"0.008": 2.60810707883,
			"0.009": 3.34880588584,
			"0.01": 4.22350234505,
			"0.011": 8.67231103109,
			"0.012": 9.05414355548,
			"0.013": 1.55814387605,
			"0.014": 0.0,
			"0.015": 0.0,
			"0.016": 0.0,
			"0.017": 0.0,
			"0.018": 0.0,
			"0.019": 0.0,
			"0.02": 0.0,
			"0.021": 0.0,
			"0.022": 0.0,
			"0.023": 0.0,
			"0.024": 0.0,
			"0.025": 0.0
		}
	}
}
