{
	 "smiles": "FC(F)(F)C1=CC(=CC(=C1)N1C=CC=C1)C(F)(F)F", 
	 "Tm": 317.15, 
	 "num_atms": 26, 
	 "gaussian": { 
		 "optdone": 1, 
		 "sigma_profile": "yes", 
		 "theory": "DFT", 
		 "functional": "B3LYP", 
		 "basiset": "6-31G**", 
		 "properties": { 
			 "R2extent": 5928.2525, 
			 "electric_dipole_moment_norm": 1.63293184793, 
			 "electric_quadrupole_moment_norm": 3.79453142035, 
			 "total_energy": -1115.28740459, 
			 "HOMO_LUMO_gap": 0.17137, 
			 "cosmo_polarized_energy": -6.47, 
			 "cosmo_cavitation_energy": 33.81, 
			 "cosmo_dispersion_energy": -23.11, 
			 "cosmo_repulsion_energy": 1.64, 
			 "cosmo_total_nonelectrostatic_energy": 12.34, 
			 "SMD_solvation_energy": 8.7 
		},
		"coords": [
			{
				"x": -1.7247247883,
				"y": -2.0961739157,
				"z": 3.1786817202,
				"element": "F" 
			},
			{
				"x": -0.5833018528,
				"y": -2.4035439094,
				"z": 2.5238716703,
				"element": "C" 
			},
			{
				"x": 0.3281212912,
				"y": -2.7502614114,
				"z": 3.456632105,
				"element": "F" 
			},
			{
				"x": -0.839192265,
				"y": -3.4965038151,
				"z": 1.772968523,
				"element": "F" 
			},
			{
				"x": -0.1049733217,
				"y": -1.2470411055,
				"z": 1.682258869,
				"element": "C" 
			},
			{
				"x": 0.7097264719,
				"y": -0.2701407476,
				"z": 2.2551539924,
				"element": "C" 
			},
			{
				"x": 1.09368198,
				"y": 0.8241151998,
				"z": 1.4804569297,
				"element": "C" 
			},
			{
				"x": 0.6863395242,
				"y": 0.9401412449,
				"z": 0.1521935983,
				"element": "C" 
			},
			{
				"x": -0.1396044949,
				"y": -0.0392011284,
				"z": -0.4133316759,
				"element": "C" 
			},
			{
				"x": -0.5402546726,
				"y": -1.133838254,
				"z": 0.3630882062,
				"element": "C" 
			},
			{
				"x": -0.5575571782,
				"y": 0.0716992039,
				"z": -1.7552598733,
				"element": "N" 
			},
			{
				"x": -0.7910081842,
				"y": -0.9865596395,
				"z": -2.6230286564,
				"element": "C" 
			},
			{
				"x": -1.1781548153,
				"y": -0.471490127,
				"z": -3.8350196871,
				"element": "C" 
			},
			{
				"x": -1.1936456473,
				"y": 0.9507881297,
				"z": -3.7118787851,
				"element": "C" 
			},
			{
				"x": -0.8049431214,
				"y": 1.2584547085,
				"z": -2.4319113367,
				"element": "C" 
			},
			{
				"x": 1.9348635586,
				"y": 1.9153554314,
				"z": 2.0936762076,
				"element": "C" 
			},
			{
				"x": 2.7311024584,
				"y": 1.4412530192,
				"z": 3.074143177,
				"element": "F" 
			},
			{
				"x": 1.1618766902,
				"y": 2.8802392207,
				"z": 2.6403549362,
				"element": "F" 
			},
			{
				"x": 2.7243104615,
				"y": 2.5141426996,
				"z": 1.1761093273,
				"element": "F" 
			},
			{
				"x": 1.0516550343,
				"y": -0.3682176845,
				"z": 3.2779853568,
				"element": "H" 
			},
			{
				"x": 1.0365300079,
				"y": 1.7699007441,
				"z": -0.4496872429,
				"element": "H" 
			},
			{
				"x": -1.19493035,
				"y": -1.8878784365,
				"z": -0.0566326803,
				"element": "H" 
			},
			{
				"x": -0.6079656233,
				"y": -2.0040259656,
				"z": -2.3141383914,
				"element": "H" 
			},
			{
				"x": -1.4135338347,
				"y": -1.0490820613,
				"z": -4.7177334339,
				"element": "H" 
			},
			{
				"x": -1.4705226241,
				"y": 1.6652411123,
				"z": -4.4741705277,
				"element": "H" 
			},
			{
				"x": -0.7337947041,
				"y": 2.2078274874,
				"z": -1.9241823283,
				"element": "H" 
			}
		],
		 "valence_orbital": [ 
			{
				"type": "occ",
				"energy": -0.3711,
				"method": "rhf"
			},
			{
				"type": "occ",
				"energy": -0.30334,
				"method": "rhf"
			},
			{
				"type": "occ",
				"energy": -0.29313,
				"method": "rhf"
			},
			{
				"type": "occ",
				"energy": -0.23951,
				"method": "rhf"
			},
			{
				"type": "occ",
				"energy": -0.22554,
				"method": "rhf"
			},
			{
				"type": "unocc",
				"energy": -0.05417,
				"method": "rhf"
			},
			{
				"type": "unocc",
				"energy": -0.04683,
				"method": "rhf"
			},
			{
				"type": "unocc",
				"energy": 0.02647,
				"method": "rhf"
			},
			{
				"type": "unocc",
				"energy": 0.06839,
				"method": "rhf"
			},
			{
				"type": "unocc",
				"energy": 0.09208,
				"method": "rhf"
			}
		],
		"cosmo_sigma_profile": { 
			"-0.025": 0.0,
			"-0.024": 0.0,
			"-0.023": 0.0,
			"-0.022": 0.0,
			"-0.021": 0.0,
			"-0.02": 0.0,
			"-0.019": 0.0,
			"-0.018": 0.0,
			"-0.017": 0.0,
			"-0.016": 0.0,
			"-0.015": 0.0,
			"-0.014": 0.0,
			"-0.013": 0.0,
			"-0.012": 0.0,
			"-0.011": 0.0,
			"-0.01": 0.00462598079295,
			"-0.009": 2.52506037391,
			"-0.008": 6.83985415823,
			"-0.007": 7.4355233473,
			"-0.006": 9.21184268595,
			"-0.005": 12.1148259145,
			"-0.004": 10.3068267931,
			"-0.003": 14.3834021566,
			"-0.002": 17.375639826,
			"-0.001": 22.1149875905,
			"0.0": 31.3404246196,
			"0.001": 26.5344329235,
			"0.002": 48.1835187399,
			"0.003": 40.8340401026,
			"0.004": 5.02789404916,
			"0.005": 5.6202270041,
			"0.006": 4.9649553767,
			"0.007": 5.98269280705,
			"0.008": 2.00718897754,
			"0.009": 0.0,
			"0.01": 0.0,
			"0.011": 0.0,
			"0.012": 0.0,
			"0.013": 0.0,
			"0.014": 0.0,
			"0.015": 0.0,
			"0.016": 0.0,
			"0.017": 0.0,
			"0.018": 0.0,
			"0.019": 0.0,
			"0.02": 0.0,
			"0.021": 0.0,
			"0.022": 0.0,
			"0.023": 0.0,
			"0.024": 0.0,
			"0.025": 0.0
		}
	}
}
