{
	 "smiles": "CC(C)N1N=CC2=C1N=C(C)C=C2C(O)=O", 
	 "Tm": 446.15, 
	 "num_atms": 29, 
	 "gaussian": { 
		 "optdone": 1, 
		 "sigma_profile": "yes", 
		 "theory": "DFT", 
		 "functional": "B3LYP", 
		 "basiset": "6-31G**", 
		 "properties": { 
			 "R2extent": 5094.9815, 
			 "electric_dipole_moment_norm": 2.82525521325, 
			 "electric_quadrupole_moment_norm": 20.2365751119, 
			 "total_energy": -741.731570222, 
			 "HOMO_LUMO_gap": 0.1593, 
			 "cosmo_polarized_energy": -11.42, 
			 "cosmo_cavitation_energy": 32.69, 
			 "cosmo_dispersion_energy": -23.17, 
			 "cosmo_repulsion_energy": 1.81, 
			 "cosmo_total_nonelectrostatic_energy": 11.32, 
			 "SMD_solvation_energy": 5.33 
		},
		"coords": [
			{
				"x": -0.3214267709,
				"y": -1.7429227517,
				"z": -2.9572127718,
				"element": "C" 
			},
			{
				"x": -1.3328797404,
				"y": -0.5961040232,
				"z": -2.8370106214,
				"element": "C" 
			},
			{
				"x": -0.7077350038,
				"y": 0.775489896,
				"z": -3.1208098808,
				"element": "C" 
			},
			{
				"x": -1.9946260982,
				"y": -0.6124005535,
				"z": -1.5232836349,
				"element": "N" 
			},
			{
				"x": -3.3385249869,
				"y": -0.8158328109,
				"z": -1.446711289,
				"element": "N" 
			},
			{
				"x": -3.6710566496,
				"y": -0.7837430112,
				"z": -0.1646307368,
				"element": "C" 
			},
			{
				"x": -2.527005866,
				"y": -0.5533912483,
				"z": 0.6469984763,
				"element": "C" 
			},
			{
				"x": -1.4550628084,
				"y": -0.4475595648,
				"z": -0.2775228836,
				"element": "C" 
			},
			{
				"x": -0.1640700267,
				"y": -0.2285150695,
				"z": 0.0121780422,
				"element": "N" 
			},
			{
				"x": 0.1194488085,
				"y": -0.0995729697,
				"z": 1.3102532501,
				"element": "C" 
			},
			{
				"x": 1.561151062,
				"y": 0.1479081668,
				"z": 1.6786235236,
				"element": "C" 
			},
			{
				"x": -0.8676083985,
				"y": -0.1859642509,
				"z": 2.3278333276,
				"element": "C" 
			},
			{
				"x": -2.2014294275,
				"y": -0.4136119905,
				"z": 2.0113521295,
				"element": "C" 
			},
			{
				"x": -3.2676327071,
				"y": -0.5114324562,
				"z": 3.0442783684,
				"element": "C" 
			},
			{
				"x": -2.8020316921,
				"y": -0.3564423446,
				"z": 4.3072016138,
				"element": "O" 
			},
			{
				"x": -4.4419447974,
				"y": -0.7094356086,
				"z": 2.8041990654,
				"element": "O" 
			},
			{
				"x": 0.0994376799,
				"y": -1.7611516909,
				"z": -3.9675208801,
				"element": "H" 
			},
			{
				"x": -0.8034998464,
				"y": -2.7067191386,
				"z": -2.7692379365,
				"element": "H" 
			},
			{
				"x": 0.4966370159,
				"y": -1.6146055383,
				"z": -2.2438099712,
				"element": "H" 
			},
			{
				"x": -2.1579870935,
				"y": -0.767929056,
				"z": -3.5334573605,
				"element": "H" 
			},
			{
				"x": -0.292571073,
				"y": 0.790749613,
				"z": -4.1335232817,
				"element": "H" 
			},
			{
				"x": 0.0977462811,
				"y": 0.9882270427,
				"z": -2.4133131658,
				"element": "H" 
			},
			{
				"x": -1.458921152,
				"y": 1.5672011863,
				"z": -3.0463266946,
				"element": "H" 
			},
			{
				"x": -4.695981905,
				"y": -0.9224511203,
				"z": 0.144055427,
				"element": "H" 
			},
			{
				"x": 1.6742739182,
				"y": 1.0947888665,
				"z": 2.2188573599,
				"element": "H" 
			},
			{
				"x": 2.1727942701,
				"y": 0.1836331404,
				"z": 0.7759407202,
				"element": "H" 
			},
			{
				"x": 1.9436883578,
				"y": -0.6440827172,
				"z": 2.3325767004,
				"element": "H" 
			},
			{
				"x": -0.572675213,
				"y": -0.0723124118,
				"z": 3.3644106989,
				"element": "H" 
			},
			{
				"x": -3.5766061373,
				"y": -0.4386175849,
				"z": 4.8876124055,
				"element": "H" 
			}
		],
		 "valence_orbital": [ 
			{
				"type": "occ",
				"energy": -0.2935,
				"method": "rhf"
			},
			{
				"type": "occ",
				"energy": -0.28822,
				"method": "rhf"
			},
			{
				"type": "occ",
				"energy": -0.26797,
				"method": "rhf"
			},
			{
				"type": "occ",
				"energy": -0.24582,
				"method": "rhf"
			},
			{
				"type": "occ",
				"energy": -0.23299,
				"method": "rhf"
			},
			{
				"type": "unocc",
				"energy": -0.07369,
				"method": "rhf"
			},
			{
				"type": "unocc",
				"energy": -0.00458,
				"method": "rhf"
			},
			{
				"type": "unocc",
				"energy": 0.03868,
				"method": "rhf"
			},
			{
				"type": "unocc",
				"energy": 0.05905,
				"method": "rhf"
			},
			{
				"type": "unocc",
				"energy": 0.07223,
				"method": "rhf"
			}
		],
		"cosmo_sigma_profile": { 
			"-0.025": 0.0,
			"-0.024": 0.0,
			"-0.023": 0.0,
			"-0.022": 0.0,
			"-0.021": 0.0,
			"-0.02": 0.0,
			"-0.019": 0.288102208662,
			"-0.018": 0.952798878264,
			"-0.017": 1.07664774628,
			"-0.016": 0.738915117248,
			"-0.015": 0.715746101925,
			"-0.014": 0.567697255928,
			"-0.013": 0.278770220551,
			"-0.012": 0.852360813173,
			"-0.011": 1.47577325036,
			"-0.01": 0.304979012621,
			"-0.009": 0.438925677933,
			"-0.008": 0.875624078603,
			"-0.007": 2.34443280665,
			"-0.006": 3.65333567107,
			"-0.005": 9.95784432224,
			"-0.004": 21.1936877289,
			"-0.003": 23.478163241,
			"-0.002": 23.6016408835,
			"-0.001": 28.0728791488,
			"0.0": 39.8215270478,
			"0.001": 26.3597264992,
			"0.002": 14.0894417912,
			"0.003": 9.0335185583,
			"0.004": 8.96673692229,
			"0.005": 6.95198477788,
			"0.006": 7.89347457738,
			"0.007": 5.67462352299,
			"0.008": 3.87515344388,
			"0.009": 3.75941412981,
			"0.01": 3.70901036458,
			"0.011": 4.12443999753,
			"0.012": 1.8591956637,
			"0.013": 0.9578310016,
			"0.014": 0.76273487759,
			"0.015": 0.299337148567,
			"0.016": 0.0,
			"0.017": 0.0,
			"0.018": 0.0,
			"0.019": 0.0,
			"0.02": 0.0,
			"0.021": 0.0,
			"0.022": 0.0,
			"0.023": 0.0,
			"0.024": 0.0,
			"0.025": 0.0
		}
	}
}
