{
	 "smiles": "CC(C)(C)OC(=O)N1CC(C1)C#N", 
	 "Tm": 343.15, 
	 "num_atms": 27, 
	 "gaussian": { 
		 "optdone": 1, 
		 "sigma_profile": "yes", 
		 "theory": "DFT", 
		 "functional": "B3LYP", 
		 "basiset": "6-31G**", 
		 "properties": { 
			 "R2extent": 3699.595, 
			 "electric_dipole_moment_norm": 3.51213551703, 
			 "electric_quadrupole_moment_norm": 23.6114817049, 
			 "total_energy": -611.329864435, 
			 "HOMO_LUMO_gap": 0.27034, 
			 "cosmo_polarized_energy": -13.79, 
			 "cosmo_cavitation_energy": 30.67, 
			 "cosmo_dispersion_energy": -20.87, 
			 "cosmo_repulsion_energy": 1.7, 
			 "cosmo_total_nonelectrostatic_energy": 11.5, 
			 "SMD_solvation_energy": 6.34 
		},
		"coords": [
			{
				"x": 1.5854093831,
				"y": 0.7065647089,
				"z": -1.1746518356,
				"element": "C" 
			},
			{
				"x": 0.2476141821,
				"y": 1.4509317552,
				"z": -1.1158059971,
				"element": "C" 
			},
			{
				"x": -0.2074125798,
				"y": 1.8687718325,
				"z": -2.5158713992,
				"element": "C" 
			},
			{
				"x": 0.2936651882,
				"y": 2.6570575037,
				"z": -0.1724325865,
				"element": "C" 
			},
			{
				"x": -0.8218905784,
				"y": 0.5267042811,
				"z": -0.6940663345,
				"element": "O" 
			},
			{
				"x": -0.7900445536,
				"y": -0.0622860189,
				"z": 0.5205834278,
				"element": "C" 
			},
			{
				"x": 0.0688311021,
				"y": 0.0498042204,
				"z": 1.3793198327,
				"element": "O" 
			},
			{
				"x": -1.9159930133,
				"y": -0.8293143055,
				"z": 0.6907137177,
				"element": "N" 
			},
			{
				"x": -2.0270210541,
				"y": -1.9242993143,
				"z": 1.6576798986,
				"element": "C" 
			},
			{
				"x": -3.1378731634,
				"y": -2.5465195801,
				"z": 0.7444844546,
				"element": "C" 
			},
			{
				"x": -2.7544518248,
				"y": -1.4724871256,
				"z": -0.328547983,
				"element": "C" 
			},
			{
				"x": -2.9831850837,
				"y": -3.943417151,
				"z": 0.3666700171,
				"element": "C" 
			},
			{
				"x": -2.8507489576,
				"y": -5.0553540901,
				"z": 0.0591975732,
				"element": "N" 
			},
			{
				"x": 1.503924784,
				"y": -0.1721912,
				"z": -1.8223112026,
				"element": "H" 
			},
			{
				"x": 1.8991838044,
				"y": 0.3867369374,
				"z": -0.1806731998,
				"element": "H" 
			},
			{
				"x": 2.3533319493,
				"y": 1.3653480564,
				"z": -1.592753069,
				"element": "H" 
			},
			{
				"x": -1.1842197076,
				"y": 2.3593454313,
				"z": -2.4747594601,
				"element": "H" 
			},
			{
				"x": 0.5131815791,
				"y": 2.5673119485,
				"z": -2.9511933715,
				"element": "H" 
			},
			{
				"x": -0.2854742809,
				"y": 0.9979691077,
				"z": -3.17336182,
				"element": "H" 
			},
			{
				"x": 1.0120470464,
				"y": 3.3911481599,
				"z": -0.551306752,
				"element": "H" 
			},
			{
				"x": -0.6882872114,
				"y": 3.1379815661,
				"z": -0.1216155196,
				"element": "H" 
			},
			{
				"x": 0.5939170121,
				"y": 2.3568052575,
				"z": 0.8318486167,
				"element": "H" 
			},
			{
				"x": -2.3516744245,
				"y": -1.6238839753,
				"z": 2.6573145524,
				"element": "H" 
			},
			{
				"x": -1.1185147594,
				"y": -2.5306194302,
				"z": 1.7370875011,
				"element": "H" 
			},
			{
				"x": -4.1413976103,
				"y": -2.3887972941,
				"z": 1.1474566275,
				"element": "H" 
			},
			{
				"x": -3.5803215657,
				"y": -0.8592932617,
				"z": -0.6990189237,
				"element": "H" 
			},
			{
				"x": -2.1898956621,
				"y": -1.8745180198,
				"z": -1.1763867653,
				"element": "H" 
			}
		],
		 "valence_orbital": [ 
			{
				"type": "occ",
				"energy": -0.33086,
				"method": "rhf"
			},
			{
				"type": "occ",
				"energy": -0.3255,
				"method": "rhf"
			},
			{
				"type": "occ",
				"energy": -0.29564,
				"method": "rhf"
			},
			{
				"type": "occ",
				"energy": -0.27236,
				"method": "rhf"
			},
			{
				"type": "occ",
				"energy": -0.25665,
				"method": "rhf"
			},
			{
				"type": "unocc",
				"energy": 0.01369,
				"method": "rhf"
			},
			{
				"type": "unocc",
				"energy": 0.02082,
				"method": "rhf"
			},
			{
				"type": "unocc",
				"energy": 0.03392,
				"method": "rhf"
			},
			{
				"type": "unocc",
				"energy": 0.07284,
				"method": "rhf"
			},
			{
				"type": "unocc",
				"energy": 0.08008,
				"method": "rhf"
			}
		],
		"cosmo_sigma_profile": { 
			"-0.025": 0.0,
			"-0.024": 0.0,
			"-0.023": 0.0,
			"-0.022": 0.0,
			"-0.021": 0.0,
			"-0.02": 0.0,
			"-0.019": 0.0,
			"-0.018": 0.0,
			"-0.017": 0.0,
			"-0.016": 0.0,
			"-0.015": 0.0,
			"-0.014": 0.0,
			"-0.013": 0.0,
			"-0.012": 0.0,
			"-0.011": 0.0,
			"-0.01": 0.606450861749,
			"-0.009": 3.18738745939,
			"-0.008": 4.24028534294,
			"-0.007": 9.98821192052,
			"-0.006": 14.9985001437,
			"-0.005": 14.6567526833,
			"-0.004": 19.5865060383,
			"-0.003": 20.9798657197,
			"-0.002": 17.3092468708,
			"-0.001": 22.0189740245,
			"0.0": 25.0567510523,
			"0.001": 18.5946249649,
			"0.002": 7.50597520768,
			"0.003": 8.39263301711,
			"0.004": 5.72329560554,
			"0.005": 7.04493575036,
			"0.006": 7.28910324873,
			"0.007": 5.41744563898,
			"0.008": 4.78056337993,
			"0.009": 4.97388043199,
			"0.01": 4.18631314652,
			"0.011": 4.56437320557,
			"0.012": 4.61348543683,
			"0.013": 5.05267406754,
			"0.014": 0.457920519113,
			"0.015": 0.0,
			"0.016": 0.0,
			"0.017": 0.0,
			"0.018": 0.0,
			"0.019": 0.0,
			"0.02": 0.0,
			"0.021": 0.0,
			"0.022": 0.0,
			"0.023": 0.0,
			"0.024": 0.0,
			"0.025": 0.0
		}
	}
}
