{
	 "smiles": "ClCC(=O)C1=CC(Cl)=C(Cl)C=C1", 
	 "Tm": 317.15, 
	 "num_atms": 17, 
	 "gaussian": { 
		 "optdone": 1, 
		 "sigma_profile": "yes", 
		 "theory": "DFT", 
		 "functional": "B3LYP", 
		 "basiset": "6-31G**", 
		 "properties": { 
			 "R2extent": 7013.9127, 
			 "electric_dipole_moment_norm": 1.40781883067, 
			 "electric_quadrupole_moment_norm": 12.0341074663, 
			 "total_energy": -1763.658259, 
			 "HOMO_LUMO_gap": 0.17637, 
			 "cosmo_polarized_energy": -8.27, 
			 "cosmo_cavitation_energy": 27.1, 
			 "cosmo_dispersion_energy": -19.98, 
			 "cosmo_repulsion_energy": 1.61, 
			 "cosmo_total_nonelectrostatic_energy": 8.72, 
			 "SMD_solvation_energy": 4.39 
		},
		"coords": [
			{
				"x": -2.9669858565,
				"y": 3.1019056631,
				"z": -1.9882632633,
				"element": "Cl" 
			},
			{
				"x": -2.3932775828,
				"y": 1.4500193441,
				"z": -1.506192672,
				"element": "C" 
			},
			{
				"x": -0.9042436958,
				"y": 1.2571455784,
				"z": -1.8037647415,
				"element": "C" 
			},
			{
				"x": -0.5816596457,
				"y": 0.4661576151,
				"z": -2.6738189967,
				"element": "O" 
			},
			{
				"x": 0.1220092156,
				"y": 1.9979686258,
				"z": -1.0096955804,
				"element": "C" 
			},
			{
				"x": -0.2060856359,
				"y": 2.8572161337,
				"z": 0.0461330619,
				"element": "C" 
			},
			{
				"x": 0.7958432945,
				"y": 3.4970691681,
				"z": 0.7754968766,
				"element": "C" 
			},
			{
				"x": 0.3347096239,
				"y": 4.5551604613,
				"z": 2.084202351,
				"element": "Cl" 
			},
			{
				"x": 2.1427089907,
				"y": 3.2825277642,
				"z": 0.4471480269,
				"element": "C" 
			},
			{
				"x": 3.4267108824,
				"y": 4.0602024939,
				"z": 1.3282896821,
				"element": "Cl" 
			},
			{
				"x": 2.4724693341,
				"y": 2.4267274943,
				"z": -0.610259165,
				"element": "C" 
			},
			{
				"x": 1.4725251735,
				"y": 1.7896373635,
				"z": -1.3301044098,
				"element": "C" 
			},
			{
				"x": -2.9487380978,
				"y": 0.7268463411,
				"z": -2.100104366,
				"element": "H" 
			},
			{
				"x": -2.6223295631,
				"y": 1.3256724973,
				"z": -0.4458449515,
				"element": "H" 
			},
			{
				"x": -1.2373500055,
				"y": 3.0570277665,
				"z": 0.3098859271,
				"element": "H" 
			},
			{
				"x": 3.5176215694,
				"y": 2.270879896,
				"z": -0.8529783163,
				"element": "H" 
			},
			{
				"x": 1.7148719991,
				"y": 1.1200357935,
				"z": -2.147629463,
				"element": "H" 
			}
		],
		 "valence_orbital": [ 
			{
				"type": "occ",
				"energy": -0.32171,
				"method": "rhf"
			},
			{
				"type": "occ",
				"energy": -0.3159,
				"method": "rhf"
			},
			{
				"type": "occ",
				"energy": -0.27976,
				"method": "rhf"
			},
			{
				"type": "occ",
				"energy": -0.27516,
				"method": "rhf"
			},
			{
				"type": "occ",
				"energy": -0.26537,
				"method": "rhf"
			},
			{
				"type": "unocc",
				"energy": -0.089,
				"method": "rhf"
			},
			{
				"type": "unocc",
				"energy": -0.03855,
				"method": "rhf"
			},
			{
				"type": "unocc",
				"energy": -0.01489,
				"method": "rhf"
			},
			{
				"type": "unocc",
				"energy": -0.00909,
				"method": "rhf"
			},
			{
				"type": "unocc",
				"energy": 0.03683,
				"method": "rhf"
			}
		],
		"cosmo_sigma_profile": { 
			"-0.025": 0.0,
			"-0.024": 0.0,
			"-0.023": 0.0,
			"-0.022": 0.0,
			"-0.021": 0.0,
			"-0.02": 0.0,
			"-0.019": 0.0,
			"-0.018": 0.0,
			"-0.017": 0.0,
			"-0.016": 0.0,
			"-0.015": 0.0,
			"-0.014": 0.0,
			"-0.013": 0.0,
			"-0.012": 0.0311422886724,
			"-0.011": 0.795341694009,
			"-0.01": 2.35673334087,
			"-0.009": 4.6221528847,
			"-0.008": 5.87365574625,
			"-0.007": 8.01235925961,
			"-0.006": 9.10805306922,
			"-0.005": 6.75339098343,
			"-0.004": 8.20789370381,
			"-0.003": 8.21268317219,
			"-0.002": 14.1459998915,
			"-0.001": 24.2428517213,
			"0.0": 27.7569613309,
			"0.001": 20.5356391907,
			"0.002": 18.0989476351,
			"0.003": 23.8537489582,
			"0.004": 17.5479497721,
			"0.005": 9.89332195776,
			"0.006": 2.75215981836,
			"0.007": 1.91303345831,
			"0.008": 1.32803842682,
			"0.009": 2.79492509511,
			"0.01": 3.25639511529,
			"0.011": 2.31811248552,
			"0.012": 0.188365432189,
			"0.013": 0.0,
			"0.014": 0.0,
			"0.015": 0.0,
			"0.016": 0.0,
			"0.017": 0.0,
			"0.018": 0.0,
			"0.019": 0.0,
			"0.02": 0.0,
			"0.021": 0.0,
			"0.022": 0.0,
			"0.023": 0.0,
			"0.024": 0.0,
			"0.025": 0.0
		}
	}
}
