{
	 "smiles": "NC1=CC(=CC=C1)C1=NC2=C(S1)C=CC=C2", 
	 "Tm": 412.15, 
	 "num_atms": 26, 
	 "gaussian": { 
		 "optdone": 1, 
		 "sigma_profile": "yes", 
		 "theory": "DFT", 
		 "functional": "B3LYP", 
		 "basiset": "6-31G**", 
		 "properties": { 
			 "R2extent": 6084.9985, 
			 "electric_dipole_moment_norm": 1.67155583215, 
			 "electric_quadrupole_moment_norm": 14.5250833395, 
			 "total_energy": -1009.12072864, 
			 "HOMO_LUMO_gap": 0.1522, 
			 "cosmo_polarized_energy": -11.32, 
			 "cosmo_cavitation_energy": 31.69, 
			 "cosmo_dispersion_energy": -24.21, 
			 "cosmo_repulsion_energy": 1.81, 
			 "cosmo_total_nonelectrostatic_energy": 9.28, 
			 "SMD_solvation_energy": 3.29 
		},
		"coords": [
			{
				"x": -0.839255036,
				"y": 2.3143309212,
				"z": 2.0283935323,
				"element": "N" 
			},
			{
				"x": -1.0659688816,
				"y": 1.0515549079,
				"z": 1.4817439539,
				"element": "C" 
			},
			{
				"x": -0.3116448221,
				"y": 0.6017565312,
				"z": 0.3901469712,
				"element": "C" 
			},
			{
				"x": -0.4945236468,
				"y": -0.6879530558,
				"z": -0.1287843183,
				"element": "C" 
			},
			{
				"x": -1.446222572,
				"y": -1.5433930991,
				"z": 0.448823389,
				"element": "C" 
			},
			{
				"x": -2.1970903547,
				"y": -1.095954947,
				"z": 1.5340538467,
				"element": "C" 
			},
			{
				"x": -2.0166216549,
				"y": 0.1837907792,
				"z": 2.0515118132,
				"element": "C" 
			},
			{
				"x": 0.3248916973,
				"y": -1.1005405822,
				"z": -1.2776198317,
				"element": "C" 
			},
			{
				"x": 1.1974869882,
				"y": -0.3354561055,
				"z": -1.8617708224,
				"element": "N" 
			},
			{
				"x": 1.8252052808,
				"y": -0.9757330587,
				"z": -2.9123396943,
				"element": "C" 
			},
			{
				"x": 1.4084727036,
				"y": -2.3100424475,
				"z": -3.1468408778,
				"element": "C" 
			},
			{
				"x": 0.178566708,
				"y": -2.7416034869,
				"z": -1.9794561219,
				"element": "S" 
			},
			{
				"x": 1.9594859189,
				"y": -3.0751352032,
				"z": -4.1773623583,
				"element": "C" 
			},
			{
				"x": 2.9382670123,
				"y": -2.4903756648,
				"z": -4.9776245733,
				"element": "C" 
			},
			{
				"x": 3.3608053251,
				"y": -1.1676818669,
				"z": -4.7558357286,
				"element": "C" 
			},
			{
				"x": 2.8130406371,
				"y": -0.4062359709,
				"z": -3.7309782318,
				"element": "C" 
			},
			{
				"x": -1.6162574183,
				"y": 2.7136422981,
				"z": 2.5359990618,
				"element": "H" 
			},
			{
				"x": -0.4066553285,
				"y": 2.9825180479,
				"z": 1.406008216,
				"element": "H" 
			},
			{
				"x": 0.4306622471,
				"y": 1.2455993992,
				"z": -0.0704128726,
				"element": "H" 
			},
			{
				"x": -1.6040443943,
				"y": -2.5433856615,
				"z": 0.0577568783,
				"element": "H" 
			},
			{
				"x": -2.9362211133,
				"y": -1.752713873,
				"z": 1.9836017201,
				"element": "H" 
			},
			{
				"x": -2.6060838376,
				"y": 0.5172323326,
				"z": 2.9019509776,
				"element": "H" 
			},
			{
				"x": 1.6368388953,
				"y": -4.0964787461,
				"z": -4.3525063705,
				"element": "H" 
			},
			{
				"x": 3.3804714915,
				"y": -3.0670053898,
				"z": -5.7846047657,
				"element": "H" 
			},
			{
				"x": 4.125833225,
				"y": -0.7374596229,
				"z": -5.3951968398,
				"element": "H" 
			},
			{
				"x": 3.1288609298,
				"y": 0.6154235643,
				"z": -3.547256953,
				"element": "H" 
			}
		],
		 "valence_orbital": [ 
			{
				"type": "occ",
				"energy": -0.27124,
				"method": "rhf"
			},
			{
				"type": "occ",
				"energy": -0.26579,
				"method": "rhf"
			},
			{
				"type": "occ",
				"energy": -0.23171,
				"method": "rhf"
			},
			{
				"type": "occ",
				"energy": -0.22107,
				"method": "rhf"
			},
			{
				"type": "occ",
				"energy": -0.20558,
				"method": "rhf"
			},
			{
				"type": "unocc",
				"energy": -0.05338,
				"method": "rhf"
			},
			{
				"type": "unocc",
				"energy": -0.00294,
				"method": "rhf"
			},
			{
				"type": "unocc",
				"energy": 0.00619,
				"method": "rhf"
			},
			{
				"type": "unocc",
				"energy": 0.01725,
				"method": "rhf"
			},
			{
				"type": "unocc",
				"energy": 0.02002,
				"method": "rhf"
			}
		],
		"cosmo_sigma_profile": { 
			"-0.025": 0.0,
			"-0.024": 0.0,
			"-0.023": 0.0,
			"-0.022": 0.0,
			"-0.021": 0.0,
			"-0.02": 0.0,
			"-0.019": 0.0,
			"-0.018": 0.0,
			"-0.017": 0.0,
			"-0.016": 0.0,
			"-0.015": 0.0,
			"-0.014": 0.0,
			"-0.013": 0.614922643312,
			"-0.012": 2.69894762895,
			"-0.011": 3.15197051505,
			"-0.01": 2.8528742513,
			"-0.009": 2.6850274798,
			"-0.008": 3.31680943718,
			"-0.007": 6.49545635454,
			"-0.006": 14.9773114526,
			"-0.005": 15.9641543443,
			"-0.004": 16.3154455961,
			"-0.003": 13.1385845712,
			"-0.002": 12.52950048,
			"-0.001": 12.2194599603,
			"0.0": 16.8470431288,
			"0.001": 19.9929434148,
			"0.002": 21.835304897,
			"0.003": 25.360552555,
			"0.004": 25.5578916044,
			"0.005": 20.6706308549,
			"0.006": 6.61497879469,
			"0.007": 2.3388461426,
			"0.008": 2.35868004935,
			"0.009": 2.35914081635,
			"0.01": 1.54477883437,
			"0.011": 1.9950417089,
			"0.012": 1.16908850641,
			"0.013": 0.505312318914,
			"0.014": 0.51718460567,
			"0.015": 0.101077942179,
			"0.016": 0.0,
			"0.017": 0.0,
			"0.018": 0.0,
			"0.019": 0.0,
			"0.02": 0.0,
			"0.021": 0.0,
			"0.022": 0.0,
			"0.023": 0.0,
			"0.024": 0.0,
			"0.025": 0.0
		}
	}
}
