{
	 "smiles": "CCCCCCCCOC(=O)C1=C(C=CC=C1)C(=O)OCCCCCCCC(C)C", 
	 "Tm": 371.15, 
	 "num_atms": 72, 
	 "gaussian": { 
		 "optdone": 1, 
		 "sigma_profile": "yes", 
		 "theory": "DFT", 
		 "functional": "B3LYP", 
		 "basiset": "6-31G**", 
		 "properties": { 
			 "R2extent": 16298.8357, 
			 "electric_dipole_moment_norm": 2.80789000141, 
			 "electric_quadrupole_moment_norm": 25.0308770286, 
			 "total_energy": -1317.04888485, 
			 "HOMO_LUMO_gap": 0.2016, 
			 "cosmo_polarized_energy": -12.37, 
			 "cosmo_cavitation_energy": 71.75, 
			 "cosmo_dispersion_energy": -41.46, 
			 "cosmo_repulsion_energy": 3.24, 
			 "cosmo_total_nonelectrostatic_energy": 33.52, 
			 "SMD_solvation_energy": 11.69 
		},
		"coords": [
			{
				"x": 4.6891967957,
				"y": 0.0667484834,
				"z": -2.5410021673,
				"element": "C" 
			},
			{
				"x": 5.568814546,
				"y": 1.2343643414,
				"z": -2.0734491985,
				"element": "C" 
			},
			{
				"x": 5.9835826392,
				"y": 1.1913639926,
				"z": -0.585767949,
				"element": "C" 
			},
			{
				"x": 5.0430884893,
				"y": 1.9010478597,
				"z": 0.4050333206,
				"element": "C" 
			},
			{
				"x": 3.6290628796,
				"y": 1.3184158059,
				"z": 0.539343074,
				"element": "C" 
			},
			{
				"x": 2.8139005214,
				"y": 2.0004683786,
				"z": 1.6493318287,
				"element": "C" 
			},
			{
				"x": 1.4158788735,
				"y": 1.4049916991,
				"z": 1.8881902299,
				"element": "C" 
			},
			{
				"x": 0.4607681734,
				"y": 1.6209603039,
				"z": 0.717229156,
				"element": "C" 
			},
			{
				"x": -0.8357971897,
				"y": 1.0262012574,
				"z": 0.9718793055,
				"element": "O" 
			},
			{
				"x": -1.72914783,
				"y": 1.7979548877,
				"z": 1.6218975454,
				"element": "C" 
			},
			{
				"x": -1.4733235589,
				"y": 2.8668599293,
				"z": 2.1347997535,
				"element": "O" 
			},
			{
				"x": -3.0684302182,
				"y": 1.1250970946,
				"z": 1.738048779,
				"element": "C" 
			},
			{
				"x": -3.8156073772,
				"y": 0.6625263326,
				"z": 0.6357658797,
				"element": "C" 
			},
			{
				"x": -5.0327411147,
				"y": 0.0047211489,
				"z": 0.8592822383,
				"element": "C" 
			},
			{
				"x": -5.513885632,
				"y": -0.1816206224,
				"z": 2.1539043296,
				"element": "C" 
			},
			{
				"x": -4.78653853,
				"y": 0.3023172872,
				"z": 3.2416358139,
				"element": "C" 
			},
			{
				"x": -3.5734643173,
				"y": 0.9570896154,
				"z": 3.0306117775,
				"element": "C" 
			},
			{
				"x": -3.3751514021,
				"y": 0.9734448307,
				"z": -0.7588252528,
				"element": "C" 
			},
			{
				"x": -2.6112869663,
				"y": 1.8721023236,
				"z": -1.0520660387,
				"element": "O" 
			},
			{
				"x": -3.9610817726,
				"y": 0.1593675643,
				"z": -1.6664863433,
				"element": "O" 
			},
			{
				"x": -3.6268662171,
				"y": 0.3953103645,
				"z": -3.0577281082,
				"element": "C" 
			},
			{
				"x": -2.3839433701,
				"y": -0.3895951558,
				"z": -3.4660683161,
				"element": "C" 
			},
			{
				"x": -2.5630960907,
				"y": -1.9116775706,
				"z": -3.3783729491,
				"element": "C" 
			},
			{
				"x": -1.289400444,
				"y": -2.7167804287,
				"z": -3.6916784414,
				"element": "C" 
			},
			{
				"x": -0.1381424106,
				"y": -2.5629773829,
				"z": -2.6809288843,
				"element": "C" 
			},
			{
				"x": -0.4533556754,
				"y": -3.0849261506,
				"z": -1.271218804,
				"element": "C" 
			},
			{
				"x": 0.7255214243,
				"y": -2.913051145,
				"z": -0.3019779181,
				"element": "C" 
			},
			{
				"x": 0.5127635313,
				"y": -3.4391950049,
				"z": 1.1360836952,
				"element": "C" 
			},
			{
				"x": -0.6751226659,
				"y": -2.7658072263,
				"z": 1.842534088,
				"element": "C" 
			},
			{
				"x": 0.3922946027,
				"y": -4.9704304044,
				"z": 1.1908024793,
				"element": "C" 
			},
			{
				"x": 4.4579652504,
				"y": 0.1519721456,
				"z": -3.6083861319,
				"element": "H" 
			},
			{
				"x": 5.2017264188,
				"y": -0.890302047,
				"z": -2.3896377626,
				"element": "H" 
			},
			{
				"x": 3.7394572563,
				"y": 0.0169204784,
				"z": -2.000785195,
				"element": "H" 
			},
			{
				"x": 6.4765192318,
				"y": 1.2400188627,
				"z": -2.6898936435,
				"element": "H" 
			},
			{
				"x": 5.0636065653,
				"y": 2.1875370579,
				"z": -2.2824348311,
				"element": "H" 
			},
			{
				"x": 6.9708676241,
				"y": 1.6596818715,
				"z": -0.485415717,
				"element": "H" 
			},
			{
				"x": 6.1184876858,
				"y": 0.1448261374,
				"z": -0.276955234,
				"element": "H" 
			},
			{
				"x": 5.5186945404,
				"y": 1.8891684643,
				"z": 1.3958319838,
				"element": "H" 
			},
			{
				"x": 4.9662312914,
				"y": 2.9612009092,
				"z": 0.1234806429,
				"element": "H" 
			},
			{
				"x": 3.6949409807,
				"y": 0.2410598975,
				"z": 0.7499408619,
				"element": "H" 
			},
			{
				"x": 3.1030593829,
				"y": 1.4125900302,
				"z": -0.4180218081,
				"element": "H" 
			},
			{
				"x": 2.7190505309,
				"y": 3.072799792,
				"z": 1.4272399022,
				"element": "H" 
			},
			{
				"x": 3.3781840282,
				"y": 1.9387498023,
				"z": 2.5889011577,
				"element": "H" 
			},
			{
				"x": 1.4979509975,
				"y": 0.3290758549,
				"z": 2.0899250022,
				"element": "H" 
			},
			{
				"x": 0.9720652028,
				"y": 1.8681241513,
				"z": 2.7752884001,
				"element": "H" 
			},
			{
				"x": 0.8070029515,
				"y": 1.1247202355,
				"z": -0.1916837402,
				"element": "H" 
			},
			{
				"x": 0.3232710992,
				"y": 2.6865987309,
				"z": 0.5163427202,
				"element": "H" 
			},
			{
				"x": -5.6035575902,
				"y": -0.3425826456,
				"z": 0.0061405708,
				"element": "H" 
			},
			{
				"x": -6.4600472038,
				"y": -0.6907974355,
				"z": 2.3106288674,
				"element": "H" 
			},
			{
				"x": -5.1615816408,
				"y": 0.1726695568,
				"z": 4.2525002769,
				"element": "H" 
			},
			{
				"x": -3.0004580247,
				"y": 1.3399174676,
				"z": 3.8688230834,
				"element": "H" 
			},
			{
				"x": -4.5105312419,
				"y": 0.0627513396,
				"z": -3.6099182299,
				"element": "H" 
			},
			{
				"x": -3.4823569474,
				"y": 1.467481533,
				"z": -3.2061229527,
				"element": "H" 
			},
			{
				"x": -2.1316355314,
				"y": -0.1030812747,
				"z": -4.4964934939,
				"element": "H" 
			},
			{
				"x": -1.5514406038,
				"y": -0.0524408704,
				"z": -2.839458582,
				"element": "H" 
			},
			{
				"x": -3.3516870385,
				"y": -2.2131478365,
				"z": -4.0815509857,
				"element": "H" 
			},
			{
				"x": -2.9352052089,
				"y": -2.1716579935,
				"z": -2.3810152623,
				"element": "H" 
			},
			{
				"x": -1.5566275249,
				"y": -3.7800456984,
				"z": -3.7594207504,
				"element": "H" 
			},
			{
				"x": -0.9264170155,
				"y": -2.433064068,
				"z": -4.6892840104,
				"element": "H" 
			},
			{
				"x": 0.7378020562,
				"y": -3.099359154,
				"z": -3.0702626101,
				"element": "H" 
			},
			{
				"x": 0.1661496221,
				"y": -1.5093869363,
				"z": -2.6167630232,
				"element": "H" 
			},
			{
				"x": -1.3279677966,
				"y": -2.5591783854,
				"z": -0.8711142259,
				"element": "H" 
			},
			{
				"x": -0.7358390847,
				"y": -4.1442862591,
				"z": -1.3405590812,
				"element": "H" 
			},
			{
				"x": 0.9725615087,
				"y": -1.8433709935,
				"z": -0.2448313318,
				"element": "H" 
			},
			{
				"x": 1.6118636078,
				"y": -3.4059751681,
				"z": -0.7266099737,
				"element": "H" 
			},
			{
				"x": 1.4208896475,
				"y": -3.1674807336,
				"z": 1.6943637502,
				"element": "H" 
			},
			{
				"x": -0.6982191022,
				"y": -3.0340835352,
				"z": 2.9046758415,
				"element": "H" 
			},
			{
				"x": -0.6241871193,
				"y": -1.6741323284,
				"z": 1.769408605,
				"element": "H" 
			},
			{
				"x": -1.6308655265,
				"y": -3.0805059327,
				"z": 1.4084847073,
				"element": "H" 
			},
			{
				"x": 1.2518723149,
				"y": -5.456828726,
				"z": 0.7157496538,
				"element": "H" 
			},
			{
				"x": -0.5128259785,
				"y": -5.3225962214,
				"z": 0.6831691799,
				"element": "H" 
			},
			{
				"x": 0.3409406906,
				"y": -5.3217524842,
				"z": 2.227320446,
				"element": "H" 
			}
		],
		 "valence_orbital": [ 
			{
				"type": "occ",
				"energy": -0.28624,
				"method": "rhf"
			},
			{
				"type": "occ",
				"energy": -0.27788,
				"method": "rhf"
			},
			{
				"type": "occ",
				"energy": -0.27502,
				"method": "rhf"
			},
			{
				"type": "occ",
				"energy": -0.26443,
				"method": "rhf"
			},
			{
				"type": "occ",
				"energy": -0.25451,
				"method": "rhf"
			},
			{
				"type": "unocc",
				"energy": -0.05291,
				"method": "rhf"
			},
			{
				"type": "unocc",
				"energy": -0.02334,
				"method": "rhf"
			},
			{
				"type": "unocc",
				"energy": 0.03175,
				"method": "rhf"
			},
			{
				"type": "unocc",
				"energy": 0.05008,
				"method": "rhf"
			},
			{
				"type": "unocc",
				"energy": 0.05804,
				"method": "rhf"
			}
		],
		"cosmo_sigma_profile": { 
			"-0.025": 0.0,
			"-0.024": 0.0,
			"-0.023": 0.0,
			"-0.022": 0.0,
			"-0.021": 0.0,
			"-0.02": 0.0,
			"-0.019": 0.0,
			"-0.018": 0.0,
			"-0.017": 0.0,
			"-0.016": 0.0,
			"-0.015": 0.0,
			"-0.014": 0.0,
			"-0.013": 0.0,
			"-0.012": 0.0,
			"-0.011": 0.0,
			"-0.01": 0.0,
			"-0.009": 0.0,
			"-0.008": 0.230979010208,
			"-0.007": 5.35366396246,
			"-0.006": 9.70902992763,
			"-0.005": 15.0936839318,
			"-0.004": 18.8197497114,
			"-0.003": 32.2680834873,
			"-0.002": 72.7838834922,
			"-0.001": 98.7817912109,
			"0.0": 101.7178384,
			"0.001": 81.8478002344,
			"0.002": 53.8051393605,
			"0.003": 19.937776473,
			"0.004": 8.14570745465,
			"0.005": 7.49877657561,
			"0.006": 5.42434839402,
			"0.007": 3.48256174722,
			"0.008": 3.96372102023,
			"0.009": 2.95713588782,
			"0.01": 3.77580720085,
			"0.011": 5.8074967753,
			"0.012": 4.22672424453,
			"0.013": 0.380228325489,
			"0.014": 0.0,
			"0.015": 0.0,
			"0.016": 0.0,
			"0.017": 0.0,
			"0.018": 0.0,
			"0.019": 0.0,
			"0.02": 0.0,
			"0.021": 0.0,
			"0.022": 0.0,
			"0.023": 0.0,
			"0.024": 0.0,
			"0.025": 0.0
		}
	}
}
