{
	 "smiles": "CCS(=O)(=O)CCO", 
	 "Tm": 319.15, 
	 "num_atms": 18, 
	 "gaussian": { 
		 "optdone": 1, 
		 "sigma_profile": "yes", 
		 "theory": "DFT", 
		 "functional": "B3LYP", 
		 "basiset": "6-31G**", 
		 "properties": { 
			 "R2extent": 1772.1896, 
			 "electric_dipole_moment_norm": 4.7511829969, 
			 "electric_quadrupole_moment_norm": 17.244875128, 
			 "total_energy": -782.246727037, 
			 "HOMO_LUMO_gap": 0.32486, 
			 "cosmo_polarized_energy": -16.68, 
			 "cosmo_cavitation_energy": 21.72, 
			 "cosmo_dispersion_energy": -16.53, 
			 "cosmo_repulsion_energy": 1.34, 
			 "cosmo_total_nonelectrostatic_energy": 6.53, 
			 "SMD_solvation_energy": 3.38 
		},
		"coords": [
			{
				"x": -0.6455095461,
				"y": 0.5863119695,
				"z": -1.9613995985,
				"element": "C" 
			},
			{
				"x": -1.6959593075,
				"y": 0.058047694,
				"z": -0.9906914179,
				"element": "C" 
			},
			{
				"x": -1.4599654087,
				"y": -1.6869727962,
				"z": -0.5294200405,
				"element": "S" 
			},
			{
				"x": -2.6179429368,
				"y": -2.0840450363,
				"z": 0.2936410009,
				"element": "O" 
			},
			{
				"x": -1.1093333725,
				"y": -2.4462120926,
				"z": -1.7433643633,
				"element": "O" 
			},
			{
				"x": 0.014194897,
				"y": -1.7346213443,
				"z": 0.5523396485,
				"element": "C" 
			},
			{
				"x": -0.2285485742,
				"y": -1.2140035444,
				"z": 1.9577924544,
				"element": "C" 
			},
			{
				"x": -0.3697797762,
				"y": 0.2020820197,
				"z": 1.8941208993,
				"element": "O" 
			},
			{
				"x": -0.9195055425,
				"y": 1.5969082567,
				"z": -2.2793833157,
				"element": "H" 
			},
			{
				"x": 0.342327686,
				"y": 0.6451851005,
				"z": -1.4949672969,
				"element": "H" 
			},
			{
				"x": -0.5771273076,
				"y": -0.050837257,
				"z": -2.845974671,
				"element": "H" 
			},
			{
				"x": -1.7197044835,
				"y": 0.6063994414,
				"z": -0.0470008901,
				"element": "H" 
			},
			{
				"x": -2.6982290689,
				"y": 0.0544010308,
				"z": -1.4307457783,
				"element": "H" 
			},
			{
				"x": 0.2712771709,
				"y": -2.7976898978,
				"z": 0.5674923424,
				"element": "H" 
			},
			{
				"x": 0.8190446175,
				"y": -1.1914173675,
				"z": 0.0501233321,
				"element": "H" 
			},
			{
				"x": 0.6309027854,
				"y": -1.4976013873,
				"z": 2.5849584272,
				"element": "H" 
			},
			{
				"x": -1.1269571983,
				"y": -1.6948036969,
				"z": 2.3652863296,
				"element": "H" 
			},
			{
				"x": -0.7198846341,
				"y": 0.5094689076,
				"z": 2.7390929379,
				"element": "H" 
			}
		],
		 "valence_orbital": [ 
			{
				"type": "occ",
				"energy": -0.31423,
				"method": "rhf"
			},
			{
				"type": "occ",
				"energy": -0.30457,
				"method": "rhf"
			},
			{
				"type": "occ",
				"energy": -0.29379,
				"method": "rhf"
			},
			{
				"type": "occ",
				"energy": -0.28602,
				"method": "rhf"
			},
			{
				"type": "occ",
				"energy": -0.27325,
				"method": "rhf"
			},
			{
				"type": "unocc",
				"energy": 0.05161,
				"method": "rhf"
			},
			{
				"type": "unocc",
				"energy": 0.07147,
				"method": "rhf"
			},
			{
				"type": "unocc",
				"energy": 0.07812,
				"method": "rhf"
			},
			{
				"type": "unocc",
				"energy": 0.08495,
				"method": "rhf"
			},
			{
				"type": "unocc",
				"energy": 0.0889,
				"method": "rhf"
			}
		],
		"cosmo_sigma_profile": { 
			"-0.025": 0.0,
			"-0.024": 0.0,
			"-0.023": 0.0,
			"-0.022": 0.0,
			"-0.021": 0.0,
			"-0.02": 0.0,
			"-0.019": 0.0,
			"-0.018": 0.0,
			"-0.017": 0.235510260088,
			"-0.016": 1.26959632824,
			"-0.015": 0.788996683447,
			"-0.014": 0.942128286101,
			"-0.013": 1.54274469074,
			"-0.012": 0.556226006567,
			"-0.011": 0.333172370521,
			"-0.01": 1.09521245441,
			"-0.009": 1.8375874349,
			"-0.008": 5.43988264515,
			"-0.007": 8.40836989073,
			"-0.006": 9.01731312443,
			"-0.005": 15.6974120816,
			"-0.004": 17.5931747182,
			"-0.003": 14.4382339629,
			"-0.002": 10.7239147464,
			"-0.001": 9.8653714014,
			"0.0": 7.73824692818,
			"0.001": 4.47128404796,
			"0.002": 4.4041833595,
			"0.003": 4.72998632859,
			"0.004": 4.16431404721,
			"0.005": 2.80758788881,
			"0.006": 2.43348407484,
			"0.007": 3.05638065409,
			"0.008": 3.64850088676,
			"0.009": 4.04340334876,
			"0.01": 4.11186695292,
			"0.011": 7.17909487324,
			"0.012": 11.0032015229,
			"0.013": 5.83481743416,
			"0.014": 0.0293329552273,
			"0.015": 0.0,
			"0.016": 0.0,
			"0.017": 0.0,
			"0.018": 0.0,
			"0.019": 0.0,
			"0.02": 0.0,
			"0.021": 0.0,
			"0.022": 0.0,
			"0.023": 0.0,
			"0.024": 0.0,
			"0.025": 0.0
		}
	}
}
