{
	 "smiles": "CCC(=O)C1=CC=C(OCC2=CC=CC=C2)C=C1", 
	 "Tm": 373.15, 
	 "num_atms": 34, 
	 "gaussian": { 
		 "optdone": 1, 
		 "sigma_profile": "yes", 
		 "theory": "DFT", 
		 "functional": "B3LYP", 
		 "basiset": "6-31G**", 
		 "properties": { 
			 "R2extent": 6543.0088, 
			 "electric_dipole_moment_norm": 3.1575034711, 
			 "electric_quadrupole_moment_norm": 18.4287595519, 
			 "total_energy": -769.793460861, 
			 "HOMO_LUMO_gap": 0.18414, 
			 "cosmo_polarized_energy": -11.42, 
			 "cosmo_cavitation_energy": 37.68, 
			 "cosmo_dispersion_energy": -26.56, 
			 "cosmo_repulsion_energy": 2.07, 
			 "cosmo_total_nonelectrostatic_energy": 13.19, 
			 "SMD_solvation_energy": 7.04 
		},
		"coords": [
			{
				"x": -0.1554752949,
				"y": -5.3653492444,
				"z": -0.4017404491,
				"element": "C" 
			},
			{
				"x": -1.015280227,
				"y": -4.7885816179,
				"z": -1.5427029561,
				"element": "C" 
			},
			{
				"x": -1.7225709764,
				"y": -3.5036310694,
				"z": -1.1210045614,
				"element": "C" 
			},
			{
				"x": -2.8760971742,
				"y": -3.5538282085,
				"z": -0.7116590049,
				"element": "O" 
			},
			{
				"x": -0.9892057222,
				"y": -2.2031774294,
				"z": -1.1720797527,
				"element": "C" 
			},
			{
				"x": -1.6495195576,
				"y": -1.0529115361,
				"z": -0.7142000057,
				"element": "C" 
			},
			{
				"x": -1.0376235503,
				"y": 0.1955761772,
				"z": -0.7289208583,
				"element": "C" 
			},
			{
				"x": 0.2732272902,
				"y": 0.3131462506,
				"z": -1.2163549205,
				"element": "C" 
			},
			{
				"x": 0.973847359,
				"y": 1.4799876201,
				"z": -1.2979704252,
				"element": "O" 
			},
			{
				"x": 0.3255596201,
				"y": 2.7149143336,
				"z": -0.9858038305,
				"element": "C" 
			},
			{
				"x": 0.1853274034,
				"y": 2.9850494517,
				"z": 0.4995760071,
				"element": "C" 
			},
			{
				"x": 1.1500824928,
				"y": 2.5286593619,
				"z": 1.4052990458,
				"element": "C" 
			},
			{
				"x": 1.038986987,
				"y": 2.8282065514,
				"z": 2.7631062435,
				"element": "C" 
			},
			{
				"x": -0.0318373507,
				"y": 3.5940580495,
				"z": 3.2297331091,
				"element": "C" 
			},
			{
				"x": -0.9953612063,
				"y": 4.0548745631,
				"z": 2.3313414861,
				"element": "C" 
			},
			{
				"x": -0.888447116,
				"y": 3.7473122922,
				"z": 0.9738549915,
				"element": "C" 
			},
			{
				"x": 0.952540089,
				"y": -0.8275287572,
				"z": -1.6718113621,
				"element": "C" 
			},
			{
				"x": 0.3272036516,
				"y": -2.0661387121,
				"z": -1.6492533343,
				"element": "C" 
			},
			{
				"x": -0.771800767,
				"y": -5.5553616714,
				"z": 0.4820612051,
				"element": "H" 
			},
			{
				"x": 0.6458477924,
				"y": -4.6788059958,
				"z": -0.1115013573,
				"element": "H" 
			},
			{
				"x": 0.3027237336,
				"y": -6.3113728461,
				"z": -0.7059281929,
				"element": "H" 
			},
			{
				"x": -1.8021464759,
				"y": -5.5001117779,
				"z": -1.8067228935,
				"element": "H" 
			},
			{
				"x": -0.3988401006,
				"y": -4.625388378,
				"z": -2.4334519141,
				"element": "H" 
			},
			{
				"x": -2.6614328433,
				"y": -1.1651619647,
				"z": -0.339160263,
				"element": "H" 
			},
			{
				"x": -1.5678405114,
				"y": 1.0574533334,
				"z": -0.3432327677,
				"element": "H" 
			},
			{
				"x": -0.650430099,
				"y": 2.7701001123,
				"z": -1.4847233416,
				"element": "H" 
			},
			{
				"x": 0.9714352612,
				"y": 3.4705074149,
				"z": -1.4459335934,
				"element": "H" 
			},
			{
				"x": 1.9799743,
				"y": 1.930897798,
				"z": 1.0412966255,
				"element": "H" 
			},
			{
				"x": 1.7899338115,
				"y": 2.4634672638,
				"z": 3.4581883522,
				"element": "H" 
			},
			{
				"x": -0.1168219609,
				"y": 3.8262241213,
				"z": 4.2873261408,
				"element": "H" 
			},
			{
				"x": -1.834926862,
				"y": 4.6454860682,
				"z": 2.6866499193,
				"element": "H" 
			},
			{
				"x": -1.6467460499,
				"y": 4.1020053135,
				"z": 0.2789862827,
				"element": "H" 
			},
			{
				"x": 1.9646668307,
				"y": -0.7122947674,
				"z": -2.0453090908,
				"element": "H" 
			},
			{
				"x": 0.8740472232,
				"y": -2.9302821004,
				"z": -2.0118545336,
				"element": "H" 
			}
		],
		 "valence_orbital": [ 
			{
				"type": "occ",
				"energy": -0.25968,
				"method": "rhf"
			},
			{
				"type": "occ",
				"energy": -0.25689,
				"method": "rhf"
			},
			{
				"type": "occ",
				"energy": -0.25051,
				"method": "rhf"
			},
			{
				"type": "occ",
				"energy": -0.23546,
				"method": "rhf"
			},
			{
				"type": "occ",
				"energy": -0.22744,
				"method": "rhf"
			},
			{
				"type": "unocc",
				"energy": -0.0433,
				"method": "rhf"
			},
			{
				"type": "unocc",
				"energy": -0.01369,
				"method": "rhf"
			},
			{
				"type": "unocc",
				"energy": -0.00977,
				"method": "rhf"
			},
			{
				"type": "unocc",
				"energy": -0.004,
				"method": "rhf"
			},
			{
				"type": "unocc",
				"energy": 0.05166,
				"method": "rhf"
			}
		],
		"cosmo_sigma_profile": { 
			"-0.025": 0.0,
			"-0.024": 0.0,
			"-0.023": 0.0,
			"-0.022": 0.0,
			"-0.021": 0.0,
			"-0.02": 0.0,
			"-0.019": 0.0,
			"-0.018": 0.0,
			"-0.017": 0.0,
			"-0.016": 0.0,
			"-0.015": 0.0,
			"-0.014": 0.0,
			"-0.013": 0.0,
			"-0.012": 0.0,
			"-0.011": 0.0,
			"-0.01": 0.0,
			"-0.009": 0.0,
			"-0.008": 0.13594122708,
			"-0.007": 5.55338321743,
			"-0.006": 16.272141632,
			"-0.005": 23.0166739426,
			"-0.004": 27.0808771075,
			"-0.003": 28.2732596593,
			"-0.002": 26.6764184759,
			"-0.001": 25.3651122946,
			"0.0": 24.8550222537,
			"0.001": 19.3488100459,
			"0.002": 18.4387158943,
			"0.003": 23.4597348023,
			"0.004": 21.8775936128,
			"0.005": 11.8359545564,
			"0.006": 7.94408099712,
			"0.007": 2.78129227697,
			"0.008": 2.03237286043,
			"0.009": 2.91349876132,
			"0.01": 1.84545448769,
			"0.011": 2.47655500003,
			"0.012": 3.8396548164,
			"0.013": 2.81651482353,
			"0.014": 0.873942280612,
			"0.015": 0.0,
			"0.016": 0.0,
			"0.017": 0.0,
			"0.018": 0.0,
			"0.019": 0.0,
			"0.02": 0.0,
			"0.021": 0.0,
			"0.022": 0.0,
			"0.023": 0.0,
			"0.024": 0.0,
			"0.025": 0.0
		}
	}
}
