{
	 "smiles": "COC(=O)C1=C(CC(O)=O)C2=C(S1)N=C(NC2=O)C1CC1", 
	 "Tm": 290.15, 
	 "num_atms": 33, 
	 "gaussian": { 
		 "optdone": 1, 
		 "sigma_profile": "yes", 
		 "theory": "DFT", 
		 "functional": "B3LYP", 
		 "basiset": "6-31G**", 
		 "properties": { 
			 "R2extent": 8206.6827, 
			 "electric_dipole_moment_norm": 6.39686289364, 
			 "electric_quadrupole_moment_norm": 27.9884615247, 
			 "total_energy": -1386.44775039, 
			 "HOMO_LUMO_gap": 0.15812, 
			 "cosmo_polarized_energy": -22.66, 
			 "cosmo_cavitation_energy": 39.81, 
			 "cosmo_dispersion_energy": -28.55, 
			 "cosmo_repulsion_energy": 2.18, 
			 "cosmo_total_nonelectrostatic_energy": 13.44, 
			 "SMD_solvation_energy": 7.93 
		},
		"coords": [
			{
				"x": -5.9066902712,
				"y": 1.7798040357,
				"z": 1.5037466542,
				"element": "C" 
			},
			{
				"x": -4.4938304146,
				"y": 1.5287432893,
				"z": 1.4457746113,
				"element": "O" 
			},
			{
				"x": -4.0421396643,
				"y": 1.0205565323,
				"z": 0.2741120501,
				"element": "C" 
			},
			{
				"x": -4.7640347342,
				"y": 0.791403018,
				"z": -0.6799357506,
				"element": "O" 
			},
			{
				"x": -2.5941536398,
				"y": 0.7897079863,
				"z": 0.3081053874,
				"element": "C" 
			},
			{
				"x": -1.8241186457,
				"y": 0.3033235476,
				"z": -0.7293040252,
				"element": "C" 
			},
			{
				"x": -2.3406492047,
				"y": -0.0447326755,
				"z": -2.1009987912,
				"element": "C" 
			},
			{
				"x": -3.1515136431,
				"y": -1.32789615,
				"z": -2.2105041208,
				"element": "C" 
			},
			{
				"x": -3.0495272705,
				"y": -2.1246500737,
				"z": -1.1205917638,
				"element": "O" 
			},
			{
				"x": -3.7917668934,
				"y": -1.6369000749,
				"z": -3.1881295799,
				"element": "O" 
			},
			{
				"x": -0.4519079186,
				"y": 0.1852985544,
				"z": -0.3396431795,
				"element": "C" 
			},
			{
				"x": -0.2104884456,
				"y": 0.5775292962,
				"z": 0.9826221776,
				"element": "C" 
			},
			{
				"x": -1.667686527,
				"y": 1.1040671096,
				"z": 1.769835963,
				"element": "S" 
			},
			{
				"x": 0.9832014093,
				"y": 0.5747418744,
				"z": 1.6294957788,
				"element": "N" 
			},
			{
				"x": 2.0060466953,
				"y": 0.1577746663,
				"z": 0.9252215402,
				"element": "C" 
			},
			{
				"x": 1.880189445,
				"y": -0.244118282,
				"z": -0.3772384696,
				"element": "N" 
			},
			{
				"x": 0.678788595,
				"y": -0.2686471043,
				"z": -1.1284841246,
				"element": "C" 
			},
			{
				"x": 0.7050708631,
				"y": -0.640935198,
				"z": -2.2951194665,
				"element": "O" 
			},
			{
				"x": 3.3585393143,
				"y": 0.1059907255,
				"z": 1.5225913538,
				"element": "C" 
			},
			{
				"x": 3.4958763689,
				"y": -0.2364201829,
				"z": 2.9996528839,
				"element": "C" 
			},
			{
				"x": 3.7499693302,
				"y": 1.1623261231,
				"z": 2.5464888482,
				"element": "C" 
			},
			{
				"x": -6.0937241036,
				"y": 2.1709832653,
				"z": 2.5034613129,
				"element": "H" 
			},
			{
				"x": -6.1985480051,
				"y": 2.5094623874,
				"z": 0.7443504792,
				"element": "H" 
			},
			{
				"x": -6.4679432278,
				"y": 0.8565435209,
				"z": 1.3401197684,
				"element": "H" 
			},
			{
				"x": -2.9904029304,
				"y": 0.7441378044,
				"z": -2.4842611666,
				"element": "H" 
			},
			{
				"x": -1.4929984284,
				"y": -0.1603438463,
				"z": -2.7824594279,
				"element": "H" 
			},
			{
				"x": -3.5891796052,
				"y": -2.9081165906,
				"z": -1.3201995756,
				"element": "H" 
			},
			{
				"x": 2.6949456623,
				"y": -0.5563468935,
				"z": -0.8925928878,
				"element": "H" 
			},
			{
				"x": 4.1410345789,
				"y": -0.2513354334,
				"z": 0.859127905,
				"element": "H" 
			},
			{
				"x": 2.5685506442,
				"y": -0.4324014539,
				"z": 3.5270001344,
				"element": "H" 
			},
			{
				"x": 4.3375922526,
				"y": -0.8612672393,
				"z": 3.2809388681,
				"element": "H" 
			},
			{
				"x": 4.7714623396,
				"y": 1.5271190273,
				"z": 2.5073032615,
				"element": "H" 
			},
			{
				"x": 2.9935360742,
				"y": 1.9070984341,
				"z": 2.7691133515,
				"element": "H" 
			}
		],
		 "valence_orbital": [ 
			{
				"type": "occ",
				"energy": -0.28089,
				"method": "rhf"
			},
			{
				"type": "occ",
				"energy": -0.27326,
				"method": "rhf"
			},
			{
				"type": "occ",
				"energy": -0.26991,
				"method": "rhf"
			},
			{
				"type": "occ",
				"energy": -0.25564,
				"method": "rhf"
			},
			{
				"type": "occ",
				"energy": -0.22562,
				"method": "rhf"
			},
			{
				"type": "unocc",
				"energy": -0.0675,
				"method": "rhf"
			},
			{
				"type": "unocc",
				"energy": -0.02785,
				"method": "rhf"
			},
			{
				"type": "unocc",
				"energy": -0.00642,
				"method": "rhf"
			},
			{
				"type": "unocc",
				"energy": 0.01903,
				"method": "rhf"
			},
			{
				"type": "unocc",
				"energy": 0.027,
				"method": "rhf"
			}
		],
		"cosmo_sigma_profile": { 
			"-0.025": 0.0,
			"-0.024": 0.0,
			"-0.023": 0.0,
			"-0.022": 0.0,
			"-0.021": 0.0,
			"-0.02": 0.0,
			"-0.019": 0.0419537785046,
			"-0.018": 0.648027701579,
			"-0.017": 1.28557913134,
			"-0.016": 2.48245764706,
			"-0.015": 1.9822896746,
			"-0.014": 1.80469490935,
			"-0.013": 2.60815113761,
			"-0.012": 1.01471965768,
			"-0.011": 1.73708375223,
			"-0.01": 2.01627415276,
			"-0.009": 1.58105177696,
			"-0.008": 2.9467065362,
			"-0.007": 5.37335075596,
			"-0.006": 13.1567419774,
			"-0.005": 19.2458726046,
			"-0.004": 22.5081855096,
			"-0.003": 28.0545526788,
			"-0.002": 24.1273742575,
			"-0.001": 24.2089645081,
			"0.0": 25.9277254418,
			"0.001": 24.3089811071,
			"0.002": 21.240299911,
			"0.003": 15.1438680166,
			"0.004": 11.1374901428,
			"0.005": 10.6437339279,
			"0.006": 8.58988117612,
			"0.007": 6.7165068106,
			"0.008": 6.89906574729,
			"0.009": 5.59799849077,
			"0.01": 6.37518141098,
			"0.011": 8.30622252717,
			"0.012": 9.63763871356,
			"0.013": 2.13490841349,
			"0.014": 0.0,
			"0.015": 0.0,
			"0.016": 0.0,
			"0.017": 0.0,
			"0.018": 0.0,
			"0.019": 0.0,
			"0.02": 0.0,
			"0.021": 0.0,
			"0.022": 0.0,
			"0.023": 0.0,
			"0.024": 0.0,
			"0.025": 0.0
		}
	}
}
