{
	 "smiles": "FC1=CC=C(C=C1)N1CCN(CC1)C1=NC=C(C=C1)C#N", 
	 "Tm": 440.15, 
	 "num_atms": 36, 
	 "gaussian": { 
		 "optdone": 1, 
		 "sigma_profile": "yes", 
		 "theory": "DFT", 
		 "functional": "B3LYP", 
		 "basiset": "6-31G**", 
		 "properties": { 
			 "R2extent": 11053.9513, 
			 "electric_dipole_moment_norm": 4.2390378873, 
			 "electric_quadrupole_moment_norm": 55.3145465146, 
			 "total_energy": -937.556608431, 
			 "HOMO_LUMO_gap": 0.15709, 
			 "cosmo_polarized_energy": -16.11, 
			 "cosmo_cavitation_energy": 40.1, 
			 "cosmo_dispersion_energy": -28.72, 
			 "cosmo_repulsion_energy": 2.13, 
			 "cosmo_total_nonelectrostatic_energy": 13.51, 
			 "SMD_solvation_energy": 5.75 
		},
		"coords": [
			{
				"x": 1.2067172749,
				"y": -5.4352058308,
				"z": 3.7960172304,
				"element": "F" 
			},
			{
				"x": 0.8089575447,
				"y": -4.4544511699,
				"z": 2.9525832509,
				"element": "C" 
			},
			{
				"x": -0.2833760353,
				"y": -4.6666674415,
				"z": 2.1232392031,
				"element": "C" 
			},
			{
				"x": -0.6978827932,
				"y": -3.6540033629,
				"z": 1.2591035202,
				"element": "C" 
			},
			{
				"x": -0.0158197905,
				"y": -2.4200018932,
				"z": 1.201711121,
				"element": "C" 
			},
			{
				"x": 1.091250959,
				"y": -2.2416537165,
				"z": 2.0601826638,
				"element": "C" 
			},
			{
				"x": 1.4982664986,
				"y": -3.2488822356,
				"z": 2.9317765791,
				"element": "C" 
			},
			{
				"x": -0.4003943694,
				"y": -1.4025802753,
				"z": 0.3257430182,
				"element": "N" 
			},
			{
				"x": -0.0718081635,
				"y": -0.0092104585,
				"z": 0.6323630379,
				"element": "C" 
			},
			{
				"x": -1.1083299989,
				"y": 0.9456320229,
				"z": 0.0402015819,
				"element": "C" 
			},
			{
				"x": -1.2502673251,
				"y": 0.7254644392,
				"z": -1.3983922179,
				"element": "N" 
			},
			{
				"x": -1.2632249192,
				"y": -0.661637629,
				"z": -1.8558312187,
				"element": "C" 
			},
			{
				"x": -1.4223673848,
				"y": -1.6286804068,
				"z": -0.6803118613,
				"element": "C" 
			},
			{
				"x": -1.2908504307,
				"y": 1.7667825335,
				"z": -2.2860085772,
				"element": "C" 
			},
			{
				"x": -1.3017489191,
				"y": 3.0148928633,
				"z": -1.7671557633,
				"element": "N" 
			},
			{
				"x": -1.3496009191,
				"y": 4.0526697344,
				"z": -2.5925959431,
				"element": "C" 
			},
			{
				"x": -1.3963067254,
				"y": 3.9420487914,
				"z": -3.9918504883,
				"element": "C" 
			},
			{
				"x": -1.3768327144,
				"y": 2.6408809086,
				"z": -4.5324059231,
				"element": "C" 
			},
			{
				"x": -1.3207864595,
				"y": 1.5485654818,
				"z": -3.6905954063,
				"element": "C" 
			},
			{
				"x": -1.4552401296,
				"y": 5.1022929063,
				"z": -4.8199453846,
				"element": "C" 
			},
			{
				"x": -1.5030327951,
				"y": 6.0510783277,
				"z": -5.4935111836,
				"element": "N" 
			},
			{
				"x": -0.813329484,
				"y": -5.6123624838,
				"z": 2.166204777,
				"element": "H" 
			},
			{
				"x": -1.5745874885,
				"y": -3.8285351203,
				"z": 0.6468190416,
				"element": "H" 
			},
			{
				"x": 1.6581985236,
				"y": -1.3183290532,
				"z": 2.0324251008,
				"element": "H" 
			},
			{
				"x": 2.3525731172,
				"y": -3.1080776828,
				"z": 3.5854853027,
				"element": "H" 
			},
			{
				"x": 0.9259360573,
				"y": 0.2585655488,
				"z": 0.252235936,
				"element": "H" 
			},
			{
				"x": -0.0553403467,
				"y": 0.136707121,
				"z": 1.7197938621,
				"element": "H" 
			},
			{
				"x": -2.0746058541,
				"y": 0.8115353593,
				"z": 0.546061896,
				"element": "H" 
			},
			{
				"x": -0.8020875375,
				"y": 1.979256538,
				"z": 0.1950610134,
				"element": "H" 
			},
			{
				"x": -0.3338313789,
				"y": -0.8989289532,
				"z": -2.3943748726,
				"element": "H" 
			},
			{
				"x": -2.0984917649,
				"y": -0.8232887695,
				"z": -2.5493815171,
				"element": "H" 
			},
			{
				"x": -2.446195822,
				"y": -1.555987065,
				"z": -0.2742573279,
				"element": "H" 
			},
			{
				"x": -1.3114905373,
				"y": -2.6401636376,
				"z": -1.080861303,
				"element": "H" 
			},
			{
				"x": -1.3541391988,
				"y": 5.0375059993,
				"z": -2.1295552221,
				"element": "H" 
			},
			{
				"x": -1.4003259782,
				"y": 2.5020558625,
				"z": -5.6085209367,
				"element": "H" 
			},
			{
				"x": -1.2895047116,
				"y": 0.5499127472,
				"z": -4.1062529892,
				"element": "H" 
			}
		],
		 "valence_orbital": [ 
			{
				"type": "occ",
				"energy": -0.28415,
				"method": "rhf"
			},
			{
				"type": "occ",
				"energy": -0.27512,
				"method": "rhf"
			},
			{
				"type": "occ",
				"energy": -0.26064,
				"method": "rhf"
			},
			{
				"type": "occ",
				"energy": -0.22198,
				"method": "rhf"
			},
			{
				"type": "occ",
				"energy": -0.19849,
				"method": "rhf"
			},
			{
				"type": "unocc",
				"energy": -0.0414,
				"method": "rhf"
			},
			{
				"type": "unocc",
				"energy": -0.03471,
				"method": "rhf"
			},
			{
				"type": "unocc",
				"energy": -0.01282,
				"method": "rhf"
			},
			{
				"type": "unocc",
				"energy": 0.01417,
				"method": "rhf"
			},
			{
				"type": "unocc",
				"energy": 0.03874,
				"method": "rhf"
			}
		],
		"cosmo_sigma_profile": { 
			"-0.025": 0.0,
			"-0.024": 0.0,
			"-0.023": 0.0,
			"-0.022": 0.0,
			"-0.021": 0.0,
			"-0.02": 0.0,
			"-0.019": 0.0,
			"-0.018": 0.0,
			"-0.017": 0.0,
			"-0.016": 0.0,
			"-0.015": 0.0,
			"-0.014": 0.0,
			"-0.013": 0.0,
			"-0.012": 0.0,
			"-0.011": 0.0,
			"-0.01": 0.0,
			"-0.009": 0.218290730849,
			"-0.008": 3.65251802461,
			"-0.007": 9.92639209686,
			"-0.006": 19.1594908906,
			"-0.005": 30.4724643712,
			"-0.004": 37.1245977216,
			"-0.003": 24.1051159551,
			"-0.002": 17.6590675086,
			"-0.001": 16.9060632212,
			"0.0": 21.1688858478,
			"0.001": 22.8922702895,
			"0.002": 20.3847132957,
			"0.003": 17.8511933734,
			"0.004": 16.9605463846,
			"0.005": 24.3676052651,
			"0.006": 10.7084448286,
			"0.007": 4.26036032991,
			"0.008": 4.48276382839,
			"0.009": 4.13934313187,
			"0.01": 4.238449736,
			"0.011": 4.33739502158,
			"0.012": 2.70040370646,
			"0.013": 2.35151189035,
			"0.014": 0.7252237871,
			"0.015": 0.0,
			"0.016": 0.0,
			"0.017": 0.0,
			"0.018": 0.0,
			"0.019": 0.0,
			"0.02": 0.0,
			"0.021": 0.0,
			"0.022": 0.0,
			"0.023": 0.0,
			"0.024": 0.0,
			"0.025": 0.0
		}
	}
}
