{
	 "smiles": "COC1=CC=C(CC(=O)NCCC2=CC=C(OCC3=CC=CC=C3)C(OC)=C2)C=C1OCC1=CC=CC=C1", 
	 "Tm": 413.15, 
	 "num_atms": 71, 
	 "gaussian": { 
		 "optdone": 1, 
		 "sigma_profile": "yes", 
		 "theory": "DFT", 
		 "functional": "B3LYP", 
		 "basiset": "6-31G**", 
		 "properties": { 
			 "R2extent": 31349.3506, 
			 "electric_dipole_moment_norm": 3.36317808479, 
			 "electric_quadrupole_moment_norm": 31.4721833569, 
			 "total_energy": -1670.13361125, 
			 "HOMO_LUMO_gap": 0.20652, 
			 "cosmo_polarized_energy": -25.08, 
			 "cosmo_cavitation_energy": 75.91, 
			 "cosmo_dispersion_energy": -48.3, 
			 "cosmo_repulsion_energy": 3.71, 
			 "cosmo_total_nonelectrostatic_energy": 31.32, 
			 "SMD_solvation_energy": 13.66 
		},
		"coords": [
			{
				"x": 2.0795052609,
				"y": -5.129412759,
				"z": 2.1415711412,
				"element": "C" 
			},
			{
				"x": 0.8737962289,
				"y": -5.7387826894,
				"z": 1.6670168261,
				"element": "O" 
			},
			{
				"x": -0.230451092,
				"y": -4.911993832,
				"z": 1.6811500868,
				"element": "C" 
			},
			{
				"x": -1.2531884216,
				"y": -5.1551544114,
				"z": 2.5999635102,
				"element": "C" 
			},
			{
				"x": -2.3958042025,
				"y": -4.3578677848,
				"z": 2.6221829837,
				"element": "C" 
			},
			{
				"x": -2.5318658059,
				"y": -3.2905974141,
				"z": 1.7238367267,
				"element": "C" 
			},
			{
				"x": -3.7823030584,
				"y": -2.424312918,
				"z": 1.7404865052,
				"element": "C" 
			},
			{
				"x": -4.0893684354,
				"y": -1.8837161724,
				"z": 3.1397169135,
				"element": "C" 
			},
			{
				"x": -4.8119128554,
				"y": -2.5044776275,
				"z": 3.9128766584,
				"element": "O" 
			},
			{
				"x": -3.4982457355,
				"y": -0.7080702768,
				"z": 3.518960243,
				"element": "N" 
			},
			{
				"x": -2.6354565041,
				"y": 0.1749174465,
				"z": 2.7493831295,
				"element": "C" 
			},
			{
				"x": -3.3926758485,
				"y": 1.3206789416,
				"z": 2.0386499681,
				"element": "C" 
			},
			{
				"x": -2.4603678867,
				"y": 2.2376479934,
				"z": 1.2776507221,
				"element": "C" 
			},
			{
				"x": -2.1588826708,
				"y": 2.0038686327,
				"z": -0.065428168,
				"element": "C" 
			},
			{
				"x": -1.2539745805,
				"y": 2.8274290917,
				"z": -0.7408434297,
				"element": "C" 
			},
			{
				"x": -0.643854976,
				"y": 3.8969683893,
				"z": -0.0955690026,
				"element": "C" 
			},
			{
				"x": 0.1813012642,
				"y": 4.7368158845,
				"z": -0.8035170192,
				"element": "O" 
			},
			{
				"x": 1.5812655394,
				"y": 4.663855785,
				"z": -0.4766347883,
				"element": "C" 
			},
			{
				"x": 2.2748455655,
				"y": 5.8892413461,
				"z": -1.0164803497,
				"element": "C" 
			},
			{
				"x": 3.4826812014,
				"y": 5.7806739504,
				"z": -1.7121361086,
				"element": "C" 
			},
			{
				"x": 4.1454024874,
				"y": 6.9228967005,
				"z": -2.1677960455,
				"element": "C" 
			},
			{
				"x": 3.5967629683,
				"y": 8.1850858922,
				"z": -1.9403011775,
				"element": "C" 
			},
			{
				"x": 2.3848203847,
				"y": 8.3000330136,
				"z": -1.2530640577,
				"element": "C" 
			},
			{
				"x": 1.7295276498,
				"y": 7.1602201154,
				"z": -0.7905245773,
				"element": "C" 
			},
			{
				"x": -0.9506418449,
				"y": 4.153808796,
				"z": 1.2605039891,
				"element": "C" 
			},
			{
				"x": -0.3316124395,
				"y": 5.2388679215,
				"z": 1.8143356576,
				"element": "O" 
			},
			{
				"x": -0.6204590451,
				"y": 5.5602781954,
				"z": 3.166152891,
				"element": "C" 
			},
			{
				"x": -1.8470237906,
				"y": 3.3198424032,
				"z": 1.9317993257,
				"element": "C" 
			},
			{
				"x": -1.5106937911,
				"y": -3.0562356931,
				"z": 0.7965652025,
				"element": "C" 
			},
			{
				"x": -0.3676375265,
				"y": -3.8576513552,
				"z": 0.7610934968,
				"element": "C" 
			},
			{
				"x": 0.6308733104,
				"y": -3.5632814506,
				"z": -0.1437170496,
				"element": "O" 
			},
			{
				"x": 0.8217836155,
				"y": -4.5344379493,
				"z": -1.2006777883,
				"element": "C" 
			},
			{
				"x": -0.2656310483,
				"y": -4.474551302,
				"z": -2.2480618011,
				"element": "C" 
			},
			{
				"x": -1.1124253407,
				"y": -5.5657731966,
				"z": -2.4677712607,
				"element": "C" 
			},
			{
				"x": -2.1143531159,
				"y": -5.5056562927,
				"z": -3.4397310899,
				"element": "C" 
			},
			{
				"x": -2.2828102857,
				"y": -4.3465680135,
				"z": -4.1969965658,
				"element": "C" 
			},
			{
				"x": -1.4456622787,
				"y": -3.2476392097,
				"z": -3.9803939369,
				"element": "C" 
			},
			{
				"x": -0.4441758952,
				"y": -3.3131242786,
				"z": -3.0136278039,
				"element": "C" 
			},
			{
				"x": 1.9749056825,
				"y": -4.8274045863,
				"z": 3.1914750888,
				"element": "H" 
			},
			{
				"x": 2.3498414701,
				"y": -4.2573296906,
				"z": 1.5376266751,
				"element": "H" 
			},
			{
				"x": 2.8599352142,
				"y": -5.8892540821,
				"z": 2.0619438063,
				"element": "H" 
			},
			{
				"x": -1.1315359866,
				"y": -5.9804657807,
				"z": 3.294830375,
				"element": "H" 
			},
			{
				"x": -3.1828317405,
				"y": -4.5478068864,
				"z": 3.3454620617,
				"element": "H" 
			},
			{
				"x": -3.6906484186,
				"y": -1.6220313527,
				"z": 1.0029540449,
				"element": "H" 
			},
			{
				"x": -4.6565082027,
				"y": -3.0230951265,
				"z": 1.4684116551,
				"element": "H" 
			},
			{
				"x": -3.7584283573,
				"y": -0.4248267166,
				"z": 4.4551787471,
				"element": "H" 
			},
			{
				"x": -2.0740425014,
				"y": -0.4134535229,
				"z": 2.0199861819,
				"element": "H" 
			},
			{
				"x": -1.8899260589,
				"y": 0.6017881263,
				"z": 3.4297070824,
				"element": "H" 
			},
			{
				"x": -4.1324694817,
				"y": 0.884034253,
				"z": 1.3579950136,
				"element": "H" 
			},
			{
				"x": -3.9559247084,
				"y": 1.886382037,
				"z": 2.7907850107,
				"element": "H" 
			},
			{
				"x": -2.6328144383,
				"y": 1.1799569419,
				"z": -0.5922811557,
				"element": "H" 
			},
			{
				"x": -1.0176782207,
				"y": 2.6643250721,
				"z": -1.7876495995,
				"element": "H" 
			},
			{
				"x": 2.0122862158,
				"y": 3.7502016255,
				"z": -0.9090845675,
				"element": "H" 
			},
			{
				"x": 1.697103225,
				"y": 4.6116466894,
				"z": 0.6126573165,
				"element": "H" 
			},
			{
				"x": 3.9068704005,
				"y": 4.797470078,
				"z": -1.9020279056,
				"element": "H" 
			},
			{
				"x": 5.0831268153,
				"y": 6.8244851653,
				"z": -2.7075196069,
				"element": "H" 
			},
			{
				"x": 4.1068294736,
				"y": 9.0745230157,
				"z": -2.2994161337,
				"element": "H" 
			},
			{
				"x": 1.9512731273,
				"y": 9.2807912914,
				"z": -1.0774416708,
				"element": "H" 
			},
			{
				"x": 0.7859579342,
				"y": 7.2390203377,
				"z": -0.2599736523,
				"element": "H" 
			},
			{
				"x": -1.6856166628,
				"y": 5.7822596826,
				"z": 3.3087115742,
				"element": "H" 
			},
			{
				"x": -0.3283755364,
				"y": 4.7503853381,
				"z": 3.8470512859,
				"element": "H" 
			},
			{
				"x": -0.0336825111,
				"y": 6.4509465033,
				"z": 3.3951838811,
				"element": "H" 
			},
			{
				"x": -2.0938402697,
				"y": 3.5131805262,
				"z": 2.9703319545,
				"element": "H" 
			},
			{
				"x": -1.5879366004,
				"y": -2.2543561882,
				"z": 0.0682081433,
				"element": "H" 
			},
			{
				"x": 0.9011392738,
				"y": -5.5379275004,
				"z": -0.7719248392,
				"element": "H" 
			},
			{
				"x": 1.7901458212,
				"y": -4.2651936521,
				"z": -1.633527993,
				"element": "H" 
			},
			{
				"x": -0.9867471523,
				"y": -6.4677598832,
				"z": -1.8741103052,
				"element": "H" 
			},
			{
				"x": -2.763691942,
				"y": -6.3615334947,
				"z": -3.6006719053,
				"element": "H" 
			},
			{
				"x": -3.0613173179,
				"y": -4.297296867,
				"z": -4.9530561749,
				"element": "H" 
			},
			{
				"x": -1.572140817,
				"y": -2.343535462,
				"z": -4.569576973,
				"element": "H" 
			},
			{
				"x": 0.20605527,
				"y": -2.4587517633,
				"z": -2.8433613721,
				"element": "H" 
			}
		],
		 "valence_orbital": [ 
			{
				"type": "occ",
				"energy": -0.24168,
				"method": "rhf"
			},
			{
				"type": "occ",
				"energy": -0.23896,
				"method": "rhf"
			},
			{
				"type": "occ",
				"energy": -0.23808,
				"method": "rhf"
			},
			{
				"type": "occ",
				"energy": -0.22027,
				"method": "rhf"
			},
			{
				"type": "occ",
				"energy": -0.21685,
				"method": "rhf"
			},
			{
				"type": "unocc",
				"energy": -0.01033,
				"method": "rhf"
			},
			{
				"type": "unocc",
				"energy": -0.00585,
				"method": "rhf"
			},
			{
				"type": "unocc",
				"energy": -0.0037,
				"method": "rhf"
			},
			{
				"type": "unocc",
				"energy": -0.00128,
				"method": "rhf"
			},
			{
				"type": "unocc",
				"energy": 0.00125,
				"method": "rhf"
			}
		],
		"cosmo_sigma_profile": { 
			"-0.025": 0.0,
			"-0.024": 0.0,
			"-0.023": 0.0,
			"-0.022": 0.0,
			"-0.021": 0.0,
			"-0.02": 0.0,
			"-0.019": 0.0,
			"-0.018": 0.0,
			"-0.017": 0.0,
			"-0.016": 0.0,
			"-0.015": 0.0,
			"-0.014": 0.13396352672,
			"-0.013": 0.915817098029,
			"-0.012": 1.13172514838,
			"-0.011": 1.03883030181,
			"-0.01": 1.26646294346,
			"-0.009": 0.842458720402,
			"-0.008": 1.40571500592,
			"-0.007": 2.42355692871,
			"-0.006": 25.2410341874,
			"-0.005": 59.2424960268,
			"-0.004": 62.4766155307,
			"-0.003": 65.3027344357,
			"-0.002": 51.0228363734,
			"-0.001": 40.0047633426,
			"0.0": 36.2402204153,
			"0.001": 34.2907430184,
			"0.002": 37.2653824741,
			"0.003": 38.0994586933,
			"0.004": 42.1582318942,
			"0.005": 40.8918192044,
			"0.006": 22.0533116304,
			"0.007": 7.70133512665,
			"0.008": 5.48730584858,
			"0.009": 3.85692796869,
			"0.01": 4.43369051232,
			"0.011": 4.35394821413,
			"0.012": 2.7159149771,
			"0.013": 2.88391208947,
			"0.014": 5.4132949878,
			"0.015": 1.74913173291,
			"0.016": 0.00992879820378,
			"0.017": 0.0,
			"0.018": 0.0,
			"0.019": 0.0,
			"0.02": 0.0,
			"0.021": 0.0,
			"0.022": 0.0,
			"0.023": 0.0,
			"0.024": 0.0,
			"0.025": 0.0
		}
	}
}
