{
	 "smiles": "CC1=NN=NN1C1=C(C)C=CC(N)=C1", 
	 "Tm": 413.15, 
	 "num_atms": 25, 
	 "gaussian": { 
		 "optdone": 1, 
		 "sigma_profile": "yes", 
		 "theory": "DFT", 
		 "functional": "B3LYP", 
		 "basiset": "6-31G**", 
		 "properties": { 
			 "R2extent": 3166.1147, 
			 "electric_dipole_moment_norm": 6.83899253472, 
			 "electric_quadrupole_moment_norm": 24.6472824405, 
			 "total_energy": -623.305988165, 
			 "HOMO_LUMO_gap": 0.1872, 
			 "cosmo_polarized_energy": -18.48, 
			 "cosmo_cavitation_energy": 29.27, 
			 "cosmo_dispersion_energy": -20.49, 
			 "cosmo_repulsion_energy": 1.61, 
			 "cosmo_total_nonelectrostatic_energy": 10.39, 
			 "SMD_solvation_energy": 3.46 
		},
		"coords": [
			{
				"x": 0.8788182711,
				"y": -2.1772328099,
				"z": 1.7164480528,
				"element": "C" 
			},
			{
				"x": -0.5956349836,
				"y": -1.9875823359,
				"z": 1.8238911109,
				"element": "C" 
			},
			{
				"x": -1.3884099743,
				"y": -2.5401896703,
				"z": 2.7247973154,
				"element": "N" 
			},
			{
				"x": -2.641308644,
				"y": -2.0787964348,
				"z": 2.4650661877,
				"element": "N" 
			},
			{
				"x": -2.6468598449,
				"y": -1.2755979237,
				"z": 1.4558017688,
				"element": "N" 
			},
			{
				"x": -1.3554668375,
				"y": -1.197295882,
				"z": 1.0220349489,
				"element": "N" 
			},
			{
				"x": -0.9798505658,
				"y": -0.3818227848,
				"z": -0.0947370141,
				"element": "C" 
			},
			{
				"x": -1.0550253827,
				"y": 1.0160079884,
				"z": 0.0122118792,
				"element": "C" 
			},
			{
				"x": -1.5311003059,
				"y": 1.7039902662,
				"z": 1.2679250757,
				"element": "C" 
			},
			{
				"x": -0.664052939,
				"y": 1.739681925,
				"z": -1.1214150975,
				"element": "C" 
			},
			{
				"x": -0.2213396645,
				"y": 1.1213931267,
				"z": -2.2868397458,
				"element": "C" 
			},
			{
				"x": -0.155263314,
				"y": -0.2789757657,
				"z": -2.3745022487,
				"element": "C" 
			},
			{
				"x": 0.3328457336,
				"y": -0.9094938604,
				"z": -3.5179526156,
				"element": "N" 
			},
			{
				"x": -0.547823941,
				"y": -1.0258598743,
				"z": -1.2533815005,
				"element": "C" 
			},
			{
				"x": 1.4026458785,
				"y": -1.2165694576,
				"z": 1.703575739,
				"element": "H" 
			},
			{
				"x": 1.2165142272,
				"y": -2.757770885,
				"z": 2.5757565027,
				"element": "H" 
			},
			{
				"x": 1.1513200463,
				"y": -2.7134594651,
				"z": 0.8021796312,
				"element": "H" 
			},
			{
				"x": -0.9423884054,
				"y": 1.4046111257,
				"z": 2.142650822,
				"element": "H" 
			},
			{
				"x": -2.5738570662,
				"y": 1.4574183809,
				"z": 1.489343419,
				"element": "H" 
			},
			{
				"x": -1.4478844958,
				"y": 2.7888196008,
				"z": 1.164227654,
				"element": "H" 
			},
			{
				"x": -0.7072338533,
				"y": 2.8249827373,
				"z": -1.0873072464,
				"element": "H" 
			},
			{
				"x": 0.0772820155,
				"y": 1.7261993209,
				"z": -3.1392356639,
				"element": "H" 
			},
			{
				"x": 0.2644220248,
				"y": -0.3696035504,
				"z": -4.369522296,
				"element": "H" 
			},
			{
				"x": 0.027600819,
				"y": -1.8636811951,
				"z": -3.651452104,
				"element": "H" 
			},
			{
				"x": -0.533548798,
				"y": -2.1114725769,
				"z": -1.2848645752,
				"element": "H" 
			}
		],
		 "valence_orbital": [ 
			{
				"type": "occ",
				"energy": -0.28413,
				"method": "rhf"
			},
			{
				"type": "occ",
				"energy": -0.28237,
				"method": "rhf"
			},
			{
				"type": "occ",
				"energy": -0.2792,
				"method": "rhf"
			},
			{
				"type": "occ",
				"energy": -0.25793,
				"method": "rhf"
			},
			{
				"type": "occ",
				"energy": -0.21681,
				"method": "rhf"
			},
			{
				"type": "unocc",
				"energy": -0.02961,
				"method": "rhf"
			},
			{
				"type": "unocc",
				"energy": -0.00346,
				"method": "rhf"
			},
			{
				"type": "unocc",
				"energy": 0.00297,
				"method": "rhf"
			},
			{
				"type": "unocc",
				"energy": 0.03532,
				"method": "rhf"
			},
			{
				"type": "unocc",
				"energy": 0.06618,
				"method": "rhf"
			}
		],
		"cosmo_sigma_profile": { 
			"-0.025": 0.0,
			"-0.024": 0.0,
			"-0.023": 0.0,
			"-0.022": 0.0,
			"-0.021": 0.0,
			"-0.02": 0.0,
			"-0.019": 0.0,
			"-0.018": 0.0,
			"-0.017": 0.0,
			"-0.016": 0.0,
			"-0.015": 0.0,
			"-0.014": 0.0,
			"-0.013": 1.15047341347,
			"-0.012": 3.10432347963,
			"-0.011": 2.84941484018,
			"-0.01": 3.48133706388,
			"-0.009": 3.18124908526,
			"-0.008": 3.57354956678,
			"-0.007": 8.62340130128,
			"-0.006": 13.3570688529,
			"-0.005": 16.2022004087,
			"-0.004": 19.4189528422,
			"-0.003": 16.831945683,
			"-0.002": 18.0187684064,
			"-0.001": 12.5761003186,
			"0.0": 15.7710545483,
			"0.001": 10.8672580826,
			"0.002": 9.16028186552,
			"0.003": 9.40730874645,
			"0.004": 13.2868394428,
			"0.005": 10.3725339406,
			"0.006": 4.19727800171,
			"0.007": 4.25089894264,
			"0.008": 5.24039888116,
			"0.009": 5.54713420807,
			"0.01": 5.7233287126,
			"0.011": 4.81750822197,
			"0.012": 4.57355175586,
			"0.013": 3.22174907726,
			"0.014": 2.45867717613,
			"0.015": 1.00921368668,
			"0.016": 0.26605253237,
			"0.017": 0.0,
			"0.018": 0.0,
			"0.019": 0.0,
			"0.02": 0.0,
			"0.021": 0.0,
			"0.022": 0.0,
			"0.023": 0.0,
			"0.024": 0.0,
			"0.025": 0.0
		}
	}
}
