{
	 "smiles": "COC(=O)C1=CC=C(N)C(Cl)=C1", 
	 "Tm": 386.15, 
	 "num_atms": 20, 
	 "gaussian": { 
		 "optdone": 1, 
		 "sigma_profile": "yes", 
		 "theory": "DFT", 
		 "functional": "B3LYP", 
		 "basiset": "6-31G**", 
		 "properties": { 
			 "R2extent": 3286.3343, 
			 "electric_dipole_moment_norm": 3.95102618569, 
			 "electric_quadrupole_moment_norm": 14.4389116958, 
			 "total_energy": -975.083651968, 
			 "HOMO_LUMO_gap": 0.18268, 
			 "cosmo_polarized_energy": -11.85, 
			 "cosmo_cavitation_energy": 26.26, 
			 "cosmo_dispersion_energy": -19.65, 
			 "cosmo_repulsion_energy": 1.57, 
			 "cosmo_total_nonelectrostatic_energy": 8.18, 
			 "SMD_solvation_energy": 5.78 
		},
		"coords": [
			{
				"x": -0.2313152476,
				"y": -3.7357265536,
				"z": 1.6043966926,
				"element": "C" 
			},
			{
				"x": -0.2627284902,
				"y": -2.5723812763,
				"z": 0.7657199303,
				"element": "O" 
			},
			{
				"x": 0.7475296638,
				"y": -1.6903202138,
				"z": 0.9685059975,
				"element": "C" 
			},
			{
				"x": 1.6206979301,
				"y": -1.86611397,
				"z": 1.7981494228,
				"element": "O" 
			},
			{
				"x": 0.6571594276,
				"y": -0.5128363148,
				"z": 0.0736166362,
				"element": "C" 
			},
			{
				"x": -0.3635560073,
				"y": -0.3438318564,
				"z": -0.8744148429,
				"element": "C" 
			},
			{
				"x": -0.3929231333,
				"y": 0.7801601221,
				"z": -1.6847240031,
				"element": "C" 
			},
			{
				"x": 0.5921546277,
				"y": 1.7853596323,
				"z": -1.5840751775,
				"element": "C" 
			},
			{
				"x": 0.5303241294,
				"y": 2.9212386895,
				"z": -2.3570638089,
				"element": "N" 
			},
			{
				"x": 1.6114553689,
				"y": 1.592315662,
				"z": -0.6244284516,
				"element": "C" 
			},
			{
				"x": 2.8753514045,
				"y": 2.8140594203,
				"z": -0.4697562127,
				"element": "Cl" 
			},
			{
				"x": 1.6474814886,
				"y": 0.4721570981,
				"z": 0.1879017098,
				"element": "C" 
			},
			{
				"x": -0.2913918483,
				"y": -3.4539691375,
				"z": 2.6587832016,
				"element": "H" 
			},
			{
				"x": 0.6899235552,
				"y": -4.3021932612,
				"z": 1.4455998374,
				"element": "H" 
			},
			{
				"x": -1.099421478,
				"y": -4.3296104853,
				"z": 1.3174287023,
				"element": "H" 
			},
			{
				"x": -1.1326578493,
				"y": -1.1010970945,
				"z": -0.9717309958,
				"element": "H" 
			},
			{
				"x": -1.1899276799,
				"y": 0.9050099217,
				"z": -2.4130040047,
				"element": "H" 
			},
			{
				"x": -0.0302528865,
				"y": 2.878437374,
				"z": -3.1939859207,
				"element": "H" 
			},
			{
				"x": 1.3694197831,
				"y": 3.4772862934,
				"z": -2.4293088027,
				"element": "H" 
			},
			{
				"x": 2.4394772413,
				"y": 0.34215595,
				"z": 0.91629009,
				"element": "H" 
			}
		],
		 "valence_orbital": [ 
			{
				"type": "occ",
				"energy": -0.3202,
				"method": "rhf"
			},
			{
				"type": "occ",
				"energy": -0.29612,
				"method": "rhf"
			},
			{
				"type": "occ",
				"energy": -0.26814,
				"method": "rhf"
			},
			{
				"type": "occ",
				"energy": -0.25425,
				"method": "rhf"
			},
			{
				"type": "occ",
				"energy": -0.21793,
				"method": "rhf"
			},
			{
				"type": "unocc",
				"energy": -0.03525,
				"method": "rhf"
			},
			{
				"type": "unocc",
				"energy": -0.01233,
				"method": "rhf"
			},
			{
				"type": "unocc",
				"energy": 0.02751,
				"method": "rhf"
			},
			{
				"type": "unocc",
				"energy": 0.06271,
				"method": "rhf"
			},
			{
				"type": "unocc",
				"energy": 0.07783,
				"method": "rhf"
			}
		],
		"cosmo_sigma_profile": { 
			"-0.025": 0.0,
			"-0.024": 0.0,
			"-0.023": 0.0,
			"-0.022": 0.0,
			"-0.021": 0.0,
			"-0.02": 0.0,
			"-0.019": 0.0,
			"-0.018": 0.0,
			"-0.017": 0.0,
			"-0.016": 0.0,
			"-0.015": 0.0354657855368,
			"-0.014": 0.972690258524,
			"-0.013": 1.73341183409,
			"-0.012": 2.62963485698,
			"-0.011": 1.78876603156,
			"-0.01": 3.19035433875,
			"-0.009": 2.70780925021,
			"-0.008": 2.19321233196,
			"-0.007": 3.61541575338,
			"-0.006": 8.85699109072,
			"-0.005": 12.0946207013,
			"-0.004": 13.1511619049,
			"-0.003": 13.8042978633,
			"-0.002": 12.6312766335,
			"-0.001": 12.1301148511,
			"0.0": 14.0169998205,
			"0.001": 18.1583686447,
			"0.002": 20.5318314287,
			"0.003": 22.6050062785,
			"0.004": 15.0885329777,
			"0.005": 7.49966922762,
			"0.006": 4.57071609256,
			"0.007": 2.22965991004,
			"0.008": 2.7514424991,
			"0.009": 1.8987443813,
			"0.01": 1.82245231921,
			"0.011": 2.88812774873,
			"0.012": 4.47052961888,
			"0.013": 1.52650249265,
			"0.014": 0.0,
			"0.015": 0.0,
			"0.016": 0.0,
			"0.017": 0.0,
			"0.018": 0.0,
			"0.019": 0.0,
			"0.02": 0.0,
			"0.021": 0.0,
			"0.022": 0.0,
			"0.023": 0.0,
			"0.024": 0.0,
			"0.025": 0.0
		}
	}
}
