{
	 "smiles": "OC(=O)C(=O)NC1=C(C=C(Br)C=C1)C(F)(F)F", 
	 "Tm": 390.15, 
	 "num_atms": 22, 
	 "gaussian": { 
		 "optdone": 1, 
		 "sigma_profile": "yes", 
		 "theory": "DFT", 
		 "functional": "B3LYP", 
		 "basiset": "6-31G**", 
		 "properties": { 
			 "R2extent": 7738.6627, 
			 "electric_dipole_moment_norm": 2.64324174263, 
			 "electric_quadrupole_moment_norm": 9.47069792729, 
			 "total_energy": -3497.35218732, 
			 "HOMO_LUMO_gap": 0.16664, 
			 "cosmo_polarized_energy": -10.02, 
			 "cosmo_cavitation_energy": 31.26, 
			 "cosmo_dispersion_energy": -22.63, 
			 "cosmo_repulsion_energy": 1.68, 
			 "cosmo_total_nonelectrostatic_energy": 10.32, 
			 "SMD_solvation_energy": 7.22 
		},
		"coords": [
			{
				"x": 2.4091540149,
				"y": 3.0210937513,
				"z": 1.2253266835,
				"element": "O" 
			},
			{
				"x": 2.1940242827,
				"y": 1.7112482362,
				"z": 1.155185799,
				"element": "C" 
			},
			{
				"x": 3.0130729602,
				"y": 0.8542021537,
				"z": 1.3942623961,
				"element": "O" 
			},
			{
				"x": 0.7461599344,
				"y": 1.3945942825,
				"z": 0.7265281521,
				"element": "C" 
			},
			{
				"x": -0.031944562,
				"y": 2.3231845335,
				"z": 0.5122383036,
				"element": "O" 
			},
			{
				"x": 0.5219019575,
				"y": 0.0623946389,
				"z": 0.6418726545,
				"element": "N" 
			},
			{
				"x": -0.6674975394,
				"y": -0.6035100144,
				"z": 0.2921729108,
				"element": "C" 
			},
			{
				"x": -0.6608717995,
				"y": -2.0086741859,
				"z": 0.1406042392,
				"element": "C" 
			},
			{
				"x": -1.8350420962,
				"y": -2.6845708399,
				"z": -0.1881430206,
				"element": "C" 
			},
			{
				"x": -3.0179613342,
				"y": -1.9746593121,
				"z": -0.3705148463,
				"element": "C" 
			},
			{
				"x": -4.6164547713,
				"y": -2.9094336405,
				"z": -0.8164174538,
				"element": "Br" 
			},
			{
				"x": -3.0362758931,
				"y": -0.5894430872,
				"z": -0.2322036633,
				"element": "C" 
			},
			{
				"x": -1.868963172,
				"y": 0.0939145628,
				"z": 0.0980668293,
				"element": "C" 
			},
			{
				"x": 0.6158892226,
				"y": -2.7976568995,
				"z": 0.2837353811,
				"element": "C" 
			},
			{
				"x": 0.4152114659,
				"y": -4.122461304,
				"z": 0.2036821333,
				"element": "F" 
			},
			{
				"x": 1.220587736,
				"y": -2.5509770093,
				"z": 1.478173836,
				"element": "F" 
			},
			{
				"x": 1.5145653587,
				"y": -2.4592383033,
				"z": -0.6690832179,
				"element": "F" 
			},
			{
				"x": 1.5605002912,
				"y": 3.4464045494,
				"z": 0.9786864638,
				"element": "H" 
			},
			{
				"x": 1.3380347248,
				"y": -0.4900644192,
				"z": 0.8918310247,
				"element": "H" 
			},
			{
				"x": -1.8179513293,
				"y": -3.7604819436,
				"z": -0.3014929401,
				"element": "H" 
			},
			{
				"x": -3.95862224,
				"y": -0.0390377715,
				"z": -0.3781076213,
				"element": "H" 
			},
			{
				"x": -1.8782172119,
				"y": 1.1695720222,
				"z": 0.2045959564,
				"element": "H" 
			}
		],
		 "valence_orbital": [ 
			{
				"type": "occ",
				"energy": -0.31211,
				"method": "rhf"
			},
			{
				"type": "occ",
				"energy": -0.30434,
				"method": "rhf"
			},
			{
				"type": "occ",
				"energy": -0.29465,
				"method": "rhf"
			},
			{
				"type": "occ",
				"energy": -0.28278,
				"method": "rhf"
			},
			{
				"type": "occ",
				"energy": -0.25117,
				"method": "rhf"
			},
			{
				"type": "unocc",
				"energy": -0.08453,
				"method": "rhf"
			},
			{
				"type": "unocc",
				"energy": -0.04955,
				"method": "rhf"
			},
			{
				"type": "unocc",
				"energy": -0.02561,
				"method": "rhf"
			},
			{
				"type": "unocc",
				"energy": -0.00981,
				"method": "rhf"
			},
			{
				"type": "unocc",
				"energy": 0.06704,
				"method": "rhf"
			}
		],
		"cosmo_sigma_profile": { 
			"-0.025": 0.0,
			"-0.024": 0.0,
			"-0.023": 0.0,
			"-0.022": 0.0,
			"-0.021": 0.0,
			"-0.02": 0.0,
			"-0.019": 0.0,
			"-0.018": 0.0,
			"-0.017": 0.0,
			"-0.016": 0.318352575296,
			"-0.015": 0.598603850375,
			"-0.014": 0.259766285622,
			"-0.013": 0.849928185472,
			"-0.012": 0.854377068142,
			"-0.011": 0.508463642556,
			"-0.01": 0.749751569204,
			"-0.009": 2.60384927063,
			"-0.008": 6.64239500979,
			"-0.007": 7.88148439286,
			"-0.006": 8.74436730004,
			"-0.005": 10.481877283,
			"-0.004": 13.6511264113,
			"-0.003": 15.0561038934,
			"-0.002": 17.4804333518,
			"-0.001": 21.4600478621,
			"0.0": 25.9170596839,
			"0.001": 30.5738688418,
			"0.002": 32.0894174607,
			"0.003": 14.3261713326,
			"0.004": 12.4653942319,
			"0.005": 4.5234039873,
			"0.006": 4.58602591424,
			"0.007": 5.31458614593,
			"0.008": 6.17336912867,
			"0.009": 6.35432383486,
			"0.01": 3.67575100478,
			"0.011": 1.78913947234,
			"0.012": 0.119734191533,
			"0.013": 0.0,
			"0.014": 0.0,
			"0.015": 0.0,
			"0.016": 0.0,
			"0.017": 0.0,
			"0.018": 0.0,
			"0.019": 0.0,
			"0.02": 0.0,
			"0.021": 0.0,
			"0.022": 0.0,
			"0.023": 0.0,
			"0.024": 0.0,
			"0.025": 0.0
		}
	}
}
