{
	 "smiles": "FC1=C(F)C(F)=C(C(F)=C1F)C1=CC=CC=C1", 
	 "Tm": 385.15, 
	 "num_atms": 22, 
	 "gaussian": { 
		 "optdone": 1, 
		 "sigma_profile": "yes", 
		 "theory": "DFT", 
		 "functional": "B3LYP", 
		 "basiset": "6-31G**", 
		 "properties": { 
			 "R2extent": 4486.0969, 
			 "electric_dipole_moment_norm": 2.06977342238, 
			 "electric_quadrupole_moment_norm": 7.31717369891, 
			 "total_energy": -959.430907575, 
			 "HOMO_LUMO_gap": 0.19669, 
			 "cosmo_polarized_energy": -4.2, 
			 "cosmo_cavitation_energy": 29.32, 
			 "cosmo_dispersion_energy": -20.72, 
			 "cosmo_repulsion_energy": 1.49, 
			 "cosmo_total_nonelectrostatic_energy": 10.09, 
			 "SMD_solvation_energy": 7.17 
		},
		"coords": [
			{
				"x": 0.5110391295,
				"y": -4.3289057839,
				"z": -1.0271323691,
				"element": "F" 
			},
			{
				"x": 0.253411732,
				"y": -3.0217042364,
				"z": -0.9369412265,
				"element": "C" 
			},
			{
				"x": -1.05880668,
				"y": -2.5598762793,
				"z": -0.9877134466,
				"element": "C" 
			},
			{
				"x": -2.0674185436,
				"y": -3.4291107768,
				"z": -1.1187739675,
				"element": "F" 
			},
			{
				"x": -1.3151597581,
				"y": -1.1948191627,
				"z": -0.8913767722,
				"element": "C" 
			},
			{
				"x": -2.601220484,
				"y": -0.8092906998,
				"z": -0.9305308293,
				"element": "F" 
			},
			{
				"x": -0.2941265617,
				"y": -0.2438852637,
				"z": -0.7451648301,
				"element": "C" 
			},
			{
				"x": 1.0138967925,
				"y": -0.7490079409,
				"z": -0.699605789,
				"element": "C" 
			},
			{
				"x": 2.0595851255,
				"y": 0.0849470553,
				"z": -0.5764822985,
				"element": "F" 
			},
			{
				"x": 1.2948193713,
				"y": -2.109527877,
				"z": -0.7913888636,
				"element": "C" 
			},
			{
				"x": 2.5601136168,
				"y": -2.5424074078,
				"z": -0.7502853517,
				"element": "F" 
			},
			{
				"x": -0.5808034721,
				"y": 1.2111090105,
				"z": -0.6446494236,
				"element": "C" 
			},
			{
				"x": -1.5180191004,
				"y": 1.8165602491,
				"z": -1.4979553534,
				"element": "C" 
			},
			{
				"x": -1.7844713848,
				"y": 3.1811643344,
				"z": -1.4028974658,
				"element": "C" 
			},
			{
				"x": -1.1227965412,
				"y": 3.9631668506,
				"z": -0.4547631142,
				"element": "C" 
			},
			{
				"x": -0.1904864105,
				"y": 3.3707855559,
				"z": 0.3985769067,
				"element": "C" 
			},
			{
				"x": 0.0804107998,
				"y": 2.0069278902,
				"z": 0.3054000353,
				"element": "C" 
			},
			{
				"x": -2.0363932376,
				"y": 1.2175680118,
				"z": -2.2382420027,
				"element": "H" 
			},
			{
				"x": -2.5095673581,
				"y": 3.6333538041,
				"z": -2.07316494,
				"element": "H" 
			},
			{
				"x": -1.3321477096,
				"y": 5.0263274932,
				"z": -0.3814304929,
				"element": "H" 
			},
			{
				"x": 0.3274828827,
				"y": 3.9703006216,
				"z": 1.1414011872,
				"element": "H" 
			},
			{
				"x": 0.8056577917,
				"y": 1.5557245515,
				"z": 0.9732204074,
				"element": "H" 
			}
		],
		 "valence_orbital": [ 
			{
				"type": "occ",
				"energy": -0.34586,
				"method": "rhf"
			},
			{
				"type": "occ",
				"energy": -0.28602,
				"method": "rhf"
			},
			{
				"type": "occ",
				"energy": -0.26022,
				"method": "rhf"
			},
			{
				"type": "occ",
				"energy": -0.25603,
				"method": "rhf"
			},
			{
				"type": "occ",
				"energy": -0.24246,
				"method": "rhf"
			},
			{
				"type": "unocc",
				"energy": -0.04577,
				"method": "rhf"
			},
			{
				"type": "unocc",
				"energy": -0.0163,
				"method": "rhf"
			},
			{
				"type": "unocc",
				"energy": -0.01019,
				"method": "rhf"
			},
			{
				"type": "unocc",
				"energy": 0.00774,
				"method": "rhf"
			},
			{
				"type": "unocc",
				"energy": 0.01311,
				"method": "rhf"
			}
		],
		"cosmo_sigma_profile": { 
			"-0.025": 0.0,
			"-0.024": 0.0,
			"-0.023": 0.0,
			"-0.022": 0.0,
			"-0.021": 0.0,
			"-0.02": 0.0,
			"-0.019": 0.0,
			"-0.018": 0.0,
			"-0.017": 0.0,
			"-0.016": 0.0,
			"-0.015": 0.0,
			"-0.014": 0.0,
			"-0.013": 0.0,
			"-0.012": 0.0,
			"-0.011": 0.0,
			"-0.01": 0.0,
			"-0.009": 0.0,
			"-0.008": 0.0,
			"-0.007": 0.510228659538,
			"-0.006": 8.34069825554,
			"-0.005": 13.0614517304,
			"-0.004": 17.4337643134,
			"-0.003": 27.8868750815,
			"-0.002": 18.6991527657,
			"-0.001": 16.5159781095,
			"0.0": 13.7180769531,
			"0.001": 17.0186465574,
			"0.002": 36.506616353,
			"0.003": 45.8064445693,
			"0.004": 14.2404428506,
			"0.005": 8.17149758233,
			"0.006": 0.127608347758,
			"0.007": 0.0,
			"0.008": 0.0,
			"0.009": 0.0,
			"0.01": 0.0,
			"0.011": 0.0,
			"0.012": 0.0,
			"0.013": 0.0,
			"0.014": 0.0,
			"0.015": 0.0,
			"0.016": 0.0,
			"0.017": 0.0,
			"0.018": 0.0,
			"0.019": 0.0,
			"0.02": 0.0,
			"0.021": 0.0,
			"0.022": 0.0,
			"0.023": 0.0,
			"0.024": 0.0,
			"0.025": 0.0
		}
	}
}
