{
	 "smiles": "CC1=CC(=O)OC2=CC(OC3OCC(O)C(O)C3O)=CC=C12", 
	 "Tm": 496.15, 
	 "num_atms": 38, 
	 "gaussian": { 
		 "optdone": 1, 
		 "sigma_profile": "yes", 
		 "theory": "DFT", 
		 "functional": "B3LYP", 
		 "basiset": "6-31G**", 
		 "properties": { 
			 "R2extent": 9554.5787, 
			 "electric_dipole_moment_norm": 11.1964150486, 
			 "electric_quadrupole_moment_norm": 19.8741474235, 
			 "total_energy": -1107.76575611, 
			 "HOMO_LUMO_gap": 0.16456, 
			 "cosmo_polarized_energy": -28.07, 
			 "cosmo_cavitation_energy": 40.04, 
			 "cosmo_dispersion_energy": -29.34, 
			 "cosmo_repulsion_energy": 2.21, 
			 "cosmo_total_nonelectrostatic_energy": 12.91, 
			 "SMD_solvation_energy": 7.82 
		},
		"coords": [
			{
				"x": 1.0602372194,
				"y": -4.9350254313,
				"z": 2.9805123116,
				"element": "C" 
			},
			{
				"x": -0.0527506295,
				"y": -4.7774205027,
				"z": 1.9797254191,
				"element": "C" 
			},
			{
				"x": -0.762889581,
				"y": -5.8503713425,
				"z": 1.5441480388,
				"element": "C" 
			},
			{
				"x": -1.8464706136,
				"y": -5.7497466106,
				"z": 0.5789823406,
				"element": "C" 
			},
			{
				"x": -2.5127178363,
				"y": -6.6654998739,
				"z": 0.1537939939,
				"element": "O" 
			},
			{
				"x": -2.1323571355,
				"y": -4.4666672612,
				"z": 0.1082707679,
				"element": "O" 
			},
			{
				"x": -1.4393888584,
				"y": -3.3679131531,
				"z": 0.5244157612,
				"element": "C" 
			},
			{
				"x": -1.8184966807,
				"y": -2.1480333175,
				"z": -0.0260008357,
				"element": "C" 
			},
			{
				"x": -1.1519462428,
				"y": -0.9833591779,
				"z": 0.3588136947,
				"element": "C" 
			},
			{
				"x": -1.6281681162,
				"y": 0.1594736635,
				"z": -0.2298755125,
				"element": "O" 
			},
			{
				"x": -0.9331757927,
				"y": 1.3793676669,
				"z": -0.2002060654,
				"element": "C" 
			},
			{
				"x": -0.8477665887,
				"y": 1.8357116627,
				"z": 1.1349299327,
				"element": "O" 
			},
			{
				"x": -0.4371461843,
				"y": 3.1938366834,
				"z": 1.2325581881,
				"element": "C" 
			},
			{
				"x": 0.7161500861,
				"y": 3.5599805652,
				"z": 0.278551874,
				"element": "C" 
			},
			{
				"x": 0.1450796638,
				"y": 4.2140883941,
				"z": -0.8695182638,
				"element": "O" 
			},
			{
				"x": 1.4555208922,
				"y": 2.2901599249,
				"z": -0.1754688195,
				"element": "C" 
			},
			{
				"x": 2.0421580428,
				"y": 1.6097335977,
				"z": 0.9264552033,
				"element": "O" 
			},
			{
				"x": 0.4645263525,
				"y": 1.3354208188,
				"z": -0.8831241742,
				"element": "C" 
			},
			{
				"x": 0.3488949784,
				"y": 1.6472058912,
				"z": -2.2599272955,
				"element": "O" 
			},
			{
				"x": -0.1040361984,
				"y": -1.0382189565,
				"z": 1.2968350513,
				"element": "C" 
			},
			{
				"x": 0.2626361328,
				"y": -2.2696482902,
				"z": 1.8225014735,
				"element": "C" 
			},
			{
				"x": -0.3867667497,
				"y": -3.4637940246,
				"z": 1.4599087316,
				"element": "C" 
			},
			{
				"x": 2.0117552861,
				"y": -4.5777754639,
				"z": 2.5703441088,
				"element": "H" 
			},
			{
				"x": 1.1828914893,
				"y": -5.9811698928,
				"z": 3.2684117219,
				"element": "H" 
			},
			{
				"x": 0.8606829589,
				"y": -4.3507139779,
				"z": 3.8860530642,
				"element": "H" 
			},
			{
				"x": -0.5565287051,
				"y": -6.8539903385,
				"z": 1.8982765036,
				"element": "H" 
			},
			{
				"x": -2.6245883522,
				"y": -2.1036798177,
				"z": -0.7483187545,
				"element": "H" 
			},
			{
				"x": -1.5759449727,
				"y": 2.0544881786,
				"z": -0.7842114819,
				"element": "H" 
			},
			{
				"x": -1.2771246799,
				"y": 3.8721420294,
				"z": 1.0215537523,
				"element": "H" 
			},
			{
				"x": -0.1289154244,
				"y": 3.3281050652,
				"z": 2.2712049377,
				"element": "H" 
			},
			{
				"x": 1.4032262139,
				"y": 4.2489612629,
				"z": 0.7925299775,
				"element": "H" 
			},
			{
				"x": 0.8616915874,
				"y": 4.6332371651,
				"z": -1.3652904591,
				"element": "H" 
			},
			{
				"x": 2.2173642314,
				"y": 2.5547984174,
				"z": -0.9249475658,
				"element": "H" 
			},
			{
				"x": 2.7654837121,
				"y": 2.1486552602,
				"z": 1.2719390715,
				"element": "H" 
			},
			{
				"x": 0.8799190207,
				"y": 0.3269747461,
				"z": -0.8235059902,
				"element": "H" 
			},
			{
				"x": 0.0028743734,
				"y": 2.5523422005,
				"z": -2.297537032,
				"element": "H" 
			},
			{
				"x": 0.4028086463,
				"y": -0.1364317274,
				"z": 1.6114954705,
				"element": "H" 
			},
			{
				"x": 1.0732784547,
				"y": -2.3046240334,
				"z": 2.5429208598,
				"element": "H" 
			}
		],
		 "valence_orbital": [ 
			{
				"type": "occ",
				"energy": -0.27408,
				"method": "rhf"
			},
			{
				"type": "occ",
				"energy": -0.26114,
				"method": "rhf"
			},
			{
				"type": "occ",
				"energy": -0.25833,
				"method": "rhf"
			},
			{
				"type": "occ",
				"energy": -0.23861,
				"method": "rhf"
			},
			{
				"type": "occ",
				"energy": -0.21479,
				"method": "rhf"
			},
			{
				"type": "unocc",
				"energy": -0.05023,
				"method": "rhf"
			},
			{
				"type": "unocc",
				"energy": -5e-05,
				"method": "rhf"
			},
			{
				"type": "unocc",
				"energy": 0.01815,
				"method": "rhf"
			},
			{
				"type": "unocc",
				"energy": 0.03194,
				"method": "rhf"
			},
			{
				"type": "unocc",
				"energy": 0.03633,
				"method": "rhf"
			}
		],
		"cosmo_sigma_profile": { 
			"-0.025": 0.0,
			"-0.024": 0.0,
			"-0.023": 0.0,
			"-0.022": 0.0,
			"-0.021": 0.0,
			"-0.02": 0.0,
			"-0.019": 0.0,
			"-0.018": 0.0,
			"-0.017": 0.508056166211,
			"-0.016": 2.42649622527,
			"-0.015": 2.51525144431,
			"-0.014": 1.92211928825,
			"-0.013": 2.11749580001,
			"-0.012": 2.14323810568,
			"-0.011": 3.11936958005,
			"-0.01": 2.98914205728,
			"-0.009": 3.29477177166,
			"-0.008": 3.98535479179,
			"-0.007": 11.0429783264,
			"-0.006": 20.1382267386,
			"-0.005": 20.5782308223,
			"-0.004": 21.5403733328,
			"-0.003": 19.9527117697,
			"-0.002": 20.9190380514,
			"-0.001": 20.5754630202,
			"0.0": 17.147124423,
			"0.001": 19.8445757621,
			"0.002": 21.9367065717,
			"0.003": 13.9244837137,
			"0.004": 10.433479676,
			"0.005": 7.84141482517,
			"0.006": 9.20407039263,
			"0.007": 9.42363845934,
			"0.008": 8.42399875785,
			"0.009": 7.3430195462,
			"0.01": 6.79987297591,
			"0.011": 7.05831855456,
			"0.012": 8.49832171194,
			"0.013": 6.27675362026,
			"0.014": 1.94134694087,
			"0.015": 0.0,
			"0.016": 0.0,
			"0.017": 0.0,
			"0.018": 0.0,
			"0.019": 0.0,
			"0.02": 0.0,
			"0.021": 0.0,
			"0.022": 0.0,
			"0.023": 0.0,
			"0.024": 0.0,
			"0.025": 0.0
		}
	}
}
