{
	 "smiles": "ClCC(=O)NCC1=CC=CC(Cl)=C1", 
	 "Tm": 367.15, 
	 "num_atms": 22, 
	 "gaussian": { 
		 "optdone": 1, 
		 "sigma_profile": "yes", 
		 "theory": "DFT", 
		 "functional": "B3LYP", 
		 "basiset": "6-31G**", 
		 "properties": { 
			 "R2extent": 5094.3657, 
			 "electric_dipole_moment_norm": 2.63724674803, 
			 "electric_quadrupole_moment_norm": 14.6581951505, 
			 "total_energy": -1398.75352944, 
			 "HOMO_LUMO_gap": 0.22487, 
			 "cosmo_polarized_energy": -13.5, 
			 "cosmo_cavitation_energy": 30.14, 
			 "cosmo_dispersion_energy": -21.74, 
			 "cosmo_repulsion_energy": 1.75, 
			 "cosmo_total_nonelectrostatic_energy": 10.15, 
			 "SMD_solvation_energy": 5.06 
		},
		"coords": [
			{
				"x": -4.6210167146,
				"y": 1.1702157344,
				"z": -0.478056589,
				"element": "Cl" 
			},
			{
				"x": -3.9628764077,
				"y": -0.4141523473,
				"z": 0.1195039088,
				"element": "C" 
			},
			{
				"x": -2.9941138026,
				"y": -1.0599836222,
				"z": -0.8727005702,
				"element": "C" 
			},
			{
				"x": -3.3060114102,
				"y": -2.0962338428,
				"z": -1.4418360861,
				"element": "O" 
			},
			{
				"x": -1.7747725357,
				"y": -0.4704823188,
				"z": -1.0618202512,
				"element": "N" 
			},
			{
				"x": -1.2613925113,
				"y": 0.7900345956,
				"z": -0.5425911029,
				"element": "C" 
			},
			{
				"x": 0.205952915,
				"y": 0.6957781769,
				"z": -0.1595046843,
				"element": "C" 
			},
			{
				"x": 0.7075612329,
				"y": -0.4169293709,
				"z": 0.5276048925,
				"element": "C" 
			},
			{
				"x": 2.049552225,
				"y": -0.4663168881,
				"z": 0.9023832326,
				"element": "C" 
			},
			{
				"x": 2.9126588984,
				"y": 0.5891696311,
				"z": 0.6021599974,
				"element": "C" 
			},
			{
				"x": 2.4053092018,
				"y": 1.6915468118,
				"z": -0.0827627878,
				"element": "C" 
			},
			{
				"x": 3.4742750316,
				"y": 3.028923016,
				"z": -0.4808097049,
				"element": "Cl" 
			},
			{
				"x": 1.0668731411,
				"y": 1.7536655743,
				"z": -0.4693304823,
				"element": "C" 
			},
			{
				"x": -4.8070183514,
				"y": -1.0909512253,
				"z": 0.2271659503,
				"element": "H" 
			},
			{
				"x": -3.5064118706,
				"y": -0.2235589874,
				"z": 1.0930476095,
				"element": "H" 
			},
			{
				"x": -1.2213187776,
				"y": -0.9347493434,
				"z": -1.7719237121,
				"element": "H" 
			},
			{
				"x": -1.4002734529,
				"y": 1.5989283386,
				"z": -1.2716129577,
				"element": "H" 
			},
			{
				"x": -1.8512111934,
				"y": 1.070285274,
				"z": 0.3346266495,
				"element": "H" 
			},
			{
				"x": 0.0462389003,
				"y": -1.2460878761,
				"z": 0.75952808,
				"element": "H" 
			},
			{
				"x": 2.4318999319,
				"y": -1.3328532182,
				"z": 1.4336276513,
				"element": "H" 
			},
			{
				"x": 3.9579372318,
				"y": 0.5580198773,
				"z": 0.8882258,
				"element": "H" 
			},
			{
				"x": 0.701958318,
				"y": 2.6215320103,
				"z": -1.0094248433,
				"element": "H" 
			}
		],
		 "valence_orbital": [ 
			{
				"type": "occ",
				"energy": -0.31107,
				"method": "rhf"
			},
			{
				"type": "occ",
				"energy": -0.27731,
				"method": "rhf"
			},
			{
				"type": "occ",
				"energy": -0.266,
				"method": "rhf"
			},
			{
				"type": "occ",
				"energy": -0.26255,
				"method": "rhf"
			},
			{
				"type": "occ",
				"energy": -0.25328,
				"method": "rhf"
			},
			{
				"type": "unocc",
				"energy": -0.02841,
				"method": "rhf"
			},
			{
				"type": "unocc",
				"energy": -0.0271,
				"method": "rhf"
			},
			{
				"type": "unocc",
				"energy": -0.02282,
				"method": "rhf"
			},
			{
				"type": "unocc",
				"energy": 0.02145,
				"method": "rhf"
			},
			{
				"type": "unocc",
				"energy": 0.04612,
				"method": "rhf"
			}
		],
		"cosmo_sigma_profile": { 
			"-0.025": 0.0,
			"-0.024": 0.0,
			"-0.023": 0.0,
			"-0.022": 0.0,
			"-0.021": 0.0,
			"-0.02": 0.0,
			"-0.019": 0.0,
			"-0.018": 0.0,
			"-0.017": 0.0,
			"-0.016": 0.0,
			"-0.015": 0.0,
			"-0.014": 0.552586085883,
			"-0.013": 0.779439673518,
			"-0.012": 1.27510498709,
			"-0.011": 0.549124882887,
			"-0.01": 2.99142553891,
			"-0.009": 3.99600845708,
			"-0.008": 5.65059625761,
			"-0.007": 10.7339751403,
			"-0.006": 14.6040733915,
			"-0.005": 16.7552591354,
			"-0.004": 13.83315178,
			"-0.003": 12.0955579576,
			"-0.002": 11.177587916,
			"-0.001": 13.8578160717,
			"0.0": 14.4139076789,
			"0.001": 18.8569310506,
			"0.002": 19.9350070355,
			"0.003": 21.2733959284,
			"0.004": 23.0934681082,
			"0.005": 16.673918872,
			"0.006": 4.33499484413,
			"0.007": 0.868471803968,
			"0.008": 1.09436621052,
			"0.009": 1.3806575816,
			"0.01": 1.42585331382,
			"0.011": 1.50944324429,
			"0.012": 3.04342643773,
			"0.013": 5.97636393779,
			"0.014": 1.75650057807,
			"0.015": 0.0,
			"0.016": 0.0,
			"0.017": 0.0,
			"0.018": 0.0,
			"0.019": 0.0,
			"0.02": 0.0,
			"0.021": 0.0,
			"0.022": 0.0,
			"0.023": 0.0,
			"0.024": 0.0,
			"0.025": 0.0
		}
	}
}
