{
	 "smiles": "CCN(CC)S(=O)(=O)C1=CC(N)=C(NCCO)C=C1", 
	 "Tm": 431.15, 
	 "num_atms": 40, 
	 "gaussian": { 
		 "optdone": 1, 
		 "sigma_profile": "yes", 
		 "theory": "DFT", 
		 "functional": "B3LYP", 
		 "basiset": "6-31G**", 
		 "properties": { 
			 "R2extent": 7447.7985, 
			 "electric_dipole_moment_norm": 4.26740371655, 
			 "electric_quadrupole_moment_norm": 30.5807922008, 
			 "total_energy": -1257.97103165, 
			 "HOMO_LUMO_gap": 0.1833, 
			 "cosmo_polarized_energy": -22.6, 
			 "cosmo_cavitation_energy": 42.61, 
			 "cosmo_dispersion_energy": -29.6, 
			 "cosmo_repulsion_energy": 2.31, 
			 "cosmo_total_nonelectrostatic_energy": 15.32, 
			 "SMD_solvation_energy": 5.28 
		},
		"coords": [
			{
				"x": 3.0791192435,
				"y": -2.5416765429,
				"z": -0.0136526647,
				"element": "C" 
			},
			{
				"x": 2.1912188322,
				"y": -1.2991841076,
				"z": 0.1164950187,
				"element": "C" 
			},
			{
				"x": 1.9664396086,
				"y": -0.5305880467,
				"z": -1.1229022044,
				"element": "N" 
			},
			{
				"x": 3.1450439841,
				"y": 0.0437855729,
				"z": -1.8000305248,
				"element": "C" 
			},
			{
				"x": 3.7837187063,
				"y": 1.1611487192,
				"z": -0.9736314475,
				"element": "C" 
			},
			{
				"x": 0.7036812797,
				"y": -1.088008028,
				"z": -2.1068145871,
				"element": "S" 
			},
			{
				"x": 0.7741079651,
				"y": -0.3068527548,
				"z": -3.3485565942,
				"element": "O" 
			},
			{
				"x": 0.6784584868,
				"y": -2.5583392149,
				"z": -2.1601076924,
				"element": "O" 
			},
			{
				"x": -0.746545274,
				"y": -0.5734095778,
				"z": -1.187202558,
				"element": "C" 
			},
			{
				"x": -1.0806279508,
				"y": 0.78263997,
				"z": -1.1595997899,
				"element": "C" 
			},
			{
				"x": -2.2279705022,
				"y": 1.208955528,
				"z": -0.4881843486,
				"element": "C" 
			},
			{
				"x": -2.6079877896,
				"y": 2.5545126407,
				"z": -0.4611870341,
				"element": "N" 
			},
			{
				"x": -3.0239153845,
				"y": 0.2508752864,
				"z": 0.1988300439,
				"element": "C" 
			},
			{
				"x": -4.198213107,
				"y": 0.6957361644,
				"z": 0.8565541509,
				"element": "N" 
			},
			{
				"x": -4.0484615308,
				"y": 1.4913197339,
				"z": 2.0885015988,
				"element": "C" 
			},
			{
				"x": -3.4913956007,
				"y": 0.7116936328,
				"z": 3.2884784009,
				"element": "C" 
			},
			{
				"x": -3.4189649318,
				"y": 1.5205232897,
				"z": 4.4535472399,
				"element": "O" 
			},
			{
				"x": -2.6761649912,
				"y": -1.1011826151,
				"z": 0.1285389115,
				"element": "C" 
			},
			{
				"x": -1.5471526175,
				"y": -1.5316933301,
				"z": -0.5709011929,
				"element": "C" 
			},
			{
				"x": 2.6545475523,
				"y": -3.244564764,
				"z": -0.7332583384,
				"element": "H" 
			},
			{
				"x": 3.1567703744,
				"y": -3.0396037723,
				"z": 0.9589106895,
				"element": "H" 
			},
			{
				"x": 4.0945731592,
				"y": -2.2850863205,
				"z": -0.3313059992,
				"element": "H" 
			},
			{
				"x": 2.6175579711,
				"y": -0.6028526592,
				"z": 0.8470494935,
				"element": "H" 
			},
			{
				"x": 1.2093464687,
				"y": -1.5806152237,
				"z": 0.5087293878,
				"element": "H" 
			},
			{
				"x": 2.7998029004,
				"y": 0.4413043652,
				"z": -2.7547783183,
				"element": "H" 
			},
			{
				"x": 3.888913917,
				"y": -0.7335512816,
				"z": -2.0238842519,
				"element": "H" 
			},
			{
				"x": 4.6086894496,
				"y": 1.6077040208,
				"z": -1.5382467001,
				"element": "H" 
			},
			{
				"x": 3.0529036663,
				"y": 1.9442544045,
				"z": -0.7509826153,
				"element": "H" 
			},
			{
				"x": 4.195311617,
				"y": 0.7978933726,
				"z": -0.026712243,
				"element": "H" 
			},
			{
				"x": -0.4691503866,
				"y": 1.5000329849,
				"z": -1.6982963053,
				"element": "H" 
			},
			{
				"x": -3.6163941643,
				"y": 2.6631135507,
				"z": -0.4179120717,
				"element": "H" 
			},
			{
				"x": -2.2047752483,
				"y": 3.1079054793,
				"z": -1.2065443249,
				"element": "H" 
			},
			{
				"x": -4.8381694332,
				"y": -0.0771918925,
				"z": 1.0104115306,
				"element": "H" 
			},
			{
				"x": -3.3917108231,
				"y": 2.3397739695,
				"z": 1.8694534871,
				"element": "H" 
			},
			{
				"x": -5.0295950006,
				"y": 1.8989423307,
				"z": 2.3548675192,
				"element": "H" 
			},
			{
				"x": -2.5154677349,
				"y": 0.2732700613,
				"z": 3.0310616352,
				"element": "H" 
			},
			{
				"x": -4.1637944874,
				"y": -0.1172515591,
				"z": 3.5397157993,
				"element": "H" 
			},
			{
				"x": -2.7364904301,
				"y": 2.1884310486,
				"z": 4.307792984,
				"element": "H" 
			},
			{
				"x": -3.3035199669,
				"y": -1.8299245893,
				"z": 0.636277667,
				"element": "H" 
			},
			{
				"x": -1.2874378268,
				"y": -2.5813398462,
				"z": -0.638323751,
				"element": "H" 
			}
		],
		 "valence_orbital": [ 
			{
				"type": "occ",
				"energy": -0.28854,
				"method": "rhf"
			},
			{
				"type": "occ",
				"energy": -0.27862,
				"method": "rhf"
			},
			{
				"type": "occ",
				"energy": -0.24441,
				"method": "rhf"
			},
			{
				"type": "occ",
				"energy": -0.23123,
				"method": "rhf"
			},
			{
				"type": "occ",
				"energy": -0.20878,
				"method": "rhf"
			},
			{
				"type": "unocc",
				"energy": -0.02548,
				"method": "rhf"
			},
			{
				"type": "unocc",
				"energy": -0.0015,
				"method": "rhf"
			},
			{
				"type": "unocc",
				"energy": 0.06263,
				"method": "rhf"
			},
			{
				"type": "unocc",
				"energy": 0.06826,
				"method": "rhf"
			},
			{
				"type": "unocc",
				"energy": 0.07509,
				"method": "rhf"
			}
		],
		"cosmo_sigma_profile": { 
			"-0.025": 0.0,
			"-0.024": 0.0,
			"-0.023": 0.0,
			"-0.022": 0.0,
			"-0.021": 0.0,
			"-0.02": 0.0,
			"-0.019": 0.0,
			"-0.018": 0.0,
			"-0.017": 0.0,
			"-0.016": 0.108226411467,
			"-0.015": 1.18722514251,
			"-0.014": 0.784236778374,
			"-0.013": 1.81403384671,
			"-0.012": 3.29891883603,
			"-0.011": 5.24210062886,
			"-0.01": 4.53934808941,
			"-0.009": 5.4005061706,
			"-0.008": 5.98649186574,
			"-0.007": 5.11786181216,
			"-0.006": 8.84611766921,
			"-0.005": 11.2217218516,
			"-0.004": 25.9710030942,
			"-0.003": 31.8092162762,
			"-0.002": 33.5521487457,
			"-0.001": 30.9814522469,
			"0.0": 26.0861517266,
			"0.001": 22.2995726106,
			"0.002": 13.0672218992,
			"0.003": 16.3954353226,
			"0.004": 15.7426528627,
			"0.005": 8.91993793304,
			"0.006": 7.61100115243,
			"0.007": 6.53261367409,
			"0.008": 5.30938722557,
			"0.009": 5.22686781271,
			"0.01": 6.82609162032,
			"0.011": 9.44231227531,
			"0.012": 8.42457643027,
			"0.013": 2.61097962581,
			"0.014": 2.27939081776,
			"0.015": 0.669252593253,
			"0.016": 0.0,
			"0.017": 0.0,
			"0.018": 0.0,
			"0.019": 0.0,
			"0.02": 0.0,
			"0.021": 0.0,
			"0.022": 0.0,
			"0.023": 0.0,
			"0.024": 0.0,
			"0.025": 0.0
		}
	}
}
