{
	 "smiles": "NC(=O)C1=CC=CC=C1O", 
	 "Tm": 414.15, 
	 "num_atms": 17, 
	 "gaussian": { 
		 "optdone": 1, 
		 "sigma_profile": "yes", 
		 "theory": "DFT", 
		 "functional": "B3LYP", 
		 "basiset": "6-31G**", 
		 "properties": { 
			 "R2extent": 1492.1275, 
			 "electric_dipole_moment_norm": 2.33320180439, 
			 "electric_quadrupole_moment_norm": 13.4023915, 
			 "total_energy": -476.179616733, 
			 "HOMO_LUMO_gap": 0.18797, 
			 "cosmo_polarized_energy": -12.79, 
			 "cosmo_cavitation_energy": 20.99, 
			 "cosmo_dispersion_energy": -15.92, 
			 "cosmo_repulsion_energy": 1.29, 
			 "cosmo_total_nonelectrostatic_energy": 6.35, 
			 "SMD_solvation_energy": 4.86 
		},
		"coords": [
			{
				"x": 2.003748991,
				"y": 2.0026394581,
				"z": 0.9400515926,
				"element": "N" 
			},
			{
				"x": 0.6001716019,
				"y": 1.9159493474,
				"z": 1.0049306146,
				"element": "C" 
			},
			{
				"x": -0.064844113,
				"y": 2.8515162518,
				"z": 1.4183913623,
				"element": "O" 
			},
			{
				"x": 0.0138072745,
				"y": 0.609603042,
				"z": 0.5894138655,
				"element": "C" 
			},
			{
				"x": -1.3276592019,
				"y": 0.6100922605,
				"z": 0.1691967082,
				"element": "C" 
			},
			{
				"x": -1.956827556,
				"y": -0.5581092541,
				"z": -0.2366357322,
				"element": "C" 
			},
			{
				"x": -1.2446215434,
				"y": -1.7644048679,
				"z": -0.2022083271,
				"element": "C" 
			},
			{
				"x": 0.0713291048,
				"y": -1.7983446741,
				"z": 0.2422128503,
				"element": "C" 
			},
			{
				"x": 0.7130003288,
				"y": -0.6184791273,
				"z": 0.6450717175,
				"element": "C" 
			},
			{
				"x": 1.9922711108,
				"y": -0.7428774086,
				"z": 1.0896597674,
				"element": "O" 
			},
			{
				"x": 2.3277124909,
				"y": 2.9406528697,
				"z": 1.1510838479,
				"element": "H" 
			},
			{
				"x": 2.428711986,
				"y": 1.617851139,
				"z": 0.102207524,
				"element": "H" 
			},
			{
				"x": -1.8512134215,
				"y": 1.5606165445,
				"z": 0.169236245,
				"element": "H" 
			},
			{
				"x": -2.9884742953,
				"y": -0.5374092709,
				"z": -0.5724394712,
				"element": "H" 
			},
			{
				"x": -1.7243709888,
				"y": -2.6877988313,
				"z": -0.5144932028,
				"element": "H" 
			},
			{
				"x": 0.6279390705,
				"y": -2.7278543754,
				"z": 0.2990521451,
				"element": "H" 
			},
			{
				"x": 2.2825191607,
				"y": 0.1104568964,
				"z": 1.4610684929,
				"element": "H" 
			}
		],
		 "valence_orbital": [ 
			{
				"type": "occ",
				"energy": -0.33633,
				"method": "rhf"
			},
			{
				"type": "occ",
				"energy": -0.29736,
				"method": "rhf"
			},
			{
				"type": "occ",
				"energy": -0.26834,
				"method": "rhf"
			},
			{
				"type": "occ",
				"energy": -0.2552,
				"method": "rhf"
			},
			{
				"type": "occ",
				"energy": -0.22913,
				"method": "rhf"
			},
			{
				"type": "unocc",
				"energy": -0.04116,
				"method": "rhf"
			},
			{
				"type": "unocc",
				"energy": 0.00335,
				"method": "rhf"
			},
			{
				"type": "unocc",
				"energy": 0.04192,
				"method": "rhf"
			},
			{
				"type": "unocc",
				"energy": 0.07603,
				"method": "rhf"
			},
			{
				"type": "unocc",
				"energy": 0.09647,
				"method": "rhf"
			}
		],
		"cosmo_sigma_profile": { 
			"-0.025": 0.0,
			"-0.024": 0.0,
			"-0.023": 0.0,
			"-0.022": 0.0,
			"-0.021": 0.0,
			"-0.02": 0.0,
			"-0.019": 0.0,
			"-0.018": 0.0,
			"-0.017": 0.0,
			"-0.016": 0.0,
			"-0.015": 0.312174277582,
			"-0.014": 1.68972241252,
			"-0.013": 2.58495959577,
			"-0.012": 3.03860855754,
			"-0.011": 2.38268309653,
			"-0.01": 3.01136684111,
			"-0.009": 3.19116439837,
			"-0.008": 3.7529090273,
			"-0.007": 3.35553720871,
			"-0.006": 8.26672059601,
			"-0.005": 10.2582150011,
			"-0.004": 10.6919106888,
			"-0.003": 9.13650468847,
			"-0.002": 8.21542496641,
			"-0.001": 7.80962646086,
			"0.0": 8.66736083519,
			"0.001": 8.77281650153,
			"0.002": 10.3842949837,
			"0.003": 13.771248372,
			"0.004": 13.5347199652,
			"0.005": 8.09359697225,
			"0.006": 2.08826848788,
			"0.007": 2.65744282759,
			"0.008": 2.81093695801,
			"0.009": 3.43586183987,
			"0.01": 2.82535748506,
			"0.011": 3.71236977197,
			"0.012": 4.5773930876,
			"0.013": 3.98441876819,
			"0.014": 0.3050858999,
			"0.015": 0.0,
			"0.016": 0.0,
			"0.017": 0.0,
			"0.018": 0.0,
			"0.019": 0.0,
			"0.02": 0.0,
			"0.021": 0.0,
			"0.022": 0.0,
			"0.023": 0.0,
			"0.024": 0.0,
			"0.025": 0.0
		}
	}
}
