{
	 "smiles": "COC1=CC=C(CCNC2=CC=CC=C2N)C=C1OC", 
	 "Tm": 352.15, 
	 "num_atms": 40, 
	 "gaussian": { 
		 "optdone": 1, 
		 "sigma_profile": "yes", 
		 "theory": "DFT", 
		 "functional": "B3LYP", 
		 "basiset": "6-31G**", 
		 "properties": { 
			 "R2extent": 6183.1884, 
			 "electric_dipole_moment_norm": 1.66886166593, 
			 "electric_quadrupole_moment_norm": 11.3345486725, 
			 "total_energy": -881.679196995, 
			 "HOMO_LUMO_gap": 0.18555, 
			 "cosmo_polarized_energy": -13.34, 
			 "cosmo_cavitation_energy": 42.05, 
			 "cosmo_dispersion_energy": -27.86, 
			 "cosmo_repulsion_energy": 2.17, 
			 "cosmo_total_nonelectrostatic_energy": 16.36, 
			 "SMD_solvation_energy": 7.77 
		},
		"coords": [
			{
				"x": 2.5429274375,
				"y": 3.3960578935,
				"z": -2.9827898451,
				"element": "C" 
			},
			{
				"x": 2.0590241394,
				"y": 2.0563936679,
				"z": -2.8375345363,
				"element": "O" 
			},
			{
				"x": 1.9972958677,
				"y": 1.5996592728,
				"z": -1.5385830602,
				"element": "C" 
			},
			{
				"x": 2.8349862871,
				"y": 0.5550397798,
				"z": -1.1479524541,
				"element": "C" 
			},
			{
				"x": 2.7752610479,
				"y": 0.0455553449,
				"z": 0.1499453104,
				"element": "C" 
			},
			{
				"x": 1.8860454035,
				"y": 0.579877522,
				"z": 1.0916459486,
				"element": "C" 
			},
			{
				"x": 1.7917844527,
				"y": 0.003058225,
				"z": 2.4862747987,
				"element": "C" 
			},
			{
				"x": 0.6861796194,
				"y": -1.0634059867,
				"z": 2.670739175,
				"element": "C" 
			},
			{
				"x": -0.6713049861,
				"y": -0.5353683632,
				"z": 2.5656678738,
				"element": "N" 
			},
			{
				"x": -1.5030341511,
				"y": -0.782170672,
				"z": 1.4654051581,
				"element": "C" 
			},
			{
				"x": -1.0595251265,
				"y": -1.2381182495,
				"z": 0.217497318,
				"element": "C" 
			},
			{
				"x": -1.9672598571,
				"y": -1.4773726228,
				"z": -0.8191843871,
				"element": "C" 
			},
			{
				"x": -3.3299264862,
				"y": -1.2625413962,
				"z": -0.6293312169,
				"element": "C" 
			},
			{
				"x": -3.7791921555,
				"y": -0.7704874467,
				"z": 0.600288507,
				"element": "C" 
			},
			{
				"x": -2.8875301384,
				"y": -0.5210463128,
				"z": 1.6416306601,
				"element": "C" 
			},
			{
				"x": -3.3067183344,
				"y": -0.0564658297,
				"z": 2.9168280196,
				"element": "N" 
			},
			{
				"x": 1.0478357492,
				"y": 1.6287968611,
				"z": 0.6913216436,
				"element": "C" 
			},
			{
				"x": 1.0821469673,
				"y": 2.1293753784,
				"z": -0.6090023225,
				"element": "C" 
			},
			{
				"x": 0.2302861804,
				"y": 3.1589953482,
				"z": -0.9477053999,
				"element": "O" 
			},
			{
				"x": -0.8159655816,
				"y": 2.781651689,
				"z": -1.8537190358,
				"element": "C" 
			},
			{
				"x": 1.9043600175,
				"y": 4.1110079523,
				"z": -2.4550343802,
				"element": "H" 
			},
			{
				"x": 3.5711790517,
				"y": 3.4801331775,
				"z": -2.6080999737,
				"element": "H" 
			},
			{
				"x": 2.5322081862,
				"y": 3.610840244,
				"z": -4.0535701309,
				"element": "H" 
			},
			{
				"x": 3.5317170467,
				"y": 0.1559223261,
				"z": -1.8786830811,
				"element": "H" 
			},
			{
				"x": 3.4385363892,
				"y": -0.7671433168,
				"z": 0.4359428744,
				"element": "H" 
			},
			{
				"x": 1.6128536092,
				"y": 0.8039167342,
				"z": 3.2130105979,
				"element": "H" 
			},
			{
				"x": 2.7483768172,
				"y": -0.4632310028,
				"z": 2.7539582714,
				"element": "H" 
			},
			{
				"x": 0.8022027851,
				"y": -1.4946875399,
				"z": 3.672175101,
				"element": "H" 
			},
			{
				"x": 0.8400134988,
				"y": -1.8851586388,
				"z": 1.9602015136,
				"element": "H" 
			},
			{
				"x": -1.2001955376,
				"y": -0.6171812579,
				"z": 3.4265344449,
				"element": "H" 
			},
			{
				"x": -0.0012817938,
				"y": -1.3962027615,
				"z": 0.0446758287,
				"element": "H" 
			},
			{
				"x": -1.5968065504,
				"y": -1.8367089301,
				"z": -1.7749272241,
				"element": "H" 
			},
			{
				"x": -4.0385913723,
				"y": -1.4528299208,
				"z": -1.4295219737,
				"element": "H" 
			},
			{
				"x": -4.8377088974,
				"y": -0.5706578899,
				"z": 0.7552564826,
				"element": "H" 
			},
			{
				"x": -4.3100532375,
				"y": 0.0817712165,
				"z": 2.9602875264,
				"element": "H" 
			},
			{
				"x": -2.8452329643,
				"y": 0.8139454408,
				"z": 3.172014964,
				"element": "H" 
			},
			{
				"x": 0.3318961548,
				"y": 2.0584884873,
				"z": 1.384409787,
				"element": "H" 
			},
			{
				"x": -1.4339474919,
				"y": 3.6712606254,
				"z": -1.9938061154,
				"element": "H" 
			},
			{
				"x": -1.4248613057,
				"y": 1.9752004145,
				"z": -1.4280359551,
				"element": "H" 
			},
			{
				"x": -0.408880741,
				"y": 2.4589305368,
				"z": -2.8174307126,
				"element": "H" 
			}
		],
		 "valence_orbital": [ 
			{
				"type": "occ",
				"energy": -0.25593,
				"method": "rhf"
			},
			{
				"type": "occ",
				"energy": -0.23526,
				"method": "rhf"
			},
			{
				"type": "occ",
				"energy": -0.21923,
				"method": "rhf"
			},
			{
				"type": "occ",
				"energy": -0.21484,
				"method": "rhf"
			},
			{
				"type": "occ",
				"energy": -0.18008,
				"method": "rhf"
			},
			{
				"type": "unocc",
				"energy": 0.00547,
				"method": "rhf"
			},
			{
				"type": "unocc",
				"energy": 0.00806,
				"method": "rhf"
			},
			{
				"type": "unocc",
				"energy": 0.02104,
				"method": "rhf"
			},
			{
				"type": "unocc",
				"energy": 0.03044,
				"method": "rhf"
			},
			{
				"type": "unocc",
				"energy": 0.07797,
				"method": "rhf"
			}
		],
		"cosmo_sigma_profile": { 
			"-0.025": 0.0,
			"-0.024": 0.0,
			"-0.023": 0.0,
			"-0.022": 0.0,
			"-0.021": 0.0,
			"-0.02": 0.0,
			"-0.019": 0.0,
			"-0.018": 0.0,
			"-0.017": 0.0,
			"-0.016": 0.0,
			"-0.015": 0.0,
			"-0.014": 0.0,
			"-0.013": 0.0,
			"-0.012": 0.376006504612,
			"-0.011": 2.19771474844,
			"-0.01": 3.13286317171,
			"-0.009": 3.88171058838,
			"-0.008": 3.98565458947,
			"-0.007": 3.12059590721,
			"-0.006": 7.35250980882,
			"-0.005": 17.0442588901,
			"-0.004": 26.4104065393,
			"-0.003": 37.8742591146,
			"-0.002": 39.6774710663,
			"-0.001": 25.4376121591,
			"0.0": 24.3267258219,
			"0.001": 20.3351049726,
			"0.002": 18.5963393448,
			"0.003": 17.7845801881,
			"0.004": 21.7047322161,
			"0.005": 19.9477818254,
			"0.006": 12.7559680646,
			"0.007": 8.19322772145,
			"0.008": 5.38331552859,
			"0.009": 3.43466902209,
			"0.01": 2.11492746697,
			"0.011": 2.41372591504,
			"0.012": 2.75224365263,
			"0.013": 0.781309331335,
			"0.014": 0.329162979742,
			"0.015": 0.0209032185836,
			"0.016": 0.0,
			"0.017": 0.0,
			"0.018": 0.0,
			"0.019": 0.0,
			"0.02": 0.0,
			"0.021": 0.0,
			"0.022": 0.0,
			"0.023": 0.0,
			"0.024": 0.0,
			"0.025": 0.0
		}
	}
}
