{
	 "smiles": "CC1=CC=C(CCC2=CC=C(C)C=C2)C=C1", 
	 "Tm": 358.15, 
	 "num_atms": 34, 
	 "gaussian": { 
		 "optdone": 1, 
		 "sigma_profile": "yes", 
		 "theory": "DFT", 
		 "functional": "B3LYP", 
		 "basiset": "6-31G**", 
		 "properties": { 
			 "R2extent": 4736.1554, 
			 "electric_dipole_moment_norm": 0.25462700171, 
			 "electric_quadrupole_moment_norm": 6.96808018826, 
			 "total_energy": -620.578619454, 
			 "HOMO_LUMO_gap": 0.22562, 
			 "cosmo_polarized_energy": -5.65, 
			 "cosmo_cavitation_energy": 36.63, 
			 "cosmo_dispersion_energy": -25.02, 
			 "cosmo_repulsion_energy": 1.98, 
			 "cosmo_total_nonelectrostatic_energy": 13.58, 
			 "SMD_solvation_energy": 5.8 
		},
		"coords": [
			{
				"x": -0.4916588297,
				"y": -2.8165655754,
				"z": -4.2839603085,
				"element": "C" 
			},
			{
				"x": 0.3243378421,
				"y": -2.096424086,
				"z": -3.2358071525,
				"element": "C" 
			},
			{
				"x": 1.295319772,
				"y": -2.7728011213,
				"z": -2.4849164229,
				"element": "C" 
			},
			{
				"x": 2.0720380103,
				"y": -2.1011870269,
				"z": -1.54210655,
				"element": "C" 
			},
			{
				"x": 1.9058363905,
				"y": -0.7286835105,
				"z": -1.3095406089,
				"element": "C" 
			},
			{
				"x": 2.7363710424,
				"y": -0.0164042005,
				"z": -0.2642962196,
				"element": "C" 
			},
			{
				"x": 2.188839814,
				"y": -0.1462909365,
				"z": 1.1845747561,
				"element": "C" 
			},
			{
				"x": 0.8766611268,
				"y": 0.5697022602,
				"z": 1.4196354752,
				"element": "C" 
			},
			{
				"x": -0.3495927242,
				"y": -0.1016397453,
				"z": 1.3378151639,
				"element": "C" 
			},
			{
				"x": -1.5543339629,
				"y": 0.572223034,
				"z": 1.5403804952,
				"element": "C" 
			},
			{
				"x": -1.579326284,
				"y": 1.9423459798,
				"z": 1.8280528887,
				"element": "C" 
			},
			{
				"x": -2.8854480813,
				"y": 2.6775016302,
				"z": 2.0197314544,
				"element": "C" 
			},
			{
				"x": -0.3522430411,
				"y": 2.6139611228,
				"z": 1.9129994708,
				"element": "C" 
			},
			{
				"x": 0.8517396004,
				"y": 1.9404820077,
				"z": 1.7124205287,
				"element": "C" 
			},
			{
				"x": 0.9325638207,
				"y": -0.054135675,
				"z": -2.0570308857,
				"element": "C" 
			},
			{
				"x": 0.1565889701,
				"y": -0.7261489084,
				"z": -3.0019601699,
				"element": "C" 
			},
			{
				"x": -1.4617169337,
				"y": -2.3340158659,
				"z": -4.4375499002,
				"element": "H" 
			},
			{
				"x": -0.6732686896,
				"y": -3.8591653388,
				"z": -4.0044851956,
				"element": "H" 
			},
			{
				"x": 0.0231335598,
				"y": -2.8265759061,
				"z": -5.2532534429,
				"element": "H" 
			},
			{
				"x": 1.4482604988,
				"y": -3.837907901,
				"z": -2.6442965437,
				"element": "H" 
			},
			{
				"x": 2.8225142761,
				"y": -2.6517166577,
				"z": -0.978374251,
				"element": "H" 
			},
			{
				"x": 3.7564513359,
				"y": -0.4199920864,
				"z": -0.2759685294,
				"element": "H" 
			},
			{
				"x": 2.8161541596,
				"y": 1.0476162676,
				"z": -0.5154099094,
				"element": "H" 
			},
			{
				"x": 2.0795723959,
				"y": -1.2102819019,
				"z": 1.4244226589,
				"element": "H" 
			},
			{
				"x": 2.9475746542,
				"y": 0.2541753189,
				"z": 1.8682938444,
				"element": "H" 
			},
			{
				"x": -0.3613152766,
				"y": -1.1655812575,
				"z": 1.116125332,
				"element": "H" 
			},
			{
				"x": -2.4907610916,
				"y": 0.0226278055,
				"z": 1.4769702801,
				"element": "H" 
			},
			{
				"x": -2.7794765024,
				"y": 3.5061347137,
				"z": 2.7269403505,
				"element": "H" 
			},
			{
				"x": -3.2461225746,
				"y": 3.1029936018,
				"z": 1.074432172,
				"element": "H" 
			},
			{
				"x": -3.6687801383,
				"y": 2.0116309785,
				"z": 2.394517763,
				"element": "H" 
			},
			{
				"x": -0.3392269044,
				"y": 3.6759750674,
				"z": 2.1478869552,
				"element": "H" 
			},
			{
				"x": 1.7893865543,
				"y": 2.4863292584,
				"z": 1.7956807991,
				"element": "H" 
			},
			{
				"x": 0.7768997368,
				"y": 1.0090765739,
				"z": -1.8938616131,
				"element": "H" 
			},
			{
				"x": -0.5923725261,
				"y": -0.1757579193,
				"z": -3.5668626848,
				"element": "H" 
			}
		],
		 "valence_orbital": [ 
			{
				"type": "occ",
				"energy": -0.31825,
				"method": "rhf"
			},
			{
				"type": "occ",
				"energy": -0.2428,
				"method": "rhf"
			},
			{
				"type": "occ",
				"energy": -0.23912,
				"method": "rhf"
			},
			{
				"type": "occ",
				"energy": -0.22839,
				"method": "rhf"
			},
			{
				"type": "occ",
				"energy": -0.22224,
				"method": "rhf"
			},
			{
				"type": "unocc",
				"energy": 0.00338,
				"method": "rhf"
			},
			{
				"type": "unocc",
				"energy": 0.00487,
				"method": "rhf"
			},
			{
				"type": "unocc",
				"energy": 0.00968,
				"method": "rhf"
			},
			{
				"type": "unocc",
				"energy": 0.0113,
				"method": "rhf"
			},
			{
				"type": "unocc",
				"energy": 0.0991,
				"method": "rhf"
			}
		],
		"cosmo_sigma_profile": { 
			"-0.025": 0.0,
			"-0.024": 0.0,
			"-0.023": 0.0,
			"-0.022": 0.0,
			"-0.021": 0.0,
			"-0.02": 0.0,
			"-0.019": 0.0,
			"-0.018": 0.0,
			"-0.017": 0.0,
			"-0.016": 0.0,
			"-0.015": 0.0,
			"-0.014": 0.0,
			"-0.013": 0.0,
			"-0.012": 0.0,
			"-0.011": 0.0,
			"-0.01": 0.0,
			"-0.009": 0.0,
			"-0.008": 0.0,
			"-0.007": 0.0,
			"-0.006": 0.0145532211565,
			"-0.005": 7.74268256782,
			"-0.004": 29.3430704557,
			"-0.003": 41.9327812756,
			"-0.002": 36.9900233247,
			"-0.001": 30.527390757,
			"0.0": 36.8148590978,
			"0.001": 22.1544905161,
			"0.002": 15.1991718937,
			"0.003": 13.5009612854,
			"0.004": 14.4146692495,
			"0.005": 13.7812713118,
			"0.006": 16.5977292418,
			"0.007": 9.35764941648,
			"0.008": 0.145604735153,
			"0.009": 0.0,
			"0.01": 0.0,
			"0.011": 0.0,
			"0.012": 0.0,
			"0.013": 0.0,
			"0.014": 0.0,
			"0.015": 0.0,
			"0.016": 0.0,
			"0.017": 0.0,
			"0.018": 0.0,
			"0.019": 0.0,
			"0.02": 0.0,
			"0.021": 0.0,
			"0.022": 0.0,
			"0.023": 0.0,
			"0.024": 0.0,
			"0.025": 0.0
		}
	}
}
