{
	 "smiles": "BrC1=C2C=CC(C=NNC3=CC=CC=C3)=CC2=CC=C1", 
	 "Tm": 424.15, 
	 "num_atms": 33, 
	 "gaussian": { 
		 "optdone": 1, 
		 "sigma_profile": "yes", 
		 "theory": "DFT", 
		 "functional": "B3LYP", 
		 "basiset": "6-31G**", 
		 "properties": { 
			 "R2extent": 9350.6946, 
			 "electric_dipole_moment_norm": 1.7278732303, 
			 "electric_quadrupole_moment_norm": 9.14367173514, 
			 "total_energy": -3336.51441352, 
			 "HOMO_LUMO_gap": 0.13424, 
			 "cosmo_polarized_energy": -10.14, 
			 "cosmo_cavitation_energy": 38.81, 
			 "cosmo_dispersion_energy": -27.68, 
			 "cosmo_repulsion_energy": 2.1, 
			 "cosmo_total_nonelectrostatic_energy": 13.23, 
			 "SMD_solvation_energy": 4.46 
		},
		"coords": [
			{
				"x": 4.5594452877,
				"y": -1.8993683835,
				"z": -2.780544695,
				"element": "Br" 
			},
			{
				"x": 3.6859910241,
				"y": -1.148837743,
				"z": -1.2478024395,
				"element": "C" 
			},
			{
				"x": 2.3716035293,
				"y": -1.5672162837,
				"z": -0.896949752,
				"element": "C" 
			},
			{
				"x": 1.621327187,
				"y": -2.5404301406,
				"z": -1.6098346834,
				"element": "C" 
			},
			{
				"x": 0.3606590233,
				"y": -2.8939747022,
				"z": -1.1997069883,
				"element": "C" 
			},
			{
				"x": -0.2567883762,
				"y": -2.2926870678,
				"z": -0.0623532802,
				"element": "C" 
			},
			{
				"x": -1.5795352125,
				"y": -2.8111908269,
				"z": 0.3202326467,
				"element": "C" 
			},
			{
				"x": -2.4799697914,
				"y": -2.4528507551,
				"z": 1.1714831868,
				"element": "N" 
			},
			{
				"x": -2.3386906607,
				"y": -1.2805750547,
				"z": 1.9104433987,
				"element": "N" 
			},
			{
				"x": -2.3629896458,
				"y": 0.0222491371,
				"z": 1.3456608335,
				"element": "C" 
			},
			{
				"x": -2.31365131,
				"y": 0.2864819026,
				"z": -0.0289031937,
				"element": "C" 
			},
			{
				"x": -2.350133937,
				"y": 1.6062972491,
				"z": -0.4846509422,
				"element": "C" 
			},
			{
				"x": -2.4323522651,
				"y": 2.6743261,
				"z": 0.4071815199,
				"element": "C" 
			},
			{
				"x": -2.4825904439,
				"y": 2.4095030133,
				"z": 1.7791869214,
				"element": "C" 
			},
			{
				"x": -2.4448393257,
				"y": 1.100095049,
				"z": 2.2463564364,
				"element": "C" 
			},
			{
				"x": 0.461236577,
				"y": -1.3384096071,
				"z": 0.6451560152,
				"element": "C" 
			},
			{
				"x": 1.7737287885,
				"y": -0.9628427955,
				"z": 0.2616201237,
				"element": "C" 
			},
			{
				"x": 2.4997451195,
				"y": 0.0077121585,
				"z": 1.0038329813,
				"element": "C" 
			},
			{
				"x": 3.7687061085,
				"y": 0.3756109168,
				"z": 0.6245054522,
				"element": "C" 
			},
			{
				"x": 4.3715459769,
				"y": -0.2072302449,
				"z": -0.5147714704,
				"element": "C" 
			},
			{
				"x": 2.0631935307,
				"y": -3.0077330784,
				"z": -2.4820963059,
				"element": "H" 
			},
			{
				"x": -0.188560013,
				"y": -3.6514179058,
				"z": -1.7529311098,
				"element": "H" 
			},
			{
				"x": -1.8457559618,
				"y": -3.7440103247,
				"z": -0.1809353398,
				"element": "H" 
			},
			{
				"x": -2.9985028689,
				"y": -1.3384260826,
				"z": 2.6772417667,
				"element": "H" 
			},
			{
				"x": -2.2668057105,
				"y": -0.5275888096,
				"z": -0.7404589735,
				"element": "H" 
			},
			{
				"x": -2.3162343577,
				"y": 1.7931076351,
				"z": -1.5543657472,
				"element": "H" 
			},
			{
				"x": -2.4561428062,
				"y": 3.6964429483,
				"z": 0.0425677797,
				"element": "H" 
			},
			{
				"x": -2.5492827993,
				"y": 3.2271157438,
				"z": 2.4915317155,
				"element": "H" 
			},
			{
				"x": -2.4768735241,
				"y": 0.8995244043,
				"z": 3.3147553866,
				"element": "H" 
			},
			{
				"x": 0.0349125871,
				"y": -0.8763728555,
				"z": 1.5259573531,
				"element": "H" 
			},
			{
				"x": 2.0298243878,
				"y": 0.4555569844,
				"z": 1.8746303194,
				"element": "H" 
			},
			{
				"x": 4.3208796603,
				"y": 1.1180414715,
				"z": 1.1924662555,
				"element": "H" 
			},
			{
				"x": 5.3716002221,
				"y": 0.086697948,
				"z": -0.8120051712,
				"element": "H" 
			}
		],
		 "valence_orbital": [ 
			{
				"type": "occ",
				"energy": -0.26735,
				"method": "rhf"
			},
			{
				"type": "occ",
				"energy": -0.25325,
				"method": "rhf"
			},
			{
				"type": "occ",
				"energy": -0.24919,
				"method": "rhf"
			},
			{
				"type": "occ",
				"energy": -0.22109,
				"method": "rhf"
			},
			{
				"type": "occ",
				"energy": -0.19926,
				"method": "rhf"
			},
			{
				"type": "unocc",
				"energy": -0.06502,
				"method": "rhf"
			},
			{
				"type": "unocc",
				"energy": -0.03631,
				"method": "rhf"
			},
			{
				"type": "unocc",
				"energy": -0.00345,
				"method": "rhf"
			},
			{
				"type": "unocc",
				"energy": 0.00558,
				"method": "rhf"
			},
			{
				"type": "unocc",
				"energy": 0.007,
				"method": "rhf"
			}
		],
		"cosmo_sigma_profile": { 
			"-0.025": 0.0,
			"-0.024": 0.0,
			"-0.023": 0.0,
			"-0.022": 0.0,
			"-0.021": 0.0,
			"-0.02": 0.0,
			"-0.019": 0.0,
			"-0.018": 0.0,
			"-0.017": 0.0,
			"-0.016": 0.0,
			"-0.015": 0.0,
			"-0.014": 0.234534023419,
			"-0.013": 1.12868858737,
			"-0.012": 0.944083511701,
			"-0.011": 1.34059340034,
			"-0.01": 0.878200038742,
			"-0.009": 1.31372523173,
			"-0.008": 1.81494535904,
			"-0.007": 9.45308637052,
			"-0.006": 16.7678949808,
			"-0.005": 19.6404811906,
			"-0.004": 23.1600093267,
			"-0.003": 20.2090526284,
			"-0.002": 19.2088984244,
			"-0.001": 17.5549809965,
			"0.0": 20.4001584342,
			"0.001": 25.3622722576,
			"0.002": 39.9011062535,
			"0.003": 35.9073727874,
			"0.004": 25.1564929508,
			"0.005": 14.1899661695,
			"0.006": 9.5343096974,
			"0.007": 3.56976999429,
			"0.008": 2.08818177837,
			"0.009": 0.495758823291,
			"0.01": 0.811818282883,
			"0.011": 0.669282729959,
			"0.012": 0.969301991357,
			"0.013": 1.15469773362,
			"0.014": 0.567307669508,
			"0.015": 0.650483213793,
			"0.016": 0.0267929223249,
			"0.017": 0.0,
			"0.018": 0.0,
			"0.019": 0.0,
			"0.02": 0.0,
			"0.021": 0.0,
			"0.022": 0.0,
			"0.023": 0.0,
			"0.024": 0.0,
			"0.025": 0.0
		}
	}
}
