{
	 "smiles": "CC1=CC=CC=C1P(Cl)C1=CC=CC=C1C", 
	 "Tm": 330.15, 
	 "num_atms": 30, 
	 "gaussian": { 
		 "optdone": 1, 
		 "sigma_profile": "yes", 
		 "theory": "DFT", 
		 "functional": "B3LYP", 
		 "basiset": "6-31G**", 
		 "properties": { 
			 "R2extent": 6934.2373, 
			 "electric_dipole_moment_norm": 2.9460086507, 
			 "electric_quadrupole_moment_norm": 14.8406697369, 
			 "total_energy": -1343.50454155, 
			 "HOMO_LUMO_gap": 0.1789, 
			 "cosmo_polarized_energy": -6.67, 
			 "cosmo_cavitation_energy": 35.51, 
			 "cosmo_dispersion_energy": -25.1, 
			 "cosmo_repulsion_energy": 1.99, 
			 "cosmo_total_nonelectrostatic_energy": 12.4, 
			 "SMD_solvation_energy": 5.73 
		},
		"coords": [
			{
				"x": -0.2245479346,
				"y": -2.4302910992,
				"z": 0.5061470458,
				"element": "C" 
			},
			{
				"x": 0.9120428858,
				"y": -1.4808227026,
				"z": 0.2019903833,
				"element": "C" 
			},
			{
				"x": 1.6878257572,
				"y": -1.6835159708,
				"z": -0.9457737843,
				"element": "C" 
			},
			{
				"x": 2.761557392,
				"y": -0.8501001666,
				"z": -1.2595327792,
				"element": "C" 
			},
			{
				"x": 3.0854962208,
				"y": 0.2116704798,
				"z": -0.4165694661,
				"element": "C" 
			},
			{
				"x": 2.3294644487,
				"y": 0.4303240024,
				"z": 0.73419992,
				"element": "C" 
			},
			{
				"x": 1.2431696112,
				"y": -0.3985973054,
				"z": 1.0559471174,
				"element": "C" 
			},
			{
				"x": 0.16587495,
				"y": -0.0856410293,
				"z": 2.5273792428,
				"element": "P" 
			},
			{
				"x": 1.0243851235,
				"y": -1.4457660411,
				"z": 3.9308207014,
				"element": "Cl" 
			},
			{
				"x": 0.7867418606,
				"y": 1.5484357989,
				"z": 3.1392085788,
				"element": "C" 
			},
			{
				"x": 1.719121884,
				"y": 1.6835651972,
				"z": 4.1772438283,
				"element": "C" 
			},
			{
				"x": 2.0921115669,
				"y": 2.9428886666,
				"z": 4.6474876505,
				"element": "C" 
			},
			{
				"x": 1.5313541499,
				"y": 4.0862328958,
				"z": 4.0818400173,
				"element": "C" 
			},
			{
				"x": 0.6022970933,
				"y": 3.9610202097,
				"z": 3.0492067041,
				"element": "C" 
			},
			{
				"x": 0.2114085089,
				"y": 2.708183995,
				"z": 2.5618817338,
				"element": "C" 
			},
			{
				"x": -0.7861196673,
				"y": 2.6284134866,
				"z": 1.4278481304,
				"element": "C" 
			},
			{
				"x": -0.3843892128,
				"y": -3.121728394,
				"z": -0.32526869,
				"element": "H" 
			},
			{
				"x": -0.0161569381,
				"y": -3.0262873635,
				"z": 1.401830598,
				"element": "H" 
			},
			{
				"x": -1.163237248,
				"y": -1.8976679701,
				"z": 0.6913869967,
				"element": "H" 
			},
			{
				"x": 1.4415322849,
				"y": -2.5118469185,
				"z": -1.6051474277,
				"element": "H" 
			},
			{
				"x": 3.3412864174,
				"y": -1.0317824984,
				"z": -2.1602178875,
				"element": "H" 
			},
			{
				"x": 3.9220940248,
				"y": 0.864391843,
				"z": -0.6482954172,
				"element": "H" 
			},
			{
				"x": 2.585801896,
				"y": 1.2534656672,
				"z": 1.3925878832,
				"element": "H" 
			},
			{
				"x": 2.1525995057,
				"y": 0.7962762278,
				"z": 4.6249049121,
				"element": "H" 
			},
			{
				"x": 2.8159747207,
				"y": 3.0250091901,
				"z": 5.453052721,
				"element": "H" 
			},
			{
				"x": 1.8106053814,
				"y": 5.071946654,
				"z": 4.4429483732,
				"element": "H" 
			},
			{
				"x": 0.1637643138,
				"y": 4.8531231972,
				"z": 2.6090378705,
				"element": "H" 
			},
			{
				"x": -1.2049090612,
				"y": 3.613816019,
				"z": 1.2077165372,
				"element": "H" 
			},
			{
				"x": -1.6173581489,
				"y": 1.9543879879,
				"z": 1.6655437334,
				"element": "H" 
			},
			{
				"x": -0.3216917865,
				"y": 2.2529959413,
				"z": 0.5081947728,
				"element": "H" 
			}
		],
		 "valence_orbital": [ 
			{
				"type": "occ",
				"energy": -0.26652,
				"method": "rhf"
			},
			{
				"type": "occ",
				"energy": -0.25831,
				"method": "rhf"
			},
			{
				"type": "occ",
				"energy": -0.24978,
				"method": "rhf"
			},
			{
				"type": "occ",
				"energy": -0.24734,
				"method": "rhf"
			},
			{
				"type": "occ",
				"energy": -0.2291,
				"method": "rhf"
			},
			{
				"type": "unocc",
				"energy": -0.0502,
				"method": "rhf"
			},
			{
				"type": "unocc",
				"energy": -0.01926,
				"method": "rhf"
			},
			{
				"type": "unocc",
				"energy": -0.00805,
				"method": "rhf"
			},
			{
				"type": "unocc",
				"energy": -0.00056,
				"method": "rhf"
			},
			{
				"type": "unocc",
				"energy": 0.01658,
				"method": "rhf"
			}
		],
		"cosmo_sigma_profile": { 
			"-0.025": 0.0,
			"-0.024": 0.0,
			"-0.023": 0.0,
			"-0.022": 0.0,
			"-0.021": 0.0,
			"-0.02": 0.0,
			"-0.019": 0.0,
			"-0.018": 0.0,
			"-0.017": 0.0,
			"-0.016": 0.0,
			"-0.015": 0.0,
			"-0.014": 0.0,
			"-0.013": 0.0,
			"-0.012": 0.0,
			"-0.011": 0.0,
			"-0.01": 0.0,
			"-0.009": 0.0,
			"-0.008": 0.0,
			"-0.007": 0.267173754903,
			"-0.006": 10.0751516907,
			"-0.005": 18.473316099,
			"-0.004": 23.6119527302,
			"-0.003": 23.1641836192,
			"-0.002": 26.7448568268,
			"-0.001": 31.687584245,
			"0.0": 30.4010840495,
			"0.001": 21.3685903683,
			"0.002": 19.5643670773,
			"0.003": 21.9229448817,
			"0.004": 23.8738292865,
			"0.005": 21.860546163,
			"0.006": 8.0113891777,
			"0.007": 2.51876513935,
			"0.008": 0.515894592918,
			"0.009": 0.260755308896,
			"0.01": 0.0,
			"0.011": 0.0,
			"0.012": 0.0,
			"0.013": 0.0,
			"0.014": 0.0,
			"0.015": 0.0,
			"0.016": 0.0,
			"0.017": 0.0,
			"0.018": 0.0,
			"0.019": 0.0,
			"0.02": 0.0,
			"0.021": 0.0,
			"0.022": 0.0,
			"0.023": 0.0,
			"0.024": 0.0,
			"0.025": 0.0
		}
	}
}
