{
	 "smiles": "[O-][N+](=O)C1=CC2=C(C=C1)N=CS2", 
	 "Tm": 448.15, 
	 "num_atms": 16, 
	 "gaussian": { 
		 "optdone": 1, 
		 "sigma_profile": "yes", 
		 "theory": "DFT", 
		 "functional": "B3LYP", 
		 "basiset": "6-31G**", 
		 "properties": { 
			 "R2extent": 2467.0064, 
			 "electric_dipole_moment_norm": 4.07144830251, 
			 "electric_quadrupole_moment_norm": 9.62942875045, 
			 "total_energy": -927.192700746, 
			 "HOMO_LUMO_gap": 0.16666, 
			 "cosmo_polarized_energy": -9.66, 
			 "cosmo_cavitation_energy": 23.08, 
			 "cosmo_dispersion_energy": -17.89, 
			 "cosmo_repulsion_energy": 1.34, 
			 "cosmo_total_nonelectrostatic_energy": 6.53, 
			 "SMD_solvation_energy": 4.44 
		},
		"coords": [
			{
				"x": 3.6683564335,
				"y": -1.0076136898,
				"z": 0.348712769,
				"element": "O" 
			},
			{
				"x": 2.8626939704,
				"y": -0.1845979827,
				"z": -0.0837544102,
				"element": "N" 
			},
			{
				"x": 3.1430902285,
				"y": 0.7323827822,
				"z": -0.8557794459,
				"element": "O" 
			},
			{
				"x": 1.4624767911,
				"y": -0.3064131686,
				"z": 0.3528735403,
				"element": "C" 
			},
			{
				"x": 0.5427872382,
				"y": 0.6180935849,
				"z": -0.1301139127,
				"element": "C" 
			},
			{
				"x": -0.7733833405,
				"y": 0.4752148167,
				"z": 0.3020856022,
				"element": "C" 
			},
			{
				"x": -1.1564005435,
				"y": -0.5632751396,
				"z": 1.1918572556,
				"element": "C" 
			},
			{
				"x": -0.1934842134,
				"y": -1.4753670277,
				"z": 1.6546917675,
				"element": "C" 
			},
			{
				"x": 1.1197215395,
				"y": -1.3455010079,
				"z": 1.2331681195,
				"element": "C" 
			},
			{
				"x": -2.497253084,
				"y": -0.5828912178,
				"z": 1.5356812251,
				"element": "N" 
			},
			{
				"x": -3.1264743785,
				"y": 0.38282122,
				"z": 0.9498609658,
				"element": "C" 
			},
			{
				"x": -2.178814052,
				"y": 1.4422169327,
				"z": -0.0943741978,
				"element": "S" 
			},
			{
				"x": 0.8671035805,
				"y": 1.3978660932,
				"z": -0.8071931961,
				"element": "H" 
			},
			{
				"x": -0.4938401146,
				"y": -2.2655369589,
				"z": 2.3338310404,
				"element": "H" 
			},
			{
				"x": 1.8948308388,
				"y": -2.0247486379,
				"z": 1.5636128297,
				"element": "H" 
			},
			{
				"x": -4.1886108942,
				"y": 0.5675494014,
				"z": 1.0687400475,
				"element": "H" 
			}
		],
		 "valence_orbital": [ 
			{
				"type": "occ",
				"energy": -0.3119,
				"method": "rhf"
			},
			{
				"type": "occ",
				"energy": -0.30179,
				"method": "rhf"
			},
			{
				"type": "occ",
				"energy": -0.29433,
				"method": "rhf"
			},
			{
				"type": "occ",
				"energy": -0.27432,
				"method": "rhf"
			},
			{
				"type": "occ",
				"energy": -0.26446,
				"method": "rhf"
			},
			{
				"type": "unocc",
				"energy": -0.0978,
				"method": "rhf"
			},
			{
				"type": "unocc",
				"energy": -0.04356,
				"method": "rhf"
			},
			{
				"type": "unocc",
				"energy": -0.03342,
				"method": "rhf"
			},
			{
				"type": "unocc",
				"energy": -0.01262,
				"method": "rhf"
			},
			{
				"type": "unocc",
				"energy": 0.0208,
				"method": "rhf"
			}
		],
		"cosmo_sigma_profile": { 
			"-0.025": 0.0,
			"-0.024": 0.0,
			"-0.023": 0.0,
			"-0.022": 0.0,
			"-0.021": 0.0,
			"-0.02": 0.0,
			"-0.019": 0.0,
			"-0.018": 0.0,
			"-0.017": 0.0,
			"-0.016": 0.0,
			"-0.015": 0.0,
			"-0.014": 0.0,
			"-0.013": 0.0,
			"-0.012": 0.115826388249,
			"-0.011": 2.19049290552,
			"-0.01": 2.67142523847,
			"-0.009": 3.29849087564,
			"-0.008": 5.49975484015,
			"-0.007": 7.02118103431,
			"-0.006": 8.15962156219,
			"-0.005": 6.96859873477,
			"-0.004": 8.60858434863,
			"-0.003": 10.7785032181,
			"-0.002": 15.5275693215,
			"-0.001": 20.2055913877,
			"0.0": 23.6424348228,
			"0.001": 16.9154449352,
			"0.002": 9.32776603524,
			"0.003": 5.05701710162,
			"0.004": 4.75789330947,
			"0.005": 4.55497526216,
			"0.006": 4.67193879921,
			"0.007": 9.34407844515,
			"0.008": 7.82903374535,
			"0.009": 5.54511457952,
			"0.01": 3.20602890448,
			"0.011": 1.08450599804,
			"0.012": 1.1463100801,
			"0.013": 0.719010601026,
			"0.014": 0.643788697737,
			"0.015": 0.00949515965613,
			"0.016": 0.0,
			"0.017": 0.0,
			"0.018": 0.0,
			"0.019": 0.0,
			"0.02": 0.0,
			"0.021": 0.0,
			"0.022": 0.0,
			"0.023": 0.0,
			"0.024": 0.0,
			"0.025": 0.0
		}
	}
}
