{
	 "smiles": "ClCC12CC3CC(CC(C3)C1)C2", 
	 "Tm": 313.15, 
	 "num_atms": 29, 
	 "gaussian": { 
		 "optdone": 1, 
		 "sigma_profile": "yes", 
		 "theory": "DFT", 
		 "functional": "B3LYP", 
		 "basiset": "6-31G**", 
		 "properties": { 
			 "R2extent": 2708.1292, 
			 "electric_dipole_moment_norm": 2.36446009694, 
			 "electric_quadrupole_moment_norm": 9.28776723223, 
			 "total_energy": -889.649201854, 
			 "HOMO_LUMO_gap": 0.31052, 
			 "cosmo_polarized_energy": -3.59, 
			 "cosmo_cavitation_energy": 27.67, 
			 "cosmo_dispersion_energy": -21.16, 
			 "cosmo_repulsion_energy": 1.64, 
			 "cosmo_total_nonelectrostatic_energy": 8.15, 
			 "SMD_solvation_energy": 2.87 
		},
		"coords": [
			{
				"x": -1.8070034298,
				"y": 3.5347284316,
				"z": 0.703652324,
				"element": "Cl" 
			},
			{
				"x": -0.4316350766,
				"y": 2.7193014903,
				"z": 1.5879266911,
				"element": "C" 
			},
			{
				"x": -0.2197856717,
				"y": 1.2488416924,
				"z": 1.2202874141,
				"element": "C" 
			},
			{
				"x": 0.1289026875,
				"y": 1.0710466604,
				"z": -0.2767126306,
				"element": "C" 
			},
			{
				"x": 0.4103284124,
				"y": -0.4132185848,
				"z": -0.5890720263,
				"element": "C" 
			},
			{
				"x": -0.8387476264,
				"y": -1.2539481833,
				"z": -0.2519185241,
				"element": "C" 
			},
			{
				"x": -1.175111522,
				"y": -1.1005218399,
				"z": 1.2460907539,
				"element": "C" 
			},
			{
				"x": 0.0182070869,
				"y": -1.5877761957,
				"z": 2.093237156,
				"element": "C" 
			},
			{
				"x": 1.2650918135,
				"y": -0.7445750879,
				"z": 1.7566185243,
				"element": "C" 
			},
			{
				"x": 1.6023319515,
				"y": -0.9009712261,
				"z": 0.2596465729,
				"element": "C" 
			},
			{
				"x": 0.980050958,
				"y": 0.7405450664,
				"z": 2.0668021864,
				"element": "C" 
			},
			{
				"x": -1.4571124949,
				"y": 0.3836064449,
				"z": 1.5586888211,
				"element": "C" 
			},
			{
				"x": -0.6648737567,
				"y": 2.8280035376,
				"z": 2.6494132808,
				"element": "H" 
			},
			{
				"x": 0.4549957464,
				"y": 3.3130021062,
				"z": 1.3547460244,
				"element": "H" 
			},
			{
				"x": -0.6986300353,
				"y": 1.4387652713,
				"z": -0.8935756998,
				"element": "H" 
			},
			{
				"x": 1.0079482674,
				"y": 1.6819840727,
				"z": -0.5252648563,
				"element": "H" 
			},
			{
				"x": 0.6488624818,
				"y": -0.5180520427,
				"z": -1.6549501167,
				"element": "H" 
			},
			{
				"x": -1.6892047481,
				"y": -0.9279151826,
				"z": -0.8644717174,
				"element": "H" 
			},
			{
				"x": -0.6581142521,
				"y": -2.3100209839,
				"z": -0.4914008432,
				"element": "H" 
			},
			{
				"x": -2.0655729551,
				"y": -1.6947611881,
				"z": 1.4868268797,
				"element": "H" 
			},
			{
				"x": -0.2177782118,
				"y": -1.5037539117,
				"z": 3.1622921352,
				"element": "H" 
			},
			{
				"x": 0.2170962668,
				"y": -2.6486244243,
				"z": 1.892921446,
				"element": "H" 
			},
			{
				"x": 2.1146554067,
				"y": -1.0802186476,
				"z": 2.3648487257,
				"element": "H" 
			},
			{
				"x": 1.8242763354,
				"y": -1.9518512458,
				"z": 0.0327486948,
				"element": "H" 
			},
			{
				"x": 2.5034034862,
				"y": -0.3241161835,
				"z": 0.0127856124,
				"element": "H" 
			},
			{
				"x": 0.7606893517,
				"y": 0.8639749594,
				"z": 3.1361504049,
				"element": "H" 
			},
			{
				"x": 1.8713084377,
				"y": 1.3455045593,
				"z": 1.8510905623,
				"element": "H" 
			},
			{
				"x": -1.7111310001,
				"y": 0.5035845455,
				"z": 2.6211371881,
				"element": "H" 
			},
			{
				"x": -2.3207479093,
				"y": 0.7354360899,
				"z": 0.9834550163,
				"element": "H" 
			}
		],
		 "valence_orbital": [ 
			{
				"type": "occ",
				"energy": -0.30093,
				"method": "rhf"
			},
			{
				"type": "occ",
				"energy": -0.28701,
				"method": "rhf"
			},
			{
				"type": "occ",
				"energy": -0.28249,
				"method": "rhf"
			},
			{
				"type": "occ",
				"energy": -0.28082,
				"method": "rhf"
			},
			{
				"type": "occ",
				"energy": -0.27872,
				"method": "rhf"
			},
			{
				"type": "unocc",
				"energy": 0.0318,
				"method": "rhf"
			},
			{
				"type": "unocc",
				"energy": 0.06441,
				"method": "rhf"
			},
			{
				"type": "unocc",
				"energy": 0.10335,
				"method": "rhf"
			},
			{
				"type": "unocc",
				"energy": 0.11086,
				"method": "rhf"
			},
			{
				"type": "unocc",
				"energy": 0.12352,
				"method": "rhf"
			}
		],
		"cosmo_sigma_profile": { 
			"-0.025": 0.0,
			"-0.024": 0.0,
			"-0.023": 0.0,
			"-0.022": 0.0,
			"-0.021": 0.0,
			"-0.02": 0.0,
			"-0.019": 0.0,
			"-0.018": 0.0,
			"-0.017": 0.0,
			"-0.016": 0.0,
			"-0.015": 0.0,
			"-0.014": 0.0,
			"-0.013": 0.0,
			"-0.012": 0.0,
			"-0.011": 0.0,
			"-0.01": 0.0,
			"-0.009": 0.0,
			"-0.008": 0.0,
			"-0.007": 0.029940568888,
			"-0.006": 2.94029846147,
			"-0.005": 4.96547600774,
			"-0.004": 6.82471685051,
			"-0.003": 11.0458331548,
			"-0.002": 33.5283080689,
			"-0.001": 42.587408859,
			"0.0": 39.9278582205,
			"0.001": 29.5464408886,
			"0.002": 11.3663773652,
			"0.003": 5.8445667433,
			"0.004": 4.51082070179,
			"0.005": 5.90182024302,
			"0.006": 7.24005126209,
			"0.007": 6.93648283839,
			"0.008": 0.695655205788,
			"0.009": 0.0,
			"0.01": 0.0,
			"0.011": 0.0,
			"0.012": 0.0,
			"0.013": 0.0,
			"0.014": 0.0,
			"0.015": 0.0,
			"0.016": 0.0,
			"0.017": 0.0,
			"0.018": 0.0,
			"0.019": 0.0,
			"0.02": 0.0,
			"0.021": 0.0,
			"0.022": 0.0,
			"0.023": 0.0,
			"0.024": 0.0,
			"0.025": 0.0
		}
	}
}
