{
	 "smiles": "OC(=O)CN1N=CC2=C1C=C(C=C2)[N+]([O-])=O", 
	 "Tm": 493.15, 
	 "num_atms": 23, 
	 "gaussian": { 
		 "optdone": 1, 
		 "sigma_profile": "yes", 
		 "theory": "DFT", 
		 "functional": "B3LYP", 
		 "basiset": "6-31G**", 
		 "properties": { 
			 "R2extent": 4920.8609, 
			 "electric_dipole_moment_norm": 5.28529940212, 
			 "electric_quadrupole_moment_norm": 28.3881219053, 
			 "total_energy": -812.21894563, 
			 "HOMO_LUMO_gap": 0.15001, 
			 "cosmo_polarized_energy": -18.0, 
			 "cosmo_cavitation_energy": 28.83, 
			 "cosmo_dispersion_energy": -21.3, 
			 "cosmo_repulsion_energy": 1.64, 
			 "cosmo_total_nonelectrostatic_energy": 9.17, 
			 "SMD_solvation_energy": 7.79 
		},
		"coords": [
			{
				"x": -0.0304339892,
				"y": 3.4512803466,
				"z": 2.657895365,
				"element": "O" 
			},
			{
				"x": 0.6642080386,
				"y": 2.3665417932,
				"z": 3.0060007221,
				"element": "C" 
			},
			{
				"x": 1.2542941965,
				"y": 2.2672353212,
				"z": 4.0537727361,
				"element": "O" 
			},
			{
				"x": 0.7741001307,
				"y": 1.2298287733,
				"z": 1.9653823623,
				"element": "C" 
			},
			{
				"x": -0.3552536144,
				"y": 1.0846589884,
				"z": 1.0557942095,
				"element": "N" 
			},
			{
				"x": -0.8864480832,
				"y": 2.181370369,
				"z": 0.4533248773,
				"element": "N" 
			},
			{
				"x": -1.8291275339,
				"y": 1.7635089738,
				"z": -0.3755580566,
				"element": "C" 
			},
			{
				"x": -1.9282959659,
				"y": 0.3444646625,
				"z": -0.3511188395,
				"element": "C" 
			},
			{
				"x": -0.9452288022,
				"y": -0.0620379082,
				"z": 0.5919228668,
				"element": "C" 
			},
			{
				"x": -0.7188960151,
				"y": -1.409968626,
				"z": 0.9000931647,
				"element": "C" 
			},
			{
				"x": -1.5218742243,
				"y": -2.3181011491,
				"z": 0.2329256687,
				"element": "C" 
			},
			{
				"x": -2.5139498411,
				"y": -1.9562452646,
				"z": -0.7058238166,
				"element": "C" 
			},
			{
				"x": -2.7204325301,
				"y": -0.6229711524,
				"z": -1.0015718794,
				"element": "C" 
			},
			{
				"x": -1.3229452699,
				"y": -3.7514461311,
				"z": 0.5213596209,
				"element": "N" 
			},
			{
				"x": -0.4499545602,
				"y": -4.0537482008,
				"z": 1.3338169576,
				"element": "O" 
			},
			{
				"x": -2.0421706319,
				"y": -4.5547926847,
				"z": -0.0691823799,
				"element": "O" 
			},
			{
				"x": -0.4272261774,
				"y": 3.3260588418,
				"z": 1.7625253308,
				"element": "H" 
			},
			{
				"x": 1.6952986018,
				"y": 1.39824148,
				"z": 1.3925352845,
				"element": "H" 
			},
			{
				"x": 0.8906313187,
				"y": 0.3016055893,
				"z": 2.5233242527,
				"element": "H" 
			},
			{
				"x": -2.4009013226,
				"y": 2.4789429652,
				"z": -0.9500641429,
				"element": "H" 
			},
			{
				"x": 0.0249542765,
				"y": -1.7565245591,
				"z": 1.6057275003,
				"element": "H" 
			},
			{
				"x": -3.0915960316,
				"y": -2.7415534332,
				"z": -1.1751137189,
				"element": "H" 
			},
			{
				"x": -3.4772519699,
				"y": -0.3288489951,
				"z": -1.7213680855,
				"element": "H" 
			}
		],
		 "valence_orbital": [ 
			{
				"type": "occ",
				"energy": -0.31778,
				"method": "rhf"
			},
			{
				"type": "occ",
				"energy": -0.30336,
				"method": "rhf"
			},
			{
				"type": "occ",
				"energy": -0.28999,
				"method": "rhf"
			},
			{
				"type": "occ",
				"energy": -0.28451,
				"method": "rhf"
			},
			{
				"type": "occ",
				"energy": -0.25752,
				"method": "rhf"
			},
			{
				"type": "unocc",
				"energy": -0.10751,
				"method": "rhf"
			},
			{
				"type": "unocc",
				"energy": -0.05622,
				"method": "rhf"
			},
			{
				"type": "unocc",
				"energy": -0.01659,
				"method": "rhf"
			},
			{
				"type": "unocc",
				"energy": 0.00118,
				"method": "rhf"
			},
			{
				"type": "unocc",
				"energy": 0.01877,
				"method": "rhf"
			}
		],
		"cosmo_sigma_profile": { 
			"-0.025": 0.0,
			"-0.024": 0.0,
			"-0.023": 0.0,
			"-0.022": 0.0,
			"-0.021": 0.0,
			"-0.02": 0.0,
			"-0.019": 0.0,
			"-0.018": 0.0,
			"-0.017": 0.0,
			"-0.016": 0.0,
			"-0.015": 0.0,
			"-0.014": 0.0,
			"-0.013": 0.0,
			"-0.012": 0.409962069226,
			"-0.011": 1.56718060129,
			"-0.01": 4.17218663678,
			"-0.009": 7.73779962174,
			"-0.008": 10.3441713418,
			"-0.007": 12.3806438868,
			"-0.006": 14.1279969664,
			"-0.005": 11.7342877956,
			"-0.004": 11.6846111056,
			"-0.003": 11.2017081219,
			"-0.002": 14.4129506842,
			"-0.001": 18.7476586682,
			"0.0": 19.2855529124,
			"0.001": 14.1420709214,
			"0.002": 9.93309111825,
			"0.003": 5.22033757048,
			"0.004": 5.99517363151,
			"0.005": 5.82709448618,
			"0.006": 6.86519746425,
			"0.007": 10.5748147107,
			"0.008": 9.64994062424,
			"0.009": 7.7260518742,
			"0.01": 7.06508041458,
			"0.011": 5.48178514179,
			"0.012": 4.93573782177,
			"0.013": 1.21545403371,
			"0.014": 0.0,
			"0.015": 0.0,
			"0.016": 0.0,
			"0.017": 0.0,
			"0.018": 0.0,
			"0.019": 0.0,
			"0.02": 0.0,
			"0.021": 0.0,
			"0.022": 0.0,
			"0.023": 0.0,
			"0.024": 0.0,
			"0.025": 0.0
		}
	}
}
