{
	 "smiles": "CC(C)C(Br)C(=O)N1CCC2=C(C1)C=CS2", 
	 "Tm": 358.15, 
	 "num_atms": 32, 
	 "gaussian": { 
		 "optdone": 1, 
		 "sigma_profile": "yes", 
		 "theory": "DFT", 
		 "functional": "B3LYP", 
		 "basiset": "6-31G**", 
		 "properties": { 
			 "R2extent": 6549.0052, 
			 "electric_dipole_moment_norm": 4.39406393445, 
			 "electric_quadrupole_moment_norm": 8.3872161335, 
			 "total_energy": -3566.49570206, 
			 "HOMO_LUMO_gap": 0.21696, 
			 "cosmo_polarized_energy": -14.16, 
			 "cosmo_cavitation_energy": 36.63, 
			 "cosmo_dispersion_energy": -26.42, 
			 "cosmo_repulsion_energy": 2.02, 
			 "cosmo_total_nonelectrostatic_energy": 12.23, 
			 "SMD_solvation_energy": 4.61 
		},
		"coords": [
			{
				"x": 3.2174204452,
				"y": -1.1722008656,
				"z": -0.7502974188,
				"element": "C" 
			},
			{
				"x": 1.7580066911,
				"y": -1.6098638034,
				"z": -0.5672019828,
				"element": "C" 
			},
			{
				"x": 1.5591938112,
				"y": -3.0849579144,
				"z": -0.9419775733,
				"element": "C" 
			},
			{
				"x": 1.182882429,
				"y": -1.2993639557,
				"z": 0.8340489397,
				"element": "C" 
			},
			{
				"x": 2.1991866373,
				"y": -2.201746332,
				"z": 2.2839797712,
				"element": "Br" 
			},
			{
				"x": 1.1471203042,
				"y": 0.2098365019,
				"z": 1.128718084,
				"element": "C" 
			},
			{
				"x": 2.1444760345,
				"y": 0.8047078881,
				"z": 1.5173129665,
				"element": "O" 
			},
			{
				"x": -0.0413038654,
				"y": 0.8646401112,
				"z": 0.8868470873,
				"element": "N" 
			},
			{
				"x": -0.1144762826,
				"y": 2.2987658992,
				"z": 1.1874082784,
				"element": "C" 
			},
			{
				"x": -0.3997260965,
				"y": 3.1134888311,
				"z": -0.0832888084,
				"element": "C" 
			},
			{
				"x": -1.5562779203,
				"y": 2.4791920089,
				"z": -0.8004400902,
				"element": "C" 
			},
			{
				"x": -1.9759386224,
				"y": 1.1923692872,
				"z": -0.5898857339,
				"element": "C" 
			},
			{
				"x": -1.2826867448,
				"y": 0.2680835995,
				"z": 0.3857418532,
				"element": "C" 
			},
			{
				"x": -3.1160321579,
				"y": 0.8373218276,
				"z": -1.3822379804,
				"element": "C" 
			},
			{
				"x": -3.5380108348,
				"y": 1.8579623355,
				"z": -2.1844832178,
				"element": "C" 
			},
			{
				"x": -2.5534042407,
				"y": 3.2767982891,
				"z": -1.9867813044,
				"element": "S" 
			},
			{
				"x": 3.3648055541,
				"y": -0.1261919664,
				"z": -0.4746558709,
				"element": "H" 
			},
			{
				"x": 3.5155035627,
				"y": -1.3079003224,
				"z": -1.7948815777,
				"element": "H" 
			},
			{
				"x": 3.8801511867,
				"y": -1.7772658105,
				"z": -0.1250402164,
				"element": "H" 
			},
			{
				"x": 1.1390024318,
				"y": -1.0049584781,
				"z": -1.2501638266,
				"element": "H" 
			},
			{
				"x": 1.8918082105,
				"y": -3.2635680601,
				"z": -1.9692862449,
				"element": "H" 
			},
			{
				"x": 2.138271077,
				"y": -3.7346630135,
				"z": -0.2793268445,
				"element": "H" 
			},
			{
				"x": 0.5068077244,
				"y": -3.383314649,
				"z": -0.8728746045,
				"element": "H" 
			},
			{
				"x": 0.1999305361,
				"y": -1.7548067678,
				"z": 0.9320176023,
				"element": "H" 
			},
			{
				"x": -0.919605678,
				"y": 2.4620821703,
				"z": 1.9161771833,
				"element": "H" 
			},
			{
				"x": 0.8340639632,
				"y": 2.5830499291,
				"z": 1.639644901,
				"element": "H" 
			},
			{
				"x": -0.6186311342,
				"y": 4.1521378132,
				"z": 0.1907979574,
				"element": "H" 
			},
			{
				"x": 0.4951516413,
				"y": 3.1323554901,
				"z": -0.7188612746,
				"element": "H" 
			},
			{
				"x": -1.0650134657,
				"y": -0.6736895009,
				"z": -0.1207031455,
				"element": "H" 
			},
			{
				"x": -1.9580169247,
				"y": 0.0309002108,
				"z": 1.2243832911,
				"element": "H" 
			},
			{
				"x": -3.5953079968,
				"y": -0.1357200121,
				"z": -1.3538771214,
				"element": "H" 
			},
			{
				"x": -4.3642502753,
				"y": 1.865519259,
				"z": -2.8815130784,
				"element": "H" 
			}
		],
		 "valence_orbital": [ 
			{
				"type": "occ",
				"energy": -0.26591,
				"method": "rhf"
			},
			{
				"type": "occ",
				"energy": -0.25729,
				"method": "rhf"
			},
			{
				"type": "occ",
				"energy": -0.25327,
				"method": "rhf"
			},
			{
				"type": "occ",
				"energy": -0.24546,
				"method": "rhf"
			},
			{
				"type": "occ",
				"energy": -0.23488,
				"method": "rhf"
			},
			{
				"type": "unocc",
				"energy": -0.01792,
				"method": "rhf"
			},
			{
				"type": "unocc",
				"energy": -0.01609,
				"method": "rhf"
			},
			{
				"type": "unocc",
				"energy": 0.01995,
				"method": "rhf"
			},
			{
				"type": "unocc",
				"energy": 0.03625,
				"method": "rhf"
			},
			{
				"type": "unocc",
				"energy": 0.04972,
				"method": "rhf"
			}
		],
		"cosmo_sigma_profile": { 
			"-0.025": 0.0,
			"-0.024": 0.0,
			"-0.023": 0.0,
			"-0.022": 0.0,
			"-0.021": 0.0,
			"-0.02": 0.0,
			"-0.019": 0.0,
			"-0.018": 0.0,
			"-0.017": 0.0,
			"-0.016": 0.0,
			"-0.015": 0.0,
			"-0.014": 0.0,
			"-0.013": 0.0,
			"-0.012": 0.0,
			"-0.011": 0.0,
			"-0.01": 0.297644676648,
			"-0.009": 1.77785095248,
			"-0.008": 4.88136685859,
			"-0.007": 6.65628489349,
			"-0.006": 11.0107661971,
			"-0.005": 21.3622605289,
			"-0.004": 24.9293512479,
			"-0.003": 26.4131330338,
			"-0.002": 26.6848578689,
			"-0.001": 24.4966419118,
			"0.0": 25.3717727826,
			"0.001": 23.7868797065,
			"0.002": 15.6122959238,
			"0.003": 14.3113447127,
			"0.004": 18.2461402194,
			"0.005": 18.0933293909,
			"0.006": 9.48568776054,
			"0.007": 3.21778782512,
			"0.008": 1.74610986806,
			"0.009": 1.94495279787,
			"0.01": 2.32903783688,
			"0.011": 1.74558597598,
			"0.012": 2.55040262077,
			"0.013": 4.07279938463,
			"0.014": 2.18881230019,
			"0.015": 0.27555892039,
			"0.016": 0.0,
			"0.017": 0.0,
			"0.018": 0.0,
			"0.019": 0.0,
			"0.02": 0.0,
			"0.021": 0.0,
			"0.022": 0.0,
			"0.023": 0.0,
			"0.024": 0.0,
			"0.025": 0.0
		}
	}
}
