{
	 "smiles": "OC(=O)C1=NN(C2=C1CCCCC2)C1=CC=CC=C1", 
	 "Tm": 445.15, 
	 "num_atms": 35, 
	 "gaussian": { 
		 "optdone": 1, 
		 "sigma_profile": "yes", 
		 "theory": "DFT", 
		 "functional": "B3LYP", 
		 "basiset": "6-31G**", 
		 "properties": { 
			 "R2extent": 6514.337, 
			 "electric_dipole_moment_norm": 3.5664939156, 
			 "electric_quadrupole_moment_norm": 7.13157552999, 
			 "total_energy": -841.20270583, 
			 "HOMO_LUMO_gap": 0.19342, 
			 "cosmo_polarized_energy": -13.92, 
			 "cosmo_cavitation_energy": 36.9, 
			 "cosmo_dispersion_energy": -26.81, 
			 "cosmo_repulsion_energy": 2.07, 
			 "cosmo_total_nonelectrostatic_energy": 12.16, 
			 "SMD_solvation_energy": 5.68 
		},
		"coords": [
			{
				"x": -2.513674775,
				"y": 1.3435115265,
				"z": -4.584112376,
				"element": "O" 
			},
			{
				"x": -2.8145438224,
				"y": 0.3766589543,
				"z": -3.6880169354,
				"element": "C" 
			},
			{
				"x": -3.7232109549,
				"y": -0.4156776082,
				"z": -3.8701269298,
				"element": "O" 
			},
			{
				"x": -1.9445705523,
				"y": 0.3854262377,
				"z": -2.4988959123,
				"element": "C" 
			},
			{
				"x": -0.9673358735,
				"y": 1.2868569916,
				"z": -2.3679035709,
				"element": "N" 
			},
			{
				"x": -0.4013618766,
				"y": 1.0085075091,
				"z": -1.1792198939,
				"element": "N" 
			},
			{
				"x": -0.993972514,
				"y": -0.0708041247,
				"z": -0.5466583499,
				"element": "C" 
			},
			{
				"x": -2.0150641419,
				"y": -0.4962684299,
				"z": -1.3827894694,
				"element": "C" 
			},
			{
				"x": -2.9931212715,
				"y": -1.6174392164,
				"z": -1.1408409758,
				"element": "C" 
			},
			{
				"x": -3.256287855,
				"y": -1.8803636505,
				"z": 0.352161473,
				"element": "C" 
			},
			{
				"x": -2.1422962518,
				"y": -2.6479615838,
				"z": 1.0890935479,
				"element": "C" 
			},
			{
				"x": -0.7011571956,
				"y": -2.2053709157,
				"z": 0.7738407859,
				"element": "C" 
			},
			{
				"x": -0.4811970492,
				"y": -0.6807864808,
				"z": 0.7305326303,
				"element": "C" 
			},
			{
				"x": 0.7051128202,
				"y": 1.8021001385,
				"z": -0.7564334459,
				"element": "C" 
			},
			{
				"x": 1.6674334023,
				"y": 2.1739559122,
				"z": -1.7018516537,
				"element": "C" 
			},
			{
				"x": 2.74564047,
				"y": 2.9639663884,
				"z": -1.3101242279,
				"element": "C" 
			},
			{
				"x": 2.8746341831,
				"y": 3.3780578069,
				"z": 0.0182410758,
				"element": "C" 
			},
			{
				"x": 1.9068339982,
				"y": 3.0105645633,
				"z": 0.9535967671,
				"element": "C" 
			},
			{
				"x": 0.8146063575,
				"y": 2.2311108945,
				"z": 0.5699715161,
				"element": "C" 
			},
			{
				"x": -3.1526867388,
				"y": 1.2273032414,
				"z": -5.3066896447,
				"element": "H" 
			},
			{
				"x": -2.6447299957,
				"y": -2.5391433866,
				"z": -1.6295109485,
				"element": "H" 
			},
			{
				"x": -3.9265257602,
				"y": -1.3636602575,
				"z": -1.6485247844,
				"element": "H" 
			},
			{
				"x": -3.4318796186,
				"y": -0.9158937244,
				"z": 0.8455737695,
				"element": "H" 
			},
			{
				"x": -4.1901411296,
				"y": -2.4450116984,
				"z": 0.4577577929,
				"element": "H" 
			},
			{
				"x": -2.2241609522,
				"y": -3.717497287,
				"z": 0.856379354,
				"element": "H" 
			},
			{
				"x": -2.3194162764,
				"y": -2.5598666582,
				"z": 2.1691069811,
				"element": "H" 
			},
			{
				"x": -0.383713922,
				"y": -2.6233684633,
				"z": -0.1886617011,
				"element": "H" 
			},
			{
				"x": -0.0317213403,
				"y": -2.6362046727,
				"z": 1.5277248672,
				"element": "H" 
			},
			{
				"x": -0.9504094666,
				"y": -0.2153719487,
				"z": 1.6095162466,
				"element": "H" 
			},
			{
				"x": 0.5895566296,
				"y": -0.4680803008,
				"z": 0.8156756438,
				"element": "H" 
			},
			{
				"x": 1.5489319705,
				"y": 1.8473064391,
				"z": -2.728234689,
				"element": "H" 
			},
			{
				"x": 3.4910702707,
				"y": 3.2521017059,
				"z": -2.0453567451,
				"element": "H" 
			},
			{
				"x": 3.7200552125,
				"y": 3.9890012546,
				"z": 0.319837255,
				"element": "H" 
			},
			{
				"x": 1.989076956,
				"y": 3.3428058985,
				"z": 1.9841669779,
				"element": "H" 
			},
			{
				"x": 0.042227064,
				"y": 1.9810349448,
				"z": 1.2882755693,
				"element": "H" 
			}
		],
		 "valence_orbital": [ 
			{
				"type": "occ",
				"energy": -0.28198,
				"method": "rhf"
			},
			{
				"type": "occ",
				"energy": -0.26529,
				"method": "rhf"
			},
			{
				"type": "occ",
				"energy": -0.26181,
				"method": "rhf"
			},
			{
				"type": "occ",
				"energy": -0.23983,
				"method": "rhf"
			},
			{
				"type": "occ",
				"energy": -0.22927,
				"method": "rhf"
			},
			{
				"type": "unocc",
				"energy": -0.03585,
				"method": "rhf"
			},
			{
				"type": "unocc",
				"energy": -0.01286,
				"method": "rhf"
			},
			{
				"type": "unocc",
				"energy": -0.0046,
				"method": "rhf"
			},
			{
				"type": "unocc",
				"energy": 0.03634,
				"method": "rhf"
			},
			{
				"type": "unocc",
				"energy": 0.07765,
				"method": "rhf"
			}
		],
		"cosmo_sigma_profile": { 
			"-0.025": 0.0,
			"-0.024": 0.0,
			"-0.023": 0.0,
			"-0.022": 0.0,
			"-0.021": 0.0,
			"-0.02": 0.0,
			"-0.019": 0.0475093379349,
			"-0.018": 0.660429197855,
			"-0.017": 0.794273590145,
			"-0.016": 1.07979609914,
			"-0.015": 0.795139116107,
			"-0.014": 0.814705201456,
			"-0.013": 0.203584316787,
			"-0.012": 0.678340226207,
			"-0.011": 0.800976593504,
			"-0.01": 0.621156910482,
			"-0.009": 0.352512530005,
			"-0.008": 0.646676115692,
			"-0.007": 4.36007248749,
			"-0.006": 11.3525477401,
			"-0.005": 13.6888303894,
			"-0.004": 15.0863574074,
			"-0.003": 25.0078504818,
			"-0.002": 38.3179189199,
			"-0.001": 37.2511571121,
			"0.0": 29.2515289652,
			"0.001": 22.6918403599,
			"0.002": 16.1871463394,
			"0.003": 14.9310999335,
			"0.004": 15.3489734966,
			"0.005": 8.33404063787,
			"0.006": 4.15157302373,
			"0.007": 3.41509634911,
			"0.008": 2.91408606582,
			"0.009": 3.6976301272,
			"0.01": 4.28945078647,
			"0.011": 4.71616721916,
			"0.012": 5.25351163108,
			"0.013": 1.40689874836,
			"0.014": 1.38215345902,
			"0.015": 0.956376332252,
			"0.016": 0.0585244398821,
			"0.017": 0.0,
			"0.018": 0.0,
			"0.019": 0.0,
			"0.02": 0.0,
			"0.021": 0.0,
			"0.022": 0.0,
			"0.023": 0.0,
			"0.024": 0.0,
			"0.025": 0.0
		}
	}
}
