{
	 "smiles": "CC1=CC2=C(NC(=O)C2=NO)C=C1", 
	 "Tm": 513.15, 
	 "num_atms": 21, 
	 "gaussian": { 
		 "optdone": 1, 
		 "sigma_profile": "yes", 
		 "theory": "DFT", 
		 "functional": "B3LYP", 
		 "basiset": "6-31G**", 
		 "properties": { 
			 "R2extent": 3101.1, 
			 "electric_dipole_moment_norm": 3.77430649259, 
			 "electric_quadrupole_moment_norm": 21.934722724, 
			 "total_energy": -607.690716971, 
			 "HOMO_LUMO_gap": 0.14501, 
			 "cosmo_polarized_energy": -15.75, 
			 "cosmo_cavitation_energy": 25.79, 
			 "cosmo_dispersion_energy": -19.17, 
			 "cosmo_repulsion_energy": 1.52, 
			 "cosmo_total_nonelectrostatic_energy": 8.15, 
			 "SMD_solvation_energy": 5.03 
		},
		"coords": [
			{
				"x": -1.4332809906,
				"y": -1.6954926819,
				"z": -1.1527143453,
				"element": "C" 
			},
			{
				"x": -1.1234337498,
				"y": -0.5576914896,
				"z": -0.2067068128,
				"element": "C" 
			},
			{
				"x": 0.0951106035,
				"y": 0.1356797563,
				"z": -0.307807818,
				"element": "C" 
			},
			{
				"x": 0.3777216708,
				"y": 1.1725363565,
				"z": 0.5784969667,
				"element": "C" 
			},
			{
				"x": -0.5601676923,
				"y": 1.5272909595,
				"z": 1.5766362208,
				"element": "C" 
			},
			{
				"x": -0.0586276932,
				"y": 2.5886790384,
				"z": 2.3373806724,
				"element": "N" 
			},
			{
				"x": 1.2009862273,
				"y": 2.9957908288,
				"z": 1.9106679334,
				"element": "C" 
			},
			{
				"x": 1.8650285683,
				"y": 3.8909791809,
				"z": 2.39019862,
				"element": "O" 
			},
			{
				"x": 1.5172217361,
				"y": 2.0738527327,
				"z": 0.7433097205,
				"element": "C" 
			},
			{
				"x": 2.6412140093,
				"y": 2.2178256661,
				"z": 0.13516991,
				"element": "N" 
			},
			{
				"x": 2.7881716124,
				"y": 1.3100976137,
				"z": -0.903453565,
				"element": "O" 
			},
			{
				"x": -1.7688881873,
				"y": 0.8594438012,
				"z": 1.694191108,
				"element": "C" 
			},
			{
				"x": -2.0313522133,
				"y": -0.1807162821,
				"z": 0.7913556705,
				"element": "C" 
			},
			{
				"x": -0.7996955857,
				"y": -2.567946414,
				"z": -0.9517426193,
				"element": "H" 
			},
			{
				"x": -2.4745311381,
				"y": -2.0171817889,
				"z": -1.0619067598,
				"element": "H" 
			},
			{
				"x": -1.2619078664,
				"y": -1.4073934339,
				"z": -2.1955788809,
				"element": "H" 
			},
			{
				"x": 0.8169728161,
				"y": -0.1296297593,
				"z": -1.0711547236,
				"element": "H" 
			},
			{
				"x": -0.5287950479,
				"y": 3.0322760411,
				"z": 3.1114509529,
				"element": "H" 
			},
			{
				"x": 3.6598731739,
				"y": 1.5346858398,
				"z": -1.257861392,
				"element": "H" 
			},
			{
				"x": -2.493673641,
				"y": 1.1293665495,
				"z": 2.4561406038,
				"element": "H" 
			},
			{
				"x": -2.9761466122,
				"y": -0.7123525148,
				"z": 0.8708285378,
				"element": "H" 
			}
		],
		 "valence_orbital": [ 
			{
				"type": "occ",
				"energy": -0.29585,
				"method": "rhf"
			},
			{
				"type": "occ",
				"energy": -0.28955,
				"method": "rhf"
			},
			{
				"type": "occ",
				"energy": -0.26012,
				"method": "rhf"
			},
			{
				"type": "occ",
				"energy": -0.24791,
				"method": "rhf"
			},
			{
				"type": "occ",
				"energy": -0.21614,
				"method": "rhf"
			},
			{
				"type": "unocc",
				"energy": -0.07113,
				"method": "rhf"
			},
			{
				"type": "unocc",
				"energy": -0.00918,
				"method": "rhf"
			},
			{
				"type": "unocc",
				"energy": 0.02306,
				"method": "rhf"
			},
			{
				"type": "unocc",
				"energy": 0.0608,
				"method": "rhf"
			},
			{
				"type": "unocc",
				"energy": 0.0887,
				"method": "rhf"
			}
		],
		"cosmo_sigma_profile": { 
			"-0.025": 0.0,
			"-0.024": 0.0,
			"-0.023": 0.0,
			"-0.022": 0.0,
			"-0.021": 0.0,
			"-0.02": 0.0,
			"-0.019": 0.363258790044,
			"-0.018": 1.06062486306,
			"-0.017": 1.33616919005,
			"-0.016": 1.67792612002,
			"-0.015": 2.547077418,
			"-0.014": 1.46688235013,
			"-0.013": 1.22465097691,
			"-0.012": 1.64619458522,
			"-0.011": 2.08994406036,
			"-0.01": 2.67987269475,
			"-0.009": 1.37882190233,
			"-0.008": 1.87745945568,
			"-0.007": 3.34913507881,
			"-0.006": 4.84876567925,
			"-0.005": 7.99428893703,
			"-0.004": 13.532847625,
			"-0.003": 13.7912998474,
			"-0.002": 14.7511664919,
			"-0.001": 15.3224026031,
			"0.0": 18.9107709984,
			"0.001": 14.3570270065,
			"0.002": 14.5751427406,
			"0.003": 14.5211554405,
			"0.004": 14.9054567009,
			"0.005": 5.96983329095,
			"0.006": 3.80150597543,
			"0.007": 3.45421281637,
			"0.008": 1.13364073471,
			"0.009": 2.81605672237,
			"0.01": 2.57594955989,
			"0.011": 3.14046926649,
			"0.012": 7.34935179619,
			"0.013": 4.5073858764,
			"0.014": 0.944478740302,
			"0.015": 0.0,
			"0.016": 0.0,
			"0.017": 0.0,
			"0.018": 0.0,
			"0.019": 0.0,
			"0.02": 0.0,
			"0.021": 0.0,
			"0.022": 0.0,
			"0.023": 0.0,
			"0.024": 0.0,
			"0.025": 0.0
		}
	}
}
