{
	 "smiles": "CC1=NC2=C(CCC(C2)C(O)=O)N1", 
	 "Tm": 503.15, 
	 "num_atms": 25, 
	 "gaussian": { 
		 "optdone": 1, 
		 "sigma_profile": "yes", 
		 "theory": "DFT", 
		 "functional": "B3LYP", 
		 "basiset": "6-31G**", 
		 "properties": { 
			 "R2extent": 2800.2052, 
			 "electric_dipole_moment_norm": 6.27876868263, 
			 "electric_quadrupole_moment_norm": 22.2204554726, 
			 "total_energy": -610.169132143, 
			 "HOMO_LUMO_gap": 0.23724, 
			 "cosmo_polarized_energy": -19.27, 
			 "cosmo_cavitation_energy": 27.15, 
			 "cosmo_dispersion_energy": -20.12, 
			 "cosmo_repulsion_energy": 1.61, 
			 "cosmo_total_nonelectrostatic_energy": 8.63, 
			 "SMD_solvation_energy": 3.03 
		},
		"coords": [
			{
				"x": -0.7266013969,
				"y": 4.0924851161,
				"z": 2.4296435122,
				"element": "C" 
			},
			{
				"x": -0.4574728772,
				"y": 2.8328048313,
				"z": 1.6725508029,
				"element": "C" 
			},
			{
				"x": -0.0464408618,
				"y": 2.7562764737,
				"z": 0.4227847032,
				"element": "N" 
			},
			{
				"x": 0.0721001411,
				"y": 1.4056406544,
				"z": 0.1525082604,
				"element": "C" 
			},
			{
				"x": -0.2729202667,
				"y": 0.6543235767,
				"z": 1.2520152055,
				"element": "C" 
			},
			{
				"x": -0.2693963755,
				"y": -0.8381285946,
				"z": 1.3511123813,
				"element": "C" 
			},
			{
				"x": -0.1884551301,
				"y": -1.4218179819,
				"z": -0.0779841438,
				"element": "C" 
			},
			{
				"x": 0.8362474441,
				"y": -0.69168226,
				"z": -0.9911227502,
				"element": "C" 
			},
			{
				"x": 0.4749808515,
				"y": 0.8056502653,
				"z": -1.1646511196,
				"element": "C" 
			},
			{
				"x": 2.2597105841,
				"y": -0.9483197454,
				"z": -0.4775592117,
				"element": "C" 
			},
			{
				"x": 2.7671303944,
				"y": -0.0646154558,
				"z": 0.4180455023,
				"element": "O" 
			},
			{
				"x": 2.9070063864,
				"y": -1.9108174987,
				"z": -0.8145496146,
				"element": "O" 
			},
			{
				"x": -0.6090166798,
				"y": 1.5795561057,
				"z": 2.2225734599,
				"element": "N" 
			},
			{
				"x": -0.5372116832,
				"y": 4.9392759302,
				"z": 1.7688965366,
				"element": "H" 
			},
			{
				"x": -1.7659001047,
				"y": 4.1480766837,
				"z": 2.7743504941,
				"element": "H" 
			},
			{
				"x": -0.0786166668,
				"y": 4.1884792064,
				"z": 3.3089007328,
				"element": "H" 
			},
			{
				"x": 0.5815422481,
				"y": -1.1882831825,
				"z": 1.9524027267,
				"element": "H" 
			},
			{
				"x": -1.1734475642,
				"y": -1.2109402728,
				"z": 1.8491639952,
				"element": "H" 
			},
			{
				"x": -1.1737166051,
				"y": -1.3408362787,
				"z": -0.5516714356,
				"element": "H" 
			},
			{
				"x": 0.0650208757,
				"y": -2.4850881919,
				"z": -0.0337454991,
				"element": "H" 
			},
			{
				"x": 0.8124861179,
				"y": -1.1830069304,
				"z": -1.9672959698,
				"element": "H" 
			},
			{
				"x": 1.3121009172,
				"y": 1.3598801692,
				"z": -1.6050244818,
				"element": "H" 
			},
			{
				"x": -0.350807474,
				"y": 0.889021555,
				"z": -1.8835638211,
				"element": "H" 
			},
			{
				"x": 2.1109399761,
				"y": 0.6278873605,
				"z": 0.6127871154,
				"element": "H" 
			},
			{
				"x": -0.9019622506,
				"y": 1.3745784649,
				"z": 3.1662326188,
				"element": "H" 
			}
		],
		 "valence_orbital": [ 
			{
				"type": "occ",
				"energy": -0.30006,
				"method": "rhf"
			},
			{
				"type": "occ",
				"energy": -0.28406,
				"method": "rhf"
			},
			{
				"type": "occ",
				"energy": -0.27167,
				"method": "rhf"
			},
			{
				"type": "occ",
				"energy": -0.25481,
				"method": "rhf"
			},
			{
				"type": "occ",
				"energy": -0.22353,
				"method": "rhf"
			},
			{
				"type": "unocc",
				"energy": 0.01371,
				"method": "rhf"
			},
			{
				"type": "unocc",
				"energy": 0.01956,
				"method": "rhf"
			},
			{
				"type": "unocc",
				"energy": 0.04841,
				"method": "rhf"
			},
			{
				"type": "unocc",
				"energy": 0.06481,
				"method": "rhf"
			},
			{
				"type": "unocc",
				"energy": 0.08078,
				"method": "rhf"
			}
		],
		"cosmo_sigma_profile": { 
			"-0.025": 0.0,
			"-0.024": 0.0,
			"-0.023": 0.0,
			"-0.022": 0.0,
			"-0.021": 0.0,
			"-0.02": 0.0,
			"-0.019": 0.0,
			"-0.018": 0.0,
			"-0.017": 0.0,
			"-0.016": 0.90669792308,
			"-0.015": 1.4387446848,
			"-0.014": 1.30546094992,
			"-0.013": 1.27774171349,
			"-0.012": 0.717582004767,
			"-0.011": 1.83901023773,
			"-0.01": 1.63074331159,
			"-0.009": 2.12734962447,
			"-0.008": 2.39831271763,
			"-0.007": 2.14764383599,
			"-0.006": 5.41052134716,
			"-0.005": 18.5341063558,
			"-0.004": 30.1390684872,
			"-0.003": 23.8080785407,
			"-0.002": 20.5969015325,
			"-0.001": 18.2087332637,
			"0.0": 9.37659714998,
			"0.001": 6.78032853305,
			"0.002": 5.95208189958,
			"0.003": 5.17258184569,
			"0.004": 5.63774614869,
			"0.005": 3.62825849531,
			"0.006": 3.99238204728,
			"0.007": 3.15305245477,
			"0.008": 4.11747299855,
			"0.009": 4.5337713685,
			"0.01": 4.96551496876,
			"0.011": 6.60920585683,
			"0.012": 6.88519924194,
			"0.013": 4.37070091285,
			"0.014": 1.03459680275,
			"0.015": 1.37837245294,
			"0.016": 0.945490669493,
			"0.017": 1.05938508942,
			"0.018": 0.60468549616,
			"0.019": 0.334650460826,
			"0.02": 0.0,
			"0.021": 0.0,
			"0.022": 0.0,
			"0.023": 0.0,
			"0.024": 0.0,
			"0.025": 0.0
		}
	}
}
