{
	 "smiles": "COC1=CC=C(NC(=O)C=C)C=C1", 
	 "Tm": 371.15, 
	 "num_atms": 24, 
	 "gaussian": { 
		 "optdone": 1, 
		 "sigma_profile": "yes", 
		 "theory": "DFT", 
		 "functional": "B3LYP", 
		 "basiset": "6-31G**", 
		 "properties": { 
			 "R2extent": 4232.6653, 
			 "electric_dipole_moment_norm": 4.30226150065, 
			 "electric_quadrupole_moment_norm": 15.1135831436, 
			 "total_energy": -592.873539009, 
			 "HOMO_LUMO_gap": 0.15883, 
			 "cosmo_polarized_energy": -14.79, 
			 "cosmo_cavitation_energy": 28.52, 
			 "cosmo_dispersion_energy": -20.91, 
			 "cosmo_repulsion_energy": 1.63, 
			 "cosmo_total_nonelectrostatic_energy": 9.24, 
			 "SMD_solvation_energy": 6.93 
		},
		"coords": [
			{
				"x": -0.7853655064,
				"y": -2.1862467497,
				"z": 5.0673900778,
				"element": "C" 
			},
			{
				"x": -0.0836339339,
				"y": -2.6718530302,
				"z": 3.9363094506,
				"element": "O" 
			},
			{
				"x": 0.1773524298,
				"y": -1.7990123514,
				"z": 2.9170095409,
				"element": "C" 
			},
			{
				"x": -0.1975307714,
				"y": -0.4513946751,
				"z": 2.9034596169,
				"element": "C" 
			},
			{
				"x": 0.1258834885,
				"y": 0.3433102826,
				"z": 1.8030955136,
				"element": "C" 
			},
			{
				"x": 0.8205696549,
				"y": -0.179600726,
				"z": 0.7064954932,
				"element": "C" 
			},
			{
				"x": 1.1081888234,
				"y": 0.6922735763,
				"z": -0.3660235853,
				"element": "N" 
			},
			{
				"x": 1.7713045942,
				"y": 0.428143613,
				"z": -1.544720231,
				"element": "C" 
			},
			{
				"x": 2.2323216132,
				"y": -0.6690566829,
				"z": -1.8445026267,
				"element": "O" 
			},
			{
				"x": 1.8803294575,
				"y": 1.6199990564,
				"z": -2.4411045491,
				"element": "C" 
			},
			{
				"x": 2.4957726042,
				"y": 1.5265246708,
				"z": -3.6209009851,
				"element": "C" 
			},
			{
				"x": 1.1957197937,
				"y": -1.5355018821,
				"z": 0.7242767924,
				"element": "C" 
			},
			{
				"x": 0.8732766509,
				"y": -2.3253419105,
				"z": 1.8199346602,
				"element": "C" 
			},
			{
				"x": -0.2352623161,
				"y": -1.3813505973,
				"z": 5.5730018419,
				"element": "H" 
			},
			{
				"x": -1.7857160437,
				"y": -1.8205825204,
				"z": 4.7996202942,
				"element": "H" 
			},
			{
				"x": -0.8853307489,
				"y": -3.0328226949,
				"z": 5.7486227584,
				"element": "H" 
			},
			{
				"x": -0.7361888248,
				"y": -0.0086898614,
				"z": 3.7326613733,
				"element": "H" 
			},
			{
				"x": -0.1713611353,
				"y": 1.3900717558,
				"z": 1.804728959,
				"element": "H" 
			},
			{
				"x": 0.7784612746,
				"y": 1.638837117,
				"z": -0.2432648173,
				"element": "H" 
			},
			{
				"x": 1.4477031114,
				"y": 2.5633735245,
				"z": -2.1110001225,
				"element": "H" 
			},
			{
				"x": 2.5880665056,
				"y": 2.3762888895,
				"z": -4.2891641673,
				"element": "H" 
			},
			{
				"x": 2.9204880441,
				"y": 0.5767010672,
				"z": -3.9314707485,
				"element": "H" 
			},
			{
				"x": 1.7323942471,
				"y": -1.9467103135,
				"z": -0.1187179417,
				"element": "H" 
			},
			{
				"x": 1.1575569872,
				"y": -3.3723595576,
				"z": 1.8444634021,
				"element": "H" 
			}
		],
		 "valence_orbital": [ 
			{
				"type": "occ",
				"energy": -0.28225,
				"method": "rhf"
			},
			{
				"type": "occ",
				"energy": -0.2744,
				"method": "rhf"
			},
			{
				"type": "occ",
				"energy": -0.25165,
				"method": "rhf"
			},
			{
				"type": "occ",
				"energy": -0.25051,
				"method": "rhf"
			},
			{
				"type": "occ",
				"energy": -0.19933,
				"method": "rhf"
			},
			{
				"type": "unocc",
				"energy": -0.0405,
				"method": "rhf"
			},
			{
				"type": "unocc",
				"energy": -0.00125,
				"method": "rhf"
			},
			{
				"type": "unocc",
				"energy": 0.02624,
				"method": "rhf"
			},
			{
				"type": "unocc",
				"energy": 0.06613,
				"method": "rhf"
			},
			{
				"type": "unocc",
				"energy": 0.0949,
				"method": "rhf"
			}
		],
		"cosmo_sigma_profile": { 
			"-0.025": 0.0,
			"-0.024": 0.0,
			"-0.023": 0.0,
			"-0.022": 0.0,
			"-0.021": 0.0,
			"-0.02": 0.0,
			"-0.019": 0.0,
			"-0.018": 0.0,
			"-0.017": 0.0,
			"-0.016": 0.385729735408,
			"-0.015": 1.20245919245,
			"-0.014": 1.3732236489,
			"-0.013": 1.41737121975,
			"-0.012": 1.4346969269,
			"-0.011": 1.21881119589,
			"-0.01": 2.57849973595,
			"-0.009": 0.906253261754,
			"-0.008": 2.34481846949,
			"-0.007": 4.46082435426,
			"-0.006": 11.6041122662,
			"-0.005": 17.8787753964,
			"-0.004": 18.298741644,
			"-0.003": 18.0872450926,
			"-0.002": 14.8164152001,
			"-0.001": 11.7956785958,
			"0.0": 12.4039731914,
			"0.001": 12.1157974586,
			"0.002": 14.1748114061,
			"0.003": 16.7470682361,
			"0.004": 18.0531483096,
			"0.005": 16.6101247551,
			"0.006": 5.91769605558,
			"0.007": 3.83360119948,
			"0.008": 2.93519319491,
			"0.009": 2.49325444227,
			"0.01": 3.10751176404,
			"0.011": 2.84648375657,
			"0.012": 2.14383272507,
			"0.013": 3.39048869907,
			"0.014": 1.04827267619,
			"0.015": 0.0,
			"0.016": 0.0,
			"0.017": 0.0,
			"0.018": 0.0,
			"0.019": 0.0,
			"0.02": 0.0,
			"0.021": 0.0,
			"0.022": 0.0,
			"0.023": 0.0,
			"0.024": 0.0,
			"0.025": 0.0
		}
	}
}
