{
	 "smiles": "CNC1=NC(=NO1)C1=CC=CC=C1", 
	 "Tm": 398.15, 
	 "num_atms": 22, 
	 "gaussian": { 
		 "optdone": 1, 
		 "sigma_profile": "yes", 
		 "theory": "DFT", 
		 "functional": "B3LYP", 
		 "basiset": "6-31G**", 
		 "properties": { 
			 "R2extent": 3482.9478, 
			 "electric_dipole_moment_norm": 3.05639161431, 
			 "electric_quadrupole_moment_norm": 16.1352355204, 
			 "total_energy": -587.830205281, 
			 "HOMO_LUMO_gap": 0.19245, 
			 "cosmo_polarized_energy": -11.86, 
			 "cosmo_cavitation_energy": 26.72, 
			 "cosmo_dispersion_energy": -20.02, 
			 "cosmo_repulsion_energy": 1.59, 
			 "cosmo_total_nonelectrostatic_energy": 8.29, 
			 "SMD_solvation_energy": 2.97 
		},
		"coords": [
			{
				"x": -3.0196409496,
				"y": -1.3005208638,
				"z": 1.7749414181,
				"element": "C" 
			},
			{
				"x": -1.9391218058,
				"y": -0.4785332671,
				"z": 2.2994983917,
				"element": "N" 
			},
			{
				"x": -1.2023503528,
				"y": 0.3027627659,
				"z": 1.4793652249,
				"element": "C" 
			},
			{
				"x": -1.1699614568,
				"y": 0.2952765532,
				"z": 0.1707222953,
				"element": "N" 
			},
			{
				"x": -0.2149169015,
				"y": 1.256222407,
				"z": -0.0899737849,
				"element": "C" 
			},
			{
				"x": 0.3090079518,
				"y": 1.8316595079,
				"z": 0.9696436019,
				"element": "N" 
			},
			{
				"x": -0.3617987877,
				"y": 1.1857058873,
				"z": 2.0482776123,
				"element": "O" 
			},
			{
				"x": 0.1895755042,
				"y": 1.6187957067,
				"z": -1.4570423302,
				"element": "C" 
			},
			{
				"x": -0.4039106462,
				"y": 0.9724160527,
				"z": -2.5499958421,
				"element": "C" 
			},
			{
				"x": -0.027595108,
				"y": 1.3088861822,
				"z": -3.8497810097,
				"element": "C" 
			},
			{
				"x": 0.9411613802,
				"y": 2.2900185514,
				"z": -4.068282841,
				"element": "C" 
			},
			{
				"x": 1.5350350027,
				"y": 2.93645178,
				"z": -2.9799545781,
				"element": "C" 
			},
			{
				"x": 1.1636380235,
				"y": 2.6052183946,
				"z": -1.679855631,
				"element": "C" 
			},
			{
				"x": -3.9196698222,
				"y": -0.7166832968,
				"z": 1.5428357117,
				"element": "H" 
			},
			{
				"x": -2.6798645568,
				"y": -1.7858715282,
				"z": 0.858785414,
				"element": "H" 
			},
			{
				"x": -3.2703643375,
				"y": -2.0676522852,
				"z": 2.5105931581,
				"element": "H" 
			},
			{
				"x": -1.9695287297,
				"y": -0.1939570235,
				"z": 3.2671501056,
				"element": "H" 
			},
			{
				"x": -1.154875914,
				"y": 0.2122269041,
				"z": -2.3648208848,
				"element": "H" 
			},
			{
				"x": -0.4912511252,
				"y": 0.8042272959,
				"z": -4.6925671595,
				"element": "H" 
			},
			{
				"x": 1.2334782386,
				"y": 2.5510273653,
				"z": -5.0814734876,
				"element": "H" 
			},
			{
				"x": 2.2892166039,
				"y": 3.7002038352,
				"z": -3.1464088096,
				"element": "H" 
			},
			{
				"x": 1.6198377888,
				"y": 3.102119075,
				"z": -0.8300565751,
				"element": "H" 
			}
		],
		 "valence_orbital": [ 
			{
				"type": "occ",
				"energy": -0.32396,
				"method": "rhf"
			},
			{
				"type": "occ",
				"energy": -0.28306,
				"method": "rhf"
			},
			{
				"type": "occ",
				"energy": -0.25122,
				"method": "rhf"
			},
			{
				"type": "occ",
				"energy": -0.24794,
				"method": "rhf"
			},
			{
				"type": "occ",
				"energy": -0.22493,
				"method": "rhf"
			},
			{
				"type": "unocc",
				"energy": -0.03248,
				"method": "rhf"
			},
			{
				"type": "unocc",
				"energy": 0.00099,
				"method": "rhf"
			},
			{
				"type": "unocc",
				"energy": 0.03158,
				"method": "rhf"
			},
			{
				"type": "unocc",
				"energy": 0.06646,
				"method": "rhf"
			},
			{
				"type": "unocc",
				"energy": 0.08506,
				"method": "rhf"
			}
		],
		"cosmo_sigma_profile": { 
			"-0.025": 0.0,
			"-0.024": 0.0,
			"-0.023": 0.0,
			"-0.022": 0.0,
			"-0.021": 0.0,
			"-0.02": 0.0,
			"-0.019": 0.0,
			"-0.018": 0.0,
			"-0.017": 0.0,
			"-0.016": 0.640916756518,
			"-0.015": 1.05383209189,
			"-0.014": 1.36563590501,
			"-0.013": 0.964964421666,
			"-0.012": 1.24353002571,
			"-0.011": 0.821005650847,
			"-0.01": 1.25140632476,
			"-0.009": 1.22232134521,
			"-0.008": 1.27816596354,
			"-0.007": 2.21298318021,
			"-0.006": 10.0805612111,
			"-0.005": 15.6471642918,
			"-0.004": 19.1907991873,
			"-0.003": 17.5549927978,
			"-0.002": 16.1458121397,
			"-0.001": 10.9563031109,
			"0.0": 12.1009192758,
			"0.001": 14.3174586368,
			"0.002": 16.9333276456,
			"0.003": 15.0295354064,
			"0.004": 16.2668763139,
			"0.005": 11.6819879417,
			"0.006": 3.42030997356,
			"0.007": 5.95270286336,
			"0.008": 5.59612656557,
			"0.009": 2.94159893054,
			"0.01": 2.6466556034,
			"0.011": 2.67272725149,
			"0.012": 1.68228508122,
			"0.013": 1.09861117766,
			"0.014": 0.11283417005,
			"0.015": 0.0,
			"0.016": 0.0,
			"0.017": 0.0,
			"0.018": 0.0,
			"0.019": 0.0,
			"0.02": 0.0,
			"0.021": 0.0,
			"0.022": 0.0,
			"0.023": 0.0,
			"0.024": 0.0,
			"0.025": 0.0
		}
	}
}
