{
	 "smiles": "CN1CCC(CC1)N1N=CC2=C1N=CC(Br)=C2", 
	 "Tm": 394.15, 
	 "num_atms": 32, 
	 "gaussian": { 
		 "optdone": 1, 
		 "sigma_profile": "yes", 
		 "theory": "DFT", 
		 "functional": "B3LYP", 
		 "basiset": "6-31G**", 
		 "properties": { 
			 "R2extent": 10291.3677, 
			 "electric_dipole_moment_norm": 0.681622578851, 
			 "electric_quadrupole_moment_norm": 10.5105632061, 
			 "total_energy": -3256.70071496, 
			 "HOMO_LUMO_gap": 0.14257, 
			 "cosmo_polarized_energy": -8.33, 
			 "cosmo_cavitation_energy": 36.01, 
			 "cosmo_dispersion_energy": -26.62, 
			 "cosmo_repulsion_energy": 2.05, 
			 "cosmo_total_nonelectrostatic_energy": 11.44, 
			 "SMD_solvation_energy": 0.03 
		},
		"coords": [
			{
				"x": -1.1758125727,
				"y": 2.1239059046,
				"z": 3.8098013995,
				"element": "C" 
			},
			{
				"x": -0.5465653377,
				"y": 2.2474520348,
				"z": 2.5059512991,
				"element": "N" 
			},
			{
				"x": -1.4669125565,
				"y": 1.8624014992,
				"z": 1.4306068258,
				"element": "C" 
			},
			{
				"x": -0.7080090711,
				"y": 1.5739358235,
				"z": 0.1349143137,
				"element": "C" 
			},
			{
				"x": 0.1709564011,
				"y": 0.3138502094,
				"z": 0.2990956043,
				"element": "C" 
			},
			{
				"x": 0.7265512348,
				"y": 0.2174001411,
				"z": 1.7449793373,
				"element": "C" 
			},
			{
				"x": 0.7768793053,
				"y": 1.6022143517,
				"z": 2.4075751102,
				"element": "C" 
			},
			{
				"x": 1.2368197818,
				"y": 0.292750091,
				"z": -0.7055216715,
				"element": "N" 
			},
			{
				"x": 2.1940539755,
				"y": 1.2560704595,
				"z": -0.7412851943,
				"element": "N" 
			},
			{
				"x": 3.0157429163,
				"y": 0.9565441337,
				"z": -1.7358812406,
				"element": "C" 
			},
			{
				"x": 2.60628171,
				"y": -0.2395399763,
				"z": -2.3915215878,
				"element": "C" 
			},
			{
				"x": 1.4417962893,
				"y": -0.6389867387,
				"z": -1.6836374731,
				"element": "C" 
			},
			{
				"x": 0.6894787729,
				"y": -1.7200703155,
				"z": -1.9283214612,
				"element": "N" 
			},
			{
				"x": 1.1057072698,
				"y": -2.4679843923,
				"z": -2.9442773266,
				"element": "C" 
			},
			{
				"x": 2.250723434,
				"y": -2.1669097156,
				"z": -3.7213871531,
				"element": "C" 
			},
			{
				"x": 2.7126661328,
				"y": -3.3477171342,
				"z": -5.1490802096,
				"element": "Br" 
			},
			{
				"x": 3.0234694792,
				"y": -1.047330677,
				"z": -3.4603999896,
				"element": "C" 
			},
			{
				"x": -2.0967304464,
				"y": 2.7180191267,
				"z": 3.827693906,
				"element": "H" 
			},
			{
				"x": -1.4499288654,
				"y": 1.0850965833,
				"z": 4.0836101248,
				"element": "H" 
			},
			{
				"x": -0.5134217201,
				"y": 2.5176774916,
				"z": 4.5869817115,
				"element": "H" 
			},
			{
				"x": -2.1910511964,
				"y": 2.6724189398,
				"z": 1.2744688725,
				"element": "H" 
			},
			{
				"x": -2.0622565244,
				"y": 0.96553166,
				"z": 1.7010227543,
				"element": "H" 
			},
			{
				"x": -0.0682186631,
				"y": 2.4281198848,
				"z": -0.1080163415,
				"element": "H" 
			},
			{
				"x": -1.4065597817,
				"y": 1.4397551743,
				"z": -0.6969211036,
				"element": "H" 
			},
			{
				"x": -0.4180104226,
				"y": -0.5797275656,
				"z": 0.0760383052,
				"element": "H" 
			},
			{
				"x": 0.0763445836,
				"y": -0.4455201528,
				"z": 2.327653446,
				"element": "H" 
			},
			{
				"x": 1.7199251687,
				"y": -0.2415395033,
				"z": 1.7325235936,
				"element": "H" 
			},
			{
				"x": 1.1992782034,
				"y": 1.5231847472,
				"z": 3.4141192335,
				"element": "H" 
			},
			{
				"x": 1.4557087308,
				"y": 2.2414435834,
				"z": 1.8302110633,
				"element": "H" 
			},
			{
				"x": 3.8607987173,
				"y": 1.5970804811,
				"z": -1.9493594979,
				"element": "H" 
			},
			{
				"x": 0.5229396583,
				"y": -3.3553140148,
				"z": -3.1763712598,
				"element": "H" 
			},
			{
				"x": 3.9005553933,
				"y": -0.8176121346,
				"z": -4.0554653906,
				"element": "H" 
			}
		],
		 "valence_orbital": [ 
			{
				"type": "occ",
				"energy": -0.29605,
				"method": "rhf"
			},
			{
				"type": "occ",
				"energy": -0.27606,
				"method": "rhf"
			},
			{
				"type": "occ",
				"energy": -0.25345,
				"method": "rhf"
			},
			{
				"type": "occ",
				"energy": -0.23297,
				"method": "rhf"
			},
			{
				"type": "occ",
				"energy": -0.19983,
				"method": "rhf"
			},
			{
				"type": "unocc",
				"energy": -0.05726,
				"method": "rhf"
			},
			{
				"type": "unocc",
				"energy": -0.00269,
				"method": "rhf"
			},
			{
				"type": "unocc",
				"energy": 0.0018,
				"method": "rhf"
			},
			{
				"type": "unocc",
				"energy": 0.03629,
				"method": "rhf"
			},
			{
				"type": "unocc",
				"energy": 0.0758,
				"method": "rhf"
			}
		],
		"cosmo_sigma_profile": { 
			"-0.025": 0.0,
			"-0.024": 0.0,
			"-0.023": 0.0,
			"-0.022": 0.0,
			"-0.021": 0.0,
			"-0.02": 0.0,
			"-0.019": 0.0,
			"-0.018": 0.0,
			"-0.017": 0.0,
			"-0.016": 0.0,
			"-0.015": 0.0,
			"-0.014": 0.0,
			"-0.013": 0.0,
			"-0.012": 0.0,
			"-0.011": 0.0,
			"-0.01": 0.0,
			"-0.009": 0.911169197784,
			"-0.008": 4.45204690915,
			"-0.007": 5.27936752568,
			"-0.006": 5.16556521451,
			"-0.005": 8.27683727611,
			"-0.004": 18.3945315167,
			"-0.003": 27.9406855802,
			"-0.002": 33.296300186,
			"-0.001": 38.9134374887,
			"0.0": 40.4604689895,
			"0.001": 27.4102220268,
			"0.002": 16.2223821952,
			"0.003": 14.3143338841,
			"0.004": 15.9545813592,
			"0.005": 7.32506180579,
			"0.006": 4.39636152972,
			"0.007": 3.98205956267,
			"0.008": 3.03729630923,
			"0.009": 2.84788078737,
			"0.01": 2.55430200141,
			"0.011": 2.78356016209,
			"0.012": 1.55116041193,
			"0.013": 0.618376423438,
			"0.014": 0.527379070819,
			"0.015": 0.608587904132,
			"0.016": 0.364483237146,
			"0.017": 0.197004626505,
			"0.018": 0.0,
			"0.019": 0.0,
			"0.02": 0.0,
			"0.021": 0.0,
			"0.022": 0.0,
			"0.023": 0.0,
			"0.024": 0.0,
			"0.025": 0.0
		}
	}
}
