{
	 "smiles": "CC1=C(C=CC=C1Cl)C#N", 
	 "Tm": 294.65, 
	 "num_atms": 16, 
	 "gaussian": { 
		 "optdone": 1, 
		 "sigma_profile": "yes", 
		 "theory": "DFT", 
		 "functional": "B3LYP", 
		 "basiset": "6-31G**", 
		 "properties": { 
			 "R2extent": 2021.5461, 
			 "electric_dipole_moment_norm": 3.33462348849, 
			 "electric_quadrupole_moment_norm": 13.671422814, 
			 "total_energy": -823.401860136, 
			 "HOMO_LUMO_gap": 0.20533, 
			 "cosmo_polarized_energy": -7.7, 
			 "cosmo_cavitation_energy": 22.59, 
			 "cosmo_dispersion_energy": -16.25, 
			 "cosmo_repulsion_energy": 1.31, 
			 "cosmo_total_nonelectrostatic_energy": 7.65, 
			 "SMD_solvation_energy": 4.94 
		},
		"coords": [
			{
				"x": -0.3439399576,
				"y": 0.8106834905,
				"z": 0.5589298836,
				"element": "C" 
			},
			{
				"x": 0.4060479018,
				"y": -0.2714824767,
				"z": -0.170561535,
				"element": "C" 
			},
			{
				"x": 0.0200824469,
				"y": -1.6307654405,
				"z": -0.0985742226,
				"element": "C" 
			},
			{
				"x": 0.7234253204,
				"y": -2.6374505383,
				"z": -0.7813649421,
				"element": "C" 
			},
			{
				"x": 1.8305358376,
				"y": -2.3060293717,
				"z": -1.552740696,
				"element": "C" 
			},
			{
				"x": 2.237885148,
				"y": -0.9755448603,
				"z": -1.6452376566,
				"element": "C" 
			},
			{
				"x": 1.5293650289,
				"y": 0.0116633632,
				"z": -0.9616958446,
				"element": "C" 
			},
			{
				"x": 2.0826574606,
				"y": 1.6742371929,
				"z": -1.1102669102,
				"element": "Cl" 
			},
			{
				"x": -1.1185084586,
				"y": -2.0136793307,
				"z": 0.6880689263,
				"element": "C" 
			},
			{
				"x": -2.0383437508,
				"y": -2.3414903869,
				"z": 1.320586657,
				"element": "N" 
			},
			{
				"x": -1.1848712617,
				"y": 0.4023346498,
				"z": 1.120626701,
				"element": "H" 
			},
			{
				"x": 0.3165295067,
				"y": 1.3379443077,
				"z": 1.255081853,
				"element": "H" 
			},
			{
				"x": -0.7251239093,
				"y": 1.5589599252,
				"z": -0.1436650995,
				"element": "H" 
			},
			{
				"x": 0.3912585006,
				"y": -3.6662890203,
				"z": -0.6970809595,
				"element": "H" 
			},
			{
				"x": 2.3789482513,
				"y": -3.077692423,
				"z": -2.0830025072,
				"element": "H" 
			},
			{
				"x": 3.0992519354,
				"y": -0.6972990808,
				"z": -2.2422036475,
				"element": "H" 
			}
		],
		 "valence_orbital": [ 
			{
				"type": "occ",
				"energy": -0.33736,
				"method": "rhf"
			},
			{
				"type": "occ",
				"energy": -0.33667,
				"method": "rhf"
			},
			{
				"type": "occ",
				"energy": -0.32604,
				"method": "rhf"
			},
			{
				"type": "occ",
				"energy": -0.27158,
				"method": "rhf"
			},
			{
				"type": "occ",
				"energy": -0.26449,
				"method": "rhf"
			},
			{
				"type": "unocc",
				"energy": -0.05916,
				"method": "rhf"
			},
			{
				"type": "unocc",
				"energy": -0.03311,
				"method": "rhf"
			},
			{
				"type": "unocc",
				"energy": 0.01232,
				"method": "rhf"
			},
			{
				"type": "unocc",
				"energy": 0.03487,
				"method": "rhf"
			},
			{
				"type": "unocc",
				"energy": 0.06832,
				"method": "rhf"
			}
		],
		"cosmo_sigma_profile": { 
			"-0.025": 0.0,
			"-0.024": 0.0,
			"-0.023": 0.0,
			"-0.022": 0.0,
			"-0.021": 0.0,
			"-0.02": 0.0,
			"-0.019": 0.0,
			"-0.018": 0.0,
			"-0.017": 0.0,
			"-0.016": 0.0,
			"-0.015": 0.0,
			"-0.014": 0.0,
			"-0.013": 0.0,
			"-0.012": 0.0,
			"-0.011": 0.0,
			"-0.01": 0.0,
			"-0.009": 0.314300819819,
			"-0.008": 4.47927425411,
			"-0.007": 7.31364508353,
			"-0.006": 7.93181557251,
			"-0.005": 7.98948666503,
			"-0.004": 10.6122352087,
			"-0.003": 15.313718195,
			"-0.002": 19.4618202271,
			"-0.001": 19.1948975681,
			"0.0": 16.1624978504,
			"0.001": 18.5844043937,
			"0.002": 13.5547653281,
			"0.003": 10.4884112266,
			"0.004": 8.72192456018,
			"0.005": 3.91938491284,
			"0.006": 1.97081221718,
			"0.007": 2.70997850457,
			"0.008": 3.18359149757,
			"0.009": 3.15615922034,
			"0.01": 3.03845061697,
			"0.011": 2.74879501845,
			"0.012": 2.31288595688,
			"0.013": 1.27205099234,
			"0.014": 0.0199238919068,
			"0.015": 0.0,
			"0.016": 0.0,
			"0.017": 0.0,
			"0.018": 0.0,
			"0.019": 0.0,
			"0.02": 0.0,
			"0.021": 0.0,
			"0.022": 0.0,
			"0.023": 0.0,
			"0.024": 0.0,
			"0.025": 0.0
		}
	}
}
