{
	 "smiles": "NN1CCCC1=O", 
	 "Tm": 321.15, 
	 "num_atms": 15, 
	 "gaussian": { 
		 "optdone": 1, 
		 "sigma_profile": "yes", 
		 "theory": "DFT", 
		 "functional": "B3LYP", 
		 "basiset": "6-31G**", 
		 "properties": { 
			 "R2extent": 1675.0364, 
			 "electric_dipole_moment_norm": 2.77333631751, 
			 "electric_quadrupole_moment_norm": 12.4490344268, 
			 "total_energy": -341.95827459, 
			 "HOMO_LUMO_gap": 0.25952, 
			 "cosmo_polarized_energy": -10.36, 
			 "cosmo_cavitation_energy": 17.68, 
			 "cosmo_dispersion_energy": -13.6, 
			 "cosmo_repulsion_energy": 1.18, 
			 "cosmo_total_nonelectrostatic_energy": 5.26, 
			 "SMD_solvation_energy": 3.52 
		},
		"coords": [
			{
				"x": -0.8708789849,
				"y": -3.1807909364,
				"z": -0.6557398516,
				"element": "N" 
			},
			{
				"x": -0.3295846829,
				"y": -2.0295191102,
				"z": -1.2657684701,
				"element": "N" 
			},
			{
				"x": 0.3621260562,
				"y": -1.0360048649,
				"z": -0.4515503279,
				"element": "C" 
			},
			{
				"x": 0.7325887304,
				"y": 0.0331428043,
				"z": -1.5011455223,
				"element": "C" 
			},
			{
				"x": -0.3750014982,
				"y": -0.0901352334,
				"z": -2.5658866589,
				"element": "C" 
			},
			{
				"x": -0.9006009962,
				"y": -1.5134529457,
				"z": -2.4035748478,
				"element": "C" 
			},
			{
				"x": -1.7217191301,
				"y": -2.1045197992,
				"z": -3.0912261039,
				"element": "O" 
			},
			{
				"x": -0.3212799205,
				"y": -3.9822938436,
				"z": -0.9668792538,
				"element": "H" 
			},
			{
				"x": -1.793812412,
				"y": -3.3034644509,
				"z": -1.0786189564,
				"element": "H" 
			},
			{
				"x": -0.3032024153,
				"y": -0.6450578321,
				"z": 0.3318607794,
				"element": "H" 
			},
			{
				"x": 1.2362524554,
				"y": -1.4744288634,
				"z": 0.038998898,
				"element": "H" 
			},
			{
				"x": 0.802942203,
				"y": 1.0309590725,
				"z": -1.0625537035,
				"element": "H" 
			},
			{
				"x": 1.7047635075,
				"y": -0.2077472949,
				"z": -1.9419175191,
				"element": "H" 
			},
			{
				"x": -0.0387749958,
				"y": 0.0880929555,
				"z": -3.5898293796,
				"element": "H" 
			},
			{
				"x": -1.2108179167,
				"y": 0.5941203425,
				"z": -2.3753690825,
				"element": "H" 
			}
		],
		 "valence_orbital": [ 
			{
				"type": "occ",
				"energy": -0.3637,
				"method": "rhf"
			},
			{
				"type": "occ",
				"energy": -0.33474,
				"method": "rhf"
			},
			{
				"type": "occ",
				"energy": -0.29434,
				"method": "rhf"
			},
			{
				"type": "occ",
				"energy": -0.24696,
				"method": "rhf"
			},
			{
				"type": "occ",
				"energy": -0.2312,
				"method": "rhf"
			},
			{
				"type": "unocc",
				"energy": 0.02832,
				"method": "rhf"
			},
			{
				"type": "unocc",
				"energy": 0.08365,
				"method": "rhf"
			},
			{
				"type": "unocc",
				"energy": 0.09105,
				"method": "rhf"
			},
			{
				"type": "unocc",
				"energy": 0.11377,
				"method": "rhf"
			},
			{
				"type": "unocc",
				"energy": 0.13547,
				"method": "rhf"
			}
		],
		"cosmo_sigma_profile": { 
			"-0.025": 0.0,
			"-0.024": 0.0,
			"-0.023": 0.0,
			"-0.022": 0.0,
			"-0.021": 0.0,
			"-0.02": 0.0,
			"-0.019": 0.0,
			"-0.018": 0.0,
			"-0.017": 0.0,
			"-0.016": 0.0,
			"-0.015": 0.0,
			"-0.014": 0.0,
			"-0.013": 0.0,
			"-0.012": 0.643900624841,
			"-0.011": 1.45631339688,
			"-0.01": 2.15228476269,
			"-0.009": 3.07346323195,
			"-0.008": 1.45785548963,
			"-0.007": 1.26973723448,
			"-0.006": 3.3335940505,
			"-0.005": 9.95599527343,
			"-0.004": 18.9807293374,
			"-0.003": 21.7499302252,
			"-0.002": 15.1299307568,
			"-0.001": 10.5619482534,
			"0.0": 6.43991338237,
			"0.001": 3.71123822212,
			"0.002": 3.98410272233,
			"0.003": 3.14961539886,
			"0.004": 1.75645262223,
			"0.005": 2.61568890996,
			"0.006": 1.97814106212,
			"0.007": 1.44259003444,
			"0.008": 1.69402115241,
			"0.009": 2.30959021249,
			"0.01": 2.13636652272,
			"0.011": 2.09897703612,
			"0.012": 2.34023813111,
			"0.013": 4.55158486675,
			"0.014": 5.17749360319,
			"0.015": 2.11133073461,
			"0.016": 0.61916467159,
			"0.017": 0.110930979333,
			"0.018": 0.0,
			"0.019": 0.0,
			"0.02": 0.0,
			"0.021": 0.0,
			"0.022": 0.0,
			"0.023": 0.0,
			"0.024": 0.0,
			"0.025": 0.0
		}
	}
}
