{
	 "smiles": "NNS(=O)(=O)C1=CC(=C(Cl)C=C1)[N+]([O-])=O", 
	 "Tm": 400.15, 
	 "num_atms": 21, 
	 "gaussian": { 
		 "optdone": 1, 
		 "sigma_profile": "yes", 
		 "theory": "DFT", 
		 "functional": "B3LYP", 
		 "basiset": "6-31G**", 
		 "properties": { 
			 "R2extent": 4805.7811, 
			 "electric_dipole_moment_norm": 6.078220279, 
			 "electric_quadrupole_moment_norm": 25.9542041899, 
			 "total_energy": -1555.5558401, 
			 "HOMO_LUMO_gap": 0.17682, 
			 "cosmo_polarized_energy": -23.07, 
			 "cosmo_cavitation_energy": 29.97, 
			 "cosmo_dispersion_energy": -22.1, 
			 "cosmo_repulsion_energy": 1.72, 
			 "cosmo_total_nonelectrostatic_energy": 9.59, 
			 "SMD_solvation_energy": 7.12 
		},
		"coords": [
			{
				"x": 1.4429988294,
				"y": -2.3788446837,
				"z": 1.6012155935,
				"element": "N" 
			},
			{
				"x": 1.8560671825,
				"y": -1.0408889711,
				"z": 1.492005974,
				"element": "N" 
			},
			{
				"x": 0.6151331302,
				"y": 0.1095825119,
				"z": 1.6265081469,
				"element": "S" 
			},
			{
				"x": 0.0060248415,
				"y": -0.042878375,
				"z": 2.9421918054,
				"element": "O" 
			},
			{
				"x": 1.239207193,
				"y": 1.3522820915,
				"z": 1.1694834063,
				"element": "O" 
			},
			{
				"x": -0.6342130435,
				"y": -0.364532708,
				"z": 0.4208897506,
				"element": "C" 
			},
			{
				"x": -0.6113521011,
				"y": 0.2141249839,
				"z": -0.8424263235,
				"element": "C" 
			},
			{
				"x": -1.5802170009,
				"y": -0.1479480798,
				"z": -1.778156502,
				"element": "C" 
			},
			{
				"x": -2.5552651666,
				"y": -1.1088780835,
				"z": -1.4650521959,
				"element": "C" 
			},
			{
				"x": -3.7437883221,
				"y": -1.673983072,
				"z": -2.6001566256,
				"element": "Cl" 
			},
			{
				"x": -2.5494087614,
				"y": -1.687980403,
				"z": -0.1904912227,
				"element": "C" 
			},
			{
				"x": -1.6035941802,
				"y": -1.3131524659,
				"z": 0.758266874,
				"element": "C" 
			},
			{
				"x": -1.5109718799,
				"y": 0.5380944729,
				"z": -3.0828476894,
				"element": "N" 
			},
			{
				"x": -2.5620175599,
				"y": 0.7830328854,
				"z": -3.6623866431,
				"element": "O" 
			},
			{
				"x": -0.3866841621,
				"y": 0.8399180543,
				"z": -3.4812535353,
				"element": "O" 
			},
			{
				"x": 2.0226681571,
				"y": -2.8505961372,
				"z": 2.2871832279,
				"element": "H" 
			},
			{
				"x": 1.4846922943,
				"y": -2.8656822729,
				"z": 0.7105473327,
				"element": "H" 
			},
			{
				"x": 2.4928378777,
				"y": -0.7933052224,
				"z": 0.7364852106,
				"element": "H" 
			},
			{
				"x": 0.1329863033,
				"y": 0.9561068714,
				"z": -1.1057781734,
				"element": "H" 
			},
			{
				"x": -3.2997768422,
				"y": -2.433703315,
				"z": 0.046019331,
				"element": "H" 
			},
			{
				"x": -1.6144267893,
				"y": -1.7420680819,
				"z": 1.753252258,
				"element": "H" 
			}
		],
		 "valence_orbital": [ 
			{
				"type": "occ",
				"energy": -0.31466,
				"method": "rhf"
			},
			{
				"type": "occ",
				"energy": -0.31238,
				"method": "rhf"
			},
			{
				"type": "occ",
				"energy": -0.29662,
				"method": "rhf"
			},
			{
				"type": "occ",
				"energy": -0.28684,
				"method": "rhf"
			},
			{
				"type": "occ",
				"energy": -0.28045,
				"method": "rhf"
			},
			{
				"type": "unocc",
				"energy": -0.10363,
				"method": "rhf"
			},
			{
				"type": "unocc",
				"energy": -0.06737,
				"method": "rhf"
			},
			{
				"type": "unocc",
				"energy": -0.03568,
				"method": "rhf"
			},
			{
				"type": "unocc",
				"energy": -0.00212,
				"method": "rhf"
			},
			{
				"type": "unocc",
				"energy": 0.03996,
				"method": "rhf"
			}
		],
		"cosmo_sigma_profile": { 
			"-0.025": 0.0,
			"-0.024": 0.0,
			"-0.023": 0.0,
			"-0.022": 0.0,
			"-0.021": 0.0,
			"-0.02": 0.0,
			"-0.019": 0.0,
			"-0.018": 0.0,
			"-0.017": 0.0,
			"-0.016": 0.147302770951,
			"-0.015": 1.97670844695,
			"-0.014": 1.86389284941,
			"-0.013": 3.87122789655,
			"-0.012": 5.10210351517,
			"-0.011": 4.17851913777,
			"-0.01": 4.57074070661,
			"-0.009": 7.05745160019,
			"-0.008": 8.17577287883,
			"-0.007": 7.57738126509,
			"-0.006": 7.52224496582,
			"-0.005": 8.85472396397,
			"-0.004": 8.93796344188,
			"-0.003": 15.0427040231,
			"-0.002": 19.4732888991,
			"-0.001": 14.9167543796,
			"0.0": 10.8749082199,
			"0.001": 9.31936279093,
			"0.002": 11.9102138232,
			"0.003": 10.2820447451,
			"0.004": 7.77432463617,
			"0.005": 7.91452749999,
			"0.006": 10.5966420211,
			"0.007": 16.5601737734,
			"0.008": 9.96904452202,
			"0.009": 8.25254235465,
			"0.01": 10.4563197467,
			"0.011": 8.14140642141,
			"0.012": 0.502725690537,
			"0.013": 0.0,
			"0.014": 0.0,
			"0.015": 0.0,
			"0.016": 0.0,
			"0.017": 0.0,
			"0.018": 0.0,
			"0.019": 0.0,
			"0.02": 0.0,
			"0.021": 0.0,
			"0.022": 0.0,
			"0.023": 0.0,
			"0.024": 0.0,
			"0.025": 0.0
		}
	}
}
