{
	 "smiles": "CCOC1=C(NC(C)=O)C=CC=C1", 
	 "Tm": 352.15, 
	 "num_atms": 26, 
	 "gaussian": { 
		 "optdone": 1, 
		 "sigma_profile": "yes", 
		 "theory": "DFT", 
		 "functional": "B3LYP", 
		 "basiset": "6-31G**", 
		 "properties": { 
			 "R2extent": 3204.6867, 
			 "electric_dipole_moment_norm": 4.04402438791, 
			 "electric_quadrupole_moment_norm": 20.5882867767, 
			 "total_energy": -594.112033975, 
			 "HOMO_LUMO_gap": 0.19798, 
			 "cosmo_polarized_energy": -11.43, 
			 "cosmo_cavitation_energy": 29.29, 
			 "cosmo_dispersion_energy": -21.19, 
			 "cosmo_repulsion_energy": 1.71, 
			 "cosmo_total_nonelectrostatic_energy": 9.81, 
			 "SMD_solvation_energy": 6.21 
		},
		"coords": [
			{
				"x": 3.6091733246,
				"y": 0.2259757726,
				"z": -2.487236824,
				"element": "C" 
			},
			{
				"x": 3.0015476028,
				"y": -0.2408708309,
				"z": -1.1764498726,
				"element": "C" 
			},
			{
				"x": 1.5838006272,
				"y": -0.2813031398,
				"z": -1.3478756341,
				"element": "O" 
			},
			{
				"x": 0.8015233542,
				"y": -0.7007290056,
				"z": -0.3070769829,
				"element": "C" 
			},
			{
				"x": -0.5873752727,
				"y": -0.7570461898,
				"z": -0.5919835821,
				"element": "C" 
			},
			{
				"x": -0.9812959516,
				"y": -0.3942434818,
				"z": -1.8922784026,
				"element": "N" 
			},
			{
				"x": -2.1062574723,
				"y": 0.2425721044,
				"z": -2.3901648987,
				"element": "C" 
			},
			{
				"x": -3.2291208853,
				"y": 0.6098564685,
				"z": -1.4391433775,
				"element": "C" 
			},
			{
				"x": -2.1640784401,
				"y": 0.5028612652,
				"z": -3.5841202037,
				"element": "O" 
			},
			{
				"x": -1.4549295372,
				"y": -1.22195903,
				"z": 0.3994681994,
				"element": "C" 
			},
			{
				"x": -0.9748331381,
				"y": -1.5712041892,
				"z": 1.6654707331,
				"element": "C" 
			},
			{
				"x": 0.3854690418,
				"y": -1.4920955681,
				"z": 1.9414438526,
				"element": "C" 
			},
			{
				"x": 1.2779272957,
				"y": -1.0668758647,
				"z": 0.9506883347,
				"element": "C" 
			},
			{
				"x": 3.2358261798,
				"y": 1.2184692964,
				"z": -2.7540066139,
				"element": "H" 
			},
			{
				"x": 3.3609505863,
				"y": -0.4657917892,
				"z": -3.2970685912,
				"element": "H" 
			},
			{
				"x": 4.6984842265,
				"y": 0.2772595822,
				"z": -2.3973972769,
				"element": "H" 
			},
			{
				"x": 3.2544742668,
				"y": 0.4482739994,
				"z": -0.3589131821,
				"element": "H" 
			},
			{
				"x": 3.3703786786,
				"y": -1.239227718,
				"z": -0.9032083638,
				"element": "H" 
			},
			{
				"x": -0.2422823504,
				"y": -0.435842507,
				"z": -2.5843110555,
				"element": "H" 
			},
			{
				"x": -3.8914771682,
				"y": -0.2475545759,
				"z": -1.2780472787,
				"element": "H" 
			},
			{
				"x": -2.8660350511,
				"y": 0.9457756221,
				"z": -0.4649012118,
				"element": "H" 
			},
			{
				"x": -3.8101807484,
				"y": 1.3992403191,
				"z": -1.9166907538,
				"element": "H" 
			},
			{
				"x": -2.5092008366,
				"y": -1.3314587295,
				"z": 0.178832458,
				"element": "H" 
			},
			{
				"x": -1.6702950404,
				"y": -1.9209418127,
				"z": 2.4219569545,
				"element": "H" 
			},
			{
				"x": 0.7664805213,
				"y": -1.7682794905,
				"z": 2.9197657565,
				"element": "H" 
			},
			{
				"x": 2.3379261867,
				"y": -1.0169605071,
				"z": 1.1690478171,
				"element": "H" 
			}
		],
		 "valence_orbital": [ 
			{
				"type": "occ",
				"energy": -0.32381,
				"method": "rhf"
			},
			{
				"type": "occ",
				"energy": -0.29554,
				"method": "rhf"
			},
			{
				"type": "occ",
				"energy": -0.24592,
				"method": "rhf"
			},
			{
				"type": "occ",
				"energy": -0.24037,
				"method": "rhf"
			},
			{
				"type": "occ",
				"energy": -0.20842,
				"method": "rhf"
			},
			{
				"type": "unocc",
				"energy": -0.01044,
				"method": "rhf"
			},
			{
				"type": "unocc",
				"energy": 0.0045,
				"method": "rhf"
			},
			{
				"type": "unocc",
				"energy": 0.04108,
				"method": "rhf"
			},
			{
				"type": "unocc",
				"energy": 0.08459,
				"method": "rhf"
			},
			{
				"type": "unocc",
				"energy": 0.08994,
				"method": "rhf"
			}
		],
		"cosmo_sigma_profile": { 
			"-0.025": 0.0,
			"-0.024": 0.0,
			"-0.023": 0.0,
			"-0.022": 0.0,
			"-0.021": 0.0,
			"-0.02": 0.0,
			"-0.019": 0.0,
			"-0.018": 0.0,
			"-0.017": 0.0,
			"-0.016": 0.0,
			"-0.015": 0.0,
			"-0.014": 0.0,
			"-0.013": 0.0,
			"-0.012": 0.0,
			"-0.011": 0.0,
			"-0.01": 0.277552794946,
			"-0.009": 0.671870775859,
			"-0.008": 1.41176735309,
			"-0.007": 4.3463890738,
			"-0.006": 8.37260368703,
			"-0.005": 19.4340888184,
			"-0.004": 25.7235723781,
			"-0.003": 25.430768666,
			"-0.002": 22.3442373881,
			"-0.001": 20.9906076276,
			"0.0": 17.3107668014,
			"0.001": 12.3761907291,
			"0.002": 12.2798689024,
			"0.003": 12.5719233195,
			"0.004": 11.3349086003,
			"0.005": 10.2816354744,
			"0.006": 6.73254315457,
			"0.007": 1.77982596613,
			"0.008": 1.86587754767,
			"0.009": 1.23792606576,
			"0.01": 1.52036925183,
			"0.011": 1.25646408938,
			"0.012": 2.02376585707,
			"0.013": 4.82940090119,
			"0.014": 4.49059422308,
			"0.015": 0.771612111193,
			"0.016": 0.0,
			"0.017": 0.0,
			"0.018": 0.0,
			"0.019": 0.0,
			"0.02": 0.0,
			"0.021": 0.0,
			"0.022": 0.0,
			"0.023": 0.0,
			"0.024": 0.0,
			"0.025": 0.0
		}
	}
}
