{
	 "smiles": "CN1CCN2C(C1)C1=CC=CC=C1CC1=CC=CN=C21", 
	 "Tm": 388.15, 
	 "num_atms": 39, 
	 "gaussian": { 
		 "optdone": 1, 
		 "sigma_profile": "yes", 
		 "theory": "DFT", 
		 "functional": "B3LYP", 
		 "basiset": "6-31G**", 
		 "properties": { 
			 "R2extent": 5639.0592, 
			 "electric_dipole_moment_norm": 1.61689662626, 
			 "electric_quadrupole_moment_norm": 7.17405481161, 
			 "total_energy": -823.508854997, 
			 "HOMO_LUMO_gap": 0.18871, 
			 "cosmo_polarized_energy": -8.91, 
			 "cosmo_cavitation_energy": 38.72, 
			 "cosmo_dispersion_energy": -27.72, 
			 "cosmo_repulsion_energy": 2.09, 
			 "cosmo_total_nonelectrostatic_energy": 13.08, 
			 "SMD_solvation_energy": 1.76 
		},
		"coords": [
			{
				"x": 0.5795829914,
				"y": -0.357482019,
				"z": 4.423106941,
				"element": "C" 
			},
			{
				"x": 0.1296763573,
				"y": -0.6067939248,
				"z": 3.0626938321,
				"element": "N" 
			},
			{
				"x": 0.3282657563,
				"y": -1.9955979475,
				"z": 2.660900078,
				"element": "C" 
			},
			{
				"x": -0.2140828107,
				"y": -2.2292888816,
				"z": 1.2538299533,
				"element": "C" 
			},
			{
				"x": 0.4562754012,
				"y": -1.3271606419,
				"z": 0.3111575271,
				"element": "N" 
			},
			{
				"x": 0.1942236166,
				"y": 0.0822316593,
				"z": 0.6833480389,
				"element": "C" 
			},
			{
				"x": 0.7493842804,
				"y": 0.3038618553,
				"z": 2.1077903896,
				"element": "C" 
			},
			{
				"x": 0.7009179186,
				"y": 1.1902147863,
				"z": -0.2351422434,
				"element": "C" 
			},
			{
				"x": 0.0400898078,
				"y": 2.423523182,
				"z": -0.1327129863,
				"element": "C" 
			},
			{
				"x": 0.4689727577,
				"y": 3.5461467986,
				"z": -0.8377119617,
				"element": "C" 
			},
			{
				"x": 1.5788529683,
				"y": 3.4472862986,
				"z": -1.6758052756,
				"element": "C" 
			},
			{
				"x": 2.2299290801,
				"y": 2.2218732148,
				"z": -1.8049617633,
				"element": "C" 
			},
			{
				"x": 1.8090204377,
				"y": 1.0900250223,
				"z": -1.0958375421,
				"element": "C" 
			},
			{
				"x": 2.4796214106,
				"y": -0.2470274024,
				"z": -1.3393775172,
				"element": "C" 
			},
			{
				"x": 1.4855999865,
				"y": -1.2395917933,
				"z": -1.8879629183,
				"element": "C" 
			},
			{
				"x": 1.5170989122,
				"y": -1.7121300632,
				"z": -3.193851262,
				"element": "C" 
			},
			{
				"x": 0.5887356128,
				"y": -2.6714747974,
				"z": -3.611772719,
				"element": "C" 
			},
			{
				"x": -0.3348024956,
				"y": -3.1280974679,
				"z": -2.6787249338,
				"element": "C" 
			},
			{
				"x": -0.4039532008,
				"y": -2.6739480165,
				"z": -1.419645297,
				"element": "N" 
			},
			{
				"x": 0.4718862587,
				"y": -1.7381427778,
				"z": -1.0340064296,
				"element": "C" 
			},
			{
				"x": 0.0440827922,
				"y": -1.0164639425,
				"z": 5.1146353294,
				"element": "H" 
			},
			{
				"x": 1.6649424001,
				"y": -0.5254844671,
				"z": 4.5643088552,
				"element": "H" 
			},
			{
				"x": 0.3596109393,
				"y": 0.6781279073,
				"z": 4.7030552293,
				"element": "H" 
			},
			{
				"x": 1.3986203476,
				"y": -2.2825136592,
				"z": 2.6876549555,
				"element": "H" 
			},
			{
				"x": -0.2052641996,
				"y": -2.6444701294,
				"z": 3.3658278896,
				"element": "H" 
			},
			{
				"x": -0.025943909,
				"y": -3.2574024554,
				"z": 0.9423969953,
				"element": "H" 
			},
			{
				"x": -1.3046560443,
				"y": -2.0788219136,
				"z": 1.2464936173,
				"element": "H" 
			},
			{
				"x": -0.8998236051,
				"y": 0.2101101932,
				"z": 0.7565090291,
				"element": "H" 
			},
			{
				"x": 1.8521409189,
				"y": 0.1948402114,
				"z": 2.0724782001,
				"element": "H" 
			},
			{
				"x": 0.5312894892,
				"y": 1.3317031312,
				"z": 2.4158037322,
				"element": "H" 
			},
			{
				"x": -0.8288523743,
				"y": 2.5015995275,
				"z": 0.5168454585,
				"element": "H" 
			},
			{
				"x": -0.0643847417,
				"y": 4.4868254904,
				"z": -0.7366083512,
				"element": "H" 
			},
			{
				"x": 1.9264222005,
				"y": 4.3108764901,
				"z": -2.2355013831,
				"element": "H" 
			},
			{
				"x": 3.0818228082,
				"y": 2.1325737388,
				"z": -2.4746463544,
				"element": "H" 
			},
			{
				"x": 2.8860644887,
				"y": -0.6442982025,
				"z": -0.4000747392,
				"element": "H" 
			},
			{
				"x": 3.3137615084,
				"y": -0.1217317992,
				"z": -2.0363690717,
				"element": "H" 
			},
			{
				"x": 2.2834671594,
				"y": -1.3520452496,
				"z": -3.8762268856,
				"element": "H" 
			},
			{
				"x": 0.5969875532,
				"y": -3.0634660742,
				"z": -4.6234925801,
				"element": "H" 
			},
			{
				"x": -1.0612827789,
				"y": -3.8934858813,
				"z": -2.947403837,
				"element": "H" 
			}
		],
		 "valence_orbital": [ 
			{
				"type": "occ",
				"energy": -0.25011,
				"method": "rhf"
			},
			{
				"type": "occ",
				"energy": -0.24426,
				"method": "rhf"
			},
			{
				"type": "occ",
				"energy": -0.24111,
				"method": "rhf"
			},
			{
				"type": "occ",
				"energy": -0.2133,
				"method": "rhf"
			},
			{
				"type": "occ",
				"energy": -0.20206,
				"method": "rhf"
			},
			{
				"type": "unocc",
				"energy": -0.01335,
				"method": "rhf"
			},
			{
				"type": "unocc",
				"energy": -0.0074,
				"method": "rhf"
			},
			{
				"type": "unocc",
				"energy": 0.00058,
				"method": "rhf"
			},
			{
				"type": "unocc",
				"energy": 0.00972,
				"method": "rhf"
			},
			{
				"type": "unocc",
				"energy": 0.09001,
				"method": "rhf"
			}
		],
		"cosmo_sigma_profile": { 
			"-0.025": 0.0,
			"-0.024": 0.0,
			"-0.023": 0.0,
			"-0.022": 0.0,
			"-0.021": 0.0,
			"-0.02": 0.0,
			"-0.019": 0.0,
			"-0.018": 0.0,
			"-0.017": 0.0,
			"-0.016": 0.0,
			"-0.015": 0.0,
			"-0.014": 0.0,
			"-0.013": 0.0,
			"-0.012": 0.0,
			"-0.011": 0.0,
			"-0.01": 0.0,
			"-0.009": 0.0,
			"-0.008": 0.0,
			"-0.007": 0.326272010094,
			"-0.006": 8.49714236812,
			"-0.005": 20.6768844237,
			"-0.004": 28.7443047457,
			"-0.003": 31.1898167399,
			"-0.002": 33.8844128309,
			"-0.001": 38.5102933361,
			"0.0": 29.1522796655,
			"0.001": 18.4358040817,
			"0.002": 16.8592956975,
			"0.003": 20.6165568464,
			"0.004": 20.3223709083,
			"0.005": 12.8081828067,
			"0.006": 9.99547218782,
			"0.007": 2.73226630249,
			"0.008": 1.83201622649,
			"0.009": 2.50583207746,
			"0.01": 1.81454764489,
			"0.011": 0.86192772064,
			"0.012": 1.31645109922,
			"0.013": 1.37205592473,
			"0.014": 1.13762299972,
			"0.015": 0.967850292742,
			"0.016": 0.202236999332,
			"0.017": 0.0,
			"0.018": 0.0,
			"0.019": 0.0,
			"0.02": 0.0,
			"0.021": 0.0,
			"0.022": 0.0,
			"0.023": 0.0,
			"0.024": 0.0,
			"0.025": 0.0
		}
	}
}
