{
	 "smiles": "CNC(C(O)=O)C1=C(F)C=C(F)C=C1", 
	 "Tm": 551.15, 
	 "num_atms": 23, 
	 "gaussian": { 
		 "optdone": 1, 
		 "sigma_profile": "yes", 
		 "theory": "DFT", 
		 "functional": "B3LYP", 
		 "basiset": "6-31G**", 
		 "properties": { 
			 "R2extent": 3290.0355, 
			 "electric_dipole_moment_norm": 2.7411445438, 
			 "electric_quadrupole_moment_norm": 14.0185781647, 
			 "total_energy": -753.250104718, 
			 "HOMO_LUMO_gap": 0.2135, 
			 "cosmo_polarized_energy": -11.6, 
			 "cosmo_cavitation_energy": 27.68, 
			 "cosmo_dispersion_energy": -19.81, 
			 "cosmo_repulsion_energy": 1.52, 
			 "cosmo_total_nonelectrostatic_energy": 9.39, 
			 "SMD_solvation_energy": 5.45 
		},
		"coords": [
			{
				"x": 1.8770855669,
				"y": -0.3724431833,
				"z": 3.3125316365,
				"element": "C" 
			},
			{
				"x": 2.1078199427,
				"y": -0.345971659,
				"z": 1.8656622797,
				"element": "N" 
			},
			{
				"x": 0.9576956837,
				"y": 0.1152402008,
				"z": 1.1073496168,
				"element": "C" 
			},
			{
				"x": 0.9609823922,
				"y": 1.6715049398,
				"z": 1.000326859,
				"element": "C" 
			},
			{
				"x": -0.158688813,
				"y": 2.2575120072,
				"z": 0.5388836281,
				"element": "O" 
			},
			{
				"x": 1.9244575147,
				"y": 2.3288782019,
				"z": 1.3145343141,
				"element": "O" 
			},
			{
				"x": 0.8958437977,
				"y": -0.5144393509,
				"z": -0.2861023561,
				"element": "C" 
			},
			{
				"x": -0.2919569304,
				"y": -0.5546289789,
				"z": -1.0132362774,
				"element": "C" 
			},
			{
				"x": -1.4198788921,
				"y": -0.0148980756,
				"z": -0.4445032996,
				"element": "F" 
			},
			{
				"x": -0.4184349141,
				"y": -1.1140824216,
				"z": -2.2746863442,
				"element": "C" 
			},
			{
				"x": 0.7293202656,
				"y": -1.666389974,
				"z": -2.8335566296,
				"element": "C" 
			},
			{
				"x": 0.6480441589,
				"y": -2.2179696624,
				"z": -4.0578350129,
				"element": "F" 
			},
			{
				"x": 1.9466821395,
				"y": -1.6689015794,
				"z": -2.161429715,
				"element": "C" 
			},
			{
				"x": 2.0155355172,
				"y": -1.0972897056,
				"z": -0.8913405317,
				"element": "C" 
			},
			{
				"x": 1.5427211524,
				"y": 0.5896281832,
				"z": 3.7330255113,
				"element": "H" 
			},
			{
				"x": 2.8071850864,
				"y": -0.6552967038,
				"z": 3.8130019399,
				"element": "H" 
			},
			{
				"x": 1.1277176362,
				"y": -1.1343606496,
				"z": 3.5523091456,
				"element": "H" 
			},
			{
				"x": 2.8593155615,
				"y": 0.3183855005,
				"z": 1.6849167087,
				"element": "H" 
			},
			{
				"x": 0.042497768,
				"y": -0.1705990002,
				"z": 1.6417285189,
				"element": "H" 
			},
			{
				"x": -0.8226907009,
				"y": 1.5897787621,
				"z": 0.2994213919,
				"element": "H" 
			},
			{
				"x": -1.3675505199,
				"y": -1.1237812126,
				"z": -2.7959732549,
				"element": "H" 
			},
			{
				"x": 2.8147289478,
				"y": -2.1207627228,
				"z": -2.6276978982,
				"element": "H" 
			},
			{
				"x": 2.9429676389,
				"y": -1.1257129157,
				"z": -0.3314302311,
				"element": "H" 
			}
		],
		 "valence_orbital": [ 
			{
				"type": "occ",
				"energy": -0.32028,
				"method": "rhf"
			},
			{
				"type": "occ",
				"energy": -0.29027,
				"method": "rhf"
			},
			{
				"type": "occ",
				"energy": -0.27477,
				"method": "rhf"
			},
			{
				"type": "occ",
				"energy": -0.2535,
				"method": "rhf"
			},
			{
				"type": "occ",
				"energy": -0.24056,
				"method": "rhf"
			},
			{
				"type": "unocc",
				"energy": -0.02706,
				"method": "rhf"
			},
			{
				"type": "unocc",
				"energy": -0.02218,
				"method": "rhf"
			},
			{
				"type": "unocc",
				"energy": 0.01227,
				"method": "rhf"
			},
			{
				"type": "unocc",
				"energy": 0.06013,
				"method": "rhf"
			},
			{
				"type": "unocc",
				"energy": 0.08681,
				"method": "rhf"
			}
		],
		"cosmo_sigma_profile": { 
			"-0.025": 0.0,
			"-0.024": 0.0,
			"-0.023": 0.0,
			"-0.022": 0.0,
			"-0.021": 0.0,
			"-0.02": 0.0,
			"-0.019": 0.0,
			"-0.018": 0.0,
			"-0.017": 0.0,
			"-0.016": 0.0,
			"-0.015": 0.0,
			"-0.014": 0.00700497301481,
			"-0.013": 0.368656109127,
			"-0.012": 0.776242900809,
			"-0.011": 1.7469435012,
			"-0.01": 1.35269824353,
			"-0.009": 2.83943788468,
			"-0.008": 6.03315106671,
			"-0.007": 8.30601927603,
			"-0.006": 10.0437869884,
			"-0.005": 10.5413153039,
			"-0.004": 14.7326096139,
			"-0.003": 14.0763061754,
			"-0.002": 15.9161953561,
			"-0.001": 19.914345654,
			"0.0": 21.2812921178,
			"0.001": 18.7908639224,
			"0.002": 13.7031490688,
			"0.003": 13.7315870808,
			"0.004": 12.5203418579,
			"0.005": 3.03170836594,
			"0.006": 4.0258687045,
			"0.007": 3.11549331745,
			"0.008": 3.88287866414,
			"0.009": 4.11840911378,
			"0.01": 5.65972390155,
			"0.011": 5.53738161147,
			"0.012": 3.51785920459,
			"0.013": 0.639124144354,
			"0.014": 0.516534352225,
			"0.015": 0.0271512664545,
			"0.016": 0.0,
			"0.017": 0.0,
			"0.018": 0.0,
			"0.019": 0.0,
			"0.02": 0.0,
			"0.021": 0.0,
			"0.022": 0.0,
			"0.023": 0.0,
			"0.024": 0.0,
			"0.025": 0.0
		}
	}
}
