{
	 "smiles": "NC(=S)C1=CSC2=C1C=CC=C2", 
	 "Tm": 395.15, 
	 "num_atms": 19, 
	 "gaussian": { 
		 "optdone": 1, 
		 "sigma_profile": "yes", 
		 "theory": "DFT", 
		 "functional": "B3LYP", 
		 "basiset": "6-31G**", 
		 "properties": { 
			 "R2extent": 3618.931, 
			 "electric_dipole_moment_norm": 4.73516009233, 
			 "electric_quadrupole_moment_norm": 16.4027816748, 
			 "total_energy": -1198.31151057, 
			 "HOMO_LUMO_gap": 0.14749, 
			 "cosmo_polarized_energy": -14.5, 
			 "cosmo_cavitation_energy": 26.09, 
			 "cosmo_dispersion_energy": -20.42, 
			 "cosmo_repulsion_energy": 1.52, 
			 "cosmo_total_nonelectrostatic_energy": 7.2, 
			 "SMD_solvation_energy": 3.21 
		},
		"coords": [
			{
				"x": -1.4697004217,
				"y": -0.0948330182,
				"z": 2.1400612376,
				"element": "N" 
			},
			{
				"x": -2.2133718628,
				"y": 0.8276140886,
				"z": 1.481450577,
				"element": "C" 
			},
			{
				"x": -3.5042460157,
				"y": 1.5882186559,
				"z": 2.2197334022,
				"element": "S" 
			},
			{
				"x": -1.7968509078,
				"y": 1.0945209523,
				"z": 0.0871641103,
				"element": "C" 
			},
			{
				"x": -2.7128475085,
				"y": 1.4170801956,
				"z": -0.8760857759,
				"element": "C" 
			},
			{
				"x": -2.038284286,
				"y": 1.6042612198,
				"z": -2.4601304249,
				"element": "S" 
			},
			{
				"x": -0.4260035477,
				"y": 1.2652845633,
				"z": -1.8493946639,
				"element": "C" 
			},
			{
				"x": -0.4441645228,
				"y": 1.013872103,
				"z": -0.453481837,
				"element": "C" 
			},
			{
				"x": 0.7896842592,
				"y": 0.7929219903,
				"z": 0.1930743959,
				"element": "C" 
			},
			{
				"x": 1.9669676661,
				"y": 0.7868021719,
				"z": -0.5440324246,
				"element": "C" 
			},
			{
				"x": 1.9542476484,
				"y": 1.008724389,
				"z": -1.9313498485,
				"element": "C" 
			},
			{
				"x": 0.757783925,
				"y": 1.2592787992,
				"z": -2.592818542,
				"element": "C" 
			},
			{
				"x": -1.7677947466,
				"y": -0.3582356133,
				"z": 3.0684897899,
				"element": "H" 
			},
			{
				"x": -0.8465058998,
				"y": -0.7133259109,
				"z": 1.6410496078,
				"element": "H" 
			},
			{
				"x": -3.7747921392,
				"y": 1.5411006514,
				"z": -0.7152479611,
				"element": "H" 
			},
			{
				"x": 0.8260591731,
				"y": 0.6567741903,
				"z": 1.2684326249,
				"element": "H" 
			},
			{
				"x": 2.9123899536,
				"y": 0.6180169412,
				"z": -0.0372869102,
				"element": "H" 
			},
			{
				"x": 2.8854811036,
				"y": 0.9990613142,
				"z": -2.4893820612,
				"element": "H" 
			},
			{
				"x": 0.7425481296,
				"y": 1.4535623164,
				"z": -3.6608452965,
				"element": "H" 
			}
		],
		 "valence_orbital": [ 
			{
				"type": "occ",
				"energy": -0.29515,
				"method": "rhf"
			},
			{
				"type": "occ",
				"energy": -0.25073,
				"method": "rhf"
			},
			{
				"type": "occ",
				"energy": -0.24122,
				"method": "rhf"
			},
			{
				"type": "occ",
				"energy": -0.22456,
				"method": "rhf"
			},
			{
				"type": "occ",
				"energy": -0.20639,
				"method": "rhf"
			},
			{
				"type": "unocc",
				"energy": -0.0589,
				"method": "rhf"
			},
			{
				"type": "unocc",
				"energy": -0.02776,
				"method": "rhf"
			},
			{
				"type": "unocc",
				"energy": -0.01648,
				"method": "rhf"
			},
			{
				"type": "unocc",
				"energy": 0.01197,
				"method": "rhf"
			},
			{
				"type": "unocc",
				"energy": 0.05256,
				"method": "rhf"
			}
		],
		"cosmo_sigma_profile": { 
			"-0.025": 0.0,
			"-0.024": 0.0,
			"-0.023": 0.0,
			"-0.022": 0.0,
			"-0.021": 0.0,
			"-0.02": 0.0,
			"-0.019": 0.0,
			"-0.018": 0.0,
			"-0.017": 0.0,
			"-0.016": 0.0148578712745,
			"-0.015": 1.16568618446,
			"-0.014": 2.22198928869,
			"-0.013": 2.50569092776,
			"-0.012": 2.59238287277,
			"-0.011": 2.26366758227,
			"-0.01": 2.3478108722,
			"-0.009": 2.54553773104,
			"-0.008": 3.70876149353,
			"-0.007": 6.61735849947,
			"-0.006": 9.92595441046,
			"-0.005": 11.6591551055,
			"-0.004": 11.5467576634,
			"-0.003": 11.027586325,
			"-0.002": 9.09896154797,
			"-0.001": 11.6007592896,
			"0.0": 14.0294516648,
			"0.001": 18.3303115497,
			"0.002": 19.1297422162,
			"0.003": 17.0651726228,
			"0.004": 16.0949350053,
			"0.005": 7.44166864913,
			"0.006": 5.30108893248,
			"0.007": 3.82373955825,
			"0.008": 6.73500539996,
			"0.009": 5.5450634209,
			"0.01": 5.11268327095,
			"0.011": 3.32509405827,
			"0.012": 1.91543833241,
			"0.013": 0.0766058144905,
			"0.014": 0.0,
			"0.015": 0.0,
			"0.016": 0.0,
			"0.017": 0.0,
			"0.018": 0.0,
			"0.019": 0.0,
			"0.02": 0.0,
			"0.021": 0.0,
			"0.022": 0.0,
			"0.023": 0.0,
			"0.024": 0.0,
			"0.025": 0.0
		}
	}
}
