{
	 "smiles": "CCOC(=O)C(C(N)=S)=C1NN=C(O1)C1=CC=CC=C1O", 
	 "Tm": 401.15, 
	 "num_atms": 34, 
	 "gaussian": { 
		 "optdone": 1, 
		 "sigma_profile": "yes", 
		 "theory": "DFT", 
		 "functional": "B3LYP", 
		 "basiset": "6-31G**", 
		 "properties": { 
			 "R2extent": 7963.0648, 
			 "electric_dipole_moment_norm": 5.34622339694, 
			 "electric_quadrupole_moment_norm": 6.87266345095, 
			 "total_energy": -1366.56711577, 
			 "HOMO_LUMO_gap": 0.15077, 
			 "cosmo_polarized_energy": -14.84, 
			 "cosmo_cavitation_energy": 40.01, 
			 "cosmo_dispersion_energy": -29.39, 
			 "cosmo_repulsion_energy": 2.17, 
			 "cosmo_total_nonelectrostatic_energy": 12.79, 
			 "SMD_solvation_energy": 6.67 
		},
		"coords": [
			{
				"x": 2.5995704373,
				"y": -1.1121706181,
				"z": 2.7198778151,
				"element": "C" 
			},
			{
				"x": 2.6682512096,
				"y": 0.3176761245,
				"z": 2.2175126208,
				"element": "C" 
			},
			{
				"x": 1.6181405585,
				"y": 0.4813090031,
				"z": 1.2372726078,
				"element": "O" 
			},
			{
				"x": 1.5250373231,
				"y": 1.7063594226,
				"z": 0.677732781,
				"element": "C" 
			},
			{
				"x": 2.3050795475,
				"y": 2.6005909343,
				"z": 1.0088493118,
				"element": "O" 
			},
			{
				"x": 0.4484052968,
				"y": 1.8493704205,
				"z": -0.3176078324,
				"element": "C" 
			},
			{
				"x": 0.2461364285,
				"y": 3.1351661689,
				"z": -1.0003100257,
				"element": "C" 
			},
			{
				"x": 1.0714188808,
				"y": 4.1382794216,
				"z": -0.6735730426,
				"element": "N" 
			},
			{
				"x": -0.9536279252,
				"y": 3.4723818949,
				"z": -2.1821255016,
				"element": "S" 
			},
			{
				"x": -0.3927485274,
				"y": 0.7655026645,
				"z": -0.6246449726,
				"element": "C" 
			},
			{
				"x": -1.4157598728,
				"y": 0.7002366355,
				"z": -1.4921492085,
				"element": "N" 
			},
			{
				"x": -1.9939573165,
				"y": -0.5429000518,
				"z": -1.5056937529,
				"element": "N" 
			},
			{
				"x": -1.3088320829,
				"y": -1.2255403089,
				"z": -0.6377073049,
				"element": "C" 
			},
			{
				"x": -0.3130397476,
				"y": -0.4751391664,
				"z": -0.0647929492,
				"element": "O" 
			},
			{
				"x": -1.4971299076,
				"y": -2.6054959537,
				"z": -0.2566028067,
				"element": "C" 
			},
			{
				"x": -0.6650331803,
				"y": -3.207661718,
				"z": 0.7074756883,
				"element": "C" 
			},
			{
				"x": -0.8505251566,
				"y": -4.532622925,
				"z": 1.0695374288,
				"element": "C" 
			},
			{
				"x": -1.8775292736,
				"y": -5.27435169,
				"z": 0.4668732973,
				"element": "C" 
			},
			{
				"x": -2.708557014,
				"y": -4.6993320584,
				"z": -0.485587797,
				"element": "C" 
			},
			{
				"x": -2.5344146065,
				"y": -3.3602458984,
				"z": -0.8632886228,
				"element": "C" 
			},
			{
				"x": -3.371950274,
				"y": -2.8600943716,
				"z": -1.7920766778,
				"element": "O" 
			},
			{
				"x": 1.6315510152,
				"y": -1.3173566402,
				"z": 3.1867290702,
				"element": "H" 
			},
			{
				"x": 3.3816399836,
				"y": -1.2797877791,
				"z": 3.4669299377,
				"element": "H" 
			},
			{
				"x": 2.750715345,
				"y": -1.822629773,
				"z": 1.9016516004,
				"element": "H" 
			},
			{
				"x": 3.6308539605,
				"y": 0.5418476527,
				"z": 1.7480543571,
				"element": "H" 
			},
			{
				"x": 2.519217969,
				"y": 1.0432328838,
				"z": 3.0228262215,
				"element": "H" 
			},
			{
				"x": 1.7969576262,
				"y": 3.9786142367,
				"z": 0.0239432301,
				"element": "H" 
			},
			{
				"x": 0.9378944256,
				"y": 5.0228219378,
				"z": -1.1385978613,
				"element": "H" 
			},
			{
				"x": -1.6878729555,
				"y": 1.529928292,
				"z": -2.0573586648,
				"element": "H" 
			},
			{
				"x": 0.1222496819,
				"y": -2.6136676914,
				"z": 1.1594191006,
				"element": "H" 
			},
			{
				"x": -0.2060771715,
				"y": -4.9900103592,
				"z": 1.8126562364,
				"element": "H" 
			},
			{
				"x": -2.0288372614,
				"y": -6.3131058243,
				"z": 0.7456714307,
				"element": "H" 
			},
			{
				"x": -3.506015835,
				"y": -5.2617277814,
				"z": -0.9589830223,
				"element": "H" 
			},
			{
				"x": -3.1582115807,
				"y": -1.9232770846,
				"z": -1.9763126925,
				"element": "H" 
			}
		],
		 "valence_orbital": [ 
			{
				"type": "occ",
				"energy": -0.27425,
				"method": "rhf"
			},
			{
				"type": "occ",
				"energy": -0.2453,
				"method": "rhf"
			},
			{
				"type": "occ",
				"energy": -0.22756,
				"method": "rhf"
			},
			{
				"type": "occ",
				"energy": -0.21944,
				"method": "rhf"
			},
			{
				"type": "occ",
				"energy": -0.21597,
				"method": "rhf"
			},
			{
				"type": "unocc",
				"energy": -0.0652,
				"method": "rhf"
			},
			{
				"type": "unocc",
				"energy": -0.03587,
				"method": "rhf"
			},
			{
				"type": "unocc",
				"energy": -0.01384,
				"method": "rhf"
			},
			{
				"type": "unocc",
				"energy": -0.00936,
				"method": "rhf"
			},
			{
				"type": "unocc",
				"energy": 0.03489,
				"method": "rhf"
			}
		],
		"cosmo_sigma_profile": { 
			"-0.025": 0.0,
			"-0.024": 0.0,
			"-0.023": 0.0,
			"-0.022": 0.0,
			"-0.021": 0.0,
			"-0.02": 0.0,
			"-0.019": 0.0,
			"-0.018": 0.0,
			"-0.017": 0.0,
			"-0.016": 0.0,
			"-0.015": 0.0,
			"-0.014": 0.742554854639,
			"-0.013": 0.81332695067,
			"-0.012": 1.20659791639,
			"-0.011": 1.01764654195,
			"-0.01": 1.79174147782,
			"-0.009": 2.53315587745,
			"-0.008": 3.11796828712,
			"-0.007": 6.94319746096,
			"-0.006": 11.4938129202,
			"-0.005": 18.2912727867,
			"-0.004": 28.9510882029,
			"-0.003": 31.6406411211,
			"-0.002": 29.9960769037,
			"-0.001": 26.2652298286,
			"0.0": 24.5315116776,
			"0.001": 23.6257383437,
			"0.002": 21.4718296815,
			"0.003": 21.0085610627,
			"0.004": 17.4704536017,
			"0.005": 6.58443324954,
			"0.006": 6.35677766957,
			"0.007": 7.70557144758,
			"0.008": 5.56681299141,
			"0.009": 6.68682954218,
			"0.01": 7.53969132284,
			"0.011": 8.00083086306,
			"0.012": 1.69919035335,
			"0.013": 0.0,
			"0.014": 0.0,
			"0.015": 0.0,
			"0.016": 0.0,
			"0.017": 0.0,
			"0.018": 0.0,
			"0.019": 0.0,
			"0.02": 0.0,
			"0.021": 0.0,
			"0.022": 0.0,
			"0.023": 0.0,
			"0.024": 0.0,
			"0.025": 0.0
		}
	}
}
