{
	 "smiles": "CC(C)CC(N)C(=O)NC1=NC=CS1", 
	 "Tm": 373.15, 
	 "num_atms": 29, 
	 "gaussian": { 
		 "optdone": 1, 
		 "sigma_profile": "yes", 
		 "theory": "DFT", 
		 "functional": "B3LYP", 
		 "basiset": "6-31G**", 
		 "properties": { 
			 "R2extent": 4637.0955, 
			 "electric_dipole_moment_norm": 3.39120718329, 
			 "electric_quadrupole_moment_norm": 7.23129180645, 
			 "total_energy": -989.671421277, 
			 "HOMO_LUMO_gap": 0.19413, 
			 "cosmo_polarized_energy": -12.12, 
			 "cosmo_cavitation_energy": 32.79, 
			 "cosmo_dispersion_energy": -23.44, 
			 "cosmo_repulsion_energy": 1.81, 
			 "cosmo_total_nonelectrostatic_energy": 11.15, 
			 "SMD_solvation_energy": 5.49 
		},
		"coords": [
			{
				"x": -1.6835774244,
				"y": -0.1331278976,
				"z": 1.0758994629,
				"element": "C" 
			},
			{
				"x": -1.3450598374,
				"y": 1.3640916047,
				"z": 1.1219676042,
				"element": "C" 
			},
			{
				"x": -2.6188690476,
				"y": 2.2203130912,
				"z": 1.2032444876,
				"element": "C" 
			},
			{
				"x": -0.3838762519,
				"y": 1.7931034451,
				"z": -0.0163655218,
				"element": "C" 
			},
			{
				"x": -0.7160332916,
				"y": 1.2936751648,
				"z": -1.4437429219,
				"element": "C" 
			},
			{
				"x": -2.028149736,
				"y": 1.7521807422,
				"z": -1.8900016816,
				"element": "N" 
			},
			{
				"x": 0.3914720006,
				"y": 1.7982014808,
				"z": -2.3829441888,
				"element": "C" 
			},
			{
				"x": 0.2635399626,
				"y": 2.8151039744,
				"z": -3.0473036273,
				"element": "O" 
			},
			{
				"x": 1.6143096828,
				"y": 1.117748665,
				"z": -2.4828208693,
				"element": "N" 
			},
			{
				"x": 2.0544752754,
				"y": -0.0818380287,
				"z": -1.9518355228,
				"element": "C" 
			},
			{
				"x": 1.4148445457,
				"y": -0.8402489482,
				"z": -1.1111158384,
				"element": "N" 
			},
			{
				"x": 2.1572558874,
				"y": -1.9618368507,
				"z": -0.8048998288,
				"element": "C" 
			},
			{
				"x": 3.3732975287,
				"y": -2.0703329422,
				"z": -1.4035039684,
				"element": "C" 
			},
			{
				"x": 3.6450604088,
				"y": -0.6926030555,
				"z": -2.4382691278,
				"element": "S" 
			},
			{
				"x": -0.7807972184,
				"y": -0.7469862097,
				"z": 0.9899117538,
				"element": "H" 
			},
			{
				"x": -2.3320437266,
				"y": -0.3620035999,
				"z": 0.2235445883,
				"element": "H" 
			},
			{
				"x": -2.2160200676,
				"y": -0.435121114,
				"z": 1.9844888289,
				"element": "H" 
			},
			{
				"x": -0.77965608,
				"y": 1.5415591486,
				"z": 2.0490048986,
				"element": "H" 
			},
			{
				"x": -2.3737355084,
				"y": 3.2855000699,
				"z": 1.2904681169,
				"element": "H" 
			},
			{
				"x": -3.2340776387,
				"y": 2.0854830424,
				"z": 0.3108802681,
				"element": "H" 
			},
			{
				"x": -3.2110652362,
				"y": 1.9448769073,
				"z": 2.0838053186,
				"element": "H" 
			},
			{
				"x": 0.6195296671,
				"y": 1.4258036489,
				"z": 0.226765647,
				"element": "H" 
			},
			{
				"x": -0.3196980857,
				"y": 2.8897545404,
				"z": -0.0410707628,
				"element": "H" 
			},
			{
				"x": -0.7037554393,
				"y": 0.2019095055,
				"z": -1.4367857545,
				"element": "H" 
			},
			{
				"x": -2.2463229038,
				"y": 1.3279225989,
				"z": -2.7892865358,
				"element": "H" 
			},
			{
				"x": -1.9713215473,
				"y": 2.7529193026,
				"z": -2.073329129,
				"element": "H" 
			},
			{
				"x": 2.2432107011,
				"y": 1.5949212847,
				"z": -3.1181128663,
				"element": "H" 
			},
			{
				"x": 1.7448471395,
				"y": -2.6859180306,
				"z": -0.1124442843,
				"element": "H" 
			},
			{
				"x": 4.1149162412,
				"y": -2.8492515403,
				"z": -1.3061485453,
				"element": "H" 
			}
		],
		 "valence_orbital": [ 
			{
				"type": "occ",
				"energy": -0.29415,
				"method": "rhf"
			},
			{
				"type": "occ",
				"energy": -0.28856,
				"method": "rhf"
			},
			{
				"type": "occ",
				"energy": -0.27215,
				"method": "rhf"
			},
			{
				"type": "occ",
				"energy": -0.2377,
				"method": "rhf"
			},
			{
				"type": "occ",
				"energy": -0.23128,
				"method": "rhf"
			},
			{
				"type": "unocc",
				"energy": -0.03715,
				"method": "rhf"
			},
			{
				"type": "unocc",
				"energy": -0.0093,
				"method": "rhf"
			},
			{
				"type": "unocc",
				"energy": 0.01424,
				"method": "rhf"
			},
			{
				"type": "unocc",
				"energy": 0.05541,
				"method": "rhf"
			},
			{
				"type": "unocc",
				"energy": 0.07738,
				"method": "rhf"
			}
		],
		"cosmo_sigma_profile": { 
			"-0.025": 0.0,
			"-0.024": 0.0,
			"-0.023": 0.0,
			"-0.022": 0.0,
			"-0.021": 0.0,
			"-0.02": 0.0,
			"-0.019": 0.0,
			"-0.018": 0.0,
			"-0.017": 0.317656746348,
			"-0.016": 0.855341795796,
			"-0.015": 1.41010254691,
			"-0.014": 0.535220791203,
			"-0.013": 0.808365507256,
			"-0.012": 1.11858744062,
			"-0.011": 0.864465888242,
			"-0.01": 2.21798953942,
			"-0.009": 4.02022482613,
			"-0.008": 5.56511417495,
			"-0.007": 8.0549977646,
			"-0.006": 6.99059470755,
			"-0.005": 7.31037453998,
			"-0.004": 7.89470371398,
			"-0.003": 11.4146171063,
			"-0.002": 22.599750494,
			"-0.001": 31.1627178169,
			"0.0": 30.7339286038,
			"0.001": 27.4097173246,
			"0.002": 25.8843184066,
			"0.003": 19.285517977,
			"0.004": 9.42610182544,
			"0.005": 6.15386074208,
			"0.006": 4.95666403143,
			"0.007": 3.62531067854,
			"0.008": 2.56728299584,
			"0.009": 3.0364520835,
			"0.01": 1.77322156787,
			"0.011": 3.0973100902,
			"0.012": 5.53952295447,
			"0.013": 2.34721814052,
			"0.014": 0.261525539871,
			"0.015": 0.0,
			"0.016": 0.0,
			"0.017": 0.0,
			"0.018": 0.0,
			"0.019": 0.0,
			"0.02": 0.0,
			"0.021": 0.0,
			"0.022": 0.0,
			"0.023": 0.0,
			"0.024": 0.0,
			"0.025": 0.0
		}
	}
}
