{
	 "smiles": "COC1=CC=C(C=C1)C1=C(C(=NO1)C(=O)C1=CC=C(Br)C=C1)S(=O)(=O)C1=CC=CC=C1", 
	 "Tm": 413.15, 
	 "num_atms": 47, 
	 "gaussian": { 
		 "optdone": 1, 
		 "sigma_profile": "yes", 
		 "theory": "DFT", 
		 "functional": "B3LYP", 
		 "basiset": "6-31G**", 
		 "properties": { 
			 "R2extent": 23432.6353, 
			 "electric_dipole_moment_norm": 4.41022049902, 
			 "electric_quadrupole_moment_norm": 29.4944434297, 
			 "total_energy": -4286.40797457, 
			 "HOMO_LUMO_gap": 0.14105, 
			 "cosmo_polarized_energy": -20.35, 
			 "cosmo_cavitation_energy": 56.04, 
			 "cosmo_dispersion_energy": -39.14, 
			 "cosmo_repulsion_energy": 2.9, 
			 "cosmo_total_nonelectrostatic_energy": 19.8, 
			 "SMD_solvation_energy": 8.52 
		},
		"coords": [
			{
				"x": 1.0257374305,
				"y": -4.4805979313,
				"z": -6.2585531697,
				"element": "C" 
			},
			{
				"x": 0.9489162539,
				"y": -5.0226447541,
				"z": -4.9460967832,
				"element": "O" 
			},
			{
				"x": 0.7366371524,
				"y": -4.1763822855,
				"z": -3.9062647867,
				"element": "C" 
			},
			{
				"x": 0.565203495,
				"y": -2.7912099298,
				"z": -4.0256299455,
				"element": "C" 
			},
			{
				"x": 0.3615072657,
				"y": -2.0119016034,
				"z": -2.8889661534,
				"element": "C" 
			},
			{
				"x": 0.322341102,
				"y": -2.5941338861,
				"z": -1.6140741727,
				"element": "C" 
			},
			{
				"x": 0.4818583191,
				"y": -3.9948212687,
				"z": -1.5101446618,
				"element": "C" 
			},
			{
				"x": 0.691641941,
				"y": -4.7723980721,
				"z": -2.6344873049,
				"element": "C" 
			},
			{
				"x": 0.0596204179,
				"y": -1.8431622695,
				"z": -0.3827445819,
				"element": "C" 
			},
			{
				"x": 0.3470214077,
				"y": -0.6106631084,
				"z": 0.1853278689,
				"element": "C" 
			},
			{
				"x": -0.2313182121,
				"y": -0.6854507071,
				"z": 1.5000853983,
				"element": "C" 
			},
			{
				"x": -0.8283733096,
				"y": -1.8396848496,
				"z": 1.6953258116,
				"element": "N" 
			},
			{
				"x": -0.6471712287,
				"y": -2.5608978042,
				"z": 0.5309531661,
				"element": "O" 
			},
			{
				"x": -0.1285795793,
				"y": 0.2841041485,
				"z": 2.6454249857,
				"element": "C" 
			},
			{
				"x": 0.8890509727,
				"y": 0.9557456271,
				"z": 2.738798395,
				"element": "O" 
			},
			{
				"x": -1.2271008411,
				"y": 0.3986755698,
				"z": 3.6480891594,
				"element": "C" 
			},
			{
				"x": -2.5065475834,
				"y": -0.1561702145,
				"z": 3.4852246718,
				"element": "C" 
			},
			{
				"x": -3.4890407556,
				"y": 0.0358873306,
				"z": 4.4546574107,
				"element": "C" 
			},
			{
				"x": -3.1886792866,
				"y": 0.7837715304,
				"z": 5.5920415987,
				"element": "C" 
			},
			{
				"x": -4.530169103,
				"y": 1.0455522142,
				"z": 6.9212782631,
				"element": "Br" 
			},
			{
				"x": -1.9236805707,
				"y": 1.3476583873,
				"z": 5.7762530297,
				"element": "C" 
			},
			{
				"x": -0.9537553774,
				"y": 1.1560924431,
				"z": 4.8008031654,
				"element": "C" 
			},
			{
				"x": 1.3969649706,
				"y": 0.6856199893,
				"z": -0.4875525432,
				"element": "S" 
			},
			{
				"x": 2.7016007433,
				"y": 0.6419831407,
				"z": 0.1776805681,
				"element": "O" 
			},
			{
				"x": 1.3190619282,
				"y": 0.5680418283,
				"z": -1.9539785611,
				"element": "O" 
			},
			{
				"x": 0.5714986064,
				"y": 2.224259395,
				"z": -0.0595043737,
				"element": "C" 
			},
			{
				"x": -0.6489248682,
				"y": 2.5313721644,
				"z": -0.666890177,
				"element": "C" 
			},
			{
				"x": -1.2478244208,
				"y": 3.7602422928,
				"z": -0.3936167628,
				"element": "C" 
			},
			{
				"x": -0.6168357876,
				"y": 4.6707851794,
				"z": 0.4590326646,
				"element": "C" 
			},
			{
				"x": 0.6115646908,
				"y": 4.3563025653,
				"z": 1.0436290378,
				"element": "C" 
			},
			{
				"x": 1.2146807913,
				"y": 3.1235420069,
				"z": 0.7901942326,
				"element": "C" 
			},
			{
				"x": 0.0868221699,
				"y": -3.9928413126,
				"z": -6.5482237336,
				"element": "H" 
			},
			{
				"x": 1.2107741368,
				"y": -5.3269489336,
				"z": -6.921105015,
				"element": "H" 
			},
			{
				"x": 1.8493753947,
				"y": -3.7620448215,
				"z": -6.3490198955,
				"element": "H" 
			},
			{
				"x": 0.5889016409,
				"y": -2.3069721552,
				"z": -4.9941651423,
				"element": "H" 
			},
			{
				"x": 0.2431742408,
				"y": -0.943215101,
				"z": -2.9945571302,
				"element": "H" 
			},
			{
				"x": 0.4501385729,
				"y": -4.4665583031,
				"z": -0.5344592518,
				"element": "H" 
			},
			{
				"x": 0.8292870642,
				"y": -5.8455917525,
				"z": -2.5582237315,
				"element": "H" 
			},
			{
				"x": -2.7383646585,
				"y": -0.7461373354,
				"z": 2.6078995467,
				"element": "H" 
			},
			{
				"x": -4.4770547495,
				"y": -0.3911730722,
				"z": 4.3282518824,
				"element": "H" 
			},
			{
				"x": -1.7085574068,
				"y": 1.9254688475,
				"z": 6.667682084,
				"element": "H" 
			},
			{
				"x": 0.0346825705,
				"y": 1.5881188155,
				"z": 4.9126498342,
				"element": "H" 
			},
			{
				"x": -1.1141439737,
				"y": 1.8276426888,
				"z": -1.3494095614,
				"element": "H" 
			},
			{
				"x": -2.198650633,
				"y": 4.011370167,
				"z": -0.8537516785,
				"element": "H" 
			},
			{
				"x": -1.0835705133,
				"y": 5.6298139511,
				"z": 0.6641960194,
				"element": "H" 
			},
			{
				"x": 1.1005293743,
				"y": 5.0680588688,
				"z": 1.7016449609,
				"element": "H" 
			},
			{
				"x": 2.1599502055,
				"y": 2.8466923197,
				"z": 1.2408953622,
				"element": "H" 
			}
		],
		 "valence_orbital": [ 
			{
				"type": "occ",
				"energy": -0.26916,
				"method": "rhf"
			},
			{
				"type": "occ",
				"energy": -0.26831,
				"method": "rhf"
			},
			{
				"type": "occ",
				"energy": -0.26222,
				"method": "rhf"
			},
			{
				"type": "occ",
				"energy": -0.2556,
				"method": "rhf"
			},
			{
				"type": "occ",
				"energy": -0.22702,
				"method": "rhf"
			},
			{
				"type": "unocc",
				"energy": -0.08597,
				"method": "rhf"
			},
			{
				"type": "unocc",
				"energy": -0.05564,
				"method": "rhf"
			},
			{
				"type": "unocc",
				"energy": -0.03795,
				"method": "rhf"
			},
			{
				"type": "unocc",
				"energy": -0.02569,
				"method": "rhf"
			},
			{
				"type": "unocc",
				"energy": -0.01767,
				"method": "rhf"
			}
		],
		"cosmo_sigma_profile": { 
			"-0.025": 0.0,
			"-0.024": 0.0,
			"-0.023": 0.0,
			"-0.022": 0.0,
			"-0.021": 0.0,
			"-0.02": 0.0,
			"-0.019": 0.0,
			"-0.018": 0.0,
			"-0.017": 0.0,
			"-0.016": 0.0,
			"-0.015": 0.0,
			"-0.014": 0.0,
			"-0.013": 0.0,
			"-0.012": 0.0,
			"-0.011": 0.0,
			"-0.01": 0.0,
			"-0.009": 0.00025089688064,
			"-0.008": 2.84947980852,
			"-0.007": 17.7460620767,
			"-0.006": 32.4361539552,
			"-0.005": 34.9920463287,
			"-0.004": 36.2324708349,
			"-0.003": 33.8104609083,
			"-0.002": 28.2482726597,
			"-0.001": 27.7161119175,
			"0.0": 29.3590613955,
			"0.001": 43.2894289998,
			"0.002": 42.3333768781,
			"0.003": 39.1008641859,
			"0.004": 24.1095162839,
			"0.005": 12.1723570833,
			"0.006": 8.33158456673,
			"0.007": 5.93162539262,
			"0.008": 8.01896198218,
			"0.009": 8.71509182676,
			"0.01": 8.46559067991,
			"0.011": 8.74074092723,
			"0.012": 2.43043773516,
			"0.013": 0.137817773514,
			"0.014": 0.0,
			"0.015": 0.0,
			"0.016": 0.0,
			"0.017": 0.0,
			"0.018": 0.0,
			"0.019": 0.0,
			"0.02": 0.0,
			"0.021": 0.0,
			"0.022": 0.0,
			"0.023": 0.0,
			"0.024": 0.0,
			"0.025": 0.0
		}
	}
}
