{
	 "smiles": "NNC(=O)NCC1CCCO1", 
	 "Tm": 353.15, 
	 "num_atms": 24, 
	 "gaussian": { 
		 "optdone": 1, 
		 "sigma_profile": "yes", 
		 "theory": "DFT", 
		 "functional": "B3LYP", 
		 "basiset": "6-31G**", 
		 "properties": { 
			 "R2extent": 2160.8564, 
			 "electric_dipole_moment_norm": 5.25019623633, 
			 "electric_quadrupole_moment_norm": 11.6442338932, 
			 "total_energy": -551.144420831, 
			 "HOMO_LUMO_gap": 0.27759, 
			 "cosmo_polarized_energy": -18.77, 
			 "cosmo_cavitation_energy": 26.21, 
			 "cosmo_dispersion_energy": -18.84, 
			 "cosmo_repulsion_energy": 1.56, 
			 "cosmo_total_nonelectrostatic_energy": 8.93, 
			 "SMD_solvation_energy": 4.31 
		},
		"coords": [
			{
				"x": 3.1438993276,
				"y": -1.3784095948,
				"z": -0.1017369478,
				"element": "N" 
			},
			{
				"x": 1.9194206554,
				"y": -1.8179445639,
				"z": -0.6656844822,
				"element": "N" 
			},
			{
				"x": 0.8978099452,
				"y": -2.392175802,
				"z": 0.0872503077,
				"element": "C" 
			},
			{
				"x": 0.2248902741,
				"y": -3.3102628275,
				"z": -0.3595309286,
				"element": "O" 
			},
			{
				"x": 0.7433455131,
				"y": -1.9261168392,
				"z": 1.3971047496,
				"element": "N" 
			},
			{
				"x": 0.6780533863,
				"y": -0.5108394232,
				"z": 1.7594626239,
				"element": "C" 
			},
			{
				"x": -0.6729712721,
				"y": 0.1567028227,
				"z": 1.4633831039,
				"element": "C" 
			},
			{
				"x": -0.6700233042,
				"y": 1.6781780345,
				"z": 1.753347419,
				"element": "C" 
			},
			{
				"x": -0.5571460847,
				"y": 2.3001933795,
				"z": 0.3500076644,
				"element": "C" 
			},
			{
				"x": -1.3024975078,
				"y": 1.2686489708,
				"z": -0.4980113614,
				"element": "C" 
			},
			{
				"x": -0.9689917326,
				"y": 0.0038322031,
				"z": 0.0723168591,
				"element": "O" 
			},
			{
				"x": 3.1002890676,
				"y": -0.3750299072,
				"z": 0.0555874832,
				"element": "H" 
			},
			{
				"x": 3.287612574,
				"y": -1.8296348447,
				"z": 0.7999849908,
				"element": "H" 
			},
			{
				"x": 2.0653741939,
				"y": -2.3595553198,
				"z": -1.5088889682,
				"element": "H" 
			},
			{
				"x": 0.0040424915,
				"y": -2.4739129676,
				"z": 1.8246890693,
				"element": "H" 
			},
			{
				"x": 0.8870819172,
				"y": -0.4204801867,
				"z": 2.8333729657,
				"element": "H" 
			},
			{
				"x": 1.4647973572,
				"y": 0.0313854727,
				"z": 1.2316381339,
				"element": "H" 
			},
			{
				"x": -1.4528828629,
				"y": -0.353553453,
				"z": 2.0499224372,
				"element": "H" 
			},
			{
				"x": 0.144264713,
				"y": 1.9750432309,
				"z": 2.4219609965,
				"element": "H" 
			},
			{
				"x": -1.6097294503,
				"y": 1.9763968124,
				"z": 2.2288299674,
				"element": "H" 
			},
			{
				"x": 0.4901181548,
				"y": 2.3611251937,
				"z": 0.0343412484,
				"element": "H" 
			},
			{
				"x": -0.9885695212,
				"y": 3.3031302341,
				"z": 0.2879546344,
				"element": "H" 
			},
			{
				"x": -2.3907055076,
				"y": 1.4368502172,
				"z": -0.4528178551,
				"element": "H" 
			},
			{
				"x": -1.0016823275,
				"y": 1.253029158,
				"z": -1.5494841111,
				"element": "H" 
			}
		],
		 "valence_orbital": [ 
			{
				"type": "occ",
				"energy": -0.28976,
				"method": "rhf"
			},
			{
				"type": "occ",
				"energy": -0.26864,
				"method": "rhf"
			},
			{
				"type": "occ",
				"energy": -0.2491,
				"method": "rhf"
			},
			{
				"type": "occ",
				"energy": -0.23823,
				"method": "rhf"
			},
			{
				"type": "occ",
				"energy": -0.23102,
				"method": "rhf"
			},
			{
				"type": "unocc",
				"energy": 0.04657,
				"method": "rhf"
			},
			{
				"type": "unocc",
				"energy": 0.06294,
				"method": "rhf"
			},
			{
				"type": "unocc",
				"energy": 0.08322,
				"method": "rhf"
			},
			{
				"type": "unocc",
				"energy": 0.09016,
				"method": "rhf"
			},
			{
				"type": "unocc",
				"energy": 0.10502,
				"method": "rhf"
			}
		],
		"cosmo_sigma_profile": { 
			"-0.025": 0.0,
			"-0.024": 0.0,
			"-0.023": 0.0,
			"-0.022": 0.0,
			"-0.021": 0.0,
			"-0.02": 0.0,
			"-0.019": 0.0,
			"-0.018": 0.0,
			"-0.017": 0.0,
			"-0.016": 0.0,
			"-0.015": 0.0,
			"-0.014": 0.0,
			"-0.013": 0.24504051496,
			"-0.012": 2.06466062817,
			"-0.011": 3.64946934794,
			"-0.01": 5.37795324223,
			"-0.009": 4.65385517831,
			"-0.008": 3.64615559272,
			"-0.007": 4.36675994863,
			"-0.006": 5.30277087449,
			"-0.005": 9.17867601688,
			"-0.004": 21.2449296945,
			"-0.003": 27.7262197778,
			"-0.002": 22.3996690391,
			"-0.001": 15.514205665,
			"0.0": 12.9275706887,
			"0.001": 5.31292423985,
			"0.002": 4.46347429537,
			"0.003": 5.05924219797,
			"0.004": 3.75770556836,
			"0.005": 3.52418799092,
			"0.006": 3.14147009044,
			"0.007": 4.37664973485,
			"0.008": 3.34612353677,
			"0.009": 3.74400528961,
			"0.01": 3.96636733366,
			"0.011": 4.01840531813,
			"0.012": 4.40899819405,
			"0.013": 4.98627868156,
			"0.014": 7.82033230858,
			"0.015": 2.33859731293,
			"0.016": 0.532625602026,
			"0.017": 0.138792816443,
			"0.018": 0.0,
			"0.019": 0.0,
			"0.02": 0.0,
			"0.021": 0.0,
			"0.022": 0.0,
			"0.023": 0.0,
			"0.024": 0.0,
			"0.025": 0.0
		}
	}
}
