{
	 "smiles": "CC1=NC(N2C=CC=N2)=C(C)C(Cl)=N1", 
	 "Tm": 335.15, 
	 "num_atms": 23, 
	 "gaussian": { 
		 "optdone": 1, 
		 "sigma_profile": "yes", 
		 "theory": "DFT", 
		 "functional": "B3LYP", 
		 "basiset": "6-31G**", 
		 "properties": { 
			 "R2extent": 3601.7721, 
			 "electric_dipole_moment_norm": 2.63033922907, 
			 "electric_quadrupole_moment_norm": 4.08848340464, 
			 "total_energy": -1027.5695607, 
			 "HOMO_LUMO_gap": 0.19377, 
			 "cosmo_polarized_energy": -6.97, 
			 "cosmo_cavitation_energy": 28.78, 
			 "cosmo_dispersion_energy": -21.43, 
			 "cosmo_repulsion_energy": 1.68, 
			 "cosmo_total_nonelectrostatic_energy": 9.03, 
			 "SMD_solvation_energy": 2.7 
		},
		"coords": [
			{
				"x": -2.1071107348,
				"y": 1.4929927554,
				"z": -2.0945759123,
				"element": "C" 
			},
			{
				"x": -1.2141491353,
				"y": 0.8069551333,
				"z": -1.0988896709,
				"element": "C" 
			},
			{
				"x": -1.2260790883,
				"y": 1.2352424509,
				"z": 0.1620054097,
				"element": "N" 
			},
			{
				"x": -0.4104931497,
				"y": 0.6299716401,
				"z": 1.0343314033,
				"element": "C" 
			},
			{
				"x": -0.5221211873,
				"y": 1.1436119404,
				"z": 2.3444239596,
				"element": "N" 
			},
			{
				"x": -1.1581051593,
				"y": 2.3134253861,
				"z": 2.6895700285,
				"element": "C" 
			},
			{
				"x": -1.0938399531,
				"y": 2.4072799855,
				"z": 4.0569113595,
				"element": "C" 
			},
			{
				"x": -0.406300793,
				"y": 1.2355324161,
				"z": 4.467266339,
				"element": "C" 
			},
			{
				"x": -0.063391499,
				"y": 0.4723202726,
				"z": 3.4408459066,
				"element": "N" 
			},
			{
				"x": 0.4822854266,
				"y": -0.4056973833,
				"z": 0.682461902,
				"element": "C" 
			},
			{
				"x": 1.4908905902,
				"y": -1.0392664483,
				"z": 1.6034861213,
				"element": "C" 
			},
			{
				"x": 0.3420996162,
				"y": -0.7758647954,
				"z": -0.6681565121,
				"element": "C" 
			},
			{
				"x": 1.3048203763,
				"y": -2.1071827268,
				"z": -1.3097547283,
				"element": "Cl" 
			},
			{
				"x": -0.4649264764,
				"y": -0.2115321212,
				"z": -1.5464534422,
				"element": "N" 
			},
			{
				"x": -1.50911975,
				"y": 1.9160139062,
				"z": -2.9081425054,
				"element": "H" 
			},
			{
				"x": -2.6779181306,
				"y": 2.2862855652,
				"z": -1.611259216,
				"element": "H" 
			},
			{
				"x": -2.7938711946,
				"y": 0.7699337257,
				"z": -2.5454455002,
				"element": "H" 
			},
			{
				"x": -1.5896071905,
				"y": 2.9458903561,
				"z": 1.9322582055,
				"element": "H" 
			},
			{
				"x": -1.4834733292,
				"y": 3.2020630971,
				"z": 4.6749082531,
				"element": "H" 
			},
			{
				"x": -0.1536618552,
				"y": 0.9197653265,
				"z": 5.471014647,
				"element": "H" 
			},
			{
				"x": 1.020672237,
				"y": -1.7787853605,
				"z": 2.2581929476,
				"element": "H" 
			},
			{
				"x": 1.941629421,
				"y": -0.2936821093,
				"z": 2.2581882823,
				"element": "H" 
			},
			{
				"x": 2.2696709591,
				"y": -1.5340730123,
				"z": 1.0234127222,
				"element": "H" 
			}
		],
		 "valence_orbital": [ 
			{
				"type": "occ",
				"energy": -0.29841,
				"method": "rhf"
			},
			{
				"type": "occ",
				"energy": -0.27943,
				"method": "rhf"
			},
			{
				"type": "occ",
				"energy": -0.26847,
				"method": "rhf"
			},
			{
				"type": "occ",
				"energy": -0.26033,
				"method": "rhf"
			},
			{
				"type": "occ",
				"energy": -0.24963,
				"method": "rhf"
			},
			{
				"type": "unocc",
				"energy": -0.05586,
				"method": "rhf"
			},
			{
				"type": "unocc",
				"energy": -0.03479,
				"method": "rhf"
			},
			{
				"type": "unocc",
				"energy": 0.0199,
				"method": "rhf"
			},
			{
				"type": "unocc",
				"energy": 0.02897,
				"method": "rhf"
			},
			{
				"type": "unocc",
				"energy": 0.0605,
				"method": "rhf"
			}
		],
		"cosmo_sigma_profile": { 
			"-0.025": 0.0,
			"-0.024": 0.0,
			"-0.023": 0.0,
			"-0.022": 0.0,
			"-0.021": 0.0,
			"-0.02": 0.0,
			"-0.019": 0.0,
			"-0.018": 0.0,
			"-0.017": 0.0,
			"-0.016": 0.0,
			"-0.015": 0.0,
			"-0.014": 0.0,
			"-0.013": 0.0,
			"-0.012": 0.0,
			"-0.011": 0.0,
			"-0.01": 0.0,
			"-0.009": 0.0625565824127,
			"-0.008": 2.70867898071,
			"-0.007": 4.88069101248,
			"-0.006": 5.24789537308,
			"-0.005": 10.7670124861,
			"-0.004": 16.0032505854,
			"-0.003": 24.0817597846,
			"-0.002": 29.8166289849,
			"-0.001": 28.2345370333,
			"0.0": 19.1537907081,
			"0.001": 15.0704729041,
			"0.002": 17.0919763764,
			"0.003": 16.33736199,
			"0.004": 15.023879912,
			"0.005": 8.53863932039,
			"0.006": 5.14944438827,
			"0.007": 3.56035640362,
			"0.008": 3.19225429222,
			"0.009": 3.01499921752,
			"0.01": 2.60040808738,
			"0.011": 1.02209662952,
			"0.012": 0.481154663024,
			"0.013": 1.05338952567,
			"0.014": 0.136117555912,
			"0.015": 0.0,
			"0.016": 0.0,
			"0.017": 0.0,
			"0.018": 0.0,
			"0.019": 0.0,
			"0.02": 0.0,
			"0.021": 0.0,
			"0.022": 0.0,
			"0.023": 0.0,
			"0.024": 0.0,
			"0.025": 0.0
		}
	}
}
