{
	 "smiles": "CN(C)CCCN1C2=C(CCC3=C1C=C(Cl)C=C3)C=CC=C2", 
	 "Tm": 463.15, 
	 "num_atms": 45, 
	 "gaussian": { 
		 "optdone": 1, 
		 "sigma_profile": "yes", 
		 "theory": "DFT", 
		 "functional": "B3LYP", 
		 "basiset": "6-31G**", 
		 "properties": { 
			 "R2extent": 8802.082, 
			 "electric_dipole_moment_norm": 2.96918707562, 
			 "electric_quadrupole_moment_norm": 15.8623260621, 
			 "total_energy": -1307.57433179, 
			 "HOMO_LUMO_gap": 0.18903, 
			 "cosmo_polarized_energy": -7.9, 
			 "cosmo_cavitation_energy": 46.62, 
			 "cosmo_dispersion_energy": -31.99, 
			 "cosmo_repulsion_energy": 2.47, 
			 "cosmo_total_nonelectrostatic_energy": 17.11, 
			 "SMD_solvation_energy": 5.44 
		},
		"coords": [
			{
				"x": 1.406591254,
				"y": -3.2053553252,
				"z": 2.0661622205,
				"element": "C" 
			},
			{
				"x": -0.0076901605,
				"y": -3.2461289843,
				"z": 1.7137008929,
				"element": "N" 
			},
			{
				"x": -0.5874700143,
				"y": -4.5393508232,
				"z": 2.0535989705,
				"element": "C" 
			},
			{
				"x": -0.7680529451,
				"y": -2.1441167396,
				"z": 2.3084211286,
				"element": "C" 
			},
			{
				"x": -0.4601531603,
				"y": -0.7736304272,
				"z": 1.6909417739,
				"element": "C" 
			},
			{
				"x": -0.727185596,
				"y": -0.7513892537,
				"z": 0.1813312537,
				"element": "C" 
			},
			{
				"x": -0.3560490592,
				"y": 0.5260514641,
				"z": -0.4386796395,
				"element": "N" 
			},
			{
				"x": -0.9525751536,
				"y": 1.7139020516,
				"z": 0.0936872559,
				"element": "C" 
			},
			{
				"x": -0.1433314775,
				"y": 2.8463592809,
				"z": 0.2918874383,
				"element": "C" 
			},
			{
				"x": 1.3043039276,
				"y": 2.7731426958,
				"z": -0.1101140511,
				"element": "C" 
			},
			{
				"x": 1.4679829264,
				"y": 2.7173281717,
				"z": -1.6367991724,
				"element": "C" 
			},
			{
				"x": 0.8803643851,
				"y": 1.5154628884,
				"z": -2.366619289,
				"element": "C" 
			},
			{
				"x": 0.0417642537,
				"y": 0.5193951704,
				"z": -1.8044220928,
				"element": "C" 
			},
			{
				"x": -0.4006438103,
				"y": -0.536680278,
				"z": -2.6276429354,
				"element": "C" 
			},
			{
				"x": -0.0119818915,
				"y": -0.6187101194,
				"z": -3.9582271583,
				"element": "C" 
			},
			{
				"x": -0.5910801143,
				"y": -1.965010302,
				"z": -4.9379250013,
				"element": "Cl" 
			},
			{
				"x": 0.8069993901,
				"y": 0.3470810446,
				"z": -4.5316089452,
				"element": "C" 
			},
			{
				"x": 1.227525011,
				"y": 1.3956122075,
				"z": -3.718882123,
				"element": "C" 
			},
			{
				"x": -0.7168399083,
				"y": 4.0062182429,
				"z": 0.8219271593,
				"element": "C" 
			},
			{
				"x": -2.0652392858,
				"y": 4.0470435778,
				"z": 1.1787187651,
				"element": "C" 
			},
			{
				"x": -2.8597866727,
				"y": 2.9152362401,
				"z": 0.9939042781,
				"element": "C" 
			},
			{
				"x": -2.3074528155,
				"y": 1.7559487223,
				"z": 0.4488774944,
				"element": "C" 
			},
			{
				"x": 1.931980183,
				"y": -4.0251857977,
				"z": 1.5665545001,
				"element": "H" 
			},
			{
				"x": 1.5834143057,
				"y": -3.2995019901,
				"z": 3.1557755672,
				"element": "H" 
			},
			{
				"x": 1.8612113321,
				"y": -2.269609831,
				"z": 1.7305667001,
				"element": "H" 
			},
			{
				"x": -0.0374705069,
				"y": -5.3360820418,
				"z": 1.5424503915,
				"element": "H" 
			},
			{
				"x": -1.6292264556,
				"y": -4.5804748856,
				"z": 1.7199411028,
				"element": "H" 
			},
			{
				"x": -0.5677347236,
				"y": -4.7577391969,
				"z": 3.1393403986,
				"element": "H" 
			},
			{
				"x": -0.6163616869,
				"y": -2.0893514068,
				"z": 3.4050741549,
				"element": "H" 
			},
			{
				"x": -1.8322353299,
				"y": -2.3636606016,
				"z": 2.1553247208,
				"element": "H" 
			},
			{
				"x": -1.0748822781,
				"y": -0.0264876277,
				"z": 2.2035486989,
				"element": "H" 
			},
			{
				"x": 0.5822582294,
				"y": -0.4869521315,
				"z": 1.8706284113,
				"element": "H" 
			},
			{
				"x": -0.1198790393,
				"y": -1.5327922209,
				"z": -0.278030615,
				"element": "H" 
			},
			{
				"x": -1.779055803,
				"y": -1.0274855418,
				"z": -0.0081818323,
				"element": "H" 
			},
			{
				"x": 1.7671593283,
				"y": 1.8865918969,
				"z": 0.3390463322,
				"element": "H" 
			},
			{
				"x": 1.8419334447,
				"y": 3.6498964044,
				"z": 0.2664407127,
				"element": "H" 
			},
			{
				"x": 1.0261716024,
				"y": 3.6308466254,
				"z": -2.0582511842,
				"element": "H" 
			},
			{
				"x": 2.5374101131,
				"y": 2.764772057,
				"z": -1.8793860333,
				"element": "H" 
			},
			{
				"x": -1.0705899075,
				"y": -1.2894019932,
				"z": -2.2344441798,
				"element": "H" 
			},
			{
				"x": 1.1096999836,
				"y": 0.2795217729,
				"z": -5.5699304058,
				"element": "H" 
			},
			{
				"x": 1.8772629871,
				"y": 2.15507183,
				"z": -4.1481482049,
				"element": "H" 
			},
			{
				"x": -0.0905878534,
				"y": 4.8826413061,
				"z": 0.9712173571,
				"element": "H" 
			},
			{
				"x": -2.4902929966,
				"y": 4.9531161813,
				"z": 1.600391425,
				"element": "H" 
			},
			{
				"x": -3.91199626,
				"y": 2.9343933029,
				"z": 1.2633262579,
				"element": "H" 
			},
			{
				"x": -2.9330877512,
				"y": 0.8828643843,
				"z": 0.2921075013,
				"element": "H" 
			}
		],
		 "valence_orbital": [ 
			{
				"type": "occ",
				"energy": -0.24731,
				"method": "rhf"
			},
			{
				"type": "occ",
				"energy": -0.24187,
				"method": "rhf"
			},
			{
				"type": "occ",
				"energy": -0.23081,
				"method": "rhf"
			},
			{
				"type": "occ",
				"energy": -0.21414,
				"method": "rhf"
			},
			{
				"type": "occ",
				"energy": -0.19756,
				"method": "rhf"
			},
			{
				"type": "unocc",
				"energy": -0.00853,
				"method": "rhf"
			},
			{
				"type": "unocc",
				"energy": 0.0002,
				"method": "rhf"
			},
			{
				"type": "unocc",
				"energy": 0.00234,
				"method": "rhf"
			},
			{
				"type": "unocc",
				"energy": 0.00493,
				"method": "rhf"
			},
			{
				"type": "unocc",
				"energy": 0.03932,
				"method": "rhf"
			}
		],
		"cosmo_sigma_profile": { 
			"-0.025": 0.0,
			"-0.024": 0.0,
			"-0.023": 0.0,
			"-0.022": 0.0,
			"-0.021": 0.0,
			"-0.02": 0.0,
			"-0.019": 0.0,
			"-0.018": 0.0,
			"-0.017": 0.0,
			"-0.016": 0.0,
			"-0.015": 0.0,
			"-0.014": 0.0,
			"-0.013": 0.0,
			"-0.012": 0.0,
			"-0.011": 0.0,
			"-0.01": 0.0,
			"-0.009": 0.0,
			"-0.008": 0.0,
			"-0.007": 0.53540664692,
			"-0.006": 6.25190384208,
			"-0.005": 15.9863763839,
			"-0.004": 30.1882708949,
			"-0.003": 38.2154944428,
			"-0.002": 42.715503867,
			"-0.001": 50.2437209232,
			"0.0": 44.7576812519,
			"0.001": 24.577880759,
			"0.002": 23.0165352724,
			"0.003": 25.8092738693,
			"0.004": 25.0827395447,
			"0.005": 25.6046872491,
			"0.006": 9.38136787669,
			"0.007": 2.58697488535,
			"0.008": 0.935261632083,
			"0.009": 0.459133174211,
			"0.01": 0.752538300682,
			"0.011": 0.551099228528,
			"0.012": 0.42655816718,
			"0.013": 0.573825113036,
			"0.014": 0.00647848813698,
			"0.015": 0.0,
			"0.016": 0.0,
			"0.017": 0.0,
			"0.018": 0.0,
			"0.019": 0.0,
			"0.02": 0.0,
			"0.021": 0.0,
			"0.022": 0.0,
			"0.023": 0.0,
			"0.024": 0.0,
			"0.025": 0.0
		}
	}
}
