{
	 "smiles": "CC(C)(C)OC(=O)N1CCN(CC2=CC=CC(=C2)[N+]([O-])=O)CC1", 
	 "Tm": 357.65, 
	 "num_atms": 46, 
	 "gaussian": { 
		 "optdone": 1, 
		 "sigma_profile": "yes", 
		 "theory": "DFT", 
		 "functional": "B3LYP", 
		 "basiset": "6-31G**", 
		 "properties": { 
			 "R2extent": 10097.4519, 
			 "electric_dipole_moment_norm": 2.62718620581, 
			 "electric_quadrupole_moment_norm": 32.887522616, 
			 "total_energy": -1088.63593541, 
			 "HOMO_LUMO_gap": 0.12337, 
			 "cosmo_polarized_energy": -15.47, 
			 "cosmo_cavitation_energy": 47.41, 
			 "cosmo_dispersion_energy": -31.96, 
			 "cosmo_repulsion_energy": 2.46, 
			 "cosmo_total_nonelectrostatic_energy": 17.92, 
			 "SMD_solvation_energy": 7.94 
		},
		"coords": [
			{
				"x": 2.7239364891,
				"y": 4.2226170675,
				"z": -1.7154652783,
				"element": "C" 
			},
			{
				"x": 1.6992296064,
				"y": 3.7214670336,
				"z": -2.7390948368,
				"element": "C" 
			},
			{
				"x": 2.3941337071,
				"y": 2.9721072151,
				"z": -3.8792621036,
				"element": "C" 
			},
			{
				"x": 0.8243842245,
				"y": 4.8540464796,
				"z": -3.2873532063,
				"element": "C" 
			},
			{
				"x": 0.8568951075,
				"y": 2.676560042,
				"z": -2.1374491933,
				"element": "O" 
			},
			{
				"x": 0.0528955041,
				"y": 2.9543824794,
				"z": -1.0805295489,
				"element": "C" 
			},
			{
				"x": -0.0389989943,
				"y": 4.0369496505,
				"z": -0.5160640336,
				"element": "O" 
			},
			{
				"x": -0.6611662536,
				"y": 1.84450352,
				"z": -0.7159364511,
				"element": "N" 
			},
			{
				"x": -1.5098568529,
				"y": 1.9193536788,
				"z": 0.4754029837,
				"element": "C" 
			},
			{
				"x": -1.4426565492,
				"y": 0.5988413421,
				"z": 1.2378825998,
				"element": "C" 
			},
			{
				"x": -1.9637552372,
				"y": -0.4931190206,
				"z": 0.4161781983,
				"element": "N" 
			},
			{
				"x": -1.7885549942,
				"y": -1.8298109343,
				"z": 0.9805426195,
				"element": "C" 
			},
			{
				"x": -0.3573139386,
				"y": -2.35350503,
				"z": 1.0736257415,
				"element": "C" 
			},
			{
				"x": 0.4376469183,
				"y": -2.0970087195,
				"z": 2.2025765913,
				"element": "C" 
			},
			{
				"x": 1.7625827533,
				"y": -2.5342421403,
				"z": 2.275325446,
				"element": "C" 
			},
			{
				"x": 2.3253639958,
				"y": -3.249914998,
				"z": 1.2213199325,
				"element": "C" 
			},
			{
				"x": 1.5268613849,
				"y": -3.515589255,
				"z": 0.110927809,
				"element": "C" 
			},
			{
				"x": 0.2049236483,
				"y": -3.0858887055,
				"z": 0.021809877,
				"element": "C" 
			},
			{
				"x": 2.0970548476,
				"y": -4.2891048896,
				"z": -1.0062247713,
				"element": "N" 
			},
			{
				"x": 3.2661595508,
				"y": -4.6587493918,
				"z": -0.9062226875,
				"element": "O" 
			},
			{
				"x": 1.3705035704,
				"y": -4.5170596046,
				"z": -1.9732924681,
				"element": "O" 
			},
			{
				"x": -1.7200584004,
				"y": -0.3351367882,
				"z": -1.0253979539,
				"element": "C" 
			},
			{
				"x": -0.5046834968,
				"y": 0.5361939452,
				"z": -1.3598223823,
				"element": "C" 
			},
			{
				"x": 3.4188004656,
				"y": 4.9164030019,
				"z": -2.1999498131,
				"element": "H" 
			},
			{
				"x": 2.2301006633,
				"y": 4.7347139471,
				"z": -0.8895703928,
				"element": "H" 
			},
			{
				"x": 3.3043471535,
				"y": 3.3836118659,
				"z": -1.3183186246,
				"element": "H" 
			},
			{
				"x": 2.979459308,
				"y": 2.1337119846,
				"z": -3.4905425014,
				"element": "H" 
			},
			{
				"x": 1.6596876445,
				"y": 2.5802031466,
				"z": -4.5891027206,
				"element": "H" 
			},
			{
				"x": 3.0684168577,
				"y": 3.6460525913,
				"z": -4.4160002218,
				"element": "H" 
			},
			{
				"x": 0.3116726697,
				"y": 5.3766254982,
				"z": -2.4797116125,
				"element": "H" 
			},
			{
				"x": 1.4486810684,
				"y": 5.5688522341,
				"z": -3.8334032689,
				"element": "H" 
			},
			{
				"x": 0.0788566122,
				"y": 4.4550145472,
				"z": -3.9827086338,
				"element": "H" 
			},
			{
				"x": -1.1506882483,
				"y": 2.743109732,
				"z": 1.0937753256,
				"element": "H" 
			},
			{
				"x": -2.5511156993,
				"y": 2.1393623022,
				"z": 0.2018428952,
				"element": "H" 
			},
			{
				"x": -2.0437861157,
				"y": 0.6746159521,
				"z": 2.1544611767,
				"element": "H" 
			},
			{
				"x": -0.395101362,
				"y": 0.4399514541,
				"z": 1.5508217814,
				"element": "H" 
			},
			{
				"x": -2.2263898328,
				"y": -1.8185692024,
				"z": 1.9869537174,
				"element": "H" 
			},
			{
				"x": -2.3874020294,
				"y": -2.5279192486,
				"z": 0.385126314,
				"element": "H" 
			},
			{
				"x": 0.0071294908,
				"y": -1.5600697763,
				"z": 3.0436391974,
				"element": "H" 
			},
			{
				"x": 2.3559175742,
				"y": -2.3233952759,
				"z": 3.1595680745,
				"element": "H" 
			},
			{
				"x": 3.3465860587,
				"y": -3.608196384,
				"z": 1.2451840014,
				"element": "H" 
			},
			{
				"x": -0.3681718895,
				"y": -3.3438730715,
				"z": -0.8609560186,
				"element": "H" 
			},
			{
				"x": -1.5828411061,
				"y": -1.3167978474,
				"z": -1.4869449891,
				"element": "H" 
			},
			{
				"x": -2.6061993076,
				"y": 0.1120940912,
				"z": -1.4987115448,
				"element": "H" 
			},
			{
				"x": 0.4205962533,
				"y": 0.0441933545,
				"z": -1.0290867384,
				"element": "H" 
			},
			{
				"x": -0.4319828202,
				"y": 0.6712121263,
				"z": -2.4413422863,
				"element": "H" 
			}
		],
		 "valence_orbital": [ 
			{
				"type": "occ",
				"energy": -0.28414,
				"method": "rhf"
			},
			{
				"type": "occ",
				"energy": -0.27702,
				"method": "rhf"
			},
			{
				"type": "occ",
				"energy": -0.25839,
				"method": "rhf"
			},
			{
				"type": "occ",
				"energy": -0.23535,
				"method": "rhf"
			},
			{
				"type": "occ",
				"energy": -0.21512,
				"method": "rhf"
			},
			{
				"type": "unocc",
				"energy": -0.09175,
				"method": "rhf"
			},
			{
				"type": "unocc",
				"energy": -0.03238,
				"method": "rhf"
			},
			{
				"type": "unocc",
				"energy": -0.00418,
				"method": "rhf"
			},
			{
				"type": "unocc",
				"energy": 0.05556,
				"method": "rhf"
			},
			{
				"type": "unocc",
				"energy": 0.06481,
				"method": "rhf"
			}
		],
		"cosmo_sigma_profile": { 
			"-0.025": 0.0,
			"-0.024": 0.0,
			"-0.023": 0.0,
			"-0.022": 0.0,
			"-0.021": 0.0,
			"-0.02": 0.0,
			"-0.019": 0.0,
			"-0.018": 0.0,
			"-0.017": 0.0,
			"-0.016": 0.0,
			"-0.015": 0.0,
			"-0.014": 0.0,
			"-0.013": 0.0,
			"-0.012": 0.0,
			"-0.011": 0.0,
			"-0.01": 0.0,
			"-0.009": 0.222742190552,
			"-0.008": 2.14692890057,
			"-0.007": 6.21524098936,
			"-0.006": 12.272703153,
			"-0.005": 17.6472896368,
			"-0.004": 32.1873014152,
			"-0.003": 44.8694318177,
			"-0.002": 44.7370524876,
			"-0.001": 38.1390994531,
			"0.0": 40.1582932774,
			"0.001": 34.8891286445,
			"0.002": 21.1770192916,
			"0.003": 10.8343243442,
			"0.004": 7.61163223679,
			"0.005": 8.3032533439,
			"0.006": 7.92878446524,
			"0.007": 9.8164740653,
			"0.008": 11.2094619561,
			"0.009": 6.49650949835,
			"0.01": 4.7779736868,
			"0.011": 2.28875196905,
			"0.012": 2.28264600407,
			"0.013": 2.76231530778,
			"0.014": 2.45721797367,
			"0.015": 0.0725429123025,
			"0.016": 0.0,
			"0.017": 0.0,
			"0.018": 0.0,
			"0.019": 0.0,
			"0.02": 0.0,
			"0.021": 0.0,
			"0.022": 0.0,
			"0.023": 0.0,
			"0.024": 0.0,
			"0.025": 0.0
		}
	}
}
