{
	 "smiles": "CC1=C(C)C(=O)C(C)=C(C)C1=O", 
	 "Tm": 385.15, 
	 "num_atms": 24, 
	 "gaussian": { 
		 "optdone": 1, 
		 "sigma_profile": "yes", 
		 "theory": "DFT", 
		 "functional": "B3LYP", 
		 "basiset": "6-31G**", 
		 "properties": { 
			 "R2extent": 2665.4834, 
			 "electric_dipole_moment_norm": 0.00059160797831, 
			 "electric_quadrupole_moment_norm": 11.8498898067, 
			 "total_energy": -538.739980217, 
			 "HOMO_LUMO_gap": 0.14276, 
			 "cosmo_polarized_energy": -8.11, 
			 "cosmo_cavitation_energy": 26.74, 
			 "cosmo_dispersion_energy": -19.44, 
			 "cosmo_repulsion_energy": 1.53, 
			 "cosmo_total_nonelectrostatic_energy": 8.83, 
			 "SMD_solvation_energy": 5.88 
		},
		"coords": [
			{
				"x": 2.005253516,
				"y": 0.5053586208,
				"z": -1.0565339659,
				"element": "C" 
			},
			{
				"x": 0.5159145629,
				"y": 0.3060314496,
				"z": -1.108552021,
				"element": "C" 
			},
			{
				"x": -0.327467667,
				"y": 0.8171076248,
				"z": -2.0363002519,
				"element": "C" 
			},
			{
				"x": 0.0554593435,
				"y": 1.6870265501,
				"z": -3.2012769807,
				"element": "C" 
			},
			{
				"x": -1.7909253386,
				"y": 0.5221079172,
				"z": -1.9451469401,
				"element": "C" 
			},
			{
				"x": -2.556364655,
				"y": 0.9857744586,
				"z": -2.7873285154,
				"element": "O" 
			},
			{
				"x": -2.3353022855,
				"y": -0.3296530886,
				"z": -0.8427778874,
				"element": "C" 
			},
			{
				"x": -3.8246392144,
				"y": -0.5289937252,
				"z": -0.8948088983,
				"element": "C" 
			},
			{
				"x": -1.4919392149,
				"y": -0.8406061442,
				"z": 0.0850562516,
				"element": "C" 
			},
			{
				"x": -1.8749096325,
				"y": -1.7102385458,
				"z": 1.2502326839,
				"element": "C" 
			},
			{
				"x": -0.0284661834,
				"y": -0.5457037364,
				"z": -0.0061647091,
				"element": "C" 
			},
			{
				"x": 0.7369773758,
				"y": -1.0094014616,
				"z": 0.8359955045,
				"element": "O" 
			},
			{
				"x": 2.2924873011,
				"y": 0.9609020659,
				"z": -0.103324006,
				"element": "H" 
			},
			{
				"x": 2.5174003482,
				"y": -0.461626129,
				"z": -1.0927085982,
				"element": "H" 
			},
			{
				"x": 2.3753294482,
				"y": 1.1291114354,
				"z": -1.8693066956,
				"element": "H" 
			},
			{
				"x": -0.2535194608,
				"y": 1.2177986929,
				"z": -4.1409631555,
				"element": "H" 
			},
			{
				"x": -0.4798006608,
				"y": 2.6408447424,
				"z": -3.1526273862,
				"element": "H" 
			},
			{
				"x": 1.1254551603,
				"y": 1.8867896081,
				"z": -3.2439486136,
				"element": "H" 
			},
			{
				"x": -4.1945053848,
				"y": -1.1540901783,
				"z": -0.0829738478,
				"element": "H" 
			},
			{
				"x": -4.1119957342,
				"y": -0.9829722478,
				"z": -1.8487141095,
				"element": "H" 
			},
			{
				"x": -4.3368913956,
				"y": 0.4378838662,
				"z": -0.8569254017,
				"element": "H" 
			},
			{
				"x": -1.5667610903,
				"y": -1.2403175781,
				"z": 2.1898581429,
				"element": "H" 
			},
			{
				"x": -2.9448057443,
				"y": -1.9106249889,
				"z": 1.2924749872,
				"element": "H" 
			},
			{
				"x": -1.338983394,
				"y": -2.6637092082,
				"z": 1.2023644138,
				"element": "H" 
			}
		],
		 "valence_orbital": [ 
			{
				"type": "occ",
				"energy": -0.35697,
				"method": "rhf"
			},
			{
				"type": "occ",
				"energy": -0.27861,
				"method": "rhf"
			},
			{
				"type": "occ",
				"energy": -0.26771,
				"method": "rhf"
			},
			{
				"type": "occ",
				"energy": -0.25825,
				"method": "rhf"
			},
			{
				"type": "occ",
				"energy": -0.25212,
				"method": "rhf"
			},
			{
				"type": "unocc",
				"energy": -0.10936,
				"method": "rhf"
			},
			{
				"type": "unocc",
				"energy": 0.0014,
				"method": "rhf"
			},
			{
				"type": "unocc",
				"energy": 0.02089,
				"method": "rhf"
			},
			{
				"type": "unocc",
				"energy": 0.09483,
				"method": "rhf"
			},
			{
				"type": "unocc",
				"energy": 0.1058,
				"method": "rhf"
			}
		],
		"cosmo_sigma_profile": { 
			"-0.025": 0.0,
			"-0.024": 0.0,
			"-0.023": 0.0,
			"-0.022": 0.0,
			"-0.021": 0.0,
			"-0.02": 0.0,
			"-0.019": 0.0,
			"-0.018": 0.0,
			"-0.017": 0.0,
			"-0.016": 0.0,
			"-0.015": 0.0,
			"-0.014": 0.0,
			"-0.013": 0.0,
			"-0.012": 0.0,
			"-0.011": 0.0,
			"-0.01": 0.0,
			"-0.009": 0.0,
			"-0.008": 0.0,
			"-0.007": 1.34687715551,
			"-0.006": 3.71365885977,
			"-0.005": 8.65893210124,
			"-0.004": 20.516448443,
			"-0.003": 28.2119550299,
			"-0.002": 30.8324043164,
			"-0.001": 33.9290182256,
			"0.0": 30.6188649054,
			"0.001": 9.05273935152,
			"0.002": 4.34269677033,
			"0.003": 4.01381942914,
			"0.004": 4.05730496069,
			"0.005": 2.09517786583,
			"0.006": 2.96396803494,
			"0.007": 3.6859781288,
			"0.008": 3.39997804121,
			"0.009": 3.49765881293,
			"0.01": 4.27586881594,
			"0.011": 6.97608018318,
			"0.012": 4.89557233304,
			"0.013": 0.0868205335825,
			"0.014": 0.0,
			"0.015": 0.0,
			"0.016": 0.0,
			"0.017": 0.0,
			"0.018": 0.0,
			"0.019": 0.0,
			"0.02": 0.0,
			"0.021": 0.0,
			"0.022": 0.0,
			"0.023": 0.0,
			"0.024": 0.0,
			"0.025": 0.0
		}
	}
}
