{
	 "smiles": "CC1=CC(O)=CC=C1", 
	 "Tm": 284.65, 
	 "num_atms": 16, 
	 "gaussian": { 
		 "optdone": 1, 
		 "sigma_profile": "yes", 
		 "theory": "DFT", 
		 "functional": "B3LYP", 
		 "basiset": "6-31G**", 
		 "properties": { 
			 "R2extent": 1137.8956, 
			 "electric_dipole_moment_norm": 1.61850222737, 
			 "electric_quadrupole_moment_norm": 9.14398583059, 
			 "total_energy": -346.792404167, 
			 "HOMO_LUMO_gap": 0.21776, 
			 "cosmo_polarized_energy": -7.65, 
			 "cosmo_cavitation_energy": 19.43, 
			 "cosmo_dispersion_energy": -14.59, 
			 "cosmo_repulsion_energy": 1.21, 
			 "cosmo_total_nonelectrostatic_energy": 6.05, 
			 "SMD_solvation_energy": 3.8 
		},
		"coords": [
			{
				"x": -1.5110271048,
				"y": -1.2309312937,
				"z": 0.3675331196,
				"element": "C" 
			},
			{
				"x": -0.3660780631,
				"y": -0.2542574981,
				"z": 0.2300158995,
				"element": "C" 
			},
			{
				"x": 0.130144674,
				"y": 0.4135033452,
				"z": 1.3577101068,
				"element": "C" 
			},
			{
				"x": 1.1705524782,
				"y": 1.3390218215,
				"z": 1.2410553354,
				"element": "C" 
			},
			{
				"x": 1.6810439646,
				"y": 2.0087687237,
				"z": 2.3189451805,
				"element": "O" 
			},
			{
				"x": 1.7345334093,
				"y": 1.6102797793,
				"z": -0.0107847061,
				"element": "C" 
			},
			{
				"x": 1.244535966,
				"y": 0.945656831,
				"z": -1.1308722598,
				"element": "C" 
			},
			{
				"x": 0.2040964937,
				"y": 0.0192708783,
				"z": -1.0181957154,
				"element": "C" 
			},
			{
				"x": -1.4043162379,
				"y": -1.8527964983,
				"z": 1.2624960853,
				"element": "H" 
			},
			{
				"x": -2.4715990068,
				"y": -0.7072194981,
				"z": 0.4506754795,
				"element": "H" 
			},
			{
				"x": -1.5742141612,
				"y": -1.8947536346,
				"z": -0.4991981606,
				"element": "H" 
			},
			{
				"x": -0.2989807571,
				"y": 0.2083329846,
				"z": 2.3379800167,
				"element": "H" 
			},
			{
				"x": 1.2079589148,
				"y": 1.7314287551,
				"z": 3.1140985792,
				"element": "H" 
			},
			{
				"x": 2.5435915488,
				"y": 2.3295669572,
				"z": -0.0804504057,
				"element": "H" 
			},
			{
				"x": 1.6813015499,
				"y": 1.1492394513,
				"z": -2.1046909024,
				"element": "H" 
			},
			{
				"x": -0.1654436682,
				"y": -0.4933111046,
				"z": -1.9019176524,
				"element": "H" 
			}
		],
		 "valence_orbital": [ 
			{
				"type": "occ",
				"energy": -0.34851,
				"method": "rhf"
			},
			{
				"type": "occ",
				"energy": -0.33223,
				"method": "rhf"
			},
			{
				"type": "occ",
				"energy": -0.32104,
				"method": "rhf"
			},
			{
				"type": "occ",
				"energy": -0.24031,
				"method": "rhf"
			},
			{
				"type": "occ",
				"energy": -0.21544,
				"method": "rhf"
			},
			{
				"type": "unocc",
				"energy": 0.00232,
				"method": "rhf"
			},
			{
				"type": "unocc",
				"energy": 0.01954,
				"method": "rhf"
			},
			{
				"type": "unocc",
				"energy": 0.07388,
				"method": "rhf"
			},
			{
				"type": "unocc",
				"energy": 0.09897,
				"method": "rhf"
			},
			{
				"type": "unocc",
				"energy": 0.12411,
				"method": "rhf"
			}
		],
		"cosmo_sigma_profile": { 
			"-0.025": 0.0,
			"-0.024": 0.0,
			"-0.023": 0.0,
			"-0.022": 0.0,
			"-0.021": 0.0,
			"-0.02": 0.0,
			"-0.019": 0.0,
			"-0.018": 0.0881476507996,
			"-0.017": 0.941088643248,
			"-0.016": 1.16571831204,
			"-0.015": 0.815042134643,
			"-0.014": 1.11270087506,
			"-0.013": 1.24179291724,
			"-0.012": 0.882023228024,
			"-0.011": 0.619434579686,
			"-0.01": 0.95442511793,
			"-0.009": 1.4782504622,
			"-0.008": 0.871761682083,
			"-0.007": 0.929244957009,
			"-0.006": 2.26284601556,
			"-0.005": 6.98896208347,
			"-0.004": 12.9807948272,
			"-0.003": 15.4935607743,
			"-0.002": 12.0013854578,
			"-0.001": 12.2747670853,
			"0.0": 12.3392033121,
			"0.001": 9.77810879576,
			"0.002": 7.57843925637,
			"0.003": 7.16424061728,
			"0.004": 10.2210689599,
			"0.005": 10.7622335775,
			"0.006": 10.1307221963,
			"0.007": 5.02678940734,
			"0.008": 1.23196733109,
			"0.009": 1.70452546948,
			"0.01": 1.49729777368,
			"0.011": 1.96147735665,
			"0.012": 1.31149204685,
			"0.013": 0.0,
			"0.014": 0.0,
			"0.015": 0.0,
			"0.016": 0.0,
			"0.017": 0.0,
			"0.018": 0.0,
			"0.019": 0.0,
			"0.02": 0.0,
			"0.021": 0.0,
			"0.022": 0.0,
			"0.023": 0.0,
			"0.024": 0.0,
			"0.025": 0.0
		}
	}
}
