{
	 "smiles": "BrCC12CC3CC(CC(C3)C1)C2", 
	 "Tm": 304.15, 
	 "num_atms": 29, 
	 "gaussian": { 
		 "optdone": 1, 
		 "sigma_profile": "yes", 
		 "theory": "DFT", 
		 "functional": "B3LYP", 
		 "basiset": "6-31G**", 
		 "properties": { 
			 "R2extent": 3675.7285, 
			 "electric_dipole_moment_norm": 2.33374345205, 
			 "electric_quadrupole_moment_norm": 8.54936845328, 
			 "total_energy": -3000.8608318, 
			 "HOMO_LUMO_gap": 0.27219, 
			 "cosmo_polarized_energy": -3.57, 
			 "cosmo_cavitation_energy": 28.14, 
			 "cosmo_dispersion_energy": -21.73, 
			 "cosmo_repulsion_energy": 1.69, 
			 "cosmo_total_nonelectrostatic_energy": 8.1, 
			 "SMD_solvation_energy": 2.14 
		},
		"coords": [
			{
				"x": 1.9658494274,
				"y": 1.1431555381,
				"z": -3.4380089913,
				"element": "Br" 
			},
			{
				"x": 1.6591666176,
				"y": -0.2125447451,
				"z": -2.0096565623,
				"element": "C" 
			},
			{
				"x": 0.7770112429,
				"y": 0.2582138474,
				"z": -0.8547293362,
				"element": "C" 
			},
			{
				"x": 1.3953012163,
				"y": 1.4596668611,
				"z": -0.1012353362,
				"element": "C" 
			},
			{
				"x": 0.5152636203,
				"y": 1.8482305366,
				"z": 1.1043620854,
				"element": "C" 
			},
			{
				"x": -0.8958297156,
				"y": 2.2268658958,
				"z": 0.6082677685,
				"element": "C" 
			},
			{
				"x": -1.5274288166,
				"y": 1.0220827891,
				"z": -0.1198475784,
				"element": "C" 
			},
			{
				"x": -1.6257876737,
				"y": -0.1714851598,
				"z": 0.8521328818,
				"element": "C" 
			},
			{
				"x": -0.2143430817,
				"y": -0.5497713718,
				"z": 1.3452282754,
				"element": "C" 
			},
			{
				"x": 0.4154882522,
				"y": 0.6538979633,
				"z": 2.0752356977,
				"element": "C" 
			},
			{
				"x": 0.6654549972,
				"y": -0.9355693888,
				"z": 0.1369252949,
				"element": "C" 
			},
			{
				"x": -0.6479693354,
				"y": 0.6334215353,
				"z": -1.3257523137,
				"element": "C" 
			},
			{
				"x": 2.6614312976,
				"y": -0.4765945798,
				"z": -1.6694566672,
				"element": "H" 
			},
			{
				"x": 1.2172574866,
				"y": -1.0608734423,
				"z": -2.5341275306,
				"element": "H" 
			},
			{
				"x": 1.4986969095,
				"y": 2.3081932037,
				"z": -0.7867566793,
				"element": "H" 
			},
			{
				"x": 2.4075010393,
				"y": 1.1999461585,
				"z": 0.2388034239,
				"element": "H" 
			},
			{
				"x": 0.9678762768,
				"y": 2.7051496925,
				"z": 1.6188749317,
				"element": "H" 
			},
			{
				"x": -0.8387305563,
				"y": 3.0890103929,
				"z": -0.0687000341,
				"element": "H" 
			},
			{
				"x": -1.525355396,
				"y": 2.5271705543,
				"z": 1.4560782186,
				"element": "H" 
			},
			{
				"x": -2.5295622149,
				"y": 1.2906235209,
				"z": -0.4769289123,
				"element": "H" 
			},
			{
				"x": -2.0940172774,
				"y": -1.0292845572,
				"z": 0.3514605752,
				"element": "H" 
			},
			{
				"x": -2.2651656255,
				"y": 0.0870036914,
				"z": 1.7062169138,
				"element": "H" 
			},
			{
				"x": -0.2771972523,
				"y": -1.4064238223,
				"z": 2.0282242179,
				"element": "H" 
			},
			{
				"x": -0.1933815641,
				"y": 0.9244259994,
				"z": 2.9476861537,
				"element": "H" 
			},
			{
				"x": 1.4121857029,
				"y": 0.3885552824,
				"z": 2.4519818279,
				"element": "H" 
			},
			{
				"x": 1.6666192968,
				"y": -1.2284524079,
				"z": 0.4811619157,
				"element": "H" 
			},
			{
				"x": 0.2356426808,
				"y": -1.8066853604,
				"z": -0.375963504,
				"element": "H" 
			},
			{
				"x": -1.0950321459,
				"y": -0.2162567263,
				"z": -1.8603706674,
				"element": "H" 
			},
			{
				"x": -0.5914454089,
				"y": 1.463128099,
				"z": -2.039206069,
				"element": "H" 
			}
		],
		 "valence_orbital": [ 
			{
				"type": "occ",
				"energy": -0.29232,
				"method": "rhf"
			},
			{
				"type": "occ",
				"energy": -0.28199,
				"method": "rhf"
			},
			{
				"type": "occ",
				"energy": -0.2813,
				"method": "rhf"
			},
			{
				"type": "occ",
				"energy": -0.26482,
				"method": "rhf"
			},
			{
				"type": "occ",
				"energy": -0.26413,
				"method": "rhf"
			},
			{
				"type": "unocc",
				"energy": 0.00806,
				"method": "rhf"
			},
			{
				"type": "unocc",
				"energy": 0.06455,
				"method": "rhf"
			},
			{
				"type": "unocc",
				"energy": 0.10386,
				"method": "rhf"
			},
			{
				"type": "unocc",
				"energy": 0.11148,
				"method": "rhf"
			},
			{
				"type": "unocc",
				"energy": 0.12358,
				"method": "rhf"
			}
		],
		"cosmo_sigma_profile": { 
			"-0.025": 0.0,
			"-0.024": 0.0,
			"-0.023": 0.0,
			"-0.022": 0.0,
			"-0.021": 0.0,
			"-0.02": 0.0,
			"-0.019": 0.0,
			"-0.018": 0.0,
			"-0.017": 0.0,
			"-0.016": 0.0,
			"-0.015": 0.0,
			"-0.014": 0.0,
			"-0.013": 0.0,
			"-0.012": 0.0,
			"-0.011": 0.0,
			"-0.01": 0.0,
			"-0.009": 0.0,
			"-0.008": 0.0,
			"-0.007": 0.0528636210051,
			"-0.006": 3.08588730875,
			"-0.005": 5.50385461941,
			"-0.004": 6.67208392042,
			"-0.003": 10.3569622434,
			"-0.002": 34.5032803603,
			"-0.001": 44.5148018165,
			"0.0": 40.1443497112,
			"0.001": 29.3070015663,
			"0.002": 12.3062921257,
			"0.003": 5.5022470226,
			"0.004": 5.66572476349,
			"0.005": 7.04531158386,
			"0.006": 8.19235502664,
			"0.007": 5.89117422494,
			"0.008": 0.0362609744444,
			"0.009": 0.0,
			"0.01": 0.0,
			"0.011": 0.0,
			"0.012": 0.0,
			"0.013": 0.0,
			"0.014": 0.0,
			"0.015": 0.0,
			"0.016": 0.0,
			"0.017": 0.0,
			"0.018": 0.0,
			"0.019": 0.0,
			"0.02": 0.0,
			"0.021": 0.0,
			"0.022": 0.0,
			"0.023": 0.0,
			"0.024": 0.0,
			"0.025": 0.0
		}
	}
}
