{
	 "smiles": "OC1=C(F)C=CC(F)=C1C=O", 
	 "Tm": 348.15, 
	 "num_atms": 15, 
	 "gaussian": { 
		 "optdone": 1, 
		 "sigma_profile": "yes", 
		 "theory": "DFT", 
		 "functional": "B3LYP", 
		 "basiset": "6-31G**", 
		 "properties": { 
			 "R2extent": 1727.7187, 
			 "electric_dipole_moment_norm": 4.513627324, 
			 "electric_quadrupole_moment_norm": 7.38220107217, 
			 "total_energy": -619.247462623, 
			 "HOMO_LUMO_gap": 0.17739, 
			 "cosmo_polarized_energy": -10.99, 
			 "cosmo_cavitation_energy": 20.9, 
			 "cosmo_dispersion_energy": -15.35, 
			 "cosmo_repulsion_energy": 1.18, 
			 "cosmo_total_nonelectrostatic_energy": 6.73, 
			 "SMD_solvation_energy": 6.0 
		},
		"coords": [
			{
				"x": 0.0984451924,
				"y": 1.9210444081,
				"z": -1.6022586264,
				"element": "O" 
			},
			{
				"x": -0.4544620938,
				"y": 0.8204030845,
				"z": -1.0370773003,
				"element": "C" 
			},
			{
				"x": -1.4492449395,
				"y": 0.1087665541,
				"z": -1.7137711383,
				"element": "C" 
			},
			{
				"x": -1.8082389179,
				"y": 0.5857480816,
				"z": -2.9375093636,
				"element": "F" 
			},
			{
				"x": -2.04391784,
				"y": -1.0184070313,
				"z": -1.1815806879,
				"element": "C" 
			},
			{
				"x": -1.6388649712,
				"y": -1.4667858282,
				"z": 0.0792155975,
				"element": "C" 
			},
			{
				"x": -0.6515344651,
				"y": -0.7664991272,
				"z": 0.7589014847,
				"element": "C" 
			},
			{
				"x": -0.2834882713,
				"y": -1.217680598,
				"z": 1.962716675,
				"element": "F" 
			},
			{
				"x": -0.0308079349,
				"y": 0.3857355643,
				"z": 0.235948884,
				"element": "C" 
			},
			{
				"x": 1.0249778799,
				"y": 1.140940042,
				"z": 0.9543509607,
				"element": "C" 
			},
			{
				"x": 1.4643490728,
				"y": 0.8575356947,
				"z": 2.0521100522,
				"element": "O" 
			},
			{
				"x": -0.3212474913,
				"y": 2.0536101939,
				"z": -2.4657158221,
				"element": "H" 
			},
			{
				"x": -2.8115431935,
				"y": -1.5350951982,
				"z": -1.7470835659,
				"element": "H" 
			},
			{
				"x": -2.0767842486,
				"y": -2.3458147399,
				"z": 0.536466847,
				"element": "H" 
			},
			{
				"x": 1.4025622221,
				"y": 2.0196988995,
				"z": 0.3977860034,
				"element": "H" 
			}
		],
		 "valence_orbital": [ 
			{
				"type": "occ",
				"energy": -0.3797,
				"method": "rhf"
			},
			{
				"type": "occ",
				"energy": -0.35096,
				"method": "rhf"
			},
			{
				"type": "occ",
				"energy": -0.27038,
				"method": "rhf"
			},
			{
				"type": "occ",
				"energy": -0.25023,
				"method": "rhf"
			},
			{
				"type": "occ",
				"energy": -0.24642,
				"method": "rhf"
			},
			{
				"type": "unocc",
				"energy": -0.06903,
				"method": "rhf"
			},
			{
				"type": "unocc",
				"energy": -0.00959,
				"method": "rhf"
			},
			{
				"type": "unocc",
				"energy": 0.03082,
				"method": "rhf"
			},
			{
				"type": "unocc",
				"energy": 0.04441,
				"method": "rhf"
			},
			{
				"type": "unocc",
				"energy": 0.08646,
				"method": "rhf"
			}
		],
		"cosmo_sigma_profile": { 
			"-0.025": 0.0,
			"-0.024": 0.0,
			"-0.023": 0.0,
			"-0.022": 0.0,
			"-0.021": 0.0,
			"-0.02": 0.0,
			"-0.019": 0.0,
			"-0.018": 0.210057879762,
			"-0.017": 0.484809393238,
			"-0.016": 0.725634577648,
			"-0.015": 1.02548268267,
			"-0.014": 0.443850632685,
			"-0.013": 0.184070368428,
			"-0.012": 1.49260489402,
			"-0.011": 1.16346954523,
			"-0.01": 0.762405146619,
			"-0.009": 2.35078640715,
			"-0.008": 5.53750406312,
			"-0.007": 4.32010647136,
			"-0.006": 6.60377161349,
			"-0.005": 5.57356810036,
			"-0.004": 8.12906047706,
			"-0.003": 8.60439270405,
			"-0.002": 11.2267612339,
			"-0.001": 21.4810958333,
			"0.0": 16.0975714944,
			"0.001": 11.9021431265,
			"0.002": 10.2740028449,
			"0.003": 12.4276269097,
			"0.004": 9.37548374558,
			"0.005": 4.30185273832,
			"0.006": 3.07745163716,
			"0.007": 4.4252207629,
			"0.008": 2.18682942285,
			"0.009": 2.50387407051,
			"0.01": 3.26681522881,
			"0.011": 4.76874753867,
			"0.012": 3.31735172387,
			"0.013": 0.579501564763,
			"0.014": 0.0,
			"0.015": 0.0,
			"0.016": 0.0,
			"0.017": 0.0,
			"0.018": 0.0,
			"0.019": 0.0,
			"0.02": 0.0,
			"0.021": 0.0,
			"0.022": 0.0,
			"0.023": 0.0,
			"0.024": 0.0,
			"0.025": 0.0
		}
	}
}
