{
	 "smiles": "FC(F)(Cl)C(Cl)(Cl)C(F)(F)Cl", 
	 "Tm": 230.25, 
	 "num_atms": 11, 
	 "gaussian": { 
		 "optdone": 1, 
		 "sigma_profile": "yes", 
		 "theory": "DFT", 
		 "functional": "B3LYP", 
		 "basiset": "6-31G**", 
		 "properties": { 
			 "R2extent": 3846.0158, 
			 "electric_dipole_moment_norm": 0.260669560939, 
			 "electric_quadrupole_moment_norm": 1.52218227555, 
			 "total_energy": -2354.40420186, 
			 "HOMO_LUMO_gap": 0.2759, 
			 "cosmo_polarized_energy": -1.3, 
			 "cosmo_cavitation_energy": 23.14, 
			 "cosmo_dispersion_energy": -16.96, 
			 "cosmo_repulsion_energy": 1.28, 
			 "cosmo_total_nonelectrostatic_energy": 7.47, 
			 "SMD_solvation_energy": 4.16 
		},
		"coords": [
			{
				"x": -1.6022261707,
				"y": 0.7911298053,
				"z": 2.4120080613,
				"element": "F" 
			},
			{
				"x": -1.3678249437,
				"y": 0.2560396115,
				"z": 1.204975228,
				"element": "C" 
			},
			{
				"x": -2.532539066,
				"y": -0.1852076166,
				"z": 0.7081831243,
				"element": "F" 
			},
			{
				"x": -0.7484887425,
				"y": 1.5338255768,
				"z": 0.1186270232,
				"element": "Cl" 
			},
			{
				"x": -0.3686929951,
				"y": -0.9485935234,
				"z": 1.3645773384,
				"element": "C" 
			},
			{
				"x": -0.1226238471,
				"y": -1.7367208222,
				"z": -0.2158506144,
				"element": "Cl" 
			},
			{
				"x": 1.1834843413,
				"y": -0.3171500694,
				"z": 2.0073218148,
				"element": "Cl" 
			},
			{
				"x": -0.8614300274,
				"y": -2.0299580737,
				"z": 2.4064646672,
				"element": "C" 
			},
			{
				"x": 0.0876130289,
				"y": -2.9703553914,
				"z": 2.5140871043,
				"element": "F" 
			},
			{
				"x": -1.0174362564,
				"y": -1.4489046842,
				"z": 3.6044471245,
				"element": "F" 
			},
			{
				"x": -2.3933353215,
				"y": -2.8398048128,
				"z": 1.9660591283,
				"element": "Cl" 
			}
		],
		 "valence_orbital": [ 
			{
				"type": "occ",
				"energy": -0.35153,
				"method": "rhf"
			},
			{
				"type": "occ",
				"energy": -0.34943,
				"method": "rhf"
			},
			{
				"type": "occ",
				"energy": -0.33808,
				"method": "rhf"
			},
			{
				"type": "occ",
				"energy": -0.33344,
				"method": "rhf"
			},
			{
				"type": "occ",
				"energy": -0.3303,
				"method": "rhf"
			},
			{
				"type": "unocc",
				"energy": -0.0544,
				"method": "rhf"
			},
			{
				"type": "unocc",
				"energy": -0.03836,
				"method": "rhf"
			},
			{
				"type": "unocc",
				"energy": -0.01024,
				"method": "rhf"
			},
			{
				"type": "unocc",
				"energy": 0.00462,
				"method": "rhf"
			},
			{
				"type": "unocc",
				"energy": 0.08691,
				"method": "rhf"
			}
		],
		"cosmo_sigma_profile": { 
			"-0.025": 0.0,
			"-0.024": 0.0,
			"-0.023": 0.0,
			"-0.022": 0.0,
			"-0.021": 0.0,
			"-0.02": 0.0,
			"-0.019": 0.0,
			"-0.018": 0.0,
			"-0.017": 0.0,
			"-0.016": 0.0,
			"-0.015": 0.0,
			"-0.014": 0.0,
			"-0.013": 0.0,
			"-0.012": 0.0,
			"-0.011": 0.0,
			"-0.01": 0.0,
			"-0.009": 0.0,
			"-0.008": 0.0,
			"-0.007": 0.0477565585996,
			"-0.006": 1.28292879947,
			"-0.005": 5.16782992968,
			"-0.004": 7.26511319189,
			"-0.003": 9.05923469656,
			"-0.002": 11.5048002374,
			"-0.001": 18.5319072274,
			"0.0": 36.5681012597,
			"0.001": 75.2285441169,
			"0.002": 28.9668507465,
			"0.003": 0.580016771748,
			"0.004": 0.0,
			"0.005": 0.0,
			"0.006": 0.0,
			"0.007": 0.0,
			"0.008": 0.0,
			"0.009": 0.0,
			"0.01": 0.0,
			"0.011": 0.0,
			"0.012": 0.0,
			"0.013": 0.0,
			"0.014": 0.0,
			"0.015": 0.0,
			"0.016": 0.0,
			"0.017": 0.0,
			"0.018": 0.0,
			"0.019": 0.0,
			"0.02": 0.0,
			"0.021": 0.0,
			"0.022": 0.0,
			"0.023": 0.0,
			"0.024": 0.0,
			"0.025": 0.0
		}
	}
}
