{
	 "smiles": "CCCOC1=CC2=C(NC=C2CO)C=C1", 
	 "Tm": 363.15, 
	 "num_atms": 30, 
	 "gaussian": { 
		 "optdone": 1, 
		 "sigma_profile": "yes", 
		 "theory": "DFT", 
		 "functional": "B3LYP", 
		 "basiset": "6-31G**", 
		 "properties": { 
			 "R2extent": 4685.2622, 
			 "electric_dipole_moment_norm": 3.69184511186, 
			 "electric_quadrupole_moment_norm": 19.2833060861, 
			 "total_energy": -671.505699918, 
			 "HOMO_LUMO_gap": 0.18218, 
			 "cosmo_polarized_energy": -14.21, 
			 "cosmo_cavitation_energy": 33.2, 
			 "cosmo_dispersion_energy": -24.04, 
			 "cosmo_repulsion_energy": 1.92, 
			 "cosmo_total_nonelectrostatic_energy": 11.08, 
			 "SMD_solvation_energy": 5.56 
		},
		"coords": [
			{
				"x": -0.1803066858,
				"y": 4.4695558266,
				"z": 0.4606811345,
				"element": "C" 
			},
			{
				"x": -1.5436710874,
				"y": 3.9123342208,
				"z": 0.8804474214,
				"element": "C" 
			},
			{
				"x": -1.4858204717,
				"y": 2.4672858455,
				"z": 1.3617744547,
				"element": "C" 
			},
			{
				"x": -1.0555563056,
				"y": 1.6592112614,
				"z": 0.2717397689,
				"element": "O" 
			},
			{
				"x": -0.8924755852,
				"y": 0.3103502641,
				"z": 0.4619988126,
				"element": "C" 
			},
			{
				"x": -0.4444198811,
				"y": -0.404423577,
				"z": -0.6486578174,
				"element": "C" 
			},
			{
				"x": -0.2546217061,
				"y": -1.7896631604,
				"z": -0.539858712,
				"element": "C" 
			},
			{
				"x": -0.5224218495,
				"y": -2.4310647738,
				"z": 0.701215011,
				"element": "C" 
			},
			{
				"x": -0.2517340477,
				"y": -3.7786457887,
				"z": 0.532105914,
				"element": "N" 
			},
			{
				"x": 0.1730059667,
				"y": -3.9942053138,
				"z": -0.761939778,
				"element": "C" 
			},
			{
				"x": 0.1927630031,
				"y": -2.8107208439,
				"z": -1.4597522198,
				"element": "C" 
			},
			{
				"x": 0.5373825904,
				"y": -2.6204017877,
				"z": -2.9050992468,
				"element": "C" 
			},
			{
				"x": -0.6010031229,
				"y": -2.5792395094,
				"z": -3.7723846694,
				"element": "O" 
			},
			{
				"x": -0.9696348118,
				"y": -1.7196323244,
				"z": 1.8133286901,
				"element": "C" 
			},
			{
				"x": -1.1549748596,
				"y": -0.3443807897,
				"z": 1.686611145,
				"element": "C" 
			},
			{
				"x": -0.2681010454,
				"y": 5.5028926355,
				"z": 0.1108389555,
				"element": "H" 
			},
			{
				"x": 0.2499892497,
				"y": 3.870770222,
				"z": -0.3462358607,
				"element": "H" 
			},
			{
				"x": 0.5256099689,
				"y": 4.4592869635,
				"z": 1.2992774715,
				"element": "H" 
			},
			{
				"x": -1.967713079,
				"y": 4.5171092253,
				"z": 1.6921276226,
				"element": "H" 
			},
			{
				"x": -2.2487244883,
				"y": 3.9703890886,
				"z": 0.0426055906,
				"element": "H" 
			},
			{
				"x": -2.4760744424,
				"y": 2.1377181495,
				"z": 1.7094168361,
				"element": "H" 
			},
			{
				"x": -0.7838367112,
				"y": 2.371176801,
				"z": 2.2045009841,
				"element": "H" 
			},
			{
				"x": -0.2494699104,
				"y": 0.1335824268,
				"z": -1.5713568433,
				"element": "H" 
			},
			{
				"x": -0.3290098027,
				"y": -4.4849137249,
				"z": 1.2449361922,
				"element": "H" 
			},
			{
				"x": 0.4343850928,
				"y": -4.9886337243,
				"z": -1.0969966582,
				"element": "H" 
			},
			{
				"x": 1.1421691347,
				"y": -1.7068421434,
				"z": -3.0226576281,
				"element": "H" 
			},
			{
				"x": 1.1472017349,
				"y": -3.4558457776,
				"z": -3.2630982335,
				"element": "H" 
			},
			{
				"x": -1.2386876588,
				"y": -1.9722608725,
				"z": -3.3745924132,
				"element": "H" 
			},
			{
				"x": -1.1728063414,
				"y": -2.213714366,
				"z": 2.7593531367,
				"element": "H" 
			},
			{
				"x": -1.5045428472,
				"y": 0.217425547,
				"z": 2.5437709388,
				"element": "H" 
			}
		],
		 "valence_orbital": [ 
			{
				"type": "occ",
				"energy": -0.29304,
				"method": "rhf"
			},
			{
				"type": "occ",
				"energy": -0.26984,
				"method": "rhf"
			},
			{
				"type": "occ",
				"energy": -0.25545,
				"method": "rhf"
			},
			{
				"type": "occ",
				"energy": -0.20779,
				"method": "rhf"
			},
			{
				"type": "occ",
				"energy": -0.19297,
				"method": "rhf"
			},
			{
				"type": "unocc",
				"energy": -0.01079,
				"method": "rhf"
			},
			{
				"type": "unocc",
				"energy": 0.03777,
				"method": "rhf"
			},
			{
				"type": "unocc",
				"energy": 0.05578,
				"method": "rhf"
			},
			{
				"type": "unocc",
				"energy": 0.07932,
				"method": "rhf"
			},
			{
				"type": "unocc",
				"energy": 0.09584,
				"method": "rhf"
			}
		],
		"cosmo_sigma_profile": { 
			"-0.025": 0.0,
			"-0.024": 0.0,
			"-0.023": 0.0,
			"-0.022": 0.0,
			"-0.021": 0.0,
			"-0.02": 0.0,
			"-0.019": 0.0,
			"-0.018": 0.0,
			"-0.017": 0.0,
			"-0.016": 0.218849277213,
			"-0.015": 1.49987471985,
			"-0.014": 1.69638693259,
			"-0.013": 2.02669354329,
			"-0.012": 2.09657674183,
			"-0.011": 1.38895946154,
			"-0.01": 1.89581005943,
			"-0.009": 2.75041511232,
			"-0.008": 3.9802265787,
			"-0.007": 4.75566955441,
			"-0.006": 7.83501554516,
			"-0.005": 11.0508342421,
			"-0.004": 18.3133822371,
			"-0.003": 26.1922206106,
			"-0.002": 25.0062853335,
			"-0.001": 20.5162185283,
			"0.0": 19.9410987351,
			"0.001": 17.1957874167,
			"0.002": 12.8251162995,
			"0.003": 9.21337287808,
			"0.004": 11.7909417526,
			"0.005": 17.8500429673,
			"0.006": 17.5505169746,
			"0.007": 6.9275400633,
			"0.008": 3.1561207584,
			"0.009": 1.99970953125,
			"0.01": 2.25246967513,
			"0.011": 1.92771282214,
			"0.012": 1.52879043491,
			"0.013": 1.48492448224,
			"0.014": 2.22907461914,
			"0.015": 1.99316447302,
			"0.016": 0.0465318976374,
			"0.017": 0.0,
			"0.018": 0.0,
			"0.019": 0.0,
			"0.02": 0.0,
			"0.021": 0.0,
			"0.022": 0.0,
			"0.023": 0.0,
			"0.024": 0.0,
			"0.025": 0.0
		}
	}
}
