{
	 "smiles": "FC1=CC(NC(=O)CCl)=CC=C1", 
	 "Tm": 378.15, 
	 "num_atms": 19, 
	 "gaussian": { 
		 "optdone": 1, 
		 "sigma_profile": "yes", 
		 "theory": "DFT", 
		 "functional": "B3LYP", 
		 "basiset": "6-31G**", 
		 "properties": { 
			 "R2extent": 3528.3029, 
			 "electric_dipole_moment_norm": 4.02074271373, 
			 "electric_quadrupole_moment_norm": 8.56029422275, 
			 "total_energy": -999.079752599, 
			 "HOMO_LUMO_gap": 0.20053, 
			 "cosmo_polarized_energy": -11.9, 
			 "cosmo_cavitation_energy": 25.63, 
			 "cosmo_dispersion_energy": -18.54, 
			 "cosmo_repulsion_energy": 1.46, 
			 "cosmo_total_nonelectrostatic_energy": 8.55, 
			 "SMD_solvation_energy": 5.37 
		},
		"coords": [
			{
				"x": 1.8070762236,
				"y": -2.9822770771,
				"z": 1.886788568,
				"element": "F" 
			},
			{
				"x": 0.9197062304,
				"y": -2.1394801319,
				"z": 1.3232519709,
				"element": "C" 
			},
			{
				"x": 1.4101054591,
				"y": -1.030616317,
				"z": 0.6422095282,
				"element": "C" 
			},
			{
				"x": 0.4933790129,
				"y": -0.1444294361,
				"z": 0.061374726,
				"element": "C" 
			},
			{
				"x": 0.9047024997,
				"y": 0.9991988059,
				"z": -0.66299222,
				"element": "N" 
			},
			{
				"x": 1.878518868,
				"y": 1.9507330486,
				"z": -0.4337659193,
				"element": "C" 
			},
			{
				"x": 2.0194568189,
				"y": 2.8880236558,
				"z": -1.2019500175,
				"element": "O" 
			},
			{
				"x": 2.734217688,
				"y": 1.8366202527,
				"z": 0.8240342178,
				"element": "C" 
			},
			{
				"x": 4.3271646482,
				"y": 1.050185435,
				"z": 0.4581160057,
				"element": "Cl" 
			},
			{
				"x": -0.8825132044,
				"y": -0.4141322915,
				"z": 0.1431349542,
				"element": "C" 
			},
			{
				"x": -1.3345366007,
				"y": -1.5492228566,
				"z": 0.811943186,
				"element": "C" 
			},
			{
				"x": -0.4361652623,
				"y": -2.4258399198,
				"z": 1.4226830725,
				"element": "C" 
			},
			{
				"x": 2.480593633,
				"y": -0.8957118108,
				"z": 0.547687026,
				"element": "H" 
			},
			{
				"x": 0.3262811387,
				"y": 1.2583811307,
				"z": -1.453738749,
				"element": "H" 
			},
			{
				"x": 2.9580639439,
				"y": 2.8497322528,
				"z": 1.1531257777,
				"element": "H" 
			},
			{
				"x": 2.2662972644,
				"y": 1.2634320931,
				"z": 1.6233578198,
				"element": "H" 
			},
			{
				"x": -1.5901432549,
				"y": 0.2749303671,
				"z": -0.3080479225,
				"element": "H" 
			},
			{
				"x": -2.4002919273,
				"y": -1.7477519768,
				"z": 0.8689673482,
				"element": "H" 
			},
			{
				"x": -0.7642131791,
				"y": -3.3103752239,
				"z": 1.9563206274,
				"element": "H" 
			}
		],
		 "valence_orbital": [ 
			{
				"type": "occ",
				"energy": -0.31508,
				"method": "rhf"
			},
			{
				"type": "occ",
				"energy": -0.30664,
				"method": "rhf"
			},
			{
				"type": "occ",
				"energy": -0.27022,
				"method": "rhf"
			},
			{
				"type": "occ",
				"energy": -0.26489,
				"method": "rhf"
			},
			{
				"type": "occ",
				"energy": -0.2426,
				"method": "rhf"
			},
			{
				"type": "unocc",
				"energy": -0.04207,
				"method": "rhf"
			},
			{
				"type": "unocc",
				"energy": -0.02043,
				"method": "rhf"
			},
			{
				"type": "unocc",
				"energy": -0.00964,
				"method": "rhf"
			},
			{
				"type": "unocc",
				"energy": 0.0531,
				"method": "rhf"
			},
			{
				"type": "unocc",
				"energy": 0.0758,
				"method": "rhf"
			}
		],
		"cosmo_sigma_profile": { 
			"-0.025": 0.0,
			"-0.024": 0.0,
			"-0.023": 0.0,
			"-0.022": 0.0,
			"-0.021": 0.0,
			"-0.02": 0.0,
			"-0.019": 0.0,
			"-0.018": 0.0,
			"-0.017": 0.0,
			"-0.016": 0.0,
			"-0.015": 0.717986727522,
			"-0.014": 1.01609912612,
			"-0.013": 1.16105289893,
			"-0.012": 1.2511242646,
			"-0.011": 1.33918121545,
			"-0.01": 0.80826121587,
			"-0.009": 2.55935372592,
			"-0.008": 4.99437504713,
			"-0.007": 10.9656922597,
			"-0.006": 11.2837926136,
			"-0.005": 10.8293289974,
			"-0.004": 10.4431197071,
			"-0.003": 10.2267472088,
			"-0.002": 10.1936405822,
			"-0.001": 11.0347308784,
			"0.0": 15.2533788684,
			"0.001": 17.7040967065,
			"0.002": 16.8907285268,
			"0.003": 17.2465289441,
			"0.004": 21.1956419723,
			"0.005": 11.4308993791,
			"0.006": 3.04012941578,
			"0.007": 0.578960697982,
			"0.008": 1.52949151314,
			"0.009": 1.34263977413,
			"0.01": 1.79405928391,
			"0.011": 2.11010032295,
			"0.012": 4.88584315081,
			"0.013": 3.53698622303,
			"0.014": 0.2084585544,
			"0.015": 0.0,
			"0.016": 0.0,
			"0.017": 0.0,
			"0.018": 0.0,
			"0.019": 0.0,
			"0.02": 0.0,
			"0.021": 0.0,
			"0.022": 0.0,
			"0.023": 0.0,
			"0.024": 0.0,
			"0.025": 0.0
		}
	}
}
