{
	 "smiles": "CS(=O)(=O)NC1=C(Cl)C=C(Br)C=C1", 
	 "Tm": 372.15, 
	 "num_atms": 20, 
	 "gaussian": { 
		 "optdone": 1, 
		 "sigma_profile": "yes", 
		 "theory": "DFT", 
		 "functional": "B3LYP", 
		 "basiset": "6-31G**", 
		 "properties": { 
			 "R2extent": 5864.4598, 
			 "electric_dipole_moment_norm": 3.3552747801, 
			 "electric_quadrupole_moment_norm": 17.9072761932, 
			 "total_energy": -3905.8799718, 
			 "HOMO_LUMO_gap": 0.20456, 
			 "cosmo_polarized_energy": -13.84, 
			 "cosmo_cavitation_energy": 29.69, 
			 "cosmo_dispersion_energy": -22.4, 
			 "cosmo_repulsion_energy": 1.73, 
			 "cosmo_total_nonelectrostatic_energy": 9.02, 
			 "SMD_solvation_energy": 3.24 
		},
		"coords": [
			{
				"x": 2.8161634643,
				"y": 0.3398810647,
				"z": -3.4967766611,
				"element": "C" 
			},
			{
				"x": 2.164691767,
				"y": -1.2848893219,
				"z": -3.0568523108,
				"element": "S" 
			},
			{
				"x": 1.8719717604,
				"y": -2.0220075101,
				"z": -4.282566855,
				"element": "O" 
			},
			{
				"x": 3.0227874359,
				"y": -1.8300900313,
				"z": -2.0072847881,
				"element": "O" 
			},
			{
				"x": 0.6359664288,
				"y": -0.9777847526,
				"z": -2.3848914294,
				"element": "N" 
			},
			{
				"x": 0.4099010901,
				"y": -0.1736063038,
				"z": -1.2495538095,
				"element": "C" 
			},
			{
				"x": -0.6324729204,
				"y": 0.7722817743,
				"z": -1.2361498435,
				"element": "C" 
			},
			{
				"x": -1.6340243367,
				"y": 0.9910770054,
				"z": -2.6667219392,
				"element": "Cl" 
			},
			{
				"x": -0.9076832357,
				"y": 1.5443595627,
				"z": -0.1101391981,
				"element": "C" 
			},
			{
				"x": -0.1121804935,
				"y": 1.391019305,
				"z": 1.0219065285,
				"element": "C" 
			},
			{
				"x": -0.4681944857,
				"y": 2.4554163231,
				"z": 2.5633462962,
				"element": "Br" 
			},
			{
				"x": 0.9319848377,
				"y": 0.467730613,
				"z": 1.0393983681,
				"element": "C" 
			},
			{
				"x": 1.1786911382,
				"y": -0.3171796337,
				"z": -0.0828510464,
				"element": "C" 
			},
			{
				"x": 3.8235959792,
				"y": 0.1811582561,
				"z": -3.8854199377,
				"element": "H" 
			},
			{
				"x": 2.1761967111,
				"y": 0.7823699767,
				"z": -4.2609283648,
				"element": "H" 
			},
			{
				"x": 2.8513830827,
				"y": 0.9616097634,
				"z": -2.6009847293,
				"element": "H" 
			},
			{
				"x": -0.0676971019,
				"y": -0.9201692393,
				"z": -3.1143082883,
				"element": "H" 
			},
			{
				"x": -1.7225369468,
				"y": 2.2570415989,
				"z": -0.1279298573,
				"element": "H" 
			},
			{
				"x": 1.5383694892,
				"y": 0.3462178111,
				"z": 1.9292436547,
				"element": "H" 
			},
			{
				"x": 1.9688863364,
				"y": -1.0580362616,
				"z": -0.069535789,
				"element": "H" 
			}
		],
		 "valence_orbital": [ 
			{
				"type": "occ",
				"energy": -0.31729,
				"method": "rhf"
			},
			{
				"type": "occ",
				"energy": -0.30315,
				"method": "rhf"
			},
			{
				"type": "occ",
				"energy": -0.30059,
				"method": "rhf"
			},
			{
				"type": "occ",
				"energy": -0.27597,
				"method": "rhf"
			},
			{
				"type": "occ",
				"energy": -0.24262,
				"method": "rhf"
			},
			{
				"type": "unocc",
				"energy": -0.03806,
				"method": "rhf"
			},
			{
				"type": "unocc",
				"energy": -0.03623,
				"method": "rhf"
			},
			{
				"type": "unocc",
				"energy": -0.0189,
				"method": "rhf"
			},
			{
				"type": "unocc",
				"energy": 0.02323,
				"method": "rhf"
			},
			{
				"type": "unocc",
				"energy": 0.05197,
				"method": "rhf"
			}
		],
		"cosmo_sigma_profile": { 
			"-0.025": 0.0,
			"-0.024": 0.0,
			"-0.023": 0.0,
			"-0.022": 0.0,
			"-0.021": 0.0,
			"-0.02": 0.0,
			"-0.019": 0.0,
			"-0.018": 0.0,
			"-0.017": 0.0,
			"-0.016": 0.0,
			"-0.015": 0.0,
			"-0.014": 0.0,
			"-0.013": 0.3406755221,
			"-0.012": 1.45464394405,
			"-0.011": 1.17426562135,
			"-0.01": 1.773530136,
			"-0.009": 5.34399317566,
			"-0.008": 9.07314340509,
			"-0.007": 10.1600070529,
			"-0.006": 12.8300777744,
			"-0.005": 13.2468530036,
			"-0.004": 13.4182023914,
			"-0.003": 11.3759675948,
			"-0.002": 11.4799991258,
			"-0.001": 14.1166367593,
			"0.0": 19.1998167081,
			"0.001": 24.9668321999,
			"0.002": 22.2514841878,
			"0.003": 17.4461614933,
			"0.004": 17.8388438515,
			"0.005": 4.13641525413,
			"0.006": 3.79614269904,
			"0.007": 3.74088920715,
			"0.008": 3.06606757467,
			"0.009": 3.19473083433,
			"0.01": 9.58390800662,
			"0.011": 7.98951041149,
			"0.012": 0.653571910541,
			"0.013": 0.0,
			"0.014": 0.0,
			"0.015": 0.0,
			"0.016": 0.0,
			"0.017": 0.0,
			"0.018": 0.0,
			"0.019": 0.0,
			"0.02": 0.0,
			"0.021": 0.0,
			"0.022": 0.0,
			"0.023": 0.0,
			"0.024": 0.0,
			"0.025": 0.0
		}
	}
}
