{
	 "smiles": "CC1=CC(C2=NC3=C(N2)C=CC=C3)=C(O)C=C1", 
	 "Tm": 533.15, 
	 "num_atms": 29, 
	 "gaussian": { 
		 "optdone": 1, 
		 "sigma_profile": "yes", 
		 "theory": "DFT", 
		 "functional": "B3LYP", 
		 "basiset": "6-31G**", 
		 "properties": { 
			 "R2extent": 5342.971, 
			 "electric_dipole_moment_norm": 1.69801167841, 
			 "electric_quadrupole_moment_norm": 9.36842199146, 
			 "total_energy": -725.4732363, 
			 "HOMO_LUMO_gap": 0.16797, 
			 "cosmo_polarized_energy": -13.95, 
			 "cosmo_cavitation_energy": 32.79, 
			 "cosmo_dispersion_energy": -24.42, 
			 "cosmo_repulsion_energy": 1.86, 
			 "cosmo_total_nonelectrostatic_energy": 10.23, 
			 "SMD_solvation_energy": 3.73 
		},
		"coords": [
			{
				"x": 3.2615479946,
				"y": 2.3031206334,
				"z": -1.5340881131,
				"element": "C" 
			},
			{
				"x": 2.2726549134,
				"y": 1.2073638183,
				"z": -1.8576842253,
				"element": "C" 
			},
			{
				"x": 1.5039767594,
				"y": 0.6096054895,
				"z": -0.8614145315,
				"element": "C" 
			},
			{
				"x": 0.5806305022,
				"y": -0.4140498944,
				"z": -1.1424298995,
				"element": "C" 
			},
			{
				"x": -0.146707329,
				"y": -1.0322113613,
				"z": -0.0282327091,
				"element": "C" 
			},
			{
				"x": -0.3511632238,
				"y": -0.4723030961,
				"z": 1.1450377059,
				"element": "N" 
			},
			{
				"x": -1.0179125417,
				"y": -1.4236589958,
				"z": 1.8989864006,
				"element": "C" 
			},
			{
				"x": -1.2212368202,
				"y": -2.6031646808,
				"z": 1.1416963717,
				"element": "C" 
			},
			{
				"x": -0.6812529624,
				"y": -2.3170248289,
				"z": -0.1021392747,
				"element": "N" 
			},
			{
				"x": -1.8611710374,
				"y": -3.7295349638,
				"z": 1.6604756022,
				"element": "C" 
			},
			{
				"x": -2.3027131268,
				"y": -3.6463709274,
				"z": 2.9794205649,
				"element": "C" 
			},
			{
				"x": -2.1162539637,
				"y": -2.4783266611,
				"z": 3.7463794062,
				"element": "C" 
			},
			{
				"x": -1.4781128623,
				"y": -1.3593337471,
				"z": 3.2211679342,
				"element": "C" 
			},
			{
				"x": 0.4047941041,
				"y": -0.8106947178,
				"z": -2.4817387329,
				"element": "C" 
			},
			{
				"x": -0.5029745236,
				"y": -1.7798135743,
				"z": -2.8600749222,
				"element": "O" 
			},
			{
				"x": 1.1762960356,
				"y": -0.2302227947,
				"z": -3.4896603518,
				"element": "C" 
			},
			{
				"x": 2.1037216842,
				"y": 0.7580042949,
				"z": -3.1783041798,
				"element": "C" 
			},
			{
				"x": 3.3278206426,
				"y": 2.4726350432,
				"z": -0.4562254328,
				"element": "H" 
			},
			{
				"x": 4.265725114,
				"y": 2.0570104678,
				"z": -1.8974939106,
				"element": "H" 
			},
			{
				"x": 2.9735598532,
				"y": 3.2518744442,
				"z": -2.0023912703,
				"element": "H" 
			},
			{
				"x": 1.610163697,
				"y": 0.914215734,
				"z": 0.1749033064,
				"element": "H" 
			},
			{
				"x": -0.4582360079,
				"y": -2.9836111993,
				"z": -0.8274191633,
				"element": "H" 
			},
			{
				"x": -2.0089004811,
				"y": -4.6297469076,
				"z": 1.0713848888,
				"element": "H" 
			},
			{
				"x": -2.8034124733,
				"y": -4.5004784879,
				"z": 3.4255812986,
				"element": "H" 
			},
			{
				"x": -2.4796616801,
				"y": -2.4562360759,
				"z": 4.7695198113,
				"element": "H" 
			},
			{
				"x": -1.3302630594,
				"y": -0.4582411757,
				"z": 3.8073901521,
				"element": "H" 
			},
			{
				"x": -1.2828305028,
				"y": -1.7134849053,
				"z": -2.2902697466,
				"element": "H" 
			},
			{
				"x": 1.0209552002,
				"y": -0.5593878636,
				"z": -4.5118247827,
				"element": "H" 
			},
			{
				"x": 2.6971560947,
				"y": 1.1987669335,
				"z": -3.9756521969,
				"element": "H" 
			}
		],
		 "valence_orbital": [ 
			{
				"type": "occ",
				"energy": -0.27201,
				"method": "rhf"
			},
			{
				"type": "occ",
				"energy": -0.26634,
				"method": "rhf"
			},
			{
				"type": "occ",
				"energy": -0.23373,
				"method": "rhf"
			},
			{
				"type": "occ",
				"energy": -0.22794,
				"method": "rhf"
			},
			{
				"type": "occ",
				"energy": -0.2102,
				"method": "rhf"
			},
			{
				"type": "unocc",
				"energy": -0.04223,
				"method": "rhf"
			},
			{
				"type": "unocc",
				"energy": 0.00387,
				"method": "rhf"
			},
			{
				"type": "unocc",
				"energy": 0.01002,
				"method": "rhf"
			},
			{
				"type": "unocc",
				"energy": 0.02137,
				"method": "rhf"
			},
			{
				"type": "unocc",
				"energy": 0.06307,
				"method": "rhf"
			}
		],
		"cosmo_sigma_profile": { 
			"-0.025": 0.0,
			"-0.024": 0.0,
			"-0.023": 0.0,
			"-0.022": 0.0,
			"-0.021": 0.0,
			"-0.02": 0.0,
			"-0.019": 0.0,
			"-0.018": 0.0,
			"-0.017": 0.0342214168019,
			"-0.016": 0.704787074738,
			"-0.015": 1.8970765075,
			"-0.014": 1.35963745681,
			"-0.013": 2.47048893125,
			"-0.012": 2.86295582849,
			"-0.011": 1.78098699911,
			"-0.01": 1.70163628216,
			"-0.009": 1.80088135667,
			"-0.008": 2.64519465056,
			"-0.007": 2.96569721397,
			"-0.006": 8.27107253569,
			"-0.005": 14.4692075271,
			"-0.004": 21.58147989,
			"-0.003": 19.6301474956,
			"-0.002": 18.1455144578,
			"-0.001": 17.5089660987,
			"0.0": 19.5958510333,
			"0.001": 17.640065507,
			"0.002": 17.2072377705,
			"0.003": 18.2186915462,
			"0.004": 22.1195398761,
			"0.005": 18.9283024698,
			"0.006": 10.6680307967,
			"0.007": 3.14419908682,
			"0.008": 2.93054075053,
			"0.009": 2.28022974848,
			"0.01": 2.22004005113,
			"0.011": 3.04094617029,
			"0.012": 1.21457606592,
			"0.013": 1.01079925464,
			"0.014": 0.721833539488,
			"0.015": 0.849881552393,
			"0.016": 0.729730922319,
			"0.017": 0.0685285713869,
			"0.018": 0.0,
			"0.019": 0.0,
			"0.02": 0.0,
			"0.021": 0.0,
			"0.022": 0.0,
			"0.023": 0.0,
			"0.024": 0.0,
			"0.025": 0.0
		}
	}
}
