{
	 "smiles": "CNC(=O)ON=C(C)C(C)SC", 
	 "Tm": 310.15, 
	 "num_atms": 26, 
	 "gaussian": { 
		 "optdone": 1, 
		 "sigma_profile": "yes", 
		 "theory": "DFT", 
		 "functional": "B3LYP", 
		 "basiset": "6-31G**", 
		 "properties": { 
			 "R2extent": 3109.5062, 
			 "electric_dipole_moment_norm": 3.5465588082, 
			 "electric_quadrupole_moment_norm": 14.3706366018, 
			 "total_energy": -933.28911661, 
			 "HOMO_LUMO_gap": 0.20762, 
			 "cosmo_polarized_energy": -14.87, 
			 "cosmo_cavitation_energy": 30.55, 
			 "cosmo_dispersion_energy": -21.35, 
			 "cosmo_repulsion_energy": 1.71, 
			 "cosmo_total_nonelectrostatic_energy": 10.91, 
			 "SMD_solvation_energy": 5.57 
		},
		"coords": [
			{
				"x": -0.8163073205,
				"y": 0.4241814341,
				"z": 2.9187496628,
				"element": "C" 
			},
			{
				"x": -0.9036623225,
				"y": 1.6199552002,
				"z": 2.0935586554,
				"element": "N" 
			},
			{
				"x": -0.9173895181,
				"y": 1.6447980061,
				"z": 0.7276271373,
				"element": "C" 
			},
			{
				"x": -1.2031682395,
				"y": 2.6078290394,
				"z": 0.0489267021,
				"element": "O" 
			},
			{
				"x": -0.4845358252,
				"y": 0.4322460075,
				"z": 0.2373073371,
				"element": "O" 
			},
			{
				"x": -0.8706727735,
				"y": 0.2544304777,
				"z": -1.1353776296,
				"element": "N" 
			},
			{
				"x": 0.0488587256,
				"y": -0.3254464522,
				"z": -1.8194740917,
				"element": "C" 
			},
			{
				"x": -0.3425229639,
				"y": -0.6431395234,
				"z": -3.2399752636,
				"element": "C" 
			},
			{
				"x": 1.445715381,
				"y": -0.6536775285,
				"z": -1.3363602483,
				"element": "C" 
			},
			{
				"x": 1.907178451,
				"y": -2.0668186759,
				"z": -1.7124045922,
				"element": "C" 
			},
			{
				"x": 2.6428013505,
				"y": 0.5601053278,
				"z": -2.0736441631,
				"element": "S" 
			},
			{
				"x": 2.1440025462,
				"y": 2.1082553182,
				"z": -1.2381980289,
				"element": "C" 
			},
			{
				"x": -0.7514502421,
				"y": 0.731887702,
				"z": 3.9646488187,
				"element": "H" 
			},
			{
				"x": -1.6855858938,
				"y": -0.2344445098,
				"z": 2.8008873306,
				"element": "H" 
			},
			{
				"x": 0.0822955488,
				"y": -0.1470128464,
				"z": 2.6749141853,
				"element": "H" 
			},
			{
				"x": -1.2535536242,
				"y": 2.4721612361,
				"z": 2.5037155202,
				"element": "H" 
			},
			{
				"x": -1.3121500713,
				"y": -0.1964696084,
				"z": -3.4643210868,
				"element": "H" 
			},
			{
				"x": -0.4138713306,
				"y": -1.7265812389,
				"z": -3.3881492327,
				"element": "H" 
			},
			{
				"x": 0.4078110079,
				"y": -0.2576271723,
				"z": -3.9362180725,
				"element": "H" 
			},
			{
				"x": 1.487717658,
				"y": -0.5309587425,
				"z": -0.254586643,
				"element": "H" 
			},
			{
				"x": 2.8948718582,
				"y": -2.2629910899,
				"z": -1.2875551182,
				"element": "H" 
			},
			{
				"x": 1.9723261655,
				"y": -2.2018600107,
				"z": -2.7958085842,
				"element": "H" 
			},
			{
				"x": 1.2084605333,
				"y": -2.8115393251,
				"z": -1.3171213399,
				"element": "H" 
			},
			{
				"x": 1.0847776644,
				"y": 2.3285914539,
				"z": -1.3879018241,
				"element": "H" 
			},
			{
				"x": 2.7408597605,
				"y": 2.9023010824,
				"z": -1.6925232474,
				"element": "H" 
			},
			{
				"x": 2.3662934743,
				"y": 2.0656244383,
				"z": -0.1692161835,
				"element": "H" 
			}
		],
		 "valence_orbital": [ 
			{
				"type": "occ",
				"energy": -0.28385,
				"method": "rhf"
			},
			{
				"type": "occ",
				"energy": -0.27051,
				"method": "rhf"
			},
			{
				"type": "occ",
				"energy": -0.26176,
				"method": "rhf"
			},
			{
				"type": "occ",
				"energy": -0.25314,
				"method": "rhf"
			},
			{
				"type": "occ",
				"energy": -0.22409,
				"method": "rhf"
			},
			{
				"type": "unocc",
				"energy": -0.01647,
				"method": "rhf"
			},
			{
				"type": "unocc",
				"energy": 0.04503,
				"method": "rhf"
			},
			{
				"type": "unocc",
				"energy": 0.05019,
				"method": "rhf"
			},
			{
				"type": "unocc",
				"energy": 0.06862,
				"method": "rhf"
			},
			{
				"type": "unocc",
				"energy": 0.0796,
				"method": "rhf"
			}
		],
		"cosmo_sigma_profile": { 
			"-0.025": 0.0,
			"-0.024": 0.0,
			"-0.023": 0.0,
			"-0.022": 0.0,
			"-0.021": 0.0,
			"-0.02": 0.0,
			"-0.019": 0.0,
			"-0.018": 0.0,
			"-0.017": 0.0,
			"-0.016": 0.0,
			"-0.015": 0.173724176486,
			"-0.014": 1.27410246583,
			"-0.013": 1.05973085571,
			"-0.012": 1.01640808523,
			"-0.011": 0.760817228919,
			"-0.01": 1.03964864533,
			"-0.009": 1.25007937086,
			"-0.008": 0.961229022929,
			"-0.007": 1.63142526517,
			"-0.006": 6.00714287779,
			"-0.005": 18.3482134956,
			"-0.004": 26.6232327941,
			"-0.003": 26.3502388291,
			"-0.002": 30.3417165807,
			"-0.001": 28.4778200376,
			"0.0": 16.764925771,
			"0.001": 9.40177928015,
			"0.002": 8.56225176645,
			"0.003": 7.56586662565,
			"0.004": 6.68282484078,
			"0.005": 8.26867000328,
			"0.006": 7.52709017635,
			"0.007": 4.4081472943,
			"0.008": 4.46216186055,
			"0.009": 3.50402848023,
			"0.01": 2.79721323401,
			"0.011": 2.2292121283,
			"0.012": 3.41190091013,
			"0.013": 5.5379781359,
			"0.014": 2.67475044318,
			"0.015": 1.4370534367,
			"0.016": 0.739314553616,
			"0.017": 0.0,
			"0.018": 0.0,
			"0.019": 0.0,
			"0.02": 0.0,
			"0.021": 0.0,
			"0.022": 0.0,
			"0.023": 0.0,
			"0.024": 0.0,
			"0.025": 0.0
		}
	}
}
