{
	 "smiles": "OC(=O)CCCNC1=CC=C(C=C1)[N+]([O-])=O", 
	 "Tm": 432.15, 
	 "num_atms": 28, 
	 "gaussian": { 
		 "optdone": 1, 
		 "sigma_profile": "yes", 
		 "theory": "DFT", 
		 "functional": "B3LYP", 
		 "basiset": "6-31G**", 
		 "properties": { 
			 "R2extent": 6036.016, 
			 "electric_dipole_moment_norm": 8.06333543517, 
			 "electric_quadrupole_moment_norm": 22.5566622456, 
			 "total_energy": -798.62176238, 
			 "HOMO_LUMO_gap": 0.15197, 
			 "cosmo_polarized_energy": -20.5, 
			 "cosmo_cavitation_energy": 33.17, 
			 "cosmo_dispersion_energy": -23.68, 
			 "cosmo_repulsion_energy": 1.87, 
			 "cosmo_total_nonelectrostatic_energy": 11.36, 
			 "SMD_solvation_energy": 8.37 
		},
		"coords": [
			{
				"x": 3.5615575835,
				"y": -3.1589977514,
				"z": -1.2976489034,
				"element": "O" 
			},
			{
				"x": 3.2437163971,
				"y": -2.4820785949,
				"z": -0.1708617449,
				"element": "C" 
			},
			{
				"x": 3.9353281758,
				"y": -1.5899749626,
				"z": 0.2728483833,
				"element": "O" 
			},
			{
				"x": 1.9519326696,
				"y": -2.9913566421,
				"z": 0.4348759079,
				"element": "C" 
			},
			{
				"x": 1.5308805939,
				"y": -2.219519219,
				"z": 1.6895299973,
				"element": "C" 
			},
			{
				"x": 1.0462091672,
				"y": -0.7923586893,
				"z": 1.4129821529,
				"element": "C" 
			},
			{
				"x": -0.1726485548,
				"y": -0.8029134728,
				"z": 0.6131510028,
				"element": "N" 
			},
			{
				"x": -0.7404816036,
				"y": 0.3227864885,
				"z": 0.0578460136,
				"element": "C" 
			},
			{
				"x": -0.0579330742,
				"y": 1.558327161,
				"z": -0.0158942379,
				"element": "C" 
			},
			{
				"x": -0.6525268051,
				"y": 2.6558409593,
				"z": -0.6217519885,
				"element": "C" 
			},
			{
				"x": -1.9370232268,
				"y": 2.5439577006,
				"z": -1.1548023642,
				"element": "C" 
			},
			{
				"x": -2.6384398416,
				"y": 1.3355243142,
				"z": -1.0870409194,
				"element": "C" 
			},
			{
				"x": -2.0451135592,
				"y": 0.2404502808,
				"z": -0.4874188935,
				"element": "C" 
			},
			{
				"x": -2.5580933315,
				"y": 3.6992103911,
				"z": -1.7838062451,
				"element": "N" 
			},
			{
				"x": -1.9129458581,
				"y": 4.7508670997,
				"z": -1.8270829056,
				"element": "O" 
			},
			{
				"x": -3.6973427526,
				"y": 3.5643510457,
				"z": -2.2406666651,
				"element": "O" 
			},
			{
				"x": 4.3959532786,
				"y": -2.7782278953,
				"z": -1.6201539819,
				"element": "H" 
			},
			{
				"x": 1.1780283869,
				"y": -2.9484403291,
				"z": -0.3398591529,
				"element": "H" 
			},
			{
				"x": 2.0948914759,
				"y": -4.0552960155,
				"z": 0.658420494,
				"element": "H" 
			},
			{
				"x": 2.3769076983,
				"y": -2.1608645403,
				"z": 2.3805331308,
				"element": "H" 
			},
			{
				"x": 0.740393455,
				"y": -2.7802687776,
				"z": 2.2057872758,
				"element": "H" 
			},
			{
				"x": 1.8279573703,
				"y": -0.2577527126,
				"z": 0.8675385994,
				"element": "H" 
			},
			{
				"x": 0.8965676789,
				"y": -0.2639512303,
				"z": 2.3679155828,
				"element": "H" 
			},
			{
				"x": -0.830247998,
				"y": -1.5346212393,
				"z": 0.8478524665,
				"element": "H" 
			},
			{
				"x": 0.9352721767,
				"y": 1.661079325,
				"z": 0.4039427606,
				"element": "H" 
			},
			{
				"x": -0.1383281064,
				"y": 3.6070521264,
				"z": -0.6833438601,
				"element": "H" 
			},
			{
				"x": -3.6354139255,
				"y": 1.2789374576,
				"z": -1.5060080176,
				"element": "H" 
			},
			{
				"x": -2.5826574701,
				"y": -0.7030622776,
				"z": -0.4370838875,
				"element": "H" 
			}
		],
		 "valence_orbital": [ 
			{
				"type": "occ",
				"energy": -0.29027,
				"method": "rhf"
			},
			{
				"type": "occ",
				"energy": -0.28941,
				"method": "rhf"
			},
			{
				"type": "occ",
				"energy": -0.27109,
				"method": "rhf"
			},
			{
				"type": "occ",
				"energy": -0.26953,
				"method": "rhf"
			},
			{
				"type": "occ",
				"energy": -0.22074,
				"method": "rhf"
			},
			{
				"type": "unocc",
				"energy": -0.06877,
				"method": "rhf"
			},
			{
				"type": "unocc",
				"energy": -0.0171,
				"method": "rhf"
			},
			{
				"type": "unocc",
				"energy": -0.00476,
				"method": "rhf"
			},
			{
				"type": "unocc",
				"energy": 0.02348,
				"method": "rhf"
			},
			{
				"type": "unocc",
				"energy": 0.0612,
				"method": "rhf"
			}
		],
		"cosmo_sigma_profile": { 
			"-0.025": 0.0,
			"-0.024": 0.0,
			"-0.023": 0.0,
			"-0.022": 0.0,
			"-0.021": 0.0,
			"-0.02": 0.0,
			"-0.019": 0.050335736851,
			"-0.018": 0.76849301213,
			"-0.017": 0.793135887469,
			"-0.016": 1.15528185725,
			"-0.015": 0.538199557026,
			"-0.014": 0.854750536104,
			"-0.013": 2.05453074382,
			"-0.012": 2.72072217478,
			"-0.011": 1.79763616768,
			"-0.01": 2.81255041399,
			"-0.009": 2.19856123785,
			"-0.008": 2.89041098361,
			"-0.007": 7.43520837318,
			"-0.006": 11.6078768714,
			"-0.005": 15.135508426,
			"-0.004": 21.5890250546,
			"-0.003": 24.912072146,
			"-0.002": 17.6076121434,
			"-0.001": 17.1742600273,
			"0.0": 15.0493887905,
			"0.001": 14.1679109795,
			"0.002": 14.4366067955,
			"0.003": 17.9390911269,
			"0.004": 9.53880923718,
			"0.005": 5.85635870093,
			"0.006": 5.18668711519,
			"0.007": 5.43958019485,
			"0.008": 9.86855400951,
			"0.009": 12.3918259803,
			"0.01": 7.27059938276,
			"0.011": 6.80768265018,
			"0.012": 4.38428430041,
			"0.013": 0.10952804376,
			"0.014": 0.0,
			"0.015": 0.0,
			"0.016": 0.0,
			"0.017": 0.0,
			"0.018": 0.0,
			"0.019": 0.0,
			"0.02": 0.0,
			"0.021": 0.0,
			"0.022": 0.0,
			"0.023": 0.0,
			"0.024": 0.0,
			"0.025": 0.0
		}
	}
}
