{
	 "smiles": "CC1=C(C(=O)C2=C(O1)C=C(O)C=C2)C1=C(Cl)C=CC=C1", 
	 "Tm": 456.15, 
	 "num_atms": 31, 
	 "gaussian": { 
		 "optdone": 1, 
		 "sigma_profile": "yes", 
		 "theory": "DFT", 
		 "functional": "B3LYP", 
		 "basiset": "6-31G**", 
		 "properties": { 
			 "R2extent": 7130.8016, 
			 "electric_dipole_moment_norm": 4.22284767663, 
			 "electric_quadrupole_moment_norm": 16.2654360224, 
			 "total_energy": -1302.19843145, 
			 "HOMO_LUMO_gap": 0.18392, 
			 "cosmo_polarized_energy": -17.02, 
			 "cosmo_cavitation_energy": 37.22, 
			 "cosmo_dispersion_energy": -26.48, 
			 "cosmo_repulsion_energy": 2.01, 
			 "cosmo_total_nonelectrostatic_energy": 12.75, 
			 "SMD_solvation_energy": 7.13 
		},
		"coords": [
			{
				"x": 1.5394957477,
				"y": 0.2112824071,
				"z": 2.0466652412,
				"element": "C" 
			},
			{
				"x": 0.4587479053,
				"y": -0.0340782526,
				"z": 1.0420735188,
				"element": "C" 
			},
			{
				"x": 0.267747556,
				"y": -1.1563047146,
				"z": 0.2972026964,
				"element": "C" 
			},
			{
				"x": -0.812776982,
				"y": -1.2083893416,
				"z": -0.7128327717,
				"element": "C" 
			},
			{
				"x": -0.9801092806,
				"y": -2.1675599236,
				"z": -1.465792864,
				"element": "O" 
			},
			{
				"x": -1.673401405,
				"y": -0.0142420011,
				"z": -0.7513618291,
				"element": "C" 
			},
			{
				"x": -1.4088116736,
				"y": 1.0724338083,
				"z": 0.0866113095,
				"element": "C" 
			},
			{
				"x": -0.3481938127,
				"y": 1.0636902896,
				"z": 0.9506105719,
				"element": "O" 
			},
			{
				"x": -2.1995576369,
				"y": 2.2243757496,
				"z": 0.0807602854,
				"element": "C" 
			},
			{
				"x": -3.2858289333,
				"y": 2.2814373847,
				"z": -0.7900103021,
				"element": "C" 
			},
			{
				"x": -4.1096567921,
				"y": 3.3612046235,
				"z": -0.8617763429,
				"element": "O" 
			},
			{
				"x": -3.5767874216,
				"y": 1.2003748775,
				"z": -1.6476933061,
				"element": "C" 
			},
			{
				"x": -2.7760358998,
				"y": 0.0751713605,
				"z": -1.621911477,
				"element": "C" 
			},
			{
				"x": 1.1450956363,
				"y": -2.3518710746,
				"z": 0.4235084343,
				"element": "C" 
			},
			{
				"x": 1.1841638521,
				"y": -3.1742755496,
				"z": 1.5614458812,
				"element": "C" 
			},
			{
				"x": 0.160280868,
				"y": -2.8330483503,
				"z": 2.9572323359,
				"element": "Cl" 
			},
			{
				"x": 2.0092764839,
				"y": -4.2982098952,
				"z": 1.6314649648,
				"element": "C" 
			},
			{
				"x": 2.8107311943,
				"y": -4.6315837989,
				"z": 0.5421201815,
				"element": "C" 
			},
			{
				"x": 2.7780795209,
				"y": -3.8463752005,
				"z": -0.6114724972,
				"element": "C" 
			},
			{
				"x": 1.9513152751,
				"y": -2.7282292975,
				"z": -0.6646644315,
				"element": "C" 
			},
			{
				"x": 2.2985841501,
				"y": -0.5686739018,
				"z": 2.0056259655,
				"element": "H" 
			},
			{
				"x": 2.0061690061,
				"y": 1.182797354,
				"z": 1.8547283686,
				"element": "H" 
			},
			{
				"x": 1.1200263699,
				"y": 0.2370672995,
				"z": 3.0580984914,
				"element": "H" 
			},
			{
				"x": -1.954087101,
				"y": 3.0446960481,
				"z": 0.7487770917,
				"element": "H" 
			},
			{
				"x": -3.8197021401,
				"y": 4.032954642,
				"z": -0.2306094021,
				"element": "H" 
			},
			{
				"x": -4.4301831328,
				"y": 1.2799254627,
				"z": -2.3120302516,
				"element": "H" 
			},
			{
				"x": -2.9712243079,
				"y": -0.7736116361,
				"z": -2.2688911161,
				"element": "H" 
			},
			{
				"x": 2.010133802,
				"y": -4.9040328961,
				"z": 2.5307198825,
				"element": "H" 
			},
			{
				"x": 3.4509682979,
				"y": -5.507051943,
				"z": 0.5956204978,
				"element": "H" 
			},
			{
				"x": 3.3912787127,
				"y": -4.1061897695,
				"z": -1.4688488756,
				"element": "H" 
			},
			{
				"x": 1.9127621411,
				"y": -2.1237837603,
				"z": -1.5645702512,
				"element": "H" 
			}
		],
		 "valence_orbital": [ 
			{
				"type": "occ",
				"energy": -0.2582,
				"method": "rhf"
			},
			{
				"type": "occ",
				"energy": -0.24689,
				"method": "rhf"
			},
			{
				"type": "occ",
				"energy": -0.23754,
				"method": "rhf"
			},
			{
				"type": "occ",
				"energy": -0.23603,
				"method": "rhf"
			},
			{
				"type": "occ",
				"energy": -0.23104,
				"method": "rhf"
			},
			{
				"type": "unocc",
				"energy": -0.04712,
				"method": "rhf"
			},
			{
				"type": "unocc",
				"energy": -0.02317,
				"method": "rhf"
			},
			{
				"type": "unocc",
				"energy": -0.00824,
				"method": "rhf"
			},
			{
				"type": "unocc",
				"energy": -0.00621,
				"method": "rhf"
			},
			{
				"type": "unocc",
				"energy": 0.00767,
				"method": "rhf"
			}
		],
		"cosmo_sigma_profile": { 
			"-0.025": 0.0,
			"-0.024": 0.0,
			"-0.023": 0.0,
			"-0.022": 0.0,
			"-0.021": 0.0,
			"-0.02": 0.0,
			"-0.019": 0.315831005303,
			"-0.018": 1.33288908966,
			"-0.017": 1.08817898752,
			"-0.016": 0.862688838917,
			"-0.015": 1.0847786713,
			"-0.014": 1.38406144641,
			"-0.013": 1.14389091732,
			"-0.012": 0.676423155624,
			"-0.011": 0.93575203831,
			"-0.01": 1.25243094428,
			"-0.009": 1.4238614469,
			"-0.008": 1.59069137143,
			"-0.007": 5.51191507188,
			"-0.006": 15.3835392225,
			"-0.005": 17.4339807864,
			"-0.004": 17.9265572013,
			"-0.003": 18.4924045602,
			"-0.002": 23.9865159383,
			"-0.001": 23.8280650801,
			"0.0": 21.3730061491,
			"0.001": 27.8662723705,
			"0.002": 31.8246146145,
			"0.003": 24.1025370579,
			"0.004": 20.4867953189,
			"0.005": 10.2359141326,
			"0.006": 3.93204180746,
			"0.007": 2.80151498557,
			"0.008": 3.62332645352,
			"0.009": 2.86694113565,
			"0.01": 3.50913540842,
			"0.011": 2.8387931375,
			"0.012": 2.27826217018,
			"0.013": 4.49025584255,
			"0.014": 2.69243736009,
			"0.015": 0.0394872377877,
			"0.016": 0.0,
			"0.017": 0.0,
			"0.018": 0.0,
			"0.019": 0.0,
			"0.02": 0.0,
			"0.021": 0.0,
			"0.022": 0.0,
			"0.023": 0.0,
			"0.024": 0.0,
			"0.025": 0.0
		}
	}
}
