{
	 "smiles": "FC(F)(F)C1=C(C(Cl)=CC=C1)S(Cl)(=O)=O", 
	 "Tm": 310.15, 
	 "num_atms": 18, 
	 "gaussian": { 
		 "optdone": 1, 
		 "sigma_profile": "yes", 
		 "theory": "DFT", 
		 "functional": "B3LYP", 
		 "basiset": "6-31G**", 
		 "properties": { 
			 "R2extent": 3947.2016, 
			 "electric_dipole_moment_norm": 6.14287674465, 
			 "electric_quadrupole_moment_norm": 5.53075635063, 
			 "total_energy": -2036.99884185, 
			 "HOMO_LUMO_gap": 0.1886, 
			 "cosmo_polarized_energy": -10.32, 
			 "cosmo_cavitation_energy": 28.24, 
			 "cosmo_dispersion_energy": -20.99, 
			 "cosmo_repulsion_energy": 1.52, 
			 "cosmo_total_nonelectrostatic_energy": 8.77, 
			 "SMD_solvation_energy": 4.53 
		},
		"coords": [
			{
				"x": 1.6504306586,
				"y": 1.1156213364,
				"z": -1.7208514176,
				"element": "F" 
			},
			{
				"x": 0.8716770927,
				"y": 0.0236242868,
				"z": -1.730568286,
				"element": "C" 
			},
			{
				"x": 1.6359016671,
				"y": -1.0762511708,
				"z": -1.6591179314,
				"element": "F" 
			},
			{
				"x": 0.2740936126,
				"y": -0.0068359522,
				"z": -2.9464368443,
				"element": "F" 
			},
			{
				"x": -0.1843474142,
				"y": 0.0572255392,
				"z": -0.6224221082,
				"element": "C" 
			},
			{
				"x": 0.0744504238,
				"y": -0.0201435413,
				"z": 0.7705227161,
				"element": "C" 
			},
			{
				"x": -1.0142214752,
				"y": -0.0380781256,
				"z": 1.6680391256,
				"element": "C" 
			},
			{
				"x": -0.8540214561,
				"y": -0.22424668,
				"z": 3.3940719306,
				"element": "Cl" 
			},
			{
				"x": -2.3264983996,
				"y": 0.0645731553,
				"z": 1.1976303102,
				"element": "C" 
			},
			{
				"x": -2.5693640277,
				"y": 0.1762057474,
				"z": -0.1613798106,
				"element": "C" 
			},
			{
				"x": -1.5066277782,
				"y": 0.1630697588,
				"z": -1.0597634515,
				"element": "C" 
			},
			{
				"x": 1.768785253,
				"y": -0.0334877598,
				"z": 1.4603776701,
				"element": "S" 
			},
			{
				"x": 1.8960573677,
				"y": -2.0401780784,
				"z": 2.1431351916,
				"element": "Cl" 
			},
			{
				"x": 2.764000689,
				"y": 0.0911406598,
				"z": 0.4133718971,
				"element": "O" 
			},
			{
				"x": 1.7994969505,
				"y": 0.8375049473,
				"z": 2.6238136934,
				"element": "O" 
			},
			{
				"x": -3.1390580762,
				"y": 0.051492207,
				"z": 1.9146998851,
				"element": "H" 
			},
			{
				"x": -3.5876868527,
				"y": 0.2609571223,
				"z": -0.5263902394,
				"element": "H" 
			},
			{
				"x": -1.6982682351,
				"y": 0.2287065479,
				"z": -2.1216323308,
				"element": "H" 
			}
		],
		 "valence_orbital": [ 
			{
				"type": "occ",
				"energy": -0.33977,
				"method": "rhf"
			},
			{
				"type": "occ",
				"energy": -0.32541,
				"method": "rhf"
			},
			{
				"type": "occ",
				"energy": -0.31844,
				"method": "rhf"
			},
			{
				"type": "occ",
				"energy": -0.31054,
				"method": "rhf"
			},
			{
				"type": "occ",
				"energy": -0.28879,
				"method": "rhf"
			},
			{
				"type": "unocc",
				"energy": -0.10019,
				"method": "rhf"
			},
			{
				"type": "unocc",
				"energy": -0.07169,
				"method": "rhf"
			},
			{
				"type": "unocc",
				"energy": -0.06138,
				"method": "rhf"
			},
			{
				"type": "unocc",
				"energy": -0.00719,
				"method": "rhf"
			},
			{
				"type": "unocc",
				"energy": 0.0471,
				"method": "rhf"
			}
		],
		"cosmo_sigma_profile": { 
			"-0.025": 0.0,
			"-0.024": 0.0,
			"-0.023": 0.0,
			"-0.022": 0.0,
			"-0.021": 0.0,
			"-0.02": 0.0,
			"-0.019": 0.0,
			"-0.018": 0.0,
			"-0.017": 0.0,
			"-0.016": 0.0,
			"-0.015": 0.0,
			"-0.014": 0.0,
			"-0.013": 0.0,
			"-0.012": 0.0,
			"-0.011": 0.0,
			"-0.01": 0.341381342315,
			"-0.009": 5.53751308016,
			"-0.008": 7.63107459089,
			"-0.007": 5.73449211751,
			"-0.006": 5.60090855085,
			"-0.005": 7.82089142224,
			"-0.004": 9.98458286419,
			"-0.003": 17.2904032109,
			"-0.002": 22.0726317394,
			"-0.001": 19.1641891031,
			"0.0": 17.5276680905,
			"0.001": 18.496289301,
			"0.002": 36.4215392515,
			"0.003": 24.4796819083,
			"0.004": 5.9517722362,
			"0.005": 5.04238412454,
			"0.006": 5.41671329454,
			"0.007": 9.45788557691,
			"0.008": 8.06938784934,
			"0.009": 0.682075370693,
			"0.01": 0.0,
			"0.011": 0.0,
			"0.012": 0.0,
			"0.013": 0.0,
			"0.014": 0.0,
			"0.015": 0.0,
			"0.016": 0.0,
			"0.017": 0.0,
			"0.018": 0.0,
			"0.019": 0.0,
			"0.02": 0.0,
			"0.021": 0.0,
			"0.022": 0.0,
			"0.023": 0.0,
			"0.024": 0.0,
			"0.025": 0.0
		}
	}
}
