{
	 "smiles": "CCCCCCCCCC(=O)O[C@H]1CC[C@H]2[C@@H]3CCC4=CC(=O)CC[C@@H]4[C@H]3CC[C@]12C", 
	 "Tm": 391.15, 
	 "num_atms": 75, 
	 "gaussian": { 
		 "optdone": 1, 
		 "sigma_profile": "yes", 
		 "theory": "DFT", 
		 "functional": "B3LYP", 
		 "basiset": "6-31G**", 
		 "properties": { 
			 "R2extent": 18229.4666, 
			 "electric_dipole_moment_norm": 5.55782788596, 
			 "electric_quadrupole_moment_norm": 27.7984679626, 
			 "total_energy": -1319.2316347, 
			 "HOMO_LUMO_gap": 0.18681, 
			 "cosmo_polarized_energy": -15.23, 
			 "cosmo_cavitation_energy": 68.24, 
			 "cosmo_dispersion_energy": -42.5, 
			 "cosmo_repulsion_energy": 3.18, 
			 "cosmo_total_nonelectrostatic_energy": 28.92, 
			 "SMD_solvation_energy": 9.74 
		},
		"coords": [
			{
				"x": -3.0884306505,
				"y": 2.7299479096,
				"z": 1.7254919465,
				"element": "C" 
			},
			{
				"x": -3.8800824345,
				"y": 1.4190401401,
				"z": 1.6714607237,
				"element": "C" 
			},
			{
				"x": -4.8906935235,
				"y": 1.3771121904,
				"z": 0.5166708177,
				"element": "C" 
			},
			{
				"x": -5.7708923486,
				"y": 0.115687942,
				"z": 0.4767409359,
				"element": "C" 
			},
			{
				"x": -5.029317716,
				"y": -1.2160570288,
				"z": 0.2521897851,
				"element": "C" 
			},
			{
				"x": -4.2498223632,
				"y": -1.3400843435,
				"z": -1.0693271978,
				"element": "C" 
			},
			{
				"x": -5.1297841954,
				"y": -1.2458744567,
				"z": -2.3251327813,
				"element": "C" 
			},
			{
				"x": -4.4261756634,
				"y": -1.5869142402,
				"z": -3.6500575915,
				"element": "C" 
			},
			{
				"x": -3.2597219448,
				"y": -0.6595538237,
				"z": -4.0239258242,
				"element": "C" 
			},
			{
				"x": -1.9239952113,
				"y": -1.0661279845,
				"z": -3.4265056776,
				"element": "C" 
			},
			{
				"x": -1.6347789738,
				"y": -2.1831619991,
				"z": -3.0517236594,
				"element": "O" 
			},
			{
				"x": -1.0666798116,
				"y": -0.0163223387,
				"z": -3.421294414,
				"element": "O" 
			},
			{
				"x": 0.2993351662,
				"y": -0.2558803461,
				"z": -3.0117732634,
				"element": "C" 
			},
			{
				"x": 1.2515233653,
				"y": 0.5833858965,
				"z": -3.8988310625,
				"element": "C" 
			},
			{
				"x": 2.4311657455,
				"y": 1.0016432293,
				"z": -2.9722001363,
				"element": "C" 
			},
			{
				"x": 2.1634055089,
				"y": 0.2290389978,
				"z": -1.6635840492,
				"element": "C" 
			},
			{
				"x": 2.8439632544,
				"y": 0.6606699703,
				"z": -0.3598504625,
				"element": "C" 
			},
			{
				"x": 4.3714342547,
				"y": 0.7790920695,
				"z": -0.5011060269,
				"element": "C" 
			},
			{
				"x": 5.0513475418,
				"y": 1.1444260123,
				"z": 0.8379563426,
				"element": "C" 
			},
			{
				"x": 4.6183836737,
				"y": 0.1590930764,
				"z": 1.8880213945,
				"element": "C" 
			},
			{
				"x": 5.4798844909,
				"y": -0.6901429506,
				"z": 2.4848341995,
				"element": "C" 
			},
			{
				"x": 5.0558737742,
				"y": -1.8054335944,
				"z": 3.3526534604,
				"element": "C" 
			},
			{
				"x": 5.8660822076,
				"y": -2.5356299784,
				"z": 3.9073534105,
				"element": "O" 
			},
			{
				"x": 3.5531198918,
				"y": -2.0376772892,
				"z": 3.4543625933,
				"element": "C" 
			},
			{
				"x": 2.7722881032,
				"y": -0.7214629511,
				"z": 3.3671546715,
				"element": "C" 
			},
			{
				"x": 3.119462168,
				"y": 0.0999596569,
				"z": 2.1100605583,
				"element": "C" 
			},
			{
				"x": 2.4493244714,
				"y": -0.3396183455,
				"z": 0.7684597124,
				"element": "C" 
			},
			{
				"x": 0.918075746,
				"y": -0.5024713587,
				"z": 0.8786264369,
				"element": "C" 
			},
			{
				"x": 0.236692982,
				"y": -0.8352200026,
				"z": -0.465537409,
				"element": "C" 
			},
			{
				"x": 0.6149636557,
				"y": 0.1766138989,
				"z": -1.5598931878,
				"element": "C" 
			},
			{
				"x": -0.0288350348,
				"y": 1.5509277441,
				"z": -1.2768639093,
				"element": "C" 
			},
			{
				"x": -3.7553793455,
				"y": 3.5912728868,
				"z": 1.8469139102,
				"element": "H" 
			},
			{
				"x": -2.3807967726,
				"y": 2.7379029335,
				"z": 2.5613342324,
				"element": "H" 
			},
			{
				"x": -2.5158494599,
				"y": 2.8852781622,
				"z": 0.8036067769,
				"element": "H" 
			},
			{
				"x": -3.1796715249,
				"y": 0.5784546071,
				"z": 1.5863623313,
				"element": "H" 
			},
			{
				"x": -4.4134747018,
				"y": 1.2736931871,
				"z": 2.6211289475,
				"element": "H" 
			},
			{
				"x": -4.354895081,
				"y": 1.4923484922,
				"z": -0.435948785,
				"element": "H" 
			},
			{
				"x": -5.547314392,
				"y": 2.254681289,
				"z": 0.5938490362,
				"element": "H" 
			},
			{
				"x": -6.532302658,
				"y": 0.2430446739,
				"z": -0.3031452771,
				"element": "H" 
			},
			{
				"x": -6.3251785534,
				"y": 0.045218112,
				"z": 1.4227494068,
				"element": "H" 
			},
			{
				"x": -5.7654347977,
				"y": -2.0302472919,
				"z": 0.300919181,
				"element": "H" 
			},
			{
				"x": -4.3374826351,
				"y": -1.3927298638,
				"z": 1.0853896344,
				"element": "H" 
			},
			{
				"x": -3.4665491623,
				"y": -0.5709233985,
				"z": -1.10631981,
				"element": "H" 
			},
			{
				"x": -3.7205277146,
				"y": -2.3004573181,
				"z": -1.0767007495,
				"element": "H" 
			},
			{
				"x": -5.5599962947,
				"y": -0.2379191066,
				"z": -2.4034751491,
				"element": "H" 
			},
			{
				"x": -5.9830870684,
				"y": -1.9283458727,
				"z": -2.2083040081,
				"element": "H" 
			},
			{
				"x": -4.0504084831,
				"y": -2.615648204,
				"z": -3.6202567773,
				"element": "H" 
			},
			{
				"x": -5.1704643384,
				"y": -1.5447623864,
				"z": -4.4537288461,
				"element": "H" 
			},
			{
				"x": -3.1064717961,
				"y": -0.6698015198,
				"z": -5.1117724803,
				"element": "H" 
			},
			{
				"x": -3.463091094,
				"y": 0.3850007372,
				"z": -3.7640476703,
				"element": "H" 
			},
			{
				"x": 0.4921074125,
				"y": -1.3262603228,
				"z": -3.1175168798,
				"element": "H" 
			},
			{
				"x": 0.7117815974,
				"y": 1.4523792822,
				"z": -4.285601758,
				"element": "H" 
			},
			{
				"x": 1.5879807656,
				"y": 0.0068531375,
				"z": -4.7651497873,
				"element": "H" 
			},
			{
				"x": 3.4042562738,
				"y": 0.7550288385,
				"z": -3.4058806568,
				"element": "H" 
			},
			{
				"x": 2.4270166172,
				"y": 2.0835052777,
				"z": -2.7978872312,
				"element": "H" 
			},
			{
				"x": 2.48602521,
				"y": -0.8097808855,
				"z": -1.8467577623,
				"element": "H" 
			},
			{
				"x": 2.4643062755,
				"y": 1.6543153513,
				"z": -0.0748299529,
				"element": "H" 
			},
			{
				"x": 4.7799696445,
				"y": -0.1768518705,
				"z": -0.8564099983,
				"element": "H" 
			},
			{
				"x": 4.623110071,
				"y": 1.5318526416,
				"z": -1.2568246696,
				"element": "H" 
			},
			{
				"x": 6.1404839996,
				"y": 1.1501637486,
				"z": 0.7282842047,
				"element": "H" 
			},
			{
				"x": 4.7432655167,
				"y": 2.1593880844,
				"z": 1.1278133151,
				"element": "H" 
			},
			{
				"x": 6.5502153073,
				"y": -0.6190382643,
				"z": 2.3036200155,
				"element": "H" 
			},
			{
				"x": 3.2712684498,
				"y": -2.7092814484,
				"z": 2.63042108,
				"element": "H" 
			},
			{
				"x": 3.349006037,
				"y": -2.5764753464,
				"z": 4.3838367723,
				"element": "H" 
			},
			{
				"x": 3.0267252718,
				"y": -0.1110610976,
				"z": 4.2428149461,
				"element": "H" 
			},
			{
				"x": 1.6962336723,
				"y": -0.9060467566,
				"z": 3.4290795851,
				"element": "H" 
			},
			{
				"x": 2.7758472441,
				"y": 1.1311425028,
				"z": 2.2888914449,
				"element": "H" 
			},
			{
				"x": 2.8686570524,
				"y": -1.3186762994,
				"z": 0.4875319058,
				"element": "H" 
			},
			{
				"x": 0.4879546333,
				"y": 0.4151296884,
				"z": 1.3022921953,
				"element": "H" 
			},
			{
				"x": 0.6820079388,
				"y": -1.3006822229,
				"z": 1.5900311564,
				"element": "H" 
			},
			{
				"x": 0.5425051581,
				"y": -1.8389718298,
				"z": -0.7877387781,
				"element": "H" 
			},
			{
				"x": -0.8499495118,
				"y": -0.8779010181,
				"z": -0.3264944783,
				"element": "H" 
			},
			{
				"x": -1.1183753439,
				"y": 1.4611344492,
				"z": -1.3104964361,
				"element": "H" 
			},
			{
				"x": 0.2550913346,
				"y": 2.3065002019,
				"z": -2.0145817966,
				"element": "H" 
			},
			{
				"x": 0.2419691161,
				"y": 1.937368337,
				"z": -0.2918306759,
				"element": "H" 
			}
		],
		 "valence_orbital": [ 
			{
				"type": "occ",
				"energy": -0.28977,
				"method": "rhf"
			},
			{
				"type": "occ",
				"energy": -0.27983,
				"method": "rhf"
			},
			{
				"type": "occ",
				"energy": -0.27008,
				"method": "rhf"
			},
			{
				"type": "occ",
				"energy": -0.25149,
				"method": "rhf"
			},
			{
				"type": "occ",
				"energy": -0.22871,
				"method": "rhf"
			},
			{
				"type": "unocc",
				"energy": -0.0419,
				"method": "rhf"
			},
			{
				"type": "unocc",
				"energy": 0.01147,
				"method": "rhf"
			},
			{
				"type": "unocc",
				"energy": 0.04565,
				"method": "rhf"
			},
			{
				"type": "unocc",
				"energy": 0.06173,
				"method": "rhf"
			},
			{
				"type": "unocc",
				"energy": 0.07386,
				"method": "rhf"
			}
		],
		"cosmo_sigma_profile": { 
			"-0.025": 0.0,
			"-0.024": 0.0,
			"-0.023": 0.0,
			"-0.022": 0.0,
			"-0.021": 0.0,
			"-0.02": 0.0,
			"-0.019": 0.0,
			"-0.018": 0.0,
			"-0.017": 0.0,
			"-0.016": 0.0,
			"-0.015": 0.0,
			"-0.014": 0.0,
			"-0.013": 0.0,
			"-0.012": 0.0,
			"-0.011": 0.0,
			"-0.01": 0.0,
			"-0.009": 0.0,
			"-0.008": 0.0,
			"-0.007": 0.134458279422,
			"-0.006": 2.25423207711,
			"-0.005": 5.7055220052,
			"-0.004": 26.8551612198,
			"-0.003": 58.5749814278,
			"-0.002": 90.0194622704,
			"-0.001": 105.286075627,
			"0.0": 84.3673290986,
			"0.001": 59.9729693185,
			"0.002": 26.4562345651,
			"0.003": 10.1142938555,
			"0.004": 7.58697653016,
			"0.005": 5.3522548933,
			"0.006": 5.51783255671,
			"0.007": 4.57408909403,
			"0.008": 3.95583216602,
			"0.009": 3.56500007008,
			"0.01": 3.46005709496,
			"0.011": 4.43984160858,
			"0.012": 5.83600194406,
			"0.013": 5.75447680702,
			"0.014": 3.46063439626,
			"0.015": 0.475290220676,
			"0.016": 0.0,
			"0.017": 0.0,
			"0.018": 0.0,
			"0.019": 0.0,
			"0.02": 0.0,
			"0.021": 0.0,
			"0.022": 0.0,
			"0.023": 0.0,
			"0.024": 0.0,
			"0.025": 0.0
		}
	}
}
