{
	 "smiles": "CC12CC3CC(Br)(C1)CC(C3)(C2)C(O)=O", 
	 "Tm": 392.15, 
	 "num_atms": 32, 
	 "gaussian": { 
		 "optdone": 1, 
		 "sigma_profile": "yes", 
		 "theory": "DFT", 
		 "functional": "B3LYP", 
		 "basiset": "6-31G**", 
		 "properties": { 
			 "R2extent": 5363.8225, 
			 "electric_dipole_moment_norm": 3.76096492406, 
			 "electric_quadrupole_moment_norm": 16.5317423041, 
			 "total_energy": -3189.42521957, 
			 "HOMO_LUMO_gap": 0.25074, 
			 "cosmo_polarized_energy": -14.95, 
			 "cosmo_cavitation_energy": 32.07, 
			 "cosmo_dispersion_energy": -23.52, 
			 "cosmo_repulsion_energy": 1.78, 
			 "cosmo_total_nonelectrostatic_energy": 10.33, 
			 "SMD_solvation_energy": 4.21 
		},
		"coords": [
			{
				"x": -3.3882349393,
				"y": 0.169569445,
				"z": -0.9355813421,
				"element": "C" 
			},
			{
				"x": -1.8614343256,
				"y": 0.0648936969,
				"z": -1.0263239568,
				"element": "C" 
			},
			{
				"x": -1.1935528506,
				"y": 1.3995207207,
				"z": -0.6215191714,
				"element": "C" 
			},
			{
				"x": 0.3391387609,
				"y": 1.2838865075,
				"z": -0.7198775049,
				"element": "C" 
			},
			{
				"x": 0.741140005,
				"y": 0.9452233549,
				"z": -2.1745258999,
				"element": "C" 
			},
			{
				"x": 0.0861662707,
				"y": -0.3858103937,
				"z": -2.558166649,
				"element": "C" 
			},
			{
				"x": 0.6095929871,
				"y": -0.8379027693,
				"z": -4.4489381495,
				"element": "Br" 
			},
			{
				"x": -1.4391228748,
				"y": -0.275325528,
				"z": -2.4815575727,
				"element": "C" 
			},
			{
				"x": 0.5888705799,
				"y": -1.512090113,
				"z": -1.6469962239,
				"element": "C" 
			},
			{
				"x": 0.1931362251,
				"y": -1.1820885456,
				"z": -0.1753888856,
				"element": "C" 
			},
			{
				"x": 0.8394184968,
				"y": 0.1730872265,
				"z": 0.2239598559,
				"element": "C" 
			},
			{
				"x": -1.3422873234,
				"y": -1.0498495028,
				"z": -0.0906695795,
				"element": "C" 
			},
			{
				"x": 0.6602318431,
				"y": -2.3032102991,
				"z": 0.7640109849,
				"element": "C" 
			},
			{
				"x": 1.9984877423,
				"y": -2.5509246831,
				"z": 0.7892238532,
				"element": "O" 
			},
			{
				"x": -0.0763033941,
				"y": -2.952927604,
				"z": 1.464271864,
				"element": "O" 
			},
			{
				"x": -3.8669452717,
				"y": -0.7733242886,
				"z": -1.2224768598,
				"element": "H" 
			},
			{
				"x": -3.7699895039,
				"y": 0.955556599,
				"z": -1.5970183637,
				"element": "H" 
			},
			{
				"x": -3.7043371182,
				"y": 0.4075146365,
				"z": 0.0862217306,
				"element": "H" 
			},
			{
				"x": -1.4865024517,
				"y": 1.6628557491,
				"z": 0.4030573932,
				"element": "H" 
			},
			{
				"x": -1.5511715628,
				"y": 2.2080946088,
				"z": -1.2723041131,
				"element": "H" 
			},
			{
				"x": 0.8035012684,
				"y": 2.2356603439,
				"z": -0.4351782924,
				"element": "H" 
			},
			{
				"x": 1.830310255,
				"y": 0.8706634462,
				"z": -2.2680167299,
				"element": "H" 
			},
			{
				"x": 0.4097000241,
				"y": 1.7347910814,
				"z": -2.8568524622,
				"element": "H" 
			},
			{
				"x": -1.8995280815,
				"y": -1.218907669,
				"z": -2.7953600307,
				"element": "H" 
			},
			{
				"x": -1.7909350927,
				"y": 0.5022133307,
				"z": -3.1688506333,
				"element": "H" 
			},
			{
				"x": 1.6754983426,
				"y": -1.6082161021,
				"z": -1.7583013471,
				"element": "H" 
			},
			{
				"x": 0.149528231,
				"y": -2.4684812225,
				"z": -1.9483608659,
				"element": "H" 
			},
			{
				"x": 0.5831066286,
				"y": 0.4104015288,
				"z": 1.2633145006,
				"element": "H" 
			},
			{
				"x": 1.9354469103,
				"y": 0.1155866656,
				"z": 0.1743684569,
				"element": "H" 
			},
			{
				"x": -1.8041413293,
				"y": -2.009385216,
				"z": -0.3484147457,
				"element": "H" 
			},
			{
				"x": -1.6310345941,
				"y": -0.8404338155,
				"z": 0.9450339139,
				"element": "H" 
			},
			{
				"x": 2.4651461427,
				"y": -1.9611411891,
				"z": 0.1807168256,
				"element": "H" 
			}
		],
		 "valence_orbital": [ 
			{
				"type": "occ",
				"energy": -0.30757,
				"method": "rhf"
			},
			{
				"type": "occ",
				"energy": -0.30232,
				"method": "rhf"
			},
			{
				"type": "occ",
				"energy": -0.27709,
				"method": "rhf"
			},
			{
				"type": "occ",
				"energy": -0.27249,
				"method": "rhf"
			},
			{
				"type": "occ",
				"energy": -0.26512,
				"method": "rhf"
			},
			{
				"type": "unocc",
				"energy": -0.01438,
				"method": "rhf"
			},
			{
				"type": "unocc",
				"energy": 0.00876,
				"method": "rhf"
			},
			{
				"type": "unocc",
				"energy": 0.03804,
				"method": "rhf"
			},
			{
				"type": "unocc",
				"energy": 0.07244,
				"method": "rhf"
			},
			{
				"type": "unocc",
				"energy": 0.09697,
				"method": "rhf"
			}
		],
		"cosmo_sigma_profile": { 
			"-0.025": 0.0,
			"-0.024": 0.0,
			"-0.023": 0.0,
			"-0.022": 0.0,
			"-0.021": 0.0,
			"-0.02": 0.0,
			"-0.019": 0.0,
			"-0.018": 0.281508497755,
			"-0.017": 0.890808627636,
			"-0.016": 1.19343589477,
			"-0.015": 1.13402452853,
			"-0.014": 1.35079299106,
			"-0.013": 0.591657914566,
			"-0.012": 0.683927852834,
			"-0.011": 1.54251599486,
			"-0.01": 0.873132087213,
			"-0.009": 1.19108754739,
			"-0.008": 1.4251291902,
			"-0.007": 1.52958845305,
			"-0.006": 2.49416085255,
			"-0.005": 8.25820590886,
			"-0.004": 19.6470594149,
			"-0.003": 39.7976480587,
			"-0.002": 34.1334248501,
			"-0.001": 23.440306197,
			"0.0": 19.53323875,
			"0.001": 16.968970101,
			"0.002": 7.34753073862,
			"0.003": 7.67167214184,
			"0.004": 7.15919178254,
			"0.005": 7.79638818621,
			"0.006": 11.9557376,
			"0.007": 7.97455317528,
			"0.008": 3.29633767622,
			"0.009": 2.87021893758,
			"0.01": 4.91641492911,
			"0.011": 5.1328370638,
			"0.012": 5.36553810243,
			"0.013": 1.7468399316,
			"0.014": 0.0513345246941,
			"0.015": 0.0,
			"0.016": 0.0,
			"0.017": 0.0,
			"0.018": 0.0,
			"0.019": 0.0,
			"0.02": 0.0,
			"0.021": 0.0,
			"0.022": 0.0,
			"0.023": 0.0,
			"0.024": 0.0,
			"0.025": 0.0
		}
	}
}
