{
	 "smiles": "CC1=CC=C(F)C=C1", 
	 "Tm": 217.15, 
	 "num_atms": 15, 
	 "gaussian": { 
		 "optdone": 1, 
		 "sigma_profile": "yes", 
		 "theory": "DFT", 
		 "functional": "B3LYP", 
		 "basiset": "6-31G**", 
		 "properties": { 
			 "R2extent": 1405.0087, 
			 "electric_dipole_moment_norm": 1.70118757637, 
			 "electric_quadrupole_moment_norm": 6.5142311181, 
			 "total_energy": -370.80398027, 
			 "HOMO_LUMO_gap": 0.22558, 
			 "cosmo_polarized_energy": -3.25, 
			 "cosmo_cavitation_energy": 18.99, 
			 "cosmo_dispersion_energy": -14.01, 
			 "cosmo_repulsion_energy": 1.14, 
			 "cosmo_total_nonelectrostatic_energy": 6.12, 
			 "SMD_solvation_energy": 3.93 
		},
		"coords": [
			{
				"x": -1.2068916785,
				"y": -0.7365837752,
				"z": 1.2245292497,
				"element": "C" 
			},
			{
				"x": -0.7795403649,
				"y": 0.1306916953,
				"z": 0.0630844675,
				"element": "C" 
			},
			{
				"x": 0.4882548747,
				"y": 0.7281565314,
				"z": 0.0370658628,
				"element": "C" 
			},
			{
				"x": 0.8824545915,
				"y": 1.5544048485,
				"z": -1.0157801484,
				"element": "C" 
			},
			{
				"x": -0.0107806359,
				"y": 1.7800745438,
				"z": -2.0560983502,
				"element": "C" 
			},
			{
				"x": 0.362503702,
				"y": 2.5749795817,
				"z": -3.0831094689,
				"element": "F" 
			},
			{
				"x": -1.2751073945,
				"y": 1.2036324834,
				"z": -2.0714836426,
				"element": "C" 
			},
			{
				"x": -1.6481785228,
				"y": 0.3808365171,
				"z": -1.0082897837,
				"element": "C" 
			},
			{
				"x": -1.9248958097,
				"y": -1.5002559156,
				"z": 0.9105904395,
				"element": "H" 
			},
			{
				"x": -1.6882726553,
				"y": -0.1421827588,
				"z": 2.0114265155,
				"element": "H" 
			},
			{
				"x": -0.3517503651,
				"y": -1.2449603126,
				"z": 1.6801254411,
				"element": "H" 
			},
			{
				"x": 1.1828280755,
				"y": 0.5442835393,
				"z": 0.8529236888,
				"element": "H" 
			},
			{
				"x": 1.8637026837,
				"y": 2.0161399734,
				"z": -1.0413938445,
				"element": "H" 
			},
			{
				"x": -1.9430093532,
				"y": 1.3972603087,
				"z": -2.9040172792,
				"element": "H" 
			},
			{
				"x": -2.6345171474,
				"y": -0.0762772603,
				"z": -1.0148731474,
				"element": "H" 
			}
		],
		 "valence_orbital": [ 
			{
				"type": "occ",
				"energy": -0.3612,
				"method": "rhf"
			},
			{
				"type": "occ",
				"energy": -0.34486,
				"method": "rhf"
			},
			{
				"type": "occ",
				"energy": -0.33821,
				"method": "rhf"
			},
			{
				"type": "occ",
				"energy": -0.25613,
				"method": "rhf"
			},
			{
				"type": "occ",
				"energy": -0.23317,
				"method": "rhf"
			},
			{
				"type": "unocc",
				"energy": -0.00759,
				"method": "rhf"
			},
			{
				"type": "unocc",
				"energy": 0.00618,
				"method": "rhf"
			},
			{
				"type": "unocc",
				"energy": 0.08763,
				"method": "rhf"
			},
			{
				"type": "unocc",
				"energy": 0.11946,
				"method": "rhf"
			},
			{
				"type": "unocc",
				"energy": 0.13221,
				"method": "rhf"
			}
		],
		"cosmo_sigma_profile": { 
			"-0.025": 0.0,
			"-0.024": 0.0,
			"-0.023": 0.0,
			"-0.022": 0.0,
			"-0.021": 0.0,
			"-0.02": 0.0,
			"-0.019": 0.0,
			"-0.018": 0.0,
			"-0.017": 0.0,
			"-0.016": 0.0,
			"-0.015": 0.0,
			"-0.014": 0.0,
			"-0.013": 0.0,
			"-0.012": 0.0,
			"-0.011": 0.0,
			"-0.01": 0.0,
			"-0.009": 0.0,
			"-0.008": 0.0,
			"-0.007": 1.77733383863,
			"-0.006": 5.69640742721,
			"-0.005": 8.23769024385,
			"-0.004": 15.30660461,
			"-0.003": 12.4945534064,
			"-0.002": 11.549918093,
			"-0.001": 12.609214381,
			"0.0": 14.1512025728,
			"0.001": 12.5379377233,
			"0.002": 12.6234555346,
			"0.003": 11.273297454,
			"0.004": 16.2619137026,
			"0.005": 16.2845879177,
			"0.006": 0.564075299037,
			"0.007": 0.0,
			"0.008": 0.0,
			"0.009": 0.0,
			"0.01": 0.0,
			"0.011": 0.0,
			"0.012": 0.0,
			"0.013": 0.0,
			"0.014": 0.0,
			"0.015": 0.0,
			"0.016": 0.0,
			"0.017": 0.0,
			"0.018": 0.0,
			"0.019": 0.0,
			"0.02": 0.0,
			"0.021": 0.0,
			"0.022": 0.0,
			"0.023": 0.0,
			"0.024": 0.0,
			"0.025": 0.0
		}
	}
}
