{
	 "smiles": "CC(C)CN1C(=O)N2CCC3=C(C=CC=C3)C2(C1=O)C1=CC=C(Cl)C=C1", 
	 "Tm": 393.15, 
	 "num_atms": 47, 
	 "gaussian": { 
		 "optdone": 1, 
		 "sigma_profile": "yes", 
		 "theory": "DFT", 
		 "functional": "B3LYP", 
		 "basiset": "6-31G**", 
		 "properties": { 
			 "R2extent": 11024.9411, 
			 "electric_dipole_moment_norm": 2.72094877754, 
			 "electric_quadrupole_moment_norm": 19.7313771374, 
			 "total_energy": -1533.10082489, 
			 "HOMO_LUMO_gap": 0.21466, 
			 "cosmo_polarized_energy": -13.85, 
			 "cosmo_cavitation_energy": 49.93, 
			 "cosmo_dispersion_energy": -32.91, 
			 "cosmo_repulsion_energy": 2.5, 
			 "cosmo_total_nonelectrostatic_energy": 19.52, 
			 "SMD_solvation_energy": 8.32 
		},
		"coords": [
			{
				"x": 2.138759092,
				"y": 2.1135964832,
				"z": 2.7769035821,
				"element": "C" 
			},
			{
				"x": 2.97171364,
				"y": 0.8830167204,
				"z": 2.3954945992,
				"element": "C" 
			},
			{
				"x": 4.410621937,
				"y": 0.9973766254,
				"z": 2.918641976,
				"element": "C" 
			},
			{
				"x": 3.0065706804,
				"y": 0.6527464712,
				"z": 0.8726187863,
				"element": "C" 
			},
			{
				"x": 1.6928345503,
				"y": 0.4157357746,
				"z": 0.2791181178,
				"element": "N" 
			},
			{
				"x": 1.0237257359,
				"y": -0.8239469359,
				"z": 0.3677613104,
				"element": "C" 
			},
			{
				"x": 1.4173806527,
				"y": -1.7915975001,
				"z": 0.9934672145,
				"element": "O" 
			},
			{
				"x": -0.1161481273,
				"y": -0.7199529251,
				"z": -0.3945498936,
				"element": "N" 
			},
			{
				"x": -1.2542961677,
				"y": -1.6028558672,
				"z": -0.1994175417,
				"element": "C" 
			},
			{
				"x": -2.1795092882,
				"y": -1.0201885031,
				"z": 0.8737140311,
				"element": "C" 
			},
			{
				"x": -2.3900028443,
				"y": 0.4759155407,
				"z": 0.7131410327,
				"element": "C" 
			},
			{
				"x": -1.5268201855,
				"y": 1.2789528994,
				"z": -0.0564933171,
				"element": "C" 
			},
			{
				"x": -1.7357638517,
				"y": 2.6656190802,
				"z": -0.1215982791,
				"element": "C" 
			},
			{
				"x": -2.7934825446,
				"y": 3.2590497785,
				"z": 0.5615064246,
				"element": "C" 
			},
			{
				"x": -3.6619117733,
				"y": 2.4665790862,
				"z": 1.3160386192,
				"element": "C" 
			},
			{
				"x": -3.4550298474,
				"y": 1.0921720858,
				"z": 1.3869577987,
				"element": "C" 
			},
			{
				"x": -0.3628562258,
				"y": 0.6559777156,
				"z": -0.8403928334,
				"element": "C" 
			},
			{
				"x": 0.9696844541,
				"y": 1.3466174427,
				"z": -0.4326053072,
				"element": "C" 
			},
			{
				"x": 1.3113812892,
				"y": 2.4830076766,
				"z": -0.6941353618,
				"element": "O" 
			},
			{
				"x": -0.5427994759,
				"y": 0.6923407598,
				"z": -2.3683905114,
				"element": "C" 
			},
			{
				"x": 0.5046002656,
				"y": 0.2304475718,
				"z": -3.1797017259,
				"element": "C" 
			},
			{
				"x": 0.3885518202,
				"y": 0.205154087,
				"z": -4.5656510963,
				"element": "C" 
			},
			{
				"x": -0.7994745201,
				"y": 0.6418166283,
				"z": -5.1546786783,
				"element": "C" 
			},
			{
				"x": -0.9585702731,
				"y": 0.6122619691,
				"z": -6.9042831608,
				"element": "Cl" 
			},
			{
				"x": -1.8575695754,
				"y": 1.097001817,
				"z": -4.3745565862,
				"element": "C" 
			},
			{
				"x": -1.7220535874,
				"y": 1.1197569154,
				"z": -2.9839050502,
				"element": "C" 
			},
			{
				"x": 2.5568317507,
				"y": 3.0256233037,
				"z": 2.3356244568,
				"element": "H" 
			},
			{
				"x": 1.1024727639,
				"y": 2.0263115461,
				"z": 2.4367671679,
				"element": "H" 
			},
			{
				"x": 2.1197230902,
				"y": 2.2430959771,
				"z": 3.8641209031,
				"element": "H" 
			},
			{
				"x": 2.5125359884,
				"y": -0.0079659222,
				"z": 2.8421398112,
				"element": "H" 
			},
			{
				"x": 4.9212506253,
				"y": 1.8650653663,
				"z": 2.483162422,
				"element": "H" 
			},
			{
				"x": 4.4197927033,
				"y": 1.120614619,
				"z": 4.0061612467,
				"element": "H" 
			},
			{
				"x": 4.9992327969,
				"y": 0.1051485635,
				"z": 2.6788093248,
				"element": "H" 
			},
			{
				"x": 3.4202770895,
				"y": 1.5264730216,
				"z": 0.3599037406,
				"element": "H" 
			},
			{
				"x": 3.6287300961,
				"y": -0.21789146,
				"z": 0.6450905044,
				"element": "H" 
			},
			{
				"x": -0.8720788108,
				"y": -2.5836965933,
				"z": 0.0881021144,
				"element": "H" 
			},
			{
				"x": -1.7741427416,
				"y": -1.7015572661,
				"z": -1.1584854716,
				"element": "H" 
			},
			{
				"x": -3.1453579603,
				"y": -1.5385200521,
				"z": 0.8635307539,
				"element": "H" 
			},
			{
				"x": -1.7350077114,
				"y": -1.2127012849,
				"z": 1.859524176,
				"element": "H" 
			},
			{
				"x": -1.0482529902,
				"y": 3.2725525666,
				"z": -0.7012500902,
				"element": "H" 
			},
			{
				"x": -2.937921183,
				"y": 4.333854719,
				"z": 0.5058115013,
				"element": "H" 
			},
			{
				"x": -4.4946820605,
				"y": 2.9180684636,
				"z": 1.8474967282,
				"element": "H" 
			},
			{
				"x": -4.1269824181,
				"y": 0.4752812374,
				"z": 1.9790184685,
				"element": "H" 
			},
			{
				"x": 1.4259051605,
				"y": -0.1219053763,
				"z": -2.7252602204,
				"element": "H" 
			},
			{
				"x": 1.2058834373,
				"y": -0.1484371504,
				"z": -5.1841883639,
				"element": "H" 
			},
			{
				"x": -2.777070722,
				"y": 1.4295010338,
				"z": -4.8433335755,
				"element": "H" 
			},
			{
				"x": -2.5493747339,
				"y": 1.4793832899,
				"z": -2.3834497478,
				"element": "H" 
			}
		],
		 "valence_orbital": [ 
			{
				"type": "occ",
				"energy": -0.26872,
				"method": "rhf"
			},
			{
				"type": "occ",
				"energy": -0.2596,
				"method": "rhf"
			},
			{
				"type": "occ",
				"energy": -0.2529,
				"method": "rhf"
			},
			{
				"type": "occ",
				"energy": -0.25042,
				"method": "rhf"
			},
			{
				"type": "occ",
				"energy": -0.24305,
				"method": "rhf"
			},
			{
				"type": "unocc",
				"energy": -0.02839,
				"method": "rhf"
			},
			{
				"type": "unocc",
				"energy": -0.02618,
				"method": "rhf"
			},
			{
				"type": "unocc",
				"energy": -0.01742,
				"method": "rhf"
			},
			{
				"type": "unocc",
				"energy": -0.00881,
				"method": "rhf"
			},
			{
				"type": "unocc",
				"energy": -0.00108,
				"method": "rhf"
			}
		],
		"cosmo_sigma_profile": { 
			"-0.025": 0.0,
			"-0.024": 0.0,
			"-0.023": 0.0,
			"-0.022": 0.0,
			"-0.021": 0.0,
			"-0.02": 0.0,
			"-0.019": 0.0,
			"-0.018": 0.0,
			"-0.017": 0.0,
			"-0.016": 0.0,
			"-0.015": 0.0,
			"-0.014": 0.0,
			"-0.013": 0.0,
			"-0.012": 0.0,
			"-0.011": 0.0,
			"-0.01": 0.0,
			"-0.009": 0.0,
			"-0.008": 1.25854495636,
			"-0.007": 6.21754363914,
			"-0.006": 12.5680183103,
			"-0.005": 28.8326886901,
			"-0.004": 34.8941887043,
			"-0.003": 41.648983481,
			"-0.002": 40.3486063231,
			"-0.001": 35.5187292896,
			"0.0": 32.267349765,
			"0.001": 35.6974262337,
			"0.002": 29.6928089941,
			"0.003": 28.3841792484,
			"0.004": 23.0351084609,
			"0.005": 15.4564475714,
			"0.006": 4.59042005258,
			"0.007": 2.82297012462,
			"0.008": 3.35548359325,
			"0.009": 2.9068084761,
			"0.01": 3.38437056794,
			"0.011": 5.16484610114,
			"0.012": 6.50478077184,
			"0.013": 2.7671864953,
			"0.014": 0.0,
			"0.015": 0.0,
			"0.016": 0.0,
			"0.017": 0.0,
			"0.018": 0.0,
			"0.019": 0.0,
			"0.02": 0.0,
			"0.021": 0.0,
			"0.022": 0.0,
			"0.023": 0.0,
			"0.024": 0.0,
			"0.025": 0.0
		}
	}
}
