{
	 "smiles": "CCCC(=O)OC(=O)CCC", 
	 "Tm": 200.15, 
	 "num_atms": 25, 
	 "gaussian": { 
		 "optdone": 1, 
		 "sigma_profile": "yes", 
		 "theory": "DFT", 
		 "functional": "B3LYP", 
		 "basiset": "6-31G**", 
		 "properties": { 
			 "R2extent": 3417.1386, 
			 "electric_dipole_moment_norm": 3.37398500589, 
			 "electric_quadrupole_moment_norm": 11.3101648777, 
			 "total_energy": -538.994945287, 
			 "HOMO_LUMO_gap": 0.24507, 
			 "cosmo_polarized_energy": -9.91, 
			 "cosmo_cavitation_energy": 28.61, 
			 "cosmo_dispersion_energy": -20.36, 
			 "cosmo_repulsion_energy": 1.72, 
			 "cosmo_total_nonelectrostatic_energy": 9.96, 
			 "SMD_solvation_energy": 6.4 
		},
		"coords": [
			{
				"x": -1.0163445781,
				"y": -3.4195728656,
				"z": -3.2192421696,
				"element": "C" 
			},
			{
				"x": -1.5857634686,
				"y": -3.2907633245,
				"z": -1.802434565,
				"element": "C" 
			},
			{
				"x": -1.2119570802,
				"y": -1.9757937544,
				"z": -1.1103128964,
				"element": "C" 
			},
			{
				"x": 0.2499267861,
				"y": -1.8831157611,
				"z": -0.7350109579,
				"element": "C" 
			},
			{
				"x": 1.0581862168,
				"y": -2.7701287297,
				"z": -0.7520557827,
				"element": "O" 
			},
			{
				"x": 0.5666681175,
				"y": -0.5696440771,
				"z": -0.3850469122,
				"element": "O" 
			},
			{
				"x": 1.6054727913,
				"y": -0.2944412059,
				"z": 0.5054386933,
				"element": "C" 
			},
			{
				"x": 1.9401959537,
				"y": -1.0497970227,
				"z": 1.3759604708,
				"element": "O" 
			},
			{
				"x": 2.1781658339,
				"y": 1.0753244089,
				"z": 0.2184412876,
				"element": "C" 
			},
			{
				"x": 3.0983570622,
				"y": 1.5999001747,
				"z": 1.3257251068,
				"element": "C" 
			},
			{
				"x": 2.3557552562,
				"y": 1.9678542769,
				"z": 2.6146240635,
				"element": "C" 
			},
			{
				"x": 0.0769502915,
				"y": -3.3972114704,
				"z": -3.2059454752,
				"element": "H" 
			},
			{
				"x": -1.3676940246,
				"y": -2.6053893424,
				"z": -3.8640339596,
				"element": "H" 
			},
			{
				"x": -1.3248837515,
				"y": -4.3634394382,
				"z": -3.6793767287,
				"element": "H" 
			},
			{
				"x": -1.2342766343,
				"y": -4.1251776587,
				"z": -1.1863145388,
				"element": "H" 
			},
			{
				"x": -2.6793375496,
				"y": -3.3595397155,
				"z": -1.835828771,
				"element": "H" 
			},
			{
				"x": -1.7761687283,
				"y": -1.8472084358,
				"z": -0.176273693,
				"element": "H" 
			},
			{
				"x": -1.4639410724,
				"y": -1.1050770713,
				"z": -1.7276927236,
				"element": "H" 
			},
			{
				"x": 1.3455327215,
				"y": 1.7615850102,
				"z": 0.0221431943,
				"element": "H" 
			},
			{
				"x": 2.7179556391,
				"y": 0.9875370929,
				"z": -0.7345773701,
				"element": "H" 
			},
			{
				"x": 3.857768781,
				"y": 0.8408523155,
				"z": 1.5414028475,
				"element": "H" 
			},
			{
				"x": 3.6284632198,
				"y": 2.4787757681,
				"z": 0.940610839,
				"element": "H" 
			},
			{
				"x": 3.0493879466,
				"y": 2.354573181,
				"z": 3.367701654,
				"element": "H" 
			},
			{
				"x": 1.8541799562,
				"y": 1.0945865034,
				"z": 3.0409914787,
				"element": "H" 
			},
			{
				"x": 1.600300314,
				"y": 2.7409111416,
				"z": 2.4309069085,
				"element": "H" 
			}
		],
		 "valence_orbital": [ 
			{
				"type": "occ",
				"energy": -0.34265,
				"method": "rhf"
			},
			{
				"type": "occ",
				"energy": -0.3426,
				"method": "rhf"
			},
			{
				"type": "occ",
				"energy": -0.31902,
				"method": "rhf"
			},
			{
				"type": "occ",
				"energy": -0.29435,
				"method": "rhf"
			},
			{
				"type": "occ",
				"energy": -0.27068,
				"method": "rhf"
			},
			{
				"type": "unocc",
				"energy": -0.02561,
				"method": "rhf"
			},
			{
				"type": "unocc",
				"energy": 0.01635,
				"method": "rhf"
			},
			{
				"type": "unocc",
				"energy": 0.08694,
				"method": "rhf"
			},
			{
				"type": "unocc",
				"energy": 0.09187,
				"method": "rhf"
			},
			{
				"type": "unocc",
				"energy": 0.13582,
				"method": "rhf"
			}
		],
		"cosmo_sigma_profile": { 
			"-0.025": 0.0,
			"-0.024": 0.0,
			"-0.023": 0.0,
			"-0.022": 0.0,
			"-0.021": 0.0,
			"-0.02": 0.0,
			"-0.019": 0.0,
			"-0.018": 0.0,
			"-0.017": 0.0,
			"-0.016": 0.0,
			"-0.015": 0.0,
			"-0.014": 0.0,
			"-0.013": 0.0,
			"-0.012": 0.0,
			"-0.011": 0.0,
			"-0.01": 0.0,
			"-0.009": 0.0,
			"-0.008": 0.302287448988,
			"-0.007": 4.32149992618,
			"-0.006": 8.00276026515,
			"-0.005": 10.0719772321,
			"-0.004": 13.7766870927,
			"-0.003": 29.8078161442,
			"-0.002": 31.5071176553,
			"-0.001": 27.6567429501,
			"0.0": 25.2802549486,
			"0.001": 20.4070298437,
			"0.002": 9.09596433628,
			"0.003": 4.49876357316,
			"0.004": 4.4905568071,
			"0.005": 4.13000306777,
			"0.006": 2.71132859402,
			"0.007": 3.2426805836,
			"0.008": 3.43761895681,
			"0.009": 3.99048038615,
			"0.01": 6.74824451872,
			"0.011": 7.62152918714,
			"0.012": 1.93413874861,
			"0.013": 0.0156005746089,
			"0.014": 0.0,
			"0.015": 0.0,
			"0.016": 0.0,
			"0.017": 0.0,
			"0.018": 0.0,
			"0.019": 0.0,
			"0.02": 0.0,
			"0.021": 0.0,
			"0.022": 0.0,
			"0.023": 0.0,
			"0.024": 0.0,
			"0.025": 0.0
		}
	}
}
