{
	 "smiles": "NNC1=NC=CC(=N1)C(F)(F)F", 
	 "Tm": 373.15, 
	 "num_atms": 17, 
	 "gaussian": { 
		 "optdone": 1, 
		 "sigma_profile": "yes", 
		 "theory": "DFT", 
		 "functional": "B3LYP", 
		 "basiset": "6-31G**", 
		 "properties": { 
			 "R2extent": 3192.3132, 
			 "electric_dipole_moment_norm": 1.46370071053, 
			 "electric_quadrupole_moment_norm": 5.27362065283, 
			 "total_energy": -712.046568827, 
			 "HOMO_LUMO_gap": 0.1811, 
			 "cosmo_polarized_energy": -8.98, 
			 "cosmo_cavitation_energy": 23.43, 
			 "cosmo_dispersion_energy": -16.82, 
			 "cosmo_repulsion_energy": 1.31, 
			 "cosmo_total_nonelectrostatic_energy": 7.93, 
			 "SMD_solvation_energy": 3.44 
		},
		"coords": [
			{
				"x": -0.1222256075,
				"y": -3.492337414,
				"z": 2.2716032536,
				"element": "N" 
			},
			{
				"x": -0.4780348959,
				"y": -2.5769072484,
				"z": 3.2687866675,
				"element": "N" 
			},
			{
				"x": -0.5388605777,
				"y": -1.2303415693,
				"z": 3.0923493695,
				"element": "C" 
			},
			{
				"x": -0.9547545203,
				"y": -0.5116905954,
				"z": 4.1631778323,
				"element": "N" 
			},
			{
				"x": -1.0056184048,
				"y": 0.8024215637,
				"z": 3.9891285691,
				"element": "C" 
			},
			{
				"x": -0.6594502488,
				"y": 1.4343147552,
				"z": 2.7866818487,
				"element": "C" 
			},
			{
				"x": -0.253495022,
				"y": 0.5843007471,
				"z": 1.7666561867,
				"element": "C" 
			},
			{
				"x": -0.1843480182,
				"y": -0.7421852809,
				"z": 1.8902448316,
				"element": "N" 
			},
			{
				"x": 0.1500847561,
				"y": 1.1173889205,
				"z": 0.4033662099,
				"element": "C" 
			},
			{
				"x": 1.4215440282,
				"y": 0.7868866399,
				"z": 0.1108465404,
				"element": "F" 
			},
			{
				"x": -0.6367468007,
				"y": 0.6141779176,
				"z": -0.5658203594,
				"element": "F" 
			},
			{
				"x": 0.0537459574,
				"y": 2.4634395177,
				"z": 0.3527937761,
				"element": "F" 
			},
			{
				"x": 0.8294214361,
				"y": -3.2840642228,
				"z": 1.9713264179,
				"element": "H" 
			},
			{
				"x": -0.7124645442,
				"y": -3.326569589,
				"z": 1.4566991605,
				"element": "H" 
			},
			{
				"x": -0.7857964178,
				"y": -2.9542027858,
				"z": 4.1517289927,
				"element": "H" 
			},
			{
				"x": -1.3386501275,
				"y": 1.3881149337,
				"z": 4.8447266777,
				"element": "H" 
			},
			{
				"x": -0.7069509925,
				"y": 2.50705371,
				"z": 2.6613040252,
				"element": "H" 
			}
		],
		 "valence_orbital": [ 
			{
				"type": "occ",
				"energy": -0.32821,
				"method": "rhf"
			},
			{
				"type": "occ",
				"energy": -0.32761,
				"method": "rhf"
			},
			{
				"type": "occ",
				"energy": -0.28402,
				"method": "rhf"
			},
			{
				"type": "occ",
				"energy": -0.2638,
				"method": "rhf"
			},
			{
				"type": "occ",
				"energy": -0.23787,
				"method": "rhf"
			},
			{
				"type": "unocc",
				"energy": -0.05677,
				"method": "rhf"
			},
			{
				"type": "unocc",
				"energy": -0.01462,
				"method": "rhf"
			},
			{
				"type": "unocc",
				"energy": 0.08448,
				"method": "rhf"
			},
			{
				"type": "unocc",
				"energy": 0.10076,
				"method": "rhf"
			},
			{
				"type": "unocc",
				"energy": 0.11305,
				"method": "rhf"
			}
		],
		"cosmo_sigma_profile": { 
			"-0.025": 0.0,
			"-0.024": 0.0,
			"-0.023": 0.0,
			"-0.022": 0.0,
			"-0.021": 0.0,
			"-0.02": 0.0,
			"-0.019": 0.0,
			"-0.018": 0.0,
			"-0.017": 0.0,
			"-0.016": 0.0,
			"-0.015": 0.0594167897989,
			"-0.014": 0.742603793053,
			"-0.013": 0.930105074596,
			"-0.012": 0.941450305205,
			"-0.011": 2.69370447188,
			"-0.01": 3.16850107247,
			"-0.009": 2.84883983547,
			"-0.008": 5.77556972127,
			"-0.007": 7.01938388479,
			"-0.006": 6.33234291971,
			"-0.005": 5.04588760531,
			"-0.004": 6.73500451166,
			"-0.003": 9.61254234874,
			"-0.002": 12.7363377083,
			"-0.001": 12.7604092445,
			"0.0": 15.1148628535,
			"0.001": 14.7592340286,
			"0.002": 26.8694517572,
			"0.003": 22.4902268529,
			"0.004": 5.85166696184,
			"0.005": 4.26428822426,
			"0.006": 3.56567235611,
			"0.007": 3.65985250812,
			"0.008": 2.98340171384,
			"0.009": 1.77163723848,
			"0.01": 1.72028661032,
			"0.011": 1.43073447551,
			"0.012": 1.53707982234,
			"0.013": 1.82301217281,
			"0.014": 0.84589268012,
			"0.015": 0.545801139855,
			"0.016": 0.687729554788,
			"0.017": 0.0202406507755,
			"0.018": 0.0,
			"0.019": 0.0,
			"0.02": 0.0,
			"0.021": 0.0,
			"0.022": 0.0,
			"0.023": 0.0,
			"0.024": 0.0,
			"0.025": 0.0
		}
	}
}
