{
	 "smiles": "CC1=C(SC(=N1)C1=CC=C(Cl)S1)C(O)=O", 
	 "Tm": 529.15, 
	 "num_atms": 21, 
	 "gaussian": { 
		 "optdone": 1, 
		 "sigma_profile": "yes", 
		 "theory": "DFT", 
		 "functional": "B3LYP", 
		 "basiset": "6-31G**", 
		 "properties": { 
			 "R2extent": 6734.1883, 
			 "electric_dipole_moment_norm": 2.37148845664, 
			 "electric_quadrupole_moment_norm": 6.49217798662, 
			 "total_energy": -1808.34227026, 
			 "HOMO_LUMO_gap": 0.13823, 
			 "cosmo_polarized_energy": -10.45, 
			 "cosmo_cavitation_energy": 31.58, 
			 "cosmo_dispersion_energy": -24.2, 
			 "cosmo_repulsion_energy": 1.81, 
			 "cosmo_total_nonelectrostatic_energy": 9.19, 
			 "SMD_solvation_energy": 4.42 
		},
		"coords": [
			{
				"x": 3.6099690931,
				"y": 0.6371912924,
				"z": 0.7092159802,
				"element": "C" 
			},
			{
				"x": 2.5276064898,
				"y": -0.2682523259,
				"z": 0.2011288311,
				"element": "C" 
			},
			{
				"x": 2.5998611706,
				"y": -1.0733849502,
				"z": -0.9249274815,
				"element": "C" 
			},
			{
				"x": 1.1056986354,
				"y": -1.9560023505,
				"z": -1.1340915166,
				"element": "S" 
			},
			{
				"x": 0.4964595431,
				"y": -1.1739585612,
				"z": 0.310936297,
				"element": "C" 
			},
			{
				"x": 1.3429972255,
				"y": -0.3390751344,
				"z": 0.8781294894,
				"element": "N" 
			},
			{
				"x": -0.8248222558,
				"y": -1.4230528817,
				"z": 0.8379953087,
				"element": "C" 
			},
			{
				"x": -1.8204349733,
				"y": -2.2555913132,
				"z": 0.3716386123,
				"element": "C" 
			},
			{
				"x": -2.9962121048,
				"y": -2.2339134548,
				"z": 1.1664727583,
				"element": "C" 
			},
			{
				"x": -2.8724446596,
				"y": -1.3786354387,
				"z": 2.2310751826,
				"element": "C" 
			},
			{
				"x": -4.0692199158,
				"y": -1.0604483388,
				"z": 3.4366320156,
				"element": "Cl" 
			},
			{
				"x": -1.3275596267,
				"y": -0.5817122746,
				"z": 2.2920500739,
				"element": "S" 
			},
			{
				"x": 3.7344161887,
				"y": -1.2011518849,
				"z": -1.8353220872,
				"element": "C" 
			},
			{
				"x": 3.4904329807,
				"y": -2.0748227449,
				"z": -2.8473769137,
				"element": "O" 
			},
			{
				"x": 4.790589389,
				"y": -0.6054111487,
				"z": -1.7249293945,
				"element": "O" 
			},
			{
				"x": 3.2614906028,
				"y": 1.1408605073,
				"z": 1.6120021135,
				"element": "H" 
			},
			{
				"x": 4.5208681894,
				"y": 0.0737395685,
				"z": 0.9300976779,
				"element": "H" 
			},
			{
				"x": 3.885130143,
				"y": 1.3805221952,
				"z": -0.0442875198,
				"element": "H" 
			},
			{
				"x": -1.7137170115,
				"y": -2.8675568234,
				"z": -0.5172824642,
				"element": "H" 
			},
			{
				"x": -3.8867237217,
				"y": -2.8161850149,
				"z": 0.9668061341,
				"element": "H" 
			},
			{
				"x": 4.295414618,
				"y": -2.0888589224,
				"z": -3.3906630973,
				"element": "H" 
			}
		],
		 "valence_orbital": [ 
			{
				"type": "occ",
				"energy": -0.2889,
				"method": "rhf"
			},
			{
				"type": "occ",
				"energy": -0.28407,
				"method": "rhf"
			},
			{
				"type": "occ",
				"energy": -0.27768,
				"method": "rhf"
			},
			{
				"type": "occ",
				"energy": -0.27435,
				"method": "rhf"
			},
			{
				"type": "occ",
				"energy": -0.22399,
				"method": "rhf"
			},
			{
				"type": "unocc",
				"energy": -0.08576,
				"method": "rhf"
			},
			{
				"type": "unocc",
				"energy": -0.02772,
				"method": "rhf"
			},
			{
				"type": "unocc",
				"energy": 0.00422,
				"method": "rhf"
			},
			{
				"type": "unocc",
				"energy": 0.00722,
				"method": "rhf"
			},
			{
				"type": "unocc",
				"energy": 0.01358,
				"method": "rhf"
			}
		],
		"cosmo_sigma_profile": { 
			"-0.025": 0.0,
			"-0.024": 0.0,
			"-0.023": 0.0,
			"-0.022": 0.0,
			"-0.021": 0.0,
			"-0.02": 0.0,
			"-0.019": 0.155914973849,
			"-0.018": 1.06228578941,
			"-0.017": 0.835246083071,
			"-0.016": 1.15894025085,
			"-0.015": 0.385592586663,
			"-0.014": 0.482018268768,
			"-0.013": 0.547579525353,
			"-0.012": 0.75489442411,
			"-0.011": 0.689106663735,
			"-0.01": 0.945663301925,
			"-0.009": 2.44898583203,
			"-0.008": 4.95052709592,
			"-0.007": 5.49364314347,
			"-0.006": 5.01729291745,
			"-0.005": 7.42773594121,
			"-0.004": 9.91933916856,
			"-0.003": 14.3844191955,
			"-0.002": 20.9651391969,
			"-0.001": 30.3043182458,
			"0.0": 32.9237357638,
			"0.001": 33.1076254531,
			"0.002": 31.2390422101,
			"0.003": 18.8545691199,
			"0.004": 5.70722660313,
			"0.005": 5.22784670807,
			"0.006": 4.93665175814,
			"0.007": 5.1072340376,
			"0.008": 2.77997328983,
			"0.009": 2.87113501658,
			"0.01": 3.30444133956,
			"0.011": 3.66587371979,
			"0.012": 2.68269505834,
			"0.013": 0.0274937205265,
			"0.014": 0.0,
			"0.015": 0.0,
			"0.016": 0.0,
			"0.017": 0.0,
			"0.018": 0.0,
			"0.019": 0.0,
			"0.02": 0.0,
			"0.021": 0.0,
			"0.022": 0.0,
			"0.023": 0.0,
			"0.024": 0.0,
			"0.025": 0.0
		}
	}
}
