{
	 "smiles": "CC1=CC(C)=C(CCl)C(C)=C1", 
	 "Tm": 313.15, 
	 "num_atms": 24, 
	 "gaussian": { 
		 "optdone": 1, 
		 "sigma_profile": "yes", 
		 "theory": "DFT", 
		 "functional": "B3LYP", 
		 "basiset": "6-31G**", 
		 "properties": { 
			 "R2extent": 2522.8533, 
			 "electric_dipole_moment_norm": 2.45446437945, 
			 "electric_quadrupole_moment_norm": 10.3500387101, 
			 "total_energy": -849.119099393, 
			 "HOMO_LUMO_gap": 0.2087, 
			 "cosmo_polarized_energy": -5.9, 
			 "cosmo_cavitation_energy": 27.72, 
			 "cosmo_dispersion_energy": -20.02, 
			 "cosmo_repulsion_energy": 1.6, 
			 "cosmo_total_nonelectrostatic_energy": 9.3, 
			 "SMD_solvation_energy": 4.43 
		},
		"coords": [
			{
				"x": -2.3191876444,
				"y": 0.5931065637,
				"z": 3.3198882806,
				"element": "C" 
			},
			{
				"x": -1.6338738348,
				"y": 0.325041532,
				"z": 2.0009999002,
				"element": "C" 
			},
			{
				"x": -0.2503382374,
				"y": 0.1363175262,
				"z": 1.9349163276,
				"element": "C" 
			},
			{
				"x": 0.4003548211,
				"y": -0.1435159729,
				"z": 0.7301767316,
				"element": "C" 
			},
			{
				"x": 1.8985867179,
				"y": -0.352608195,
				"z": 0.7262258809,
				"element": "C" 
			},
			{
				"x": -0.3592435173,
				"y": -0.2282584034,
				"z": -0.4565759093,
				"element": "C" 
			},
			{
				"x": 0.3191305719,
				"y": -0.5019903188,
				"z": -1.7627219848,
				"element": "C" 
			},
			{
				"x": 0.442549001,
				"y": -2.3119393237,
				"z": -2.1417045727,
				"element": "Cl" 
			},
			{
				"x": -1.7589090086,
				"y": -0.0511061432,
				"z": -0.4105519812,
				"element": "C" 
			},
			{
				"x": -2.6107206227,
				"y": -0.1595882782,
				"z": -1.6559672365,
				"element": "C" 
			},
			{
				"x": -2.3686470863,
				"y": 0.2270057544,
				"z": 0.8158181866,
				"element": "C" 
			},
			{
				"x": -2.617094778,
				"y": -0.3438154442,
				"z": 3.8073049896,
				"element": "H" 
			},
			{
				"x": -1.6600878953,
				"y": 1.1240203702,
				"z": 4.0133885712,
				"element": "H" 
			},
			{
				"x": -3.2254710942,
				"y": 1.1914555944,
				"z": 3.1862670344,
				"element": "H" 
			},
			{
				"x": 0.3392676638,
				"y": 0.2051533453,
				"z": 2.8464664701,
				"element": "H" 
			},
			{
				"x": 2.2916395537,
				"y": -0.3482388659,
				"z": 1.7459553498,
				"element": "H" 
			},
			{
				"x": 2.1717563348,
				"y": -1.3075078022,
				"z": 0.2650160581,
				"element": "H" 
			},
			{
				"x": 2.4216229099,
				"y": 0.4372024777,
				"z": 0.1724721874,
				"element": "H" 
			},
			{
				"x": 1.34821363,
				"y": -0.1495024942,
				"z": -1.7849395889,
				"element": "H" 
			},
			{
				"x": -0.2169278752,
				"y": -0.0830558122,
				"z": -2.6117674987,
				"element": "H" 
			},
			{
				"x": -2.3950251212,
				"y": 0.6435240992,
				"z": -2.3718551106,
				"element": "H" 
			},
			{
				"x": -3.672205731,
				"y": -0.0932086404,
				"z": -1.4045800785,
				"element": "H" 
			},
			{
				"x": -2.447254986,
				"y": -1.1096736546,
				"z": -2.17536022,
				"element": "H" 
			},
			{
				"x": -3.4469337716,
				"y": 0.3672820859,
				"z": 0.8462282129,
				"element": "H" 
			}
		],
		 "valence_orbital": [ 
			{
				"type": "occ",
				"energy": -0.33282,
				"method": "rhf"
			},
			{
				"type": "occ",
				"energy": -0.28832,
				"method": "rhf"
			},
			{
				"type": "occ",
				"energy": -0.28762,
				"method": "rhf"
			},
			{
				"type": "occ",
				"energy": -0.23838,
				"method": "rhf"
			},
			{
				"type": "occ",
				"energy": -0.23414,
				"method": "rhf"
			},
			{
				"type": "unocc",
				"energy": -0.02544,
				"method": "rhf"
			},
			{
				"type": "unocc",
				"energy": 0.00318,
				"method": "rhf"
			},
			{
				"type": "unocc",
				"energy": 0.04599,
				"method": "rhf"
			},
			{
				"type": "unocc",
				"energy": 0.09159,
				"method": "rhf"
			},
			{
				"type": "unocc",
				"energy": 0.10422,
				"method": "rhf"
			}
		],
		"cosmo_sigma_profile": { 
			"-0.025": 0.0,
			"-0.024": 0.0,
			"-0.023": 0.0,
			"-0.022": 0.0,
			"-0.021": 0.0,
			"-0.02": 0.0,
			"-0.019": 0.0,
			"-0.018": 0.0,
			"-0.017": 0.0,
			"-0.016": 0.0,
			"-0.015": 0.0,
			"-0.014": 0.0,
			"-0.013": 0.0,
			"-0.012": 0.0,
			"-0.011": 0.0,
			"-0.01": 0.0,
			"-0.009": 0.0,
			"-0.008": 0.0,
			"-0.007": 2.49956559748,
			"-0.006": 5.34524205606,
			"-0.005": 11.4167232221,
			"-0.004": 22.0013681544,
			"-0.003": 21.8091202807,
			"-0.002": 22.8574883705,
			"-0.001": 21.9334289741,
			"0.0": 27.3406129206,
			"0.001": 17.4839430763,
			"0.002": 11.78989402,
			"0.003": 8.89699104508,
			"0.004": 10.9028977926,
			"0.005": 12.2375922506,
			"0.006": 14.9983580226,
			"0.007": 7.84554271039,
			"0.008": 0.885967420455,
			"0.009": 0.0,
			"0.01": 0.0,
			"0.011": 0.0,
			"0.012": 0.0,
			"0.013": 0.0,
			"0.014": 0.0,
			"0.015": 0.0,
			"0.016": 0.0,
			"0.017": 0.0,
			"0.018": 0.0,
			"0.019": 0.0,
			"0.02": 0.0,
			"0.021": 0.0,
			"0.022": 0.0,
			"0.023": 0.0,
			"0.024": 0.0,
			"0.025": 0.0
		}
	}
}
