{
	 "smiles": "COC(=O)C1=CSC(C=O)=C1", 
	 "Tm": 388.15, 
	 "num_atms": 17, 
	 "gaussian": { 
		 "optdone": 1, 
		 "sigma_profile": "yes", 
		 "theory": "DFT", 
		 "functional": "B3LYP", 
		 "basiset": "6-31G**", 
		 "properties": { 
			 "R2extent": 3164.6318, 
			 "electric_dipole_moment_norm": 3.66110434295, 
			 "electric_quadrupole_moment_norm": 17.01182587, 
			 "total_energy": -894.205617397, 
			 "HOMO_LUMO_gap": 0.1845, 
			 "cosmo_polarized_energy": -10.89, 
			 "cosmo_cavitation_energy": 24.36, 
			 "cosmo_dispersion_energy": -18.15, 
			 "cosmo_repulsion_energy": 1.41, 
			 "cosmo_total_nonelectrostatic_energy": 7.63, 
			 "SMD_solvation_energy": 6.92 
		},
		"coords": [
			{
				"x": 1.5234781412,
				"y": -0.1363779324,
				"z": 2.6921997596,
				"element": "C" 
			},
			{
				"x": 1.425404455,
				"y": -0.4898891767,
				"z": 1.3023528809,
				"element": "O" 
			},
			{
				"x": 0.5337166696,
				"y": 0.2308173237,
				"z": 0.5874652757,
				"element": "C" 
			},
			{
				"x": -0.1497691851,
				"y": 1.1197017047,
				"z": 1.0557912531,
				"element": "O" 
			},
			{
				"x": 0.4887269482,
				"y": -0.1880026661,
				"z": -0.8317533561,
				"element": "C" 
			},
			{
				"x": 1.2478886521,
				"y": -1.1901734393,
				"z": -1.4011417398,
				"element": "C" 
			},
			{
				"x": 0.9231642669,
				"y": -1.3932233566,
				"z": -3.0757826286,
				"element": "S" 
			},
			{
				"x": -0.2638146641,
				"y": -0.1061287391,
				"z": -3.035980646,
				"element": "C" 
			},
			{
				"x": -0.9901679115,
				"y": 0.2756746406,
				"z": -4.2436001425,
				"element": "C" 
			},
			{
				"x": -0.837558634,
				"y": -0.2468180446,
				"z": -5.3334934462,
				"element": "O" 
			},
			{
				"x": -0.3782797166,
				"y": 0.4317248387,
				"z": -1.7756999669,
				"element": "C" 
			},
			{
				"x": 1.8311922429,
				"y": 0.906307565,
				"z": 2.8024755051,
				"element": "H" 
			},
			{
				"x": 2.274958169,
				"y": -0.804393108,
				"z": 3.1124379143,
				"element": "H" 
			},
			{
				"x": 0.5621571065,
				"y": -0.2757734449,
				"z": 3.1926671247,
				"element": "H" 
			},
			{
				"x": 1.9788170231,
				"y": -1.8099960917,
				"z": -0.901128408,
				"element": "H" 
			},
			{
				"x": -1.714676757,
				"y": 1.1037942139,
				"z": -4.0907823847,
				"element": "H" 
			},
			{
				"x": -1.0516368061,
				"y": 1.2400557129,
				"z": -1.5154269945,
				"element": "H" 
			}
		],
		 "valence_orbital": [ 
			{
				"type": "occ",
				"energy": -0.31292,
				"method": "rhf"
			},
			{
				"type": "occ",
				"energy": -0.2865,
				"method": "rhf"
			},
			{
				"type": "occ",
				"energy": -0.27871,
				"method": "rhf"
			},
			{
				"type": "occ",
				"energy": -0.26564,
				"method": "rhf"
			},
			{
				"type": "occ",
				"energy": -0.26384,
				"method": "rhf"
			},
			{
				"type": "unocc",
				"energy": -0.07934,
				"method": "rhf"
			},
			{
				"type": "unocc",
				"energy": -0.04187,
				"method": "rhf"
			},
			{
				"type": "unocc",
				"energy": 0.01385,
				"method": "rhf"
			},
			{
				"type": "unocc",
				"energy": 0.04878,
				"method": "rhf"
			},
			{
				"type": "unocc",
				"energy": 0.07895,
				"method": "rhf"
			}
		],
		"cosmo_sigma_profile": { 
			"-0.025": 0.0,
			"-0.024": 0.0,
			"-0.023": 0.0,
			"-0.022": 0.0,
			"-0.021": 0.0,
			"-0.02": 0.0,
			"-0.019": 0.0,
			"-0.018": 0.0,
			"-0.017": 0.0,
			"-0.016": 0.0,
			"-0.015": 0.0,
			"-0.014": 0.0,
			"-0.013": 0.0,
			"-0.012": 0.0,
			"-0.011": 0.276725615811,
			"-0.01": 1.60277812159,
			"-0.009": 3.34730576503,
			"-0.008": 5.68434003357,
			"-0.007": 6.77732538939,
			"-0.006": 10.3052641372,
			"-0.005": 11.1145233469,
			"-0.004": 13.3549952476,
			"-0.003": 17.0567459975,
			"-0.002": 12.4681450251,
			"-0.001": 16.5627171104,
			"0.0": 23.3070657936,
			"0.001": 18.720047194,
			"0.002": 10.1881807928,
			"0.003": 5.18318673685,
			"0.004": 4.92777882035,
			"0.005": 4.72264358557,
			"0.006": 3.25588590999,
			"0.007": 3.14935845229,
			"0.008": 3.79707071529,
			"0.009": 2.93997577697,
			"0.01": 5.28034384712,
			"0.011": 8.19937614295,
			"0.012": 5.15328691923,
			"0.013": 0.387746467918,
			"0.014": 0.0,
			"0.015": 0.0,
			"0.016": 0.0,
			"0.017": 0.0,
			"0.018": 0.0,
			"0.019": 0.0,
			"0.02": 0.0,
			"0.021": 0.0,
			"0.022": 0.0,
			"0.023": 0.0,
			"0.024": 0.0,
			"0.025": 0.0
		}
	}
}
