{
	 "smiles": "OC(=O)C1=CC=CC2=C1C(=O)C1=C2C=CC=C1", 
	 "Tm": 469.15, 
	 "num_atms": 25, 
	 "gaussian": { 
		 "optdone": 1, 
		 "sigma_profile": "yes", 
		 "theory": "DFT", 
		 "functional": "B3LYP", 
		 "basiset": "6-31G**", 
		 "properties": { 
			 "R2extent": 5103.3021, 
			 "electric_dipole_moment_norm": 8.06459648402, 
			 "electric_quadrupole_moment_norm": 24.0547541858, 
			 "total_energy": -764.009630902, 
			 "HOMO_LUMO_gap": 0.13401, 
			 "cosmo_polarized_energy": -14.55, 
			 "cosmo_cavitation_energy": 29.62, 
			 "cosmo_dispersion_energy": -22.1, 
			 "cosmo_repulsion_energy": 1.63, 
			 "cosmo_total_nonelectrostatic_energy": 9.15, 
			 "SMD_solvation_energy": 6.07 
		},
		"coords": [
			{
				"x": -3.3499532437,
				"y": -1.8394666587,
				"z": -2.8363061608,
				"element": "O" 
			},
			{
				"x": -3.1889498057,
				"y": -2.180261245,
				"z": -1.5610506898,
				"element": "C" 
			},
			{
				"x": -4.0266690406,
				"y": -2.8401712404,
				"z": -0.9787967325,
				"element": "O" 
			},
			{
				"x": -1.9339397202,
				"y": -1.7331926645,
				"z": -0.8207974639,
				"element": "C" 
			},
			{
				"x": -1.8601897396,
				"y": -2.1453600568,
				"z": 0.5236994027,
				"element": "C" 
			},
			{
				"x": -0.7765486392,
				"y": -1.8162296226,
				"z": 1.3316381024,
				"element": "C" 
			},
			{
				"x": 0.2898201399,
				"y": -1.0557826874,
				"z": 0.8313088534,
				"element": "C" 
			},
			{
				"x": 0.2376201908,
				"y": -0.6394181111,
				"z": -0.4901520842,
				"element": "C" 
			},
			{
				"x": -0.8640178406,
				"y": -0.9719882143,
				"z": -1.3175134841,
				"element": "C" 
			},
			{
				"x": -0.6015232968,
				"y": -0.3715614556,
				"z": -2.667206856,
				"element": "C" 
			},
			{
				"x": -1.3122784932,
				"y": -0.4277724454,
				"z": -3.6700179073,
				"element": "O" 
			},
			{
				"x": 0.7061538251,
				"y": 0.3227538608,
				"z": -2.5739889136,
				"element": "C" 
			},
			{
				"x": 1.2097739216,
				"y": 0.1629565916,
				"z": -1.2703325359,
				"element": "C" 
			},
			{
				"x": 2.4321280019,
				"y": 0.7255145286,
				"z": -0.9266218535,
				"element": "C" 
			},
			{
				"x": 3.133373873,
				"y": 1.4452507863,
				"z": -1.9076729935,
				"element": "C" 
			},
			{
				"x": 2.6262831048,
				"y": 1.5997855897,
				"z": -3.2014176762,
				"element": "C" 
			},
			{
				"x": 1.3933697493,
				"y": 1.0326462233,
				"z": -3.5488594149,
				"element": "C" 
			},
			{
				"x": -2.606390518,
				"y": -1.3002800167,
				"z": -3.2128280471,
				"element": "H" 
			},
			{
				"x": -2.6869827517,
				"y": -2.7329123635,
				"z": 0.9054854413,
				"element": "H" 
			},
			{
				"x": -0.7580885738,
				"y": -2.1537676765,
				"z": 2.3636471746,
				"element": "H" 
			},
			{
				"x": 1.1327864907,
				"y": -0.8022109324,
				"z": 1.4671364945,
				"element": "H" 
			},
			{
				"x": 2.8455315272,
				"y": 0.618563346,
				"z": 0.0717901734,
				"element": "H" 
			},
			{
				"x": 4.0908246432,
				"y": 1.8912707003,
				"z": -1.6544303701,
				"element": "H" 
			},
			{
				"x": 3.191964892,
				"y": 2.1618230915,
				"z": -3.9377848912,
				"element": "H" 
			},
			{
				"x": 0.9783013033,
				"y": 1.138410673,
				"z": -4.5464275677,
				"element": "H" 
			}
		],
		 "valence_orbital": [ 
			{
				"type": "occ",
				"energy": -0.28642,
				"method": "rhf"
			},
			{
				"type": "occ",
				"energy": -0.28547,
				"method": "rhf"
			},
			{
				"type": "occ",
				"energy": -0.27818,
				"method": "rhf"
			},
			{
				"type": "occ",
				"energy": -0.26191,
				"method": "rhf"
			},
			{
				"type": "occ",
				"energy": -0.24699,
				"method": "rhf"
			},
			{
				"type": "unocc",
				"energy": -0.11298,
				"method": "rhf"
			},
			{
				"type": "unocc",
				"energy": -0.06414,
				"method": "rhf"
			},
			{
				"type": "unocc",
				"energy": -0.03225,
				"method": "rhf"
			},
			{
				"type": "unocc",
				"energy": 0.00288,
				"method": "rhf"
			},
			{
				"type": "unocc",
				"energy": 0.03716,
				"method": "rhf"
			}
		],
		"cosmo_sigma_profile": { 
			"-0.025": 0.0,
			"-0.024": 0.0,
			"-0.023": 0.0,
			"-0.022": 0.0,
			"-0.021": 0.0,
			"-0.02": 0.0,
			"-0.019": 0.0,
			"-0.018": 0.0,
			"-0.017": 0.0,
			"-0.016": 0.0,
			"-0.015": 0.0,
			"-0.014": 0.0,
			"-0.013": 0.0,
			"-0.012": 0.0,
			"-0.011": 0.0,
			"-0.01": 0.00292902403759,
			"-0.009": 0.334579579497,
			"-0.008": 4.58599623235,
			"-0.007": 13.1169523545,
			"-0.006": 16.4546665778,
			"-0.005": 17.3308816494,
			"-0.004": 15.8578128412,
			"-0.003": 15.876886978,
			"-0.002": 14.6518202527,
			"-0.001": 17.7815334853,
			"0.0": 22.6620046366,
			"0.001": 24.0598709773,
			"0.002": 22.5445050358,
			"0.003": 13.6475104997,
			"0.004": 3.82101710525,
			"0.005": 2.49708241393,
			"0.006": 4.1642385999,
			"0.007": 3.87161500409,
			"0.008": 4.05308235765,
			"0.009": 3.77178765384,
			"0.01": 4.59037628804,
			"0.011": 5.13821034088,
			"0.012": 5.85088130397,
			"0.013": 2.66183291705,
			"0.014": 0.755699294215,
			"0.015": 0.0,
			"0.016": 0.0,
			"0.017": 0.0,
			"0.018": 0.0,
			"0.019": 0.0,
			"0.02": 0.0,
			"0.021": 0.0,
			"0.022": 0.0,
			"0.023": 0.0,
			"0.024": 0.0,
			"0.025": 0.0
		}
	}
}
