{
	 "smiles": "CC(C)CC1(COCOC1=O)NC(=O)C1=CC=CC=C1", 
	 "Tm": 374.15, 
	 "num_atms": 39, 
	 "gaussian": { 
		 "optdone": 1, 
		 "sigma_profile": "yes", 
		 "theory": "DFT", 
		 "functional": "B3LYP", 
		 "basiset": "6-31G**", 
		 "properties": { 
			 "R2extent": 5493.2857, 
			 "electric_dipole_moment_norm": 3.70417519024, 
			 "electric_quadrupole_moment_norm": 18.894281053, 
			 "total_energy": -938.690072953, 
			 "HOMO_LUMO_gap": 0.20732, 
			 "cosmo_polarized_energy": -17.84, 
			 "cosmo_cavitation_energy": 38.84, 
			 "cosmo_dispersion_energy": -26.88, 
			 "cosmo_repulsion_energy": 2.03, 
			 "cosmo_total_nonelectrostatic_energy": 13.99, 
			 "SMD_solvation_energy": 8.12 
		},
		"coords": [
			{
				"x": 0.7016505116,
				"y": -0.5945477492,
				"z": -3.1926083456,
				"element": "C" 
			},
			{
				"x": -0.2058178389,
				"y": -0.4879868148,
				"z": -1.952477436,
				"element": "C" 
			},
			{
				"x": -1.1163069513,
				"y": -1.7262195149,
				"z": -1.8851199822,
				"element": "C" 
			},
			{
				"x": 0.6033228647,
				"y": -0.3447465809,
				"z": -0.6344469834,
				"element": "C" 
			},
			{
				"x": 0.8625513888,
				"y": 1.1002777045,
				"z": -0.1127003589,
				"element": "C" 
			},
			{
				"x": 1.5526605659,
				"y": 1.9680790383,
				"z": -1.1944628444,
				"element": "C" 
			},
			{
				"x": 2.8287160604,
				"y": 1.4365154785,
				"z": -1.5074324817,
				"element": "O" 
			},
			{
				"x": 3.6803451881,
				"y": 1.5586296993,
				"z": -0.416123013,
				"element": "C" 
			},
			{
				"x": 3.1801631519,
				"y": 0.9351713095,
				"z": 0.7772551103,
				"element": "O" 
			},
			{
				"x": 1.8493750022,
				"y": 0.9556251602,
				"z": 1.0809384845,
				"element": "C" 
			},
			{
				"x": 1.5139123492,
				"y": 0.7710774136,
				"z": 2.2235534338,
				"element": "O" 
			},
			{
				"x": -0.3284571846,
				"y": 1.8564262727,
				"z": 0.2785296191,
				"element": "N" 
			},
			{
				"x": -1.6673488389,
				"y": 1.5833111044,
				"z": 0.545003075,
				"element": "C" 
			},
			{
				"x": -2.4799271712,
				"y": 2.4796131667,
				"z": 0.3321279055,
				"element": "O" 
			},
			{
				"x": -2.1332194087,
				"y": 0.2859973594,
				"z": 1.1318691385,
				"element": "C" 
			},
			{
				"x": -3.4122786889,
				"y": -0.1515599119,
				"z": 0.7515759101,
				"element": "C" 
			},
			{
				"x": -3.9568504462,
				"y": -1.3048088248,
				"z": 1.3105416099,
				"element": "C" 
			},
			{
				"x": -3.2438082016,
				"y": -2.0141925897,
				"z": 2.2819143021,
				"element": "C" 
			},
			{
				"x": -1.988410691,
				"y": -1.5622642442,
				"z": 2.6901110209,
				"element": "C" 
			},
			{
				"x": -1.4284120719,
				"y": -0.4172953149,
				"z": 2.1184436181,
				"element": "C" 
			},
			{
				"x": 1.2861175739,
				"y": -1.5217024885,
				"z": -3.1523638623,
				"element": "H" 
			},
			{
				"x": 1.4155418233,
				"y": 0.2276733704,
				"z": -3.2812096592,
				"element": "H" 
			},
			{
				"x": 0.1013345655,
				"y": -0.6236049879,
				"z": -4.1081844866,
				"element": "H" 
			},
			{
				"x": -0.852154396,
				"y": 0.3936710637,
				"z": -2.0648439697,
				"element": "H" 
			},
			{
				"x": -0.5207643043,
				"y": -2.6359149487,
				"z": -1.7409044667,
				"element": "H" 
			},
			{
				"x": -1.8333274757,
				"y": -1.6583225202,
				"z": -1.0631226419,
				"element": "H" 
			},
			{
				"x": -1.6785911027,
				"y": -1.8455230201,
				"z": -2.8175172757,
				"element": "H" 
			},
			{
				"x": 0.1087386464,
				"y": -0.8953117565,
				"z": 0.1672502275,
				"element": "H" 
			},
			{
				"x": 1.5859823601,
				"y": -0.8106526705,
				"z": -0.7644905803,
				"element": "H" 
			},
			{
				"x": 1.6578013862,
				"y": 3.0045180453,
				"z": -0.830181295,
				"element": "H" 
			},
			{
				"x": 0.9618168319,
				"y": 1.9864216459,
				"z": -2.1101500703,
				"element": "H" 
			},
			{
				"x": 4.6140970312,
				"y": 1.0496621671,
				"z": -0.6571364447,
				"element": "H" 
			},
			{
				"x": 3.8667435162,
				"y": 2.6173328742,
				"z": -0.1769271204,
				"element": "H" 
			},
			{
				"x": -0.2800749391,
				"y": 2.8385822601,
				"z": 0.0290629701,
				"element": "H" 
			},
			{
				"x": -3.9661465955,
				"y": 0.4299721112,
				"z": 0.0223647756,
				"element": "H" 
			},
			{
				"x": -4.9403372862,
				"y": -1.6446232468,
				"z": 0.9989883722,
				"element": "H" 
			},
			{
				"x": -3.6717429445,
				"y": -2.9088558272,
				"z": 2.7255096184,
				"element": "H" 
			},
			{
				"x": -1.4418104055,
				"y": -2.0964225564,
				"z": 3.4619696438,
				"element": "H" 
			},
			{
				"x": -0.4607838749,
				"y": -0.0570016768,
				"z": 2.4485944824,
				"element": "H" 
			}
		],
		 "valence_orbital": [ 
			{
				"type": "occ",
				"energy": -0.28718,
				"method": "rhf"
			},
			{
				"type": "occ",
				"energy": -0.26505,
				"method": "rhf"
			},
			{
				"type": "occ",
				"energy": -0.25596,
				"method": "rhf"
			},
			{
				"type": "occ",
				"energy": -0.25237,
				"method": "rhf"
			},
			{
				"type": "occ",
				"energy": -0.2414,
				"method": "rhf"
			},
			{
				"type": "unocc",
				"energy": -0.03408,
				"method": "rhf"
			},
			{
				"type": "unocc",
				"energy": -0.01544,
				"method": "rhf"
			},
			{
				"type": "unocc",
				"energy": -0.00413,
				"method": "rhf"
			},
			{
				"type": "unocc",
				"energy": 0.04778,
				"method": "rhf"
			},
			{
				"type": "unocc",
				"energy": 0.07179,
				"method": "rhf"
			}
		],
		"cosmo_sigma_profile": { 
			"-0.025": 0.0,
			"-0.024": 0.0,
			"-0.023": 0.0,
			"-0.022": 0.0,
			"-0.021": 0.0,
			"-0.02": 0.0,
			"-0.019": 0.0,
			"-0.018": 0.0,
			"-0.017": 0.0,
			"-0.016": 0.0,
			"-0.015": 0.0,
			"-0.014": 0.472856219987,
			"-0.013": 1.6061324279,
			"-0.012": 1.77155000252,
			"-0.011": 1.86756901204,
			"-0.01": 1.84771341582,
			"-0.009": 3.86345362522,
			"-0.008": 5.68913817833,
			"-0.007": 10.0529285971,
			"-0.006": 15.988096218,
			"-0.005": 15.0879305889,
			"-0.004": 17.2216800326,
			"-0.003": 22.0938994663,
			"-0.002": 29.6891662291,
			"-0.001": 25.268887204,
			"0.0": 23.6366182533,
			"0.001": 30.3123942405,
			"0.002": 20.4145920553,
			"0.003": 13.4923478529,
			"0.004": 13.3055404449,
			"0.005": 7.92262308129,
			"0.006": 5.59492711043,
			"0.007": 5.26385214303,
			"0.008": 6.34836213553,
			"0.009": 6.1137175511,
			"0.01": 4.77475742853,
			"0.011": 4.66466619166,
			"0.012": 4.1733998985,
			"0.013": 5.14106514625,
			"0.014": 2.27381237736,
			"0.015": 0.0331897536485,
			"0.016": 0.0,
			"0.017": 0.0,
			"0.018": 0.0,
			"0.019": 0.0,
			"0.02": 0.0,
			"0.021": 0.0,
			"0.022": 0.0,
			"0.023": 0.0,
			"0.024": 0.0,
			"0.025": 0.0
		}
	}
}
