{
	 "smiles": "COC1=CC=C(NS(=O)(=O)C2=CC=C(C=C2)C(O)=O)C=C1", 
	 "Tm": 352.15, 
	 "num_atms": 34, 
	 "gaussian": { 
		 "optdone": 1, 
		 "sigma_profile": "yes", 
		 "theory": "DFT", 
		 "functional": "B3LYP", 
		 "basiset": "6-31G**", 
		 "properties": { 
			 "R2extent": 8916.4471, 
			 "electric_dipole_moment_norm": 6.28672362523, 
			 "electric_quadrupole_moment_norm": 24.0556357247, 
			 "total_energy": -1370.30382491, 
			 "HOMO_LUMO_gap": 0.15709, 
			 "cosmo_polarized_energy": -25.62, 
			 "cosmo_cavitation_energy": 41.02, 
			 "cosmo_dispersion_energy": -28.85, 
			 "cosmo_repulsion_energy": 2.18, 
			 "cosmo_total_nonelectrostatic_energy": 14.34, 
			 "SMD_solvation_energy": 8.11 
		},
		"coords": [
			{
				"x": 2.2624772851,
				"y": 5.5302692884,
				"z": -2.160677086,
				"element": "C" 
			},
			{
				"x": 1.3973380958,
				"y": 5.4595667553,
				"z": -1.0369489093,
				"element": "O" 
			},
			{
				"x": 1.1385364595,
				"y": 4.2384492195,
				"z": -0.4939213762,
				"element": "C" 
			},
			{
				"x": 1.6637823028,
				"y": 3.0289823806,
				"z": -0.9661457214,
				"element": "C" 
			},
			{
				"x": 1.3323674344,
				"y": 1.8360696405,
				"z": -0.3194089028,
				"element": "C" 
			},
			{
				"x": 0.4817910936,
				"y": 1.8332243135,
				"z": 0.7857283343,
				"element": "C" 
			},
			{
				"x": 0.1909783843,
				"y": 0.5790267417,
				"z": 1.4268248658,
				"element": "N" 
			},
			{
				"x": -1.3322614302,
				"y": -0.1480431805,
				"z": 1.2020406398,
				"element": "S" 
			},
			{
				"x": -1.4339480707,
				"y": -1.1124015616,
				"z": 2.3012175854,
				"element": "O" 
			},
			{
				"x": -2.3770340118,
				"y": 0.8525098916,
				"z": 0.9639139022,
				"element": "O" 
			},
			{
				"x": -1.100524257,
				"y": -1.042967317,
				"z": -0.3398157037,
				"element": "C" 
			},
			{
				"x": -0.3331475429,
				"y": -2.2116832717,
				"z": -0.3440655662,
				"element": "C" 
			},
			{
				"x": -0.1726979105,
				"y": -2.9086772409,
				"z": -1.5357744779,
				"element": "C" 
			},
			{
				"x": -0.7631075636,
				"y": -2.4376818183,
				"z": -2.7184818483,
				"element": "C" 
			},
			{
				"x": -1.5486381954,
				"y": -1.2779650981,
				"z": -2.6873540526,
				"element": "C" 
			},
			{
				"x": -1.7227048855,
				"y": -0.5745269668,
				"z": -1.495180629,
				"element": "C" 
			},
			{
				"x": -0.5462265274,
				"y": -3.2461064966,
				"z": -3.9670602799,
				"element": "C" 
			},
			{
				"x": -0.753533611,
				"y": -2.6143981226,
				"z": -5.1515025714,
				"element": "O" 
			},
			{
				"x": -0.2012012949,
				"y": -4.4032440793,
				"z": -3.9487709646,
				"element": "O" 
			},
			{
				"x": -0.0502610717,
				"y": 3.0477074615,
				"z": 1.2467412124,
				"element": "C" 
			},
			{
				"x": 0.2797750311,
				"y": 4.2390093439,
				"z": 0.6182630216,
				"element": "C" 
			},
			{
				"x": 3.2661051894,
				"y": 5.1558206055,
				"z": -1.9223409145,
				"element": "H" 
			},
			{
				"x": 1.8625804963,
				"y": 4.9688957126,
				"z": -3.0147293944,
				"element": "H" 
			},
			{
				"x": 2.3268114315,
				"y": 6.5867318678,
				"z": -2.4243993641,
				"element": "H" 
			},
			{
				"x": 2.3316413848,
				"y": 3.0039091468,
				"z": -1.8186664461,
				"element": "H" 
			},
			{
				"x": 1.7475056797,
				"y": 0.894774492,
				"z": -0.6649847598,
				"element": "H" 
			},
			{
				"x": 0.3804715335,
				"y": 0.5414462375,
				"z": 2.4263475173,
				"element": "H" 
			},
			{
				"x": 0.1163061909,
				"y": -2.5688389383,
				"z": 0.5760127384,
				"element": "H" 
			},
			{
				"x": 0.4037176451,
				"y": -3.8263125658,
				"z": -1.5758753553,
				"element": "H" 
			},
			{
				"x": -2.0687729242,
				"y": -0.9303622783,
				"z": -3.5764652053,
				"element": "H" 
			},
			{
				"x": -2.341847576,
				"y": 0.3139613187,
				"z": -1.4480946173,
				"element": "H" 
			},
			{
				"x": -0.8705749895,
				"y": -1.6644237483,
				"z": -5.0135932398,
				"element": "H" 
			},
			{
				"x": -0.7301579301,
				"y": 3.04900267,
				"z": 2.0925686227,
				"element": "H" 
			},
			{
				"x": -0.1188458452,
				"y": 5.1870755967,
				"z": 0.9632989457,
				"element": "H" 
			}
		],
		 "valence_orbital": [ 
			{
				"type": "occ",
				"energy": -0.28929,
				"method": "rhf"
			},
			{
				"type": "occ",
				"energy": -0.28365,
				"method": "rhf"
			},
			{
				"type": "occ",
				"energy": -0.2745,
				"method": "rhf"
			},
			{
				"type": "occ",
				"energy": -0.26642,
				"method": "rhf"
			},
			{
				"type": "occ",
				"energy": -0.23354,
				"method": "rhf"
			},
			{
				"type": "unocc",
				"energy": -0.07645,
				"method": "rhf"
			},
			{
				"type": "unocc",
				"energy": -0.03846,
				"method": "rhf"
			},
			{
				"type": "unocc",
				"energy": -0.01726,
				"method": "rhf"
			},
			{
				"type": "unocc",
				"energy": -0.01424,
				"method": "rhf"
			},
			{
				"type": "unocc",
				"energy": 0.02064,
				"method": "rhf"
			}
		],
		"cosmo_sigma_profile": { 
			"-0.025": 0.0,
			"-0.024": 0.0,
			"-0.023": 0.0,
			"-0.022": 0.0,
			"-0.021": 0.0,
			"-0.02": 0.0884114264644,
			"-0.019": 0.785829896772,
			"-0.018": 1.12764088288,
			"-0.017": 0.680083224989,
			"-0.016": 1.42805734515,
			"-0.015": 1.37965317494,
			"-0.014": 1.75955094597,
			"-0.013": 2.40680838237,
			"-0.012": 2.38228322299,
			"-0.011": 1.95004361737,
			"-0.01": 2.78299434174,
			"-0.009": 2.61307527259,
			"-0.008": 6.27369684217,
			"-0.007": 11.5279647146,
			"-0.006": 19.4863142779,
			"-0.005": 22.6278149611,
			"-0.004": 21.3018269576,
			"-0.003": 20.4330201135,
			"-0.002": 17.1398985048,
			"-0.001": 20.4030009743,
			"0.0": 24.3915397854,
			"0.001": 22.0962297476,
			"0.002": 15.4730369394,
			"0.003": 16.3749932545,
			"0.004": 16.5516324697,
			"0.005": 9.61937222717,
			"0.006": 7.47953747143,
			"0.007": 8.04382098128,
			"0.008": 8.38518026227,
			"0.009": 9.13340895419,
			"0.01": 15.0986338239,
			"0.011": 12.6440857109,
			"0.012": 3.91044464664,
			"0.013": 0.450080137251,
			"0.014": 0.0,
			"0.015": 0.0,
			"0.016": 0.0,
			"0.017": 0.0,
			"0.018": 0.0,
			"0.019": 0.0,
			"0.02": 0.0,
			"0.021": 0.0,
			"0.022": 0.0,
			"0.023": 0.0,
			"0.024": 0.0,
			"0.0": 0.0
		}
	}
}
