{
	 "smiles": "CC1=CC=C(NC(=O)C(Cl)C2=CC=CC=C2)C=C1", 
	 "Tm": 418.15, 
	 "num_atms": 32, 
	 "gaussian": { 
		 "optdone": 1, 
		 "sigma_profile": "yes", 
		 "theory": "DFT", 
		 "functional": "B3LYP", 
		 "basiset": "6-31G**", 
		 "properties": { 
			 "R2extent": 5256.3432, 
			 "electric_dipole_moment_norm": 3.41640443742, 
			 "electric_quadrupole_moment_norm": 12.5052865453, 
			 "total_energy": -1170.2160731, 
			 "HOMO_LUMO_gap": 0.20834, 
			 "cosmo_polarized_energy": -11.11, 
			 "cosmo_cavitation_energy": 36.92, 
			 "cosmo_dispersion_energy": -25.44, 
			 "cosmo_repulsion_energy": 1.98, 
			 "cosmo_total_nonelectrostatic_energy": 13.46, 
			 "SMD_solvation_energy": 6.46 
		},
		"coords": [
			{
				"x": -3.5167373123,
				"y": 2.4412525385,
				"z": 1.4074321489,
				"element": "C" 
			},
			{
				"x": -2.4907043136,
				"y": 1.3340185746,
				"z": 1.3579344302,
				"element": "C" 
			},
			{
				"x": -2.118401887,
				"y": 0.643439836,
				"z": 2.5201383048,
				"element": "C" 
			},
			{
				"x": -1.1440463014,
				"y": -0.350513374,
				"z": 2.4870511445,
				"element": "C" 
			},
			{
				"x": -0.5250979379,
				"y": -0.6878529859,
				"z": 1.2785236871,
				"element": "C" 
			},
			{
				"x": 0.4177688792,
				"y": -1.7607032919,
				"z": 1.2598001241,
				"element": "N" 
			},
			{
				"x": 1.7155705638,
				"y": -1.8423910356,
				"z": 0.8353996508,
				"element": "C" 
			},
			{
				"x": 2.2849460456,
				"y": -2.9265809044,
				"z": 0.7697317128,
				"element": "O" 
			},
			{
				"x": 2.5220383407,
				"y": -0.5951003299,
				"z": 0.4188631171,
				"element": "C" 
			},
			{
				"x": 2.3435668685,
				"y": 0.7810405114,
				"z": 1.5986321608,
				"element": "Cl" 
			},
			{
				"x": 2.3149937813,
				"y": -0.2038942591,
				"z": -1.0424550976,
				"element": "C" 
			},
			{
				"x": 2.071547369,
				"y": 1.1059694127,
				"z": -1.4648084507,
				"element": "C" 
			},
			{
				"x": 1.9321460182,
				"y": 1.3930246199,
				"z": -2.8249220063,
				"element": "C" 
			},
			{
				"x": 2.0344309381,
				"y": 0.3785580899,
				"z": -3.776131355,
				"element": "C" 
			},
			{
				"x": 2.2827085743,
				"y": -0.9310973719,
				"z": -3.3591770857,
				"element": "C" 
			},
			{
				"x": 2.4256827876,
				"y": -1.2224387918,
				"z": -2.0033944426,
				"element": "C" 
			},
			{
				"x": -0.907419518,
				"y": -0.0321766508,
				"z": 0.1054360369,
				"element": "C" 
			},
			{
				"x": -1.8689777849,
				"y": 0.9766611803,
				"z": 0.1552190469,
				"element": "C" 
			},
			{
				"x": -4.2853601171,
				"y": 2.2426089331,
				"z": 2.1606645904,
				"element": "H" 
			},
			{
				"x": -3.0509462226,
				"y": 3.4008057753,
				"z": 1.6649393268,
				"element": "H" 
			},
			{
				"x": -4.0139144539,
				"y": 2.5699421178,
				"z": 0.4415105323,
				"element": "H" 
			},
			{
				"x": -2.5916766232,
				"y": 0.8932371909,
				"z": 3.4664166518,
				"element": "H" 
			},
			{
				"x": -0.8505594566,
				"y": -0.8643996705,
				"z": 3.397745661,
				"element": "H" 
			},
			{
				"x": 0.0827986934,
				"y": -2.6674379615,
				"z": 1.5654543137,
				"element": "H" 
			},
			{
				"x": 3.554601589,
				"y": -0.9187652092,
				"z": 0.5518139468,
				"element": "H" 
			},
			{
				"x": 1.9872388794,
				"y": 1.900231803,
				"z": -0.7325203811,
				"element": "H" 
			},
			{
				"x": 1.7432220545,
				"y": 2.416273607,
				"z": -3.1369707475,
				"element": "H" 
			},
			{
				"x": 1.9255288754,
				"y": 0.6051893846,
				"z": -4.8327416645,
				"element": "H" 
			},
			{
				"x": 2.3696156959,
				"y": -1.7300416106,
				"z": -4.0899505699,
				"element": "H" 
			},
			{
				"x": 2.6249421374,
				"y": -2.2405524409,
				"z": -1.6829026097,
				"element": "H" 
			},
			{
				"x": -0.4613395169,
				"y": -0.3172307885,
				"z": -0.8403458084,
				"element": "H" 
			},
			{
				"x": -2.1529666459,
				"y": 1.4820231015,
				"z": -0.7643863685,
				"element": "H" 
			}
		],
		 "valence_orbital": [ 
			{
				"type": "occ",
				"energy": -0.26296,
				"method": "rhf"
			},
			{
				"type": "occ",
				"energy": -0.25815,
				"method": "rhf"
			},
			{
				"type": "occ",
				"energy": -0.25297,
				"method": "rhf"
			},
			{
				"type": "occ",
				"energy": -0.24924,
				"method": "rhf"
			},
			{
				"type": "occ",
				"energy": -0.23109,
				"method": "rhf"
			},
			{
				"type": "unocc",
				"energy": -0.02275,
				"method": "rhf"
			},
			{
				"type": "unocc",
				"energy": -0.01428,
				"method": "rhf"
			},
			{
				"type": "unocc",
				"energy": -0.00661,
				"method": "rhf"
			},
			{
				"type": "unocc",
				"energy": -0.00279,
				"method": "rhf"
			},
			{
				"type": "unocc",
				"energy": 0.00463,
				"method": "rhf"
			}
		],
		"cosmo_sigma_profile": { 
			"-0.025": 0.0,
			"-0.024": 0.0,
			"-0.023": 0.0,
			"-0.022": 0.0,
			"-0.021": 0.0,
			"-0.02": 0.0,
			"-0.019": 0.0,
			"-0.018": 0.0,
			"-0.017": 0.0,
			"-0.016": 0.0,
			"-0.015": 0.378128645114,
			"-0.014": 1.09163724306,
			"-0.013": 0.9285829089,
			"-0.012": 0.628627728874,
			"-0.011": 0.828667656191,
			"-0.01": 1.02466157459,
			"-0.009": 1.29021793998,
			"-0.008": 2.52478809885,
			"-0.007": 2.14876138249,
			"-0.006": 11.3030641251,
			"-0.005": 19.2206118703,
			"-0.004": 26.9453351049,
			"-0.003": 23.8979626515,
			"-0.002": 22.7478482471,
			"-0.001": 25.0435905437,
			"0.0": 26.4552430564,
			"0.001": 22.5334615894,
			"0.002": 22.0341382452,
			"0.003": 21.3579687758,
			"0.004": 20.3567031732,
			"0.005": 21.4221561473,
			"0.006": 6.3697481554,
			"0.007": 1.66657982403,
			"0.008": 1.21364692394,
			"0.009": 1.59616031742,
			"0.01": 1.30394741317,
			"0.011": 1.89577280487,
			"0.012": 3.19480281667,
			"0.013": 4.14951574905,
			"0.014": 0.306471869417,
			"0.015": 0.0,
			"0.016": 0.0,
			"0.017": 0.0,
			"0.018": 0.0,
			"0.019": 0.0,
			"0.02": 0.0,
			"0.021": 0.0,
			"0.022": 0.0,
			"0.023": 0.0,
			"0.024": 0.0,
			"0.025": 0.0
		}
	}
}
