{
	 "smiles": "NC1=C(C#N)C(CC#N)=NN1C1=CC=CC=C1", 
	 "Tm": 436.65, 
	 "num_atms": 26, 
	 "gaussian": { 
		 "optdone": 1, 
		 "sigma_profile": "yes", 
		 "theory": "DFT", 
		 "functional": "B3LYP", 
		 "basiset": "6-31G**", 
		 "properties": { 
			 "R2extent": 4817.5094, 
			 "electric_dipole_moment_norm": 8.65022303238, 
			 "electric_quadrupole_moment_norm": 15.5439438638, 
			 "total_energy": -736.408426821, 
			 "HOMO_LUMO_gap": 0.19694, 
			 "cosmo_polarized_energy": -22.2, 
			 "cosmo_cavitation_energy": 33.28, 
			 "cosmo_dispersion_energy": -22.56, 
			 "cosmo_repulsion_energy": 1.77, 
			 "cosmo_total_nonelectrostatic_energy": 12.49, 
			 "SMD_solvation_energy": 7.57 
		},
		"coords": [
			{
				"x": 0.9513301137,
				"y": 1.5335806921,
				"z": 0.5420219626,
				"element": "N" 
			},
			{
				"x": 0.510190594,
				"y": 0.2378557981,
				"z": 0.6403898824,
				"element": "C" 
			},
			{
				"x": 1.2515438194,
				"y": -0.9344812368,
				"z": 0.8294074504,
				"element": "C" 
			},
			{
				"x": 2.6474798953,
				"y": -0.9980945133,
				"z": 1.0327791917,
				"element": "C" 
			},
			{
				"x": 3.7985585651,
				"y": -1.0126681678,
				"z": 1.2182072613,
				"element": "N" 
			},
			{
				"x": 0.2783486251,
				"y": -1.9774925432,
				"z": 0.8326857754,
				"element": "C" 
			},
			{
				"x": 0.506941342,
				"y": -3.4572848859,
				"z": 0.9966284458,
				"element": "C" 
			},
			{
				"x": 1.053987092,
				"y": -4.0903439965,
				"z": -0.2115715034,
				"element": "C" 
			},
			{
				"x": 1.4803771065,
				"y": -4.5939046287,
				"z": -1.1656979738,
				"element": "N" 
			},
			{
				"x": -0.9416696477,
				"y": -1.5098651319,
				"z": 0.6666536751,
				"element": "N" 
			},
			{
				"x": -0.7946288942,
				"y": -0.1454366464,
				"z": 0.5308990059,
				"element": "N" 
			},
			{
				"x": -1.9501378029,
				"y": 0.6713716215,
				"z": 0.3711620336,
				"element": "C" 
			},
			{
				"x": -1.9270388618,
				"y": 1.7750494426,
				"z": -0.4896565979,
				"element": "C" 
			},
			{
				"x": -3.0720408365,
				"y": 2.5627431823,
				"z": -0.6224388453,
				"element": "C" 
			},
			{
				"x": -4.2354223028,
				"y": 2.2427592622,
				"z": 0.077609716,
				"element": "C" 
			},
			{
				"x": -4.2541940369,
				"y": 1.1243849504,
				"z": 0.9154479791,
				"element": "C" 
			},
			{
				"x": -3.1150591655,
				"y": 0.3382198947,
				"z": 1.0709374619,
				"element": "C" 
			},
			{
				"x": 0.3097608516,
				"y": 2.251485007,
				"z": 0.8525019393,
				"element": "H" 
			},
			{
				"x": 1.9015946168,
				"y": 1.6701815937,
				"z": 0.8614400913,
				"element": "H" 
			},
			{
				"x": -0.4496818579,
				"y": -3.9310529077,
				"z": 1.2376883795,
				"element": "H" 
			},
			{
				"x": 1.1956031353,
				"y": -3.6488874656,
				"z": 1.8279403394,
				"element": "H" 
			},
			{
				"x": -1.0369068912,
				"y": 1.9972303738,
				"z": -1.0680093449,
				"element": "H" 
			},
			{
				"x": -3.0546828025,
				"y": 3.4176744047,
				"z": -1.2915595527,
				"element": "H" 
			},
			{
				"x": -5.1248866175,
				"y": 2.8549505737,
				"z": -0.0345553918,
				"element": "H" 
			},
			{
				"x": -5.1590595733,
				"y": 0.8645304029,
				"z": 1.4564119231,
				"element": "H" 
			},
			{
				"x": -3.1138064658,
				"y": -0.5342050759,
				"z": 1.7134766962,
				"element": "H" 
			}
		],
		 "valence_orbital": [ 
			{
				"type": "occ",
				"energy": -0.31191,
				"method": "rhf"
			},
			{
				"type": "occ",
				"energy": -0.30226,
				"method": "rhf"
			},
			{
				"type": "occ",
				"energy": -0.27721,
				"method": "rhf"
			},
			{
				"type": "occ",
				"energy": -0.25078,
				"method": "rhf"
			},
			{
				"type": "occ",
				"energy": -0.23817,
				"method": "rhf"
			},
			{
				"type": "unocc",
				"energy": -0.04123,
				"method": "rhf"
			},
			{
				"type": "unocc",
				"energy": -0.02934,
				"method": "rhf"
			},
			{
				"type": "unocc",
				"energy": -0.01116,
				"method": "rhf"
			},
			{
				"type": "unocc",
				"energy": 0.01009,
				"method": "rhf"
			},
			{
				"type": "unocc",
				"energy": 0.01618,
				"method": "rhf"
			}
		],
		"cosmo_sigma_profile": { 
			"-0.025": 0.0,
			"-0.024": 0.0,
			"-0.023": 0.0,
			"-0.022": 0.0,
			"-0.021": 0.0,
			"-0.02": 0.0,
			"-0.019": 0.0,
			"-0.018": 0.0,
			"-0.017": 0.0,
			"-0.016": 0.0,
			"-0.015": 0.800007621119,
			"-0.014": 1.78166852051,
			"-0.013": 2.62494932622,
			"-0.012": 2.65815611664,
			"-0.011": 2.4694450147,
			"-0.01": 4.83304011024,
			"-0.009": 6.93242970947,
			"-0.008": 7.56626942857,
			"-0.007": 7.90008700828,
			"-0.006": 16.479290005,
			"-0.005": 16.8395269258,
			"-0.004": 15.7172962279,
			"-0.003": 12.7386449716,
			"-0.002": 14.93893201,
			"-0.001": 17.0843427791,
			"0.0": 17.0147534927,
			"0.001": 15.1090812387,
			"0.002": 12.5651177096,
			"0.003": 15.9766113633,
			"0.004": 16.9608006313,
			"0.005": 7.31593429551,
			"0.006": 7.30290002891,
			"0.007": 6.70415408347,
			"0.008": 7.66061358023,
			"0.009": 7.7576635946,
			"0.01": 7.01760661154,
			"0.011": 7.03503382991,
			"0.012": 5.4024091494,
			"0.013": 3.90005387805,
			"0.014": 0.310254004583,
			"0.015": 0.0,
			"0.016": 0.0,
			"0.017": 0.0,
			"0.018": 0.0,
			"0.019": 0.0,
			"0.02": 0.0,
			"0.021": 0.0,
			"0.022": 0.0,
			"0.023": 0.0,
			"0.024": 0.0,
			"0.025": 0.0
		}
	}
}
