{
	 "smiles": "OC(=O)C1(CC1)C1=CC(F)=CC=C1", 
	 "Tm": 389.15, 
	 "num_atms": 22, 
	 "gaussian": { 
		 "optdone": 1, 
		 "sigma_profile": "yes", 
		 "theory": "DFT", 
		 "functional": "B3LYP", 
		 "basiset": "6-31G**", 
		 "properties": { 
			 "R2extent": 2614.2349, 
			 "electric_dipole_moment_norm": 4.27622939282, 
			 "electric_quadrupole_moment_norm": 11.9240592279, 
			 "total_energy": -636.753796496, 
			 "HOMO_LUMO_gap": 0.22136, 
			 "cosmo_polarized_energy": -11.93, 
			 "cosmo_cavitation_energy": 26.53, 
			 "cosmo_dispersion_energy": -18.6, 
			 "cosmo_repulsion_energy": 1.44, 
			 "cosmo_total_nonelectrostatic_energy": 9.37, 
			 "SMD_solvation_energy": 6.03 
		},
		"coords": [
			{
				"x": 0.7998361146,
				"y": 0.9600333413,
				"z": 1.4653970677,
				"element": "O" 
			},
			{
				"x": 0.2539170991,
				"y": 1.8580223415,
				"z": 0.6138336996,
				"element": "C" 
			},
			{
				"x": 0.1553915847,
				"y": 3.0212432038,
				"z": 0.9303574726,
				"element": "O" 
			},
			{
				"x": -0.2080650415,
				"y": 1.328992823,
				"z": -0.7291828853,
				"element": "C" 
			},
			{
				"x": -1.382895783,
				"y": 2.0946391241,
				"z": -1.3246679652,
				"element": "C" 
			},
			{
				"x": -0.014260245,
				"y": 2.3187239464,
				"z": -1.8762709488,
				"element": "C" 
			},
			{
				"x": -0.0642523625,
				"y": -0.1461019112,
				"z": -0.9912036704,
				"element": "C" 
			},
			{
				"x": -1.1413932661,
				"y": -1.0179696971,
				"z": -0.7717049803,
				"element": "C" 
			},
			{
				"x": -0.9715164157,
				"y": -2.3799240811,
				"z": -0.9910631728,
				"element": "C" 
			},
			{
				"x": -2.0166679381,
				"y": -3.2050185938,
				"z": -0.7837714616,
				"element": "F" 
			},
			{
				"x": 0.2385024097,
				"y": -2.9196645018,
				"z": -1.414208028,
				"element": "C" 
			},
			{
				"x": 1.3113761882,
				"y": -2.052386178,
				"z": -1.6229915537,
				"element": "C" 
			},
			{
				"x": 1.1654283419,
				"y": -0.6793124224,
				"z": -1.4146179905,
				"element": "C" 
			},
			{
				"x": 0.8083174074,
				"y": 0.0815174461,
				"z": 1.0535527922,
				"element": "H" 
			},
			{
				"x": -2.0889972396,
				"y": 1.5214252188,
				"z": -1.9168878349,
				"element": "H" 
			},
			{
				"x": -1.8080081153,
				"y": 2.8727290724,
				"z": -0.7004933234,
				"element": "H" 
			},
			{
				"x": 0.485597919,
				"y": 3.2476387525,
				"z": -1.624547966,
				"element": "H" 
			},
			{
				"x": 0.2282080517,
				"y": 1.8953091796,
				"z": -2.845757831,
				"element": "H" 
			},
			{
				"x": -2.1052776525,
				"y": -0.6464550651,
				"z": -0.4403213872,
				"element": "H" 
			},
			{
				"x": 0.3236094356,
				"y": -3.9890257436,
				"z": -1.5728397156,
				"element": "H" 
			},
			{
				"x": 2.2651396998,
				"y": -2.4506404716,
				"z": -1.9555326265,
				"element": "H" 
			},
			{
				"x": 2.0024098076,
				"y": -0.0100757835,
				"z": -1.5907776909,
				"element": "H" 
			}
		],
		 "valence_orbital": [ 
			{
				"type": "occ",
				"energy": -0.31797,
				"method": "rhf"
			},
			{
				"type": "occ",
				"energy": -0.29712,
				"method": "rhf"
			},
			{
				"type": "occ",
				"energy": -0.28675,
				"method": "rhf"
			},
			{
				"type": "occ",
				"energy": -0.2678,
				"method": "rhf"
			},
			{
				"type": "occ",
				"energy": -0.25617,
				"method": "rhf"
			},
			{
				"type": "unocc",
				"energy": -0.03481,
				"method": "rhf"
			},
			{
				"type": "unocc",
				"energy": -0.02149,
				"method": "rhf"
			},
			{
				"type": "unocc",
				"energy": 0.01124,
				"method": "rhf"
			},
			{
				"type": "unocc",
				"energy": 0.07566,
				"method": "rhf"
			},
			{
				"type": "unocc",
				"energy": 0.08988,
				"method": "rhf"
			}
		],
		"cosmo_sigma_profile": { 
			"-0.025": 0.0,
			"-0.024": 0.0,
			"-0.023": 0.0,
			"-0.022": 0.0,
			"-0.021": 0.0,
			"-0.02": 0.0,
			"-0.019": 0.0,
			"-0.018": 0.0,
			"-0.017": 0.0,
			"-0.016": 0.0,
			"-0.015": 0.174528930952,
			"-0.014": 0.430242634048,
			"-0.013": 0.394806485797,
			"-0.012": 0.73364904415,
			"-0.011": 0.598342799365,
			"-0.01": 1.10135727065,
			"-0.009": 0.899931960509,
			"-0.008": 1.65659078769,
			"-0.007": 6.14985300474,
			"-0.006": 11.4696886209,
			"-0.005": 17.7756061985,
			"-0.004": 18.2043488398,
			"-0.003": 14.3096942119,
			"-0.002": 17.2363082794,
			"-0.001": 16.5254603773,
			"0.0": 16.2361498981,
			"0.001": 16.237200493,
			"0.002": 12.7031478589,
			"0.003": 12.9131690858,
			"0.004": 14.2116274275,
			"0.005": 4.89965862022,
			"0.006": 2.35736431934,
			"0.007": 2.76646047552,
			"0.008": 1.86386078627,
			"0.009": 3.7215155864,
			"0.01": 3.79722719218,
			"0.011": 4.28117283341,
			"0.012": 5.28353697138,
			"0.013": 2.42473416701,
			"0.014": 0.266061376181,
			"0.015": 0.0,
			"0.016": 0.0,
			"0.017": 0.0,
			"0.018": 0.0,
			"0.019": 0.0,
			"0.02": 0.0,
			"0.021": 0.0,
			"0.022": 0.0,
			"0.023": 0.0,
			"0.024": 0.0,
			"0.025": 0.0
		}
	}
}
