{
	 "smiles": "CCOC(=O)C1=NN(C2=CC(=NN2)C2=CC=C(OC)C=C2)C(=N)C(C2=NC3=C(S2)C=CC=C3)=C1C", 
	 "Tm": 448.15, 
	 "num_atms": 57, 
	 "gaussian": { 
		 "optdone": 1, 
		 "sigma_profile": "yes", 
		 "theory": "DFT", 
		 "functional": "B3LYP", 
		 "basiset": "6-31G**", 
		 "properties": { 
			 "R2extent": 29948.9747, 
			 "electric_dipole_moment_norm": 3.54276788543, 
			 "electric_quadrupole_moment_norm": 35.5732306152, 
			 "total_energy": -1918.24480703, 
			 "HOMO_LUMO_gap": 0.10439, 
			 "cosmo_polarized_energy": -19.99, 
			 "cosmo_cavitation_energy": 63.48, 
			 "cosmo_dispersion_energy": -45.27, 
			 "cosmo_repulsion_energy": 3.31, 
			 "cosmo_total_nonelectrostatic_energy": 21.53, 
			 "SMD_solvation_energy": 7.99 
		},
		"coords": [
			{
				"x": 4.120926056,
				"y": -2.0766942843,
				"z": -2.0602635148,
				"element": "C" 
			},
			{
				"x": 2.9044807092,
				"y": -1.648099072,
				"z": -2.866643484,
				"element": "C" 
			},
			{
				"x": 2.0352836995,
				"y": -0.7867137983,
				"z": -2.0900303935,
				"element": "O" 
			},
			{
				"x": 2.3309770487,
				"y": 0.5227796756,
				"z": -2.0998892379,
				"element": "C" 
			},
			{
				"x": 3.2800577755,
				"y": 1.0034504185,
				"z": -2.6920111632,
				"element": "O" 
			},
			{
				"x": 1.34790314,
				"y": 1.3371044863,
				"z": -1.3073257714,
				"element": "C" 
			},
			{
				"x": 0.2530437969,
				"y": 0.7020780221,
				"z": -0.978301457,
				"element": "N" 
			},
			{
				"x": -0.7175695092,
				"y": 1.3277450224,
				"z": -0.3190411346,
				"element": "N" 
			},
			{
				"x": -1.820171177,
				"y": 0.4842830033,
				"z": -0.0341748026,
				"element": "C" 
			},
			{
				"x": -1.9632252411,
				"y": -0.8682825041,
				"z": -0.2969174494,
				"element": "C" 
			},
			{
				"x": -3.2492073077,
				"y": -1.1838316827,
				"z": 0.2045343907,
				"element": "C" 
			},
			{
				"x": -3.841915904,
				"y": -0.0978860377,
				"z": 0.7333986948,
				"element": "N" 
			},
			{
				"x": -2.9587120209,
				"y": 0.8988447923,
				"z": 0.5774474989,
				"element": "N" 
			},
			{
				"x": -3.9377831825,
				"y": -2.4839291104,
				"z": 0.2006192068,
				"element": "C" 
			},
			{
				"x": -5.2186883843,
				"y": -2.615541324,
				"z": 0.7537445606,
				"element": "C" 
			},
			{
				"x": -5.8880921572,
				"y": -3.8388374629,
				"z": 0.760002161,
				"element": "C" 
			},
			{
				"x": -5.2763477723,
				"y": -4.9692357163,
				"z": 0.2036838535,
				"element": "C" 
			},
			{
				"x": -5.8367222902,
				"y": -6.214500947,
				"z": 0.1549064628,
				"element": "O" 
			},
			{
				"x": -7.1325691896,
				"y": -6.3869847696,
				"z": 0.7034597959,
				"element": "C" 
			},
			{
				"x": -3.9948381235,
				"y": -4.8540596217,
				"z": -0.3538421778,
				"element": "C" 
			},
			{
				"x": -3.340428374,
				"y": -3.6300845885,
				"z": -0.3532843316,
				"element": "C" 
			},
			{
				"x": -0.6807449388,
				"y": 2.7016378903,
				"z": 0.0423569425,
				"element": "C" 
			},
			{
				"x": -1.7261754914,
				"y": 3.2107561152,
				"z": 0.5997041881,
				"element": "N" 
			},
			{
				"x": 0.5848077479,
				"y": 3.3650585344,
				"z": -0.2808722743,
				"element": "C" 
			},
			{
				"x": 0.7157988406,
				"y": 4.7810240614,
				"z": 0.1373176424,
				"element": "C" 
			},
			{
				"x": 0.8636604511,
				"y": 5.774025899,
				"z": -0.6812040821,
				"element": "N" 
			},
			{
				"x": 1.0037985182,
				"y": 6.9761013685,
				"z": -0.0069327501,
				"element": "C" 
			},
			{
				"x": 0.9629817321,
				"y": 6.8881514008,
				"z": 1.4063262568,
				"element": "C" 
			},
			{
				"x": 0.7378680662,
				"y": 5.217785696,
				"z": 1.8757180838,
				"element": "S" 
			},
			{
				"x": 1.0910206742,
				"y": 8.0251169498,
				"z": 2.2096313259,
				"element": "C" 
			},
			{
				"x": 1.2622416814,
				"y": 9.2542043395,
				"z": 1.5790786978,
				"element": "C" 
			},
			{
				"x": 1.3039640272,
				"y": 9.3541138317,
				"z": 0.1763502187,
				"element": "C" 
			},
			{
				"x": 1.1754519103,
				"y": 8.2255814823,
				"z": -0.6223081787,
				"element": "C" 
			},
			{
				"x": 1.5957680564,
				"y": 2.7213365845,
				"z": -0.9526762856,
				"element": "C" 
			},
			{
				"x": 2.9101592008,
				"y": 3.3840441068,
				"z": -1.2677088251,
				"element": "C" 
			},
			{
				"x": 4.7141277569,
				"y": -2.7924502936,
				"z": -2.638990874,
				"element": "H" 
			},
			{
				"x": 3.81862514,
				"y": -2.557569263,
				"z": -1.1254696698,
				"element": "H" 
			},
			{
				"x": 4.753411209,
				"y": -1.2161388126,
				"z": -1.8292702591,
				"element": "H" 
			},
			{
				"x": 2.2725557353,
				"y": -2.5012525397,
				"z": -3.1232592619,
				"element": "H" 
			},
			{
				"x": 3.1986227049,
				"y": -1.1247312713,
				"z": -3.779284183,
				"element": "H" 
			},
			{
				"x": -1.2362979782,
				"y": -1.5023560749,
				"z": -0.7752727401,
				"element": "H" 
			},
			{
				"x": -3.1102928675,
				"y": 1.8592525188,
				"z": 0.8733147002,
				"element": "H" 
			},
			{
				"x": -5.6927556269,
				"y": -1.7402017434,
				"z": 1.18470885,
				"element": "H" 
			},
			{
				"x": -6.8777557251,
				"y": -3.8981646182,
				"z": 1.1976392117,
				"element": "H" 
			},
			{
				"x": -7.3839321536,
				"y": -7.4392910632,
				"z": 0.5603206596,
				"element": "H" 
			},
			{
				"x": -7.8776667961,
				"y": -5.765776538,
				"z": 0.1893757873,
				"element": "H" 
			},
			{
				"x": -7.1542227239,
				"y": -6.154463738,
				"z": 1.7762320187,
				"element": "H" 
			},
			{
				"x": -3.5341807056,
				"y": -5.7387276252,
				"z": -0.7813778937,
				"element": "H" 
			},
			{
				"x": -2.3490034028,
				"y": -3.5658598126,
				"z": -0.7915607873,
				"element": "H" 
			},
			{
				"x": -1.5942295759,
				"y": 4.1974167598,
				"z": 0.8037387444,
				"element": "H" 
			},
			{
				"x": 1.0584275525,
				"y": 7.9553754275,
				"z": 3.291935783,
				"element": "H" 
			},
			{
				"x": 1.364157048,
				"y": 10.1509180071,
				"z": 2.1828474882,
				"element": "H" 
			},
			{
				"x": 1.4378295901,
				"y": 10.327451935,
				"z": -0.2853966768,
				"element": "H" 
			},
			{
				"x": 1.2044171214,
				"y": 8.2836741007,
				"z": -1.7052075773,
				"element": "H" 
			},
			{
				"x": 2.998335243,
				"y": 4.3446857083,
				"z": -0.7638748007,
				"element": "H" 
			},
			{
				"x": 3.0078452267,
				"y": 3.5448111905,
				"z": -2.344518068,
				"element": "H" 
			},
			{
				"x": 3.7439811592,
				"y": 2.7390549849,
				"z": -0.983383119,
				"element": "H" 
			}
		],
		 "valence_orbital": [ 
			{
				"type": "occ",
				"energy": -0.24908,
				"method": "rhf"
			},
			{
				"type": "occ",
				"energy": -0.24747,
				"method": "rhf"
			},
			{
				"type": "occ",
				"energy": -0.24088,
				"method": "rhf"
			},
			{
				"type": "occ",
				"energy": -0.21692,
				"method": "rhf"
			},
			{
				"type": "occ",
				"energy": -0.19261,
				"method": "rhf"
			},
			{
				"type": "unocc",
				"energy": -0.08822,
				"method": "rhf"
			},
			{
				"type": "unocc",
				"energy": -0.051,
				"method": "rhf"
			},
			{
				"type": "unocc",
				"energy": -0.04194,
				"method": "rhf"
			},
			{
				"type": "unocc",
				"energy": -0.01892,
				"method": "rhf"
			},
			{
				"type": "unocc",
				"energy": -0.00389,
				"method": "rhf"
			}
		],
		"cosmo_sigma_profile": { 
			"-0.025": 0.0,
			"-0.024": 0.0,
			"-0.023": 0.0,
			"-0.022": 0.0,
			"-0.021": 0.0,
			"-0.02": 0.0,
			"-0.019": 0.0,
			"-0.018": 0.0,
			"-0.017": 0.0,
			"-0.016": 0.0,
			"-0.015": 0.0,
			"-0.014": 0.0,
			"-0.013": 0.0,
			"-0.012": 0.0,
			"-0.011": 0.111977023254,
			"-0.01": 1.17945401813,
			"-0.009": 1.40003956441,
			"-0.008": 3.11636332811,
			"-0.007": 9.66916316671,
			"-0.006": 23.6100316643,
			"-0.005": 39.7559013061,
			"-0.004": 50.3453374668,
			"-0.003": 49.1737970429,
			"-0.002": 41.0570464002,
			"-0.001": 37.6378402363,
			"0.0": 35.9192275602,
			"0.001": 34.5419956487,
			"0.002": 31.9965383087,
			"0.003": 36.1486061993,
			"0.004": 38.3231464654,
			"0.005": 25.616198333,
			"0.006": 11.9375658581,
			"0.007": 8.08184502925,
			"0.008": 8.78079316386,
			"0.009": 5.79602921421,
			"0.01": 6.70744554096,
			"0.011": 5.35469279142,
			"0.012": 1.93377597373,
			"0.013": 2.01461829088,
			"0.014": 0.797942483129,
			"0.015": 0.0,
			"0.016": 0.0,
			"0.017": 0.0,
			"0.018": 0.0,
			"0.019": 0.0,
			"0.02": 0.0,
			"0.021": 0.0,
			"0.022": 0.0,
			"0.023": 0.0,
			"0.024": 0.0,
			"0.025": 0.0
		}
	}
}
