{
	 "smiles": "OC[C@H](NC(=O)OCC1=CC=CC=C1)C(=O)OCC1=CC=CC=C1", 
	 "Tm": 356.15, 
	 "num_atms": 43, 
	 "gaussian": { 
		 "optdone": 1, 
		 "sigma_profile": "yes", 
		 "theory": "DFT", 
		 "functional": "B3LYP", 
		 "basiset": "6-31G**", 
		 "properties": { 
			 "R2extent": 8337.3476, 
			 "electric_dipole_moment_norm": 1.7458937081, 
			 "electric_quadrupole_moment_norm": 20.2492791491, 
			 "total_energy": -1128.25851118, 
			 "HOMO_LUMO_gap": 0.22986, 
			 "cosmo_polarized_energy": -19.02, 
			 "cosmo_cavitation_energy": 47.83, 
			 "cosmo_dispersion_energy": -30.46, 
			 "cosmo_repulsion_energy": 2.35, 
			 "cosmo_total_nonelectrostatic_energy": 19.71, 
			 "SMD_solvation_energy": 9.27 
		},
		"coords": [
			{
				"x": 2.655984049,
				"y": -4.4262230041,
				"z": 1.2194433975,
				"element": "O" 
			},
			{
				"x": 2.249312773,
				"y": -3.5761409991,
				"z": 2.2874758425,
				"element": "C" 
			},
			{
				"x": 1.2579905856,
				"y": -2.5772749026,
				"z": 1.6892795745,
				"element": "C" 
			},
			{
				"x": 0.1844874925,
				"y": -3.2975182707,
				"z": 1.0419531146,
				"element": "N" 
			},
			{
				"x": -1.1082273691,
				"y": -2.8896574122,
				"z": 0.8977990325,
				"element": "C" 
			},
			{
				"x": -1.9411704462,
				"y": -3.4947526325,
				"z": 0.2420823327,
				"element": "O" 
			},
			{
				"x": -1.3545499787,
				"y": -1.7548252924,
				"z": 1.60636885,
				"element": "O" 
			},
			{
				"x": -2.7353973533,
				"y": -1.3130778159,
				"z": 1.6338324554,
				"element": "C" 
			},
			{
				"x": -3.0405333908,
				"y": -0.2743855675,
				"z": 0.5806177854,
				"element": "C" 
			},
			{
				"x": -3.2374194563,
				"y": 1.0625513918,
				"z": 0.942780166,
				"element": "C" 
			},
			{
				"x": -3.5544888157,
				"y": 2.023630018,
				"z": -0.0200233241,
				"element": "C" 
			},
			{
				"x": -3.6676030237,
				"y": 1.6548388784,
				"z": -1.3611939066,
				"element": "C" 
			},
			{
				"x": -3.4661579949,
				"y": 0.3217753297,
				"z": -1.7333152351,
				"element": "C" 
			},
			{
				"x": -3.1596770258,
				"y": -0.6388553008,
				"z": -0.7698060033,
				"element": "C" 
			},
			{
				"x": 2.0211988354,
				"y": -1.5868125487,
				"z": 0.7862727078,
				"element": "C" 
			},
			{
				"x": 3.0776199797,
				"y": -1.0896238131,
				"z": 1.1169438118,
				"element": "O" 
			},
			{
				"x": 1.3780565315,
				"y": -1.3321274127,
				"z": -0.3606183479,
				"element": "O" 
			},
			{
				"x": 2.0117974168,
				"y": -0.36854601,
				"z": -1.2527371298,
				"element": "C" 
			},
			{
				"x": 1.7275745559,
				"y": 1.0586997801,
				"z": -0.8565658886,
				"element": "C" 
			},
			{
				"x": 0.4513897593,
				"y": 1.6041216612,
				"z": -1.0500531653,
				"element": "C" 
			},
			{
				"x": 0.1877293063,
				"y": 2.9260767158,
				"z": -0.6930384806,
				"element": "C" 
			},
			{
				"x": 1.1992187732,
				"y": 3.7181571203,
				"z": -0.1443214365,
				"element": "C" 
			},
			{
				"x": 2.4719173253,
				"y": 3.1804795439,
				"z": 0.0551638842,
				"element": "C" 
			},
			{
				"x": 2.7326118618,
				"y": 1.8546975658,
				"z": -0.2939984716,
				"element": "C" 
			},
			{
				"x": 3.3004448772,
				"y": -5.0600663254,
				"z": 1.5552123079,
				"element": "H" 
			},
			{
				"x": 1.7469407314,
				"y": -4.1437658563,
				"z": 3.0833974729,
				"element": "H" 
			},
			{
				"x": 3.0936598812,
				"y": -3.0208221637,
				"z": 2.7115851855,
				"element": "H" 
			},
			{
				"x": 0.8354168693,
				"y": -1.9766319523,
				"z": 2.5002549327,
				"element": "H" 
			},
			{
				"x": 0.4540857535,
				"y": -4.0710468716,
				"z": 0.45097529,
				"element": "H" 
			},
			{
				"x": -2.8713659022,
				"y": -0.895298309,
				"z": 2.6340663041,
				"element": "H" 
			},
			{
				"x": -3.3746496095,
				"y": -2.1901920287,
				"z": 1.5128480633,
				"element": "H" 
			},
			{
				"x": -3.1476729464,
				"y": 1.3537694302,
				"z": 1.9865689999,
				"element": "H" 
			},
			{
				"x": -3.7149803122,
				"y": 3.0559339449,
				"z": 0.2782868052,
				"element": "H" 
			},
			{
				"x": -3.9181657481,
				"y": 2.3986920008,
				"z": -2.1124439607,
				"element": "H" 
			},
			{
				"x": -3.5611734132,
				"y": 0.0287419624,
				"z": -2.7752661721,
				"element": "H" 
			},
			{
				"x": -3.0113460329,
				"y": -1.6774382201,
				"z": -1.0486780214,
				"element": "H" 
			},
			{
				"x": 1.5780043369,
				"y": -0.6048322135,
				"z": -2.2265363531,
				"element": "H" 
			},
			{
				"x": 3.085338741,
				"y": -0.5665082156,
				"z": -1.2706717173,
				"element": "H" 
			},
			{
				"x": -0.3405829163,
				"y": 0.9913225565,
				"z": -1.4724069631,
				"element": "H" 
			},
			{
				"x": -0.8075407871,
				"y": 3.3327488195,
				"z": -0.8432632921,
				"element": "H" 
			},
			{
				"x": 0.9952120143,
				"y": 4.7498996701,
				"z": 0.1286010826,
				"element": "H" 
			},
			{
				"x": 3.2602434544,
				"y": 3.7903311405,
				"z": 0.4873501944,
				"element": "H" 
			},
			{
				"x": 3.7142666179,
				"y": 1.4253556089,
				"z": -0.1185217242,
				"element": "H" 
			}
		],
		 "valence_orbital": [ 
			{
				"type": "occ",
				"energy": -0.25136,
				"method": "rhf"
			},
			{
				"type": "occ",
				"energy": -0.24837,
				"method": "rhf"
			},
			{
				"type": "occ",
				"energy": -0.24636,
				"method": "rhf"
			},
			{
				"type": "occ",
				"energy": -0.24488,
				"method": "rhf"
			},
			{
				"type": "occ",
				"energy": -0.23971,
				"method": "rhf"
			},
			{
				"type": "unocc",
				"energy": -0.00985,
				"method": "rhf"
			},
			{
				"type": "unocc",
				"energy": -0.00678,
				"method": "rhf"
			},
			{
				"type": "unocc",
				"energy": -0.00155,
				"method": "rhf"
			},
			{
				"type": "unocc",
				"energy": 0.00392,
				"method": "rhf"
			},
			{
				"type": "unocc",
				"energy": 0.01093,
				"method": "rhf"
			}
		],
		"cosmo_sigma_profile": { 
			"-0.025": 0.0,
			"-0.024": 0.0,
			"-0.023": 0.0,
			"-0.022": 0.0,
			"-0.021": 0.0,
			"-0.02": 0.0,
			"-0.019": 0.0,
			"-0.018": 0.0,
			"-0.017": 0.219199042248,
			"-0.016": 1.26347427526,
			"-0.015": 1.14738983815,
			"-0.014": 0.69991789277,
			"-0.013": 0.993455606765,
			"-0.012": 1.37901174719,
			"-0.011": 1.36327389102,
			"-0.01": 1.29855658728,
			"-0.009": 1.43702452306,
			"-0.008": 3.03124124201,
			"-0.007": 5.92763661876,
			"-0.006": 18.4905693261,
			"-0.005": 33.0123443263,
			"-0.004": 34.675884879,
			"-0.003": 30.9066283775,
			"-0.002": 23.2205142314,
			"-0.001": 24.2062820547,
			"0.0": 25.3647648258,
			"0.001": 25.4836848076,
			"0.002": 25.7405220555,
			"0.003": 25.1584086769,
			"0.004": 25.3722154629,
			"0.005": 25.0721601603,
			"0.006": 12.2763456028,
			"0.007": 5.34854978106,
			"0.008": 4.89034256137,
			"0.009": 4.84737176308,
			"0.01": 3.7164224866,
			"0.011": 4.47468889572,
			"0.012": 3.97650808416,
			"0.013": 3.90363277839,
			"0.014": 0.737452008261,
			"0.015": 0.0,
			"0.016": 0.0,
			"0.017": 0.0,
			"0.018": 0.0,
			"0.019": 0.0,
			"0.02": 0.0,
			"0.021": 0.0,
			"0.022": 0.0,
			"0.023": 0.0,
			"0.024": 0.0,
			"0.025": 0.0
		}
	}
}
