{
	 "smiles": "NS(=O)(=O)C1=CC=C(OCCC(O)=O)C=C1", 
	 "Tm": 414.15, 
	 "num_atms": 27, 
	 "gaussian": { 
		 "optdone": 1, 
		 "sigma_profile": "yes", 
		 "theory": "DFT", 
		 "functional": "B3LYP", 
		 "basiset": "6-31G**", 
		 "properties": { 
			 "R2extent": 6670.4071, 
			 "electric_dipole_moment_norm": 7.3643733155, 
			 "electric_quadrupole_moment_norm": 28.2723134557, 
			 "total_energy": -1178.58382213, 
			 "HOMO_LUMO_gap": 0.21219, 
			 "cosmo_polarized_energy": -26.76, 
			 "cosmo_cavitation_energy": 33.78, 
			 "cosmo_dispersion_energy": -24.78, 
			 "cosmo_repulsion_energy": 1.92, 
			 "cosmo_total_nonelectrostatic_energy": 10.93, 
			 "SMD_solvation_energy": 6.78 
		},
		"coords": [
			{
				"x": -1.0781238683,
				"y": -3.1574891833,
				"z": -2.6677894437,
				"element": "N" 
			},
			{
				"x": -0.9638746827,
				"y": -1.5814618725,
				"z": -3.2541309987,
				"element": "S" 
			},
			{
				"x": -2.3430551176,
				"y": -1.1513325936,
				"z": -3.481560758,
				"element": "O" 
			},
			{
				"x": 0.0407433084,
				"y": -1.6356282432,
				"z": -4.3153900602,
				"element": "O" 
			},
			{
				"x": -0.2964465614,
				"y": -0.573187299,
				"z": -1.9317583156,
				"element": "C" 
			},
			{
				"x": 1.0913690626,
				"y": -0.4458608252,
				"z": -1.7864909733,
				"element": "C" 
			},
			{
				"x": 1.6045088415,
				"y": 0.3133857316,
				"z": -0.7459176058,
				"element": "C" 
			},
			{
				"x": 0.7378674408,
				"y": 0.9554689117,
				"z": 0.1556397889,
				"element": "C" 
			},
			{
				"x": 1.3425445605,
				"y": 1.6766450682,
				"z": 1.1353673478,
				"element": "O" 
			},
			{
				"x": 0.5331464707,
				"y": 2.3520452964,
				"z": 2.099269086,
				"element": "C" 
			},
			{
				"x": 1.4793363939,
				"y": 2.9799983677,
				"z": 3.1078310095,
				"element": "C" 
			},
			{
				"x": 2.122841025,
				"y": 1.9394628831,
				"z": 4.0056580284,
				"element": "C" 
			},
			{
				"x": 3.3077332771,
				"y": 2.367639373,
				"z": 4.4935264987,
				"element": "O" 
			},
			{
				"x": 1.6376632046,
				"y": 0.8680191702,
				"z": 4.2927456199,
				"element": "O" 
			},
			{
				"x": -0.6504095605,
				"y": 0.8380387223,
				"z": -0.0025210601,
				"element": "C" 
			},
			{
				"x": -1.1624780414,
				"y": 0.0720411468,
				"z": -1.0501504191,
				"element": "C" 
			},
			{
				"x": -0.1705257025,
				"y": -3.5584397982,
				"z": -2.4522162748,
				"element": "H" 
			},
			{
				"x": -1.7354077795,
				"y": -3.2389696975,
				"z": -1.8981685197,
				"element": "H" 
			},
			{
				"x": 1.7541596442,
				"y": -0.922091538,
				"z": -2.5012785944,
				"element": "H" 
			},
			{
				"x": 2.6739340807,
				"y": 0.435170832,
				"z": -0.6111986682,
				"element": "H" 
			},
			{
				"x": -0.1290209496,
				"y": 1.6394456551,
				"z": 2.603983999,
				"element": "H" 
			},
			{
				"x": -0.072998623,
				"y": 3.1235522749,
				"z": 1.6071608196,
				"element": "H" 
			},
			{
				"x": 2.2509643243,
				"y": 3.5688655447,
				"z": 2.6056466134,
				"element": "H" 
			},
			{
				"x": 0.9186751999,
				"y": 3.6671602033,
				"z": 3.7541063672,
				"element": "H" 
			},
			{
				"x": 3.6326529713,
				"y": 1.6642953557,
				"z": 5.0812749697,
				"element": "H" 
			},
			{
				"x": -1.3344025674,
				"y": 1.3400056937,
				"z": 0.6705926723,
				"element": "H" 
			},
			{
				"x": -2.2344963516,
				"y": -0.0069791798,
				"z": -1.1969311287,
				"element": "H" 
			}
		],
		 "valence_orbital": [ 
			{
				"type": "occ",
				"energy": -0.29842,
				"method": "rhf"
			},
			{
				"type": "occ",
				"energy": -0.29808,
				"method": "rhf"
			},
			{
				"type": "occ",
				"energy": -0.29139,
				"method": "rhf"
			},
			{
				"type": "occ",
				"energy": -0.27392,
				"method": "rhf"
			},
			{
				"type": "occ",
				"energy": -0.2411,
				"method": "rhf"
			},
			{
				"type": "unocc",
				"energy": -0.02891,
				"method": "rhf"
			},
			{
				"type": "unocc",
				"energy": -0.02318,
				"method": "rhf"
			},
			{
				"type": "unocc",
				"energy": -0.00455,
				"method": "rhf"
			},
			{
				"type": "unocc",
				"energy": 0.05507,
				"method": "rhf"
			},
			{
				"type": "unocc",
				"energy": 0.0668,
				"method": "rhf"
			}
		],
		"cosmo_sigma_profile": { 
			"-0.025": 0.0,
			"-0.024": 0.0,
			"-0.023": 0.0,
			"-0.022": 0.0,
			"-0.021": 0.0,
			"-0.02": 0.0,
			"-0.019": 0.0135028608858,
			"-0.018": 0.895280971434,
			"-0.017": 0.871638124606,
			"-0.016": 0.966588283051,
			"-0.015": 2.83110200728,
			"-0.014": 3.47438667542,
			"-0.013": 2.57584686218,
			"-0.012": 3.90297901767,
			"-0.011": 3.87547346999,
			"-0.01": 2.60768507884,
			"-0.009": 2.87466948922,
			"-0.008": 5.76355357706,
			"-0.007": 15.0267067509,
			"-0.006": 19.4650190356,
			"-0.005": 17.9075408493,
			"-0.004": 12.4020219212,
			"-0.003": 13.0892270631,
			"-0.002": 8.93574943823,
			"-0.001": 9.70919281046,
			"0.0": 11.3342125816,
			"0.001": 13.5802894028,
			"0.002": 17.7523402919,
			"0.003": 17.3117819887,
			"0.004": 7.97068980267,
			"0.005": 7.14364600749,
			"0.006": 7.69189137419,
			"0.007": 7.75385446211,
			"0.008": 8.25242740758,
			"0.009": 7.58504053654,
			"0.01": 8.88870883834,
			"0.011": 14.70482669,
			"0.012": 10.3932847237,
			"0.013": 0.402185323998,
			"0.014": 0.0,
			"0.015": 0.0,
			"0.016": 0.0,
			"0.017": 0.0,
			"0.018": 0.0,
			"0.019": 0.0,
			"0.02": 0.0,
			"0.021": 0.0,
			"0.022": 0.0,
			"0.023": 0.0,
			"0.024": 0.0,
			"0.025": 0.0
		}
	}
}
