{
	 "smiles": "FC1=CC(F)=C(NC(=O)CCl)C=C1", 
	 "Tm": 353.15, 
	 "num_atms": 19, 
	 "gaussian": { 
		 "optdone": 1, 
		 "sigma_profile": "yes", 
		 "theory": "DFT", 
		 "functional": "B3LYP", 
		 "basiset": "6-31G**", 
		 "properties": { 
			 "R2extent": 3843.6684, 
			 "electric_dipole_moment_norm": 4.99047485817, 
			 "electric_quadrupole_moment_norm": 16.688975654, 
			 "total_energy": -1098.30641205, 
			 "HOMO_LUMO_gap": 0.21118, 
			 "cosmo_polarized_energy": -14.22, 
			 "cosmo_cavitation_energy": 26.54, 
			 "cosmo_dispersion_energy": -19.08, 
			 "cosmo_repulsion_energy": 1.5, 
			 "cosmo_total_nonelectrostatic_energy": 8.96, 
			 "SMD_solvation_energy": 6.03 
		},
		"coords": [
			{
				"x": 0.9304519019,
				"y": -1.5474424923,
				"z": 3.8697288436,
				"element": "F" 
			},
			{
				"x": 0.5290415319,
				"y": -1.0946541339,
				"z": 2.6697583416,
				"element": "C" 
			},
			{
				"x": 0.6943882963,
				"y": 0.2547731649,
				"z": 2.3778770742,
				"element": "C" 
			},
			{
				"x": 0.2846819415,
				"y": 0.7003807557,
				"z": 1.1284986865,
				"element": "C" 
			},
			{
				"x": 0.4613653347,
				"y": 2.0006257526,
				"z": 0.8214257277,
				"element": "F" 
			},
			{
				"x": -0.3132307572,
				"y": -0.1456107857,
				"z": 0.1840105079,
				"element": "C" 
			},
			{
				"x": -0.691754313,
				"y": 0.3242586456,
				"z": -1.098920891,
				"element": "N" 
			},
			{
				"x": -1.6274549454,
				"y": 1.2846717919,
				"z": -1.4445511695,
				"element": "C" 
			},
			{
				"x": -1.8140524891,
				"y": 1.5826025189,
				"z": -2.6070163759,
				"element": "O" 
			},
			{
				"x": -2.3790895647,
				"y": 1.908429619,
				"z": -0.264125841,
				"element": "C" 
			},
			{
				"x": -3.8370483892,
				"y": 2.8037036675,
				"z": -0.7880170631,
				"element": "Cl" 
			},
			{
				"x": -0.4612041819,
				"y": -1.4966414739,
				"z": 0.5277952599,
				"element": "C" 
			},
			{
				"x": -0.0370529964,
				"y": -1.9843840465,
				"z": 1.7619640218,
				"element": "C" 
			},
			{
				"x": 1.1457061266,
				"y": 0.9351802393,
				"z": 3.0895971633,
				"element": "H" 
			},
			{
				"x": -0.2449395372,
				"y": -0.0895218092,
				"z": -1.9083964916,
				"element": "H" 
			},
			{
				"x": -1.7237166403,
				"y": 2.6106140834,
				"z": 0.2530090212,
				"element": "H" 
			},
			{
				"x": -2.6927637196,
				"y": 1.14080231,
				"z": 0.4456875501,
				"element": "H" 
			},
			{
				"x": -0.9199976794,
				"y": -2.1655643416,
				"z": -0.1935118865,
				"element": "H" 
			},
			{
				"x": -0.1479299196,
				"y": -3.0287234657,
				"z": 2.0294875208,
				"element": "H" 
			}
		],
		 "valence_orbital": [ 
			{
				"type": "occ",
				"energy": -0.29892,
				"method": "rhf"
			},
			{
				"type": "occ",
				"energy": -0.29426,
				"method": "rhf"
			},
			{
				"type": "occ",
				"energy": -0.28342,
				"method": "rhf"
			},
			{
				"type": "occ",
				"energy": -0.26982,
				"method": "rhf"
			},
			{
				"type": "occ",
				"energy": -0.25335,
				"method": "rhf"
			},
			{
				"type": "unocc",
				"energy": -0.04217,
				"method": "rhf"
			},
			{
				"type": "unocc",
				"energy": -0.02902,
				"method": "rhf"
			},
			{
				"type": "unocc",
				"energy": 0.01052,
				"method": "rhf"
			},
			{
				"type": "unocc",
				"energy": 0.03058,
				"method": "rhf"
			},
			{
				"type": "unocc",
				"energy": 0.059,
				"method": "rhf"
			}
		],
		"cosmo_sigma_profile": { 
			"-0.025": 0.0,
			"-0.024": 0.0,
			"-0.023": 0.0,
			"-0.022": 0.0,
			"-0.021": 0.0,
			"-0.02": 0.0,
			"-0.019": 0.0,
			"-0.018": 0.0,
			"-0.017": 0.0,
			"-0.016": 0.0272208803292,
			"-0.015": 0.814455743907,
			"-0.014": 1.07966752953,
			"-0.013": 1.1087342788,
			"-0.012": 1.33880101091,
			"-0.011": 0.736374990472,
			"-0.01": 0.971889153595,
			"-0.009": 2.82361624433,
			"-0.008": 8.22655623487,
			"-0.007": 10.8793478258,
			"-0.006": 11.0662945077,
			"-0.005": 10.8020626309,
			"-0.004": 8.55226584857,
			"-0.003": 8.91331950367,
			"-0.002": 11.4395830319,
			"-0.001": 15.6832819129,
			"0.0": 22.2809711186,
			"0.001": 17.8605322907,
			"0.002": 13.7545879483,
			"0.003": 17.1437692004,
			"0.004": 14.0814755328,
			"0.005": 7.53318332398,
			"0.006": 6.77345826234,
			"0.007": 2.51453131803,
			"0.008": 2.30947514751,
			"0.009": 1.39684476835,
			"0.01": 2.16850663331,
			"0.011": 2.34326727998,
			"0.012": 4.97692488641,
			"0.013": 4.40269694918,
			"0.014": 1.21261283676,
			"0.015": 0.0,
			"0.016": 0.0,
			"0.017": 0.0,
			"0.018": 0.0,
			"0.019": 0.0,
			"0.02": 0.0,
			"0.021": 0.0,
			"0.022": 0.0,
			"0.023": 0.0,
			"0.024": 0.0,
			"0.025": 0.0
		}
	}
}
