{
	 "smiles": "COP(=O)(OC)C1=CC=CC=C1P(=O)(OC)OC", 
	 "Tm": 354.15, 
	 "num_atms": 34, 
	 "gaussian": { 
		 "optdone": 1, 
		 "sigma_profile": "yes", 
		 "theory": "DFT", 
		 "functional": "B3LYP", 
		 "basiset": "6-31G**", 
		 "properties": { 
			 "R2extent": 4982.963, 
			 "electric_dipole_moment_norm": 3.3176940094, 
			 "electric_quadrupole_moment_norm": 19.1518217288, 
			 "total_energy": -1524.84789661, 
			 "HOMO_LUMO_gap": 0.21564, 
			 "cosmo_polarized_energy": -20.7, 
			 "cosmo_cavitation_energy": 38.84, 
			 "cosmo_dispersion_energy": -26.89, 
			 "cosmo_repulsion_energy": 2.02, 
			 "cosmo_total_nonelectrostatic_energy": 13.96, 
			 "SMD_solvation_energy": 11.76 
		},
		"coords": [
			{
				"x": 1.1052546994,
				"y": -2.7995947457,
				"z": 2.7527094523,
				"element": "C" 
			},
			{
				"x": 1.2588939636,
				"y": -1.5354802251,
				"z": 2.0788627799,
				"element": "O" 
			},
			{
				"x": 0.2373838486,
				"y": -1.1994926218,
				"z": 0.8562290507,
				"element": "P" 
			},
			{
				"x": -0.0776473759,
				"y": -2.3598665228,
				"z": -0.0162630716,
				"element": "O" 
			},
			{
				"x": -1.0735465351,
				"y": -0.6067116645,
				"z": 1.5667784308,
				"element": "O" 
			},
			{
				"x": -1.0362623228,
				"y": 0.41573144,
				"z": 2.5877610322,
				"element": "C" 
			},
			{
				"x": 1.1458320965,
				"y": 0.1644516372,
				"z": 0.047102908,
				"element": "C" 
			},
			{
				"x": 2.5391806583,
				"y": 0.1742709967,
				"z": 0.2214270658,
				"element": "C" 
			},
			{
				"x": 3.3479365636,
				"y": 1.1033882526,
				"z": -0.4310544581,
				"element": "C" 
			},
			{
				"x": 2.7718564107,
				"y": 2.042247311,
				"z": -1.2809292843,
				"element": "C" 
			},
			{
				"x": 1.3909285788,
				"y": 2.0465002642,
				"z": -1.4709612971,
				"element": "C" 
			},
			{
				"x": 0.5591192102,
				"y": 1.1164867628,
				"z": -0.8266740148,
				"element": "C" 
			},
			{
				"x": -1.2396733948,
				"y": 1.3366215411,
				"z": -1.0646000955,
				"element": "P" 
			},
			{
				"x": -1.9410935631,
				"y": 2.0665104531,
				"z": 0.0226892562,
				"element": "O" 
			},
			{
				"x": -1.9079335605,
				"y": -0.0921873195,
				"z": -1.3595642741,
				"element": "O" 
			},
			{
				"x": -1.5271967276,
				"y": -0.9386751347,
				"z": -2.4675330497,
				"element": "C" 
			},
			{
				"x": -1.2445631245,
				"y": 2.1037175684,
				"z": -2.5008505962,
				"element": "O" 
			},
			{
				"x": -2.4484345143,
				"y": 2.7943128211,
				"z": -2.8874529643,
				"element": "C" 
			},
			{
				"x": 1.9781143856,
				"y": -2.9148757807,
				"z": 3.3971262525,
				"element": "H" 
			},
			{
				"x": 1.0579381056,
				"y": -3.6162443807,
				"z": 2.0284363266,
				"element": "H" 
			},
			{
				"x": 0.1965909174,
				"y": -2.8005772821,
				"z": 3.3631752731,
				"element": "H" 
			},
			{
				"x": -1.820830407,
				"y": 0.1640728954,
				"z": 3.3040070737,
				"element": "H" 
			},
			{
				"x": -1.2533880821,
				"y": 1.3774386025,
				"z": 2.1208680204,
				"element": "H" 
			},
			{
				"x": -0.0699547248,
				"y": 0.4292739239,
				"z": 3.0996641846,
				"element": "H" 
			},
			{
				"x": 2.9883663987,
				"y": -0.5548602563,
				"z": 0.8843485364,
				"element": "H" 
			},
			{
				"x": 4.4221580806,
				"y": 1.0879250383,
				"z": -0.2723702818,
				"element": "H" 
			},
			{
				"x": 3.388823332,
				"y": 2.7719973707,
				"z": -1.7968673273,
				"element": "H" 
			},
			{
				"x": 0.9437491646,
				"y": 2.7764156459,
				"z": -2.13435863,
				"element": "H" 
			},
			{
				"x": -1.0834173167,
				"y": -0.3540139173,
				"z": -3.2782120015,
				"element": "H" 
			},
			{
				"x": -0.836433029,
				"y": -1.6987513621,
				"z": -2.0998896012,
				"element": "H" 
			},
			{
				"x": -2.4449723979,
				"y": -1.4109242478,
				"z": -2.823244143,
				"element": "H" 
			},
			{
				"x": -2.7909603987,
				"y": 3.4472131283,
				"z": -2.0811501192,
				"element": "H" 
			},
			{
				"x": -3.2379111007,
				"y": 2.0781819936,
				"z": -3.136875453,
				"element": "H" 
			},
			{
				"x": -2.1972078386,
				"y": 3.3831978145,
				"z": -3.7709349805,
				"element": "H" 
			}
		],
		 "valence_orbital": [ 
			{
				"type": "occ",
				"energy": -0.28974,
				"method": "rhf"
			},
			{
				"type": "occ",
				"energy": -0.28316,
				"method": "rhf"
			},
			{
				"type": "occ",
				"energy": -0.28123,
				"method": "rhf"
			},
			{
				"type": "occ",
				"energy": -0.26562,
				"method": "rhf"
			},
			{
				"type": "occ",
				"energy": -0.26112,
				"method": "rhf"
			},
			{
				"type": "unocc",
				"energy": -0.04548,
				"method": "rhf"
			},
			{
				"type": "unocc",
				"energy": -0.02449,
				"method": "rhf"
			},
			{
				"type": "unocc",
				"energy": 0.05799,
				"method": "rhf"
			},
			{
				"type": "unocc",
				"energy": 0.07059,
				"method": "rhf"
			},
			{
				"type": "unocc",
				"energy": 0.08258,
				"method": "rhf"
			}
		],
		"cosmo_sigma_profile": { 
			"-0.025": 0.0,
			"-0.024": 0.0,
			"-0.023": 0.0,
			"-0.022": 0.0,
			"-0.021": 0.0,
			"-0.02": 0.0,
			"-0.019": 0.0,
			"-0.018": 0.0,
			"-0.017": 0.0,
			"-0.016": 0.0,
			"-0.015": 0.0,
			"-0.014": 0.0,
			"-0.013": 0.0,
			"-0.012": 0.0,
			"-0.011": 0.0,
			"-0.01": 0.0,
			"-0.009": 0.0,
			"-0.008": 0.462068440401,
			"-0.007": 7.02222598204,
			"-0.006": 22.7558425702,
			"-0.005": 29.0082958405,
			"-0.004": 36.8338995203,
			"-0.003": 37.95466429,
			"-0.002": 23.4751803263,
			"-0.001": 18.2505818071,
			"0.0": 17.8053685739,
			"0.001": 16.9293519293,
			"0.002": 21.9362920198,
			"0.003": 11.2671111161,
			"0.004": 5.8550929157,
			"0.005": 5.50445815155,
			"0.006": 5.08086896001,
			"0.007": 3.91418518523,
			"0.008": 4.39384680489,
			"0.009": 4.42316356056,
			"0.01": 4.41677692761,
			"0.011": 7.06322069583,
			"0.012": 6.69607809387,
			"0.013": 5.33001867403,
			"0.014": 6.56455288517,
			"0.015": 1.61482050855,
			"0.016": 0.0,
			"0.017": 0.0,
			"0.018": 0.0,
			"0.019": 0.0,
			"0.02": 0.0,
			"0.021": 0.0,
			"0.022": 0.0,
			"0.023": 0.0,
			"0.024": 0.0,
			"0.025": 0.0
		}
	}
}
