{
	 "smiles": "CC(C)(C)C1=CC=C(S1)S(N)(=O)=O", 
	 "Tm": 354.15, 
	 "num_atms": 26, 
	 "gaussian": { 
		 "optdone": 1, 
		 "sigma_profile": "yes", 
		 "theory": "DFT", 
		 "functional": "B3LYP", 
		 "basiset": "6-31G**", 
		 "properties": { 
			 "R2extent": 4975.1809, 
			 "electric_dipole_moment_norm": 6.70714832772, 
			 "electric_quadrupole_moment_norm": 35.1048420989, 
			 "total_energy": -1314.1859995, 
			 "HOMO_LUMO_gap": 0.20061, 
			 "cosmo_polarized_energy": -17.85, 
			 "cosmo_cavitation_energy": 31.34, 
			 "cosmo_dispersion_energy": -23.11, 
			 "cosmo_repulsion_energy": 1.74, 
			 "cosmo_total_nonelectrostatic_energy": 9.97, 
			 "SMD_solvation_energy": 4.9 
		},
		"coords": [
			{
				"x": 1.884401151,
				"y": 0.3339248354,
				"z": -0.3613173078,
				"element": "C" 
			},
			{
				"x": 0.9408459215,
				"y": 0.3873580341,
				"z": 0.8637682984,
				"element": "C" 
			},
			{
				"x": 1.5540864799,
				"y": -0.450162505,
				"z": 2.00307086,
				"element": "C" 
			},
			{
				"x": 0.7997471512,
				"y": 1.8532587304,
				"z": 1.3391190601,
				"element": "C" 
			},
			{
				"x": -0.4264959058,
				"y": -0.1701255644,
				"z": 0.4903307674,
				"element": "C" 
			},
			{
				"x": -1.1129016589,
				"y": -1.2279815084,
				"z": 1.0384808817,
				"element": "C" 
			},
			{
				"x": -2.3864598339,
				"y": -1.4618036429,
				"z": 0.446033129,
				"element": "C" 
			},
			{
				"x": -2.6625982978,
				"y": -0.5733757188,
				"z": -0.5586967747,
				"element": "C" 
			},
			{
				"x": -1.3738459852,
				"y": 0.5762958495,
				"z": -0.7837819033,
				"element": "S" 
			},
			{
				"x": -4.1310223046,
				"y": -0.557467735,
				"z": -1.5557537728,
				"element": "S" 
			},
			{
				"x": -3.7688810697,
				"y": -1.3606716184,
				"z": -2.9862926931,
				"element": "N" 
			},
			{
				"x": -5.1075034614,
				"y": -1.3959264019,
				"z": -0.866165746,
				"element": "O" 
			},
			{
				"x": -4.3843238601,
				"y": 0.8278619889,
				"z": -1.9423375019,
				"element": "O" 
			},
			{
				"x": 2.0016607407,
				"y": -0.6924358127,
				"z": -0.7230641396,
				"element": "H" 
			},
			{
				"x": 2.8743423156,
				"y": 0.7171006867,
				"z": -0.0916396753,
				"element": "H" 
			},
			{
				"x": 1.5048334727,
				"y": 0.9419043235,
				"z": -1.1886327265,
				"element": "H" 
			},
			{
				"x": 0.9319811687,
				"y": -0.4216561111,
				"z": 2.9030708852,
				"element": "H" 
			},
			{
				"x": 2.5380681734,
				"y": -0.0490629708,
				"z": 2.2649828538,
				"element": "H" 
			},
			{
				"x": 1.6871364695,
				"y": -1.495761491,
				"z": 1.7077702553,
				"element": "H" 
			},
			{
				"x": 0.1312321387,
				"y": 1.9234104005,
				"z": 2.202582025,
				"element": "H" 
			},
			{
				"x": 0.3974881454,
				"y": 2.4958827155,
				"z": 0.5497702649,
				"element": "H" 
			},
			{
				"x": 1.778302263,
				"y": 2.2507751526,
				"z": 1.6291422224,
				"element": "H" 
			},
			{
				"x": -0.7249889449,
				"y": -1.8255532329,
				"z": 1.8539128436,
				"element": "H" 
			},
			{
				"x": -3.0796081689,
				"y": -2.23707533,
				"z": 0.7496403102,
				"element": "H" 
			},
			{
				"x": -3.5251184179,
				"y": -2.3349628675,
				"z": -2.8382624957,
				"element": "H" 
			},
			{
				"x": -3.0902776823,
				"y": -0.8624502063,
				"z": -3.5537299204,
				"element": "H" 
			}
		],
		 "valence_orbital": [ 
			{
				"type": "occ",
				"energy": -0.31444,
				"method": "rhf"
			},
			{
				"type": "occ",
				"energy": -0.30752,
				"method": "rhf"
			},
			{
				"type": "occ",
				"energy": -0.30424,
				"method": "rhf"
			},
			{
				"type": "occ",
				"energy": -0.26866,
				"method": "rhf"
			},
			{
				"type": "occ",
				"energy": -0.24609,
				"method": "rhf"
			},
			{
				"type": "unocc",
				"energy": -0.04548,
				"method": "rhf"
			},
			{
				"type": "unocc",
				"energy": 0.0109,
				"method": "rhf"
			},
			{
				"type": "unocc",
				"energy": 0.03954,
				"method": "rhf"
			},
			{
				"type": "unocc",
				"energy": 0.05397,
				"method": "rhf"
			},
			{
				"type": "unocc",
				"energy": 0.05794,
				"method": "rhf"
			}
		],
		"cosmo_sigma_profile": { 
			"-0.025": 0.0,
			"-0.024": 0.0,
			"-0.023": 0.0,
			"-0.022": 0.0,
			"-0.021": 0.0,
			"-0.02": 0.0,
			"-0.019": 0.0,
			"-0.018": 0.0,
			"-0.017": 0.0,
			"-0.016": 0.213960301768,
			"-0.015": 1.99725289801,
			"-0.014": 2.72253895066,
			"-0.013": 2.52249893496,
			"-0.012": 3.08787617678,
			"-0.011": 2.32210284843,
			"-0.01": 2.33202117378,
			"-0.009": 1.89260477788,
			"-0.008": 2.52230548485,
			"-0.007": 4.2521459536,
			"-0.006": 5.22616363382,
			"-0.005": 6.24612665797,
			"-0.004": 14.6995708297,
			"-0.003": 26.6560986264,
			"-0.002": 21.2150348375,
			"-0.001": 21.4974844402,
			"0.0": 26.0325434668,
			"0.001": 23.9728983071,
			"0.002": 15.1746023307,
			"0.003": 12.9714400266,
			"0.004": 5.97056696298,
			"0.005": 3.59764760144,
			"0.006": 3.50554308833,
			"0.007": 4.24120907778,
			"0.008": 5.55908376836,
			"0.009": 4.47781848886,
			"0.01": 8.49916385364,
			"0.011": 10.8377591925,
			"0.012": 3.72901703706,
			"0.013": 0.0352415175568,
			"0.014": 0.0,
			"0.015": 0.0,
			"0.016": 0.0,
			"0.017": 0.0,
			"0.018": 0.0,
			"0.019": 0.0,
			"0.02": 0.0,
			"0.021": 0.0,
			"0.022": 0.0,
			"0.023": 0.0,
			"0.024": 0.0,
			"0.025": 0.0
		}
	}
}
