{
	 "smiles": "CC(=O)N1CCC(CC1)(C(O)=O)C1=CC=CC=C1", 
	 "Tm": 481.15, 
	 "num_atms": 35, 
	 "gaussian": { 
		 "optdone": 1, 
		 "sigma_profile": "yes", 
		 "theory": "DFT", 
		 "functional": "B3LYP", 
		 "basiset": "6-31G**", 
		 "properties": { 
			 "R2extent": 5369.8078, 
			 "electric_dipole_moment_norm": 3.26445521029, 
			 "electric_quadrupole_moment_norm": 13.0484513058, 
			 "total_energy": -824.187434307, 
			 "HOMO_LUMO_gap": 0.21453, 
			 "cosmo_polarized_energy": -17.26, 
			 "cosmo_cavitation_energy": 36.3, 
			 "cosmo_dispersion_energy": -25.6, 
			 "cosmo_repulsion_energy": 1.97, 
			 "cosmo_total_nonelectrostatic_energy": 12.67, 
			 "SMD_solvation_energy": 6.88 
		},
		"coords": [
			{
				"x": 2.9118696467,
				"y": -0.4926372055,
				"z": 3.4475341003,
				"element": "C" 
			},
			{
				"x": 2.1715384466,
				"y": 0.4771888005,
				"z": 2.5364002925,
				"element": "C" 
			},
			{
				"x": 2.348032045,
				"y": 1.6899689285,
				"z": 2.6196709961,
				"element": "O" 
			},
			{
				"x": 1.306124184,
				"y": -0.0681318154,
				"z": 1.6186192742,
				"element": "N" 
			},
			{
				"x": 1.031201601,
				"y": -1.5047040155,
				"z": 1.497429332,
				"element": "C" 
			},
			{
				"x": 0.4494378352,
				"y": -1.8161737449,
				"z": 0.1169412069,
				"element": "C" 
			},
			{
				"x": -0.9031150968,
				"y": -1.0925741373,
				"z": -0.1483172786,
				"element": "C" 
			},
			{
				"x": -0.8955063898,
				"y": 0.2861620976,
				"z": 0.586230474,
				"element": "C" 
			},
			{
				"x": 0.5169780285,
				"y": 0.8409739711,
				"z": 0.7789458277,
				"element": "C" 
			},
			{
				"x": -2.0480453878,
				"y": -1.934887148,
				"z": 0.4297358892,
				"element": "C" 
			},
			{
				"x": -3.2186911731,
				"y": -1.2579351114,
				"z": 0.4364841152,
				"element": "O" 
			},
			{
				"x": -1.9610758942,
				"y": -3.075317759,
				"z": 0.8359379805,
				"element": "O" 
			},
			{
				"x": -1.1209759717,
				"y": -1.0056826728,
				"z": -1.6723707509,
				"element": "C" 
			},
			{
				"x": -0.9828465927,
				"y": 0.1869239041,
				"z": -2.3931045118,
				"element": "C" 
			},
			{
				"x": -1.1302034443,
				"y": 0.205617021,
				"z": -3.7824130468,
				"element": "C" 
			},
			{
				"x": -1.4208973499,
				"y": -0.9670383475,
				"z": -4.4777603917,
				"element": "C" 
			},
			{
				"x": -1.5582693798,
				"y": -2.1634641952,
				"z": -3.771691992,
				"element": "C" 
			},
			{
				"x": -1.4049723012,
				"y": -2.1817710453,
				"z": -2.386287389,
				"element": "C" 
			},
			{
				"x": 2.2319862052,
				"y": -1.1711461123,
				"z": 3.9728301205,
				"element": "H" 
			},
			{
				"x": 3.6207451592,
				"y": -1.1076599926,
				"z": 2.881726013,
				"element": "H" 
			},
			{
				"x": 3.4659153568,
				"y": 0.0997387609,
				"z": 4.1750543351,
				"element": "H" 
			},
			{
				"x": 1.9587755021,
				"y": -2.0688507918,
				"z": 1.6264824867,
				"element": "H" 
			},
			{
				"x": 0.3356601069,
				"y": -1.8480389462,
				"z": 2.2780651491,
				"element": "H" 
			},
			{
				"x": 0.3074004806,
				"y": -2.8944658018,
				"z": 0.020888646,
				"element": "H" 
			},
			{
				"x": 1.1681746355,
				"y": -1.5062162738,
				"z": -0.6475260739,
				"element": "H" 
			},
			{
				"x": -1.5270123828,
				"y": 1.0072886783,
				"z": 0.0629618308,
				"element": "H" 
			},
			{
				"x": -1.3431565754,
				"y": 0.1671153216,
				"z": 1.5783550847,
				"element": "H" 
			},
			{
				"x": 0.4945631124,
				"y": 1.806866454,
				"z": 1.2860454228,
				"element": "H" 
			},
			{
				"x": 1.0142802892,
				"y": 0.9984492682,
				"z": -0.1883657058,
				"element": "H" 
			},
			{
				"x": -3.8831453188,
				"y": -1.8669347947,
				"z": 0.8004873641,
				"element": "H" 
			},
			{
				"x": -0.755264701,
				"y": 1.1162075124,
				"z": -1.8830332138,
				"element": "H" 
			},
			{
				"x": -1.0176566452,
				"y": 1.1439036383,
				"z": -4.318221601,
				"element": "H" 
			},
			{
				"x": -1.5391936505,
				"y": -0.9498567939,
				"z": -5.5571878394,
				"element": "H" 
			},
			{
				"x": -1.7855830138,
				"y": -3.0858321024,
				"z": -4.2986767984,
				"element": "H" 
			},
			{
				"x": -1.5139713662,
				"y": -3.1214855489,
				"z": -1.8516693481,
				"element": "H" 
			}
		],
		 "valence_orbital": [ 
			{
				"type": "occ",
				"energy": -0.28363,
				"method": "rhf"
			},
			{
				"type": "occ",
				"energy": -0.25682,
				"method": "rhf"
			},
			{
				"type": "occ",
				"energy": -0.24974,
				"method": "rhf"
			},
			{
				"type": "occ",
				"energy": -0.23764,
				"method": "rhf"
			},
			{
				"type": "occ",
				"energy": -0.22982,
				"method": "rhf"
			},
			{
				"type": "unocc",
				"energy": -0.01529,
				"method": "rhf"
			},
			{
				"type": "unocc",
				"energy": -0.01064,
				"method": "rhf"
			},
			{
				"type": "unocc",
				"energy": 0.00833,
				"method": "rhf"
			},
			{
				"type": "unocc",
				"energy": 0.03572,
				"method": "rhf"
			},
			{
				"type": "unocc",
				"energy": 0.0668,
				"method": "rhf"
			}
		],
		"cosmo_sigma_profile": { 
			"-0.025": 0.0,
			"-0.024": 0.0,
			"-0.023": 0.0,
			"-0.022": 0.0,
			"-0.021": 0.0,
			"-0.02": 0.0,
			"-0.019": 0.00119025581436,
			"-0.018": 0.974939391141,
			"-0.017": 0.883372870124,
			"-0.016": 0.538941409584,
			"-0.015": 0.81851942554,
			"-0.014": 0.999245037266,
			"-0.013": 0.846420030436,
			"-0.012": 0.582345543837,
			"-0.011": 0.702944132697,
			"-0.01": 0.617513037829,
			"-0.009": 0.670567646876,
			"-0.008": 0.689012116777,
			"-0.007": 2.04975048955,
			"-0.006": 13.1563558582,
			"-0.005": 22.9145413261,
			"-0.004": 34.2713939088,
			"-0.003": 34.2476588845,
			"-0.002": 24.0248351035,
			"-0.001": 22.314748548,
			"0.0": 17.0495837282,
			"0.001": 13.5886697748,
			"0.002": 11.8415726265,
			"0.003": 11.8486398174,
			"0.004": 11.4058621001,
			"0.005": 12.9467418889,
			"0.006": 9.73396977241,
			"0.007": 4.10542545986,
			"0.008": 4.82557429535,
			"0.009": 4.65053610325,
			"0.01": 2.07773879019,
			"0.011": 4.850732726,
			"0.012": 4.49736714738,
			"0.013": 1.94466111339,
			"0.014": 4.91943760917,
			"0.015": 3.14028344278,
			"0.016": 0.541901338554,
			"0.017": 0.0,
			"0.018": 0.0,
			"0.019": 0.0,
			"0.02": 0.0,
			"0.021": 0.0,
			"0.022": 0.0,
			"0.023": 0.0,
			"0.024": 0.0,
			"0.025": 0.0
		}
	}
}
