{
	 "smiles": "CC1=CC=C(OCC2=CC=C(O2)C(O)=O)C=C1", 
	 "Tm": 478.15, 
	 "num_atms": 29, 
	 "gaussian": { 
		 "optdone": 1, 
		 "sigma_profile": "yes", 
		 "theory": "DFT", 
		 "functional": "B3LYP", 
		 "basiset": "6-31G**", 
		 "properties": { 
			 "R2extent": 5828.2622, 
			 "electric_dipole_moment_norm": 1.90734057001, 
			 "electric_quadrupole_moment_norm": 9.7461399754, 
			 "total_energy": -803.495505684, 
			 "HOMO_LUMO_gap": 0.16777, 
			 "cosmo_polarized_energy": -13.31, 
			 "cosmo_cavitation_energy": 34.54, 
			 "cosmo_dispersion_energy": -24.38, 
			 "cosmo_repulsion_energy": 1.93, 
			 "cosmo_total_nonelectrostatic_energy": 12.09, 
			 "SMD_solvation_energy": 7.88 
		},
		"coords": [
			{
				"x": -2.0154173962,
				"y": 3.3103674748,
				"z": 2.3515196896,
				"element": "C" 
			},
			{
				"x": -1.1275037101,
				"y": 2.1541568555,
				"z": 1.954441708,
				"element": "C" 
			},
			{
				"x": -0.7994403718,
				"y": 1.1467005289,
				"z": 2.8772927009,
				"element": "C" 
			},
			{
				"x": 0.0182030203,
				"y": 0.0805790523,
				"z": 2.525679797,
				"element": "C" 
			},
			{
				"x": 0.5361294392,
				"y": -0.0082418833,
				"z": 1.226358387,
				"element": "C" 
			},
			{
				"x": 1.3453828879,
				"y": -1.0968777039,
				"z": 0.9916556849,
				"element": "O" 
			},
			{
				"x": 1.962867202,
				"y": -1.2297516362,
				"z": -0.2804121346,
				"element": "C" 
			},
			{
				"x": 1.011040538,
				"y": -1.6901627923,
				"z": -1.3445753793,
				"element": "C" 
			},
			{
				"x": 0.0088052691,
				"y": -2.6243003656,
				"z": -1.3611319758,
				"element": "C" 
			},
			{
				"x": -0.5233404109,
				"y": -2.6119390363,
				"z": -2.6806577095,
				"element": "C" 
			},
			{
				"x": 0.1922994432,
				"y": -1.6735328443,
				"z": -3.3789748147,
				"element": "C" 
			},
			{
				"x": 1.1315192034,
				"y": -1.103348966,
				"z": -2.5629396624,
				"element": "O" 
			},
			{
				"x": 0.1406624808,
				"y": -1.1943028977,
				"z": -4.7589485126,
				"element": "C" 
			},
			{
				"x": -0.8315558906,
				"y": -1.8348122307,
				"z": -5.4603267185,
				"element": "O" 
			},
			{
				"x": 0.8567273382,
				"y": -0.3406143255,
				"z": -5.2396889906,
				"element": "O" 
			},
			{
				"x": 0.2213897658,
				"y": 0.9770002855,
				"z": 0.2883146333,
				"element": "C" 
			},
			{
				"x": -0.6032654675,
				"y": 2.0434544303,
				"z": 0.6653897677,
				"element": "C" 
			},
			{
				"x": -2.992122287,
				"y": 2.9636721673,
				"z": 2.7090262972,
				"element": "H" 
			},
			{
				"x": -1.569339938,
				"y": 3.9007256401,
				"z": 3.1607912115,
				"element": "H" 
			},
			{
				"x": -2.1912398544,
				"y": 3.9846978236,
				"z": 1.5086807445,
				"element": "H" 
			},
			{
				"x": -1.1907206129,
				"y": 1.2003904011,
				"z": 3.8906401768,
				"element": "H" 
			},
			{
				"x": 0.2739606433,
				"y": -0.6945221111,
				"z": 3.2410340528,
				"element": "H" 
			},
			{
				"x": 2.7505316174,
				"y": -1.9743849907,
				"z": -0.1250353872,
				"element": "H" 
			},
			{
				"x": 2.4438791736,
				"y": -0.2980459712,
				"z": -0.6034285314,
				"element": "H" 
			},
			{
				"x": -0.3067967668,
				"y": -3.232453087,
				"z": -0.5263095246,
				"element": "H" 
			},
			{
				"x": -1.3294140318,
				"y": -3.2118990619,
				"z": -3.0762695986,
				"element": "H" 
			},
			{
				"x": -0.7984416849,
				"y": -1.45948311,
				"z": -6.3553689764,
				"element": "H" 
			},
			{
				"x": 0.5907633227,
				"y": 0.9303877046,
				"z": -0.7291707306,
				"element": "H" 
			},
			{
				"x": -0.8413629218,
				"y": 2.8031406497,
				"z": -0.0749862046,
				"element": "H" 
			}
		],
		 "valence_orbital": [ 
			{
				"type": "occ",
				"energy": -0.29623,
				"method": "rhf"
			},
			{
				"type": "occ",
				"energy": -0.2798,
				"method": "rhf"
			},
			{
				"type": "occ",
				"energy": -0.24958,
				"method": "rhf"
			},
			{
				"type": "occ",
				"energy": -0.24117,
				"method": "rhf"
			},
			{
				"type": "occ",
				"energy": -0.21527,
				"method": "rhf"
			},
			{
				"type": "unocc",
				"energy": -0.0475,
				"method": "rhf"
			},
			{
				"type": "unocc",
				"energy": -1e-05,
				"method": "rhf"
			},
			{
				"type": "unocc",
				"energy": 0.01429,
				"method": "rhf"
			},
			{
				"type": "unocc",
				"energy": 0.02857,
				"method": "rhf"
			},
			{
				"type": "unocc",
				"energy": 0.07659,
				"method": "rhf"
			}
		],
		"cosmo_sigma_profile": { 
			"-0.025": 0.0,
			"-0.024": 0.0,
			"-0.023": 0.0,
			"-0.022": 0.0,
			"-0.021": 0.0,
			"-0.02": 0.0,
			"-0.019": 0.168923879794,
			"-0.018": 0.765446838186,
			"-0.017": 1.2489709454,
			"-0.016": 0.810978275623,
			"-0.015": 0.10848379974,
			"-0.014": 0.680381769133,
			"-0.013": 0.591538405636,
			"-0.012": 1.16195309057,
			"-0.011": 1.0613432441,
			"-0.01": 0.692230655314,
			"-0.009": 0.743669497654,
			"-0.008": 4.6542345688,
			"-0.007": 8.5771807238,
			"-0.006": 10.785013848,
			"-0.005": 15.752355106,
			"-0.004": 20.31202442,
			"-0.003": 21.4261326687,
			"-0.002": 21.7295336445,
			"-0.001": 21.0327810267,
			"0.0": 22.6169889193,
			"0.001": 19.5179709006,
			"0.002": 17.6895272673,
			"0.003": 18.3485389338,
			"0.004": 12.4692073019,
			"0.005": 14.5104819596,
			"0.006": 11.4989340625,
			"0.007": 4.12944369692,
			"0.008": 5.18565595876,
			"0.009": 3.60395781655,
			"0.01": 2.93234057915,
			"0.011": 4.8259988151,
			"0.012": 5.08455216638,
			"0.013": 0.816559507556,
			"0.014": 0.0,
			"0.015": 0.0,
			"0.016": 0.0,
			"0.017": 0.0,
			"0.018": 0.0,
			"0.019": 0.0,
			"0.02": 0.0,
			"0.021": 0.0,
			"0.022": 0.0,
			"0.023": 0.0,
			"0.024": 0.0,
			"0.025": 0.0
		}
	}
}
