{
	 "smiles": "OC(=O)C1=C(F)C=C(F)C(=C1)N1CCNC1=O", 
	 "Tm": 520.15, 
	 "num_atms": 25, 
	 "gaussian": { 
		 "optdone": 1, 
		 "sigma_profile": "yes", 
		 "theory": "DFT", 
		 "functional": "B3LYP", 
		 "basiset": "6-31G**", 
		 "properties": { 
			 "R2extent": 4535.0706, 
			 "electric_dipole_moment_norm": 5.74088325086, 
			 "electric_quadrupole_moment_norm": 11.0886194528, 
			 "total_energy": -920.757528514, 
			 "HOMO_LUMO_gap": 0.17547, 
			 "cosmo_polarized_energy": -18.55, 
			 "cosmo_cavitation_energy": 30.45, 
			 "cosmo_dispersion_energy": -22.32, 
			 "cosmo_repulsion_energy": 1.69, 
			 "cosmo_total_nonelectrostatic_energy": 9.82, 
			 "SMD_solvation_energy": 6.47 
		},
		"coords": [
			{
				"x": 3.6136787934,
				"y": -1.2424874463,
				"z": -0.2189056446,
				"element": "O" 
			},
			{
				"x": 3.1738683951,
				"y": -0.468412581,
				"z": -1.2452038911,
				"element": "C" 
			},
			{
				"x": 3.805861554,
				"y": -0.3464778619,
				"z": -2.2733576005,
				"element": "O" 
			},
			{
				"x": 1.8695685606,
				"y": 0.1774389918,
				"z": -0.9393108387,
				"element": "C" 
			},
			{
				"x": 1.2793172647,
				"y": 1.0763209145,
				"z": -1.8410813846,
				"element": "C" 
			},
			{
				"x": 1.8677797656,
				"y": 1.386419259,
				"z": -3.0013035881,
				"element": "F" 
			},
			{
				"x": 0.0617975,
				"y": 1.679153926,
				"z": -1.5569043929,
				"element": "C" 
			},
			{
				"x": -0.5780094497,
				"y": 1.3692945917,
				"z": -0.3666249135,
				"element": "C" 
			},
			{
				"x": -1.7760919964,
				"y": 1.9489419051,
				"z": -0.1318141853,
				"element": "F" 
			},
			{
				"x": -0.0301277409,
				"y": 0.4941805788,
				"z": 0.5852605691,
				"element": "C" 
			},
			{
				"x": 1.2037219943,
				"y": -0.087987128,
				"z": 0.2666578477,
				"element": "C" 
			},
			{
				"x": -0.6749372599,
				"y": 0.2276016128,
				"z": 1.8064078378,
				"element": "N" 
			},
			{
				"x": -1.6235904649,
				"y": 1.1262213992,
				"z": 2.4767850763,
				"element": "C" 
			},
			{
				"x": -1.726903737,
				"y": 0.4953416444,
				"z": 3.8778907844,
				"element": "C" 
			},
			{
				"x": -1.4307929028,
				"y": -0.8999689288,
				"z": 3.5823024405,
				"element": "N" 
			},
			{
				"x": -0.6147617359,
				"y": -1.0081926801,
				"z": 2.4660411826,
				"element": "C" 
			},
			{
				"x": 0.0199085252,
				"y": -1.9916709938,
				"z": 2.1289012709,
				"element": "O" 
			},
			{
				"x": 4.4523263502,
				"y": -1.6246173115,
				"z": -0.5245464385,
				"element": "H" 
			},
			{
				"x": -0.393289133,
				"y": 2.3658760918,
				"z": -2.2598770283,
				"element": "H" 
			},
			{
				"x": 1.6439927104,
				"y": -0.7852276899,
				"z": 0.9639863436,
				"element": "H" 
			},
			{
				"x": -1.2472656576,
				"y": 2.1512032577,
				"z": 2.5045841899,
				"element": "H" 
			},
			{
				"x": -2.5946106876,
				"y": 1.1255673995,
				"z": 1.97226726,
				"element": "H" 
			},
			{
				"x": -2.7249708303,
				"y": 0.6202059517,
				"z": 4.3060536776,
				"element": "H" 
			},
			{
				"x": -0.9924025004,
				"y": 0.9378579454,
				"z": 4.5666947337,
				"element": "H" 
			},
			{
				"x": -1.2452673171,
				"y": -1.5618828479,
				"z": 4.3220966921,
				"element": "H" 
			}
		],
		 "valence_orbital": [ 
			{
				"type": "occ",
				"energy": -0.27663,
				"method": "rhf"
			},
			{
				"type": "occ",
				"energy": -0.27125,
				"method": "rhf"
			},
			{
				"type": "occ",
				"energy": -0.26959,
				"method": "rhf"
			},
			{
				"type": "occ",
				"energy": -0.26136,
				"method": "rhf"
			},
			{
				"type": "occ",
				"energy": -0.22427,
				"method": "rhf"
			},
			{
				"type": "unocc",
				"energy": -0.0488,
				"method": "rhf"
			},
			{
				"type": "unocc",
				"energy": -0.01738,
				"method": "rhf"
			},
			{
				"type": "unocc",
				"energy": 0.04,
				"method": "rhf"
			},
			{
				"type": "unocc",
				"energy": 0.06167,
				"method": "rhf"
			},
			{
				"type": "unocc",
				"energy": 0.06528,
				"method": "rhf"
			}
		],
		"cosmo_sigma_profile": { 
			"-0.025": 0.0,
			"-0.024": 0.0,
			"-0.023": 0.0,
			"-0.022": 0.0,
			"-0.021": 0.0,
			"-0.02": 0.0,
			"-0.019": 0.131496667794,
			"-0.018": 0.748827206022,
			"-0.017": 0.870227590363,
			"-0.016": 0.955021837906,
			"-0.015": 0.919487203472,
			"-0.014": 2.11910362859,
			"-0.013": 1.72364564104,
			"-0.012": 0.988893409755,
			"-0.011": 2.36779974216,
			"-0.01": 1.42745360899,
			"-0.009": 3.25238158226,
			"-0.008": 3.27225562329,
			"-0.007": 4.16027420588,
			"-0.006": 10.7446237794,
			"-0.005": 18.5232491486,
			"-0.004": 15.1854452159,
			"-0.003": 14.8192385808,
			"-0.002": 17.4135913688,
			"-0.001": 24.3187955197,
			"0.0": 19.2511784631,
			"0.001": 14.3379589579,
			"0.002": 11.5315350372,
			"0.003": 15.5177560226,
			"0.004": 10.4021309856,
			"0.005": 6.80126045102,
			"0.006": 5.56265103615,
			"0.007": 4.87388401257,
			"0.008": 3.89570784715,
			"0.009": 3.98384546282,
			"0.01": 4.13341687273,
			"0.011": 6.49865807158,
			"0.012": 5.99715594483,
			"0.013": 4.8519394972,
			"0.014": 1.86044158295,
			"0.015": 0.0363174507721,
			"0.016": 0.0,
			"0.017": 0.0,
			"0.018": 0.0,
			"0.019": 0.0,
			"0.02": 0.0,
			"0.021": 0.0,
			"0.022": 0.0,
			"0.023": 0.0,
			"0.024": 0.0,
			"0.025": 0.0
		}
	}
}
