{
	 "smiles": "OC(=O)C1=CC=C(OC2CCOCC2)N=C1", 
	 "Tm": 442.15, 
	 "num_atms": 29, 
	 "gaussian": { 
		 "optdone": 1, 
		 "sigma_profile": "yes", 
		 "theory": "DFT", 
		 "functional": "B3LYP", 
		 "basiset": "6-31G**", 
		 "properties": { 
			 "R2extent": 4498.2904, 
			 "electric_dipole_moment_norm": 3.80448268494, 
			 "electric_quadrupole_moment_norm": 23.5158306322, 
			 "total_energy": -782.639313366, 
			 "HOMO_LUMO_gap": 0.19513, 
			 "cosmo_polarized_energy": -16.45, 
			 "cosmo_cavitation_energy": 31.46, 
			 "cosmo_dispersion_energy": -23.29, 
			 "cosmo_repulsion_energy": 1.81, 
			 "cosmo_total_nonelectrostatic_energy": 9.98, 
			 "SMD_solvation_energy": 6.47 
		},
		"coords": [
			{
				"x": 3.2755598029,
				"y": -1.9442973994,
				"z": 1.8717192092,
				"element": "O" 
			},
			{
				"x": 3.226757156,
				"y": -2.0860952107,
				"z": 0.5192523121,
				"element": "C" 
			},
			{
				"x": 4.1264576098,
				"y": -2.6494194649,
				"z": -0.0599544638,
				"element": "O" 
			},
			{
				"x": 2.0376586451,
				"y": -1.5208166471,
				"z": -0.1828825055,
				"element": "C" 
			},
			{
				"x": 1.7854790493,
				"y": -1.922186034,
				"z": -1.5115047355,
				"element": "C" 
			},
			{
				"x": 0.7032488761,
				"y": -1.4031053416,
				"z": -2.1869322719,
				"element": "C" 
			},
			{
				"x": -0.1164698044,
				"y": -0.4631863409,
				"z": -1.5175148229,
				"element": "C" 
			},
			{
				"x": -1.1570405618,
				"y": -0.0038243898,
				"z": -2.2239401831,
				"element": "O" 
			},
			{
				"x": -2.1456628883,
				"y": 0.9793947085,
				"z": -1.7836411117,
				"element": "C" 
			},
			{
				"x": -3.0668848931,
				"y": 0.5021504043,
				"z": -0.6405310994,
				"element": "C" 
			},
			{
				"x": -2.7168959181,
				"y": 1.0500458594,
				"z": 0.7486593631,
				"element": "C" 
			},
			{
				"x": -2.5074321364,
				"y": 2.4573914783,
				"z": 0.7053847201,
				"element": "O" 
			},
			{
				"x": -1.3689050398,
				"y": 2.7847395957,
				"z": -0.0847922055,
				"element": "C" 
			},
			{
				"x": -1.5881322162,
				"y": 2.4005504935,
				"z": -1.5535492577,
				"element": "C" 
			},
			{
				"x": 0.1218410972,
				"y": -0.0515789493,
				"z": -0.275603233,
				"element": "N" 
			},
			{
				"x": 1.1771196878,
				"y": -0.5721193551,
				"z": 0.3658286438,
				"element": "C" 
			},
			{
				"x": 2.4265842889,
				"y": -1.6315528447,
				"z": 2.2128125833,
				"element": "H" 
			},
			{
				"x": 2.4565619211,
				"y": -2.6374398361,
				"z": -1.9752182883,
				"element": "H" 
			},
			{
				"x": 0.463661862,
				"y": -1.6856463296,
				"z": -3.2053492582,
				"element": "H" 
			},
			{
				"x": -2.7497051482,
				"y": 1.0123871529,
				"z": -2.6932002724,
				"element": "H" 
			},
			{
				"x": -4.0746210703,
				"y": 0.8548615135,
				"z": -0.8910440566,
				"element": "H" 
			},
			{
				"x": -3.1085778902,
				"y": -0.592467781,
				"z": -0.6345920236,
				"element": "H" 
			},
			{
				"x": -1.8314703351,
				"y": 0.5469462303,
				"z": 1.1541362,
				"element": "H" 
			},
			{
				"x": -3.5561745196,
				"y": 0.8881231716,
				"z": 1.4324081011,
				"element": "H" 
			},
			{
				"x": -0.4747132201,
				"y": 2.2947348234,
				"z": 0.3169616308,
				"element": "H" 
			},
			{
				"x": -1.2423589429,
				"y": 3.8686754776,
				"z": -0.0010752857,
				"element": "H" 
			},
			{
				"x": -2.3311431064,
				"y": 3.091817029,
				"z": -1.9692316135,
				"element": "H" 
			},
			{
				"x": -0.6712127303,
				"y": 2.5351198568,
				"z": -2.1374718565,
				"element": "H" 
			},
			{
				"x": 1.343070425,
				"y": -0.1700018706,
				"z": 1.3658657812,
				"element": "H" 
			}
		],
		 "valence_orbital": [ 
			{
				"type": "occ",
				"energy": -0.30424,
				"method": "rhf"
			},
			{
				"type": "occ",
				"energy": -0.28879,
				"method": "rhf"
			},
			{
				"type": "occ",
				"energy": -0.27309,
				"method": "rhf"
			},
			{
				"type": "occ",
				"energy": -0.25053,
				"method": "rhf"
			},
			{
				"type": "occ",
				"energy": -0.24662,
				"method": "rhf"
			},
			{
				"type": "unocc",
				"energy": -0.05149,
				"method": "rhf"
			},
			{
				"type": "unocc",
				"energy": -0.04243,
				"method": "rhf"
			},
			{
				"type": "unocc",
				"energy": 0.04474,
				"method": "rhf"
			},
			{
				"type": "unocc",
				"energy": 0.05686,
				"method": "rhf"
			},
			{
				"type": "unocc",
				"energy": 0.06944,
				"method": "rhf"
			}
		],
		"cosmo_sigma_profile": { 
			"-0.025": 0.0,
			"-0.024": 0.0,
			"-0.023": 0.0,
			"-0.022": 0.0,
			"-0.021": 0.0,
			"-0.02": 0.0,
			"-0.019": 0.444481602021,
			"-0.018": 1.01296133498,
			"-0.017": 1.15063071473,
			"-0.016": 1.02194205041,
			"-0.015": 0.822016663397,
			"-0.014": 0.884665226928,
			"-0.013": 1.19719105632,
			"-0.012": 0.949296955486,
			"-0.011": 1.3810769279,
			"-0.01": 1.29923606618,
			"-0.009": 1.39639586321,
			"-0.008": 1.66613518259,
			"-0.007": 4.68731915715,
			"-0.006": 6.96276935196,
			"-0.005": 12.5475395274,
			"-0.004": 22.1036529727,
			"-0.003": 21.6901225246,
			"-0.002": 24.3019272009,
			"-0.001": 27.5285515642,
			"0.0": 21.5331790641,
			"0.001": 19.0208440952,
			"0.002": 13.3694728192,
			"0.003": 8.74817641802,
			"0.004": 6.01592506181,
			"0.005": 4.20881970115,
			"0.006": 3.29743743574,
			"0.007": 5.75580812293,
			"0.008": 5.8819954812,
			"0.009": 4.51770121703,
			"0.01": 5.20644479663,
			"0.011": 6.50977040391,
			"0.012": 6.46349177345,
			"0.013": 3.38905498232,
			"0.014": 1.57801512055,
			"0.015": 0.0683763937601,
			"0.016": 0.0,
			"0.017": 0.0,
			"0.018": 0.0,
			"0.019": 0.0,
			"0.02": 0.0,
			"0.021": 0.0,
			"0.022": 0.0,
			"0.023": 0.0,
			"0.024": 0.0,
			"0.025": 0.0
		}
	}
}
