{
	 "smiles": "C1=CC2=C(C=C1)C=C1C(C=CC3=C1C=CC=C3)=C2", 
	 "Tm": 432.15, 
	 "num_atms": 30, 
	 "gaussian": { 
		 "optdone": 1, 
		 "sigma_profile": "yes", 
		 "theory": "DFT", 
		 "functional": "B3LYP", 
		 "basiset": "6-31G**", 
		 "properties": { 
			 "R2extent": 5388.5301, 
			 "electric_dipole_moment_norm": 0.0567720882124, 
			 "electric_quadrupole_moment_norm": 11.5553532356, 
			 "total_energy": -693.182910936, 
			 "HOMO_LUMO_gap": 0.13846, 
			 "cosmo_polarized_energy": -7.11, 
			 "cosmo_cavitation_energy": 32.91, 
			 "cosmo_dispersion_energy": -24.67, 
			 "cosmo_repulsion_energy": 1.8, 
			 "cosmo_total_nonelectrostatic_energy": 10.04, 
			 "SMD_solvation_energy": 4.64 
		},
		"coords": [
			{
				"x": -2.883283797,
				"y": 1.2798280434,
				"z": -2.8965528979,
				"element": "C" 
			},
			{
				"x": -1.8050728527,
				"y": 2.0528800935,
				"z": -2.5437611785,
				"element": "C" 
			},
			{
				"x": -0.8932083065,
				"y": 1.6181630517,
				"z": -1.5368989854,
				"element": "C" 
			},
			{
				"x": -1.1207256667,
				"y": 0.3521983854,
				"z": -0.893535504,
				"element": "C" 
			},
			{
				"x": -2.2518197172,
				"y": -0.4223409882,
				"z": -1.2873407097,
				"element": "C" 
			},
			{
				"x": -3.1093563388,
				"y": 0.0273163418,
				"z": -2.2607737577,
				"element": "C" 
			},
			{
				"x": -0.2245875632,
				"y": -0.0834583037,
				"z": 0.101456097,
				"element": "C" 
			},
			{
				"x": 0.8825550164,
				"y": 0.6675260537,
				"z": 0.4916724601,
				"element": "C" 
			},
			{
				"x": 1.1049816238,
				"y": 1.9372275831,
				"z": -0.1581180062,
				"element": "C" 
			},
			{
				"x": 2.2406941351,
				"y": 2.7374622377,
				"z": 0.2228590967,
				"element": "C" 
			},
			{
				"x": 3.1063639495,
				"y": 2.3225596983,
				"z": 1.1803666575,
				"element": "C" 
			},
			{
				"x": 2.9289409918,
				"y": 1.0632141955,
				"z": 1.8591341365,
				"element": "C" 
			},
			{
				"x": 1.8239266894,
				"y": 0.2276488228,
				"z": 1.5254099883,
				"element": "C" 
			},
			{
				"x": 1.6892323696,
				"y": -0.9965380535,
				"z": 2.2150113231,
				"element": "C" 
			},
			{
				"x": 2.5972655431,
				"y": -1.3836486146,
				"z": 3.188082782,
				"element": "C" 
			},
			{
				"x": 3.6843521944,
				"y": -0.555811977,
				"z": 3.5127482399,
				"element": "C" 
			},
			{
				"x": 3.8420554835,
				"y": 0.6502052534,
				"z": 2.8530991553,
				"element": "C" 
			},
			{
				"x": 0.222797668,
				"y": 2.3760786458,
				"z": -1.1441787793,
				"element": "C" 
			},
			{
				"x": -3.5710035674,
				"y": 1.6213433196,
				"z": -3.6647977344,
				"element": "H" 
			},
			{
				"x": -1.6291984762,
				"y": 3.0104507407,
				"z": -3.027402125,
				"element": "H" 
			},
			{
				"x": -2.4230244969,
				"y": -1.3792023771,
				"z": -0.8004156211,
				"element": "H" 
			},
			{
				"x": -3.9669817739,
				"y": -0.57260799,
				"z": -2.5511185586,
				"element": "H" 
			},
			{
				"x": -0.4256984124,
				"y": -1.0431808194,
				"z": 0.5664588128,
				"element": "H" 
			},
			{
				"x": 2.3872257836,
				"y": 3.6895693089,
				"z": -0.2805230164,
				"element": "H" 
			},
			{
				"x": 3.9589539975,
				"y": 2.9372795417,
				"z": 1.4573227561,
				"element": "H" 
			},
			{
				"x": 0.8605409829,
				"y": -1.6578133565,
				"z": 1.9869976568,
				"element": "H" 
			},
			{
				"x": 2.4648719697,
				"y": -2.3322937334,
				"z": 3.7002219266,
				"element": "H" 
			},
			{
				"x": 4.3949084427,
				"y": -0.8605845282,
				"z": 4.2754249863,
				"element": "H" 
			},
			{
				"x": 4.6786919012,
				"y": 1.30141947,
				"z": 3.0937463268,
				"element": "H" 
			},
			{
				"x": 0.4047022265,
				"y": 3.3353099546,
				"z": -1.6240955276,
				"element": "H" 
			}
		],
		 "valence_orbital": [ 
			{
				"type": "occ",
				"energy": -0.28673,
				"method": "rhf"
			},
			{
				"type": "occ",
				"energy": -0.26498,
				"method": "rhf"
			},
			{
				"type": "occ",
				"energy": -0.24607,
				"method": "rhf"
			},
			{
				"type": "occ",
				"energy": -0.21895,
				"method": "rhf"
			},
			{
				"type": "occ",
				"energy": -0.19594,
				"method": "rhf"
			},
			{
				"type": "unocc",
				"energy": -0.05748,
				"method": "rhf"
			},
			{
				"type": "unocc",
				"energy": -0.03342,
				"method": "rhf"
			},
			{
				"type": "unocc",
				"energy": -0.0028,
				"method": "rhf"
			},
			{
				"type": "unocc",
				"energy": 0.01486,
				"method": "rhf"
			},
			{
				"type": "unocc",
				"energy": 0.04021,
				"method": "rhf"
			}
		],
		"cosmo_sigma_profile": { 
			"-0.025": 0.0,
			"-0.024": 0.0,
			"-0.023": 0.0,
			"-0.022": 0.0,
			"-0.021": 0.0,
			"-0.02": 0.0,
			"-0.019": 0.0,
			"-0.018": 0.0,
			"-0.017": 0.0,
			"-0.016": 0.0,
			"-0.015": 0.0,
			"-0.014": 0.0,
			"-0.013": 0.0,
			"-0.012": 0.0,
			"-0.011": 0.0,
			"-0.01": 0.0,
			"-0.009": 0.0214410494396,
			"-0.008": 1.30543708528,
			"-0.007": 2.01480159505,
			"-0.006": 19.7140899118,
			"-0.005": 23.3889396265,
			"-0.004": 23.232435952,
			"-0.003": 20.5906929627,
			"-0.002": 14.5152309652,
			"-0.001": 12.755242609,
			"0.0": 13.4773769605,
			"0.001": 14.5693374737,
			"0.002": 17.5296951616,
			"0.003": 32.4181044194,
			"0.004": 44.1289126869,
			"0.005": 22.4952662858,
			"0.006": 3.08845364205,
			"0.007": 0.0,
			"0.008": 0.0,
			"0.009": 0.0,
			"0.01": 0.0,
			"0.011": 0.0,
			"0.012": 0.0,
			"0.013": 0.0,
			"0.014": 0.0,
			"0.015": 0.0,
			"0.016": 0.0,
			"0.017": 0.0,
			"0.018": 0.0,
			"0.019": 0.0,
			"0.02": 0.0,
			"0.021": 0.0,
			"0.022": 0.0,
			"0.023": 0.0,
			"0.024": 0.0,
			"0.025": 0.0
		}
	}
}
