{
	 "smiles": "CCOC(=O)CN1C(Br)=NC(Cl)=C1Cl", 
	 "Tm": 316.65, 
	 "num_atms": 21, 
	 "gaussian": { 
		 "optdone": 1, 
		 "sigma_profile": "yes", 
		 "theory": "DFT", 
		 "functional": "B3LYP", 
		 "basiset": "6-31G**", 
		 "properties": { 
			 "R2extent": 5288.5216, 
			 "electric_dipole_moment_norm": 2.84978420587, 
			 "electric_quadrupole_moment_norm": 15.0500745905, 
			 "total_energy": -4022.68826881, 
			 "HOMO_LUMO_gap": 0.21356, 
			 "cosmo_polarized_energy": -11.02, 
			 "cosmo_cavitation_energy": 32.22, 
			 "cosmo_dispersion_energy": -22.46, 
			 "cosmo_repulsion_energy": 1.83, 
			 "cosmo_total_nonelectrostatic_energy": 11.59, 
			 "SMD_solvation_energy": 3.31 
		},
		"coords": [
			{
				"x": -1.0017873927,
				"y": -1.8804286135,
				"z": -2.6115438173,
				"element": "C" 
			},
			{
				"x": -0.8041759488,
				"y": -0.3736112251,
				"z": -2.6239182496,
				"element": "C" 
			},
			{
				"x": -0.3689351877,
				"y": 0.1059541942,
				"z": -1.3204679783,
				"element": "O" 
			},
			{
				"x": 0.945358616,
				"y": 0.0772490564,
				"z": -1.0786789073,
				"element": "C" 
			},
			{
				"x": 1.8050494,
				"y": -0.3013749345,
				"z": -1.8418381181,
				"element": "O" 
			},
			{
				"x": 1.2975724779,
				"y": 0.5900258306,
				"z": 0.3207511794,
				"element": "C" 
			},
			{
				"x": 0.181937794,
				"y": 1.0551598446,
				"z": 1.121805537,
				"element": "N" 
			},
			{
				"x": -0.6087356769,
				"y": 0.3309588381,
				"z": 1.9754558325,
				"element": "C" 
			},
			{
				"x": -0.2646550087,
				"y": -1.4784877754,
				"z": 2.3535825586,
				"element": "Br" 
			},
			{
				"x": -1.5924957631,
				"y": 1.0205889469,
				"z": 2.4889527545,
				"element": "N" 
			},
			{
				"x": -1.4676753062,
				"y": 2.2665507193,
				"z": 1.9441176416,
				"element": "C" 
			},
			{
				"x": -2.5534948718,
				"y": 3.5486479521,
				"z": 2.3288227266,
				"element": "Cl" 
			},
			{
				"x": -0.3918990562,
				"y": 2.3215304143,
				"z": 1.0941790414,
				"element": "C" 
			},
			{
				"x": 0.2407725879,
				"y": 3.6015679515,
				"z": 0.1437175624,
				"element": "Cl" 
			},
			{
				"x": -0.0509056802,
				"y": -2.3941117378,
				"z": -2.4497942193,
				"element": "H" 
			},
			{
				"x": -1.4062512933,
				"y": -2.2051078676,
				"z": -3.575750453,
				"element": "H" 
			},
			{
				"x": -1.704275144,
				"y": -2.1752540985,
				"z": -1.8270048593,
				"element": "H" 
			},
			{
				"x": -0.0639140453,
				"y": -0.0721694983,
				"z": -3.3682796867,
				"element": "H" 
			},
			{
				"x": -1.7412490534,
				"y": 0.1574449963,
				"z": -2.8015775043,
				"element": "H" 
			},
			{
				"x": 1.7967171497,
				"y": -0.2213685354,
				"z": 0.8541463587,
				"element": "H" 
			},
			{
				"x": 2.0201414027,
				"y": 1.4002355419,
				"z": 0.2032226005,
				"element": "H" 
			}
		],
		 "valence_orbital": [ 
			{
				"type": "occ",
				"energy": -0.31708,
				"method": "rhf"
			},
			{
				"type": "occ",
				"energy": -0.30755,
				"method": "rhf"
			},
			{
				"type": "occ",
				"energy": -0.30432,
				"method": "rhf"
			},
			{
				"type": "occ",
				"energy": -0.28255,
				"method": "rhf"
			},
			{
				"type": "occ",
				"energy": -0.23334,
				"method": "rhf"
			},
			{
				"type": "unocc",
				"energy": -0.01978,
				"method": "rhf"
			},
			{
				"type": "unocc",
				"energy": -0.01103,
				"method": "rhf"
			},
			{
				"type": "unocc",
				"energy": -0.00981,
				"method": "rhf"
			},
			{
				"type": "unocc",
				"energy": 0.02649,
				"method": "rhf"
			},
			{
				"type": "unocc",
				"energy": 0.03663,
				"method": "rhf"
			}
		],
		"cosmo_sigma_profile": { 
			"-0.025": 0.0,
			"-0.024": 0.0,
			"-0.023": 0.0,
			"-0.022": 0.0,
			"-0.021": 0.0,
			"-0.02": 0.0,
			"-0.019": 0.0,
			"-0.018": 0.0,
			"-0.017": 0.0,
			"-0.016": 0.0,
			"-0.015": 0.0,
			"-0.014": 0.0,
			"-0.013": 0.0,
			"-0.012": 0.0,
			"-0.011": 0.0,
			"-0.01": 0.555423683541,
			"-0.009": 3.71290070629,
			"-0.008": 4.96284038898,
			"-0.007": 6.2358476802,
			"-0.006": 9.44165527359,
			"-0.005": 12.3130652825,
			"-0.004": 20.5257685063,
			"-0.003": 21.3693363014,
			"-0.002": 19.6557819677,
			"-0.001": 24.2518258446,
			"0.0": 27.4414045452,
			"0.001": 23.6196511097,
			"0.002": 26.5507399625,
			"0.003": 22.5589719216,
			"0.004": 12.5740758285,
			"0.005": 4.91775574285,
			"0.006": 3.07863889382,
			"0.007": 3.2881700589,
			"0.008": 2.30003130333,
			"0.009": 2.68090978369,
			"0.01": 4.02581201047,
			"0.011": 5.26154592441,
			"0.012": 2.67956633881,
			"0.013": 0.860690626993,
			"0.014": 0.551595290086,
			"0.015": 0.0,
			"0.016": 0.0,
			"0.017": 0.0,
			"0.018": 0.0,
			"0.019": 0.0,
			"0.02": 0.0,
			"0.021": 0.0,
			"0.022": 0.0,
			"0.023": 0.0,
			"0.024": 0.0,
			"0.025": 0.0
		}
	}
}
