{
	 "smiles": "OC(=O)C1=CC=C(CC#N)C=C1", 
	 "Tm": 463.15, 
	 "num_atms": 19, 
	 "gaussian": { 
		 "optdone": 1, 
		 "sigma_profile": "yes", 
		 "theory": "DFT", 
		 "functional": "B3LYP", 
		 "basiset": "6-31G**", 
		 "properties": { 
			 "R2extent": 3327.6223, 
			 "electric_dipole_moment_norm": 1.92600474818, 
			 "electric_quadrupole_moment_norm": 28.3400928691, 
			 "total_energy": -552.377630004, 
			 "HOMO_LUMO_gap": 0.21017, 
			 "cosmo_polarized_energy": -15.18, 
			 "cosmo_cavitation_energy": 24.96, 
			 "cosmo_dispersion_energy": -17.77, 
			 "cosmo_repulsion_energy": 1.41, 
			 "cosmo_total_nonelectrostatic_energy": 8.6, 
			 "SMD_solvation_energy": 6.82 
		},
		"coords": [
			{
				"x": 0.0664372168,
				"y": 0.7214667992,
				"z": -2.3614557972,
				"element": "O" 
			},
			{
				"x": 0.1031512943,
				"y": -0.2624331061,
				"z": -1.4291815845,
				"element": "C" 
			},
			{
				"x": 0.090114857,
				"y": -1.4398382115,
				"z": -1.7297613282,
				"element": "O" 
			},
			{
				"x": 0.1596056039,
				"y": 0.2563495176,
				"z": -0.0366909368,
				"element": "C" 
			},
			{
				"x": 0.2009516927,
				"y": -0.6746879694,
				"z": 1.0108660971,
				"element": "C" 
			},
			{
				"x": 0.2542241512,
				"y": -0.2386314212,
				"z": 2.3285181037,
				"element": "C" 
			},
			{
				"x": 0.2672980433,
				"y": 1.1323892419,
				"z": 2.6251247923,
				"element": "C" 
			},
			{
				"x": 0.3276889422,
				"y": 1.5513183456,
				"z": 4.0902608796,
				"element": "C" 
			},
			{
				"x": 0.3280138546,
				"y": 2.9977186288,
				"z": 4.3185447399,
				"element": "C" 
			},
			{
				"x": 0.3283993108,
				"y": 4.1442858253,
				"z": 4.4966751855,
				"element": "N" 
			},
			{
				"x": 0.2259712247,
				"y": 2.0587259038,
				"z": 1.5794364029,
				"element": "C" 
			},
			{
				"x": 0.1723820681,
				"y": 1.6248130132,
				"z": 0.2549208402,
				"element": "C" 
			},
			{
				"x": 0.0314780149,
				"y": 0.2707323418,
				"z": -3.2210913635,
				"element": "H" 
			},
			{
				"x": 0.1902462027,
				"y": -1.7318885764,
				"z": 0.7686088287,
				"element": "H" 
			},
			{
				"x": 0.2859415497,
				"y": -0.9665132517,
				"z": 3.1355104444,
				"element": "H" 
			},
			{
				"x": 1.2285909924,
				"y": 1.1354128183,
				"z": 4.559465492,
				"element": "H" 
			},
			{
				"x": -0.5236689594,
				"y": 1.1236146964,
				"z": 4.6351153253,
				"element": "H" 
			},
			{
				"x": 0.2353574869,
				"y": 3.1218601633,
				"z": 1.7982653197,
				"element": "H" 
			},
			{
				"x": 0.1404164533,
				"y": 2.3468052413,
				"z": -0.5529314411,
				"element": "H" 
			}
		],
		 "valence_orbital": [ 
			{
				"type": "occ",
				"energy": -0.33535,
				"method": "rhf"
			},
			{
				"type": "occ",
				"energy": -0.3249,
				"method": "rhf"
			},
			{
				"type": "occ",
				"energy": -0.28354,
				"method": "rhf"
			},
			{
				"type": "occ",
				"energy": -0.27274,
				"method": "rhf"
			},
			{
				"type": "occ",
				"energy": -0.26895,
				"method": "rhf"
			},
			{
				"type": "unocc",
				"energy": -0.05878,
				"method": "rhf"
			},
			{
				"type": "unocc",
				"energy": -0.02431,
				"method": "rhf"
			},
			{
				"type": "unocc",
				"energy": 0.02249,
				"method": "rhf"
			},
			{
				"type": "unocc",
				"energy": 0.03179,
				"method": "rhf"
			},
			{
				"type": "unocc",
				"energy": 0.04554,
				"method": "rhf"
			}
		],
		"cosmo_sigma_profile": { 
			"-0.025": 0.0,
			"-0.024": 0.0,
			"-0.023": 0.0,
			"-0.022": 0.0,
			"-0.021": 0.0,
			"-0.02": 0.0,
			"-0.019": 0.0477794661177,
			"-0.018": 0.852280011187,
			"-0.017": 0.685815570503,
			"-0.016": 0.842897480049,
			"-0.015": 1.03554935725,
			"-0.014": 0.647861664508,
			"-0.013": 0.379991833413,
			"-0.012": 0.696342162253,
			"-0.011": 0.986084776257,
			"-0.01": 1.5064889478,
			"-0.009": 6.62512876626,
			"-0.008": 7.21367880213,
			"-0.007": 9.79321359467,
			"-0.006": 11.7109813814,
			"-0.005": 10.296866173,
			"-0.004": 8.38371702164,
			"-0.003": 9.70024881556,
			"-0.002": 12.2559286309,
			"-0.001": 10.5572835302,
			"0.0": 12.1391315045,
			"0.001": 13.2641968504,
			"0.002": 14.4080523001,
			"0.003": 16.829277472,
			"0.004": 4.57127310268,
			"0.005": 5.50557867232,
			"0.006": 5.36234199949,
			"0.007": 5.83236104265,
			"0.008": 4.90760263535,
			"0.009": 4.38703475603,
			"0.01": 5.04293599689,
			"0.011": 6.51117245676,
			"0.012": 6.36120099951,
			"0.013": 1.48414278218,
			"0.014": 0.00598483108677,
			"0.015": 0.0,
			"0.016": 0.0,
			"0.017": 0.0,
			"0.018": 0.0,
			"0.019": 0.0,
			"0.02": 0.0,
			"0.021": 0.0,
			"0.022": 0.0,
			"0.023": 0.0,
			"0.024": 0.0,
			"0.025": 0.0
		}
	}
}
