{
	 "smiles": "NC(=S)CN1C=CC(=O)NC1=O", 
	 "Tm": 530.15, 
	 "num_atms": 19, 
	 "gaussian": { 
		 "optdone": 1, 
		 "sigma_profile": "yes", 
		 "theory": "DFT", 
		 "functional": "B3LYP", 
		 "basiset": "6-31G**", 
		 "properties": { 
			 "R2extent": 2620.2158, 
			 "electric_dipole_moment_norm": 1.72778237055, 
			 "electric_quadrupole_moment_norm": 21.740057556, 
			 "total_energy": -945.788178494, 
			 "HOMO_LUMO_gap": 0.16693, 
			 "cosmo_polarized_energy": -20.4, 
			 "cosmo_cavitation_energy": 25.4, 
			 "cosmo_dispersion_energy": -19.04, 
			 "cosmo_repulsion_energy": 1.47, 
			 "cosmo_total_nonelectrostatic_energy": 7.84, 
			 "SMD_solvation_energy": 4.93 
		},
		"coords": [
			{
				"x": -1.7977353542,
				"y": 0.0375204101,
				"z": -1.8095326754,
				"element": "N" 
			},
			{
				"x": -2.0348538196,
				"y": 0.6993499876,
				"z": -0.6684023246,
				"element": "C" 
			},
			{
				"x": -2.617224566,
				"y": 2.2531125104,
				"z": -0.5703978296,
				"element": "S" 
			},
			{
				"x": -1.712178455,
				"y": -0.1137879275,
				"z": 0.5884324002,
				"element": "C" 
			},
			{
				"x": -0.2656525386,
				"y": -0.2759437264,
				"z": 0.803789314,
				"element": "N" 
			},
			{
				"x": 0.4336864246,
				"y": 0.6069177075,
				"z": 1.60541589,
				"element": "C" 
			},
			{
				"x": 1.7545724692,
				"y": 0.4818422484,
				"z": 1.8571841808,
				"element": "C" 
			},
			{
				"x": 2.5105457285,
				"y": -0.6155619776,
				"z": 1.2714624746,
				"element": "C" 
			},
			{
				"x": 3.6963202189,
				"y": -0.8528897526,
				"z": 1.4184659949,
				"element": "O" 
			},
			{
				"x": 1.7135744247,
				"y": -1.4503547328,
				"z": 0.4485031708,
				"element": "N" 
			},
			{
				"x": 0.3774291458,
				"y": -1.326917795,
				"z": 0.1509495241,
				"element": "C" 
			},
			{
				"x": -0.2094631724,
				"y": -2.0775219024,
				"z": -0.6267790112,
				"element": "O" 
			},
			{
				"x": -1.3783826079,
				"y": -0.8891731208,
				"z": -1.7843994772,
				"element": "H" 
			},
			{
				"x": -1.9418225377,
				"y": 0.5113364009,
				"z": -2.6898049838,
				"element": "H" 
			},
			{
				"x": -2.1301118326,
				"y": 0.3949378602,
				"z": 1.4543352677,
				"element": "H" 
			},
			{
				"x": -2.1449151161,
				"y": -1.1146487298,
				"z": 0.5098711827,
				"element": "H" 
			},
			{
				"x": -0.1631856997,
				"y": 1.4134790977,
				"z": 2.0160670474,
				"element": "H" 
			},
			{
				"x": 2.2774540073,
				"y": 1.1834852987,
				"z": 2.4921221961,
				"element": "H" 
			},
			{
				"x": 2.1944432806,
				"y": -2.2130818567,
				"z": -0.0140823414,
				"element": "H" 
			}
		],
		 "valence_orbital": [ 
			{
				"type": "occ",
				"energy": -0.30191,
				"method": "rhf"
			},
			{
				"type": "occ",
				"energy": -0.27583,
				"method": "rhf"
			},
			{
				"type": "occ",
				"energy": -0.2607,
				"method": "rhf"
			},
			{
				"type": "occ",
				"energy": -0.24524,
				"method": "rhf"
			},
			{
				"type": "occ",
				"energy": -0.22131,
				"method": "rhf"
			},
			{
				"type": "unocc",
				"energy": -0.05438,
				"method": "rhf"
			},
			{
				"type": "unocc",
				"energy": -0.04839,
				"method": "rhf"
			},
			{
				"type": "unocc",
				"energy": -0.01003,
				"method": "rhf"
			},
			{
				"type": "unocc",
				"energy": 0.06008,
				"method": "rhf"
			},
			{
				"type": "unocc",
				"energy": 0.07871,
				"method": "rhf"
			}
		],
		"cosmo_sigma_profile": { 
			"-0.025": 0.0,
			"-0.024": 0.0,
			"-0.023": 0.0,
			"-0.022": 0.0,
			"-0.021": 0.0,
			"-0.02": 0.0,
			"-0.019": 0.0,
			"-0.018": 0.0,
			"-0.017": 0.0,
			"-0.016": 1.0782221218,
			"-0.015": 2.02406531328,
			"-0.014": 1.5578396585,
			"-0.013": 1.94191529688,
			"-0.012": 2.50278739358,
			"-0.011": 2.99415100707,
			"-0.01": 4.77038274269,
			"-0.009": 5.31761907544,
			"-0.008": 8.05495408956,
			"-0.007": 9.68266366765,
			"-0.006": 10.5195668195,
			"-0.005": 13.2820957513,
			"-0.004": 11.5987776263,
			"-0.003": 10.5688118232,
			"-0.002": 11.843641484,
			"-0.001": 10.2302841411,
			"0.0": 9.8391358149,
			"0.001": 7.37345471303,
			"0.002": 6.68976134082,
			"0.003": 5.99915757452,
			"0.004": 5.6824418896,
			"0.005": 5.46573656415,
			"0.006": 6.7582696482,
			"0.007": 7.46673755019,
			"0.008": 7.80764467808,
			"0.009": 7.38976171301,
			"0.01": 6.34370239673,
			"0.011": 7.76487062223,
			"0.012": 7.54488171535,
			"0.013": 4.84956245116,
			"0.014": 0.685083240179,
			"0.015": 0.0,
			"0.016": 0.0,
			"0.017": 0.0,
			"0.018": 0.0,
			"0.019": 0.0,
			"0.02": 0.0,
			"0.021": 0.0,
			"0.022": 0.0,
			"0.023": 0.0,
			"0.024": 0.0,
			"0.025": 0.0
		}
	}
}
