{
	 "smiles": "NC(=S)C1=C(N)N=CC=C1", 
	 "Tm": 398.15, 
	 "num_atms": 17, 
	 "gaussian": { 
		 "optdone": 1, 
		 "sigma_profile": "yes", 
		 "theory": "DFT", 
		 "functional": "B3LYP", 
		 "basiset": "6-31G**", 
		 "properties": { 
			 "R2extent": 2952.5435, 
			 "electric_dipole_moment_norm": 3.43898288597, 
			 "electric_quadrupole_moment_norm": 21.6322886845, 
			 "total_energy": -795.314520306, 
			 "HOMO_LUMO_gap": 0.14579, 
			 "cosmo_polarized_energy": -16.01, 
			 "cosmo_cavitation_energy": 22.39, 
			 "cosmo_dispersion_energy": -17.49, 
			 "cosmo_repulsion_energy": 1.38, 
			 "cosmo_total_nonelectrostatic_energy": 6.28, 
			 "SMD_solvation_energy": 1.88 
		},
		"coords": [
			{
				"x": -0.5315341434,
				"y": -2.1682840439,
				"z": -2.8508899924,
				"element": "N" 
			},
			{
				"x": 0.36520405,
				"y": -2.640601962,
				"z": -1.952957266,
				"element": "C" 
			},
			{
				"x": 1.4521459223,
				"y": -3.8377960162,
				"z": -2.3826667215,
				"element": "S" 
			},
			{
				"x": 0.31326151,
				"y": -2.0345408493,
				"z": -0.5936614947,
				"element": "C" 
			},
			{
				"x": -0.1688395559,
				"y": -0.7234618003,
				"z": -0.3146681763,
				"element": "C" 
			},
			{
				"x": -0.6017224176,
				"y": 0.1502067989,
				"z": -1.3136935282,
				"element": "N" 
			},
			{
				"x": -0.2716753393,
				"y": -0.2363497978,
				"z": 0.9300581506,
				"element": "N" 
			},
			{
				"x": 0.1074707592,
				"y": -1.0056786802,
				"z": 1.9527651786,
				"element": "C" 
			},
			{
				"x": 0.6412499893,
				"y": -2.2837621723,
				"z": 1.7971357056,
				"element": "C" 
			},
			{
				"x": 0.7431080214,
				"y": -2.7887470762,
				"z": 0.5062926232,
				"element": "C" 
			},
			{
				"x": -0.5738479421,
				"y": -2.6254618784,
				"z": -3.750164654,
				"element": "H" 
			},
			{
				"x": -1.282511175,
				"y": -1.5500929231,
				"z": -2.5690613313,
				"element": "H" 
			},
			{
				"x": -0.7520911697,
				"y": 1.0776459222,
				"z": -0.9337240334,
				"element": "H" 
			},
			{
				"x": -0.0482135172,
				"y": 0.1557159134,
				"z": -2.1617622619,
				"element": "H" 
			},
			{
				"x": -0.014225055,
				"y": -0.5697455749,
				"z": 2.9429017622,
				"element": "H" 
			},
			{
				"x": 0.9569584094,
				"y": -2.8645709539,
				"z": 2.6565838017,
				"element": "H" 
			},
			{
				"x": 1.1416616537,
				"y": -3.7795749058,
				"z": 0.3167122377,
				"element": "H" 
			}
		],
		 "valence_orbital": [ 
			{
				"type": "occ",
				"energy": -0.29066,
				"method": "rhf"
			},
			{
				"type": "occ",
				"energy": -0.27181,
				"method": "rhf"
			},
			{
				"type": "occ",
				"energy": -0.24101,
				"method": "rhf"
			},
			{
				"type": "occ",
				"energy": -0.22562,
				"method": "rhf"
			},
			{
				"type": "occ",
				"energy": -0.20918,
				"method": "rhf"
			},
			{
				"type": "unocc",
				"energy": -0.06339,
				"method": "rhf"
			},
			{
				"type": "unocc",
				"energy": -0.01692,
				"method": "rhf"
			},
			{
				"type": "unocc",
				"energy": 0.0159,
				"method": "rhf"
			},
			{
				"type": "unocc",
				"energy": 0.0749,
				"method": "rhf"
			},
			{
				"type": "unocc",
				"energy": 0.09051,
				"method": "rhf"
			}
		],
		"cosmo_sigma_profile": { 
			"-0.025": 0.0,
			"-0.024": 0.0,
			"-0.023": 0.0,
			"-0.022": 0.0,
			"-0.021": 0.0,
			"-0.02": 0.0,
			"-0.019": 0.0,
			"-0.018": 0.0,
			"-0.017": 0.0,
			"-0.016": 0.0,
			"-0.015": 0.403804262894,
			"-0.014": 1.26474242209,
			"-0.013": 2.68892068418,
			"-0.012": 4.79697363428,
			"-0.011": 4.17041558619,
			"-0.01": 4.45341974325,
			"-0.009": 3.84254179677,
			"-0.008": 4.17796706863,
			"-0.007": 6.55329890309,
			"-0.006": 8.29274099684,
			"-0.005": 9.97992725393,
			"-0.004": 7.3900067127,
			"-0.003": 6.79630357527,
			"-0.002": 7.66900511378,
			"-0.001": 7.899489011,
			"0.0": 11.171978624,
			"0.001": 12.5342192174,
			"0.002": 12.3254288319,
			"0.003": 9.99938810698,
			"0.004": 7.59055781605,
			"0.005": 5.58025608018,
			"0.006": 6.64924929924,
			"0.007": 5.98718012413,
			"0.008": 7.72574638181,
			"0.009": 7.95263438135,
			"0.01": 5.11858474937,
			"0.011": 4.52903536208,
			"0.012": 2.13829589209,
			"0.013": 1.08923484709,
			"0.014": 0.643020856996,
			"0.015": 0.0824562153857,
			"0.016": 0.0,
			"0.017": 0.0,
			"0.018": 0.0,
			"0.019": 0.0,
			"0.02": 0.0,
			"0.021": 0.0,
			"0.022": 0.0,
			"0.023": 0.0,
			"0.024": 0.0,
			"0.025": 0.0
		}
	}
}
