{
	 "smiles": "CN(CC(O)=O)S(=O)(=O)C1=CC=CS1", 
	 "Tm": 427.15, 
	 "num_atms": 23, 
	 "gaussian": { 
		 "optdone": 1, 
		 "sigma_profile": "yes", 
		 "theory": "DFT", 
		 "functional": "B3LYP", 
		 "basiset": "6-31G**", 
		 "properties": { 
			 "R2extent": 5141.4047, 
			 "electric_dipole_moment_norm": 6.64105237519, 
			 "electric_quadrupole_moment_norm": 16.8744896109, 
			 "total_energy": -1424.1009089, 
			 "HOMO_LUMO_gap": 0.20075, 
			 "cosmo_polarized_energy": -19.55, 
			 "cosmo_cavitation_energy": 30.07, 
			 "cosmo_dispersion_energy": -21.91, 
			 "cosmo_repulsion_energy": 1.63, 
			 "cosmo_total_nonelectrostatic_energy": 9.8, 
			 "SMD_solvation_energy": 5.89 
		},
		"coords": [
			{
				"x": 0.1511198042,
				"y": -1.438410619,
				"z": 0.5064142977,
				"element": "C" 
			},
			{
				"x": 1.1613564573,
				"y": -1.4413712634,
				"z": -0.5644362887,
				"element": "N" 
			},
			{
				"x": 2.0663011152,
				"y": -0.2853442689,
				"z": -0.5595949761,
				"element": "C" 
			},
			{
				"x": 3.1801300312,
				"y": -0.4541816577,
				"z": 0.4858131403,
				"element": "C" 
			},
			{
				"x": 3.4637593018,
				"y": -1.7297158397,
				"z": 0.8038637143,
				"element": "O" 
			},
			{
				"x": 3.7708570994,
				"y": 0.4856298639,
				"z": 0.9542317594,
				"element": "O" 
			},
			{
				"x": 0.6168847242,
				"y": -1.9877077595,
				"z": -2.0893209882,
				"element": "S" 
			},
			{
				"x": 1.7879533675,
				"y": -1.936610141,
				"z": -2.9631051211,
				"element": "O" 
			},
			{
				"x": -0.1241909622,
				"y": -3.2178244481,
				"z": -1.8222492534,
				"element": "O" 
			},
			{
				"x": -0.5510481548,
				"y": -0.7940955316,
				"z": -2.6779168808,
				"element": "C" 
			},
			{
				"x": -1.9107866972,
				"y": -0.8410759644,
				"z": -2.4844838631,
				"element": "C" 
			},
			{
				"x": -2.5728330904,
				"y": 0.2809413057,
				"z": -3.0566133333,
				"element": "C" 
			},
			{
				"x": -1.7054005917,
				"y": 1.1494010457,
				"z": -3.6674946881,
				"element": "C" 
			},
			{
				"x": -0.0628424263,
				"y": 0.6179905215,
				"z": -3.5735676575,
				"element": "S" 
			},
			{
				"x": 0.6721794364,
				"y": -1.3524762637,
				"z": 1.4633152571,
				"element": "H" 
			},
			{
				"x": -0.392108759,
				"y": -2.3826941166,
				"z": 0.4902005767,
				"element": "H" 
			},
			{
				"x": -0.55226106,
				"y": -0.6001729,
				"z": 0.4090617809,
				"element": "H" 
			},
			{
				"x": 2.5568717977,
				"y": -0.216012267,
				"z": -1.5345072371,
				"element": "H" 
			},
			{
				"x": 1.5490514249,
				"y": 0.6596596302,
				"z": -0.359053116,
				"element": "H" 
			},
			{
				"x": 2.8527775653,
				"y": -2.300179629,
				"z": 0.2991443069,
				"element": "H" 
			},
			{
				"x": -2.4028642721,
				"y": -1.6604035412,
				"z": -1.9750655686,
				"element": "H" 
			},
			{
				"x": -3.6454230927,
				"y": 0.4312432593,
				"z": -3.0242582679,
				"element": "H" 
			},
			{
				"x": -1.9384830186,
				"y": 2.0693105845,
				"z": -4.1868775935,
				"element": "H" 
			}
		],
		 "valence_orbital": [ 
			{
				"type": "occ",
				"energy": -0.31751,
				"method": "rhf"
			},
			{
				"type": "occ",
				"energy": -0.3094,
				"method": "rhf"
			},
			{
				"type": "occ",
				"energy": -0.28791,
				"method": "rhf"
			},
			{
				"type": "occ",
				"energy": -0.27658,
				"method": "rhf"
			},
			{
				"type": "occ",
				"energy": -0.26573,
				"method": "rhf"
			},
			{
				"type": "unocc",
				"energy": -0.06498,
				"method": "rhf"
			},
			{
				"type": "unocc",
				"energy": -0.00549,
				"method": "rhf"
			},
			{
				"type": "unocc",
				"energy": 0.00563,
				"method": "rhf"
			},
			{
				"type": "unocc",
				"energy": 0.01991,
				"method": "rhf"
			},
			{
				"type": "unocc",
				"energy": 0.03513,
				"method": "rhf"
			}
		],
		"cosmo_sigma_profile": { 
			"-0.025": 0.0,
			"-0.024": 0.0,
			"-0.023": 0.0,
			"-0.022": 0.0,
			"-0.021": 0.0,
			"-0.02": 0.0,
			"-0.019": 0.0,
			"-0.018": 0.0,
			"-0.017": 0.0,
			"-0.016": 0.0,
			"-0.015": 0.351802972556,
			"-0.014": 0.49146115372,
			"-0.013": 0.597965422925,
			"-0.012": 0.362064429168,
			"-0.011": 1.1089106589,
			"-0.01": 3.11706188711,
			"-0.009": 5.13079587025,
			"-0.008": 9.78149262177,
			"-0.007": 14.5795235971,
			"-0.006": 16.8721009167,
			"-0.005": 15.882172376,
			"-0.004": 16.9309769849,
			"-0.003": 16.6557451763,
			"-0.002": 10.4594719639,
			"-0.001": 12.1121161004,
			"0.0": 12.7581366279,
			"0.001": 16.3303782924,
			"0.002": 15.0163587318,
			"0.003": 8.45027269342,
			"0.004": 5.13837237332,
			"0.005": 4.87887280606,
			"0.006": 6.33841830466,
			"0.007": 4.69570250172,
			"0.008": 6.42134988051,
			"0.009": 10.4232711119,
			"0.01": 12.8145729544,
			"0.011": 8.62725614192,
			"0.012": 4.81401483405,
			"0.013": 0.798365520181,
			"0.014": 0.0,
			"0.015": 0.0,
			"0.016": 0.0,
			"0.017": 0.0,
			"0.018": 0.0,
			"0.019": 0.0,
			"0.02": 0.0,
			"0.021": 0.0,
			"0.022": 0.0,
			"0.023": 0.0,
			"0.024": 0.0,
			"0.025": 0.0
		}
	}
}
