{
	 "smiles": "COP(=S)(OC)OC1=CC=C(C=C1Cl)[N+]([O-])=O", 
	 "Tm": 325.65, 
	 "num_atms": 26, 
	 "gaussian": { 
		 "optdone": 1, 
		 "sigma_profile": "yes", 
		 "theory": "DFT", 
		 "functional": "B3LYP", 
		 "basiset": "6-31G**", 
		 "properties": { 
			 "R2extent": 9747.0506, 
			 "electric_dipole_moment_norm": 5.06538529729, 
			 "electric_quadrupole_moment_norm": 22.8652696052, 
			 "total_energy": -1940.82701002, 
			 "HOMO_LUMO_gap": 0.1636, 
			 "cosmo_polarized_energy": -12.67, 
			 "cosmo_cavitation_energy": 36.85, 
			 "cosmo_dispersion_energy": -25.77, 
			 "cosmo_repulsion_energy": 1.96, 
			 "cosmo_total_nonelectrostatic_energy": 13.03, 
			 "SMD_solvation_energy": 9.98 
		},
		"coords": [
			{
				"x": 3.3326297989,
				"y": -1.3990006879,
				"z": 1.38421874,
				"element": "C" 
			},
			{
				"x": 2.3075362397,
				"y": -2.3290089368,
				"z": 1.7898368145,
				"element": "O" 
			},
			{
				"x": 0.7555018883,
				"y": -1.9250551398,
				"z": 1.7824089261,
				"element": "P" 
			},
			{
				"x": 0.2921947621,
				"y": -0.1910144663,
				"z": 2.5128168972,
				"element": "S" 
			},
			{
				"x": 0.064677449,
				"y": -3.2196622461,
				"z": 2.4246435374,
				"element": "O" 
			},
			{
				"x": -0.0617648898,
				"y": -3.3706142837,
				"z": 3.8543912378,
				"element": "C" 
			},
			{
				"x": 0.4176661011,
				"y": -2.1901856295,
				"z": 0.1987432941,
				"element": "O" 
			},
			{
				"x": -0.8495627448,
				"y": -2.2230029328,
				"z": -0.3402791999,
				"element": "C" 
			},
			{
				"x": -1.6279929338,
				"y": -1.0653622764,
				"z": -0.4273794171,
				"element": "C" 
			},
			{
				"x": -2.8778478941,
				"y": -1.1069101767,
				"z": -1.0358576731,
				"element": "C" 
			},
			{
				"x": -3.3246589756,
				"y": -2.3159493234,
				"z": -1.5625821825,
				"element": "C" 
			},
			{
				"x": -2.5637503017,
				"y": -3.4805543485,
				"z": -1.5021242019,
				"element": "C" 
			},
			{
				"x": -1.3179119653,
				"y": -3.4314105931,
				"z": -0.8854156473,
				"element": "C" 
			},
			{
				"x": -0.3408251316,
				"y": -4.870817451,
				"z": -0.804429335,
				"element": "Cl" 
			},
			{
				"x": -4.6433386152,
				"y": -2.3717918969,
				"z": -2.2131947367,
				"element": "N" 
			},
			{
				"x": -5.0081165718,
				"y": -3.4540991725,
				"z": -2.6700303017,
				"element": "O" 
			},
			{
				"x": -5.2975639854,
				"y": -1.3313167855,
				"z": -2.2583106404,
				"element": "O" 
			},
			{
				"x": 3.2843646611,
				"y": -1.236758219,
				"z": 0.3040474563,
				"element": "H" 
			},
			{
				"x": 3.2205327175,
				"y": -0.44922443,
				"z": 1.9133975691,
				"element": "H" 
			},
			{
				"x": 4.2818226166,
				"y": -1.8666813953,
				"z": 1.6461695654,
				"element": "H" 
			},
			{
				"x": -0.6955341881,
				"y": -4.2442678033,
				"z": 4.0061313903,
				"element": "H" 
			},
			{
				"x": -0.5267315834,
				"y": -2.4846169453,
				"z": 4.2938691564,
				"element": "H" 
			},
			{
				"x": 0.9212181307,
				"y": -3.5414158268,
				"z": 4.3011846768,
				"element": "H" 
			},
			{
				"x": -1.2416452496,
				"y": -0.1439462426,
				"z": -0.0090156157,
				"element": "H" 
			},
			{
				"x": -3.5010100797,
				"y": -0.225361116,
				"z": -1.1125523839,
				"element": "H" 
			},
			{
				"x": -2.9436892551,
				"y": -4.399671675,
				"z": -1.9280879262,
				"element": "H" 
			}
		],
		 "valence_orbital": [ 
			{
				"type": "occ",
				"energy": -0.29733,
				"method": "rhf"
			},
			{
				"type": "occ",
				"energy": -0.28661,
				"method": "rhf"
			},
			{
				"type": "occ",
				"energy": -0.27066,
				"method": "rhf"
			},
			{
				"type": "occ",
				"energy": -0.26155,
				"method": "rhf"
			},
			{
				"type": "occ",
				"energy": -0.25963,
				"method": "rhf"
			},
			{
				"type": "unocc",
				"energy": -0.09603,
				"method": "rhf"
			},
			{
				"type": "unocc",
				"energy": -0.04153,
				"method": "rhf"
			},
			{
				"type": "unocc",
				"energy": -0.0101,
				"method": "rhf"
			},
			{
				"type": "unocc",
				"energy": 0.00716,
				"method": "rhf"
			},
			{
				"type": "unocc",
				"energy": 0.02618,
				"method": "rhf"
			}
		],
		"cosmo_sigma_profile": { 
			"-0.025": 0.0,
			"-0.024": 0.0,
			"-0.023": 0.0,
			"-0.022": 0.0,
			"-0.021": 0.0,
			"-0.02": 0.0,
			"-0.019": 0.0,
			"-0.018": 0.0,
			"-0.017": 0.0,
			"-0.016": 0.0,
			"-0.015": 0.0,
			"-0.014": 0.0,
			"-0.013": 0.0,
			"-0.012": 0.0,
			"-0.011": 0.0,
			"-0.01": 0.0,
			"-0.009": 0.989303322001,
			"-0.008": 4.055662425,
			"-0.007": 11.6170818803,
			"-0.006": 16.722567316,
			"-0.005": 23.670030113,
			"-0.004": 24.3345037272,
			"-0.003": 20.5718265802,
			"-0.002": 24.9900998803,
			"-0.001": 26.6581059588,
			"0.0": 18.7924075858,
			"0.001": 15.4543578182,
			"0.002": 14.5801802019,
			"0.003": 16.6827381168,
			"0.004": 14.607575824,
			"0.005": 15.8612518063,
			"0.006": 14.9665457707,
			"0.007": 17.5637981794,
			"0.008": 10.1486746339,
			"0.009": 4.66418587856,
			"0.01": 1.32986022177,
			"0.011": 0.0,
			"0.012": 0.0,
			"0.013": 0.0,
			"0.014": 0.0,
			"0.015": 0.0,
			"0.016": 0.0,
			"0.017": 0.0,
			"0.018": 0.0,
			"0.019": 0.0,
			"0.02": 0.0,
			"0.021": 0.0,
			"0.022": 0.0,
			"0.023": 0.0,
			"0.024": 0.0,
			"0.025": 0.0
		}
	}
}
