{
	 "smiles": "NCC1=CC(=O)N2C=CC=CC2=N1", 
	 "Tm": 397.15, 
	 "num_atms": 22, 
	 "gaussian": { 
		 "optdone": 1, 
		 "sigma_profile": "yes", 
		 "theory": "DFT", 
		 "functional": "B3LYP", 
		 "basiset": "6-31G**", 
		 "properties": { 
			 "R2extent": 2441.5702, 
			 "electric_dipole_moment_norm": 3.95918278689, 
			 "electric_quadrupole_moment_norm": 11.8169283297, 
			 "total_energy": -587.863253202, 
			 "HOMO_LUMO_gap": 0.15588, 
			 "cosmo_polarized_energy": -13.47, 
			 "cosmo_cavitation_energy": 25.94, 
			 "cosmo_dispersion_energy": -19.42, 
			 "cosmo_repulsion_energy": 1.53, 
			 "cosmo_total_nonelectrostatic_energy": 8.04, 
			 "SMD_solvation_energy": 2.86 
		},
		"coords": [
			{
				"x": -2.9004784466,
				"y": 0.5263243254,
				"z": 2.8297996996,
				"element": "N" 
			},
			{
				"x": -2.4754085047,
				"y": -0.6880381402,
				"z": 2.1342772971,
				"element": "C" 
			},
			{
				"x": -1.2119605185,
				"y": -0.5484054203,
				"z": 1.2982782151,
				"element": "C" 
			},
			{
				"x": -0.2131222771,
				"y": -1.4988851897,
				"z": 1.3309478489,
				"element": "C" 
			},
			{
				"x": 0.9637275825,
				"y": -1.3786260236,
				"z": 0.5359720413,
				"element": "C" 
			},
			{
				"x": 1.9231146164,
				"y": -2.1346071724,
				"z": 0.4608477611,
				"element": "O" 
			},
			{
				"x": 0.9651784011,
				"y": -0.1569361177,
				"z": -0.2793371208,
				"element": "N" 
			},
			{
				"x": 2.0629052717,
				"y": 0.0507329829,
				"z": -1.083539747,
				"element": "C" 
			},
			{
				"x": 2.157455635,
				"y": 1.1533812797,
				"z": -1.8773650756,
				"element": "C" 
			},
			{
				"x": 1.0988748807,
				"y": 2.1042172766,
				"z": -1.8708063772,
				"element": "C" 
			},
			{
				"x": 0.0073131758,
				"y": 1.9020398898,
				"z": -1.0726502498,
				"element": "C" 
			},
			{
				"x": -0.0973432494,
				"y": 0.7474631256,
				"z": -0.2370145897,
				"element": "C" 
			},
			{
				"x": -1.1623412786,
				"y": 0.5676102077,
				"z": 0.5294156576,
				"element": "N" 
			},
			{
				"x": -2.1794668054,
				"y": 0.7976774061,
				"z": 3.4959611358,
				"element": "H" 
			},
			{
				"x": -2.9348415825,
				"y": 1.2793568015,
				"z": 2.1448279089,
				"element": "H" 
			},
			{
				"x": -2.348676726,
				"y": -1.4958633701,
				"z": 2.8620333467,
				"element": "H" 
			},
			{
				"x": -3.2887096871,
				"y": -0.9945296673,
				"z": 1.4626472661,
				"element": "H" 
			},
			{
				"x": -0.2842862286,
				"y": -2.3756530963,
				"z": 1.9638020726,
				"element": "H" 
			},
			{
				"x": 2.8043675785,
				"y": -0.7343901983,
				"z": -1.0094829215,
				"element": "H" 
			},
			{
				"x": 3.0328264138,
				"y": 1.2912126156,
				"z": -2.5008464864,
				"element": "H" 
			},
			{
				"x": 1.1604112213,
				"y": 2.9873552087,
				"z": -2.4991701284,
				"element": "H" 
			},
			{
				"x": -0.8243394723,
				"y": 2.5950632763,
				"z": -1.0318975546,
				"element": "H" 
			}
		],
		 "valence_orbital": [ 
			{
				"type": "occ",
				"energy": -0.28013,
				"method": "rhf"
			},
			{
				"type": "occ",
				"energy": -0.27722,
				"method": "rhf"
			},
			{
				"type": "occ",
				"energy": -0.26805,
				"method": "rhf"
			},
			{
				"type": "occ",
				"energy": -0.23555,
				"method": "rhf"
			},
			{
				"type": "occ",
				"energy": -0.21935,
				"method": "rhf"
			},
			{
				"type": "unocc",
				"energy": -0.06347,
				"method": "rhf"
			},
			{
				"type": "unocc",
				"energy": -0.04694,
				"method": "rhf"
			},
			{
				"type": "unocc",
				"energy": 0.01101,
				"method": "rhf"
			},
			{
				"type": "unocc",
				"energy": 0.08043,
				"method": "rhf"
			},
			{
				"type": "unocc",
				"energy": 0.08106,
				"method": "rhf"
			}
		],
		"cosmo_sigma_profile": { 
			"-0.025": 0.0,
			"-0.024": 0.0,
			"-0.023": 0.0,
			"-0.022": 0.0,
			"-0.021": 0.0,
			"-0.02": 0.0,
			"-0.019": 0.0,
			"-0.018": 0.0,
			"-0.017": 0.0,
			"-0.016": 0.0,
			"-0.015": 0.0,
			"-0.014": 0.0,
			"-0.013": 0.0,
			"-0.012": 0.0,
			"-0.011": 0.0176108442853,
			"-0.01": 0.922678265896,
			"-0.009": 1.52331088535,
			"-0.008": 6.65193809166,
			"-0.007": 11.9329383972,
			"-0.006": 13.7425215816,
			"-0.005": 13.1630298434,
			"-0.004": 13.9110615827,
			"-0.003": 17.3323803439,
			"-0.002": 15.9576054164,
			"-0.001": 16.6839198657,
			"0.0": 16.2317131083,
			"0.001": 18.5502799937,
			"0.002": 11.9439868299,
			"0.003": 6.63913521555,
			"0.004": 4.18434856812,
			"0.005": 3.86248953598,
			"0.006": 3.89664324191,
			"0.007": 3.01550244121,
			"0.008": 3.03637932232,
			"0.009": 3.3397755545,
			"0.01": 2.49490555397,
			"0.011": 3.27884754268,
			"0.012": 3.67166546285,
			"0.013": 4.64272016971,
			"0.014": 3.33809075478,
			"0.015": 0.714875492413,
			"0.016": 0.326700413785,
			"0.017": 0.803599957205,
			"0.018": 0.725981821156,
			"0.019": 0.566634358583,
			"0.02": 0.0838751262736,
			"0.021": 0.0,
			"0.022": 0.0,
			"0.023": 0.0,
			"0.024": 0.0,
			"0.025": 0.0
		}
	}
}
