{
	 "smiles": "[O-][N+](=O)C1=CC=C(C=C1)C(=O)CBr", 
	 "Tm": 370.15, 
	 "num_atms": 19, 
	 "gaussian": { 
		 "optdone": 1, 
		 "sigma_profile": "yes", 
		 "theory": "DFT", 
		 "functional": "B3LYP", 
		 "basiset": "6-31G**", 
		 "properties": { 
			 "R2extent": 6873.4384, 
			 "electric_dipole_moment_norm": 3.06551653886, 
			 "electric_quadrupole_moment_norm": 20.2107449445, 
			 "total_energy": -3160.1885005, 
			 "HOMO_LUMO_gap": 0.16266, 
			 "cosmo_polarized_energy": -11.69, 
			 "cosmo_cavitation_energy": 26.93, 
			 "cosmo_dispersion_energy": -19.89, 
			 "cosmo_repulsion_energy": 1.57, 
			 "cosmo_total_nonelectrostatic_energy": 8.61, 
			 "SMD_solvation_energy": 6.39 
		},
		"coords": [
			{
				"x": -1.9644416999,
				"y": 5.7390979509,
				"z": -0.0965099628,
				"element": "O" 
			},
			{
				"x": -1.9168959,
				"y": 5.0828484335,
				"z": 0.9421105043,
				"element": "N" 
			},
			{
				"x": -2.5168591118,
				"y": 5.3576161038,
				"z": 1.9792097324,
				"element": "O" 
			},
			{
				"x": -1.0749686969,
				"y": 3.8701272017,
				"z": 0.9438588166,
				"element": "C" 
			},
			{
				"x": -0.3816995403,
				"y": 3.5343147848,
				"z": -0.2161337382,
				"element": "C" 
			},
			{
				"x": 0.409866097,
				"y": 2.3890251663,
				"z": -0.2114584678,
				"element": "C" 
			},
			{
				"x": 0.5008953911,
				"y": 1.5935282635,
				"z": 0.9416832798,
				"element": "C" 
			},
			{
				"x": -0.2088498565,
				"y": 1.9625334102,
				"z": 2.0964731713,
				"element": "C" 
			},
			{
				"x": -1.0014665006,
				"y": 3.1033823118,
				"z": 2.1061665982,
				"element": "C" 
			},
			{
				"x": 1.3083566915,
				"y": 0.3309532778,
				"z": 1.0034184492,
				"element": "C" 
			},
			{
				"x": 1.3568354488,
				"y": -0.3359035661,
				"z": 2.0226372277,
				"element": "O" 
			},
			{
				"x": 2.0479022374,
				"y": -0.1639166715,
				"z": -0.2337413659,
				"element": "C" 
			},
			{
				"x": 3.6474030972,
				"y": 0.9461310971,
				"z": -0.5861561942,
				"element": "Br" 
			},
			{
				"x": -0.4673644312,
				"y": 4.1661087051,
				"z": -1.090988773,
				"element": "H" 
			},
			{
				"x": 0.9702637564,
				"y": 2.1361020391,
				"z": -1.1039970595,
				"element": "H" 
			},
			{
				"x": -0.1249038842,
				"y": 1.3344228346,
				"z": 2.9762174532,
				"element": "H" 
			},
			{
				"x": -1.5585680102,
				"y": 3.4079017928,
				"z": 2.9831349581,
				"element": "H" 
			},
			{
				"x": 1.4446503672,
				"y": -0.1277343313,
				"z": -1.1406792733,
				"element": "H" 
			},
			{
				"x": 2.4098445448,
				"y": -1.170938804,
				"z": -0.0432453561,
				"element": "H" 
			}
		],
		 "valence_orbital": [ 
			{
				"type": "occ",
				"energy": -0.30308,
				"method": "rhf"
			},
			{
				"type": "occ",
				"energy": -0.30234,
				"method": "rhf"
			},
			{
				"type": "occ",
				"energy": -0.29316,
				"method": "rhf"
			},
			{
				"type": "occ",
				"energy": -0.29057,
				"method": "rhf"
			},
			{
				"type": "occ",
				"energy": -0.27831,
				"method": "rhf"
			},
			{
				"type": "unocc",
				"energy": -0.11565,
				"method": "rhf"
			},
			{
				"type": "unocc",
				"energy": -0.07016,
				"method": "rhf"
			},
			{
				"type": "unocc",
				"energy": -0.04144,
				"method": "rhf"
			},
			{
				"type": "unocc",
				"energy": -0.02015,
				"method": "rhf"
			},
			{
				"type": "unocc",
				"energy": 0.03362,
				"method": "rhf"
			}
		],
		"cosmo_sigma_profile": { 
			"-0.025": 0.0,
			"-0.024": 0.0,
			"-0.023": 0.0,
			"-0.022": 0.0,
			"-0.021": 0.0,
			"-0.02": 0.0,
			"-0.019": 0.0,
			"-0.018": 0.0,
			"-0.017": 0.0,
			"-0.016": 0.0,
			"-0.015": 0.0,
			"-0.014": 0.0,
			"-0.013": 0.0,
			"-0.012": 0.0,
			"-0.011": 0.111985426337,
			"-0.01": 2.98174772304,
			"-0.009": 4.1288941552,
			"-0.008": 8.10036973052,
			"-0.007": 12.4928161834,
			"-0.006": 10.6555425479,
			"-0.005": 9.65683094362,
			"-0.004": 10.2764564045,
			"-0.003": 11.716664416,
			"-0.002": 16.3026213923,
			"-0.001": 18.2751472405,
			"0.0": 22.3161169344,
			"0.001": 13.1296561081,
			"0.002": 10.290235408,
			"0.003": 10.5166503069,
			"0.004": 11.2209105068,
			"0.005": 10.3408873957,
			"0.006": 6.37883387502,
			"0.007": 10.6503296398,
			"0.008": 7.15999846745,
			"0.009": 6.52461448536,
			"0.01": 4.84493366058,
			"0.011": 1.61351734372,
			"0.012": 0.10292506279,
			"0.013": 0.0,
			"0.014": 0.0,
			"0.015": 0.0,
			"0.016": 0.0,
			"0.017": 0.0,
			"0.018": 0.0,
			"0.019": 0.0,
			"0.02": 0.0,
			"0.021": 0.0,
			"0.022": 0.0,
			"0.023": 0.0,
			"0.024": 0.0,
			"0.025": 0.0
		}
	}
}
