{
	 "smiles": "CC1=CC=C(O)C(C)=C1", 
	 "Tm": 297.65, 
	 "num_atms": 19, 
	 "gaussian": { 
		 "optdone": 1, 
		 "sigma_profile": "yes", 
		 "theory": "DFT", 
		 "functional": "B3LYP", 
		 "basiset": "6-31G**", 
		 "properties": { 
			 "R2extent": 1593.9538, 
			 "electric_dipole_moment_norm": 1.03528491248, 
			 "electric_quadrupole_moment_norm": 7.64588570147, 
			 "total_energy": -386.112203321, 
			 "HOMO_LUMO_gap": 0.21389, 
			 "cosmo_polarized_energy": -7.29, 
			 "cosmo_cavitation_energy": 22.03, 
			 "cosmo_dispersion_energy": -16.36, 
			 "cosmo_repulsion_energy": 1.35, 
			 "cosmo_total_nonelectrostatic_energy": 7.02, 
			 "SMD_solvation_energy": 4.23 
		},
		"coords": [
			{
				"x": 1.4221682242,
				"y": 3.0391914891,
				"z": -1.2269978122,
				"element": "C" 
			},
			{
				"x": 1.4200816663,
				"y": 1.6342594485,
				"z": -0.6697784979,
				"element": "C" 
			},
			{
				"x": 2.4278566365,
				"y": 0.7213961736,
				"z": -0.9861649766,
				"element": "C" 
			},
			{
				"x": 2.4125227931,
				"y": -0.5745696318,
				"z": -0.464418965,
				"element": "C" 
			},
			{
				"x": 1.3820790039,
				"y": -0.9739540878,
				"z": 0.3850834307,
				"element": "C" 
			},
			{
				"x": 1.3165123705,
				"y": -2.2330096742,
				"z": 0.9261054585,
				"element": "O" 
			},
			{
				"x": 0.3487275292,
				"y": -0.0812098376,
				"z": 0.7267062088,
				"element": "C" 
			},
			{
				"x": -0.7581619844,
				"y": -0.5287013836,
				"z": 1.6467294943,
				"element": "C" 
			},
			{
				"x": 0.3950441072,
				"y": 1.2045841382,
				"z": 0.1882083094,
				"element": "C" 
			},
			{
				"x": 2.2924429587,
				"y": 3.2115200254,
				"z": -1.8668214687,
				"element": "H" 
			},
			{
				"x": 0.5258687208,
				"y": 3.236797669,
				"z": -1.8270743972,
				"element": "H" 
			},
			{
				"x": 1.444256198,
				"y": 3.7901764196,
				"z": -0.4283501539,
				"element": "H" 
			},
			{
				"x": 3.2380714503,
				"y": 1.0183367221,
				"z": -1.6472555285,
				"element": "H" 
			},
			{
				"x": 3.2056228272,
				"y": -1.2750871298,
				"z": -0.7202429071,
				"element": "H" 
			},
			{
				"x": 2.0754288592,
				"y": -2.7450283789,
				"z": 0.6186906819,
				"element": "H" 
			},
			{
				"x": -0.3639736375,
				"y": -0.8449445844,
				"z": 2.6190227602,
				"element": "H" 
			},
			{
				"x": -1.4784319922,
				"y": 0.276766563,
				"z": 1.8129170034,
				"element": "H" 
			},
			{
				"x": -1.2940833631,
				"y": -1.3909683413,
				"z": 1.2343689339,
				"element": "H" 
			},
			{
				"x": -0.4012323679,
				"y": 1.8996444008,
				"z": 0.4487724259,
				"element": "H" 
			}
		],
		 "valence_orbital": [ 
			{
				"type": "occ",
				"energy": -0.34068,
				"method": "rhf"
			},
			{
				"type": "occ",
				"energy": -0.32612,
				"method": "rhf"
			},
			{
				"type": "occ",
				"energy": -0.31533,
				"method": "rhf"
			},
			{
				"type": "occ",
				"energy": -0.23741,
				"method": "rhf"
			},
			{
				"type": "occ",
				"energy": -0.20665,
				"method": "rhf"
			},
			{
				"type": "unocc",
				"energy": 0.00724,
				"method": "rhf"
			},
			{
				"type": "unocc",
				"energy": 0.0208,
				"method": "rhf"
			},
			{
				"type": "unocc",
				"energy": 0.07356,
				"method": "rhf"
			},
			{
				"type": "unocc",
				"energy": 0.10327,
				"method": "rhf"
			},
			{
				"type": "unocc",
				"energy": 0.12472,
				"method": "rhf"
			}
		],
		"cosmo_sigma_profile": { 
			"-0.025": 0.0,
			"-0.024": 0.0,
			"-0.023": 0.0,
			"-0.022": 0.0,
			"-0.021": 0.0,
			"-0.02": 0.0,
			"-0.019": 0.0,
			"-0.018": 0.0514719217163,
			"-0.017": 0.823069451712,
			"-0.016": 1.26763471368,
			"-0.015": 0.863063116338,
			"-0.014": 0.981218413947,
			"-0.013": 1.03570543962,
			"-0.012": 1.14553370634,
			"-0.011": 0.749510151364,
			"-0.01": 0.985669303423,
			"-0.009": 0.985170547615,
			"-0.008": 0.963264882757,
			"-0.007": 1.25092912429,
			"-0.006": 1.84834095315,
			"-0.005": 4.16080181383,
			"-0.004": 12.8748156377,
			"-0.003": 17.1454466919,
			"-0.002": 15.0988950023,
			"-0.001": 16.685431461,
			"0.0": 18.7257447303,
			"0.001": 15.9840056131,
			"0.002": 9.689030616,
			"0.003": 8.70972328417,
			"0.004": 10.1307224534,
			"0.005": 8.43029666618,
			"0.006": 9.2477098792,
			"0.007": 6.68542542059,
			"0.008": 1.82600333451,
			"0.009": 1.45289726802,
			"0.01": 2.08424592668,
			"0.011": 1.45841153296,
			"0.012": 0.127313651386,
			"0.013": 0.0,
			"0.014": 0.0,
			"0.015": 0.0,
			"0.016": 0.0,
			"0.017": 0.0,
			"0.018": 0.0,
			"0.019": 0.0,
			"0.02": 0.0,
			"0.021": 0.0,
			"0.022": 0.0,
			"0.023": 0.0,
			"0.024": 0.0,
			"0.025": 0.0
		}
	}
}
