{
	 "smiles": "C1=NC=NC=N1", 
	 "Tm": 359.15, 
	 "num_atms": 9, 
	 "gaussian": { 
		 "optdone": 1, 
		 "sigma_profile": "yes", 
		 "theory": "DFT", 
		 "functional": "B3LYP", 
		 "basiset": "6-31G**", 
		 "properties": { 
			 "R2extent": 704.9558, 
			 "electric_dipole_moment_norm": 0.0, 
			 "electric_quadrupole_moment_norm": 0.861450509316, 
			 "total_energy": -280.362161712, 
			 "HOMO_LUMO_gap": 0.22062, 
			 "cosmo_polarized_energy": -6.37, 
			 "cosmo_cavitation_energy": 13.42, 
			 "cosmo_dispersion_energy": -10.29, 
			 "cosmo_repulsion_energy": 0.87, 
			 "cosmo_total_nonelectrostatic_energy": 4.01, 
			 "SMD_solvation_energy": -1.56 
		},
		"coords": [
			{
				"x": 0.7492154834,
				"y": 1.1268693412,
				"z": 1.7177720071,
				"element": "C" 
			},
			{
				"x": 0.5835750318,
				"y": -0.125387165,
				"z": 2.156303533,
				"element": "N" 
			},
			{
				"x": 0.979536552,
				"y": -1.0622593254,
				"z": 1.2883484383,
				"element": "C" 
			},
			{
				"x": 1.5015381994,
				"y": -0.8415401577,
				"z": 0.0772757034,
				"element": "N" 
			},
			{
				"x": 1.6132223662,
				"y": 0.4528166455,
				"z": -0.2389788151,
				"element": "C" 
			},
			{
				"x": 1.2569028985,
				"y": 1.4843640275,
				"z": 0.5335798543,
				"element": "N" 
			},
			{
				"x": 0.4426379168,
				"y": 1.9294019417,
				"z": 2.3866724027,
				"element": "H" 
			},
			{
				"x": 0.866419659,
				"y": -2.1005282446,
				"z": 1.5960521191,
				"element": "H" 
			},
			{
				"x": 2.0330518929,
				"y": 0.6885629367,
				"z": -1.2155252428,
				"element": "H" 
			}
		],
		 "valence_orbital": [ 
			{
				"type": "occ",
				"energy": -0.3816,
				"method": "rhf"
			},
			{
				"type": "occ",
				"energy": -0.33796,
				"method": "rhf"
			},
			{
				"type": "occ",
				"energy": -0.33796,
				"method": "rhf"
			},
			{
				"type": "occ",
				"energy": -0.27878,
				"method": "rhf"
			},
			{
				"type": "occ",
				"energy": -0.27878,
				"method": "rhf"
			},
			{
				"type": "unocc",
				"energy": -0.05816,
				"method": "rhf"
			},
			{
				"type": "unocc",
				"energy": -0.05816,
				"method": "rhf"
			},
			{
				"type": "unocc",
				"energy": 0.10505,
				"method": "rhf"
			},
			{
				"type": "unocc",
				"energy": 0.11733,
				"method": "rhf"
			},
			{
				"type": "unocc",
				"energy": 0.14326,
				"method": "rhf"
			}
		],
		"cosmo_sigma_profile": { 
			"-0.025": 0.0,
			"-0.024": 0.0,
			"-0.023": 0.0,
			"-0.022": 0.0,
			"-0.021": 0.0,
			"-0.02": 0.0,
			"-0.019": 0.0,
			"-0.018": 0.0,
			"-0.017": 0.0,
			"-0.016": 0.0,
			"-0.015": 0.0,
			"-0.014": 0.0,
			"-0.013": 0.0,
			"-0.012": 0.0,
			"-0.011": 0.0,
			"-0.01": 0.13478109883,
			"-0.009": 5.1572801374,
			"-0.008": 5.36845059885,
			"-0.007": 5.25522794029,
			"-0.006": 6.4167682896,
			"-0.005": 6.25126276189,
			"-0.004": 8.1323147099,
			"-0.003": 11.1660679372,
			"-0.002": 7.64417060682,
			"-0.001": 5.47174106457,
			"0.0": 5.42504285989,
			"0.001": 5.60043265008,
			"0.002": 3.51062470858,
			"0.003": 2.46107932742,
			"0.004": 3.81686478209,
			"0.005": 4.14123533344,
			"0.006": 3.27968071917,
			"0.007": 3.08621648256,
			"0.008": 2.51606361922,
			"0.009": 1.25462601288,
			"0.01": 2.72291426873,
			"0.011": 3.37757426334,
			"0.012": 2.59278798043,
			"0.013": 2.30184013867,
			"0.014": 1.90329545195,
			"0.015": 0.120852811199,
			"0.016": 0.0,
			"0.017": 0.0,
			"0.018": 0.0,
			"0.019": 0.0,
			"0.02": 0.0,
			"0.021": 0.0,
			"0.022": 0.0,
			"0.023": 0.0,
			"0.024": 0.0,
			"0.025": 0.0
		}
	}
}
