{
	 "smiles": "S(SC1=NC2=C(S1)C=CC=C2)C1=NC2=C(S1)C=CC=C2", 
	 "Tm": 453.15, 
	 "num_atms": 28, 
	 "gaussian": { 
		 "optdone": 1, 
		 "sigma_profile": "yes", 
		 "theory": "DFT", 
		 "functional": "B3LYP", 
		 "basiset": "6-31G**", 
		 "properties": { 
			 "R2extent": 9500.363, 
			 "electric_dipole_moment_norm": 2.06155787937, 
			 "electric_quadrupole_moment_norm": 13.1795345604, 
			 "total_energy": -2240.56379836, 
			 "HOMO_LUMO_gap": 0.16739, 
			 "cosmo_polarized_energy": -10.4, 
			 "cosmo_cavitation_energy": 40.07, 
			 "cosmo_dispersion_energy": -30.4, 
			 "cosmo_repulsion_energy": 2.17, 
			 "cosmo_total_nonelectrostatic_energy": 11.85, 
			 "SMD_solvation_energy": 1.91 
		},
		"coords": [
			{
				"x": 3.4009971576,
				"y": -0.5356725392,
				"z": 0.7774724296,
				"element": "S" 
			},
			{
				"x": 2.3184568306,
				"y": -2.1713997165,
				"z": 0.121380384,
				"element": "S" 
			},
			{
				"x": 0.7969453161,
				"y": -2.0577365997,
				"z": 1.0436985767,
				"element": "C" 
			},
			{
				"x": 0.405155208,
				"y": -1.0622159837,
				"z": 1.7553986392,
				"element": "N" 
			},
			{
				"x": -0.8399082709,
				"y": -1.3160882288,
				"z": 2.3169444574,
				"element": "C" 
			},
			{
				"x": -1.4075261306,
				"y": -2.5720471476,
				"z": 1.9942244368,
				"element": "C" 
			},
			{
				"x": -0.30323155,
				"y": -3.4606002825,
				"z": 0.9528306866,
				"element": "S" 
			},
			{
				"x": -2.6579072973,
				"y": -2.9559093767,
				"z": 2.4811821784,
				"element": "C" 
			},
			{
				"x": -3.3403478805,
				"y": -2.062399538,
				"z": 3.3048973283,
				"element": "C" 
			},
			{
				"x": -2.7878542387,
				"y": -0.8133245042,
				"z": 3.633612188,
				"element": "C" 
			},
			{
				"x": -1.5426959423,
				"y": -0.4316886908,
				"z": 3.1463301098,
				"element": "C" 
			},
			{
				"x": 2.7885742332,
				"y": 0.7986812565,
				"z": -0.2339685901,
				"element": "C" 
			},
			{
				"x": 1.7612261251,
				"y": 0.7662475019,
				"z": -1.0050402125,
				"element": "N" 
			},
			{
				"x": 1.5709871395,
				"y": 1.9941548547,
				"z": -1.6263994869,
				"element": "C" 
			},
			{
				"x": 2.5093498559,
				"y": 2.9984687592,
				"z": -1.2879122647,
				"element": "C" 
			},
			{
				"x": 3.6806812989,
				"y": 2.3427562904,
				"z": -0.1514031851,
				"element": "S" 
			},
			{
				"x": 2.4335115236,
				"y": 4.2822859164,
				"z": -1.8300950748,
				"element": "C" 
			},
			{
				"x": 1.4003552693,
				"y": 4.5530076464,
				"z": -2.7255911507,
				"element": "C" 
			},
			{
				"x": 0.4631656022,
				"y": 3.5650473371,
				"z": -3.0706565398,
				"element": "C" 
			},
			{
				"x": 0.5391260094,
				"y": 2.2869046146,
				"z": -2.5283337849,
				"element": "C" 
			},
			{
				"x": -3.0884759317,
				"y": -3.9197831452,
				"z": 2.2299880405,
				"element": "H" 
			},
			{
				"x": -4.3142248404,
				"y": -2.3391370552,
				"z": 3.6972796496,
				"element": "H" 
			},
			{
				"x": -3.3422868224,
				"y": -0.1368674234,
				"z": 4.2769130557,
				"element": "H" 
			},
			{
				"x": -1.1032441747,
				"y": 0.5298791735,
				"z": 3.3891686391,
				"element": "H" 
			},
			{
				"x": 3.1552948906,
				"y": 5.0485184523,
				"z": -1.5665609765,
				"element": "H" 
			},
			{
				"x": 1.3214114741,
				"y": 5.5441969347,
				"z": -3.1618228658,
				"element": "H" 
			},
			{
				"x": -0.3317852933,
				"y": 3.8042973566,
				"z": -3.7703980723,
				"element": "H" 
			},
			{
				"x": -0.1777495614,
				"y": 1.5136241374,
				"z": -2.7829385956,
				"element": "H" 
			}
		],
		 "valence_orbital": [ 
			{
				"type": "occ",
				"energy": -0.28443,
				"method": "rhf"
			},
			{
				"type": "occ",
				"energy": -0.24069,
				"method": "rhf"
			},
			{
				"type": "occ",
				"energy": -0.24032,
				"method": "rhf"
			},
			{
				"type": "occ",
				"energy": -0.23168,
				"method": "rhf"
			},
			{
				"type": "occ",
				"energy": -0.23068,
				"method": "rhf"
			},
			{
				"type": "unocc",
				"energy": -0.06329,
				"method": "rhf"
			},
			{
				"type": "unocc",
				"energy": -0.03932,
				"method": "rhf"
			},
			{
				"type": "unocc",
				"energy": -0.03605,
				"method": "rhf"
			},
			{
				"type": "unocc",
				"energy": -0.01042,
				"method": "rhf"
			},
			{
				"type": "unocc",
				"energy": -0.01033,
				"method": "rhf"
			}
		],
		"cosmo_sigma_profile": { 
			"-0.025": 0.0,
			"-0.024": 0.0,
			"-0.023": 0.0,
			"-0.022": 0.0,
			"-0.021": 0.0,
			"-0.02": 0.0,
			"-0.019": 0.0,
			"-0.018": 0.0,
			"-0.017": 0.0,
			"-0.016": 0.0,
			"-0.015": 0.0,
			"-0.014": 0.0,
			"-0.013": 0.0,
			"-0.012": 0.0,
			"-0.011": 0.0,
			"-0.01": 0.0,
			"-0.009": 0.0,
			"-0.008": 2.51480295824,
			"-0.007": 9.17540934102,
			"-0.006": 20.0512409165,
			"-0.005": 19.9355342477,
			"-0.004": 20.5615359219,
			"-0.003": 20.0965658547,
			"-0.002": 24.2765418844,
			"-0.001": 29.0600934503,
			"0.0": 30.5349702226,
			"0.001": 34.0252965895,
			"0.002": 34.4911189893,
			"0.003": 33.5859721102,
			"0.004": 26.3161522917,
			"0.005": 8.60370319866,
			"0.006": 2.34647949858,
			"0.007": 3.12804218857,
			"0.008": 3.5710524495,
			"0.009": 5.32293263397,
			"0.01": 2.66907028586,
			"0.011": 1.8491704232,
			"0.012": 0.973181441691,
			"0.013": 0.0,
			"0.014": 0.0,
			"0.015": 0.0,
			"0.016": 0.0,
			"0.017": 0.0,
			"0.018": 0.0,
			"0.019": 0.0,
			"0.02": 0.0,
			"0.021": 0.0,
			"0.022": 0.0,
			"0.023": 0.0,
			"0.024": 0.0,
			"0.025": 0.0
		}
	}
}
