{
	 "smiles": "CC1(CO)CN(NC1=O)C1=CC=CC=C1", 
	 "Tm": 398.15, 
	 "num_atms": 29, 
	 "gaussian": { 
		 "optdone": 1, 
		 "sigma_profile": "yes", 
		 "theory": "DFT", 
		 "functional": "B3LYP", 
		 "basiset": "6-31G**", 
		 "properties": { 
			 "R2extent": 3464.9774, 
			 "electric_dipole_moment_norm": 2.39779312285, 
			 "electric_quadrupole_moment_norm": 10.976690488, 
			 "total_energy": -687.525085712, 
			 "HOMO_LUMO_gap": 0.19882, 
			 "cosmo_polarized_energy": -14.61, 
			 "cosmo_cavitation_energy": 31.19, 
			 "cosmo_dispersion_energy": -22.15, 
			 "cosmo_repulsion_energy": 1.75, 
			 "cosmo_total_nonelectrostatic_energy": 10.79, 
			 "SMD_solvation_energy": 5.38 
		},
		"coords": [
			{
				"x": -2.1268521412,
				"y": 2.2476650795,
				"z": -2.7696956672,
				"element": "C" 
			},
			{
				"x": -1.3590811743,
				"y": 1.2438530404,
				"z": -1.9063930334,
				"element": "C" 
			},
			{
				"x": 0.0657226073,
				"y": 1.0267132177,
				"z": -2.4523972391,
				"element": "C" 
			},
			{
				"x": 0.7561360999,
				"y": 2.2676479824,
				"z": -2.3674407489,
				"element": "O" 
			},
			{
				"x": -1.3357507257,
				"y": 1.5943795902,
				"z": -0.4029130502,
				"element": "C" 
			},
			{
				"x": -1.3502762845,
				"y": 0.2883752246,
				"z": 0.3110502313,
				"element": "N" 
			},
			{
				"x": -1.9158385354,
				"y": -0.6312269897,
				"z": -0.6084895208,
				"element": "N" 
			},
			{
				"x": -2.083351608,
				"y": -0.116193298,
				"z": -1.8759559233,
				"element": "C" 
			},
			{
				"x": -2.7077557325,
				"y": -0.6488608147,
				"z": -2.7746785652,
				"element": "O" 
			},
			{
				"x": -0.1533423486,
				"y": -0.1550877438,
				"z": 0.9406208201,
				"element": "C" 
			},
			{
				"x": 0.3634134217,
				"y": -1.4454967986,
				"z": 0.7503736416,
				"element": "C" 
			},
			{
				"x": 1.5037669778,
				"y": -1.8531485952,
				"z": 1.4450764022,
				"element": "C" 
			},
			{
				"x": 2.1472366822,
				"y": -0.9929148978,
				"z": 2.333947697,
				"element": "C" 
			},
			{
				"x": 1.62666825,
				"y": 0.2889477164,
				"z": 2.5312140118,
				"element": "C" 
			},
			{
				"x": 0.4843251736,
				"y": 0.7047139751,
				"z": 1.8531066034,
				"element": "C" 
			},
			{
				"x": -3.1128839463,
				"y": 2.4597852362,
				"z": -2.3449260242,
				"element": "H" 
			},
			{
				"x": -1.5684144234,
				"y": 3.1828969298,
				"z": -2.8513447888,
				"element": "H" 
			},
			{
				"x": -2.2770985905,
				"y": 1.8348587699,
				"z": -3.7710915318,
				"element": "H" 
			},
			{
				"x": -0.0064519669,
				"y": 0.6727964488,
				"z": -3.4918417287,
				"element": "H" 
			},
			{
				"x": 0.5755059389,
				"y": 0.2493238387,
				"z": -1.8648446812,
				"element": "H" 
			},
			{
				"x": 1.6709286096,
				"y": 2.122789752,
				"z": -2.6376429244,
				"element": "H" 
			},
			{
				"x": -0.4527357946,
				"y": 2.1698313143,
				"z": -0.1273212983,
				"element": "H" 
			},
			{
				"x": -2.2327020705,
				"y": 2.1617065747,
				"z": -0.1287973484,
				"element": "H" 
			},
			{
				"x": -2.595044486,
				"y": -1.2854829998,
				"z": -0.2394072004,
				"element": "H" 
			},
			{
				"x": -0.122316597,
				"y": -2.1196761261,
				"z": 0.0547883769,
				"element": "H" 
			},
			{
				"x": 1.8912126242,
				"y": -2.8549667755,
				"z": 1.280508467,
				"element": "H" 
			},
			{
				"x": 3.033416202,
				"y": -1.3162266789,
				"z": 2.8711288516,
				"element": "H" 
			},
			{
				"x": 2.1060110823,
				"y": 0.9702526352,
				"z": 3.2287280642,
				"element": "H" 
			},
			{
				"x": 0.0720527561,
				"y": 1.6909443922,
				"z": 2.0419381073,
				"element": "H" 
			}
		],
		 "valence_orbital": [ 
			{
				"type": "occ",
				"energy": -0.27794,
				"method": "rhf"
			},
			{
				"type": "occ",
				"energy": -0.26393,
				"method": "rhf"
			},
			{
				"type": "occ",
				"energy": -0.25547,
				"method": "rhf"
			},
			{
				"type": "occ",
				"energy": -0.25002,
				"method": "rhf"
			},
			{
				"type": "occ",
				"energy": -0.20247,
				"method": "rhf"
			},
			{
				"type": "unocc",
				"energy": -0.00365,
				"method": "rhf"
			},
			{
				"type": "unocc",
				"energy": 0.00451,
				"method": "rhf"
			},
			{
				"type": "unocc",
				"energy": 0.01214,
				"method": "rhf"
			},
			{
				"type": "unocc",
				"energy": 0.06735,
				"method": "rhf"
			},
			{
				"type": "unocc",
				"energy": 0.08728,
				"method": "rhf"
			}
		],
		"cosmo_sigma_profile": { 
			"-0.025": 0.0,
			"-0.024": 0.0,
			"-0.023": 0.0,
			"-0.022": 0.0,
			"-0.021": 0.0,
			"-0.02": 0.0,
			"-0.019": 0.0,
			"-0.018": 0.0,
			"-0.017": 0.0785358176935,
			"-0.016": 0.968672010839,
			"-0.015": 2.27006096,
			"-0.014": 2.09973349244,
			"-0.013": 2.07999981328,
			"-0.012": 1.34259875758,
			"-0.011": 1.1923727113,
			"-0.01": 1.94275415055,
			"-0.009": 1.88193510819,
			"-0.008": 1.59290942545,
			"-0.007": 2.6875503184,
			"-0.006": 7.54736533454,
			"-0.005": 16.2378464141,
			"-0.004": 21.7050392231,
			"-0.003": 25.7766010896,
			"-0.002": 20.2019671909,
			"-0.001": 17.9430085542,
			"0.0": 16.2945378792,
			"0.001": 14.2301971228,
			"0.002": 12.0458391501,
			"0.003": 9.48815872081,
			"0.004": 11.0554746365,
			"0.005": 11.6831153727,
			"0.006": 13.249218754,
			"0.007": 5.31163819483,
			"0.008": 3.69614283033,
			"0.009": 2.84020526895,
			"0.01": 3.00128951947,
			"0.011": 4.21160078651,
			"0.012": 4.14051754791,
			"0.013": 5.53485558077,
			"0.014": 1.08664004589,
			"0.015": 0.0,
			"0.016": 0.0,
			"0.017": 0.0,
			"0.018": 0.0,
			"0.019": 0.0,
			"0.02": 0.0,
			"0.021": 0.0,
			"0.022": 0.0,
			"0.023": 0.0,
			"0.024": 0.0,
			"0.025": 0.0
		}
	}
}
