{
	 "smiles": "CC1=NC2=C(C(=NO2)C2CC2)C(=C1)C(O)=O", 
	 "Tm": 475.15, 
	 "num_atms": 26, 
	 "gaussian": { 
		 "optdone": 1, 
		 "sigma_profile": "yes", 
		 "theory": "DFT", 
		 "functional": "B3LYP", 
		 "basiset": "6-31G**", 
		 "properties": { 
			 "R2extent": 3624.1703, 
			 "electric_dipole_moment_norm": 4.08901420271, 
			 "electric_quadrupole_moment_norm": 18.5178802467, 
			 "total_energy": -760.310119143, 
			 "HOMO_LUMO_gap": 0.17286, 
			 "cosmo_polarized_energy": -17.78, 
			 "cosmo_cavitation_energy": 30.52, 
			 "cosmo_dispersion_energy": -22.25, 
			 "cosmo_repulsion_energy": 1.73, 
			 "cosmo_total_nonelectrostatic_energy": 10.0, 
			 "SMD_solvation_energy": 4.43 
		},
		"coords": [
			{
				"x": -1.2820044352,
				"y": -3.7450106289,
				"z": -2.068554053,
				"element": "C" 
			},
			{
				"x": -0.7728789008,
				"y": -2.5183806617,
				"z": -1.3578677778,
				"element": "C" 
			},
			{
				"x": 0.0673776494,
				"y": -2.7260413077,
				"z": -0.334870782,
				"element": "N" 
			},
			{
				"x": 0.4723497441,
				"y": -1.6296694308,
				"z": 0.2855340475,
				"element": "C" 
			},
			{
				"x": 0.1286369307,
				"y": -0.2933789949,
				"z": 0.0135659392,
				"element": "C" 
			},
			{
				"x": 0.8764967641,
				"y": 0.456029525,
				"z": 0.9992244506,
				"element": "C" 
			},
			{
				"x": 1.564527464,
				"y": -0.3623662225,
				"z": 1.7607355525,
				"element": "N" 
			},
			{
				"x": 1.3312367336,
				"y": -1.6817607796,
				"z": 1.3218302251,
				"element": "O" 
			},
			{
				"x": 0.973246886,
				"y": 1.9190779093,
				"z": 1.1934711929,
				"element": "C" 
			},
			{
				"x": 1.774646443,
				"y": 2.4802895365,
				"z": 2.345681134,
				"element": "C" 
			},
			{
				"x": 2.3117102835,
				"y": 2.6119315902,
				"z": 0.9516900781,
				"element": "C" 
			},
			{
				"x": -0.733869964,
				"y": -0.0834999002,
				"z": -1.0766190652,
				"element": "C" 
			},
			{
				"x": -1.1766926745,
				"y": -1.2235614563,
				"z": -1.7545075865,
				"element": "C" 
			},
			{
				"x": -1.2240580461,
				"y": 1.2782476858,
				"z": -1.4836189706,
				"element": "C" 
			},
			{
				"x": -1.3877528438,
				"y": 1.4681566087,
				"z": -2.816051357,
				"element": "O" 
			},
			{
				"x": -1.4939778427,
				"y": 2.1592411863,
				"z": -0.7035438402,
				"element": "O" 
			},
			{
				"x": -1.8512725445,
				"y": -3.4913311311,
				"z": -2.9658973926,
				"element": "H" 
			},
			{
				"x": -0.4458846386,
				"y": -4.3928429517,
				"z": -2.3469191488,
				"element": "H" 
			},
			{
				"x": -1.928618595,
				"y": -4.3253513207,
				"z": -1.4014733772,
				"element": "H" 
			},
			{
				"x": 0.0875799281,
				"y": 2.4590916096,
				"z": 0.8830020293,
				"element": "H" 
			},
			{
				"x": 1.3751295318,
				"y": 3.3638453343,
				"z": 2.8331742409,
				"element": "H" 
			},
			{
				"x": 2.2534318092,
				"y": 1.7677666038,
				"z": 3.0081277978,
				"element": "H" 
			},
			{
				"x": 3.1496287654,
				"y": 1.9804288169,
				"z": 0.6731557086,
				"element": "H" 
			},
			{
				"x": 2.2872147676,
				"y": 3.5821350543,
				"z": 0.4649812154,
				"element": "H" 
			},
			{
				"x": -1.8811586538,
				"y": -1.1296640956,
				"z": -2.5752615844,
				"element": "H" 
			},
			{
				"x": -1.0152445614,
				"y": 0.7210174208,
				"z": -3.3063886768,
				"element": "H" 
			}
		],
		 "valence_orbital": [ 
			{
				"type": "occ",
				"energy": -0.30711,
				"method": "rhf"
			},
			{
				"type": "occ",
				"energy": -0.3003,
				"method": "rhf"
			},
			{
				"type": "occ",
				"energy": -0.28146,
				"method": "rhf"
			},
			{
				"type": "occ",
				"energy": -0.27202,
				"method": "rhf"
			},
			{
				"type": "occ",
				"energy": -0.26058,
				"method": "rhf"
			},
			{
				"type": "unocc",
				"energy": -0.08772,
				"method": "rhf"
			},
			{
				"type": "unocc",
				"energy": -0.03105,
				"method": "rhf"
			},
			{
				"type": "unocc",
				"energy": 0.01055,
				"method": "rhf"
			},
			{
				"type": "unocc",
				"energy": 0.02218,
				"method": "rhf"
			},
			{
				"type": "unocc",
				"energy": 0.05607,
				"method": "rhf"
			}
		],
		"cosmo_sigma_profile": { 
			"-0.025": 0.0,
			"-0.024": 0.0,
			"-0.023": 0.0,
			"-0.022": 0.0,
			"-0.021": 0.0,
			"-0.02": 0.0,
			"-0.019": 0.647241663449,
			"-0.018": 0.962739873138,
			"-0.017": 1.20942397922,
			"-0.016": 0.7913463792,
			"-0.015": 1.0469144246,
			"-0.014": 1.35243014133,
			"-0.013": 1.00523224549,
			"-0.012": 1.23542211618,
			"-0.011": 0.899059809028,
			"-0.01": 1.53862882677,
			"-0.009": 2.27926881143,
			"-0.008": 3.42895206594,
			"-0.007": 3.38364471326,
			"-0.006": 6.10028049133,
			"-0.005": 16.370614393,
			"-0.004": 14.9216569264,
			"-0.003": 22.371299644,
			"-0.002": 27.0533687328,
			"-0.001": 26.8713589741,
			"0.0": 15.0909089082,
			"0.001": 12.1461024861,
			"0.002": 10.974987746,
			"0.003": 9.31621500539,
			"0.004": 8.3151847812,
			"0.005": 6.46541297425,
			"0.006": 6.49051582063,
			"0.007": 9.45370931547,
			"0.008": 9.16855265807,
			"0.009": 7.88435713242,
			"0.01": 6.96735739601,
			"0.011": 4.32630718423,
			"0.012": 2.74784373525,
			"0.013": 0.968382501642,
			"0.014": 0.367092907602,
			"0.015": 0.0,
			"0.016": 0.0,
			"0.017": 0.0,
			"0.018": 0.0,
			"0.019": 0.0,
			"0.02": 0.0,
			"0.021": 0.0,
			"0.022": 0.0,
			"0.023": 0.0,
			"0.024": 0.0,
			"0.025": 0.0
		}
	}
}
