{
	 "smiles": "OCC1=NC=C(Br)C=C1", 
	 "Tm": 332.65, 
	 "num_atms": 15, 
	 "gaussian": { 
		 "optdone": 1, 
		 "sigma_profile": "yes", 
		 "theory": "DFT", 
		 "functional": "B3LYP", 
		 "basiset": "6-31G**", 
		 "properties": { 
			 "R2extent": 2541.2239, 
			 "electric_dipole_moment_norm": 2.71768428446, 
			 "electric_quadrupole_moment_norm": 10.935873036, 
			 "total_energy": -2933.61988384, 
			 "HOMO_LUMO_gap": 0.2036, 
			 "cosmo_polarized_energy": -7.74, 
			 "cosmo_cavitation_energy": 21.29, 
			 "cosmo_dispersion_energy": -16.62, 
			 "cosmo_repulsion_energy": 1.37, 
			 "cosmo_total_nonelectrostatic_energy": 6.04, 
			 "SMD_solvation_energy": 1.77 
		},
		"coords": [
			{
				"x": 1.8842853938,
				"y": 3.0848268628,
				"z": 0.2572767368,
				"element": "O" 
			},
			{
				"x": 2.242609728,
				"y": 1.8133942342,
				"z": -0.2127871023,
				"element": "C" 
			},
			{
				"x": 1.1788739092,
				"y": 0.7664734447,
				"z": 0.0755955102,
				"element": "C" 
			},
			{
				"x": 0.0943051218,
				"y": 1.2131414138,
				"z": 0.7173237062,
				"element": "N" 
			},
			{
				"x": -0.8925109266,
				"y": 0.3589989365,
				"z": 1.0118213944,
				"element": "C" 
			},
			{
				"x": -0.8257770234,
				"y": -0.9886402017,
				"z": 0.6692642164,
				"element": "C" 
			},
			{
				"x": -2.2629715333,
				"y": -2.1556836441,
				"z": 1.1161640009,
				"element": "Br" 
			},
			{
				"x": 0.2999393422,
				"y": -1.4706717226,
				"z": -0.0010701433,
				"element": "C" 
			},
			{
				"x": 1.3192673688,
				"y": -0.574770297,
				"z": -0.3021639713,
				"element": "C" 
			},
			{
				"x": 1.0076142838,
				"y": 2.9709332377,
				"z": 0.6670688104,
				"element": "H" 
			},
			{
				"x": 3.1902072143,
				"y": 1.4861265338,
				"z": 0.2467586675,
				"element": "H" 
			},
			{
				"x": 2.4209587883,
				"y": 1.8414862586,
				"z": -1.3007307302,
				"element": "H" 
			},
			{
				"x": -1.7577535998,
				"y": 0.7580386786,
				"z": 1.5336075176,
				"element": "H" 
			},
			{
				"x": 0.3707354858,
				"y": -2.5171436433,
				"z": -0.2764775962,
				"element": "H" 
			},
			{
				"x": 2.2118164472,
				"y": -0.910010092,
				"z": -0.8228510171,
				"element": "H" 
			}
		],
		 "valence_orbital": [ 
			{
				"type": "occ",
				"energy": -0.30638,
				"method": "rhf"
			},
			{
				"type": "occ",
				"energy": -0.30422,
				"method": "rhf"
			},
			{
				"type": "occ",
				"energy": -0.28462,
				"method": "rhf"
			},
			{
				"type": "occ",
				"energy": -0.26879,
				"method": "rhf"
			},
			{
				"type": "occ",
				"energy": -0.25,
				"method": "rhf"
			},
			{
				"type": "unocc",
				"energy": -0.0464,
				"method": "rhf"
			},
			{
				"type": "unocc",
				"energy": -0.03368,
				"method": "rhf"
			},
			{
				"type": "unocc",
				"energy": -0.00566,
				"method": "rhf"
			},
			{
				"type": "unocc",
				"energy": 0.10307,
				"method": "rhf"
			},
			{
				"type": "unocc",
				"energy": 0.11022,
				"method": "rhf"
			}
		],
		"cosmo_sigma_profile": { 
			"-0.025": 0.0,
			"-0.024": 0.0,
			"-0.023": 0.0,
			"-0.022": 0.0,
			"-0.021": 0.0,
			"-0.02": 0.0,
			"-0.019": 0.0,
			"-0.018": 0.0,
			"-0.017": 0.0,
			"-0.016": 0.0,
			"-0.015": 0.0,
			"-0.014": 0.0,
			"-0.013": 0.0,
			"-0.012": 0.0,
			"-0.011": 0.0,
			"-0.01": 0.0,
			"-0.009": 0.489852163387,
			"-0.008": 4.81413002714,
			"-0.007": 7.51714077535,
			"-0.006": 8.29144073848,
			"-0.005": 12.6751507334,
			"-0.004": 11.1747018762,
			"-0.003": 9.87562113375,
			"-0.002": 10.3759235457,
			"-0.001": 13.2293707932,
			"0.0": 20.5756336543,
			"0.001": 18.4765804837,
			"0.002": 10.6154573179,
			"0.003": 11.4814863486,
			"0.004": 13.633606056,
			"0.005": 4.49752114633,
			"0.006": 3.01764405701,
			"0.007": 1.21869430301,
			"0.008": 1.23899474904,
			"0.009": 0.900838964998,
			"0.01": 1.27750463432,
			"0.011": 1.53759658528,
			"0.012": 2.01432926554,
			"0.013": 0.920223657202,
			"0.014": 2.81791725025,
			"0.015": 0.908039272006,
			"0.016": 0.0,
			"0.017": 0.0,
			"0.018": 0.0,
			"0.019": 0.0,
			"0.02": 0.0,
			"0.021": 0.0,
			"0.022": 0.0,
			"0.023": 0.0,
			"0.024": 0.0,
			"0.025": 0.0
		}
	}
}
