{
	 "smiles": "COC(=O)C1=C(C)NC(C)=C([C@H]1C1=CC=C(C=C1)[N+]([O-])=O)C(=O)ON1N=NC2=C1C=CC=C2", 
	 "Tm": 490.5, 
	 "num_atms": 52, 
	 "gaussian": { 
		 "optdone": 1, 
		 "sigma_profile": "yes", 
		 "theory": "DFT", 
		 "functional": "B3LYP", 
		 "basiset": "6-31G**", 
		 "properties": { 
			 "R2extent": 16497.74, 
			 "electric_dipole_moment_norm": 5.24794637739, 
			 "electric_quadrupole_moment_norm": 41.3372831483, 
			 "total_energy": -1574.71032867, 
			 "HOMO_LUMO_gap": 0.14319, 
			 "cosmo_polarized_energy": -28.64, 
			 "cosmo_cavitation_energy": 58.03, 
			 "cosmo_dispersion_energy": -37.94, 
			 "cosmo_repulsion_energy": 2.87, 
			 "cosmo_total_nonelectrostatic_energy": 22.96, 
			 "SMD_solvation_energy": 12.87 
		},
		"coords": [
			{
				"x": 1.9077921089,
				"y": -4.9192152776,
				"z": -2.0536159975,
				"element": "C" 
			},
			{
				"x": 1.2149683504,
				"y": -3.8008020966,
				"z": -1.4793585882,
				"element": "O" 
			},
			{
				"x": 0.1227238497,
				"y": -4.1119387297,
				"z": -0.7388494781,
				"element": "C" 
			},
			{
				"x": -0.2381873634,
				"y": -5.2670211808,
				"z": -0.5783385828,
				"element": "O" 
			},
			{
				"x": -0.5137412362,
				"y": -2.888500422,
				"z": -0.1987405797,
				"element": "C" 
			},
			{
				"x": -1.6354164404,
				"y": -2.9516147236,
				"z": 0.5662585049,
				"element": "C" 
			},
			{
				"x": -2.3794450288,
				"y": -4.1767511055,
				"z": 1.0223274053,
				"element": "C" 
			},
			{
				"x": -2.23897965,
				"y": -1.7632980575,
				"z": 0.975194184,
				"element": "N" 
			},
			{
				"x": -1.9596242674,
				"y": -0.519973752,
				"z": 0.445772654,
				"element": "C" 
			},
			{
				"x": -2.9813267431,
				"y": 0.5358193305,
				"z": 0.7919611019,
				"element": "C" 
			},
			{
				"x": -0.8429834975,
				"y": -0.3874202793,
				"z": -0.3318601741,
				"element": "C" 
			},
			{
				"x": 0.1459538614,
				"y": -1.5466229526,
				"z": -0.4950818641,
				"element": "C" 
			},
			{
				"x": 1.3968836362,
				"y": -1.3009234234,
				"z": 0.3610061584,
				"element": "C" 
			},
			{
				"x": 2.5386408455,
				"y": -0.7265657787,
				"z": -0.218868828,
				"element": "C" 
			},
			{
				"x": 3.6718786644,
				"y": -0.4582170843,
				"z": 0.5434105052,
				"element": "C" 
			},
			{
				"x": 3.655465149,
				"y": -0.7722392488,
				"z": 1.90118747,
				"element": "C" 
			},
			{
				"x": 2.5396599663,
				"y": -1.3451743063,
				"z": 2.5088340798,
				"element": "C" 
			},
			{
				"x": 1.4158911853,
				"y": -1.6052662092,
				"z": 1.7304784436,
				"element": "C" 
			},
			{
				"x": 4.8465517606,
				"y": -0.4932248489,
				"z": 2.7152709593,
				"element": "N" 
			},
			{
				"x": 5.8177547985,
				"y": 0.0144865775,
				"z": 2.154176164,
				"element": "O" 
			},
			{
				"x": 4.8027199563,
				"y": -0.78177947,
				"z": 3.9117697463,
				"element": "O" 
			},
			{
				"x": -0.4813414258,
				"y": 0.800730981,
				"z": -1.0930937742,
				"element": "C" 
			},
			{
				"x": 0.3513026876,
				"y": 0.8725112515,
				"z": -1.9636907378,
				"element": "O" 
			},
			{
				"x": -1.2023524649,
				"y": 1.9555311457,
				"z": -0.6793145506,
				"element": "O" 
			},
			{
				"x": -1.0427972716,
				"y": 3.0215984847,
				"z": -1.5210781577,
				"element": "N" 
			},
			{
				"x": -1.9654853229,
				"y": 3.242994984,
				"z": -2.4895860813,
				"element": "N" 
			},
			{
				"x": -1.6353948791,
				"y": 4.3313063601,
				"z": -3.1082004222,
				"element": "N" 
			},
			{
				"x": -0.4776590343,
				"y": 4.8303608576,
				"z": -2.5405932562,
				"element": "C" 
			},
			{
				"x": -0.0710640478,
				"y": 3.9777185214,
				"z": -1.4948382934,
				"element": "C" 
			},
			{
				"x": 1.0709623772,
				"y": 4.2116417363,
				"z": -0.7183400293,
				"element": "C" 
			},
			{
				"x": 1.7953845445,
				"y": 5.3493045613,
				"z": -1.0394519397,
				"element": "C" 
			},
			{
				"x": 1.4047619282,
				"y": 6.2207432735,
				"z": -2.0879282495,
				"element": "C" 
			},
			{
				"x": 0.2733281757,
				"y": 5.9773639552,
				"z": -2.8487463654,
				"element": "C" 
			},
			{
				"x": 1.249305259,
				"y": -5.477917877,
				"z": -2.7233306361,
				"element": "H" 
			},
			{
				"x": 2.7446978518,
				"y": -4.4922149682,
				"z": -2.6057708713,
				"element": "H" 
			},
			{
				"x": 2.2663630545,
				"y": -5.592292597,
				"z": -1.2710457249,
				"element": "H" 
			},
			{
				"x": -2.6883003009,
				"y": -4.0575181954,
				"z": 2.0679022427,
				"element": "H" 
			},
			{
				"x": -3.2873131499,
				"y": -4.313542049,
				"z": 0.4215442117,
				"element": "H" 
			},
			{
				"x": -1.768897161,
				"y": -5.0684905036,
				"z": 0.9156899392,
				"element": "H" 
			},
			{
				"x": -3.0874822287,
				"y": -1.8520729028,
				"z": 1.5140711625,
				"element": "H" 
			},
			{
				"x": -2.5383949967,
				"y": 1.328832047,
				"z": 1.3986167473,
				"element": "H" 
			},
			{
				"x": -3.3786065065,
				"y": 1.00917558,
				"z": -0.1074629548,
				"element": "H" 
			},
			{
				"x": -3.8144376923,
				"y": 0.0974818016,
				"z": 1.3493002865,
				"element": "H" 
			},
			{
				"x": 0.4774117871,
				"y": -1.5459745244,
				"z": -1.5349742584,
				"element": "H" 
			},
			{
				"x": 2.5292833634,
				"y": -0.4799421592,
				"z": -1.2750951103,
				"element": "H" 
			},
			{
				"x": 4.5606351201,
				"y": -0.0178473416,
				"z": 0.1088462924,
				"element": "H" 
			},
			{
				"x": 2.569767086,
				"y": -1.5768235096,
				"z": 3.5661787442,
				"element": "H" 
			},
			{
				"x": 0.5462202748,
				"y": -2.060756991,
				"z": 2.1929703025,
				"element": "H" 
			},
			{
				"x": 1.3715620224,
				"y": 3.5411236105,
				"z": 0.0785369255,
				"element": "H" 
			},
			{
				"x": 2.6922509355,
				"y": 5.5806924494,
				"z": -0.4726744942,
				"element": "H" 
			},
			{
				"x": 2.0128755207,
				"y": 7.0959149858,
				"z": -2.2943396699,
				"element": "H" 
			},
			{
				"x": -0.033965412,
				"y": 6.6361100712,
				"z": -3.6539345617,
				"element": "H" 
			}
		],
		 "valence_orbital": [ 
			{
				"type": "occ",
				"energy": -0.27243,
				"method": "rhf"
			},
			{
				"type": "occ",
				"energy": -0.26688,
				"method": "rhf"
			},
			{
				"type": "occ",
				"energy": -0.25626,
				"method": "rhf"
			},
			{
				"type": "occ",
				"energy": -0.24007,
				"method": "rhf"
			},
			{
				"type": "occ",
				"energy": -0.23118,
				"method": "rhf"
			},
			{
				"type": "unocc",
				"energy": -0.08799,
				"method": "rhf"
			},
			{
				"type": "unocc",
				"energy": -0.07129,
				"method": "rhf"
			},
			{
				"type": "unocc",
				"energy": -0.04713,
				"method": "rhf"
			},
			{
				"type": "unocc",
				"energy": -0.02712,
				"method": "rhf"
			},
			{
				"type": "unocc",
				"energy": -0.02017,
				"method": "rhf"
			}
		],
		"cosmo_sigma_profile": { 
			"-0.025": 0.0,
			"-0.024": 0.0,
			"-0.023": 0.0,
			"-0.022": 0.0,
			"-0.021": 0.0,
			"-0.02": 0.0,
			"-0.019": 0.0,
			"-0.018": 0.0,
			"-0.017": 0.0982255397984,
			"-0.016": 1.0052777655,
			"-0.015": 1.05678778717,
			"-0.014": 1.14469660482,
			"-0.013": 1.75821745541,
			"-0.012": 1.39389827209,
			"-0.011": 1.47179721545,
			"-0.01": 2.09696926548,
			"-0.009": 1.57280520531,
			"-0.008": 3.03534386776,
			"-0.007": 13.3165958373,
			"-0.006": 25.0958090142,
			"-0.005": 34.7424962876,
			"-0.004": 32.587206474,
			"-0.003": 37.4629490444,
			"-0.002": 39.5017189704,
			"-0.001": 39.0612034553,
			"0.0": 34.7278782032,
			"0.001": 34.1171785299,
			"0.002": 33.807591384,
			"0.003": 23.9276958343,
			"0.004": 17.1799469881,
			"0.005": 10.4419772955,
			"0.006": 10.7332837741,
			"0.007": 11.8160628263,
			"0.008": 14.7436968693,
			"0.009": 12.3953694891,
			"0.01": 9.49217320237,
			"0.011": 6.66192359553,
			"0.012": 5.01282127034,
			"0.013": 1.66386156737,
			"0.014": 1.24640778275,
			"0.015": 0.412948624752,
			"0.016": 0.0,
			"0.017": 0.0,
			"0.018": 0.0,
			"0.019": 0.0,
			"0.02": 0.0,
			"0.021": 0.0,
			"0.022": 0.0,
			"0.023": 0.0,
			"0.024": 0.0,
			"0.025": 0.0
		}
	}
}
