{
	 "smiles": "NC1=CC(N)=C(C=CC2=CC=CC=C2)C(N)=C1C=CC1=CC=CC=C1", 
	 "Tm": 434.15, 
	 "num_atms": 46, 
	 "gaussian": { 
		 "optdone": 1, 
		 "sigma_profile": "yes", 
		 "theory": "DFT", 
		 "functional": "B3LYP", 
		 "basiset": "6-31G**", 
		 "properties": { 
			 "R2extent": 11375.6733, 
			 "electric_dipole_moment_norm": 2.93541358926, 
			 "electric_quadrupole_moment_norm": 15.2477930915, 
			 "total_energy": -1015.24296957, 
			 "HOMO_LUMO_gap": 0.13879, 
			 "cosmo_polarized_energy": -18.52, 
			 "cosmo_cavitation_energy": 48.46, 
			 "cosmo_dispersion_energy": -33.98, 
			 "cosmo_repulsion_energy": 2.59, 
			 "cosmo_total_nonelectrostatic_energy": 17.07, 
			 "SMD_solvation_energy": 7.5 
		},
		"coords": [
			{
				"x": 2.8665888692,
				"y": -1.834647128,
				"z": -0.6748114041,
				"element": "N" 
			},
			{
				"x": 1.783152589,
				"y": -1.2539219253,
				"z": -1.3182029086,
				"element": "C" 
			},
			{
				"x": 1.978316854,
				"y": -0.7252534208,
				"z": -2.5971316408,
				"element": "C" 
			},
			{
				"x": 0.9467880057,
				"y": -0.0474394903,
				"z": -3.2506028617,
				"element": "C" 
			},
			{
				"x": 1.1933526209,
				"y": 0.5257712183,
				"z": -4.4880538963,
				"element": "N" 
			},
			{
				"x": -0.3198217205,
				"y": 0.1202408041,
				"z": -2.6313844439,
				"element": "C" 
			},
			{
				"x": -1.4218592189,
				"y": 0.6807250926,
				"z": -3.4337812576,
				"element": "C" 
			},
			{
				"x": -2.339927118,
				"y": 1.6459809137,
				"z": -3.1807790469,
				"element": "C" 
			},
			{
				"x": -2.4893147592,
				"y": 2.5892009213,
				"z": -2.0648955663,
				"element": "C" 
			},
			{
				"x": -3.6649379305,
				"y": 3.3640532285,
				"z": -2.0073784193,
				"element": "C" 
			},
			{
				"x": -3.8649001277,
				"y": 4.3057897796,
				"z": -1.0009431551,
				"element": "C" 
			},
			{
				"x": -2.8825737356,
				"y": 4.5063857756,
				"z": -0.0292263885,
				"element": "C" 
			},
			{
				"x": -1.7041421611,
				"y": 3.7568351698,
				"z": -0.07839566,
				"element": "C" 
			},
			{
				"x": -1.5082867743,
				"y": 2.8062185178,
				"z": -1.0769525412,
				"element": "C" 
			},
			{
				"x": -0.5162567075,
				"y": -0.4378041065,
				"z": -1.3407101223,
				"element": "C" 
			},
			{
				"x": -1.7608541902,
				"y": -0.3292486593,
				"z": -0.7487134859,
				"element": "N" 
			},
			{
				"x": 0.528029455,
				"y": -1.1308364891,
				"z": -0.6601463591,
				"element": "C" 
			},
			{
				"x": 0.3355501606,
				"y": -1.80051711,
				"z": 0.625057575,
				"element": "C" 
			},
			{
				"x": -0.4084975186,
				"y": -1.411213188,
				"z": 1.68892751,
				"element": "C" 
			},
			{
				"x": -0.583785285,
				"y": -2.1623161302,
				"z": 2.9368819811,
				"element": "C" 
			},
			{
				"x": -1.0531417526,
				"y": -1.4869637478,
				"z": 4.0805160151,
				"element": "C" 
			},
			{
				"x": -1.2144451305,
				"y": -2.1472653942,
				"z": 5.2966215867,
				"element": "C" 
			},
			{
				"x": -0.9176755091,
				"y": -3.5075595502,
				"z": 5.4023507687,
				"element": "C" 
			},
			{
				"x": -0.4667379025,
				"y": -4.1987052675,
				"z": 4.2741353213,
				"element": "C" 
			},
			{
				"x": -0.3091765383,
				"y": -3.5395397112,
				"z": 3.0578412333,
				"element": "C" 
			},
			{
				"x": 2.7042153334,
				"y": -2.3274309659,
				"z": 0.187903682,
				"element": "H" 
			},
			{
				"x": 3.5798804074,
				"y": -2.2388235279,
				"z": -1.2617781979,
				"element": "H" 
			},
			{
				"x": 2.963422415,
				"y": -0.7747096327,
				"z": -3.0537959151,
				"element": "H" 
			},
			{
				"x": 0.40524878,
				"y": 0.8852501613,
				"z": -5.003132363,
				"element": "H" 
			},
			{
				"x": 1.9155855225,
				"y": 0.1060472488,
				"z": -5.0526656597,
				"element": "H" 
			},
			{
				"x": -1.5253586372,
				"y": 0.2178411538,
				"z": -4.4202882386,
				"element": "H" 
			},
			{
				"x": -3.0914812304,
				"y": 1.7835004342,
				"z": -3.95840753,
				"element": "H" 
			},
			{
				"x": -4.4289438974,
				"y": 3.2198577371,
				"z": -2.7679658567,
				"element": "H" 
			},
			{
				"x": -4.7833828952,
				"y": 4.8857725556,
				"z": -0.978093465,
				"element": "H" 
			},
			{
				"x": -3.0311945257,
				"y": 5.2421603958,
				"z": 0.7560791602,
				"element": "H" 
			},
			{
				"x": -0.9305070022,
				"y": 3.9129528762,
				"z": 0.6683778887,
				"element": "H" 
			},
			{
				"x": -0.5858478002,
				"y": 2.2394778541,
				"z": -1.1063360737,
				"element": "H" 
			},
			{
				"x": -1.9773387984,
				"y": -1.0341725148,
				"z": -0.0569480322,
				"element": "H" 
			},
			{
				"x": -2.5196057452,
				"y": -0.1123345758,
				"z": -1.3807182648,
				"element": "H" 
			},
			{
				"x": 0.8767383128,
				"y": -2.7435541121,
				"z": 0.7350062996,
				"element": "H" 
			},
			{
				"x": -0.8854905466,
				"y": -0.4336988915,
				"z": 1.6659959268,
				"element": "H" 
			},
			{
				"x": -1.2819457935,
				"y": -0.4264982482,
				"z": 4.008238264,
				"element": "H" 
			},
			{
				"x": -1.5732874665,
				"y": -1.5988125422,
				"z": 6.1633033069,
				"element": "H" 
			},
			{
				"x": -1.0462880524,
				"y": -4.0261113375,
				"z": 6.3479507123,
				"element": "H" 
			},
			{
				"x": -0.2500148538,
				"y": -5.2616250587,
				"z": 4.3397980662,
				"element": "H" 
			},
			{
				"x": 0.0080519991,
				"y": -4.1034591123,
				"z": 2.1854534566,
				"element": "H" 
			}
		],
		 "valence_orbital": [ 
			{
				"type": "occ",
				"energy": -0.23681,
				"method": "rhf"
			},
			{
				"type": "occ",
				"energy": -0.22928,
				"method": "rhf"
			},
			{
				"type": "occ",
				"energy": -0.21771,
				"method": "rhf"
			},
			{
				"type": "occ",
				"energy": -0.17981,
				"method": "rhf"
			},
			{
				"type": "occ",
				"energy": -0.17045,
				"method": "rhf"
			},
			{
				"type": "unocc",
				"energy": -0.03166,
				"method": "rhf"
			},
			{
				"type": "unocc",
				"energy": -0.03004,
				"method": "rhf"
			},
			{
				"type": "unocc",
				"energy": 0.00684,
				"method": "rhf"
			},
			{
				"type": "unocc",
				"energy": 0.01059,
				"method": "rhf"
			},
			{
				"type": "unocc",
				"energy": 0.03325,
				"method": "rhf"
			}
		],
		"cosmo_sigma_profile": { 
			"-0.025": 0.0,
			"-0.024": 0.0,
			"-0.023": 0.0,
			"-0.022": 0.0,
			"-0.021": 0.0,
			"-0.02": 0.0,
			"-0.019": 0.0,
			"-0.018": 0.0,
			"-0.017": 0.0,
			"-0.016": 0.0,
			"-0.015": 0.0,
			"-0.014": 0.0,
			"-0.013": 0.577688851009,
			"-0.012": 3.33418615318,
			"-0.011": 5.01839992966,
			"-0.01": 4.3988465099,
			"-0.009": 6.70328501446,
			"-0.008": 7.1097322998,
			"-0.007": 7.70141000167,
			"-0.006": 13.9368202718,
			"-0.005": 29.5859720278,
			"-0.004": 28.9269151775,
			"-0.003": 31.676145016,
			"-0.002": 21.9526652516,
			"-0.001": 20.7901595951,
			"0.0": 21.0731012193,
			"0.001": 20.0837778896,
			"0.002": 23.1701801031,
			"0.003": 24.2784972262,
			"0.004": 28.7932055854,
			"0.005": 28.5418191013,
			"0.006": 28.0979553643,
			"0.007": 14.4902243764,
			"0.008": 5.59440307775,
			"0.009": 3.17549208704,
			"0.01": 2.03082790888,
			"0.011": 2.31896076673,
			"0.012": 1.59482688171,
			"0.013": 0.955885953142,
			"0.014": 0.0761701995884,
			"0.015": 0.0,
			"0.016": 0.0,
			"0.017": 0.0,
			"0.018": 0.0,
			"0.019": 0.0,
			"0.02": 0.0,
			"0.021": 0.0,
			"0.022": 0.0,
			"0.023": 0.0,
			"0.024": 0.0,
			"0.025": 0.0
		}
	}
}
