{
	 "smiles": "[O-][N+](=O)C1=C(NC(=O)CCl)C=CC=C1", 
	 "Tm": 365.15, 
	 "num_atms": 21, 
	 "gaussian": { 
		 "optdone": 1, 
		 "sigma_profile": "yes", 
		 "theory": "DFT", 
		 "functional": "B3LYP", 
		 "basiset": "6-31G**", 
		 "properties": { 
			 "R2extent": 3336.5074, 
			 "electric_dipole_moment_norm": 5.71200634891, 
			 "electric_quadrupole_moment_norm": 11.5496134494, 
			 "total_energy": -1104.3340136, 
			 "HOMO_LUMO_gap": 0.16239, 
			 "cosmo_polarized_energy": -15.95, 
			 "cosmo_cavitation_energy": 27.91, 
			 "cosmo_dispersion_energy": -19.76, 
			 "cosmo_repulsion_energy": 1.58, 
			 "cosmo_total_nonelectrostatic_energy": 9.74, 
			 "SMD_solvation_energy": 7.37 
		},
		"coords": [
			{
				"x": -1.9745272142,
				"y": -1.2206159579,
				"z": -0.4386677722,
				"element": "O" 
			},
			{
				"x": -1.6576426598,
				"y": -0.5435836863,
				"z": 0.5392127965,
				"element": "N" 
			},
			{
				"x": -2.4236297561,
				"y": -0.2158255773,
				"z": 1.4432036103,
				"element": "O" 
			},
			{
				"x": -0.2703249186,
				"y": -0.0634441268,
				"z": 0.6345631507,
				"element": "C" 
			},
			{
				"x": 0.8206041231,
				"y": -0.8303845896,
				"z": 0.1779738824,
				"element": "C" 
			},
			{
				"x": 0.6940021432,
				"y": -2.1516105158,
				"z": -0.3316571923,
				"element": "N" 
			},
			{
				"x": 0.3615097949,
				"y": -2.5687701491,
				"z": -1.6055128297,
				"element": "C" 
			},
			{
				"x": 0.2825307901,
				"y": -3.7522693184,
				"z": -1.8779793264,
				"element": "O" 
			},
			{
				"x": 0.1391941523,
				"y": -1.4889938145,
				"z": -2.6591437408,
				"element": "C" 
			},
			{
				"x": 1.7282753154,
				"y": -0.8673081977,
				"z": -3.2854729721,
				"element": "Cl" 
			},
			{
				"x": 2.1015770328,
				"y": -0.2888958996,
				"z": 0.3415101593,
				"element": "C" 
			},
			{
				"x": 2.2917291386,
				"y": 0.9679519096,
				"z": 0.9131122098,
				"element": "C" 
			},
			{
				"x": 1.1944240993,
				"y": 1.7114969067,
				"z": 1.3511109532,
				"element": "C" 
			},
			{
				"x": -0.0883760863,
				"y": 1.1887383262,
				"z": 1.222737352,
				"element": "C" 
			},
			{
				"x": 0.9196090052,
				"y": -2.9195305353,
				"z": 0.2894756373,
				"element": "H" 
			},
			{
				"x": -0.4201758081,
				"y": -0.6367622059,
				"z": -2.2804372316,
				"element": "H" 
			},
			{
				"x": -0.3785753524,
				"y": -1.9471718852,
				"z": -3.4986015162,
				"element": "H" 
			},
			{
				"x": 2.9467285047,
				"y": -0.8768174244,
				"z": 0.0002406459,
				"element": "H" 
			},
			{
				"x": 3.2967877934,
				"y": 1.3652201316,
				"z": 1.014209866,
				"element": "H" 
			},
			{
				"x": 1.3345611559,
				"y": 2.6916766516,
				"z": 1.7949517531,
				"element": "H" 
			},
			{
				"x": -0.9593812534,
				"y": 1.728599958,
				"z": 1.5739705647,
				"element": "H" 
			}
		],
		 "valence_orbital": [ 
			{
				"type": "occ",
				"energy": -0.30798,
				"method": "rhf"
			},
			{
				"type": "occ",
				"energy": -0.29656,
				"method": "rhf"
			},
			{
				"type": "occ",
				"energy": -0.28953,
				"method": "rhf"
			},
			{
				"type": "occ",
				"energy": -0.27283,
				"method": "rhf"
			},
			{
				"type": "occ",
				"energy": -0.26316,
				"method": "rhf"
			},
			{
				"type": "unocc",
				"energy": -0.10077,
				"method": "rhf"
			},
			{
				"type": "unocc",
				"energy": -0.04834,
				"method": "rhf"
			},
			{
				"type": "unocc",
				"energy": -0.0266,
				"method": "rhf"
			},
			{
				"type": "unocc",
				"energy": -0.02408,
				"method": "rhf"
			},
			{
				"type": "unocc",
				"energy": 0.05524,
				"method": "rhf"
			}
		],
		"cosmo_sigma_profile": { 
			"-0.025": 0.0,
			"-0.024": 0.0,
			"-0.023": 0.0,
			"-0.022": 0.0,
			"-0.021": 0.0,
			"-0.02": 0.0,
			"-0.019": 0.0,
			"-0.018": 0.0,
			"-0.017": 0.0,
			"-0.016": 0.0919750107923,
			"-0.015": 1.09908517223,
			"-0.014": 1.39573515591,
			"-0.013": 0.836849887442,
			"-0.012": 0.952539494885,
			"-0.011": 0.924453877619,
			"-0.01": 1.26819958258,
			"-0.009": 1.51419800516,
			"-0.008": 10.0754855842,
			"-0.007": 15.6243826785,
			"-0.006": 15.4204688353,
			"-0.005": 11.7982437424,
			"-0.004": 9.96056109355,
			"-0.003": 11.7539748135,
			"-0.002": 8.72915030076,
			"-0.001": 13.336296581,
			"0.0": 14.8158349052,
			"0.001": 16.9200547476,
			"0.002": 12.8098877504,
			"0.003": 10.9604183683,
			"0.004": 11.6122779751,
			"0.005": 12.3043661096,
			"0.006": 8.03565201079,
			"0.007": 8.29130440113,
			"0.008": 6.4198348014,
			"0.009": 5.15502891307,
			"0.01": 2.32917402828,
			"0.011": 2.47277214963,
			"0.012": 5.47177908767,
			"0.013": 2.92027293874,
			"0.014": 0.145563223332,
			"0.015": 0.0,
			"0.016": 0.0,
			"0.017": 0.0,
			"0.018": 0.0,
			"0.019": 0.0,
			"0.02": 0.0,
			"0.021": 0.0,
			"0.022": 0.0,
			"0.023": 0.0,
			"0.024": 0.0,
			"0.025": 0.0
		}
	}
}
