{
	 "smiles": "NC1=CC(=CC=C1)S(=O)(=O)N1CCCC1", 
	 "Tm": 430.15, 
	 "num_atms": 29, 
	 "gaussian": { 
		 "optdone": 1, 
		 "sigma_profile": "yes", 
		 "theory": "DFT", 
		 "functional": "B3LYP", 
		 "basiset": "6-31G**", 
		 "properties": { 
			 "R2extent": 4186.4668, 
			 "electric_dipole_moment_norm": 5.89735136226, 
			 "electric_quadrupole_moment_norm": 23.2895474372, 
			 "total_energy": -1047.57396659, 
			 "HOMO_LUMO_gap": 0.19039, 
			 "cosmo_polarized_energy": -18.26, 
			 "cosmo_cavitation_energy": 32.18, 
			 "cosmo_dispersion_energy": -23.65, 
			 "cosmo_repulsion_energy": 1.83, 
			 "cosmo_total_nonelectrostatic_energy": 10.36, 
			 "SMD_solvation_energy": 3.21 
		},
		"coords": [
			{
				"x": -4.2994623043,
				"y": -1.1072283452,
				"z": -2.3525666823,
				"element": "N" 
			},
			{
				"x": -3.015648935,
				"y": -0.5706394223,
				"z": -2.2967471462,
				"element": "C" 
			},
			{
				"x": -1.9497871359,
				"y": -1.3211783096,
				"z": -1.7720379067,
				"element": "C" 
			},
			{
				"x": -0.6805206688,
				"y": -0.7504765182,
				"z": -1.6834193257,
				"element": "C" 
			},
			{
				"x": -0.4239817386,
				"y": 0.5548702478,
				"z": -2.1110296277,
				"element": "C" 
			},
			{
				"x": -1.4889509741,
				"y": 1.2952696317,
				"z": -2.6286494228,
				"element": "C" 
			},
			{
				"x": -2.7666801129,
				"y": 0.7495677339,
				"z": -2.7166668171,
				"element": "C" 
			},
			{
				"x": 0.6481124684,
				"y": -1.7159726916,
				"z": -0.9462956879,
				"element": "S" 
			},
			{
				"x": 1.9131265978,
				"y": -1.1526282451,
				"z": -1.4227416406,
				"element": "O" 
			},
			{
				"x": 0.3055361836,
				"y": -3.1313448888,
				"z": -1.1131403146,
				"element": "O" 
			},
			{
				"x": 0.5895933106,
				"y": -1.414885957,
				"z": 0.6921142783,
				"element": "N" 
			},
			{
				"x": 1.0265059794,
				"y": -0.1006654214,
				"z": 1.2235244438,
				"element": "C" 
			},
			{
				"x": 0.252869995,
				"y": 0.0310397607,
				"z": 2.552488749,
				"element": "C" 
			},
			{
				"x": -0.1665805162,
				"y": -1.4095436746,
				"z": 2.8975621309,
				"element": "C" 
			},
			{
				"x": -0.4687136935,
				"y": -2.0166447126,
				"z": 1.5240365112,
				"element": "C" 
			},
			{
				"x": -4.3482679013,
				"y": -2.1166120981,
				"z": -2.3608852156,
				"element": "H" 
			},
			{
				"x": -4.9165233295,
				"y": -0.6900326969,
				"z": -3.0353649204,
				"element": "H" 
			},
			{
				"x": -2.0964734374,
				"y": -2.3525314722,
				"z": -1.4676257413,
				"element": "H" 
			},
			{
				"x": 0.5826148092,
				"y": 0.9533853185,
				"z": -2.0736232731,
				"element": "H" 
			},
			{
				"x": -1.3189484619,
				"y": 2.3092782201,
				"z": -2.9790382986,
				"element": "H" 
			},
			{
				"x": -3.5829386034,
				"y": 1.341573363,
				"z": -3.1230215335,
				"element": "H" 
			},
			{
				"x": 2.1109417813,
				"y": -0.1129694432,
				"z": 1.3654322366,
				"element": "H" 
			},
			{
				"x": 0.7865156458,
				"y": 0.7179131679,
				"z": 0.5357735097,
				"element": "H" 
			},
			{
				"x": 0.8556519918,
				"y": 0.5013300386,
				"z": 3.3338338332,
				"element": "H" 
			},
			{
				"x": -0.6384559383,
				"y": 0.6503282144,
				"z": 2.4040892192,
				"element": "H" 
			},
			{
				"x": -1.0266696703,
				"y": -1.4559820794,
				"z": 3.5710855599,
				"element": "H" 
			},
			{
				"x": 0.6634172528,
				"y": -1.9499672996,
				"z": 3.364897767,
				"element": "H" 
			},
			{
				"x": -0.3933291818,
				"y": -3.1046577117,
				"z": 1.4933051168,
				"element": "H" 
			},
			{
				"x": -1.4743534125,
				"y": -1.7240947092,
				"z": 1.1826101985,
				"element": "H" 
			}
		],
		 "valence_orbital": [ 
			{
				"type": "occ",
				"energy": -0.2907,
				"method": "rhf"
			},
			{
				"type": "occ",
				"energy": -0.28864,
				"method": "rhf"
			},
			{
				"type": "occ",
				"energy": -0.26747,
				"method": "rhf"
			},
			{
				"type": "occ",
				"energy": -0.24129,
				"method": "rhf"
			},
			{
				"type": "occ",
				"energy": -0.21771,
				"method": "rhf"
			},
			{
				"type": "unocc",
				"energy": -0.02732,
				"method": "rhf"
			},
			{
				"type": "unocc",
				"energy": -0.00192,
				"method": "rhf"
			},
			{
				"type": "unocc",
				"energy": 0.06627,
				"method": "rhf"
			},
			{
				"type": "unocc",
				"energy": 0.07364,
				"method": "rhf"
			},
			{
				"type": "unocc",
				"energy": 0.08743,
				"method": "rhf"
			}
		],
		"cosmo_sigma_profile": { 
			"-0.025": 0.0,
			"-0.024": 0.0,
			"-0.023": 0.0,
			"-0.022": 0.0,
			"-0.021": 0.0,
			"-0.02": 0.0,
			"-0.019": 0.0,
			"-0.018": 0.0,
			"-0.017": 0.0,
			"-0.016": 0.0,
			"-0.015": 0.0,
			"-0.014": 0.0,
			"-0.013": 1.73511397096,
			"-0.012": 3.10605635047,
			"-0.011": 2.78745941214,
			"-0.01": 3.26200302785,
			"-0.009": 3.40402266766,
			"-0.008": 3.59704484036,
			"-0.007": 3.81171247484,
			"-0.006": 6.44837723195,
			"-0.005": 11.2338682194,
			"-0.004": 27.4335233913,
			"-0.003": 31.8942328447,
			"-0.002": 26.0053393094,
			"-0.001": 18.4097521771,
			"0.0": 13.3386536142,
			"0.001": 8.92895262296,
			"0.002": 8.72616421756,
			"0.003": 12.5019199533,
			"0.004": 14.2954857994,
			"0.005": 9.29785978765,
			"0.006": 5.40094581951,
			"0.007": 4.8733950849,
			"0.008": 4.56440929918,
			"0.009": 4.34246071588,
			"0.01": 6.18615015713,
			"0.011": 9.07243213184,
			"0.012": 7.56093337651,
			"0.013": 1.03035231127,
			"0.014": 0.312300895812,
			"0.015": 0.0,
			"0.016": 0.0,
			"0.017": 0.0,
			"0.018": 0.0,
			"0.019": 0.0,
			"0.02": 0.0,
			"0.021": 0.0,
			"0.022": 0.0,
			"0.023": 0.0,
			"0.024": 0.0,
			"0.025": 0.0
		}
	}
}
