{
	 "smiles": "NC1=CC(N)=NC(N)=N1", 
	 "Tm": 523.15, 
	 "num_atms": 16, 
	 "gaussian": { 
		 "optdone": 1, 
		 "sigma_profile": "yes", 
		 "theory": "DFT", 
		 "functional": "B3LYP", 
		 "basiset": "6-31G**", 
		 "properties": { 
			 "R2extent": 1401.819, 
			 "electric_dipole_moment_norm": 2.90194328166, 
			 "electric_quadrupole_moment_norm": 7.94372040168, 
			 "total_energy": -430.441578605, 
			 "HOMO_LUMO_gap": 0.22179, 
			 "cosmo_polarized_energy": -17.05, 
			 "cosmo_cavitation_energy": 20.17, 
			 "cosmo_dispersion_energy": -15.64, 
			 "cosmo_repulsion_energy": 1.33, 
			 "cosmo_total_nonelectrostatic_energy": 5.86, 
			 "SMD_solvation_energy": 0.66 
		},
		"coords": [
			{
				"x": 0.494779122,
				"y": 2.4040983081,
				"z": -2.1098278933,
				"element": "N" 
			},
			{
				"x": 0.653039393,
				"y": 1.4620974028,
				"z": -1.1189490968,
				"element": "C" 
			},
			{
				"x": -0.2009206468,
				"y": 0.3564293422,
				"z": -1.0136817569,
				"element": "C" 
			},
			{
				"x": 0.0449252892,
				"y": -0.5094330501,
				"z": 0.059939922,
				"element": "C" 
			},
			{
				"x": -0.7441841823,
				"y": -1.6129223456,
				"z": 0.2920832202,
				"element": "N" 
			},
			{
				"x": 1.0350647444,
				"y": -0.3049669074,
				"z": 0.9455813948,
				"element": "N" 
			},
			{
				"x": 1.7709050545,
				"y": 0.7992608432,
				"z": 0.7440346583,
				"element": "C" 
			},
			{
				"x": 2.7493328953,
				"y": 1.0519636568,
				"z": 1.6713359417,
				"element": "N" 
			},
			{
				"x": 1.6515744141,
				"y": 1.6936602243,
				"z": -0.2495539875,
				"element": "N" 
			},
			{
				"x": 0.0176277561,
				"y": 2.1264924212,
				"z": -2.9533419331,
				"element": "H" 
			},
			{
				"x": 1.2841968521,
				"y": 3.0213994298,
				"z": -2.2325032719,
				"element": "H" 
			},
			{
				"x": -1.0146968101,
				"y": 0.1905023143,
				"z": -1.7109808182,
				"element": "H" 
			},
			{
				"x": -1.2549727329,
				"y": -2.0002033282,
				"z": -0.4859674233,
				"element": "H" 
			},
			{
				"x": -0.3514260644,
				"y": -2.2816805766,
				"z": 0.9384549662,
				"element": "H" 
			},
			{
				"x": 3.0187850308,
				"y": 0.2793850217,
				"z": 2.259193768,
				"element": "H" 
			},
			{
				"x": 3.460869885,
				"y": 1.7125172434,
				"z": 1.40218231,
				"element": "H" 
			}
		],
		 "valence_orbital": [ 
			{
				"type": "occ",
				"energy": -0.28906,
				"method": "rhf"
			},
			{
				"type": "occ",
				"energy": -0.24416,
				"method": "rhf"
			},
			{
				"type": "occ",
				"energy": -0.23534,
				"method": "rhf"
			},
			{
				"type": "occ",
				"energy": -0.22545,
				"method": "rhf"
			},
			{
				"type": "occ",
				"energy": -0.19786,
				"method": "rhf"
			},
			{
				"type": "unocc",
				"energy": 0.02393,
				"method": "rhf"
			},
			{
				"type": "unocc",
				"energy": 0.03202,
				"method": "rhf"
			},
			{
				"type": "unocc",
				"energy": 0.09021,
				"method": "rhf"
			},
			{
				"type": "unocc",
				"energy": 0.09528,
				"method": "rhf"
			},
			{
				"type": "unocc",
				"energy": 0.10716,
				"method": "rhf"
			}
		],
		"cosmo_sigma_profile": { 
			"-0.025": 0.0,
			"-0.024": 0.0,
			"-0.023": 0.0,
			"-0.022": 0.0,
			"-0.021": 0.0,
			"-0.02": 0.0,
			"-0.019": 0.0,
			"-0.018": 0.0,
			"-0.017": 0.0,
			"-0.016": 0.0,
			"-0.015": 0.0,
			"-0.014": 0.157456402749,
			"-0.013": 3.34767453967,
			"-0.012": 6.63322995304,
			"-0.011": 6.25410714341,
			"-0.01": 6.57495953721,
			"-0.009": 7.00433665875,
			"-0.008": 6.21184337234,
			"-0.007": 6.30445740046,
			"-0.006": 5.98411421574,
			"-0.005": 5.5509179948,
			"-0.004": 5.54350009118,
			"-0.003": 3.56955023662,
			"-0.002": 4.20366102909,
			"-0.001": 3.76471226501,
			"0.0": 5.4137658719,
			"0.001": 4.62669332757,
			"0.002": 7.67109901067,
			"0.003": 9.47301570489,
			"0.004": 8.99189997783,
			"0.005": 9.08655295657,
			"0.006": 7.48402523002,
			"0.007": 5.61785197389,
			"0.008": 6.50633817422,
			"0.009": 4.82242219637,
			"0.01": 4.78860031809,
			"0.011": 4.3418714466,
			"0.012": 4.1406992574,
			"0.013": 1.80057169409,
			"0.014": 1.98336786025,
			"0.015": 0.991026743334,
			"0.016": 0.0182599742344,
			"0.017": 0.0,
			"0.018": 0.0,
			"0.019": 0.0,
			"0.02": 0.0,
			"0.021": 0.0,
			"0.022": 0.0,
			"0.023": 0.0,
			"0.024": 0.0,
			"0.025": 0.0
		}
	}
}
