{
	 "smiles": "OCCN(CCO)C(CO)(CO)CO", 
	 "Tm": 376.65, 
	 "num_atms": 33, 
	 "gaussian": { 
		 "optdone": 1, 
		 "sigma_profile": "yes", 
		 "theory": "DFT", 
		 "functional": "B3LYP", 
		 "basiset": "6-31G**", 
		 "properties": { 
			 "R2extent": 2981.3196, 
			 "electric_dipole_moment_norm": 4.7584952422, 
			 "electric_quadrupole_moment_norm": 7.46245338947, 
			 "total_energy": -747.111569031, 
			 "HOMO_LUMO_gap": 0.26392, 
			 "cosmo_polarized_energy": -18.84, 
			 "cosmo_cavitation_energy": 30.52, 
			 "cosmo_dispersion_energy": -22.29, 
			 "cosmo_repulsion_energy": 1.7, 
			 "cosmo_total_nonelectrostatic_energy": 9.94, 
			 "SMD_solvation_energy": 4.72 
		},
		"coords": [
			{
				"x": -2.3398666728,
				"y": 0.5069993658,
				"z": -2.3109443762,
				"element": "O" 
			},
			{
				"x": -1.0967780779,
				"y": 0.9880564463,
				"z": -2.7666566045,
				"element": "C" 
			},
			{
				"x": -0.1041185649,
				"y": 1.3396816579,
				"z": -1.6436066627,
				"element": "C" 
			},
			{
				"x": 0.1332026656,
				"y": 0.1864842998,
				"z": -0.7507686399,
				"element": "N" 
			},
			{
				"x": -0.8909095742,
				"y": 0.1230391117,
				"z": 0.3222657557,
				"element": "C" 
			},
			{
				"x": -1.5867923481,
				"y": -1.248093638,
				"z": 0.4723187174,
				"element": "C" 
			},
			{
				"x": -1.8024977052,
				"y": -1.8850472468,
				"z": -0.7839076917,
				"element": "O" 
			},
			{
				"x": 1.537292105,
				"y": -0.1064500217,
				"z": -0.3812997044,
				"element": "C" 
			},
			{
				"x": 1.6021124477,
				"y": -1.4230763655,
				"z": 0.4345684914,
				"element": "C" 
			},
			{
				"x": 1.0485739475,
				"y": -2.5518215149,
				"z": -0.2284800067,
				"element": "O" 
			},
			{
				"x": 2.3489043847,
				"y": -0.3419498249,
				"z": -1.6864719909,
				"element": "C" 
			},
			{
				"x": 1.7011379874,
				"y": -1.2811876673,
				"z": -2.5413527241,
				"element": "O" 
			},
			{
				"x": 2.2523943682,
				"y": 1.0205343704,
				"z": 0.4077010064,
				"element": "C" 
			},
			{
				"x": 1.7558394715,
				"y": 1.233250873,
				"z": 1.7246373353,
				"element": "O" 
			},
			{
				"x": -2.202123439,
				"y": -0.3814365793,
				"z": -1.9262409934,
				"element": "H" 
			},
			{
				"x": -1.296899549,
				"y": 1.8940150852,
				"z": -3.3526878399,
				"element": "H" 
			},
			{
				"x": -0.6126361798,
				"y": 0.2700550343,
				"z": -3.4536598411,
				"element": "H" 
			},
			{
				"x": -0.4786696791,
				"y": 2.2056116532,
				"z": -1.0786892769,
				"element": "H" 
			},
			{
				"x": 0.8291857632,
				"y": 1.6620765275,
				"z": -2.1146497586,
				"element": "H" 
			},
			{
				"x": -1.6625056167,
				"y": 0.8403764505,
				"z": 0.0427228204,
				"element": "H" 
			},
			{
				"x": -0.4841722443,
				"y": 0.4481635069,
				"z": 1.2868644266,
				"element": "H" 
			},
			{
				"x": -2.5700887322,
				"y": -1.0895677762,
				"z": 0.9277415448,
				"element": "H" 
			},
			{
				"x": -1.0270441823,
				"y": -1.9224902942,
				"z": 1.1294591869,
				"element": "H" 
			},
			{
				"x": -0.9342942072,
				"y": -2.2677316796,
				"z": -0.9919232174,
				"element": "H" 
			},
			{
				"x": 1.0601582922,
				"y": -1.3181012156,
				"z": 1.3772511545,
				"element": "H" 
			},
			{
				"x": 2.6598599097,
				"y": -1.6055750084,
				"z": 0.6877088504,
				"element": "H" 
			},
			{
				"x": 1.4230914809,
				"y": -2.5485783959,
				"z": -1.1287697832,
				"element": "H" 
			},
			{
				"x": 2.5339644389,
				"y": 0.6011555293,
				"z": -2.21948322,
				"element": "H" 
			},
			{
				"x": 3.329143194,
				"y": -0.76137308,
				"z": -1.4374106078,
				"element": "H" 
			},
			{
				"x": 0.7560845536,
				"y": -1.0514939507,
				"z": -2.481585389,
				"element": "H" 
			},
			{
				"x": 3.3367386851,
				"y": 0.8238277668,
				"z": 0.4249219076,
				"element": "H" 
			},
			{
				"x": 2.1099820859,
				"y": 1.9678262121,
				"z": -0.1214709157,
				"element": "H" 
			},
			{
				"x": 2.1374309918,
				"y": 0.5667203681,
				"z": 2.3085980468,
				"element": "H" 
			}
		],
		 "valence_orbital": [ 
			{
				"type": "occ",
				"energy": -0.28931,
				"method": "rhf"
			},
			{
				"type": "occ",
				"energy": -0.27773,
				"method": "rhf"
			},
			{
				"type": "occ",
				"energy": -0.27195,
				"method": "rhf"
			},
			{
				"type": "occ",
				"energy": -0.25456,
				"method": "rhf"
			},
			{
				"type": "occ",
				"energy": -0.21881,
				"method": "rhf"
			},
			{
				"type": "unocc",
				"energy": 0.04511,
				"method": "rhf"
			},
			{
				"type": "unocc",
				"energy": 0.05628,
				"method": "rhf"
			},
			{
				"type": "unocc",
				"energy": 0.07499,
				"method": "rhf"
			},
			{
				"type": "unocc",
				"energy": 0.088,
				"method": "rhf"
			},
			{
				"type": "unocc",
				"energy": 0.09324,
				"method": "rhf"
			}
		],
		"cosmo_sigma_profile": { 
			"-0.025": 0.0,
			"-0.024": 0.0,
			"-0.023": 0.0,
			"-0.022": 0.0,
			"-0.021": 0.0,
			"-0.02": 0.0,
			"-0.019": 0.0,
			"-0.018": 0.0,
			"-0.017": 0.0,
			"-0.016": 0.283161532145,
			"-0.015": 0.980834997888,
			"-0.014": 0.966647266171,
			"-0.013": 0.928653219513,
			"-0.012": 1.19632595523,
			"-0.011": 0.954876508458,
			"-0.01": 1.51459838478,
			"-0.009": 1.14516652137,
			"-0.008": 3.98541935869,
			"-0.007": 8.81994521395,
			"-0.006": 16.6670538627,
			"-0.005": 18.2093927118,
			"-0.004": 21.6309967665,
			"-0.003": 25.0502369232,
			"-0.002": 24.7665157972,
			"-0.001": 15.1003363883,
			"0.0": 9.9977078814,
			"0.001": 7.63856969119,
			"0.002": 9.19323162525,
			"0.003": 6.30212388168,
			"0.004": 5.26013448727,
			"0.005": 6.20154142289,
			"0.006": 5.02958006726,
			"0.007": 5.85262655191,
			"0.008": 3.58164726248,
			"0.009": 4.75701748229,
			"0.01": 5.46954691754,
			"0.011": 4.74300910719,
			"0.012": 4.9903210715,
			"0.013": 6.31160366809,
			"0.014": 4.30322166522,
			"0.015": 2.27697603613,
			"0.016": 0.533988148773,
			"0.017": 0.0,
			"0.018": 0.0,
			"0.019": 0.0,
			"0.02": 0.0,
			"0.021": 0.0,
			"0.022": 0.0,
			"0.023": 0.0,
			"0.024": 0.0,
			"0.025": 0.0
		}
	}
}
