{
	 "smiles": "CC1=NC(=NC(O)=C1)C1CC1", 
	 "Tm": 464.15, 
	 "num_atms": 21, 
	 "gaussian": { 
		 "optdone": 1, 
		 "sigma_profile": "yes", 
		 "theory": "DFT", 
		 "functional": "B3LYP", 
		 "basiset": "6-31G**", 
		 "properties": { 
			 "R2extent": 2065.9602, 
			 "electric_dipole_moment_norm": 2.80019648239, 
			 "electric_quadrupole_moment_norm": 13.650091988, 
			 "total_energy": -495.590654806, 
			 "HOMO_LUMO_gap": 0.22329, 
			 "cosmo_polarized_energy": -13.2, 
			 "cosmo_cavitation_energy": 24.72, 
			 "cosmo_dispersion_energy": -18.36, 
			 "cosmo_repulsion_energy": 1.5, 
			 "cosmo_total_nonelectrostatic_energy": 7.86, 
			 "SMD_solvation_energy": 2.07 
		},
		"coords": [
			{
				"x": 1.6608156323,
				"y": -2.0391447928,
				"z": -2.4750575241,
				"element": "C" 
			},
			{
				"x": 0.5514280867,
				"y": -1.4775914131,
				"z": -1.6265241727,
				"element": "C" 
			},
			{
				"x": 0.9209627291,
				"y": -0.8579267786,
				"z": -0.4900966884,
				"element": "N" 
			},
			{
				"x": -0.0611685315,
				"y": -0.3552557581,
				"z": 0.2708739702,
				"element": "C" 
			},
			{
				"x": -1.3780644449,
				"y": -0.41352363,
				"z": 0.0028007259,
				"element": "N" 
			},
			{
				"x": -1.7263715311,
				"y": -1.0260484128,
				"z": -1.1186589912,
				"element": "C" 
			},
			{
				"x": -3.0574452584,
				"y": -1.0666615154,
				"z": -1.3575163503,
				"element": "O" 
			},
			{
				"x": -0.7861715425,
				"y": -1.591091048,
				"z": -1.9945437819,
				"element": "C" 
			},
			{
				"x": 0.3489358949,
				"y": 0.3265061469,
				"z": 1.5217073055,
				"element": "C" 
			},
			{
				"x": -0.5333835645,
				"y": 0.2310560671,
				"z": 2.7568222746,
				"element": "C" 
			},
			{
				"x": -0.4402389092,
				"y": 1.5276262315,
				"z": 2.0194925967,
				"element": "C" 
			},
			{
				"x": 2.3506271672,
				"y": -1.2401062034,
				"z": -2.7648985438,
				"element": "H" 
			},
			{
				"x": 1.2815844006,
				"y": -2.5248865529,
				"z": -3.3776333772,
				"element": "H" 
			},
			{
				"x": 2.2412567549,
				"y": -2.7659835679,
				"z": -1.8978803074,
				"element": "H" 
			},
			{
				"x": -3.2147658119,
				"y": -1.5294772397,
				"z": -2.1915392139,
				"element": "H" 
			},
			{
				"x": -1.0822030069,
				"y": -2.0913050862,
				"z": -2.9118521061,
				"element": "H" 
			},
			{
				"x": 1.4229267293,
				"y": 0.333818616,
				"z": 1.670056058,
				"element": "H" 
			},
			{
				"x": -0.0324666963,
				"y": 0.1325309519,
				"z": 3.7150524766,
				"element": "H" 
			},
			{
				"x": -1.4492269954,
				"y": -0.3402803541,
				"z": 2.6476480375,
				"element": "H" 
			},
			{
				"x": 0.1266622645,
				"y": 2.343323956,
				"z": 2.4577646725,
				"element": "H" 
			},
			{
				"x": -1.2938933668,
				"y": 1.8220203835,
				"z": 1.4180829397,
				"element": "H" 
			}
		],
		 "valence_orbital": [ 
			{
				"type": "occ",
				"energy": -0.30207,
				"method": "rhf"
			},
			{
				"type": "occ",
				"energy": -0.28637,
				"method": "rhf"
			},
			{
				"type": "occ",
				"energy": -0.27544,
				"method": "rhf"
			},
			{
				"type": "occ",
				"energy": -0.24576,
				"method": "rhf"
			},
			{
				"type": "occ",
				"energy": -0.24443,
				"method": "rhf"
			},
			{
				"type": "unocc",
				"energy": -0.02114,
				"method": "rhf"
			},
			{
				"type": "unocc",
				"energy": -0.00754,
				"method": "rhf"
			},
			{
				"type": "unocc",
				"energy": 0.06163,
				"method": "rhf"
			},
			{
				"type": "unocc",
				"energy": 0.10526,
				"method": "rhf"
			},
			{
				"type": "unocc",
				"energy": 0.10911,
				"method": "rhf"
			}
		],
		"cosmo_sigma_profile": { 
			"-0.025": 0.0,
			"-0.024": 0.0,
			"-0.023": 0.0,
			"-0.022": 0.0,
			"-0.021": 0.0,
			"-0.02": 0.0,
			"-0.019": 0.460385717437,
			"-0.018": 1.46278979718,
			"-0.017": 0.869026683919,
			"-0.016": 1.16795953926,
			"-0.015": 1.1746129165,
			"-0.014": 0.912048454095,
			"-0.013": 1.13553279368,
			"-0.012": 0.572653140149,
			"-0.011": 1.209082762,
			"-0.01": 0.977273113012,
			"-0.009": 1.14128113466,
			"-0.008": 1.70700485561,
			"-0.007": 2.11675327844,
			"-0.006": 3.48508674789,
			"-0.005": 11.0678139378,
			"-0.004": 15.2961493698,
			"-0.003": 14.4002943959,
			"-0.002": 13.7306299314,
			"-0.001": 20.24524137,
			"0.0": 19.7770889495,
			"0.001": 15.4845853016,
			"0.002": 14.0987026746,
			"0.003": 11.627905286,
			"0.004": 7.74589178964,
			"0.005": 5.4282687605,
			"0.006": 3.71013865646,
			"0.007": 4.20521060038,
			"0.008": 4.09659338334,
			"0.009": 2.67164903222,
			"0.01": 2.8866003385,
			"0.011": 3.48976177838,
			"0.012": 3.35391868244,
			"0.013": 1.60443182528,
			"0.014": 1.49709552739,
			"0.015": 0.803212525438,
			"0.016": 0.206674789618,
			"0.017": 0.0,
			"0.018": 0.0,
			"0.019": 0.0,
			"0.02": 0.0,
			"0.021": 0.0,
			"0.022": 0.0,
			"0.023": 0.0,
			"0.024": 0.0,
			"0.025": 0.0
		}
	}
}
