{
	 "smiles": "CC(NC1=CC=C(Br)C=N1)=C(C#N)C(=O)C1=CC=CC=C1", 
	 "Tm": 453.15, 
	 "num_atms": 33, 
	 "gaussian": { 
		 "optdone": 1, 
		 "sigma_profile": "yes", 
		 "theory": "DFT", 
		 "functional": "B3LYP", 
		 "basiset": "6-31G**", 
		 "properties": { 
			 "R2extent": 17530.6499, 
			 "electric_dipole_moment_norm": 2.55430050112, 
			 "electric_quadrupole_moment_norm": 17.9691492233, 
			 "total_energy": -3427.79751993, 
			 "HOMO_LUMO_gap": 0.15152, 
			 "cosmo_polarized_energy": -16.0, 
			 "cosmo_cavitation_energy": 41.16, 
			 "cosmo_dispersion_energy": -29.39, 
			 "cosmo_repulsion_energy": 2.23, 
			 "cosmo_total_nonelectrostatic_energy": 14.0, 
			 "SMD_solvation_energy": 6.52 
		},
		"coords": [
			{
				"x": 0.689989611,
				"y": 0.8729320539,
				"z": 2.5102272009,
				"element": "C" 
			},
			{
				"x": -0.0675229588,
				"y": -0.3027802642,
				"z": 1.9715160997,
				"element": "C" 
			},
			{
				"x": -1.3713686562,
				"y": -0.4909622745,
				"z": 2.3525231435,
				"element": "N" 
			},
			{
				"x": -2.1925874117,
				"y": 0.1609365491,
				"z": 3.2815242918,
				"element": "C" 
			},
			{
				"x": -3.5509497866,
				"y": -0.2155910661,
				"z": 3.315962854,
				"element": "C" 
			},
			{
				"x": -4.3846997157,
				"y": 0.3936101204,
				"z": 4.2402306009,
				"element": "C" 
			},
			{
				"x": -3.8436879939,
				"y": 1.3584036086,
				"z": 5.0934876972,
				"element": "C" 
			},
			{
				"x": -4.9289087366,
				"y": 2.2381369541,
				"z": 6.3839739995,
				"element": "Br" 
			},
			{
				"x": -2.4910526669,
				"y": 1.6687909536,
				"z": 4.9860208102,
				"element": "C" 
			},
			{
				"x": -1.6799417344,
				"y": 1.0789529501,
				"z": 4.1022297238,
				"element": "N" 
			},
			{
				"x": 0.4654881968,
				"y": -1.1987994074,
				"z": 1.0419955349,
				"element": "C" 
			},
			{
				"x": -0.4049160693,
				"y": -2.234459353,
				"z": 0.5911728743,
				"element": "C" 
			},
			{
				"x": -1.204094294,
				"y": -3.0390619255,
				"z": 0.3112413896,
				"element": "N" 
			},
			{
				"x": 1.883638101,
				"y": -1.1851185787,
				"z": 0.5853478094,
				"element": "C" 
			},
			{
				"x": 2.7721440583,
				"y": -0.6605778997,
				"z": 1.2544756515,
				"element": "O" 
			},
			{
				"x": 2.241536123,
				"y": -1.8505728288,
				"z": -0.7117435874,
				"element": "C" 
			},
			{
				"x": 3.5533201729,
				"y": -2.3339328422,
				"z": -0.8463655596,
				"element": "C" 
			},
			{
				"x": 3.9705117427,
				"y": -2.921296547,
				"z": -2.0366621313,
				"element": "C" 
			},
			{
				"x": 3.0886026427,
				"y": -3.0117004663,
				"z": -3.1178959951,
				"element": "C" 
			},
			{
				"x": 1.7906797192,
				"y": -2.512017955,
				"z": -3.001983392,
				"element": "C" 
			},
			{
				"x": 1.3653317946,
				"y": -1.9379497886,
				"z": -1.8038184647,
				"element": "C" 
			},
			{
				"x": 0.9199760337,
				"y": 0.7196018064,
				"z": 3.5685070071,
				"element": "H" 
			},
			{
				"x": 0.0703575928,
				"y": 1.769982391,
				"z": 2.4603491926,
				"element": "H" 
			},
			{
				"x": 1.6230650412,
				"y": 0.9995802371,
				"z": 1.9709928007,
				"element": "H" 
			},
			{
				"x": -1.8282211943,
				"y": -1.2738314276,
				"z": 1.8947190448,
				"element": "H" 
			},
			{
				"x": -3.9394693552,
				"y": -0.9649523257,
				"z": 2.6326991996,
				"element": "H" 
			},
			{
				"x": -5.4347429207,
				"y": 0.1299884357,
				"z": 4.2981335251,
				"element": "H" 
			},
			{
				"x": -2.042327335,
				"y": 2.4141773224,
				"z": 5.6371351115,
				"element": "H" 
			},
			{
				"x": 4.228352896,
				"y": -2.2360401527,
				"z": -0.0029289527,
				"element": "H" 
			},
			{
				"x": 4.9826014941,
				"y": -3.3051948914,
				"z": -2.1258977196,
				"element": "H" 
			},
			{
				"x": 3.4143565429,
				"y": -3.4666235247,
				"z": -4.0490720217,
				"element": "H" 
			},
			{
				"x": 1.1074850543,
				"y": -2.5674933543,
				"z": -3.8442229051,
				"element": "H" 
			},
			{
				"x": 0.3577540123,
				"y": -1.543736509,
				"z": -1.7319748335,
				"element": "H" 
			}
		],
		 "valence_orbital": [ 
			{
				"type": "occ",
				"energy": -0.2733,
				"method": "rhf"
			},
			{
				"type": "occ",
				"energy": -0.25962,
				"method": "rhf"
			},
			{
				"type": "occ",
				"energy": -0.25567,
				"method": "rhf"
			},
			{
				"type": "occ",
				"energy": -0.24679,
				"method": "rhf"
			},
			{
				"type": "occ",
				"energy": -0.22724,
				"method": "rhf"
			},
			{
				"type": "unocc",
				"energy": -0.07572,
				"method": "rhf"
			},
			{
				"type": "unocc",
				"energy": -0.05165,
				"method": "rhf"
			},
			{
				"type": "unocc",
				"energy": -0.03601,
				"method": "rhf"
			},
			{
				"type": "unocc",
				"energy": -0.00959,
				"method": "rhf"
			},
			{
				"type": "unocc",
				"energy": -0.00893,
				"method": "rhf"
			}
		],
		"cosmo_sigma_profile": { 
			"-0.025": 0.0,
			"-0.024": 0.0,
			"-0.023": 0.0,
			"-0.022": 0.0,
			"-0.021": 0.0,
			"-0.02": 0.0,
			"-0.019": 0.0,
			"-0.018": 0.0,
			"-0.017": 0.0,
			"-0.016": 0.0,
			"-0.015": 0.0615388831762,
			"-0.014": 0.804422590202,
			"-0.013": 1.07892548669,
			"-0.012": 0.999667687129,
			"-0.011": 1.09166098675,
			"-0.01": 1.17836965878,
			"-0.009": 3.45230045665,
			"-0.008": 5.9355123921,
			"-0.007": 7.82204270942,
			"-0.006": 14.033066,
			"-0.005": 21.8167961391,
			"-0.004": 22.4129325241,
			"-0.003": 23.5835499406,
			"-0.002": 29.8338223149,
			"-0.001": 31.6552142314,
			"0.0": 28.8548747124,
			"0.001": 23.4976109997,
			"0.002": 20.3113372486,
			"0.003": 22.9909494056,
			"0.004": 28.4264999731,
			"0.005": 8.26282408218,
			"0.006": 5.82926470332,
			"0.007": 5.24538653105,
			"0.008": 4.09885969759,
			"0.009": 3.84006951773,
			"0.01": 4.6981699072,
			"0.011": 5.16791693265,
			"0.012": 5.68261410771,
			"0.013": 2.62518830866,
			"0.014": 0.295000681489,
			"0.015": 0.0,
			"0.016": 0.0,
			"0.017": 0.0,
			"0.018": 0.0,
			"0.019": 0.0,
			"0.02": 0.0,
			"0.021": 0.0,
			"0.022": 0.0,
			"0.023": 0.0,
			"0.024": 0.0,
			"0.025": 0.0
		}
	}
}
