{
	 "smiles": "COC1=CC=CC(OC)=C1CC(O)=O", 
	 "Tm": 423.15, 
	 "num_atms": 26, 
	 "gaussian": { 
		 "optdone": 1, 
		 "sigma_profile": "yes", 
		 "theory": "DFT", 
		 "functional": "B3LYP", 
		 "basiset": "6-31G**", 
		 "properties": { 
			 "R2extent": 3648.5774, 
			 "electric_dipole_moment_norm": 1.50518399208, 
			 "electric_quadrupole_moment_norm": 15.5863794208, 
			 "total_energy": -689.18464695, 
			 "HOMO_LUMO_gap": 0.21782, 
			 "cosmo_polarized_energy": -13.98, 
			 "cosmo_cavitation_energy": 30.09, 
			 "cosmo_dispersion_energy": -21.26, 
			 "cosmo_repulsion_energy": 1.71, 
			 "cosmo_total_nonelectrostatic_energy": 10.54, 
			 "SMD_solvation_energy": 7.83 
		},
		"coords": [
			{
				"x": 1.1728779167,
				"y": 0.7040708902,
				"z": 4.5505651475,
				"element": "C" 
			},
			{
				"x": 1.2708511797,
				"y": 1.0113505536,
				"z": 3.1698447092,
				"element": "O" 
			},
			{
				"x": 0.5034012094,
				"y": 0.3022173285,
				"z": 2.2871281082,
				"element": "C" 
			},
			{
				"x": -0.3681360344,
				"y": -0.7275673389,
				"z": 2.6656472912,
				"element": "C" 
			},
			{
				"x": -1.1073055915,
				"y": -1.3799643266,
				"z": 1.6811951004,
				"element": "C" 
			},
			{
				"x": -0.9955071565,
				"y": -1.0316058577,
				"z": 0.3368472976,
				"element": "C" 
			},
			{
				"x": -0.1193494847,
				"y": 0.0003852833,
				"z": -0.0246797991,
				"element": "C" 
			},
			{
				"x": 0.0635461396,
				"y": 0.4261395357,
				"z": -1.3116786147,
				"element": "O" 
			},
			{
				"x": -0.6837012477,
				"y": -0.1967620043,
				"z": -2.3431779854,
				"element": "C" 
			},
			{
				"x": 0.6484719122,
				"y": 0.6719144759,
				"z": 0.9402915178,
				"element": "C" 
			},
			{
				"x": 1.5935611098,
				"y": 1.7718077535,
				"z": 0.5423126977,
				"element": "C" 
			},
			{
				"x": 0.9563409274,
				"y": 3.1517906692,
				"z": 0.536469708,
				"element": "C" 
			},
			{
				"x": 1.8647801492,
				"y": 4.0940474392,
				"z": 0.1688142178,
				"element": "O" 
			},
			{
				"x": -0.1881092417,
				"y": 3.4293180548,
				"z": 0.8105639129,
				"element": "O" 
			},
			{
				"x": 0.1552990873,
				"y": 0.8636339033,
				"z": 4.928591252,
				"element": "H" 
			},
			{
				"x": 1.8552986457,
				"y": 1.3865962953,
				"z": 5.0598309894,
				"element": "H" 
			},
			{
				"x": 1.4756189805,
				"y": -0.3301913718,
				"z": 4.7592453775,
				"element": "H" 
			},
			{
				"x": -0.4791054862,
				"y": -1.0144967744,
				"z": 3.7035834715,
				"element": "H" 
			},
			{
				"x": -1.7873604155,
				"y": -2.176825347,
				"z": 1.9684295943,
				"element": "H" 
			},
			{
				"x": -1.5864744643,
				"y": -1.5510963082,
				"z": -0.4066955485,
				"element": "H" 
			},
			{
				"x": -1.7630406251,
				"y": -0.0671764763,
				"z": -2.1946474193,
				"element": "H" 
			},
			{
				"x": -0.3877349653,
				"y": 0.2978427921,
				"z": -3.2698180732,
				"element": "H" 
			},
			{
				"x": -0.4574989107,
				"y": -1.2682220979,
				"z": -2.4186469743,
				"element": "H" 
			},
			{
				"x": 1.9913947863,
				"y": 1.5964201854,
				"z": -0.4614291747,
				"element": "H" 
			},
			{
				"x": 2.4475623536,
				"y": 1.8143998811,
				"z": 1.2245487087,
				"element": "H" 
			},
			{
				"x": 1.3882192261,
				"y": 4.9405728621,
				"z": 0.1885644875,
				"element": "H" 
			}
		],
		 "valence_orbital": [ 
			{
				"type": "occ",
				"energy": -0.30517,
				"method": "rhf"
			},
			{
				"type": "occ",
				"energy": -0.29897,
				"method": "rhf"
			},
			{
				"type": "occ",
				"energy": -0.26204,
				"method": "rhf"
			},
			{
				"type": "occ",
				"energy": -0.21753,
				"method": "rhf"
			},
			{
				"type": "occ",
				"energy": -0.21291,
				"method": "rhf"
			},
			{
				"type": "unocc",
				"energy": 0.00491,
				"method": "rhf"
			},
			{
				"type": "unocc",
				"energy": 0.02347,
				"method": "rhf"
			},
			{
				"type": "unocc",
				"energy": 0.02908,
				"method": "rhf"
			},
			{
				"type": "unocc",
				"energy": 0.08551,
				"method": "rhf"
			},
			{
				"type": "unocc",
				"energy": 0.09526,
				"method": "rhf"
			}
		],
		"cosmo_sigma_profile": { 
			"-0.025": 0.0,
			"-0.024": 0.0,
			"-0.023": 0.0,
			"-0.022": 0.0,
			"-0.021": 0.0,
			"-0.02": 0.0,
			"-0.019": 0.0,
			"-0.018": 0.503930713721,
			"-0.017": 0.858674273567,
			"-0.016": 1.06406640599,
			"-0.015": 0.881981792001,
			"-0.014": 0.385698864717,
			"-0.013": 0.55516946942,
			"-0.012": 0.552436453685,
			"-0.011": 1.15461747274,
			"-0.01": 0.936998895013,
			"-0.009": 0.19459050781,
			"-0.008": 0.408492123355,
			"-0.007": 1.39609011528,
			"-0.006": 11.6127060533,
			"-0.005": 25.9735568068,
			"-0.004": 24.3954714755,
			"-0.003": 26.0702745446,
			"-0.002": 17.4326028698,
			"-0.001": 12.1269480496,
			"0.0": 10.1202979802,
			"0.001": 10.3282034577,
			"0.002": 11.1292334674,
			"0.003": 11.5952917997,
			"0.004": 12.3406766206,
			"0.005": 13.7299422126,
			"0.006": 15.4195982619,
			"0.007": 6.46916883956,
			"0.008": 3.44833517603,
			"0.009": 3.87169306802,
			"0.01": 3.54880957438,
			"0.011": 3.98322237808,
			"0.012": 4.64800884405,
			"0.013": 0.866981306691,
			"0.014": 0.0,
			"0.015": 0.0,
			"0.016": 0.0,
			"0.017": 0.0,
			"0.018": 0.0,
			"0.019": 0.0,
			"0.02": 0.0,
			"0.021": 0.0,
			"0.022": 0.0,
			"0.023": 0.0,
			"0.024": 0.0,
			"0.025": 0.0
		}
	}
}
