{
	 "smiles": "OC(=O)C1=C(OCC2=CC=C(Br)C=C2)C=CC=C1", 
	 "Tm": 393.15, 
	 "num_atms": 29, 
	 "gaussian": { 
		 "optdone": 1, 
		 "sigma_profile": "yes", 
		 "theory": "DFT", 
		 "functional": "B3LYP", 
		 "basiset": "6-31G**", 
		 "properties": { 
			 "R2extent": 8255.8018, 
			 "electric_dipole_moment_norm": 3.63328214291, 
			 "electric_quadrupole_moment_norm": 26.961084353, 
			 "total_energy": -3337.18554367, 
			 "HOMO_LUMO_gap": 0.19234, 
			 "cosmo_polarized_energy": -17.46, 
			 "cosmo_cavitation_energy": 36.34, 
			 "cosmo_dispersion_energy": -25.5, 
			 "cosmo_repulsion_energy": 1.99, 
			 "cosmo_total_nonelectrostatic_energy": 12.83, 
			 "SMD_solvation_energy": 5.92 
		},
		"coords": [
			{
				"x": 1.3256955203,
				"y": 3.9467584436,
				"z": 0.0868603711,
				"element": "O" 
			},
			{
				"x": 0.2378291309,
				"y": 3.4685596047,
				"z": -0.5847107868,
				"element": "C" 
			},
			{
				"x": -0.8128181267,
				"y": 4.0594704126,
				"z": -0.5115582417,
				"element": "O" 
			},
			{
				"x": 0.4729733877,
				"y": 2.2264048454,
				"z": -1.391678127,
				"element": "C" 
			},
			{
				"x": -0.5501773635,
				"y": 1.2818357843,
				"z": -1.6402251407,
				"element": "C" 
			},
			{
				"x": -1.8243669804,
				"y": 1.3902854354,
				"z": -1.1562775025,
				"element": "O" 
			},
			{
				"x": -2.0429942766,
				"y": 1.3497297906,
				"z": 0.2663314429,
				"element": "C" 
			},
			{
				"x": -1.9325592418,
				"y": -0.0524565095,
				"z": 0.822311437,
				"element": "C" 
			},
			{
				"x": -2.6854659225,
				"y": -1.0970911816,
				"z": 0.2681077387,
				"element": "C" 
			},
			{
				"x": -2.6039116077,
				"y": -2.3902095237,
				"z": 0.7791047234,
				"element": "C" 
			},
			{
				"x": -1.7607323747,
				"y": -2.639718623,
				"z": 1.8631773238,
				"element": "C" 
			},
			{
				"x": -1.6443242921,
				"y": -4.4111153076,
				"z": 2.5727854189,
				"element": "Br" 
			},
			{
				"x": -1.0031809809,
				"y": -1.6212201906,
				"z": 2.4346672766,
				"element": "C" 
			},
			{
				"x": -1.0926433586,
				"y": -0.3321843223,
				"z": 1.9041236601,
				"element": "C" 
			},
			{
				"x": -0.2918380503,
				"y": 0.1916284054,
				"z": -2.4792470643,
				"element": "C" 
			},
			{
				"x": 0.9509963782,
				"y": 0.0296538115,
				"z": -3.0850285759,
				"element": "C" 
			},
			{
				"x": 1.9681550033,
				"y": 0.9568722687,
				"z": -2.8520738039,
				"element": "C" 
			},
			{
				"x": 1.7216961558,
				"y": 2.0385746031,
				"z": -2.0126913654,
				"element": "C" 
			},
			{
				"x": 2.0417079486,
				"y": 3.2967771849,
				"z": 0.0568911651,
				"element": "H" 
			},
			{
				"x": -1.3700072584,
				"y": 2.0317394135,
				"z": 0.790692636,
				"element": "H" 
			},
			{
				"x": -3.0571802119,
				"y": 1.7408184091,
				"z": 0.3861954026,
				"element": "H" 
			},
			{
				"x": -3.3385197423,
				"y": -0.894607003,
				"z": -0.5760812052,
				"element": "H" 
			},
			{
				"x": -3.1886450043,
				"y": -3.194793736,
				"z": 0.3477278444,
				"element": "H" 
			},
			{
				"x": -0.3509745022,
				"y": -1.8303092883,
				"z": 3.2749255372,
				"element": "H" 
			},
			{
				"x": -0.499556571,
				"y": 0.4644679203,
				"z": 2.3462316299,
				"element": "H" 
			},
			{
				"x": -1.0938824327,
				"y": -0.5194886112,
				"z": -2.6431176789,
				"element": "H" 
			},
			{
				"x": 1.1248802328,
				"y": -0.8219446511,
				"z": -3.7361367969,
				"element": "H" 
			},
			{
				"x": 2.9368743126,
				"y": 0.8473126771,
				"z": -3.3287452575,
				"element": "H" 
			},
			{
				"x": 2.4985702285,
				"y": 2.7870499379,
				"z": -1.8784620607,
				"element": "H" 
			}
		],
		 "valence_orbital": [ 
			{
				"type": "occ",
				"energy": -0.278,
				"method": "rhf"
			},
			{
				"type": "occ",
				"energy": -0.269,
				"method": "rhf"
			},
			{
				"type": "occ",
				"energy": -0.26773,
				"method": "rhf"
			},
			{
				"type": "occ",
				"energy": -0.25038,
				"method": "rhf"
			},
			{
				"type": "occ",
				"energy": -0.24377,
				"method": "rhf"
			},
			{
				"type": "unocc",
				"energy": -0.05143,
				"method": "rhf"
			},
			{
				"type": "unocc",
				"energy": -0.02606,
				"method": "rhf"
			},
			{
				"type": "unocc",
				"energy": -0.02263,
				"method": "rhf"
			},
			{
				"type": "unocc",
				"energy": -0.0159,
				"method": "rhf"
			},
			{
				"type": "unocc",
				"energy": 0.00338,
				"method": "rhf"
			}
		],
		"cosmo_sigma_profile": { 
			"-0.025": 0.0,
			"-0.024": 0.0,
			"-0.023": 0.0,
			"-0.022": 0.0,
			"-0.021": 0.0,
			"-0.02": 0.0,
			"-0.019": 0.052535555774,
			"-0.018": 0.718369782702,
			"-0.017": 0.763591029308,
			"-0.016": 1.27874354887,
			"-0.015": 0.618434694349,
			"-0.014": 0.753336542747,
			"-0.013": 1.20834451429,
			"-0.012": 1.18456666092,
			"-0.011": 0.914913134281,
			"-0.01": 1.03529799373,
			"-0.009": 1.13553477095,
			"-0.008": 3.65224820875,
			"-0.007": 12.4179136004,
			"-0.006": 19.4976474112,
			"-0.005": 21.1851377793,
			"-0.004": 18.9178236735,
			"-0.003": 16.0366194635,
			"-0.002": 16.1740729654,
			"-0.001": 14.2607063267,
			"0.0": 16.3196120034,
			"0.001": 22.1231983783,
			"0.002": 26.3143937567,
			"0.003": 32.147066227,
			"0.004": 23.7315176505,
			"0.005": 8.81774434903,
			"0.006": 2.9294263183,
			"0.007": 3.20284026124,
			"0.008": 3.47542098879,
			"0.009": 4.29162838911,
			"0.01": 5.72817183313,
			"0.011": 6.21087272901,
			"0.012": 4.95677955642,
			"0.013": 2.43135641976,
			"0.014": 0.0512101506208,
			"0.015": 0.0,
			"0.016": 0.0,
			"0.017": 0.0,
			"0.018": 0.0,
			"0.019": 0.0,
			"0.02": 0.0,
			"0.021": 0.0,
			"0.022": 0.0,
			"0.023": 0.0,
			"0.024": 0.0,
			"0.025": 0.0
		}
	}
}
