{
	 "smiles": "CCOC1=NC(C(O)=O)=C(Cl)C=C1", 
	 "Tm": 401.15, 
	 "num_atms": 21, 
	 "gaussian": { 
		 "optdone": 1, 
		 "sigma_profile": "yes", 
		 "theory": "DFT", 
		 "functional": "B3LYP", 
		 "basiset": "6-31G**", 
		 "properties": { 
			 "R2extent": 3180.4148, 
			 "electric_dipole_moment_norm": 1.62871616312, 
			 "electric_quadrupole_moment_norm": 6.95600470745, 
			 "total_energy": -1050.29239271, 
			 "HOMO_LUMO_gap": 0.18133, 
			 "cosmo_polarized_energy": -11.88, 
			 "cosmo_cavitation_energy": 27.75, 
			 "cosmo_dispersion_energy": -20.09, 
			 "cosmo_repulsion_energy": 1.63, 
			 "cosmo_total_nonelectrostatic_energy": 9.29, 
			 "SMD_solvation_energy": 5.88 
		},
		"coords": [
			{
				"x": 0.7882170098,
				"y": 1.3108343532,
				"z": -3.4743552041,
				"element": "C" 
			},
			{
				"x": 1.7462737451,
				"y": 0.6133149034,
				"z": -2.5197254056,
				"element": "C" 
			},
			{
				"x": 1.183746568,
				"y": -0.6009541061,
				"z": -1.9699382909,
				"element": "O" 
			},
			{
				"x": 0.3215183885,
				"y": -0.4981356824,
				"z": -0.9418186133,
				"element": "C" 
			},
			{
				"x": 0.0090568623,
				"y": 0.690525523,
				"z": -0.4495669738,
				"element": "N" 
			},
			{
				"x": -0.8419881035,
				"y": 0.7760578235,
				"z": 0.5881317032,
				"element": "C" 
			},
			{
				"x": -1.1226576626,
				"y": 2.1989171471,
				"z": 1.0041318069,
				"element": "C" 
			},
			{
				"x": -1.1336916613,
				"y": 2.3646745484,
				"z": 2.3424752691,
				"element": "O" 
			},
			{
				"x": -1.2863271502,
				"y": 3.1040851578,
				"z": 0.2191128963,
				"element": "O" 
			},
			{
				"x": -1.4253097514,
				"y": -0.3593117665,
				"z": 1.1546913065,
				"element": "C" 
			},
			{
				"x": -2.5984367822,
				"y": -0.2985988504,
				"z": 2.4538362066,
				"element": "Cl" 
			},
			{
				"x": -1.0978454839,
				"y": -1.6167957595,
				"z": 0.6206518123,
				"element": "C" 
			},
			{
				"x": -0.2116742201,
				"y": -1.7011068192,
				"z": -0.4340300793,
				"element": "C" 
			},
			{
				"x": -0.080721915,
				"y": 1.6978509041,
				"z": -2.9378424798,
				"element": "H" 
			},
			{
				"x": 1.2982886292,
				"y": 2.1537190921,
				"z": -3.9529274521,
				"element": "H" 
			},
			{
				"x": 0.4528946029,
				"y": 0.6241706026,
				"z": -4.2574879856,
				"element": "H" 
			},
			{
				"x": 2.0369932461,
				"y": 1.2771077042,
				"z": -1.7013326513,
				"element": "H" 
			},
			{
				"x": 2.6437257226,
				"y": 0.2687496101,
				"z": -3.0394927628,
				"element": "H" 
			},
			{
				"x": -1.3320885533,
				"y": 3.3042962245,
				"z": 2.4960021244,
				"element": "H" 
			},
			{
				"x": -1.5485749667,
				"y": -2.5089730896,
				"z": 1.0415408634,
				"element": "H" 
			},
			{
				"x": 0.0716014756,
				"y": -2.6498275202,
				"z": -0.87495609,
				"element": "H" 
			}
		],
		 "valence_orbital": [ 
			{
				"type": "occ",
				"energy": -0.3139,
				"method": "rhf"
			},
			{
				"type": "occ",
				"energy": -0.30122,
				"method": "rhf"
			},
			{
				"type": "occ",
				"energy": -0.28596,
				"method": "rhf"
			},
			{
				"type": "occ",
				"energy": -0.27606,
				"method": "rhf"
			},
			{
				"type": "occ",
				"energy": -0.23869,
				"method": "rhf"
			},
			{
				"type": "unocc",
				"energy": -0.05736,
				"method": "rhf"
			},
			{
				"type": "unocc",
				"energy": -0.02289,
				"method": "rhf"
			},
			{
				"type": "unocc",
				"energy": 0.02326,
				"method": "rhf"
			},
			{
				"type": "unocc",
				"energy": 0.03096,
				"method": "rhf"
			},
			{
				"type": "unocc",
				"energy": 0.07903,
				"method": "rhf"
			}
		],
		"cosmo_sigma_profile": { 
			"-0.025": 0.0,
			"-0.024": 0.0,
			"-0.023": 0.0,
			"-0.022": 0.0,
			"-0.021": 0.0,
			"-0.02": 0.0,
			"-0.019": 0.36038836921,
			"-0.018": 0.903109746799,
			"-0.017": 1.0685967117,
			"-0.016": 0.690992179896,
			"-0.015": 1.30400775656,
			"-0.014": 0.537374067089,
			"-0.013": 0.19655782268,
			"-0.012": 0.724958176579,
			"-0.011": 1.11241965128,
			"-0.01": 0.509250877874,
			"-0.009": 1.60504469835,
			"-0.008": 5.01448813283,
			"-0.007": 5.11329312243,
			"-0.006": 5.49396523408,
			"-0.005": 7.26670633841,
			"-0.004": 12.590108337,
			"-0.003": 18.4630181255,
			"-0.002": 18.9415207638,
			"-0.001": 24.5367332285,
			"0.0": 27.119385196,
			"0.001": 18.0682126882,
			"0.002": 10.3450161074,
			"0.003": 11.6385621464,
			"0.004": 11.401352432,
			"0.005": 5.46300630814,
			"0.006": 5.14923358669,
			"0.007": 4.43026049601,
			"0.008": 6.19320540915,
			"0.009": 4.09887915298,
			"0.01": 3.77861421109,
			"0.011": 6.62884176769,
			"0.012": 2.53697830842,
			"0.013": 0.0921561873973,
			"0.014": 0.0,
			"0.015": 0.0,
			"0.016": 0.0,
			"0.017": 0.0,
			"0.018": 0.0,
			"0.019": 0.0,
			"0.02": 0.0,
			"0.021": 0.0,
			"0.022": 0.0,
			"0.023": 0.0,
			"0.024": 0.0,
			"0.025": 0.0
		}
	}
}
