{
	 "smiles": "NC1=CC(SC2=CC=C(Cl)C=C2)=CC=C1", 
	 "Tm": 332.15, 
	 "num_atms": 25, 
	 "gaussian": { 
		 "optdone": 1, 
		 "sigma_profile": "yes", 
		 "theory": "DFT", 
		 "functional": "B3LYP", 
		 "basiset": "6-31G**", 
		 "properties": { 
			 "R2extent": 6417.9461, 
			 "electric_dipole_moment_norm": 3.21461713117, 
			 "electric_quadrupole_moment_norm": 16.08749091, 
			 "total_energy": -1376.43675368, 
			 "HOMO_LUMO_gap": 0.18811, 
			 "cosmo_polarized_energy": -10.67, 
			 "cosmo_cavitation_energy": 32.86, 
			 "cosmo_dispersion_energy": -24.04, 
			 "cosmo_repulsion_energy": 1.86, 
			 "cosmo_total_nonelectrostatic_energy": 10.68, 
			 "SMD_solvation_energy": 4.71 
		},
		"coords": [
			{
				"x": -1.2122420936,
				"y": -3.8790654112,
				"z": 0.8341278762,
				"element": "N" 
			},
			{
				"x": -1.1852554117,
				"y": -2.4957979442,
				"z": 1.0009452332,
				"element": "C" 
			},
			{
				"x": -1.4467315328,
				"y": -1.6406429146,
				"z": -0.0815101062,
				"element": "C" 
			},
			{
				"x": -1.4632649204,
				"y": -0.2540771379,
				"z": 0.0993813716,
				"element": "C" 
			},
			{
				"x": -1.8610077648,
				"y": 0.8372274032,
				"z": -1.2707207295,
				"element": "S" 
			},
			{
				"x": -0.5279202094,
				"y": 0.5486819367,
				"z": -2.4322104427,
				"element": "C" 
			},
			{
				"x": 0.7754503138,
				"y": 0.2219188124,
				"z": -2.0348504809,
				"element": "C" 
			},
			{
				"x": 1.7834199609,
				"y": 0.0614667626,
				"z": -2.9840386618,
				"element": "C" 
			},
			{
				"x": 1.4915490091,
				"y": 0.2489331144,
				"z": -4.335048786,
				"element": "C" 
			},
			{
				"x": 2.7645684351,
				"y": 0.0518280732,
				"z": -5.5329104248,
				"element": "Cl" 
			},
			{
				"x": 0.2039058556,
				"y": 0.5862855563,
				"z": -4.7482123202,
				"element": "C" 
			},
			{
				"x": -0.8040892387,
				"y": 0.7259535347,
				"z": -3.7948474223,
				"element": "C" 
			},
			{
				"x": -1.2386881606,
				"y": 0.3042495845,
				"z": 1.3625208447,
				"element": "C" 
			},
			{
				"x": -0.9998157604,
				"y": -0.5499451945,
				"z": 2.4426617251,
				"element": "C" 
			},
			{
				"x": -0.9661919058,
				"y": -1.929672598,
				"z": 2.2714893539,
				"element": "C" 
			},
			{
				"x": -0.7043533194,
				"y": -4.4116046457,
				"z": 1.5262562208,
				"element": "H" 
			},
			{
				"x": -1.0400799942,
				"y": -4.2091716998,
				"z": -0.1050947343,
				"element": "H" 
			},
			{
				"x": -1.6416289767,
				"y": -2.0587623677,
				"z": -1.0648180663,
				"element": "H" 
			},
			{
				"x": 1.0046850632,
				"y": 0.0888546057,
				"z": -0.9830555208,
				"element": "H" 
			},
			{
				"x": 2.7913133739,
				"y": -0.1955593992,
				"z": -2.6765326714,
				"element": "H" 
			},
			{
				"x": -0.01230995,
				"y": 0.7233533482,
				"z": -5.8020372278,
				"element": "H" 
			},
			{
				"x": -1.8131518323,
				"y": 0.9672564837,
				"z": -4.1153696797,
				"element": "H" 
			},
			{
				"x": -1.2474578975,
				"y": 1.3806442838,
				"z": 1.4921995007,
				"element": "H" 
			},
			{
				"x": -0.8247296667,
				"y": -0.131504871,
				"z": 3.4298222184,
				"element": "H" 
			},
			{
				"x": -0.7763733764,
				"y": -2.5808493155,
				"z": 3.1210529301,
				"element": "H" 
			}
		],
		 "valence_orbital": [ 
			{
				"type": "occ",
				"energy": -0.27713,
				"method": "rhf"
			},
			{
				"type": "occ",
				"energy": -0.26488,
				"method": "rhf"
			},
			{
				"type": "occ",
				"energy": -0.25634,
				"method": "rhf"
			},
			{
				"type": "occ",
				"energy": -0.21338,
				"method": "rhf"
			},
			{
				"type": "occ",
				"energy": -0.21003,
				"method": "rhf"
			},
			{
				"type": "unocc",
				"energy": -0.02192,
				"method": "rhf"
			},
			{
				"type": "unocc",
				"energy": -0.0161,
				"method": "rhf"
			},
			{
				"type": "unocc",
				"energy": -0.01498,
				"method": "rhf"
			},
			{
				"type": "unocc",
				"energy": 0.00838,
				"method": "rhf"
			},
			{
				"type": "unocc",
				"energy": 0.03093,
				"method": "rhf"
			}
		],
		"cosmo_sigma_profile": { 
			"-0.025": 0.0,
			"-0.024": 0.0,
			"-0.023": 0.0,
			"-0.022": 0.0,
			"-0.021": 0.0,
			"-0.02": 0.0,
			"-0.019": 0.0,
			"-0.018": 0.0,
			"-0.017": 0.0,
			"-0.016": 0.0,
			"-0.015": 0.0,
			"-0.014": 0.0,
			"-0.013": 0.663602554262,
			"-0.012": 2.84767353515,
			"-0.011": 2.90381593028,
			"-0.01": 3.3181102866,
			"-0.009": 3.35628468282,
			"-0.008": 3.49212667895,
			"-0.007": 8.23184584056,
			"-0.006": 12.5812884594,
			"-0.005": 14.893097237,
			"-0.004": 13.4174038594,
			"-0.003": 14.4200957675,
			"-0.002": 12.0664137248,
			"-0.001": 15.8978115785,
			"0.0": 19.0221901253,
			"0.001": 19.8286781018,
			"0.002": 25.3134696548,
			"0.003": 29.1242778554,
			"0.004": 26.9951109955,
			"0.005": 21.3458706156,
			"0.006": 7.87332590271,
			"0.007": 3.18172176514,
			"0.008": 2.53813194742,
			"0.009": 0.625511501483,
			"0.01": 0.592189060029,
			"0.011": 0.814273745302,
			"0.012": 0.699720731458,
			"0.013": 0.598181848353,
			"0.014": 0.464056101732,
			"0.015": 0.0200577288138,
			"0.016": 0.0,
			"0.017": 0.0,
			"0.018": 0.0,
			"0.019": 0.0,
			"0.02": 0.0,
			"0.021": 0.0,
			"0.022": 0.0,
			"0.023": 0.0,
			"0.024": 0.0,
			"0.025": 0.0
		}
	}
}
