{
	 "smiles": "NC(=S)NC1=C(C=CC=C1)C(F)(F)F", 
	 "Tm": 431.15, 
	 "num_atms": 21, 
	 "gaussian": { 
		 "optdone": 1, 
		 "sigma_profile": "yes", 
		 "theory": "DFT", 
		 "functional": "B3LYP", 
		 "basiset": "6-31G**", 
		 "properties": { 
			 "R2extent": 4192.902, 
			 "electric_dipole_moment_norm": 3.5629594188, 
			 "electric_quadrupole_moment_norm": 27.8887989795, 
			 "total_energy": -1116.30127304, 
			 "HOMO_LUMO_gap": 0.16962, 
			 "cosmo_polarized_energy": -16.59, 
			 "cosmo_cavitation_energy": 27.99, 
			 "cosmo_dispersion_energy": -20.3, 
			 "cosmo_repulsion_energy": 1.51, 
			 "cosmo_total_nonelectrostatic_energy": 9.2, 
			 "SMD_solvation_energy": 5.08 
		},
		"coords": [
			{
				"x": 2.5312662442,
				"y": -2.0163184346,
				"z": 2.0844625037,
				"element": "N" 
			},
			{
				"x": 1.1733971547,
				"y": -2.1178632366,
				"z": 1.9597682911,
				"element": "C" 
			},
			{
				"x": 0.2777304869,
				"y": -3.0421142954,
				"z": 3.0302500545,
				"element": "S" 
			},
			{
				"x": 0.7027484185,
				"y": -1.4333277397,
				"z": 0.8628468122,
				"element": "N" 
			},
			{
				"x": -0.6237402492,
				"y": -1.2695810084,
				"z": 0.4090245327,
				"element": "C" 
			},
			{
				"x": -0.8761583821,
				"y": -1.2318512651,
				"z": -0.980851199,
				"element": "C" 
			},
			{
				"x": -2.1715125916,
				"y": -1.0018272571,
				"z": -1.4512764377,
				"element": "C" 
			},
			{
				"x": -3.2259367273,
				"y": -0.8165933742,
				"z": -0.5615933253,
				"element": "C" 
			},
			{
				"x": -2.9759391609,
				"y": -0.8538424276,
				"z": 0.8103200541,
				"element": "C" 
			},
			{
				"x": -1.6882768238,
				"y": -1.0678620755,
				"z": 1.2958753668,
				"element": "C" 
			},
			{
				"x": 0.2274621713,
				"y": -1.4841782008,
				"z": -1.9707553557,
				"element": "C" 
			},
			{
				"x": -0.1675635556,
				"y": -1.318256368,
				"z": -3.2442651976,
				"element": "F" 
			},
			{
				"x": 1.2848114078,
				"y": -0.6271126424,
				"z": -1.7774072986,
				"element": "F" 
			},
			{
				"x": 0.7413713622,
				"y": -2.7276416831,
				"z": -1.8620835933,
				"element": "F" 
			},
			{
				"x": 2.9262127982,
				"y": -2.4266313322,
				"z": 2.9162314247,
				"element": "H" 
			},
			{
				"x": 3.0356700453,
				"y": -1.2462057264,
				"z": 1.6666350189,
				"element": "H" 
			},
			{
				"x": 1.4068288454,
				"y": -1.1481591941,
				"z": 0.1947178448,
				"element": "H" 
			},
			{
				"x": -2.344386436,
				"y": -0.9764730044,
				"z": -2.520627094,
				"element": "H" 
			},
			{
				"x": -4.2294466273,
				"y": -0.6437795276,
				"z": -0.9364683625,
				"element": "H" 
			},
			{
				"x": -3.7869178198,
				"y": -0.7026278794,
				"z": 1.5164139518,
				"element": "H" 
			},
			{
				"x": -1.4976205609,
				"y": -1.0871533275,
				"z": 2.3597820083,
				"element": "H" 
			}
		],
		 "valence_orbital": [ 
			{
				"type": "occ",
				"energy": -0.31419,
				"method": "rhf"
			},
			{
				"type": "occ",
				"energy": -0.27267,
				"method": "rhf"
			},
			{
				"type": "occ",
				"energy": -0.24857,
				"method": "rhf"
			},
			{
				"type": "occ",
				"energy": -0.2209,
				"method": "rhf"
			},
			{
				"type": "occ",
				"energy": -0.20988,
				"method": "rhf"
			},
			{
				"type": "unocc",
				"energy": -0.04026,
				"method": "rhf"
			},
			{
				"type": "unocc",
				"energy": -0.024,
				"method": "rhf"
			},
			{
				"type": "unocc",
				"energy": 0.00859,
				"method": "rhf"
			},
			{
				"type": "unocc",
				"energy": 0.05847,
				"method": "rhf"
			},
			{
				"type": "unocc",
				"energy": 0.08736,
				"method": "rhf"
			}
		],
		"cosmo_sigma_profile": { 
			"-0.025": 0.0,
			"-0.024": 0.0,
			"-0.023": 0.0,
			"-0.022": 0.0,
			"-0.021": 0.0,
			"-0.02": 0.0,
			"-0.019": 0.0,
			"-0.018": 0.400012338787,
			"-0.017": 1.40343693155,
			"-0.016": 1.20683358432,
			"-0.015": 1.93319586983,
			"-0.014": 2.28244753327,
			"-0.013": 2.3601668441,
			"-0.012": 3.18821725027,
			"-0.011": 1.97815539966,
			"-0.01": 2.43853268602,
			"-0.009": 1.7805725054,
			"-0.008": 2.26557538466,
			"-0.007": 4.94549442941,
			"-0.006": 8.93387260244,
			"-0.005": 9.84566034919,
			"-0.004": 9.81330919664,
			"-0.003": 10.1579595576,
			"-0.002": 12.6457574075,
			"-0.001": 11.8028868675,
			"0.0": 14.5192653196,
			"0.001": 21.3806633431,
			"0.002": 32.6348677797,
			"0.003": 22.3731207402,
			"0.004": 9.15402770632,
			"0.005": 4.97532688516,
			"0.006": 5.26159520818,
			"0.007": 4.84986504387,
			"0.008": 4.7789699991,
			"0.009": 5.38843696037,
			"0.01": 5.28473519762,
			"0.011": 5.7316520537,
			"0.012": 1.31004367578,
			"0.013": 0.0,
			"0.014": 0.0,
			"0.015": 0.0,
			"0.016": 0.0,
			"0.017": 0.0,
			"0.018": 0.0,
			"0.019": 0.0,
			"0.02": 0.0,
			"0.021": 0.0,
			"0.022": 0.0,
			"0.023": 0.0,
			"0.024": 0.0,
			"0.025": 0.0
		}
	}
}
