{
	 "smiles": "NC1=C(C=O)C(=O)C2=CC(Cl)=CC=C2O1", 
	 "Tm": 573.15, 
	 "num_atms": 21, 
	 "gaussian": { 
		 "optdone": 1, 
		 "sigma_profile": "yes", 
		 "theory": "DFT", 
		 "functional": "B3LYP", 
		 "basiset": "6-31G**", 
		 "properties": { 
			 "R2extent": 4569.8781, 
			 "electric_dipole_moment_norm": 5.77802060225, 
			 "electric_quadrupole_moment_norm": 9.56089595383, 
			 "total_energy": -1125.3053625, 
			 "HOMO_LUMO_gap": 0.17875, 
			 "cosmo_polarized_energy": -15.13, 
			 "cosmo_cavitation_energy": 27.88, 
			 "cosmo_dispersion_energy": -21.16, 
			 "cosmo_repulsion_energy": 1.62, 
			 "cosmo_total_nonelectrostatic_energy": 8.35, 
			 "SMD_solvation_energy": 6.2 
		},
		"coords": [
			{
				"x": 0.3349597271,
				"y": 2.9079976162,
				"z": 1.2333433844,
				"element": "N" 
			},
			{
				"x": 0.6781590462,
				"y": 1.7510291275,
				"z": 0.6699296609,
				"element": "C" 
			},
			{
				"x": 1.7542360886,
				"y": 0.9730000873,
				"z": 1.1105024217,
				"element": "C" 
			},
			{
				"x": 2.551708889,
				"y": 1.4233269812,
				"z": 2.2330336458,
				"element": "C" 
			},
			{
				"x": 2.3674553709,
				"y": 2.4712525255,
				"z": 2.8664908727,
				"element": "O" 
			},
			{
				"x": 2.0753611252,
				"y": -0.2838156505,
				"z": 0.4476444152,
				"element": "C" 
			},
			{
				"x": 3.0037085933,
				"y": -1.0219931827,
				"z": 0.7761370807,
				"element": "O" 
			},
			{
				"x": 1.1760865024,
				"y": -0.6264684313,
				"z": -0.6909845839,
				"element": "C" 
			},
			{
				"x": 1.3662661183,
				"y": -1.805884898,
				"z": -1.4219072779,
				"element": "C" 
			},
			{
				"x": 0.5161237687,
				"y": -2.1027657465,
				"z": -2.4776591835,
				"element": "C" 
			},
			{
				"x": 0.7490906383,
				"y": -3.5789713199,
				"z": -3.3973603651,
				"element": "Cl" 
			},
			{
				"x": -0.5325956499,
				"y": -1.2411798395,
				"z": -2.826947826,
				"element": "C" 
			},
			{
				"x": -0.7292616407,
				"y": -0.0677189391,
				"z": -2.1069059554,
				"element": "C" 
			},
			{
				"x": 0.1280799746,
				"y": 0.2245933293,
				"z": -1.0476738054,
				"element": "C" 
			},
			{
				"x": -0.1129904258,
				"y": 1.4053475461,
				"z": -0.3649858649,
				"element": "O" 
			},
			{
				"x": 0.9214502128,
				"y": 3.1946678426,
				"z": 2.0246250705,
				"element": "H" 
			},
			{
				"x": -0.4492431469,
				"y": 3.4342247812,
				"z": 0.8823313866,
				"element": "H" 
			},
			{
				"x": 3.3752950417,
				"y": 0.7435539892,
				"z": 2.5049085423,
				"element": "H" 
			},
			{
				"x": 2.1832560095,
				"y": -2.4583388216,
				"z": -1.1352366676,
				"element": "H" 
			},
			{
				"x": -1.1857039209,
				"y": -1.4913312173,
				"z": -3.6552651631,
				"element": "H" 
			},
			{
				"x": -1.5324423224,
				"y": 0.6175742203,
				"z": -2.3547197879,
				"element": "H" 
			}
		],
		 "valence_orbital": [ 
			{
				"type": "occ",
				"energy": -0.28167,
				"method": "rhf"
			},
			{
				"type": "occ",
				"energy": -0.27265,
				"method": "rhf"
			},
			{
				"type": "occ",
				"energy": -0.25537,
				"method": "rhf"
			},
			{
				"type": "occ",
				"energy": -0.24526,
				"method": "rhf"
			},
			{
				"type": "occ",
				"energy": -0.24425,
				"method": "rhf"
			},
			{
				"type": "unocc",
				"energy": -0.0655,
				"method": "rhf"
			},
			{
				"type": "unocc",
				"energy": -0.04902,
				"method": "rhf"
			},
			{
				"type": "unocc",
				"energy": -0.02118,
				"method": "rhf"
			},
			{
				"type": "unocc",
				"energy": 0.01092,
				"method": "rhf"
			},
			{
				"type": "unocc",
				"energy": 0.01996,
				"method": "rhf"
			}
		],
		"cosmo_sigma_profile": { 
			"-0.025": 0.0,
			"-0.024": 0.0,
			"-0.023": 0.0,
			"-0.022": 0.0,
			"-0.021": 0.0,
			"-0.02": 0.0,
			"-0.019": 0.0,
			"-0.018": 0.0,
			"-0.017": 0.16019221377,
			"-0.016": 1.17837249267,
			"-0.015": 1.37133753711,
			"-0.014": 0.718094033463,
			"-0.013": 1.01389469534,
			"-0.012": 1.13674680194,
			"-0.011": 1.84627513132,
			"-0.01": 2.15735577631,
			"-0.009": 2.75852187231,
			"-0.008": 4.87195789866,
			"-0.007": 6.51060426652,
			"-0.006": 8.42911787456,
			"-0.005": 8.37173741398,
			"-0.004": 10.3406829108,
			"-0.003": 12.8509428448,
			"-0.002": 17.3377695247,
			"-0.001": 24.2886527905,
			"0.0": 26.5124831417,
			"0.001": 24.3770716255,
			"0.002": 12.1139901797,
			"0.003": 11.4841165731,
			"0.004": 12.7699702169,
			"0.005": 5.02979098832,
			"0.006": 2.82637799065,
			"0.007": 3.09664012276,
			"0.008": 3.23087533237,
			"0.009": 2.34566258248,
			"0.01": 3.44755821543,
			"0.011": 3.95018631795,
			"0.012": 4.80204427093,
			"0.013": 5.70500757875,
			"0.014": 0.385382033538,
			"0.015": 0.0,
			"0.016": 0.0,
			"0.017": 0.0,
			"0.018": 0.0,
			"0.019": 0.0,
			"0.02": 0.0,
			"0.021": 0.0,
			"0.022": 0.0,
			"0.023": 0.0,
			"0.024": 0.0,
			"0.025": 0.0
		}
	}
}
