{
	 "smiles": "OC(=O)C1(CCCCC1)NS(=O)(=O)C1=CC(F)=CC=C1", 
	 "Tm": 487.15, 
	 "num_atms": 36, 
	 "gaussian": { 
		 "optdone": 1, 
		 "sigma_profile": "yes", 
		 "theory": "DFT", 
		 "functional": "B3LYP", 
		 "basiset": "6-31G**", 
		 "properties": { 
			 "R2extent": 6251.1369, 
			 "electric_dipole_moment_norm": 5.23307159038, 
			 "electric_quadrupole_moment_norm": 23.7728172024, 
			 "total_energy": -1358.63817524, 
			 "HOMO_LUMO_gap": 0.19611, 
			 "cosmo_polarized_energy": -17.46, 
			 "cosmo_cavitation_energy": 38.21, 
			 "cosmo_dispersion_energy": -27.54, 
			 "cosmo_repulsion_energy": 2.01, 
			 "cosmo_total_nonelectrostatic_energy": 12.68, 
			 "SMD_solvation_energy": 6.57 
		},
		"coords": [
			{
				"x": 2.1628071698,
				"y": 0.7646105769,
				"z": 0.4802779148,
				"element": "O" 
			},
			{
				"x": 1.1994293915,
				"y": 1.656306154,
				"z": 0.7579411237,
				"element": "C" 
			},
			{
				"x": 1.3600619378,
				"y": 2.4828292775,
				"z": 1.6260935932,
				"element": "O" 
			},
			{
				"x": -0.0980991513,
				"y": 1.5905148656,
				"z": -0.1107468322,
				"element": "C" 
			},
			{
				"x": -1.2014037784,
				"y": 2.4611470611,
				"z": 0.5578143128,
				"element": "C" 
			},
			{
				"x": -2.1147565071,
				"y": 3.2030760778,
				"z": -0.4398795797,
				"element": "C" 
			},
			{
				"x": -2.3569701295,
				"y": 2.3931218818,
				"z": -1.7183432608,
				"element": "C" 
			},
			{
				"x": -1.0277966259,
				"y": 2.1319074892,
				"z": -2.4631378375,
				"element": "C" 
			},
			{
				"x": 0.2009617605,
				"y": 2.1475497166,
				"z": -1.5243917632,
				"element": "C" 
			},
			{
				"x": -0.610211192,
				"y": 0.1715823865,
				"z": -0.0928476833,
				"element": "N" 
			},
			{
				"x": -0.1719539616,
				"y": -1.0745786599,
				"z": -1.1215029622,
				"element": "S" 
			},
			{
				"x": 1.2385779842,
				"y": -0.8163408278,
				"z": -1.4910563021,
				"element": "O" 
			},
			{
				"x": -1.1578993494,
				"y": -1.30199145,
				"z": -2.1821917539,
				"element": "O" 
			},
			{
				"x": -0.2318266901,
				"y": -2.4906835909,
				"z": -0.0201105701,
				"element": "C" 
			},
			{
				"x": 0.592651616,
				"y": -2.5017848,
				"z": 1.1087712604,
				"element": "C" 
			},
			{
				"x": 0.5522505858,
				"y": -3.6306885886,
				"z": 1.9149385337,
				"element": "C" 
			},
			{
				"x": 1.3283976308,
				"y": -3.6739356053,
				"z": 3.0111402706,
				"element": "F" 
			},
			{
				"x": -0.2673536324,
				"y": -4.7211368459,
				"z": 1.6272776674,
				"element": "C" 
			},
			{
				"x": -1.0736717107,
				"y": -4.6799209455,
				"z": 0.4913502148,
				"element": "C" 
			},
			{
				"x": -1.0625488905,
				"y": -3.5617692676,
				"z": -0.3471622011,
				"element": "C" 
			},
			{
				"x": 1.941339322,
				"y": 0.1987299908,
				"z": -0.294224977,
				"element": "H" 
			},
			{
				"x": -0.6909641064,
				"y": 3.171739374,
				"z": 1.2097252792,
				"element": "H" 
			},
			{
				"x": -1.7964179621,
				"y": 1.8243993411,
				"z": 1.2250299564,
				"element": "H" 
			},
			{
				"x": -3.0612822863,
				"y": 3.4470396991,
				"z": 0.0545764846,
				"element": "H" 
			},
			{
				"x": -1.6582893297,
				"y": 4.1638580624,
				"z": -0.7093886589,
				"element": "H" 
			},
			{
				"x": -2.83509658,
				"y": 1.4380702968,
				"z": -1.4631837395,
				"element": "H" 
			},
			{
				"x": -3.0625194408,
				"y": 2.9135854425,
				"z": -2.3744501986,
				"element": "H" 
			},
			{
				"x": -1.0823770225,
				"y": 1.1773501825,
				"z": -2.9933313616,
				"element": "H" 
			},
			{
				"x": -0.8699234431,
				"y": 2.9025330128,
				"z": -3.2260051356,
				"element": "H" 
			},
			{
				"x": 1.0341381201,
				"y": 1.6136513988,
				"z": -1.9860226581,
				"element": "H" 
			},
			{
				"x": 0.5411756793,
				"y": 3.1779814969,
				"z": -1.3671699315,
				"element": "H" 
			},
			{
				"x": -1.6047515207,
				"y": 0.1140644725,
				"z": 0.1003505818,
				"element": "H" 
			},
			{
				"x": 1.2392987186,
				"y": -1.6688188793,
				"z": 1.3618788852,
				"element": "H" 
			},
			{
				"x": -0.2606560323,
				"y": -5.5782562201,
				"z": 2.2917271613,
				"element": "H" 
			},
			{
				"x": -1.7139768376,
				"y": -5.523853028,
				"z": 0.255586215,
				"element": "H" 
			},
			{
				"x": -1.6783437361,
				"y": -3.5131895481,
				"z": -1.2373320479,
				"element": "H" 
			}
		],
		 "valence_orbital": [ 
			{
				"type": "occ",
				"energy": -0.30561,
				"method": "rhf"
			},
			{
				"type": "occ",
				"energy": -0.30358,
				"method": "rhf"
			},
			{
				"type": "occ",
				"energy": -0.28577,
				"method": "rhf"
			},
			{
				"type": "occ",
				"energy": -0.27519,
				"method": "rhf"
			},
			{
				"type": "occ",
				"energy": -0.25679,
				"method": "rhf"
			},
			{
				"type": "unocc",
				"energy": -0.06068,
				"method": "rhf"
			},
			{
				"type": "unocc",
				"energy": -0.02951,
				"method": "rhf"
			},
			{
				"type": "unocc",
				"energy": 0.00701,
				"method": "rhf"
			},
			{
				"type": "unocc",
				"energy": 0.04132,
				"method": "rhf"
			},
			{
				"type": "unocc",
				"energy": 0.04361,
				"method": "rhf"
			}
		],
		"cosmo_sigma_profile": { 
			"-0.025": 0.0,
			"-0.024": 0.0,
			"-0.023": 0.0,
			"-0.022": 0.0,
			"-0.021": 0.0,
			"-0.02": 0.0,
			"-0.019": 0.0,
			"-0.018": 0.0,
			"-0.017": 0.0,
			"-0.016": 0.406906863204,
			"-0.015": 0.75355036095,
			"-0.014": 1.10841225849,
			"-0.013": 0.848003228892,
			"-0.012": 1.59493288081,
			"-0.011": 1.42336155283,
			"-0.01": 1.19930131592,
			"-0.009": 1.42030822339,
			"-0.008": 5.30799357078,
			"-0.007": 8.29253180368,
			"-0.006": 10.7377420626,
			"-0.005": 12.2162732819,
			"-0.004": 19.2755326806,
			"-0.003": 24.882496095,
			"-0.002": 29.658434593,
			"-0.001": 36.4472134262,
			"0.0": 33.7569122776,
			"0.001": 24.3540906052,
			"0.002": 14.4123078867,
			"0.003": 11.7169739567,
			"0.004": 12.6630942069,
			"0.005": 4.35697922557,
			"0.006": 4.48667637185,
			"0.007": 4.75964928875,
			"0.008": 7.05953793515,
			"0.009": 7.17986562563,
			"0.01": 9.37795267871,
			"0.011": 7.20387470853,
			"0.012": 3.78396858533,
			"0.013": 1.50089368742,
			"0.014": 0.0229641096989,
			"0.015": 0.0,
			"0.016": 0.0,
			"0.017": 0.0,
			"0.018": 0.0,
			"0.019": 0.0,
			"0.02": 0.0,
			"0.021": 0.0,
			"0.022": 0.0,
			"0.023": 0.0,
			"0.024": 0.0,
			"0.025": 0.0
		}
	}
}
