{
	 "smiles": "CC1=NC(=CC(Cl)=N1)C1=CN=CC=C1", 
	 "Tm": 341.15, 
	 "num_atms": 22, 
	 "gaussian": { 
		 "optdone": 1, 
		 "sigma_profile": "yes", 
		 "theory": "DFT", 
		 "functional": "B3LYP", 
		 "basiset": "6-31G**", 
		 "properties": { 
			 "R2extent": 3955.1198, 
			 "electric_dipole_moment_norm": 2.45697468648, 
			 "electric_quadrupole_moment_norm": 7.60838714118, 
			 "total_energy": -1010.33889513, 
			 "HOMO_LUMO_gap": 0.18662, 
			 "cosmo_polarized_energy": -9.12, 
			 "cosmo_cavitation_energy": 28.65, 
			 "cosmo_dispersion_energy": -21.32, 
			 "cosmo_repulsion_energy": 1.67, 
			 "cosmo_total_nonelectrostatic_energy": 9.0, 
			 "SMD_solvation_energy": 0.86 
		},
		"coords": [
			{
				"x": 1.1372182342,
				"y": 2.5788446257,
				"z": -3.1774326243,
				"element": "C" 
			},
			{
				"x": 0.3138380463,
				"y": 1.5404168852,
				"z": -2.4678048563,
				"element": "C" 
			},
			{
				"x": 0.7198883812,
				"y": 1.1290797519,
				"z": -1.2658267554,
				"element": "N" 
			},
			{
				"x": -0.0223698839,
				"y": 0.1971720118,
				"z": -0.6316455997,
				"element": "C" 
			},
			{
				"x": -1.173573334,
				"y": -0.3287213827,
				"z": -1.228799224,
				"element": "C" 
			},
			{
				"x": -1.4968488489,
				"y": 0.1884824078,
				"z": -2.4812184948,
				"element": "C" 
			},
			{
				"x": -2.9331812208,
				"y": -0.4108173216,
				"z": -3.2982042245,
				"element": "Cl" 
			},
			{
				"x": -0.7898004649,
				"y": 1.1050942831,
				"z": -3.1105891071,
				"element": "N" 
			},
			{
				"x": 0.4548190642,
				"y": -0.2361826124,
				"z": 0.7034703501,
				"element": "C" 
			},
			{
				"x": -0.3590840927,
				"y": -0.9466264743,
				"z": 1.6011032585,
				"element": "C" 
			},
			{
				"x": 0.0364493193,
				"y": -1.3598427706,
				"z": 2.8078874922,
				"element": "N" 
			},
			{
				"x": 1.2902475628,
				"y": -1.0697193441,
				"z": 3.1780277725,
				"element": "C" 
			},
			{
				"x": 2.1825694152,
				"y": -0.3544193985,
				"z": 2.3765828944,
				"element": "C" 
			},
			{
				"x": 1.7579338138,
				"y": 0.0705370905,
				"z": 1.1230981836,
				"element": "C" 
			},
			{
				"x": 1.4382822645,
				"y": 2.2121795777,
				"z": -4.1636071229,
				"element": "H" 
			},
			{
				"x": 0.5412965248,
				"y": 3.4825900828,
				"z": -3.3416153938,
				"element": "H" 
			},
			{
				"x": 2.0212695539,
				"y": 2.8286242957,
				"z": -2.5905592599,
				"element": "H" 
			},
			{
				"x": -1.7774355315,
				"y": -1.0999524924,
				"z": -0.7711949686,
				"element": "H" 
			},
			{
				"x": -1.3908161887,
				"y": -1.1795085075,
				"z": 1.3457515861,
				"element": "H" 
			},
			{
				"x": 1.5925912205,
				"y": -1.422641168,
				"z": 4.1623185526,
				"element": "H" 
			},
			{
				"x": 3.1860871059,
				"y": -0.1393839494,
				"z": 2.729942033,
				"element": "H" 
			},
			{
				"x": 2.4054190586,
				"y": 0.6325944093,
				"z": 0.4596155084,
				"element": "H" 
			}
		],
		 "valence_orbital": [ 
			{
				"type": "occ",
				"energy": -0.29261,
				"method": "rhf"
			},
			{
				"type": "occ",
				"energy": -0.28646,
				"method": "rhf"
			},
			{
				"type": "occ",
				"energy": -0.26944,
				"method": "rhf"
			},
			{
				"type": "occ",
				"energy": -0.26442,
				"method": "rhf"
			},
			{
				"type": "occ",
				"energy": -0.2608,
				"method": "rhf"
			},
			{
				"type": "unocc",
				"energy": -0.07418,
				"method": "rhf"
			},
			{
				"type": "unocc",
				"energy": -0.04381,
				"method": "rhf"
			},
			{
				"type": "unocc",
				"energy": -0.02798,
				"method": "rhf"
			},
			{
				"type": "unocc",
				"energy": 0.00317,
				"method": "rhf"
			},
			{
				"type": "unocc",
				"energy": 0.0252,
				"method": "rhf"
			}
		],
		"cosmo_sigma_profile": { 
			"-0.025": 0.0,
			"-0.024": 0.0,
			"-0.023": 0.0,
			"-0.022": 0.0,
			"-0.021": 0.0,
			"-0.02": 0.0,
			"-0.019": 0.0,
			"-0.018": 0.0,
			"-0.017": 0.0,
			"-0.016": 0.0,
			"-0.015": 0.0,
			"-0.014": 0.0,
			"-0.013": 0.0,
			"-0.012": 0.0,
			"-0.011": 0.181458485397,
			"-0.01": 1.69427569754,
			"-0.009": 2.22256561419,
			"-0.008": 2.30858390532,
			"-0.007": 6.47267583221,
			"-0.006": 10.3190442438,
			"-0.005": 13.0050889569,
			"-0.004": 13.0544310148,
			"-0.003": 17.270388827,
			"-0.002": 24.1703917065,
			"-0.001": 27.4700356651,
			"0.0": 19.6656892631,
			"0.001": 21.0810530887,
			"0.002": 17.101467249,
			"0.003": 14.0803018407,
			"0.004": 12.1468736559,
			"0.005": 5.97383338634,
			"0.006": 4.65474499403,
			"0.007": 4.19742469824,
			"0.008": 3.5285004948,
			"0.009": 2.52528816323,
			"0.01": 2.42757782971,
			"0.011": 1.66031369313,
			"0.012": 1.73151446977,
			"0.013": 2.18036530885,
			"0.014": 0.564149542328,
			"0.015": 0.986721006266,
			"0.016": 0.590094586927,
			"0.017": 0.0536062680851,
			"0.018": 0.0,
			"0.019": 0.0,
			"0.02": 0.0,
			"0.021": 0.0,
			"0.022": 0.0,
			"0.023": 0.0,
			"0.024": 0.0,
			"0.025": 0.0
		}
	}
}
