{
	 "smiles": "CC1=NN(CO)C(C)=C1", 
	 "Tm": 382.15, 
	 "num_atms": 19, 
	 "gaussian": { 
		 "optdone": 1, 
		 "sigma_profile": "yes", 
		 "theory": "DFT", 
		 "functional": "B3LYP", 
		 "basiset": "6-31G**", 
		 "properties": { 
			 "R2extent": 1387.9322, 
			 "electric_dipole_moment_norm": 2.87232678155, 
			 "electric_quadrupole_moment_norm": 9.04049566949, 
			 "total_energy": -419.372114041, 
			 "HOMO_LUMO_gap": 0.24968, 
			 "cosmo_polarized_energy": -7.63, 
			 "cosmo_cavitation_energy": 22.06, 
			 "cosmo_dispersion_energy": -16.51, 
			 "cosmo_repulsion_energy": 1.38, 
			 "cosmo_total_nonelectrostatic_energy": 6.94, 
			 "SMD_solvation_energy": 3.23 
		},
		"coords": [
			{
				"x": -1.2272688728,
				"y": -0.2642086555,
				"z": -2.4163709624,
				"element": "C" 
			},
			{
				"x": -0.3082443253,
				"y": -0.1411323722,
				"z": -1.2370359643,
				"element": "C" 
			},
			{
				"x": -0.2928329489,
				"y": 0.9666409838,
				"z": -0.4890779043,
				"element": "N" 
			},
			{
				"x": 0.6332961748,
				"y": 0.7411426832,
				"z": 0.4690669289,
				"element": "N" 
			},
			{
				"x": 0.8752121964,
				"y": 1.8056190904,
				"z": 1.4589700162,
				"element": "C" 
			},
			{
				"x": 0.0563003972,
				"y": 2.8970823211,
				"z": 1.1990979626,
				"element": "O" 
			},
			{
				"x": 1.2163441225,
				"y": -0.4823967399,
				"z": 0.3599665002,
				"element": "C" 
			},
			{
				"x": 2.2716549622,
				"y": -0.9630481902,
				"z": 1.3042481846,
				"element": "C" 
			},
			{
				"x": 0.6231314905,
				"y": -1.0811267547,
				"z": -0.7431192233,
				"element": "C" 
			},
			{
				"x": -2.2758614814,
				"y": -0.1705241206,
				"z": -2.1150850315,
				"element": "H" 
			},
			{
				"x": -1.0290935364,
				"y": 0.5163885594,
				"z": -3.1583230605,
				"element": "H" 
			},
			{
				"x": -1.0996260465,
				"y": -1.2345135492,
				"z": -2.9027303,
				"element": "H" 
			},
			{
				"x": 0.6797332744,
				"y": 1.395142726,
				"z": 2.4623362177,
				"element": "H" 
			},
			{
				"x": 1.9385895934,
				"y": 2.0887442503,
				"z": 1.4087763895,
				"element": "H" 
			},
			{
				"x": -0.4666092747,
				"y": 2.6488630788,
				"z": 0.4106828864,
				"element": "H" 
			},
			{
				"x": 3.1569141144,
				"y": -0.3155691514,
				"z": 1.2932187167,
				"element": "H" 
			},
			{
				"x": 1.9084039856,
				"y": -1.0035026018,
				"z": 2.338385414,
				"element": "H" 
			},
			{
				"x": 2.5911923183,
				"y": -1.9687692921,
				"z": 1.0239498682,
				"element": "H" 
			},
			{
				"x": 0.8377638561,
				"y": -2.0653322654,
				"z": -1.1347566386,
				"element": "H" 
			}
		],
		 "valence_orbital": [ 
			{
				"type": "occ",
				"energy": -0.35286,
				"method": "rhf"
			},
			{
				"type": "occ",
				"energy": -0.29276,
				"method": "rhf"
			},
			{
				"type": "occ",
				"energy": -0.27482,
				"method": "rhf"
			},
			{
				"type": "occ",
				"energy": -0.24,
				"method": "rhf"
			},
			{
				"type": "occ",
				"energy": -0.23264,
				"method": "rhf"
			},
			{
				"type": "unocc",
				"energy": 0.01704,
				"method": "rhf"
			},
			{
				"type": "unocc",
				"energy": 0.07269,
				"method": "rhf"
			},
			{
				"type": "unocc",
				"energy": 0.08378,
				"method": "rhf"
			},
			{
				"type": "unocc",
				"energy": 0.10674,
				"method": "rhf"
			},
			{
				"type": "unocc",
				"energy": 0.12118,
				"method": "rhf"
			}
		],
		"cosmo_sigma_profile": { 
			"-0.025": 0.0,
			"-0.024": 0.0,
			"-0.023": 0.0,
			"-0.022": 0.0,
			"-0.021": 0.0,
			"-0.02": 0.0,
			"-0.019": 0.0,
			"-0.018": 0.0,
			"-0.017": 0.0,
			"-0.016": 0.0,
			"-0.015": 0.0,
			"-0.014": 0.0,
			"-0.013": 0.0,
			"-0.012": 0.0,
			"-0.011": 0.0,
			"-0.01": 0.0,
			"-0.009": 0.0919764690491,
			"-0.008": 0.528994257246,
			"-0.007": 1.48901458743,
			"-0.006": 9.6313102538,
			"-0.005": 16.1998320461,
			"-0.004": 19.0907935224,
			"-0.003": 15.365415009,
			"-0.002": 16.5596117453,
			"-0.001": 16.3494409634,
			"0.0": 15.8279991564,
			"0.001": 8.46668802863,
			"0.002": 8.58682305344,
			"0.003": 6.48419254791,
			"0.004": 7.33658944206,
			"0.005": 7.47987421271,
			"0.006": 5.92376186062,
			"0.007": 4.02122524945,
			"0.008": 3.499459397,
			"0.009": 2.72591545263,
			"0.01": 1.61575448175,
			"0.011": 1.24269990577,
			"0.012": 1.81031688576,
			"0.013": 2.37327920863,
			"0.014": 0.973543608492,
			"0.015": 0.0,
			"0.016": 0.0,
			"0.017": 0.0,
			"0.018": 0.0,
			"0.019": 0.0,
			"0.02": 0.0,
			"0.021": 0.0,
			"0.022": 0.0,
			"0.023": 0.0,
			"0.024": 0.0,
			"0.025": 0.0
		}
	}
}
