{
	 "smiles": "NC1=NC=C(CC2=CC=C(Br)C=C2)S1", 
	 "Tm": 403.15, 
	 "num_atms": 23, 
	 "gaussian": { 
		 "optdone": 1, 
		 "sigma_profile": "yes", 
		 "theory": "DFT", 
		 "functional": "B3LYP", 
		 "basiset": "6-31G**", 
		 "properties": { 
			 "R2extent": 9282.1519, 
			 "electric_dipole_moment_norm": 1.49982083597, 
			 "electric_quadrupole_moment_norm": 16.9285454824, 
			 "total_energy": -3465.5813288, 
			 "HOMO_LUMO_gap": 0.19281, 
			 "cosmo_polarized_energy": -12.19, 
			 "cosmo_cavitation_energy": 31.64, 
			 "cosmo_dispersion_energy": -23.55, 
			 "cosmo_repulsion_energy": 1.84, 
			 "cosmo_total_nonelectrostatic_energy": 9.93, 
			 "SMD_solvation_energy": 1.97 
		},
		"coords": [
			{
				"x": 2.6132227634,
				"y": -2.1598910262,
				"z": -1.0082814028,
				"element": "N" 
			},
			{
				"x": 1.7298132798,
				"y": -1.1098519621,
				"z": -1.1263419184,
				"element": "C" 
			},
			{
				"x": 2.0497683335,
				"y": 0.1360624593,
				"z": -0.9275093417,
				"element": "N" 
			},
			{
				"x": 0.9735156104,
				"y": 0.9552099052,
				"z": -1.1992910244,
				"element": "C" 
			},
			{
				"x": -0.1886069058,
				"y": 0.3671157135,
				"z": -1.5989893094,
				"element": "C" 
			},
			{
				"x": -1.5004224631,
				"y": 1.0090452233,
				"z": -1.9466878137,
				"element": "C" 
			},
			{
				"x": -2.6636615905,
				"y": 0.6462503202,
				"z": -1.0330586043,
				"element": "C" 
			},
			{
				"x": -3.8929965844,
				"y": 0.2451545885,
				"z": -1.5662368639,
				"element": "C" 
			},
			{
				"x": -4.9765134692,
				"y": -0.0609043937,
				"z": -0.74006677,
				"element": "C" 
			},
			{
				"x": -4.8221644225,
				"y": 0.0367495823,
				"z": 0.6398870689,
				"element": "C" 
			},
			{
				"x": -6.2959888352,
				"y": -0.3814563349,
				"z": 1.7857904654,
				"element": "Br" 
			},
			{
				"x": -3.6075339998,
				"y": 0.4315859186,
				"z": 1.2005304094,
				"element": "C" 
			},
			{
				"x": -2.5374190099,
				"y": 0.7315283847,
				"z": 0.3599271171,
				"element": "C" 
			},
			{
				"x": 0.0648638879,
				"y": -1.3788751736,
				"z": -1.666077758,
				"element": "S" 
			},
			{
				"x": 2.2293745195,
				"y": -3.0490560629,
				"z": -0.72134458,
				"element": "H" 
			},
			{
				"x": 3.4603163258,
				"y": -1.9024466165,
				"z": -0.5180423957,
				"element": "H" 
			},
			{
				"x": 1.0921371374,
				"y": 2.0275622208,
				"z": -1.0809265126,
				"element": "H" 
			},
			{
				"x": -1.77842,
				"y": 0.7765256885,
				"z": -2.9822893325,
				"element": "H" 
			},
			{
				"x": -1.3394640369,
				"y": 2.0949895318,
				"z": -1.9150618674,
				"element": "H" 
			},
			{
				"x": -4.0127113991,
				"y": 0.1687727115,
				"z": -2.6441269929,
				"element": "H" 
			},
			{
				"x": -5.924206316,
				"y": -0.3731068712,
				"z": -1.1639737368,
				"element": "H" 
			},
			{
				"x": -3.5010474346,
				"y": 0.5011483509,
				"z": 2.2772260503,
				"element": "H" 
			},
			{
				"x": -1.5860553906,
				"y": 1.0288878422,
				"z": 0.7925451134,
				"element": "H" 
			}
		],
		 "valence_orbital": [ 
			{
				"type": "occ",
				"energy": -0.27362,
				"method": "rhf"
			},
			{
				"type": "occ",
				"energy": -0.27194,
				"method": "rhf"
			},
			{
				"type": "occ",
				"energy": -0.26198,
				"method": "rhf"
			},
			{
				"type": "occ",
				"energy": -0.23752,
				"method": "rhf"
			},
			{
				"type": "occ",
				"energy": -0.20933,
				"method": "rhf"
			},
			{
				"type": "unocc",
				"energy": -0.01652,
				"method": "rhf"
			},
			{
				"type": "unocc",
				"energy": -0.01436,
				"method": "rhf"
			},
			{
				"type": "unocc",
				"energy": -0.00468,
				"method": "rhf"
			},
			{
				"type": "unocc",
				"energy": 0.00971,
				"method": "rhf"
			},
			{
				"type": "unocc",
				"energy": 0.01224,
				"method": "rhf"
			}
		],
		"cosmo_sigma_profile": { 
			"-0.025": 0.0,
			"-0.024": 0.0,
			"-0.023": 0.0,
			"-0.022": 0.0,
			"-0.021": 0.0,
			"-0.02": 0.0,
			"-0.019": 0.0,
			"-0.018": 0.0,
			"-0.017": 0.0,
			"-0.016": 0.0,
			"-0.015": 0.160362484543,
			"-0.014": 1.80692126909,
			"-0.013": 2.08607617718,
			"-0.012": 2.7637990571,
			"-0.011": 2.98748853158,
			"-0.01": 2.36959183601,
			"-0.009": 1.95384217586,
			"-0.008": 2.04449583335,
			"-0.007": 4.82329448927,
			"-0.006": 14.5159443071,
			"-0.005": 15.6511122713,
			"-0.004": 15.4219656577,
			"-0.003": 15.2705052047,
			"-0.002": 15.2300739689,
			"-0.001": 13.5725545899,
			"0.0": 14.8619998911,
			"0.001": 17.9302322772,
			"0.002": 22.7671101949,
			"0.003": 27.0740622678,
			"0.004": 29.7471854118,
			"0.005": 16.4147524787,
			"0.006": 3.4082235345,
			"0.007": 2.35127600142,
			"0.008": 2.67513427193,
			"0.009": 2.0919915523,
			"0.01": 1.65809329485,
			"0.011": 1.56421812813,
			"0.012": 1.12902200236,
			"0.013": 1.24742527777,
			"0.014": 1.31789823922,
			"0.015": 0.865014512608,
			"0.016": 0.488476285929,
			"0.017": 0.0,
			"0.018": 0.0,
			"0.019": 0.0,
			"0.02": 0.0,
			"0.021": 0.0,
			"0.022": 0.0,
			"0.023": 0.0,
			"0.024": 0.0,
			"0.025": 0.0
		}
	}
}
