{
	 "smiles": "CN(CC1=CC=CO1)S(=O)(=O)C1=C(C)NN=C1C", 
	 "Tm": 435.15, 
	 "num_atms": 33, 
	 "gaussian": { 
		 "optdone": 1, 
		 "sigma_profile": "yes", 
		 "theory": "DFT", 
		 "functional": "B3LYP", 
		 "basiset": "6-31G**", 
		 "properties": { 
			 "R2extent": 5729.7456, 
			 "electric_dipole_moment_norm": 3.70277104477, 
			 "electric_quadrupole_moment_norm": 23.5611286421, 
			 "total_energy": -1216.21445763, 
			 "HOMO_LUMO_gap": 0.22509, 
			 "cosmo_polarized_energy": -18.49, 
			 "cosmo_cavitation_energy": 37.78, 
			 "cosmo_dispersion_energy": -25.87, 
			 "cosmo_repulsion_energy": 1.94, 
			 "cosmo_total_nonelectrostatic_energy": 13.86, 
			 "SMD_solvation_energy": 5.87 
		},
		"coords": [
			{
				"x": -0.3401087377,
				"y": 1.2009495563,
				"z": 2.619857535,
				"element": "C" 
			},
			{
				"x": 0.3444450167,
				"y": 0.3751692407,
				"z": 1.6166193442,
				"element": "N" 
			},
			{
				"x": 1.8266332365,
				"y": 0.4034521325,
				"z": 1.6990970696,
				"element": "C" 
			},
			{
				"x": 2.3995861125,
				"y": 1.6452243718,
				"z": 1.1048507113,
				"element": "C" 
			},
			{
				"x": 2.9435812124,
				"y": 1.9304925953,
				"z": -0.1139535006,
				"element": "C" 
			},
			{
				"x": 3.3182282033,
				"y": 3.3137833963,
				"z": -0.085689685,
				"element": "C" 
			},
			{
				"x": 2.9754726154,
				"y": 3.7715598687,
				"z": 1.1489841063,
				"element": "C" 
			},
			{
				"x": 2.4164878423,
				"y": 2.7714369984,
				"z": 1.8895902315,
				"element": "O" 
			},
			{
				"x": -0.3349240294,
				"y": -1.1782152698,
				"z": 1.424104905,
				"element": "S" 
			},
			{
				"x": -0.7383261879,
				"y": -1.7482134911,
				"z": 2.7208880631,
				"element": "O" 
			},
			{
				"x": 0.5943389384,
				"y": -1.9184424691,
				"z": 0.5611184642,
				"element": "O" 
			},
			{
				"x": -1.8013143703,
				"y": -0.808549745,
				"z": 0.5377002694,
				"element": "C" 
			},
			{
				"x": -3.1036634016,
				"y": -1.0908627001,
				"z": 0.9479841766,
				"element": "C" 
			},
			{
				"x": -3.6821226785,
				"y": -1.7018340462,
				"z": 2.1833785509,
				"element": "C" 
			},
			{
				"x": -3.870568409,
				"y": -0.6906987155,
				"z": -0.0914094663,
				"element": "N" 
			},
			{
				"x": -3.1751354674,
				"y": -0.1790983972,
				"z": -1.141824995,
				"element": "N" 
			},
			{
				"x": -1.9019551155,
				"y": -0.2504104546,
				"z": -0.7728308096,
				"element": "C" 
			},
			{
				"x": -0.8035142024,
				"y": 0.2123239225,
				"z": -1.6745443962,
				"element": "C" 
			},
			{
				"x": 0.0480777235,
				"y": 2.217829806,
				"z": 2.5422710108,
				"element": "H" 
			},
			{
				"x": -0.1872063589,
				"y": 0.8320664468,
				"z": 3.6427332312,
				"element": "H" 
			},
			{
				"x": -1.4109045989,
				"y": 1.2255841854,
				"z": 2.4046139633,
				"element": "H" 
			},
			{
				"x": 2.1559293569,
				"y": 0.3018682983,
				"z": 2.7434591263,
				"element": "H" 
			},
			{
				"x": 2.2015655047,
				"y": -0.4539816566,
				"z": 1.1395721815,
				"element": "H" 
			},
			{
				"x": 3.0660946188,
				"y": 1.234369201,
				"z": -0.9314787203,
				"element": "H" 
			},
			{
				"x": 3.7846253623,
				"y": 3.8836202601,
				"z": -0.8763709875,
				"element": "H" 
			},
			{
				"x": 3.0616270834,
				"y": 4.7285244522,
				"z": 1.639850666,
				"element": "H" 
			},
			{
				"x": -3.3785350754,
				"y": -2.7478217264,
				"z": 2.2794748021,
				"element": "H" 
			},
			{
				"x": -4.7750897514,
				"y": -1.6542967385,
				"z": 2.1605980925,
				"element": "H" 
			},
			{
				"x": -3.3224795459,
				"y": -1.189589681,
				"z": 3.0780682593,
				"element": "H" 
			},
			{
				"x": -4.8762670365,
				"y": -0.7443216938,
				"z": -0.1531734881,
				"element": "H" 
			},
			{
				"x": -1.2293813136,
				"y": 0.5967414974,
				"z": -2.6033056142,
				"element": "H" 
			},
			{
				"x": -0.1220677212,
				"y": -0.612755228,
				"z": -1.9040132745,
				"element": "H" 
			},
			{
				"x": -0.2105288254,
				"y": 0.9974957834,
				"z": -1.1948198227,
				"element": "H" 
			}
		],
		 "valence_orbital": [ 
			{
				"type": "occ",
				"energy": -0.28079,
				"method": "rhf"
			},
			{
				"type": "occ",
				"energy": -0.26835,
				"method": "rhf"
			},
			{
				"type": "occ",
				"energy": -0.25646,
				"method": "rhf"
			},
			{
				"type": "occ",
				"energy": -0.24619,
				"method": "rhf"
			},
			{
				"type": "occ",
				"energy": -0.22777,
				"method": "rhf"
			},
			{
				"type": "unocc",
				"energy": -0.00268,
				"method": "rhf"
			},
			{
				"type": "unocc",
				"energy": 0.00756,
				"method": "rhf"
			},
			{
				"type": "unocc",
				"energy": 0.02686,
				"method": "rhf"
			},
			{
				"type": "unocc",
				"energy": 0.05949,
				"method": "rhf"
			},
			{
				"type": "unocc",
				"energy": 0.06847,
				"method": "rhf"
			}
		],
		"cosmo_sigma_profile": { 
			"-0.025": 0.0,
			"-0.024": 0.0,
			"-0.023": 0.0,
			"-0.022": 0.0,
			"-0.021": 0.0,
			"-0.02": 0.0,
			"-0.019": 0.0,
			"-0.018": 0.0172569633534,
			"-0.017": 1.07206781325,
			"-0.016": 1.14954066517,
			"-0.015": 1.51558744894,
			"-0.014": 1.37608210611,
			"-0.013": 1.20153139033,
			"-0.012": 1.11743771948,
			"-0.011": 1.62118039347,
			"-0.01": 0.685817759897,
			"-0.009": 2.04971293098,
			"-0.008": 3.58123292728,
			"-0.007": 5.51215969076,
			"-0.006": 10.2989183739,
			"-0.005": 18.7046710071,
			"-0.004": 26.8466425867,
			"-0.003": 26.0338505989,
			"-0.002": 29.2611714918,
			"-0.001": 23.4400838348,
			"0.0": 20.4816105538,
			"0.001": 17.6373781388,
			"0.002": 18.8932424079,
			"0.003": 16.8822818047,
			"0.004": 14.3875359364,
			"0.005": 11.048775726,
			"0.006": 6.89529034887,
			"0.007": 5.56712987266,
			"0.008": 5.39593337751,
			"0.009": 4.07029565318,
			"0.01": 6.00045269992,
			"0.011": 7.90625401491,
			"0.012": 5.88475753802,
			"0.013": 1.32856835957,
			"0.014": 1.03843803054,
			"0.015": 0.728667413789,
			"0.016": 0.111741882269,
			"0.017": 0.0,
			"0.018": 0.0,
			"0.019": 0.0,
			"0.02": 0.0,
			"0.021": 0.0,
			"0.022": 0.0,
			"0.023": 0.0,
			"0.024": 0.0,
			"0.025": 0.0
		}
	}
}
