{
	 "smiles": "COC1=C(OC)C=C(C=C1)C(=O)C=CC1=CC=C(O1)C1=C(C=CC=C1)[N+]([O-])=O", 
	 "Tm": 393.15, 
	 "num_atms": 45, 
	 "gaussian": { 
		 "optdone": 1, 
		 "sigma_profile": "yes", 
		 "theory": "DFT", 
		 "functional": "B3LYP", 
		 "basiset": "6-31G**", 
		 "properties": { 
			 "R2extent": 19695.8259, 
			 "electric_dipole_moment_norm": 1.09708099063, 
			 "electric_quadrupole_moment_norm": 43.8579054221, 
			 "total_energy": -1316.40585817, 
			 "HOMO_LUMO_gap": 0.11968, 
			 "cosmo_polarized_energy": -18.01, 
			 "cosmo_cavitation_energy": 51.57, 
			 "cosmo_dispersion_energy": -35.86, 
			 "cosmo_repulsion_energy": 2.69, 
			 "cosmo_total_nonelectrostatic_energy": 18.4, 
			 "SMD_solvation_energy": 13.07 
		},
		"coords": [
			{
				"x": 2.4187189466,
				"y": -0.6901092355,
				"z": 7.6173732488,
				"element": "C" 
			},
			{
				"x": 1.0220352124,
				"y": -0.4227063488,
				"z": 7.4293127856,
				"element": "O" 
			},
			{
				"x": 0.5582191833,
				"y": -0.5737347266,
				"z": 6.1462530339,
				"element": "C" 
			},
			{
				"x": 0.9840994384,
				"y": 0.263389972,
				"z": 5.0959894668,
				"element": "C" 
			},
			{
				"x": 1.9157738352,
				"y": 1.2578386263,
				"z": 5.2992975276,
				"element": "O" 
			},
			{
				"x": 1.4478875401,
				"y": 2.3654631453,
				"z": 6.0807972723,
				"element": "C" 
			},
			{
				"x": 0.4792463125,
				"y": 0.0705226547,
				"z": 3.8108117445,
				"element": "C" 
			},
			{
				"x": -0.4696373216,
				"y": -0.930318578,
				"z": 3.5516134188,
				"element": "C" 
			},
			{
				"x": -0.9312201442,
				"y": -1.7187565965,
				"z": 4.6170311103,
				"element": "C" 
			},
			{
				"x": -0.4094625575,
				"y": -1.5519634912,
				"z": 5.8945927349,
				"element": "C" 
			},
			{
				"x": -1.0897857866,
				"y": -1.143231657,
				"z": 2.2031793502,
				"element": "C" 
			},
			{
				"x": -2.2320583603,
				"y": -1.5905365198,
				"z": 2.1148025096,
				"element": "O" 
			},
			{
				"x": -0.3461786206,
				"y": -0.8500137731,
				"z": 0.956982723,
				"element": "C" 
			},
			{
				"x": 0.9987646437,
				"y": -0.854120916,
				"z": 0.8147936305,
				"element": "C" 
			},
			{
				"x": 1.7049435925,
				"y": -0.6882518896,
				"z": -0.4240443761,
				"element": "C" 
			},
			{
				"x": 3.0512886377,
				"y": -0.6692007057,
				"z": -0.7155862215,
				"element": "C" 
			},
			{
				"x": 3.1696191072,
				"y": -0.4435404898,
				"z": -2.1079256588,
				"element": "C" 
			},
			{
				"x": 1.8893580778,
				"y": -0.3407825796,
				"z": -2.6093499559,
				"element": "C" 
			},
			{
				"x": 0.9970512151,
				"y": -0.494477541,
				"z": -1.5759026066,
				"element": "O" 
			},
			{
				"x": 1.275101575,
				"y": -0.2198299925,
				"z": -3.931349937,
				"element": "C" 
			},
			{
				"x": 1.9273933713,
				"y": 0.1086475772,
				"z": -5.1440486706,
				"element": "C" 
			},
			{
				"x": 1.268298267,
				"y": 0.0864456127,
				"z": -6.3738501557,
				"element": "C" 
			},
			{
				"x": -0.0854141828,
				"y": -0.2204474598,
				"z": -6.4397291787,
				"element": "C" 
			},
			{
				"x": -0.7671023512,
				"y": -0.5250531488,
				"z": -5.2603013122,
				"element": "C" 
			},
			{
				"x": -0.0972695898,
				"y": -0.5363777197,
				"z": -4.042714636,
				"element": "C" 
			},
			{
				"x": 3.3324835682,
				"y": 0.5455259171,
				"z": -5.2116044937,
				"element": "N" 
			},
			{
				"x": 3.9800357744,
				"y": 0.2095313146,
				"z": -6.2024027459,
				"element": "O" 
			},
			{
				"x": 3.7637787466,
				"y": 1.2539554354,
				"z": -4.3026333919,
				"element": "O" 
			},
			{
				"x": 2.620122795,
				"y": -0.5156286711,
				"z": 8.6758917922,
				"element": "H" 
			},
			{
				"x": 2.6458293318,
				"y": -1.7351912953,
				"z": 7.373429967,
				"element": "H" 
			},
			{
				"x": 3.0392467376,
				"y": -0.0290776012,
				"z": 7.0058391267,
				"element": "H" 
			},
			{
				"x": 2.2858765433,
				"y": 3.0611063769,
				"z": 6.1567341188,
				"element": "H" 
			},
			{
				"x": 1.1394879372,
				"y": 2.0459410541,
				"z": 7.0811395441,
				"element": "H" 
			},
			{
				"x": 0.6073926016,
				"y": 2.8630523557,
				"z": 5.5816108227,
				"element": "H" 
			},
			{
				"x": 0.81573635,
				"y": 0.7442904559,
				"z": 3.030773102,
				"element": "H" 
			},
			{
				"x": -1.6925514021,
				"y": -2.4648965204,
				"z": 4.4177068662,
				"element": "H" 
			},
			{
				"x": -0.7361720943,
				"y": -2.1710910026,
				"z": 6.724121791,
				"element": "H" 
			},
			{
				"x": -0.9841043217,
				"y": -0.7493808573,
				"z": 0.0833400279,
				"element": "H" 
			},
			{
				"x": 1.6385734705,
				"y": -1.0149246092,
				"z": 1.6776711746,
				"element": "H" 
			},
			{
				"x": 3.8560847993,
				"y": -0.7939350194,
				"z": -0.005186617,
				"element": "H" 
			},
			{
				"x": 4.0862194103,
				"y": -0.352407566,
				"z": -2.6661021099,
				"element": "H" 
			},
			{
				"x": 1.8365155518,
				"y": 0.3283743525,
				"z": -7.2634559009,
				"element": "H" 
			},
			{
				"x": -0.5973494982,
				"y": -0.2200450379,
				"z": -7.3962056889,
				"element": "H" 
			},
			{
				"x": -1.8245389597,
				"y": -0.7697703846,
				"z": -5.2866069251,
				"element": "H" 
			},
			{
				"x": -0.6326373829,
				"y": -0.8098829165,
				"z": -3.1426883078,
				"element": "H" 
			}
		],
		 "valence_orbital": [ 
			{
				"type": "occ",
				"energy": -0.27449,
				"method": "rhf"
			},
			{
				"type": "occ",
				"energy": -0.25373,
				"method": "rhf"
			},
			{
				"type": "occ",
				"energy": -0.24696,
				"method": "rhf"
			},
			{
				"type": "occ",
				"energy": -0.23453,
				"method": "rhf"
			},
			{
				"type": "occ",
				"energy": -0.2167,
				"method": "rhf"
			},
			{
				"type": "unocc",
				"energy": -0.09702,
				"method": "rhf"
			},
			{
				"type": "unocc",
				"energy": -0.07651,
				"method": "rhf"
			},
			{
				"type": "unocc",
				"energy": -0.04137,
				"method": "rhf"
			},
			{
				"type": "unocc",
				"energy": -0.0195,
				"method": "rhf"
			},
			{
				"type": "unocc",
				"energy": -0.01369,
				"method": "rhf"
			}
		],
		"cosmo_sigma_profile": { 
			"-0.025": 0.0,
			"-0.024": 0.0,
			"-0.023": 0.0,
			"-0.022": 0.0,
			"-0.021": 0.0,
			"-0.02": 0.0,
			"-0.019": 0.0,
			"-0.018": 0.0,
			"-0.017": 0.0,
			"-0.016": 0.0,
			"-0.015": 0.0,
			"-0.014": 0.0,
			"-0.013": 0.0,
			"-0.012": 0.0,
			"-0.011": 0.0,
			"-0.01": 0.0706316414208,
			"-0.009": 1.11997503317,
			"-0.008": 7.17413778019,
			"-0.007": 14.6676373842,
			"-0.006": 21.5107775788,
			"-0.005": 27.544060345,
			"-0.004": 29.4844403337,
			"-0.003": 35.1750062872,
			"-0.002": 33.4034871963,
			"-0.001": 32.9200678564,
			"0.0": 36.8636441398,
			"0.001": 39.9685873969,
			"0.002": 35.0921747676,
			"0.003": 22.2198935274,
			"0.004": 12.4816057913,
			"0.005": 7.3637987238,
			"0.006": 8.6950783552,
			"0.007": 12.2967610882,
			"0.008": 10.5981990554,
			"0.009": 7.28105417777,
			"0.01": 5.26577266271,
			"0.011": 4.30221075418,
			"0.012": 4.39705372915,
			"0.013": 3.49257841529,
			"0.014": 0.693960592795,
			"0.015": 0.0,
			"0.016": 0.0,
			"0.017": 0.0,
			"0.018": 0.0,
			"0.019": 0.0,
			"0.02": 0.0,
			"0.021": 0.0,
			"0.022": 0.0,
			"0.023": 0.0,
			"0.024": 0.0,
			"0.025": 0.0
		}
	}
}
