{
	 "smiles": "OC(CCl)C1=C(Cl)C=C(Cl)C=C1", 
	 "Tm": 323.15, 
	 "num_atms": 19, 
	 "gaussian": { 
		 "optdone": 1, 
		 "sigma_profile": "yes", 
		 "theory": "DFT", 
		 "functional": "B3LYP", 
		 "basiset": "6-31G**", 
		 "properties": { 
			 "R2extent": 4033.0057, 
			 "electric_dipole_moment_norm": 0.923098423788, 
			 "electric_quadrupole_moment_norm": 6.79671499476, 
			 "total_energy": -1764.86843874, 
			 "HOMO_LUMO_gap": 0.22354, 
			 "cosmo_polarized_energy": -8.03, 
			 "cosmo_cavitation_energy": 27.66, 
			 "cosmo_dispersion_energy": -20.5, 
			 "cosmo_repulsion_energy": 1.64, 
			 "cosmo_total_nonelectrostatic_energy": 8.8, 
			 "SMD_solvation_energy": 3.7 
		},
		"coords": [
			{
				"x": 2.2988880508,
				"y": 0.6986446475,
				"z": -0.8521937491,
				"element": "O" 
			},
			{
				"x": 2.0896497215,
				"y": -0.3096364986,
				"z": 0.1143736062,
				"element": "C" 
			},
			{
				"x": 2.4208292964,
				"y": -1.6956375021,
				"z": -0.4603841575,
				"element": "C" 
			},
			{
				"x": 1.3998462366,
				"y": -2.0656536525,
				"z": -1.9243976077,
				"element": "Cl" 
			},
			{
				"x": 0.7054908457,
				"y": -0.2336563941,
				"z": 0.7575571995,
				"element": "C" 
			},
			{
				"x": 0.4055020665,
				"y": -0.8465124145,
				"z": 1.98197258,
				"element": "C" 
			},
			{
				"x": 1.648333882,
				"y": -1.7318044844,
				"z": 2.8720944091,
				"element": "Cl" 
			},
			{
				"x": -0.858777189,
				"y": -0.7750611392,
				"z": 2.5647278182,
				"element": "C" 
			},
			{
				"x": -1.8565122259,
				"y": -0.0623696893,
				"z": 1.9037323103,
				"element": "C" 
			},
			{
				"x": -3.4538791498,
				"y": 0.0363181154,
				"z": 2.6217442461,
				"element": "Cl" 
			},
			{
				"x": -1.5989300351,
				"y": 0.5783290981,
				"z": 0.6938823799,
				"element": "C" 
			},
			{
				"x": -0.3232054718,
				"y": 0.4883902375,
				"z": 0.1424111012,
				"element": "C" 
			},
			{
				"x": 1.9265397097,
				"y": 0.3826147398,
				"z": -1.6896051777,
				"element": "H" 
			},
			{
				"x": 2.8370703984,
				"y": -0.1344905269,
				"z": 0.8988629127,
				"element": "H" 
			},
			{
				"x": 2.2449785394,
				"y": -2.4947236594,
				"z": 0.2570262309,
				"element": "H" 
			},
			{
				"x": 3.4556300426,
				"y": -1.7174337168,
				"z": -0.8036173224,
				"element": "H" 
			},
			{
				"x": -1.0554464984,
				"y": -1.2590200195,
				"z": 3.5132591959,
				"element": "H" 
			},
			{
				"x": -2.3799167135,
				"y": 1.1418495607,
				"z": 0.1965218488,
				"element": "H" 
			},
			{
				"x": -0.1037915061,
				"y": 1.0106532984,
				"z": -0.7813678244,
				"element": "H" 
			}
		],
		 "valence_orbital": [ 
			{
				"type": "occ",
				"energy": -0.31865,
				"method": "rhf"
			},
			{
				"type": "occ",
				"energy": -0.31162,
				"method": "rhf"
			},
			{
				"type": "occ",
				"energy": -0.29588,
				"method": "rhf"
			},
			{
				"type": "occ",
				"energy": -0.26839,
				"method": "rhf"
			},
			{
				"type": "occ",
				"energy": -0.25477,
				"method": "rhf"
			},
			{
				"type": "unocc",
				"energy": -0.03123,
				"method": "rhf"
			},
			{
				"type": "unocc",
				"energy": -0.02888,
				"method": "rhf"
			},
			{
				"type": "unocc",
				"energy": -0.00067,
				"method": "rhf"
			},
			{
				"type": "unocc",
				"energy": 0.01111,
				"method": "rhf"
			},
			{
				"type": "unocc",
				"energy": 0.04226,
				"method": "rhf"
			}
		],
		"cosmo_sigma_profile": { 
			"-0.025": 0.0,
			"-0.024": 0.0,
			"-0.023": 0.0,
			"-0.022": 0.0,
			"-0.021": 0.0,
			"-0.02": 0.0,
			"-0.019": 0.0,
			"-0.018": 0.0,
			"-0.017": 0.0,
			"-0.016": 0.0,
			"-0.015": 0.0,
			"-0.014": 0.0,
			"-0.013": 0.480783709819,
			"-0.012": 0.70011277264,
			"-0.011": 1.06628963288,
			"-0.01": 1.02998593405,
			"-0.009": 0.895284963513,
			"-0.008": 5.4945740009,
			"-0.007": 10.7366848429,
			"-0.006": 11.5134914727,
			"-0.005": 10.5817021094,
			"-0.004": 11.6521655748,
			"-0.003": 10.3161460293,
			"-0.002": 12.4799500843,
			"-0.001": 13.6247893866,
			"0.0": 18.9488966699,
			"0.001": 25.509315993,
			"0.002": 24.9721160104,
			"0.003": 21.2225145637,
			"0.004": 20.9529769901,
			"0.005": 10.0324332136,
			"0.006": 6.62219497537,
			"0.007": 1.18331486992,
			"0.008": 0.99546972456,
			"0.009": 0.50590357611,
			"0.01": 1.21228707131,
			"0.011": 1.46181825776,
			"0.012": 1.66103350582,
			"0.013": 1.41678307057,
			"0.014": 0.0,
			"0.015": 0.0,
			"0.016": 0.0,
			"0.017": 0.0,
			"0.018": 0.0,
			"0.019": 0.0,
			"0.02": 0.0,
			"0.021": 0.0,
			"0.022": 0.0,
			"0.023": 0.0,
			"0.024": 0.0,
			"0.025": 0.0
		}
	}
}
