{
	 "smiles": "CC1CCC1", 
	 "Tm": 111.15, 
	 "num_atms": 15, 
	 "gaussian": { 
		 "optdone": 1, 
		 "sigma_profile": "yes", 
		 "theory": "DFT", 
		 "functional": "B3LYP", 
		 "basiset": "6-31G**", 
		 "properties": { 
			 "R2extent": 484.996, 
			 "electric_dipole_moment_norm": 0.0602313041532, 
			 "electric_quadrupole_moment_norm": 0.775964296859, 
			 "total_energy": -196.539093167, 
			 "HOMO_LUMO_gap": 0.37835, 
			 "cosmo_polarized_energy": -0.51, 
			 "cosmo_cavitation_energy": 16.38, 
			 "cosmo_dispersion_energy": -12.45, 
			 "cosmo_repulsion_energy": 1.11, 
			 "cosmo_total_nonelectrostatic_energy": 5.04, 
			 "SMD_solvation_energy": 2.53 
		},
		"coords": [
			{
				"x": -0.0694855923,
				"y": 1.4955911951,
				"z": 0.8451912047,
				"element": "C" 
			},
			{
				"x": 1.0378179505,
				"y": 0.5898455297,
				"z": 0.3108450451,
				"element": "C" 
			},
			{
				"x": 0.8180922559,
				"y": -0.9277299706,
				"z": 0.5961995223,
				"element": "C" 
			},
			{
				"x": 0.3229869408,
				"y": -1.1116457228,
				"z": -0.8645405214,
				"element": "C" 
			},
			{
				"x": 0.9289608194,
				"y": 0.275493616,
				"z": -1.2129915717,
				"element": "C" 
			},
			{
				"x": 0.0389234047,
				"y": 2.5187269242,
				"z": 0.4671052245,
				"element": "H" 
			},
			{
				"x": -0.051861233,
				"y": 1.5387056469,
				"z": 1.940333156,
				"element": "H" 
			},
			{
				"x": -1.0605637828,
				"y": 1.1351247826,
				"z": 0.5442775661,
				"element": "H" 
			},
			{
				"x": 2.0111641227,
				"y": 0.9800944842,
				"z": 0.6300362253,
				"element": "H" 
			},
			{
				"x": 0.1173636344,
				"y": -1.1803041848,
				"z": 1.3992083426,
				"element": "H" 
			},
			{
				"x": 1.7588701465,
				"y": -1.454833369,
				"z": 0.7836743309,
				"element": "H" 
			},
			{
				"x": 0.705684764,
				"y": -1.9755921295,
				"z": -1.4156497983,
				"element": "H" 
			},
			{
				"x": -0.768777467,
				"y": -1.1197999738,
				"z": -0.9368003639,
				"element": "H" 
			},
			{
				"x": 1.9104118884,
				"y": 0.1902870697,
				"z": -1.6900122817,
				"element": "H" 
			},
			{
				"x": 0.3141121477,
				"y": 0.955536102,
				"z": -1.8122760804,
				"element": "H" 
			}
		],
		 "valence_orbital": [ 
			{
				"type": "occ",
				"energy": -0.36469,
				"method": "rhf"
			},
			{
				"type": "occ",
				"energy": -0.32777,
				"method": "rhf"
			},
			{
				"type": "occ",
				"energy": -0.3058,
				"method": "rhf"
			},
			{
				"type": "occ",
				"energy": -0.29064,
				"method": "rhf"
			},
			{
				"type": "occ",
				"energy": -0.28809,
				"method": "rhf"
			},
			{
				"type": "unocc",
				"energy": 0.09026,
				"method": "rhf"
			},
			{
				"type": "unocc",
				"energy": 0.10309,
				"method": "rhf"
			},
			{
				"type": "unocc",
				"energy": 0.12991,
				"method": "rhf"
			},
			{
				"type": "unocc",
				"energy": 0.14325,
				"method": "rhf"
			},
			{
				"type": "unocc",
				"energy": 0.15516,
				"method": "rhf"
			}
		],
		"cosmo_sigma_profile": { 
			"-0.025": 0.0,
			"-0.024": 0.0,
			"-0.023": 0.0,
			"-0.022": 0.0,
			"-0.021": 0.0,
			"-0.02": 0.0,
			"-0.019": 0.0,
			"-0.018": 0.0,
			"-0.017": 0.0,
			"-0.016": 0.0,
			"-0.015": 0.0,
			"-0.014": 0.0,
			"-0.013": 0.0,
			"-0.012": 0.0,
			"-0.011": 0.0,
			"-0.01": 0.0,
			"-0.009": 0.0,
			"-0.008": 0.0,
			"-0.007": 0.0,
			"-0.006": 0.0,
			"-0.005": 0.0,
			"-0.004": 0.0,
			"-0.003": 4.60594092352,
			"-0.002": 19.2121164227,
			"-0.001": 23.3283350984,
			"0.0": 29.4105583299,
			"0.001": 26.5300281182,
			"0.002": 19.3727374391,
			"0.003": 3.99274589111,
			"0.004": 0.0,
			"0.005": 0.0,
			"0.006": 0.0,
			"0.007": 0.0,
			"0.008": 0.0,
			"0.009": 0.0,
			"0.01": 0.0,
			"0.011": 0.0,
			"0.012": 0.0,
			"0.013": 0.0,
			"0.014": 0.0,
			"0.015": 0.0,
			"0.016": 0.0,
			"0.017": 0.0,
			"0.018": 0.0,
			"0.019": 0.0,
			"0.02": 0.0,
			"0.021": 0.0,
			"0.022": 0.0,
			"0.023": 0.0,
			"0.024": 0.0,
			"0.025": 0.0
		}
	}
}
