{
	 "smiles": "ClC1=C2CCCCCC2=NC=N1", 
	 "Tm": 324.15, 
	 "num_atms": 23, 
	 "gaussian": { 
		 "optdone": 1, 
		 "sigma_profile": "yes", 
		 "theory": "DFT", 
		 "functional": "B3LYP", 
		 "basiset": "6-31G**", 
		 "properties": { 
			 "R2extent": 2523.3026, 
			 "electric_dipole_moment_norm": 3.29945977093, 
			 "electric_quadrupole_moment_norm": 4.84113393225, 
			 "total_energy": -919.292306379, 
			 "HOMO_LUMO_gap": 0.21718, 
			 "cosmo_polarized_energy": -6.63, 
			 "cosmo_cavitation_energy": 26.08, 
			 "cosmo_dispersion_energy": -19.97, 
			 "cosmo_repulsion_energy": 1.58, 
			 "cosmo_total_nonelectrostatic_energy": 7.69, 
			 "SMD_solvation_energy": 0.67 
		},
		"coords": [
			{
				"x": 1.1670355159,
				"y": -2.3671201052,
				"z": 2.3283786343,
				"element": "Cl" 
			},
			{
				"x": -0.1710129209,
				"y": -1.5882772514,
				"z": 1.4756344108,
				"element": "C" 
			},
			{
				"x": 0.0644949953,
				"y": -0.4341841819,
				"z": 0.7047919886,
				"element": "C" 
			},
			{
				"x": 1.4688313228,
				"y": 0.1133381623,
				"z": 0.5212772309,
				"element": "C" 
			},
			{
				"x": 1.7296164999,
				"y": 0.8765052546,
				"z": -0.7886769048,
				"element": "C" 
			},
			{
				"x": 1.2414391737,
				"y": 2.3327944825,
				"z": -0.7867797054,
				"element": "C" 
			},
			{
				"x": -0.1734572112,
				"y": 2.5055596068,
				"z": -0.2114414439,
				"element": "C" 
			},
			{
				"x": -1.1580882311,
				"y": 1.4116208194,
				"z": -0.6542820841,
				"element": "C" 
			},
			{
				"x": -1.1093205205,
				"y": 0.1201855226,
				"z": 0.1441324064,
				"element": "C" 
			},
			{
				"x": -2.3141415187,
				"y": -0.4621772999,
				"z": 0.3033958522,
				"element": "N" 
			},
			{
				"x": -2.3689903062,
				"y": -1.5758183058,
				"z": 1.0236276612,
				"element": "C" 
			},
			{
				"x": -1.3441973514,
				"y": -2.1687166894,
				"z": 1.6435174719,
				"element": "N" 
			},
			{
				"x": 1.7308907717,
				"y": 0.7458780545,
				"z": 1.3818421621,
				"element": "H" 
			},
			{
				"x": 2.1557653086,
				"y": -0.7349282248,
				"z": 0.5729086771,
				"element": "H" 
			},
			{
				"x": 2.8074502035,
				"y": 0.8638305106,
				"z": -0.9863642833,
				"element": "H" 
			},
			{
				"x": 1.2697768925,
				"y": 0.3239516088,
				"z": -1.617177511,
				"element": "H" 
			},
			{
				"x": 1.2687084773,
				"y": 2.7128347076,
				"z": -1.8159213508,
				"element": "H" 
			},
			{
				"x": 1.9398093527,
				"y": 2.9542535156,
				"z": -0.2121604563,
				"element": "H" 
			},
			{
				"x": -0.5682793366,
				"y": 3.482353725,
				"z": -0.5123240953,
				"element": "H" 
			},
			{
				"x": -0.1357824351,
				"y": 2.5241456411,
				"z": 0.8849031315,
				"element": "H" 
			},
			{
				"x": -2.1892917292,
				"y": 1.7640368945,
				"z": -0.5688930616,
				"element": "H" 
			},
			{
				"x": -1.0129182843,
				"y": 1.1809588761,
				"z": -1.7194043625,
				"element": "H" 
			},
			{
				"x": -3.3421386688,
				"y": -2.0493253237,
				"z": 1.1347156318,
				"element": "H" 
			}
		],
		 "valence_orbital": [ 
			{
				"type": "occ",
				"energy": -0.31375,
				"method": "rhf"
			},
			{
				"type": "occ",
				"energy": -0.3058,
				"method": "rhf"
			},
			{
				"type": "occ",
				"energy": -0.29505,
				"method": "rhf"
			},
			{
				"type": "occ",
				"energy": -0.26856,
				"method": "rhf"
			},
			{
				"type": "occ",
				"energy": -0.25872,
				"method": "rhf"
			},
			{
				"type": "unocc",
				"energy": -0.04154,
				"method": "rhf"
			},
			{
				"type": "unocc",
				"energy": -0.03268,
				"method": "rhf"
			},
			{
				"type": "unocc",
				"energy": 0.02963,
				"method": "rhf"
			},
			{
				"type": "unocc",
				"energy": 0.07487,
				"method": "rhf"
			},
			{
				"type": "unocc",
				"energy": 0.1016,
				"method": "rhf"
			}
		],
		"cosmo_sigma_profile": { 
			"-0.025": 0.0,
			"-0.024": 0.0,
			"-0.023": 0.0,
			"-0.022": 0.0,
			"-0.021": 0.0,
			"-0.02": 0.0,
			"-0.019": 0.0,
			"-0.018": 0.0,
			"-0.017": 0.0,
			"-0.016": 0.0,
			"-0.015": 0.0,
			"-0.014": 0.0,
			"-0.013": 0.0,
			"-0.012": 0.0,
			"-0.011": 0.0,
			"-0.01": 0.0,
			"-0.009": 0.0,
			"-0.008": 1.12340189217,
			"-0.007": 2.10293382265,
			"-0.006": 1.22036807101,
			"-0.005": 4.66219699613,
			"-0.004": 13.662031598,
			"-0.003": 27.592973178,
			"-0.002": 39.1393351062,
			"-0.001": 32.0753195417,
			"0.0": 21.9986707449,
			"0.001": 12.6165814542,
			"0.002": 8.86680871399,
			"0.003": 9.03299659755,
			"0.004": 8.62157974429,
			"0.005": 5.24355257042,
			"0.006": 3.44643778473,
			"0.007": 2.749315496,
			"0.008": 2.59730632038,
			"0.009": 1.98341630865,
			"0.01": 2.14495223683,
			"0.011": 1.92739492784,
			"0.012": 1.79267163201,
			"0.013": 1.33105295144,
			"0.014": 1.3581121774,
			"0.015": 0.342269556433,
			"0.016": 0.0,
			"0.017": 0.0,
			"0.018": 0.0,
			"0.019": 0.0,
			"0.02": 0.0,
			"0.021": 0.0,
			"0.022": 0.0,
			"0.023": 0.0,
			"0.024": 0.0,
			"0.025": 0.0
		}
	}
}
