{
	 "smiles": "ClC1=C(C=CC=N1)C(=O)NC1=CC=C(Br)C=C1", 
	 "Tm": 424.15, 
	 "num_atms": 25, 
	 "gaussian": { 
		 "optdone": 1, 
		 "sigma_profile": "yes", 
		 "theory": "DFT", 
		 "functional": "B3LYP", 
		 "basiset": "6-31G**", 
		 "properties": { 
			 "R2extent": 7174.95, 
			 "electric_dipole_moment_norm": 2.50788542601, 
			 "electric_quadrupole_moment_norm": 29.5650975246, 
			 "total_energy": -3678.42278121, 
			 "HOMO_LUMO_gap": 0.17594, 
			 "cosmo_polarized_energy": -15.29, 
			 "cosmo_cavitation_energy": 34.27, 
			 "cosmo_dispersion_energy": -24.31, 
			 "cosmo_repulsion_energy": 1.91, 
			 "cosmo_total_nonelectrostatic_energy": 11.87, 
			 "SMD_solvation_energy": 3.63 
		},
		"coords": [
			{
				"x": 3.5887324077,
				"y": -0.4154004839,
				"z": 0.9246518001,
				"element": "Cl" 
			},
			{
				"x": 2.9663214942,
				"y": 1.1498633655,
				"z": 1.4356506998,
				"element": "C" 
			},
			{
				"x": 1.9005801485,
				"y": 1.2218519325,
				"z": 2.3502610403,
				"element": "C" 
			},
			{
				"x": 1.5544500881,
				"y": 2.5019579839,
				"z": 2.7986762073,
				"element": "C" 
			},
			{
				"x": 2.2021083414,
				"y": 3.6203879334,
				"z": 2.281865851,
				"element": "C" 
			},
			{
				"x": 3.2104001474,
				"y": 3.4159519046,
				"z": 1.3419476249,
				"element": "C" 
			},
			{
				"x": 3.597361273,
				"y": 2.1989618882,
				"z": 0.9400978117,
				"element": "N" 
			},
			{
				"x": 1.2101064843,
				"y": 0.0496261984,
				"z": 2.998270238,
				"element": "C" 
			},
			{
				"x": 1.2161476125,
				"y": -0.0588327032,
				"z": 4.2176183526,
				"element": "O" 
			},
			{
				"x": 0.5620817033,
				"y": -0.880211269,
				"z": 2.2171529571,
				"element": "N" 
			},
			{
				"x": 0.2287765058,
				"y": -0.888977465,
				"z": 0.8431462185,
				"element": "C" 
			},
			{
				"x": 0.2108140726,
				"y": -2.1192792693,
				"z": 0.1711325024,
				"element": "C" 
			},
			{
				"x": -0.1570522976,
				"y": -2.1924385641,
				"z": -1.1693698464,
				"element": "C" 
			},
			{
				"x": -0.4945295088,
				"y": -1.0238249216,
				"z": -1.8506323516,
				"element": "C" 
			},
			{
				"x": -0.9868058588,
				"y": -1.1131736168,
				"z": -3.6932813205,
				"element": "Br" 
			},
			{
				"x": -0.4854591358,
				"y": 0.2069385834,
				"z": -1.1980426029,
				"element": "C" 
			},
			{
				"x": -0.1404236022,
				"y": 0.2720531255,
				"z": 0.1509800542,
				"element": "C" 
			},
			{
				"x": 0.7784362492,
				"y": 2.5987870362,
				"z": 3.5514866496,
				"element": "H" 
			},
			{
				"x": 1.9400346092,
				"y": 4.6222088566,
				"z": 2.6044638174,
				"element": "H" 
			},
			{
				"x": 3.7434696016,
				"y": 4.2541068986,
				"z": 0.8990058228,
				"element": "H" 
			},
			{
				"x": 0.2570942479,
				"y": -1.6762150282,
				"z": 2.7648320784,
				"element": "H" 
			},
			{
				"x": 0.4987949649,
				"y": -3.0231173906,
				"z": 0.7002902105,
				"element": "H" 
			},
			{
				"x": -0.168752324,
				"y": -3.1472636385,
				"z": -1.6821674166,
				"element": "H" 
			},
			{
				"x": -0.7656539148,
				"y": 1.108301437,
				"z": -1.7308901878,
				"element": "H" 
			},
			{
				"x": -0.1732333096,
				"y": 1.2264372064,
				"z": 0.6624537891,
				"element": "H" 
			}
		],
		 "valence_orbital": [ 
			{
				"type": "occ",
				"energy": -0.28808,
				"method": "rhf"
			},
			{
				"type": "occ",
				"energy": -0.27772,
				"method": "rhf"
			},
			{
				"type": "occ",
				"energy": -0.27123,
				"method": "rhf"
			},
			{
				"type": "occ",
				"energy": -0.26155,
				"method": "rhf"
			},
			{
				"type": "occ",
				"energy": -0.23272,
				"method": "rhf"
			},
			{
				"type": "unocc",
				"energy": -0.05678,
				"method": "rhf"
			},
			{
				"type": "unocc",
				"energy": -0.04375,
				"method": "rhf"
			},
			{
				"type": "unocc",
				"energy": -0.02511,
				"method": "rhf"
			},
			{
				"type": "unocc",
				"energy": -0.02341,
				"method": "rhf"
			},
			{
				"type": "unocc",
				"energy": 0.00219,
				"method": "rhf"
			}
		],
		"cosmo_sigma_profile": { 
			"-0.025": 0.0,
			"-0.024": 0.0,
			"-0.023": 0.0,
			"-0.022": 0.0,
			"-0.021": 0.0,
			"-0.02": 0.0,
			"-0.019": 0.0,
			"-0.018": 0.0,
			"-0.017": 0.0,
			"-0.016": 0.0,
			"-0.015": 0.875114837317,
			"-0.014": 1.04694587859,
			"-0.013": 1.03909714954,
			"-0.012": 1.28672765669,
			"-0.011": 1.43273852878,
			"-0.01": 0.887647264919,
			"-0.009": 1.95240512501,
			"-0.008": 8.69944232831,
			"-0.007": 16.0866673476,
			"-0.006": 15.7095667979,
			"-0.005": 12.5230384245,
			"-0.004": 11.1773506582,
			"-0.003": 13.7601794231,
			"-0.002": 16.5485319935,
			"-0.001": 18.5723938488,
			"0.0": 23.3246007653,
			"0.001": 23.6210033169,
			"0.002": 25.4227880863,
			"0.003": 26.4463622561,
			"0.004": 22.2347204692,
			"0.005": 10.2230130153,
			"0.006": 4.55713847674,
			"0.007": 2.91318316909,
			"0.008": 1.98550770814,
			"0.009": 1.76739457682,
			"0.01": 3.71400164921,
			"0.011": 3.24480674982,
			"0.012": 5.31991866058,
			"0.013": 4.19204955369,
			"0.014": 0.618080018368,
			"0.015": 0.0414948387236,
			"0.016": 0.0,
			"0.017": 0.0,
			"0.018": 0.0,
			"0.019": 0.0,
			"0.02": 0.0,
			"0.021": 0.0,
			"0.022": 0.0,
			"0.023": 0.0,
			"0.024": 0.0,
			"0.025": 0.0
		}
	}
}
