{
	 "smiles": "OC(=O)C1CCCCC1C(=O)N1CCC2=C1C=CC=C2", 
	 "Tm": 397.15, 
	 "num_atms": 39, 
	 "gaussian": { 
		 "optdone": 1, 
		 "sigma_profile": "yes", 
		 "theory": "DFT", 
		 "functional": "B3LYP", 
		 "basiset": "6-31G**", 
		 "properties": { 
			 "R2extent": 6395.5917, 
			 "electric_dipole_moment_norm": 5.74296383934, 
			 "electric_quadrupole_moment_norm": 17.4627125639, 
			 "total_energy": -901.615999946, 
			 "HOMO_LUMO_gap": 0.19729, 
			 "cosmo_polarized_energy": -22.67, 
			 "cosmo_cavitation_energy": 39.22, 
			 "cosmo_dispersion_energy": -27.65, 
			 "cosmo_repulsion_energy": 2.11, 
			 "cosmo_total_nonelectrostatic_energy": 13.68, 
			 "SMD_solvation_energy": 6.36 
		},
		"coords": [
			{
				"x": -1.5595606173,
				"y": 1.8799149043,
				"z": -1.8267386111,
				"element": "O" 
			},
			{
				"x": -0.9746632333,
				"y": 2.5181208293,
				"z": -0.7622972351,
				"element": "C" 
			},
			{
				"x": -1.6720068542,
				"y": 3.036378575,
				"z": 0.0702494749,
				"element": "O" 
			},
			{
				"x": 0.5529909647,
				"y": 2.4858913473,
				"z": -0.7224571577,
				"element": "C" 
			},
			{
				"x": 1.1768527397,
				"y": 3.0849279081,
				"z": -2.0033142651,
				"element": "C" 
			},
			{
				"x": 2.7097199843,
				"y": 3.0597918984,
				"z": -1.957118594,
				"element": "C" 
			},
			{
				"x": 3.2253344554,
				"y": 1.6338946727,
				"z": -1.728596448,
				"element": "C" 
			},
			{
				"x": 2.6315842342,
				"y": 1.0283762913,
				"z": -0.4514443465,
				"element": "C" 
			},
			{
				"x": 1.0855417419,
				"y": 1.0472393003,
				"z": -0.4411645785,
				"element": "C" 
			},
			{
				"x": 0.6086954331,
				"y": 0.5840942742,
				"z": 0.9473333421,
				"element": "C" 
			},
			{
				"x": 1.0548846048,
				"y": 1.1459899296,
				"z": 1.9444260954,
				"element": "O" 
			},
			{
				"x": -0.2883356351,
				"y": -0.4529798229,
				"z": 1.0208026906,
				"element": "N" 
			},
			{
				"x": -0.8669084943,
				"y": -1.1801044084,
				"z": -0.1395457063,
				"element": "C" 
			},
			{
				"x": -1.9609497087,
				"y": -2.0952889392,
				"z": 0.4613019418,
				"element": "C" 
			},
			{
				"x": -1.7026807811,
				"y": -2.02915958,
				"z": 1.9474305047,
				"element": "C" 
			},
			{
				"x": -0.7544807191,
				"y": -1.0369186811,
				"z": 2.2302519277,
				"element": "C" 
			},
			{
				"x": -0.3800643443,
				"y": -0.7483080186,
				"z": 3.5451891679,
				"element": "C" 
			},
			{
				"x": -0.9745300724,
				"y": -1.4925074528,
				"z": 4.5695538284,
				"element": "C" 
			},
			{
				"x": -1.9135671819,
				"y": -2.4897818764,
				"z": 4.2981318651,
				"element": "C" 
			},
			{
				"x": -2.2845818258,
				"y": -2.7590430117,
				"z": 2.9759761553,
				"element": "C" 
			},
			{
				"x": -0.880316944,
				"y": 1.5815874937,
				"z": -2.4484515537,
				"element": "H" 
			},
			{
				"x": 0.8294465124,
				"y": 3.1043533952,
				"z": 0.1361351752,
				"element": "H" 
			},
			{
				"x": 0.8516346266,
				"y": 2.5179632757,
				"z": -2.8903266432,
				"element": "H" 
			},
			{
				"x": 0.8086610449,
				"y": 4.1078005547,
				"z": -2.1414558339,
				"element": "H" 
			},
			{
				"x": 3.1149910004,
				"y": 3.4735164691,
				"z": -2.8875352135,
				"element": "H" 
			},
			{
				"x": 3.0576895472,
				"y": 3.7105242059,
				"z": -1.1440038704,
				"element": "H" 
			},
			{
				"x": 2.9646143229,
				"y": 1.0095948948,
				"z": -2.5957893927,
				"element": "H" 
			},
			{
				"x": 4.319316435,
				"y": 1.6298695452,
				"z": -1.6630910608,
				"element": "H" 
			},
			{
				"x": 2.9769792186,
				"y": -0.004373486,
				"z": -0.322055738,
				"element": "H" 
			},
			{
				"x": 2.9750020175,
				"y": 1.5852325995,
				"z": 0.426569991,
				"element": "H" 
			},
			{
				"x": 0.7287604788,
				"y": 0.3774756202,
				"z": -1.2318881951,
				"element": "H" 
			},
			{
				"x": -0.0865373515,
				"y": -1.7713229804,
				"z": -0.6333665856,
				"element": "H" 
			},
			{
				"x": -1.2840146422,
				"y": -0.4765033751,
				"z": -0.8609978472,
				"element": "H" 
			},
			{
				"x": -2.9616615177,
				"y": -1.7169647612,
				"z": 0.2207044577,
				"element": "H" 
			},
			{
				"x": -1.8966100405,
				"y": -3.1121530491,
				"z": 0.0614836161,
				"element": "H" 
			},
			{
				"x": 0.341783755,
				"y": 0.0282755446,
				"z": 3.7496797665,
				"element": "H" 
			},
			{
				"x": -0.6941962428,
				"y": -1.2838432926,
				"z": 5.5980846745,
				"element": "H" 
			},
			{
				"x": -2.3592694879,
				"y": -3.0539475217,
				"z": 5.11187875,
				"element": "H" 
			},
			{
				"x": -3.020547423,
				"y": -3.5278132723,
				"z": 2.7552554515,
				"element": "H" 
			}
		],
		 "valence_orbital": [ 
			{
				"type": "occ",
				"energy": -0.2912,
				"method": "rhf"
			},
			{
				"type": "occ",
				"energy": -0.26567,
				"method": "rhf"
			},
			{
				"type": "occ",
				"energy": -0.24991,
				"method": "rhf"
			},
			{
				"type": "occ",
				"energy": -0.24252,
				"method": "rhf"
			},
			{
				"type": "occ",
				"energy": -0.20954,
				"method": "rhf"
			},
			{
				"type": "unocc",
				"energy": -0.01225,
				"method": "rhf"
			},
			{
				"type": "unocc",
				"energy": 0.00106,
				"method": "rhf"
			},
			{
				"type": "unocc",
				"energy": 0.00564,
				"method": "rhf"
			},
			{
				"type": "unocc",
				"energy": 0.03474,
				"method": "rhf"
			},
			{
				"type": "unocc",
				"energy": 0.04172,
				"method": "rhf"
			}
		],
		"cosmo_sigma_profile": { 
			"-0.025": 0.0,
			"-0.024": 0.0,
			"-0.023": 0.0,
			"-0.022": 0.0,
			"-0.021": 0.0,
			"-0.02": 0.0,
			"-0.019": 0.0,
			"-0.018": 0.19444254819,
			"-0.017": 1.18065463091,
			"-0.016": 1.02224877563,
			"-0.015": 1.36405448457,
			"-0.014": 1.34043294087,
			"-0.013": 0.898211574503,
			"-0.012": 1.68483987385,
			"-0.011": 1.20580794146,
			"-0.01": 0.743034085692,
			"-0.009": 1.06513179092,
			"-0.008": 1.2604683183,
			"-0.007": 1.95182126923,
			"-0.006": 9.24706123803,
			"-0.005": 22.6577991491,
			"-0.004": 29.4724986218,
			"-0.003": 37.111324514,
			"-0.002": 33.0667571232,
			"-0.001": 29.5034034323,
			"0.0": 18.6881389489,
			"0.001": 15.4158101094,
			"0.002": 10.0449483562,
			"0.003": 11.8232433043,
			"0.004": 13.5719146543,
			"0.005": 13.0550020846,
			"0.006": 10.9603344706,
			"0.007": 4.98859733543,
			"0.008": 4.42149451259,
			"0.009": 4.64259243424,
			"0.01": 6.18354082278,
			"0.011": 7.02135350755,
			"0.012": 7.53543248806,
			"0.013": 3.61055191359,
			"0.014": 0.98133811079,
			"0.015": 0.0,
			"0.016": 0.0,
			"0.017": 0.0,
			"0.018": 0.0,
			"0.019": 0.0,
			"0.02": 0.0,
			"0.021": 0.0,
			"0.022": 0.0,
			"0.023": 0.0,
			"0.024": 0.0,
			"0.025": 0.0
		}
	}
}
