{
	 "smiles": "NC(CC(O)=O)C(F)(F)F", 
	 "Tm": 461.15, 
	 "num_atms": 16, 
	 "gaussian": { 
		 "optdone": 1, 
		 "sigma_profile": "yes", 
		 "theory": "DFT", 
		 "functional": "B3LYP", 
		 "basiset": "6-31G**", 
		 "properties": { 
			 "R2extent": 1484.6255, 
			 "electric_dipole_moment_norm": 3.63094309925, 
			 "electric_quadrupole_moment_norm": 11.3358929419, 
			 "total_energy": -660.775198705, 
			 "HOMO_LUMO_gap": 0.24853, 
			 "cosmo_polarized_energy": -16.22, 
			 "cosmo_cavitation_energy": 20.86, 
			 "cosmo_dispersion_energy": -14.98, 
			 "cosmo_repulsion_energy": 1.18, 
			 "cosmo_total_nonelectrostatic_energy": 7.06, 
			 "SMD_solvation_energy": 4.46 
		},
		"coords": [
			{
				"x": -0.9135305703,
				"y": 0.5176534966,
				"z": 2.1446138044,
				"element": "N" 
			},
			{
				"x": 0.1354374454,
				"y": 0.6760817577,
				"z": 1.1575831599,
				"element": "C" 
			},
			{
				"x": -0.4421349994,
				"y": 0.8420325881,
				"z": -0.2594228174,
				"element": "C" 
			},
			{
				"x": -1.3252593902,
				"y": -0.305565751,
				"z": -0.7507536878,
				"element": "C" 
			},
			{
				"x": -1.3773476124,
				"y": -0.4630676586,
				"z": -2.0961496395,
				"element": "O" 
			},
			{
				"x": -1.9978131486,
				"y": -1.0133096015,
				"z": -0.0406588583,
				"element": "O" 
			},
			{
				"x": 1.2134416229,
				"y": -0.4158818184,
				"z": 1.1906297,
				"element": "C" 
			},
			{
				"x": 0.7491705832,
				"y": -1.6334135425,
				"z": 0.8481235902,
				"element": "F" 
			},
			{
				"x": 2.2305890489,
				"y": -0.1182816836,
				"z": 0.3426272789,
				"element": "F" 
			},
			{
				"x": 1.7402837865,
				"y": -0.5163126436,
				"z": 2.4317169707,
				"element": "F" 
			},
			{
				"x": -1.486759625,
				"y": -0.2885276045,
				"z": 1.9084602118,
				"element": "H" 
			},
			{
				"x": -0.5131008517,
				"y": 0.3842169712,
				"z": 3.0680617211,
				"element": "H" 
			},
			{
				"x": 0.6886593776,
				"y": 1.5970144213,
				"z": 1.3832744212,
				"element": "H" 
			},
			{
				"x": -1.0726700443,
				"y": 1.7390539327,
				"z": -0.2534008877,
				"element": "H" 
			},
			{
				"x": 0.3795606885,
				"y": 1.0227367095,
				"z": -0.9602736373,
				"element": "H" 
			},
			{
				"x": -0.773526311,
				"y": 0.1507704268,
				"z": -2.5367313302,
				"element": "H" 
			}
		],
		 "valence_orbital": [ 
			{
				"type": "occ",
				"energy": -0.37891,
				"method": "rhf"
			},
			{
				"type": "occ",
				"energy": -0.37674,
				"method": "rhf"
			},
			{
				"type": "occ",
				"energy": -0.3275,
				"method": "rhf"
			},
			{
				"type": "occ",
				"energy": -0.28602,
				"method": "rhf"
			},
			{
				"type": "occ",
				"energy": -0.25293,
				"method": "rhf"
			},
			{
				"type": "unocc",
				"energy": -0.0044,
				"method": "rhf"
			},
			{
				"type": "unocc",
				"energy": 0.04153,
				"method": "rhf"
			},
			{
				"type": "unocc",
				"energy": 0.08945,
				"method": "rhf"
			},
			{
				"type": "unocc",
				"energy": 0.1011,
				"method": "rhf"
			},
			{
				"type": "unocc",
				"energy": 0.12673,
				"method": "rhf"
			}
		],
		"cosmo_sigma_profile": { 
			"-0.025": 0.0,
			"-0.024": 0.0,
			"-0.023": 0.0,
			"-0.022": 0.0,
			"-0.021": 0.0,
			"-0.02": 0.0987302143361,
			"-0.019": 1.30680453171,
			"-0.018": 1.08469338323,
			"-0.017": 1.34280956175,
			"-0.016": 1.60977935653,
			"-0.015": 0.478965861679,
			"-0.014": 0.993391964689,
			"-0.013": 1.0050528189,
			"-0.012": 1.34721954427,
			"-0.011": 1.11856849679,
			"-0.01": 2.14145261001,
			"-0.009": 2.99185797581,
			"-0.008": 5.901988705,
			"-0.007": 9.46193437286,
			"-0.006": 9.8342350923,
			"-0.005": 7.17127855797,
			"-0.004": 5.6509554591,
			"-0.003": 5.17988000134,
			"-0.002": 5.30472094602,
			"-0.001": 4.26773708502,
			"0.0": 5.34396615139,
			"0.001": 8.46666121351,
			"0.002": 14.1605285668,
			"0.003": 27.8314758316,
			"0.004": 5.21582029726,
			"0.005": 3.96729650748,
			"0.006": 3.16122033367,
			"0.007": 3.76095063878,
			"0.008": 3.59124251133,
			"0.009": 4.54904702532,
			"0.01": 5.49239898142,
			"0.011": 3.83066693889,
			"0.012": 2.72696869548,
			"0.013": 1.20133685577,
			"0.014": 0.762522082548,
			"0.015": 0.713324617705,
			"0.016": 0.417325992086,
			"0.017": 0.388930909558,
			"0.018": 0.381990559074,
			"0.019": 0.0,
			"0.02": 0.0,
			"0.021": 0.0,
			"0.022": 0.0,
			"0.023": 0.0,
			"0.024": 0.0,
			"0.025": 0.0
		}
	}
}
