{
	 "smiles": "OCCCCCCN1C(=O)C2=C(C=CC=C2)C1=O", 
	 "Tm": 331.15, 
	 "num_atms": 35, 
	 "gaussian": { 
		 "optdone": 1, 
		 "sigma_profile": "yes", 
		 "theory": "DFT", 
		 "functional": "B3LYP", 
		 "basiset": "6-31G**", 
		 "properties": { 
			 "R2extent": 5186.2682, 
			 "electric_dipole_moment_norm": 2.39825764045, 
			 "electric_quadrupole_moment_norm": 20.0366781027, 
			 "total_energy": -824.187994506, 
			 "HOMO_LUMO_gap": 0.17542, 
			 "cosmo_polarized_energy": -14.7, 
			 "cosmo_cavitation_energy": 37.92, 
			 "cosmo_dispersion_energy": -25.61, 
			 "cosmo_repulsion_energy": 2.01, 
			 "cosmo_total_nonelectrostatic_energy": 14.32, 
			 "SMD_solvation_energy": 6.85 
		},
		"coords": [
			{
				"x": -0.7905054053,
				"y": 1.9165208067,
				"z": -4.390412572,
				"element": "O" 
			},
			{
				"x": -1.1151404941,
				"y": 1.4579235112,
				"z": -3.0813384163,
				"element": "C" 
			},
			{
				"x": -1.7463171934,
				"y": 0.0766436636,
				"z": -3.2295989486,
				"element": "C" 
			},
			{
				"x": -1.9738657966,
				"y": -0.7075337857,
				"z": -1.9255157904,
				"element": "C" 
			},
			{
				"x": -3.0161900225,
				"y": -0.1192555756,
				"z": -0.9482123948,
				"element": "C" 
			},
			{
				"x": -2.5283636122,
				"y": 0.9836146151,
				"z": 0.0163529561,
				"element": "C" 
			},
			{
				"x": -1.9058912901,
				"y": 0.4876307168,
				"z": 1.3309979698,
				"element": "C" 
			},
			{
				"x": -0.6746549168,
				"y": -0.2840777402,
				"z": 1.1793604371,
				"element": "N" 
			},
			{
				"x": 0.5645035611,
				"y": 0.2784564027,
				"z": 0.8409725445,
				"element": "C" 
			},
			{
				"x": 0.7596001574,
				"y": 1.4552637713,
				"z": 0.5998449406,
				"element": "O" 
			},
			{
				"x": 1.5390673337,
				"y": -0.8539675669,
				"z": 0.8440851989,
				"element": "C" 
			},
			{
				"x": 0.8514896326,
				"y": -2.0198625258,
				"z": 1.1880574931,
				"element": "C" 
			},
			{
				"x": 1.4972483604,
				"y": -3.2444890623,
				"z": 1.2753179371,
				"element": "C" 
			},
			{
				"x": 2.8719144907,
				"y": -3.2687417723,
				"z": 1.0035441811,
				"element": "C" 
			},
			{
				"x": 3.5617214609,
				"y": -2.0992819591,
				"z": 0.6585324165,
				"element": "C" 
			},
			{
				"x": 2.8996420634,
				"y": -0.8669633801,
				"z": 0.5737983252,
				"element": "C" 
			},
			{
				"x": -0.582053837,
				"y": -1.6674092101,
				"z": 1.4156196655,
				"element": "C" 
			},
			{
				"x": -1.5041461652,
				"y": -2.3899837563,
				"z": 1.7390315424,
				"element": "O" 
			},
			{
				"x": -0.4132835954,
				"y": 2.8012446335,
				"z": -4.3108583971,
				"element": "H" 
			},
			{
				"x": -1.8137343155,
				"y": 2.1520622134,
				"z": -2.5888934891,
				"element": "H" 
			},
			{
				"x": -0.2169242857,
				"y": 1.3943366378,
				"z": -2.4446235894,
				"element": "H" 
			},
			{
				"x": -2.6951889442,
				"y": 0.1820610093,
				"z": -3.7714390492,
				"element": "H" 
			},
			{
				"x": -1.083849334,
				"y": -0.5065660405,
				"z": -3.8810910349,
				"element": "H" 
			},
			{
				"x": -1.0134547231,
				"y": -0.8490845998,
				"z": -1.4159442662,
				"element": "H" 
			},
			{
				"x": -2.3070786277,
				"y": -1.7132419279,
				"z": -2.2088217543,
				"element": "H" 
			},
			{
				"x": -3.4369970377,
				"y": -0.9356482254,
				"z": -0.3475385602,
				"element": "H" 
			},
			{
				"x": -3.8526138645,
				"y": 0.2757294389,
				"z": -1.5398541607,
				"element": "H" 
			},
			{
				"x": -1.8193579343,
				"y": 1.6573874885,
				"z": -0.472383751,
				"element": "H" 
			},
			{
				"x": -3.3846899964,
				"y": 1.6042141116,
				"z": 0.3101923916,
				"element": "H" 
			},
			{
				"x": -2.6016936648,
				"y": -0.1663837796,
				"z": 1.8637389869,
				"element": "H" 
			},
			{
				"x": -1.6791155357,
				"y": 1.346776917,
				"z": 1.9707956741,
				"element": "H" 
			},
			{
				"x": 0.9525360616,
				"y": -4.1438040108,
				"z": 1.5439911186,
				"element": "H" 
			},
			{
				"x": 3.4132942488,
				"y": -4.2083405998,
				"z": 1.0607402968,
				"element": "H" 
			},
			{
				"x": 4.6268974335,
				"y": -2.1508522765,
				"z": 0.453666679,
				"element": "H" 
			},
			{
				"x": 3.423895788,
				"y": 0.0453218575,
				"z": 0.3080854192,
				"element": "H" 
			}
		],
		 "valence_orbital": [ 
			{
				"type": "occ",
				"energy": -0.28384,
				"method": "rhf"
			},
			{
				"type": "occ",
				"energy": -0.27841,
				"method": "rhf"
			},
			{
				"type": "occ",
				"energy": -0.26794,
				"method": "rhf"
			},
			{
				"type": "occ",
				"energy": -0.26437,
				"method": "rhf"
			},
			{
				"type": "occ",
				"energy": -0.25771,
				"method": "rhf"
			},
			{
				"type": "unocc",
				"energy": -0.08229,
				"method": "rhf"
			},
			{
				"type": "unocc",
				"energy": -0.04146,
				"method": "rhf"
			},
			{
				"type": "unocc",
				"energy": 0.02728,
				"method": "rhf"
			},
			{
				"type": "unocc",
				"energy": 0.07017,
				"method": "rhf"
			},
			{
				"type": "unocc",
				"energy": 0.08372,
				"method": "rhf"
			}
		],
		"cosmo_sigma_profile": { 
			"-0.025": 0.0,
			"-0.024": 0.0,
			"-0.023": 0.0,
			"-0.022": 0.0,
			"-0.021": 0.0,
			"-0.02": 0.0,
			"-0.019": 0.0,
			"-0.018": 0.0,
			"-0.017": 0.0,
			"-0.016": 0.184347235537,
			"-0.015": 0.820348328237,
			"-0.014": 1.24490502069,
			"-0.013": 1.0029160075,
			"-0.012": 0.767110959687,
			"-0.011": 0.888313150141,
			"-0.01": 0.411106773718,
			"-0.009": 0.960038303937,
			"-0.008": 2.12738598318,
			"-0.007": 8.74713900585,
			"-0.006": 11.3398723681,
			"-0.005": 15.0551783097,
			"-0.004": 16.8611040684,
			"-0.003": 29.1230481545,
			"-0.002": 37.6978445054,
			"-0.001": 33.9597749112,
			"0.0": 31.1454287583,
			"0.001": 24.0430767939,
			"0.002": 19.5092787115,
			"0.003": 10.2340988569,
			"0.004": 4.70695718246,
			"0.005": 4.91093126472,
			"0.006": 3.76382602708,
			"0.007": 3.82116041796,
			"0.008": 4.39415021453,
			"0.009": 4.93163908269,
			"0.01": 5.83215586924,
			"0.011": 8.93927140246,
			"0.012": 5.91895780115,
			"0.013": 1.84616629346,
			"0.014": 2.03487618912,
			"0.015": 1.19668938864,
			"0.016": 0.0,
			"0.017": 0.0,
			"0.018": 0.0,
			"0.019": 0.0,
			"0.02": 0.0,
			"0.021": 0.0,
			"0.022": 0.0,
			"0.023": 0.0,
			"0.024": 0.0,
			"0.025": 0.0
		}
	}
}
