{
	 "smiles": "CN1C=CC(=N1)C1=CC=CC(=C1)C(=O)OC1=C(F)C(F)=C(F)C(F)=C1F", 
	 "Tm": 399.15, 
	 "num_atms": 35, 
	 "gaussian": { 
		 "optdone": 1, 
		 "sigma_profile": "yes", 
		 "theory": "DFT", 
		 "functional": "B3LYP", 
		 "basiset": "6-31G**", 
		 "properties": { 
			 "R2extent": 17033.885, 
			 "electric_dipole_moment_norm": 5.73282558343, 
			 "electric_quadrupole_moment_norm": 25.0492163881, 
			 "total_energy": -1412.30561895, 
			 "HOMO_LUMO_gap": 0.16967, 
			 "cosmo_polarized_energy": -12.93, 
			 "cosmo_cavitation_energy": 44.87, 
			 "cosmo_dispersion_energy": -30.83, 
			 "cosmo_repulsion_energy": 2.2, 
			 "cosmo_total_nonelectrostatic_energy": 16.24, 
			 "SMD_solvation_energy": 10.48 
		},
		"coords": [
			{
				"x": -1.6374593319,
				"y": 5.2360932132,
				"z": 2.5725332811,
				"element": "C" 
			},
			{
				"x": -1.9916580047,
				"y": 4.278960426,
				"z": 1.5410570307,
				"element": "N" 
			},
			{
				"x": -3.115125088,
				"y": 4.2459643606,
				"z": 0.7744343965,
				"element": "C" 
			},
			{
				"x": -2.9960415404,
				"y": 3.1549071185,
				"z": -0.0611527684,
				"element": "C" 
			},
			{
				"x": -1.7447712662,
				"y": 2.5757478456,
				"z": 0.2764318587,
				"element": "C" 
			},
			{
				"x": -1.1475330018,
				"y": 3.2735190879,
				"z": 1.2536903523,
				"element": "N" 
			},
			{
				"x": -1.0918167007,
				"y": 1.3851593211,
				"z": -0.291570139,
				"element": "C" 
			},
			{
				"x": -1.6970264788,
				"y": 0.6384374605,
				"z": -1.3158455981,
				"element": "C" 
			},
			{
				"x": -1.0722396526,
				"y": -0.4887600547,
				"z": -1.8496193077,
				"element": "C" 
			},
			{
				"x": 0.1709188034,
				"y": -0.8977019804,
				"z": -1.3745934466,
				"element": "C" 
			},
			{
				"x": 0.7871682952,
				"y": -0.1605026349,
				"z": -0.3512407589,
				"element": "C" 
			},
			{
				"x": 0.1595312056,
				"y": 0.9693768883,
				"z": 0.1834173192,
				"element": "C" 
			},
			{
				"x": 2.1082422172,
				"y": -0.5305001513,
				"z": 0.2089049896,
				"element": "C" 
			},
			{
				"x": 2.7028023708,
				"y": 0.0428357078,
				"z": 1.0874983909,
				"element": "O" 
			},
			{
				"x": 2.6206631291,
				"y": -1.6699871516,
				"z": -0.4074767381,
				"element": "O" 
			},
			{
				"x": 3.8588251685,
				"y": -2.0973165937,
				"z": 0.0118602754,
				"element": "C" 
			},
			{
				"x": 5.0187009349,
				"y": -1.4002627635,
				"z": -0.3292007076,
				"element": "C" 
			},
			{
				"x": 4.9296822263,
				"y": -0.2650657418,
				"z": -1.0272083459,
				"element": "F" 
			},
			{
				"x": 6.2699886853,
				"y": -1.8797707897,
				"z": 0.0481165516,
				"element": "C" 
			},
			{
				"x": 7.3774051359,
				"y": -1.2081328498,
				"z": -0.283710982,
				"element": "F" 
			},
			{
				"x": 6.3679216074,
				"y": -3.0687242231,
				"z": 0.7693108886,
				"element": "C" 
			},
			{
				"x": 7.5677319589,
				"y": -3.5354777824,
				"z": 1.1264800695,
				"element": "F" 
			},
			{
				"x": 5.2159518292,
				"y": -3.7718168124,
				"z": 1.1146995461,
				"element": "C" 
			},
			{
				"x": 5.3114980785,
				"y": -4.9120052553,
				"z": 1.8069701283,
				"element": "F" 
			},
			{
				"x": 3.9662757213,
				"y": -3.2806195689,
				"z": 0.742129839,
				"element": "C" 
			},
			{
				"x": 2.8653824789,
				"y": -3.9549205558,
				"z": 1.087248272,
				"element": "F" 
			},
			{
				"x": -1.4977295585,
				"y": 4.7236331342,
				"z": 3.5277636593,
				"element": "H" 
			},
			{
				"x": -0.7097977477,
				"y": 5.749463264,
				"z": 2.3066268761,
				"element": "H" 
			},
			{
				"x": -2.4418432289,
				"y": 5.9671588303,
				"z": 2.6676329341,
				"element": "H" 
			},
			{
				"x": -3.8952287781,
				"y": 4.9856571046,
				"z": 0.881049875,
				"element": "H" 
			},
			{
				"x": -3.7107614838,
				"y": 2.8309683325,
				"z": -0.8020224685,
				"element": "H" 
			},
			{
				"x": -2.6663464177,
				"y": 0.9395195913,
				"z": -1.7012935928,
				"element": "H" 
			},
			{
				"x": -1.5600886352,
				"y": -1.0501392418,
				"z": -2.6407291136,
				"element": "H" 
			},
			{
				"x": 0.6605761138,
				"y": -1.7726834988,
				"z": -1.7844989597,
				"element": "H" 
			},
			{
				"x": 0.6492009548,
				"y": 1.5271859635,
				"z": 0.9728063927,
				"element": "H" 
			}
		],
		 "valence_orbital": [ 
			{
				"type": "occ",
				"energy": -0.26435,
				"method": "rhf"
			},
			{
				"type": "occ",
				"energy": -0.25842,
				"method": "rhf"
			},
			{
				"type": "occ",
				"energy": -0.25577,
				"method": "rhf"
			},
			{
				"type": "occ",
				"energy": -0.25188,
				"method": "rhf"
			},
			{
				"type": "occ",
				"energy": -0.22542,
				"method": "rhf"
			},
			{
				"type": "unocc",
				"energy": -0.05575,
				"method": "rhf"
			},
			{
				"type": "unocc",
				"energy": -0.02881,
				"method": "rhf"
			},
			{
				"type": "unocc",
				"energy": -0.02136,
				"method": "rhf"
			},
			{
				"type": "unocc",
				"energy": -0.0154,
				"method": "rhf"
			},
			{
				"type": "unocc",
				"energy": 0.00427,
				"method": "rhf"
			}
		],
		"cosmo_sigma_profile": { 
			"-0.025": 0.0,
			"-0.024": 0.0,
			"-0.023": 0.0,
			"-0.022": 0.0,
			"-0.021": 0.0,
			"-0.02": 0.0,
			"-0.019": 0.0,
			"-0.018": 0.0,
			"-0.017": 0.0,
			"-0.016": 0.0,
			"-0.015": 0.0,
			"-0.014": 0.0,
			"-0.013": 0.0,
			"-0.012": 0.0,
			"-0.011": 0.0,
			"-0.01": 0.066339485679,
			"-0.009": 2.90202931994,
			"-0.008": 5.08553381896,
			"-0.007": 8.32979053495,
			"-0.006": 15.2158884749,
			"-0.005": 17.2602106333,
			"-0.004": 31.150249743,
			"-0.003": 32.5537306964,
			"-0.002": 21.2375579115,
			"-0.001": 22.6105077813,
			"0.0": 24.1944746992,
			"0.001": 28.5362857287,
			"0.002": 65.7622616098,
			"0.003": 43.1448153149,
			"0.004": 12.8759557001,
			"0.005": 9.01019216294,
			"0.006": 3.97038631223,
			"0.007": 3.72623483426,
			"0.008": 3.46199807228,
			"0.009": 3.58944949816,
			"0.01": 4.54674477212,
			"0.011": 2.71170159677,
			"0.012": 0.795279714252,
			"0.013": 0.648181702425,
			"0.014": 0.0,
			"0.015": 0.0,
			"0.016": 0.0,
			"0.017": 0.0,
			"0.018": 0.0,
			"0.019": 0.0,
			"0.02": 0.0,
			"0.021": 0.0,
			"0.022": 0.0,
			"0.023": 0.0,
			"0.024": 0.0,
			"0.025": 0.0
		}
	}
}
