{
	 "smiles": "NC1=NN=C(N1)C1=CC=C(Br)C=C1", 
	 "Tm": 488.15, 
	 "num_atms": 20, 
	 "gaussian": { 
		 "optdone": 1, 
		 "sigma_profile": "yes", 
		 "theory": "DFT", 
		 "functional": "B3LYP", 
		 "basiset": "6-31G**", 
		 "properties": { 
			 "R2extent": 5547.3635, 
			 "electric_dipole_moment_norm": 5.13779212016, 
			 "electric_quadrupole_moment_norm": 22.5930093768, 
			 "total_energy": -3099.46703886, 
			 "HOMO_LUMO_gap": 0.17132, 
			 "cosmo_polarized_energy": -22.89, 
			 "cosmo_cavitation_energy": 27.4, 
			 "cosmo_dispersion_energy": -20.96, 
			 "cosmo_repulsion_energy": 1.65, 
			 "cosmo_total_nonelectrostatic_energy": 8.1, 
			 "SMD_solvation_energy": 1.32 
		},
		"coords": [
			{
				"x": -2.8720833302,
				"y": -4.1395866563,
				"z": 1.365522035,
				"element": "N" 
			},
			{
				"x": -2.378754563,
				"y": -2.9226817014,
				"z": 0.9178654128,
				"element": "C" 
			},
			{
				"x": -2.997115748,
				"y": -2.0735589943,
				"z": 0.1274491897,
				"element": "N" 
			},
			{
				"x": -2.1090565968,
				"y": -1.0516815561,
				"z": -0.143522575,
				"element": "N" 
			},
			{
				"x": -0.98694982,
				"y": -1.2957622017,
				"z": 0.4964349904,
				"element": "C" 
			},
			{
				"x": -1.1121145073,
				"y": -2.4840932165,
				"z": 1.1966348307,
				"element": "N" 
			},
			{
				"x": 0.2019637009,
				"y": -0.4455717282,
				"z": 0.4873428843,
				"element": "C" 
			},
			{
				"x": 1.3043640708,
				"y": -0.6843294707,
				"z": 1.3220270378,
				"element": "C" 
			},
			{
				"x": 2.424892731,
				"y": 0.1441041516,
				"z": 1.284492198,
				"element": "C" 
			},
			{
				"x": 2.4421599712,
				"y": 1.2251226422,
				"z": 0.4063278353,
				"element": "C" 
			},
			{
				"x": 3.9741678811,
				"y": 2.3640839481,
				"z": 0.347810679,
				"element": "Br" 
			},
			{
				"x": 1.3554145552,
				"y": 1.4877448856,
				"z": -0.4301571272,
				"element": "C" 
			},
			{
				"x": 0.2438422413,
				"y": 0.6541655734,
				"z": -0.387891487,
				"element": "C" 
			},
			{
				"x": -3.821316178,
				"y": -4.2670596546,
				"z": 1.0326716967,
				"element": "H" 
			},
			{
				"x": -2.832807903,
				"y": -4.2585273878,
				"z": 2.3723911062,
				"element": "H" 
			},
			{
				"x": -0.3867045539,
				"y": -3.0089277824,
				"z": 1.6595360337,
				"element": "H" 
			},
			{
				"x": 1.2988679377,
				"y": -1.5123165909,
				"z": 2.0257958514,
				"element": "H" 
			},
			{
				"x": 3.2719599821,
				"y": -0.0464125514,
				"z": 1.9333362054,
				"element": "H" 
			},
			{
				"x": 1.3821172162,
				"y": 2.3335183705,
				"z": -1.1076956016,
				"element": "H" 
			},
			{
				"x": -0.6095470874,
				"y": 0.8392699209,
				"z": -1.0309711956,
				"element": "H" 
			}
		],
		 "valence_orbital": [ 
			{
				"type": "occ",
				"energy": -0.28991,
				"method": "rhf"
			},
			{
				"type": "occ",
				"energy": -0.27,
				"method": "rhf"
			},
			{
				"type": "occ",
				"energy": -0.26244,
				"method": "rhf"
			},
			{
				"type": "occ",
				"energy": -0.25321,
				"method": "rhf"
			},
			{
				"type": "occ",
				"energy": -0.2138,
				"method": "rhf"
			},
			{
				"type": "unocc",
				"energy": -0.04248,
				"method": "rhf"
			},
			{
				"type": "unocc",
				"energy": -0.01947,
				"method": "rhf"
			},
			{
				"type": "unocc",
				"energy": 0.00399,
				"method": "rhf"
			},
			{
				"type": "unocc",
				"energy": 0.04162,
				"method": "rhf"
			},
			{
				"type": "unocc",
				"energy": 0.04995,
				"method": "rhf"
			}
		],
		"cosmo_sigma_profile": { 
			"-0.025": 0.0,
			"-0.024": 0.0,
			"-0.023": 0.0,
			"-0.022": 0.0,
			"-0.021": 0.0,
			"-0.02": 0.0,
			"-0.019": 0.0,
			"-0.018": 0.131527272828,
			"-0.017": 1.41359613442,
			"-0.016": 1.68893114964,
			"-0.015": 1.82112490568,
			"-0.014": 2.69613937079,
			"-0.013": 4.71944912417,
			"-0.012": 4.34181033389,
			"-0.011": 3.58763300731,
			"-0.01": 3.5581489422,
			"-0.009": 3.19722243578,
			"-0.008": 3.27225440924,
			"-0.007": 7.29723704429,
			"-0.006": 8.17625170352,
			"-0.005": 9.25717610236,
			"-0.004": 8.07159438846,
			"-0.003": 7.96385551947,
			"-0.002": 9.94608118103,
			"-0.001": 11.139730405,
			"0.0": 13.5138830886,
			"0.001": 18.4721779421,
			"0.002": 22.4918797831,
			"0.003": 22.6670356292,
			"0.004": 14.5712304481,
			"0.005": 7.05428749298,
			"0.006": 3.1600727689,
			"0.007": 2.89920397659,
			"0.008": 1.68641669266,
			"0.009": 2.34209417219,
			"0.01": 3.11326599967,
			"0.011": 2.37002697781,
			"0.012": 3.29597556879,
			"0.013": 3.06717632213,
			"0.014": 3.62632695433,
			"0.015": 3.07507054102,
			"0.016": 1.9922322777,
			"0.017": 1.35542240284,
			"0.018": 0.149345187095,
			"0.019": 0.0,
			"0.02": 0.0,
			"0.021": 0.0,
			"0.022": 0.0,
			"0.023": 0.0,
			"0.024": 0.0,
			"0.025": 0.0
		}
	}
}
