{
	 "smiles": "NC1=NC(=NN1)C1=CC2=C(C=CC=C2)C=C1", 
	 "Tm": 479.15, 
	 "num_atms": 26, 
	 "gaussian": { 
		 "optdone": 1, 
		 "sigma_profile": "yes", 
		 "theory": "DFT", 
		 "functional": "B3LYP", 
		 "basiset": "6-31G**", 
		 "properties": { 
			 "R2extent": 4914.8697, 
			 "electric_dipole_moment_norm": 3.91784727752, 
			 "electric_quadrupole_moment_norm": 33.245252905, 
			 "total_energy": -682.321740702, 
			 "HOMO_LUMO_gap": 0.1625, 
			 "cosmo_polarized_energy": -18.56, 
			 "cosmo_cavitation_energy": 30.56, 
			 "cosmo_dispersion_energy": -23.06, 
			 "cosmo_repulsion_energy": 1.77, 
			 "cosmo_total_nonelectrostatic_energy": 9.27, 
			 "SMD_solvation_energy": 2.45 
		},
		"coords": [
			{
				"x": 5.722928531,
				"y": -0.7367618916,
				"z": -0.8345419696,
				"element": "N" 
			},
			{
				"x": 4.4159277408,
				"y": -0.6591616787,
				"z": -0.3905308819,
				"element": "C" 
			},
			{
				"x": 3.5006779951,
				"y": 0.1946935364,
				"z": -0.8093403972,
				"element": "N" 
			},
			{
				"x": 2.3722881425,
				"y": -0.1947049832,
				"z": -0.1249425723,
				"element": "C" 
			},
			{
				"x": 2.5459306335,
				"y": -1.2263402292,
				"z": 0.6917682068,
				"element": "N" 
			},
			{
				"x": 3.871542963,
				"y": -1.5153168868,
				"z": 0.5095237976,
				"element": "N" 
			},
			{
				"x": 1.0803864507,
				"y": 0.4883565275,
				"z": -0.281698449,
				"element": "C" 
			},
			{
				"x": -0.0315019855,
				"y": 0.08853059,
				"z": 0.4387180221,
				"element": "C" 
			},
			{
				"x": -1.2779599552,
				"y": 0.7448521313,
				"z": 0.2877226171,
				"element": "C" 
			},
			{
				"x": -1.38252772,
				"y": 1.842837986,
				"z": -0.6291062881,
				"element": "C" 
			},
			{
				"x": -2.634123724,
				"y": 2.4977582753,
				"z": -0.7767647062,
				"element": "C" 
			},
			{
				"x": -3.7337385564,
				"y": 2.0904792662,
				"z": -0.0545616305,
				"element": "C" 
			},
			{
				"x": -3.631786744,
				"y": 1.0055270255,
				"z": 0.8518558123,
				"element": "C" 
			},
			{
				"x": -2.4331561903,
				"y": 0.3497844979,
				"z": 1.0180713102,
				"element": "C" 
			},
			{
				"x": -0.2248815481,
				"y": 2.2328859496,
				"z": -1.3557133812,
				"element": "C" 
			},
			{
				"x": 0.9718795392,
				"y": 1.5786443668,
				"z": -1.1899470824,
				"element": "C" 
			},
			{
				"x": 5.9673377544,
				"y": 0.0718088001,
				"z": -1.3918067337,
				"element": "H" 
			},
			{
				"x": 6.413052433,
				"y": -0.9226330431,
				"z": -0.1178807351,
				"element": "H" 
			},
			{
				"x": 4.2779734074,
				"y": -2.3215318355,
				"z": 0.9577619917,
				"element": "H" 
			},
			{
				"x": 0.0525432897,
				"y": -0.7429983301,
				"z": 1.1320263618,
				"element": "H" 
			},
			{
				"x": -2.7096454103,
				"y": 3.329614004,
				"z": -1.4727792849,
				"element": "H" 
			},
			{
				"x": -4.6852518066,
				"y": 2.6000670862,
				"z": -0.1771129469,
				"element": "H" 
			},
			{
				"x": -4.5062086521,
				"y": 0.6934204861,
				"z": 1.4158005951,
				"element": "H" 
			},
			{
				"x": -2.3514462602,
				"y": -0.4827617606,
				"z": 1.7122607353,
				"element": "H" 
			},
			{
				"x": -0.3001298399,
				"y": 3.0646538997,
				"z": -2.0518002732,
				"element": "H" 
			},
			{
				"x": 1.8543895122,
				"y": 1.8770962102,
				"z": -1.744882118,
				"element": "H" 
			}
		],
		 "valence_orbital": [ 
			{
				"type": "occ",
				"energy": -0.27353,
				"method": "rhf"
			},
			{
				"type": "occ",
				"energy": -0.26999,
				"method": "rhf"
			},
			{
				"type": "occ",
				"energy": -0.24214,
				"method": "rhf"
			},
			{
				"type": "occ",
				"energy": -0.22103,
				"method": "rhf"
			},
			{
				"type": "occ",
				"energy": -0.19945,
				"method": "rhf"
			},
			{
				"type": "unocc",
				"energy": -0.03695,
				"method": "rhf"
			},
			{
				"type": "unocc",
				"energy": -0.00953,
				"method": "rhf"
			},
			{
				"type": "unocc",
				"energy": 0.02828,
				"method": "rhf"
			},
			{
				"type": "unocc",
				"energy": 0.04507,
				"method": "rhf"
			},
			{
				"type": "unocc",
				"energy": 0.05965,
				"method": "rhf"
			}
		],
		"cosmo_sigma_profile": { 
			"-0.025": 0.0,
			"-0.024": 0.0,
			"-0.023": 0.0,
			"-0.022": 0.0,
			"-0.021": 0.0,
			"-0.02": 0.0,
			"-0.019": 0.0,
			"-0.018": 0.054614913889,
			"-0.017": 1.63049452628,
			"-0.016": 2.32115383378,
			"-0.015": 1.94758578221,
			"-0.014": 3.07631326553,
			"-0.013": 3.16414957269,
			"-0.012": 4.43194413237,
			"-0.011": 3.2700019107,
			"-0.01": 2.64500164812,
			"-0.009": 1.71202616362,
			"-0.008": 1.69033032235,
			"-0.007": 2.14414571844,
			"-0.006": 10.2750335513,
			"-0.005": 14.9483310946,
			"-0.004": 14.7114608331,
			"-0.003": 14.2612070954,
			"-0.002": 9.7230743084,
			"-0.001": 10.484609122,
			"0.0": 10.7139734251,
			"0.001": 12.8205850037,
			"0.002": 16.1851036379,
			"0.003": 22.2746841223,
			"0.004": 32.7373863712,
			"0.005": 18.5334685576,
			"0.006": 5.48144587973,
			"0.007": 4.62197789244,
			"0.008": 2.96369038058,
			"0.009": 3.7328476709,
			"0.01": 2.8799104816,
			"0.011": 2.51354278648,
			"0.012": 3.40334431295,
			"0.013": 2.14847908059,
			"0.014": 1.43453857166,
			"0.015": 0.0726514716141,
			"0.016": 0.0,
			"0.017": 0.0,
			"0.018": 0.0,
			"0.019": 0.0,
			"0.02": 0.0,
			"0.021": 0.0,
			"0.022": 0.0,
			"0.023": 0.0,
			"0.024": 0.0,
			"0.025": 0.0
		}
	}
}
