{
	 "smiles": "C(C=C/C1=CC=CC=C1)=CC1=CC=CC=C1", 
	 "Tm": 425.15, 
	 "num_atms": 30, 
	 "gaussian": { 
		 "optdone": 1, 
		 "sigma_profile": "yes", 
		 "theory": "DFT", 
		 "functional": "B3LYP", 
		 "basiset": "6-31G**", 
		 "properties": { 
			 "R2extent": 5950.8603, 
			 "electric_dipole_moment_norm": 0.0363490027374, 
			 "electric_quadrupole_moment_norm": 9.64431524111, 
			 "total_energy": -618.116565232, 
			 "HOMO_LUMO_gap": 0.1453, 
			 "cosmo_polarized_energy": -6.22, 
			 "cosmo_cavitation_energy": 33.94, 
			 "cosmo_dispersion_energy": -24.55, 
			 "cosmo_repulsion_energy": 1.91, 
			 "cosmo_total_nonelectrostatic_energy": 11.29, 
			 "SMD_solvation_energy": 5.58 
		},
		"coords": [
			{
				"x": 0.8353399307,
				"y": -0.458475857,
				"z": -0.1492898557,
				"element": "C" 
			},
			{
				"x": 0.4774162905,
				"y": 0.6126308431,
				"z": 0.762464775,
				"element": "C" 
			},
			{
				"x": 0.0124524164,
				"y": 1.8444202216,
				"z": 0.4391845906,
				"element": "C" 
			},
			{
				"x": -0.3984242013,
				"y": 2.3666854499,
				"z": -0.8697326367,
				"element": "C" 
			},
			{
				"x": -0.2868685744,
				"y": 3.7508989675,
				"z": -1.1110367762,
				"element": "C" 
			},
			{
				"x": -0.6560604841,
				"y": 4.3030085232,
				"z": -2.3344752184,
				"element": "C" 
			},
			{
				"x": -1.1662144991,
				"y": 3.4862072764,
				"z": -3.3469014874,
				"element": "C" 
			},
			{
				"x": -1.312178281,
				"y": 2.116797447,
				"z": -3.1163944331,
				"element": "C" 
			},
			{
				"x": -0.9387621936,
				"y": 1.5624356175,
				"z": -1.8930771175,
				"element": "C" 
			},
			{
				"x": 1.0963333633,
				"y": -1.7511691954,
				"z": 0.1650994246,
				"element": "C" 
			},
			{
				"x": 0.938425061,
				"y": -2.4436102113,
				"z": 1.4497699958,
				"element": "C" 
			},
			{
				"x": 1.7688167604,
				"y": -3.547673043,
				"z": 1.72948957,
				"element": "C" 
			},
			{
				"x": 1.6686473376,
				"y": -4.2404881071,
				"z": 2.9327709774,
				"element": "C" 
			},
			{
				"x": 0.719633971,
				"y": -3.858793562,
				"z": 3.8846649425,
				"element": "C" 
			},
			{
				"x": -0.1321834195,
				"y": -2.7861458697,
				"z": 3.6134121292,
				"element": "C" 
			},
			{
				"x": -0.0297585606,
				"y": -2.0891785388,
				"z": 2.4104997832,
				"element": "C" 
			},
			{
				"x": 0.9858578552,
				"y": -0.1702223138,
				"z": -1.187397374,
				"element": "H" 
			},
			{
				"x": 0.6801407444,
				"y": 0.4299229601,
				"z": 1.8155291028,
				"element": "H" 
			},
			{
				"x": -0.0558060629,
				"y": 2.5665846158,
				"z": 1.2518066274,
				"element": "H" 
			},
			{
				"x": 0.1078988245,
				"y": 4.3921187706,
				"z": -0.3268549657,
				"element": "H" 
			},
			{
				"x": -0.5502756238,
				"y": 5.371845377,
				"z": -2.4979808945,
				"element": "H" 
			},
			{
				"x": -1.460443573,
				"y": 3.915288648,
				"z": -4.3003212845,
				"element": "H" 
			},
			{
				"x": -1.7320572637,
				"y": 1.4776249253,
				"z": -3.8881879611,
				"element": "H" 
			},
			{
				"x": -1.0991288629,
				"y": 0.5050480236,
				"z": -1.7135745306,
				"element": "H" 
			},
			{
				"x": 1.4970431539,
				"y": -2.3739303356,
				"z": -0.6337313414,
				"element": "H" 
			},
			{
				"x": 2.5082450671,
				"y": -3.8507112052,
				"z": 0.9923605642,
				"element": "H" 
			},
			{
				"x": 2.3279579535,
				"y": -5.0817577495,
				"z": 3.1274807108,
				"element": "H" 
			},
			{
				"x": 0.6355100295,
				"y": -4.4012469328,
				"z": 4.8218713031,
				"element": "H" 
			},
			{
				"x": -0.8904953103,
				"y": -2.4982446978,
				"z": 4.3363096072,
				"element": "H" 
			},
			{
				"x": -0.7271618491,
				"y": -1.2869700476,
				"z": 2.1958417727,
				"element": "H" 
			}
		],
		 "valence_orbital": [ 
			{
				"type": "occ",
				"energy": -0.27812,
				"method": "rhf"
			},
			{
				"type": "occ",
				"energy": -0.24999,
				"method": "rhf"
			},
			{
				"type": "occ",
				"energy": -0.24992,
				"method": "rhf"
			},
			{
				"type": "occ",
				"energy": -0.24505,
				"method": "rhf"
			},
			{
				"type": "occ",
				"energy": -0.19925,
				"method": "rhf"
			},
			{
				"type": "unocc",
				"energy": -0.05395,
				"method": "rhf"
			},
			{
				"type": "unocc",
				"energy": -0.00669,
				"method": "rhf"
			},
			{
				"type": "unocc",
				"energy": -0.00053,
				"method": "rhf"
			},
			{
				"type": "unocc",
				"energy": 0.00017,
				"method": "rhf"
			},
			{
				"type": "unocc",
				"energy": 0.03884,
				"method": "rhf"
			}
		],
		"cosmo_sigma_profile": { 
			"-0.025": 0.0,
			"-0.024": 0.0,
			"-0.023": 0.0,
			"-0.022": 0.0,
			"-0.021": 0.0,
			"-0.02": 0.0,
			"-0.019": 0.0,
			"-0.018": 0.0,
			"-0.017": 0.0,
			"-0.016": 0.0,
			"-0.015": 0.0,
			"-0.014": 0.0,
			"-0.013": 0.0,
			"-0.012": 0.0,
			"-0.011": 0.0,
			"-0.01": 0.0,
			"-0.009": 0.0,
			"-0.008": 0.0,
			"-0.007": 0.0,
			"-0.006": 8.19299381533,
			"-0.005": 25.6168795628,
			"-0.004": 29.3243990412,
			"-0.003": 29.8402153327,
			"-0.002": 19.5420531686,
			"-0.001": 17.9758729775,
			"0.0": 16.4146739925,
			"0.001": 17.1392881034,
			"0.002": 19.8791538874,
			"0.003": 22.0216847717,
			"0.004": 27.3856017896,
			"0.005": 25.6689265515,
			"0.006": 13.0427737587,
			"0.007": 0.0,
			"0.008": 0.0,
			"0.009": 0.0,
			"0.01": 0.0,
			"0.011": 0.0,
			"0.012": 0.0,
			"0.013": 0.0,
			"0.014": 0.0,
			"0.015": 0.0,
			"0.016": 0.0,
			"0.017": 0.0,
			"0.018": 0.0,
			"0.019": 0.0,
			"0.02": 0.0,
			"0.021": 0.0,
			"0.022": 0.0,
			"0.023": 0.0,
			"0.024": 0.0,
			"0.025": 0.0
		}
	}
}
