{
	 "smiles": "CN1C(=S)NC2=C(C=CC=C2)C1=O", 
	 "Tm": 545.15, 
	 "num_atms": 21, 
	 "gaussian": { 
		 "optdone": 1, 
		 "sigma_profile": "yes", 
		 "theory": "DFT", 
		 "functional": "B3LYP", 
		 "basiset": "6-31G**", 
		 "properties": { 
			 "R2extent": 3676.823, 
			 "electric_dipole_moment_norm": 4.2716684258, 
			 "electric_quadrupole_moment_norm": 9.07701667014, 
			 "total_energy": -930.738160009, 
			 "HOMO_LUMO_gap": 0.16038, 
			 "cosmo_polarized_energy": -14.06, 
			 "cosmo_cavitation_energy": 26.34, 
			 "cosmo_dispersion_energy": -20.27, 
			 "cosmo_repulsion_energy": 1.51, 
			 "cosmo_total_nonelectrostatic_energy": 7.59, 
			 "SMD_solvation_energy": 4.08 
		},
		"coords": [
			{
				"x": -0.0349846075,
				"y": -3.7801668013,
				"z": 1.0778278854,
				"element": "C" 
			},
			{
				"x": -0.2184613465,
				"y": -2.5938077836,
				"z": 0.2293306247,
				"element": "N" 
			},
			{
				"x": 0.773611406,
				"y": -1.6291755948,
				"z": 0.2228822173,
				"element": "C" 
			},
			{
				"x": 2.1823580597,
				"y": -1.7177508541,
				"z": 1.121391876,
				"element": "S" 
			},
			{
				"x": 0.5469240364,
				"y": -0.5466466884,
				"z": -0.5864939702,
				"element": "N" 
			},
			{
				"x": -0.5685367625,
				"y": -0.3452992109,
				"z": -1.3797155965,
				"element": "C" 
			},
			{
				"x": -1.5710868139,
				"y": -1.3261021802,
				"z": -1.3697894123,
				"element": "C" 
			},
			{
				"x": -2.7164231859,
				"y": -1.1578222981,
				"z": -2.1603478145,
				"element": "C" 
			},
			{
				"x": -2.8586705677,
				"y": -0.0252479482,
				"z": -2.9501881529,
				"element": "C" 
			},
			{
				"x": -1.8495007645,
				"y": 0.9508373373,
				"z": -2.9531860626,
				"element": "C" 
			},
			{
				"x": -0.7075301588,
				"y": 0.8016823278,
				"z": -2.1765856983,
				"element": "C" 
			},
			{
				"x": -1.4162632732,
				"y": -2.5240553185,
				"z": -0.531554935,
				"element": "C" 
			},
			{
				"x": -2.2495150442,
				"y": -3.4156079651,
				"z": -0.4757355367,
				"element": "O" 
			},
			{
				"x": 0.8722878956,
				"y": -4.3087949025,
				"z": 0.780102272,
				"element": "H" 
			},
			{
				"x": -0.9120509771,
				"y": -4.4081443923,
				"z": 0.9444082792,
				"element": "H" 
			},
			{
				"x": 0.0709444546,
				"y": -3.4742182279,
				"z": 2.1201278021,
				"element": "H" 
			},
			{
				"x": 1.2876228152,
				"y": 0.141615185,
				"z": -0.5712466453,
				"element": "H" 
			},
			{
				"x": -3.4724794839,
				"y": -1.9348167299,
				"z": -2.1296838792,
				"element": "H" 
			},
			{
				"x": -3.7442482453,
				"y": 0.1070675714,
				"z": -3.5628191456,
				"element": "H" 
			},
			{
				"x": -1.958180257,
				"y": 1.8379201775,
				"z": -3.5701873181,
				"element": "H" 
			},
			{
				"x": 0.0720828206,
				"y": 1.558034297,
				"z": -2.1803367894,
				"element": "H" 
			}
		],
		 "valence_orbital": [ 
			{
				"type": "occ",
				"energy": -0.28163,
				"method": "rhf"
			},
			{
				"type": "occ",
				"energy": -0.27926,
				"method": "rhf"
			},
			{
				"type": "occ",
				"energy": -0.26189,
				"method": "rhf"
			},
			{
				"type": "occ",
				"energy": -0.22499,
				"method": "rhf"
			},
			{
				"type": "occ",
				"energy": -0.22206,
				"method": "rhf"
			},
			{
				"type": "unocc",
				"energy": -0.06168,
				"method": "rhf"
			},
			{
				"type": "unocc",
				"energy": -0.04528,
				"method": "rhf"
			},
			{
				"type": "unocc",
				"energy": -0.00346,
				"method": "rhf"
			},
			{
				"type": "unocc",
				"energy": 0.05331,
				"method": "rhf"
			},
			{
				"type": "unocc",
				"energy": 0.05939,
				"method": "rhf"
			}
		],
		"cosmo_sigma_profile": { 
			"-0.025": 0.0,
			"-0.024": 0.0,
			"-0.023": 0.0,
			"-0.022": 0.0,
			"-0.021": 0.0,
			"-0.02": 0.0,
			"-0.019": 0.0,
			"-0.018": 0.0,
			"-0.017": 0.108723360233,
			"-0.016": 1.00627939716,
			"-0.015": 1.18648965751,
			"-0.014": 1.20062997691,
			"-0.013": 1.1191675375,
			"-0.012": 1.14619697594,
			"-0.011": 1.16502034106,
			"-0.01": 1.03348565743,
			"-0.009": 1.20234982786,
			"-0.008": 2.21474855441,
			"-0.007": 6.59895649472,
			"-0.006": 11.730644535,
			"-0.005": 14.8539880837,
			"-0.004": 15.9238934829,
			"-0.003": 18.476351886,
			"-0.002": 17.561138215,
			"-0.001": 12.3279060115,
			"0.0": 11.7285963576,
			"0.001": 13.3538531337,
			"0.002": 14.5507584313,
			"0.003": 13.6303856432,
			"0.004": 5.82532965613,
			"0.005": 5.46875388289,
			"0.006": 5.3081746878,
			"0.007": 6.05970031709,
			"0.008": 6.24535418577,
			"0.009": 10.1908544139,
			"0.01": 6.06841778167,
			"0.011": 3.88901715609,
			"0.012": 2.92639366683,
			"0.013": 0.0,
			"0.014": 0.0,
			"0.015": 0.0,
			"0.016": 0.0,
			"0.017": 0.0,
			"0.018": 0.0,
			"0.019": 0.0,
			"0.02": 0.0,
			"0.021": 0.0,
			"0.022": 0.0,
			"0.023": 0.0,
			"0.024": 0.0,
			"0.025": 0.0
		}
	}
}
