{
	 "smiles": "CCOC1=C(OCCC(O)=O)C=CC=C1", 
	 "Tm": 371.15, 
	 "num_atms": 29, 
	 "gaussian": { 
		 "optdone": 1, 
		 "sigma_profile": "yes", 
		 "theory": "DFT", 
		 "functional": "B3LYP", 
		 "basiset": "6-31G**", 
		 "properties": { 
			 "R2extent": 4001.7843, 
			 "electric_dipole_moment_norm": 5.2990356717, 
			 "electric_quadrupole_moment_norm": 25.7467786441, 
			 "total_energy": -728.500191755, 
			 "HOMO_LUMO_gap": 0.21273, 
			 "cosmo_polarized_energy": -15.08, 
			 "cosmo_cavitation_energy": 32.2, 
			 "cosmo_dispersion_energy": -22.96, 
			 "cosmo_repulsion_energy": 1.82, 
			 "cosmo_total_nonelectrostatic_energy": 11.06, 
			 "SMD_solvation_energy": 7.09 
		},
		"coords": [
			{
				"x": 1.5066142519,
				"y": -3.7028161274,
				"z": -1.4441868945,
				"element": "C" 
			},
			{
				"x": 1.5273867847,
				"y": -2.219258618,
				"z": -1.7938983213,
				"element": "C" 
			},
			{
				"x": 1.1507328803,
				"y": -1.3926761719,
				"z": -0.6849923378,
				"element": "O" 
			},
			{
				"x": -0.1690000556,
				"y": -1.165575712,
				"z": -0.4198428931,
				"element": "C" 
			},
			{
				"x": -0.4111365324,
				"y": -0.2639901977,
				"z": 0.6424142889,
				"element": "C" 
			},
			{
				"x": 0.7138828603,
				"y": 0.1982964098,
				"z": 1.2830552825,
				"element": "O" 
			},
			{
				"x": 0.6863666083,
				"y": 1.49209618,
				"z": 1.8956673626,
				"element": "C" 
			},
			{
				"x": 2.1350934953,
				"y": 1.877269512,
				"z": 2.1871947042,
				"element": "C" 
			},
			{
				"x": 3.032743557,
				"y": 2.0585546256,
				"z": 0.9578647337,
				"element": "C" 
			},
			{
				"x": 2.9580119407,
				"y": 1.1021564001,
				"z": 0.0124403746,
				"element": "O" 
			},
			{
				"x": 3.7964042907,
				"y": 2.988944749,
				"z": 0.8481128348,
				"element": "O" 
			},
			{
				"x": -1.7109791387,
				"y": 0.0899687193,
				"z": 0.9853991868,
				"element": "C" 
			},
			{
				"x": -2.7926697445,
				"y": -0.4573041441,
				"z": 0.2836477118,
				"element": "C" 
			},
			{
				"x": -2.5618369594,
				"y": -1.3549071196,
				"z": -0.7518943927,
				"element": "C" 
			},
			{
				"x": -1.2540177746,
				"y": -1.711813445,
				"z": -1.1054244455,
				"element": "C" 
			},
			{
				"x": 1.8647473549,
				"y": -4.2909576479,
				"z": -2.2957231621,
				"element": "H" 
			},
			{
				"x": 2.1612220719,
				"y": -3.8996066823,
				"z": -0.5906085054,
				"element": "H" 
			},
			{
				"x": 0.5008681603,
				"y": -4.0477637054,
				"z": -1.1893840248,
				"element": "H" 
			},
			{
				"x": 2.5435849542,
				"y": -1.8974631558,
				"z": -2.0357936038,
				"element": "H" 
			},
			{
				"x": 0.8939288429,
				"y": -1.9947420097,
				"z": -2.6607673963,
				"element": "H" 
			},
			{
				"x": 0.2028112339,
				"y": 2.2110334425,
				"z": 1.2214325578,
				"element": "H" 
			},
			{
				"x": 0.1136271377,
				"y": 1.4579576942,
				"z": 2.8309003029,
				"element": "H" 
			},
			{
				"x": 2.1640728427,
				"y": 2.8152541061,
				"z": 2.7452657997,
				"element": "H" 
			},
			{
				"x": 2.5786210339,
				"y": 1.0993985719,
				"z": 2.8217591459,
				"element": "H" 
			},
			{
				"x": 2.2720778132,
				"y": 0.4407059501,
				"z": 0.2350182396,
				"element": "H" 
			},
			{
				"x": -1.8854322559,
				"y": 0.7858014081,
				"z": 1.7988753908,
				"element": "H" 
			},
			{
				"x": -3.8053215825,
				"y": -0.178735541,
				"z": 0.556919303,
				"element": "H" 
			},
			{
				"x": -3.394512903,
				"y": -1.7871654084,
				"z": -1.2980830154,
				"element": "H" 
			},
			{
				"x": -1.0930911681,
				"y": -2.4083620825,
				"z": -1.9194682267,
				"element": "H" 
			}
		],
		 "valence_orbital": [ 
			{
				"type": "occ",
				"energy": -0.31969,
				"method": "rhf"
			},
			{
				"type": "occ",
				"energy": -0.29393,
				"method": "rhf"
			},
			{
				"type": "occ",
				"energy": -0.253,
				"method": "rhf"
			},
			{
				"type": "occ",
				"energy": -0.25031,
				"method": "rhf"
			},
			{
				"type": "occ",
				"energy": -0.21964,
				"method": "rhf"
			},
			{
				"type": "unocc",
				"energy": -0.00691,
				"method": "rhf"
			},
			{
				"type": "unocc",
				"energy": 0.00258,
				"method": "rhf"
			},
			{
				"type": "unocc",
				"energy": 0.02285,
				"method": "rhf"
			},
			{
				"type": "unocc",
				"energy": 0.06857,
				"method": "rhf"
			},
			{
				"type": "unocc",
				"energy": 0.08847,
				"method": "rhf"
			}
		],
		"cosmo_sigma_profile": { 
			"-0.025": 0.0,
			"-0.024": 0.0,
			"-0.023": 0.0,
			"-0.022": 0.0,
			"-0.021": 0.0,
			"-0.02": 0.0,
			"-0.019": 0.0,
			"-0.018": 0.0,
			"-0.017": 0.0,
			"-0.016": 0.0,
			"-0.015": 0.0,
			"-0.014": 0.0,
			"-0.013": 0.0,
			"-0.012": 0.0,
			"-0.011": 0.0,
			"-0.01": 0.0,
			"-0.009": 0.0,
			"-0.008": 0.715393299039,
			"-0.007": 11.1635509669,
			"-0.006": 21.2156238371,
			"-0.005": 24.3145785394,
			"-0.004": 25.3133585368,
			"-0.003": 25.2009838251,
			"-0.002": 16.3096197583,
			"-0.001": 14.7747350886,
			"0.0": 16.9614517721,
			"0.001": 12.0932381465,
			"0.002": 12.0106925821,
			"0.003": 11.2265718055,
			"0.004": 12.0562326887,
			"0.005": 11.0489278195,
			"0.006": 8.92592612284,
			"0.007": 3.49947930046,
			"0.008": 4.04545417656,
			"0.009": 3.68466336949,
			"0.01": 3.10728218779,
			"0.011": 5.45221129957,
			"0.012": 6.66443287163,
			"0.013": 4.20476668817,
			"0.014": 0.818659343838,
			"0.015": 0.0,
			"0.016": 0.0,
			"0.017": 0.0,
			"0.018": 0.0,
			"0.019": 0.0,
			"0.02": 0.0,
			"0.021": 0.0,
			"0.022": 0.0,
			"0.023": 0.0,
			"0.024": 0.0,
			"0.0": 0.0
		}
	}
}
