{
	 "smiles": "CCCC1=CC=C(C=C1)C1=CC=C(C=C1)C#N", 
	 "Tm": 338.15, 
	 "num_atms": 32, 
	 "gaussian": { 
		 "optdone": 1, 
		 "sigma_profile": "yes", 
		 "theory": "DFT", 
		 "functional": "B3LYP", 
		 "basiset": "6-31G**", 
		 "properties": { 
			 "R2extent": 6996.7796, 
			 "electric_dipole_moment_norm": 5.81067064202, 
			 "electric_quadrupole_moment_norm": 40.7588877677, 
			 "total_energy": -673.50269711, 
			 "HOMO_LUMO_gap": 0.17344, 
			 "cosmo_polarized_energy": -9.92, 
			 "cosmo_cavitation_energy": 36.5, 
			 "cosmo_dispersion_energy": -25.34, 
			 "cosmo_repulsion_energy": 1.96, 
			 "cosmo_total_nonelectrostatic_energy": 13.12, 
			 "SMD_solvation_energy": 7.12 
		},
		"coords": [
			{
				"x": 1.8237169848,
				"y": 0.7528915445,
				"z": -3.9708247867,
				"element": "C" 
			},
			{
				"x": 0.3652886756,
				"y": 0.4294110168,
				"z": -4.3070419916,
				"element": "C" 
			},
			{
				"x": -0.1990882821,
				"y": -0.7926620949,
				"z": -3.5472659346,
				"element": "C" 
			},
			{
				"x": -0.2995028998,
				"y": -0.5940156853,
				"z": -2.049827273,
				"element": "C" 
			},
			{
				"x": -1.3317860962,
				"y": 0.1793618379,
				"z": -1.4980210271,
				"element": "C" 
			},
			{
				"x": -1.425544019,
				"y": 0.3867259228,
				"z": -0.1251297873,
				"element": "C" 
			},
			{
				"x": -0.4845595159,
				"y": -0.1730009041,
				"z": 0.7567426519,
				"element": "C" 
			},
			{
				"x": 0.5483071322,
				"y": -0.9486290618,
				"z": 0.2061513435,
				"element": "C" 
			},
			{
				"x": 0.6351288265,
				"y": -1.1545621064,
				"z": -1.1694633595,
				"element": "C" 
			},
			{
				"x": -0.5823083405,
				"y": 0.0448206144,
				"z": 2.2201820112,
				"element": "C" 
			},
			{
				"x": -1.8325945031,
				"y": 0.0975244796,
				"z": 2.8634326912,
				"element": "C" 
			},
			{
				"x": -1.9305447693,
				"y": 0.3029281746,
				"z": 4.2342105616,
				"element": "C" 
			},
			{
				"x": -0.7670077148,
				"y": 0.4597965291,
				"z": 5.0062725288,
				"element": "C" 
			},
			{
				"x": 0.4893365702,
				"y": 0.4082052506,
				"z": 4.3789663564,
				"element": "C" 
			},
			{
				"x": 0.573161309,
				"y": 0.2051722921,
				"z": 3.0069401983,
				"element": "C" 
			},
			{
				"x": -0.8607743696,
				"y": 0.6705943744,
				"z": 6.4205808108,
				"element": "C" 
			},
			{
				"x": -0.9369314688,
				"y": 0.8418128286,
				"z": 7.5690637791,
				"element": "N" 
			},
			{
				"x": 2.4813734908,
				"y": -0.0902620124,
				"z": -4.2128841583,
				"element": "H" 
			},
			{
				"x": 2.1747003555,
				"y": 1.6205225261,
				"z": -4.5386711198,
				"element": "H" 
			},
			{
				"x": 1.9489337282,
				"y": 0.9767672372,
				"z": -2.906756781,
				"element": "H" 
			},
			{
				"x": 0.2716239203,
				"y": 0.2371933928,
				"z": -5.3832696648,
				"element": "H" 
			},
			{
				"x": -0.2641814156,
				"y": 1.3031361019,
				"z": -4.0948256417,
				"element": "H" 
			},
			{
				"x": 0.4298448841,
				"y": -1.666399657,
				"z": -3.7583195731,
				"element": "H" 
			},
			{
				"x": -1.1949382636,
				"y": -1.0218563224,
				"z": -3.9466724075,
				"element": "H" 
			},
			{
				"x": -2.0724188738,
				"y": 0.6287085497,
				"z": -2.1555034498,
				"element": "H" 
			},
			{
				"x": -2.2240148709,
				"y": 1.0098249697,
				"z": 0.2670947882,
				"element": "H" 
			},
			{
				"x": 1.2728473151,
				"y": -1.4217406772,
				"z": 0.8625330958,
				"element": "H" 
			},
			{
				"x": 1.4368347651,
				"y": -1.7726050298,
				"z": -1.5657094326,
				"element": "H" 
			},
			{
				"x": -2.7380674894,
				"y": -0.0502275913,
				"z": 2.2836738294,
				"element": "H" 
			},
			{
				"x": -2.9018353519,
				"y": 0.3329423263,
				"z": 4.7167345507,
				"element": "H" 
			},
			{
				"x": 1.3894073573,
				"y": 0.5381646733,
				"z": 4.9706742583,
				"element": "H" 
			},
			{
				"x": 1.5484929298,
				"y": 0.1955565003,
				"z": 2.5310329331,
				"element": "H" 
			}
		],
		 "valence_orbital": [ 
			{
				"type": "occ",
				"energy": -0.32582,
				"method": "rhf"
			},
			{
				"type": "occ",
				"energy": -0.27795,
				"method": "rhf"
			},
			{
				"type": "occ",
				"energy": -0.27364,
				"method": "rhf"
			},
			{
				"type": "occ",
				"energy": -0.26032,
				"method": "rhf"
			},
			{
				"type": "occ",
				"energy": -0.23317,
				"method": "rhf"
			},
			{
				"type": "unocc",
				"energy": -0.05973,
				"method": "rhf"
			},
			{
				"type": "unocc",
				"energy": -0.02338,
				"method": "rhf"
			},
			{
				"type": "unocc",
				"energy": -0.01249,
				"method": "rhf"
			},
			{
				"type": "unocc",
				"energy": 0.00036,
				"method": "rhf"
			},
			{
				"type": "unocc",
				"energy": 0.0402,
				"method": "rhf"
			}
		],
		"cosmo_sigma_profile": { 
			"-0.025": 0.0,
			"-0.024": 0.0,
			"-0.023": 0.0,
			"-0.022": 0.0,
			"-0.021": 0.0,
			"-0.02": 0.0,
			"-0.019": 0.0,
			"-0.018": 0.0,
			"-0.017": 0.0,
			"-0.016": 0.0,
			"-0.015": 0.0,
			"-0.014": 0.0,
			"-0.013": 0.0,
			"-0.012": 0.0,
			"-0.011": 0.0,
			"-0.01": 0.0,
			"-0.009": 0.0,
			"-0.008": 2.15578416418,
			"-0.007": 6.84020809338,
			"-0.006": 14.2932659491,
			"-0.005": 16.1167299308,
			"-0.004": 17.1637300171,
			"-0.003": 23.5027099085,
			"-0.002": 27.9920970668,
			"-0.001": 30.6116522756,
			"0.0": 31.4323457503,
			"0.001": 30.963847813,
			"0.002": 27.5756780979,
			"0.003": 17.2951211705,
			"0.004": 10.0312035535,
			"0.005": 10.3229669711,
			"0.006": 4.74463989593,
			"0.007": 2.96284296474,
			"0.008": 3.01397438595,
			"0.009": 3.6744521355,
			"0.01": 3.07979333819,
			"0.011": 2.82810778365,
			"0.012": 2.60283495688,
			"0.013": 1.81913731833,
			"0.014": 0.10156626301,
			"0.015": 0.0,
			"0.016": 0.0,
			"0.017": 0.0,
			"0.018": 0.0,
			"0.019": 0.0,
			"0.02": 0.0,
			"0.021": 0.0,
			"0.022": 0.0,
			"0.023": 0.0,
			"0.024": 0.0,
			"0.025": 0.0
		}
	}
}
