{
	 "smiles": "CC(C)N(C(C)C)C(=O)C1=CC=CC=C1", 
	 "Tm": 343.15, 
	 "num_atms": 34, 
	 "gaussian": { 
		 "optdone": 1, 
		 "sigma_profile": "yes", 
		 "theory": "DFT", 
		 "functional": "B3LYP", 
		 "basiset": "6-31G**", 
		 "properties": { 
			 "R2extent": 3743.2878, 
			 "electric_dipole_moment_norm": 3.20910456202, 
			 "electric_quadrupole_moment_norm": 15.7670841172, 
			 "total_energy": -636.829587829, 
			 "HOMO_LUMO_gap": 0.20725, 
			 "cosmo_polarized_energy": -10.04, 
			 "cosmo_cavitation_energy": 34.56, 
			 "cosmo_dispersion_energy": -23.36, 
			 "cosmo_repulsion_energy": 1.82, 
			 "cosmo_total_nonelectrostatic_energy": 13.02, 
			 "SMD_solvation_energy": 6.29 
		},
		"coords": [
			{
				"x": -0.8953539202,
				"y": -3.803714499,
				"z": 1.4893680723,
				"element": "C" 
			},
			{
				"x": 0.2406352239,
				"y": -2.8365160512,
				"z": 1.8438797572,
				"element": "C" 
			},
			{
				"x": 1.6153661687,
				"y": -3.520559601,
				"z": 1.8623194226,
				"element": "C" 
			},
			{
				"x": 0.2243763346,
				"y": -1.6248957393,
				"z": 0.9808413064,
				"element": "N" 
			},
			{
				"x": 0.344526197,
				"y": -1.8541780354,
				"z": -0.4869962741,
				"element": "C" 
			},
			{
				"x": 1.570885885,
				"y": -1.182527669,
				"z": -1.1247553331,
				"element": "C" 
			},
			{
				"x": -0.9383083202,
				"y": -1.5764266547,
				"z": -1.2868074637,
				"element": "C" 
			},
			{
				"x": 0.5294720262,
				"y": -0.4437231227,
				"z": 1.6318070729,
				"element": "C" 
			},
			{
				"x": 0.9149416881,
				"y": -0.4226170608,
				"z": 2.8015800462,
				"element": "O" 
			},
			{
				"x": 0.3125418238,
				"y": 0.8775034343,
				"z": 0.9393140416,
				"element": "C" 
			},
			{
				"x": 1.3530628821,
				"y": 1.8177630432,
				"z": 0.9461255944,
				"element": "C" 
			},
			{
				"x": 1.1559576459,
				"y": 3.0918482313,
				"z": 0.4182005211,
				"element": "C" 
			},
			{
				"x": -0.0962445924,
				"y": 3.4565322304,
				"z": -0.0853508536,
				"element": "C" 
			},
			{
				"x": -1.1487836135,
				"y": 2.5414176627,
				"z": -0.0540832293,
				"element": "C" 
			},
			{
				"x": -0.944941177,
				"y": 1.2554371597,
				"z": 0.452262469,
				"element": "C" 
			},
			{
				"x": -1.8638371826,
				"y": -3.2949212489,
				"z": 1.5075423711,
				"element": "H" 
			},
			{
				"x": -0.7698680641,
				"y": -4.2687823628,
				"z": 0.5054800379,
				"element": "H" 
			},
			{
				"x": -0.9247497748,
				"y": -4.6129039099,
				"z": 2.2262695954,
				"element": "H" 
			},
			{
				"x": 0.05889978,
				"y": -2.4548259797,
				"z": 2.8495249455,
				"element": "H" 
			},
			{
				"x": 1.6078181097,
				"y": -4.364802043,
				"z": 2.5600398567,
				"element": "H" 
			},
			{
				"x": 1.897279105,
				"y": -3.9120297277,
				"z": 0.8780140669,
				"element": "H" 
			},
			{
				"x": 2.3807261305,
				"y": -2.8136546571,
				"z": 2.1924735687,
				"element": "H" 
			},
			{
				"x": 0.5226174067,
				"y": -2.9303037825,
				"z": -0.5631224424,
				"element": "H" 
			},
			{
				"x": 1.7008799017,
				"y": -1.5625947267,
				"z": -2.1436688199,
				"element": "H" 
			},
			{
				"x": 1.4653169521,
				"y": -0.0977846829,
				"z": -1.1858211891,
				"element": "H" 
			},
			{
				"x": 2.4799487133,
				"y": -1.410164336,
				"z": -0.5599025339,
				"element": "H" 
			},
			{
				"x": -1.1153458449,
				"y": -0.5064846143,
				"z": -1.4121012379,
				"element": "H" 
			},
			{
				"x": -1.8110621729,
				"y": -2.0188328869,
				"z": -0.7986238118,
				"element": "H" 
			},
			{
				"x": -0.8482422785,
				"y": -2.018161013,
				"z": -2.2854721884,
				"element": "H" 
			},
			{
				"x": 2.3117512294,
				"y": 1.5392352243,
				"z": 1.3722313559,
				"element": "H" 
			},
			{
				"x": 1.9742048892,
				"y": 3.8062857569,
				"z": 0.4115816483,
				"element": "H" 
			},
			{
				"x": -0.252678033,
				"y": 4.4536583661,
				"z": -0.4868609929,
				"element": "H" 
			},
			{
				"x": -2.1316197217,
				"y": 2.8281256682,
				"z": -0.417366009,
				"element": "H" 
			},
			{
				"x": -1.7705733972,
				"y": 0.5530976276,
				"z": 0.4973766292,
				"element": "H" 
			}
		],
		 "valence_orbital": [ 
			{
				"type": "occ",
				"energy": -0.32573,
				"method": "rhf"
			},
			{
				"type": "occ",
				"energy": -0.2591,
				"method": "rhf"
			},
			{
				"type": "occ",
				"energy": -0.25317,
				"method": "rhf"
			},
			{
				"type": "occ",
				"energy": -0.23864,
				"method": "rhf"
			},
			{
				"type": "occ",
				"energy": -0.22716,
				"method": "rhf"
			},
			{
				"type": "unocc",
				"energy": -0.01991,
				"method": "rhf"
			},
			{
				"type": "unocc",
				"energy": -0.00421,
				"method": "rhf"
			},
			{
				"type": "unocc",
				"energy": 0.04113,
				"method": "rhf"
			},
			{
				"type": "unocc",
				"energy": 0.07335,
				"method": "rhf"
			},
			{
				"type": "unocc",
				"energy": 0.09359,
				"method": "rhf"
			}
		],
		"cosmo_sigma_profile": { 
			"-0.025": 0.0,
			"-0.024": 0.0,
			"-0.023": 0.0,
			"-0.022": 0.0,
			"-0.021": 0.0,
			"-0.02": 0.0,
			"-0.019": 0.0,
			"-0.018": 0.0,
			"-0.017": 0.0,
			"-0.016": 0.0,
			"-0.015": 0.0,
			"-0.014": 0.0,
			"-0.013": 0.0,
			"-0.012": 0.0,
			"-0.011": 0.0,
			"-0.01": 0.0,
			"-0.009": 0.0,
			"-0.008": 0.0,
			"-0.007": 0.14623857212,
			"-0.006": 6.86657772549,
			"-0.005": 12.8445692809,
			"-0.004": 20.0482726198,
			"-0.003": 32.7149978459,
			"-0.002": 32.8868713821,
			"-0.001": 37.2698814358,
			"0.0": 36.4818461893,
			"0.001": 30.2148448435,
			"0.002": 13.6175081228,
			"0.003": 8.12787884413,
			"0.004": 9.69535737141,
			"0.005": 8.9128928895,
			"0.006": 2.10113019162,
			"0.007": 2.28425053863,
			"0.008": 1.673414827,
			"0.009": 1.43503633614,
			"0.01": 1.98824429697,
			"0.011": 0.854333679376,
			"0.012": 2.49942383237,
			"0.013": 2.63217818232,
			"0.014": 4.11286511763,
			"0.015": 1.18459822518,
			"0.016": 0.0,
			"0.017": 0.0,
			"0.018": 0.0,
			"0.019": 0.0,
			"0.02": 0.0,
			"0.021": 0.0,
			"0.022": 0.0,
			"0.023": 0.0,
			"0.024": 0.0,
			"0.025": 0.0
		}
	}
}
