{
	 "smiles": "CCCC=CCCC", 
	 "Tm": 183.15, 
	 "num_atms": 24, 
	 "gaussian": { 
		 "optdone": 1, 
		 "sigma_profile": "yes", 
		 "theory": "DFT", 
		 "functional": "B3LYP", 
		 "basiset": "6-31G**", 
		 "properties": { 
			 "R2extent": 1993.0212, 
			 "electric_dipole_moment_norm": 0.112707763708, 
			 "electric_quadrupole_moment_norm": 1.38592759912, 
			 "total_energy": -314.495839895, 
			 "HOMO_LUMO_gap": 0.26637, 
			 "cosmo_polarized_energy": -1.45, 
			 "cosmo_cavitation_energy": 25.68, 
			 "cosmo_dispersion_energy": -18.37, 
			 "cosmo_repulsion_energy": 1.58, 
			 "cosmo_total_nonelectrostatic_energy": 8.9, 
			 "SMD_solvation_energy": 4.26 
		},
		"coords": [
			{
				"x": 0.3123485139,
				"y": -2.9790269429,
				"z": -1.5786923677,
				"element": "C" 
			},
			{
				"x": -0.5474794846,
				"y": -3.0076057965,
				"z": -0.3102921028,
				"element": "C" 
			},
			{
				"x": -1.7065585228,
				"y": -1.986507982,
				"z": -0.3040591198,
				"element": "C" 
			},
			{
				"x": -1.2648406176,
				"y": -0.5465199123,
				"z": -0.3322648542,
				"element": "C" 
			},
			{
				"x": -1.4647502158,
				"y": 0.3245444767,
				"z": 0.6615732452,
				"element": "C" 
			},
			{
				"x": -1.0437388021,
				"y": 1.7718671057,
				"z": 0.7034491765,
				"element": "C" 
			},
			{
				"x": -0.2987383007,
				"y": 2.3018618152,
				"z": -0.526109375,
				"element": "C" 
			},
			{
				"x": 0.0894816391,
				"y": 3.7776773206,
				"z": -0.3906875214,
				"element": "C" 
			},
			{
				"x": 0.8190294848,
				"y": -2.0165127157,
				"z": -1.7036159535,
				"element": "H" 
			},
			{
				"x": 1.0849294633,
				"y": -3.7544198611,
				"z": -1.5483470998,
				"element": "H" 
			},
			{
				"x": -0.296576154,
				"y": -3.1526269057,
				"z": -2.4739213803,
				"element": "H" 
			},
			{
				"x": -0.972279346,
				"y": -4.0123035506,
				"z": -0.1873096765,
				"element": "H" 
			},
			{
				"x": 0.0861885118,
				"y": -2.8291257265,
				"z": 0.5677091061,
				"element": "H" 
			},
			{
				"x": -2.3493757333,
				"y": -2.1893252622,
				"z": -1.174315039,
				"element": "H" 
			},
			{
				"x": -2.325685603,
				"y": -2.1563492898,
				"z": 0.5854585938,
				"element": "H" 
			},
			{
				"x": -0.7460384312,
				"y": -0.218634506,
				"z": -1.2319908053,
				"element": "H" 
			},
			{
				"x": -1.9920481338,
				"y": -0.0245652526,
				"z": 1.5521066848,
				"element": "H" 
			},
			{
				"x": -1.9377360783,
				"y": 2.3913143712,
				"z": 0.8772632409,
				"element": "H" 
			},
			{
				"x": -0.4196235482,
				"y": 1.9280374715,
				"z": 1.5974319455,
				"element": "H" 
			},
			{
				"x": 0.603217749,
				"y": 1.699039271,
				"z": -0.6924955736,
				"element": "H" 
			},
			{
				"x": -0.9256974662,
				"y": 2.1680602011,
				"z": -1.4169323549,
				"element": "H" 
			},
			{
				"x": -0.7951646953,
				"y": 4.4105764894,
				"z": -0.2556313374,
				"element": "H" 
			},
			{
				"x": 0.6195860563,
				"y": 4.1341178588,
				"z": -1.2798582774,
				"element": "H" 
			},
			{
				"x": 0.7445497146,
				"y": 3.9387273225,
				"z": 0.4732308458,
				"element": "H" 
			}
		],
		 "valence_orbital": [ 
			{
				"type": "occ",
				"energy": -0.32854,
				"method": "rhf"
			},
			{
				"type": "occ",
				"energy": -0.32791,
				"method": "rhf"
			},
			{
				"type": "occ",
				"energy": -0.32142,
				"method": "rhf"
			},
			{
				"type": "occ",
				"energy": -0.30891,
				"method": "rhf"
			},
			{
				"type": "occ",
				"energy": -0.23418,
				"method": "rhf"
			},
			{
				"type": "unocc",
				"energy": 0.03219,
				"method": "rhf"
			},
			{
				"type": "unocc",
				"energy": 0.09812,
				"method": "rhf"
			},
			{
				"type": "unocc",
				"energy": 0.10744,
				"method": "rhf"
			},
			{
				"type": "unocc",
				"energy": 0.11171,
				"method": "rhf"
			},
			{
				"type": "unocc",
				"energy": 0.13804,
				"method": "rhf"
			}
		],
		"cosmo_sigma_profile": { 
			"-0.025": 0.0,
			"-0.024": 0.0,
			"-0.023": 0.0,
			"-0.022": 0.0,
			"-0.021": 0.0,
			"-0.02": 0.0,
			"-0.019": 0.0,
			"-0.018": 0.0,
			"-0.017": 0.0,
			"-0.016": 0.0,
			"-0.015": 0.0,
			"-0.014": 0.0,
			"-0.013": 0.0,
			"-0.012": 0.0,
			"-0.011": 0.0,
			"-0.01": 0.0,
			"-0.009": 0.0,
			"-0.008": 0.0,
			"-0.007": 0.0,
			"-0.006": 0.0,
			"-0.005": 0.0,
			"-0.004": 0.496399387823,
			"-0.003": 11.6284598485,
			"-0.002": 35.443657154,
			"-0.001": 39.8519133317,
			"0.0": 41.2366792136,
			"0.001": 36.2855223579,
			"0.002": 16.6473533556,
			"0.003": 4.94045540601,
			"0.004": 3.1034924491,
			"0.005": 3.28217870362,
			"0.006": 2.51166976696,
			"0.007": 2.03200482182,
			"0.008": 0.587003774446,
			"0.009": 0.0,
			"0.01": 0.0,
			"0.011": 0.0,
			"0.012": 0.0,
			"0.013": 0.0,
			"0.014": 0.0,
			"0.015": 0.0,
			"0.016": 0.0,
			"0.017": 0.0,
			"0.018": 0.0,
			"0.019": 0.0,
			"0.02": 0.0,
			"0.021": 0.0,
			"0.022": 0.0,
			"0.023": 0.0,
			"0.024": 0.0,
			"0.025": 0.0
		}
	}
}
