{
	 "smiles": "ClC1=C(Br)C=C2OCCNC2=C1", 
	 "Tm": 398.15, 
	 "num_atms": 19, 
	 "gaussian": { 
		 "optdone": 1, 
		 "sigma_profile": "yes", 
		 "theory": "DFT", 
		 "functional": "B3LYP", 
		 "basiset": "6-31G**", 
		 "properties": { 
			 "R2extent": 10186.0326, 
			 "electric_dipole_moment_norm": 5.3580951634, 
			 "electric_quadrupole_moment_norm": 17.0564579708, 
			 "total_energy": -3470.62728402, 
			 "HOMO_LUMO_gap": 0.18986, 
			 "cosmo_polarized_energy": -9.95, 
			 "cosmo_cavitation_energy": 26.23, 
			 "cosmo_dispersion_energy": -20.58, 
			 "cosmo_repulsion_energy": 1.64, 
			 "cosmo_total_nonelectrostatic_energy": 7.29, 
			 "SMD_solvation_energy": 2.05 
		},
		"coords": [
			{
				"x": -4.1705211561,
				"y": -2.0098316399,
				"z": 4.4010652188,
				"element": "Cl" 
			},
			{
				"x": -3.3003785645,
				"y": -1.7888777337,
				"z": 2.8984647462,
				"element": "C" 
			},
			{
				"x": -3.4679738638,
				"y": -2.6525240286,
				"z": 1.8121750762,
				"element": "C" 
			},
			{
				"x": -4.6528779454,
				"y": -4.139969128,
				"z": 1.8725286152,
				"element": "Br" 
			},
			{
				"x": -2.741800199,
				"y": -2.4263041462,
				"z": 0.6415871626,
				"element": "C" 
			},
			{
				"x": -1.8672849338,
				"y": -1.350380553,
				"z": 0.5429667993,
				"element": "C" 
			},
			{
				"x": -1.2083596182,
				"y": -1.1707059991,
				"z": -0.6473355794,
				"element": "O" 
			},
			{
				"x": -0.0747589887,
				"y": -0.3008795072,
				"z": -0.5917210598,
				"element": "C" 
			},
			{
				"x": -0.4056688978,
				"y": 0.9756834949,
				"z": 0.1740924304,
				"element": "C" 
			},
			{
				"x": -0.7916949041,
				"y": 0.5922203306,
				"z": 1.5243877617,
				"element": "N" 
			},
			{
				"x": -1.6956374938,
				"y": -0.4670395104,
				"z": 1.6315198028,
				"element": "C" 
			},
			{
				"x": -2.4213775015,
				"y": -0.7091016198,
				"z": 2.8017389701,
				"element": "C" 
			},
			{
				"x": -2.8541901628,
				"y": -3.085020786,
				"z": -0.2110059795,
				"element": "H" 
			},
			{
				"x": 0.7659113625,
				"y": -0.8174378228,
				"z": -0.1107240113,
				"element": "H" 
			},
			{
				"x": 0.1857755445,
				"y": -0.0830485676,
				"z": -1.6296163642,
				"element": "H" 
			},
			{
				"x": 0.4785545349,
				"y": 1.6199237397,
				"z": 0.2190763165,
				"element": "H" 
			},
			{
				"x": -1.1998075328,
				"y": 1.5197097467,
				"z": -0.3620761998,
				"element": "H" 
			},
			{
				"x": -0.9624421826,
				"y": 1.3582340455,
				"z": 2.1617889389,
				"element": "H" 
			},
			{
				"x": -2.303067497,
				"y": -0.0472503152,
				"z": 3.6536873554,
				"element": "H" 
			}
		],
		 "valence_orbital": [ 
			{
				"type": "occ",
				"energy": -0.31363,
				"method": "rhf"
			},
			{
				"type": "occ",
				"energy": -0.27768,
				"method": "rhf"
			},
			{
				"type": "occ",
				"energy": -0.27354,
				"method": "rhf"
			},
			{
				"type": "occ",
				"energy": -0.23625,
				"method": "rhf"
			},
			{
				"type": "occ",
				"energy": -0.20183,
				"method": "rhf"
			},
			{
				"type": "unocc",
				"energy": -0.01197,
				"method": "rhf"
			},
			{
				"type": "unocc",
				"energy": -0.00287,
				"method": "rhf"
			},
			{
				"type": "unocc",
				"energy": 0.0004,
				"method": "rhf"
			},
			{
				"type": "unocc",
				"energy": 0.05961,
				"method": "rhf"
			},
			{
				"type": "unocc",
				"energy": 0.06701,
				"method": "rhf"
			}
		],
		"cosmo_sigma_profile": { 
			"-0.025": 0.0,
			"-0.024": 0.0,
			"-0.023": 0.0,
			"-0.022": 0.0,
			"-0.021": 0.0,
			"-0.02": 0.0,
			"-0.019": 0.0,
			"-0.018": 0.0,
			"-0.017": 0.0,
			"-0.016": 0.0,
			"-0.015": 0.0,
			"-0.014": 0.296683552302,
			"-0.013": 1.58699485937,
			"-0.012": 1.76821725109,
			"-0.011": 1.53315613715,
			"-0.01": 1.49813343097,
			"-0.009": 1.63544645643,
			"-0.008": 2.56116948551,
			"-0.007": 4.51528473733,
			"-0.006": 9.81700345086,
			"-0.005": 14.2498650635,
			"-0.004": 15.8141553165,
			"-0.003": 13.2357365412,
			"-0.002": 11.3104922746,
			"-0.001": 10.0851203989,
			"0.0": 9.54823106902,
			"0.001": 14.3407397921,
			"0.002": 23.306290741,
			"0.003": 27.5038842818,
			"0.004": 20.9323607798,
			"0.005": 15.7144115713,
			"0.006": 4.73393704896,
			"0.007": 2.18189839717,
			"0.008": 1.68573357755,
			"0.009": 2.42726929349,
			"0.01": 1.38200200363,
			"0.011": 0.769556243326,
			"0.012": 0.0149773420516,
			"0.013": 0.0,
			"0.014": 0.0,
			"0.015": 0.0,
			"0.016": 0.0,
			"0.017": 0.0,
			"0.018": 0.0,
			"0.019": 0.0,
			"0.02": 0.0,
			"0.021": 0.0,
			"0.022": 0.0,
			"0.023": 0.0,
			"0.024": 0.0,
			"0.025": 0.0
		}
	}
}
