{
	 "smiles": "CC(C)OC1=CC=C(C=C1)C(O)CN1CCN(C)CC1", 
	 "Tm": 377.15, 
	 "num_atms": 46, 
	 "gaussian": { 
		 "optdone": 1, 
		 "sigma_profile": "yes", 
		 "theory": "DFT", 
		 "functional": "B3LYP", 
		 "basiset": "6-31G**", 
		 "properties": { 
			 "R2extent": 8321.4703, 
			 "electric_dipole_moment_norm": 1.47239908992, 
			 "electric_quadrupole_moment_norm": 7.55925191074, 
			 "total_energy": -885.291306046, 
			 "HOMO_LUMO_gap": 0.19204, 
			 "cosmo_polarized_energy": -11.54, 
			 "cosmo_cavitation_energy": 45.42, 
			 "cosmo_dispersion_energy": -31.01, 
			 "cosmo_repulsion_energy": 2.44, 
			 "cosmo_total_nonelectrostatic_energy": 16.85, 
			 "SMD_solvation_energy": 5.71 
		},
		"coords": [
			{
				"x": 3.3355696981,
				"y": -1.5284510275,
				"z": 4.2732373504,
				"element": "C" 
			},
			{
				"x": 3.599021799,
				"y": -2.0875714481,
				"z": 2.8742386658,
				"element": "C" 
			},
			{
				"x": 4.645656353,
				"y": -3.1966080052,
				"z": 2.8754035114,
				"element": "C" 
			},
			{
				"x": 2.4062582733,
				"y": -2.681409546,
				"z": 2.3327958979,
				"element": "O" 
			},
			{
				"x": 1.4210736234,
				"y": -1.902417781,
				"z": 1.7956017057,
				"element": "C" 
			},
			{
				"x": 0.2867548264,
				"y": -2.5946902931,
				"z": 1.3465051667,
				"element": "C" 
			},
			{
				"x": -0.7712579694,
				"y": -1.901509634,
				"z": 0.7696060078,
				"element": "C" 
			},
			{
				"x": -0.7351769079,
				"y": -0.5079999866,
				"z": 0.6152314979,
				"element": "C" 
			},
			{
				"x": 0.4007708791,
				"y": 0.1738211409,
				"z": 1.0706452905,
				"element": "C" 
			},
			{
				"x": 1.4696231108,
				"y": -0.5077790872,
				"z": 1.6569140155,
				"element": "C" 
			},
			{
				"x": -1.8994218854,
				"y": 0.2260665497,
				"z": -0.0205705095,
				"element": "C" 
			},
			{
				"x": -2.3401192357,
				"y": 1.3332088505,
				"z": 0.7712139327,
				"element": "O" 
			},
			{
				"x": -1.6022397193,
				"y": 0.7713742136,
				"z": -1.4328634463,
				"element": "C" 
			},
			{
				"x": -0.5207081919,
				"y": 1.7412050575,
				"z": -1.4801089428,
				"element": "N" 
			},
			{
				"x": 0.4120411434,
				"y": 1.6184035815,
				"z": -2.5889052563,
				"element": "C" 
			},
			{
				"x": 1.726878034,
				"y": 2.3488930025,
				"z": -2.2435000746,
				"element": "C" 
			},
			{
				"x": 1.4800079293,
				"y": 3.500460115,
				"z": -1.3690615227,
				"element": "N" 
			},
			{
				"x": 2.5848887528,
				"y": 4.4397217398,
				"z": -1.3855919779,
				"element": "C" 
			},
			{
				"x": 0.1880568953,
				"y": 4.1093417524,
				"z": -1.6553043102,
				"element": "C" 
			},
			{
				"x": -0.9453749907,
				"y": 3.1319564183,
				"z": -1.2842600041,
				"element": "C" 
			},
			{
				"x": 2.5492394266,
				"y": -0.7693926499,
				"z": 4.2605211108,
				"element": "H" 
			},
			{
				"x": 4.2441175973,
				"y": -1.0727136893,
				"z": 4.6804888731,
				"element": "H" 
			},
			{
				"x": 3.0219463329,
				"y": -2.3340051729,
				"z": 4.9447742507,
				"element": "H" 
			},
			{
				"x": 3.9346698941,
				"y": -1.2842448002,
				"z": 2.2046393503,
				"element": "H" 
			},
			{
				"x": 4.8065345904,
				"y": -3.5748361593,
				"z": 1.8623360248,
				"element": "H" 
			},
			{
				"x": 4.3165544495,
				"y": -4.0291735661,
				"z": 3.5051063195,
				"element": "H" 
			},
			{
				"x": 5.5977525449,
				"y": -2.8228888838,
				"z": 3.264526036,
				"element": "H" 
			},
			{
				"x": 0.258311438,
				"y": -3.6729984626,
				"z": 1.4656440711,
				"element": "H" 
			},
			{
				"x": -1.6453957345,
				"y": -2.4553086679,
				"z": 0.4332653154,
				"element": "H" 
			},
			{
				"x": 0.4583959247,
				"y": 1.2491284335,
				"z": 0.9457743413,
				"element": "H" 
			},
			{
				"x": 2.3282605073,
				"y": 0.0587228856,
				"z": 1.9974180541,
				"element": "H" 
			},
			{
				"x": -2.7269893734,
				"y": -0.4954582503,
				"z": -0.1409517005,
				"element": "H" 
			},
			{
				"x": -2.3234842194,
				"y": 1.0492625447,
				"z": 1.694350827,
				"element": "H" 
			},
			{
				"x": -2.5433007423,
				"y": 1.1878454266,
				"z": -1.8361334415,
				"element": "H" 
			},
			{
				"x": -1.3416493617,
				"y": -0.0895014749,
				"z": -2.0579702573,
				"element": "H" 
			},
			{
				"x": -0.0018210072,
				"y": 2.0163203298,
				"z": -3.5367539051,
				"element": "H" 
			},
			{
				"x": 0.6281674427,
				"y": 0.5603929851,
				"z": -2.7635320857,
				"element": "H" 
			},
			{
				"x": 2.2154377654,
				"y": 2.6519515387,
				"z": -3.1904403887,
				"element": "H" 
			},
			{
				"x": 2.4141849853,
				"y": 1.6678671181,
				"z": -1.7260792085,
				"element": "H" 
			},
			{
				"x": 3.5104583148,
				"y": 3.9235954455,
				"z": -1.1065686681,
				"element": "H" 
			},
			{
				"x": 2.7512456926,
				"y": 4.9115353049,
				"z": -2.375030506,
				"element": "H" 
			},
			{
				"x": 2.4101668457,
				"y": 5.2368439334,
				"z": -0.6550984737,
				"element": "H" 
			},
			{
				"x": 0.1032186097,
				"y": 4.42275249,
				"z": -2.7155575752,
				"element": "H" 
			},
			{
				"x": 0.0860201112,
				"y": 5.0215080311,
				"z": -1.0577121192,
				"element": "H" 
			},
			{
				"x": -1.2356818869,
				"y": 3.2561271208,
				"z": -0.2389995287,
				"element": "H" 
			},
			{
				"x": -1.8356625654,
				"y": 3.371552576,
				"z": -1.8984437141,
				"element": "H" 
			}
		],
		 "valence_orbital": [ 
			{
				"type": "occ",
				"energy": -0.26272,
				"method": "rhf"
			},
			{
				"type": "occ",
				"energy": -0.24291,
				"method": "rhf"
			},
			{
				"type": "occ",
				"energy": -0.20905,
				"method": "rhf"
			},
			{
				"type": "occ",
				"energy": -0.20684,
				"method": "rhf"
			},
			{
				"type": "occ",
				"energy": -0.18595,
				"method": "rhf"
			},
			{
				"type": "unocc",
				"energy": 0.00609,
				"method": "rhf"
			},
			{
				"type": "unocc",
				"energy": 0.01497,
				"method": "rhf"
			},
			{
				"type": "unocc",
				"energy": 0.08046,
				"method": "rhf"
			},
			{
				"type": "unocc",
				"energy": 0.09268,
				"method": "rhf"
			},
			{
				"type": "unocc",
				"energy": 0.09587,
				"method": "rhf"
			}
		],
		"cosmo_sigma_profile": { 
			"-0.025": 0.0,
			"-0.024": 0.0,
			"-0.023": 0.0,
			"-0.022": 0.0,
			"-0.021": 0.0,
			"-0.02": 0.0,
			"-0.019": 0.0,
			"-0.018": 0.0,
			"-0.017": 0.0,
			"-0.016": 0.0349015504458,
			"-0.015": 0.464570628375,
			"-0.014": 0.564316707218,
			"-0.013": 1.04810801871,
			"-0.012": 0.862179863503,
			"-0.011": 0.108085916342,
			"-0.01": 0.255428032227,
			"-0.009": 0.855222326254,
			"-0.008": 0.900361860281,
			"-0.007": 1.3545224786,
			"-0.006": 3.94311065243,
			"-0.005": 10.4320154206,
			"-0.004": 25.70580608,
			"-0.003": 39.0639244531,
			"-0.002": 45.5472429665,
			"-0.001": 61.8122853624,
			"0.0": 49.6470980171,
			"0.001": 23.9685408499,
			"0.002": 9.24945271232,
			"0.003": 12.8789943119,
			"0.004": 12.1425692711,
			"0.005": 13.0173542227,
			"0.006": 13.515154305,
			"0.007": 5.75463838439,
			"0.008": 4.62569454704,
			"0.009": 3.53392002887,
			"0.01": 4.00326461272,
			"0.011": 2.4986981523,
			"0.012": 1.55710259929,
			"0.013": 1.67146645857,
			"0.014": 1.26148257059,
			"0.015": 0.166065451162,
			"0.016": 0.0,
			"0.017": 0.0,
			"0.018": 0.0,
			"0.019": 0.0,
			"0.02": 0.0,
			"0.021": 0.0,
			"0.022": 0.0,
			"0.023": 0.0,
			"0.024": 0.0,
			"0.025": 0.0
		}
	}
}
