{
	 "smiles": "NC1=C(C=C(Br)C=C1Br)C(O)C1=CC=CC=C1", 
	 "Tm": 425.15, 
	 "num_atms": 28, 
	 "gaussian": { 
		 "optdone": 1, 
		 "sigma_profile": "yes", 
		 "theory": "DFT", 
		 "functional": "B3LYP", 
		 "basiset": "6-31G**", 
		 "properties": { 
			 "R2extent": 10131.142, 
			 "electric_dipole_moment_norm": 4.9657536427, 
			 "electric_quadrupole_moment_norm": 3.93617837883, 
			 "total_energy": -5774.79574713, 
			 "HOMO_LUMO_gap": 0.18141, 
			 "cosmo_polarized_energy": -11.29, 
			 "cosmo_cavitation_energy": 35.89, 
			 "cosmo_dispersion_energy": -26.37, 
			 "cosmo_repulsion_energy": 2.07, 
			 "cosmo_total_nonelectrostatic_energy": 11.59, 
			 "SMD_solvation_energy": 3.48 
		},
		"coords": [
			{
				"x": 0.536071848,
				"y": -0.9769021401,
				"z": 2.1809348789,
				"element": "N" 
			},
			{
				"x": -0.7624796385,
				"y": -1.1248055777,
				"z": 1.7093749114,
				"element": "C" 
			},
			{
				"x": -1.0619478389,
				"y": -0.9125898272,
				"z": 0.3396165913,
				"element": "C" 
			},
			{
				"x": -2.3565246383,
				"y": -1.1078623378,
				"z": -0.1384340359,
				"element": "C" 
			},
			{
				"x": -3.3696659932,
				"y": -1.519655559,
				"z": 0.7237110285,
				"element": "C" 
			},
			{
				"x": -5.1408356422,
				"y": -1.7828986508,
				"z": 0.0518298235,
				"element": "Br" 
			},
			{
				"x": -3.1097442092,
				"y": -1.7505955124,
				"z": 2.0690610477,
				"element": "C" 
			},
			{
				"x": -1.8166751904,
				"y": -1.5466593437,
				"z": 2.5406802998,
				"element": "C" 
			},
			{
				"x": -1.4809459077,
				"y": -1.8584678343,
				"z": 4.404776755,
				"element": "Br" 
			},
			{
				"x": 0.0552167997,
				"y": -0.5154392202,
				"z": -0.6139089039,
				"element": "C" 
			},
			{
				"x": -0.4360122525,
				"y": -0.6541628036,
				"z": -1.9457400864,
				"element": "O" 
			},
			{
				"x": 0.5786898322,
				"y": 0.9022619949,
				"z": -0.3860918649,
				"element": "C" 
			},
			{
				"x": -0.3009739278,
				"y": 1.9953653098,
				"z": -0.3815817489,
				"element": "C" 
			},
			{
				"x": 0.185841641,
				"y": 3.2920359578,
				"z": -0.233594906,
				"element": "C" 
			},
			{
				"x": 1.5588695157,
				"y": 3.5169856899,
				"z": -0.086379439,
				"element": "C" 
			},
			{
				"x": 2.4421969213,
				"y": 2.4384314597,
				"z": -0.0922538914,
				"element": "C" 
			},
			{
				"x": 1.9526006916,
				"y": 1.1375096547,
				"z": -0.2462740412,
				"element": "C" 
			},
			{
				"x": 1.0549982144,
				"y": -0.2064805678,
				"z": 1.7800664965,
				"element": "H" 
			},
			{
				"x": 0.6151410901,
				"y": -1.0120133592,
				"z": 3.1890999014,
				"element": "H" 
			},
			{
				"x": -2.5530153123,
				"y": -0.9561867687,
				"z": -1.1911555143,
				"element": "H" 
			},
			{
				"x": -3.8921005107,
				"y": -2.0752891821,
				"z": 2.7427481001,
				"element": "H" 
			},
			{
				"x": 0.8940210749,
				"y": -1.2116854487,
				"z": -0.4448839618,
				"element": "H" 
			},
			{
				"x": 0.2121095588,
				"y": -0.2497277008,
				"z": -2.5362134413,
				"element": "H" 
			},
			{
				"x": -1.3670855061,
				"y": 1.8196522496,
				"z": -0.4905222683,
				"element": "H" 
			},
			{
				"x": -0.5047467871,
				"y": 4.1304872324,
				"z": -0.2294172871,
				"element": "H" 
			},
			{
				"x": 1.9348825303,
				"y": 4.5289672384,
				"z": 0.0325155964,
				"element": "H" 
			},
			{
				"x": 3.5098257748,
				"y": 2.605148388,
				"z": 0.018302514,
				"element": "H" 
			},
			{
				"x": 2.6437878619,
				"y": 0.296976659,
				"z": -0.2615665543,
				"element": "H" 
			}
		],
		 "valence_orbital": [ 
			{
				"type": "occ",
				"energy": -0.27877,
				"method": "rhf"
			},
			{
				"type": "occ",
				"energy": -0.26743,
				"method": "rhf"
			},
			{
				"type": "occ",
				"energy": -0.2604,
				"method": "rhf"
			},
			{
				"type": "occ",
				"energy": -0.24607,
				"method": "rhf"
			},
			{
				"type": "occ",
				"energy": -0.20845,
				"method": "rhf"
			},
			{
				"type": "unocc",
				"energy": -0.02704,
				"method": "rhf"
			},
			{
				"type": "unocc",
				"energy": -0.02095,
				"method": "rhf"
			},
			{
				"type": "unocc",
				"energy": -0.01015,
				"method": "rhf"
			},
			{
				"type": "unocc",
				"energy": -0.00692,
				"method": "rhf"
			},
			{
				"type": "unocc",
				"energy": -0.00089,
				"method": "rhf"
			}
		],
		"cosmo_sigma_profile": { 
			"-0.025": 0.0,
			"-0.024": 0.0,
			"-0.023": 0.0,
			"-0.022": 0.0,
			"-0.021": 0.0,
			"-0.02": 0.0,
			"-0.019": 0.0,
			"-0.018": 0.0,
			"-0.017": 0.0,
			"-0.016": 0.389382612635,
			"-0.015": 1.12233986993,
			"-0.014": 0.635199835947,
			"-0.013": 0.843863632497,
			"-0.012": 0.498494646624,
			"-0.011": 1.23223756726,
			"-0.01": 2.41659198891,
			"-0.009": 2.80203768003,
			"-0.008": 3.35869582285,
			"-0.007": 4.61910092406,
			"-0.006": 14.0503522718,
			"-0.005": 17.2607130769,
			"-0.004": 19.8878163548,
			"-0.003": 17.6543544734,
			"-0.002": 18.4356904116,
			"-0.001": 17.1176258534,
			"0.0": 18.6313045177,
			"0.001": 24.452922139,
			"0.002": 31.4001709463,
			"0.003": 34.2595182617,
			"0.004": 27.8262504738,
			"0.005": 19.9828337182,
			"0.006": 2.93866465334,
			"0.007": 2.22686506138,
			"0.008": 2.6046209907,
			"0.009": 2.06593691801,
			"0.01": 1.29340303713,
			"0.011": 1.56840135078,
			"0.012": 0.964751514235,
			"0.013": 0.672659034087,
			"0.014": 0.0,
			"0.015": 0.0,
			"0.016": 0.0,
			"0.017": 0.0,
			"0.018": 0.0,
			"0.019": 0.0,
			"0.02": 0.0,
			"0.021": 0.0,
			"0.022": 0.0,
			"0.023": 0.0,
			"0.024": 0.0,
			"0.025": 0.0
		}
	}
}
