{
	 "smiles": "CCOC(=O)NC1=C(C=C(F)C=C1F)C#C[Si](C)(C)C", 
	 "Tm": 348.15, 
	 "num_atms": 37, 
	 "gaussian": { 
		 "optdone": 1, 
		 "sigma_profile": "yes", 
		 "theory": "DFT", 
		 "functional": "B3LYP", 
		 "basiset": "6-31G**", 
		 "properties": { 
			 "R2extent": 9747.6933, 
			 "electric_dipole_moment_norm": 3.64791173687, 
			 "electric_quadrupole_moment_norm": 8.7001099677, 
			 "total_energy": -1238.12226999, 
			 "HOMO_LUMO_gap": 0.17752, 
			 "cosmo_polarized_energy": -10.75, 
			 "cosmo_cavitation_energy": 45.2, 
			 "cosmo_dispersion_energy": -27.59, 
			 "cosmo_repulsion_energy": 2.27, 
			 "cosmo_total_nonelectrostatic_energy": 19.88, 
			 "SMD_solvation_energy": 11.88 
		},
		"coords": [
			{
				"x": -1.5812369285,
				"y": 3.3539157325,
				"z": -3.3349123325,
				"element": "C" 
			},
			{
				"x": -1.4878819112,
				"y": 4.1719808764,
				"z": -2.0559237144,
				"element": "C" 
			},
			{
				"x": -0.8870101813,
				"y": 3.4114538812,
				"z": -0.9830778554,
				"element": "O" 
			},
			{
				"x": 0.4702822879,
				"y": 3.4110479389,
				"z": -0.9532337477,
				"element": "C" 
			},
			{
				"x": 1.1932617573,
				"y": 4.0101212214,
				"z": -1.7204088941,
				"element": "O" 
			},
			{
				"x": 0.884031602,
				"y": 2.6235531182,
				"z": 0.1061768249,
				"element": "N" 
			},
			{
				"x": 2.2275020354,
				"y": 2.2883110718,
				"z": 0.3412763629,
				"element": "C" 
			},
			{
				"x": 2.6075391908,
				"y": 0.9366125234,
				"z": 0.5276715723,
				"element": "C" 
			},
			{
				"x": 3.9467603937,
				"y": 0.6071298082,
				"z": 0.8078796891,
				"element": "C" 
			},
			{
				"x": 4.886554005,
				"y": 1.6216056164,
				"z": 0.8803824776,
				"element": "C" 
			},
			{
				"x": 6.1726268298,
				"y": 1.3083709963,
				"z": 1.1307539263,
				"element": "F" 
			},
			{
				"x": 4.5461469944,
				"y": 2.9602639345,
				"z": 0.7167534954,
				"element": "C" 
			},
			{
				"x": 3.2152891979,
				"y": 3.2722786471,
				"z": 0.4733086331,
				"element": "C" 
			},
			{
				"x": 2.8693610474,
				"y": 4.5636360169,
				"z": 0.3928317688,
				"element": "F" 
			},
			{
				"x": 1.6171896624,
				"y": -0.0856899908,
				"z": 0.4416495842,
				"element": "C" 
			},
			{
				"x": 0.747940549,
				"y": -0.9415679645,
				"z": 0.3715023028,
				"element": "C" 
			},
			{
				"x": -0.5353068355,
				"y": -2.2635307517,
				"z": 0.246627466,
				"element": "Si" 
			},
			{
				"x": 0.3341411497,
				"y": -3.9024257891,
				"z": -0.1014471733,
				"element": "C" 
			},
			{
				"x": -1.4740383976,
				"y": -2.3478199637,
				"z": 1.8832027905,
				"element": "C" 
			},
			{
				"x": -1.7097156019,
				"y": -1.8221017935,
				"z": -1.1645499384,
				"element": "C" 
			},
			{
				"x": -2.1056840066,
				"y": 3.927929971,
				"z": -4.106226272,
				"element": "H" 
			},
			{
				"x": -2.1320936755,
				"y": 2.4239414032,
				"z": -3.1647854413,
				"element": "H" 
			},
			{
				"x": -0.582721774,
				"y": 3.1124108561,
				"z": -3.7074706917,
				"element": "H" 
			},
			{
				"x": -0.9030670325,
				"y": 5.0814030411,
				"z": -2.2119930151,
				"element": "H" 
			},
			{
				"x": -2.4774497167,
				"y": 4.4381448606,
				"z": -1.6762999985,
				"element": "H" 
			},
			{
				"x": 0.1905723638,
				"y": 1.9784204074,
				"z": 0.4626609616,
				"element": "H" 
			},
			{
				"x": 4.2421518701,
				"y": -0.4242875901,
				"z": 0.9543400778,
				"element": "H" 
			},
			{
				"x": 5.2867732227,
				"y": 3.7457088111,
				"z": 0.8030108065,
				"element": "H" 
			},
			{
				"x": 0.8973979285,
				"y": -3.8624491111,
				"z": -1.0392357312,
				"element": "H" 
			},
			{
				"x": -0.3952819366,
				"y": -4.7163864091,
				"z": -0.1826683314,
				"element": "H" 
			},
			{
				"x": 1.034547019,
				"y": -4.1596669875,
				"z": 0.6996207626,
				"element": "H" 
			},
			{
				"x": -0.8025175908,
				"y": -2.5806308364,
				"z": 2.7158363277,
				"element": "H" 
			},
			{
				"x": -1.9710513108,
				"y": -1.3988443536,
				"z": 2.1092666995,
				"element": "H" 
			},
			{
				"x": -2.2437875548,
				"y": -3.1271728908,
				"z": 1.8455305157,
				"element": "H" 
			},
			{
				"x": -1.1771234148,
				"y": -1.7568180047,
				"z": -2.118727004,
				"element": "H" 
			},
			{
				"x": -2.201914531,
				"y": -0.8598969419,
				"z": -0.9892668513,
				"element": "H" 
			},
			{
				"x": -2.4913867068,
				"y": -2.583351355,
				"z": -1.2680560532,
				"element": "H" 
			}
		],
		 "valence_orbital": [ 
			{
				"type": "occ",
				"energy": -0.2934,
				"method": "rhf"
			},
			{
				"type": "occ",
				"energy": -0.27823,
				"method": "rhf"
			},
			{
				"type": "occ",
				"energy": -0.27486,
				"method": "rhf"
			},
			{
				"type": "occ",
				"energy": -0.2454,
				"method": "rhf"
			},
			{
				"type": "occ",
				"energy": -0.22758,
				"method": "rhf"
			},
			{
				"type": "unocc",
				"energy": -0.05006,
				"method": "rhf"
			},
			{
				"type": "unocc",
				"energy": -0.00622,
				"method": "rhf"
			},
			{
				"type": "unocc",
				"energy": 0.00975,
				"method": "rhf"
			},
			{
				"type": "unocc",
				"energy": 0.05234,
				"method": "rhf"
			},
			{
				"type": "unocc",
				"energy": 0.05676,
				"method": "rhf"
			}
		],
		"cosmo_sigma_profile": { 
			"-0.025": 0.0,
			"-0.024": 0.0,
			"-0.023": 0.0,
			"-0.022": 0.0,
			"-0.021": 0.0,
			"-0.02": 0.0,
			"-0.019": 0.0,
			"-0.018": 0.0,
			"-0.017": 0.0,
			"-0.016": 0.0,
			"-0.015": 0.0,
			"-0.014": 0.0,
			"-0.013": 0.112238903976,
			"-0.012": 0.433156000116,
			"-0.011": 0.468889618475,
			"-0.01": 1.22119845722,
			"-0.009": 2.61600936072,
			"-0.008": 3.76887895632,
			"-0.007": 3.11477204807,
			"-0.006": 5.97639505111,
			"-0.005": 8.81198007917,
			"-0.004": 26.0971595629,
			"-0.003": 35.4299072469,
			"-0.002": 35.8984048248,
			"-0.001": 39.7083854616,
			"0.0": 48.4702339995,
			"0.001": 43.6985334197,
			"0.002": 22.6031601837,
			"0.003": 22.494471368,
			"0.004": 22.0309808407,
			"0.005": 8.55684434191,
			"0.006": 6.72375826226,
			"0.007": 3.4213932262,
			"0.008": 2.53120350905,
			"0.009": 1.73561395241,
			"0.01": 2.10125323375,
			"0.011": 2.17980891361,
			"0.012": 4.43982131772,
			"0.013": 1.05660257897,
			"0.014": 0.0,
			"0.015": 0.0,
			"0.016": 0.0,
			"0.017": 0.0,
			"0.018": 0.0,
			"0.019": 0.0,
			"0.02": 0.0,
			"0.021": 0.0,
			"0.022": 0.0,
			"0.023": 0.0,
			"0.024": 0.0,
			"0.025": 0.0
		}
	}
}
