{
	 "smiles": "CC1=NC=CN1C1=NC=C(CN)C=C1", 
	 "Tm": 319.15, 
	 "num_atms": 26, 
	 "gaussian": { 
		 "optdone": 1, 
		 "sigma_profile": "yes", 
		 "theory": "DFT", 
		 "functional": "B3LYP", 
		 "basiset": "6-31G**", 
		 "properties": { 
			 "R2extent": 3612.8895, 
			 "electric_dipole_moment_norm": 3.92415032969, 
			 "electric_quadrupole_moment_norm": 17.0913281049, 
			 "total_energy": -607.295059289, 
			 "HOMO_LUMO_gap": 0.17606, 
			 "cosmo_polarized_energy": -15.39, 
			 "cosmo_cavitation_energy": 29.86, 
			 "cosmo_dispersion_energy": -21.54, 
			 "cosmo_repulsion_energy": 1.69, 
			 "cosmo_total_nonelectrostatic_energy": 10.01, 
			 "SMD_solvation_energy": 1.8 
		},
		"coords": [
			{
				"x": -0.3554463589,
				"y": -2.7175211387,
				"z": 1.6343847522,
				"element": "C" 
			},
			{
				"x": 0.5194611619,
				"y": -2.4454329326,
				"z": 0.4542101136,
				"element": "C" 
			},
			{
				"x": 1.1513621375,
				"y": -3.3794753195,
				"z": -0.2226208032,
				"element": "N" 
			},
			{
				"x": 1.8206830849,
				"y": -2.7350739799,
				"z": -1.2422750917,
				"element": "C" 
			},
			{
				"x": 1.5851236679,
				"y": -1.3923659421,
				"z": -1.2008601429,
				"element": "C" 
			},
			{
				"x": 0.7477159658,
				"y": -1.1894402303,
				"z": -0.1043348854,
				"element": "N" 
			},
			{
				"x": 0.2303444717,
				"y": 0.0633241612,
				"z": 0.3001961888,
				"element": "C" 
			},
			{
				"x": -0.020942448,
				"y": 0.2257159655,
				"z": 1.5995382104,
				"element": "N" 
			},
			{
				"x": -0.499852091,
				"y": 1.4080301229,
				"z": 2.0011484569,
				"element": "C" 
			},
			{
				"x": -0.7308002755,
				"y": 2.500550726,
				"z": 1.1596514912,
				"element": "C" 
			},
			{
				"x": -1.1987750102,
				"y": 3.8370821001,
				"z": 1.7045020709,
				"element": "C" 
			},
			{
				"x": -0.1412843956,
				"y": 4.8237059951,
				"z": 1.9704821841,
				"element": "N" 
			},
			{
				"x": -0.4714987589,
				"y": 2.2981740086,
				"z": -0.2031029195,
				"element": "C" 
			},
			{
				"x": 0.0019001181,
				"y": 1.0717129555,
				"z": -0.650483942,
				"element": "C" 
			},
			{
				"x": -1.3536300995,
				"y": -2.2847648374,
				"z": 1.5130739528,
				"element": "H" 
			},
			{
				"x": 0.0619607025,
				"y": -2.3005261457,
				"z": 2.5540882275,
				"element": "H" 
			},
			{
				"x": -0.4444610933,
				"y": -3.8008831708,
				"z": 1.7304786876,
				"element": "H" 
			},
			{
				"x": 2.4389144678,
				"y": -3.2788650221,
				"z": -1.9432051596,
				"element": "H" 
			},
			{
				"x": 1.9583556189,
				"y": -0.5709135702,
				"z": -1.7908612591,
				"element": "H" 
			},
			{
				"x": -0.7088096758,
				"y": 1.4922884869,
				"z": 3.0676789067,
				"element": "H" 
			},
			{
				"x": -1.7464662341,
				"y": 3.6762249773,
				"z": 2.6398427377,
				"element": "H" 
			},
			{
				"x": -1.9075431239,
				"y": 4.2916189883,
				"z": 1.0026792705,
				"element": "H" 
			},
			{
				"x": 0.5346123526,
				"y": 4.4305965684,
				"z": 2.6224113869,
				"element": "H" 
			},
			{
				"x": 0.3760324387,
				"y": 5.0120653148,
				"z": 1.1142176032,
				"element": "H" 
			},
			{
				"x": -0.661364737,
				"y": 3.0955548432,
				"z": -0.9184291468,
				"element": "H" 
			},
			{
				"x": 0.1633081133,
				"y": 0.8855170755,
				"z": -1.705810891,
				"element": "H" 
			}
		],
		 "valence_orbital": [ 
			{
				"type": "occ",
				"energy": -0.27812,
				"method": "rhf"
			},
			{
				"type": "occ",
				"energy": -0.25905,
				"method": "rhf"
			},
			{
				"type": "occ",
				"energy": -0.25578,
				"method": "rhf"
			},
			{
				"type": "occ",
				"energy": -0.23864,
				"method": "rhf"
			},
			{
				"type": "occ",
				"energy": -0.21741,
				"method": "rhf"
			},
			{
				"type": "unocc",
				"energy": -0.04135,
				"method": "rhf"
			},
			{
				"type": "unocc",
				"energy": -0.03235,
				"method": "rhf"
			},
			{
				"type": "unocc",
				"energy": 0.0389,
				"method": "rhf"
			},
			{
				"type": "unocc",
				"energy": 0.07312,
				"method": "rhf"
			},
			{
				"type": "unocc",
				"energy": 0.07603,
				"method": "rhf"
			}
		],
		"cosmo_sigma_profile": { 
			"-0.025": 0.0,
			"-0.024": 0.0,
			"-0.023": 0.0,
			"-0.022": 0.0,
			"-0.021": 0.0,
			"-0.02": 0.0,
			"-0.019": 0.0,
			"-0.018": 0.0,
			"-0.017": 0.0,
			"-0.016": 0.0,
			"-0.015": 0.0,
			"-0.014": 0.0,
			"-0.013": 0.0,
			"-0.012": 0.0,
			"-0.011": 0.0,
			"-0.01": 0.848431367767,
			"-0.009": 4.27083862459,
			"-0.008": 7.33887727769,
			"-0.007": 10.5282117505,
			"-0.006": 15.1623391143,
			"-0.005": 15.5176139313,
			"-0.004": 17.327147865,
			"-0.003": 16.52377589,
			"-0.002": 16.8895832471,
			"-0.001": 19.75449979,
			"0.0": 18.6707004803,
			"0.001": 16.1705242231,
			"0.002": 17.5964470046,
			"0.003": 9.44763571588,
			"0.004": 7.35650359825,
			"0.005": 8.39406573684,
			"0.006": 6.19634771551,
			"0.007": 4.71680209386,
			"0.008": 3.04233369528,
			"0.009": 4.43894103596,
			"0.01": 2.90422167599,
			"0.011": 1.34434155747,
			"0.012": 1.74565314304,
			"0.013": 2.18362703233,
			"0.014": 1.76478653527,
			"0.015": 1.55807545389,
			"0.016": 1.93722859218,
			"0.017": 1.49133111173,
			"0.018": 0.899068168307,
			"0.019": 1.05155158264,
			"0.02": 0.0254769753962,
			"0.021": 0.0,
			"0.022": 0.0,
			"0.023": 0.0,
			"0.024": 0.0,
			"0.025": 0.0
		}
	}
}
