{
	 "smiles": "CCNC(=O)CN(CC)C(=O)CCl", 
	 "Tm": 520.15, 
	 "num_atms": 28, 
	 "gaussian": { 
		 "optdone": 1, 
		 "sigma_profile": "yes", 
		 "theory": "DFT", 
		 "functional": "B3LYP", 
		 "basiset": "6-31G**", 
		 "properties": { 
			 "R2extent": 3902.3576, 
			 "electric_dipole_moment_norm": 8.8088060922, 
			 "electric_quadrupole_moment_norm": 10.9958731127, 
			 "total_energy": -1034.05966356, 
			 "HOMO_LUMO_gap": 0.24865, 
			 "cosmo_polarized_energy": -23.37, 
			 "cosmo_cavitation_energy": 32.64, 
			 "cosmo_dispersion_energy": -22.52, 
			 "cosmo_repulsion_energy": 1.85, 
			 "cosmo_total_nonelectrostatic_energy": 11.98, 
			 "SMD_solvation_energy": 5.97 
		},
		"coords": [
			{
				"x": -3.0560964053,
				"y": -1.7572139997,
				"z": 2.4306305729,
				"element": "C" 
			},
			{
				"x": -1.5389556972,
				"y": -1.952459552,
				"z": 2.5257334589,
				"element": "C" 
			},
			{
				"x": -0.8015502907,
				"y": -0.7170893571,
				"z": 2.7742410114,
				"element": "N" 
			},
			{
				"x": -0.2473457888,
				"y": 0.1472030143,
				"z": 1.873309668,
				"element": "C" 
			},
			{
				"x": 0.2620289672,
				"y": 1.2044210946,
				"z": 2.2205899427,
				"element": "O" 
			},
			{
				"x": -0.2349656793,
				"y": -0.2976434093,
				"z": 0.3919939107,
				"element": "C" 
			},
			{
				"x": 0.0857909207,
				"y": 0.78090564,
				"z": -0.5174394872,
				"element": "N" 
			},
			{
				"x": -1.0382823077,
				"y": 1.5987972911,
				"z": -0.9968602259,
				"element": "C" 
			},
			{
				"x": -1.673142739,
				"y": 1.0447573771,
				"z": -2.2736503416,
				"element": "C" 
			},
			{
				"x": 1.3628840509,
				"y": 1.2354292282,
				"z": -0.7779879153,
				"element": "C" 
			},
			{
				"x": 1.5745842269,
				"y": 2.1872052197,
				"z": -1.5095639433,
				"element": "O" 
			},
			{
				"x": 2.4914940451,
				"y": 0.4632180138,
				"z": -0.0775595701,
				"element": "C" 
			},
			{
				"x": 4.1159918127,
				"y": 1.0050627969,
				"z": -0.6017822357,
				"element": "Cl" 
			},
			{
				"x": -3.5573768613,
				"y": -2.7175675481,
				"z": 2.271386829,
				"element": "H" 
			},
			{
				"x": -3.4511229601,
				"y": -1.3166230809,
				"z": 3.3514172175,
				"element": "H" 
			},
			{
				"x": -3.3188786159,
				"y": -1.0917880686,
				"z": 1.6021331258,
				"element": "H" 
			},
			{
				"x": -1.1555629875,
				"y": -2.4180143611,
				"z": 1.6137479914,
				"element": "H" 
			},
			{
				"x": -1.3029051695,
				"y": -2.6478204269,
				"z": 3.3387978369,
				"element": "H" 
			},
			{
				"x": -0.786234644,
				"y": -0.3600767267,
				"z": 3.7218441604,
				"element": "H" 
			},
			{
				"x": -1.2099886487,
				"y": -0.7034621901,
				"z": 0.1055992639,
				"element": "H" 
			},
			{
				"x": 0.4730722369,
				"y": -1.1273810179,
				"z": 0.2874237994,
				"element": "H" 
			},
			{
				"x": -0.6497833571,
				"y": 2.601581611,
				"z": -1.1768367405,
				"element": "H" 
			},
			{
				"x": -1.7756641348,
				"y": 1.6658705679,
				"z": -0.1882902348,
				"element": "H" 
			},
			{
				"x": -0.940792932,
				"y": 1.033961496,
				"z": -3.0853680285,
				"element": "H" 
			},
			{
				"x": -2.0474587408,
				"y": 0.0237765539,
				"z": -2.1356167484,
				"element": "H" 
			},
			{
				"x": -2.5174923095,
				"y": 1.6709308111,
				"z": -2.5807982647,
				"element": "H" 
			},
			{
				"x": 2.4153941498,
				"y": 0.6234085384,
				"z": 0.9993764133,
				"element": "H" 
			},
			{
				"x": 2.434759859,
				"y": -0.6072895155,
				"z": -0.2855714661,
				"element": "H" 
			}
		],
		 "valence_orbital": [ 
			{
				"type": "occ",
				"energy": -0.28598,
				"method": "rhf"
			},
			{
				"type": "occ",
				"energy": -0.27087,
				"method": "rhf"
			},
			{
				"type": "occ",
				"energy": -0.26837,
				"method": "rhf"
			},
			{
				"type": "occ",
				"energy": -0.25091,
				"method": "rhf"
			},
			{
				"type": "occ",
				"energy": -0.24255,
				"method": "rhf"
			},
			{
				"type": "unocc",
				"energy": 0.0061,
				"method": "rhf"
			},
			{
				"type": "unocc",
				"energy": 0.02632,
				"method": "rhf"
			},
			{
				"type": "unocc",
				"energy": 0.03258,
				"method": "rhf"
			},
			{
				"type": "unocc",
				"energy": 0.05432,
				"method": "rhf"
			},
			{
				"type": "unocc",
				"energy": 0.07302,
				"method": "rhf"
			}
		],
		"cosmo_sigma_profile": { 
			"-0.025": 0.0,
			"-0.024": 0.0,
			"-0.023": 0.0,
			"-0.022": 0.0,
			"-0.021": 0.0,
			"-0.02": 0.0,
			"-0.019": 0.0,
			"-0.018": 0.0,
			"-0.017": 0.0,
			"-0.016": 0.0,
			"-0.015": 0.0,
			"-0.014": 0.335557228688,
			"-0.013": 1.22061097278,
			"-0.012": 0.834486677473,
			"-0.011": 1.87720964664,
			"-0.01": 4.0206860536,
			"-0.009": 4.2407969346,
			"-0.008": 5.70993369293,
			"-0.007": 10.0142205298,
			"-0.006": 12.987668124,
			"-0.005": 13.7401664374,
			"-0.004": 18.3778397098,
			"-0.003": 23.3150307814,
			"-0.002": 23.0169121441,
			"-0.001": 19.3711594129,
			"0.0": 21.2944686038,
			"0.001": 17.534996174,
			"0.002": 9.011219707,
			"0.003": 7.22754808188,
			"0.004": 8.33741715659,
			"0.005": 8.77303349514,
			"0.006": 9.21897417971,
			"0.007": 4.86764461945,
			"0.008": 3.46297606591,
			"0.009": 3.50744046347,
			"0.01": 3.21864976529,
			"0.011": 3.19176756575,
			"0.012": 4.324888115,
			"0.013": 8.29866399598,
			"0.014": 5.44644175153,
			"0.015": 0.817981175265,
			"0.016": 0.0,
			"0.017": 0.0,
			"0.018": 0.0,
			"0.019": 0.0,
			"0.02": 0.0,
			"0.021": 0.0,
			"0.022": 0.0,
			"0.023": 0.0,
			"0.024": 0.0,
			"0.025": 0.0
		}
	}
}
