{
	 "smiles": "CC1=NN(C(=O)C1)C1=CC=CC=C1", 
	 "Tm": 402.15, 
	 "num_atms": 23, 
	 "gaussian": { 
		 "optdone": 1, 
		 "sigma_profile": "yes", 
		 "theory": "DFT", 
		 "functional": "B3LYP", 
		 "basiset": "6-31G**", 
		 "properties": { 
			 "R2extent": 3184.2837, 
			 "electric_dipole_moment_norm": 3.34969045436, 
			 "electric_quadrupole_moment_norm": 20.3989468012, 
			 "total_energy": -571.805973214, 
			 "HOMO_LUMO_gap": 0.17878, 
			 "cosmo_polarized_energy": -10.77, 
			 "cosmo_cavitation_energy": 26.81, 
			 "cosmo_dispersion_energy": -20.04, 
			 "cosmo_repulsion_energy": 1.58, 
			 "cosmo_total_nonelectrostatic_energy": 8.35, 
			 "SMD_solvation_energy": 4.69 
		},
		"coords": [
			{
				"x": -0.3112028719,
				"y": -0.370084579,
				"z": -4.183235947,
				"element": "C" 
			},
			{
				"x": -0.7011184201,
				"y": -0.9691722962,
				"z": -2.8727873337,
				"element": "C" 
			},
			{
				"x": -0.3263975477,
				"y": -0.4525379889,
				"z": -1.754671187,
				"element": "N" 
			},
			{
				"x": -0.8407517814,
				"y": -1.2259725663,
				"z": -0.705162412,
				"element": "N" 
			},
			{
				"x": -1.5935183471,
				"y": -2.308540028,
				"z": -1.1594359244,
				"element": "C" 
			},
			{
				"x": -2.1630159548,
				"y": -3.1524345669,
				"z": -0.4914792412,
				"element": "O" 
			},
			{
				"x": -1.5426152994,
				"y": -2.1964126542,
				"z": -2.6820851335,
				"element": "C" 
			},
			{
				"x": -0.5515980785,
				"y": -0.8384650688,
				"z": 0.6293672323,
				"element": "C" 
			},
			{
				"x": 0.234782701,
				"y": 0.3012174197,
				"z": 0.8567059301,
				"element": "C" 
			},
			{
				"x": 0.5250029385,
				"y": 0.6910673564,
				"z": 2.1621871167,
				"element": "C" 
			},
			{
				"x": 0.0424418073,
				"y": -0.0392063621,
				"z": 3.2495021648,
				"element": "C" 
			},
			{
				"x": -0.7386317355,
				"y": -1.1709731856,
				"z": 3.0141672223,
				"element": "C" 
			},
			{
				"x": -1.0420128022,
				"y": -1.5801556026,
				"z": 1.7158994429,
				"element": "C" 
			},
			{
				"x": -1.1971364974,
				"y": -0.0880958629,
				"z": -4.7647860243,
				"element": "H" 
			},
			{
				"x": 0.3028539697,
				"y": 0.5180144401,
				"z": -4.0211830902,
				"element": "H" 
			},
			{
				"x": 0.2547468911,
				"y": -1.0874218901,
				"z": -4.789643775,
				"element": "H" 
			},
			{
				"x": -1.1015676614,
				"y": -3.0987109185,
				"z": -3.120930876,
				"element": "H" 
			},
			{
				"x": -2.5528903057,
				"y": -2.0995815493,
				"z": -3.0958704417,
				"element": "H" 
			},
			{
				"x": 0.6076812368,
				"y": 0.8656230652,
				"z": 0.0121957316,
				"element": "H" 
			},
			{
				"x": 1.1348221175,
				"y": 1.5751833648,
				"z": 2.3258985528,
				"element": "H" 
			},
			{
				"x": 0.2720267172,
				"y": 0.2696346614,
				"z": 4.2648639311,
				"element": "H" 
			},
			{
				"x": -1.122239253,
				"y": -1.7507339886,
				"z": 3.8490256687,
				"element": "H" 
			},
			{
				"x": -1.6474618229,
				"y": -2.4574411996,
				"z": 1.5370583928,
				"element": "H" 
			}
		],
		 "valence_orbital": [ 
			{
				"type": "occ",
				"energy": -0.31236,
				"method": "rhf"
			},
			{
				"type": "occ",
				"energy": -0.27798,
				"method": "rhf"
			},
			{
				"type": "occ",
				"energy": -0.25612,
				"method": "rhf"
			},
			{
				"type": "occ",
				"energy": -0.2443,
				"method": "rhf"
			},
			{
				"type": "occ",
				"energy": -0.21055,
				"method": "rhf"
			},
			{
				"type": "unocc",
				"energy": -0.03177,
				"method": "rhf"
			},
			{
				"type": "unocc",
				"energy": -0.00753,
				"method": "rhf"
			},
			{
				"type": "unocc",
				"energy": 0.00686,
				"method": "rhf"
			},
			{
				"type": "unocc",
				"energy": 0.05792,
				"method": "rhf"
			},
			{
				"type": "unocc",
				"energy": 0.08594,
				"method": "rhf"
			}
		],
		"cosmo_sigma_profile": { 
			"-0.025": 0.0,
			"-0.024": 0.0,
			"-0.023": 0.0,
			"-0.022": 0.0,
			"-0.021": 0.0,
			"-0.02": 0.0,
			"-0.019": 0.0,
			"-0.018": 0.0,
			"-0.017": 0.0,
			"-0.016": 0.0,
			"-0.015": 0.0,
			"-0.014": 0.0,
			"-0.013": 0.0,
			"-0.012": 0.0,
			"-0.011": 0.0,
			"-0.01": 0.0,
			"-0.009": 1.70719578339,
			"-0.008": 5.27756407661,
			"-0.007": 5.76928785955,
			"-0.006": 13.1702949995,
			"-0.005": 18.0063484652,
			"-0.004": 19.0027078074,
			"-0.003": 17.6147529956,
			"-0.002": 15.9819095083,
			"-0.001": 14.6477127624,
			"0.0": 10.5863386389,
			"0.001": 10.7481092723,
			"0.002": 13.1109104647,
			"0.003": 14.3158894389,
			"0.004": 12.6946323711,
			"0.005": 13.7161988352,
			"0.006": 9.56411333176,
			"0.007": 2.37701918978,
			"0.008": 2.14836174516,
			"0.009": 3.5648244028,
			"0.01": 2.45310145377,
			"0.011": 2.64226447179,
			"0.012": 3.37173399498,
			"0.013": 1.88288597237,
			"0.014": 0.0911252056081,
			"0.015": 0.0,
			"0.016": 0.0,
			"0.017": 0.0,
			"0.018": 0.0,
			"0.019": 0.0,
			"0.02": 0.0,
			"0.021": 0.0,
			"0.022": 0.0,
			"0.023": 0.0,
			"0.024": 0.0,
			"0.025": 0.0
		}
	}
}
