{
	 "smiles": "OC(=O)C1=CC=CC=C1C1=CC=C(C=C1)C(F)(F)F", 
	 "Tm": 443.15, 
	 "num_atms": 28, 
	 "gaussian": { 
		 "optdone": 1, 
		 "sigma_profile": "yes", 
		 "theory": "DFT", 
		 "functional": "B3LYP", 
		 "basiset": "6-31G**", 
		 "properties": { 
			 "R2extent": 6674.3849, 
			 "electric_dipole_moment_norm": 2.68969904079, 
			 "electric_quadrupole_moment_norm": 16.1034945093, 
			 "total_energy": -988.909037709, 
			 "HOMO_LUMO_gap": 0.19152, 
			 "cosmo_polarized_energy": -11.19, 
			 "cosmo_cavitation_energy": 34.49, 
			 "cosmo_dispersion_energy": -23.91, 
			 "cosmo_repulsion_energy": 1.78, 
			 "cosmo_total_nonelectrostatic_energy": 12.36, 
			 "SMD_solvation_energy": 8.03 
		},
		"coords": [
			{
				"x": -2.6326567728,
				"y": 1.2563658082,
				"z": 1.1288153417,
				"element": "O" 
			},
			{
				"x": -1.8390661027,
				"y": 2.321382935,
				"z": 1.3813020166,
				"element": "C" 
			},
			{
				"x": -2.196874575,
				"y": 3.4595027576,
				"z": 1.1474292129,
				"element": "O" 
			},
			{
				"x": -0.5365365918,
				"y": 1.9727622134,
				"z": 2.0283592411,
				"element": "C" 
			},
			{
				"x": 0.0140299062,
				"y": 2.9889573979,
				"z": 2.8245836857,
				"element": "C" 
			},
			{
				"x": 1.1756772872,
				"y": 2.7783855149,
				"z": 3.5595460918,
				"element": "C" 
			},
			{
				"x": 1.8082075363,
				"y": 1.5362537197,
				"z": 3.497544539,
				"element": "C" 
			},
			{
				"x": 1.2866101445,
				"y": 0.5300477652,
				"z": 2.6867995118,
				"element": "C" 
			},
			{
				"x": 0.1182089273,
				"y": 0.7219296203,
				"z": 1.9311536011,
				"element": "C" 
			},
			{
				"x": -0.3042470786,
				"y": -0.384717798,
				"z": 1.0253936808,
				"element": "C" 
			},
			{
				"x": -0.4227314285,
				"y": -0.1814438239,
				"z": -0.3585489782,
				"element": "C" 
			},
			{
				"x": -0.7473115766,
				"y": -1.2337013712,
				"z": -1.208217114,
				"element": "C" 
			},
			{
				"x": -0.9593618073,
				"y": -2.513189538,
				"z": -0.6859238581,
				"element": "C" 
			},
			{
				"x": -0.839521855,
				"y": -2.7323811719,
				"z": 0.6876737848,
				"element": "C" 
			},
			{
				"x": -0.5083190002,
				"y": -1.6758412842,
				"z": 1.5332780205,
				"element": "C" 
			},
			{
				"x": -1.3685942204,
				"y": -3.6376870369,
				"z": -1.5966383564,
				"element": "C" 
			},
			{
				"x": -2.7134896888,
				"y": -3.6977184668,
				"z": -1.7443155113,
				"element": "F" 
			},
			{
				"x": -0.9739345732,
				"y": -4.8406057365,
				"z": -1.122620761,
				"element": "F" 
			},
			{
				"x": -0.8466707125,
				"y": -3.4974807897,
				"z": -2.8359249243,
				"element": "F" 
			},
			{
				"x": -3.4417660881,
				"y": 1.6189654069,
				"z": 0.7303541689,
				"element": "H" 
			},
			{
				"x": -0.5051271385,
				"y": 3.9404119086,
				"z": 2.8617930356,
				"element": "H" 
			},
			{
				"x": 1.5808921283,
				"y": 3.5737333455,
				"z": 4.1774082405,
				"element": "H" 
			},
			{
				"x": 2.7155096267,
				"y": 1.3533678151,
				"z": 4.0659950812,
				"element": "H" 
			},
			{
				"x": 1.8057853291,
				"y": -0.4201873446,
				"z": 2.6065993217,
				"element": "H" 
			},
			{
				"x": -0.2420388342,
				"y": 0.8061934756,
				"z": -0.7717822789,
				"element": "H" 
			},
			{
				"x": -0.8220313812,
				"y": -1.0685849799,
				"z": -2.2777392285,
				"element": "H" 
			},
			{
				"x": -0.9981516045,
				"y": -3.7263197474,
				"z": 1.0919291032,
				"element": "H" 
			},
			{
				"x": -0.4207898558,
				"y": -1.8489005949,
				"z": 2.6015533319,
				"element": "H" 
			}
		],
		 "valence_orbital": [ 
			{
				"type": "occ",
				"energy": -0.28525,
				"method": "rhf"
			},
			{
				"type": "occ",
				"energy": -0.282,
				"method": "rhf"
			},
			{
				"type": "occ",
				"energy": -0.26846,
				"method": "rhf"
			},
			{
				"type": "occ",
				"energy": -0.26505,
				"method": "rhf"
			},
			{
				"type": "occ",
				"energy": -0.24939,
				"method": "rhf"
			},
			{
				"type": "unocc",
				"energy": -0.05787,
				"method": "rhf"
			},
			{
				"type": "unocc",
				"energy": -0.03397,
				"method": "rhf"
			},
			{
				"type": "unocc",
				"energy": -0.01726,
				"method": "rhf"
			},
			{
				"type": "unocc",
				"energy": -0.0067,
				"method": "rhf"
			},
			{
				"type": "unocc",
				"energy": 0.04202,
				"method": "rhf"
			}
		],
		"cosmo_sigma_profile": { 
			"-0.025": 0.0,
			"-0.024": 0.0,
			"-0.023": 0.0,
			"-0.022": 0.0,
			"-0.021": 0.0,
			"-0.02": 0.0,
			"-0.019": 0.0906143159033,
			"-0.018": 0.700666296004,
			"-0.017": 0.796293220714,
			"-0.016": 0.904614675624,
			"-0.015": 1.02980272295,
			"-0.014": 0.633166370047,
			"-0.013": 0.472845150498,
			"-0.012": 0.410436613325,
			"-0.011": 1.08604982828,
			"-0.01": 0.887544826039,
			"-0.009": 0.287093737848,
			"-0.008": 0.61968193726,
			"-0.007": 7.7666592912,
			"-0.006": 16.1753309423,
			"-0.005": 18.9809146292,
			"-0.004": 17.1733264088,
			"-0.003": 13.9221384976,
			"-0.002": 16.5876458392,
			"-0.001": 15.3054181788,
			"0.0": 17.4857491805,
			"0.001": 23.6282751282,
			"0.002": 32.979289141,
			"0.003": 50.6157771585,
			"0.004": 12.5304237949,
			"0.005": 3.93264604325,
			"0.006": 3.64730822698,
			"0.007": 2.48925412402,
			"0.008": 4.04885074374,
			"0.009": 1.96804792204,
			"0.01": 1.84458294564,
			"0.011": 4.04177247627,
			"0.012": 3.83919483725,
			"0.013": 0.08876244736,
			"0.014": 0.0,
			"0.015": 0.0,
			"0.016": 0.0,
			"0.017": 0.0,
			"0.018": 0.0,
			"0.019": 0.0,
			"0.02": 0.0,
			"0.021": 0.0,
			"0.022": 0.0,
			"0.023": 0.0,
			"0.024": 0.0,
			"0.025": 0.0
		}
	}
}
