{
	 "smiles": "O=C(C1C(=O)C2=CC=CC=C2C1=O)C1=CC=CC=C1", 
	 "Tm": 383.15, 
	 "num_atms": 29, 
	 "gaussian": { 
		 "optdone": 1, 
		 "sigma_profile": "yes", 
		 "theory": "DFT", 
		 "functional": "B3LYP", 
		 "basiset": "6-31G**", 
		 "properties": { 
			 "R2extent": 5728.9405, 
			 "electric_dipole_moment_norm": 2.39255547271, 
			 "electric_quadrupole_moment_norm": 27.6292895866, 
			 "total_energy": -841.397242841, 
			 "HOMO_LUMO_gap": 0.16796, 
			 "cosmo_polarized_energy": -14.97, 
			 "cosmo_cavitation_energy": 34.56, 
			 "cosmo_dispersion_energy": -24.43, 
			 "cosmo_repulsion_energy": 1.85, 
			 "cosmo_total_nonelectrostatic_energy": 11.98, 
			 "SMD_solvation_energy": 7.21 
		},
		"coords": [
			{
				"x": 0.9758928424,
				"y": -1.3287469639,
				"z": -0.3560348756,
				"element": "O" 
			},
			{
				"x": 1.433450498,
				"y": -0.2045553662,
				"z": -0.2327589815,
				"element": "C" 
			},
			{
				"x": 0.7636004785,
				"y": 0.7752995166,
				"z": 0.7551621953,
				"element": "C" 
			},
			{
				"x": 0.000856073,
				"y": -0.0053217345,
				"z": 1.846634037,
				"element": "C" 
			},
			{
				"x": 0.501856146,
				"y": -0.6489867224,
				"z": 2.742987704,
				"element": "O" 
			},
			{
				"x": -1.4524608508,
				"y": 0.2184620051,
				"z": 1.6198255546,
				"element": "C" 
			},
			{
				"x": -2.536091838,
				"y": -0.3383848892,
				"z": 2.2987817186,
				"element": "C" 
			},
			{
				"x": -3.8178163431,
				"y": 0.0537934091,
				"z": 1.9129817439,
				"element": "C" 
			},
			{
				"x": -4.0103531377,
				"y": 0.9882600417,
				"z": 0.8792933523,
				"element": "C" 
			},
			{
				"x": -2.9249201365,
				"y": 1.5505011749,
				"z": 0.2083993928,
				"element": "C" 
			},
			{
				"x": -1.644331219,
				"y": 1.1481347455,
				"z": 0.5911021187,
				"element": "C" 
			},
			{
				"x": -0.3370277764,
				"y": 1.6039619041,
				"z": 0.0529575796,
				"element": "C" 
			},
			{
				"x": -0.1583127475,
				"y": 2.4731621057,
				"z": -0.7778583674,
				"element": "O" 
			},
			{
				"x": 2.6240566478,
				"y": 0.2526299446,
				"z": -1.0042382784,
				"element": "C" 
			},
			{
				"x": 2.9870384734,
				"y": 1.6036298122,
				"z": -1.1162653039,
				"element": "C" 
			},
			{
				"x": 4.106642618,
				"y": 1.9650393885,
				"z": -1.8655803971,
				"element": "C" 
			},
			{
				"x": 4.8756079483,
				"y": 0.9844476275,
				"z": -2.4946877985,
				"element": "C" 
			},
			{
				"x": 4.5156067997,
				"y": -0.363324028,
				"z": -2.3907467577,
				"element": "C" 
			},
			{
				"x": 3.3916550245,
				"y": -0.7270477219,
				"z": -1.6571823613,
				"element": "C" 
			},
			{
				"x": 1.5117046182,
				"y": 1.4370634561,
				"z": 1.2003803388,
				"element": "H" 
			},
			{
				"x": -2.37244946,
				"y": -1.0541712485,
				"z": 3.09789509,
				"element": "H" 
			},
			{
				"x": -4.6840885435,
				"y": -0.3644128417,
				"z": 2.4172712064,
				"element": "H" 
			},
			{
				"x": -5.0212632591,
				"y": 1.2743411557,
				"z": 0.6041314537,
				"element": "H" 
			},
			{
				"x": -3.0576283584,
				"y": 2.2758634384,
				"z": -0.5878736171,
				"element": "H" 
			},
			{
				"x": 2.3727809102,
				"y": 2.3744372203,
				"z": -0.6641440299,
				"element": "H" 
			},
			{
				"x": 4.3761656985,
				"y": 3.0126614183,
				"z": -1.9600227157,
				"element": "H" 
			},
			{
				"x": 5.7525150936,
				"y": 1.2689637437,
				"z": -3.0693987169,
				"element": "H" 
			},
			{
				"x": 5.1120282219,
				"y": -1.125724292,
				"z": -2.8831648768,
				"element": "H" 
			},
			{
				"x": 3.0872855782,
				"y": -1.7644763,
				"z": -1.5686464079,
				"element": "H" 
			}
		],
		 "valence_orbital": [ 
			{
				"type": "occ",
				"energy": -0.27952,
				"method": "rhf"
			},
			{
				"type": "occ",
				"energy": -0.26267,
				"method": "rhf"
			},
			{
				"type": "occ",
				"energy": -0.2609,
				"method": "rhf"
			},
			{
				"type": "occ",
				"energy": -0.25695,
				"method": "rhf"
			},
			{
				"type": "occ",
				"energy": -0.25138,
				"method": "rhf"
			},
			{
				"type": "unocc",
				"energy": -0.08342,
				"method": "rhf"
			},
			{
				"type": "unocc",
				"energy": -0.06727,
				"method": "rhf"
			},
			{
				"type": "unocc",
				"energy": -0.05976,
				"method": "rhf"
			},
			{
				"type": "unocc",
				"energy": -0.01015,
				"method": "rhf"
			},
			{
				"type": "unocc",
				"energy": 0.01994,
				"method": "rhf"
			}
		],
		"cosmo_sigma_profile": { 
			"-0.025": 0.0,
			"-0.024": 0.0,
			"-0.023": 0.0,
			"-0.022": 0.0,
			"-0.021": 0.0,
			"-0.02": 0.0,
			"-0.019": 0.0,
			"-0.018": 0.0,
			"-0.017": 0.0,
			"-0.016": 0.0,
			"-0.015": 0.0,
			"-0.014": 0.0,
			"-0.013": 0.0,
			"-0.012": 0.0,
			"-0.011": 0.0,
			"-0.01": 0.332442711143,
			"-0.009": 3.49390722736,
			"-0.008": 6.99116484567,
			"-0.007": 13.6063698255,
			"-0.006": 20.4699841834,
			"-0.005": 19.9175947479,
			"-0.004": 19.2753337118,
			"-0.003": 13.6894901201,
			"-0.002": 17.1622426067,
			"-0.001": 18.861006078,
			"0.0": 22.5625868344,
			"0.001": 24.6611148925,
			"0.002": 18.8476928728,
			"0.003": 17.4724015347,
			"0.004": 13.3816054489,
			"0.005": 4.69584790739,
			"0.006": 5.18385962723,
			"0.007": 5.10577982266,
			"0.008": 6.15072017954,
			"0.009": 7.06509104301,
			"0.01": 9.82032956124,
			"0.011": 9.15574732847,
			"0.012": 0.939180300708,
			"0.013": 0.0,
			"0.014": 0.0,
			"0.015": 0.0,
			"0.016": 0.0,
			"0.017": 0.0,
			"0.018": 0.0,
			"0.019": 0.0,
			"0.02": 0.0,
			"0.021": 0.0,
			"0.022": 0.0,
			"0.023": 0.0,
			"0.024": 0.0,
			"0.025": 0.0
		}
	}
}
