{
	 "smiles": "NC1=CC(OC2=C(Br)C=CC=C2)=NC=C1", 
	 "Tm": 382.15, 
	 "num_atms": 24, 
	 "gaussian": { 
		 "optdone": 1, 
		 "sigma_profile": "yes", 
		 "theory": "DFT", 
		 "functional": "B3LYP", 
		 "basiset": "6-31G**", 
		 "properties": { 
			 "R2extent": 4895.2051, 
			 "electric_dipole_moment_norm": 3.20030309346, 
			 "electric_quadrupole_moment_norm": 21.4081230838, 
			 "total_energy": -3180.72196816, 
			 "HOMO_LUMO_gap": 0.21462, 
			 "cosmo_polarized_energy": -13.9, 
			 "cosmo_cavitation_energy": 31.22, 
			 "cosmo_dispersion_energy": -22.93, 
			 "cosmo_repulsion_energy": 1.82, 
			 "cosmo_total_nonelectrostatic_energy": 10.12, 
			 "SMD_solvation_energy": 3.63 
		},
		"coords": [
			{
				"x": -1.5152725158,
				"y": 0.5708529038,
				"z": -4.3712399076,
				"element": "N" 
			},
			{
				"x": -0.6910020581,
				"y": 0.7091030631,
				"z": -3.2723338596,
				"element": "C" 
			},
			{
				"x": -1.0181126919,
				"y": 0.1301843816,
				"z": -2.0407217442,
				"element": "C" 
			},
			{
				"x": -0.1121610268,
				"y": 0.2752749645,
				"z": -0.9886345297,
				"element": "C" 
			},
			{
				"x": -0.5032446551,
				"y": -0.2947363583,
				"z": 0.1982212629,
				"element": "O" 
			},
			{
				"x": 0.3378390934,
				"y": -0.314322452,
				"z": 1.2903471912,
				"element": "C" 
			},
			{
				"x": -0.1114190077,
				"y": 0.2409090587,
				"z": 2.4926417061,
				"element": "C" 
			},
			{
				"x": -1.7940984491,
				"y": 1.1347331298,
				"z": 2.5639847269,
				"element": "Br" 
			},
			{
				"x": 0.6610546212,
				"y": 0.1433389007,
				"z": 3.6503994318,
				"element": "C" 
			},
			{
				"x": 1.8943329451,
				"y": -0.5042286755,
				"z": 3.6069815981,
				"element": "C" 
			},
			{
				"x": 2.3488064802,
				"y": -1.0579864035,
				"z": 2.4079084017,
				"element": "C" 
			},
			{
				"x": 1.5727239803,
				"y": -0.9670392233,
				"z": 1.2556204782,
				"element": "C" 
			},
			{
				"x": 1.0448193423,
				"y": 0.9176228811,
				"z": -1.0539987169,
				"element": "N" 
			},
			{
				"x": 1.3463731434,
				"y": 1.4656651102,
				"z": -2.2441530379,
				"element": "C" 
			},
			{
				"x": 0.5385421242,
				"y": 1.3987133246,
				"z": -3.3663959626,
				"element": "C" 
			},
			{
				"x": -2.4788242808,
				"y": 0.329301689,
				"z": -4.1927147513,
				"element": "H" 
			},
			{
				"x": -1.3936295547,
				"y": 1.2370055703,
				"z": -5.1192989044,
				"element": "H" 
			},
			{
				"x": -1.9433014509,
				"y": -0.4145793527,
				"z": -1.8877190935,
				"element": "H" 
			},
			{
				"x": 0.2925299625,
				"y": 0.5773342554,
				"z": 4.5729462463,
				"element": "H" 
			},
			{
				"x": 2.4946984549,
				"y": -0.5757984717,
				"z": 4.5086508965,
				"element": "H" 
			},
			{
				"x": 3.3079282454,
				"y": -1.5652001954,
				"z": 2.3687214459,
				"element": "H" 
			},
			{
				"x": 1.9121446218,
				"y": -1.3915579134,
				"z": 0.3181798481,
				"element": "H" 
			},
			{
				"x": 2.296543842,
				"y": 1.9944210845,
				"z": -2.2919614333,
				"element": "H" 
			},
			{
				"x": 0.8460288344,
				"y": 1.8629887286,
				"z": -4.2983312926,
				"element": "H" 
			}
		],
		 "valence_orbital": [ 
			{
				"type": "occ",
				"energy": -0.26636,
				"method": "rhf"
			},
			{
				"type": "occ",
				"energy": -0.2493,
				"method": "rhf"
			},
			{
				"type": "occ",
				"energy": -0.23783,
				"method": "rhf"
			},
			{
				"type": "occ",
				"energy": -0.22906,
				"method": "rhf"
			},
			{
				"type": "occ",
				"energy": -0.22323,
				"method": "rhf"
			},
			{
				"type": "unocc",
				"energy": -0.00861,
				"method": "rhf"
			},
			{
				"type": "unocc",
				"energy": -0.00544,
				"method": "rhf"
			},
			{
				"type": "unocc",
				"energy": -0.00182,
				"method": "rhf"
			},
			{
				"type": "unocc",
				"energy": 0.0133,
				"method": "rhf"
			},
			{
				"type": "unocc",
				"energy": 0.01635,
				"method": "rhf"
			}
		],
		"cosmo_sigma_profile": { 
			"-0.025": 0.0,
			"-0.024": 0.0,
			"-0.023": 0.0,
			"-0.022": 0.0,
			"-0.021": 0.0,
			"-0.02": 0.0,
			"-0.019": 0.0,
			"-0.018": 0.0,
			"-0.017": 0.0,
			"-0.016": 0.0,
			"-0.015": 0.0,
			"-0.014": 0.393814148135,
			"-0.013": 2.69879491548,
			"-0.012": 3.02204162071,
			"-0.011": 2.62021327069,
			"-0.01": 3.87359737317,
			"-0.009": 2.89379749247,
			"-0.008": 2.58981636869,
			"-0.007": 7.95343582593,
			"-0.006": 14.8224408038,
			"-0.005": 15.4124659774,
			"-0.004": 13.4371908881,
			"-0.003": 11.5529960752,
			"-0.002": 12.2014810972,
			"-0.001": 10.9010856552,
			"0.0": 12.31313444,
			"0.001": 17.8908003093,
			"0.002": 23.9776718629,
			"0.003": 29.4430197809,
			"0.004": 29.8273288058,
			"0.005": 13.0662332059,
			"0.006": 4.84586101642,
			"0.007": 4.34348476608,
			"0.008": 4.47570949696,
			"0.009": 2.39118894889,
			"0.01": 1.44503212737,
			"0.011": 1.60350215387,
			"0.012": 1.4663760536,
			"0.013": 1.05239419581,
			"0.014": 0.705443388521,
			"0.015": 0.416700717688,
			"0.016": 0.0,
			"0.017": 0.0,
			"0.018": 0.0,
			"0.019": 0.0,
			"0.02": 0.0,
			"0.021": 0.0,
			"0.022": 0.0,
			"0.023": 0.0,
			"0.024": 0.0,
			"0.025": 0.0
		}
	}
}
