{
	 "smiles": "CCOC(=O)C1=NN(C(=O)C1C(Cl)C1(Cl)C(=O)N(N=C1C(=O)OCC)C1=CC=C(Cl)C=C1Cl)C1=CC=C(Cl)C=C1Cl", 
	 "Tm": 372.15, 
	 "num_atms": 59, 
	 "gaussian": { 
		 "optdone": 1, 
		 "sigma_profile": "yes", 
		 "theory": "DFT", 
		 "functional": "B3LYP", 
		 "basiset": "6-31G**", 
		 "properties": { 
			 "R2extent": 24500.154, 
			 "electric_dipole_moment_norm": 3.86637030301, 
			 "electric_quadrupole_moment_norm": 25.4441440288, 
			 "total_energy": -4394.95794493, 
			 "HOMO_LUMO_gap": 0.15343, 
			 "cosmo_polarized_energy": -23.54, 
			 "cosmo_cavitation_energy": 73.38, 
			 "cosmo_dispersion_energy": -44.44, 
			 "cosmo_repulsion_energy": 3.4, 
			 "cosmo_total_nonelectrostatic_energy": 32.35, 
			 "SMD_solvation_energy": 12.37 
		},
		"coords": [
			{
				"x": -2.0236570648,
				"y": 4.0884914023,
				"z": 2.8574336863,
				"element": "C" 
			},
			{
				"x": -0.6481284878,
				"y": 4.5214964678,
				"z": 2.37724643,
				"element": "C" 
			},
			{
				"x": -0.0533430103,
				"y": 3.5073870115,
				"z": 1.5186606613,
				"element": "O" 
			},
			{
				"x": 0.6391446697,
				"y": 2.5406834092,
				"z": 2.129778788,
				"element": "C" 
			},
			{
				"x": 0.8400922602,
				"y": 2.451664167,
				"z": 3.3267498626,
				"element": "O" 
			},
			{
				"x": 1.1944347443,
				"y": 1.5380959436,
				"z": 1.1845448475,
				"element": "C" 
			},
			{
				"x": 1.2817997677,
				"y": 1.7406640227,
				"z": -0.0888450207,
				"element": "N" 
			},
			{
				"x": 1.9436001899,
				"y": 0.6701594296,
				"z": -0.6527947339,
				"element": "N" 
			},
			{
				"x": 2.3321829215,
				"y": -0.3034942869,
				"z": 0.2817020122,
				"element": "C" 
			},
			{
				"x": 2.919089835,
				"y": -1.3311178152,
				"z": 0.0274167399,
				"element": "O" 
			},
			{
				"x": 1.8514504145,
				"y": 0.2559995047,
				"z": 1.6309452112,
				"element": "C" 
			},
			{
				"x": 1.0184519885,
				"y": -0.688477814,
				"z": 2.5392818384,
				"element": "C" 
			},
			{
				"x": 2.1297148307,
				"y": -1.8994915155,
				"z": 3.2844219212,
				"element": "Cl" 
			},
			{
				"x": -0.2322681115,
				"y": -1.3371660768,
				"z": 1.88483437,
				"element": "C" 
			},
			{
				"x": -1.1087721883,
				"y": -2.3689277565,
				"z": 3.0942776971,
				"element": "Cl" 
			},
			{
				"x": -1.2458612016,
				"y": -0.2208422967,
				"z": 1.490575401,
				"element": "C" 
			},
			{
				"x": -1.6797847414,
				"y": 0.6691302298,
				"z": 2.1860560315,
				"element": "O" 
			},
			{
				"x": -1.5293995749,
				"y": -0.4600851086,
				"z": 0.1543808747,
				"element": "N" 
			},
			{
				"x": -0.8450202585,
				"y": -1.5443513506,
				"z": -0.362505579,
				"element": "N" 
			},
			{
				"x": -0.1083623972,
				"y": -2.0657007101,
				"z": 0.5623537412,
				"element": "C" 
			},
			{
				"x": 0.664614773,
				"y": -3.3182462663,
				"z": 0.2975262232,
				"element": "C" 
			},
			{
				"x": 1.011404122,
				"y": -4.076610728,
				"z": 1.1745672506,
				"element": "O" 
			},
			{
				"x": 0.8857543204,
				"y": -3.484348265,
				"z": -1.0159776518,
				"element": "O" 
			},
			{
				"x": 1.6396720782,
				"y": -4.669105672,
				"z": -1.389924938,
				"element": "C" 
			},
			{
				"x": 0.7314284606,
				"y": -5.8798542987,
				"z": -1.5331784915,
				"element": "C" 
			},
			{
				"x": -2.4494782384,
				"y": 0.2659520809,
				"z": -0.6514175499,
				"element": "C" 
			},
			{
				"x": -2.2225131239,
				"y": 1.6233931316,
				"z": -0.8977361081,
				"element": "C" 
			},
			{
				"x": -3.1127846583,
				"y": 2.3630758236,
				"z": -1.6712485172,
				"element": "C" 
			},
			{
				"x": -4.2312203876,
				"y": 1.7281956862,
				"z": -2.2100763652,
				"element": "C" 
			},
			{
				"x": -5.3527096147,
				"y": 2.6404950806,
				"z": -3.1983649896,
				"element": "Cl" 
			},
			{
				"x": -4.4819540825,
				"y": 0.3769710278,
				"z": -1.9766158221,
				"element": "C" 
			},
			{
				"x": -3.5936322446,
				"y": -0.3486891653,
				"z": -1.1843161006,
				"element": "C" 
			},
			{
				"x": -3.9501993936,
				"y": -2.0242649641,
				"z": -0.8506250295,
				"element": "Cl" 
			},
			{
				"x": 2.1757169654,
				"y": 0.6191612392,
				"z": -2.0533453834,
				"element": "C" 
			},
			{
				"x": 1.6623345547,
				"y": -0.4514844011,
				"z": -2.792984613,
				"element": "C" 
			},
			{
				"x": 1.8809590753,
				"y": -0.5367027157,
				"z": -4.1649726881,
				"element": "C" 
			},
			{
				"x": 2.6106627003,
				"y": 0.467952601,
				"z": -4.7991960537,
				"element": "C" 
			},
			{
				"x": 2.8793169833,
				"y": 0.3845742242,
				"z": -6.5284340246,
				"element": "Cl" 
			},
			{
				"x": 3.1392703237,
				"y": 1.541540775,
				"z": -4.0847542143,
				"element": "C" 
			},
			{
				"x": 2.9311811392,
				"y": 1.6051236582,
				"z": -2.7077014722,
				"element": "C" 
			},
			{
				"x": 3.6573886725,
				"y": 2.9218848642,
				"z": -1.818190253,
				"element": "Cl" 
			},
			{
				"x": -2.6833444991,
				"y": 3.8739886383,
				"z": 2.012297035,
				"element": "H" 
			},
			{
				"x": -1.9544121336,
				"y": 3.1924630093,
				"z": 3.4774114431,
				"element": "H" 
			},
			{
				"x": -2.4713200055,
				"y": 4.8921128963,
				"z": 3.4515923078,
				"element": "H" 
			},
			{
				"x": 0.0288052997,
				"y": 4.7083009002,
				"z": 3.2134898904,
				"element": "H" 
			},
			{
				"x": -0.6972637006,
				"y": 5.4089391204,
				"z": 1.7426904182,
				"element": "H" 
			},
			{
				"x": 2.7396700585,
				"y": 0.5117675385,
				"z": 2.2217501118,
				"element": "H" 
			},
			{
				"x": 0.6426480468,
				"y": -0.0803596385,
				"z": 3.3643423157,
				"element": "H" 
			},
			{
				"x": 2.4160613645,
				"y": -4.8350478209,
				"z": -0.6402272241,
				"element": "H" 
			},
			{
				"x": 2.1051280968,
				"y": -4.3962461371,
				"z": -2.3391214125,
				"element": "H" 
			},
			{
				"x": -0.0704369498,
				"y": -5.6845284673,
				"z": -2.2510741876,
				"element": "H" 
			},
			{
				"x": 0.2891694594,
				"y": -6.1474306494,
				"z": -0.570628921,
				"element": "H" 
			},
			{
				"x": 1.3138682235,
				"y": -6.7349480654,
				"z": -1.891887381,
				"element": "H" 
			},
			{
				"x": -1.3396555889,
				"y": 2.0978948787,
				"z": -0.4838608537,
				"element": "H" 
			},
			{
				"x": -2.9338371294,
				"y": 3.4142479624,
				"z": -1.8638112546,
				"element": "H" 
			},
			{
				"x": -5.3593359519,
				"y": -0.1043189728,
				"z": -2.3901844379,
				"element": "H" 
			},
			{
				"x": 1.0883363849,
				"y": -1.2189197149,
				"z": -2.2851720412,
				"element": "H" 
			},
			{
				"x": 1.4797503245,
				"y": -1.3653541134,
				"z": -4.7364174683,
				"element": "H" 
			},
			{
				"x": 3.7162916897,
				"y": 2.3101080617,
				"z": -4.5835363288,
				"element": "H" 
			}
		],
		 "valence_orbital": [ 
			{
				"type": "occ",
				"energy": -0.28084,
				"method": "rhf"
			},
			{
				"type": "occ",
				"energy": -0.27685,
				"method": "rhf"
			},
			{
				"type": "occ",
				"energy": -0.27339,
				"method": "rhf"
			},
			{
				"type": "occ",
				"energy": -0.26089,
				"method": "rhf"
			},
			{
				"type": "occ",
				"energy": -0.25514,
				"method": "rhf"
			},
			{
				"type": "unocc",
				"energy": -0.10171,
				"method": "rhf"
			},
			{
				"type": "unocc",
				"energy": -0.08832,
				"method": "rhf"
			},
			{
				"type": "unocc",
				"energy": -0.05329,
				"method": "rhf"
			},
			{
				"type": "unocc",
				"energy": -0.04859,
				"method": "rhf"
			},
			{
				"type": "unocc",
				"energy": -0.04174,
				"method": "rhf"
			}
		],
		"cosmo_sigma_profile": { 
			"-0.025": 0.0,
			"-0.024": 0.0186937091387,
			"-0.023": 0.0175560785927,
			"-0.022": 0.0217390186243,
			"-0.021": 0.0549977768442,
			"-0.02": 0.0671308192133,
			"-0.019": 0.0229581188182,
			"-0.018": 0.0290792143762,
			"-0.017": 0.0577460480563,
			"-0.016": 0.0698862794047,
			"-0.015": 0.127323136453,
			"-0.014": 0.227906339709,
			"-0.013": 0.465160794391,
			"-0.012": 1.68881238663,
			"-0.011": 2.61507162046,
			"-0.01": 1.48118197062,
			"-0.009": 5.87834977467,
			"-0.008": 9.48590057226,
			"-0.007": 11.8299082291,
			"-0.006": 18.2070981444,
			"-0.005": 29.1544204947,
			"-0.004": 38.8734382606,
			"-0.003": 43.1638813119,
			"-0.002": 44.4972296887,
			"-0.001": 60.4524718531,
			"0.0": 75.4248040455,
			"0.001": 51.391734297,
			"0.002": 42.4217762353,
			"0.003": 48.453886272,
			"0.004": 38.7057021179,
			"0.005": 15.6122278747,
			"0.006": 11.8734546495,
			"0.007": 11.5639242838,
			"0.008": 10.4920647562,
			"0.009": 10.0145569087,
			"0.01": 10.7983348956,
			"0.011": 5.21594930251,
			"0.012": 0.0157040805223,
			"0.013": 0.0,
			"0.014": 0.0,
			"0.015": 0.0,
			"0.016": 0.0,
			"0.017": 0.0,
			"0.018": 0.0,
			"0.019": 0.0,
			"0.02": 0.0,
			"0.021": 0.0,
			"0.022": 0.0,
			"0.023": 0.0,
			"0.024": 0.0,
			"0.025": 0.0
		}
	}
}
