{
	 "smiles": "ClCC(=O)NC1=C(Cl)C=CC(=C1)N1C=NN=N1", 
	 "Tm": 453.15, 
	 "num_atms": 24, 
	 "gaussian": { 
		 "optdone": 1, 
		 "sigma_profile": "yes", 
		 "theory": "DFT", 
		 "functional": "B3LYP", 
		 "basiset": "6-31G**", 
		 "properties": { 
			 "R2extent": 5641.0608, 
			 "electric_dipole_moment_norm": 6.01544654535, 
			 "electric_quadrupole_moment_norm": 22.7396811029, 
			 "total_energy": -1616.48180353, 
			 "HOMO_LUMO_gap": 0.19792, 
			 "cosmo_polarized_energy": -23.06, 
			 "cosmo_cavitation_energy": 33.43, 
			 "cosmo_dispersion_energy": -23.41, 
			 "cosmo_repulsion_energy": 1.82, 
			 "cosmo_total_nonelectrostatic_energy": 11.84, 
			 "SMD_solvation_energy": 4.75 
		},
		"coords": [
			{
				"x": -1.0483970346,
				"y": -2.6769170275,
				"z": -0.9943119135,
				"element": "Cl" 
			},
			{
				"x": -1.975997692,
				"y": -1.982947315,
				"z": 0.4024302152,
				"element": "C" 
			},
			{
				"x": -2.7688158736,
				"y": -0.7461434177,
				"z": -0.0147923439,
				"element": "C" 
			},
			{
				"x": -3.9774259789,
				"y": -0.7902389489,
				"z": -0.1548641334,
				"element": "O" 
			},
			{
				"x": -2.0636958734,
				"y": 0.418361002,
				"z": -0.2436516642,
				"element": "N" 
			},
			{
				"x": -0.6772447547,
				"y": 0.6709610689,
				"z": -0.072042816,
				"element": "C" 
			},
			{
				"x": -0.0969220001,
				"y": 0.8334408006,
				"z": 1.1999894518,
				"element": "C" 
			},
			{
				"x": -1.0740251845,
				"y": 0.7154396106,
				"z": 2.6456221029,
				"element": "Cl" 
			},
			{
				"x": 1.264021605,
				"y": 1.1130349826,
				"z": 1.3314809311,
				"element": "C" 
			},
			{
				"x": 2.0598683316,
				"y": 1.2637369643,
				"z": 0.2004130202,
				"element": "C" 
			},
			{
				"x": 1.4890756934,
				"y": 1.1095220006,
				"z": -1.0653962906,
				"element": "C" 
			},
			{
				"x": 0.1342453413,
				"y": 0.8094044834,
				"z": -1.2018697846,
				"element": "C" 
			},
			{
				"x": 2.2871041709,
				"y": 1.2504432512,
				"z": -2.2310721014,
				"element": "N" 
			},
			{
				"x": 3.6053423735,
				"y": 1.0160711148,
				"z": -2.4390152086,
				"element": "C" 
			},
			{
				"x": 3.8970898396,
				"y": 1.2848692151,
				"z": -3.691785044,
				"element": "N" 
			},
			{
				"x": 2.7275367768,
				"y": 1.692601872,
				"z": -4.2630973327,
				"element": "N" 
			},
			{
				"x": 1.759012,
				"y": 1.6777790292,
				"z": -3.4124356517,
				"element": "N" 
			},
			{
				"x": -2.694091497,
				"y": -2.7361562813,
				"z": 0.71834439,
				"element": "H" 
			},
			{
				"x": -1.2581788681,
				"y": -1.7827502269,
				"z": 1.1972965722,
				"element": "H" 
			},
			{
				"x": -2.6438816774,
				"y": 1.1718411819,
				"z": -0.5938040967,
				"element": "H" 
			},
			{
				"x": 1.6895565429,
				"y": 1.2413062195,
				"z": 2.3199494731,
				"element": "H" 
			},
			{
				"x": 3.1073374785,
				"y": 1.5230652476,
				"z": 0.3091769222,
				"element": "H" 
			},
			{
				"x": -0.2951664411,
				"y": 0.6731547999,
				"z": -2.1866574123,
				"element": "H" 
			},
			{
				"x": 4.2862527219,
				"y": 0.6431203731,
				"z": -1.6901072853,
				"element": "H" 
			}
		],
		 "valence_orbital": [ 
			{
				"type": "occ",
				"energy": -0.30537,
				"method": "rhf"
			},
			{
				"type": "occ",
				"energy": -0.29994,
				"method": "rhf"
			},
			{
				"type": "occ",
				"energy": -0.28478,
				"method": "rhf"
			},
			{
				"type": "occ",
				"energy": -0.27419,
				"method": "rhf"
			},
			{
				"type": "occ",
				"energy": -0.26996,
				"method": "rhf"
			},
			{
				"type": "unocc",
				"energy": -0.07204,
				"method": "rhf"
			},
			{
				"type": "unocc",
				"energy": -0.05977,
				"method": "rhf"
			},
			{
				"type": "unocc",
				"energy": -0.03292,
				"method": "rhf"
			},
			{
				"type": "unocc",
				"energy": -0.01396,
				"method": "rhf"
			},
			{
				"type": "unocc",
				"energy": -0.00285,
				"method": "rhf"
			}
		],
		"cosmo_sigma_profile": { 
			"-0.025": 0.0,
			"-0.024": 0.0,
			"-0.023": 0.0,
			"-0.022": 0.0,
			"-0.021": 0.0,
			"-0.02": 0.0,
			"-0.019": 0.0,
			"-0.018": 0.0,
			"-0.017": 0.0,
			"-0.016": 0.216040031917,
			"-0.015": 1.411187806,
			"-0.014": 0.579899448943,
			"-0.013": 2.98817065477,
			"-0.012": 4.41710640751,
			"-0.011": 3.41774580482,
			"-0.01": 3.58942899428,
			"-0.009": 5.96988445168,
			"-0.008": 9.82771725592,
			"-0.007": 10.4879633934,
			"-0.006": 12.0922093346,
			"-0.005": 14.9437125004,
			"-0.004": 12.228508988,
			"-0.003": 12.9223157567,
			"-0.002": 14.1983446953,
			"-0.001": 19.5256929717,
			"0.0": 21.9421492392,
			"0.001": 17.6663016357,
			"0.002": 14.2607540484,
			"0.003": 17.0818878953,
			"0.004": 12.6153164018,
			"0.005": 10.4166942338,
			"0.006": 8.05873324926,
			"0.007": 5.34663380653,
			"0.008": 4.79331695096,
			"0.009": 7.37785092771,
			"0.01": 5.42569121639,
			"0.011": 5.10981597161,
			"0.012": 8.84776869944,
			"0.013": 4.40424254944,
			"0.014": 1.16837016934,
			"0.015": 0.176113383101,
			"0.016": 0.0,
			"0.017": 0.0,
			"0.018": 0.0,
			"0.019": 0.0,
			"0.02": 0.0,
			"0.021": 0.0,
			"0.022": 0.0,
			"0.023": 0.0,
			"0.024": 0.0,
			"0.025": 0.0
		}
	}
}
