{
	 "smiles": "C=CC1CC2CC1C=C2", 
	 "Tm": 193.15, 
	 "num_atms": 21, 
	 "gaussian": { 
		 "optdone": 1, 
		 "sigma_profile": "yes", 
		 "theory": "DFT", 
		 "functional": "B3LYP", 
		 "basiset": "6-31G**", 
		 "properties": { 
			 "R2extent": 1315.3345, 
			 "electric_dipole_moment_norm": 0.380481221613, 
			 "electric_quadrupole_moment_norm": 2.88552778361, 
			 "total_energy": -350.130773625, 
			 "HOMO_LUMO_gap": 0.2481, 
			 "cosmo_polarized_energy": -2.22, 
			 "cosmo_cavitation_energy": 22.24, 
			 "cosmo_dispersion_energy": -16.47, 
			 "cosmo_repulsion_energy": 1.36, 
			 "cosmo_total_nonelectrostatic_energy": 7.12, 
			 "SMD_solvation_energy": 3.82 
		},
		"coords": [
			{
				"x": -0.9561812931,
				"y": 0.742463616,
				"z": -2.2151597974,
				"element": "C" 
			},
			{
				"x": -0.0390932002,
				"y": 0.253723292,
				"z": -1.3784883528,
				"element": "C" 
			},
			{
				"x": -0.3258688292,
				"y": -0.3176348729,
				"z": -0.0216127821,
				"element": "C" 
			},
			{
				"x": 0.4491807867,
				"y": 0.3751709008,
				"z": 1.1558789729,
				"element": "C" 
			},
			{
				"x": 1.1445593051,
				"y": -0.8240603938,
				"z": 1.8869400997,
				"element": "C" 
			},
			{
				"x": 0.0724175854,
				"y": -1.9252817102,
				"z": 1.7094655162,
				"element": "C" 
			},
			{
				"x": 0.0924791707,
				"y": -1.8332382507,
				"z": 0.1656153222,
				"element": "C" 
			},
			{
				"x": 1.5892483284,
				"y": -1.9340874392,
				"z": -0.091030407,
				"element": "C" 
			},
			{
				"x": 2.2148734446,
				"y": -1.337277376,
				"z": 0.9336765781,
				"element": "C" 
			},
			{
				"x": -0.6875933304,
				"y": 1.1428333752,
				"z": -3.1884565604,
				"element": "H" 
			},
			{
				"x": -2.0125625475,
				"y": 0.7619202016,
				"z": -1.9557049288,
				"element": "H" 
			},
			{
				"x": 1.009922613,
				"y": 0.2601573905,
				"z": -1.6767993101,
				"element": "H" 
			},
			{
				"x": -1.4046235598,
				"y": -0.2481399929,
				"z": 0.1623475297,
				"element": "H" 
			},
			{
				"x": -0.2456207003,
				"y": 0.8967469373,
				"z": 1.8224681194,
				"element": "H" 
			},
			{
				"x": 1.1760085099,
				"y": 1.1106749434,
				"z": 0.7990993832,
				"element": "H" 
			},
			{
				"x": 1.4713938124,
				"y": -0.6014674745,
				"z": 2.9051966231,
				"element": "H" 
			},
			{
				"x": -0.8976899212,
				"y": -1.6683031913,
				"z": 2.1509396759,
				"element": "H" 
			},
			{
				"x": 0.3990484139,
				"y": -2.9010242713,
				"z": 2.0801738704,
				"element": "H" 
			},
			{
				"x": -0.541794511,
				"y": -2.5264360424,
				"z": -0.3907947743,
				"element": "H" 
			},
			{
				"x": 2.0395218127,
				"y": -2.3265412692,
				"z": -0.9964620595,
				"element": "H" 
			},
			{
				"x": 3.27747411,
				"y": -1.1398983724,
				"z": 1.0309072818,
				"element": "H" 
			}
		],
		 "valence_orbital": [ 
			{
				"type": "occ",
				"energy": -0.33394,
				"method": "rhf"
			},
			{
				"type": "occ",
				"energy": -0.31919,
				"method": "rhf"
			},
			{
				"type": "occ",
				"energy": -0.29901,
				"method": "rhf"
			},
			{
				"type": "occ",
				"energy": -0.25169,
				"method": "rhf"
			},
			{
				"type": "occ",
				"energy": -0.2297,
				"method": "rhf"
			},
			{
				"type": "unocc",
				"energy": 0.0184,
				"method": "rhf"
			},
			{
				"type": "unocc",
				"energy": 0.0273,
				"method": "rhf"
			},
			{
				"type": "unocc",
				"energy": 0.09524,
				"method": "rhf"
			},
			{
				"type": "unocc",
				"energy": 0.12282,
				"method": "rhf"
			},
			{
				"type": "unocc",
				"energy": 0.12887,
				"method": "rhf"
			}
		],
		"cosmo_sigma_profile": { 
			"-0.025": 0.0,
			"-0.024": 0.0,
			"-0.023": 0.0,
			"-0.022": 0.0,
			"-0.021": 0.0,
			"-0.02": 0.0,
			"-0.019": 0.0,
			"-0.018": 0.0,
			"-0.017": 0.0,
			"-0.016": 0.0,
			"-0.015": 0.0,
			"-0.014": 0.0,
			"-0.013": 0.0,
			"-0.012": 0.0,
			"-0.011": 0.0,
			"-0.01": 0.0,
			"-0.009": 0.0,
			"-0.008": 0.0,
			"-0.007": 0.0,
			"-0.006": 0.184779226387,
			"-0.005": 3.67368208907,
			"-0.004": 7.35916313048,
			"-0.003": 18.7302219492,
			"-0.002": 26.9691967955,
			"-0.001": 25.8957678943,
			"0.0": 26.4204373321,
			"0.001": 23.0849839351,
			"0.002": 11.4460031788,
			"0.003": 9.66248710719,
			"0.004": 6.59292703488,
			"0.005": 4.79353800794,
			"0.006": 3.97298591593,
			"0.007": 4.19551580887,
			"0.008": 0.943116032285,
			"0.009": 0.0,
			"0.01": 0.0,
			"0.011": 0.0,
			"0.012": 0.0,
			"0.013": 0.0,
			"0.014": 0.0,
			"0.015": 0.0,
			"0.016": 0.0,
			"0.017": 0.0,
			"0.018": 0.0,
			"0.019": 0.0,
			"0.02": 0.0,
			"0.021": 0.0,
			"0.022": 0.0,
			"0.023": 0.0,
			"0.024": 0.0,
			"0.025": 0.0
		}
	}
}
