{
	 "smiles": "CCC(C)CCC(C)(O)CC", 
	 "Tm": 205.65, 
	 "num_atms": 33, 
	 "gaussian": { 
		 "optdone": 1, 
		 "sigma_profile": "yes", 
		 "theory": "DFT", 
		 "functional": "B3LYP", 
		 "basiset": "6-31G**", 
		 "properties": { 
			 "R2extent": 2977.4815, 
			 "electric_dipole_moment_norm": 1.26505344156, 
			 "electric_quadrupole_moment_norm": 5.36142702832, 
			 "total_energy": -469.57059734, 
			 "HOMO_LUMO_gap": 0.31359, 
			 "cosmo_polarized_energy": -5.55, 
			 "cosmo_cavitation_energy": 31.79, 
			 "cosmo_dispersion_energy": -21.88, 
			 "cosmo_repulsion_energy": 1.76, 
			 "cosmo_total_nonelectrostatic_energy": 11.66, 
			 "SMD_solvation_energy": 5.2 
		},
		"coords": [
			{
				"x": 0.0645042417,
				"y": -3.2187767645,
				"z": -2.7827409818,
				"element": "C" 
			},
			{
				"x": -0.0318985067,
				"y": -3.4104018677,
				"z": -1.2627327393,
				"element": "C" 
			},
			{
				"x": -0.5646509997,
				"y": -2.2072673073,
				"z": -0.4496696305,
				"element": "C" 
			},
			{
				"x": -2.0130102671,
				"y": -1.8599833295,
				"z": -0.8318374703,
				"element": "C" 
			},
			{
				"x": 0.3788387531,
				"y": -0.9886306279,
				"z": -0.5638810118,
				"element": "C" 
			},
			{
				"x": 0.1029282682,
				"y": 0.2119668992,
				"z": 0.3627102007,
				"element": "C" 
			},
			{
				"x": 0.3082768072,
				"y": 0.0280356382,
				"z": 1.8866576049,
				"element": "C" 
			},
			{
				"x": 0.0648514635,
				"y": 1.3693846397,
				"z": 2.5995556106,
				"element": "C" 
			},
			{
				"x": -0.6199728525,
				"y": -0.9398751296,
				"z": 2.4162870096,
				"element": "O" 
			},
			{
				"x": 1.6858394474,
				"y": -0.5576884581,
				"z": 2.2544480783,
				"element": "C" 
			},
			{
				"x": 2.9058002178,
				"y": 0.2529551062,
				"z": 1.8054347219,
				"element": "C" 
			},
			{
				"x": 0.7463712173,
				"y": -2.4052435235,
				"z": -3.051411016,
				"element": "H" 
			},
			{
				"x": -0.9102812852,
				"y": -2.9953797803,
				"z": -3.2288941773,
				"element": "H" 
			},
			{
				"x": 0.4403975442,
				"y": -4.1291599297,
				"z": -3.2615518322,
				"element": "H" 
			},
			{
				"x": 0.9609990973,
				"y": -3.6772819008,
				"z": -0.8757893255,
				"element": "H" 
			},
			{
				"x": -0.6766645843,
				"y": -4.2753706768,
				"z": -1.0567056257,
				"element": "H" 
			},
			{
				"x": -0.571855062,
				"y": -2.5171639372,
				"z": 0.6006789115,
				"element": "H" 
			},
			{
				"x": -2.6521396597,
				"y": -2.7493366461,
				"z": -0.7935335257,
				"element": "H" 
			},
			{
				"x": -2.4460311643,
				"y": -1.1218872807,
				"z": -0.1486542666,
				"element": "H" 
			},
			{
				"x": -2.0818475355,
				"y": -1.4441887433,
				"z": -1.8438093645,
				"element": "H" 
			},
			{
				"x": 1.4107961773,
				"y": -1.3302322673,
				"z": -0.409800474,
				"element": "H" 
			},
			{
				"x": 0.3456858089,
				"y": -0.6122479365,
				"z": -1.5953520201,
				"element": "H" 
			},
			{
				"x": -0.925213765,
				"y": 0.5696793517,
				"z": 0.2088783335,
				"element": "H" 
			},
			{
				"x": 0.7421823663,
				"y": 1.0426654117,
				"z": 0.0373578858,
				"element": "H" 
			},
			{
				"x": -0.9453293784,
				"y": 1.7395648181,
				"z": 2.3845094204,
				"element": "H" 
			},
			{
				"x": 0.1551797339,
				"y": 1.2410315623,
				"z": 3.6823923788,
				"element": "H" 
			},
			{
				"x": 0.7689135313,
				"y": 2.1435598804,
				"z": 2.2798121932,
				"element": "H" 
			},
			{
				"x": -1.5133520099,
				"y": -0.6171559709,
				"z": 2.2367235609,
				"element": "H" 
			},
			{
				"x": 1.7010787166,
				"y": -0.6781018456,
				"z": 3.3440951076,
				"element": "H" 
			},
			{
				"x": 1.7421934618,
				"y": -1.570578552,
				"z": 1.8411642807,
				"element": "H" 
			},
			{
				"x": 2.9536180766,
				"y": 0.3560193732,
				"z": 0.7163640794,
				"element": "H" 
			},
			{
				"x": 2.911581444,
				"y": 1.2598676425,
				"z": 2.2352457395,
				"element": "H" 
			},
			{
				"x": 3.828110696,
				"y": -0.2418778481,
				"z": 2.1261483437,
				"element": "H" 
			}
		],
		 "valence_orbital": [ 
			{
				"type": "occ",
				"energy": -0.31168,
				"method": "rhf"
			},
			{
				"type": "occ",
				"energy": -0.30953,
				"method": "rhf"
			},
			{
				"type": "occ",
				"energy": -0.30383,
				"method": "rhf"
			},
			{
				"type": "occ",
				"energy": -0.29208,
				"method": "rhf"
			},
			{
				"type": "occ",
				"energy": -0.25413,
				"method": "rhf"
			},
			{
				"type": "unocc",
				"energy": 0.05946,
				"method": "rhf"
			},
			{
				"type": "unocc",
				"energy": 0.09096,
				"method": "rhf"
			},
			{
				"type": "unocc",
				"energy": 0.09787,
				"method": "rhf"
			},
			{
				"type": "unocc",
				"energy": 0.11722,
				"method": "rhf"
			},
			{
				"type": "unocc",
				"energy": 0.1228,
				"method": "rhf"
			}
		],
		"cosmo_sigma_profile": { 
			"-0.025": 0.0,
			"-0.024": 0.0,
			"-0.023": 0.0,
			"-0.022": 0.0,
			"-0.021": 0.0,
			"-0.02": 0.0,
			"-0.019": 0.0,
			"-0.018": 0.0,
			"-0.017": 0.0,
			"-0.016": 0.0,
			"-0.015": 0.0,
			"-0.014": 0.100456970318,
			"-0.013": 0.636591384552,
			"-0.012": 0.696297779324,
			"-0.011": 0.559176368055,
			"-0.01": 1.24966396073,
			"-0.009": 1.39498366651,
			"-0.008": 0.659234976418,
			"-0.007": 1.80185996853,
			"-0.006": 2.44173996953,
			"-0.005": 2.27580208316,
			"-0.004": 2.99940921607,
			"-0.003": 11.0808005948,
			"-0.002": 33.4840025348,
			"-0.001": 44.4685520128,
			"0.0": 45.0014722154,
			"0.001": 49.5049602484,
			"0.002": 25.3852892992,
			"0.003": 3.80024090294,
			"0.004": 1.34449474333,
			"0.005": 1.98105069289,
			"0.006": 1.12519538877,
			"0.007": 1.65456864407,
			"0.008": 1.59496514498,
			"0.009": 0.917345606573,
			"0.01": 0.659433829061,
			"0.011": 1.43811773315,
			"0.012": 1.1430174685,
			"0.013": 0.995624146555,
			"0.014": 1.11710119047,
			"0.015": 1.10018844212,
			"0.016": 0.0,
			"0.017": 0.0,
			"0.018": 0.0,
			"0.019": 0.0,
			"0.02": 0.0,
			"0.021": 0.0,
			"0.022": 0.0,
			"0.023": 0.0,
			"0.024": 0.0,
			"0.025": 0.0
		}
	}
}
