{
	 "smiles": "CC1=CC=C(F)C(C=O)=C1Cl", 
	 "Tm": 321.15, 
	 "num_atms": 17, 
	 "gaussian": { 
		 "optdone": 1, 
		 "sigma_profile": "yes", 
		 "theory": "DFT", 
		 "functional": "B3LYP", 
		 "basiset": "6-31G**", 
		 "properties": { 
			 "R2extent": 2074.2638, 
			 "electric_dipole_moment_norm": 4.38865522683, 
			 "electric_quadrupole_moment_norm": 7.16291530454, 
			 "total_energy": -943.705602169, 
			 "HOMO_LUMO_gap": 0.17712, 
			 "cosmo_polarized_energy": -8.21, 
			 "cosmo_cavitation_energy": 23.29, 
			 "cosmo_dispersion_energy": -17.17, 
			 "cosmo_repulsion_energy": 1.34, 
			 "cosmo_total_nonelectrostatic_energy": 7.46, 
			 "SMD_solvation_energy": 5.34 
		},
		"coords": [
			{
				"x": -0.6852615492,
				"y": 0.3581306068,
				"z": -3.143075637,
				"element": "C" 
			},
			{
				"x": -0.0182057897,
				"y": 0.028131985,
				"z": -1.8315950621,
				"element": "C" 
			},
			{
				"x": 0.6965268341,
				"y": -1.1683225712,
				"z": -1.6825857421,
				"element": "C" 
			},
			{
				"x": 1.3276352285,
				"y": -1.513561239,
				"z": -0.491195322,
				"element": "C" 
			},
			{
				"x": 1.2361745603,
				"y": -0.6336723281,
				"z": 0.5729316006,
				"element": "C" 
			},
			{
				"x": 1.8492654899,
				"y": -0.9711311188,
				"z": 1.7273088364,
				"element": "F" 
			},
			{
				"x": 0.5398694628,
				"y": 0.5854921082,
				"z": 0.5077185357,
				"element": "C" 
			},
			{
				"x": 0.5262890018,
				"y": 1.4324330977,
				"z": 1.7338536284,
				"element": "C" 
			},
			{
				"x": -0.0219419743,
				"y": 2.5090030941,
				"z": 1.8567649154,
				"element": "O" 
			},
			{
				"x": -0.0833666829,
				"y": 0.8899921357,
				"z": -0.7233771545,
				"element": "C" 
			},
			{
				"x": -0.9760597557,
				"y": 2.3811488258,
				"z": -0.9144417314,
				"element": "Cl" 
			},
			{
				"x": -1.7654929823,
				"y": 0.4873299095,
				"z": -3.0205689356,
				"element": "H" 
			},
			{
				"x": -0.3009601881,
				"y": 1.2934765286,
				"z": -3.5626753281,
				"element": "H" 
			},
			{
				"x": -0.5153700885,
				"y": -0.4394520573,
				"z": -3.8702999653,
				"element": "H" 
			},
			{
				"x": 0.7572209895,
				"y": -1.8462916461,
				"z": -2.5289762012,
				"element": "H" 
			},
			{
				"x": 1.8799849848,
				"y": -2.4391999924,
				"z": -0.3777163764,
				"element": "H" 
			},
			{
				"x": 1.0846924591,
				"y": 0.9847926616,
				"z": 2.5763299391,
				"element": "H" 
			}
		],
		 "valence_orbital": [ 
			{
				"type": "occ",
				"energy": -0.34105,
				"method": "rhf"
			},
			{
				"type": "occ",
				"energy": -0.31925,
				"method": "rhf"
			},
			{
				"type": "occ",
				"energy": -0.27279,
				"method": "rhf"
			},
			{
				"type": "occ",
				"energy": -0.25471,
				"method": "rhf"
			},
			{
				"type": "occ",
				"energy": -0.25075,
				"method": "rhf"
			},
			{
				"type": "unocc",
				"energy": -0.07363,
				"method": "rhf"
			},
			{
				"type": "unocc",
				"energy": -0.02244,
				"method": "rhf"
			},
			{
				"type": "unocc",
				"energy": 0.02471,
				"method": "rhf"
			},
			{
				"type": "unocc",
				"energy": 0.02733,
				"method": "rhf"
			},
			{
				"type": "unocc",
				"energy": 0.08888,
				"method": "rhf"
			}
		],
		"cosmo_sigma_profile": { 
			"-0.025": 0.0,
			"-0.024": 0.0,
			"-0.023": 0.0,
			"-0.022": 0.0,
			"-0.021": 0.0,
			"-0.02": 0.0,
			"-0.019": 0.0,
			"-0.018": 0.0,
			"-0.017": 0.0,
			"-0.016": 0.0,
			"-0.015": 0.0,
			"-0.014": 0.0,
			"-0.013": 0.0,
			"-0.012": 0.0,
			"-0.011": 0.0,
			"-0.01": 0.0,
			"-0.009": 0.175634475135,
			"-0.008": 2.80560042243,
			"-0.007": 6.36063141099,
			"-0.006": 7.52132067665,
			"-0.005": 10.6379113667,
			"-0.004": 12.1353255012,
			"-0.003": 13.3712920185,
			"-0.002": 16.9948407641,
			"-0.001": 22.742171402,
			"0.0": 23.3275397791,
			"0.001": 16.5825884926,
			"0.002": 13.0483242312,
			"0.003": 12.7084783732,
			"0.004": 8.03595057444,
			"0.005": 3.18769694306,
			"0.006": 1.49727103555,
			"0.007": 2.62766068774,
			"0.008": 1.84561756687,
			"0.009": 2.65046168807,
			"0.01": 3.03188267168,
			"0.011": 4.92755900197,
			"0.012": 2.5703168484,
			"0.013": 0.198022107391,
			"0.014": 0.0,
			"0.015": 0.0,
			"0.016": 0.0,
			"0.017": 0.0,
			"0.018": 0.0,
			"0.019": 0.0,
			"0.02": 0.0,
			"0.021": 0.0,
			"0.022": 0.0,
			"0.023": 0.0,
			"0.024": 0.0,
			"0.025": 0.0
		}
	}
}
