{
	 "smiles": "O=C1CC(CN1)C1=NC=CC=C1", 
	 "Tm": 353.15, 
	 "num_atms": 22, 
	 "gaussian": { 
		 "optdone": 1, 
		 "sigma_profile": "yes", 
		 "theory": "DFT", 
		 "functional": "B3LYP", 
		 "basiset": "6-31G**", 
		 "properties": { 
			 "R2extent": 2767.4117, 
			 "electric_dipole_moment_norm": 5.33853341378, 
			 "electric_quadrupole_moment_norm": 11.6123874871, 
			 "total_energy": -533.727215061, 
			 "HOMO_LUMO_gap": 0.19831, 
			 "cosmo_polarized_energy": -14.05, 
			 "cosmo_cavitation_energy": 25.41, 
			 "cosmo_dispersion_energy": -18.89, 
			 "cosmo_repulsion_energy": 1.53, 
			 "cosmo_total_nonelectrostatic_energy": 8.05, 
			 "SMD_solvation_energy": 3.29 
		},
		"coords": [
			{
				"x": -0.2653926217,
				"y": 0.3321944963,
				"z": -3.8255214495,
				"element": "O" 
			},
			{
				"x": 0.3171815538,
				"y": 0.3442271226,
				"z": -2.7555691019,
				"element": "C" 
			},
			{
				"x": -0.1529313632,
				"y": -0.2678435007,
				"z": -1.4332575761,
				"element": "C" 
			},
			{
				"x": 0.7947000753,
				"y": 0.3240365677,
				"z": -0.3666859767,
				"element": "C" 
			},
			{
				"x": 2.0791080614,
				"y": 0.6415596297,
				"z": -1.1829661171,
				"element": "C" 
			},
			{
				"x": 1.5490086154,
				"y": 0.9006393549,
				"z": -2.5130846661,
				"element": "N" 
			},
			{
				"x": 1.044977454,
				"y": -0.5759295538,
				"z": 0.8240841022,
				"element": "C" 
			},
			{
				"x": 1.5908852663,
				"y": -1.7759193735,
				"z": 0.5624082094,
				"element": "N" 
			},
			{
				"x": 1.8207278871,
				"y": -2.6041610759,
				"z": 1.5855177617,
				"element": "C" 
			},
			{
				"x": 1.5248101661,
				"y": -2.2933687083,
				"z": 2.9142158686,
				"element": "C" 
			},
			{
				"x": 0.9597257915,
				"y": -1.0488955125,
				"z": 3.1851540651,
				"element": "C" 
			},
			{
				"x": 0.716749675,
				"y": -0.1762981322,
				"z": 2.1250283447,
				"element": "C" 
			},
			{
				"x": -0.0244737089,
				"y": -1.354254745,
				"z": -1.4994039252,
				"element": "H" 
			},
			{
				"x": -1.2103870333,
				"y": -0.059221859,
				"z": -1.2582196553,
				"element": "H" 
			},
			{
				"x": 0.3748294867,
				"y": 1.271716804,
				"z": -0.0119970079,
				"element": "H" 
			},
			{
				"x": 2.6109689478,
				"y": 1.5122702529,
				"z": -0.7849089076,
				"element": "H" 
			},
			{
				"x": 2.7575576735,
				"y": -0.2211130791,
				"z": -1.1683792207,
				"element": "H" 
			},
			{
				"x": 2.1191990336,
				"y": 1.2077329721,
				"z": -3.2880300187,
				"element": "H" 
			},
			{
				"x": 2.2635704359,
				"y": -3.5659923944,
				"z": 1.3315546965,
				"element": "H" 
			},
			{
				"x": 1.7323125076,
				"y": -3.0065942553,
				"z": 3.7054210548,
				"element": "H" 
			},
			{
				"x": 0.7118769623,
				"y": -0.7608286244,
				"z": 4.2028543789,
				"element": "H" 
			},
			{
				"x": 0.2773951337,
				"y": 0.8014436139,
				"z": 2.2991851412,
				"element": "H" 
			}
		],
		 "valence_orbital": [ 
			{
				"type": "occ",
				"energy": -0.29324,
				"method": "rhf"
			},
			{
				"type": "occ",
				"energy": -0.26539,
				"method": "rhf"
			},
			{
				"type": "occ",
				"energy": -0.26398,
				"method": "rhf"
			},
			{
				"type": "occ",
				"energy": -0.24538,
				"method": "rhf"
			},
			{
				"type": "occ",
				"energy": -0.2324,
				"method": "rhf"
			},
			{
				"type": "unocc",
				"energy": -0.03409,
				"method": "rhf"
			},
			{
				"type": "unocc",
				"energy": -0.018,
				"method": "rhf"
			},
			{
				"type": "unocc",
				"energy": 0.04043,
				"method": "rhf"
			},
			{
				"type": "unocc",
				"energy": 0.08067,
				"method": "rhf"
			},
			{
				"type": "unocc",
				"energy": 0.09547,
				"method": "rhf"
			}
		],
		"cosmo_sigma_profile": { 
			"-0.025": 0.0,
			"-0.024": 0.0,
			"-0.023": 0.0,
			"-0.022": 0.0,
			"-0.021": 0.0,
			"-0.02": 0.0,
			"-0.019": 0.0,
			"-0.018": 0.0,
			"-0.017": 0.0,
			"-0.016": 0.0,
			"-0.015": 0.00900318046925,
			"-0.014": 0.818522439356,
			"-0.013": 1.49901104118,
			"-0.012": 0.871548429819,
			"-0.011": 0.708345486821,
			"-0.01": 0.77973855688,
			"-0.009": 1.76944527279,
			"-0.008": 0.642731312967,
			"-0.007": 4.68815934012,
			"-0.006": 12.3547585646,
			"-0.005": 19.1026199222,
			"-0.004": 21.0546582986,
			"-0.003": 17.4619064055,
			"-0.002": 15.6673389159,
			"-0.001": 12.6600046338,
			"0.0": 12.2807385291,
			"0.001": 10.1874633507,
			"0.002": 13.8462023599,
			"0.003": 14.9853231141,
			"0.004": 6.13169723844,
			"0.005": 3.95493981715,
			"0.006": 3.25856888596,
			"0.007": 2.12017318443,
			"0.008": 2.18053360437,
			"0.009": 2.72765406673,
			"0.01": 1.96365259087,
			"0.011": 2.16749985192,
			"0.012": 2.46350596376,
			"0.013": 3.75452071847,
			"0.014": 6.64761045539,
			"0.015": 2.81860634425,
			"0.016": 0.0475606144071,
			"0.017": 0.0,
			"0.018": 0.0,
			"0.019": 0.0,
			"0.02": 0.0,
			"0.021": 0.0,
			"0.022": 0.0,
			"0.023": 0.0,
			"0.024": 0.0,
			"0.025": 0.0
		}
	}
}
