{
	 "smiles": "FC1=CC=C(C=C1)N1N=CC2=C1N=CNC2=O", 
	 "Tm": 517.15, 
	 "num_atms": 24, 
	 "gaussian": { 
		 "optdone": 1, 
		 "sigma_profile": "yes", 
		 "theory": "DFT", 
		 "functional": "B3LYP", 
		 "basiset": "6-31G**", 
		 "properties": { 
			 "R2extent": 5394.767, 
			 "electric_dipole_moment_norm": 3.27007701133, 
			 "electric_quadrupole_moment_norm": 24.0194092721, 
			 "total_energy": -817.453103285, 
			 "HOMO_LUMO_gap": 0.17305, 
			 "cosmo_polarized_energy": -14.96, 
			 "cosmo_cavitation_energy": 29.68, 
			 "cosmo_dispersion_energy": -22.2, 
			 "cosmo_repulsion_energy": 1.65, 
			 "cosmo_total_nonelectrostatic_energy": 9.13, 
			 "SMD_solvation_energy": 5.28 
		},
		"coords": [
			{
				"x": -3.5290128623,
				"y": 0.2762307954,
				"z": 3.7929564266,
				"element": "F" 
			},
			{
				"x": -2.744592575,
				"y": 0.1138679368,
				"z": 2.7072554922,
				"element": "C" 
			},
			{
				"x": -3.1917627453,
				"y": -0.6809859798,
				"z": 1.6599072501,
				"element": "C" 
			},
			{
				"x": -2.3843910903,
				"y": -0.8514834879,
				"z": 0.5361235743,
				"element": "C" 
			},
			{
				"x": -1.1348918581,
				"y": -0.2202358887,
				"z": 0.4776199332,
				"element": "C" 
			},
			{
				"x": -0.6987465863,
				"y": 0.5787401282,
				"z": 1.5436146238,
				"element": "C" 
			},
			{
				"x": -1.5074917601,
				"y": 0.7465453528,
				"z": 2.6637152566,
				"element": "C" 
			},
			{
				"x": -0.2782396561,
				"y": -0.3696543972,
				"z": -0.6555817651,
				"element": "N" 
			},
			{
				"x": 0.9343239617,
				"y": 0.2737344303,
				"z": -0.6534392151,
				"element": "N" 
			},
			{
				"x": 1.5230799719,
				"y": -0.0236033843,
				"z": -1.7980959891,
				"element": "C" 
			},
			{
				"x": 0.7105395761,
				"y": -0.8718599524,
				"z": -2.5833010027,
				"element": "C" 
			},
			{
				"x": -0.4457737411,
				"y": -1.0763250785,
				"z": -1.8167494044,
				"element": "C" 
			},
			{
				"x": -1.5272409022,
				"y": -1.8368695521,
				"z": -2.1695881129,
				"element": "N" 
			},
			{
				"x": -1.406727173,
				"y": -2.3950828928,
				"z": -3.3385989262,
				"element": "C" 
			},
			{
				"x": -0.3282969274,
				"y": -2.2629568095,
				"z": -4.1636653646,
				"element": "N" 
			},
			{
				"x": 0.8405491589,
				"y": -1.492138926,
				"z": -3.8782342124,
				"element": "C" 
			},
			{
				"x": 1.7549804309,
				"y": -1.4360214634,
				"z": -4.6828855957,
				"element": "O" 
			},
			{
				"x": -4.1623720853,
				"y": -1.1601026543,
				"z": 1.7264040852,
				"element": "H" 
			},
			{
				"x": -2.7189578596,
				"y": -1.4673514949,
				"z": -0.287237658,
				"element": "H" 
			},
			{
				"x": 0.2686973911,
				"y": 1.0591020135,
				"z": 1.4825338141,
				"element": "H" 
			},
			{
				"x": -1.1878339349,
				"y": 1.3606090386,
				"z": 3.4984369389,
				"element": "H" 
			},
			{
				"x": 2.5022932763,
				"y": 0.373798076,
				"z": -2.0258900522,
				"element": "H" 
			},
			{
				"x": -2.2136446911,
				"y": -3.0210796984,
				"z": -3.7119094253,
				"element": "H" 
			},
			{
				"x": -0.3193873187,
				"y": -2.7351761114,
				"z": -5.0599906713,
				"element": "H" 
			}
		],
		 "valence_orbital": [ 
			{
				"type": "occ",
				"energy": -0.29844,
				"method": "rhf"
			},
			{
				"type": "occ",
				"energy": -0.27394,
				"method": "rhf"
			},
			{
				"type": "occ",
				"energy": -0.26563,
				"method": "rhf"
			},
			{
				"type": "occ",
				"energy": -0.246,
				"method": "rhf"
			},
			{
				"type": "occ",
				"energy": -0.22772,
				"method": "rhf"
			},
			{
				"type": "unocc",
				"energy": -0.05467,
				"method": "rhf"
			},
			{
				"type": "unocc",
				"energy": -0.02255,
				"method": "rhf"
			},
			{
				"type": "unocc",
				"energy": -0.01534,
				"method": "rhf"
			},
			{
				"type": "unocc",
				"energy": -0.00042,
				"method": "rhf"
			},
			{
				"type": "unocc",
				"energy": 0.04733,
				"method": "rhf"
			}
		],
		"cosmo_sigma_profile": { 
			"-0.025": 0.0,
			"-0.024": 0.0,
			"-0.023": 0.0,
			"-0.022": 0.0,
			"-0.021": 0.0,
			"-0.02": 0.0,
			"-0.019": 0.0,
			"-0.018": 0.0,
			"-0.017": 1.29148223232,
			"-0.016": 1.94272069837,
			"-0.015": 0.798766118088,
			"-0.014": 1.4854295496,
			"-0.013": 1.31146473126,
			"-0.012": 1.55881521751,
			"-0.011": 2.67184145505,
			"-0.01": 2.74132598574,
			"-0.009": 3.10621799873,
			"-0.008": 4.51646732275,
			"-0.007": 6.85879601073,
			"-0.006": 7.47613009235,
			"-0.005": 10.6837652031,
			"-0.004": 9.96740784508,
			"-0.003": 13.7659017075,
			"-0.002": 14.8904236353,
			"-0.001": 15.9311262562,
			"0.0": 20.1240943474,
			"0.001": 22.7297130068,
			"0.002": 22.4976385818,
			"0.003": 20.3961902336,
			"0.004": 16.5642739146,
			"0.005": 7.64313395538,
			"0.006": 4.93229190344,
			"0.007": 4.90847695478,
			"0.008": 2.00727328919,
			"0.009": 2.59630100304,
			"0.01": 3.47737993234,
			"0.011": 2.17016638142,
			"0.012": 4.69801401365,
			"0.013": 4.56455693579,
			"0.014": 0.334195945292,
			"0.015": 0.0,
			"0.016": 0.0,
			"0.017": 0.0,
			"0.018": 0.0,
			"0.019": 0.0,
			"0.02": 0.0,
			"0.021": 0.0,
			"0.022": 0.0,
			"0.023": 0.0,
			"0.024": 0.0,
			"0.025": 0.0
		}
	}
}
