{
	 "smiles": "CC1=C(OC(C(O)=O)C2=CC=CC=C2)C=CC(Cl)=C1", 
	 "Tm": 396.15, 
	 "num_atms": 32, 
	 "gaussian": { 
		 "optdone": 1, 
		 "sigma_profile": "yes", 
		 "theory": "DFT", 
		 "functional": "B3LYP", 
		 "basiset": "6-31G**", 
		 "properties": { 
			 "R2extent": 7470.521, 
			 "electric_dipole_moment_norm": 2.48269028878, 
			 "electric_quadrupole_moment_norm": 20.6398884561, 
			 "total_energy": -1265.30340477, 
			 "HOMO_LUMO_gap": 0.20813, 
			 "cosmo_polarized_energy": -14.33, 
			 "cosmo_cavitation_energy": 38.14, 
			 "cosmo_dispersion_energy": -26.35, 
			 "cosmo_repulsion_energy": 2.04, 
			 "cosmo_total_nonelectrostatic_energy": 13.83, 
			 "SMD_solvation_energy": 7.4 
		},
		"coords": [
			{
				"x": 1.1272048945,
				"y": -3.3901043195,
				"z": 0.304845085,
				"element": "C" 
			},
			{
				"x": 0.1657024627,
				"y": -3.0651068973,
				"z": -0.810452478,
				"element": "C" 
			},
			{
				"x": -0.1606294324,
				"y": -1.728934446,
				"z": -1.1108995906,
				"element": "C" 
			},
			{
				"x": 0.4417135467,
				"y": -0.7758582573,
				"z": -0.3115084997,
				"element": "O" 
			},
			{
				"x": 0.4925205106,
				"y": 0.5888004803,
				"z": -0.7402441587,
				"element": "C" 
			},
			{
				"x": 1.7680562779,
				"y": 1.2145966692,
				"z": -0.1250239841,
				"element": "C" 
			},
			{
				"x": 2.4508519209,
				"y": 0.425249109,
				"z": 0.7181764873,
				"element": "O" 
			},
			{
				"x": 2.1132084727,
				"y": 2.335057467,
				"z": -0.4029879746,
				"element": "O" 
			},
			{
				"x": -0.7439322275,
				"y": 1.386350941,
				"z": -0.3528703458,
				"element": "C" 
			},
			{
				"x": -1.6135294052,
				"y": 0.9305552019,
				"z": 0.6427934331,
				"element": "C" 
			},
			{
				"x": -2.7285927485,
				"y": 1.6906101413,
				"z": 1.0003458484,
				"element": "C" 
			},
			{
				"x": -2.9772824704,
				"y": 2.9116293434,
				"z": 0.3725214432,
				"element": "C" 
			},
			{
				"x": -2.1055763936,
				"y": 3.3719945855,
				"z": -0.6169795271,
				"element": "C" 
			},
			{
				"x": -0.9936072515,
				"y": 2.6133246214,
				"z": -0.9804680754,
				"element": "C" 
			},
			{
				"x": -1.0484859598,
				"y": -1.4138771333,
				"z": -2.1397517254,
				"element": "C" 
			},
			{
				"x": -1.6194234295,
				"y": -2.4349247788,
				"z": -2.9031901075,
				"element": "C" 
			},
			{
				"x": -1.2993371726,
				"y": -3.7568416981,
				"z": -2.6169855232,
				"element": "C" 
			},
			{
				"x": -2.0119432294,
				"y": -5.0532333484,
				"z": -3.5670123042,
				"element": "Cl" 
			},
			{
				"x": -0.4196709576,
				"y": -4.0716798604,
				"z": -1.5800558208,
				"element": "C" 
			},
			{
				"x": 0.7686603757,
				"y": -3.0092572921,
				"z": 1.2678181643,
				"element": "H" 
			},
			{
				"x": 2.1118300635,
				"y": -2.9423628845,
				"z": 0.1251394681,
				"element": "H" 
			},
			{
				"x": 1.2636726817,
				"y": -4.4697900132,
				"z": 0.3991972837,
				"element": "H" 
			},
			{
				"x": 0.6397102352,
				"y": 0.6251970441,
				"z": -1.8266566792,
				"element": "H" 
			},
			{
				"x": 1.9923528316,
				"y": -0.4336337122,
				"z": 0.7518330376,
				"element": "H" 
			},
			{
				"x": -1.4211508014,
				"y": -0.0194326169,
				"z": 1.1300563582,
				"element": "H" 
			},
			{
				"x": -3.4015842611,
				"y": 1.3266698926,
				"z": 1.7712657234,
				"element": "H" 
			},
			{
				"x": -3.8453901616,
				"y": 3.5015509494,
				"z": 0.6516049217,
				"element": "H" 
			},
			{
				"x": -2.2911777653,
				"y": 4.3226337021,
				"z": -1.1081843471,
				"element": "H" 
			},
			{
				"x": -0.3066426861,
				"y": 2.9795792837,
				"z": -1.7369551346,
				"element": "H" 
			},
			{
				"x": -1.3230815332,
				"y": -0.3851182344,
				"z": -2.3390167378,
				"element": "H" 
			},
			{
				"x": -2.3111655597,
				"y": -2.1975860166,
				"z": -3.703327946,
				"element": "H" 
			},
			{
				"x": -0.1829808274,
				"y": -5.1100579229,
				"z": -1.3730262941,
				"element": "H" 
			}
		],
		 "valence_orbital": [ 
			{
				"type": "occ",
				"energy": -0.28184,
				"method": "rhf"
			},
			{
				"type": "occ",
				"energy": -0.2694,
				"method": "rhf"
			},
			{
				"type": "occ",
				"energy": -0.25999,
				"method": "rhf"
			},
			{
				"type": "occ",
				"energy": -0.25502,
				"method": "rhf"
			},
			{
				"type": "occ",
				"energy": -0.23586,
				"method": "rhf"
			},
			{
				"type": "unocc",
				"energy": -0.02773,
				"method": "rhf"
			},
			{
				"type": "unocc",
				"energy": -0.01896,
				"method": "rhf"
			},
			{
				"type": "unocc",
				"energy": -0.01404,
				"method": "rhf"
			},
			{
				"type": "unocc",
				"energy": -0.0111,
				"method": "rhf"
			},
			{
				"type": "unocc",
				"energy": 0.01306,
				"method": "rhf"
			}
		],
		"cosmo_sigma_profile": { 
			"-0.025": 0.0,
			"-0.024": 0.0,
			"-0.023": 0.0,
			"-0.022": 0.0,
			"-0.021": 0.0,
			"-0.02": 0.0,
			"-0.019": 0.0,
			"-0.018": 0.0,
			"-0.017": 0.0,
			"-0.016": 0.0,
			"-0.015": 0.0,
			"-0.014": 0.0,
			"-0.013": 0.0,
			"-0.012": 0.025722741844,
			"-0.011": 1.02177452563,
			"-0.01": 1.90616283369,
			"-0.009": 2.95385342116,
			"-0.008": 6.10746341933,
			"-0.007": 9.25718785296,
			"-0.006": 17.8657674083,
			"-0.005": 21.4333672304,
			"-0.004": 22.8558037924,
			"-0.003": 20.2247420354,
			"-0.002": 19.3584378869,
			"-0.001": 22.3618949889,
			"0.0": 21.1493661495,
			"0.001": 19.4055848711,
			"0.002": 22.8653205182,
			"0.003": 27.1703362618,
			"0.004": 22.5315558781,
			"0.005": 20.3838848993,
			"0.006": 4.4982630046,
			"0.007": 2.26197679566,
			"0.008": 3.6900729181,
			"0.009": 5.15110767214,
			"0.01": 4.24424337121,
			"0.011": 4.75827989974,
			"0.012": 3.03333123096,
			"0.013": 0.467529570748,
			"0.014": 0.0,
			"0.015": 0.0,
			"0.016": 0.0,
			"0.017": 0.0,
			"0.018": 0.0,
			"0.019": 0.0,
			"0.02": 0.0,
			"0.021": 0.0,
			"0.022": 0.0,
			"0.023": 0.0,
			"0.024": 0.0,
			"0.025": 0.0
		}
	}
}
