{
	 "smiles": "OC(=O)C1=C2C=NN(CC3=CC=C(Cl)C=C3)C2=NC(=C1)C1=CC=CC=C1", 
	 "Tm": 290.15, 
	 "num_atms": 40, 
	 "gaussian": { 
		 "optdone": 1, 
		 "sigma_profile": "yes", 
		 "theory": "DFT", 
		 "functional": "B3LYP", 
		 "basiset": "6-31G**", 
		 "properties": { 
			 "R2extent": 13326.5156, 
			 "electric_dipole_moment_norm": 4.65138575158, 
			 "electric_quadrupole_moment_norm": 22.6608259571, 
			 "total_energy": -1545.46661559, 
			 "HOMO_LUMO_gap": 0.15308, 
			 "cosmo_polarized_energy": -19.42, 
			 "cosmo_cavitation_energy": 47.7, 
			 "cosmo_dispersion_energy": -33.14, 
			 "cosmo_repulsion_energy": 2.48, 
			 "cosmo_total_nonelectrostatic_energy": 17.04, 
			 "SMD_solvation_energy": 6.6 
		},
		"coords": [
			{
				"x": -2.1415198638,
				"y": 1.3270447147,
				"z": -4.3106155325,
				"element": "O" 
			},
			{
				"x": -1.1879601267,
				"y": 0.4511000994,
				"z": -3.9051568858,
				"element": "C" 
			},
			{
				"x": -0.658670321,
				"y": -0.2895313567,
				"z": -4.6991337869,
				"element": "O" 
			},
			{
				"x": -0.83924816,
				"y": 0.4616288964,
				"z": -2.4453368361,
				"element": "C" 
			},
			{
				"x": -0.2546458742,
				"y": -0.6767964059,
				"z": -1.8608685548,
				"element": "C" 
			},
			{
				"x": 0.1563923896,
				"y": -1.9856084077,
				"z": -2.2379177559,
				"element": "C" 
			},
			{
				"x": 0.6388886427,
				"y": -2.6450272194,
				"z": -1.1953213994,
				"element": "N" 
			},
			{
				"x": 0.5671808851,
				"y": -1.8077544456,
				"z": -0.1231734399,
				"element": "N" 
			},
			{
				"x": 0.9591435719,
				"y": -2.2598700852,
				"z": 1.2059172179,
				"element": "C" 
			},
			{
				"x": -0.1541991679,
				"y": -2.959396914,
				"z": 1.9648294286,
				"element": "C" 
			},
			{
				"x": -0.7241715987,
				"y": -4.1384467847,
				"z": 1.4659065476,
				"element": "C" 
			},
			{
				"x": -1.7383763519,
				"y": -4.7912918016,
				"z": 2.1631405507,
				"element": "C" 
			},
			{
				"x": -2.1816468612,
				"y": -4.2597022323,
				"z": 3.3753936098,
				"element": "C" 
			},
			{
				"x": -3.457889381,
				"y": -5.0810178213,
				"z": 4.2631016535,
				"element": "Cl" 
			},
			{
				"x": -1.6304955081,
				"y": -3.0898864709,
				"z": 3.8930813318,
				"element": "C" 
			},
			{
				"x": -0.6190282497,
				"y": -2.4451940201,
				"z": 3.1786137125,
				"element": "C" 
			},
			{
				"x": 0.0250917539,
				"y": -0.6038957479,
				"z": -0.4713940647,
				"element": "C" 
			},
			{
				"x": -0.1739931529,
				"y": 0.4364071027,
				"z": 0.3398858486,
				"element": "N" 
			},
			{
				"x": -0.693828316,
				"y": 1.5274164958,
				"z": -0.2373684376,
				"element": "C" 
			},
			{
				"x": -1.0450058992,
				"y": 1.5605172624,
				"z": -1.6174919423,
				"element": "C" 
			},
			{
				"x": -0.9164646714,
				"y": 2.7084873511,
				"z": 0.6357645877,
				"element": "C" 
			},
			{
				"x": -1.0952071343,
				"y": 2.5256239713,
				"z": 2.0173744145,
				"element": "C" 
			},
			{
				"x": -1.3141475455,
				"y": 3.6157718831,
				"z": 2.855298276,
				"element": "C" 
			},
			{
				"x": -1.3507381247,
				"y": 4.9106620536,
				"z": 2.3315654566,
				"element": "C" 
			},
			{
				"x": -1.1618268843,
				"y": 5.1062934198,
				"z": 0.9626306605,
				"element": "C" 
			},
			{
				"x": -0.9472409833,
				"y": 4.0152589235,
				"z": 0.1213824049,
				"element": "C" 
			},
			{
				"x": -2.5769938877,
				"y": 1.725817415,
				"z": -3.5438880004,
				"element": "H" 
			},
			{
				"x": 0.1306760526,
				"y": -2.4413113916,
				"z": -3.2162940644,
				"element": "H" 
			},
			{
				"x": 1.8129711692,
				"y": -2.9278073999,
				"z": 1.0623812286,
				"element": "H" 
			},
			{
				"x": 1.2978247732,
				"y": -1.3788238988,
				"z": 1.7555553551,
				"element": "H" 
			},
			{
				"x": -0.3766301604,
				"y": -4.5408794176,
				"z": 0.5188328616,
				"element": "H" 
			},
			{
				"x": -2.1796665497,
				"y": -5.7031553678,
				"z": 1.7762596229,
				"element": "H" 
			},
			{
				"x": -1.9882623004,
				"y": -2.689005471,
				"z": 4.8349335799,
				"element": "H" 
			},
			{
				"x": -0.189496398,
				"y": -1.5292800981,
				"z": 3.5757804964,
				"element": "H" 
			},
			{
				"x": -1.4699901184,
				"y": 2.4749450956,
				"z": -2.0167005118,
				"element": "H" 
			},
			{
				"x": -1.0644788493,
				"y": 1.5176496882,
				"z": 2.4156605932,
				"element": "H" 
			},
			{
				"x": -1.4597348619,
				"y": 3.455607554,
				"z": 3.9197449068,
				"element": "H" 
			},
			{
				"x": -1.5206028065,
				"y": 5.760591506,
				"z": 2.9860024701,
				"element": "H" 
			},
			{
				"x": -1.1724906059,
				"y": 6.1101989157,
				"z": 0.5483806175,
				"element": "H" 
			},
			{
				"x": -0.769918524,
				"y": 4.19086041,
				"z": -0.9353562213,
				"element": "H" 
			}
		],
		 "valence_orbital": [ 
			{
				"type": "occ",
				"energy": -0.26815,
				"method": "rhf"
			},
			{
				"type": "occ",
				"energy": -0.26346,
				"method": "rhf"
			},
			{
				"type": "occ",
				"energy": -0.25338,
				"method": "rhf"
			},
			{
				"type": "occ",
				"energy": -0.2463,
				"method": "rhf"
			},
			{
				"type": "occ",
				"energy": -0.23874,
				"method": "rhf"
			},
			{
				"type": "unocc",
				"energy": -0.08566,
				"method": "rhf"
			},
			{
				"type": "unocc",
				"energy": -0.04343,
				"method": "rhf"
			},
			{
				"type": "unocc",
				"energy": -0.02319,
				"method": "rhf"
			},
			{
				"type": "unocc",
				"energy": -0.01819,
				"method": "rhf"
			},
			{
				"type": "unocc",
				"energy": -0.01358,
				"method": "rhf"
			}
		],
		"cosmo_sigma_profile": { 
			"-0.025": 0.0,
			"-0.024": 0.0,
			"-0.023": 0.0,
			"-0.022": 0.0,
			"-0.021": 0.0,
			"-0.02": 0.0,
			"-0.019": 0.597673679522,
			"-0.018": 1.27297581151,
			"-0.017": 0.886426231809,
			"-0.016": 0.826421005951,
			"-0.015": 1.03055273024,
			"-0.014": 1.41376680204,
			"-0.013": 0.944714291565,
			"-0.012": 1.65422071959,
			"-0.011": 0.973631548292,
			"-0.01": 1.29529641695,
			"-0.009": 1.93349178398,
			"-0.008": 3.48767971326,
			"-0.007": 12.9938832882,
			"-0.006": 18.3676470993,
			"-0.005": 23.1092408099,
			"-0.004": 26.0559585003,
			"-0.003": 20.98134719,
			"-0.002": 21.6482568801,
			"-0.001": 29.5340497743,
			"0.0": 31.3903328379,
			"0.001": 29.4580427242,
			"0.002": 33.6982085267,
			"0.003": 34.1940117618,
			"0.004": 30.3505783103,
			"0.005": 22.6906540449,
			"0.006": 5.69769543175,
			"0.007": 4.15412131249,
			"0.008": 5.25524750466,
			"0.009": 6.09050915763,
			"0.01": 6.37190014047,
			"0.011": 4.63773068678,
			"0.012": 2.62812351912,
			"0.013": 0.909866870321,
			"0.014": 0.127119863201,
			"0.015": 0.0,
			"0.016": 0.0,
			"0.017": 0.0,
			"0.018": 0.0,
			"0.019": 0.0,
			"0.02": 0.0,
			"0.021": 0.0,
			"0.022": 0.0,
			"0.023": 0.0,
			"0.024": 0.0,
			"0.025": 0.0
		}
	}
}
