{
	 "smiles": "NC1=C(SCCC#N)C=CC=C1", 
	 "Tm": 319.15, 
	 "num_atms": 22, 
	 "gaussian": { 
		 "optdone": 1, 
		 "sigma_profile": "yes", 
		 "theory": "DFT", 
		 "functional": "B3LYP", 
		 "basiset": "6-31G**", 
		 "properties": { 
			 "R2extent": 2611.3119, 
			 "electric_dipole_moment_norm": 3.08556676966, 
			 "electric_quadrupole_moment_norm": 14.1145816753, 
			 "total_energy": -856.661601115, 
			 "HOMO_LUMO_gap": 0.18477, 
			 "cosmo_polarized_energy": -13.45, 
			 "cosmo_cavitation_energy": 27.69, 
			 "cosmo_dispersion_energy": -19.73, 
			 "cosmo_repulsion_energy": 1.53, 
			 "cosmo_total_nonelectrostatic_energy": 9.49, 
			 "SMD_solvation_energy": 5.32 
		},
		"coords": [
			{
				"x": 1.6682839655,
				"y": -0.3121175868,
				"z": -0.7511926491,
				"element": "N" 
			},
			{
				"x": 0.7190504489,
				"y": -0.8273049422,
				"z": 0.1017085321,
				"element": "C" 
			},
			{
				"x": -0.6714854508,
				"y": -0.608224509,
				"z": -0.0876089327,
				"element": "C" 
			},
			{
				"x": -1.2586496759,
				"y": 0.406474647,
				"z": -1.4429765628,
				"element": "S" 
			},
			{
				"x": -1.4206346497,
				"y": 2.0701727744,
				"z": -0.6416070844,
				"element": "C" 
			},
			{
				"x": -0.8454728296,
				"y": 3.1915817064,
				"z": -1.528485803,
				"element": "C" 
			},
			{
				"x": 0.6044761965,
				"y": 3.0783182809,
				"z": -1.7067290566,
				"element": "C" 
			},
			{
				"x": 1.7542616967,
				"y": 2.9633308974,
				"z": -1.8196363804,
				"element": "N" 
			},
			{
				"x": -1.6011831977,
				"y": -1.2200452418,
				"z": 0.7652147859,
				"element": "C" 
			},
			{
				"x": -1.1938087839,
				"y": -2.0228902971,
				"z": 1.8261514344,
				"element": "C" 
			},
			{
				"x": 0.1760337985,
				"y": -2.2248223992,
				"z": 2.0283894943,
				"element": "C" 
			},
			{
				"x": 1.1127907618,
				"y": -1.6436740487,
				"z": 1.1852225799,
				"element": "C" 
			},
			{
				"x": 2.6115011132,
				"y": -0.242194843,
				"z": -0.4017497647,
				"element": "H" 
			},
			{
				"x": 1.3936452241,
				"y": 0.4372874517,
				"z": -1.3704646629,
				"element": "H" 
			},
			{
				"x": -2.4771994001,
				"y": 2.2796713856,
				"z": -0.4547386275,
				"element": "H" 
			},
			{
				"x": -0.9016331126,
				"y": 2.0328109669,
				"z": 0.3177303164,
				"element": "H" 
			},
			{
				"x": -1.0663025587,
				"y": 4.1677800453,
				"z": -1.0792406748,
				"element": "H" 
			},
			{
				"x": -1.3196131794,
				"y": 3.181461236,
				"z": -2.5166379612,
				"element": "H" 
			},
			{
				"x": -2.6578389061,
				"y": -1.0519360061,
				"z": 0.5799334042,
				"element": "H" 
			},
			{
				"x": -1.926502295,
				"y": -2.4854091054,
				"z": 2.4793419831,
				"element": "H" 
			},
			{
				"x": 0.5184081889,
				"y": -2.8479066167,
				"z": 2.8502500606,
				"element": "H" 
			},
			{
				"x": 2.1734726455,
				"y": -1.8205637957,
				"z": 1.3458255694,
				"element": "H" 
			}
		],
		 "valence_orbital": [ 
			{
				"type": "occ",
				"energy": -0.31851,
				"method": "rhf"
			},
			{
				"type": "occ",
				"energy": -0.30859,
				"method": "rhf"
			},
			{
				"type": "occ",
				"energy": -0.24889,
				"method": "rhf"
			},
			{
				"type": "occ",
				"energy": -0.23862,
				"method": "rhf"
			},
			{
				"type": "occ",
				"energy": -0.20063,
				"method": "rhf"
			},
			{
				"type": "unocc",
				"energy": -0.01586,
				"method": "rhf"
			},
			{
				"type": "unocc",
				"energy": 0.01358,
				"method": "rhf"
			},
			{
				"type": "unocc",
				"energy": 0.02093,
				"method": "rhf"
			},
			{
				"type": "unocc",
				"energy": 0.02812,
				"method": "rhf"
			},
			{
				"type": "unocc",
				"energy": 0.04001,
				"method": "rhf"
			}
		],
		"cosmo_sigma_profile": { 
			"-0.025": 0.0,
			"-0.024": 0.0,
			"-0.023": 0.0,
			"-0.022": 0.0,
			"-0.021": 0.0,
			"-0.02": 0.0,
			"-0.019": 0.0,
			"-0.018": 0.0,
			"-0.017": 0.0,
			"-0.016": 0.0,
			"-0.015": 0.0,
			"-0.014": 0.0,
			"-0.013": 0.666839013981,
			"-0.012": 1.13013233195,
			"-0.011": 1.65206305179,
			"-0.01": 1.3089342641,
			"-0.009": 3.75902177835,
			"-0.008": 7.68984542477,
			"-0.007": 11.3458738229,
			"-0.006": 14.4350129119,
			"-0.005": 16.6442870289,
			"-0.004": 13.4349998467,
			"-0.003": 14.3445118168,
			"-0.002": 11.4425142562,
			"-0.001": 10.2214042706,
			"0.0": 10.3833240124,
			"0.001": 11.9177158935,
			"0.002": 11.9563350851,
			"0.003": 11.9100858923,
			"0.004": 12.6055503489,
			"0.005": 14.7129480059,
			"0.006": 14.9799668228,
			"0.007": 7.35588040278,
			"0.008": 4.05586764686,
			"0.009": 4.3291868828,
			"0.01": 3.60709614722,
			"0.011": 2.67445554011,
			"0.012": 2.71879476379,
			"0.013": 1.50991025117,
			"0.014": 0.0234227614609,
			"0.015": 0.0,
			"0.016": 0.0,
			"0.017": 0.0,
			"0.018": 0.0,
			"0.019": 0.0,
			"0.02": 0.0,
			"0.021": 0.0,
			"0.022": 0.0,
			"0.023": 0.0,
			"0.024": 0.0,
			"0.025": 0.0
		}
	}
}
