{
	 "smiles": "ClS(=O)(=O)CC1=CC=C(Br)C=C1", 
	 "Tm": 392.15, 
	 "num_atms": 18, 
	 "gaussian": { 
		 "optdone": 1, 
		 "sigma_profile": "yes", 
		 "theory": "DFT", 
		 "functional": "B3LYP", 
		 "basiset": "6-31G**", 
		 "properties": { 
			 "R2extent": 7026.1751, 
			 "electric_dipole_moment_norm": 3.82692804871, 
			 "electric_quadrupole_moment_norm": 12.5031752759, 
			 "total_energy": -3850.52989534, 
			 "HOMO_LUMO_gap": 0.16961, 
			 "cosmo_polarized_energy": -12.17, 
			 "cosmo_cavitation_energy": 28.2, 
			 "cosmo_dispersion_energy": -21.2, 
			 "cosmo_repulsion_energy": 1.65, 
			 "cosmo_total_nonelectrostatic_energy": 8.66, 
			 "SMD_solvation_energy": 2.17 
		},
		"coords": [
			{
				"x": 0.5079382035,
				"y": 1.8034085483,
				"z": 2.2814059172,
				"element": "Cl" 
			},
			{
				"x": 0.5469185289,
				"y": 2.0603776747,
				"z": 0.1639107751,
				"element": "S" 
			},
			{
				"x": -0.4929768838,
				"y": 3.0268363952,
				"z": -0.169349088,
				"element": "O" 
			},
			{
				"x": 1.9376524359,
				"y": 2.2677899902,
				"z": -0.2208526137,
				"element": "O" 
			},
			{
				"x": -0.0212181724,
				"y": 0.3968732262,
				"z": -0.3996328205,
				"element": "C" 
			},
			{
				"x": 0.9062189336,
				"y": -0.7320169101,
				"z": -0.078316288,
				"element": "C" 
			},
			{
				"x": 2.0871389139,
				"y": -0.9178196908,
				"z": -0.811521389,
				"element": "C" 
			},
			{
				"x": 2.945305539,
				"y": -1.9750619869,
				"z": -0.5212578278,
				"element": "C" 
			},
			{
				"x": 2.617274408,
				"y": -2.8541996868,
				"z": 0.5114432319,
				"element": "C" 
			},
			{
				"x": 3.7834063728,
				"y": -4.3098199555,
				"z": 0.9081807195,
				"element": "Br" 
			},
			{
				"x": 1.4505998699,
				"y": -2.6885190611,
				"z": 1.2562652401,
				"element": "C" 
			},
			{
				"x": 0.6023726322,
				"y": -1.6236976643,
				"z": 0.9586167618,
				"element": "C" 
			},
			{
				"x": -1.0140513718,
				"y": 0.2864420931,
				"z": 0.0399479289,
				"element": "H" 
			},
			{
				"x": -0.1285859139,
				"y": 0.568968296,
				"z": -1.4759402544,
				"element": "H" 
			},
			{
				"x": 2.3446796894,
				"y": -0.2263072714,
				"z": -1.6077360818,
				"element": "H" 
			},
			{
				"x": 3.8573782411,
				"y": -2.1163171703,
				"z": -1.0892174564,
				"element": "H" 
			},
			{
				"x": 1.2094704695,
				"y": -3.3792193259,
				"z": 2.055746093,
				"element": "H" 
			},
			{
				"x": -0.3054218957,
				"y": -1.4891175006,
				"z": 1.539507152,
				"element": "H" 
			}
		],
		 "valence_orbital": [ 
			{
				"type": "occ",
				"energy": -0.32113,
				"method": "rhf"
			},
			{
				"type": "occ",
				"energy": -0.31832,
				"method": "rhf"
			},
			{
				"type": "occ",
				"energy": -0.30042,
				"method": "rhf"
			},
			{
				"type": "occ",
				"energy": -0.28299,
				"method": "rhf"
			},
			{
				"type": "occ",
				"energy": -0.25939,
				"method": "rhf"
			},
			{
				"type": "unocc",
				"energy": -0.08978,
				"method": "rhf"
			},
			{
				"type": "unocc",
				"energy": -0.04229,
				"method": "rhf"
			},
			{
				"type": "unocc",
				"energy": -0.03402,
				"method": "rhf"
			},
			{
				"type": "unocc",
				"energy": -0.00687,
				"method": "rhf"
			},
			{
				"type": "unocc",
				"energy": 0.045,
				"method": "rhf"
			}
		],
		"cosmo_sigma_profile": { 
			"-0.025": 0.0,
			"-0.024": 0.0,
			"-0.023": 0.0,
			"-0.022": 0.0,
			"-0.021": 0.0,
			"-0.02": 0.0,
			"-0.019": 0.0,
			"-0.018": 0.0,
			"-0.017": 0.0,
			"-0.016": 0.0,
			"-0.015": 0.0,
			"-0.014": 0.0,
			"-0.013": 0.133269668768,
			"-0.012": 1.2076989681,
			"-0.011": 3.29237752178,
			"-0.01": 5.49813057394,
			"-0.009": 4.54547928035,
			"-0.008": 5.73274728064,
			"-0.007": 10.6564269936,
			"-0.006": 10.9335003469,
			"-0.005": 8.30416440188,
			"-0.004": 9.11078727934,
			"-0.003": 9.5430153345,
			"-0.002": 8.64070673722,
			"-0.001": 11.9678192503,
			"0.0": 15.3117483278,
			"0.001": 21.1212705986,
			"0.002": 27.7508008976,
			"0.003": 25.8153150657,
			"0.004": 21.0270711789,
			"0.005": 5.57992304178,
			"0.006": 3.41586431077,
			"0.007": 4.13926295765,
			"0.008": 10.8153805701,
			"0.009": 6.97695445926,
			"0.01": 0.291320637438,
			"0.011": 0.0,
			"0.012": 0.0,
			"0.013": 0.0,
			"0.014": 0.0,
			"0.015": 0.0,
			"0.016": 0.0,
			"0.017": 0.0,
			"0.018": 0.0,
			"0.019": 0.0,
			"0.02": 0.0,
			"0.021": 0.0,
			"0.022": 0.0,
			"0.023": 0.0,
			"0.024": 0.0,
			"0.025": 0.0
		}
	}
}
