{
	 "smiles": "NCC1=NN=C2CCCCN12", 
	 "Tm": 373.15, 
	 "num_atms": 23, 
	 "gaussian": { 
		 "optdone": 1, 
		 "sigma_profile": "yes", 
		 "theory": "DFT", 
		 "functional": "B3LYP", 
		 "basiset": "6-31G**", 
		 "properties": { 
			 "R2extent": 2437.0953, 
			 "electric_dipole_moment_norm": 5.32776182088, 
			 "electric_quadrupole_moment_norm": 20.464998645, 
			 "total_energy": -492.973176448, 
			 "HOMO_LUMO_gap": 0.25679, 
			 "cosmo_polarized_energy": -18.07, 
			 "cosmo_cavitation_energy": 24.81, 
			 "cosmo_dispersion_energy": -18.66, 
			 "cosmo_repulsion_energy": 1.53, 
			 "cosmo_total_nonelectrostatic_energy": 7.68, 
			 "SMD_solvation_energy": 0.32 
		},
		"coords": [
			{
				"x": 1.2749807801,
				"y": -1.5071450384,
				"z": -0.2384472536,
				"element": "N" 
			},
			{
				"x": 0.0447873098,
				"y": -2.2258902737,
				"z": -0.6122593729,
				"element": "C" 
			},
			{
				"x": -1.046469654,
				"y": -1.263374425,
				"z": -0.953344009,
				"element": "C" 
			},
			{
				"x": -1.6251031133,
				"y": -1.1594377306,
				"z": -2.1296087606,
				"element": "N" 
			},
			{
				"x": -2.5525704274,
				"y": -0.1383124137,
				"z": -2.05411691,
				"element": "N" 
			},
			{
				"x": -2.5022447784,
				"y": 0.3452855705,
				"z": -0.8330966181,
				"element": "C" 
			},
			{
				"x": -3.3245795466,
				"y": 1.4532841775,
				"z": -0.2495972842,
				"element": "C" 
			},
			{
				"x": -2.6522212485,
				"y": 2.0225478644,
				"z": 1.0123098395,
				"element": "C" 
			},
			{
				"x": -2.2191155196,
				"y": 0.8830491757,
				"z": 1.9472912791,
				"element": "C" 
			},
			{
				"x": -1.1681322905,
				"y": -0.0161622439,
				"z": 1.2856847654,
				"element": "C" 
			},
			{
				"x": -1.5706922017,
				"y": -0.3338681893,
				"z": -0.0866954209,
				"element": "N" 
			},
			{
				"x": 1.6445147243,
				"y": -1.0314101973,
				"z": -1.0587832253,
				"element": "H" 
			},
			{
				"x": 1.9853135255,
				"y": -2.1744048511,
				"z": 0.0531390353,
				"element": "H" 
			},
			{
				"x": -0.2516027824,
				"y": -2.8414042369,
				"z": 0.2478077737,
				"element": "H" 
			},
			{
				"x": 0.1416894173,
				"y": -2.9006609794,
				"z": -1.4747401418,
				"element": "H" 
			},
			{
				"x": -4.3200523009,
				"y": 1.0669676561,
				"z": 0.0092338151,
				"element": "H" 
			},
			{
				"x": -3.4789088114,
				"y": 2.2229024559,
				"z": -1.0113192065,
				"element": "H" 
			},
			{
				"x": -3.3411089408,
				"y": 2.6977040609,
				"z": 1.5297876435,
				"element": "H" 
			},
			{
				"x": -1.7741422394,
				"y": 2.617983103,
				"z": 0.7301597982,
				"element": "H" 
			},
			{
				"x": -1.7994186305,
				"y": 1.2781081568,
				"z": 2.878311919,
				"element": "H" 
			},
			{
				"x": -3.0976501046,
				"y": 0.2844147775,
				"z": 2.2205432941,
				"element": "H" 
			},
			{
				"x": -0.1881288327,
				"y": 0.4708749536,
				"z": 1.2561300475,
				"element": "H" 
			},
			{
				"x": -1.0429443344,
				"y": -0.9497513727,
				"z": 1.8426089925,
				"element": "H" 
			}
		],
		 "valence_orbital": [ 
			{
				"type": "occ",
				"energy": -0.2873,
				"method": "rhf"
			},
			{
				"type": "occ",
				"energy": -0.27045,
				"method": "rhf"
			},
			{
				"type": "occ",
				"energy": -0.25069,
				"method": "rhf"
			},
			{
				"type": "occ",
				"energy": -0.23462,
				"method": "rhf"
			},
			{
				"type": "occ",
				"energy": -0.2335,
				"method": "rhf"
			},
			{
				"type": "unocc",
				"energy": 0.02329,
				"method": "rhf"
			},
			{
				"type": "unocc",
				"energy": 0.05089,
				"method": "rhf"
			},
			{
				"type": "unocc",
				"energy": 0.07683,
				"method": "rhf"
			},
			{
				"type": "unocc",
				"energy": 0.09244,
				"method": "rhf"
			},
			{
				"type": "unocc",
				"energy": 0.11198,
				"method": "rhf"
			}
		],
		"cosmo_sigma_profile": { 
			"-0.025": 0.0,
			"-0.024": 0.0,
			"-0.023": 0.0,
			"-0.022": 0.0,
			"-0.021": 0.0,
			"-0.02": 0.0,
			"-0.019": 0.0,
			"-0.018": 0.0,
			"-0.017": 0.0,
			"-0.016": 0.0,
			"-0.015": 0.0,
			"-0.014": 0.0,
			"-0.013": 0.0,
			"-0.012": 0.0,
			"-0.011": 0.329492538247,
			"-0.01": 2.81456193586,
			"-0.009": 2.760023262,
			"-0.008": 2.47616150735,
			"-0.007": 3.44537015806,
			"-0.006": 8.01683085698,
			"-0.005": 15.4238176257,
			"-0.004": 30.0852156773,
			"-0.003": 27.85140902,
			"-0.002": 21.6914997281,
			"-0.001": 14.5230907063,
			"0.0": 9.36132827469,
			"0.001": 4.5598789759,
			"0.002": 3.81543665943,
			"0.003": 4.00736736169,
			"0.004": 2.92923868779,
			"0.005": 3.1530860759,
			"0.006": 2.47234064699,
			"0.007": 2.85405061162,
			"0.008": 2.51709938197,
			"0.009": 2.78015178092,
			"0.01": 2.26168828693,
			"0.011": 2.90313176238,
			"0.012": 2.78985404837,
			"0.013": 3.45827251125,
			"0.014": 3.00249999087,
			"0.015": 3.97732788912,
			"0.016": 2.85674133637,
			"0.017": 2.59531158048,
			"0.018": 1.61871026655,
			"0.019": 0.140322007847,
			"0.02": 0.0,
			"0.021": 0.0,
			"0.022": 0.0,
			"0.023": 0.0,
			"0.024": 0.0,
			"0.025": 0.0
		}
	}
}
