{
	 "smiles": "COC1=C(NS(=O)(=O)C2=CC(N)=C(C=C2)N2CCOCC2)C=CC=C1", 
	 "Tm": 424.15, 
	 "num_atms": 46, 
	 "gaussian": { 
		 "optdone": 1, 
		 "sigma_profile": "yes", 
		 "theory": "DFT", 
		 "functional": "B3LYP", 
		 "basiset": "6-31G**", 
		 "properties": { 
			 "R2extent": 12823.2321, 
			 "electric_dipole_moment_norm": 3.59293123369, 
			 "electric_quadrupole_moment_norm": 29.218980627, 
			 "total_energy": -1523.69339522, 
			 "HOMO_LUMO_gap": 0.17815, 
			 "cosmo_polarized_energy": -22.57, 
			 "cosmo_cavitation_energy": 49.01, 
			 "cosmo_dispersion_energy": -34.99, 
			 "cosmo_repulsion_energy": 2.63, 
			 "cosmo_total_nonelectrostatic_energy": 16.64, 
			 "SMD_solvation_energy": 7.28 
		},
		"coords": [
			{
				"x": -1.8830861038,
				"y": 0.8453417302,
				"z": 6.0461601531,
				"element": "C" 
			},
			{
				"x": -1.290743267,
				"y": 0.6257285632,
				"z": 4.775309638,
				"element": "O" 
			},
			{
				"x": -1.5644515218,
				"y": 1.5113405387,
				"z": 3.7656172308,
				"element": "C" 
			},
			{
				"x": -0.9060976623,
				"y": 1.2396650911,
				"z": 2.5451200546,
				"element": "C" 
			},
			{
				"x": -0.0846698422,
				"y": 0.0866687092,
				"z": 2.4809287479,
				"element": "N" 
			},
			{
				"x": 1.5120738627,
				"y": 0.1207680869,
				"z": 1.8789654609,
				"element": "S" 
			},
			{
				"x": 2.0539109302,
				"y": 1.4808793529,
				"z": 1.9107448009,
				"element": "O" 
			},
			{
				"x": 2.1593634306,
				"y": -0.9845790255,
				"z": 2.5946340105,
				"element": "O" 
			},
			{
				"x": 1.3225779461,
				"y": -0.3450537062,
				"z": 0.1604418759,
				"element": "C" 
			},
			{
				"x": 0.9449262964,
				"y": -1.6524229431,
				"z": -0.1456416968,
				"element": "C" 
			},
			{
				"x": 0.8292691719,
				"y": -2.0488156276,
				"z": -1.4814232465,
				"element": "C" 
			},
			{
				"x": 0.4442480324,
				"y": -3.3397287841,
				"z": -1.8319741245,
				"element": "N" 
			},
			{
				"x": 1.0919022773,
				"y": -1.10414326,
				"z": -2.5133433671,
				"element": "C" 
			},
			{
				"x": 1.4754177636,
				"y": 0.1948091627,
				"z": -2.1670123003,
				"element": "C" 
			},
			{
				"x": 1.6073863077,
				"y": 0.5880390979,
				"z": -0.8334458976,
				"element": "C" 
			},
			{
				"x": 0.9459502048,
				"y": -1.5577383281,
				"z": -3.8548061989,
				"element": "N" 
			},
			{
				"x": 1.8540370635,
				"y": -1.0197217808,
				"z": -4.8868883196,
				"element": "C" 
			},
			{
				"x": 1.1167381863,
				"y": -0.1657940631,
				"z": -5.9168648565,
				"element": "C" 
			},
			{
				"x": 0.0964910858,
				"y": -0.9019655242,
				"z": -6.5874381924,
				"element": "O" 
			},
			{
				"x": -0.5044182165,
				"y": -1.92995644,
				"z": -5.8004628132,
				"element": "C" 
			},
			{
				"x": -0.4623080592,
				"y": -1.6285838785,
				"z": -4.3084593069,
				"element": "C" 
			},
			{
				"x": -1.1286000039,
				"y": 2.0731904339,
				"z": 1.4503568535,
				"element": "C" 
			},
			{
				"x": -1.9766708636,
				"y": 3.1776879814,
				"z": 1.5626742563,
				"element": "C" 
			},
			{
				"x": -2.6246610872,
				"y": 3.4397899882,
				"z": 2.7659969833,
				"element": "C" 
			},
			{
				"x": -2.4254718539,
				"y": 2.6029607482,
				"z": 3.8694899666,
				"element": "C" 
			},
			{
				"x": -1.5139287466,
				"y": 0.0485607997,
				"z": 6.6933205639,
				"element": "H" 
			},
			{
				"x": -2.9778162504,
				"y": 0.7919669528,
				"z": 5.9935664857,
				"element": "H" 
			},
			{
				"x": -1.5884166105,
				"y": 1.8165501047,
				"z": 6.4624815122,
				"element": "H" 
			},
			{
				"x": -0.0655134127,
				"y": -0.4297758135,
				"z": 3.3571560842,
				"element": "H" 
			},
			{
				"x": 0.768752732,
				"y": -2.3676491211,
				"z": 0.651572557,
				"element": "H" 
			},
			{
				"x": 0.8022000362,
				"y": -3.6081921356,
				"z": -2.7426688135,
				"element": "H" 
			},
			{
				"x": 0.6060949627,
				"y": -4.03975714,
				"z": -1.1204654233,
				"element": "H" 
			},
			{
				"x": 1.674165198,
				"y": 0.9186839386,
				"z": -2.9512544904,
				"element": "H" 
			},
			{
				"x": 1.91966362,
				"y": 1.5902726811,
				"z": -0.565358721,
				"element": "H" 
			},
			{
				"x": 2.6523573154,
				"y": -0.4412926548,
				"z": -4.4153938223,
				"element": "H" 
			},
			{
				"x": 2.3365513666,
				"y": -1.8564455642,
				"z": -5.4103968144,
				"element": "H" 
			},
			{
				"x": 1.8126136223,
				"y": 0.1830265824,
				"z": -6.6876642284,
				"element": "H" 
			},
			{
				"x": 0.6863625026,
				"y": 0.7240615981,
				"z": -5.4302948641,
				"element": "H" 
			},
			{
				"x": -1.543810315,
				"y": -2.0183532483,
				"z": -6.1331509026,
				"element": "H" 
			},
			{
				"x": -0.0076761461,
				"y": -2.8940940701,
				"z": -5.9936755483,
				"element": "H" 
			},
			{
				"x": -0.9851957327,
				"y": -2.4117078636,
				"z": -3.7491553043,
				"element": "H" 
			},
			{
				"x": -0.9915148145,
				"y": -0.6814283889,
				"z": -4.1163377651,
				"element": "H" 
			},
			{
				"x": -0.6372226686,
				"y": 1.8552701285,
				"z": 0.5088717973,
				"element": "H" 
			},
			{
				"x": -2.1322214959,
				"y": 3.8227788441,
				"z": 0.7037017267,
				"element": "H" 
			},
			{
				"x": -3.2910179801,
				"y": 4.2920220825,
				"z": 2.8576265809,
				"element": "H" 
			},
			{
				"x": -2.9342412605,
				"y": 2.8126361645,
				"z": 4.8030396782,
				"element": "H" 
			}
		],
		 "valence_orbital": [ 
			{
				"type": "occ",
				"energy": -0.25431,
				"method": "rhf"
			},
			{
				"type": "occ",
				"energy": -0.23719,
				"method": "rhf"
			},
			{
				"type": "occ",
				"energy": -0.23103,
				"method": "rhf"
			},
			{
				"type": "occ",
				"energy": -0.21047,
				"method": "rhf"
			},
			{
				"type": "occ",
				"energy": -0.20698,
				"method": "rhf"
			},
			{
				"type": "unocc",
				"energy": -0.02883,
				"method": "rhf"
			},
			{
				"type": "unocc",
				"energy": -0.00303,
				"method": "rhf"
			},
			{
				"type": "unocc",
				"energy": 0.00019,
				"method": "rhf"
			},
			{
				"type": "unocc",
				"energy": 0.01258,
				"method": "rhf"
			},
			{
				"type": "unocc",
				"energy": 0.06449,
				"method": "rhf"
			}
		],
		"cosmo_sigma_profile": { 
			"-0.025": 0.0,
			"-0.024": 0.0,
			"-0.023": 0.0,
			"-0.022": 0.0,
			"-0.021": 0.0,
			"-0.02": 0.0,
			"-0.019": 0.0,
			"-0.018": 0.0,
			"-0.017": 0.0,
			"-0.016": 0.0,
			"-0.015": 0.0,
			"-0.014": 0.0,
			"-0.013": 0.793211378732,
			"-0.012": 1.84358309439,
			"-0.011": 1.60023421622,
			"-0.01": 2.64360743635,
			"-0.009": 3.25292160787,
			"-0.008": 3.80289939329,
			"-0.007": 6.32877042581,
			"-0.006": 18.2602296221,
			"-0.005": 32.1873272386,
			"-0.004": 41.7641449788,
			"-0.003": 42.9775139906,
			"-0.002": 29.2757873554,
			"-0.001": 22.5006301801,
			"0.0": 20.6557385388,
			"0.001": 16.7817249486,
			"0.002": 23.7608038254,
			"0.003": 23.1714867485,
			"0.004": 22.1183883782,
			"0.005": 16.6979015373,
			"0.006": 11.0744094696,
			"0.007": 7.02707077293,
			"0.008": 6.07487477937,
			"0.009": 4.38893390926,
			"0.01": 10.2383675154,
			"0.011": 11.5374078011,
			"0.012": 4.47152682008,
			"0.013": 1.55198854071,
			"0.014": 0.951519225619,
			"0.015": 0.0,
			"0.016": 0.0,
			"0.017": 0.0,
			"0.018": 0.0,
			"0.019": 0.0,
			"0.02": 0.0,
			"0.021": 0.0,
			"0.022": 0.0,
			"0.023": 0.0,
			"0.024": 0.0,
			"0.025": 0.0
		}
	}
}
