{
	 "smiles": "CCCCC1=C(C(C)=O)C(O)=C2C=CC=CC2=C1", 
	 "Tm": 335.15, 
	 "num_atms": 36, 
	 "gaussian": { 
		 "optdone": 1, 
		 "sigma_profile": "yes", 
		 "theory": "DFT", 
		 "functional": "B3LYP", 
		 "basiset": "6-31G**", 
		 "properties": { 
			 "R2extent": 5214.3143, 
			 "electric_dipole_moment_norm": 2.829906949, 
			 "electric_quadrupole_moment_norm": 9.0031990931, 
			 "total_energy": -771.03527497, 
			 "HOMO_LUMO_gap": 0.14304, 
			 "cosmo_polarized_energy": -7.82, 
			 "cosmo_cavitation_energy": 36.99, 
			 "cosmo_dispersion_energy": -26.59, 
			 "cosmo_repulsion_energy": 2.04, 
			 "cosmo_total_nonelectrostatic_energy": 12.44, 
			 "SMD_solvation_energy": 6.46 
		},
		"coords": [
			{
				"x": 3.0925970317,
				"y": -1.3964383717,
				"z": -2.4896970596,
				"element": "C" 
			},
			{
				"x": 1.6408018366,
				"y": -0.9209057027,
				"z": -2.3749133021,
				"element": "C" 
			},
			{
				"x": 1.5287930739,
				"y": 0.5791979888,
				"z": -2.0742334469,
				"element": "C" 
			},
			{
				"x": 0.0746858424,
				"y": 1.0983036948,
				"z": -1.9635459505,
				"element": "C" 
			},
			{
				"x": -0.6889866847,
				"y": 0.560065274,
				"z": -0.7643534721,
				"element": "C" 
			},
			{
				"x": -0.4194434371,
				"y": 0.9467289203,
				"z": 0.6115482548,
				"element": "C" 
			},
			{
				"x": 0.3949521347,
				"y": 2.0936311406,
				"z": 1.047369645,
				"element": "C" 
			},
			{
				"x": 0.8358550423,
				"y": 3.2222645405,
				"z": 0.1343374717,
				"element": "C" 
			},
			{
				"x": 0.7013403682,
				"y": 2.2339016517,
				"z": 2.2526823773,
				"element": "O" 
			},
			{
				"x": -1.048693648,
				"y": 0.207229736,
				"z": 1.6513893939,
				"element": "C" 
			},
			{
				"x": -0.8058955519,
				"y": 0.4358429662,
				"z": 2.9371608551,
				"element": "O" 
			},
			{
				"x": -2.0177646881,
				"y": -0.8140984581,
				"z": 1.3693362852,
				"element": "C" 
			},
			{
				"x": -2.6792959829,
				"y": -1.5097655658,
				"z": 2.4099297149,
				"element": "C" 
			},
			{
				"x": -3.6142143775,
				"y": -2.4799745008,
				"z": 2.1112800664,
				"element": "C" 
			},
			{
				"x": -3.9115789645,
				"y": -2.7865890816,
				"z": 0.7643198984,
				"element": "C" 
			},
			{
				"x": -3.27292799,
				"y": -2.1216836237,
				"z": -0.2629427211,
				"element": "C" 
			},
			{
				"x": -2.3111594766,
				"y": -1.1184537753,
				"z": 0.0135600202,
				"element": "C" 
			},
			{
				"x": -1.6110483203,
				"y": -0.4272183197,
				"z": -1.0164426102,
				"element": "C" 
			},
			{
				"x": 3.6412698998,
				"y": -1.2231161525,
				"z": -1.5568809012,
				"element": "H" 
			},
			{
				"x": 3.1446688455,
				"y": -2.4675424757,
				"z": -2.7101453873,
				"element": "H" 
			},
			{
				"x": 3.6244131611,
				"y": -0.8664575618,
				"z": -3.2884276991,
				"element": "H" 
			},
			{
				"x": 1.1275042099,
				"y": -1.4903995741,
				"z": -1.5912845799,
				"element": "H" 
			},
			{
				"x": 1.1075283758,
				"y": -1.1404831516,
				"z": -3.3102437207,
				"element": "H" 
			},
			{
				"x": 2.0352690402,
				"y": 1.1427034288,
				"z": -2.8697898113,
				"element": "H" 
			},
			{
				"x": 2.0758784177,
				"y": 0.7965367741,
				"z": -1.1476606488,
				"element": "H" 
			},
			{
				"x": -0.4655041084,
				"y": 0.7909162671,
				"z": -2.8660384731,
				"element": "H" 
			},
			{
				"x": 0.0793494851,
				"y": 2.1892853639,
				"z": -1.9848806565,
				"element": "H" 
			},
			{
				"x": 1.6120580021,
				"y": 2.906436711,
				"z": -0.5666382101,
				"element": "H" 
			},
			{
				"x": 1.2407307414,
				"y": 4.0089190636,
				"z": 0.7722152084,
				"element": "H" 
			},
			{
				"x": -0.0023426531,
				"y": 3.6196547973,
				"z": -0.444744997,
				"element": "H" 
			},
			{
				"x": -0.1084015452,
				"y": 1.1682931402,
				"z": 2.952989279,
				"element": "H" 
			},
			{
				"x": -2.4376296419,
				"y": -1.2618173081,
				"z": 3.4370134693,
				"element": "H" 
			},
			{
				"x": -4.1229007819,
				"y": -3.0105840604,
				"z": 2.9104975498,
				"element": "H" 
			},
			{
				"x": -4.6477386837,
				"y": -3.5528305784,
				"z": 0.5376681227,
				"element": "H" 
			},
			{
				"x": -3.4990863246,
				"y": -2.3605109103,
				"z": -1.2987586694,
				"element": "H" 
			},
			{
				"x": -1.8041826478,
				"y": -0.7192422867,
				"z": -2.0450752953,
				"element": "H" 
			}
		],
		 "valence_orbital": [ 
			{
				"type": "occ",
				"energy": -0.30667,
				"method": "rhf"
			},
			{
				"type": "occ",
				"energy": -0.26493,
				"method": "rhf"
			},
			{
				"type": "occ",
				"energy": -0.26076,
				"method": "rhf"
			},
			{
				"type": "occ",
				"energy": -0.24755,
				"method": "rhf"
			},
			{
				"type": "occ",
				"energy": -0.20545,
				"method": "rhf"
			},
			{
				"type": "unocc",
				"energy": -0.06241,
				"method": "rhf"
			},
			{
				"type": "unocc",
				"energy": -0.02968,
				"method": "rhf"
			},
			{
				"type": "unocc",
				"energy": 0.01399,
				"method": "rhf"
			},
			{
				"type": "unocc",
				"energy": 0.04038,
				"method": "rhf"
			},
			{
				"type": "unocc",
				"energy": 0.08596,
				"method": "rhf"
			}
		],
		"cosmo_sigma_profile": { 
			"-0.025": 0.0,
			"-0.024": 0.0,
			"-0.023": 0.0,
			"-0.022": 0.0,
			"-0.021": 0.0,
			"-0.02": 0.0,
			"-0.019": 0.0,
			"-0.018": 0.0,
			"-0.017": 0.0,
			"-0.016": 0.0,
			"-0.015": 0.0,
			"-0.014": 0.0,
			"-0.013": 0.0,
			"-0.012": 0.0,
			"-0.011": 0.0,
			"-0.01": 0.0,
			"-0.009": 0.0,
			"-0.008": 0.0,
			"-0.007": 0.616124024656,
			"-0.006": 9.8747851657,
			"-0.005": 18.4359268604,
			"-0.004": 20.7263687593,
			"-0.003": 23.1332737025,
			"-0.002": 34.1155620557,
			"-0.001": 32.9766784061,
			"0.0": 31.9479990533,
			"0.001": 30.3911497825,
			"0.002": 24.7108227084,
			"0.003": 19.5512941733,
			"0.004": 18.6180273046,
			"0.005": 9.68954905537,
			"0.006": 3.39015888777,
			"0.007": 3.11582086891,
			"0.008": 2.5173421188,
			"0.009": 3.69136114371,
			"0.01": 1.71590835972,
			"0.011": 1.36542680415,
			"0.012": 1.46289189167,
			"0.013": 0.152868952302,
			"0.014": 0.0,
			"0.015": 0.0,
			"0.016": 0.0,
			"0.017": 0.0,
			"0.018": 0.0,
			"0.019": 0.0,
			"0.02": 0.0,
			"0.021": 0.0,
			"0.022": 0.0,
			"0.023": 0.0,
			"0.024": 0.0,
			"0.025": 0.0
		}
	}
}
