{
	 "smiles": "OC1=C(C=CC=C1Br)[N+]([O-])=O", 
	 "Tm": 341.15, 
	 "num_atms": 15, 
	 "gaussian": { 
		 "optdone": 1, 
		 "sigma_profile": "yes", 
		 "theory": "DFT", 
		 "functional": "B3LYP", 
		 "basiset": "6-31G**", 
		 "properties": { 
			 "R2extent": 3602.108, 
			 "electric_dipole_moment_norm": 3.08847440333, 
			 "electric_quadrupole_moment_norm": 6.83218579446, 
			 "total_energy": -3082.77508927, 
			 "HOMO_LUMO_gap": 0.14174, 
			 "cosmo_polarized_energy": -8.08, 
			 "cosmo_cavitation_energy": 22.17, 
			 "cosmo_dispersion_energy": -17.33, 
			 "cosmo_repulsion_energy": 1.38, 
			 "cosmo_total_nonelectrostatic_energy": 6.22, 
			 "SMD_solvation_energy": 5.21 
		},
		"coords": [
			{
				"x": -0.7776034831,
				"y": -0.3390997976,
				"z": -2.8976700235,
				"element": "O" 
			},
			{
				"x": -0.8723919262,
				"y": -0.1283274237,
				"z": -1.5886965756,
				"element": "C" 
			},
			{
				"x": -0.5835799256,
				"y": -1.1086031272,
				"z": -0.6038962966,
				"element": "C" 
			},
			{
				"x": -0.6975570347,
				"y": -0.8413222377,
				"z": 0.7678400948,
				"element": "C" 
			},
			{
				"x": -1.1029573257,
				"y": 0.4119911805,
				"z": 1.1875420236,
				"element": "C" 
			},
			{
				"x": -1.3957130859,
				"y": 1.4023697849,
				"z": 0.2371313243,
				"element": "C" 
			},
			{
				"x": -1.2833574483,
				"y": 1.1394051749,
				"z": -1.1189794747,
				"element": "C" 
			},
			{
				"x": -1.6848099442,
				"y": 2.496370859,
				"z": -2.3855778297,
				"element": "Br" 
			},
			{
				"x": -0.1554766166,
				"y": -2.4354458552,
				"z": -1.0012637154,
				"element": "N" 
			},
			{
				"x": -0.0505216575,
				"y": -2.6843601653,
				"z": -2.2254402668,
				"element": "O" 
			},
			{
				"x": 0.0889161654,
				"y": -3.266891767,
				"z": -0.1367508026,
				"element": "O" 
			},
			{
				"x": -0.478741594,
				"y": -1.277045927,
				"z": -3.0035684747,
				"element": "H" 
			},
			{
				"x": -0.4619032328,
				"y": -1.6338569587,
				"z": 1.4664088774,
				"element": "H" 
			},
			{
				"x": -1.1955388448,
				"y": 0.632868748,
				"z": 2.2449576523,
				"element": "H" 
			},
			{
				"x": -1.7144640459,
				"y": 2.3887475121,
				"z": 0.5553634872,
				"element": "H" 
			}
		],
		 "valence_orbital": [ 
			{
				"type": "occ",
				"energy": -0.32873,
				"method": "rhf"
			},
			{
				"type": "occ",
				"energy": -0.3159,
				"method": "rhf"
			},
			{
				"type": "occ",
				"energy": -0.29646,
				"method": "rhf"
			},
			{
				"type": "occ",
				"energy": -0.28083,
				"method": "rhf"
			},
			{
				"type": "occ",
				"energy": -0.25053,
				"method": "rhf"
			},
			{
				"type": "unocc",
				"energy": -0.10879,
				"method": "rhf"
			},
			{
				"type": "unocc",
				"energy": -0.02908,
				"method": "rhf"
			},
			{
				"type": "unocc",
				"energy": -0.01371,
				"method": "rhf"
			},
			{
				"type": "unocc",
				"energy": -0.00857,
				"method": "rhf"
			},
			{
				"type": "unocc",
				"energy": 0.08909,
				"method": "rhf"
			}
		],
		"cosmo_sigma_profile": { 
			"-0.025": 0.0,
			"-0.024": 0.0,
			"-0.023": 0.0,
			"-0.022": 0.0,
			"-0.021": 0.0,
			"-0.02": 0.0,
			"-0.019": 0.0,
			"-0.018": 0.0,
			"-0.017": 0.0,
			"-0.016": 0.0,
			"-0.015": 0.0,
			"-0.014": 0.0,
			"-0.013": 0.0,
			"-0.012": 0.0,
			"-0.011": 0.207033627451,
			"-0.01": 0.498775920131,
			"-0.009": 1.09599444461,
			"-0.008": 7.68737949494,
			"-0.007": 10.2418580962,
			"-0.006": 9.34696746973,
			"-0.005": 8.19652257289,
			"-0.004": 9.31107911621,
			"-0.003": 10.2372674437,
			"-0.002": 13.3521978303,
			"-0.001": 14.0428927796,
			"0.0": 15.6368293212,
			"0.001": 14.6310078404,
			"0.002": 12.2218872544,
			"0.003": 10.0860908379,
			"0.004": 11.7678603444,
			"0.005": 6.09419082455,
			"0.006": 6.4859619817,
			"0.007": 8.24972099145,
			"0.008": 6.18005112683,
			"0.009": 5.11574995416,
			"0.01": 1.54839099721,
			"0.011": 0.0,
			"0.012": 0.0,
			"0.013": 0.0,
			"0.014": 0.0,
			"0.015": 0.0,
			"0.016": 0.0,
			"0.017": 0.0,
			"0.018": 0.0,
			"0.019": 0.0,
			"0.02": 0.0,
			"0.021": 0.0,
			"0.022": 0.0,
			"0.023": 0.0,
			"0.024": 0.0,
			"0.025": 0.0
		}
	}
}
