{
	 "smiles": "CC(C)(C)OC(=O)NC1=CNN=C1", 
	 "Tm": 453.15, 
	 "num_atms": 26, 
	 "gaussian": { 
		 "optdone": 1, 
		 "sigma_profile": "yes", 
		 "theory": "DFT", 
		 "functional": "B3LYP", 
		 "basiset": "6-31G**", 
		 "properties": { 
			 "R2extent": 3774.1917, 
			 "electric_dipole_moment_norm": 1.77074301354, 
			 "electric_quadrupole_moment_norm": 22.1378238779, 
			 "total_energy": -627.39429034, 
			 "HOMO_LUMO_gap": 0.22817, 
			 "cosmo_polarized_energy": -15.67, 
			 "cosmo_cavitation_energy": 29.15, 
			 "cosmo_dispersion_energy": -20.74, 
			 "cosmo_repulsion_energy": 1.64, 
			 "cosmo_total_nonelectrostatic_energy": 10.06, 
			 "SMD_solvation_energy": 5.69 
		},
		"coords": [
			{
				"x": -0.1908487224,
				"y": 0.1954626995,
				"z": 1.8617543966,
				"element": "C" 
			},
			{
				"x": 0.9202586639,
				"y": 0.8617612023,
				"z": 1.0442664312,
				"element": "C" 
			},
			{
				"x": 0.4977148634,
				"y": 2.2617616106,
				"z": 0.5921404682,
				"element": "C" 
			},
			{
				"x": 2.2515173661,
				"y": 0.9128661641,
				"z": 1.8005504038,
				"element": "C" 
			},
			{
				"x": 1.0970631963,
				"y": 0.1502992493,
				"z": -0.2369409676,
				"element": "O" 
			},
			{
				"x": 1.4760903398,
				"y": -1.1421413429,
				"z": -0.256539218,
				"element": "C" 
			},
			{
				"x": 1.7086813843,
				"y": -1.8503595718,
				"z": 0.7105343426,
				"element": "O" 
			},
			{
				"x": 1.583988667,
				"y": -1.6235032016,
				"z": -1.5415954091,
				"element": "N" 
			},
			{
				"x": 1.3685198107,
				"y": -0.9996334994,
				"z": -2.7786011984,
				"element": "C" 
			},
			{
				"x": 1.5186466126,
				"y": -1.6245896604,
				"z": -4.0071420704,
				"element": "C" 
			},
			{
				"x": 1.2181061783,
				"y": -0.6821763365,
				"z": -4.9437000976,
				"element": "N" 
			},
			{
				"x": 0.8846696735,
				"y": 0.5057235687,
				"z": -4.4146137819,
				"element": "N" 
			},
			{
				"x": 0.9722767014,
				"y": 0.3261718408,
				"z": -3.0962086464,
				"element": "C" 
			},
			{
				"x": 0.0984494274,
				"y": -0.8098724531,
				"z": 2.1681621214,
				"element": "H" 
			},
			{
				"x": -0.3952144081,
				"y": 0.7935302118,
				"z": 2.7557489979,
				"element": "H" 
			},
			{
				"x": -1.1124193402,
				"y": 0.1376338789,
				"z": 1.2739884142,
				"element": "H" 
			},
			{
				"x": 0.3316318444,
				"y": 2.9017106148,
				"z": 1.4637576168,
				"element": "H" 
			},
			{
				"x": -0.4302138327,
				"y": 2.2191567312,
				"z": 0.0142413,
				"element": "H" 
			},
			{
				"x": 1.2735942978,
				"y": 2.7196114865,
				"z": -0.0285229662,
				"element": "H" 
			},
			{
				"x": 3.0300484803,
				"y": 1.353545255,
				"z": 1.169844319,
				"element": "H" 
			},
			{
				"x": 2.1414354527,
				"y": 1.5392832922,
				"z": 2.6917065265,
				"element": "H" 
			},
			{
				"x": 2.5655748207,
				"y": -0.0849757394,
				"z": 2.1070277233,
				"element": "H" 
			},
			{
				"x": 1.8677077401,
				"y": -2.5918320499,
				"z": -1.5535304654,
				"element": "H" 
			},
			{
				"x": 1.8064066538,
				"y": -2.632195297,
				"z": -4.2686234541,
				"element": "H" 
			},
			{
				"x": 1.2232238328,
				"y": -0.7905860989,
				"z": -5.9452136389,
				"element": "H" 
			},
			{
				"x": 0.7539902961,
				"y": 1.1341474454,
				"z": -2.4185911477,
				"element": "H" 
			}
		],
		 "valence_orbital": [ 
			{
				"type": "occ",
				"energy": -0.2905,
				"method": "rhf"
			},
			{
				"type": "occ",
				"energy": -0.28849,
				"method": "rhf"
			},
			{
				"type": "occ",
				"energy": -0.26647,
				"method": "rhf"
			},
			{
				"type": "occ",
				"energy": -0.25405,
				"method": "rhf"
			},
			{
				"type": "occ",
				"energy": -0.21034,
				"method": "rhf"
			},
			{
				"type": "unocc",
				"energy": 0.01783,
				"method": "rhf"
			},
			{
				"type": "unocc",
				"energy": 0.03977,
				"method": "rhf"
			},
			{
				"type": "unocc",
				"energy": 0.07524,
				"method": "rhf"
			},
			{
				"type": "unocc",
				"energy": 0.0801,
				"method": "rhf"
			},
			{
				"type": "unocc",
				"energy": 0.08878,
				"method": "rhf"
			}
		],
		"cosmo_sigma_profile": { 
			"-0.025": 0.0,
			"-0.024": 0.0,
			"-0.023": 0.0,
			"-0.022": 0.0,
			"-0.021": 0.0,
			"-0.02": 0.0,
			"-0.019": 0.0,
			"-0.018": 0.0,
			"-0.017": 0.523168826772,
			"-0.016": 1.77906743179,
			"-0.015": 1.93258772395,
			"-0.014": 2.33230424843,
			"-0.013": 2.12254292625,
			"-0.012": 2.02500851572,
			"-0.011": 2.36419085056,
			"-0.01": 2.33187706831,
			"-0.009": 4.5654760686,
			"-0.008": 2.88083477779,
			"-0.007": 2.81432301582,
			"-0.006": 2.90713058598,
			"-0.005": 3.58588296062,
			"-0.004": 14.5415005159,
			"-0.003": 19.173671063,
			"-0.002": 18.9273119103,
			"-0.001": 22.3721534663,
			"0.0": 26.837528893,
			"0.001": 21.6428658633,
			"0.002": 9.89438159064,
			"0.003": 10.2823401885,
			"0.004": 13.4281039832,
			"0.005": 8.40343211767,
			"0.006": 4.52951683247,
			"0.007": 2.74204616515,
			"0.008": 3.40588322613,
			"0.009": 3.24752752271,
			"0.01": 3.17660940302,
			"0.011": 2.0734693224,
			"0.012": 3.08297548807,
			"0.013": 4.98313965508,
			"0.014": 2.42434909203,
			"0.015": 1.12473398149,
			"0.016": 0.799364049778,
			"0.017": 0.0908172042449,
			"0.018": 0.0,
			"0.019": 0.0,
			"0.02": 0.0,
			"0.021": 0.0,
			"0.022": 0.0,
			"0.023": 0.0,
			"0.024": 0.0,
			"0.025": 0.0
		}
	}
}
