{
	 "smiles": "CC1(C)O[C@@H]2CO[C@@]3(CO)OC(C)(C)O[C@H]3[C@@H]2O1", 
	 "Tm": 369.65, 
	 "num_atms": 38, 
	 "gaussian": { 
		 "optdone": 1, 
		 "sigma_profile": "yes", 
		 "theory": "DFT", 
		 "functional": "B3LYP", 
		 "basiset": "6-31G**", 
		 "properties": { 
			 "R2extent": 4810.2669, 
			 "electric_dipole_moment_norm": 1.99934387738, 
			 "electric_quadrupole_moment_norm": 9.50229215979, 
			 "total_energy": -920.653246706, 
			 "HOMO_LUMO_gap": 0.31535, 
			 "cosmo_polarized_energy": -13.09, 
			 "cosmo_cavitation_energy": 37.36, 
			 "cosmo_dispersion_energy": -26.03, 
			 "cosmo_repulsion_energy": 2.01, 
			 "cosmo_total_nonelectrostatic_energy": 13.33, 
			 "SMD_solvation_energy": 5.95 
		},
		"coords": [
			{
				"x": -0.6545239376,
				"y": -1.9186250941,
				"z": 2.7321467455,
				"element": "C" 
			},
			{
				"x": -0.5693695394,
				"y": -2.1712124728,
				"z": 1.2325374748,
				"element": "C" 
			},
			{
				"x": -1.4460846711,
				"y": -3.3409253382,
				"z": 0.7822162385,
				"element": "C" 
			},
			{
				"x": 0.7936022306,
				"y": -2.4476867135,
				"z": 0.8488607799,
				"element": "O" 
			},
			{
				"x": 1.2083771859,
				"y": -1.4763538607,
				"z": -0.1114474492,
				"element": "C" 
			},
			{
				"x": 2.0673336869,
				"y": -0.3916556135,
				"z": 0.5537449217,
				"element": "C" 
			},
			{
				"x": 2.2008564268,
				"y": 0.7400691114,
				"z": -0.2984280768,
				"element": "O" 
			},
			{
				"x": 0.9855134133,
				"y": 1.4454971257,
				"z": -0.5327921725,
				"element": "C" 
			},
			{
				"x": 0.5335099656,
				"y": 2.2670935692,
				"z": 0.6804197704,
				"element": "C" 
			},
			{
				"x": 1.5546615722,
				"y": 3.1072559505,
				"z": 1.1680621938,
				"element": "O" 
			},
			{
				"x": 1.2448138101,
				"y": 2.3465952061,
				"z": -1.5794790465,
				"element": "O" 
			},
			{
				"x": 0.9901039671,
				"y": 1.6954416757,
				"z": -2.8406674352,
				"element": "C" 
			},
			{
				"x": 2.2993860109,
				"y": 1.3234884975,
				"z": -3.526520179,
				"element": "C" 
			},
			{
				"x": 0.1070506306,
				"y": 2.6210063748,
				"z": -3.6710824567,
				"element": "C" 
			},
			{
				"x": 0.2858936205,
				"y": 0.4902516455,
				"z": -2.5182846353,
				"element": "O" 
			},
			{
				"x": -0.0876019079,
				"y": 0.5254915557,
				"z": -1.1440799189,
				"element": "C" 
			},
			{
				"x": -0.1212767626,
				"y": -0.9080393998,
				"z": -0.6242462318,
				"element": "C" 
			},
			{
				"x": -0.9322259104,
				"y": -0.9683473918,
				"z": 0.5490140646,
				"element": "O" 
			},
			{
				"x": -0.3343688488,
				"y": -2.8090099122,
				"z": 3.2794342127,
				"element": "H" 
			},
			{
				"x": -1.6826977913,
				"y": -1.6813684307,
				"z": 3.0193177737,
				"element": "H" 
			},
			{
				"x": -0.0089229595,
				"y": -1.0834849698,
				"z": 3.0122084435,
				"element": "H" 
			},
			{
				"x": -2.4875638659,
				"y": -3.1705509616,
				"z": 1.0692979588,
				"element": "H" 
			},
			{
				"x": -1.3955790289,
				"y": -3.463944638,
				"z": -0.3026773175,
				"element": "H" 
			},
			{
				"x": -1.0986208927,
				"y": -4.2684109353,
				"z": 1.2454946014,
				"element": "H" 
			},
			{
				"x": 1.7712734756,
				"y": -1.9775394488,
				"z": -0.9044201266,
				"element": "H" 
			},
			{
				"x": 3.0795786432,
				"y": -0.7579856296,
				"z": 0.7404842789,
				"element": "H" 
			},
			{
				"x": 1.6294274382,
				"y": -0.1168884529,
				"z": 1.5210944239,
				"element": "H" 
			},
			{
				"x": 0.2378172874,
				"y": 1.6037727682,
				"z": 1.4981072998,
				"element": "H" 
			},
			{
				"x": -0.3619107089,
				"y": 2.831090045,
				"z": 0.3756265042,
				"element": "H" 
			},
			{
				"x": 1.9328917125,
				"y": 3.5620557586,
				"z": 0.4026038425,
				"element": "H" 
			},
			{
				"x": 2.8644024586,
				"y": 2.2254833516,
				"z": -3.7775407557,
				"element": "H" 
			},
			{
				"x": 2.0971486935,
				"y": 0.7686686525,
				"z": -4.4473131504,
				"element": "H" 
			},
			{
				"x": 2.8948558018,
				"y": 0.70543321,
				"z": -2.8532791309,
				"element": "H" 
			},
			{
				"x": -0.8294011851,
				"y": 2.819854285,
				"z": -3.1436382713,
				"element": "H" 
			},
			{
				"x": -0.121491354,
				"y": 2.158337638,
				"z": -4.6348846081,
				"element": "H" 
			},
			{
				"x": 0.6158941225,
				"y": 3.5724838511,
				"z": -3.8496311439,
				"element": "H" 
			},
			{
				"x": -1.0866356305,
				"y": 0.9683689738,
				"z": -1.0147998177,
				"element": "H" 
			},
			{
				"x": -0.5334171591,
				"y": -1.5453099826,
				"z": -1.4191596047,
				"element": "H" 
			}
		],
		 "valence_orbital": [ 
			{
				"type": "occ",
				"energy": -0.28689,
				"method": "rhf"
			},
			{
				"type": "occ",
				"energy": -0.27435,
				"method": "rhf"
			},
			{
				"type": "occ",
				"energy": -0.26197,
				"method": "rhf"
			},
			{
				"type": "occ",
				"energy": -0.26044,
				"method": "rhf"
			},
			{
				"type": "occ",
				"energy": -0.24712,
				"method": "rhf"
			},
			{
				"type": "unocc",
				"energy": 0.06823,
				"method": "rhf"
			},
			{
				"type": "unocc",
				"energy": 0.07187,
				"method": "rhf"
			},
			{
				"type": "unocc",
				"energy": 0.08764,
				"method": "rhf"
			},
			{
				"type": "unocc",
				"energy": 0.09255,
				"method": "rhf"
			},
			{
				"type": "unocc",
				"energy": 0.1014,
				"method": "rhf"
			}
		],
		"cosmo_sigma_profile": { 
			"-0.025": 0.0,
			"-0.024": 0.0,
			"-0.023": 0.0,
			"-0.022": 0.0,
			"-0.021": 0.0,
			"-0.02": 0.0,
			"-0.019": 0.0,
			"-0.018": 0.0,
			"-0.017": 0.0,
			"-0.016": 0.0,
			"-0.015": 0.0,
			"-0.014": 0.275773588542,
			"-0.013": 0.767765012358,
			"-0.012": 0.633399701044,
			"-0.011": 0.571531389233,
			"-0.01": 0.507378268168,
			"-0.009": 0.793027850339,
			"-0.008": 0.383184707696,
			"-0.007": 1.42188322584,
			"-0.006": 10.79407973,
			"-0.005": 21.2239613497,
			"-0.004": 37.6324407261,
			"-0.003": 27.2475963404,
			"-0.002": 30.6575994026,
			"-0.001": 30.2064036503,
			"0.0": 31.0415614075,
			"0.001": 15.8651271543,
			"0.002": 9.38290437768,
			"0.003": 9.1207039757,
			"0.004": 7.10387089367,
			"0.005": 7.27348465199,
			"0.006": 7.95748713002,
			"0.007": 7.15785750372,
			"0.008": 5.69754478288,
			"0.009": 6.01976560922,
			"0.01": 4.81148890713,
			"0.011": 6.10292007565,
			"0.012": 4.29592202622,
			"0.013": 2.81245566345,
			"0.014": 1.56507669558,
			"0.015": 0.0,
			"0.016": 0.0,
			"0.017": 0.0,
			"0.018": 0.0,
			"0.019": 0.0,
			"0.02": 0.0,
			"0.021": 0.0,
			"0.022": 0.0,
			"0.023": 0.0,
			"0.024": 0.0,
			"0.025": 0.0
		}
	}
}
