{
	 "smiles": "CC(C)(C)C(Br)C(O)=O", 
	 "Tm": 336.15, 
	 "num_atms": 20, 
	 "gaussian": { 
		 "optdone": 1, 
		 "sigma_profile": "yes", 
		 "theory": "DFT", 
		 "functional": "B3LYP", 
		 "basiset": "6-31G**", 
		 "properties": { 
			 "R2extent": 1998.5131, 
			 "electric_dipole_moment_norm": 1.95954134174, 
			 "electric_quadrupole_moment_norm": 8.40565766671, 
			 "total_energy": -2957.14627635, 
			 "HOMO_LUMO_gap": 0.227, 
			 "cosmo_polarized_energy": -8.62, 
			 "cosmo_cavitation_energy": 24.05, 
			 "cosmo_dispersion_energy": -17.48, 
			 "cosmo_repulsion_energy": 1.42, 
			 "cosmo_total_nonelectrostatic_energy": 8.0, 
			 "SMD_solvation_energy": 4.38 
		},
		"coords": [
			{
				"x": 1.4185887811,
				"y": -0.2895120726,
				"z": 2.4178874884,
				"element": "C" 
			},
			{
				"x": 0.4265446492,
				"y": 0.0074394715,
				"z": 1.2662541368,
				"element": "C" 
			},
			{
				"x": 0.0274484934,
				"y": 1.4940843348,
				"z": 1.2948294325,
				"element": "C" 
			},
			{
				"x": -0.8261565646,
				"y": -0.8707392091,
				"z": 1.4545807303,
				"element": "C" 
			},
			{
				"x": 1.132500542,
				"y": -0.4096179594,
				"z": -0.0450584896,
				"element": "C" 
			},
			{
				"x": 0.0430841849,
				"y": -0.0495292118,
				"z": -1.6901891795,
				"element": "Br" 
			},
			{
				"x": 2.4819781758,
				"y": 0.2364710301,
				"z": -0.3306570905,
				"element": "C" 
			},
			{
				"x": 3.2966338382,
				"y": -0.6317182374,
				"z": -0.9707458208,
				"element": "O" 
			},
			{
				"x": 2.8234306419,
				"y": 1.3604210892,
				"z": -0.0372982648,
				"element": "O" 
			},
			{
				"x": 1.7434494688,
				"y": -1.3366177029,
				"z": 2.4115734534,
				"element": "H" 
			},
			{
				"x": 0.9282077305,
				"y": -0.1024894517,
				"z": 3.3784054571,
				"element": "H" 
			},
			{
				"x": 2.3027533048,
				"y": 0.3506500791,
				"z": 2.3629350664,
				"element": "H" 
			},
			{
				"x": -0.4440368504,
				"y": 1.7247904162,
				"z": 2.2559949978,
				"element": "H" 
			},
			{
				"x": 0.8958300157,
				"y": 2.1415490479,
				"z": 1.1660607166,
				"element": "H" 
			},
			{
				"x": -0.6918829074,
				"y": 1.7211712464,
				"z": 0.5033214245,
				"element": "H" 
			},
			{
				"x": -1.3104428088,
				"y": -0.6270537092,
				"z": 2.4054416265,
				"element": "H" 
			},
			{
				"x": -1.5516497859,
				"y": -0.7085510597,
				"z": 0.6532237114,
				"element": "H" 
			},
			{
				"x": -0.5707119106,
				"y": -1.9366592612,
				"z": 1.4725053404,
				"element": "H" 
			},
			{
				"x": 1.2591743725,
				"y": -1.4917670199,
				"z": -0.0748630398,
				"element": "H" 
			},
			{
				"x": 4.120556629,
				"y": -0.1490218202,
				"z": -1.1540016969,
				"element": "H" 
			}
		],
		 "valence_orbital": [ 
			{
				"type": "occ",
				"energy": -0.33147,
				"method": "rhf"
			},
			{
				"type": "occ",
				"energy": -0.32818,
				"method": "rhf"
			},
			{
				"type": "occ",
				"energy": -0.29613,
				"method": "rhf"
			},
			{
				"type": "occ",
				"energy": -0.2789,
				"method": "rhf"
			},
			{
				"type": "occ",
				"energy": -0.27257,
				"method": "rhf"
			},
			{
				"type": "unocc",
				"energy": -0.04557,
				"method": "rhf"
			},
			{
				"type": "unocc",
				"energy": 0.03552,
				"method": "rhf"
			},
			{
				"type": "unocc",
				"energy": 0.07205,
				"method": "rhf"
			},
			{
				"type": "unocc",
				"energy": 0.08177,
				"method": "rhf"
			},
			{
				"type": "unocc",
				"energy": 0.11877,
				"method": "rhf"
			}
		],
		"cosmo_sigma_profile": { 
			"-0.025": 0.0,
			"-0.024": 0.0,
			"-0.023": 0.0,
			"-0.022": 0.0,
			"-0.021": 0.0,
			"-0.02": 0.0,
			"-0.019": 0.185986972499,
			"-0.018": 1.3655764704,
			"-0.017": 0.648938204396,
			"-0.016": 0.867545158011,
			"-0.015": 0.81642497332,
			"-0.014": 0.620883207146,
			"-0.013": 0.369486038932,
			"-0.012": 1.08442684319,
			"-0.011": 1.1302101491,
			"-0.01": 0.647489381233,
			"-0.009": 0.405629021098,
			"-0.008": 2.0333799895,
			"-0.007": 3.62040746119,
			"-0.006": 2.84338175536,
			"-0.005": 3.86194840946,
			"-0.004": 8.31868203752,
			"-0.003": 17.4847749064,
			"-0.002": 17.1986629947,
			"-0.001": 18.8860078403,
			"0.0": 23.8188004156,
			"0.001": 22.1218383159,
			"0.002": 10.3518846293,
			"0.003": 10.7963700069,
			"0.004": 11.0146467829,
			"0.005": 10.732833436,
			"0.006": 4.608453011,
			"0.007": 2.90545832193,
			"0.008": 2.8370971125,
			"0.009": 2.17664388082,
			"0.01": 3.03419975109,
			"0.011": 3.11134790858,
			"0.012": 0.236521742869,
			"0.013": 0.0,
			"0.014": 0.0,
			"0.015": 0.0,
			"0.016": 0.0,
			"0.017": 0.0,
			"0.018": 0.0,
			"0.019": 0.0,
			"0.02": 0.0,
			"0.021": 0.0,
			"0.022": 0.0,
			"0.023": 0.0,
			"0.024": 0.0,
			"0.025": 0.0
		}
	}
}
