{
	 "smiles": "COC(=O)C1=C(F)C(F)=CC(N)=C1", 
	 "Tm": 363.15, 
	 "num_atms": 20, 
	 "gaussian": { 
		 "optdone": 1, 
		 "sigma_profile": "yes", 
		 "theory": "DFT", 
		 "functional": "B3LYP", 
		 "basiset": "6-31G**", 
		 "properties": { 
			 "R2extent": 2842.7804, 
			 "electric_dipole_moment_norm": 2.32110631812, 
			 "electric_quadrupole_moment_norm": 16.9679396613, 
			 "total_energy": -713.938195159, 
			 "HOMO_LUMO_gap": 0.16461, 
			 "cosmo_polarized_energy": -12.14, 
			 "cosmo_cavitation_energy": 25.89, 
			 "cosmo_dispersion_energy": -18.78, 
			 "cosmo_repulsion_energy": 1.46, 
			 "cosmo_total_nonelectrostatic_energy": 8.56, 
			 "SMD_solvation_energy": 7.0 
		},
		"coords": [
			{
				"x": -3.5027531703,
				"y": -0.2846902381,
				"z": -2.9434389427,
				"element": "C" 
			},
			{
				"x": -2.5548188351,
				"y": -0.1941786383,
				"z": -1.8678374769,
				"element": "O" 
			},
			{
				"x": -1.3863379183,
				"y": 0.3919406348,
				"z": -2.1846085265,
				"element": "C" 
			},
			{
				"x": -1.1345602999,
				"y": 0.8197041021,
				"z": -3.2954466581,
				"element": "O" 
			},
			{
				"x": -0.424881335,
				"y": 0.4658066094,
				"z": -1.0410288862,
				"element": "C" 
			},
			{
				"x": -0.6877511462,
				"y": 0.0139611095,
				"z": 0.2571438524,
				"element": "C" 
			},
			{
				"x": -1.8518428499,
				"y": -0.5444501079,
				"z": 0.6215011142,
				"element": "F" 
			},
			{
				"x": 0.2997014807,
				"y": 0.1498701672,
				"z": 1.2341004925,
				"element": "C" 
			},
			{
				"x": 0.030765738,
				"y": -0.2853074262,
				"z": 2.4775457221,
				"element": "F" 
			},
			{
				"x": 1.5326129562,
				"y": 0.7156292934,
				"z": 0.9593191578,
				"element": "C" 
			},
			{
				"x": 1.8122075719,
				"y": 1.1750791873,
				"z": -0.3407317122,
				"element": "C" 
			},
			{
				"x": 3.0685331531,
				"y": 1.6937423735,
				"z": -0.6523251757,
				"element": "N" 
			},
			{
				"x": 0.8228277402,
				"y": 1.0424450193,
				"z": -1.321379758,
				"element": "C" 
			},
			{
				"x": -4.3765422134,
				"y": -0.7788020929,
				"z": -2.519515836,
				"element": "H" 
			},
			{
				"x": -3.092145389,
				"y": -0.8693573874,
				"z": -3.7704248703,
				"element": "H" 
			},
			{
				"x": -3.7633605581,
				"y": 0.7106430712,
				"z": -3.3119681629,
				"element": "H" 
			},
			{
				"x": 2.2636817802,
				"y": 0.7867138601,
				"z": 1.7583479952,
				"element": "H" 
			},
			{
				"x": 3.0990029262,
				"y": 2.2730626542,
				"z": -1.479688642,
				"element": "H" 
			},
			{
				"x": 3.5719316063,
				"y": 2.108174326,
				"z": 0.1195203111,
				"element": "H" 
			},
			{
				"x": 0.9956287625,
				"y": 1.3820134828,
				"z": -2.3369839977,
				"element": "H" 
			}
		],
		 "valence_orbital": [ 
			{
				"type": "occ",
				"energy": -0.30863,
				"method": "rhf"
			},
			{
				"type": "occ",
				"energy": -0.30132,
				"method": "rhf"
			},
			{
				"type": "occ",
				"energy": -0.27805,
				"method": "rhf"
			},
			{
				"type": "occ",
				"energy": -0.25981,
				"method": "rhf"
			},
			{
				"type": "occ",
				"energy": -0.21308,
				"method": "rhf"
			},
			{
				"type": "unocc",
				"energy": -0.04847,
				"method": "rhf"
			},
			{
				"type": "unocc",
				"energy": 0.00785,
				"method": "rhf"
			},
			{
				"type": "unocc",
				"energy": 0.05542,
				"method": "rhf"
			},
			{
				"type": "unocc",
				"energy": 0.06871,
				"method": "rhf"
			},
			{
				"type": "unocc",
				"energy": 0.08474,
				"method": "rhf"
			}
		],
		"cosmo_sigma_profile": { 
			"-0.025": 0.0,
			"-0.024": 0.0,
			"-0.023": 0.0,
			"-0.022": 0.0,
			"-0.021": 0.0,
			"-0.02": 0.0,
			"-0.019": 0.0,
			"-0.018": 0.0,
			"-0.017": 0.0,
			"-0.016": 0.0,
			"-0.015": 0.0,
			"-0.014": 0.0,
			"-0.013": 2.27049880775,
			"-0.012": 2.80189638894,
			"-0.011": 3.60799890699,
			"-0.01": 3.5151160051,
			"-0.009": 3.5574126873,
			"-0.008": 3.94888364759,
			"-0.007": 4.87444720635,
			"-0.006": 8.25639382876,
			"-0.005": 9.92379897248,
			"-0.004": 10.9778574552,
			"-0.003": 13.7608861199,
			"-0.002": 9.12396607165,
			"-0.001": 13.2613817533,
			"0.0": 16.1670861302,
			"0.001": 14.5982042082,
			"0.002": 15.8013322642,
			"0.003": 17.2760714037,
			"0.004": 19.2908823176,
			"0.005": 7.35193470781,
			"0.006": 3.67124820752,
			"0.007": 4.56168147005,
			"0.008": 4.66763294287,
			"0.009": 2.13075630077,
			"0.01": 2.60000274036,
			"0.011": 4.39034431442,
			"0.012": 3.58685892766,
			"0.013": 0.62504142869,
			"0.014": 0.27016482564,
			"0.015": 0.0,
			"0.016": 0.0,
			"0.017": 0.0,
			"0.018": 0.0,
			"0.019": 0.0,
			"0.02": 0.0,
			"0.021": 0.0,
			"0.022": 0.0,
			"0.023": 0.0,
			"0.024": 0.0,
			"0.025": 0.0
		}
	}
}
