{
	 "smiles": "CC(=O)OC[C@H]1O[C@H]([C@H](OC(C)=O)[C@@H]1OC(C)=O)N1C=NC2=C1N=CN=C2N", 
	 "Tm": 447.15, 
	 "num_atms": 47, 
	 "gaussian": { 
		 "optdone": 1, 
		 "sigma_profile": "yes", 
		 "theory": "DFT", 
		 "functional": "B3LYP", 
		 "basiset": "6-31G**", 
		 "properties": { 
			 "R2extent": 11754.0921, 
			 "electric_dipole_moment_norm": 4.84673756149, 
			 "electric_quadrupole_moment_norm": 23.9516591686, 
			 "total_energy": -1421.52686369, 
			 "HOMO_LUMO_gap": 0.19942, 
			 "cosmo_polarized_energy": -26.92, 
			 "cosmo_cavitation_energy": 51.7, 
			 "cosmo_dispersion_energy": -33.64, 
			 "cosmo_repulsion_energy": 2.6, 
			 "cosmo_total_nonelectrostatic_energy": 20.66, 
			 "SMD_solvation_energy": 8.22 
		},
		"coords": [
			{
				"x": -3.7142045652,
				"y": 0.2116133806,
				"z": -5.2836242326,
				"element": "C" 
			},
			{
				"x": -2.83883765,
				"y": -0.3069335412,
				"z": -4.1728469958,
				"element": "C" 
			},
			{
				"x": -1.7228586323,
				"y": -0.7592605567,
				"z": -4.3083884708,
				"element": "O" 
			},
			{
				"x": -3.4576764089,
				"y": -0.1692179362,
				"z": -2.9708595578,
				"element": "O" 
			},
			{
				"x": -2.7016186942,
				"y": -0.5052716708,
				"z": -1.7942949239,
				"element": "C" 
			},
			{
				"x": -2.0853846157,
				"y": 0.7672713733,
				"z": -1.202844007,
				"element": "C" 
			},
			{
				"x": -1.7662139257,
				"y": 0.5168134151,
				"z": 0.1818991446,
				"element": "O" 
			},
			{
				"x": -0.3769192161,
				"y": 0.626300063,
				"z": 0.4196516378,
				"element": "C" 
			},
			{
				"x": 0.2947500997,
				"y": 0.6322976309,
				"z": -0.9633911045,
				"element": "C" 
			},
			{
				"x": 1.5097565785,
				"y": 1.3741131569,
				"z": -0.8502837271,
				"element": "O" 
			},
			{
				"x": 2.3446546002,
				"y": 1.3344082657,
				"z": -1.9258055575,
				"element": "C" 
			},
			{
				"x": 3.6045103885,
				"y": 2.1155430628,
				"z": -1.64693081,
				"element": "C" 
			},
			{
				"x": 2.0832852215,
				"y": 0.7427868848,
				"z": -2.9464276888,
				"element": "O" 
			},
			{
				"x": -0.7805047199,
				"y": 1.237895655,
				"z": -1.8748339765,
				"element": "C" 
			},
			{
				"x": -0.6534843656,
				"y": 2.6746724381,
				"z": -1.8050648108,
				"element": "O" 
			},
			{
				"x": -1.3147729968,
				"y": 3.3748831958,
				"z": -2.762440833,
				"element": "C" 
			},
			{
				"x": -1.0460987684,
				"y": 4.8534048132,
				"z": -2.6265004924,
				"element": "C" 
			},
			{
				"x": -2.0161108712,
				"y": 2.8606473491,
				"z": -3.60587852,
				"element": "O" 
			},
			{
				"x": 0.0635424566,
				"y": -0.4446540744,
				"z": 1.2890816203,
				"element": "N" 
			},
			{
				"x": 0.4339065812,
				"y": -0.3182120177,
				"z": 2.6190210632,
				"element": "C" 
			},
			{
				"x": 0.715498925,
				"y": -1.452735491,
				"z": 3.2064154605,
				"element": "N" 
			},
			{
				"x": 0.5075325113,
				"y": -2.3981231782,
				"z": 2.2153404547,
				"element": "C" 
			},
			{
				"x": 0.0942749415,
				"y": -1.8041459295,
				"z": 1.0197830368,
				"element": "C" 
			},
			{
				"x": -0.1925754774,
				"y": -2.4358055884,
				"z": -0.1271873947,
				"element": "N" 
			},
			{
				"x": -0.0396963375,
				"y": -3.7600078569,
				"z": -0.0098757347,
				"element": "C" 
			},
			{
				"x": 0.3417188742,
				"y": -4.467937272,
				"z": 1.0638363654,
				"element": "N" 
			},
			{
				"x": 0.6283006775,
				"y": -3.8042234734,
				"z": 2.1989530396,
				"element": "C" 
			},
			{
				"x": 1.0385998065,
				"y": -4.506627151,
				"z": 3.2813721816,
				"element": "N" 
			},
			{
				"x": -3.6261369256,
				"y": 1.3030317725,
				"z": -5.2951498516,
				"element": "H" 
			},
			{
				"x": -3.3664605745,
				"y": -0.1860304744,
				"z": -6.2370168426,
				"element": "H" 
			},
			{
				"x": -4.7623516711,
				"y": -0.0440081302,
				"z": -5.1146361183,
				"element": "H" 
			},
			{
				"x": -1.9473296923,
				"y": -1.2618672108,
				"z": -2.0167085202,
				"element": "H" 
			},
			{
				"x": -3.4189804664,
				"y": -0.9062824741,
				"z": -1.0757330888,
				"element": "H" 
			},
			{
				"x": -2.8348551424,
				"y": 1.5635809246,
				"z": -1.2458861758,
				"element": "H" 
			},
			{
				"x": -0.1425367176,
				"y": 1.5638202731,
				"z": 0.9412922817,
				"element": "H" 
			},
			{
				"x": 0.5001800858,
				"y": -0.3859279122,
				"z": -1.3007566144,
				"element": "H" 
			},
			{
				"x": 4.2355399387,
				"y": 2.1115647487,
				"z": -2.5348444235,
				"element": "H" 
			},
			{
				"x": 3.3562420488,
				"y": 3.1427166578,
				"z": -1.3650143197,
				"element": "H" 
			},
			{
				"x": 4.1430611515,
				"y": 1.6668947983,
				"z": -0.806702342,
				"element": "H" 
			},
			{
				"x": -0.6874670164,
				"y": 0.9086195871,
				"z": -2.907592153,
				"element": "H" 
			},
			{
				"x": -1.2437022673,
				"y": 5.1841585017,
				"z": -1.6032804283,
				"element": "H" 
			},
			{
				"x": -1.6728858294,
				"y": 5.4016452593,
				"z": -3.3289031128,
				"element": "H" 
			},
			{
				"x": 0.0080669978,
				"y": 5.0570770374,
				"z": -2.8389368503,
				"element": "H" 
			},
			{
				"x": 0.4782585109,
				"y": 0.6569965079,
				"z": 3.0869995176,
				"element": "H" 
			},
			{
				"x": -0.2544690255,
				"y": -4.3433397941,
				"z": -0.9026388105,
				"element": "H" 
			},
			{
				"x": 1.1371612213,
				"y": -4.0401166364,
				"z": 4.168184411,
				"element": "H" 
			},
			{
				"x": 0.9958909565,
				"y": -5.512328383,
				"z": 3.2430482745,
				"element": "H" 
			}
		],
		 "valence_orbital": [ 
			{
				"type": "occ",
				"energy": -0.27291,
				"method": "rhf"
			},
			{
				"type": "occ",
				"energy": -0.26697,
				"method": "rhf"
			},
			{
				"type": "occ",
				"energy": -0.26477,
				"method": "rhf"
			},
			{
				"type": "occ",
				"energy": -0.25062,
				"method": "rhf"
			},
			{
				"type": "occ",
				"energy": -0.22211,
				"method": "rhf"
			},
			{
				"type": "unocc",
				"energy": -0.02269,
				"method": "rhf"
			},
			{
				"type": "unocc",
				"energy": -0.00105,
				"method": "rhf"
			},
			{
				"type": "unocc",
				"energy": 0.00163,
				"method": "rhf"
			},
			{
				"type": "unocc",
				"energy": 0.00331,
				"method": "rhf"
			},
			{
				"type": "unocc",
				"energy": 0.01968,
				"method": "rhf"
			}
		],
		"cosmo_sigma_profile": { 
			"-0.025": 0.0,
			"-0.024": 0.0,
			"-0.023": 0.0,
			"-0.022": 0.0,
			"-0.021": 0.0,
			"-0.02": 0.0,
			"-0.019": 0.0,
			"-0.018": 0.0,
			"-0.017": 0.0,
			"-0.016": 0.0,
			"-0.015": 0.188715045832,
			"-0.014": 1.69776416863,
			"-0.013": 2.14483542411,
			"-0.012": 2.01432457241,
			"-0.011": 3.78963276716,
			"-0.01": 5.21402222444,
			"-0.009": 4.29057143717,
			"-0.008": 3.92730957911,
			"-0.007": 12.4804659129,
			"-0.006": 23.6410884894,
			"-0.005": 26.632628189,
			"-0.004": 27.6970492821,
			"-0.003": 34.7073931207,
			"-0.002": 38.9987766965,
			"-0.001": 32.1623144001,
			"0.0": 24.2274413148,
			"0.001": 21.4481493344,
			"0.002": 18.4033100693,
			"0.003": 18.6535378753,
			"0.004": 17.407429085,
			"0.005": 17.8163064364,
			"0.006": 14.1421337242,
			"0.007": 10.9098105224,
			"0.008": 9.78145820207,
			"0.009": 7.31227811063,
			"0.01": 7.90948147024,
			"0.011": 10.5384877595,
			"0.012": 6.56398663674,
			"0.013": 2.22701741618,
			"0.014": 2.12974805275,
			"0.015": 1.01610876325,
			"0.016": 0.122699744349,
			"0.017": 0.0,
			"0.018": 0.0,
			"0.019": 0.0,
			"0.02": 0.0,
			"0.021": 0.0,
			"0.022": 0.0,
			"0.023": 0.0,
			"0.024": 0.0,
			"0.025": 0.0
		}
	}
}
