{
	 "smiles": "O=S(=O)(C1=CSC=C1)C1=CC=CC=C1", 
	 "Tm": 389.15, 
	 "num_atms": 22, 
	 "gaussian": { 
		 "optdone": 1, 
		 "sigma_profile": "yes", 
		 "theory": "DFT", 
		 "functional": "B3LYP", 
		 "basiset": "6-31G**", 
		 "properties": { 
			 "R2extent": 4118.05, 
			 "electric_dipole_moment_norm": 5.17514283281, 
			 "electric_quadrupole_moment_norm": 19.8176843761, 
			 "total_energy": -1332.61878454, 
			 "HOMO_LUMO_gap": 0.20673, 
			 "cosmo_polarized_energy": -13.69, 
			 "cosmo_cavitation_energy": 29.63, 
			 "cosmo_dispersion_energy": -22.09, 
			 "cosmo_repulsion_energy": 1.64, 
			 "cosmo_total_nonelectrostatic_energy": 9.18, 
			 "SMD_solvation_energy": 4.62 
		},
		"coords": [
			{
				"x": 2.4348660532,
				"y": -1.731982471,
				"z": -0.7125430087,
				"element": "O" 
			},
			{
				"x": 1.7404145186,
				"y": -0.7645018523,
				"z": -1.5766057729,
				"element": "S" 
			},
			{
				"x": 2.1028223192,
				"y": -0.5829778346,
				"z": -2.9906961507,
				"element": "O" 
			},
			{
				"x": 0.0024861639,
				"y": -1.1726763404,
				"z": -1.5212174721,
				"element": "C" 
			},
			{
				"x": -0.502782345,
				"y": -2.0660703878,
				"z": -0.6153065711,
				"element": "C" 
			},
			{
				"x": -2.2028759034,
				"y": -2.267480576,
				"z": -0.8378262925,
				"element": "S" 
			},
			{
				"x": -2.2207123244,
				"y": -1.1368388751,
				"z": -2.1584776609,
				"element": "C" 
			},
			{
				"x": -0.9771514547,
				"y": -0.6360271657,
				"z": -2.4148902802,
				"element": "C" 
			},
			{
				"x": 1.8488029916,
				"y": 0.8497161819,
				"z": -0.7849828682,
				"element": "C" 
			},
			{
				"x": 1.8361778495,
				"y": 1.9981926513,
				"z": -1.5781832569,
				"element": "C" 
			},
			{
				"x": 1.9246599016,
				"y": 3.246278469,
				"z": -0.9601694804,
				"element": "C" 
			},
			{
				"x": 2.0261375209,
				"y": 3.3338542178,
				"z": 0.4300866646,
				"element": "C" 
			},
			{
				"x": 2.0488198506,
				"y": 2.1748604936,
				"z": 1.210828188,
				"element": "C" 
			},
			{
				"x": 1.9617422751,
				"y": 0.9218519542,
				"z": 0.6051125856,
				"element": "C" 
			},
			{
				"x": 0.0432325618,
				"y": -2.6154297979,
				"z": 0.1378665601,
				"element": "H" 
			},
			{
				"x": -3.1475711372,
				"y": -0.9212254533,
				"z": -2.671714251,
				"element": "H" 
			},
			{
				"x": -0.7510493538,
				"y": 0.0647025831,
				"z": -3.2085294385,
				"element": "H" 
			},
			{
				"x": 1.7814166557,
				"y": 1.9050026714,
				"z": -2.6573751499,
				"element": "H" 
			},
			{
				"x": 1.9215992582,
				"y": 4.1483422902,
				"z": -1.5645743575,
				"element": "H" 
			},
			{
				"x": 2.0960243212,
				"y": 4.3073419979,
				"z": 0.9065565279,
				"element": "H" 
			},
			{
				"x": 2.1417040399,
				"y": 2.2465828842,
				"z": 2.2902804042,
				"element": "H" 
			},
			{
				"x": 2.0000362373,
				"y": 0.0103843596,
				"z": 1.1918610809,
				"element": "H" 
			}
		],
		 "valence_orbital": [ 
			{
				"type": "occ",
				"energy": -0.28981,
				"method": "rhf"
			},
			{
				"type": "occ",
				"energy": -0.28583,
				"method": "rhf"
			},
			{
				"type": "occ",
				"energy": -0.27137,
				"method": "rhf"
			},
			{
				"type": "occ",
				"energy": -0.26561,
				"method": "rhf"
			},
			{
				"type": "occ",
				"energy": -0.25677,
				"method": "rhf"
			},
			{
				"type": "unocc",
				"energy": -0.05004,
				"method": "rhf"
			},
			{
				"type": "unocc",
				"energy": -0.0264,
				"method": "rhf"
			},
			{
				"type": "unocc",
				"energy": -0.02123,
				"method": "rhf"
			},
			{
				"type": "unocc",
				"energy": 0.01148,
				"method": "rhf"
			},
			{
				"type": "unocc",
				"energy": 0.02467,
				"method": "rhf"
			}
		],
		"cosmo_sigma_profile": { 
			"-0.025": 0.0,
			"-0.024": 0.0,
			"-0.023": 0.0,
			"-0.022": 0.0,
			"-0.021": 0.0,
			"-0.02": 0.0,
			"-0.019": 0.0,
			"-0.018": 0.0,
			"-0.017": 0.0,
			"-0.016": 0.0,
			"-0.015": 0.0,
			"-0.014": 0.0,
			"-0.013": 0.0,
			"-0.012": 0.0,
			"-0.011": 0.0,
			"-0.01": 1.49631344307,
			"-0.009": 3.69606677394,
			"-0.008": 5.16865671947,
			"-0.007": 10.6886472094,
			"-0.006": 17.360066102,
			"-0.005": 16.8547104855,
			"-0.004": 14.4084765403,
			"-0.003": 12.9725557814,
			"-0.002": 12.2466055607,
			"-0.001": 13.718024142,
			"0.0": 17.1857949596,
			"0.001": 25.5263358385,
			"0.002": 27.4865756748,
			"0.003": 21.4869473199,
			"0.004": 6.73953908747,
			"0.005": 2.83434292821,
			"0.006": 2.6062054072,
			"0.007": 2.96836211858,
			"0.008": 3.09340206893,
			"0.009": 3.03048308902,
			"0.01": 6.70372799043,
			"0.011": 7.65205706678,
			"0.012": 5.27667019549,
			"0.013": 0.00154648419009,
			"0.014": 0.0,
			"0.015": 0.0,
			"0.016": 0.0,
			"0.017": 0.0,
			"0.018": 0.0,
			"0.019": 0.0,
			"0.02": 0.0,
			"0.021": 0.0,
			"0.022": 0.0,
			"0.023": 0.0,
			"0.024": 0.0,
			"0.025": 0.0
		}
	}
}
