{
	 "smiles": "CN(C)S(=O)(=O)C1=CN=C(N)C=C1", 
	 "Tm": 424.15, 
	 "num_atms": 24, 
	 "gaussian": { 
		 "optdone": 1, 
		 "sigma_profile": "yes", 
		 "theory": "DFT", 
		 "functional": "B3LYP", 
		 "basiset": "6-31G**", 
		 "properties": { 
			 "R2extent": 3042.6167, 
			 "electric_dipole_moment_norm": 7.13418973465, 
			 "electric_quadrupole_moment_norm": 16.0029822733, 
			 "total_energy": -986.194635375, 
			 "HOMO_LUMO_gap": 0.19561, 
			 "cosmo_polarized_energy": -19.27, 
			 "cosmo_cavitation_energy": 28.56, 
			 "cosmo_dispersion_energy": -21.1, 
			 "cosmo_repulsion_energy": 1.62, 
			 "cosmo_total_nonelectrostatic_energy": 9.07, 
			 "SMD_solvation_energy": 1.93 
		},
		"coords": [
			{
				"x": 0.0777382968,
				"y": 2.0794880888,
				"z": -1.001810839,
				"element": "C" 
			},
			{
				"x": 1.2174023612,
				"y": 1.1613726723,
				"z": -1.0385454624,
				"element": "N" 
			},
			{
				"x": 2.1117610619,
				"y": 1.2447519502,
				"z": 0.1170848331,
				"element": "C" 
			},
			{
				"x": 0.8927681427,
				"y": -0.3992839097,
				"z": -1.6137044729,
				"element": "S" 
			},
			{
				"x": 0.065399345,
				"y": -0.2228210711,
				"z": -2.8087172508,
				"element": "O" 
			},
			{
				"x": 2.1837484991,
				"y": -1.0909925777,
				"z": -1.648930881,
				"element": "O" 
			},
			{
				"x": -0.1098719341,
				"y": -1.2205590988,
				"z": -0.3866069603,
				"element": "C" 
			},
			{
				"x": -1.5032111855,
				"y": -1.1191912563,
				"z": -0.4159395728,
				"element": "C" 
			},
			{
				"x": -2.2997210174,
				"y": -1.6850666042,
				"z": 0.4916639438,
				"element": "N" 
			},
			{
				"x": -1.7271800823,
				"y": -2.4008715016,
				"z": 1.4780320791,
				"element": "C" 
			},
			{
				"x": -2.5861529272,
				"y": -2.9934539985,
				"z": 2.3631721659,
				"element": "N" 
			},
			{
				"x": -0.3263958769,
				"y": -2.5750067275,
				"z": 1.5814249487,
				"element": "C" 
			},
			{
				"x": 0.4844413101,
				"y": -1.9739142466,
				"z": 0.6376043134,
				"element": "C" 
			},
			{
				"x": -0.5922094284,
				"y": 1.8955942397,
				"z": -0.1468280905,
				"element": "H" 
			},
			{
				"x": 0.4667222013,
				"y": 3.0988428627,
				"z": -0.922389501,
				"element": "H" 
			},
			{
				"x": -0.4846460313,
				"y": 1.9946454186,
				"z": -1.9311903142,
				"element": "H" 
			},
			{
				"x": 2.4834799364,
				"y": 2.2714193005,
				"z": 0.1845756556,
				"element": "H" 
			},
			{
				"x": 1.6098901292,
				"y": 0.9947899813,
				"z": 1.0655221395,
				"element": "H" 
			},
			{
				"x": 2.9606885079,
				"y": 0.5785918627,
				"z": -0.034425963,
				"element": "H" 
			},
			{
				"x": -1.9918325317,
				"y": -0.5727575666,
				"z": -1.2186890605,
				"element": "H" 
			},
			{
				"x": -3.5485190294,
				"y": -2.6947124784,
				"z": 2.317039835,
				"element": "H" 
			},
			{
				"x": -2.2434739192,
				"y": -3.3191294908,
				"z": 3.252067441,
				"element": "H" 
			},
			{
				"x": 0.0956859535,
				"y": -3.1813998705,
				"z": 2.3768882083,
				"element": "H" 
			},
			{
				"x": 1.5617882182,
				"y": -2.0990359785,
				"z": 0.6618028051,
				"element": "H" 
			}
		],
		 "valence_orbital": [ 
			{
				"type": "occ",
				"energy": -0.29815,
				"method": "rhf"
			},
			{
				"type": "occ",
				"energy": -0.29516,
				"method": "rhf"
			},
			{
				"type": "occ",
				"energy": -0.27188,
				"method": "rhf"
			},
			{
				"type": "occ",
				"energy": -0.25892,
				"method": "rhf"
			},
			{
				"type": "occ",
				"energy": -0.23013,
				"method": "rhf"
			},
			{
				"type": "unocc",
				"energy": -0.03452,
				"method": "rhf"
			},
			{
				"type": "unocc",
				"energy": -0.02498,
				"method": "rhf"
			},
			{
				"type": "unocc",
				"energy": 0.06214,
				"method": "rhf"
			},
			{
				"type": "unocc",
				"energy": 0.07594,
				"method": "rhf"
			},
			{
				"type": "unocc",
				"energy": 0.08523,
				"method": "rhf"
			}
		],
		"cosmo_sigma_profile": { 
			"-0.025": 0.0,
			"-0.024": 0.0,
			"-0.023": 0.0,
			"-0.022": 0.0,
			"-0.021": 0.0,
			"-0.02": 0.0,
			"-0.019": 0.0,
			"-0.018": 0.0,
			"-0.017": 0.0,
			"-0.016": 0.0,
			"-0.015": 0.127289213859,
			"-0.014": 1.7117254575,
			"-0.013": 2.37883334005,
			"-0.012": 2.39566002476,
			"-0.011": 2.85533398637,
			"-0.01": 2.52118766558,
			"-0.009": 2.59537902991,
			"-0.008": 3.2190579017,
			"-0.007": 5.79462253792,
			"-0.006": 11.0699212853,
			"-0.005": 13.0482203937,
			"-0.004": 20.2430019855,
			"-0.003": 23.301796273,
			"-0.002": 19.7692073892,
			"-0.001": 9.92681273058,
			"0.0": 10.9825596043,
			"0.001": 15.7326735318,
			"0.002": 11.2393569602,
			"0.003": 6.85813878512,
			"0.004": 6.16278417302,
			"0.005": 5.38806780988,
			"0.006": 6.69433182228,
			"0.007": 5.94710447678,
			"0.008": 6.74609511147,
			"0.009": 4.78704613341,
			"0.01": 8.01968620051,
			"0.011": 8.75769963725,
			"0.012": 5.96779163958,
			"0.013": 0.732151413961,
			"0.014": 0.842708722541,
			"0.015": 0.261550236088,
			"0.016": 0.0,
			"0.017": 0.0,
			"0.018": 0.0,
			"0.019": 0.0,
			"0.02": 0.0,
			"0.021": 0.0,
			"0.022": 0.0,
			"0.023": 0.0,
			"0.024": 0.0,
			"0.025": 0.0
		}
	}
}
