{
	 "smiles": "NS(=O)(=O)C1=CNN=C1", 
	 "Tm": 474.15, 
	 "num_atms": 14, 
	 "gaussian": { 
		 "optdone": 1, 
		 "sigma_profile": "yes", 
		 "theory": "DFT", 
		 "functional": "B3LYP", 
		 "basiset": "6-31G**", 
		 "properties": { 
			 "R2extent": 1376.5455, 
			 "electric_dipole_moment_norm": 5.44492864049, 
			 "electric_quadrupole_moment_norm": 7.53555728928, 
			 "total_energy": -830.119177224, 
			 "HOMO_LUMO_gap": 0.26046, 
			 "cosmo_polarized_energy": -21.17, 
			 "cosmo_cavitation_energy": 20.07, 
			 "cosmo_dispersion_energy": -15.72, 
			 "cosmo_repulsion_energy": 1.26, 
			 "cosmo_total_nonelectrostatic_energy": 5.6, 
			 "SMD_solvation_energy": 2.73 
		},
		"coords": [
			{
				"x": 1.8703559442,
				"y": 1.3846173993,
				"z": -0.9745028844,
				"element": "N" 
			},
			{
				"x": 1.6578108556,
				"y": -0.2180746479,
				"z": -0.4559739995,
				"element": "S" 
			},
			{
				"x": 2.2754263535,
				"y": -0.3457681217,
				"z": 0.8661033955,
				"element": "O" 
			},
			{
				"x": 2.0523928867,
				"y": -1.1001474625,
				"z": -1.5568345769,
				"element": "O" 
			},
			{
				"x": -0.092324226,
				"y": -0.2948350823,
				"z": -0.2709629527,
				"element": "C" 
			},
			{
				"x": -1.0172373148,
				"y": 0.7077764927,
				"z": -0.4976302955,
				"element": "C" 
			},
			{
				"x": -2.2202840164,
				"y": 0.1568944993,
				"z": -0.2153998517,
				"element": "N" 
			},
			{
				"x": -2.1460204612,
				"y": -1.1355817665,
				"z": 0.1799157415,
				"element": "N" 
			},
			{
				"x": -0.8497509882,
				"y": -1.4180812756,
				"z": 0.1483848468,
				"element": "C" 
			},
			{
				"x": 2.3093971128,
				"y": 1.3724420127,
				"z": -1.8919649083,
				"element": "H" 
			},
			{
				"x": 2.4557751883,
				"y": 1.8687017886,
				"z": -0.2980520435,
				"element": "H" 
			},
			{
				"x": -0.887738582,
				"y": 1.7265931162,
				"z": -0.8265744736,
				"element": "H" 
			},
			{
				"x": -3.1259637523,
				"y": 0.5977976022,
				"z": -0.2691765843,
				"element": "H" 
			},
			{
				"x": -0.4956390001,
				"y": -2.4018345546,
				"z": 0.4218685866,
				"element": "H" 
			}
		],
		 "valence_orbital": [ 
			{
				"type": "occ",
				"energy": -0.30835,
				"method": "rhf"
			},
			{
				"type": "occ",
				"energy": -0.30487,
				"method": "rhf"
			},
			{
				"type": "occ",
				"energy": -0.29826,
				"method": "rhf"
			},
			{
				"type": "occ",
				"energy": -0.28069,
				"method": "rhf"
			},
			{
				"type": "occ",
				"energy": -0.26656,
				"method": "rhf"
			},
			{
				"type": "unocc",
				"energy": -0.0061,
				"method": "rhf"
			},
			{
				"type": "unocc",
				"energy": 0.0214,
				"method": "rhf"
			},
			{
				"type": "unocc",
				"energy": 0.04897,
				"method": "rhf"
			},
			{
				"type": "unocc",
				"energy": 0.056,
				"method": "rhf"
			},
			{
				"type": "unocc",
				"energy": 0.07745,
				"method": "rhf"
			}
		],
		"cosmo_sigma_profile": { 
			"-0.025": 0.0,
			"-0.024": 0.0,
			"-0.023": 0.0,
			"-0.022": 0.0,
			"-0.021": 0.0,
			"-0.02": 0.0,
			"-0.019": 0.0,
			"-0.018": 0.69612741414,
			"-0.017": 2.19072578401,
			"-0.016": 1.49494474751,
			"-0.015": 2.2346190512,
			"-0.014": 3.55137765192,
			"-0.013": 4.16998930073,
			"-0.012": 3.11059628356,
			"-0.011": 4.17791610278,
			"-0.01": 3.61344095827,
			"-0.009": 5.38839082052,
			"-0.008": 4.83198261502,
			"-0.007": 5.62613438365,
			"-0.006": 4.73157554104,
			"-0.005": 2.97068879186,
			"-0.004": 5.79607861484,
			"-0.003": 4.91803280519,
			"-0.002": 5.50634330585,
			"-0.001": 6.82890327414,
			"0.0": 6.98674932164,
			"0.001": 8.25359994122,
			"0.002": 8.83596564102,
			"0.003": 6.86063437147,
			"0.004": 5.16704411095,
			"0.005": 4.92959939517,
			"0.006": 4.02912159874,
			"0.007": 4.67686383757,
			"0.008": 4.5062946082,
			"0.009": 5.10700465261,
			"0.01": 7.45814722756,
			"0.011": 13.815010546,
			"0.012": 5.31600060489,
			"0.013": 1.27426522519,
			"0.014": 0.854561205056,
			"0.015": 0.350999911504,
			"0.016": 0.0,
			"0.017": 0.0,
			"0.018": 0.0,
			"0.019": 0.0,
			"0.02": 0.0,
			"0.021": 0.0,
			"0.022": 0.0,
			"0.023": 0.0,
			"0.024": 0.0,
			"0.025": 0.0
		}
	}
}
