{
	 "smiles": "ClCC(=O)NCC1=C(COC2=CC=CC=C2)C=CC=C1", 
	 "Tm": 374.15, 
	 "num_atms": 36, 
	 "gaussian": { 
		 "optdone": 1, 
		 "sigma_profile": "yes", 
		 "theory": "DFT", 
		 "functional": "B3LYP", 
		 "basiset": "6-31G**", 
		 "properties": { 
			 "R2extent": 7127.2623, 
			 "electric_dipole_moment_norm": 5.36161117762, 
			 "electric_quadrupole_moment_norm": 22.7397206252, 
			 "total_energy": -1284.73758938, 
			 "HOMO_LUMO_gap": 0.19546, 
			 "cosmo_polarized_energy": -18.93, 
			 "cosmo_cavitation_energy": 41.87, 
			 "cosmo_dispersion_energy": -27.94, 
			 "cosmo_repulsion_energy": 2.18, 
			 "cosmo_total_nonelectrostatic_energy": 16.11, 
			 "SMD_solvation_energy": 7.21 
		},
		"coords": [
			{
				"x": 1.2983544962,
				"y": -2.8488190106,
				"z": 2.9060138107,
				"element": "Cl" 
			},
			{
				"x": 1.300618179,
				"y": -1.2542517193,
				"z": 2.0949333687,
				"element": "C" 
			},
			{
				"x": 2.4346197215,
				"y": -1.1239220961,
				"z": 1.0660672243,
				"element": "C" 
			},
			{
				"x": 3.2193673781,
				"y": -2.0184821868,
				"z": 0.8094301539,
				"element": "O" 
			},
			{
				"x": 2.4830561993,
				"y": 0.0886841168,
				"z": 0.4178866703,
				"element": "N" 
			},
			{
				"x": 1.7822389432,
				"y": 1.3283968225,
				"z": 0.7662715413,
				"element": "C" 
			},
			{
				"x": 1.7012342055,
				"y": 2.2613843638,
				"z": -0.4275355544,
				"element": "C" 
			},
			{
				"x": 0.8305784194,
				"y": 2.008808914,
				"z": -1.5100585532,
				"element": "C" 
			},
			{
				"x": -0.0689725491,
				"y": 0.7960461711,
				"z": -1.5343090041,
				"element": "C" 
			},
			{
				"x": -1.0431916142,
				"y": 0.9264668794,
				"z": -0.4910849576,
				"element": "O" 
			},
			{
				"x": -1.9303431712,
				"y": -0.1015993468,
				"z": -0.2987245011,
				"element": "C" 
			},
			{
				"x": -1.9652190075,
				"y": -1.2757374285,
				"z": -1.0603668878,
				"element": "C" 
			},
			{
				"x": -2.9181890685,
				"y": -2.2567380039,
				"z": -0.7644592452,
				"element": "C" 
			},
			{
				"x": -3.8301159963,
				"y": -2.0804902685,
				"z": 0.2731513393,
				"element": "C" 
			},
			{
				"x": -3.7881506768,
				"y": -0.9027796072,
				"z": 1.0276172268,
				"element": "C" 
			},
			{
				"x": -2.847020366,
				"y": 0.0819463827,
				"z": 0.7479613629,
				"element": "C" 
			},
			{
				"x": 0.8082668478,
				"y": 2.8989859325,
				"z": -2.5869146844,
				"element": "C" 
			},
			{
				"x": 1.632341208,
				"y": 4.0262377704,
				"z": -2.6138662007,
				"element": "C" 
			},
			{
				"x": 2.4893297807,
				"y": 4.2769448203,
				"z": -1.5455001203,
				"element": "C" 
			},
			{
				"x": 2.5168650479,
				"y": 3.3960622496,
				"z": -0.4618123013,
				"element": "C" 
			},
			{
				"x": 1.3975993265,
				"y": -0.491967672,
				"z": 2.8715575899,
				"element": "H" 
			},
			{
				"x": 0.3286210782,
				"y": -1.128789141,
				"z": 1.611204269,
				"element": "H" 
			},
			{
				"x": 3.2952121482,
				"y": 0.176337423,
				"z": -0.1812998118,
				"element": "H" 
			},
			{
				"x": 2.2883174085,
				"y": 1.8485981048,
				"z": 1.5921093923,
				"element": "H" 
			},
			{
				"x": 0.7727106764,
				"y": 1.0816446823,
				"z": 1.0997106728,
				"element": "H" 
			},
			{
				"x": 0.5154225424,
				"y": -0.1200661145,
				"z": -1.3801567365,
				"element": "H" 
			},
			{
				"x": -0.572597065,
				"y": 0.7202187759,
				"z": -2.50641247,
				"element": "H" 
			},
			{
				"x": -1.268816446,
				"y": -1.4375290552,
				"z": -1.8743276523,
				"element": "H" 
			},
			{
				"x": -2.9377132517,
				"y": -3.1663720752,
				"z": -1.3578476402,
				"element": "H" 
			},
			{
				"x": -4.5642288057,
				"y": -2.8485370315,
				"z": 0.4949525726,
				"element": "H" 
			},
			{
				"x": -4.4931054013,
				"y": -0.7504678171,
				"z": 1.8399291813,
				"element": "H" 
			},
			{
				"x": -2.8037456057,
				"y": 1.0037009636,
				"z": 1.3194123777,
				"element": "H" 
			},
			{
				"x": 0.1316081305,
				"y": 2.7077094761,
				"z": -3.4157559845,
				"element": "H" 
			},
			{
				"x": 1.5976784426,
				"y": 4.7036262672,
				"z": -3.4618551086,
				"element": "H" 
			},
			{
				"x": 3.1329897569,
				"y": 5.1515741188,
				"z": -1.5500862397,
				"element": "H" 
			},
			{
				"x": 3.183379088,
				"y": 3.5930743396,
				"z": 0.3743648998,
				"element": "H" 
			}
		],
		 "valence_orbital": [ 
			{
				"type": "occ",
				"energy": -0.26596,
				"method": "rhf"
			},
			{
				"type": "occ",
				"energy": -0.2616,
				"method": "rhf"
			},
			{
				"type": "occ",
				"energy": -0.25504,
				"method": "rhf"
			},
			{
				"type": "occ",
				"energy": -0.25094,
				"method": "rhf"
			},
			{
				"type": "occ",
				"energy": -0.22554,
				"method": "rhf"
			},
			{
				"type": "unocc",
				"energy": -0.03008,
				"method": "rhf"
			},
			{
				"type": "unocc",
				"energy": -0.01856,
				"method": "rhf"
			},
			{
				"type": "unocc",
				"energy": -0.00592,
				"method": "rhf"
			},
			{
				"type": "unocc",
				"energy": 0.00757,
				"method": "rhf"
			},
			{
				"type": "unocc",
				"energy": 0.01868,
				"method": "rhf"
			}
		],
		"cosmo_sigma_profile": { 
			"-0.025": 0.0,
			"-0.024": 0.0,
			"-0.023": 0.0,
			"-0.022": 0.0,
			"-0.021": 0.0,
			"-0.02": 0.0,
			"-0.019": 0.0,
			"-0.018": 0.0,
			"-0.017": 0.0,
			"-0.016": 0.0,
			"-0.015": 0.0,
			"-0.014": 0.0881517610505,
			"-0.013": 0.761508642867,
			"-0.012": 1.04556937458,
			"-0.011": 0.765631483979,
			"-0.01": 0.375786150782,
			"-0.009": 2.63408569937,
			"-0.008": 4.95652154924,
			"-0.007": 6.49396933054,
			"-0.006": 25.960126476,
			"-0.005": 31.4242019912,
			"-0.004": 32.2394847293,
			"-0.003": 25.2386985931,
			"-0.002": 20.4755035199,
			"-0.001": 19.8194676866,
			"0.0": 16.1415731947,
			"0.001": 18.5899785433,
			"0.002": 18.1763541257,
			"0.003": 18.314674149,
			"0.004": 23.3546835842,
			"0.005": 24.6679412095,
			"0.006": 17.1784126339,
			"0.007": 4.00854958822,
			"0.008": 3.00570961511,
			"0.009": 2.74840719164,
			"0.01": 2.45540787055,
			"0.011": 2.31803567785,
			"0.012": 2.51481878014,
			"0.013": 6.29341962715,
			"0.014": 3.05393680792,
			"0.015": 0.490439348364,
			"0.016": 0.0,
			"0.017": 0.0,
			"0.018": 0.0,
			"0.019": 0.0,
			"0.02": 0.0,
			"0.021": 0.0,
			"0.022": 0.0,
			"0.023": 0.0,
			"0.024": 0.0,
			"0.025": 0.0
		}
	}
}
