{
	 "smiles": "ClC(=O)C1=C(Br)SC=C1", 
	 "Tm": 334.65, 
	 "num_atms": 11, 
	 "gaussian": { 
		 "optdone": 1, 
		 "sigma_profile": "yes", 
		 "theory": "DFT", 
		 "functional": "B3LYP", 
		 "basiset": "6-31G**", 
		 "properties": { 
			 "R2extent": 3921.44, 
			 "electric_dipole_moment_norm": 3.52922164082, 
			 "electric_quadrupole_moment_norm": 11.3256954934, 
			 "total_energy": -3696.71900085, 
			 "HOMO_LUMO_gap": 0.17567, 
			 "cosmo_polarized_energy": -5.72, 
			 "cosmo_cavitation_energy": 21.48, 
			 "cosmo_dispersion_energy": -17.07, 
			 "cosmo_repulsion_energy": 1.34, 
			 "cosmo_total_nonelectrostatic_energy": 5.75, 
			 "SMD_solvation_energy": 3.35 
		},
		"coords": [
			{
				"x": -2.768914947,
				"y": -2.3559472278,
				"z": 0.6923526034,
				"element": "Cl" 
			},
			{
				"x": -2.4333733797,
				"y": -0.6227735295,
				"z": 1.0738577078,
				"element": "C" 
			},
			{
				"x": -2.6187952606,
				"y": -0.2327819931,
				"z": 2.1916712532,
				"element": "O" 
			},
			{
				"x": -1.9422531156,
				"y": 0.2387045305,
				"z": -0.0193831886,
				"element": "C" 
			},
			{
				"x": -1.6663934963,
				"y": -0.0105058501,
				"z": -1.3547585327,
				"element": "C" 
			},
			{
				"x": -1.7890326419,
				"y": -1.5670889621,
				"z": -2.4006075716,
				"element": "Br" 
			},
			{
				"x": -1.1056959459,
				"y": 1.4110785816,
				"z": -2.1731684303,
				"element": "S" 
			},
			{
				"x": -1.2351869907,
				"y": 2.3620207134,
				"z": -0.7259216347,
				"element": "C" 
			},
			{
				"x": -1.6843110941,
				"y": 1.6179304023,
				"z": 0.3173845385,
				"element": "C" 
			},
			{
				"x": -0.970611381,
				"y": 3.4101108558,
				"z": -0.7408766832,
				"element": "H" 
			},
			{
				"x": -1.8443317472,
				"y": 1.9937524791,
				"z": 1.3194499382,
				"element": "H" 
			}
		],
		 "valence_orbital": [ 
			{
				"type": "occ",
				"energy": -0.32124,
				"method": "rhf"
			},
			{
				"type": "occ",
				"energy": -0.30253,
				"method": "rhf"
			},
			{
				"type": "occ",
				"energy": -0.29138,
				"method": "rhf"
			},
			{
				"type": "occ",
				"energy": -0.2866,
				"method": "rhf"
			},
			{
				"type": "occ",
				"energy": -0.25694,
				"method": "rhf"
			},
			{
				"type": "unocc",
				"energy": -0.08127,
				"method": "rhf"
			},
			{
				"type": "unocc",
				"energy": -0.02236,
				"method": "rhf"
			},
			{
				"type": "unocc",
				"energy": -0.02223,
				"method": "rhf"
			},
			{
				"type": "unocc",
				"energy": -0.00372,
				"method": "rhf"
			},
			{
				"type": "unocc",
				"energy": 0.02093,
				"method": "rhf"
			}
		],
		"cosmo_sigma_profile": { 
			"-0.025": 0.0,
			"-0.024": 0.0,
			"-0.023": 0.0,
			"-0.022": 0.0,
			"-0.021": 0.0,
			"-0.02": 0.0,
			"-0.019": 0.0,
			"-0.018": 0.0,
			"-0.017": 0.0,
			"-0.016": 0.0,
			"-0.015": 0.0,
			"-0.014": 0.0,
			"-0.013": 0.0,
			"-0.012": 0.0,
			"-0.011": 0.0375678619188,
			"-0.01": 2.07357020065,
			"-0.009": 2.44766707518,
			"-0.008": 3.06811411346,
			"-0.007": 3.54789575924,
			"-0.006": 5.51591468423,
			"-0.005": 5.21037391234,
			"-0.004": 8.81005226297,
			"-0.003": 8.39607527514,
			"-0.002": 14.8831138544,
			"-0.001": 23.8490529057,
			"0.0": 21.9477608099,
			"0.001": 20.4366895113,
			"0.002": 18.376468405,
			"0.003": 15.0746560318,
			"0.004": 10.941211232,
			"0.005": 3.86987593761,
			"0.006": 2.40599661744,
			"0.007": 2.80750236903,
			"0.008": 3.48194376111,
			"0.009": 3.39695456966,
			"0.01": 0.781459020894,
			"0.011": 0.0,
			"0.012": 0.0,
			"0.013": 0.0,
			"0.014": 0.0,
			"0.015": 0.0,
			"0.016": 0.0,
			"0.017": 0.0,
			"0.018": 0.0,
			"0.019": 0.0,
			"0.02": 0.0,
			"0.021": 0.0,
			"0.022": 0.0,
			"0.023": 0.0,
			"0.024": 0.0,
			"0.025": 0.0
		}
	}
}
