{
	 "smiles": "CN1C(=O)C(C2=NNC(=O)C2=C/C2=NC=CC=C2)=C(O)C2=CC=CC=C12", 
	 "Tm": 565.15, 
	 "num_atms": 40, 
	 "gaussian": { 
		 "optdone": 1, 
		 "sigma_profile": "yes", 
		 "theory": "DFT", 
		 "functional": "B3LYP", 
		 "basiset": "6-31G**", 
		 "properties": { 
			 "R2extent": 11337.3565, 
			 "electric_dipole_moment_norm": 2.1177673928, 
			 "electric_quadrupole_moment_norm": 15.3033786792, 
			 "total_energy": -1177.13731688, 
			 "HOMO_LUMO_gap": 0.11558, 
			 "cosmo_polarized_energy": -18.18, 
			 "cosmo_cavitation_energy": 43.76, 
			 "cosmo_dispersion_energy": -32.39, 
			 "cosmo_repulsion_energy": 2.37, 
			 "cosmo_total_nonelectrostatic_energy": 13.74, 
			 "SMD_solvation_energy": 6.64 
		},
		"coords": [
			{
				"x": -1.2807689461,
				"y": 0.1495754779,
				"z": 2.8402179154,
				"element": "C" 
			},
			{
				"x": -1.6397862928,
				"y": 0.6474541703,
				"z": 1.5121008381,
				"element": "N" 
			},
			{
				"x": -0.6295838565,
				"y": 0.6214162152,
				"z": 0.5291131135,
				"element": "C" 
			},
			{
				"x": 0.5004335005,
				"y": 0.226818688,
				"z": 0.8281580149,
				"element": "O" 
			},
			{
				"x": -0.9908870973,
				"y": 1.0848699664,
				"z": -0.8095423594,
				"element": "C" 
			},
			{
				"x": -0.0295649927,
				"y": 0.9977065088,
				"z": -1.9217107238,
				"element": "C" 
			},
			{
				"x": -0.159388963,
				"y": 1.8658072724,
				"z": -2.9031306865,
				"element": "N" 
			},
			{
				"x": 0.7403183774,
				"y": 1.5457033509,
				"z": -3.889656217,
				"element": "N" 
			},
			{
				"x": 1.5577311666,
				"y": 0.4826319049,
				"z": -3.5754780982,
				"element": "C" 
			},
			{
				"x": 2.4839982261,
				"y": 0.0947046975,
				"z": -4.2817038494,
				"element": "O" 
			},
			{
				"x": 1.0166895201,
				"y": 0.0080955057,
				"z": -2.26092435,
				"element": "C" 
			},
			{
				"x": 1.2744105815,
				"y": -1.1460149456,
				"z": -1.584251278,
				"element": "C" 
			},
			{
				"x": 2.1641406567,
				"y": -2.2826096931,
				"z": -1.825997361,
				"element": "C" 
			},
			{
				"x": 1.9328804141,
				"y": -3.2981037044,
				"z": -0.952779255,
				"element": "N" 
			},
			{
				"x": 2.672559911,
				"y": -4.3977806248,
				"z": -1.0532609304,
				"element": "C" 
			},
			{
				"x": 3.6879437711,
				"y": -4.5644412136,
				"z": -2.0031469154,
				"element": "C" 
			},
			{
				"x": 3.932821783,
				"y": -3.5220404546,
				"z": -2.8924102061,
				"element": "C" 
			},
			{
				"x": 3.1648958811,
				"y": -2.3614731441,
				"z": -2.8119737212,
				"element": "C" 
			},
			{
				"x": -2.2244556626,
				"y": 1.6940058792,
				"z": -1.0150823616,
				"element": "C" 
			},
			{
				"x": -2.5736352059,
				"y": 2.2875813427,
				"z": -2.1565634612,
				"element": "O" 
			},
			{
				"x": -3.23247304,
				"y": 1.6980591,
				"z": 0.0199002981,
				"element": "C" 
			},
			{
				"x": -4.5132012037,
				"y": 2.2340567771,
				"z": -0.2100771307,
				"element": "C" 
			},
			{
				"x": -5.4772151053,
				"y": 2.2178919357,
				"z": 0.7845237881,
				"element": "C" 
			},
			{
				"x": -5.1626608401,
				"y": 1.6670008755,
				"z": 2.0346342962,
				"element": "C" 
			},
			{
				"x": -3.902916104,
				"y": 1.1410197301,
				"z": 2.288969167,
				"element": "C" 
			},
			{
				"x": -2.9138163362,
				"y": 1.1474893847,
				"z": 1.2844182074,
				"element": "C" 
			},
			{
				"x": -0.2390488556,
				"y": -0.1583853319,
				"z": 2.7969629137,
				"element": "H" 
			},
			{
				"x": -1.4006543539,
				"y": 0.9359161518,
				"z": 3.5919138018,
				"element": "H" 
			},
			{
				"x": -1.9068227369,
				"y": -0.7060479741,
				"z": 3.1122540865,
				"element": "H" 
			},
			{
				"x": 0.8905694846,
				"y": 2.1839903993,
				"z": -4.655344881,
				"element": "H" 
			},
			{
				"x": 0.7149558681,
				"y": -1.2914425468,
				"z": -0.668760623,
				"element": "H" 
			},
			{
				"x": 2.4534710911,
				"y": -5.1900627824,
				"z": -0.3390343712,
				"element": "H" 
			},
			{
				"x": 4.2645466205,
				"y": -5.4838037093,
				"z": -2.0334919423,
				"element": "H" 
			},
			{
				"x": 4.7130607653,
				"y": -3.6049459135,
				"z": -3.6434243748,
				"element": "H" 
			},
			{
				"x": 3.3167276324,
				"y": -1.5298751764,
				"z": -3.4882831996,
				"element": "H" 
			},
			{
				"x": -1.7613293587,
				"y": 2.31981749,
				"z": -2.7342801871,
				"element": "H" 
			},
			{
				"x": -4.723109833,
				"y": 2.6557901341,
				"z": -1.1859820361,
				"element": "H" 
			},
			{
				"x": -6.463899956,
				"y": 2.6294412264,
				"z": 0.5985597647,
				"element": "H" 
			},
			{
				"x": -5.9095507293,
				"y": 1.6499543057,
				"z": 2.8231417545,
				"element": "H" 
			},
			{
				"x": -3.6876857815,
				"y": 0.7261287243,
				"z": 3.2649225602,
				"element": "H" 
			}
		],
		 "valence_orbital": [ 
			{
				"type": "occ",
				"energy": -0.25669,
				"method": "rhf"
			},
			{
				"type": "occ",
				"energy": -0.25469,
				"method": "rhf"
			},
			{
				"type": "occ",
				"energy": -0.24086,
				"method": "rhf"
			},
			{
				"type": "occ",
				"energy": -0.22562,
				"method": "rhf"
			},
			{
				"type": "occ",
				"energy": -0.211,
				"method": "rhf"
			},
			{
				"type": "unocc",
				"energy": -0.09542,
				"method": "rhf"
			},
			{
				"type": "unocc",
				"energy": -0.05329,
				"method": "rhf"
			},
			{
				"type": "unocc",
				"energy": -0.02234,
				"method": "rhf"
			},
			{
				"type": "unocc",
				"energy": -0.01133,
				"method": "rhf"
			},
			{
				"type": "unocc",
				"energy": 0.00664,
				"method": "rhf"
			}
		],
		"cosmo_sigma_profile": { 
			"-0.025": 0.0,
			"-0.024": 0.0,
			"-0.023": 0.0,
			"-0.022": 0.0,
			"-0.021": 0.0,
			"-0.02": 0.0,
			"-0.019": 0.0,
			"-0.018": 0.0,
			"-0.017": 0.336095059514,
			"-0.016": 1.39521178905,
			"-0.015": 1.3042896304,
			"-0.014": 1.1799354247,
			"-0.013": 1.04771646888,
			"-0.012": 0.36016032358,
			"-0.011": 0.908391719196,
			"-0.01": 0.682904419864,
			"-0.009": 0.688888610336,
			"-0.008": 2.49001774291,
			"-0.007": 11.6911199179,
			"-0.006": 19.7990508481,
			"-0.005": 21.5000904444,
			"-0.004": 22.4968290779,
			"-0.003": 21.5570734625,
			"-0.002": 28.9613387176,
			"-0.001": 31.5904780998,
			"0.0": 33.2446480049,
			"0.001": 34.9413744688,
			"0.002": 28.6878784017,
			"0.003": 18.4437005457,
			"0.004": 16.5170584691,
			"0.005": 9.01028109393,
			"0.006": 6.96263732556,
			"0.007": 7.30847534477,
			"0.008": 5.13850953026,
			"0.009": 4.80233188437,
			"0.01": 4.0425666373,
			"0.011": 4.81964588966,
			"0.012": 5.02575209554,
			"0.013": 4.84984754453,
			"0.014": 1.45492990821,
			"0.015": 0.17563674791,
			"0.016": 0.0,
			"0.017": 0.0,
			"0.018": 0.0,
			"0.019": 0.0,
			"0.02": 0.0,
			"0.021": 0.0,
			"0.022": 0.0,
			"0.023": 0.0,
			"0.024": 0.0,
			"0.025": 0.0
		}
	}
}
