{
	 "smiles": "S1C=CC=C1C1=CC=CS1", 
	 "Tm": 305.65, 
	 "num_atms": 16, 
	 "gaussian": { 
		 "optdone": 1, 
		 "sigma_profile": "yes", 
		 "theory": "DFT", 
		 "functional": "B3LYP", 
		 "basiset": "6-31G**", 
		 "properties": { 
			 "R2extent": 2588.5409, 
			 "electric_dipole_moment_norm": 1.11161128998, 
			 "electric_quadrupole_moment_norm": 12.1755539049, 
			 "total_energy": -1104.81350245, 
			 "HOMO_LUMO_gap": 0.16399, 
			 "cosmo_polarized_energy": -5.35, 
			 "cosmo_cavitation_energy": 23.23, 
			 "cosmo_dispersion_energy": -18.34, 
			 "cosmo_repulsion_energy": 1.37, 
			 "cosmo_total_nonelectrostatic_energy": 6.25, 
			 "SMD_solvation_energy": 3.9 
		},
		"coords": [
			{
				"x": -2.495024494,
				"y": 0.7443984319,
				"z": 1.534056032,
				"element": "S" 
			},
			{
				"x": -4.0024344846,
				"y": 0.7001699878,
				"z": 0.6787274601,
				"element": "C" 
			},
			{
				"x": -3.8175302336,
				"y": 0.806563876,
				"z": -0.672730368,
				"element": "C" 
			},
			{
				"x": -2.4470210338,
				"y": 0.9424665432,
				"z": -1.0355163138,
				"element": "C" 
			},
			{
				"x": -1.5893945049,
				"y": 0.9305027598,
				"z": 0.0432130127,
				"element": "C" 
			},
			{
				"x": -0.1388222723,
				"y": 1.0221211216,
				"z": 0.0253174186,
				"element": "C" 
			},
			{
				"x": 0.7190067776,
				"y": 0.6022436313,
				"z": -0.9682382227,
				"element": "C" 
			},
			{
				"x": 2.0894421828,
				"y": 0.8656553688,
				"z": -0.6838209426,
				"element": "C" 
			},
			{
				"x": 2.274090082,
				"y": 1.4763773796,
				"z": 0.5264957542,
				"element": "C" 
			},
			{
				"x": 0.766507744,
				"y": 1.7596390707,
				"z": 1.3344497395,
				"element": "S" 
			},
			{
				"x": -4.929735769,
				"y": 0.6008644958,
				"z": 1.2254670557,
				"element": "H" 
			},
			{
				"x": -4.6322572512,
				"y": 0.8024697599,
				"z": -1.387942482,
				"element": "H" 
			},
			{
				"x": -2.1002304796,
				"y": 1.07310271,
				"z": -2.0540627066,
				"element": "H" 
			},
			{
				"x": 0.3724056706,
				"y": 0.0952560611,
				"z": -1.8613191922,
				"element": "H" 
			},
			{
				"x": 2.9043091735,
				"y": 0.5984185789,
				"z": -1.347071073,
				"element": "H" 
			},
			{
				"x": 3.2012888926,
				"y": 1.7755502237,
				"z": 0.9949748281,
				"element": "H" 
			}
		],
		 "valence_orbital": [ 
			{
				"type": "occ",
				"energy": -0.33691,
				"method": "rhf"
			},
			{
				"type": "occ",
				"energy": -0.26814,
				"method": "rhf"
			},
			{
				"type": "occ",
				"energy": -0.25408,
				"method": "rhf"
			},
			{
				"type": "occ",
				"energy": -0.25103,
				"method": "rhf"
			},
			{
				"type": "occ",
				"energy": -0.20561,
				"method": "rhf"
			},
			{
				"type": "unocc",
				"energy": -0.04162,
				"method": "rhf"
			},
			{
				"type": "unocc",
				"energy": 0.0034,
				"method": "rhf"
			},
			{
				"type": "unocc",
				"energy": 0.02152,
				"method": "rhf"
			},
			{
				"type": "unocc",
				"energy": 0.05294,
				"method": "rhf"
			},
			{
				"type": "unocc",
				"energy": 0.0602,
				"method": "rhf"
			}
		],
		"cosmo_sigma_profile": { 
			"-0.025": 0.0,
			"-0.024": 0.0,
			"-0.023": 0.0,
			"-0.022": 0.0,
			"-0.021": 0.0,
			"-0.02": 0.0,
			"-0.019": 0.0,
			"-0.018": 0.0,
			"-0.017": 0.0,
			"-0.016": 0.0,
			"-0.015": 0.0,
			"-0.014": 0.0,
			"-0.013": 0.0,
			"-0.012": 0.0,
			"-0.011": 0.0,
			"-0.01": 0.0,
			"-0.009": 1.0118901407,
			"-0.008": 4.01190493154,
			"-0.007": 7.05391752286,
			"-0.006": 11.541538782,
			"-0.005": 12.2096708391,
			"-0.004": 11.6690123125,
			"-0.003": 10.8883943316,
			"-0.002": 9.39964812196,
			"-0.001": 8.68587527822,
			"0.0": 12.8147802013,
			"0.001": 16.2101842704,
			"0.002": 18.6364496923,
			"0.003": 19.9780483714,
			"0.004": 28.1368835926,
			"0.005": 16.6076260377,
			"0.006": 2.69414642487,
			"0.007": 0.0,
			"0.008": 0.0,
			"0.009": 0.0,
			"0.01": 0.0,
			"0.011": 0.0,
			"0.012": 0.0,
			"0.013": 0.0,
			"0.014": 0.0,
			"0.015": 0.0,
			"0.016": 0.0,
			"0.017": 0.0,
			"0.018": 0.0,
			"0.019": 0.0,
			"0.02": 0.0,
			"0.021": 0.0,
			"0.022": 0.0,
			"0.023": 0.0,
			"0.024": 0.0,
			"0.025": 0.0
		}
	}
}
