{
	 "smiles": "ClC1=CC=C(Cl)C(NN=C(/C#N)C2=NC3=C(N2)C=CC=C3)=C1", 
	 "Tm": 574.15, 
	 "num_atms": 31, 
	 "gaussian": { 
		 "optdone": 1, 
		 "sigma_profile": "yes", 
		 "theory": "DFT", 
		 "functional": "B3LYP", 
		 "basiset": "6-31G**", 
		 "properties": { 
			 "R2extent": 11461.7917, 
			 "electric_dipole_moment_norm": 5.08906362507, 
			 "electric_quadrupole_moment_norm": 10.0064065513, 
			 "total_energy": -1771.1180468, 
			 "HOMO_LUMO_gap": 0.12893, 
			 "cosmo_polarized_energy": -18.63, 
			 "cosmo_cavitation_energy": 42.0, 
			 "cosmo_dispersion_energy": -29.75, 
			 "cosmo_repulsion_energy": 2.25, 
			 "cosmo_total_nonelectrostatic_energy": 14.5, 
			 "SMD_solvation_energy": 5.05 
		},
		"coords": [
			{
				"x": -1.7049025292,
				"y": -4.2472383088,
				"z": -5.0660322753,
				"element": "Cl" 
			},
			{
				"x": -2.0528084569,
				"y": -3.1701219841,
				"z": -3.7289607069,
				"element": "C" 
			},
			{
				"x": -3.2978666375,
				"y": -3.2218504442,
				"z": -3.1037579212,
				"element": "C" 
			},
			{
				"x": -3.5476267708,
				"y": -2.3504122158,
				"z": -2.0475871384,
				"element": "C" 
			},
			{
				"x": -2.5847940083,
				"y": -1.4381530405,
				"z": -1.612770367,
				"element": "C" 
			},
			{
				"x": -3.0563121371,
				"y": -0.3171913659,
				"z": -0.3506006399,
				"element": "Cl" 
			},
			{
				"x": -1.3171098216,
				"y": -1.4094695216,
				"z": -2.2277040141,
				"element": "C" 
			},
			{
				"x": -0.2774775596,
				"y": -0.5320020057,
				"z": -1.8930392663,
				"element": "N" 
			},
			{
				"x": -0.0632733351,
				"y": -0.1118203283,
				"z": -0.6515486018,
				"element": "N" 
			},
			{
				"x": 0.985169609,
				"y": 0.6173746382,
				"z": -0.3827713337,
				"element": "C" 
			},
			{
				"x": 1.9427789327,
				"y": 0.9572166955,
				"z": -1.3988558737,
				"element": "C" 
			},
			{
				"x": 2.6116366638,
				"y": 1.1293287548,
				"z": -2.3361425063,
				"element": "N" 
			},
			{
				"x": 1.1814766918,
				"y": 1.08379112,
				"z": 0.9801073035,
				"element": "C" 
			},
			{
				"x": 2.2125963435,
				"y": 1.7894651229,
				"z": 1.3934574733,
				"element": "N" 
			},
			{
				"x": 1.973790212,
				"y": 2.0000823164,
				"z": 2.739889021,
				"element": "C" 
			},
			{
				"x": 0.7505167853,
				"y": 1.3911340361,
				"z": 3.1282478471,
				"element": "C" 
			},
			{
				"x": 0.2669413507,
				"y": 0.8090393541,
				"z": 1.9721768446,
				"element": "N" 
			},
			{
				"x": 0.2661554722,
				"y": 1.4507362406,
				"z": 4.4364656796,
				"element": "C" 
			},
			{
				"x": 1.0453449512,
				"y": 2.14319162,
				"z": 5.3595954735,
				"element": "C" 
			},
			{
				"x": 2.2632646844,
				"y": 2.7538723056,
				"z": 4.992171312,
				"element": "C" 
			},
			{
				"x": 2.7407175774,
				"y": 2.6916234187,
				"z": 3.6885334168,
				"element": "C" 
			},
			{
				"x": -1.0706943677,
				"y": -2.2888307458,
				"z": -3.2960918078,
				"element": "C" 
			},
			{
				"x": -4.0568665714,
				"y": -3.9184430567,
				"z": -3.4389973594,
				"element": "H" 
			},
			{
				"x": -4.5150010378,
				"y": -2.3566479726,
				"z": -1.5579411604,
				"element": "H" 
			},
			{
				"x": 0.4432855469,
				"y": -0.3764593885,
				"z": -2.5978560097,
				"element": "H" 
			},
			{
				"x": -0.5894260966,
				"y": 0.2924575677,
				"z": 1.8368701261,
				"element": "H" 
			},
			{
				"x": -0.6699920626,
				"y": 0.9826585321,
				"z": 4.7246444857,
				"element": "H" 
			},
			{
				"x": 0.7067180058,
				"y": 2.2148488014,
				"z": 6.3888945073,
				"element": "H" 
			},
			{
				"x": 2.8360658784,
				"y": 3.2827404475,
				"z": 5.7479061418,
				"element": "H" 
			},
			{
				"x": 3.6759821807,
				"y": 3.1584716421,
				"z": 3.3979277836,
				"element": "H" 
			},
			{
				"x": -0.0963894935,
				"y": -2.2865922352,
				"z": -3.7737304339,
				"element": "H" 
			}
		],
		 "valence_orbital": [ 
			{
				"type": "occ",
				"energy": -0.28282,
				"method": "rhf"
			},
			{
				"type": "occ",
				"energy": -0.27009,
				"method": "rhf"
			},
			{
				"type": "occ",
				"energy": -0.25481,
				"method": "rhf"
			},
			{
				"type": "occ",
				"energy": -0.2328,
				"method": "rhf"
			},
			{
				"type": "occ",
				"energy": -0.21685,
				"method": "rhf"
			},
			{
				"type": "unocc",
				"energy": -0.08792,
				"method": "rhf"
			},
			{
				"type": "unocc",
				"energy": -0.04209,
				"method": "rhf"
			},
			{
				"type": "unocc",
				"energy": -0.02714,
				"method": "rhf"
			},
			{
				"type": "unocc",
				"energy": -0.0111,
				"method": "rhf"
			},
			{
				"type": "unocc",
				"energy": 0.0005,
				"method": "rhf"
			}
		],
		"cosmo_sigma_profile": { 
			"-0.025": 0.0,
			"-0.024": 0.0,
			"-0.023": 0.0,
			"-0.022": 0.0,
			"-0.021": 0.0,
			"-0.02": 0.0,
			"-0.019": 0.0,
			"-0.018": 0.0,
			"-0.017": 0.0,
			"-0.016": 0.616339033437,
			"-0.015": 1.56152261835,
			"-0.014": 1.65256878252,
			"-0.013": 1.92836458456,
			"-0.012": 2.17714394085,
			"-0.011": 2.33219618088,
			"-0.01": 2.55186842558,
			"-0.009": 3.76898495655,
			"-0.008": 7.33068772521,
			"-0.007": 9.42891156914,
			"-0.006": 12.6881097975,
			"-0.005": 14.8206375066,
			"-0.004": 17.2017394422,
			"-0.003": 20.7939989787,
			"-0.002": 22.8309168921,
			"-0.001": 24.6991235482,
			"0.0": 30.9308052922,
			"0.001": 35.3419624673,
			"0.002": 27.6648326851,
			"0.003": 24.0518142819,
			"0.004": 30.4920490895,
			"0.005": 15.5678320117,
			"0.006": 9.4113573181,
			"0.007": 4.95964758873,
			"0.008": 3.54017985231,
			"0.009": 4.31850008661,
			"0.01": 3.5470827385,
			"0.011": 3.64421940473,
			"0.012": 1.88472547411,
			"0.013": 0.999842839579,
			"0.014": 0.87091206816,
			"0.015": 0.916194303634,
			"0.016": 0.211233209441,
			"0.017": 0.0,
			"0.018": 0.0,
			"0.019": 0.0,
			"0.02": 0.0,
			"0.021": 0.0,
			"0.022": 0.0,
			"0.023": 0.0,
			"0.024": 0.0,
			"0.025": 0.0
		}
	}
}
