{
	 "smiles": "CCOP(=O)(NC(C)C)OC1=CC=C(SC)C(C)=C1", 
	 "Tm": 322.15, 
	 "num_atms": 41, 
	 "gaussian": { 
		 "optdone": 1, 
		 "sigma_profile": "yes", 
		 "theory": "DFT", 
		 "functional": "B3LYP", 
		 "basiset": "6-31G**", 
		 "properties": { 
			 "R2extent": 8447.9532, 
			 "electric_dipole_moment_norm": 3.14905946117, 
			 "electric_quadrupole_moment_norm": 12.9310250104, 
			 "total_energy": -1528.70075544, 
			 "HOMO_LUMO_gap": 0.20825, 
			 "cosmo_polarized_energy": -14.09, 
			 "cosmo_cavitation_energy": 46.7, 
			 "cosmo_dispersion_energy": -31.27, 
			 "cosmo_repulsion_energy": 2.43, 
			 "cosmo_total_nonelectrostatic_energy": 17.86, 
			 "SMD_solvation_energy": 9.57 
		},
		"coords": [
			{
				"x": 0.4569538258,
				"y": -4.6053700829,
				"z": 2.1859584537,
				"element": "C" 
			},
			{
				"x": 0.5114360646,
				"y": -3.1548112654,
				"z": 2.6365934919,
				"element": "C" 
			},
			{
				"x": 1.3365012874,
				"y": -2.3552224316,
				"z": 1.7456380228,
				"element": "O" 
			},
			{
				"x": 0.685894485,
				"y": -1.6703095455,
				"z": 0.4395477138,
				"element": "P" 
			},
			{
				"x": -0.0575007163,
				"y": -2.5698481811,
				"z": -0.4775558928,
				"element": "O" 
			},
			{
				"x": 1.9127220303,
				"y": -0.8222713111,
				"z": -0.2756811968,
				"element": "N" 
			},
			{
				"x": 2.706513375,
				"y": -1.3647321592,
				"z": -1.397830461,
				"element": "C" 
			},
			{
				"x": 3.0992301003,
				"y": -0.2205955635,
				"z": -2.3368393013,
				"element": "C" 
			},
			{
				"x": 3.9255234659,
				"y": -2.1565165431,
				"z": -0.9068017342,
				"element": "C" 
			},
			{
				"x": -0.19349962,
				"y": -0.516594343,
				"z": 1.2009290657,
				"element": "O" 
			},
			{
				"x": -1.0325739578,
				"y": 0.3891462896,
				"z": 0.5591770929,
				"element": "C" 
			},
			{
				"x": -1.115726242,
				"y": 1.6599927726,
				"z": 1.1240714483,
				"element": "C" 
			},
			{
				"x": -1.9730484875,
				"y": 2.594322036,
				"z": 0.5498276325,
				"element": "C" 
			},
			{
				"x": -2.7434401658,
				"y": 2.2776042792,
				"z": -0.5773938236,
				"element": "C" 
			},
			{
				"x": -3.8607333238,
				"y": 3.5324813389,
				"z": -1.2161755783,
				"element": "S" 
			},
			{
				"x": -2.9239163235,
				"y": 4.1590948128,
				"z": -2.6637668388,
				"element": "C" 
			},
			{
				"x": -2.668511939,
				"y": 0.9817265364,
				"z": -1.1349479309,
				"element": "C" 
			},
			{
				"x": -3.490802575,
				"y": 0.5703829955,
				"z": -2.3324352398,
				"element": "C" 
			},
			{
				"x": -1.8036466995,
				"y": 0.0461052309,
				"z": -0.5519599145,
				"element": "C" 
			},
			{
				"x": -0.127358009,
				"y": -5.1945238867,
				"z": 2.9012900586,
				"element": "H" 
			},
			{
				"x": 1.464033886,
				"y": -5.0294998276,
				"z": 2.1327837413,
				"element": "H" 
			},
			{
				"x": -0.0088202788,
				"y": -4.6821905388,
				"z": 1.2007908524,
				"element": "H" 
			},
			{
				"x": -0.4891279508,
				"y": -2.7144079313,
				"z": 2.6997089807,
				"element": "H" 
			},
			{
				"x": 0.9837700215,
				"y": -3.0572239245,
				"z": 3.6178225215,
				"element": "H" 
			},
			{
				"x": 2.407599296,
				"y": -0.1701142174,
				"z": 0.3231448862,
				"element": "H" 
			},
			{
				"x": 2.03152029,
				"y": -2.0426001445,
				"z": -1.9292822466,
				"element": "H" 
			},
			{
				"x": 3.6490323967,
				"y": -0.6036568902,
				"z": -3.2024300639,
				"element": "H" 
			},
			{
				"x": 2.2122350731,
				"y": 0.3103338871,
				"z": -2.6921756592,
				"element": "H" 
			},
			{
				"x": 3.748048087,
				"y": 0.5013255628,
				"z": -1.8252967995,
				"element": "H" 
			},
			{
				"x": 4.6143011138,
				"y": -1.5074155048,
				"z": -0.3522598555,
				"element": "H" 
			},
			{
				"x": 3.6206199301,
				"y": -2.9706375567,
				"z": -0.2433759926,
				"element": "H" 
			},
			{
				"x": 4.4771332173,
				"y": -2.5857738245,
				"z": -1.7500075757,
				"element": "H" 
			},
			{
				"x": -0.5182625533,
				"y": 1.899171531,
				"z": 1.9973622854,
				"element": "H" 
			},
			{
				"x": -2.0516088745,
				"y": 3.5888026686,
				"z": 0.9771860453,
				"element": "H" 
			},
			{
				"x": -1.9547642159,
				"y": 4.5566132839,
				"z": -2.3555007494,
				"element": "H" 
			},
			{
				"x": -3.5232016902,
				"y": 4.966315541,
				"z": -3.0920750407,
				"element": "H" 
			},
			{
				"x": -2.7839821035,
				"y": 3.383460855,
				"z": -3.4196986502,
				"element": "H" 
			},
			{
				"x": -3.1065457206,
				"y": 1.0199071074,
				"z": -3.2561194821,
				"element": "H" 
			},
			{
				"x": -3.4694030534,
				"y": -0.5143221191,
				"z": -2.4633356995,
				"element": "H" 
			},
			{
				"x": -4.5296013034,
				"y": 0.8956681238,
				"z": -2.2306581502,
				"element": "H" 
			},
			{
				"x": -1.7319921423,
				"y": -0.9580170602,
				"z": -0.955128416,
				"element": "H" 
			}
		],
		 "valence_orbital": [ 
			{
				"type": "occ",
				"energy": -0.28261,
				"method": "rhf"
			},
			{
				"type": "occ",
				"energy": -0.2603,
				"method": "rhf"
			},
			{
				"type": "occ",
				"energy": -0.24745,
				"method": "rhf"
			},
			{
				"type": "occ",
				"energy": -0.23461,
				"method": "rhf"
			},
			{
				"type": "occ",
				"energy": -0.21969,
				"method": "rhf"
			},
			{
				"type": "unocc",
				"energy": -0.01144,
				"method": "rhf"
			},
			{
				"type": "unocc",
				"energy": -0.00308,
				"method": "rhf"
			},
			{
				"type": "unocc",
				"energy": 0.05678,
				"method": "rhf"
			},
			{
				"type": "unocc",
				"energy": 0.06238,
				"method": "rhf"
			},
			{
				"type": "unocc",
				"energy": 0.07903,
				"method": "rhf"
			}
		],
		"cosmo_sigma_profile": { 
			"-0.025": 0.0,
			"-0.024": 0.0,
			"-0.023": 0.0,
			"-0.022": 0.0,
			"-0.021": 0.0,
			"-0.02": 0.0,
			"-0.019": 0.0,
			"-0.018": 0.0,
			"-0.017": 0.0,
			"-0.016": 0.0,
			"-0.015": 0.0,
			"-0.014": 0.326307858753,
			"-0.013": 1.00280848108,
			"-0.012": 1.10344027978,
			"-0.011": 1.24011987893,
			"-0.01": 0.867191224525,
			"-0.009": 1.10354661071,
			"-0.008": 1.14834374989,
			"-0.007": 2.39464403128,
			"-0.006": 10.1610635899,
			"-0.005": 19.677623431,
			"-0.004": 27.924408911,
			"-0.003": 37.9719282851,
			"-0.002": 37.2234865078,
			"-0.001": 40.7730538181,
			"0.0": 40.028865093,
			"0.001": 32.662131651,
			"0.002": 20.6076903059,
			"0.003": 21.2260329027,
			"0.004": 21.420534387,
			"0.005": 11.7110560744,
			"0.006": 7.47152045319,
			"0.007": 7.51447496216,
			"0.008": 5.07369857861,
			"0.009": 3.88330542927,
			"0.01": 2.87589462063,
			"0.011": 1.29144761656,
			"0.012": 1.65872234384,
			"0.013": 2.03166558739,
			"0.014": 3.19038691234,
			"0.015": 0.194559576184,
			"0.016": 0.0,
			"0.017": 0.0,
			"0.018": 0.0,
			"0.019": 0.0,
			"0.02": 0.0,
			"0.021": 0.0,
			"0.022": 0.0,
			"0.023": 0.0,
			"0.024": 0.0,
			"0.025": 0.0
		}
	}
}
