{
	 "smiles": "NC1=NC(=CS1)C1=NC2=C(S1)C=CC=C2", 
	 "Tm": 522.15, 
	 "num_atms": 22, 
	 "gaussian": { 
		 "optdone": 1, 
		 "sigma_profile": "yes", 
		 "theory": "DFT", 
		 "functional": "B3LYP", 
		 "basiset": "6-31G**", 
		 "properties": { 
			 "R2extent": 5401.9272, 
			 "electric_dipole_moment_norm": 2.59563486839, 
			 "electric_quadrupole_moment_norm": 22.7073428283, 
			 "total_energy": -1345.92114925, 
			 "HOMO_LUMO_gap": 0.15556, 
			 "cosmo_polarized_energy": -13.22, 
			 "cosmo_cavitation_energy": 30.21, 
			 "cosmo_dispersion_energy": -23.71, 
			 "cosmo_repulsion_energy": 1.75, 
			 "cosmo_total_nonelectrostatic_energy": 8.26, 
			 "SMD_solvation_energy": 1.56 
		},
		"coords": [
			{
				"x": 3.7726038135,
				"y": 4.1881309135,
				"z": -0.5874754943,
				"element": "N" 
			},
			{
				"x": 2.5673752509,
				"y": 3.6199853407,
				"z": -0.9219966371,
				"element": "C" 
			},
			{
				"x": 2.0274194832,
				"y": 2.6235352946,
				"z": -0.2856619099,
				"element": "N" 
			},
			{
				"x": 0.8557814134,
				"y": 2.2222460897,
				"z": -0.904649611,
				"element": "C" 
			},
			{
				"x": 0.4893950837,
				"y": 2.9229043782,
				"z": -2.0203082061,
				"element": "C" 
			},
			{
				"x": 1.6707555364,
				"y": 4.1552622348,
				"z": -2.357219102,
				"element": "S" 
			},
			{
				"x": 0.0974863464,
				"y": 1.1145715784,
				"z": -0.3368674571,
				"element": "C" 
			},
			{
				"x": -1.0182261989,
				"y": 0.6563702627,
				"z": -0.8206835841,
				"element": "N" 
			},
			{
				"x": -1.4935323244,
				"y": -0.3957259395,
				"z": -0.0610169669,
				"element": "C" 
			},
			{
				"x": -0.6924283056,
				"y": -0.7489272939,
				"z": 1.0555343787,
				"element": "C" 
			},
			{
				"x": 0.7064951816,
				"y": 0.3025262153,
				"z": 1.1249901252,
				"element": "S" 
			},
			{
				"x": -1.0565027547,
				"y": -1.7949302663,
				"z": 1.9076872813,
				"element": "C" 
			},
			{
				"x": -2.2328751106,
				"y": -2.4880592356,
				"z": 1.6340310052,
				"element": "C" 
			},
			{
				"x": -3.0351303947,
				"y": -2.1468861185,
				"z": 0.5301429355,
				"element": "C" 
			},
			{
				"x": -2.6758208775,
				"y": -1.1079112926,
				"z": -0.3186738769,
				"element": "C" 
			},
			{
				"x": 3.9005056164,
				"y": 5.165164745,
				"z": -0.807607654,
				"element": "H" 
			},
			{
				"x": 4.0949257474,
				"y": 3.9247175822,
				"z": 0.3345534971,
				"element": "H" 
			},
			{
				"x": -0.3870833701,
				"y": 2.7822731278,
				"z": -2.6338557396,
				"element": "H" 
			},
			{
				"x": -0.4410382468,
				"y": -2.0625788797,
				"z": 2.7607877656,
				"element": "H" 
			},
			{
				"x": -2.5337070065,
				"y": -3.3043793503,
				"z": 2.284023519,
				"element": "H" 
			},
			{
				"x": -3.9473333168,
				"y": -2.7047656523,
				"z": 0.3406482045,
				"element": "H" 
			},
			{
				"x": -3.2840655665,
				"y": -0.8331237342,
				"z": -1.1741824729,
				"element": "H" 
			}
		],
		 "valence_orbital": [ 
			{
				"type": "occ",
				"energy": -0.28563,
				"method": "rhf"
			},
			{
				"type": "occ",
				"energy": -0.27157,
				"method": "rhf"
			},
			{
				"type": "occ",
				"energy": -0.24409,
				"method": "rhf"
			},
			{
				"type": "occ",
				"energy": -0.22832,
				"method": "rhf"
			},
			{
				"type": "occ",
				"energy": -0.20731,
				"method": "rhf"
			},
			{
				"type": "unocc",
				"energy": -0.05175,
				"method": "rhf"
			},
			{
				"type": "unocc",
				"energy": -0.00422,
				"method": "rhf"
			},
			{
				"type": "unocc",
				"energy": 0.00013,
				"method": "rhf"
			},
			{
				"type": "unocc",
				"energy": 0.00129,
				"method": "rhf"
			},
			{
				"type": "unocc",
				"energy": 0.03088,
				"method": "rhf"
			}
		],
		"cosmo_sigma_profile": { 
			"-0.025": 0.0,
			"-0.024": 0.0,
			"-0.023": 0.0,
			"-0.022": 0.0,
			"-0.021": 0.0,
			"-0.02": 0.0,
			"-0.019": 0.0,
			"-0.018": 0.0,
			"-0.017": 0.0,
			"-0.016": 0.0841013257604,
			"-0.015": 1.19196048219,
			"-0.014": 2.12874032295,
			"-0.013": 2.80049317842,
			"-0.012": 3.07501361487,
			"-0.011": 2.43306359568,
			"-0.01": 2.36776306222,
			"-0.009": 2.93660396771,
			"-0.008": 3.26591387988,
			"-0.007": 6.21339911587,
			"-0.006": 11.1628400573,
			"-0.005": 11.7078525394,
			"-0.004": 11.7440484567,
			"-0.003": 10.5869085794,
			"-0.002": 10.9405656349,
			"-0.001": 11.1652663625,
			"0.0": 18.4291924026,
			"0.001": 23.7783561609,
			"0.002": 27.239800944,
			"0.003": 27.9889607477,
			"0.004": 21.7311412648,
			"0.005": 12.2135521114,
			"0.006": 4.95328941574,
			"0.007": 4.09540513924,
			"0.008": 2.94718183011,
			"0.009": 3.35424279358,
			"0.01": 3.30437779229,
			"0.011": 2.88455351855,
			"0.012": 0.869613921298,
			"0.013": 0.398016384,
			"0.014": 0.0,
			"0.015": 0.0,
			"0.016": 0.0,
			"0.017": 0.0,
			"0.018": 0.0,
			"0.019": 0.0,
			"0.02": 0.0,
			"0.021": 0.0,
			"0.022": 0.0,
			"0.023": 0.0,
			"0.024": 0.0,
			"0.025": 0.0
		}
	}
}
