{
	 "smiles": "CC(C)OCC1=C(CNC(=O)CCl)C=CC=C1", 
	 "Tm": 314.15, 
	 "num_atms": 35, 
	 "gaussian": { 
		 "optdone": 1, 
		 "sigma_profile": "yes", 
		 "theory": "DFT", 
		 "functional": "B3LYP", 
		 "basiset": "6-31G**", 
		 "properties": { 
			 "R2extent": 6389.4585, 
			 "electric_dipole_moment_norm": 2.92402219896, 
			 "electric_quadrupole_moment_norm": 9.63604759899, 
			 "total_energy": -1171.64260425, 
			 "HOMO_LUMO_gap": 0.23045, 
			 "cosmo_polarized_energy": -13.38, 
			 "cosmo_cavitation_energy": 39.61, 
			 "cosmo_dispersion_energy": -27.04, 
			 "cosmo_repulsion_energy": 2.17, 
			 "cosmo_total_nonelectrostatic_energy": 14.75, 
			 "SMD_solvation_energy": 6.3 
		},
		"coords": [
			{
				"x": -4.5051881103,
				"y": 0.1404915555,
				"z": 0.7524432507,
				"element": "C" 
			},
			{
				"x": -3.3157205264,
				"y": 0.5976184599,
				"z": -0.0855026951,
				"element": "C" 
			},
			{
				"x": -3.2268652657,
				"y": -0.1489067739,
				"z": -1.4201379983,
				"element": "C" 
			},
			{
				"x": -2.155157672,
				"y": 0.3914237655,
				"z": 0.7281099929,
				"element": "O" 
			},
			{
				"x": -0.9856756436,
				"y": 1.0795073737,
				"z": 0.2986061815,
				"element": "C" 
			},
			{
				"x": 0.0782075462,
				"y": 0.9980849026,
				"z": 1.3719936495,
				"element": "C" 
			},
			{
				"x": 0.6911553687,
				"y": -0.221583979,
				"z": 1.7213539083,
				"element": "C" 
			},
			{
				"x": 0.320528686,
				"y": -1.5340397415,
				"z": 1.0476854587,
				"element": "C" 
			},
			{
				"x": 1.262448122,
				"y": -1.937301166,
				"z": -0.0004606406,
				"element": "N" 
			},
			{
				"x": 2.3009236773,
				"y": -2.7628915279,
				"z": 0.2511851963,
				"element": "C" 
			},
			{
				"x": 2.5446608251,
				"y": -3.2793000195,
				"z": 1.3377653177,
				"element": "O" 
			},
			{
				"x": 3.2502857423,
				"y": -3.1053613156,
				"z": -0.9002571235,
				"element": "C" 
			},
			{
				"x": 2.8886707459,
				"y": -2.3564344828,
				"z": -2.5180036954,
				"element": "Cl" 
			},
			{
				"x": 1.6812837509,
				"y": -0.2321600184,
				"z": 2.7125137019,
				"element": "C" 
			},
			{
				"x": 2.0686539112,
				"y": 0.9436712535,
				"z": 3.3546296249,
				"element": "C" 
			},
			{
				"x": 1.4591690232,
				"y": 2.1510595221,
				"z": 3.0141884427,
				"element": "C" 
			},
			{
				"x": 0.46943814,
				"y": 2.1694270669,
				"z": 2.0318359939,
				"element": "C" 
			},
			{
				"x": -4.4207898292,
				"y": -0.9271462672,
				"z": 0.9798285729,
				"element": "H" 
			},
			{
				"x": -4.5392849457,
				"y": 0.6891920932,
				"z": 1.6972698458,
				"element": "H" 
			},
			{
				"x": -5.4440605022,
				"y": 0.3063197806,
				"z": 0.2151110815,
				"element": "H" 
			},
			{
				"x": -3.4110488246,
				"y": 1.6783854384,
				"z": -0.2878555649,
				"element": "H" 
			},
			{
				"x": -2.3747878882,
				"y": 0.1837581273,
				"z": -2.0207549165,
				"element": "H" 
			},
			{
				"x": -4.1316549873,
				"y": 0.0204096736,
				"z": -2.0131605345,
				"element": "H" 
			},
			{
				"x": -3.1280907682,
				"y": -1.2259634679,
				"z": -1.2473054896,
				"element": "H" 
			},
			{
				"x": -0.6098487509,
				"y": 0.6546453085,
				"z": -0.6466866521,
				"element": "H" 
			},
			{
				"x": -1.2224117372,
				"y": 2.1354901341,
				"z": 0.0965124639,
				"element": "H" 
			},
			{
				"x": 0.3256402101,
				"y": -2.3379301671,
				"z": 1.7870146018,
				"element": "H" 
			},
			{
				"x": -0.6798088014,
				"y": -1.4774606017,
				"z": 0.6169680616,
				"element": "H" 
			},
			{
				"x": 1.1934117595,
				"y": -1.5206326731,
				"z": -0.9179395816,
				"element": "H" 
			},
			{
				"x": 3.244665246,
				"y": -4.1864484307,
				"z": -1.039288618,
				"element": "H" 
			},
			{
				"x": 4.2558440826,
				"y": -2.7902108598,
				"z": -0.6214098175,
				"element": "H" 
			},
			{
				"x": 2.1512356327,
				"y": -1.1776787327,
				"z": 2.9683299116,
				"element": "H" 
			},
			{
				"x": 2.8382590509,
				"y": 0.9146108139,
				"z": 4.1207319789,
				"element": "H" 
			},
			{
				"x": 1.7472401918,
				"y": 3.0724166773,
				"z": 3.5121927055,
				"element": "H" 
			},
			{
				"x": -0.0104274593,
				"y": 3.1090382783,
				"z": 1.7692933852,
				"element": "H" 
			}
		],
		 "valence_orbital": [ 
			{
				"type": "occ",
				"energy": -0.2652,
				"method": "rhf"
			},
			{
				"type": "occ",
				"energy": -0.26002,
				"method": "rhf"
			},
			{
				"type": "occ",
				"energy": -0.25533,
				"method": "rhf"
			},
			{
				"type": "occ",
				"energy": -0.2479,
				"method": "rhf"
			},
			{
				"type": "occ",
				"energy": -0.24212,
				"method": "rhf"
			},
			{
				"type": "unocc",
				"energy": -0.01167,
				"method": "rhf"
			},
			{
				"type": "unocc",
				"energy": -0.00256,
				"method": "rhf"
			},
			{
				"type": "unocc",
				"energy": 0.01467,
				"method": "rhf"
			},
			{
				"type": "unocc",
				"energy": 0.02183,
				"method": "rhf"
			},
			{
				"type": "unocc",
				"energy": 0.06881,
				"method": "rhf"
			}
		],
		"cosmo_sigma_profile": { 
			"-0.025": 0.0,
			"-0.024": 0.0,
			"-0.023": 0.0,
			"-0.022": 0.0,
			"-0.021": 0.0,
			"-0.02": 0.0,
			"-0.019": 0.0,
			"-0.018": 0.0,
			"-0.017": 0.0,
			"-0.016": 0.0,
			"-0.015": 0.0,
			"-0.014": 0.0,
			"-0.013": 0.0,
			"-0.012": 0.0802201947067,
			"-0.011": 1.01602745559,
			"-0.01": 1.68083925662,
			"-0.009": 3.81019248628,
			"-0.008": 5.93452333605,
			"-0.007": 4.79813542236,
			"-0.006": 8.66781448937,
			"-0.005": 15.6951402203,
			"-0.004": 24.4157840396,
			"-0.003": 35.3400096359,
			"-0.002": 31.2357164689,
			"-0.001": 28.767680664,
			"0.0": 26.3359261948,
			"0.001": 26.7706405971,
			"0.002": 16.3588594344,
			"0.003": 14.4714287713,
			"0.004": 15.0390993782,
			"0.005": 18.6850817379,
			"0.006": 12.0702213275,
			"0.007": 3.76125931733,
			"0.008": 2.26776419657,
			"0.009": 2.70055691458,
			"0.01": 2.50678408734,
			"0.011": 2.06025294014,
			"0.012": 3.17684341325,
			"0.013": 4.31589618513,
			"0.014": 1.91062084964,
			"0.015": 0.0460042702324,
			"0.016": 0.0,
			"0.017": 0.0,
			"0.018": 0.0,
			"0.019": 0.0,
			"0.02": 0.0,
			"0.021": 0.0,
			"0.022": 0.0,
			"0.023": 0.0,
			"0.024": 0.0,
			"0.025": 0.0
		}
	}
}
