{
	 "smiles": "NC1=CC=NN1CC1=CC=CC=C1", 
	 "Tm": 356.15, 
	 "num_atms": 24, 
	 "gaussian": { 
		 "optdone": 1, 
		 "sigma_profile": "yes", 
		 "theory": "DFT", 
		 "functional": "B3LYP", 
		 "basiset": "6-31G**", 
		 "properties": { 
			 "R2extent": 2525.2583, 
			 "electric_dipole_moment_norm": 3.30889105744, 
			 "electric_quadrupole_moment_norm": 5.5041238122, 
			 "total_energy": -551.925825694, 
			 "HOMO_LUMO_gap": 0.19117, 
			 "cosmo_polarized_energy": -12.06, 
			 "cosmo_cavitation_energy": 27.64, 
			 "cosmo_dispersion_energy": -19.8, 
			 "cosmo_repulsion_energy": 1.57, 
			 "cosmo_total_nonelectrostatic_energy": 9.4, 
			 "SMD_solvation_energy": 3.94 
		},
		"coords": [
			{
				"x": 1.3068860607,
				"y": 0.8706983746,
				"z": -1.9415254081,
				"element": "N" 
			},
			{
				"x": 1.7022692183,
				"y": -0.3448653131,
				"z": -1.3744040448,
				"element": "C" 
			},
			{
				"x": 2.9419575586,
				"y": -0.9477983648,
				"z": -1.2149575919,
				"element": "C" 
			},
			{
				"x": 2.6471633079,
				"y": -2.2002083508,
				"z": -0.632002802,
				"element": "C" 
			},
			{
				"x": 1.344078896,
				"y": -2.3766586749,
				"z": -0.4334178938,
				"element": "N" 
			},
			{
				"x": 0.7742909767,
				"y": -1.2326497084,
				"z": -0.9165374688,
				"element": "N" 
			},
			{
				"x": -0.6637463486,
				"y": -1.0413103494,
				"z": -0.8541180353,
				"element": "C" 
			},
			{
				"x": -1.1030513726,
				"y": -0.0941159583,
				"z": 0.2513569857,
				"element": "C" 
			},
			{
				"x": -1.9932995335,
				"y": 0.9516525038,
				"z": -0.0166091879,
				"element": "C" 
			},
			{
				"x": -2.413538461,
				"y": 1.8076941128,
				"z": 1.0056335508,
				"element": "C" 
			},
			{
				"x": -1.9403000194,
				"y": 1.6264520385,
				"z": 2.304847163,
				"element": "C" 
			},
			{
				"x": -1.0461542783,
				"y": 0.5866385624,
				"z": 2.5786967849,
				"element": "C" 
			},
			{
				"x": -0.6295421359,
				"y": -0.2681637346,
				"z": 1.5598471357,
				"element": "C" 
			},
			{
				"x": 2.1023331336,
				"y": 1.4382871297,
				"z": -2.2050745433,
				"element": "H" 
			},
			{
				"x": 0.6860279846,
				"y": 1.4066212592,
				"z": -1.3420977429,
				"element": "H" 
			},
			{
				"x": 3.9061706835,
				"y": -0.5364777062,
				"z": -1.47491104,
				"element": "H" 
			},
			{
				"x": 3.3394781965,
				"y": -2.980694282,
				"z": -0.3435328022,
				"element": "H" 
			},
			{
				"x": -1.0830705611,
				"y": -2.0394640653,
				"z": -0.7020030916,
				"element": "H" 
			},
			{
				"x": -1.0103000586,
				"y": -0.6717325029,
				"z": -1.8254065436,
				"element": "H" 
			},
			{
				"x": -2.364844779,
				"y": 1.0941642507,
				"z": -1.0290741199,
				"element": "H" 
			},
			{
				"x": -3.1056576432,
				"y": 2.6151767659,
				"z": 0.7839329032,
				"element": "H" 
			},
			{
				"x": -2.2633367503,
				"y": 2.2913536982,
				"z": 3.1007459844,
				"element": "H" 
			},
			{
				"x": -0.6743508698,
				"y": 0.4422298245,
				"z": 3.5892063358,
				"element": "H" 
			},
			{
				"x": 0.0681367951,
				"y": -1.0752295096,
				"z": 1.7660054728,
				"element": "H" 
			}
		],
		 "valence_orbital": [ 
			{
				"type": "occ",
				"energy": -0.27279,
				"method": "rhf"
			},
			{
				"type": "occ",
				"energy": -0.25601,
				"method": "rhf"
			},
			{
				"type": "occ",
				"energy": -0.25376,
				"method": "rhf"
			},
			{
				"type": "occ",
				"energy": -0.23314,
				"method": "rhf"
			},
			{
				"type": "occ",
				"energy": -0.20228,
				"method": "rhf"
			},
			{
				"type": "unocc",
				"energy": -0.01111,
				"method": "rhf"
			},
			{
				"type": "unocc",
				"energy": -0.00691,
				"method": "rhf"
			},
			{
				"type": "unocc",
				"energy": 0.04019,
				"method": "rhf"
			},
			{
				"type": "unocc",
				"energy": 0.07834,
				"method": "rhf"
			},
			{
				"type": "unocc",
				"energy": 0.08848,
				"method": "rhf"
			}
		],
		"cosmo_sigma_profile": { 
			"-0.025": 0.0,
			"-0.024": 0.0,
			"-0.023": 0.0,
			"-0.022": 0.0,
			"-0.021": 0.0,
			"-0.02": 0.0,
			"-0.019": 0.0,
			"-0.018": 0.0,
			"-0.017": 0.0,
			"-0.016": 0.0,
			"-0.015": 0.0,
			"-0.014": 0.0,
			"-0.013": 0.918890693518,
			"-0.012": 1.54860663554,
			"-0.011": 1.65343377557,
			"-0.01": 2.81992588443,
			"-0.009": 2.37238653139,
			"-0.008": 2.08515790519,
			"-0.007": 3.44519925349,
			"-0.006": 14.2748810584,
			"-0.005": 18.2458299133,
			"-0.004": 18.7010550907,
			"-0.003": 18.5339841917,
			"-0.002": 12.8949306476,
			"-0.001": 12.641338551,
			"0.0": 12.4586536824,
			"0.001": 11.0413169436,
			"0.002": 12.7473500447,
			"0.003": 13.8731919412,
			"0.004": 13.0807249101,
			"0.005": 15.3476592849,
			"0.006": 10.2661161224,
			"0.007": 6.50059333922,
			"0.008": 1.91671648082,
			"0.009": 2.32970937039,
			"0.01": 1.8477169577,
			"0.011": 2.00716134162,
			"0.012": 1.60071659102,
			"0.013": 1.4144191369,
			"0.014": 1.42525762643,
			"0.015": 1.14100338893,
			"0.016": 0.800128233142,
			"0.017": 0.265670320637,
			"0.018": 0.0,
			"0.019": 0.0,
			"0.02": 0.0,
			"0.021": 0.0,
			"0.022": 0.0,
			"0.023": 0.0,
			"0.024": 0.0,
			"0.025": 0.0
		}
	}
}
