{
	 "smiles": "CCOC1=CC(=CC=C1)C(N)=S", 
	 "Tm": 392.15, 
	 "num_atms": 23, 
	 "gaussian": { 
		 "optdone": 1, 
		 "sigma_profile": "yes", 
		 "theory": "DFT", 
		 "functional": "B3LYP", 
		 "basiset": "6-31G**", 
		 "properties": { 
			 "R2extent": 3973.4086, 
			 "electric_dipole_moment_norm": 5.55061896458, 
			 "electric_quadrupole_moment_norm": 19.7102144445, 
			 "total_energy": -877.756494732, 
			 "HOMO_LUMO_gap": 0.14734, 
			 "cosmo_polarized_energy": -16.04, 
			 "cosmo_cavitation_energy": 28.41, 
			 "cosmo_dispersion_energy": -21.41, 
			 "cosmo_repulsion_energy": 1.69, 
			 "cosmo_total_nonelectrostatic_energy": 8.69, 
			 "SMD_solvation_energy": 4.34 
		},
		"coords": [
			{
				"x": 2.6971535419,
				"y": 2.5311800365,
				"z": 1.0763933789,
				"element": "C" 
			},
			{
				"x": 1.4828562461,
				"y": 1.6312424308,
				"z": 1.2229387955,
				"element": "C" 
			},
			{
				"x": 1.087167472,
				"y": 1.2257527638,
				"z": -0.088156299,
				"element": "O" 
			},
			{
				"x": 0.0197717858,
				"y": 0.3880991685,
				"z": -0.2221304306,
				"element": "C" 
			},
			{
				"x": -0.2866484089,
				"y": 0.0091848409,
				"z": -1.5365902783,
				"element": "C" 
			},
			{
				"x": -1.3508851897,
				"y": -0.8611215836,
				"z": -1.8014150034,
				"element": "C" 
			},
			{
				"x": -2.1142301011,
				"y": -1.3606369466,
				"z": -0.7321250614,
				"element": "C" 
			},
			{
				"x": -1.813660334,
				"y": -0.9706486136,
				"z": 0.5666431221,
				"element": "C" 
			},
			{
				"x": -0.7530653417,
				"y": -0.099140086,
				"z": 0.8382271524,
				"element": "C" 
			},
			{
				"x": -1.674341378,
				"y": -1.2565136595,
				"z": -3.2026530551,
				"element": "C" 
			},
			{
				"x": -1.3828116834,
				"y": -0.3268247171,
				"z": -4.1406072256,
				"element": "N" 
			},
			{
				"x": -2.320236407,
				"y": -2.7384946767,
				"z": -3.6175793873,
				"element": "S" 
			},
			{
				"x": 3.0359830754,
				"y": 2.8678406091,
				"z": 2.0608690028,
				"element": "H" 
			},
			{
				"x": 3.5175629766,
				"y": 1.9953295342,
				"z": 0.5911462713,
				"element": "H" 
			},
			{
				"x": 2.4550555739,
				"y": 3.4106887728,
				"z": 0.4732890876,
				"element": "H" 
			},
			{
				"x": 0.656962888,
				"y": 2.1648707826,
				"z": 1.7143960229,
				"element": "H" 
			},
			{
				"x": 1.720850875,
				"y": 0.7469909351,
				"z": 1.8307293444,
				"element": "H" 
			},
			{
				"x": 0.3601823379,
				"y": 0.3735590283,
				"z": -2.3279305057,
				"element": "H" 
			},
			{
				"x": -2.9289429314,
				"y": -2.0435241339,
				"z": -0.9414590721,
				"element": "H" 
			},
			{
				"x": -2.4101845933,
				"y": -1.3480516419,
				"z": 1.392103199,
				"element": "H" 
			},
			{
				"x": -0.5377721734,
				"y": 0.1814650601,
				"z": 1.8621225017,
				"element": "H" 
			},
			{
				"x": -1.6010121876,
				"y": -0.5365799236,
				"z": -5.1035810179,
				"element": "H" 
			},
			{
				"x": -1.1774560433,
				"y": 0.6277320198,
				"z": -3.8852305422,
				"element": "H" 
			}
		],
		 "valence_orbital": [ 
			{
				"type": "occ",
				"energy": -0.32083,
				"method": "rhf"
			},
			{
				"type": "occ",
				"energy": -0.26317,
				"method": "rhf"
			},
			{
				"type": "occ",
				"energy": -0.23178,
				"method": "rhf"
			},
			{
				"type": "occ",
				"energy": -0.22354,
				"method": "rhf"
			},
			{
				"type": "occ",
				"energy": -0.20282,
				"method": "rhf"
			},
			{
				"type": "unocc",
				"energy": -0.05548,
				"method": "rhf"
			},
			{
				"type": "unocc",
				"energy": -0.00203,
				"method": "rhf"
			},
			{
				"type": "unocc",
				"energy": 0.0279,
				"method": "rhf"
			},
			{
				"type": "unocc",
				"energy": 0.07601,
				"method": "rhf"
			},
			{
				"type": "unocc",
				"energy": 0.09071,
				"method": "rhf"
			}
		],
		"cosmo_sigma_profile": { 
			"-0.025": 0.0,
			"-0.024": 0.0,
			"-0.023": 0.0,
			"-0.022": 0.0,
			"-0.021": 0.0,
			"-0.02": 0.0,
			"-0.019": 0.0,
			"-0.018": 0.0,
			"-0.017": 0.0,
			"-0.016": 0.117082276091,
			"-0.015": 1.7401287758,
			"-0.014": 2.2126059555,
			"-0.013": 2.48246592658,
			"-0.012": 2.65310816964,
			"-0.011": 2.56920842422,
			"-0.01": 1.92797097901,
			"-0.009": 1.88089612981,
			"-0.008": 2.18958467576,
			"-0.007": 3.9902523115,
			"-0.006": 7.48156354462,
			"-0.005": 13.3009983537,
			"-0.004": 19.7189848316,
			"-0.003": 16.6458283046,
			"-0.002": 16.1059697606,
			"-0.001": 14.4563886169,
			"0.0": 15.2212367724,
			"0.001": 13.7216174242,
			"0.002": 11.3464840003,
			"0.003": 15.7601543394,
			"0.004": 14.8823139507,
			"0.005": 8.60649971783,
			"0.006": 6.21508006879,
			"0.007": 6.41051018091,
			"0.008": 7.41272539512,
			"0.009": 8.16708355903,
			"0.01": 5.1656312414,
			"0.011": 3.65276587026,
			"0.012": 1.95214510416,
			"0.013": 0.0407374565429,
			"0.014": 0.0,
			"0.015": 0.0,
			"0.016": 0.0,
			"0.017": 0.0,
			"0.018": 0.0,
			"0.019": 0.0,
			"0.02": 0.0,
			"0.021": 0.0,
			"0.022": 0.0,
			"0.023": 0.0,
			"0.024": 0.0,
			"0.025": 0.0
		}
	}
}
