{
	 "smiles": "NC1=NC2=C(S1)C=CC=C2Cl", 
	 "Tm": 477.15, 
	 "num_atms": 16, 
	 "gaussian": { 
		 "optdone": 1, 
		 "sigma_profile": "yes", 
		 "theory": "DFT", 
		 "functional": "B3LYP", 
		 "basiset": "6-31G**", 
		 "properties": { 
			 "R2extent": 2683.349, 
			 "electric_dipole_moment_norm": 3.23714168674, 
			 "electric_quadrupole_moment_norm": 19.8293869444, 
			 "total_energy": -1237.65227029, 
			 "HOMO_LUMO_gap": 0.19562, 
			 "cosmo_polarized_energy": -12.31, 
			 "cosmo_cavitation_energy": 23.74, 
			 "cosmo_dispersion_energy": -18.64, 
			 "cosmo_repulsion_energy": 1.45, 
			 "cosmo_total_nonelectrostatic_energy": 6.56, 
			 "SMD_solvation_energy": 1.8 
		},
		"coords": [
			{
				"x": -0.9171774489,
				"y": -0.5569701709,
				"z": 3.7668318116,
				"element": "N" 
			},
			{
				"x": -0.8343607837,
				"y": -0.6875038217,
				"z": 2.4083272294,
				"element": "C" 
			},
			{
				"x": 0.2465891115,
				"y": -1.0258048517,
				"z": 1.7784777511,
				"element": "N" 
			},
			{
				"x": 0.0055503185,
				"y": -1.1436063871,
				"z": 0.4237654291,
				"element": "C" 
			},
			{
				"x": -1.3200733656,
				"y": -0.8720625592,
				"z": -0.0022690069,
				"element": "C" 
			},
			{
				"x": -2.2999029969,
				"y": -0.468842943,
				"z": 1.4067933497,
				"element": "S" 
			},
			{
				"x": -1.7079382677,
				"y": -0.936967247,
				"z": -1.3378157989,
				"element": "C" 
			},
			{
				"x": -0.742976431,
				"y": -1.2877266801,
				"z": -2.2819032274,
				"element": "C" 
			},
			{
				"x": 0.5748324182,
				"y": -1.5637822582,
				"z": -1.8968777003,
				"element": "C" 
			},
			{
				"x": 0.9476676175,
				"y": -1.492585287,
				"z": -0.5573533854,
				"element": "C" 
			},
			{
				"x": 2.5994498068,
				"y": -1.8385258336,
				"z": -0.0918293027,
				"element": "Cl" 
			},
			{
				"x": -0.0206044255,
				"y": -0.5265574867,
				"z": 4.2333752726,
				"element": "H" 
			},
			{
				"x": -1.6227163383,
				"y": 0.0566978237,
				"z": 4.1454763116,
				"element": "H" 
			},
			{
				"x": -2.7283672088,
				"y": -0.7238353196,
				"z": -1.6383050089,
				"element": "H" 
			},
			{
				"x": -1.0140836822,
				"y": -1.3488563899,
				"z": -3.3311168133,
				"element": "H" 
			},
			{
				"x": 1.3179116762,
				"y": -1.835670588,
				"z": -2.6381769112,
				"element": "H" 
			}
		],
		 "valence_orbital": [ 
			{
				"type": "occ",
				"energy": -0.30356,
				"method": "rhf"
			},
			{
				"type": "occ",
				"energy": -0.2904,
				"method": "rhf"
			},
			{
				"type": "occ",
				"energy": -0.27955,
				"method": "rhf"
			},
			{
				"type": "occ",
				"energy": -0.23281,
				"method": "rhf"
			},
			{
				"type": "occ",
				"energy": -0.21794,
				"method": "rhf"
			},
			{
				"type": "unocc",
				"energy": -0.02232,
				"method": "rhf"
			},
			{
				"type": "unocc",
				"energy": -0.00979,
				"method": "rhf"
			},
			{
				"type": "unocc",
				"energy": -0.00828,
				"method": "rhf"
			},
			{
				"type": "unocc",
				"energy": 0.04021,
				"method": "rhf"
			},
			{
				"type": "unocc",
				"energy": 0.04927,
				"method": "rhf"
			}
		],
		"cosmo_sigma_profile": { 
			"-0.025": 0.0,
			"-0.024": 0.0,
			"-0.023": 0.0,
			"-0.022": 0.0,
			"-0.021": 0.0,
			"-0.02": 0.0,
			"-0.019": 0.0,
			"-0.018": 0.0,
			"-0.017": 0.0,
			"-0.016": 0.0919876398536,
			"-0.015": 1.57460154004,
			"-0.014": 2.64508240265,
			"-0.013": 3.08798726586,
			"-0.012": 2.31902843306,
			"-0.011": 2.58826161343,
			"-0.01": 2.13064578282,
			"-0.009": 1.71574432133,
			"-0.008": 2.49043180517,
			"-0.007": 6.34989413777,
			"-0.006": 7.40489261171,
			"-0.005": 8.70866775971,
			"-0.004": 8.34237750272,
			"-0.003": 5.90607831819,
			"-0.002": 8.51714967947,
			"-0.001": 10.1096460568,
			"0.0": 13.3056851453,
			"0.001": 14.7079338773,
			"0.002": 22.8223146099,
			"0.003": 20.4470222254,
			"0.004": 20.319062721,
			"0.005": 11.9881146882,
			"0.006": 4.3280208776,
			"0.007": 2.73157054815,
			"0.008": 1.59993766284,
			"0.009": 2.66166140352,
			"0.01": 1.86376229175,
			"0.011": 0.955717237931,
			"0.012": 1.4253713637,
			"0.013": 1.10346121967,
			"0.014": 0.947325981909,
			"0.015": 0.202716868286,
			"0.016": 0.0,
			"0.017": 0.0,
			"0.018": 0.0,
			"0.019": 0.0,
			"0.02": 0.0,
			"0.021": 0.0,
			"0.022": 0.0,
			"0.023": 0.0,
			"0.024": 0.0,
			"0.025": 0.0
		}
	}
}
