{
	 "smiles": "CCCCO", 
	 "Tm": 183.65, 
	 "num_atms": 15, 
	 "gaussian": { 
		 "optdone": 1, 
		 "sigma_profile": "yes", 
		 "theory": "DFT", 
		 "functional": "B3LYP", 
		 "basiset": "6-31G**", 
		 "properties": { 
			 "R2extent": 592.7881, 
			 "electric_dipole_moment_norm": 1.68474636964, 
			 "electric_quadrupole_moment_norm": 5.98366227573, 
			 "total_energy": -233.674107893, 
			 "HOMO_LUMO_gap": 0.32225, 
			 "cosmo_polarized_energy": -5.6, 
			 "cosmo_cavitation_energy": 16.88, 
			 "cosmo_dispersion_energy": -12.61, 
			 "cosmo_repulsion_energy": 1.13, 
			 "cosmo_total_nonelectrostatic_energy": 5.4, 
			 "SMD_solvation_energy": 2.88 
		},
		"coords": [
			{
				"x": -0.8481198936,
				"y": 1.3509436405,
				"z": 1.2703745412,
				"element": "C" 
			},
			{
				"x": 0.5929051959,
				"y": 0.8537608623,
				"z": 1.1002200925,
				"element": "C" 
			},
			{
				"x": 0.732584237,
				"y": -0.4327704581,
				"z": 0.2690588033,
				"element": "C" 
			},
			{
				"x": 0.3275541876,
				"y": -0.2959600423,
				"z": -1.2027920197,
				"element": "C" 
			},
			{
				"x": 1.1319647038,
				"y": 0.6327837325,
				"z": -1.9221526987,
				"element": "O" 
			},
			{
				"x": -1.312367711,
				"y": 1.6119441023,
				"z": 0.3129011825,
				"element": "H" 
			},
			{
				"x": -1.4761104083,
				"y": 0.5846451257,
				"z": 1.7390432767,
				"element": "H" 
			},
			{
				"x": -0.885071881,
				"y": 2.2432744888,
				"z": 1.9036711318,
				"element": "H" 
			},
			{
				"x": 1.2084767287,
				"y": 1.6436673221,
				"z": 0.647465919,
				"element": "H" 
			},
			{
				"x": 1.0300601716,
				"y": 0.6782263105,
				"z": 2.0905417368,
				"element": "H" 
			},
			{
				"x": 0.1254506391,
				"y": -1.2290094322,
				"z": 0.7226551306,
				"element": "H" 
			},
			{
				"x": 1.7756616554,
				"y": -0.7699311015,
				"z": 0.3034188527,
				"element": "H" 
			},
			{
				"x": 0.4657418111,
				"y": -1.2570592838,
				"z": -1.7088357582,
				"element": "H" 
			},
			{
				"x": -0.7411022104,
				"y": -0.0426126166,
				"z": -1.2881176728,
				"element": "H" 
			},
			{
				"x": 0.9323727742,
				"y": 1.51699735,
				"z": -1.5909525176,
				"element": "H" 
			}
		],
		 "valence_orbital": [ 
			{
				"type": "occ",
				"energy": -0.34446,
				"method": "rhf"
			},
			{
				"type": "occ",
				"energy": -0.33782,
				"method": "rhf"
			},
			{
				"type": "occ",
				"energy": -0.33284,
				"method": "rhf"
			},
			{
				"type": "occ",
				"energy": -0.31275,
				"method": "rhf"
			},
			{
				"type": "occ",
				"energy": -0.26079,
				"method": "rhf"
			},
			{
				"type": "unocc",
				"energy": 0.06146,
				"method": "rhf"
			},
			{
				"type": "unocc",
				"energy": 0.11009,
				"method": "rhf"
			},
			{
				"type": "unocc",
				"energy": 0.12367,
				"method": "rhf"
			},
			{
				"type": "unocc",
				"energy": 0.14217,
				"method": "rhf"
			},
			{
				"type": "unocc",
				"energy": 0.14643,
				"method": "rhf"
			}
		],
		"cosmo_sigma_profile": { 
			"-0.025": 0.0,
			"-0.024": 0.0,
			"-0.023": 0.0,
			"-0.022": 0.0,
			"-0.021": 0.0,
			"-0.02": 0.0,
			"-0.019": 0.0,
			"-0.018": 0.0,
			"-0.017": 0.0,
			"-0.016": 0.0,
			"-0.015": 0.0619800450009,
			"-0.014": 0.706411740374,
			"-0.013": 0.643610076493,
			"-0.012": 0.942410966654,
			"-0.011": 0.463874221834,
			"-0.01": 1.3202050923,
			"-0.009": 0.921493105647,
			"-0.008": 0.927297128642,
			"-0.007": 1.59905162765,
			"-0.006": 1.55818314103,
			"-0.005": 1.75244687637,
			"-0.004": 3.89259149439,
			"-0.003": 10.7632797379,
			"-0.002": 19.973610253,
			"-0.001": 21.759710566,
			"0.0": 20.5881249028,
			"0.001": 18.1609553866,
			"0.002": 5.65933615993,
			"0.003": 1.06873708938,
			"0.004": 1.77130843654,
			"0.005": 1.11985150831,
			"0.006": 1.09844313686,
			"0.007": 1.11142264516,
			"0.008": 1.16144048003,
			"0.009": 1.00570688405,
			"0.01": 1.11492850986,
			"0.011": 1.73223038177,
			"0.012": 1.66743251571,
			"0.013": 1.07116301567,
			"0.014": 2.36443492851,
			"0.015": 1.7528272345,
			"0.016": 0.0,
			"0.017": 0.0,
			"0.018": 0.0,
			"0.019": 0.0,
			"0.02": 0.0,
			"0.021": 0.0,
			"0.022": 0.0,
			"0.023": 0.0,
			"0.024": 0.0,
			"0.025": 0.0
		}
	}
}
