{
	 "smiles": "CC1=CC=C(C=C1)S(=O)(=O)N1C=CN=C1", 
	 "Tm": 350.65, 
	 "num_atms": 25, 
	 "gaussian": { 
		 "optdone": 1, 
		 "sigma_profile": "yes", 
		 "theory": "DFT", 
		 "functional": "B3LYP", 
		 "basiset": "6-31G**", 
		 "properties": { 
			 "R2extent": 3984.629, 
			 "electric_dipole_moment_norm": 5.9996689117, 
			 "electric_quadrupole_moment_norm": 15.8099760585, 
			 "total_energy": -1045.14454554, 
			 "HOMO_LUMO_gap": 0.18607, 
			 "cosmo_polarized_energy": -13.92, 
			 "cosmo_cavitation_energy": 31.07, 
			 "cosmo_dispersion_energy": -22.38, 
			 "cosmo_repulsion_energy": 1.69, 
			 "cosmo_total_nonelectrostatic_energy": 10.38, 
			 "SMD_solvation_energy": 3.88 
		},
		"coords": [
			{
				"x": -2.0672046068,
				"y": -3.4023145382,
				"z": 3.2000903695,
				"element": "C" 
			},
			{
				"x": -1.8417814201,
				"y": -2.4334034256,
				"z": 2.0654318453,
				"element": "C" 
			},
			{
				"x": -1.5930831519,
				"y": -1.0765347582,
				"z": 2.3184020054,
				"element": "C" 
			},
			{
				"x": -1.4113566747,
				"y": -0.1696449909,
				"z": 1.276746874,
				"element": "C" 
			},
			{
				"x": -1.4760602792,
				"y": -0.6328883927,
				"z": -0.0384359869,
				"element": "C" 
			},
			{
				"x": -1.728949613,
				"y": -1.976429458,
				"z": -0.3241847518,
				"element": "C" 
			},
			{
				"x": -1.90730918,
				"y": -2.8657150075,
				"z": 0.7318669137,
				"element": "C" 
			},
			{
				"x": -1.2376002991,
				"y": 0.5168763596,
				"z": -1.3833302187,
				"element": "S" 
			},
			{
				"x": -1.4682651632,
				"y": 1.8706941824,
				"z": -0.8902044877,
				"element": "O" 
			},
			{
				"x": -1.8734472178,
				"y": -0.0195055738,
				"z": -2.5824232693,
				"element": "O" 
			},
			{
				"x": 0.4559301366,
				"y": 0.4286383869,
				"z": -1.7081121103,
				"element": "N" 
			},
			{
				"x": 1.4623755558,
				"y": 1.1257037823,
				"z": -1.0437985276,
				"element": "C" 
			},
			{
				"x": 2.6272090603,
				"y": 0.6549742886,
				"z": -1.5805100267,
				"element": "C" 
			},
			{
				"x": 2.3804102974,
				"y": -0.3090729365,
				"z": -2.5436652758,
				"element": "N" 
			},
			{
				"x": 1.0798071909,
				"y": -0.4302850649,
				"z": -2.5973987661,
				"element": "C" 
			},
			{
				"x": -1.5696052115,
				"y": -3.0703572079,
				"z": 4.1153669141,
				"element": "H" 
			},
			{
				"x": -3.1369608272,
				"y": -3.4966052241,
				"z": 3.424051037,
				"element": "H" 
			},
			{
				"x": -1.6978534343,
				"y": -4.4014951611,
				"z": 2.9519986134,
				"element": "H" 
			},
			{
				"x": -1.5447423848,
				"y": -0.7237848659,
				"z": 3.344885556,
				"element": "H" 
			},
			{
				"x": -1.2371824631,
				"y": 0.8821145392,
				"z": 1.4750281145,
				"element": "H" 
			},
			{
				"x": -1.7975026254,
				"y": -2.3112112653,
				"z": -1.3533897027,
				"element": "H" 
			},
			{
				"x": -2.1043031515,
				"y": -3.9125672836,
				"z": 0.5177996463,
				"element": "H" 
			},
			{
				"x": 1.235981979,
				"y": 1.8813570992,
				"z": -0.3094058871,
				"element": "H" 
			},
			{
				"x": 3.636046382,
				"y": 0.9608864962,
				"z": -1.3406632094,
				"element": "H" 
			},
			{
				"x": 0.5120471015,
				"y": -1.0777299803,
				"z": -3.2492456692,
				"element": "H" 
			}
		],
		 "valence_orbital": [ 
			{
				"type": "occ",
				"energy": -0.30169,
				"method": "rhf"
			},
			{
				"type": "occ",
				"energy": -0.28254,
				"method": "rhf"
			},
			{
				"type": "occ",
				"energy": -0.27464,
				"method": "rhf"
			},
			{
				"type": "occ",
				"energy": -0.27264,
				"method": "rhf"
			},
			{
				"type": "occ",
				"energy": -0.24188,
				"method": "rhf"
			},
			{
				"type": "unocc",
				"energy": -0.05581,
				"method": "rhf"
			},
			{
				"type": "unocc",
				"energy": -0.03324,
				"method": "rhf"
			},
			{
				"type": "unocc",
				"energy": 0.00375,
				"method": "rhf"
			},
			{
				"type": "unocc",
				"energy": 0.03808,
				"method": "rhf"
			},
			{
				"type": "unocc",
				"energy": 0.05794,
				"method": "rhf"
			}
		],
		"cosmo_sigma_profile": { 
			"-0.025": 0.0,
			"-0.024": 0.0,
			"-0.023": 0.0,
			"-0.022": 0.0,
			"-0.021": 0.0,
			"-0.02": 0.0,
			"-0.019": 0.0,
			"-0.018": 0.0,
			"-0.017": 0.0,
			"-0.016": 0.0,
			"-0.015": 0.0,
			"-0.014": 0.0,
			"-0.013": 0.0,
			"-0.012": 0.0,
			"-0.011": 0.0,
			"-0.01": 0.589847632727,
			"-0.009": 2.33386501006,
			"-0.008": 4.22086228127,
			"-0.007": 12.1850619121,
			"-0.006": 16.2250474815,
			"-0.005": 18.3562562788,
			"-0.004": 16.6281706679,
			"-0.003": 16.6400250378,
			"-0.002": 19.553974198,
			"-0.001": 21.9401786086,
			"0.0": 18.4414207998,
			"0.001": 17.3579945766,
			"0.002": 19.2976333216,
			"0.003": 14.1752325077,
			"0.004": 8.09504099693,
			"0.005": 5.07086960448,
			"0.006": 4.14443044373,
			"0.007": 4.73189593845,
			"0.008": 6.55411697275,
			"0.009": 8.55392281436,
			"0.01": 7.06045983906,
			"0.011": 1.78058424268,
			"0.012": 0.9619431763,
			"0.013": 1.50894335509,
			"0.014": 0.793415091541,
			"0.015": 0.86635136261,
			"0.016": 1.22570373896,
			"0.017": 0.241987094567,
			"0.018": 0.0,
			"0.019": 0.0,
			"0.02": 0.0,
			"0.021": 0.0,
			"0.022": 0.0,
			"0.023": 0.0,
			"0.024": 0.0,
			"0.025": 0.0
		}
	}
}
