{
	 "smiles": "FC(F)(F)C(C(=O)NC1=CC(Cl)=CC=C1)C(F)(F)F", 
	 "Tm": 427.15, 
	 "num_atms": 25, 
	 "gaussian": { 
		 "optdone": 1, 
		 "sigma_profile": "yes", 
		 "theory": "DFT", 
		 "functional": "B3LYP", 
		 "basiset": "6-31G**", 
		 "properties": { 
			 "R2extent": 6258.9658, 
			 "electric_dipole_moment_norm": 4.84606721889, 
			 "electric_quadrupole_moment_norm": 16.3978267777, 
			 "total_energy": -1573.90789755, 
			 "HOMO_LUMO_gap": 0.21392, 
			 "cosmo_polarized_energy": -12.68, 
			 "cosmo_cavitation_energy": 34.08, 
			 "cosmo_dispersion_energy": -22.76, 
			 "cosmo_repulsion_energy": 1.66, 
			 "cosmo_total_nonelectrostatic_energy": 12.97, 
			 "SMD_solvation_energy": 8.14 
		},
		"coords": [
			{
				"x": -0.5145116921,
				"y": 1.4546256812,
				"z": -3.3705811437,
				"element": "F" 
			},
			{
				"x": -1.5664449243,
				"y": 1.7006672752,
				"z": -2.5648114076,
				"element": "C" 
			},
			{
				"x": -1.3532112728,
				"y": 2.8946912243,
				"z": -1.968531347,
				"element": "F" 
			},
			{
				"x": -2.6562819395,
				"y": 1.8050327472,
				"z": -3.3298790988,
				"element": "F" 
			},
			{
				"x": -1.6776546301,
				"y": 0.6159832442,
				"z": -1.4866713465,
				"element": "C" 
			},
			{
				"x": -2.7513162301,
				"y": 1.0151346818,
				"z": -0.4577996972,
				"element": "C" 
			},
			{
				"x": -3.9085066204,
				"y": 1.1876478826,
				"z": -0.7943342758,
				"element": "O" 
			},
			{
				"x": -2.3470288089,
				"y": 1.2163883436,
				"z": 0.8414486441,
				"element": "N" 
			},
			{
				"x": -1.0864410535,
				"y": 1.0453826477,
				"z": 1.4754479256,
				"element": "C" 
			},
			{
				"x": -0.3939661661,
				"y": -0.1700016115,
				"z": 1.3925435785,
				"element": "C" 
			},
			{
				"x": 0.829588234,
				"y": -0.2958929456,
				"z": 2.049906673,
				"element": "C" 
			},
			{
				"x": 1.7036856211,
				"y": -1.8126499999,
				"z": 1.9295014285,
				"element": "Cl" 
			},
			{
				"x": 1.3581337981,
				"y": 0.7405845911,
				"z": 2.8176776946,
				"element": "C" 
			},
			{
				"x": 0.6402366931,
				"y": 1.9336822848,
				"z": 2.916108458,
				"element": "C" 
			},
			{
				"x": -0.5697553006,
				"y": 2.0958681786,
				"z": 2.2451207862,
				"element": "C" 
			},
			{
				"x": -1.9793718193,
				"y": -0.7680982381,
				"z": -2.0665458766,
				"element": "C" 
			},
			{
				"x": -0.9700526001,
				"y": -1.1910463902,
				"z": -2.8491279084,
				"element": "F" 
			},
			{
				"x": -2.1048871747,
				"y": -1.6596632767,
				"z": -1.0492524248,
				"element": "F" 
			},
			{
				"x": -3.1056585286,
				"y": -0.8066958029,
				"z": -2.7819484828,
				"element": "F" 
			},
			{
				"x": -0.6888801208,
				"y": 0.5504987116,
				"z": -1.0306624335,
				"element": "H" 
			},
			{
				"x": -3.0954628297,
				"y": 1.6027774814,
				"z": 1.4056983851,
				"element": "H" 
			},
			{
				"x": -0.8094445189,
				"y": -1.0050850522,
				"z": 0.8423441434,
				"element": "H" 
			},
			{
				"x": 2.3060778016,
				"y": 0.6130030434,
				"z": 3.3273937403,
				"element": "H" 
			},
			{
				"x": 1.0384597553,
				"y": 2.7493028913,
				"z": 3.5115949862,
				"element": "H" 
			},
			{
				"x": -1.1127056725,
				"y": 3.0340624074,
				"z": 2.3026589991,
				"element": "H" 
			}
		],
		 "valence_orbital": [ 
			{
				"type": "occ",
				"energy": -0.32869,
				"method": "rhf"
			},
			{
				"type": "occ",
				"energy": -0.31345,
				"method": "rhf"
			},
			{
				"type": "occ",
				"energy": -0.28339,
				"method": "rhf"
			},
			{
				"type": "occ",
				"energy": -0.27353,
				"method": "rhf"
			},
			{
				"type": "occ",
				"energy": -0.25832,
				"method": "rhf"
			},
			{
				"type": "unocc",
				"energy": -0.0444,
				"method": "rhf"
			},
			{
				"type": "unocc",
				"energy": -0.03813,
				"method": "rhf"
			},
			{
				"type": "unocc",
				"energy": -0.00697,
				"method": "rhf"
			},
			{
				"type": "unocc",
				"energy": 0.0147,
				"method": "rhf"
			},
			{
				"type": "unocc",
				"energy": 0.07235,
				"method": "rhf"
			}
		],
		"cosmo_sigma_profile": { 
			"-0.025": 0.0,
			"-0.024": 0.0,
			"-0.023": 0.0,
			"-0.022": 0.0,
			"-0.021": 0.0,
			"-0.02": 0.0,
			"-0.019": 0.0,
			"-0.018": 0.0,
			"-0.017": 0.0,
			"-0.016": 0.333344056244,
			"-0.015": 1.2606492317,
			"-0.014": 1.22329704325,
			"-0.013": 0.822405266942,
			"-0.012": 0.840016216865,
			"-0.011": 2.27401355959,
			"-0.01": 3.03575672105,
			"-0.009": 2.79925159195,
			"-0.008": 4.95893657861,
			"-0.007": 8.68209167818,
			"-0.006": 9.05406661102,
			"-0.005": 9.7085517775,
			"-0.004": 10.1104624468,
			"-0.003": 10.8159599839,
			"-0.002": 13.4171659291,
			"-0.001": 17.2840522413,
			"0.0": 23.2185086387,
			"0.001": 38.9193822257,
			"0.002": 62.8897206134,
			"0.003": 20.2344891427,
			"0.004": 11.9656373949,
			"0.005": 4.93849990561,
			"0.006": 1.69453541173,
			"0.007": 1.71884349341,
			"0.008": 1.6582946517,
			"0.009": 2.48082787936,
			"0.01": 2.22283929014,
			"0.011": 4.06720415643,
			"0.012": 3.14724593629,
			"0.013": 0.167526760893,
			"0.014": 0.0,
			"0.015": 0.0,
			"0.016": 0.0,
			"0.017": 0.0,
			"0.018": 0.0,
			"0.019": 0.0,
			"0.02": 0.0,
			"0.021": 0.0,
			"0.022": 0.0,
			"0.023": 0.0,
			"0.024": 0.0,
			"0.025": 0.0
		}
	}
}
