{
	 "smiles": "NC1=C(CN2C(=O)CCC2=O)C=CC=C1", 
	 "Tm": 382.15, 
	 "num_atms": 27, 
	 "gaussian": { 
		 "optdone": 1, 
		 "sigma_profile": "yes", 
		 "theory": "DFT", 
		 "functional": "B3LYP", 
		 "basiset": "6-31G**", 
		 "properties": { 
			 "R2extent": 3872.1381, 
			 "electric_dipole_moment_norm": 3.02643065838, 
			 "electric_quadrupole_moment_norm": 16.9096964056, 
			 "total_energy": -686.401163224, 
			 "HOMO_LUMO_gap": 0.16698, 
			 "cosmo_polarized_energy": -13.94, 
			 "cosmo_cavitation_energy": 29.86, 
			 "cosmo_dispersion_energy": -21.86, 
			 "cosmo_repulsion_energy": 1.7, 
			 "cosmo_total_nonelectrostatic_energy": 9.7, 
			 "SMD_solvation_energy": 5.61 
		},
		"coords": [
			{
				"x": 2.1534226521,
				"y": 0.1657928557,
				"z": -1.702831015,
				"element": "N" 
			},
			{
				"x": 1.3106297699,
				"y": -0.4197118052,
				"z": -0.761024376,
				"element": "C" 
			},
			{
				"x": -0.0467341837,
				"y": -0.0310313539,
				"z": -0.6466548722,
				"element": "C" 
			},
			{
				"x": -0.6360025355,
				"y": 1.0383401935,
				"z": -1.5418411916,
				"element": "C" 
			},
			{
				"x": -0.6442985633,
				"y": 2.3928642747,
				"z": -0.9565944392,
				"element": "N" 
			},
			{
				"x": 0.3995116716,
				"y": 3.295418414,
				"z": -1.0700673646,
				"element": "C" 
			},
			{
				"x": 1.4504301645,
				"y": 3.0815672397,
				"z": -1.6520652752,
				"element": "O" 
			},
			{
				"x": 0.002387555,
				"y": 4.5832026925,
				"z": -0.3579753963,
				"element": "C" 
			},
			{
				"x": -1.3989150902,
				"y": 4.309481714,
				"z": 0.2087610442,
				"element": "C" 
			},
			{
				"x": -1.7384781311,
				"y": 2.8915347565,
				"z": -0.2404794367,
				"element": "C" 
			},
			{
				"x": -2.7646248836,
				"y": 2.2780043821,
				"z": -0.0379534755,
				"element": "O" 
			},
			{
				"x": -0.8718957995,
				"y": -0.675423013,
				"z": 0.2830182977,
				"element": "C" 
			},
			{
				"x": -0.3960562932,
				"y": -1.7014016557,
				"z": 1.0966988179,
				"element": "C" 
			},
			{
				"x": 0.9377407862,
				"y": -2.0974688527,
				"z": 0.9696862159,
				"element": "C" 
			},
			{
				"x": 1.7770776881,
				"y": -1.466341183,
				"z": 0.0583109147,
				"element": "C" 
			},
			{
				"x": 2.0254952446,
				"y": 1.1635522425,
				"z": -1.8516941638,
				"element": "H" 
			},
			{
				"x": 3.1283249306,
				"y": -0.0754303473,
				"z": -1.5880728017,
				"element": "H" 
			},
			{
				"x": -0.0939501975,
				"y": 1.1044713973,
				"z": -2.4880637453,
				"element": "H" 
			},
			{
				"x": -1.6826876398,
				"y": 0.8098868453,
				"z": -1.7522640455,
				"element": "H" 
			},
			{
				"x": 0.0289793759,
				"y": 5.4046179056,
				"z": -1.079815316,
				"element": "H" 
			},
			{
				"x": 0.7511289912,
				"y": 4.8061167277,
				"z": 0.4072173875,
				"element": "H" 
			},
			{
				"x": -2.1665157792,
				"y": 4.9917999315,
				"z": -0.166401329,
				"element": "H" 
			},
			{
				"x": -1.4416667944,
				"y": 4.3488893845,
				"z": 1.3009849702,
				"element": "H" 
			},
			{
				"x": -1.9078989356,
				"y": -0.3553899715,
				"z": 0.3590894208,
				"element": "H" 
			},
			{
				"x": -1.054359259,
				"y": -2.1883435497,
				"z": 1.8090865729,
				"element": "H" 
			},
			{
				"x": 1.33077993,
				"y": -2.9003129351,
				"z": 1.5878024861,
				"element": "H" 
			},
			{
				"x": 2.8157753259,
				"y": -1.77738629,
				"z": -0.0290578845,
				"element": "H" 
			}
		],
		 "valence_orbital": [ 
			{
				"type": "occ",
				"energy": -0.29542,
				"method": "rhf"
			},
			{
				"type": "occ",
				"energy": -0.28286,
				"method": "rhf"
			},
			{
				"type": "occ",
				"energy": -0.26791,
				"method": "rhf"
			},
			{
				"type": "occ",
				"energy": -0.23936,
				"method": "rhf"
			},
			{
				"type": "occ",
				"energy": -0.19513,
				"method": "rhf"
			},
			{
				"type": "unocc",
				"energy": -0.02815,
				"method": "rhf"
			},
			{
				"type": "unocc",
				"energy": 0.00057,
				"method": "rhf"
			},
			{
				"type": "unocc",
				"energy": 0.01826,
				"method": "rhf"
			},
			{
				"type": "unocc",
				"energy": 0.02441,
				"method": "rhf"
			},
			{
				"type": "unocc",
				"energy": 0.08002,
				"method": "rhf"
			}
		],
		"cosmo_sigma_profile": { 
			"-0.025": 0.0,
			"-0.024": 0.0,
			"-0.023": 0.0,
			"-0.022": 0.0,
			"-0.021": 0.0,
			"-0.02": 0.0,
			"-0.019": 0.0,
			"-0.018": 0.0,
			"-0.017": 0.0,
			"-0.016": 0.0,
			"-0.015": 0.0,
			"-0.014": 0.0,
			"-0.013": 0.0,
			"-0.012": 0.834002895367,
			"-0.011": 1.41434953575,
			"-0.01": 1.10103130347,
			"-0.009": 1.41719742258,
			"-0.008": 3.54819007473,
			"-0.007": 15.9998944695,
			"-0.006": 17.0161452362,
			"-0.005": 16.7950364501,
			"-0.004": 19.2896132503,
			"-0.003": 21.6055086884,
			"-0.002": 16.0700504117,
			"-0.001": 11.414590417,
			"0.0": 11.2949335868,
			"0.001": 9.95168419868,
			"0.002": 11.3106534454,
			"0.003": 11.3791746699,
			"0.004": 9.34675481983,
			"0.005": 11.8501907558,
			"0.006": 11.5170494978,
			"0.007": 8.66210775599,
			"0.008": 3.92851604655,
			"0.009": 3.69244174893,
			"0.01": 3.95185583118,
			"0.011": 6.2005560356,
			"0.012": 5.20729240356,
			"0.013": 1.86057686147,
			"0.014": 0.384763094732,
			"0.015": 0.19171475967,
			"0.016": 0.0,
			"0.017": 0.0,
			"0.018": 0.0,
			"0.019": 0.0,
			"0.02": 0.0,
			"0.021": 0.0,
			"0.022": 0.0,
			"0.023": 0.0,
			"0.024": 0.0,
			"0.025": 0.0
		}
	}
}
