{
	 "smiles": "CCOC1=C(C=C(NC(=O)CCl)C=C1)S(=O)(=O)N1CCCCC1", 
	 "Tm": 403.15, 
	 "num_atms": 44, 
	 "gaussian": { 
		 "optdone": 1, 
		 "sigma_profile": "yes", 
		 "theory": "DFT", 
		 "functional": "B3LYP", 
		 "basiset": "6-31G**", 
		 "properties": { 
			 "R2extent": 10123.7944, 
			 "electric_dipole_moment_norm": 6.66618545797, 
			 "electric_quadrupole_moment_norm": 28.3154239446, 
			 "total_energy": -1852.96084199, 
			 "HOMO_LUMO_gap": 0.18925, 
			 "cosmo_polarized_energy": -22.59, 
			 "cosmo_cavitation_energy": 48.6, 
			 "cosmo_dispersion_energy": -32.39, 
			 "cosmo_repulsion_energy": 2.47, 
			 "cosmo_total_nonelectrostatic_energy": 18.68, 
			 "SMD_solvation_energy": 6.58 
		},
		"coords": [
			{
				"x": 3.7801732454,
				"y": -2.168394697,
				"z": 2.095723484,
				"element": "C" 
			},
			{
				"x": 2.580953531,
				"y": -1.2745720472,
				"z": 2.3436846296,
				"element": "C" 
			},
			{
				"x": 1.8310426705,
				"y": -1.1795205475,
				"z": 1.1077736617,
				"element": "O" 
			},
			{
				"x": 0.6534443175,
				"y": -0.4845322083,
				"z": 1.1913181899,
				"element": "C" 
			},
			{
				"x": 0.535211004,
				"y": 0.8207180244,
				"z": 0.6873923065,
				"element": "C" 
			},
			{
				"x": -0.6954044223,
				"y": 1.4845951418,
				"z": 0.7009405861,
				"element": "C" 
			},
			{
				"x": -1.8184391057,
				"y": 0.8734064227,
				"z": 1.2718840552,
				"element": "C" 
			},
			{
				"x": -3.0946288872,
				"y": 1.4837959421,
				"z": 1.3092464315,
				"element": "N" 
			},
			{
				"x": -3.5170598361,
				"y": 2.7651304493,
				"z": 1.609294046,
				"element": "C" 
			},
			{
				"x": -4.709284476,
				"y": 3.0191178855,
				"z": 1.664358021,
				"element": "O" 
			},
			{
				"x": -2.4741957692,
				"y": 3.8386625469,
				"z": 1.8955082282,
				"element": "C" 
			},
			{
				"x": -2.130565441,
				"y": 4.8037891429,
				"z": 0.4011418185,
				"element": "Cl" 
			},
			{
				"x": -1.6982150601,
				"y": -0.4295851798,
				"z": 1.780144903,
				"element": "C" 
			},
			{
				"x": -0.4821356106,
				"y": -1.0996605261,
				"z": 1.7296622794,
				"element": "C" 
			},
			{
				"x": 1.9529306458,
				"y": 1.7040121157,
				"z": -0.0286050272,
				"element": "S" 
			},
			{
				"x": 3.1159085007,
				"y": 1.4615008589,
				"z": 0.8291245427,
				"element": "O" 
			},
			{
				"x": 1.4646244014,
				"y": 3.0628634425,
				"z": -0.2780570354,
				"element": "O" 
			},
			{
				"x": 2.2716014398,
				"y": 1.0327969555,
				"z": -1.5141188169,
				"element": "N" 
			},
			{
				"x": 1.2743887139,
				"y": 1.2540214995,
				"z": -2.5837937088,
				"element": "C" 
			},
			{
				"x": 1.8139661415,
				"y": 0.6789054819,
				"z": -3.8948353915,
				"element": "C" 
			},
			{
				"x": 2.0506331519,
				"y": -0.844576817,
				"z": -3.8054333902,
				"element": "C" 
			},
			{
				"x": 2.5159266715,
				"y": -1.2708731833,
				"z": -2.3907157035,
				"element": "C" 
			},
			{
				"x": 3.1921642189,
				"y": -0.1179049645,
				"z": -1.6449471466,
				"element": "C" 
			},
			{
				"x": 3.4657263837,
				"y": -3.1578094581,
				"z": 1.7507395238,
				"element": "H" 
			},
			{
				"x": 4.4421882785,
				"y": -1.7290599308,
				"z": 1.3446529546,
				"element": "H" 
			},
			{
				"x": 4.3497674011,
				"y": -2.2885180705,
				"z": 3.0225343115,
				"element": "H" 
			},
			{
				"x": 1.9317606594,
				"y": -1.694030321,
				"z": 3.1239547276,
				"element": "H" 
			},
			{
				"x": 2.8889782417,
				"y": -0.2669245969,
				"z": 2.6400866627,
				"element": "H" 
			},
			{
				"x": -0.753521859,
				"y": 2.471911079,
				"z": 0.2584270464,
				"element": "H" 
			},
			{
				"x": -3.8881061046,
				"y": 0.8571021116,
				"z": 1.2397784545,
				"element": "H" 
			},
			{
				"x": -2.9084052377,
				"y": 4.5255319729,
				"z": 2.6197133682,
				"element": "H" 
			},
			{
				"x": -1.5230304547,
				"y": 3.4484363815,
				"z": 2.2558884253,
				"element": "H" 
			},
			{
				"x": -2.5660595652,
				"y": -0.9161637399,
				"z": 2.2169218443,
				"element": "H" 
			},
			{
				"x": -0.3958645809,
				"y": -2.1142732724,
				"z": 2.1054125511,
				"element": "H" 
			},
			{
				"x": 1.0958594793,
				"y": 2.3275513962,
				"z": -2.6697486815,
				"element": "H" 
			},
			{
				"x": 0.3150286883,
				"y": 0.7725691878,
				"z": -2.3343104015,
				"element": "H" 
			},
			{
				"x": 2.7496201415,
				"y": 1.1953323956,
				"z": -4.1379873251,
				"element": "H" 
			},
			{
				"x": 1.1097883342,
				"y": 0.9145700709,
				"z": -4.6994784052,
				"element": "H" 
			},
			{
				"x": 2.7948720026,
				"y": -1.1347219586,
				"z": -4.5552434434,
				"element": "H" 
			},
			{
				"x": 1.1299741075,
				"y": -1.3806525205,
				"z": -4.0623213392,
				"element": "H" 
			},
			{
				"x": 1.6640558298,
				"y": -1.6111127602,
				"z": -1.7920722139,
				"element": "H" 
			},
			{
				"x": 3.2101693319,
				"y": -2.116266476,
				"z": -2.449322567,
				"element": "H" 
			},
			{
				"x": 4.0903708586,
				"y": 0.2140406173,
				"z": -2.1820455385,
				"element": "H" 
			},
			{
				"x": 3.5019880186,
				"y": -0.4236078468,
				"z": -0.6475709179,
				"element": "H" 
			}
		],
		 "valence_orbital": [ 
			{
				"type": "occ",
				"energy": -0.29,
				"method": "rhf"
			},
			{
				"type": "occ",
				"energy": -0.27873,
				"method": "rhf"
			},
			{
				"type": "occ",
				"energy": -0.26827,
				"method": "rhf"
			},
			{
				"type": "occ",
				"energy": -0.24592,
				"method": "rhf"
			},
			{
				"type": "occ",
				"energy": -0.23617,
				"method": "rhf"
			},
			{
				"type": "unocc",
				"energy": -0.04692,
				"method": "rhf"
			},
			{
				"type": "unocc",
				"energy": -0.03771,
				"method": "rhf"
			},
			{
				"type": "unocc",
				"energy": -0.01341,
				"method": "rhf"
			},
			{
				"type": "unocc",
				"energy": 0.05375,
				"method": "rhf"
			},
			{
				"type": "unocc",
				"energy": 0.05634,
				"method": "rhf"
			}
		],
		"cosmo_sigma_profile": { 
			"-0.025": 0.0,
			"-0.024": 0.0,
			"-0.023": 0.0,
			"-0.022": 0.0,
			"-0.021": 0.0,
			"-0.02": 0.0,
			"-0.019": 0.0,
			"-0.018": 0.0,
			"-0.017": 0.0,
			"-0.016": 0.0,
			"-0.015": 0.80943281707,
			"-0.014": 1.36333322115,
			"-0.013": 1.3082396834,
			"-0.012": 0.983334185905,
			"-0.011": 1.29373478027,
			"-0.01": 1.02656914084,
			"-0.009": 3.0989925121,
			"-0.008": 7.23270491629,
			"-0.007": 9.74488186357,
			"-0.006": 10.459946589,
			"-0.005": 10.7638062728,
			"-0.004": 24.3220210729,
			"-0.003": 45.9367249341,
			"-0.002": 51.6656008652,
			"-0.001": 40.8688189852,
			"0.0": 37.6513501554,
			"0.001": 25.9356449434,
			"0.002": 15.729295713,
			"0.003": 14.6090735034,
			"0.004": 13.507062154,
			"0.005": 14.8056877043,
			"0.006": 8.60988330517,
			"0.007": 5.05554227069,
			"0.008": 6.18562253107,
			"0.009": 5.27690155221,
			"0.01": 5.60264616104,
			"0.011": 8.12583816581,
			"0.012": 9.62279712315,
			"0.013": 3.6418629184,
			"0.014": 0.134012425019,
			"0.015": 0.0,
			"0.016": 0.0,
			"0.017": 0.0,
			"0.018": 0.0,
			"0.019": 0.0,
			"0.02": 0.0,
			"0.021": 0.0,
			"0.022": 0.0,
			"0.023": 0.0,
			"0.024": 0.0,
			"0.025": 0.0
		}
	}
}
