{
	 "smiles": "CC1(C)OC2C(CO)OC(C2O1)N1C=CC(=O)NC1=O", 
	 "Tm": 437.15, 
	 "num_atms": 36, 
	 "gaussian": { 
		 "optdone": 1, 
		 "sigma_profile": "yes", 
		 "theory": "DFT", 
		 "functional": "B3LYP", 
		 "basiset": "6-31G**", 
		 "properties": { 
			 "R2extent": 6308.7145, 
			 "electric_dipole_moment_norm": 3.69906627272, 
			 "electric_quadrupole_moment_norm": 18.2780344871, 
			 "total_energy": -1027.7713798, 
			 "HOMO_LUMO_gap": 0.2064, 
			 "cosmo_polarized_energy": -21.64, 
			 "cosmo_cavitation_energy": 38.07, 
			 "cosmo_dispersion_energy": -27.04, 
			 "cosmo_repulsion_energy": 2.07, 
			 "cosmo_total_nonelectrostatic_energy": 13.1, 
			 "SMD_solvation_energy": 7.4 
		},
		"coords": [
			{
				"x": -1.1434759584,
				"y": -0.2032187158,
				"z": 4.155758604,
				"element": "C" 
			},
			{
				"x": -0.0786601564,
				"y": 0.4439850245,
				"z": 3.2661379807,
				"element": "C" 
			},
			{
				"x": 0.5711890157,
				"y": 1.6629552529,
				"z": 3.9016855784,
				"element": "C" 
			},
			{
				"x": 0.9373065605,
				"y": -0.5151380719,
				"z": 2.947107328,
				"element": "O" 
			},
			{
				"x": 0.6890415003,
				"y": -1.0458819193,
				"z": 1.6498458273,
				"element": "C" 
			},
			{
				"x": 1.8244886217,
				"y": -0.7043942377,
				"z": 0.658192582,
				"element": "C" 
			},
			{
				"x": 2.5822243389,
				"y": -1.9122195723,
				"z": 0.1020045461,
				"element": "C" 
			},
			{
				"x": 3.3808122601,
				"y": -2.5236674816,
				"z": 1.104369019,
				"element": "O" 
			},
			{
				"x": 1.2274033896,
				"y": 0.013929011,
				"z": -0.4435964277,
				"element": "O" 
			},
			{
				"x": -0.1448573833,
				"y": 0.2482832332,
				"z": -0.262655608,
				"element": "C" 
			},
			{
				"x": -0.5396078173,
				"y": -0.2763516726,
				"z": 1.1279686796,
				"element": "C" 
			},
			{
				"x": -0.6380498205,
				"y": 0.8357108456,
				"z": 2.0101786759,
				"element": "O" 
			},
			{
				"x": -0.9207914113,
				"y": -0.31681305,
				"z": -1.3841059092,
				"element": "N" 
			},
			{
				"x": -1.3826357141,
				"y": 0.5148001786,
				"z": -2.386994834,
				"element": "C" 
			},
			{
				"x": -2.0069852083,
				"y": 0.0692307836,
				"z": -3.4976812039,
				"element": "C" 
			},
			{
				"x": -2.2048517816,
				"y": -1.3586861653,
				"z": -3.6985360325,
				"element": "C" 
			},
			{
				"x": -2.7494338572,
				"y": -1.8985627518,
				"z": -4.6460082098,
				"element": "O" 
			},
			{
				"x": -1.6791374073,
				"y": -2.1339078945,
				"z": -2.638978136,
				"element": "N" 
			},
			{
				"x": -1.0319793699,
				"y": -1.7060965176,
				"z": -1.4994799331,
				"element": "C" 
			},
			{
				"x": -0.6055220764,
				"y": -2.4775577063,
				"z": -0.6497117381,
				"element": "O" 
			},
			{
				"x": -1.5885505115,
				"y": -1.0697038105,
				"z": 3.6580195665,
				"element": "H" 
			},
			{
				"x": -1.9380630304,
				"y": 0.5127394728,
				"z": 4.3840681425,
				"element": "H" 
			},
			{
				"x": -0.6940013029,
				"y": -0.5431963513,
				"z": 5.092649334,
				"element": "H" 
			},
			{
				"x": -0.1825861779,
				"y": 2.4217299047,
				"z": 4.1282549107,
				"element": "H" 
			},
			{
				"x": 1.0732200578,
				"y": 1.3780667036,
				"z": 4.8296992355,
				"element": "H" 
			},
			{
				"x": 1.3075217054,
				"y": 2.0840988579,
				"z": 3.2139921128,
				"element": "H" 
			},
			{
				"x": 0.5049112499,
				"y": -2.1222839533,
				"z": 1.7094293644,
				"element": "H" 
			},
			{
				"x": 2.5355447566,
				"y": -0.0435083035,
				"z": 1.1667358709,
				"element": "H" 
			},
			{
				"x": 3.2696794579,
				"y": -1.5676583957,
				"z": -0.675890054,
				"element": "H" 
			},
			{
				"x": 1.8720605845,
				"y": -2.6122634252,
				"z": -0.3562846943,
				"element": "H" 
			},
			{
				"x": 2.7958459285,
				"y": -2.9852887892,
				"z": 1.7183850627,
				"element": "H" 
			},
			{
				"x": -0.3464472556,
				"y": 1.3242907971,
				"z": -0.2916292852,
				"element": "H" 
			},
			{
				"x": -1.4608290312,
				"y": -0.8646505003,
				"z": 1.1138927295,
				"element": "H" 
			},
			{
				"x": -1.2111417889,
				"y": 1.5712462101,
				"z": -2.2118056418,
				"element": "H" 
			},
			{
				"x": -2.3654558785,
				"y": 0.7497905803,
				"z": -4.2574046161,
				"element": "H" 
			},
			{
				"x": -1.7759864886,
				"y": -3.1386075702,
				"z": -2.7285128272,
				"element": "H" 
			}
		],
		 "valence_orbital": [ 
			{
				"type": "occ",
				"energy": -0.2824,
				"method": "rhf"
			},
			{
				"type": "occ",
				"energy": -0.27139,
				"method": "rhf"
			},
			{
				"type": "occ",
				"energy": -0.26533,
				"method": "rhf"
			},
			{
				"type": "occ",
				"energy": -0.25818,
				"method": "rhf"
			},
			{
				"type": "occ",
				"energy": -0.25333,
				"method": "rhf"
			},
			{
				"type": "unocc",
				"energy": -0.04693,
				"method": "rhf"
			},
			{
				"type": "unocc",
				"energy": -0.00399,
				"method": "rhf"
			},
			{
				"type": "unocc",
				"energy": 0.05286,
				"method": "rhf"
			},
			{
				"type": "unocc",
				"energy": 0.06576,
				"method": "rhf"
			},
			{
				"type": "unocc",
				"energy": 0.08013,
				"method": "rhf"
			}
		],
		"cosmo_sigma_profile": { 
			"-0.025": 0.0,
			"-0.024": 0.0,
			"-0.023": 0.0,
			"-0.022": 0.0,
			"-0.021": 0.0,
			"-0.02": 0.0,
			"-0.019": 0.0,
			"-0.018": 0.0,
			"-0.017": 0.00871477767213,
			"-0.016": 0.95882390848,
			"-0.015": 1.59379785321,
			"-0.014": 1.7643969936,
			"-0.013": 2.48695623754,
			"-0.012": 3.15051545168,
			"-0.011": 3.95172940268,
			"-0.01": 4.2548542128,
			"-0.009": 3.04504861982,
			"-0.008": 5.31203803558,
			"-0.007": 7.35409333868,
			"-0.006": 10.0299793826,
			"-0.005": 15.8542428529,
			"-0.004": 25.3383215963,
			"-0.003": 23.0946405857,
			"-0.002": 25.2507028749,
			"-0.001": 26.4090155031,
			"0.0": 25.52146213,
			"0.001": 17.6654496988,
			"0.002": 11.3899676042,
			"0.003": 9.34971526253,
			"0.004": 8.49035559118,
			"0.005": 7.47889547924,
			"0.006": 7.07825956598,
			"0.007": 5.76708140304,
			"0.008": 6.49194834628,
			"0.009": 7.55853687177,
			"0.01": 5.21938493435,
			"0.011": 8.02173423471,
			"0.012": 8.61583855061,
			"0.013": 7.33079797807,
			"0.014": 2.9765718495,
			"0.015": 0.0645118475324,
			"0.016": 0.0,
			"0.017": 0.0,
			"0.018": 0.0,
			"0.019": 0.0,
			"0.02": 0.0,
			"0.021": 0.0,
			"0.022": 0.0,
			"0.023": 0.0,
			"0.024": 0.0,
			"0.025": 0.0
		}
	}
}
