{
	 "smiles": "CC(CCC=C(C)C)C1CCC2C3CC=C4CC(O)CCC4(C)C3CCC12C", 
	 "Tm": 395.15, 
	 "num_atms": 72, 
	 "gaussian": { 
		 "optdone": 1, 
		 "sigma_profile": "yes", 
		 "theory": "DFT", 
		 "functional": "B3LYP", 
		 "basiset": "6-31G**", 
		 "properties": { 
			 "R2extent": 18417.6385, 
			 "electric_dipole_moment_norm": 1.75238297184, 
			 "electric_quadrupole_moment_norm": 16.5034421267, 
			 "total_energy": -1130.61269156, 
			 "HOMO_LUMO_gap": 0.25477, 
			 "cosmo_polarized_energy": -8.12, 
			 "cosmo_cavitation_energy": 61.09, 
			 "cosmo_dispersion_energy": -41.42, 
			 "cosmo_repulsion_energy": 3.08, 
			 "cosmo_total_nonelectrostatic_energy": 22.75, 
			 "SMD_solvation_energy": 8.61 
		},
		"coords": [
			{
				"x": 1.8700052936,
				"y": 3.3162936056,
				"z": 0.1626531992,
				"element": "C" 
			},
			{
				"x": 1.600500268,
				"y": 2.4630471466,
				"z": -1.0904593477,
				"element": "C" 
			},
			{
				"x": 2.8037812619,
				"y": 1.5451202832,
				"z": -1.4244112151,
				"element": "C" 
			},
			{
				"x": 3.9393294844,
				"y": 2.2131829653,
				"z": -2.2368302933,
				"element": "C" 
			},
			{
				"x": 4.7574262728,
				"y": 3.2354829249,
				"z": -1.4930369376,
				"element": "C" 
			},
			{
				"x": 5.0785487503,
				"y": 4.4877683997,
				"z": -1.8571012569,
				"element": "C" 
			},
			{
				"x": 5.9558894187,
				"y": 5.3467358095,
				"z": -0.9765785001,
				"element": "C" 
			},
			{
				"x": 4.6334612566,
				"y": 5.1583748774,
				"z": -3.1340464669,
				"element": "C" 
			},
			{
				"x": 0.1997240703,
				"y": 1.7788185653,
				"z": -1.0676633539,
				"element": "C" 
			},
			{
				"x": -0.237410346,
				"y": 1.2456720317,
				"z": -2.455489947,
				"element": "C" 
			},
			{
				"x": -1.3883043765,
				"y": 0.2424370099,
				"z": -2.1922707326,
				"element": "C" 
			},
			{
				"x": -1.5880282925,
				"y": 0.2223876527,
				"z": -0.6531585257,
				"element": "C" 
			},
			{
				"x": -2.1907980607,
				"y": -1.0771849888,
				"z": -0.0659196173,
				"element": "C" 
			},
			{
				"x": -3.4868250082,
				"y": -1.4694034552,
				"z": -0.7950833096,
				"element": "C" 
			},
			{
				"x": -4.0094598118,
				"y": -2.8083006102,
				"z": -0.3572467983,
				"element": "C" 
			},
			{
				"x": -3.2764736304,
				"y": -3.7416741456,
				"z": 0.2604808413,
				"element": "C" 
			},
			{
				"x": -3.9011734152,
				"y": -5.0364170506,
				"z": 0.7465195828,
				"element": "C" 
			},
			{
				"x": -3.4808315791,
				"y": -5.3797568042,
				"z": 2.1953728101,
				"element": "C" 
			},
			{
				"x": -4.6315627058,
				"y": -5.9286275044,
				"z": 2.8385599768,
				"element": "O" 
			},
			{
				"x": -2.9715916364,
				"y": -4.1209731167,
				"z": 2.9010468948,
				"element": "C" 
			},
			{
				"x": -1.7463230032,
				"y": -3.4913655539,
				"z": 2.2001726624,
				"element": "C" 
			},
			{
				"x": -1.8064147426,
				"y": -3.5453361053,
				"z": 0.6295581713,
				"element": "C" 
			},
			{
				"x": -0.9906378942,
				"y": -4.7634286614,
				"z": 0.1210656391,
				"element": "C" 
			},
			{
				"x": -1.2018946165,
				"y": -2.2629053738,
				"z": -0.0454642257,
				"element": "C" 
			},
			{
				"x": 0.1514366777,
				"y": -1.835291748,
				"z": 0.5593553916,
				"element": "C" 
			},
			{
				"x": 0.7402196924,
				"y": -0.5900300131,
				"z": -0.1206919707,
				"element": "C" 
			},
			{
				"x": -0.2007115465,
				"y": 0.6382132105,
				"z": -0.0677543843,
				"element": "C" 
			},
			{
				"x": -0.3491324331,
				"y": 1.1448725856,
				"z": 1.3783112338,
				"element": "C" 
			},
			{
				"x": 1.0084716195,
				"y": 3.9480773219,
				"z": 0.4061286599,
				"element": "H" 
			},
			{
				"x": 2.7326328304,
				"y": 3.9686292822,
				"z": 0.0060602764,
				"element": "H" 
			},
			{
				"x": 2.085078714,
				"y": 2.6954135708,
				"z": 1.0379814705,
				"element": "H" 
			},
			{
				"x": 1.5175154224,
				"y": 3.1724401446,
				"z": -1.9296385324,
				"element": "H" 
			},
			{
				"x": 2.4642363767,
				"y": 0.6857656614,
				"z": -2.0106715504,
				"element": "H" 
			},
			{
				"x": 3.223902944,
				"y": 1.1291378687,
				"z": -0.4991207715,
				"element": "H" 
			},
			{
				"x": 4.6187328799,
				"y": 1.4101398778,
				"z": -2.5622572203,
				"element": "H" 
			},
			{
				"x": 3.5166679056,
				"y": 2.6359605581,
				"z": -3.1549437518,
				"element": "H" 
			},
			{
				"x": 5.1588815899,
				"y": 2.8790001338,
				"z": -0.5420756451,
				"element": "H" 
			},
			{
				"x": 5.4396996953,
				"y": 6.2710801447,
				"z": -0.6841008543,
				"element": "H" 
			},
			{
				"x": 6.8664192914,
				"y": 5.6564738547,
				"z": -1.5072306996,
				"element": "H" 
			},
			{
				"x": 6.25735636,
				"y": 4.8235223189,
				"z": -0.0648033116,
				"element": "H" 
			},
			{
				"x": 3.970350622,
				"y": 4.538859469,
				"z": -3.7402618376,
				"element": "H" 
			},
			{
				"x": 4.1099392501,
				"y": 6.0982242033,
				"z": -2.9147297691,
				"element": "H" 
			},
			{
				"x": 5.5005601922,
				"y": 5.4256919684,
				"z": -3.7528143931,
				"element": "H" 
			},
			{
				"x": -0.4949140723,
				"y": 2.5976971173,
				"z": -0.8244738499,
				"element": "H" 
			},
			{
				"x": 0.593792242,
				"y": 0.7511125768,
				"z": -2.9694023998,
				"element": "H" 
			},
			{
				"x": -0.5464822421,
				"y": 2.0720040884,
				"z": -3.1045828443,
				"element": "H" 
			},
			{
				"x": -1.1257507921,
				"y": -0.7520947981,
				"z": -2.5686753108,
				"element": "H" 
			},
			{
				"x": -2.308823139,
				"y": 0.5319226886,
				"z": -2.7077126612,
				"element": "H" 
			},
			{
				"x": -2.2913176563,
				"y": 1.0325756089,
				"z": -0.408032305,
				"element": "H" 
			},
			{
				"x": -2.4651734346,
				"y": -0.8650260825,
				"z": 0.9783203267,
				"element": "H" 
			},
			{
				"x": -3.3196678591,
				"y": -1.4804900786,
				"z": -1.8819692707,
				"element": "H" 
			},
			{
				"x": -4.2533755791,
				"y": -0.7000772245,
				"z": -0.6271152202,
				"element": "H" 
			},
			{
				"x": -5.0605060556,
				"y": -3.0157165157,
				"z": -0.5583941051,
				"element": "H" 
			},
			{
				"x": -3.6530133115,
				"y": -5.8740718794,
				"z": 0.0824382638,
				"element": "H" 
			},
			{
				"x": -4.9911155285,
				"y": -4.9412752372,
				"z": 0.7421250713,
				"element": "H" 
			},
			{
				"x": -2.6766362043,
				"y": -6.1334106838,
				"z": 2.1850471474,
				"element": "H" 
			},
			{
				"x": -4.3749526895,
				"y": -6.1820002236,
				"z": 3.7350901326,
				"element": "H" 
			},
			{
				"x": -2.7222771322,
				"y": -4.3468384427,
				"z": 3.9465266774,
				"element": "H" 
			},
			{
				"x": -3.8002342183,
				"y": -3.4032041835,
				"z": 2.9210523048,
				"element": "H" 
			},
			{
				"x": -0.8269638639,
				"y": -3.9821999696,
				"z": 2.5424426726,
				"element": "H" 
			},
			{
				"x": -1.6792805874,
				"y": -2.4510334179,
				"z": 2.5333692944,
				"element": "H" 
			},
			{
				"x": -1.098243396,
				"y": -4.8763647764,
				"z": -0.9632065556,
				"element": "H" 
			},
			{
				"x": 0.073613863,
				"y": -4.639062385,
				"z": 0.343383253,
				"element": "H" 
			},
			{
				"x": -1.3058053137,
				"y": -5.7007215563,
				"z": 0.585819774,
				"element": "H" 
			},
			{
				"x": -1.0124862773,
				"y": -2.5407415521,
				"z": -1.0940594021,
				"element": "H" 
			},
			{
				"x": 0.8767520157,
				"y": -2.6532064292,
				"z": 0.4805144471,
				"element": "H" 
			},
			{
				"x": 0.0374387844,
				"y": -1.6375013472,
				"z": 1.6306235746,
				"element": "H" 
			},
			{
				"x": 1.6981101635,
				"y": -0.3446174803,
				"z": 0.3509110884,
				"element": "H" 
			},
			{
				"x": 0.968791749,
				"y": -0.8391571323,
				"z": -1.1639668401,
				"element": "H" 
			},
			{
				"x": -0.8721183439,
				"y": 0.4216041221,
				"z": 2.011475639,
				"element": "H" 
			},
			{
				"x": -0.925470773,
				"y": 2.0763377669,
				"z": 1.4067308538,
				"element": "H" 
			},
			{
				"x": 0.6202146104,
				"y": 1.3384291121,
				"z": 1.8462086532,
				"element": "H" 
			}
		],
		 "valence_orbital": [ 
			{
				"type": "occ",
				"energy": -0.27323,
				"method": "rhf"
			},
			{
				"type": "occ",
				"energy": -0.26363,
				"method": "rhf"
			},
			{
				"type": "occ",
				"energy": -0.25566,
				"method": "rhf"
			},
			{
				"type": "occ",
				"energy": -0.22474,
				"method": "rhf"
			},
			{
				"type": "occ",
				"energy": -0.22269,
				"method": "rhf"
			},
			{
				"type": "unocc",
				"energy": 0.03208,
				"method": "rhf"
			},
			{
				"type": "unocc",
				"energy": 0.03427,
				"method": "rhf"
			},
			{
				"type": "unocc",
				"energy": 0.07053,
				"method": "rhf"
			},
			{
				"type": "unocc",
				"energy": 0.07786,
				"method": "rhf"
			},
			{
				"type": "unocc",
				"energy": 0.07924,
				"method": "rhf"
			}
		],
		"cosmo_sigma_profile": { 
			"-0.025": 0.0,
			"-0.024": 0.0,
			"-0.023": 0.0,
			"-0.022": 0.0,
			"-0.021": 0.0,
			"-0.02": 0.0,
			"-0.019": 0.0,
			"-0.018": 0.0,
			"-0.017": 0.0,
			"-0.016": 0.0,
			"-0.015": 0.401514839412,
			"-0.014": 1.24526852136,
			"-0.013": 0.661221743172,
			"-0.012": 0.772659369127,
			"-0.011": 1.38114684612,
			"-0.01": 1.06521667371,
			"-0.009": 0.605787914926,
			"-0.008": 0.624263114851,
			"-0.007": 0.754182965402,
			"-0.006": 1.55341419991,
			"-0.005": 1.39958249857,
			"-0.004": 6.54706261246,
			"-0.003": 36.1823844967,
			"-0.002": 64.2166621454,
			"-0.001": 94.4379591885,
			"0.0": 86.9333246774,
			"0.001": 73.3393857485,
			"0.002": 44.1126843816,
			"0.003": 17.3236802758,
			"0.004": 9.1031535794,
			"0.005": 6.18114197557,
			"0.006": 3.85804325669,
			"0.007": 3.19229295582,
			"0.008": 1.50985849168,
			"0.009": 1.0418456947,
			"0.01": 1.91558118436,
			"0.011": 0.631905322945,
			"0.012": 1.53326635036,
			"0.013": 1.66126078161,
			"0.014": 2.1495615218,
			"0.015": 0.73346526215,
			"0.016": 0.0,
			"0.017": 0.0,
			"0.018": 0.0,
			"0.019": 0.0,
			"0.02": 0.0,
			"0.021": 0.0,
			"0.022": 0.0,
			"0.023": 0.0,
			"0.024": 0.0,
			"0.025": 0.0
		}
	}
}
