{
	 "smiles": "FC(F)(F)C1=C(C=CC=C1)S(=O)(=O)NC1=C(Cl)N=C2C=CC=CC2=N1", 
	 "Tm": 431.15, 
	 "num_atms": 34, 
	 "gaussian": { 
		 "optdone": 1, 
		 "sigma_profile": "yes", 
		 "theory": "DFT", 
		 "functional": "B3LYP", 
		 "basiset": "6-31G**", 
		 "properties": { 
			 "R2extent": 9156.809, 
			 "electric_dipole_moment_norm": 7.94439507263, 
			 "electric_quadrupole_moment_norm": 25.4080457017, 
			 "total_energy": -2049.54371893, 
			 "HOMO_LUMO_gap": 0.16712, 
			 "cosmo_polarized_energy": -19.49, 
			 "cosmo_cavitation_energy": 42.37, 
			 "cosmo_dispersion_energy": -29.43, 
			 "cosmo_repulsion_energy": 2.13, 
			 "cosmo_total_nonelectrostatic_energy": 15.06, 
			 "SMD_solvation_energy": 3.92 
		},
		"coords": [
			{
				"x": 0.2723357824,
				"y": -1.1920312082,
				"z": 3.1785248743,
				"element": "F" 
			},
			{
				"x": 0.277713341,
				"y": -0.3574781782,
				"z": 2.1294082273,
				"element": "C" 
			},
			{
				"x": -0.2210775807,
				"y": 0.8241477183,
				"z": 2.5642406006,
				"element": "F" 
			},
			{
				"x": -0.5986450789,
				"y": -0.8211554699,
				"z": 1.2129642376,
				"element": "F" 
			},
			{
				"x": 1.6747199383,
				"y": -0.1745780781,
				"z": 1.5565708821,
				"element": "C" 
			},
			{
				"x": 2.4074512208,
				"y": -1.1708382674,
				"z": 0.8764700744,
				"element": "C" 
			},
			{
				"x": 3.7142906814,
				"y": -0.9113471134,
				"z": 0.4516447378,
				"element": "C" 
			},
			{
				"x": 4.3062630203,
				"y": 0.3292375211,
				"z": 0.6821414211,
				"element": "C" 
			},
			{
				"x": 3.5892276029,
				"y": 1.3193899812,
				"z": 1.3461646786,
				"element": "C" 
			},
			{
				"x": 2.2901817104,
				"y": 1.0618456874,
				"z": 1.7813356341,
				"element": "C" 
			},
			{
				"x": 1.813950047,
				"y": -2.8474504928,
				"z": 0.4572186653,
				"element": "S" 
			},
			{
				"x": 3.0145352787,
				"y": -3.6459794736,
				"z": 0.2248913656,
				"element": "O" 
			},
			{
				"x": 0.7736681407,
				"y": -3.2509989165,
				"z": 1.3875667308,
				"element": "O" 
			},
			{
				"x": 1.1167445526,
				"y": -2.7100087124,
				"z": -1.1103370263,
				"element": "N" 
			},
			{
				"x": -0.1103959507,
				"y": -2.0435224845,
				"z": -1.3452109859,
				"element": "C" 
			},
			{
				"x": -1.378626055,
				"y": -2.6957316819,
				"z": -1.1311410639,
				"element": "C" 
			},
			{
				"x": -1.4384317525,
				"y": -4.3637482937,
				"z": -0.623715946,
				"element": "Cl" 
			},
			{
				"x": -2.5077665613,
				"y": -2.0980137462,
				"z": -1.3647865479,
				"element": "N" 
			},
			{
				"x": -2.4708449907,
				"y": -0.825111198,
				"z": -1.8558226346,
				"element": "C" 
			},
			{
				"x": -3.6775593121,
				"y": -0.1334628571,
				"z": -2.117856068,
				"element": "C" 
			},
			{
				"x": -3.6324454455,
				"y": 1.1367597358,
				"z": -2.6523933453,
				"element": "C" 
			},
			{
				"x": -2.3917846255,
				"y": 1.7555356237,
				"z": -2.9470007279,
				"element": "C" 
			},
			{
				"x": -1.2029891583,
				"y": 1.1022998352,
				"z": -2.7005180497,
				"element": "C" 
			},
			{
				"x": -1.2214413343,
				"y": -0.1987675522,
				"z": -2.1422206285,
				"element": "C" 
			},
			{
				"x": -0.0516190019,
				"y": -0.8400230322,
				"z": -1.862297471,
				"element": "N" 
			},
			{
				"x": 4.2699146456,
				"y": -1.701618249,
				"z": -0.0395811017,
				"element": "H" 
			},
			{
				"x": 5.3233671599,
				"y": 0.5105876337,
				"z": 0.3492663663,
				"element": "H" 
			},
			{
				"x": 4.03573041,
				"y": 2.2903871805,
				"z": 1.5360084312,
				"element": "H" 
			},
			{
				"x": 1.7372076818,
				"y": 1.8287420574,
				"z": 2.3083972106,
				"element": "H" 
			},
			{
				"x": 1.8348249544,
				"y": -2.3560459518,
				"z": -1.739910102,
				"element": "H" 
			},
			{
				"x": -4.6139736688,
				"y": -0.631733056,
				"z": -1.8906819116,
				"element": "H" 
			},
			{
				"x": -4.5555080012,
				"y": 1.6715427755,
				"z": -2.8546920701,
				"element": "H" 
			},
			{
				"x": -2.3824388232,
				"y": 2.7554480359,
				"z": -3.3702336219,
				"element": "H" 
			},
			{
				"x": -0.2411788277,
				"y": 1.5574202272,
				"z": -2.9129148354,
				"element": "H" 
			}
		],
		 "valence_orbital": [ 
			{
				"type": "occ",
				"energy": -0.29219,
				"method": "rhf"
			},
			{
				"type": "occ",
				"energy": -0.28713,
				"method": "rhf"
			},
			{
				"type": "occ",
				"energy": -0.27408,
				"method": "rhf"
			},
			{
				"type": "occ",
				"energy": -0.25561,
				"method": "rhf"
			},
			{
				"type": "occ",
				"energy": -0.25389,
				"method": "rhf"
			},
			{
				"type": "unocc",
				"energy": -0.08677,
				"method": "rhf"
			},
			{
				"type": "unocc",
				"energy": -0.06294,
				"method": "rhf"
			},
			{
				"type": "unocc",
				"energy": -0.04371,
				"method": "rhf"
			},
			{
				"type": "unocc",
				"energy": -0.04067,
				"method": "rhf"
			},
			{
				"type": "unocc",
				"energy": -0.00404,
				"method": "rhf"
			}
		],
		"cosmo_sigma_profile": { 
			"-0.025": 0.0,
			"-0.024": 0.0,
			"-0.023": 0.0,
			"-0.022": 0.0,
			"-0.021": 0.0,
			"-0.02": 0.0,
			"-0.019": 0.0,
			"-0.018": 0.0,
			"-0.017": 0.0,
			"-0.016": 0.611869599328,
			"-0.015": 0.917089711264,
			"-0.014": 1.08596336559,
			"-0.013": 1.0536785872,
			"-0.012": 0.567029649688,
			"-0.011": 1.20355908311,
			"-0.01": 1.62666874029,
			"-0.009": 0.609818518242,
			"-0.008": 6.39258028518,
			"-0.007": 18.140373428,
			"-0.006": 17.9434473975,
			"-0.005": 18.0360884397,
			"-0.004": 16.1754731762,
			"-0.003": 17.4448466437,
			"-0.002": 17.403145474,
			"-0.001": 23.3899817908,
			"0.0": 33.5294572707,
			"0.001": 39.6333091847,
			"0.002": 39.1348352856,
			"0.003": 23.9788658512,
			"0.004": 13.385617576,
			"0.005": 8.8835193214,
			"0.006": 7.85190067389,
			"0.007": 7.07810190634,
			"0.008": 7.9186576114,
			"0.009": 8.92376000074,
			"0.01": 7.98913362655,
			"0.011": 2.9194135186,
			"0.012": 0.535232598822,
			"0.013": 0.0662953094404,
			"0.014": 0.0,
			"0.015": 0.0,
			"0.016": 0.0,
			"0.017": 0.0,
			"0.018": 0.0,
			"0.019": 0.0,
			"0.02": 0.0,
			"0.021": 0.0,
			"0.022": 0.0,
			"0.023": 0.0,
			"0.024": 0.0,
			"0.025": 0.0
		}
	}
}
