{
	 "smiles": "CCOC(=O)C1=CNN=C1C", 
	 "Tm": 410.15, 
	 "num_atms": 21, 
	 "gaussian": { 
		 "optdone": 1, 
		 "sigma_profile": "yes", 
		 "theory": "DFT", 
		 "functional": "B3LYP", 
		 "basiset": "6-31G**", 
		 "properties": { 
			 "R2extent": 2229.147, 
			 "electric_dipole_moment_norm": 3.47482174795, 
			 "electric_quadrupole_moment_norm": 8.12928805677, 
			 "total_energy": -532.727042743, 
			 "HOMO_LUMO_gap": 0.23555, 
			 "cosmo_polarized_energy": -12.73, 
			 "cosmo_cavitation_energy": 25.19, 
			 "cosmo_dispersion_energy": -18.41, 
			 "cosmo_repulsion_energy": 1.52, 
			 "cosmo_total_nonelectrostatic_energy": 8.3, 
			 "SMD_solvation_energy": 4.86 
		},
		"coords": [
			{
				"x": -3.7615910012,
				"y": 1.4962920236,
				"z": 0.6417528769,
				"element": "C" 
			},
			{
				"x": -3.4419439996,
				"y": 0.0241297803,
				"z": 0.4258917537,
				"element": "C" 
			},
			{
				"x": -2.3358918885,
				"y": -0.1479662833,
				"z": -0.4887435301,
				"element": "O" 
			},
			{
				"x": -1.0902921802,
				"y": -0.0912777557,
				"z": 0.0545355099,
				"element": "C" 
			},
			{
				"x": -0.8797026039,
				"y": 0.0862426255,
				"z": 1.2413925321,
				"element": "O" 
			},
			{
				"x": -0.0516286712,
				"y": -0.2736270965,
				"z": -0.9597038362,
				"element": "C" 
			},
			{
				"x": -0.2177609961,
				"y": -0.4823878882,
				"z": -2.3216791162,
				"element": "C" 
			},
			{
				"x": 1.023720677,
				"y": -0.5900452056,
				"z": -2.8341635218,
				"element": "N" 
			},
			{
				"x": 2.0062721255,
				"y": -0.4674213142,
				"z": -1.9020603965,
				"element": "N" 
			},
			{
				"x": 1.363378032,
				"y": -0.273247053,
				"z": -0.7540614405,
				"element": "C" 
			},
			{
				"x": 2.1166875216,
				"y": -0.0908092117,
				"z": 0.5251138733,
				"element": "C" 
			},
			{
				"x": -2.9275858826,
				"y": 1.9997885198,
				"z": 1.1365230151,
				"element": "H" 
			},
			{
				"x": -3.9627120165,
				"y": 1.995842415,
				"z": -0.310695926,
				"element": "H" 
			},
			{
				"x": -4.6486466403,
				"y": 1.596091737,
				"z": 1.2764102141,
				"element": "H" 
			},
			{
				"x": -4.2743087256,
				"y": -0.4999066432,
				"z": -0.0508501164,
				"element": "H" 
			},
			{
				"x": -3.1986290621,
				"y": -0.4665610157,
				"z": 1.3712931375,
				"element": "H" 
			},
			{
				"x": -1.1109928016,
				"y": -0.5558797934,
				"z": -2.9232754615,
				"element": "H" 
			},
			{
				"x": 1.2837421009,
				"y": -0.7458073071,
				"z": -3.795687618,
				"element": "H" 
			},
			{
				"x": 1.8796292178,
				"y": 0.8729884804,
				"z": 0.9852557974,
				"element": "H" 
			},
			{
				"x": 3.1897859419,
				"y": -0.1445823819,
				"z": 0.3301743933,
				"element": "H" 
			},
			{
				"x": 1.8416708526,
				"y": -0.8583566319,
				"z": 1.2544778598,
				"element": "H" 
			}
		],
		 "valence_orbital": [ 
			{
				"type": "occ",
				"energy": -0.29233,
				"method": "rhf"
			},
			{
				"type": "occ",
				"energy": -0.29144,
				"method": "rhf"
			},
			{
				"type": "occ",
				"energy": -0.26733,
				"method": "rhf"
			},
			{
				"type": "occ",
				"energy": -0.25552,
				"method": "rhf"
			},
			{
				"type": "occ",
				"energy": -0.254,
				"method": "rhf"
			},
			{
				"type": "unocc",
				"energy": -0.01845,
				"method": "rhf"
			},
			{
				"type": "unocc",
				"energy": 0.0245,
				"method": "rhf"
			},
			{
				"type": "unocc",
				"energy": 0.07421,
				"method": "rhf"
			},
			{
				"type": "unocc",
				"energy": 0.11015,
				"method": "rhf"
			},
			{
				"type": "unocc",
				"energy": 0.11948,
				"method": "rhf"
			}
		],
		"cosmo_sigma_profile": { 
			"-0.025": 0.0,
			"-0.024": 0.0,
			"-0.023": 0.0,
			"-0.022": 0.0,
			"-0.021": 0.0,
			"-0.02": 0.0,
			"-0.019": 0.0,
			"-0.018": 0.0891769272796,
			"-0.017": 1.43659387564,
			"-0.016": 1.59262687149,
			"-0.015": 1.12038076215,
			"-0.014": 1.3073901532,
			"-0.013": 1.24774722493,
			"-0.012": 0.615588728344,
			"-0.011": 1.10126126474,
			"-0.01": 2.43462630014,
			"-0.009": 2.54576665871,
			"-0.008": 1.95244880009,
			"-0.007": 1.57947491505,
			"-0.006": 2.93061589941,
			"-0.005": 6.16929377252,
			"-0.004": 14.6434211287,
			"-0.003": 16.8623214033,
			"-0.002": 18.4307068707,
			"-0.001": 19.5313360668,
			"0.0": 22.6861423007,
			"0.001": 15.4205869648,
			"0.002": 14.0774604769,
			"0.003": 9.63644740899,
			"0.004": 6.5043202866,
			"0.005": 5.58950917128,
			"0.006": 4.36074679969,
			"0.007": 5.02980163731,
			"0.008": 3.38871875269,
			"0.009": 1.75658934325,
			"0.01": 3.17605771505,
			"0.011": 3.11862344621,
			"0.012": 4.11250713149,
			"0.013": 2.54447283208,
			"0.014": 0.774210055531,
			"0.015": 0.997484590459,
			"0.016": 0.368890885804,
			"0.017": 0.0,
			"0.018": 0.0,
			"0.019": 0.0,
			"0.02": 0.0,
			"0.021": 0.0,
			"0.022": 0.0,
			"0.023": 0.0,
			"0.024": 0.0,
			"0.025": 0.0
		}
	}
}
