{
	 "smiles": "CC1=CC(=O)NC=C1", 
	 "Tm": 403.15, 
	 "num_atms": 15, 
	 "gaussian": { 
		 "optdone": 1, 
		 "sigma_profile": "yes", 
		 "theory": "DFT", 
		 "functional": "B3LYP", 
		 "basiset": "6-31G**", 
		 "properties": { 
			 "R2extent": 971.3865, 
			 "electric_dipole_moment_norm": 4.35319565836, 
			 "electric_quadrupole_moment_norm": 11.2429794379, 
			 "total_energy": -362.842924143, 
			 "HOMO_LUMO_gap": 0.1808, 
			 "cosmo_polarized_energy": -13.4, 
			 "cosmo_cavitation_energy": 18.8, 
			 "cosmo_dispersion_energy": -14.15, 
			 "cosmo_repulsion_energy": 1.18, 
			 "cosmo_total_nonelectrostatic_energy": 5.84, 
			 "SMD_solvation_energy": 4.45 
		},
		"coords": [
			{
				"x": 1.1323745427,
				"y": -0.5518592159,
				"z": -2.0357675664,
				"element": "C" 
			},
			{
				"x": 0.2174618944,
				"y": -0.3654295088,
				"z": -0.8521346433,
				"element": "C" 
			},
			{
				"x": 0.2391880506,
				"y": 0.781670483,
				"z": -0.1040061128,
				"element": "C" 
			},
			{
				"x": -0.6279211595,
				"y": 0.9927980856,
				"z": 1.0407228412,
				"element": "C" 
			},
			{
				"x": -0.672247831,
				"y": 1.9857205854,
				"z": 1.7616666193,
				"element": "O" 
			},
			{
				"x": -1.4851463251,
				"y": -0.1009224554,
				"z": 1.2949155109,
				"element": "N" 
			},
			{
				"x": -1.5224034055,
				"y": -1.2513955033,
				"z": 0.5625482163,
				"element": "C" 
			},
			{
				"x": -0.6954707509,
				"y": -1.4183938273,
				"z": -0.5062858285,
				"element": "C" 
			},
			{
				"x": 0.5542249409,
				"y": -0.7200148156,
				"z": -2.9519787897,
				"element": "H" 
			},
			{
				"x": 1.7734701267,
				"y": -1.4304341649,
				"z": -1.8976516095,
				"element": "H" 
			},
			{
				"x": 1.7733635807,
				"y": 0.3189427531,
				"z": -2.1902688525,
				"element": "H" 
			},
			{
				"x": 0.916152859,
				"y": 1.5963354793,
				"z": -0.3375590545,
				"element": "H" 
			},
			{
				"x": -2.0986600655,
				"y": 0.0258082408,
				"z": 2.0898665581,
				"element": "H" 
			},
			{
				"x": -2.2372343659,
				"y": -2.0013400412,
				"z": 0.8836972458,
				"element": "H" 
			},
			{
				"x": -0.7316520917,
				"y": -2.3353860947,
				"z": -1.0825645347,
				"element": "H" 
			}
		],
		 "valence_orbital": [ 
			{
				"type": "occ",
				"energy": -0.36355,
				"method": "rhf"
			},
			{
				"type": "occ",
				"energy": -0.33356,
				"method": "rhf"
			},
			{
				"type": "occ",
				"energy": -0.28827,
				"method": "rhf"
			},
			{
				"type": "occ",
				"energy": -0.24166,
				"method": "rhf"
			},
			{
				"type": "occ",
				"energy": -0.2129,
				"method": "rhf"
			},
			{
				"type": "unocc",
				"energy": -0.0321,
				"method": "rhf"
			},
			{
				"type": "unocc",
				"energy": 0.01632,
				"method": "rhf"
			},
			{
				"type": "unocc",
				"energy": 0.07109,
				"method": "rhf"
			},
			{
				"type": "unocc",
				"energy": 0.10861,
				"method": "rhf"
			},
			{
				"type": "unocc",
				"energy": 0.12736,
				"method": "rhf"
			}
		],
		"cosmo_sigma_profile": { 
			"-0.025": 0.0,
			"-0.024": 0.0,
			"-0.023": 0.0,
			"-0.022": 0.0,
			"-0.021": 0.0,
			"-0.02": 0.0,
			"-0.019": 0.0,
			"-0.018": 0.0,
			"-0.017": 0.0,
			"-0.016": 0.264881133594,
			"-0.015": 1.67235044297,
			"-0.014": 1.37904121465,
			"-0.013": 0.805857901994,
			"-0.012": 1.46058255637,
			"-0.011": 0.853963713295,
			"-0.01": 1.56445978904,
			"-0.009": 3.34780406235,
			"-0.008": 2.6801224072,
			"-0.007": 2.35574859774,
			"-0.006": 4.70413225376,
			"-0.005": 10.8608735636,
			"-0.004": 11.635283178,
			"-0.003": 11.7330951005,
			"-0.002": 10.4946328919,
			"-0.001": 11.362770767,
			"0.0": 11.9839999663,
			"0.001": 10.5867244596,
			"0.002": 9.27241391931,
			"0.003": 10.52518655,
			"0.004": 6.53046471753,
			"0.005": 1.00585184468,
			"0.006": 1.55024382556,
			"0.007": 1.44308609512,
			"0.008": 1.07052611745,
			"0.009": 0.942057115789,
			"0.01": 1.12367596741,
			"0.011": 1.10553114385,
			"0.012": 1.48208146679,
			"0.013": 2.28760139362,
			"0.014": 4.02757305403,
			"0.015": 5.74822910768,
			"0.016": 1.45481857187,
			"0.017": 0.012682702459,
			"0.018": 0.0,
			"0.019": 0.0,
			"0.02": 0.0,
			"0.021": 0.0,
			"0.022": 0.0,
			"0.023": 0.0,
			"0.024": 0.0,
			"0.025": 0.0
		}
	}
}
