{
	 "smiles": "ClC1=NN=C(NCCC2=CC=CC=C2)C=C1", 
	 "Tm": 433.15, 
	 "num_atms": 28, 
	 "gaussian": { 
		 "optdone": 1, 
		 "sigma_profile": "yes", 
		 "theory": "DFT", 
		 "functional": "B3LYP", 
		 "basiset": "6-31G**", 
		 "properties": { 
			 "R2extent": 6715.6381, 
			 "electric_dipole_moment_norm": 5.79661046216, 
			 "electric_quadrupole_moment_norm": 17.7599583085, 
			 "total_energy": -1088.9254359, 
			 "HOMO_LUMO_gap": 0.17186, 
			 "cosmo_polarized_energy": -14.83, 
			 "cosmo_cavitation_energy": 34.21, 
			 "cosmo_dispersion_energy": -24.69, 
			 "cosmo_repulsion_energy": 1.94, 
			 "cosmo_total_nonelectrostatic_energy": 11.46, 
			 "SMD_solvation_energy": 2.75 
		},
		"coords": [
			{
				"x": -5.3921405667,
				"y": -0.2930322637,
				"z": -2.7408550498,
				"element": "Cl" 
			},
			{
				"x": -3.9900804851,
				"y": -0.2659603547,
				"z": -1.6817087023,
				"element": "C" 
			},
			{
				"x": -3.4905221211,
				"y": -1.4305776377,
				"z": -1.3309895498,
				"element": "N" 
			},
			{
				"x": -2.4191420238,
				"y": -1.4814955538,
				"z": -0.5320887453,
				"element": "N" 
			},
			{
				"x": -1.8698070795,
				"y": -0.3424255489,
				"z": -0.0757101479,
				"element": "C" 
			},
			{
				"x": -0.809679897,
				"y": -0.4558182863,
				"z": 0.7844778553,
				"element": "N" 
			},
			{
				"x": -0.1411020506,
				"y": -1.7271028321,
				"z": 1.0298546262,
				"element": "C" 
			},
			{
				"x": 0.7920519269,
				"y": -1.6215196486,
				"z": 2.248802936,
				"element": "C" 
			},
			{
				"x": 1.8759986533,
				"y": -0.5737601246,
				"z": 2.0906025729,
				"element": "C" 
			},
			{
				"x": 2.99737774,
				"y": -0.8182705394,
				"z": 1.2826615145,
				"element": "C" 
			},
			{
				"x": 3.9793097456,
				"y": 0.1556577725,
				"z": 1.106133421,
				"element": "C" 
			},
			{
				"x": 3.8580392541,
				"y": 1.3980699823,
				"z": 1.7344918653,
				"element": "C" 
			},
			{
				"x": 2.7501836632,
				"y": 1.6556190272,
				"z": 2.5416128307,
				"element": "C" 
			},
			{
				"x": 1.7686856868,
				"y": 0.6761075028,
				"z": 2.7174724498,
				"element": "C" 
			},
			{
				"x": -2.3766133498,
				"y": 0.9341118064,
				"z": -0.4358862784,
				"element": "C" 
			},
			{
				"x": -3.4680717144,
				"y": 0.9737926923,
				"z": -1.2659749037,
				"element": "C" 
			},
			{
				"x": -0.233960898,
				"y": 0.3678837699,
				"z": 0.8967877209,
				"element": "H" 
			},
			{
				"x": 0.428368113,
				"y": -2.052561942,
				"z": 0.1458679561,
				"element": "H" 
			},
			{
				"x": -0.9078783228,
				"y": -2.4848709711,
				"z": 1.2041572591,
				"element": "H" 
			},
			{
				"x": 0.1902639394,
				"y": -1.4019112542,
				"z": 3.1373578871,
				"element": "H" 
			},
			{
				"x": 1.2459551704,
				"y": -2.6071492672,
				"z": 2.4030797905,
				"element": "H" 
			},
			{
				"x": 3.1028092448,
				"y": -1.7837680639,
				"z": 0.7933267165,
				"element": "H" 
			},
			{
				"x": 4.8424900384,
				"y": -0.055567712,
				"z": 0.4812108031,
				"element": "H" 
			},
			{
				"x": 4.6245145262,
				"y": 2.1555760613,
				"z": 1.5993561274,
				"element": "H" 
			},
			{
				"x": 2.6503531854,
				"y": 2.6151749301,
				"z": 3.0412657839,
				"element": "H" 
			},
			{
				"x": 0.915224626,
				"y": 0.8773211823,
				"z": 3.361063272,
				"element": "H" 
			},
			{
				"x": -1.9143278803,
				"y": 1.8427413151,
				"z": -0.060466301,
				"element": "H" 
			},
			{
				"x": -3.9162991245,
				"y": 1.9058359581,
				"z": -1.59050371,
				"element": "H" 
			}
		],
		 "valence_orbital": [ 
			{
				"type": "occ",
				"energy": -0.29424,
				"method": "rhf"
			},
			{
				"type": "occ",
				"energy": -0.26156,
				"method": "rhf"
			},
			{
				"type": "occ",
				"energy": -0.25477,
				"method": "rhf"
			},
			{
				"type": "occ",
				"energy": -0.23403,
				"method": "rhf"
			},
			{
				"type": "occ",
				"energy": -0.22156,
				"method": "rhf"
			},
			{
				"type": "unocc",
				"energy": -0.0497,
				"method": "rhf"
			},
			{
				"type": "unocc",
				"energy": -0.01547,
				"method": "rhf"
			},
			{
				"type": "unocc",
				"energy": -0.01319,
				"method": "rhf"
			},
			{
				"type": "unocc",
				"energy": -0.00759,
				"method": "rhf"
			},
			{
				"type": "unocc",
				"energy": 0.03443,
				"method": "rhf"
			}
		],
		"cosmo_sigma_profile": { 
			"-0.025": 0.0,
			"-0.024": 0.0,
			"-0.023": 0.0,
			"-0.022": 0.0,
			"-0.021": 0.0,
			"-0.02": 0.0,
			"-0.019": 0.0,
			"-0.018": 0.0,
			"-0.017": 0.0,
			"-0.016": 0.0,
			"-0.015": 0.0,
			"-0.014": 0.0,
			"-0.013": 0.604058165041,
			"-0.012": 0.981214388936,
			"-0.011": 1.05824171137,
			"-0.01": 1.59016883769,
			"-0.009": 4.30089758982,
			"-0.008": 4.75099240711,
			"-0.007": 4.15351214427,
			"-0.006": 7.02988975427,
			"-0.005": 17.5266300871,
			"-0.004": 24.7081991821,
			"-0.003": 25.2406674705,
			"-0.002": 24.7214338439,
			"-0.001": 26.4896026694,
			"0.0": 19.7507830226,
			"0.001": 16.5937797938,
			"0.002": 14.4794249835,
			"0.003": 16.7835687399,
			"0.004": 18.695119926,
			"0.005": 15.3454837648,
			"0.006": 10.3149618409,
			"0.007": 2.38693088439,
			"0.008": 2.15040833136,
			"0.009": 2.95055176021,
			"0.01": 2.052143217,
			"0.011": 1.90662252651,
			"0.012": 2.03136019719,
			"0.013": 2.90957565542,
			"0.014": 2.59703365084,
			"0.015": 1.23744162391,
			"0.016": 0.096831988975,
			"0.017": 0.0,
			"0.018": 0.0,
			"0.019": 0.0,
			"0.02": 0.0,
			"0.021": 0.0,
			"0.022": 0.0,
			"0.023": 0.0,
			"0.024": 0.0,
			"0.025": 0.0
		}
	}
}
