{
	 "smiles": "CC1=CC(Br)=CC(N)=C1N", 
	 "Tm": 336.65, 
	 "num_atms": 19, 
	 "gaussian": { 
		 "optdone": 1, 
		 "sigma_profile": "yes", 
		 "theory": "DFT", 
		 "functional": "B3LYP", 
		 "basiset": "6-31G**", 
		 "properties": { 
			 "R2extent": 2942.3065, 
			 "electric_dipole_moment_norm": 3.42634030271, 
			 "electric_quadrupole_moment_norm": 10.4095517521, 
			 "total_energy": -2953.0901182, 
			 "HOMO_LUMO_gap": 0.19829, 
			 "cosmo_polarized_energy": -10.83, 
			 "cosmo_cavitation_energy": 24.3, 
			 "cosmo_dispersion_energy": -18.65, 
			 "cosmo_repulsion_energy": 1.52, 
			 "cosmo_total_nonelectrostatic_energy": 7.16, 
			 "SMD_solvation_energy": 2.88 
		},
		"coords": [
			{
				"x": 0.3573159004,
				"y": -0.8199988622,
				"z": -2.8079119674,
				"element": "C" 
			},
			{
				"x": -0.1225862178,
				"y": -0.4531329387,
				"z": -1.4239785747,
				"element": "C" 
			},
			{
				"x": -1.1029006916,
				"y": 0.5341284465,
				"z": -1.2519844905,
				"element": "C" 
			},
			{
				"x": -1.5279126044,
				"y": 0.8754371714,
				"z": 0.0254775891,
				"element": "C" 
			},
			{
				"x": -2.8558486965,
				"y": 2.239231343,
				"z": 0.2476824226,
				"element": "Br" 
			},
			{
				"x": -1.0208382806,
				"y": 0.2333716619,
				"z": 1.1525716604,
				"element": "C" 
			},
			{
				"x": -0.0507777103,
				"y": -0.7583254157,
				"z": 0.9967787012,
				"element": "C" 
			},
			{
				"x": 0.5308194457,
				"y": -1.4256300035,
				"z": 2.093682299,
				"element": "N" 
			},
			{
				"x": 0.4178849831,
				"y": -1.0911231817,
				"z": -0.2953422826,
				"element": "C" 
			},
			{
				"x": 1.3906854836,
				"y": -2.1031912453,
				"z": -0.3879119005,
				"element": "N" 
			},
			{
				"x": -0.1496780865,
				"y": -0.2226213006,
				"z": -3.5691887934,
				"element": "H" 
			},
			{
				"x": 1.4363070545,
				"y": -0.647962173,
				"z": -2.9251601318,
				"element": "H" 
			},
			{
				"x": 0.1708176238,
				"y": -1.8768367595,
				"z": -3.0372955926,
				"element": "H" 
			},
			{
				"x": -1.5188340361,
				"y": 1.036946219,
				"z": -2.1177817219,
				"element": "H" 
			},
			{
				"x": -1.3814001396,
				"y": 0.4929023141,
				"z": 2.1425236735,
				"element": "H" 
			},
			{
				"x": 0.0740514313,
				"y": -1.2163397502,
				"z": 2.9729772042,
				"element": "H" 
			},
			{
				"x": 0.5692919414,
				"y": -2.4313694272,
				"z": 1.9532398263,
				"element": "H" 
			},
			{
				"x": 1.8469423592,
				"y": -2.1539193163,
				"z": -1.2890271384,
				"element": "H" 
			},
			{
				"x": 2.0786602405,
				"y": -2.0378667821,
				"z": 0.3563492175,
				"element": "H" 
			}
		],
		 "valence_orbital": [ 
			{
				"type": "occ",
				"energy": -0.31011,
				"method": "rhf"
			},
			{
				"type": "occ",
				"energy": -0.27384,
				"method": "rhf"
			},
			{
				"type": "occ",
				"energy": -0.26915,
				"method": "rhf"
			},
			{
				"type": "occ",
				"energy": -0.22312,
				"method": "rhf"
			},
			{
				"type": "occ",
				"energy": -0.19117,
				"method": "rhf"
			},
			{
				"type": "unocc",
				"energy": 0.00712,
				"method": "rhf"
			},
			{
				"type": "unocc",
				"energy": 0.01607,
				"method": "rhf"
			},
			{
				"type": "unocc",
				"energy": 0.02027,
				"method": "rhf"
			},
			{
				"type": "unocc",
				"energy": 0.06664,
				"method": "rhf"
			},
			{
				"type": "unocc",
				"energy": 0.09578,
				"method": "rhf"
			}
		],
		"cosmo_sigma_profile": { 
			"-0.025": 0.0,
			"-0.024": 0.0,
			"-0.023": 0.0,
			"-0.022": 0.0,
			"-0.021": 0.0,
			"-0.02": 0.0,
			"-0.019": 0.0,
			"-0.018": 0.0,
			"-0.017": 0.0,
			"-0.016": 0.0,
			"-0.015": 0.0,
			"-0.014": 0.0,
			"-0.013": 0.0610361668307,
			"-0.012": 1.22359249105,
			"-0.011": 3.93767623138,
			"-0.01": 5.13209881482,
			"-0.009": 5.97493898271,
			"-0.008": 5.68333852575,
			"-0.007": 4.90172785293,
			"-0.006": 6.03705427823,
			"-0.005": 9.57401389328,
			"-0.004": 10.9232689943,
			"-0.003": 9.84638903614,
			"-0.002": 11.3643532515,
			"-0.001": 10.888229274,
			"0.0": 14.3621762811,
			"0.001": 10.8522781417,
			"0.002": 9.27298266332,
			"0.003": 11.7008365297,
			"0.004": 17.1440801828,
			"0.005": 23.3044824264,
			"0.006": 12.8889758957,
			"0.007": 1.77911637224,
			"0.008": 1.31327263329,
			"0.009": 1.92466084084,
			"0.01": 0.862716218973,
			"0.011": 0.553562419914,
			"0.012": 1.07982742331,
			"0.013": 1.48513584083,
			"0.014": 0.896978338268,
			"0.015": 0.190951072612,
			"0.016": 0.0,
			"0.017": 0.0,
			"0.018": 0.0,
			"0.019": 0.0,
			"0.02": 0.0,
			"0.021": 0.0,
			"0.022": 0.0,
			"0.023": 0.0,
			"0.024": 0.0,
			"0.025": 0.0
		}
	}
}
