{
	 "smiles": "CC1=C(C=C(C=C1)[N+]([O-])=O)N=C=S", 
	 "Tm": 334.15, 
	 "num_atms": 19, 
	 "gaussian": { 
		 "optdone": 1, 
		 "sigma_profile": "yes", 
		 "theory": "DFT", 
		 "functional": "B3LYP", 
		 "basiset": "6-31G**", 
		 "properties": { 
			 "R2extent": 5227.0987, 
			 "electric_dipole_moment_norm": 4.16541227011, 
			 "electric_quadrupole_moment_norm": 13.2356761705, 
			 "total_energy": -966.506237718, 
			 "HOMO_LUMO_gap": 0.15035, 
			 "cosmo_polarized_energy": -9.16, 
			 "cosmo_cavitation_energy": 27.28, 
			 "cosmo_dispersion_energy": -19.95, 
			 "cosmo_repulsion_energy": 1.54, 
			 "cosmo_total_nonelectrostatic_energy": 8.87, 
			 "SMD_solvation_energy": 7.05 
		},
		"coords": [
			{
				"x": -2.4778542556,
				"y": 0.3613555874,
				"z": 0.3898401375,
				"element": "C" 
			},
			{
				"x": -1.1289347299,
				"y": 0.713132893,
				"z": -0.1747740158,
				"element": "C" 
			},
			{
				"x": -0.9930890374,
				"y": 1.7348594878,
				"z": -1.1482846116,
				"element": "C" 
			},
			{
				"x": 0.2578695291,
				"y": 2.0678283204,
				"z": -1.6779661907,
				"element": "C" 
			},
			{
				"x": 1.3754835855,
				"y": 1.3744049054,
				"z": -1.2305185463,
				"element": "C" 
			},
			{
				"x": 1.2869536135,
				"y": 0.3646041266,
				"z": -0.2765814425,
				"element": "C" 
			},
			{
				"x": 0.0314331152,
				"y": 0.0491436992,
				"z": 0.2378249331,
				"element": "C" 
			},
			{
				"x": 2.693061753,
				"y": 1.7235954374,
				"z": -1.7870828052,
				"element": "N" 
			},
			{
				"x": 3.6669798702,
				"y": 1.0951865791,
				"z": -1.375544408,
				"element": "O" 
			},
			{
				"x": 2.7368390701,
				"y": 2.6205153043,
				"z": -2.6274317456,
				"element": "O" 
			},
			{
				"x": -2.0973081763,
				"y": 2.4270494175,
				"z": -1.5971402561,
				"element": "N" 
			},
			{
				"x": -3.2534328806,
				"y": 2.7238542409,
				"z": -1.6697910583,
				"element": "C" 
			},
			{
				"x": -4.7594952971,
				"y": 3.193149497,
				"z": -1.8412697438,
				"element": "S" 
			},
			{
				"x": -3.1670075552,
				"y": 0.0353918086,
				"z": -0.3973547365,
				"element": "H" 
			},
			{
				"x": -2.3958571018,
				"y": -0.442889172,
				"z": 1.1238217634,
				"element": "H" 
			},
			{
				"x": -2.9422659275,
				"y": 1.2243179375,
				"z": 0.8802029549,
				"element": "H" 
			},
			{
				"x": 0.3577192284,
				"y": 2.8482119657,
				"z": -2.420651126,
				"element": "H" 
			},
			{
				"x": 2.1835424165,
				"y": -0.1502394052,
				"z": 0.0438385379,
				"element": "H" 
			},
			{
				"x": -0.05433722,
				"y": -0.7361726306,
				"z": 0.9827623593,
				"element": "H" 
			}
		],
		 "valence_orbital": [ 
			{
				"type": "occ",
				"energy": -0.31183,
				"method": "rhf"
			},
			{
				"type": "occ",
				"energy": -0.29917,
				"method": "rhf"
			},
			{
				"type": "occ",
				"energy": -0.28932,
				"method": "rhf"
			},
			{
				"type": "occ",
				"energy": -0.27224,
				"method": "rhf"
			},
			{
				"type": "occ",
				"energy": -0.24841,
				"method": "rhf"
			},
			{
				"type": "unocc",
				"energy": -0.09806,
				"method": "rhf"
			},
			{
				"type": "unocc",
				"energy": -0.06315,
				"method": "rhf"
			},
			{
				"type": "unocc",
				"energy": -0.02763,
				"method": "rhf"
			},
			{
				"type": "unocc",
				"energy": -0.01725,
				"method": "rhf"
			},
			{
				"type": "unocc",
				"energy": 0.03218,
				"method": "rhf"
			}
		],
		"cosmo_sigma_profile": { 
			"-0.025": 0.0,
			"-0.024": 0.0,
			"-0.023": 0.0,
			"-0.022": 0.0,
			"-0.021": 0.0,
			"-0.02": 0.0,
			"-0.019": 0.0,
			"-0.018": 0.0,
			"-0.017": 0.0,
			"-0.016": 0.0,
			"-0.015": 0.0,
			"-0.014": 0.0,
			"-0.013": 0.0,
			"-0.012": 0.0,
			"-0.011": 0.0,
			"-0.01": 0.0,
			"-0.009": 0.197420512284,
			"-0.008": 3.38458115737,
			"-0.007": 7.44496177918,
			"-0.006": 9.94647543211,
			"-0.005": 13.4665185999,
			"-0.004": 14.2822083482,
			"-0.003": 15.3343412121,
			"-0.002": 22.3936776431,
			"-0.001": 28.0377342139,
			"0.0": 23.9949339622,
			"0.001": 13.9080389412,
			"0.002": 8.40996120849,
			"0.003": 9.06851077736,
			"0.004": 10.5808461313,
			"0.005": 15.525885944,
			"0.006": 5.26494850321,
			"0.007": 9.15600638858,
			"0.008": 6.34660383781,
			"0.009": 4.28061344498,
			"0.01": 2.07112923022,
			"0.011": 0.0404374314331,
			"0.012": 0.0,
			"0.013": 0.0,
			"0.014": 0.0,
			"0.015": 0.0,
			"0.016": 0.0,
			"0.017": 0.0,
			"0.018": 0.0,
			"0.019": 0.0,
			"0.02": 0.0,
			"0.021": 0.0,
			"0.022": 0.0,
			"0.023": 0.0,
			"0.024": 0.0,
			"0.025": 0.0
		}
	}
}
