{
	 "smiles": "CC1=C(N)C=CC(=C1)C1=NC2=C(S1)C=CC(F)=C2", 
	 "Tm": 465.15, 
	 "num_atms": 29, 
	 "gaussian": { 
		 "optdone": 1, 
		 "sigma_profile": "yes", 
		 "theory": "DFT", 
		 "functional": "B3LYP", 
		 "basiset": "6-31G**", 
		 "properties": { 
			 "R2extent": 7393.1194, 
			 "electric_dipole_moment_norm": 4.94132500247, 
			 "electric_quadrupole_moment_norm": 20.0789685965, 
			 "total_energy": -1147.67289389, 
			 "HOMO_LUMO_gap": 0.14847, 
			 "cosmo_polarized_energy": -12.42, 
			 "cosmo_cavitation_energy": 35.07, 
			 "cosmo_dispersion_energy": -26.31, 
			 "cosmo_repulsion_energy": 1.93, 
			 "cosmo_total_nonelectrostatic_energy": 10.69, 
			 "SMD_solvation_energy": 4.31 
		},
		"coords": [
			{
				"x": -3.6678591897,
				"y": 1.1822120739,
				"z": -1.7587094379,
				"element": "C" 
			},
			{
				"x": -2.9229777696,
				"y": 0.6096143827,
				"z": -0.5783845495,
				"element": "C" 
			},
			{
				"x": -3.6337421058,
				"y": 0.0018635956,
				"z": 0.4856872172,
				"element": "C" 
			},
			{
				"x": -5.021548949,
				"y": -0.0364408679,
				"z": 0.4716889275,
				"element": "N" 
			},
			{
				"x": -2.9206057828,
				"y": -0.5128936779,
				"z": 1.5846959949,
				"element": "C" 
			},
			{
				"x": -1.5391729846,
				"y": -0.4353399725,
				"z": 1.6388891622,
				"element": "C" 
			},
			{
				"x": -0.8153021469,
				"y": 0.1596166245,
				"z": 0.5897611885,
				"element": "C" 
			},
			{
				"x": -1.534977608,
				"y": 0.6725051403,
				"z": -0.5023729269,
				"element": "C" 
			},
			{
				"x": 0.6420746543,
				"y": 0.2234848931,
				"z": 0.6713339284,
				"element": "C" 
			},
			{
				"x": 1.3384493724,
				"y": -0.2421616384,
				"z": 1.6680232078,
				"element": "N" 
			},
			{
				"x": 2.6918359392,
				"y": -0.049633972,
				"z": 1.4865100853,
				"element": "C" 
			},
			{
				"x": 3.0606429858,
				"y": 0.6012392668,
				"z": 0.2815177658,
				"element": "C" 
			},
			{
				"x": 1.6156959482,
				"y": 0.9715368651,
				"z": -0.6365112564,
				"element": "S" 
			},
			{
				"x": 4.3975807085,
				"y": 0.8581456459,
				"z": -0.0263389359,
				"element": "C" 
			},
			{
				"x": 5.3787350743,
				"y": 0.4606794425,
				"z": 0.8791421802,
				"element": "C" 
			},
			{
				"x": 5.0027305656,
				"y": -0.1807860203,
				"z": 2.0648840411,
				"element": "C" 
			},
			{
				"x": 5.9775605295,
				"y": -0.5541821222,
				"z": 2.9230410155,
				"element": "F" 
			},
			{
				"x": 3.6854285601,
				"y": -0.4475621591,
				"z": 2.3947020899,
				"element": "C" 
			},
			{
				"x": -2.980580165,
				"y": 1.6502233048,
				"z": -2.4674827215,
				"element": "H" 
			},
			{
				"x": -4.2236498681,
				"y": 0.4101077594,
				"z": -2.3098545578,
				"element": "H" 
			},
			{
				"x": -4.3953104129,
				"y": 1.9415184938,
				"z": -1.4453738635,
				"element": "H" 
			},
			{
				"x": -5.4696087656,
				"y": -0.0133306093,
				"z": -0.4323511566,
				"element": "H" 
			},
			{
				"x": -5.4518088214,
				"y": -0.6916777589,
				"z": 1.1083510433,
				"element": "H" 
			},
			{
				"x": -3.4685174792,
				"y": -0.975613098,
				"z": 2.4021044973,
				"element": "H" 
			},
			{
				"x": -0.9951807759,
				"y": -0.8351213468,
				"z": 2.4872213419,
				"element": "H" 
			},
			{
				"x": -1.0014886842,
				"y": 1.1403960868,
				"z": -1.3263425489,
				"element": "H" 
			},
			{
				"x": 4.6766676237,
				"y": 1.3563993871,
				"z": -0.9488941322,
				"element": "H" 
			},
			{
				"x": 6.4306570265,
				"y": 0.6378803796,
				"z": 0.6851783947,
				"element": "H" 
			},
			{
				"x": 3.4282725206,
				"y": -0.9460800984,
				"z": 3.3215840057,
				"element": "H" 
			}
		],
		 "valence_orbital": [ 
			{
				"type": "occ",
				"energy": -0.2694,
				"method": "rhf"
			},
			{
				"type": "occ",
				"energy": -0.25098,
				"method": "rhf"
			},
			{
				"type": "occ",
				"energy": -0.24598,
				"method": "rhf"
			},
			{
				"type": "occ",
				"energy": -0.22695,
				"method": "rhf"
			},
			{
				"type": "occ",
				"energy": -0.19826,
				"method": "rhf"
			},
			{
				"type": "unocc",
				"energy": -0.04979,
				"method": "rhf"
			},
			{
				"type": "unocc",
				"energy": -0.00295,
				"method": "rhf"
			},
			{
				"type": "unocc",
				"energy": 0.00123,
				"method": "rhf"
			},
			{
				"type": "unocc",
				"energy": 0.01646,
				"method": "rhf"
			},
			{
				"type": "unocc",
				"energy": 0.01885,
				"method": "rhf"
			}
		],
		"cosmo_sigma_profile": { 
			"-0.025": 0.0,
			"-0.024": 0.0,
			"-0.023": 0.0,
			"-0.022": 0.0,
			"-0.021": 0.0,
			"-0.02": 0.0,
			"-0.019": 0.0,
			"-0.018": 0.0,
			"-0.017": 0.0,
			"-0.016": 0.0,
			"-0.015": 0.0,
			"-0.014": 0.0,
			"-0.013": 0.990888884805,
			"-0.012": 2.7580996926,
			"-0.011": 3.18461937176,
			"-0.01": 2.59003668295,
			"-0.009": 2.70158010111,
			"-0.008": 5.23174199795,
			"-0.007": 9.07137893118,
			"-0.006": 10.5131988165,
			"-0.005": 13.7795041197,
			"-0.004": 16.5804267258,
			"-0.003": 13.9041867131,
			"-0.002": 15.2598126722,
			"-0.001": 15.024609851,
			"0.0": 22.4632560365,
			"0.001": 27.7600820123,
			"0.002": 28.3304031308,
			"0.003": 29.1416983817,
			"0.004": 29.2437449794,
			"0.005": 19.105195498,
			"0.006": 3.56307746014,
			"0.007": 2.95153054912,
			"0.008": 2.45567985752,
			"0.009": 1.9158449671,
			"0.01": 1.33170282199,
			"0.011": 1.4411103784,
			"0.012": 1.82996613668,
			"0.013": 0.168356507748,
			"0.014": 0.0,
			"0.015": 0.0,
			"0.016": 0.0,
			"0.017": 0.0,
			"0.018": 0.0,
			"0.019": 0.0,
			"0.02": 0.0,
			"0.021": 0.0,
			"0.022": 0.0,
			"0.023": 0.0,
			"0.024": 0.0,
			"0.025": 0.0
		}
	}
}
