{
	 "smiles": "O=CC1=CN(C=N1)C1=CC=CC=C1", 
	 "Tm": 399.15, 
	 "num_atms": 21, 
	 "gaussian": { 
		 "optdone": 1, 
		 "sigma_profile": "yes", 
		 "theory": "DFT", 
		 "functional": "B3LYP", 
		 "basiset": "6-31G**", 
		 "properties": { 
			 "R2extent": 3490.91, 
			 "electric_dipole_moment_norm": 7.66389496862, 
			 "electric_quadrupole_moment_norm": 27.7967747899, 
			 "total_energy": -570.590644297, 
			 "HOMO_LUMO_gap": 0.19406, 
			 "cosmo_polarized_energy": -18.19, 
			 "cosmo_cavitation_energy": 26.39, 
			 "cosmo_dispersion_energy": -19.06, 
			 "cosmo_repulsion_energy": 1.49, 
			 "cosmo_total_nonelectrostatic_energy": 8.81, 
			 "SMD_solvation_energy": 4.61 
		},
		"coords": [
			{
				"x": 0.495698458,
				"y": 1.9907844093,
				"z": 5.0560688773,
				"element": "O" 
			},
			{
				"x": 0.0201394017,
				"y": 1.4603671197,
				"z": 4.0718794174,
				"element": "C" 
			},
			{
				"x": 0.7157005041,
				"y": 1.2355698196,
				"z": 2.8012320222,
				"element": "C" 
			},
			{
				"x": 0.1682627617,
				"y": 0.6254001734,
				"z": 1.6879906954,
				"element": "C" 
			},
			{
				"x": 1.1613995434,
				"y": 0.6088063335,
				"z": 0.7386373993,
				"element": "N" 
			},
			{
				"x": 2.2599832238,
				"y": 1.2183658487,
				"z": 1.3250185364,
				"element": "C" 
			},
			{
				"x": 2.02576512,
				"y": 1.6037061085,
				"z": 2.5501452939,
				"element": "N" 
			},
			{
				"x": 1.0804628136,
				"y": 0.0928209066,
				"z": -0.5862575876,
				"element": "C" 
			},
			{
				"x": -0.0746739272,
				"y": 0.3004734229,
				"z": -1.3475294318,
				"element": "C" 
			},
			{
				"x": -0.1469110626,
				"y": -0.2115132386,
				"z": -2.6422914648,
				"element": "C" 
			},
			{
				"x": 0.9321649822,
				"y": -0.9113170782,
				"z": -3.1860713278,
				"element": "C" 
			},
			{
				"x": 2.0853796818,
				"y": -1.10691233,
				"z": -2.4239319419,
				"element": "C" 
			},
			{
				"x": 2.1615443901,
				"y": -0.6160309879,
				"z": -1.1209251414,
				"element": "C" 
			},
			{
				"x": -1.0316509215,
				"y": 1.0899755167,
				"z": 4.069329782,
				"element": "H" 
			},
			{
				"x": -0.8000928398,
				"y": 0.1834610683,
				"z": 1.509739455,
				"element": "H" 
			},
			{
				"x": 3.1790647284,
				"y": 1.3647376616,
				"z": 0.7743061339,
				"element": "H" 
			},
			{
				"x": -0.8972106834,
				"y": 0.8750806849,
				"z": -0.9340531844,
				"element": "H" 
			},
			{
				"x": -1.0446380938,
				"y": -0.0496132669,
				"z": -3.2311010083,
				"element": "H" 
			},
			{
				"x": 0.8743018268,
				"y": -1.3021829441,
				"z": -4.1971456518,
				"element": "H" 
			},
			{
				"x": 2.9255429491,
				"y": -1.6567981671,
				"z": -2.8368579052,
				"element": "H" 
			},
			{
				"x": 3.0416671436,
				"y": -0.7982810609,
				"z": -0.5129829677,
				"element": "H" 
			}
		],
		 "valence_orbital": [ 
			{
				"type": "occ",
				"energy": -0.28272,
				"method": "rhf"
			},
			{
				"type": "occ",
				"energy": -0.27828,
				"method": "rhf"
			},
			{
				"type": "occ",
				"energy": -0.26338,
				"method": "rhf"
			},
			{
				"type": "occ",
				"energy": -0.24489,
				"method": "rhf"
			},
			{
				"type": "occ",
				"energy": -0.24128,
				"method": "rhf"
			},
			{
				"type": "unocc",
				"energy": -0.04722,
				"method": "rhf"
			},
			{
				"type": "unocc",
				"energy": -0.02999,
				"method": "rhf"
			},
			{
				"type": "unocc",
				"energy": -0.02533,
				"method": "rhf"
			},
			{
				"type": "unocc",
				"energy": 0.02171,
				"method": "rhf"
			},
			{
				"type": "unocc",
				"energy": 0.07016,
				"method": "rhf"
			}
		],
		"cosmo_sigma_profile": { 
			"-0.025": 0.0,
			"-0.024": 0.0,
			"-0.023": 0.0,
			"-0.022": 0.0,
			"-0.021": 0.0,
			"-0.02": 0.0,
			"-0.019": 0.0,
			"-0.018": 0.0,
			"-0.017": 0.0,
			"-0.016": 0.0,
			"-0.015": 0.0,
			"-0.014": 0.0,
			"-0.013": 0.0,
			"-0.012": 0.0,
			"-0.011": 0.198654916433,
			"-0.01": 2.29206546151,
			"-0.009": 4.81302759664,
			"-0.008": 6.83630630157,
			"-0.007": 11.4439486153,
			"-0.006": 16.381505891,
			"-0.005": 16.6814806545,
			"-0.004": 13.8213600981,
			"-0.003": 13.1073876764,
			"-0.002": 14.0255004153,
			"-0.001": 13.1102879124,
			"0.0": 12.6145910511,
			"0.001": 13.6818176614,
			"0.002": 10.6715752796,
			"0.003": 12.1602040285,
			"0.004": 13.3532561449,
			"0.005": 3.60422831242,
			"0.006": 2.78882779847,
			"0.007": 2.08241614941,
			"0.008": 2.58107469885,
			"0.009": 2.75380501723,
			"0.01": 3.32972858246,
			"0.011": 4.27188745758,
			"0.012": 5.73694752168,
			"0.013": 4.27853590466,
			"0.014": 2.20914399378,
			"0.015": 1.89492398095,
			"0.016": 1.49766076168,
			"0.017": 0.63284722822,
			"0.018": 0.0,
			"0.019": 0.0,
			"0.02": 0.0,
			"0.021": 0.0,
			"0.022": 0.0,
			"0.023": 0.0,
			"0.024": 0.0,
			"0.025": 0.0
		}
	}
}
