{
	 "smiles": "CN(C)C(=O)C1=CC(=CC=C1)C#N", 
	 "Tm": 361.15, 
	 "num_atms": 23, 
	 "gaussian": { 
		 "optdone": 1, 
		 "sigma_profile": "yes", 
		 "theory": "DFT", 
		 "functional": "B3LYP", 
		 "basiset": "6-31G**", 
		 "properties": { 
			 "R2extent": 3428.9958, 
			 "electric_dipole_moment_norm": 6.82559156484, 
			 "electric_quadrupole_moment_norm": 17.3839836726, 
			 "total_energy": -571.808867648, 
			 "HOMO_LUMO_gap": 0.18832, 
			 "cosmo_polarized_energy": -15.19, 
			 "cosmo_cavitation_energy": 28.06, 
			 "cosmo_dispersion_energy": -19.56, 
			 "cosmo_repulsion_energy": 1.55, 
			 "cosmo_total_nonelectrostatic_energy": 10.06, 
			 "SMD_solvation_energy": 6.86 
		},
		"coords": [
			{
				"x": -2.7637974695,
				"y": -3.4162475857,
				"z": 0.3792580611,
				"element": "C" 
			},
			{
				"x": -1.8828119365,
				"y": -2.275416304,
				"z": 0.1564030833,
				"element": "N" 
			},
			{
				"x": -1.3905053245,
				"y": -2.1357222206,
				"z": -1.2080367798,
				"element": "C" 
			},
			{
				"x": -1.8741029636,
				"y": -1.2793396372,
				"z": 1.1052918426,
				"element": "C" 
			},
			{
				"x": -2.6168519501,
				"y": -1.2965317793,
				"z": 2.0837877662,
				"element": "O" 
			},
			{
				"x": -0.8738307825,
				"y": -0.156883243,
				"z": 0.9653138467,
				"element": "C" 
			},
			{
				"x": -1.3034468345,
				"y": 1.1305050046,
				"z": 1.3001906396,
				"element": "C" 
			},
			{
				"x": -0.4008027261,
				"y": 2.2025020143,
				"z": 1.2755801675,
				"element": "C" 
			},
			{
				"x": 0.9491983642,
				"y": 1.9821609047,
				"z": 0.9485833101,
				"element": "C" 
			},
			{
				"x": 1.3805193586,
				"y": 0.6933801346,
				"z": 0.649804616,
				"element": "C" 
			},
			{
				"x": 0.4755862589,
				"y": -0.3703836395,
				"z": 0.6519095873,
				"element": "C" 
			},
			{
				"x": -0.8513533567,
				"y": 3.5278922549,
				"z": 1.5922322633,
				"element": "C" 
			},
			{
				"x": -1.2107489783,
				"y": 4.6053305168,
				"z": 1.8426382236,
				"element": "N" 
			},
			{
				"x": -2.9976563544,
				"y": -3.4808376239,
				"z": 1.440274102,
				"element": "H" 
			},
			{
				"x": -3.7024444998,
				"y": -3.3105296093,
				"z": -0.1813699318,
				"element": "H" 
			},
			{
				"x": -2.2638356289,
				"y": -4.332826216,
				"z": 0.0480834568,
				"element": "H" 
			},
			{
				"x": -0.910058904,
				"y": -1.1701956404,
				"z": -1.3530363466,
				"element": "H" 
			},
			{
				"x": -2.2260148975,
				"y": -2.2102835113,
				"z": -1.9167493215,
				"element": "H" 
			},
			{
				"x": -0.671488553,
				"y": -2.9282464316,
				"z": -1.4506142809,
				"element": "H" 
			},
			{
				"x": -2.3362486966,
				"y": 1.2878953268,
				"z": 1.5896485524,
				"element": "H" 
			},
			{
				"x": 1.6426530527,
				"y": 2.8162673246,
				"z": 0.9409500617,
				"element": "H" 
			},
			{
				"x": 2.4257522731,
				"y": 0.514670231,
				"z": 0.4175234364,
				"element": "H" 
			},
			{
				"x": 0.8243905488,
				"y": -1.3742602704,
				"z": 0.4303336441,
				"element": "H" 
			}
		],
		 "valence_orbital": [ 
			{
				"type": "occ",
				"energy": -0.3321,
				"method": "rhf"
			},
			{
				"type": "occ",
				"energy": -0.28511,
				"method": "rhf"
			},
			{
				"type": "occ",
				"energy": -0.27134,
				"method": "rhf"
			},
			{
				"type": "occ",
				"energy": -0.25897,
				"method": "rhf"
			},
			{
				"type": "occ",
				"energy": -0.24771,
				"method": "rhf"
			},
			{
				"type": "unocc",
				"energy": -0.05939,
				"method": "rhf"
			},
			{
				"type": "unocc",
				"energy": -0.0423,
				"method": "rhf"
			},
			{
				"type": "unocc",
				"energy": 0.02545,
				"method": "rhf"
			},
			{
				"type": "unocc",
				"energy": 0.03634,
				"method": "rhf"
			},
			{
				"type": "unocc",
				"energy": 0.07145,
				"method": "rhf"
			}
		],
		"cosmo_sigma_profile": { 
			"-0.025": 0.0,
			"-0.024": 0.0,
			"-0.023": 0.0,
			"-0.022": 0.0,
			"-0.021": 0.0,
			"-0.02": 0.0,
			"-0.019": 0.0,
			"-0.018": 0.0,
			"-0.017": 0.0,
			"-0.016": 0.0,
			"-0.015": 0.0,
			"-0.014": 0.0,
			"-0.013": 0.0,
			"-0.012": 0.0,
			"-0.011": 0.0,
			"-0.01": 0.0,
			"-0.009": 0.170527804271,
			"-0.008": 4.01065096406,
			"-0.007": 9.13580784449,
			"-0.006": 9.2227604044,
			"-0.005": 19.1020765515,
			"-0.004": 24.5816221544,
			"-0.003": 24.1256137246,
			"-0.002": 26.6883311036,
			"-0.001": 15.7209161502,
			"0.0": 13.5960472003,
			"0.001": 14.4681808492,
			"0.002": 11.4647705931,
			"0.003": 4.47147194869,
			"0.004": 3.08846416825,
			"0.005": 4.71963354828,
			"0.006": 3.59658194311,
			"0.007": 5.30191015361,
			"0.008": 4.81270404484,
			"0.009": 4.60533353276,
			"0.01": 4.43089427618,
			"0.011": 4.77690540189,
			"0.012": 4.38742652991,
			"0.013": 5.46429414866,
			"0.014": 2.86422076282,
			"0.015": 0.0396863258648,
			"0.016": 0.0,
			"0.017": 0.0,
			"0.018": 0.0,
			"0.019": 0.0,
			"0.02": 0.0,
			"0.021": 0.0,
			"0.022": 0.0,
			"0.023": 0.0,
			"0.024": 0.0,
			"0.025": 0.0
		}
	}
}
