{
	 "smiles": "CC(=O)N1CCC2=CC=CC(N)=C12", 
	 "Tm": 431.15, 
	 "num_atms": 25, 
	 "gaussian": { 
		 "optdone": 1, 
		 "sigma_profile": "yes", 
		 "theory": "DFT", 
		 "functional": "B3LYP", 
		 "basiset": "6-31G**", 
		 "properties": { 
			 "R2extent": 2268.2776, 
			 "electric_dipole_moment_norm": 3.54727883031, 
			 "electric_quadrupole_moment_norm": 12.0258870791, 
			 "total_energy": -573.039667182, 
			 "HOMO_LUMO_gap": 0.19749, 
			 "cosmo_polarized_energy": -12.3, 
			 "cosmo_cavitation_energy": 27.06, 
			 "cosmo_dispersion_energy": -19.93, 
			 "cosmo_repulsion_energy": 1.58, 
			 "cosmo_total_nonelectrostatic_energy": 8.71, 
			 "SMD_solvation_energy": 4.82 
		},
		"coords": [
			{
				"x": 2.3256406135,
				"y": 0.7612757504,
				"z": -0.8162831009,
				"element": "C" 
			},
			{
				"x": 1.6358822614,
				"y": 1.190318094,
				"z": 0.463271524,
				"element": "C" 
			},
			{
				"x": 2.1506977808,
				"y": 1.983327585,
				"z": 1.2404938248,
				"element": "O" 
			},
			{
				"x": 0.3890696581,
				"y": 0.6243105275,
				"z": 0.7564274829,
				"element": "N" 
			},
			{
				"x": 0.0185016074,
				"y": 0.5007851721,
				"z": 2.1882751507,
				"element": "C" 
			},
			{
				"x": -0.1313019342,
				"y": -1.0250215489,
				"z": 2.3985907843,
				"element": "C" 
			},
			{
				"x": -0.5231039106,
				"y": -1.4995857501,
				"z": 1.012935263,
				"element": "C" 
			},
			{
				"x": -1.136600525,
				"y": -2.6766347904,
				"z": 0.6044712507,
				"element": "C" 
			},
			{
				"x": -1.4737717585,
				"y": -2.8108888126,
				"z": -0.7487638664,
				"element": "C" 
			},
			{
				"x": -1.2486800451,
				"y": -1.7718675386,
				"z": -1.6484169947,
				"element": "C" 
			},
			{
				"x": -0.6497234579,
				"y": -0.563874162,
				"z": -1.2417081332,
				"element": "C" 
			},
			{
				"x": -0.4910599802,
				"y": 0.5056954134,
				"z": -2.1335598634,
				"element": "N" 
			},
			{
				"x": -0.2153591787,
				"y": -0.4889775093,
				"z": 0.0910129341,
				"element": "C" 
			},
			{
				"x": 1.7358151777,
				"y": 0.9769834322,
				"z": -1.7102625403,
				"element": "H" 
			},
			{
				"x": 3.2830947406,
				"y": 1.2796037816,
				"z": -0.8623952232,
				"element": "H" 
			},
			{
				"x": 2.4941425658,
				"y": -0.3214338664,
				"z": -0.8073864503,
				"element": "H" 
			},
			{
				"x": -0.9365659698,
				"y": 1.0096039194,
				"z": 2.3614230259,
				"element": "H" 
			},
			{
				"x": 0.7871277734,
				"y": 0.9774724334,
				"z": 2.7944335037,
				"element": "H" 
			},
			{
				"x": -0.8804019343,
				"y": -1.2678180433,
				"z": 3.1575383738,
				"element": "H" 
			},
			{
				"x": 0.8196009778,
				"y": -1.473318045,
				"z": 2.7175353078,
				"element": "H" 
			},
			{
				"x": -1.3678576336,
				"y": -3.4638645497,
				"z": 1.3156473212,
				"element": "H" 
			},
			{
				"x": -1.9536480041,
				"y": -3.7198421381,
				"z": -1.0997157821,
				"element": "H" 
			},
			{
				"x": -1.5696023889,
				"y": -1.8724634368,
				"z": -2.6825376163,
				"element": "H" 
			},
			{
				"x": -0.5349582552,
				"y": 1.4108663061,
				"z": -1.6783673674,
				"element": "H" 
			},
			{
				"x": -1.1242381806,
				"y": 0.4677477763,
				"z": -2.9223588087,
				"element": "H" 
			}
		],
		 "valence_orbital": [ 
			{
				"type": "occ",
				"energy": -0.31009,
				"method": "rhf"
			},
			{
				"type": "occ",
				"energy": -0.28386,
				"method": "rhf"
			},
			{
				"type": "occ",
				"energy": -0.24483,
				"method": "rhf"
			},
			{
				"type": "occ",
				"energy": -0.22371,
				"method": "rhf"
			},
			{
				"type": "occ",
				"energy": -0.20304,
				"method": "rhf"
			},
			{
				"type": "unocc",
				"energy": -0.00555,
				"method": "rhf"
			},
			{
				"type": "unocc",
				"energy": 0.00748,
				"method": "rhf"
			},
			{
				"type": "unocc",
				"energy": 0.0331,
				"method": "rhf"
			},
			{
				"type": "unocc",
				"energy": 0.07425,
				"method": "rhf"
			},
			{
				"type": "unocc",
				"energy": 0.09786,
				"method": "rhf"
			}
		],
		"cosmo_sigma_profile": { 
			"-0.025": 0.0,
			"-0.024": 0.0,
			"-0.023": 0.0,
			"-0.022": 0.0,
			"-0.021": 0.0,
			"-0.02": 0.0,
			"-0.019": 0.0,
			"-0.018": 0.0,
			"-0.017": 0.0,
			"-0.016": 0.0,
			"-0.015": 0.0,
			"-0.014": 0.0,
			"-0.013": 0.248393321398,
			"-0.012": 1.8381689219,
			"-0.011": 2.52456552348,
			"-0.01": 2.97888984966,
			"-0.009": 2.60369531502,
			"-0.008": 3.32146703081,
			"-0.007": 2.91692987454,
			"-0.006": 3.81937151838,
			"-0.005": 13.1054235132,
			"-0.004": 21.4387107322,
			"-0.003": 22.3334800757,
			"-0.002": 20.874635695,
			"-0.001": 21.0057493578,
			"0.0": 14.8113688574,
			"0.001": 10.0692289465,
			"0.002": 8.38014198463,
			"0.003": 7.32685539688,
			"0.004": 9.6952640966,
			"0.005": 10.1623228642,
			"0.006": 9.26642639795,
			"0.007": 5.91303601866,
			"0.008": 2.42827003894,
			"0.009": 1.61566975744,
			"0.01": 1.92841406196,
			"0.011": 2.7742710717,
			"0.012": 1.50777984149,
			"0.013": 4.54804939676,
			"0.014": 3.53334471406,
			"0.015": 0.698892407689,
			"0.016": 0.0,
			"0.017": 0.0,
			"0.018": 0.0,
			"0.019": 0.0,
			"0.02": 0.0,
			"0.021": 0.0,
			"0.022": 0.0,
			"0.023": 0.0,
			"0.024": 0.0,
			"0.025": 0.0
		}
	}
}
