{
	 "smiles": "CCOC(=O)C1=CC(=NN1C)C1=CC=CS1", 
	 "Tm": 345.65, 
	 "num_atms": 28, 
	 "gaussian": { 
		 "optdone": 1, 
		 "sigma_profile": "yes", 
		 "theory": "DFT", 
		 "functional": "B3LYP", 
		 "basiset": "6-31G**", 
		 "properties": { 
			 "R2extent": 6285.5008, 
			 "electric_dipole_moment_norm": 2.64750767515, 
			 "electric_quadrupole_moment_norm": 19.4371998168, 
			 "total_energy": -1084.52772738, 
			 "HOMO_LUMO_gap": 0.16479, 
			 "cosmo_polarized_energy": -11.24, 
			 "cosmo_cavitation_energy": 34.31, 
			 "cosmo_dispersion_energy": -25.04, 
			 "cosmo_repulsion_energy": 1.91, 
			 "cosmo_total_nonelectrostatic_energy": 11.18, 
			 "SMD_solvation_energy": 6.09 
		},
		"coords": [
			{
				"x": -3.545508008,
				"y": 0.5314043448,
				"z": -3.1143353678,
				"element": "C" 
			},
			{
				"x": -3.6538479736,
				"y": 0.5740358298,
				"z": -1.5979117113,
				"element": "C" 
			},
			{
				"x": -2.6056454473,
				"y": -0.2081888866,
				"z": -0.9705244213,
				"element": "O" 
			},
			{
				"x": -1.4180592284,
				"y": 0.4179295782,
				"z": -0.7907448493,
				"element": "C" 
			},
			{
				"x": -1.1981335868,
				"y": 1.5684791551,
				"z": -1.1151638164,
				"element": "O" 
			},
			{
				"x": -0.4064515476,
				"y": -0.4399427087,
				"z": -0.1521441989,
				"element": "C" 
			},
			{
				"x": 0.8959424317,
				"y": -0.0686989776,
				"z": 0.1467673812,
				"element": "C" 
			},
			{
				"x": 1.4765413501,
				"y": -1.2076792973,
				"z": 0.7420569839,
				"element": "C" 
			},
			{
				"x": 0.5842459799,
				"y": -2.2126418225,
				"z": 0.8030323453,
				"element": "N" 
			},
			{
				"x": -0.5485685069,
				"y": -1.7416969703,
				"z": 0.2617617073,
				"element": "N" 
			},
			{
				"x": -1.7019864416,
				"y": -2.6298139334,
				"z": 0.1981984957,
				"element": "C" 
			},
			{
				"x": 2.8285525676,
				"y": -1.3818479651,
				"z": 1.2502586715,
				"element": "C" 
			},
			{
				"x": 3.8585442498,
				"y": -0.4699007278,
				"z": 1.2684304312,
				"element": "C" 
			},
			{
				"x": 5.0560029979,
				"y": -0.9836855067,
				"z": 1.8455718615,
				"element": "C" 
			},
			{
				"x": 4.9262883944,
				"y": -2.2807859004,
				"z": 2.2608967075,
				"element": "C" 
			},
			{
				"x": 3.3356432694,
				"y": -2.900720282,
				"z": 1.9544707251,
				"element": "S" 
			},
			{
				"x": -3.5623471437,
				"y": -0.4999267771,
				"z": -3.4790431015,
				"element": "H" 
			},
			{
				"x": -4.390445059,
				"y": 1.0666645677,
				"z": -3.5600999696,
				"element": "H" 
			},
			{
				"x": -2.6220553676,
				"y": 1.0111568543,
				"z": -3.446770199,
				"element": "H" 
			},
			{
				"x": -3.5942164848,
				"y": 1.5991585312,
				"z": -1.2258680853,
				"element": "H" 
			},
			{
				"x": -4.5796660292,
				"y": 0.1121434223,
				"z": -1.2471540473,
				"element": "H" 
			},
			{
				"x": 1.3335133596,
				"y": 0.8971964088,
				"z": -0.0508390963,
				"element": "H" 
			},
			{
				"x": -1.3842136623,
				"y": -3.5753389364,
				"z": 0.634847187,
				"element": "H" 
			},
			{
				"x": -2.5393035963,
				"y": -2.2158567012,
				"z": 0.763384734,
				"element": "H" 
			},
			{
				"x": -2.0178569366,
				"y": -2.7785015993,
				"z": -0.8360256322,
				"element": "H" 
			},
			{
				"x": 3.76160173,
				"y": 0.5379047109,
				"z": 0.8804669841,
				"element": "H" 
			},
			{
				"x": 5.9709395349,
				"y": -0.4108618194,
				"z": 1.9455429944,
				"element": "H" 
			},
			{
				"x": 5.6690891541,
				"y": -2.9116845915,
				"z": 2.7292372864,
				"element": "H" 
			}
		],
		 "valence_orbital": [ 
			{
				"type": "occ",
				"energy": -0.28366,
				"method": "rhf"
			},
			{
				"type": "occ",
				"energy": -0.27735,
				"method": "rhf"
			},
			{
				"type": "occ",
				"energy": -0.2583,
				"method": "rhf"
			},
			{
				"type": "occ",
				"energy": -0.24419,
				"method": "rhf"
			},
			{
				"type": "occ",
				"energy": -0.20673,
				"method": "rhf"
			},
			{
				"type": "unocc",
				"energy": -0.04194,
				"method": "rhf"
			},
			{
				"type": "unocc",
				"energy": -0.02461,
				"method": "rhf"
			},
			{
				"type": "unocc",
				"energy": 0.04241,
				"method": "rhf"
			},
			{
				"type": "unocc",
				"energy": 0.05348,
				"method": "rhf"
			},
			{
				"type": "unocc",
				"energy": 0.08734,
				"method": "rhf"
			}
		],
		"cosmo_sigma_profile": { 
			"-0.025": 0.0,
			"-0.024": 0.0,
			"-0.023": 0.0,
			"-0.022": 0.0,
			"-0.021": 0.0,
			"-0.02": 0.0,
			"-0.019": 0.0,
			"-0.018": 0.0,
			"-0.017": 0.0,
			"-0.016": 0.0,
			"-0.015": 0.0,
			"-0.014": 0.0,
			"-0.013": 0.0,
			"-0.012": 0.0,
			"-0.011": 0.0,
			"-0.01": 0.0,
			"-0.009": 0.306955129082,
			"-0.008": 3.32608209508,
			"-0.007": 7.15649577508,
			"-0.006": 13.2766255784,
			"-0.005": 18.3932882849,
			"-0.004": 25.194934231,
			"-0.003": 29.1518987955,
			"-0.002": 23.2742121317,
			"-0.001": 16.6929492515,
			"0.0": 19.7719535899,
			"0.001": 16.9041577239,
			"0.002": 18.5421960126,
			"0.003": 22.7285570339,
			"0.004": 21.0738199124,
			"0.005": 14.6375257524,
			"0.006": 4.80234206422,
			"0.007": 3.46013620917,
			"0.008": 3.3662325877,
			"0.009": 2.8887625764,
			"0.01": 3.00239940977,
			"0.011": 4.89975030834,
			"0.012": 2.93433360149,
			"0.013": 0.00862986551285,
			"0.014": 0.0,
			"0.015": 0.0,
			"0.016": 0.0,
			"0.017": 0.0,
			"0.018": 0.0,
			"0.019": 0.0,
			"0.02": 0.0,
			"0.021": 0.0,
			"0.022": 0.0,
			"0.023": 0.0,
			"0.024": 0.0,
			"0.025": 0.0
		}
	}
}
