{
	 "smiles": "FC1=CC=C(NC(=S)NNC(=O)COC2=NN(C=N2)C2=CC=C(Cl)C=C2)C=C1", 
	 "Tm": 455.15, 
	 "num_atms": 42, 
	 "gaussian": { 
		 "optdone": 1, 
		 "sigma_profile": "yes", 
		 "theory": "DFT", 
		 "functional": "B3LYP", 
		 "basiset": "6-31G**", 
		 "properties": { 
			 "R2extent": 19355.4985, 
			 "electric_dipole_moment_norm": 1.96762076885, 
			 "electric_quadrupole_moment_norm": 21.5463688885, 
			 "total_energy": -2093.37820103, 
			 "HOMO_LUMO_gap": 0.16845, 
			 "cosmo_polarized_energy": -28.67, 
			 "cosmo_cavitation_energy": 53.36, 
			 "cosmo_dispersion_energy": -36.84, 
			 "cosmo_repulsion_energy": 2.72, 
			 "cosmo_total_nonelectrostatic_energy": 19.24, 
			 "SMD_solvation_energy": 7.31 
		},
		"coords": [
			{
				"x": 7.6197501246,
				"y": 1.687106061,
				"z": -0.425077743,
				"element": "F" 
			},
			{
				"x": 6.3514247689,
				"y": 1.5914914333,
				"z": -0.8756226922,
				"element": "C" 
			},
			{
				"x": 5.5192657995,
				"y": 2.7023550251,
				"z": -0.7948781783,
				"element": "C" 
			},
			{
				"x": 4.2118992372,
				"y": 2.5924632787,
				"z": -1.257360713,
				"element": "C" 
			},
			{
				"x": 3.7374505029,
				"y": 1.3869369248,
				"z": -1.8005920863,
				"element": "C" 
			},
			{
				"x": 2.4019943756,
				"y": 1.3981272669,
				"z": -2.2691976417,
				"element": "N" 
			},
			{
				"x": 1.5380865204,
				"y": 0.403650068,
				"z": -2.5922910638,
				"element": "C" 
			},
			{
				"x": 1.7649741068,
				"y": -1.2532075792,
				"z": -2.5268989952,
				"element": "S" 
			},
			{
				"x": 0.311760837,
				"y": 0.8729801368,
				"z": -3.0568900055,
				"element": "N" 
			},
			{
				"x": -0.0761134043,
				"y": 2.1972884289,
				"z": -2.8989780907,
				"element": "N" 
			},
			{
				"x": -0.9299031956,
				"y": 2.6411364714,
				"z": -1.8903281955,
				"element": "C" 
			},
			{
				"x": -1.3541421297,
				"y": 3.7792657873,
				"z": -1.897637202,
				"element": "O" 
			},
			{
				"x": -1.264150482,
				"y": 1.635398909,
				"z": -0.7924702483,
				"element": "C" 
			},
			{
				"x": -1.9824201465,
				"y": 0.5615404373,
				"z": -1.4144464716,
				"element": "O" 
			},
			{
				"x": -2.3509967784,
				"y": -0.441555403,
				"z": -0.597409503,
				"element": "C" 
			},
			{
				"x": -2.1184690475,
				"y": -0.449689205,
				"z": 0.70447812,
				"element": "N" 
			},
			{
				"x": -2.6565922808,
				"y": -1.6575587951,
				"z": 1.0711214636,
				"element": "N" 
			},
			{
				"x": -3.1750802541,
				"y": -2.262372694,
				"z": -0.0288165241,
				"element": "C" 
			},
			{
				"x": -2.99670841,
				"y": -1.5217170995,
				"z": -1.1062888103,
				"element": "N" 
			},
			{
				"x": -2.6468799978,
				"y": -2.0850988793,
				"z": 2.4223299233,
				"element": "C" 
			},
			{
				"x": -2.5194558267,
				"y": -1.1377234675,
				"z": 3.4428670728,
				"element": "C" 
			},
			{
				"x": -2.5230394306,
				"y": -1.5486544816,
				"z": 4.7730566474,
				"element": "C" 
			},
			{
				"x": -2.6626424361,
				"y": -2.9032933577,
				"z": 5.0763142846,
				"element": "C" 
			},
			{
				"x": -2.6754577409,
				"y": -3.4199313395,
				"z": 6.7527553015,
				"element": "Cl" 
			},
			{
				"x": -2.7836308889,
				"y": -3.8537715764,
				"z": 4.0629401744,
				"element": "C" 
			},
			{
				"x": -2.7650650787,
				"y": -3.4441926829,
				"z": 2.7316677589,
				"element": "C" 
			},
			{
				"x": 4.5975217973,
				"y": 0.2827075262,
				"z": -1.8800179262,
				"element": "C" 
			},
			{
				"x": 5.906504268,
				"y": 0.3898011917,
				"z": -1.4106513788,
				"element": "C" 
			},
			{
				"x": 5.8930608063,
				"y": 3.6288888736,
				"z": -0.3736200566,
				"element": "H" 
			},
			{
				"x": 3.5506002461,
				"y": 3.4533114656,
				"z": -1.1920238223,
				"element": "H" 
			},
			{
				"x": 1.9929933626,
				"y": 2.3245605865,
				"z": -2.3331827477,
				"element": "H" 
			},
			{
				"x": -0.4227661274,
				"y": 0.175800272,
				"z": -3.1061303374,
				"element": "H" 
			},
			{
				"x": -0.0858252986,
				"y": 2.7678852665,
				"z": -3.7396231373,
				"element": "H" 
			},
			{
				"x": -0.3615806823,
				"y": 1.253213153,
				"z": -0.3004936037,
				"element": "H" 
			},
			{
				"x": -1.8873952273,
				"y": 2.1431010037,
				"z": -0.0534001983,
				"element": "H" 
			},
			{
				"x": -3.6818251085,
				"y": -3.2156821169,
				"z": 0.0032293082,
				"element": "H" 
			},
			{
				"x": -2.4161638458,
				"y": -0.0911553846,
				"z": 3.1844691719,
				"element": "H" 
			},
			{
				"x": -2.4243239831,
				"y": -0.820675097,
				"z": 5.5703243383,
				"element": "H" 
			},
			{
				"x": -2.8741887769,
				"y": -4.9052940206,
				"z": 4.3102338368,
				"element": "H" 
			},
			{
				"x": -2.8200744906,
				"y": -4.1887126606,
				"z": 1.9448908391,
				"element": "H" 
			},
			{
				"x": 4.2399447797,
				"y": -0.6477863301,
				"z": -2.2975719195,
				"element": "H" 
			},
			{
				"x": 6.5839595359,
				"y": -0.4555373968,
				"z": -1.4629789484,
				"element": "H" 
			}
		],
		 "valence_orbital": [ 
			{
				"type": "occ",
				"energy": -0.26862,
				"method": "rhf"
			},
			{
				"type": "occ",
				"energy": -0.24326,
				"method": "rhf"
			},
			{
				"type": "occ",
				"energy": -0.23825,
				"method": "rhf"
			},
			{
				"type": "occ",
				"energy": -0.22047,
				"method": "rhf"
			},
			{
				"type": "occ",
				"energy": -0.21739,
				"method": "rhf"
			},
			{
				"type": "unocc",
				"energy": -0.04894,
				"method": "rhf"
			},
			{
				"type": "unocc",
				"energy": -0.03622,
				"method": "rhf"
			},
			{
				"type": "unocc",
				"energy": -0.03367,
				"method": "rhf"
			},
			{
				"type": "unocc",
				"energy": -0.02703,
				"method": "rhf"
			},
			{
				"type": "unocc",
				"energy": -0.01837,
				"method": "rhf"
			}
		],
		"cosmo_sigma_profile": { 
			"-0.025": 0.0,
			"-0.024": 0.0,
			"-0.023": 0.0,
			"-0.022": 0.0,
			"-0.021": 0.0,
			"-0.02": 0.0,
			"-0.019": 0.0,
			"-0.018": 0.0,
			"-0.017": 0.0,
			"-0.016": 0.567286134517,
			"-0.015": 1.38722589316,
			"-0.014": 2.32311810497,
			"-0.013": 2.29869073904,
			"-0.012": 3.91913573488,
			"-0.011": 6.91397745049,
			"-0.01": 6.81669835375,
			"-0.009": 7.49501932798,
			"-0.008": 11.8315596857,
			"-0.007": 19.9018306947,
			"-0.006": 20.3348747768,
			"-0.005": 17.1347931583,
			"-0.004": 16.9503899423,
			"-0.003": 19.1275994871,
			"-0.002": 21.8342197381,
			"-0.001": 24.3560499519,
			"0.0": 29.0810680214,
			"0.001": 36.5835350266,
			"0.002": 39.5643951484,
			"0.003": 36.1651990399,
			"0.004": 32.5090330511,
			"0.005": 17.51153279,
			"0.006": 8.97299785674,
			"0.007": 9.38148717844,
			"0.008": 7.88990280475,
			"0.009": 9.91498629914,
			"0.01": 8.72189791053,
			"0.011": 7.31792114692,
			"0.012": 3.96439687895,
			"0.013": 1.38884313325,
			"0.014": 1.35435524655,
			"0.015": 0.78957515762,
			"0.016": 0.109837839784,
			"0.017": 0.0,
			"0.018": 0.0,
			"0.019": 0.0,
			"0.02": 0.0,
			"0.021": 0.0,
			"0.022": 0.0,
			"0.023": 0.0,
			"0.024": 0.0,
			"0.025": 0.0
		}
	}
}
