{
	 "smiles": "OC(=O)C12CC3CC(CC(F)(C3)C1)C2", 
	 "Tm": 383.15, 
	 "num_atms": 29, 
	 "gaussian": { 
		 "optdone": 1, 
		 "sigma_profile": "yes", 
		 "theory": "DFT", 
		 "functional": "B3LYP", 
		 "basiset": "6-31G**", 
		 "properties": { 
			 "R2extent": 2460.3954, 
			 "electric_dipole_moment_norm": 5.14500218659, 
			 "electric_quadrupole_moment_norm": 13.2292861342, 
			 "total_energy": -678.536725489, 
			 "HOMO_LUMO_gap": 0.27262, 
			 "cosmo_polarized_energy": -14.83, 
			 "cosmo_cavitation_energy": 27.8, 
			 "cosmo_dispersion_energy": -20.74, 
			 "cosmo_repulsion_energy": 1.56, 
			 "cosmo_total_nonelectrostatic_energy": 8.62, 
			 "SMD_solvation_energy": 4.85 
		},
		"coords": [
			{
				"x": -1.3701644169,
				"y": 2.1586924502,
				"z": -2.3120760705,
				"element": "O" 
			},
			{
				"x": -0.2604698953,
				"y": 1.3682267682,
				"z": -2.3188124092,
				"element": "C" 
			},
			{
				"x": 0.4837295793,
				"y": 1.4000880454,
				"z": -3.2673797914,
				"element": "O" 
			},
			{
				"x": -0.0528771774,
				"y": 0.4835446513,
				"z": -1.082737153,
				"element": "C" 
			},
			{
				"x": 0.0779387104,
				"y": 1.3529940487,
				"z": 0.2011241552,
				"element": "C" 
			},
			{
				"x": 0.3140130029,
				"y": 0.4476318466,
				"z": 1.4285386101,
				"element": "C" 
			},
			{
				"x": -0.8776536721,
				"y": -0.5188741383,
				"z": 1.5916433273,
				"element": "C" 
			},
			{
				"x": -1.0067321545,
				"y": -1.3973707365,
				"z": 0.3296486391,
				"element": "C" 
			},
			{
				"x": 0.2938724371,
				"y": -2.204371459,
				"z": 0.1305941984,
				"element": "C" 
			},
			{
				"x": 1.46100985,
				"y": -1.2267189065,
				"z": -0.0308023355,
				"element": "C" 
			},
			{
				"x": 2.6415845702,
				"y": -1.9598969144,
				"z": -0.2187484857,
				"element": "F" 
			},
			{
				"x": 1.610462649,
				"y": -0.3651889648,
				"z": 1.2260829629,
				"element": "C" 
			},
			{
				"x": 1.2433982239,
				"y": -0.3393503506,
				"z": -1.2588759957,
				"element": "C" 
			},
			{
				"x": -1.2467969875,
				"y": -0.4975539899,
				"z": -0.9010340038,
				"element": "C" 
			},
			{
				"x": -1.8703445175,
				"y": 2.0301515912,
				"z": -1.4940692232,
				"element": "H" 
			},
			{
				"x": -0.8290218919,
				"y": 1.9518443938,
				"z": 0.361244027,
				"element": "H" 
			},
			{
				"x": 0.9064062143,
				"y": 2.0616547898,
				"z": 0.0828885251,
				"element": "H" 
			},
			{
				"x": 0.4094199649,
				"y": 1.0747586258,
				"z": 2.3227704934,
				"element": "H" 
			},
			{
				"x": -0.730961529,
				"y": -1.1507173644,
				"z": 2.4761908364,
				"element": "H" 
			},
			{
				"x": -1.8040682728,
				"y": 0.0469036607,
				"z": 1.7550918721,
				"element": "H" 
			},
			{
				"x": -1.8529171726,
				"y": -2.085651416,
				"z": 0.4403896154,
				"element": "H" 
			},
			{
				"x": 0.4805144599,
				"y": -2.8587921555,
				"z": 0.9899861279,
				"element": "H" 
			},
			{
				"x": 0.228104426,
				"y": -2.841265059,
				"z": -0.7592143866,
				"element": "H" 
			},
			{
				"x": 1.8040034962,
				"y": -1.0099451661,
				"z": 2.0912298833,
				"element": "H" 
			},
			{
				"x": 2.4754419129,
				"y": 0.2982970595,
				"z": 1.1107229192,
				"element": "H" 
			},
			{
				"x": 1.1792270525,
				"y": -0.9572878621,
				"z": -2.1596419029,
				"element": "H" 
			},
			{
				"x": 2.099555242,
				"y": 0.3286204049,
				"z": -1.3935621813,
				"element": "H" 
			},
			{
				"x": -2.1882751002,
				"y": 0.0530142111,
				"z": -0.7695659639,
				"element": "H" 
			},
			{
				"x": -1.3624990037,
				"y": -1.1077380643,
				"z": -1.8048262901,
				"element": "H" 
			}
		],
		 "valence_orbital": [ 
			{
				"type": "occ",
				"energy": -0.32851,
				"method": "rhf"
			},
			{
				"type": "occ",
				"energy": -0.31465,
				"method": "rhf"
			},
			{
				"type": "occ",
				"energy": -0.30386,
				"method": "rhf"
			},
			{
				"type": "occ",
				"energy": -0.29376,
				"method": "rhf"
			},
			{
				"type": "occ",
				"energy": -0.26475,
				"method": "rhf"
			},
			{
				"type": "unocc",
				"energy": 0.00787,
				"method": "rhf"
			},
			{
				"type": "unocc",
				"energy": 0.03457,
				"method": "rhf"
			},
			{
				"type": "unocc",
				"energy": 0.06576,
				"method": "rhf"
			},
			{
				"type": "unocc",
				"energy": 0.10658,
				"method": "rhf"
			},
			{
				"type": "unocc",
				"energy": 0.11077,
				"method": "rhf"
			}
		],
		"cosmo_sigma_profile": { 
			"-0.025": 0.0,
			"-0.024": 0.0,
			"-0.023": 0.0,
			"-0.022": 0.0,
			"-0.021": 0.0,
			"-0.02": 0.0,
			"-0.019": 0.0,
			"-0.018": 0.0818609846924,
			"-0.017": 0.853519265425,
			"-0.016": 0.797693180105,
			"-0.015": 1.34489061352,
			"-0.014": 0.966636004846,
			"-0.013": 0.744804425549,
			"-0.012": 1.02057280385,
			"-0.011": 1.30039297157,
			"-0.01": 1.23368661823,
			"-0.009": 0.585898848015,
			"-0.008": 1.16996245315,
			"-0.007": 1.53355258132,
			"-0.006": 1.9105375662,
			"-0.005": 4.74472232336,
			"-0.004": 20.6417053349,
			"-0.003": 36.2244084365,
			"-0.002": 30.6740380771,
			"-0.001": 25.3458956743,
			"0.0": 15.426849741,
			"0.001": 7.14812969679,
			"0.002": 4.72088295717,
			"0.003": 3.38292772751,
			"0.004": 5.4737257482,
			"0.005": 3.95991597288,
			"0.006": 6.5155735453,
			"0.007": 11.6265507416,
			"0.008": 4.27931318638,
			"0.009": 3.19179563537,
			"0.01": 4.39218217057,
			"0.011": 5.53130195718,
			"0.012": 5.42307764534,
			"0.013": 1.97224415396,
			"0.014": 0.0938010800589,
			"0.015": 0.0,
			"0.016": 0.0,
			"0.017": 0.0,
			"0.018": 0.0,
			"0.019": 0.0,
			"0.02": 0.0,
			"0.021": 0.0,
			"0.022": 0.0,
			"0.023": 0.0,
			"0.024": 0.0,
			"0.025": 0.0
		}
	}
}
