{
	 "smiles": "CC(=O)NC1=CC=CC=C1C", 
	 "Tm": 383.15, 
	 "num_atms": 22, 
	 "gaussian": { 
		 "optdone": 1, 
		 "sigma_profile": "yes", 
		 "theory": "DFT", 
		 "functional": "B3LYP", 
		 "basiset": "6-31G**", 
		 "properties": { 
			 "R2extent": 2688.4826, 
			 "electric_dipole_moment_norm": 3.64822125837, 
			 "electric_quadrupole_moment_norm": 14.3381806653, 
			 "total_energy": -479.590735519, 
			 "HOMO_LUMO_gap": 0.20494, 
			 "cosmo_polarized_energy": -11.84, 
			 "cosmo_cavitation_energy": 25.14, 
			 "cosmo_dispersion_energy": -18.54, 
			 "cosmo_repulsion_energy": 1.49, 
			 "cosmo_total_nonelectrostatic_energy": 8.09, 
			 "SMD_solvation_energy": 5.06 
		},
		"coords": [
			{
				"x": -1.5467974656,
				"y": 0.0988197904,
				"z": 4.3158131869,
				"element": "C" 
			},
			{
				"x": -1.545488109,
				"y": -0.616994417,
				"z": 2.9705555619,
				"element": "C" 
			},
			{
				"x": -2.5312168631,
				"y": -1.2228469244,
				"z": 2.5755200001,
				"element": "O" 
			},
			{
				"x": -0.3599302789,
				"y": -0.5120428559,
				"z": 2.2739450382,
				"element": "N" 
			},
			{
				"x": -0.0132227555,
				"y": -1.0449340789,
				"z": 1.0110779459,
				"element": "C" 
			},
			{
				"x": -0.910439157,
				"y": -1.808579522,
				"z": 0.2494088702,
				"element": "C" 
			},
			{
				"x": -0.5150768918,
				"y": -2.3095423508,
				"z": -0.9901526985,
				"element": "C" 
			},
			{
				"x": 0.7641076793,
				"y": -2.0603583729,
				"z": -1.4834479223,
				"element": "C" 
			},
			{
				"x": 1.6505941798,
				"y": -1.3002732544,
				"z": -0.720491849,
				"element": "C" 
			},
			{
				"x": 1.2895813052,
				"y": -0.7819851422,
				"z": 0.5258876261,
				"element": "C" 
			},
			{
				"x": 2.2784268364,
				"y": 0.0374627064,
				"z": 1.3235625417,
				"element": "C" 
			},
			{
				"x": -2.3555637293,
				"y": 0.834640464,
				"z": 4.3175442276,
				"element": "H" 
			},
			{
				"x": -0.6082781882,
				"y": 0.6039100591,
				"z": 4.561510319,
				"element": "H" 
			},
			{
				"x": -1.7709546872,
				"y": -0.6313924871,
				"z": 5.098141497,
				"element": "H" 
			},
			{
				"x": 0.3643113776,
				"y": 0.0207041094,
				"z": 2.7286822985,
				"element": "H" 
			},
			{
				"x": -1.8999772073,
				"y": -1.9963453153,
				"z": 0.6404887507,
				"element": "H" 
			},
			{
				"x": -1.2197182246,
				"y": -2.8993015354,
				"z": -1.5695054231,
				"element": "H" 
			},
			{
				"x": 1.0714482674,
				"y": -2.4507676309,
				"z": -2.4488951055,
				"element": "H" 
			},
			{
				"x": 2.6510091261,
				"y": -1.0999343703,
				"z": -1.0960920969,
				"element": "H" 
			},
			{
				"x": 2.5063182231,
				"y": -0.4171670753,
				"z": 2.2974167367,
				"element": "H" 
			},
			{
				"x": 3.2246025387,
				"y": 0.1289362191,
				"z": 0.7852012361,
				"element": "H" 
			},
			{
				"x": 1.9172640239,
				"y": 1.0576919844,
				"z": 1.5126292587,
				"element": "H" 
			}
		],
		 "valence_orbital": [ 
			{
				"type": "occ",
				"energy": -0.33974,
				"method": "rhf"
			},
			{
				"type": "occ",
				"energy": -0.30183,
				"method": "rhf"
			},
			{
				"type": "occ",
				"energy": -0.25018,
				"method": "rhf"
			},
			{
				"type": "occ",
				"energy": -0.24146,
				"method": "rhf"
			},
			{
				"type": "occ",
				"energy": -0.21537,
				"method": "rhf"
			},
			{
				"type": "unocc",
				"energy": -0.01043,
				"method": "rhf"
			},
			{
				"type": "unocc",
				"energy": 0.00509,
				"method": "rhf"
			},
			{
				"type": "unocc",
				"energy": 0.04915,
				"method": "rhf"
			},
			{
				"type": "unocc",
				"energy": 0.06303,
				"method": "rhf"
			},
			{
				"type": "unocc",
				"energy": 0.10167,
				"method": "rhf"
			}
		],
		"cosmo_sigma_profile": { 
			"-0.025": 0.0,
			"-0.024": 0.0,
			"-0.023": 0.0,
			"-0.022": 0.0,
			"-0.021": 0.0,
			"-0.02": 0.0,
			"-0.019": 0.0,
			"-0.018": 0.0,
			"-0.017": 0.0,
			"-0.016": 0.0,
			"-0.015": 0.0,
			"-0.014": 0.133916233706,
			"-0.013": 1.31368294141,
			"-0.012": 1.24982956664,
			"-0.011": 1.36341783452,
			"-0.01": 1.29755139228,
			"-0.009": 2.2507534001,
			"-0.008": 1.74357087203,
			"-0.007": 1.83758902691,
			"-0.006": 6.72508390619,
			"-0.005": 16.0476781407,
			"-0.004": 17.214791336,
			"-0.003": 19.3104016026,
			"-0.002": 18.8821698082,
			"-0.001": 18.8056659641,
			"0.0": 11.7340742996,
			"0.001": 9.32699640914,
			"0.002": 9.96373390998,
			"0.003": 10.5335930689,
			"0.004": 11.4641120658,
			"0.005": 9.85935167251,
			"0.006": 10.1741324983,
			"0.007": 3.57766233209,
			"0.008": 1.39616447741,
			"0.009": 1.82283184014,
			"0.01": 1.75030752075,
			"0.011": 1.98710698905,
			"0.012": 2.20916146031,
			"0.013": 3.26832504326,
			"0.014": 2.00566440045,
			"0.015": 0.272033938002,
			"0.016": 0.0,
			"0.017": 0.0,
			"0.018": 0.0,
			"0.019": 0.0,
			"0.02": 0.0,
			"0.021": 0.0,
			"0.022": 0.0,
			"0.023": 0.0,
			"0.024": 0.0,
			"0.025": 0.0
		}
	}
}
