{
	 "smiles": "CCC(=O)C1=CC=C(C)C=C1", 
	 "Tm": 280.25, 
	 "num_atms": 23, 
	 "gaussian": { 
		 "optdone": 1, 
		 "sigma_profile": "yes", 
		 "theory": "DFT", 
		 "functional": "B3LYP", 
		 "basiset": "6-31G**", 
		 "properties": { 
			 "R2extent": 2372.0038, 
			 "electric_dipole_moment_norm": 3.18254385987, 
			 "electric_quadrupole_moment_norm": 7.23317267525, 
			 "total_energy": -463.537363063, 
			 "HOMO_LUMO_gap": 0.19372, 
			 "cosmo_polarized_energy": -7.83, 
			 "cosmo_cavitation_energy": 26.24, 
			 "cosmo_dispersion_energy": -19.15, 
			 "cosmo_repulsion_energy": 1.54, 
			 "cosmo_total_nonelectrostatic_energy": 8.63, 
			 "SMD_solvation_energy": 5.07 
		},
		"coords": [
			{
				"x": -2.0611258934,
				"y": -0.9658753366,
				"z": 3.3672408692,
				"element": "C" 
			},
			{
				"x": -1.7600425576,
				"y": -0.8693217507,
				"z": 1.8729885048,
				"element": "C" 
			},
			{
				"x": -0.3562044018,
				"y": -0.3471590437,
				"z": 1.5792916703,
				"element": "C" 
			},
			{
				"x": 0.4022388471,
				"y": -0.0525649663,
				"z": 2.492394725,
				"element": "O" 
			},
			{
				"x": 0.078091268,
				"y": -0.2016770116,
				"z": 0.1520885939,
				"element": "C" 
			},
			{
				"x": 1.3724523913,
				"y": 0.2813059344,
				"z": -0.1022237963,
				"element": "C" 
			},
			{
				"x": 1.827584813,
				"y": 0.4383996181,
				"z": -1.4047884539,
				"element": "C" 
			},
			{
				"x": 1.0094266915,
				"y": 0.1176874618,
				"z": -2.5009282131,
				"element": "C" 
			},
			{
				"x": 1.5196486507,
				"y": 0.2703069565,
				"z": -3.9132886293,
				"element": "C" 
			},
			{
				"x": -0.2812480489,
				"y": -0.3612475725,
				"z": -2.2441357603,
				"element": "C" 
			},
			{
				"x": -0.7434665095,
				"y": -0.5207658305,
				"z": -0.9382637986,
				"element": "C" 
			},
			{
				"x": -1.9716039382,
				"y": 0.0116695872,
				"z": 3.8477884854,
				"element": "H" 
			},
			{
				"x": -1.3560793348,
				"y": -1.6361490025,
				"z": 3.8654361171,
				"element": "H" 
			},
			{
				"x": -3.0750035396,
				"y": -1.3428702974,
				"z": 3.5314213842,
				"element": "H" 
			},
			{
				"x": -1.8718017781,
				"y": -1.8491531418,
				"z": 1.3888229956,
				"element": "H" 
			},
			{
				"x": -2.4840376981,
				"y": -0.2126809354,
				"z": 1.3713470711,
				"element": "H" 
			},
			{
				"x": 2.0008360436,
				"y": 0.5288311264,
				"z": 0.7469262906,
				"element": "H" 
			},
			{
				"x": 2.8317245447,
				"y": 0.8165317313,
				"z": -1.5816257028,
				"element": "H" 
			},
			{
				"x": 0.7063008765,
				"y": 0.2200533707,
				"z": -4.6423117336,
				"element": "H" 
			},
			{
				"x": 2.2355017724,
				"y": -0.5232331549,
				"z": -4.1609032793,
				"element": "H" 
			},
			{
				"x": 2.0395607087,
				"y": 1.2244703868,
				"z": -4.0485230615,
				"element": "H" 
			},
			{
				"x": -0.9331453919,
				"y": -0.6114442401,
				"z": -3.0772540446,
				"element": "H" 
			},
			{
				"x": -1.7502075156,
				"y": -0.8932138892,
				"z": -0.778500234,
				"element": "H" 
			}
		],
		 "valence_orbital": [ 
			{
				"type": "occ",
				"energy": -0.33888,
				"method": "rhf"
			},
			{
				"type": "occ",
				"energy": -0.33828,
				"method": "rhf"
			},
			{
				"type": "occ",
				"energy": -0.25662,
				"method": "rhf"
			},
			{
				"type": "occ",
				"energy": -0.24718,
				"method": "rhf"
			},
			{
				"type": "occ",
				"energy": -0.24327,
				"method": "rhf"
			},
			{
				"type": "unocc",
				"energy": -0.04955,
				"method": "rhf"
			},
			{
				"type": "unocc",
				"energy": -0.00654,
				"method": "rhf"
			},
			{
				"type": "unocc",
				"energy": 0.04278,
				"method": "rhf"
			},
			{
				"type": "unocc",
				"energy": 0.09144,
				"method": "rhf"
			},
			{
				"type": "unocc",
				"energy": 0.10439,
				"method": "rhf"
			}
		],
		"cosmo_sigma_profile": { 
			"-0.025": 0.0,
			"-0.024": 0.0,
			"-0.023": 0.0,
			"-0.022": 0.0,
			"-0.021": 0.0,
			"-0.02": 0.0,
			"-0.019": 0.0,
			"-0.018": 0.0,
			"-0.017": 0.0,
			"-0.016": 0.0,
			"-0.015": 0.0,
			"-0.014": 0.0,
			"-0.013": 0.0,
			"-0.012": 0.0,
			"-0.011": 0.0,
			"-0.01": 0.0,
			"-0.009": 0.0,
			"-0.008": 0.0,
			"-0.007": 0.25564683386,
			"-0.006": 5.52938101892,
			"-0.005": 17.4267595266,
			"-0.004": 20.3381309927,
			"-0.003": 21.1472051565,
			"-0.002": 22.8539850652,
			"-0.001": 23.6645629625,
			"0.0": 19.0246867951,
			"0.001": 16.5511369004,
			"0.002": 10.8065328643,
			"0.003": 11.8250490939,
			"0.004": 12.139035469,
			"0.005": 8.02730950825,
			"0.006": 2.04183394754,
			"0.007": 1.74126382308,
			"0.008": 1.57842795434,
			"0.009": 1.80226301121,
			"0.01": 2.09011245027,
			"0.011": 2.21888971896,
			"0.012": 4.09938450329,
			"0.013": 1.88176816342,
			"0.014": 0.122919633716,
			"0.015": 0.0,
			"0.016": 0.0,
			"0.017": 0.0,
			"0.018": 0.0,
			"0.019": 0.0,
			"0.02": 0.0,
			"0.021": 0.0,
			"0.022": 0.0,
			"0.023": 0.0,
			"0.024": 0.0,
			"0.025": 0.0
		}
	}
}
