{
	 "smiles": "CC1=C(SC(=N1)C1=NC=CC=N1)C(O)=O", 
	 "Tm": 498.15, 
	 "num_atms": 22, 
	 "gaussian": { 
		 "optdone": 1, 
		 "sigma_profile": "yes", 
		 "theory": "DFT", 
		 "functional": "B3LYP", 
		 "basiset": "6-31G**", 
		 "properties": { 
			 "R2extent": 4242.9057, 
			 "electric_dipole_moment_norm": 3.60735211616, 
			 "electric_quadrupole_moment_norm": 19.0330558195, 
			 "total_energy": -1060.07501504, 
			 "HOMO_LUMO_gap": 0.15516, 
			 "cosmo_polarized_energy": -15.66, 
			 "cosmo_cavitation_energy": 29.38, 
			 "cosmo_dispersion_energy": -22.2, 
			 "cosmo_repulsion_energy": 1.69, 
			 "cosmo_total_nonelectrostatic_energy": 8.87, 
			 "SMD_solvation_energy": 2.19 
		},
		"coords": [
			{
				"x": 2.0084780875,
				"y": -2.2464578591,
				"z": -2.1071031819,
				"element": "C" 
			},
			{
				"x": 1.2434892101,
				"y": -1.4186394761,
				"z": -1.1174437972,
				"element": "C" 
			},
			{
				"x": 1.786488934,
				"y": -0.5741612498,
				"z": -0.1572062838,
				"element": "C" 
			},
			{
				"x": 0.5264745748,
				"y": 0.1848440772,
				"z": 0.7712550885,
				"element": "S" 
			},
			{
				"x": -0.6344967432,
				"y": -0.6876523237,
				"z": -0.1983222748,
				"element": "C" 
			},
			{
				"x": -0.1222621139,
				"y": -1.4657220589,
				"z": -1.1209773071,
				"element": "N" 
			},
			{
				"x": -2.076676081,
				"y": -0.5144840787,
				"z": 0.0567871421,
				"element": "C" 
			},
			{
				"x": -2.3912564791,
				"y": 0.3322410028,
				"z": 1.052590993,
				"element": "N" 
			},
			{
				"x": -3.6906400271,
				"y": 0.5037390654,
				"z": 1.30055064,
				"element": "C" 
			},
			{
				"x": -4.6782906626,
				"y": -0.1562240951,
				"z": 0.5705327239,
				"element": "C" 
			},
			{
				"x": -4.2338210378,
				"y": -1.0103461106,
				"z": -0.438802003,
				"element": "C" 
			},
			{
				"x": -2.9396224946,
				"y": -1.199519062,
				"z": -0.7070706144,
				"element": "N" 
			},
			{
				"x": 3.2117053355,
				"y": -0.3298844735,
				"z": 0.0733484239,
				"element": "C" 
			},
			{
				"x": 3.4299616724,
				"y": 0.5489235392,
				"z": 1.0852171379,
				"element": "O" 
			},
			{
				"x": 4.1195850463,
				"y": -0.8416010893,
				"z": -0.5552632615,
				"element": "O" 
			},
			{
				"x": 1.3036485559,
				"y": -2.8030667607,
				"z": -2.7263571586,
				"element": "H" 
			},
			{
				"x": 2.6827170341,
				"y": -2.9426385195,
				"z": -1.5999977774,
				"element": "H" 
			},
			{
				"x": 2.6394817887,
				"y": -1.6176595532,
				"z": -2.7418338548,
				"element": "H" 
			},
			{
				"x": -3.9449343284,
				"y": 1.1892658392,
				"z": 2.1067769246,
				"element": "H" 
			},
			{
				"x": -5.7331492605,
				"y": -0.0133634234,
				"z": 0.7760528375,
				"element": "H" 
			},
			{
				"x": -4.9393820802,
				"y": -1.5640852859,
				"z": -1.0560088189,
				"element": "H" 
			},
			{
				"x": 4.3941010693,
				"y": 0.6424918958,
				"z": 1.157574422,
				"element": "H" 
			}
		],
		 "valence_orbital": [ 
			{
				"type": "occ",
				"energy": -0.28633,
				"method": "rhf"
			},
			{
				"type": "occ",
				"energy": -0.28149,
				"method": "rhf"
			},
			{
				"type": "occ",
				"energy": -0.27966,
				"method": "rhf"
			},
			{
				"type": "occ",
				"energy": -0.26133,
				"method": "rhf"
			},
			{
				"type": "occ",
				"energy": -0.24155,
				"method": "rhf"
			},
			{
				"type": "unocc",
				"energy": -0.08639,
				"method": "rhf"
			},
			{
				"type": "unocc",
				"energy": -0.05194,
				"method": "rhf"
			},
			{
				"type": "unocc",
				"energy": -0.02357,
				"method": "rhf"
			},
			{
				"type": "unocc",
				"energy": 0.02602,
				"method": "rhf"
			},
			{
				"type": "unocc",
				"energy": 0.03544,
				"method": "rhf"
			}
		],
		"cosmo_sigma_profile": { 
			"-0.025": 0.0,
			"-0.024": 0.0,
			"-0.023": 0.0,
			"-0.022": 0.0,
			"-0.021": 0.0,
			"-0.02": 0.0,
			"-0.019": 0.33801746841,
			"-0.018": 0.789393405636,
			"-0.017": 0.84872058199,
			"-0.016": 0.824029605856,
			"-0.015": 0.72889607441,
			"-0.014": 0.956617478041,
			"-0.013": 0.825759641913,
			"-0.012": 0.45915427554,
			"-0.011": 1.00250915907,
			"-0.01": 0.317461341115,
			"-0.009": 2.3177570935,
			"-0.008": 8.58577631083,
			"-0.007": 9.24232852357,
			"-0.006": 6.98968593621,
			"-0.005": 8.46879410349,
			"-0.004": 9.28218702448,
			"-0.003": 17.7600178964,
			"-0.002": 25.9635431844,
			"-0.001": 31.4480755679,
			"0.0": 19.4316727553,
			"0.001": 15.8979737696,
			"0.002": 14.9644611514,
			"0.003": 7.41807245314,
			"0.004": 6.60708365639,
			"0.005": 6.65682398445,
			"0.006": 5.93336463812,
			"0.007": 5.80687754959,
			"0.008": 5.77396673184,
			"0.009": 4.19473489704,
			"0.01": 4.31221276085,
			"0.011": 5.72223281757,
			"0.012": 2.56039841948,
			"0.013": 0.910061839322,
			"0.014": 0.984891311046,
			"0.015": 1.58608309651,
			"0.016": 1.07850238782,
			"0.017": 1.03954963828,
			"0.018": 0.429972016435,
			"0.019": 0.0,
			"0.02": 0.0,
			"0.021": 0.0,
			"0.022": 0.0,
			"0.023": 0.0,
			"0.024": 0.0,
			"0.025": 0.0
		}
	}
}
