{
	 "smiles": "ClCC(=O)NCC1=CC2=C(OCO2)C=C1", 
	 "Tm": 365.75, 
	 "num_atms": 25, 
	 "gaussian": { 
		 "optdone": 1, 
		 "sigma_profile": "yes", 
		 "theory": "DFT", 
		 "functional": "B3LYP", 
		 "basiset": "6-31G**", 
		 "properties": { 
			 "R2extent": 6699.1996, 
			 "electric_dipole_moment_norm": 2.13134035058, 
			 "electric_quadrupole_moment_norm": 8.55566073194, 
			 "total_energy": -1127.69743173, 
			 "HOMO_LUMO_gap": 0.20349, 
			 "cosmo_polarized_energy": -13.01, 
			 "cosmo_cavitation_energy": 31.09, 
			 "cosmo_dispersion_energy": -23.06, 
			 "cosmo_repulsion_energy": 1.84, 
			 "cosmo_total_nonelectrostatic_energy": 9.88, 
			 "SMD_solvation_energy": 5.55 
		},
		"coords": [
			{
				"x": 0.714002124,
				"y": -5.3846191336,
				"z": -1.5466734809,
				"element": "Cl" 
			},
			{
				"x": -0.5343132455,
				"y": -4.9372021189,
				"z": -2.7899271096,
				"element": "C" 
			},
			{
				"x": -0.5109920849,
				"y": -3.4972225601,
				"z": -3.3090438575,
				"element": "C" 
			},
			{
				"x": -1.358619863,
				"y": -3.1966331593,
				"z": -4.1440358127,
				"element": "O" 
			},
			{
				"x": 0.4398403653,
				"y": -2.662042176,
				"z": -2.8346492414,
				"element": "N" 
			},
			{
				"x": 0.5022357049,
				"y": -1.2567723589,
				"z": -3.2415375457,
				"element": "C" 
			},
			{
				"x": -0.1808326921,
				"y": -0.3100872202,
				"z": -2.2721667226,
				"element": "C" 
			},
			{
				"x": 0.5924115733,
				"y": 0.4680980281,
				"z": -1.3849342617,
				"element": "C" 
			},
			{
				"x": -0.0848593134,
				"y": 1.2934977348,
				"z": -0.5090500971,
				"element": "C" 
			},
			{
				"x": -1.4748525644,
				"y": 1.3669956003,
				"z": -0.4912063069,
				"element": "C" 
			},
			{
				"x": -1.8781319881,
				"y": 2.280217521,
				"z": 0.4538840528,
				"element": "O" 
			},
			{
				"x": -0.6875344023,
				"y": 2.6763007288,
				"z": 1.1443046675,
				"element": "C" 
			},
			{
				"x": 0.437395327,
				"y": 2.1575158343,
				"z": 0.4243108398,
				"element": "O" 
			},
			{
				"x": -2.2539451097,
				"y": 0.6177824224,
				"z": -1.3522200434,
				"element": "C" 
			},
			{
				"x": -1.5784428482,
				"y": -0.2273922732,
				"z": -2.2490604536,
				"element": "C" 
			},
			{
				"x": -0.3986744472,
				"y": -5.6090941372,
				"z": -3.6375999044,
				"element": "H" 
			},
			{
				"x": -1.5111208255,
				"y": -5.1246862426,
				"z": -2.3439772777,
				"element": "H" 
			},
			{
				"x": 1.0295875787,
				"y": -2.9845452603,
				"z": -2.0801785308,
				"element": "H" 
			},
			{
				"x": 1.5559451327,
				"y": -0.9846333066,
				"z": -3.3592789768,
				"element": "H" 
			},
			{
				"x": 0.0268491668,
				"y": -1.2059357399,
				"z": -4.2235773525,
				"element": "H" 
			},
			{
				"x": 1.6770714768,
				"y": 0.4290166124,
				"z": -1.390693548,
				"element": "H" 
			},
			{
				"x": -0.6291495195,
				"y": 3.7689622396,
				"z": 1.1737653352,
				"element": "H" 
			},
			{
				"x": -0.6964358945,
				"y": 2.2587232921,
				"z": 2.1614093498,
				"element": "H" 
			},
			{
				"x": -3.3358055708,
				"y": 0.6870757713,
				"z": -1.3381198994,
				"element": "H" 
			},
			{
				"x": -2.1496280803,
				"y": -0.8385200982,
				"z": -2.9411438225,
				"element": "H" 
			}
		],
		 "valence_orbital": [ 
			{
				"type": "occ",
				"energy": -0.31099,
				"method": "rhf"
			},
			{
				"type": "occ",
				"energy": -0.26642,
				"method": "rhf"
			},
			{
				"type": "occ",
				"energy": -0.25908,
				"method": "rhf"
			},
			{
				"type": "occ",
				"energy": -0.2494,
				"method": "rhf"
			},
			{
				"type": "occ",
				"energy": -0.20812,
				"method": "rhf"
			},
			{
				"type": "unocc",
				"energy": -0.00463,
				"method": "rhf"
			},
			{
				"type": "unocc",
				"energy": 0.00075,
				"method": "rhf"
			},
			{
				"type": "unocc",
				"energy": 0.01345,
				"method": "rhf"
			},
			{
				"type": "unocc",
				"energy": 0.02021,
				"method": "rhf"
			},
			{
				"type": "unocc",
				"energy": 0.09065,
				"method": "rhf"
			}
		],
		"cosmo_sigma_profile": { 
			"-0.025": 0.0,
			"-0.024": 0.0,
			"-0.023": 0.0,
			"-0.022": 0.0,
			"-0.021": 0.0,
			"-0.02": 0.0,
			"-0.019": 0.0,
			"-0.018": 0.0,
			"-0.017": 0.0,
			"-0.016": 0.0,
			"-0.015": 0.0,
			"-0.014": 0.0,
			"-0.013": 0.305071870573,
			"-0.012": 0.75972983816,
			"-0.011": 0.837008114665,
			"-0.01": 1.01609929459,
			"-0.009": 4.2496869755,
			"-0.008": 6.50323118744,
			"-0.007": 15.3633743007,
			"-0.006": 17.3937914749,
			"-0.005": 15.5202289761,
			"-0.004": 15.8198102404,
			"-0.003": 12.5115952801,
			"-0.002": 13.7054731422,
			"-0.001": 14.4194456664,
			"0.0": 14.1354263162,
			"0.001": 16.6890852156,
			"0.002": 16.7170226451,
			"0.003": 18.5770429908,
			"0.004": 17.0652700255,
			"0.005": 16.0472932196,
			"0.006": 6.7978269865,
			"0.007": 4.12846682763,
			"0.008": 4.30734859416,
			"0.009": 4.18331768696,
			"0.01": 3.65791430091,
			"0.011": 1.18190210941,
			"0.012": 1.9930197115,
			"0.013": 4.40439568956,
			"0.014": 1.77211985063,
			"0.015": 0.0294885202658,
			"0.016": 0.0,
			"0.017": 0.0,
			"0.018": 0.0,
			"0.019": 0.0,
			"0.02": 0.0,
			"0.021": 0.0,
			"0.022": 0.0,
			"0.023": 0.0,
			"0.024": 0.0,
			"0.025": 0.0
		}
	}
}
