{
	 "smiles": "ON(C(Br)C(Br)C1=CC=CC=C1)C1=CC=CC=C1", 
	 "Tm": 398.15, 
	 "num_atms": 31, 
	 "gaussian": { 
		 "optdone": 1, 
		 "sigma_profile": "yes", 
		 "theory": "DFT", 
		 "functional": "B3LYP", 
		 "basiset": "6-31G**", 
		 "properties": { 
			 "R2extent": 7534.8847, 
			 "electric_dipole_moment_norm": 3.52736467352, 
			 "electric_quadrupole_moment_norm": 9.15208646758, 
			 "total_energy": -5814.0474673, 
			 "HOMO_LUMO_gap": 0.186, 
			 "cosmo_polarized_energy": -11.27, 
			 "cosmo_cavitation_energy": 37.92, 
			 "cosmo_dispersion_energy": -25.71, 
			 "cosmo_repulsion_energy": 2.0, 
			 "cosmo_total_nonelectrostatic_energy": 14.21, 
			 "SMD_solvation_energy": 4.44 
		},
		"coords": [
			{
				"x": 1.5091796043,
				"y": -1.2676191857,
				"z": 4.0938527642,
				"element": "O" 
			},
			{
				"x": 0.9684102192,
				"y": -0.6742120915,
				"z": 2.9308955101,
				"element": "N" 
			},
			{
				"x": -0.3463683788,
				"y": -0.9796849684,
				"z": 2.7872051997,
				"element": "C" 
			},
			{
				"x": -0.5834162745,
				"y": -3.204153029,
				"z": 2.3588469182,
				"element": "Br" 
			},
			{
				"x": -1.2643802136,
				"y": -0.2926103135,
				"z": 1.7859036493,
				"element": "C" 
			},
			{
				"x": -1.7020001736,
				"y": 1.4867192065,
				"z": 2.6326054941,
				"element": "Br" 
			},
			{
				"x": -0.8778145192,
				"y": -0.1452838292,
				"z": 0.3312484773,
				"element": "C" 
			},
			{
				"x": -0.1374737963,
				"y": 0.9347927549,
				"z": -0.1643007222,
				"element": "C" 
			},
			{
				"x": 0.1868137754,
				"y": 1.0059613895,
				"z": -1.5177097677,
				"element": "C" 
			},
			{
				"x": -0.2287074328,
				"y": 0.0030677549,
				"z": -2.3960306683,
				"element": "C" 
			},
			{
				"x": -0.9767706324,
				"y": -1.0704138014,
				"z": -1.9124808099,
				"element": "C" 
			},
			{
				"x": -1.3061347862,
				"y": -1.1412643106,
				"z": -0.5584376061,
				"element": "C" 
			},
			{
				"x": 1.9626612379,
				"y": -0.4745147161,
				"z": 1.9118618297,
				"element": "C" 
			},
			{
				"x": 2.7519758515,
				"y": 0.6746921853,
				"z": 2.0126325001,
				"element": "C" 
			},
			{
				"x": 3.769586431,
				"y": 0.8942118693,
				"z": 1.0860619713,
				"element": "C" 
			},
			{
				"x": 3.9942892662,
				"y": -0.0311286095,
				"z": 0.0635562214,
				"element": "C" 
			},
			{
				"x": 3.2053449961,
				"y": -1.1793858127,
				"z": -0.0259840006,
				"element": "C" 
			},
			{
				"x": 2.1901903134,
				"y": -1.4141674752,
				"z": 0.9021325832,
				"element": "C" 
			},
			{
				"x": 1.4570753111,
				"y": -2.22999946,
				"z": 3.9076604331,
				"element": "H" 
			},
			{
				"x": -0.8117639671,
				"y": -1.0701962019,
				"z": 3.7603919973,
				"element": "H" 
			},
			{
				"x": -2.2117860486,
				"y": -0.8213910676,
				"z": 1.8570570266,
				"element": "H" 
			},
			{
				"x": 0.1742204283,
				"y": 1.7255330808,
				"z": 0.5083172183,
				"element": "H" 
			},
			{
				"x": 0.7604506816,
				"y": 1.8510079159,
				"z": -1.8866601694,
				"element": "H" 
			},
			{
				"x": 0.0203714015,
				"y": 0.0640597723,
				"z": -3.4515484723,
				"element": "H" 
			},
			{
				"x": -1.3151186111,
				"y": -1.8506222913,
				"z": -2.5879782347,
				"element": "H" 
			},
			{
				"x": -1.8833947189,
				"y": -1.9811827416,
				"z": -0.1855669367,
				"element": "H" 
			},
			{
				"x": 2.5577562801,
				"y": 1.3793823169,
				"z": 2.8144289258,
				"element": "H" 
			},
			{
				"x": 4.3834766601,
				"y": 1.7867938055,
				"z": 1.1603112681,
				"element": "H" 
			},
			{
				"x": 4.7847925587,
				"y": 0.1420634849,
				"z": -0.6608643106,
				"element": "H" 
			},
			{
				"x": 3.3800719321,
				"y": -1.8999034286,
				"z": -0.8192657441,
				"element": "H" 
			},
			{
				"x": 1.5736626044,
				"y": -2.3033522029,
				"z": 0.8424574544,
				"element": "H" 
			}
		],
		 "valence_orbital": [ 
			{
				"type": "occ",
				"energy": -0.26454,
				"method": "rhf"
			},
			{
				"type": "occ",
				"energy": -0.26191,
				"method": "rhf"
			},
			{
				"type": "occ",
				"energy": -0.2554,
				"method": "rhf"
			},
			{
				"type": "occ",
				"energy": -0.25342,
				"method": "rhf"
			},
			{
				"type": "occ",
				"energy": -0.24787,
				"method": "rhf"
			},
			{
				"type": "unocc",
				"energy": -0.06187,
				"method": "rhf"
			},
			{
				"type": "unocc",
				"energy": -0.02849,
				"method": "rhf"
			},
			{
				"type": "unocc",
				"energy": -0.02317,
				"method": "rhf"
			},
			{
				"type": "unocc",
				"energy": -0.01523,
				"method": "rhf"
			},
			{
				"type": "unocc",
				"energy": -0.00727,
				"method": "rhf"
			}
		],
		"cosmo_sigma_profile": { 
			"-0.025": 0.0,
			"-0.024": 0.0,
			"-0.023": 0.0,
			"-0.022": 0.0,
			"-0.021": 0.0,
			"-0.02": 0.0,
			"-0.019": 0.0,
			"-0.018": 0.0,
			"-0.017": 0.0,
			"-0.016": 0.0,
			"-0.015": 0.00437783754357,
			"-0.014": 0.381596963712,
			"-0.013": 0.981169674408,
			"-0.012": 0.319574383237,
			"-0.011": 0.52232192834,
			"-0.01": 1.69894736336,
			"-0.009": 3.74584185645,
			"-0.008": 3.37513370141,
			"-0.007": 7.73769219917,
			"-0.006": 16.9142522376,
			"-0.005": 22.2553351597,
			"-0.004": 24.3816039914,
			"-0.003": 19.6982543081,
			"-0.002": 18.6764878454,
			"-0.001": 17.5459090069,
			"0.0": 18.0034385157,
			"0.001": 18.0682543612,
			"0.002": 21.5722846815,
			"0.003": 27.9286065973,
			"0.004": 34.4480503812,
			"0.005": 24.6347366184,
			"0.006": 9.73731021401,
			"0.007": 5.83305415703,
			"0.008": 5.29818530658,
			"0.009": 1.8784765391,
			"0.01": 2.01826623764,
			"0.011": 0.473491730503,
			"0.012": 0.0,
			"0.013": 0.0,
			"0.014": 0.0,
			"0.015": 0.0,
			"0.016": 0.0,
			"0.017": 0.0,
			"0.018": 0.0,
			"0.019": 0.0,
			"0.02": 0.0,
			"0.021": 0.0,
			"0.022": 0.0,
			"0.023": 0.0,
			"0.024": 0.0,
			"0.025": 0.0
		}
	}
}
