{
	 "smiles": "CCCCCCCCCCCCCC(CCCCCCCCCC)CCCCCCCCCC", 
	 "Tm": 283.95, 
	 "num_atms": 104, 
	 "gaussian": { 
		 "optdone": 1, 
		 "sigma_profile": "yes", 
		 "theory": "DFT", 
		 "functional": "B3LYP", 
		 "basiset": "6-31G**", 
		 "properties": { 
			 "R2extent": 45247.488, 
			 "electric_dipole_moment_norm": 0.0688450433946, 
			 "electric_quadrupole_moment_norm": 2.47815369983, 
			 "total_energy": -1337.9170534, 
			 "HOMO_LUMO_gap": 0.36223, 
			 "cosmo_polarized_energy": -2.09, 
			 "cosmo_cavitation_energy": 96.59, 
			 "cosmo_dispersion_energy": -62.77, 
			 "cosmo_repulsion_energy": 5.11, 
			 "cosmo_total_nonelectrostatic_energy": 38.93, 
			 "SMD_solvation_energy": 11.99 
		},
		"coords": [
			{
				"x": -8.3585688779,
				"y": 4.0408064598,
				"z": 0.7997289653,
				"element": "C" 
			},
			{
				"x": -7.2529150357,
				"y": 3.0042484962,
				"z": 1.034042162,
				"element": "C" 
			},
			{
				"x": -6.6102222237,
				"y": 3.0577200864,
				"z": 2.4309587518,
				"element": "C" 
			},
			{
				"x": -5.8049771116,
				"y": 4.3349297699,
				"z": 2.7120199646,
				"element": "C" 
			},
			{
				"x": -5.1929643832,
				"y": 4.4046329648,
				"z": 4.1233716075,
				"element": "C" 
			},
			{
				"x": -4.1488321137,
				"y": 3.3259724749,
				"z": 4.4644156557,
				"element": "C" 
			},
			{
				"x": -2.8811331171,
				"y": 3.3771961943,
				"z": 3.5979303092,
				"element": "C" 
			},
			{
				"x": -1.7637838271,
				"y": 2.4160013689,
				"z": 4.0402360255,
				"element": "C" 
			},
			{
				"x": -2.1000308336,
				"y": 0.9267226422,
				"z": 3.8710904722,
				"element": "C" 
			},
			{
				"x": -0.988255479,
				"y": -0.0336494717,
				"z": 4.3323798882,
				"element": "C" 
			},
			{
				"x": 0.3411822186,
				"y": 0.0437000456,
				"z": 3.5604477691,
				"element": "C" 
			},
			{
				"x": 0.2421543534,
				"y": -0.3285424063,
				"z": 2.0740416752,
				"element": "C" 
			},
			{
				"x": 1.6027869585,
				"y": -0.3170396905,
				"z": 1.3620331089,
				"element": "C" 
			},
			{
				"x": 1.5611206995,
				"y": -0.7025860147,
				"z": -0.1340931661,
				"element": "C" 
			},
			{
				"x": 1.355260432,
				"y": -2.224930524,
				"z": -0.3098581013,
				"element": "C" 
			},
			{
				"x": 0.8550274348,
				"y": -2.6497231344,
				"z": -1.7007320738,
				"element": "C" 
			},
			{
				"x": 0.6725450632,
				"y": -4.1733173696,
				"z": -1.8922842408,
				"element": "C" 
			},
			{
				"x": -0.7317822813,
				"y": -4.7309149981,
				"z": -1.5944950867,
				"element": "C" 
			},
			{
				"x": -1.1973380066,
				"y": -4.6338902133,
				"z": -0.1336185797,
				"element": "C" 
			},
			{
				"x": -2.5132067023,
				"y": -5.3745138418,
				"z": 0.1646973077,
				"element": "C" 
			},
			{
				"x": -3.7500223972,
				"y": -4.7832947445,
				"z": -0.5294014753,
				"element": "C" 
			},
			{
				"x": -5.0670315187,
				"y": -5.5164821178,
				"z": -0.2220637923,
				"element": "C" 
			},
			{
				"x": -5.5508364951,
				"y": -5.4008078667,
				"z": 1.230553278,
				"element": "C" 
			},
			{
				"x": -6.9003843028,
				"y": -6.0875644946,
				"z": 1.4657309222,
				"element": "C" 
			},
			{
				"x": 2.8327025206,
				"y": -0.2190450529,
				"z": -0.8695325771,
				"element": "C" 
			},
			{
				"x": 2.8697560193,
				"y": 1.2898407464,
				"z": -1.1575410976,
				"element": "C" 
			},
			{
				"x": 4.1811573286,
				"y": 1.7884133344,
				"z": -1.789182913,
				"element": "C" 
			},
			{
				"x": 4.4534702246,
				"y": 1.2515648327,
				"z": -3.2031488236,
				"element": "C" 
			},
			{
				"x": 5.6771840942,
				"y": 1.8746907184,
				"z": -3.8956458243,
				"element": "C" 
			},
			{
				"x": 7.0273035721,
				"y": 1.5363248812,
				"z": -3.2467224377,
				"element": "C" 
			},
			{
				"x": 8.2216705202,
				"y": 2.1203582814,
				"z": -4.0153128517,
				"element": "C" 
			},
			{
				"x": 9.5931514149,
				"y": 1.8677911846,
				"z": -3.3677881848,
				"element": "C" 
			},
			{
				"x": 10.0309306371,
				"y": 0.3965050246,
				"z": -3.3357086318,
				"element": "C" 
			},
			{
				"x": 11.4324578808,
				"y": 0.2035308781,
				"z": -2.7470559774,
				"element": "C" 
			},
			{
				"x": -7.9798421362,
				"y": 5.0661537578,
				"z": 0.8605990938,
				"element": "H" 
			},
			{
				"x": -8.8099732083,
				"y": 3.9177380205,
				"z": -0.1904017716,
				"element": "H" 
			},
			{
				"x": -9.157696569,
				"y": 3.9387369296,
				"z": 1.5434638928,
				"element": "H" 
			},
			{
				"x": -7.6702662528,
				"y": 2.0010018557,
				"z": 0.8787918022,
				"element": "H" 
			},
			{
				"x": -6.4701925251,
				"y": 3.1263718224,
				"z": 0.272448405,
				"element": "H" 
			},
			{
				"x": -5.9569136071,
				"y": 2.1834074349,
				"z": 2.5443288507,
				"element": "H" 
			},
			{
				"x": -7.3954960473,
				"y": 2.9501004645,
				"z": 3.193882142,
				"element": "H" 
			},
			{
				"x": -6.4535058254,
				"y": 5.2103307454,
				"z": 2.5829912882,
				"element": "H" 
			},
			{
				"x": -5.0145328696,
				"y": 4.4354114282,
				"z": 1.9556688229,
				"element": "H" 
			},
			{
				"x": -6.0061356375,
				"y": 4.3510977585,
				"z": 4.8604030273,
				"element": "H" 
			},
			{
				"x": -4.730893364,
				"y": 5.3927690102,
				"z": 4.2554533179,
				"element": "H" 
			},
			{
				"x": -4.6095963931,
				"y": 2.332959405,
				"z": 4.3984168158,
				"element": "H" 
			},
			{
				"x": -3.8582727943,
				"y": 3.4501143686,
				"z": 5.5170089912,
				"element": "H" 
			},
			{
				"x": -2.488830736,
				"y": 4.4036649723,
				"z": 3.6141750534,
				"element": "H" 
			},
			{
				"x": -3.134653957,
				"y": 3.1684187058,
				"z": 2.5496366169,
				"element": "H" 
			},
			{
				"x": -0.8589780229,
				"y": 2.651318478,
				"z": 3.465810173,
				"element": "H" 
			},
			{
				"x": -1.5131131328,
				"y": 2.6121599366,
				"z": 5.0931957556,
				"element": "H" 
			},
			{
				"x": -3.0066900873,
				"y": 0.6909114292,
				"z": 4.4418915502,
				"element": "H" 
			},
			{
				"x": -2.3507516384,
				"y": 0.7318221982,
				"z": 2.8193103798,
				"element": "H" 
			},
			{
				"x": -0.7865238046,
				"y": 0.1500795613,
				"z": 5.396735108,
				"element": "H" 
			},
			{
				"x": -1.3681143443,
				"y": -1.062864311,
				"z": 4.2714837552,
				"element": "H" 
			},
			{
				"x": 0.7726646153,
				"y": 1.0492659972,
				"z": 3.6546145579,
				"element": "H" 
			},
			{
				"x": 1.0588109273,
				"y": -0.6322448622,
				"z": 4.0452750167,
				"element": "H" 
			},
			{
				"x": -0.2241881703,
				"y": -1.3194828367,
				"z": 1.9873281579,
				"element": "H" 
			},
			{
				"x": -0.4308749543,
				"y": 0.3687321637,
				"z": 1.5572678878,
				"element": "H" 
			},
			{
				"x": 2.2950096672,
				"y": -0.9967200192,
				"z": 1.8812114761,
				"element": "H" 
			},
			{
				"x": 2.0344571233,
				"y": 0.6864339471,
				"z": 1.4697000089,
				"element": "H" 
			},
			{
				"x": 0.6964531961,
				"y": -0.1920089497,
				"z": -0.5882521932,
				"element": "H" 
			},
			{
				"x": 0.6523447409,
				"y": -2.585452028,
				"z": 0.4481159152,
				"element": "H" 
			},
			{
				"x": 2.3075663161,
				"y": -2.7342713836,
				"z": -0.0990944121,
				"element": "H" 
			},
			{
				"x": -0.0948903254,
				"y": -2.1394917938,
				"z": -1.9162523333,
				"element": "H" 
			},
			{
				"x": 1.5622427414,
				"y": -2.2864071343,
				"z": -2.456165463,
				"element": "H" 
			},
			{
				"x": 1.4150323399,
				"y": -4.7085276435,
				"z": -1.2832930911,
				"element": "H" 
			},
			{
				"x": 0.9071363758,
				"y": -4.4255858833,
				"z": -2.9340757413,
				"element": "H" 
			},
			{
				"x": -0.7496803831,
				"y": -5.7889641634,
				"z": -1.8929536742,
				"element": "H" 
			},
			{
				"x": -1.4528031167,
				"y": -4.2222890218,
				"z": -2.2481458983,
				"element": "H" 
			},
			{
				"x": -1.3122349091,
				"y": -3.5802355919,
				"z": 0.1535639825,
				"element": "H" 
			},
			{
				"x": -0.4103010425,
				"y": -5.0424839099,
				"z": 0.5150427467,
				"element": "H" 
			},
			{
				"x": -2.407825586,
				"y": -6.4301663382,
				"z": -0.1260683852,
				"element": "H" 
			},
			{
				"x": -2.6704462441,
				"y": -5.3738290742,
				"z": 1.2503984478,
				"element": "H" 
			},
			{
				"x": -3.8506530274,
				"y": -3.7250497722,
				"z": -0.2462031849,
				"element": "H" 
			},
			{
				"x": -3.5954467335,
				"y": -4.7918979693,
				"z": -1.6153492468,
				"element": "H" 
			},
			{
				"x": -5.8515241749,
				"y": -5.1222956084,
				"z": -0.8827191154,
				"element": "H" 
			},
			{
				"x": -4.9599235269,
				"y": -6.5792889579,
				"z": -0.4839432422,
				"element": "H" 
			},
			{
				"x": -4.8051654492,
				"y": -5.8317898209,
				"z": 1.9101140933,
				"element": "H" 
			},
			{
				"x": -5.6288947443,
				"y": -4.3380602148,
				"z": 1.499219169,
				"element": "H" 
			},
			{
				"x": -6.8454821383,
				"y": -7.1578940791,
				"z": 1.2356109185,
				"element": "H" 
			},
			{
				"x": -7.2256864705,
				"y": -5.9884121873,
				"z": 2.506628976,
				"element": "H" 
			},
			{
				"x": -7.6816088769,
				"y": -5.6546844403,
				"z": 0.830204945,
				"element": "H" 
			},
			{
				"x": 3.7129818573,
				"y": -0.4991845193,
				"z": -0.2711692527,
				"element": "H" 
			},
			{
				"x": 2.9301131768,
				"y": -0.7608490248,
				"z": -1.8170583026,
				"element": "H" 
			},
			{
				"x": 2.0296308122,
				"y": 1.5477379266,
				"z": -1.8186528906,
				"element": "H" 
			},
			{
				"x": 2.7018423594,
				"y": 1.8462688507,
				"z": -0.226718129,
				"element": "H" 
			},
			{
				"x": 5.0163546416,
				"y": 1.5322439701,
				"z": -1.1237152007,
				"element": "H" 
			},
			{
				"x": 4.1545343447,
				"y": 2.8862848231,
				"z": -1.8328399025,
				"element": "H" 
			},
			{
				"x": 4.578983641,
				"y": 0.1610088781,
				"z": -3.1730820021,
				"element": "H" 
			},
			{
				"x": 3.5657175877,
				"y": 1.4374653238,
				"z": -3.8238126703,
				"element": "H" 
			},
			{
				"x": 5.5559562817,
				"y": 2.9671853771,
				"z": -3.9310070281,
				"element": "H" 
			},
			{
				"x": 5.6977908039,
				"y": 1.5400006083,
				"z": -4.941928014,
				"element": "H" 
			},
			{
				"x": 7.0521817788,
				"y": 1.9110994853,
				"z": -2.2146042114,
				"element": "H" 
			},
			{
				"x": 7.1231089523,
				"y": 0.4443508429,
				"z": -3.1770624644,
				"element": "H" 
			},
			{
				"x": 8.0755636892,
				"y": 3.2043534551,
				"z": -4.1185674971,
				"element": "H" 
			},
			{
				"x": 8.2252704005,
				"y": 1.7185997794,
				"z": -5.0390505406,
				"element": "H" 
			},
			{
				"x": 9.5895517997,
				"y": 2.2661243059,
				"z": -2.3426473131,
				"element": "H" 
			},
			{
				"x": 10.3520311008,
				"y": 2.446427953,
				"z": -3.9123895829,
				"element": "H" 
			},
			{
				"x": 10.0034456215,
				"y": -0.0085643279,
				"z": -4.3569411513,
				"element": "H" 
			},
			{
				"x": 9.3120098004,
				"y": -0.1949644048,
				"z": -2.7551556008,
				"element": "H" 
			},
			{
				"x": 11.4827022597,
				"y": 0.5709006019,
				"z": -1.7155044749,
				"element": "H" 
			},
			{
				"x": 12.184859503,
				"y": 0.750133298,
				"z": -3.3273183639,
				"element": "H" 
			},
			{
				"x": 11.7224777052,
				"y": -0.8523740413,
				"z": -2.7375408237,
				"element": "H" 
			}
		],
		 "valence_orbital": [ 
			{
				"type": "occ",
				"energy": -0.29874,
				"method": "rhf"
			},
			{
				"type": "occ",
				"energy": -0.29659,
				"method": "rhf"
			},
			{
				"type": "occ",
				"energy": -0.29514,
				"method": "rhf"
			},
			{
				"type": "occ",
				"energy": -0.28568,
				"method": "rhf"
			},
			{
				"type": "occ",
				"energy": -0.28383,
				"method": "rhf"
			},
			{
				"type": "unocc",
				"energy": 0.0784,
				"method": "rhf"
			},
			{
				"type": "unocc",
				"energy": 0.08464,
				"method": "rhf"
			},
			{
				"type": "unocc",
				"energy": 0.08889,
				"method": "rhf"
			},
			{
				"type": "unocc",
				"energy": 0.09174,
				"method": "rhf"
			},
			{
				"type": "unocc",
				"energy": 0.09475,
				"method": "rhf"
			}
		],
		"cosmo_sigma_profile": { 
			"-0.025": 0.0,
			"-0.024": 0.0,
			"-0.023": 0.0,
			"-0.022": 0.0,
			"-0.021": 0.0,
			"-0.02": 0.0,
			"-0.019": 0.0,
			"-0.018": 0.0,
			"-0.017": 0.0,
			"-0.016": 0.0,
			"-0.015": 0.0,
			"-0.014": 0.0,
			"-0.013": 0.0,
			"-0.012": 0.0,
			"-0.011": 0.0,
			"-0.01": 0.0,
			"-0.009": 0.0,
			"-0.008": 0.0,
			"-0.007": 0.0,
			"-0.006": 0.0,
			"-0.005": 0.0,
			"-0.004": 0.0,
			"-0.003": 5.29818938443,
			"-0.002": 74.9594748939,
			"-0.001": 182.213826219,
			"0.0": 206.683203712,
			"0.001": 186.689602696,
			"0.002": 77.2578513977,
			"0.003": 2.146474718,
			"0.004": 0.0,
			"0.005": 0.0,
			"0.006": 0.0,
			"0.007": 0.0,
			"0.008": 0.0,
			"0.009": 0.0,
			"0.01": 0.0,
			"0.011": 0.0,
			"0.012": 0.0,
			"0.013": 0.0,
			"0.014": 0.0,
			"0.015": 0.0,
			"0.016": 0.0,
			"0.017": 0.0,
			"0.018": 0.0,
			"0.019": 0.0,
			"0.02": 0.0,
			"0.021": 0.0,
			"0.022": 0.0,
			"0.023": 0.0,
			"0.024": 0.0,
			"0.025": 0.0
		}
	}
}
