{
	 "smiles": "CC(=O)C1=CC2=CC(Cl)=CC(Cl)=C2OC1=O", 
	 "Tm": 446.15, 
	 "num_atms": 22, 
	 "gaussian": { 
		 "optdone": 1, 
		 "sigma_profile": "yes", 
		 "theory": "DFT", 
		 "functional": "B3LYP", 
		 "basiset": "6-31G**", 
		 "properties": { 
			 "R2extent": 5462.0885, 
			 "electric_dipole_moment_norm": 2.15319716236, 
			 "electric_quadrupole_moment_norm": 6.03686838601, 
			 "total_energy": -1568.84248074, 
			 "HOMO_LUMO_gap": 0.14861, 
			 "cosmo_polarized_energy": -11.97, 
			 "cosmo_cavitation_energy": 31.13, 
			 "cosmo_dispersion_energy": -23.01, 
			 "cosmo_repulsion_energy": 1.77, 
			 "cosmo_total_nonelectrostatic_energy": 9.89, 
			 "SMD_solvation_energy": 6.41 
		},
		"coords": [
			{
				"x": -2.1655429067,
				"y": 3.4590759595,
				"z": 1.3141155485,
				"element": "C" 
			},
			{
				"x": -0.7193159212,
				"y": 3.0303958982,
				"z": 1.2874018231,
				"element": "C" 
			},
			{
				"x": 0.1658486161,
				"y": 3.7488796076,
				"z": 1.726592704,
				"element": "O" 
			},
			{
				"x": -0.3320095052,
				"y": 1.6863060128,
				"z": 0.7092464235,
				"element": "C" 
			},
			{
				"x": 0.9887533428,
				"y": 1.3559238343,
				"z": 0.7130182402,
				"element": "C" 
			},
			{
				"x": 1.4689970424,
				"y": 0.1102645396,
				"z": 0.1914735841,
				"element": "C" 
			},
			{
				"x": 2.8301626229,
				"y": -0.2488929116,
				"z": 0.1866364977,
				"element": "C" 
			},
			{
				"x": 3.2046801544,
				"y": -1.4744084931,
				"z": -0.3380479288,
				"element": "C" 
			},
			{
				"x": 4.8928014526,
				"y": -1.9397379732,
				"z": -0.3530967961,
				"element": "Cl" 
			},
			{
				"x": 2.2531543562,
				"y": -2.3604938691,
				"z": -0.8629789859,
				"element": "C" 
			},
			{
				"x": 0.9069879842,
				"y": -2.0114244843,
				"z": -0.8611032332,
				"element": "C" 
			},
			{
				"x": -0.2774726799,
				"y": -3.1074383673,
				"z": -1.511360786,
				"element": "Cl" 
			},
			{
				"x": 0.5057780274,
				"y": -0.7733795124,
				"z": -0.333701253,
				"element": "C" 
			},
			{
				"x": -0.8081804849,
				"y": -0.4575360819,
				"z": -0.3432517535,
				"element": "O" 
			},
			{
				"x": -1.3200678155,
				"y": 0.7514025344,
				"z": 0.1572422732,
				"element": "C" 
			},
			{
				"x": -2.5149167121,
				"y": 0.8991029514,
				"z": 0.0834111106,
				"element": "O" 
			},
			{
				"x": -2.5858131069,
				"y": 3.4737995835,
				"z": 0.3042606191,
				"element": "H" 
			},
			{
				"x": -2.2212467373,
				"y": 4.4494238833,
				"z": 1.7672880548,
				"element": "H" 
			},
			{
				"x": -2.7730514709,
				"y": 2.7439502284,
				"z": 1.8764499771,
				"element": "H" 
			},
			{
				"x": 1.6869697873,
				"y": 2.0767675587,
				"z": 1.1309252645,
				"element": "H" 
			},
			{
				"x": 3.5701509382,
				"y": 0.4323917127,
				"z": 0.5912272566,
				"element": "H" 
			},
			{
				"x": 2.5602330162,
				"y": -3.3160726115,
				"z": -1.2703486404,
				"element": "H" 
			}
		],
		 "valence_orbital": [ 
			{
				"type": "occ",
				"energy": -0.31447,
				"method": "rhf"
			},
			{
				"type": "occ",
				"energy": -0.29821,
				"method": "rhf"
			},
			{
				"type": "occ",
				"energy": -0.27269,
				"method": "rhf"
			},
			{
				"type": "occ",
				"energy": -0.26694,
				"method": "rhf"
			},
			{
				"type": "occ",
				"energy": -0.25734,
				"method": "rhf"
			},
			{
				"type": "unocc",
				"energy": -0.10873,
				"method": "rhf"
			},
			{
				"type": "unocc",
				"energy": -0.04552,
				"method": "rhf"
			},
			{
				"type": "unocc",
				"energy": -0.02591,
				"method": "rhf"
			},
			{
				"type": "unocc",
				"energy": -0.01748,
				"method": "rhf"
			},
			{
				"type": "unocc",
				"energy": -0.00973,
				"method": "rhf"
			}
		],
		"cosmo_sigma_profile": { 
			"-0.025": 0.0,
			"-0.024": 0.0,
			"-0.023": 0.0,
			"-0.022": 0.0,
			"-0.021": 0.0,
			"-0.02": 0.0,
			"-0.019": 0.0,
			"-0.018": 0.0,
			"-0.017": 0.0,
			"-0.016": 0.0,
			"-0.015": 0.0,
			"-0.014": 0.0,
			"-0.013": 0.0,
			"-0.012": 0.0,
			"-0.011": 0.719374439972,
			"-0.01": 2.76232147389,
			"-0.009": 4.19293618177,
			"-0.008": 4.14059447322,
			"-0.007": 5.65051666713,
			"-0.006": 10.2190431799,
			"-0.005": 14.7587790386,
			"-0.004": 14.7991991103,
			"-0.003": 22.5593151076,
			"-0.002": 26.3737495798,
			"-0.001": 30.2304136319,
			"0.0": 19.3272067303,
			"0.001": 12.7007408845,
			"0.002": 14.3827301442,
			"0.003": 20.4449546753,
			"0.004": 14.0699164464,
			"0.005": 4.91813135185,
			"0.006": 3.98246377697,
			"0.007": 4.3219169294,
			"0.008": 4.45675232243,
			"0.009": 4.60629206552,
			"0.01": 5.32143870624,
			"0.011": 6.97991733219,
			"0.012": 3.28126161827,
			"0.013": 0.471380624489,
			"0.014": 0.0,
			"0.015": 0.0,
			"0.016": 0.0,
			"0.017": 0.0,
			"0.018": 0.0,
			"0.019": 0.0,
			"0.02": 0.0,
			"0.021": 0.0,
			"0.022": 0.0,
			"0.023": 0.0,
			"0.024": 0.0,
			"0.025": 0.0
		}
	}
}
