{
	 "smiles": "CC1=CC2(C)C3C(C1C1C2C(=O)OC1=O)C(=O)OC3=O", 
	 "Tm": 542.15, 
	 "num_atms": 32, 
	 "gaussian": { 
		 "optdone": 1, 
		 "sigma_profile": "yes", 
		 "theory": "DFT", 
		 "functional": "B3LYP", 
		 "basiset": "6-31G**", 
		 "properties": { 
			 "R2extent": 4462.5217, 
			 "electric_dipole_moment_norm": 4.70041621668, 
			 "electric_quadrupole_moment_norm": 16.0111120613, 
			 "total_energy": -992.08832797, 
			 "HOMO_LUMO_gap": 0.22173, 
			 "cosmo_polarized_energy": -20.37, 
			 "cosmo_cavitation_energy": 33.8, 
			 "cosmo_dispersion_energy": -23.78, 
			 "cosmo_repulsion_energy": 1.77, 
			 "cosmo_total_nonelectrostatic_energy": 11.79, 
			 "SMD_solvation_energy": 8.91 
		},
		"coords": [
			{
				"x": 0.3932660494,
				"y": -3.0637005185,
				"z": -0.2879621759,
				"element": "C" 
			},
			{
				"x": -0.09304033,
				"y": -1.7609075976,
				"z": 0.2726494729,
				"element": "C" 
			},
			{
				"x": -1.1641536573,
				"y": -1.5792578026,
				"z": 1.0601993001,
				"element": "C" 
			},
			{
				"x": -1.4763930993,
				"y": -0.1510675881,
				"z": 1.4855455825,
				"element": "C" 
			},
			{
				"x": -2.6970852244,
				"y": -0.0527497408,
				"z": 2.4040774745,
				"element": "C" 
			},
			{
				"x": -0.1718293664,
				"y": 0.3797670864,
				"z": 2.1945767992,
				"element": "C" 
			},
			{
				"x": 1.0665818255,
				"y": 0.1599353349,
				"z": 1.3064350887,
				"element": "C" 
			},
			{
				"x": 0.6368381673,
				"y": -0.4653625644,
				"z": -0.0504483988,
				"element": "C" 
			},
			{
				"x": -0.378691328,
				"y": 0.5001911658,
				"z": -0.7255183038,
				"element": "C" 
			},
			{
				"x": -1.6234068693,
				"y": 0.691197001,
				"z": 0.1654920308,
				"element": "C" 
			},
			{
				"x": -2.7814224275,
				"y": 0.2355867045,
				"z": -0.7168754553,
				"element": "C" 
			},
			{
				"x": -3.9535758934,
				"y": 0.2156368392,
				"z": -0.4734528302,
				"element": "O" 
			},
			{
				"x": -2.299182934,
				"y": -0.1827069055,
				"z": -1.9517813974,
				"element": "O" 
			},
			{
				"x": -0.9188618382,
				"y": -0.1028716824,
				"z": -2.014577935,
				"element": "C" 
			},
			{
				"x": -0.30505094,
				"y": -0.4881177149,
				"z": -2.968332359,
				"element": "O" 
			},
			{
				"x": 1.6854340827,
				"y": 1.540565818,
				"z": 1.1519066802,
				"element": "C" 
			},
			{
				"x": 2.6595522929,
				"y": 1.8594299663,
				"z": 0.5333494224,
				"element": "O" 
			},
			{
				"x": 0.9214323326,
				"y": 2.4746826025,
				"z": 1.8413557186,
				"element": "O" 
			},
			{
				"x": -0.1679413698,
				"y": 1.8794138332,
				"z": 2.4724162374,
				"element": "C" 
			},
			{
				"x": -0.9401519054,
				"y": 2.5345052677,
				"z": 3.1126563056,
				"element": "O" 
			},
			{
				"x": 1.424087929,
				"y": -3.2694640078,
				"z": 0.0276646628,
				"element": "H" 
			},
			{
				"x": -0.2367171011,
				"y": -3.8973397228,
				"z": 0.0331672201,
				"element": "H" 
			},
			{
				"x": 0.3997107128,
				"y": -3.0348506021,
				"z": -1.3842910809,
				"element": "H" 
			},
			{
				"x": -1.8087481812,
				"y": -2.3916704622,
				"z": 1.3853904785,
				"element": "H" 
			},
			{
				"x": -3.595456759,
				"y": -0.4001805202,
				"z": 1.8904699756,
				"element": "H" 
			},
			{
				"x": -2.862270701,
				"y": 0.974456583,
				"z": 2.7354118385,
				"element": "H" 
			},
			{
				"x": -2.5425614813,
				"y": -0.6731324053,
				"z": 3.2934834883,
				"element": "H" 
			},
			{
				"x": -0.091692325,
				"y": -0.1312954799,
				"z": 3.1585004333,
				"element": "H" 
			},
			{
				"x": 1.8124620923,
				"y": -0.4904554344,
				"z": 1.7721154989,
				"element": "H" 
			},
			{
				"x": 1.5007714501,
				"y": -0.611634581,
				"z": -0.7014642478,
				"element": "H" 
			},
			{
				"x": 0.1129306465,
				"y": 1.444762109,
				"z": -0.9827697182,
				"element": "H" 
			},
			{
				"x": -1.8112338495,
				"y": 1.7395350186,
				"z": 0.4226101933,
				"element": "H" 
			}
		],
		 "valence_orbital": [ 
			{
				"type": "occ",
				"energy": -0.32246,
				"method": "rhf"
			},
			{
				"type": "occ",
				"energy": -0.31579,
				"method": "rhf"
			},
			{
				"type": "occ",
				"energy": -0.29429,
				"method": "rhf"
			},
			{
				"type": "occ",
				"energy": -0.28978,
				"method": "rhf"
			},
			{
				"type": "occ",
				"energy": -0.27601,
				"method": "rhf"
			},
			{
				"type": "unocc",
				"energy": -0.05428,
				"method": "rhf"
			},
			{
				"type": "unocc",
				"energy": -0.03732,
				"method": "rhf"
			},
			{
				"type": "unocc",
				"energy": -0.03565,
				"method": "rhf"
			},
			{
				"type": "unocc",
				"energy": -0.0167,
				"method": "rhf"
			},
			{
				"type": "unocc",
				"energy": -0.01025,
				"method": "rhf"
			}
		],
		"cosmo_sigma_profile": { 
			"-0.025": 0.0,
			"-0.024": 0.0,
			"-0.023": 0.0,
			"-0.022": 0.0,
			"-0.021": 0.0,
			"-0.02": 0.0,
			"-0.019": 0.0,
			"-0.018": 0.0,
			"-0.017": 0.0,
			"-0.016": 0.0,
			"-0.015": 0.0,
			"-0.014": 0.0,
			"-0.013": 0.305574673775,
			"-0.012": 1.85060235164,
			"-0.011": 2.92749394089,
			"-0.01": 7.35014526405,
			"-0.009": 10.6811738834,
			"-0.008": 8.84709081147,
			"-0.007": 8.72610939607,
			"-0.006": 10.7193696188,
			"-0.005": 13.8836407921,
			"-0.004": 17.6177645282,
			"-0.003": 18.3166306282,
			"-0.002": 21.1071158542,
			"-0.001": 19.4391010093,
			"0.0": 17.1044733001,
			"0.001": 8.88616950004,
			"0.002": 8.82601384618,
			"0.003": 7.79292805183,
			"0.004": 7.00784633139,
			"0.005": 8.51717247496,
			"0.006": 11.7846392435,
			"0.007": 11.4357258577,
			"0.008": 10.278907795,
			"0.009": 15.1360377827,
			"0.01": 16.000575727,
			"0.011": 2.76684360263,
			"0.012": 0.0,
			"0.013": 0.0,
			"0.014": 0.0,
			"0.015": 0.0,
			"0.016": 0.0,
			"0.017": 0.0,
			"0.018": 0.0,
			"0.019": 0.0,
			"0.02": 0.0,
			"0.021": 0.0,
			"0.022": 0.0,
			"0.023": 0.0,
			"0.024": 0.0,
			"0.025": 0.0
		}
	}
}
