{
	 "smiles": "ClC1=C2OCC(=O)NC2=CC=C1", 
	 "Tm": 475.15, 
	 "num_atms": 18, 
	 "gaussian": { 
		 "optdone": 1, 
		 "sigma_profile": "yes", 
		 "theory": "DFT", 
		 "functional": "B3LYP", 
		 "basiset": "6-31G**", 
		 "properties": { 
			 "R2extent": 3201.9107, 
			 "electric_dipole_moment_norm": 2.94933895136, 
			 "electric_quadrupole_moment_norm": 15.2697052129, 
			 "total_energy": -973.860325706, 
			 "HOMO_LUMO_gap": 0.20017, 
			 "cosmo_polarized_energy": -12.51, 
			 "cosmo_cavitation_energy": 24.01, 
			 "cosmo_dispersion_energy": -18.32, 
			 "cosmo_repulsion_energy": 1.46, 
			 "cosmo_total_nonelectrostatic_energy": 7.14, 
			 "SMD_solvation_energy": 4.71 
		},
		"coords": [
			{
				"x": 1.3789262721,
				"y": -0.3421034832,
				"z": 3.7224363822,
				"element": "Cl" 
			},
			{
				"x": 1.9300613929,
				"y": 0.5984929097,
				"z": 2.355530359,
				"element": "C" 
			},
			{
				"x": 1.1970245431,
				"y": 0.5669531993,
				"z": 1.1662008529,
				"element": "C" 
			},
			{
				"x": 0.0378810397,
				"y": -0.1472651322,
				"z": 1.0866691326,
				"element": "O" 
			},
			{
				"x": -0.2861140043,
				"y": -0.6487730938,
				"z": -0.21276694,
				"element": "C" 
			},
			{
				"x": -0.1305875971,
				"y": 0.3786637006,
				"z": -1.3301120859,
				"element": "C" 
			},
			{
				"x": -0.7854301052,
				"y": 0.3411475297,
				"z": -2.3567606314,
				"element": "O" 
			},
			{
				"x": 0.8508160682,
				"y": 1.3084571826,
				"z": -1.0910557093,
				"element": "N" 
			},
			{
				"x": 1.6384276276,
				"y": 1.3317214079,
				"z": 0.0718439973,
				"element": "C" 
			},
			{
				"x": 2.797593855,
				"y": 2.1020505801,
				"z": 0.1703661069,
				"element": "C" 
			},
			{
				"x": 3.5129178978,
				"y": 2.12527555,
				"z": 1.3676238521,
				"element": "C" 
			},
			{
				"x": 3.0831605725,
				"y": 1.3786646272,
				"z": 2.4633970159,
				"element": "C" 
			},
			{
				"x": -1.3277693414,
				"y": -0.9664311019,
				"z": -0.1763451106,
				"element": "H" 
			},
			{
				"x": 0.3407177924,
				"y": -1.5212924716,
				"z": -0.4516575852,
				"element": "H" 
			},
			{
				"x": 1.0333612102,
				"y": 1.968874174,
				"z": -1.8358299832,
				"element": "H" 
			},
			{
				"x": 3.1284331518,
				"y": 2.6836599398,
				"z": -0.6853529326,
				"element": "H" 
			},
			{
				"x": 4.411725373,
				"y": 2.7278768801,
				"z": 1.446392484,
				"element": "H" 
			},
			{
				"x": 3.6331542516,
				"y": 1.3856276015,
				"z": 3.3972207953,
				"element": "H" 
			}
		],
		 "valence_orbital": [ 
			{
				"type": "occ",
				"energy": -0.31467,
				"method": "rhf"
			},
			{
				"type": "occ",
				"energy": -0.31122,
				"method": "rhf"
			},
			{
				"type": "occ",
				"energy": -0.26991,
				"method": "rhf"
			},
			{
				"type": "occ",
				"energy": -0.24456,
				"method": "rhf"
			},
			{
				"type": "occ",
				"energy": -0.22866,
				"method": "rhf"
			},
			{
				"type": "unocc",
				"energy": -0.02849,
				"method": "rhf"
			},
			{
				"type": "unocc",
				"energy": -0.01694,
				"method": "rhf"
			},
			{
				"type": "unocc",
				"energy": 0.02045,
				"method": "rhf"
			},
			{
				"type": "unocc",
				"energy": 0.02437,
				"method": "rhf"
			},
			{
				"type": "unocc",
				"energy": 0.07162,
				"method": "rhf"
			}
		],
		"cosmo_sigma_profile": { 
			"-0.025": 0.0,
			"-0.024": 0.0,
			"-0.023": 0.0,
			"-0.022": 0.0,
			"-0.021": 0.0,
			"-0.02": 0.0,
			"-0.019": 0.0,
			"-0.018": 0.0,
			"-0.017": 0.0,
			"-0.016": 0.413265326918,
			"-0.015": 1.63950740036,
			"-0.014": 1.21314096877,
			"-0.013": 0.994658801013,
			"-0.012": 1.58331903602,
			"-0.011": 1.25350008415,
			"-0.01": 0.630358083849,
			"-0.009": 1.84015171183,
			"-0.008": 7.41590531062,
			"-0.007": 9.37080944775,
			"-0.006": 10.2940767161,
			"-0.005": 12.0231799829,
			"-0.004": 8.88258132498,
			"-0.003": 8.2022374732,
			"-0.002": 9.47178112703,
			"-0.001": 11.0529002904,
			"0.0": 11.6699822161,
			"0.001": 15.1774445505,
			"0.002": 16.7575205026,
			"0.003": 14.6473117582,
			"0.004": 15.7426166157,
			"0.005": 8.46051387381,
			"0.006": 3.59737190935,
			"0.007": 2.66359038481,
			"0.008": 2.64944322447,
			"0.009": 3.47632502306,
			"0.01": 2.1670836729,
			"0.011": 2.09327137213,
			"0.012": 5.41496760289,
			"0.013": 3.60294842216,
			"0.014": 0.340276634427,
			"0.015": 0.0,
			"0.016": 0.0,
			"0.017": 0.0,
			"0.018": 0.0,
			"0.019": 0.0,
			"0.02": 0.0,
			"0.021": 0.0,
			"0.022": 0.0,
			"0.023": 0.0,
			"0.024": 0.0,
			"0.025": 0.0
		}
	}
}
