{
	 "smiles": "CN1CCN(CCOC2=CC=C(N)C=C2)CC1", 
	 "Tm": 337.15, 
	 "num_atms": 38, 
	 "gaussian": { 
		 "optdone": 1, 
		 "sigma_profile": "yes", 
		 "theory": "DFT", 
		 "functional": "B3LYP", 
		 "basiset": "6-31G**", 
		 "properties": { 
			 "R2extent": 6378.8397, 
			 "electric_dipole_moment_norm": 1.79495209128, 
			 "electric_quadrupole_moment_norm": 15.9508488273, 
			 "total_energy": -747.477269733, 
			 "HOMO_LUMO_gap": 0.18718, 
			 "cosmo_polarized_energy": -14.08, 
			 "cosmo_cavitation_energy": 38.58, 
			 "cosmo_dispersion_energy": -27.34, 
			 "cosmo_repulsion_energy": 2.13, 
			 "cosmo_total_nonelectrostatic_energy": 13.37, 
			 "SMD_solvation_energy": 2.67 
		},
		"coords": [
			{
				"x": 1.7746598064,
				"y": -2.6578797126,
				"z": -1.9188490286,
				"element": "C" 
			},
			{
				"x": 3.12444187,
				"y": -2.0940570975,
				"z": -1.9621850556,
				"element": "N" 
			},
			{
				"x": 3.5786118615,
				"y": -1.5811060407,
				"z": -0.6769593828,
				"element": "C" 
			},
			{
				"x": 2.7778354613,
				"y": -0.3437461783,
				"z": -0.1868437039,
				"element": "C" 
			},
			{
				"x": 2.2264279248,
				"y": 0.3851571238,
				"z": -1.3316082281,
				"element": "N" 
			},
			{
				"x": 1.7177428959,
				"y": 1.7044150179,
				"z": -0.9989086085,
				"element": "C" 
			},
			{
				"x": 0.5445674691,
				"y": 1.6940009448,
				"z": -0.0246840152,
				"element": "C" 
			},
			{
				"x": -0.5284570247,
				"y": 0.9746657902,
				"z": -0.6092512845,
				"element": "O" 
			},
			{
				"x": -1.6983045647,
				"y": 0.8659305079,
				"z": 0.0992407583,
				"element": "C" 
			},
			{
				"x": -2.7216663157,
				"y": 0.1325262259,
				"z": -0.51666882,
				"element": "C" 
			},
			{
				"x": -3.9475475046,
				"y": -0.0393257609,
				"z": 0.112206068,
				"element": "C" 
			},
			{
				"x": -4.1938346154,
				"y": 0.5136645961,
				"z": 1.3820505363,
				"element": "C" 
			},
			{
				"x": -5.4565343885,
				"y": 0.3892623672,
				"z": 1.9876086346,
				"element": "N" 
			},
			{
				"x": -3.1657482124,
				"y": 1.2431921222,
				"z": 1.9900145421,
				"element": "C" 
			},
			{
				"x": -1.9299826679,
				"y": 1.4221867012,
				"z": 1.3606291512,
				"element": "C" 
			},
			{
				"x": 3.1470328053,
				"y": 0.3816219044,
				"z": -2.4623698465,
				"element": "C" 
			},
			{
				"x": 3.311169101,
				"y": -1.0667507151,
				"z": -2.996846657,
				"element": "C" 
			},
			{
				"x": 0.9845320142,
				"y": -1.9229879721,
				"z": -1.7017484665,
				"element": "H" 
			},
			{
				"x": 1.5519467171,
				"y": -3.129400009,
				"z": -2.8821161905,
				"element": "H" 
			},
			{
				"x": 1.7431018379,
				"y": -3.4438553181,
				"z": -1.1554725712,
				"element": "H" 
			},
			{
				"x": 3.5281301514,
				"y": -2.376951156,
				"z": 0.0740987075,
				"element": "H" 
			},
			{
				"x": 4.6382117718,
				"y": -1.3156117698,
				"z": -0.7820091952,
				"element": "H" 
			},
			{
				"x": 3.4407751401,
				"y": 0.2963811392,
				"z": 0.4317785172,
				"element": "H" 
			},
			{
				"x": 1.9495812789,
				"y": -0.6617385642,
				"z": 0.4559676106,
				"element": "H" 
			},
			{
				"x": 2.4980683685,
				"y": 2.3604792538,
				"z": -0.5573797913,
				"element": "H" 
			},
			{
				"x": 1.3831948544,
				"y": 2.1830105946,
				"z": -1.9261972705,
				"element": "H" 
			},
			{
				"x": 0.250002028,
				"y": 2.7353336884,
				"z": 0.1755954343,
				"element": "H" 
			},
			{
				"x": 0.8284297546,
				"y": 1.2439527519,
				"z": 0.9371380543,
				"element": "H" 
			},
			{
				"x": -2.5324475804,
				"y": -0.298515035,
				"z": -1.494615105,
				"element": "H" 
			},
			{
				"x": -4.7301516553,
				"y": -0.6066526552,
				"z": -0.3861271873,
				"element": "H" 
			},
			{
				"x": -5.9666403927,
				"y": -0.4381890843,
				"z": 1.7065401696,
				"element": "H" 
			},
			{
				"x": -5.4379349203,
				"y": 0.4685917224,
				"z": 2.9961586636,
				"element": "H" 
			},
			{
				"x": -3.3295664611,
				"y": 1.6860988572,
				"z": 2.9696891984,
				"element": "H" 
			},
			{
				"x": -1.1628602352,
				"y": 1.99456474,
				"z": 1.8689930792,
				"element": "H" 
			},
			{
				"x": 2.7403175622,
				"y": 1.0244849152,
				"z": -3.250333202,
				"element": "H" 
			},
			{
				"x": 4.1358499942,
				"y": 0.8065895109,
				"z": -2.1937402242,
				"element": "H" 
			},
			{
				"x": 4.3130976946,
				"y": -1.169917035,
				"z": -3.4385998274,
				"element": "H" 
			},
			{
				"x": 2.5870481757,
				"y": -1.2519263715,
				"z": -3.7954954634,
				"element": "H" 
			}
		],
		 "valence_orbital": [ 
			{
				"type": "occ",
				"energy": -0.27012,
				"method": "rhf"
			},
			{
				"type": "occ",
				"energy": -0.24167,
				"method": "rhf"
			},
			{
				"type": "occ",
				"energy": -0.20856,
				"method": "rhf"
			},
			{
				"type": "occ",
				"energy": -0.19176,
				"method": "rhf"
			},
			{
				"type": "occ",
				"energy": -0.18082,
				"method": "rhf"
			},
			{
				"type": "unocc",
				"energy": 0.00636,
				"method": "rhf"
			},
			{
				"type": "unocc",
				"energy": 0.03515,
				"method": "rhf"
			},
			{
				"type": "unocc",
				"energy": 0.07817,
				"method": "rhf"
			},
			{
				"type": "unocc",
				"energy": 0.08606,
				"method": "rhf"
			},
			{
				"type": "unocc",
				"energy": 0.1002,
				"method": "rhf"
			}
		],
		"cosmo_sigma_profile": { 
			"-0.025": 0.0,
			"-0.024": 0.0,
			"-0.023": 0.0,
			"-0.022": 0.0,
			"-0.021": 0.0,
			"-0.02": 0.0,
			"-0.019": 0.0,
			"-0.018": 0.0,
			"-0.017": 0.0,
			"-0.016": 0.0,
			"-0.015": 0.0,
			"-0.014": 0.0,
			"-0.013": 0.0,
			"-0.012": 1.23887069779,
			"-0.011": 2.84315305354,
			"-0.01": 2.63653609986,
			"-0.009": 3.16739551687,
			"-0.008": 2.99735104295,
			"-0.007": 3.18307833494,
			"-0.006": 5.46328389135,
			"-0.005": 12.0205228054,
			"-0.004": 24.5536939783,
			"-0.003": 38.102597608,
			"-0.002": 39.2082817344,
			"-0.001": 36.9898669598,
			"0.0": 25.8374772426,
			"0.001": 14.7390225798,
			"0.002": 9.45646492846,
			"0.003": 9.1960076248,
			"0.004": 9.75468623032,
			"0.005": 12.3515645634,
			"0.006": 13.4551196704,
			"0.007": 11.0014355178,
			"0.008": 2.43443390381,
			"0.009": 4.61223808021,
			"0.01": 3.53225410325,
			"0.011": 2.05829633747,
			"0.012": 2.22153967643,
			"0.013": 2.67208008015,
			"0.014": 1.69192343641,
			"0.015": 1.32826037032,
			"0.016": 0.90245517523,
			"0.017": 0.36990302761,
			"0.018": 0.0837797973764,
			"0.019": 0.0,
			"0.02": 0.0,
			"0.021": 0.0,
			"0.022": 0.0,
			"0.023": 0.0,
			"0.024": 0.0,
			"0.025": 0.0
		}
	}
}
