{
	 "smiles": "CC(=O)OC1CC2(OC(C)=O)C3OC(C)(C)OC4CC5C(C)(C)CCC(OC(C)=O)C5(C)C1C34C(=O)C2=C", 
	 "Tm": 494.15, 
	 "num_atms": 78, 
	 "gaussian": { 
		 "optdone": 1, 
		 "sigma_profile": "yes", 
		 "theory": "DFT", 
		 "functional": "B3LYP", 
		 "basiset": "6-31G**", 
		 "properties": { 
			 "R2extent": 16562.8256, 
			 "electric_dipole_moment_norm": 2.40697291011, 
			 "electric_quadrupole_moment_norm": 38.5306921727, 
			 "total_energy": -1806.21581013, 
			 "HOMO_LUMO_gap": 0.17905, 
			 "cosmo_polarized_energy": -23.52, 
			 "cosmo_cavitation_energy": 67.94, 
			 "cosmo_dispersion_energy": -41.68, 
			 "cosmo_repulsion_energy": 3.06, 
			 "cosmo_total_nonelectrostatic_energy": 29.32, 
			 "SMD_solvation_energy": 14.69 
		},
		"coords": [
			{
				"x": 3.0412699979,
				"y": -2.4482382155,
				"z": 2.2763900596,
				"element": "C" 
			},
			{
				"x": 3.0895820454,
				"y": -1.8712061106,
				"z": 0.8856892001,
				"element": "C" 
			},
			{
				"x": 4.0172716826,
				"y": -1.9628337512,
				"z": 0.1122370714,
				"element": "O" 
			},
			{
				"x": 1.9196289628,
				"y": -1.2464698912,
				"z": 0.5805003133,
				"element": "O" 
			},
			{
				"x": 1.7647353927,
				"y": -0.7829029991,
				"z": -0.7843194076,
				"element": "C" 
			},
			{
				"x": 1.499922507,
				"y": -1.9939159424,
				"z": -1.700821329,
				"element": "C" 
			},
			{
				"x": 0.0300762297,
				"y": -2.513212787,
				"z": -1.667527699,
				"element": "C" 
			},
			{
				"x": -0.0276031757,
				"y": -3.9456500166,
				"z": -1.8197089757,
				"element": "O" 
			},
			{
				"x": 0.4077991604,
				"y": -4.7458055977,
				"z": -0.8187496299,
				"element": "C" 
			},
			{
				"x": 0.1765193901,
				"y": -6.1961128832,
				"z": -1.1682408911,
				"element": "C" 
			},
			{
				"x": 0.9083268424,
				"y": -4.3468119088,
				"z": 0.2119789972,
				"element": "O" 
			},
			{
				"x": -0.7140584532,
				"y": -1.9403570886,
				"z": -0.4390847559,
				"element": "C" 
			},
			{
				"x": -2.0350861814,
				"y": -2.4842009146,
				"z": -0.4623064835,
				"element": "O" 
			},
			{
				"x": -3.04054136,
				"y": -1.7920037239,
				"z": 0.2976482974,
				"element": "C" 
			},
			{
				"x": -4.3699295087,
				"y": -2.3403923402,
				"z": -0.2030025612,
				"element": "C" 
			},
			{
				"x": -2.8480254663,
				"y": -2.0481179205,
				"z": 1.8002705325,
				"element": "C" 
			},
			{
				"x": -3.0600985101,
				"y": -0.4004222655,
				"z": -0.0118002309,
				"element": "O" 
			},
			{
				"x": -1.7898276476,
				"y": 0.2400061089,
				"z": 0.1238433991,
				"element": "C" 
			},
			{
				"x": -1.9132799878,
				"y": 1.7352619133,
				"z": -0.1373158477,
				"element": "C" 
			},
			{
				"x": -0.5308372592,
				"y": 2.4815365965,
				"z": -0.1608281838,
				"element": "C" 
			},
			{
				"x": -0.4482388598,
				"y": 3.5124208526,
				"z": -1.3637165728,
				"element": "C" 
			},
			{
				"x": -0.7408639829,
				"y": 2.9499609957,
				"z": -2.7719299462,
				"element": "C" 
			},
			{
				"x": -1.4924435987,
				"y": 4.618425151,
				"z": -1.0897625794,
				"element": "C" 
			},
			{
				"x": 0.9485681338,
				"y": 4.1725462322,
				"z": -1.3949687231,
				"element": "C" 
			},
			{
				"x": 2.078565211,
				"y": 3.143663073,
				"z": -1.4377525557,
				"element": "C" 
			},
			{
				"x": 2.0493415791,
				"y": 2.2835300798,
				"z": -0.1792604506,
				"element": "C" 
			},
			{
				"x": 2.2632413171,
				"y": 3.1845242115,
				"z": 0.9521664052,
				"element": "O" 
			},
			{
				"x": 3.5428227114,
				"y": 3.3993390858,
				"z": 1.3408274837,
				"element": "C" 
			},
			{
				"x": 3.5897191937,
				"y": 4.3609593211,
				"z": 2.505734468,
				"element": "C" 
			},
			{
				"x": 4.508663487,
				"y": 2.8860846006,
				"z": 0.8189872012,
				"element": "O" 
			},
			{
				"x": 0.7134920171,
				"y": 1.5208262328,
				"z": 0.0902492111,
				"element": "C" 
			},
			{
				"x": 0.7713064069,
				"y": 1.1163370551,
				"z": 1.5993024769,
				"element": "C" 
			},
			{
				"x": 0.6246713278,
				"y": 0.2642673613,
				"z": -0.8591385531,
				"element": "C" 
			},
			{
				"x": -0.7928857544,
				"y": -0.4429896991,
				"z": -0.8154212766,
				"element": "C" 
			},
			{
				"x": -1.311345962,
				"y": -0.5961831112,
				"z": -2.2758923776,
				"element": "C" 
			},
			{
				"x": -2.0206809047,
				"y": 0.1640539011,
				"z": -2.9024334681,
				"element": "O" 
			},
			{
				"x": -0.7639945273,
				"y": -1.8891762548,
				"z": -2.7968350131,
				"element": "C" 
			},
			{
				"x": -0.9897396572,
				"y": -2.3549759785,
				"z": -4.0246178055,
				"element": "C" 
			},
			{
				"x": 4.0488758338,
				"y": -2.7164399733,
				"z": 2.5934458538,
				"element": "H" 
			},
			{
				"x": 2.5915262133,
				"y": -1.74448667,
				"z": 2.9809262302,
				"element": "H" 
			},
			{
				"x": 2.4145981144,
				"y": -3.3457498568,
				"z": 2.2473485103,
				"element": "H" 
			},
			{
				"x": 2.7161420959,
				"y": -0.3382037795,
				"z": -1.0848891321,
				"element": "H" 
			},
			{
				"x": 1.7546875302,
				"y": -1.7221285481,
				"z": -2.7298344782,
				"element": "H" 
			},
			{
				"x": 2.1830139335,
				"y": -2.7894948495,
				"z": -1.4057082803,
				"element": "H" 
			},
			{
				"x": 0.6187319898,
				"y": -6.4284333161,
				"z": -2.1409370056,
				"element": "H" 
			},
			{
				"x": -0.8982736072,
				"y": -6.3874471435,
				"z": -1.2432905761,
				"element": "H" 
			},
			{
				"x": 0.6117273784,
				"y": -6.8292394916,
				"z": -0.39577311,
				"element": "H" 
			},
			{
				"x": -0.2081308401,
				"y": -2.1429986943,
				"z": 0.5029556575,
				"element": "H" 
			},
			{
				"x": -5.1952721702,
				"y": -1.8612539769,
				"z": 0.3292455811,
				"element": "H" 
			},
			{
				"x": -4.4177145255,
				"y": -3.42031225,
				"z": -0.0441181471,
				"element": "H" 
			},
			{
				"x": -4.4650772009,
				"y": -2.1292917114,
				"z": -1.2698722191,
				"element": "H" 
			},
			{
				"x": -1.8703535577,
				"y": -1.7235189975,
				"z": 2.163830949,
				"element": "H" 
			},
			{
				"x": -2.9358834376,
				"y": -3.1187931821,
				"z": 2.0014638996,
				"element": "H" 
			},
			{
				"x": -3.617044127,
				"y": -1.5166380238,
				"z": 2.3673241336,
				"element": "H" 
			},
			{
				"x": -1.4530203805,
				"y": 0.0918137925,
				"z": 1.1512028382,
				"element": "H" 
			},
			{
				"x": -2.5637595156,
				"y": 2.1670137412,
				"z": 0.629597805,
				"element": "H" 
			},
			{
				"x": -2.4325106801,
				"y": 1.8493016079,
				"z": -1.0891978578,
				"element": "H" 
			},
			{
				"x": -0.5094898282,
				"y": 3.1337373795,
				"z": 0.7190972497,
				"element": "H" 
			},
			{
				"x": -0.6992670487,
				"y": 3.7737970424,
				"z": -3.4938781704,
				"element": "H" 
			},
			{
				"x": -0.0139985636,
				"y": 2.2033769327,
				"z": -3.1016284843,
				"element": "H" 
			},
			{
				"x": -1.7237177634,
				"y": 2.4880426,
				"z": -2.8543822853,
				"element": "H" 
			},
			{
				"x": -1.3239215962,
				"y": 5.09399917,
				"z": -0.116632041,
				"element": "H" 
			},
			{
				"x": -2.5147197496,
				"y": 4.2276440394,
				"z": -1.1029127771,
				"element": "H" 
			},
			{
				"x": -1.4308167727,
				"y": 5.3984906059,
				"z": -1.8569438021,
				"element": "H" 
			},
			{
				"x": 1.0095785135,
				"y": 4.8417461303,
				"z": -2.2615137689,
				"element": "H" 
			},
			{
				"x": 1.0812098331,
				"y": 4.7993171748,
				"z": -0.505502788,
				"element": "H" 
			},
			{
				"x": 1.9998358898,
				"y": 2.5054581861,
				"z": -2.325183614,
				"element": "H" 
			},
			{
				"x": 3.0578735375,
				"y": 3.6295350511,
				"z": -1.4981188817,
				"element": "H" 
			},
			{
				"x": 2.8851583484,
				"y": 1.5807313342,
				"z": -0.1767313638,
				"element": "H" 
			},
			{
				"x": 2.9857627195,
				"y": 3.9802167447,
				"z": 3.334455006,
				"element": "H" 
			},
			{
				"x": 3.1667085884,
				"y": 5.3260974136,
				"z": 2.2110191622,
				"element": "H" 
			},
			{
				"x": 4.622927439,
				"y": 4.4924993637,
				"z": 2.8254223454,
				"element": "H" 
			},
			{
				"x": 0.2124601528,
				"y": 0.2137077715,
				"z": 1.8306585743,
				"element": "H" 
			},
			{
				"x": 1.79972793,
				"y": 0.9176040916,
				"z": 1.9043710306,
				"element": "H" 
			},
			{
				"x": 0.3943062127,
				"y": 1.9279360779,
				"z": 2.2258661299,
				"element": "H" 
			},
			{
				"x": 0.7329805198,
				"y": 0.662975109,
				"z": -1.8746960235,
				"element": "H" 
			},
			{
				"x": -0.609307575,
				"y": -3.3160051606,
				"z": -4.35446531,
				"element": "H" 
			},
			{
				"x": -1.5895966329,
				"y": -1.7698691071,
				"z": -4.7156106397,
				"element": "H" 
			}
		],
		 "valence_orbital": [ 
			{
				"type": "occ",
				"energy": -0.27129,
				"method": "rhf"
			},
			{
				"type": "occ",
				"energy": -0.26988,
				"method": "rhf"
			},
			{
				"type": "occ",
				"energy": -0.26682,
				"method": "rhf"
			},
			{
				"type": "occ",
				"energy": -0.256,
				"method": "rhf"
			},
			{
				"type": "occ",
				"energy": -0.2382,
				"method": "rhf"
			},
			{
				"type": "unocc",
				"energy": -0.05915,
				"method": "rhf"
			},
			{
				"type": "unocc",
				"energy": 0.00116,
				"method": "rhf"
			},
			{
				"type": "unocc",
				"energy": 0.01202,
				"method": "rhf"
			},
			{
				"type": "unocc",
				"energy": 0.01268,
				"method": "rhf"
			},
			{
				"type": "unocc",
				"energy": 0.05865,
				"method": "rhf"
			}
		],
		"cosmo_sigma_profile": { 
			"-0.025": 0.0,
			"-0.024": 0.0,
			"-0.023": 0.0,
			"-0.022": 0.0,
			"-0.021": 0.0,
			"-0.02": 0.0,
			"-0.019": 0.0,
			"-0.018": 0.0,
			"-0.017": 0.0,
			"-0.016": 0.0,
			"-0.015": 0.0,
			"-0.014": 0.0,
			"-0.013": 0.0,
			"-0.012": 0.0,
			"-0.011": 0.0,
			"-0.01": 0.0241802422322,
			"-0.009": 0.557055249968,
			"-0.008": 4.20033160075,
			"-0.007": 9.68659211007,
			"-0.006": 19.059592476,
			"-0.005": 28.3200294686,
			"-0.004": 42.8144830423,
			"-0.003": 57.559853465,
			"-0.002": 75.8089922709,
			"-0.001": 59.8837320426,
			"0.0": 50.3398402039,
			"0.001": 37.380199724,
			"0.002": 26.0733853853,
			"0.003": 18.3537108218,
			"0.004": 14.7328048001,
			"0.005": 12.3853084837,
			"0.006": 10.9742179505,
			"0.007": 9.40069239888,
			"0.008": 8.04496453258,
			"0.009": 9.14591875075,
			"0.01": 9.01363069266,
			"0.011": 11.6791752082,
			"0.012": 10.2149953513,
			"0.013": 2.59664281668,
			"0.014": 0.0201348930817,
			"0.015": 0.0,
			"0.016": 0.0,
			"0.017": 0.0,
			"0.018": 0.0,
			"0.019": 0.0,
			"0.02": 0.0,
			"0.021": 0.0,
			"0.022": 0.0,
			"0.023": 0.0,
			"0.024": 0.0,
			"0.025": 0.0
		}
	}
}
