{
	 "smiles": "OC(=O)CC1=CC(F)=C(F)C=C1F", 
	 "Tm": 396.15, 
	 "num_atms": 18, 
	 "gaussian": { 
		 "optdone": 1, 
		 "sigma_profile": "yes", 
		 "theory": "DFT", 
		 "functional": "B3LYP", 
		 "basiset": "6-31G**", 
		 "properties": { 
			 "R2extent": 3076.5149, 
			 "electric_dipole_moment_norm": 4.42380105113, 
			 "electric_quadrupole_moment_norm": 16.4237108757, 
			 "total_energy": -757.811656609, 
			 "HOMO_LUMO_gap": 0.21939, 
			 "cosmo_polarized_energy": -16.86, 
			 "cosmo_cavitation_energy": 24.91, 
			 "cosmo_dispersion_energy": -17.4, 
			 "cosmo_repulsion_energy": 1.33, 
			 "cosmo_total_nonelectrostatic_energy": 8.84, 
			 "SMD_solvation_energy": 6.87 
		},
		"coords": [
			{
				"x": 0.669941494,
				"y": 3.0989442958,
				"z": 1.3927915702,
				"element": "O" 
			},
			{
				"x": 0.7397896047,
				"y": 1.9431762664,
				"z": 0.6794514493,
				"element": "C" 
			},
			{
				"x": 0.7315489693,
				"y": 1.9659655978,
				"z": -0.5219692819,
				"element": "O" 
			},
			{
				"x": 0.83832592,
				"y": 0.6735304154,
				"z": 1.537397965,
				"element": "C" 
			},
			{
				"x": 0.8560138842,
				"y": -0.5929990444,
				"z": 0.7259881664,
				"element": "C" 
			},
			{
				"x": 2.0216605012,
				"y": -1.3385246541,
				"z": 0.5208476143,
				"element": "C" 
			},
			{
				"x": 1.9947124365,
				"y": -2.4953601069,
				"z": -0.2458596455,
				"element": "C" 
			},
			{
				"x": 3.1154909986,
				"y": -3.2116936122,
				"z": -0.4378692819,
				"element": "F" 
			},
			{
				"x": 0.8023875785,
				"y": -2.9293521933,
				"z": -0.8238552825,
				"element": "C" 
			},
			{
				"x": 0.7992365155,
				"y": -4.0509786248,
				"z": -1.5585674697,
				"element": "F" 
			},
			{
				"x": -0.3718540768,
				"y": -2.2112877667,
				"z": -0.638711675,
				"element": "C" 
			},
			{
				"x": -0.3178439759,
				"y": -1.0566201135,
				"z": 0.1315589601,
				"element": "C" 
			},
			{
				"x": -1.4543394449,
				"y": -0.3553725197,
				"z": 0.326393249,
				"element": "F" 
			},
			{
				"x": 0.6715141719,
				"y": 2.9151444051,
				"z": 2.3429922067,
				"element": "H" 
			},
			{
				"x": -0.0123589835,
				"y": 0.6703305868,
				"z": 2.2310366721,
				"element": "H" 
			},
			{
				"x": 1.7455937819,
				"y": 0.7444650369,
				"z": 2.1495113804,
				"element": "H" 
			},
			{
				"x": 2.9665305915,
				"y": -1.0258171396,
				"z": 0.953109301,
				"element": "H" 
			},
			{
				"x": -1.3006499667,
				"y": -2.5430508294,
				"z": -1.0863458983,
				"element": "H" 
			}
		],
		 "valence_orbital": [ 
			{
				"type": "occ",
				"energy": -0.35479,
				"method": "rhf"
			},
			{
				"type": "occ",
				"energy": -0.32435,
				"method": "rhf"
			},
			{
				"type": "occ",
				"energy": -0.28319,
				"method": "rhf"
			},
			{
				"type": "occ",
				"energy": -0.2713,
				"method": "rhf"
			},
			{
				"type": "occ",
				"energy": -0.24725,
				"method": "rhf"
			},
			{
				"type": "unocc",
				"energy": -0.02786,
				"method": "rhf"
			},
			{
				"type": "unocc",
				"energy": -0.01042,
				"method": "rhf"
			},
			{
				"type": "unocc",
				"energy": 0.00363,
				"method": "rhf"
			},
			{
				"type": "unocc",
				"energy": 0.04475,
				"method": "rhf"
			},
			{
				"type": "unocc",
				"energy": 0.05901,
				"method": "rhf"
			}
		],
		"cosmo_sigma_profile": { 
			"-0.025": 0.0,
			"-0.024": 0.0,
			"-0.023": 0.0,
			"-0.022": 0.0,
			"-0.021": 0.0,
			"-0.02": 0.160122116,
			"-0.019": 1.11670102987,
			"-0.018": 1.04857915881,
			"-0.017": 0.95420499381,
			"-0.016": 1.10721636311,
			"-0.015": 1.18092910114,
			"-0.014": 1.7158259928,
			"-0.013": 0.873445235254,
			"-0.012": 1.03547800604,
			"-0.011": 1.45804457543,
			"-0.01": 1.94739428062,
			"-0.009": 6.13438056131,
			"-0.008": 7.36642390927,
			"-0.007": 7.12888198101,
			"-0.006": 6.41481165489,
			"-0.005": 5.12637594218,
			"-0.004": 5.98535023607,
			"-0.003": 5.5945119761,
			"-0.002": 9.46807849215,
			"-0.001": 14.2118752762,
			"0.0": 18.5366439043,
			"0.001": 14.593227407,
			"0.002": 10.799967511,
			"0.003": 23.3148052747,
			"0.004": 20.6391688104,
			"0.005": 3.87684897492,
			"0.006": 2.02386000021,
			"0.007": 2.79064098383,
			"0.008": 3.56642610903,
			"0.009": 3.90859641441,
			"0.01": 5.23971085874,
			"0.011": 5.76785844349,
			"0.012": 3.91647722566,
			"0.013": 0.861943125372,
			"0.014": 0.0,
			"0.015": 0.0,
			"0.016": 0.0,
			"0.017": 0.0,
			"0.018": 0.0,
			"0.019": 0.0,
			"0.02": 0.0,
			"0.021": 0.0,
			"0.022": 0.0,
			"0.023": 0.0,
			"0.024": 0.0,
			"0.025": 0.0
		}
	}
}
