{
	 "smiles": "CCC(=O)NC1=CC=C(C=C1)C#N", 
	 "Tm": 448.15, 
	 "num_atms": 23, 
	 "gaussian": { 
		 "optdone": 1, 
		 "sigma_profile": "yes", 
		 "theory": "DFT", 
		 "functional": "B3LYP", 
		 "basiset": "6-31G**", 
		 "properties": { 
			 "R2extent": 3493.822, 
			 "electric_dipole_moment_norm": 2.13692167615, 
			 "electric_quadrupole_moment_norm": 36.6883790047, 
			 "total_energy": -571.820515716, 
			 "HOMO_LUMO_gap": 0.18527, 
			 "cosmo_polarized_energy": -16.28, 
			 "cosmo_cavitation_energy": 28.3, 
			 "cosmo_dispersion_energy": -19.8, 
			 "cosmo_repulsion_energy": 1.58, 
			 "cosmo_total_nonelectrostatic_energy": 10.09, 
			 "SMD_solvation_energy": 6.97 
		},
		"coords": [
			{
				"x": -1.5575217802,
				"y": 3.5349479961,
				"z": -0.1633498089,
				"element": "C" 
			},
			{
				"x": -0.3028022752,
				"y": 2.7611209297,
				"z": -0.5971018557,
				"element": "C" 
			},
			{
				"x": 0.8174126017,
				"y": 2.8945317546,
				"z": 0.4236159824,
				"element": "C" 
			},
			{
				"x": 1.3383718095,
				"y": 3.9745348492,
				"z": 0.6566876569,
				"element": "O" 
			},
			{
				"x": 1.3084623147,
				"y": 1.7627199528,
				"z": 1.068262382,
				"element": "N" 
			},
			{
				"x": 0.8719184909,
				"y": 0.4283238007,
				"z": 1.1105569809,
				"element": "C" 
			},
			{
				"x": 1.8405590608,
				"y": -0.5876164543,
				"z": 1.1986637203,
				"element": "C" 
			},
			{
				"x": 1.4657243268,
				"y": -1.9209519016,
				"z": 1.2800494146,
				"element": "C" 
			},
			{
				"x": 0.104969479,
				"y": -2.2743644628,
				"z": 1.2642357874,
				"element": "C" 
			},
			{
				"x": -0.8654310535,
				"y": -1.261692912,
				"z": 1.1895441279,
				"element": "C" 
			},
			{
				"x": -0.4880030284,
				"y": 0.0745886351,
				"z": 1.1301466808,
				"element": "C" 
			},
			{
				"x": -0.2873902411,
				"y": -3.6498302755,
				"z": 1.3356023815,
				"element": "C" 
			},
			{
				"x": -0.605902159,
				"y": -4.7675739352,
				"z": 1.3927184222,
				"element": "N" 
			},
			{
				"x": -1.2941375436,
				"y": 4.5695720661,
				"z": 0.0694948309,
				"element": "H" 
			},
			{
				"x": -2.3044782597,
				"y": 3.5352931278,
				"z": -0.9619864096,
				"element": "H" 
			},
			{
				"x": -2.0187543282,
				"y": 3.0967579834,
				"z": 0.7287315106,
				"element": "H" 
			},
			{
				"x": 0.095288772,
				"y": 3.214730484,
				"z": -1.5113712523,
				"element": "H" 
			},
			{
				"x": -0.53571392,
				"y": 1.7195130952,
				"z": -0.8266300594,
				"element": "H" 
			},
			{
				"x": 2.1594371145,
				"y": 1.9752582567,
				"z": 1.5764378044,
				"element": "H" 
			},
			{
				"x": 2.8934255902,
				"y": -0.3212095028,
				"z": 1.1887187761,
				"element": "H" 
			},
			{
				"x": 2.2212843881,
				"y": -2.6966449079,
				"z": 1.3438617509,
				"element": "H" 
			},
			{
				"x": -1.9173562425,
				"y": -1.5263796926,
				"z": 1.202975801,
				"element": "H" 
			},
			{
				"x": -1.2503631165,
				"y": 0.8442711133,
				"z": 1.1314353751,
				"element": "H" 
			}
		],
		 "valence_orbital": [ 
			{
				"type": "occ",
				"energy": -0.33334,
				"method": "rhf"
			},
			{
				"type": "occ",
				"energy": -0.30778,
				"method": "rhf"
			},
			{
				"type": "occ",
				"energy": -0.28689,
				"method": "rhf"
			},
			{
				"type": "occ",
				"energy": -0.26668,
				"method": "rhf"
			},
			{
				"type": "occ",
				"energy": -0.24527,
				"method": "rhf"
			},
			{
				"type": "unocc",
				"energy": -0.06,
				"method": "rhf"
			},
			{
				"type": "unocc",
				"energy": -0.0361,
				"method": "rhf"
			},
			{
				"type": "unocc",
				"energy": 0.00665,
				"method": "rhf"
			},
			{
				"type": "unocc",
				"energy": 0.03265,
				"method": "rhf"
			},
			{
				"type": "unocc",
				"energy": 0.06555,
				"method": "rhf"
			}
		],
		"cosmo_sigma_profile": { 
			"-0.025": 0.0,
			"-0.024": 0.0,
			"-0.023": 0.0,
			"-0.022": 0.0,
			"-0.021": 0.0,
			"-0.02": 0.0,
			"-0.019": 0.0,
			"-0.018": 0.0,
			"-0.017": 0.0,
			"-0.016": 0.0,
			"-0.015": 0.428580027156,
			"-0.014": 1.14649847647,
			"-0.013": 0.899486534859,
			"-0.012": 1.18684605569,
			"-0.011": 1.46248909078,
			"-0.01": 1.07709461953,
			"-0.009": 1.75957882832,
			"-0.008": 6.78097334983,
			"-0.007": 10.1279872408,
			"-0.006": 10.964992563,
			"-0.005": 11.0224879304,
			"-0.004": 15.2520077984,
			"-0.003": 18.2159559061,
			"-0.002": 20.0207930613,
			"-0.001": 20.2533694896,
			"0.0": 19.8592949326,
			"0.001": 18.1496968401,
			"0.002": 14.7902519876,
			"0.003": 4.22409538311,
			"0.004": 4.40845427575,
			"0.005": 2.98691364363,
			"0.006": 4.5081726892,
			"0.007": 3.98112061981,
			"0.008": 4.08345716419,
			"0.009": 5.3524615829,
			"0.01": 4.17893229412,
			"0.011": 4.79095157689,
			"0.012": 5.44071615607,
			"0.013": 7.05349058118,
			"0.014": 2.03397935622,
			"0.015": 0.0404954474058,
			"0.016": 0.0,
			"0.017": 0.0,
			"0.018": 0.0,
			"0.019": 0.0,
			"0.02": 0.0,
			"0.021": 0.0,
			"0.022": 0.0,
			"0.023": 0.0,
			"0.024": 0.0,
			"0.025": 0.0
		}
	}
}
