{
	 "smiles": "ClCC(=O)NNC(=O)C1=CC=CC=C1", 
	 "Tm": 437.15, 
	 "num_atms": 23, 
	 "gaussian": { 
		 "optdone": 1, 
		 "sigma_profile": "yes", 
		 "theory": "DFT", 
		 "functional": "B3LYP", 
		 "basiset": "6-31G**", 
		 "properties": { 
			 "R2extent": 3857.8796, 
			 "electric_dipole_moment_norm": 1.34874034195, 
			 "electric_quadrupole_moment_norm": 23.3281326985, 
			 "total_energy": -1068.50903106, 
			 "HOMO_LUMO_gap": 0.20591, 
			 "cosmo_polarized_energy": -18.06, 
			 "cosmo_cavitation_energy": 29.65, 
			 "cosmo_dispersion_energy": -20.85, 
			 "cosmo_repulsion_energy": 1.66, 
			 "cosmo_total_nonelectrostatic_energy": 10.45, 
			 "SMD_solvation_energy": 6.98 
		},
		"coords": [
			{
				"x": -3.866922663,
				"y": 0.1824866102,
				"z": -0.9184584438,
				"element": "Cl" 
			},
			{
				"x": -2.8421869706,
				"y": 0.5312875005,
				"z": -2.3709780235,
				"element": "C" 
			},
			{
				"x": -1.6537464535,
				"y": 1.4071332729,
				"z": -1.9808406141,
				"element": "C" 
			},
			{
				"x": -1.766365277,
				"y": 2.5977030817,
				"z": -1.7551442696,
				"element": "O" 
			},
			{
				"x": -0.4215222709,
				"y": 0.7908798439,
				"z": -1.8927686866,
				"element": "N" 
			},
			{
				"x": -0.1545297488,
				"y": -0.5002527383,
				"z": -2.3262104316,
				"element": "N" 
			},
			{
				"x": 0.5921882374,
				"y": -1.4176101151,
				"z": -1.5631034818,
				"element": "C" 
			},
			{
				"x": 1.2256065706,
				"y": -2.2656171643,
				"z": -2.1734849321,
				"element": "O" 
			},
			{
				"x": 0.5868390295,
				"y": -1.3376828868,
				"z": -0.0724099225,
				"element": "C" 
			},
			{
				"x": -0.479751336,
				"y": -0.8400231291,
				"z": 0.6910490379,
				"element": "C" 
			},
			{
				"x": -0.4069706566,
				"y": -0.8594123871,
				"z": 2.083589535,
				"element": "C" 
			},
			{
				"x": 0.7276440071,
				"y": -1.3619692881,
				"z": 2.723235805,
				"element": "C" 
			},
			{
				"x": 1.7886623558,
				"y": -1.8677714901,
				"z": 1.9673929455,
				"element": "C" 
			},
			{
				"x": 1.7138006073,
				"y": -1.8665695985,
				"z": 0.5776506416,
				"element": "C" 
			},
			{
				"x": -3.4630252827,
				"y": 1.0968634466,
				"z": -3.0644432062,
				"element": "H" 
			},
			{
				"x": -2.5517324001,
				"y": -0.4274869009,
				"z": -2.7940633022,
				"element": "H" 
			},
			{
				"x": 0.3562066596,
				"y": 1.421989467,
				"z": -1.7223067556,
				"element": "H" 
			},
			{
				"x": 0.1088297775,
				"y": -0.5819960849,
				"z": -3.3063131602,
				"element": "H" 
			},
			{
				"x": -1.3757507049,
				"y": -0.4659118355,
				"z": 0.2129210614,
				"element": "H" 
			},
			{
				"x": -1.2411395562,
				"y": -0.4826708322,
				"z": 2.6676148015,
				"element": "H" 
			},
			{
				"x": 0.7821427058,
				"y": -1.3663564231,
				"z": 3.8081292202,
				"element": "H" 
			},
			{
				"x": 2.6688500948,
				"y": -2.2683008775,
				"z": 2.4614123423,
				"element": "H" 
			},
			{
				"x": 2.5169732747,
				"y": -2.2747114714,
				"z": -0.0263701607,
				"element": "H" 
			}
		],
		 "valence_orbital": [ 
			{
				"type": "occ",
				"energy": -0.28704,
				"method": "rhf"
			},
			{
				"type": "occ",
				"energy": -0.27988,
				"method": "rhf"
			},
			{
				"type": "occ",
				"energy": -0.26925,
				"method": "rhf"
			},
			{
				"type": "occ",
				"energy": -0.26251,
				"method": "rhf"
			},
			{
				"type": "occ",
				"energy": -0.25988,
				"method": "rhf"
			},
			{
				"type": "unocc",
				"energy": -0.05397,
				"method": "rhf"
			},
			{
				"type": "unocc",
				"energy": -0.03644,
				"method": "rhf"
			},
			{
				"type": "unocc",
				"energy": -0.01238,
				"method": "rhf"
			},
			{
				"type": "unocc",
				"energy": 0.03233,
				"method": "rhf"
			},
			{
				"type": "unocc",
				"energy": 0.04407,
				"method": "rhf"
			}
		],
		"cosmo_sigma_profile": { 
			"-0.025": 0.0,
			"-0.024": 0.0,
			"-0.023": 0.0,
			"-0.022": 0.0,
			"-0.021": 0.0,
			"-0.02": 0.0,
			"-0.019": 0.0,
			"-0.018": 0.0,
			"-0.017": 0.0,
			"-0.016": 0.31286052373,
			"-0.015": 1.84329168587,
			"-0.014": 2.53353381555,
			"-0.013": 3.02678418054,
			"-0.012": 1.75504834497,
			"-0.011": 2.05683507441,
			"-0.01": 3.28689876853,
			"-0.009": 4.59791136014,
			"-0.008": 6.20958369393,
			"-0.007": 7.54496322892,
			"-0.006": 12.6714129085,
			"-0.005": 13.1825861479,
			"-0.004": 14.3499829189,
			"-0.003": 10.9601662646,
			"-0.002": 13.6974295322,
			"-0.001": 13.2545259695,
			"0.0": 13.7712667174,
			"0.001": 15.8146495405,
			"0.002": 13.5038486472,
			"0.003": 16.5355974804,
			"0.004": 19.403079422,
			"0.005": 11.0203437245,
			"0.006": 5.28829775534,
			"0.007": 3.28283456426,
			"0.008": 2.52638961463,
			"0.009": 3.60825712993,
			"0.01": 2.95934775171,
			"0.011": 5.2433184503,
			"0.012": 10.8044957086,
			"0.013": 3.96309879844,
			"0.014": 0.044102055694,
			"0.015": 0.0,
			"0.016": 0.0,
			"0.017": 0.0,
			"0.018": 0.0,
			"0.019": 0.0,
			"0.02": 0.0,
			"0.021": 0.0,
			"0.022": 0.0,
			"0.023": 0.0,
			"0.024": 0.0,
			"0.025": 0.0
		}
	}
}
