{
	 "smiles": "O=CC1=CN=C(S1)C1=CC=CS1", 
	 "Tm": 387.15, 
	 "num_atms": 17, 
	 "gaussian": { 
		 "optdone": 1, 
		 "sigma_profile": "yes", 
		 "theory": "DFT", 
		 "functional": "B3LYP", 
		 "basiset": "6-31G**", 
		 "properties": { 
			 "R2extent": 3776.1278, 
			 "electric_dipole_moment_norm": 4.3864309843, 
			 "electric_quadrupole_moment_norm": 12.5507747522, 
			 "total_energy": -1234.17937097, 
			 "HOMO_LUMO_gap": 0.13865, 
			 "cosmo_polarized_energy": -9.45, 
			 "cosmo_cavitation_energy": 25.71, 
			 "cosmo_dispersion_energy": -19.87, 
			 "cosmo_repulsion_energy": 1.47, 
			 "cosmo_total_nonelectrostatic_energy": 7.31, 
			 "SMD_solvation_energy": 3.85 
		},
		"coords": [
			{
				"x": -3.7401678223,
				"y": 2.013078719,
				"z": 3.207650388,
				"element": "O" 
			},
			{
				"x": -2.8299779631,
				"y": 2.0695118367,
				"z": 2.3985901094,
				"element": "C" 
			},
			{
				"x": -1.8840991029,
				"y": 0.9750296045,
				"z": 2.1822593121,
				"element": "C" 
			},
			{
				"x": -1.8593913365,
				"y": -0.2467401377,
				"z": 2.8236741398,
				"element": "C" 
			},
			{
				"x": -0.8820477365,
				"y": -1.1118938866,
				"z": 2.4562851066,
				"element": "N" 
			},
			{
				"x": -0.1131975997,
				"y": -0.5928911531,
				"z": 1.5166011795,
				"element": "C" 
			},
			{
				"x": -0.5722334046,
				"y": 1.0343255524,
				"z": 1.02678172,
				"element": "S" 
			},
			{
				"x": 1.0082144908,
				"y": -1.3059854392,
				"z": 0.9432923498,
				"element": "C" 
			},
			{
				"x": 1.4144505628,
				"y": -2.580202287,
				"z": 1.2862885773,
				"element": "C" 
			},
			{
				"x": 2.5483646703,
				"y": -3.0186866756,
				"z": 0.5533803291,
				"element": "C" 
			},
			{
				"x": 2.9984335858,
				"y": -2.0812862374,
				"z": -0.3399654829,
				"element": "C" 
			},
			{
				"x": 2.0413788233,
				"y": -0.6395074101,
				"z": -0.3024570978,
				"element": "S" 
			},
			{
				"x": -2.6722273497,
				"y": 2.9730898161,
				"z": 1.7728175903,
				"element": "H" 
			},
			{
				"x": -2.5755751261,
				"y": -0.5251614995,
				"z": 3.5878726677,
				"element": "H" 
			},
			{
				"x": 0.898496008,
				"y": -3.1592212065,
				"z": 2.0418018854,
				"element": "H" 
			},
			{
				"x": 3.0129639596,
				"y": -3.9892541547,
				"z": 0.6818155962,
				"element": "H" 
			},
			{
				"x": 3.8360153407,
				"y": -2.1486054414,
				"z": -1.0203883705,
				"element": "H" 
			}
		],
		 "valence_orbital": [ 
			{
				"type": "occ",
				"energy": -0.29472,
				"method": "rhf"
			},
			{
				"type": "occ",
				"energy": -0.29152,
				"method": "rhf"
			},
			{
				"type": "occ",
				"energy": -0.27136,
				"method": "rhf"
			},
			{
				"type": "occ",
				"energy": -0.26014,
				"method": "rhf"
			},
			{
				"type": "occ",
				"energy": -0.22906,
				"method": "rhf"
			},
			{
				"type": "unocc",
				"energy": -0.09041,
				"method": "rhf"
			},
			{
				"type": "unocc",
				"energy": -0.03648,
				"method": "rhf"
			},
			{
				"type": "unocc",
				"energy": -0.02056,
				"method": "rhf"
			},
			{
				"type": "unocc",
				"energy": 0.01549,
				"method": "rhf"
			},
			{
				"type": "unocc",
				"energy": 0.03732,
				"method": "rhf"
			}
		],
		"cosmo_sigma_profile": { 
			"-0.025": 0.0,
			"-0.024": 0.0,
			"-0.023": 0.0,
			"-0.022": 0.0,
			"-0.021": 0.0,
			"-0.02": 0.0,
			"-0.019": 0.0,
			"-0.018": 0.0,
			"-0.017": 0.0,
			"-0.016": 0.0,
			"-0.015": 0.0,
			"-0.014": 0.0,
			"-0.013": 0.0,
			"-0.012": 0.0,
			"-0.011": 0.0,
			"-0.01": 0.538133814968,
			"-0.009": 3.82749027064,
			"-0.008": 7.14300094175,
			"-0.007": 9.41420393782,
			"-0.006": 9.86259593579,
			"-0.005": 9.39393777298,
			"-0.004": 9.54517240077,
			"-0.003": 12.0028517415,
			"-0.002": 16.0747707559,
			"-0.001": 17.8952598202,
			"0.0": 23.4137921743,
			"0.001": 20.9491556718,
			"0.002": 21.0375897754,
			"0.003": 16.4980747947,
			"0.004": 6.30130302432,
			"0.005": 3.26026164162,
			"0.006": 2.77916147983,
			"0.007": 3.23287503969,
			"0.008": 3.03460245117,
			"0.009": 2.84012330401,
			"0.01": 3.48111198595,
			"0.011": 5.81192230751,
			"0.012": 3.35860268581,
			"0.013": 0.658831785767,
			"0.014": 0.0,
			"0.015": 0.0,
			"0.016": 0.0,
			"0.017": 0.0,
			"0.018": 0.0,
			"0.019": 0.0,
			"0.02": 0.0,
			"0.021": 0.0,
			"0.022": 0.0,
			"0.023": 0.0,
			"0.024": 0.0,
			"0.025": 0.0
		}
	}
}
