{
	 "smiles": "CC1(C)C2CCC(C)(C2)C1O", 
	 "Tm": 318.95, 
	 "num_atms": 29, 
	 "gaussian": { 
		 "optdone": 1, 
		 "sigma_profile": "yes", 
		 "theory": "DFT", 
		 "functional": "B3LYP", 
		 "basiset": "6-31G**", 
		 "properties": { 
			 "R2extent": 1777.2072, 
			 "electric_dipole_moment_norm": 1.31471199508, 
			 "electric_quadrupole_moment_norm": 4.34627378682, 
			 "total_energy": -467.139522494, 
			 "HOMO_LUMO_gap": 0.32067, 
			 "cosmo_polarized_energy": -5.07, 
			 "cosmo_cavitation_energy": 26.81, 
			 "cosmo_dispersion_energy": -19.73, 
			 "cosmo_repulsion_energy": 1.54, 
			 "cosmo_total_nonelectrostatic_energy": 8.62, 
			 "SMD_solvation_energy": 4.15 
		},
		"coords": [
			{
				"x": -1.5248331382,
				"y": 0.9733445401,
				"z": 1.6351830772,
				"element": "C" 
			},
			{
				"x": -1.1892081951,
				"y": -0.2884115864,
				"z": 0.8203199285,
				"element": "C" 
			},
			{
				"x": -1.3661494727,
				"y": -1.5065591834,
				"z": 1.7480124588,
				"element": "C" 
			},
			{
				"x": -2.0630150272,
				"y": -0.469550044,
				"z": -0.4686165839,
				"element": "C" 
			},
			{
				"x": -2.1226955746,
				"y": 0.8371166253,
				"z": -1.2889209877,
				"element": "C" 
			},
			{
				"x": -0.6543086415,
				"y": 0.9921277002,
				"z": -1.7876527499,
				"element": "C" 
			},
			{
				"x": 0.0377786426,
				"y": -0.3224283379,
				"z": -1.3291101521,
				"element": "C" 
			},
			{
				"x": 1.2880741986,
				"y": -0.6799194926,
				"z": -2.122600187,
				"element": "C" 
			},
			{
				"x": -1.1414512608,
				"y": -1.3221598442,
				"z": -1.3664702766,
				"element": "C" 
			},
			{
				"x": 0.2632358276,
				"y": -0.2036522519,
				"z": 0.2099031596,
				"element": "C" 
			},
			{
				"x": 1.0678187155,
				"y": -1.2570490401,
				"z": 0.7363342522,
				"element": "O" 
			},
			{
				"x": -1.3232288696,
				"y": 1.898219015,
				"z": 1.0869832141,
				"element": "H" 
			},
			{
				"x": -2.5803345448,
				"y": 0.9826138473,
				"z": 1.9315091734,
				"element": "H" 
			},
			{
				"x": -0.9245238087,
				"y": 1.0009527531,
				"z": 2.5514645851,
				"element": "H" 
			},
			{
				"x": -0.66980026,
				"y": -1.4642642735,
				"z": 2.5889835883,
				"element": "H" 
			},
			{
				"x": -2.3871307884,
				"y": -1.5129797018,
				"z": 2.1467383093,
				"element": "H" 
			},
			{
				"x": -1.1954292867,
				"y": -2.4547850416,
				"z": 1.2344671518,
				"element": "H" 
			},
			{
				"x": -3.0482859642,
				"y": -0.8917891464,
				"z": -0.2469325649,
				"element": "H" 
			},
			{
				"x": -2.4807824663,
				"y": 1.6980097409,
				"z": -0.7195241768,
				"element": "H" 
			},
			{
				"x": -2.8077328094,
				"y": 0.7093378909,
				"z": -2.1341815745,
				"element": "H" 
			},
			{
				"x": -0.6089169506,
				"y": 1.0863496549,
				"z": -2.8781629895,
				"element": "H" 
			},
			{
				"x": -0.1563621486,
				"y": 1.8765448916,
				"z": -1.3720170481,
				"element": "H" 
			},
			{
				"x": 1.7159306101,
				"y": -1.6293279001,
				"z": -1.7842072562,
				"element": "H" 
			},
			{
				"x": 1.0581964402,
				"y": -0.7828792805,
				"z": -3.1886143448,
				"element": "H" 
			},
			{
				"x": 2.0593410382,
				"y": 0.0963439993,
				"z": -2.0305142456,
				"element": "H" 
			},
			{
				"x": -0.8757168104,
				"y": -2.294809771,
				"z": -0.9440417462,
				"element": "H" 
			},
			{
				"x": -1.5439302636,
				"y": -1.4751660171,
				"z": -2.3746265235,
				"element": "H" 
			},
			{
				"x": 0.7298527647,
				"y": 0.76488539,
				"z": 0.4516891218,
				"element": "H" 
			},
			{
				"x": 1.9712080437,
				"y": -1.1162151362,
				"z": 0.4273053873,
				"element": "H" 
			}
		],
		 "valence_orbital": [ 
			{
				"type": "occ",
				"energy": -0.30664,
				"method": "rhf"
			},
			{
				"type": "occ",
				"energy": -0.29841,
				"method": "rhf"
			},
			{
				"type": "occ",
				"energy": -0.29165,
				"method": "rhf"
			},
			{
				"type": "occ",
				"energy": -0.28904,
				"method": "rhf"
			},
			{
				"type": "occ",
				"energy": -0.25101,
				"method": "rhf"
			},
			{
				"type": "unocc",
				"energy": 0.06966,
				"method": "rhf"
			},
			{
				"type": "unocc",
				"energy": 0.0889,
				"method": "rhf"
			},
			{
				"type": "unocc",
				"energy": 0.10928,
				"method": "rhf"
			},
			{
				"type": "unocc",
				"energy": 0.11696,
				"method": "rhf"
			},
			{
				"type": "unocc",
				"energy": 0.13264,
				"method": "rhf"
			}
		],
		"cosmo_sigma_profile": { 
			"-0.025": 0.0,
			"-0.024": 0.0,
			"-0.023": 0.0,
			"-0.022": 0.0,
			"-0.021": 0.0,
			"-0.02": 0.0,
			"-0.019": 0.0,
			"-0.018": 0.0,
			"-0.017": 0.0,
			"-0.016": 0.0,
			"-0.015": 0.0922276252501,
			"-0.014": 0.732828246452,
			"-0.013": 0.883597669814,
			"-0.012": 0.775717087612,
			"-0.011": 0.445352881904,
			"-0.01": 1.15432620223,
			"-0.009": 0.775034855798,
			"-0.008": 1.42766421295,
			"-0.007": 0.627401109346,
			"-0.006": 1.15007963146,
			"-0.005": 1.47486996171,
			"-0.004": 1.79379818906,
			"-0.003": 9.91955638379,
			"-0.002": 34.2692737482,
			"-0.001": 36.9316568389,
			"0.0": 32.9182318542,
			"0.001": 33.8474684311,
			"0.002": 25.5133491444,
			"0.003": 4.47446194965,
			"0.004": 1.77164696693,
			"0.005": 1.3358219284,
			"0.006": 1.98425657112,
			"0.007": 2.04722914382,
			"0.008": 1.08069811432,
			"0.009": 1.32789493146,
			"0.01": 1.45784786112,
			"0.011": 1.12932388259,
			"0.012": 1.97742249391,
			"0.013": 1.41422368137,
			"0.014": 0.135066228148,
			"0.015": 0.0,
			"0.016": 0.0,
			"0.017": 0.0,
			"0.018": 0.0,
			"0.019": 0.0,
			"0.02": 0.0,
			"0.021": 0.0,
			"0.022": 0.0,
			"0.023": 0.0,
			"0.024": 0.0,
			"0.025": 0.0
		}
	}
}
