{
	 "smiles": "OC(=O)C1=C(C2CC2)N(N=N1)C1=CC=CC=C1", 
	 "Tm": 448.15, 
	 "num_atms": 28, 
	 "gaussian": { 
		 "optdone": 1, 
		 "sigma_profile": "yes", 
		 "theory": "DFT", 
		 "functional": "B3LYP", 
		 "basiset": "6-31G**", 
		 "properties": { 
			 "R2extent": 4694.2124, 
			 "electric_dipole_moment_norm": 6.43853689436, 
			 "electric_quadrupole_moment_norm": 7.39808830712, 
			 "total_energy": -778.554952005, 
			 "HOMO_LUMO_gap": 0.21039, 
			 "cosmo_polarized_energy": -15.17, 
			 "cosmo_cavitation_energy": 32.33, 
			 "cosmo_dispersion_energy": -22.95, 
			 "cosmo_repulsion_energy": 1.78, 
			 "cosmo_total_nonelectrostatic_energy": 11.16, 
			 "SMD_solvation_energy": 4.98 
		},
		"coords": [
			{
				"x": 3.3642969476,
				"y": -2.8816707322,
				"z": 1.0293119345,
				"element": "O" 
			},
			{
				"x": 2.2344467791,
				"y": -2.1747819317,
				"z": 1.2442649492,
				"element": "C" 
			},
			{
				"x": 1.6981236001,
				"y": -2.1340599213,
				"z": 2.3290179766,
				"element": "O" 
			},
			{
				"x": 1.7409374925,
				"y": -1.4748209394,
				"z": 0.0337025161,
				"element": "C" 
			},
			{
				"x": 0.6299954632,
				"y": -0.6664242428,
				"z": -0.1674922517,
				"element": "C" 
			},
			{
				"x": -0.4591502556,
				"y": -0.2422377508,
				"z": 0.7403681327,
				"element": "C" 
			},
			{
				"x": -1.2020751372,
				"y": -1.2701520689,
				"z": 1.5575745937,
				"element": "C" 
			},
			{
				"x": -1.9074981045,
				"y": -0.5759345308,
				"z": 0.4265091136,
				"element": "C" 
			},
			{
				"x": 0.7375714456,
				"y": -0.3228792253,
				"z": -1.4899659659,
				"element": "N" 
			},
			{
				"x": 1.8368049979,
				"y": -0.8986459133,
				"z": -2.062164777,
				"element": "N" 
			},
			{
				"x": 2.4292856536,
				"y": -1.5865597526,
				"z": -1.1391075559,
				"element": "N" 
			},
			{
				"x": -0.1095491163,
				"y": 0.4896939031,
				"z": -2.3046155311,
				"element": "C" 
			},
			{
				"x": -0.4108333213,
				"y": 0.0538573316,
				"z": -3.59828841,
				"element": "C" 
			},
			{
				"x": -1.2163057066,
				"y": 0.8462359507,
				"z": -4.4140571905,
				"element": "C" 
			},
			{
				"x": -1.7241865394,
				"y": 2.05828625,
				"z": -3.9410025385,
				"element": "C" 
			},
			{
				"x": -1.4135138523,
				"y": 2.4853144952,
				"z": -2.6488588891,
				"element": "C" 
			},
			{
				"x": -0.5978793152,
				"y": 1.7079755811,
				"z": -1.8267236882,
				"element": "C" 
			},
			{
				"x": 3.6189372755,
				"y": -2.7702823802,
				"z": 0.0940266138,
				"element": "H" 
			},
			{
				"x": -0.2826818547,
				"y": 0.7109711184,
				"z": 1.2351013876,
				"element": "H" 
			},
			{
				"x": -1.4500955348,
				"y": -1.0007833364,
				"z": 2.5783697967,
				"element": "H" 
			},
			{
				"x": -0.9170936467,
				"y": -2.3080868009,
				"z": 1.4317240275,
				"element": "H" 
			},
			{
				"x": -2.1090988789,
				"y": -1.1456412137,
				"z": -0.4753279037,
				"element": "H" 
			},
			{
				"x": -2.6544110366,
				"y": 0.1784854107,
				"z": 0.6523212865,
				"element": "H" 
			},
			{
				"x": -0.0076068008,
				"y": -0.8888695284,
				"z": -3.9491775202,
				"element": "H" 
			},
			{
				"x": -1.4509832143,
				"y": 0.5113901512,
				"z": -5.4197336075,
				"element": "H" 
			},
			{
				"x": -2.3557143737,
				"y": 2.6695789217,
				"z": -4.5783489966,
				"element": "H" 
			},
			{
				"x": -1.7951549599,
				"y": 3.4324015797,
				"z": -2.2800811394,
				"element": "H" 
			},
			{
				"x": -0.3316680064,
				"y": 2.0506395754,
				"z": -0.8338463634,
				"element": "H" 
			}
		],
		 "valence_orbital": [ 
			{
				"type": "occ",
				"energy": -0.28495,
				"method": "rhf"
			},
			{
				"type": "occ",
				"energy": -0.27608,
				"method": "rhf"
			},
			{
				"type": "occ",
				"energy": -0.27244,
				"method": "rhf"
			},
			{
				"type": "occ",
				"energy": -0.26739,
				"method": "rhf"
			},
			{
				"type": "occ",
				"energy": -0.26088,
				"method": "rhf"
			},
			{
				"type": "unocc",
				"energy": -0.05049,
				"method": "rhf"
			},
			{
				"type": "unocc",
				"energy": -0.02672,
				"method": "rhf"
			},
			{
				"type": "unocc",
				"energy": -0.02593,
				"method": "rhf"
			},
			{
				"type": "unocc",
				"energy": -0.00223,
				"method": "rhf"
			},
			{
				"type": "unocc",
				"energy": 0.06652,
				"method": "rhf"
			}
		],
		"cosmo_sigma_profile": { 
			"-0.025": 0.0,
			"-0.024": 0.0,
			"-0.023": 0.0,
			"-0.022": 0.0,
			"-0.021": 0.0,
			"-0.02": 0.0,
			"-0.019": 0.0,
			"-0.018": 0.0,
			"-0.017": 0.0,
			"-0.016": 0.0,
			"-0.015": 0.0222810002432,
			"-0.014": 0.664753313428,
			"-0.013": 0.395618520058,
			"-0.012": 0.53335488658,
			"-0.011": 0.626149650762,
			"-0.01": 0.433645757244,
			"-0.009": 0.888476663917,
			"-0.008": 3.26928809284,
			"-0.007": 9.24716856865,
			"-0.006": 15.9038854474,
			"-0.005": 25.8496423971,
			"-0.004": 22.9247407356,
			"-0.003": 20.8642569359,
			"-0.002": 18.5952929821,
			"-0.001": 16.3148617531,
			"0.0": 13.9968632739,
			"0.001": 14.6843503875,
			"0.002": 15.1715471724,
			"0.003": 17.9019994383,
			"0.004": 13.6169308178,
			"0.005": 4.37230246243,
			"0.006": 4.75593772627,
			"0.007": 4.84303696119,
			"0.008": 6.29800250599,
			"0.009": 6.89778155424,
			"0.01": 7.89813195135,
			"0.011": 5.64192507632,
			"0.012": 4.39094852479,
			"0.013": 1.59248897777,
			"0.014": 0.0472089378649,
			"0.015": 0.0,
			"0.016": 0.0,
			"0.017": 0.0,
			"0.018": 0.0,
			"0.019": 0.0,
			"0.02": 0.0,
			"0.021": 0.0,
			"0.022": 0.0,
			"0.023": 0.0,
			"0.024": 0.0,
			"0.025": 0.0
		}
	}
}
