{
	 "smiles": "CN1CCOC2=C1C=CC(=C2)C(Cl)=O", 
	 "Tm": 371.15, 
	 "num_atms": 24, 
	 "gaussian": { 
		 "optdone": 1, 
		 "sigma_profile": "yes", 
		 "theory": "DFT", 
		 "functional": "B3LYP", 
		 "basiset": "6-31G**", 
		 "properties": { 
			 "R2extent": 4469.9046, 
			 "electric_dipole_moment_norm": 8.42581900233, 
			 "electric_quadrupole_moment_norm": 13.7363938266, 
			 "total_energy": -1052.48260704, 
			 "HOMO_LUMO_gap": 0.15238, 
			 "cosmo_polarized_energy": -12.31, 
			 "cosmo_cavitation_energy": 28.85, 
			 "cosmo_dispersion_energy": -21.73, 
			 "cosmo_repulsion_energy": 1.69, 
			 "cosmo_total_nonelectrostatic_energy": 8.81, 
			 "SMD_solvation_energy": 4.89 
		},
		"coords": [
			{
				"x": -1.0581456687,
				"y": -2.4725260621,
				"z": -0.3062064756,
				"element": "C" 
			},
			{
				"x": -0.2475902163,
				"y": -1.4545106315,
				"z": -0.9506071787,
				"element": "N" 
			},
			{
				"x": -0.5038500843,
				"y": -1.162523046,
				"z": -2.3543709162,
				"element": "C" 
			},
			{
				"x": 0.7042776949,
				"y": -0.4412905879,
				"z": -2.9368253507,
				"element": "C" 
			},
			{
				"x": 0.9585253099,
				"y": 0.7658132854,
				"z": -2.2252404443,
				"element": "O" 
			},
			{
				"x": 0.9788096714,
				"y": 0.6378773626,
				"z": -0.8573476643,
				"element": "C" 
			},
			{
				"x": 0.3597862261,
				"y": -0.4626769352,
				"z": -0.2003854754,
				"element": "C" 
			},
			{
				"x": 0.4031397734,
				"y": -0.4885470375,
				"z": 1.2099197894,
				"element": "C" 
			},
			{
				"x": 1.0307976013,
				"y": 0.5169985227,
				"z": 1.9279182304,
				"element": "C" 
			},
			{
				"x": 1.6358820721,
				"y": 1.599818168,
				"z": 1.2660919395,
				"element": "C" 
			},
			{
				"x": 1.6035985483,
				"y": 1.6409108062,
				"z": -0.1377168404,
				"element": "C" 
			},
			{
				"x": 2.2698511366,
				"y": 2.6187696333,
				"z": 2.1112924857,
				"element": "C" 
			},
			{
				"x": 3.0422503215,
				"y": 4.0235731324,
				"z": 1.1929492565,
				"element": "Cl" 
			},
			{
				"x": 2.3323223176,
				"y": 2.6261988638,
				"z": 3.3058997131,
				"element": "O" 
			},
			{
				"x": -0.4757881302,
				"y": -3.0128232486,
				"z": 0.4465286558,
				"element": "H" 
			},
			{
				"x": -1.3770535166,
				"y": -3.1953452869,
				"z": -1.060162931,
				"element": "H" 
			},
			{
				"x": -1.9554604574,
				"y": -2.0608605577,
				"z": 0.1804623377,
				"element": "H" 
			},
			{
				"x": -0.6620741155,
				"y": -2.1046909076,
				"z": -2.8898184755,
				"element": "H" 
			},
			{
				"x": -1.4043429766,
				"y": -0.5421504058,
				"z": -2.4892393023,
				"element": "H" 
			},
			{
				"x": 0.525377718,
				"y": -0.1510366888,
				"z": -3.9745114238,
				"element": "H" 
			},
			{
				"x": 1.5858289517,
				"y": -1.095229819,
				"z": -2.8959962371,
				"element": "H" 
			},
			{
				"x": -0.0701844838,
				"y": -1.301188662,
				"z": 1.7471529598,
				"element": "H" 
			},
			{
				"x": 1.0535390137,
				"y": 0.4840683814,
				"z": 3.0111374669,
				"element": "H" 
			},
			{
				"x": 2.0604032928,
				"y": 2.4557717209,
				"z": -0.6848241195,
				"element": "H" 
			}
		],
		 "valence_orbital": [ 
			{
				"type": "occ",
				"energy": -0.30238,
				"method": "rhf"
			},
			{
				"type": "occ",
				"energy": -0.30092,
				"method": "rhf"
			},
			{
				"type": "occ",
				"energy": -0.27529,
				"method": "rhf"
			},
			{
				"type": "occ",
				"energy": -0.24606,
				"method": "rhf"
			},
			{
				"type": "occ",
				"energy": -0.20839,
				"method": "rhf"
			},
			{
				"type": "unocc",
				"energy": -0.05601,
				"method": "rhf"
			},
			{
				"type": "unocc",
				"energy": -0.00575,
				"method": "rhf"
			},
			{
				"type": "unocc",
				"energy": 0.03345,
				"method": "rhf"
			},
			{
				"type": "unocc",
				"energy": 0.04717,
				"method": "rhf"
			},
			{
				"type": "unocc",
				"energy": 0.07073,
				"method": "rhf"
			}
		],
		"cosmo_sigma_profile": { 
			"-0.025": 0.0,
			"-0.024": 0.0,
			"-0.023": 0.0,
			"-0.022": 0.0,
			"-0.021": 0.0,
			"-0.02": 0.0,
			"-0.019": 0.0,
			"-0.018": 0.0,
			"-0.017": 0.0,
			"-0.016": 0.0,
			"-0.015": 0.0,
			"-0.014": 0.0,
			"-0.013": 0.0,
			"-0.012": 0.0,
			"-0.011": 0.0,
			"-0.01": 0.0,
			"-0.009": 0.0,
			"-0.008": 0.37887236427,
			"-0.007": 7.32087675049,
			"-0.006": 15.1213757174,
			"-0.005": 20.5045730263,
			"-0.004": 22.0108588734,
			"-0.003": 19.7513033857,
			"-0.002": 16.0347199235,
			"-0.001": 11.2185925917,
			"0.0": 14.1575514318,
			"0.001": 16.8564281628,
			"0.002": 16.1937448979,
			"0.003": 20.4979771551,
			"0.004": 13.7044943109,
			"0.005": 11.3407386269,
			"0.006": 7.1498514091,
			"0.007": 4.08425731509,
			"0.008": 4.24330220734,
			"0.009": 5.79328758202,
			"0.01": 4.88146018455,
			"0.011": 0.631073187841,
			"0.012": 0.0,
			"0.013": 0.0,
			"0.014": 0.0,
			"0.015": 0.0,
			"0.016": 0.0,
			"0.017": 0.0,
			"0.018": 0.0,
			"0.019": 0.0,
			"0.02": 0.0,
			"0.021": 0.0,
			"0.022": 0.0,
			"0.023": 0.0,
			"0.024": 0.0,
			"0.025": 0.0
		}
	}
}
