{
	 "smiles": "CC1=CC(C)=C(N=C1)C#N", 
	 "Tm": 332.15, 
	 "num_atms": 18, 
	 "gaussian": { 
		 "optdone": 1, 
		 "sigma_profile": "yes", 
		 "theory": "DFT", 
		 "functional": "B3LYP", 
		 "basiset": "6-31G**", 
		 "properties": { 
			 "R2extent": 1740.7978, 
			 "electric_dipole_moment_norm": 6.07179072927, 
			 "electric_quadrupole_moment_norm": 13.258214827, 
			 "total_energy": -419.164982246, 
			 "HOMO_LUMO_gap": 0.20223, 
			 "cosmo_polarized_energy": -10.92, 
			 "cosmo_cavitation_energy": 22.93, 
			 "cosmo_dispersion_energy": -16.18, 
			 "cosmo_repulsion_energy": 1.31, 
			 "cosmo_total_nonelectrostatic_energy": 8.07, 
			 "SMD_solvation_energy": 3.98 
		},
		"coords": [
			{
				"x": -2.877297619,
				"y": 1.3185828112,
				"z": -0.2513297304,
				"element": "C" 
			},
			{
				"x": -1.5909301129,
				"y": 0.7752252189,
				"z": 0.3148036102,
				"element": "C" 
			},
			{
				"x": -1.1495316454,
				"y": -0.5206091561,
				"z": 0.0277684098,
				"element": "C" 
			},
			{
				"x": 0.0443482223,
				"y": -1.0090695802,
				"z": 0.5604180796,
				"element": "C" 
			},
			{
				"x": 0.5429804306,
				"y": -2.4003584606,
				"z": 0.2676683368,
				"element": "C" 
			},
			{
				"x": 0.7620875941,
				"y": -0.123247475,
				"z": 1.3924668745,
				"element": "C" 
			},
			{
				"x": 0.366928639,
				"y": 1.1240934966,
				"z": 1.6872341937,
				"element": "N" 
			},
			{
				"x": -0.7792795669,
				"y": 1.5486781798,
				"z": 1.1565733113,
				"element": "C" 
			},
			{
				"x": 2.0072861068,
				"y": -0.55682107,
				"z": 1.9809839458,
				"element": "C" 
			},
			{
				"x": 3.0046348366,
				"y": -0.9468157037,
				"z": 2.4338060373,
				"element": "N" 
			},
			{
				"x": -3.7349994552,
				"y": 0.7121588458,
				"z": 0.0605271696,
				"element": "H" 
			},
			{
				"x": -3.0543334551,
				"y": 2.3453166249,
				"z": 0.079227567,
				"element": "H" 
			},
			{
				"x": -2.8606418917,
				"y": 1.3158961957,
				"z": -1.3469182176,
				"element": "H" 
			},
			{
				"x": -1.7424866444,
				"y": -1.1622552114,
				"z": -0.6205082373,
				"element": "H" 
			},
			{
				"x": 0.6547119219,
				"y": -2.9837276796,
				"z": 1.1877722748,
				"element": "H" 
			},
			{
				"x": -0.1470081684,
				"y": -2.9311051376,
				"z": -0.3928050944,
				"element": "H" 
			},
			{
				"x": 1.5273251224,
				"y": -2.3764999965,
				"z": -0.2118080333,
				"element": "H" 
			},
			{
				"x": -1.0750943147,
				"y": 2.5648580979,
				"z": 1.4129195025,
				"element": "H" 
			}
		],
		 "valence_orbital": [ 
			{
				"type": "occ",
				"energy": -0.34558,
				"method": "rhf"
			},
			{
				"type": "occ",
				"energy": -0.33184,
				"method": "rhf"
			},
			{
				"type": "occ",
				"energy": -0.29474,
				"method": "rhf"
			},
			{
				"type": "occ",
				"energy": -0.27483,
				"method": "rhf"
			},
			{
				"type": "occ",
				"energy": -0.26235,
				"method": "rhf"
			},
			{
				"type": "unocc",
				"energy": -0.06012,
				"method": "rhf"
			},
			{
				"type": "unocc",
				"energy": -0.033,
				"method": "rhf"
			},
			{
				"type": "unocc",
				"energy": 0.03667,
				"method": "rhf"
			},
			{
				"type": "unocc",
				"energy": 0.06955,
				"method": "rhf"
			},
			{
				"type": "unocc",
				"energy": 0.08483,
				"method": "rhf"
			}
		],
		"cosmo_sigma_profile": { 
			"-0.025": 0.0,
			"-0.024": 0.0,
			"-0.023": 0.0,
			"-0.022": 0.0,
			"-0.021": 0.0,
			"-0.02": 0.0,
			"-0.019": 0.0,
			"-0.018": 0.0,
			"-0.017": 0.0,
			"-0.016": 0.0,
			"-0.015": 0.0,
			"-0.014": 0.0,
			"-0.013": 0.0,
			"-0.012": 0.0,
			"-0.011": 0.0,
			"-0.01": 0.0,
			"-0.009": 0.0,
			"-0.008": 0.199889029446,
			"-0.007": 4.85451997157,
			"-0.006": 9.13814396579,
			"-0.005": 17.0202876449,
			"-0.004": 16.5320961914,
			"-0.003": 16.6278827483,
			"-0.002": 19.1842032381,
			"-0.001": 24.180936301,
			"0.0": 16.9320961948,
			"0.001": 11.2464396425,
			"0.002": 4.16462538714,
			"0.003": 4.59242313666,
			"0.004": 4.97794987291,
			"0.005": 3.79614289377,
			"0.006": 4.34443047757,
			"0.007": 3.77312406934,
			"0.008": 4.59204821953,
			"0.009": 4.23531536706,
			"0.01": 4.28060119002,
			"0.011": 3.09113642129,
			"0.012": 3.21660373366,
			"0.013": 1.78414950035,
			"0.014": 0.753538342329,
			"0.015": 0.195814501446,
			"0.016": 0.0,
			"0.017": 0.0,
			"0.018": 0.0,
			"0.019": 0.0,
			"0.02": 0.0,
			"0.021": 0.0,
			"0.022": 0.0,
			"0.023": 0.0,
			"0.024": 0.0,
			"0.025": 0.0
		}
	}
}
