{
	 "smiles": "CCC(=O)C1=C(C)N(CCS(C)(=O)=O)N=C1C", 
	 "Tm": 428.15, 
	 "num_atms": 35, 
	 "gaussian": { 
		 "optdone": 1, 
		 "sigma_profile": "yes", 
		 "theory": "DFT", 
		 "functional": "B3LYP", 
		 "basiset": "6-31G**", 
		 "properties": { 
			 "R2extent": 5367.3563, 
			 "electric_dipole_moment_norm": 2.354610953, 
			 "electric_quadrupole_moment_norm": 30.7661664643, 
			 "total_energy": -1163.32599095, 
			 "HOMO_LUMO_gap": 0.20325, 
			 "cosmo_polarized_energy": -20.76, 
			 "cosmo_cavitation_energy": 37.51, 
			 "cosmo_dispersion_energy": -26.14, 
			 "cosmo_repulsion_energy": 2.0, 
			 "cosmo_total_nonelectrostatic_energy": 13.36, 
			 "SMD_solvation_energy": 5.93 
		},
		"coords": [
			{
				"x": -2.8932370494,
				"y": -0.3648758833,
				"z": 2.2684720782,
				"element": "C" 
			},
			{
				"x": -1.545373763,
				"y": -0.9973500842,
				"z": 2.6611518468,
				"element": "C" 
			},
			{
				"x": -0.3898227332,
				"y": -0.0223281092,
				"z": 2.4458181903,
				"element": "C" 
			},
			{
				"x": -0.1721976399,
				"y": 0.8238698192,
				"z": 3.3091999609,
				"element": "O" 
			},
			{
				"x": 0.4574541599,
				"y": -0.0795433738,
				"z": 1.2404681254,
				"element": "C" 
			},
			{
				"x": 0.3422491984,
				"y": -0.8166024433,
				"z": 0.0498690666,
				"element": "C" 
			},
			{
				"x": -0.6943538892,
				"y": -1.7638601354,
				"z": -0.4764794905,
				"element": "C" 
			},
			{
				"x": 1.4333918908,
				"y": -0.4837818639,
				"z": -0.692184972,
				"element": "N" 
			},
			{
				"x": 1.8495874073,
				"y": -0.9782530485,
				"z": -1.996448664,
				"element": "C" 
			},
			{
				"x": 2.0488194763,
				"y": 0.1406115789,
				"z": -3.0159240119,
				"element": "C" 
			},
			{
				"x": 0.4964527662,
				"y": 0.9423378061,
				"z": -3.5538543366,
				"element": "S" 
			},
			{
				"x": 0.1691688081,
				"y": 2.2235239678,
				"z": -2.3246935191,
				"element": "C" 
			},
			{
				"x": -0.5795821955,
				"y": -0.0650283001,
				"z": -3.4609355647,
				"element": "O" 
			},
			{
				"x": 0.7808089494,
				"y": 1.6103166957,
				"z": -4.8323936252,
				"element": "O" 
			},
			{
				"x": 2.2531225872,
				"y": 0.413490431,
				"z": -0.0692098055,
				"element": "N" 
			},
			{
				"x": 1.6712410187,
				"y": 0.6731625305,
				"z": 1.0926243007,
				"element": "C" 
			},
			{
				"x": 2.3059618768,
				"y": 1.63382143,
				"z": 2.0475381645,
				"element": "C" 
			},
			{
				"x": -3.0459169086,
				"y": 0.5631456718,
				"z": 2.8264777719,
				"element": "H" 
			},
			{
				"x": -3.7213183638,
				"y": -1.0427542773,
				"z": 2.4960709876,
				"element": "H" 
			},
			{
				"x": -2.9389179232,
				"y": -0.1243548498,
				"z": 1.2006840218,
				"element": "H" 
			},
			{
				"x": -1.3870047884,
				"y": -1.9419144065,
				"z": 2.1339074964,
				"element": "H" 
			},
			{
				"x": -1.5548481492,
				"y": -1.2153035,
				"z": 3.7334275603,
				"element": "H" 
			},
			{
				"x": -0.9181095128,
				"y": -1.5453326482,
				"z": -1.5246472484,
				"element": "H" 
			},
			{
				"x": -1.6246971898,
				"y": -1.6730494084,
				"z": 0.080382708,
				"element": "H" 
			},
			{
				"x": -0.3621432229,
				"y": -2.8067920753,
				"z": -0.4033399761,
				"element": "H" 
			},
			{
				"x": 2.8002498958,
				"y": -1.5102631744,
				"z": -1.8798245667,
				"element": "H" 
			},
			{
				"x": 1.1021420049,
				"y": -1.6833898152,
				"z": -2.3585063456,
				"element": "H" 
			},
			{
				"x": 2.71776249,
				"y": 0.915709921,
				"z": -2.6357061935,
				"element": "H" 
			},
			{
				"x": 2.4604106992,
				"y": -0.2589745473,
				"z": -3.9471848339,
				"element": "H" 
			},
			{
				"x": -0.7578210377,
				"y": 2.7044810523,
				"z": -2.6430087596,
				"element": "H" 
			},
			{
				"x": 0.9894613202,
				"y": 2.9422174655,
				"z": -2.3328753983,
				"element": "H" 
			},
			{
				"x": 0.0506272039,
				"y": 1.7730657186,
				"z": -1.3392927573,
				"element": "H" 
			},
			{
				"x": 1.6480316173,
				"y": 2.4838160172,
				"z": 2.2465205216,
				"element": "H" 
			},
			{
				"x": 2.4889621877,
				"y": 1.1605959635,
				"z": 3.0163272675,
				"element": "H" 
			},
			{
				"x": 3.2514388085,
				"y": 1.9886858749,
				"z": 1.6303700005,
				"element": "H" 
			}
		],
		 "valence_orbital": [ 
			{
				"type": "occ",
				"energy": -0.30022,
				"method": "rhf"
			},
			{
				"type": "occ",
				"energy": -0.29414,
				"method": "rhf"
			},
			{
				"type": "occ",
				"energy": -0.25642,
				"method": "rhf"
			},
			{
				"type": "occ",
				"energy": -0.25179,
				"method": "rhf"
			},
			{
				"type": "occ",
				"energy": -0.24102,
				"method": "rhf"
			},
			{
				"type": "unocc",
				"energy": -0.03777,
				"method": "rhf"
			},
			{
				"type": "unocc",
				"energy": 0.00761,
				"method": "rhf"
			},
			{
				"type": "unocc",
				"energy": 0.05208,
				"method": "rhf"
			},
			{
				"type": "unocc",
				"energy": 0.06269,
				"method": "rhf"
			},
			{
				"type": "unocc",
				"energy": 0.06613,
				"method": "rhf"
			}
		],
		"cosmo_sigma_profile": { 
			"-0.025": 0.0,
			"-0.024": 0.0,
			"-0.023": 0.0,
			"-0.022": 0.0,
			"-0.021": 0.0,
			"-0.02": 0.0,
			"-0.019": 0.0,
			"-0.018": 0.0,
			"-0.017": 0.0,
			"-0.016": 0.0,
			"-0.015": 0.0,
			"-0.014": 0.0,
			"-0.013": 0.0,
			"-0.012": 0.0539873673278,
			"-0.011": 0.652488107302,
			"-0.01": 1.3036262389,
			"-0.009": 6.12838258804,
			"-0.008": 8.3357354172,
			"-0.007": 12.5081025068,
			"-0.006": 12.9975534779,
			"-0.005": 19.420771858,
			"-0.004": 27.2636314634,
			"-0.003": 26.069276254,
			"-0.002": 27.7374871396,
			"-0.001": 26.715451416,
			"0.0": 25.2585315705,
			"0.001": 14.7234960101,
			"0.002": 10.2013762066,
			"0.003": 8.07197987064,
			"0.004": 6.18141468362,
			"0.005": 5.88972579949,
			"0.006": 5.6728106351,
			"0.007": 4.09344226427,
			"0.008": 4.75054886351,
			"0.009": 6.27799210371,
			"0.01": 6.16195330882,
			"0.011": 10.3746125989,
			"0.012": 11.4881444845,
			"0.013": 4.83757464491,
			"0.014": 1.94477747811,
			"0.015": 0.139378428855,
			"0.016": 0.0,
			"0.017": 0.0,
			"0.018": 0.0,
			"0.019": 0.0,
			"0.02": 0.0,
			"0.021": 0.0,
			"0.022": 0.0,
			"0.023": 0.0,
			"0.024": 0.0,
			"0.025": 0.0
		}
	}
}
