{
	 "smiles": "COC1=CC=CC=C1O", 
	 "Tm": 303.15, 
	 "num_atms": 17, 
	 "gaussian": { 
		 "optdone": 1, 
		 "sigma_profile": "yes", 
		 "theory": "DFT", 
		 "functional": "B3LYP", 
		 "basiset": "6-31G**", 
		 "properties": { 
			 "R2extent": 1288.6142, 
			 "electric_dipole_moment_norm": 1.96703803979, 
			 "electric_quadrupole_moment_norm": 5.72475697388, 
			 "total_energy": -421.986335897, 
			 "HOMO_LUMO_gap": 0.20856, 
			 "cosmo_polarized_energy": -8.41, 
			 "cosmo_cavitation_energy": 20.43, 
			 "cosmo_dispersion_energy": -15.56, 
			 "cosmo_repulsion_energy": 1.27, 
			 "cosmo_total_nonelectrostatic_energy": 6.15, 
			 "SMD_solvation_energy": 4.67 
		},
		"coords": [
			{
				"x": -1.1704242673,
				"y": -1.1410674702,
				"z": -1.8095525267,
				"element": "C" 
			},
			{
				"x": -0.7591086224,
				"y": -1.7189913578,
				"z": -0.5726852295,
				"element": "O" 
			},
			{
				"x": -0.1993753914,
				"y": -0.9847679257,
				"z": 0.4347392242,
				"element": "C" 
			},
			{
				"x": 0.1385868149,
				"y": -1.7305879232,
				"z": 1.5721682063,
				"element": "C" 
			},
			{
				"x": 0.7185086778,
				"y": -1.1428169936,
				"z": 2.6927823851,
				"element": "C" 
			},
			{
				"x": 0.9760372923,
				"y": 0.2277824188,
				"z": 2.696583158,
				"element": "C" 
			},
			{
				"x": 0.6457942696,
				"y": 0.9830705806,
				"z": 1.5733643274,
				"element": "C" 
			},
			{
				"x": 0.0627334041,
				"y": 0.4022817622,
				"z": 0.4422342269,
				"element": "C" 
			},
			{
				"x": -0.2567156268,
				"y": 1.1649522293,
				"z": -0.658415907,
				"element": "O" 
			},
			{
				"x": -1.9498317834,
				"y": -0.386987085,
				"z": -1.6693886257,
				"element": "H" 
			},
			{
				"x": -1.5700041124,
				"y": -1.9752809115,
				"z": -2.3903738126,
				"element": "H" 
			},
			{
				"x": -0.3330254004,
				"y": -0.6888655276,
				"z": -2.3481106076,
				"element": "H" 
			},
			{
				"x": -0.0732632731,
				"y": -2.7945680948,
				"z": 1.5407254494,
				"element": "H" 
			},
			{
				"x": 0.96596276,
				"y": -1.754489022,
				"z": 3.5547613188,
				"element": "H" 
			},
			{
				"x": 1.4274664403,
				"y": 0.7088752603,
				"z": 3.5583917571,
				"element": "H" 
			},
			{
				"x": 0.8405322298,
				"y": 2.0546978743,
				"z": 1.560600724,
				"element": "H" 
			},
			{
				"x": -0.0083734115,
				"y": 2.0793621861,
				"z": -0.4733240679,
				"element": "H" 
			}
		],
		 "valence_orbital": [ 
			{
				"type": "occ",
				"energy": -0.34646,
				"method": "rhf"
			},
			{
				"type": "occ",
				"energy": -0.31414,
				"method": "rhf"
			},
			{
				"type": "occ",
				"energy": -0.3084,
				"method": "rhf"
			},
			{
				"type": "occ",
				"energy": -0.23165,
				"method": "rhf"
			},
			{
				"type": "occ",
				"energy": -0.20029,
				"method": "rhf"
			},
			{
				"type": "unocc",
				"energy": 0.00827,
				"method": "rhf"
			},
			{
				"type": "unocc",
				"energy": 0.02179,
				"method": "rhf"
			},
			{
				"type": "unocc",
				"energy": 0.06571,
				"method": "rhf"
			},
			{
				"type": "unocc",
				"energy": 0.09164,
				"method": "rhf"
			},
			{
				"type": "unocc",
				"energy": 0.13112,
				"method": "rhf"
			}
		],
		"cosmo_sigma_profile": { 
			"-0.025": 0.0,
			"-0.024": 0.0,
			"-0.023": 0.0,
			"-0.022": 0.0,
			"-0.021": 0.0,
			"-0.02": 0.0,
			"-0.019": 0.0,
			"-0.018": 0.295972901138,
			"-0.017": 0.924532512643,
			"-0.016": 1.08612486258,
			"-0.015": 1.07199566227,
			"-0.014": 1.10699018134,
			"-0.013": 0.851938244151,
			"-0.012": 0.654031256516,
			"-0.011": 0.769500915903,
			"-0.01": 1.35276843117,
			"-0.009": 1.40306301347,
			"-0.008": 1.17844882324,
			"-0.007": 0.978387313339,
			"-0.006": 3.51904891102,
			"-0.005": 9.68468085188,
			"-0.004": 13.4467037808,
			"-0.003": 15.3330200768,
			"-0.002": 13.1055235914,
			"-0.001": 10.1804406484,
			"0.0": 7.79457306396,
			"0.001": 8.25939588847,
			"0.002": 8.83179578059,
			"0.003": 10.67050946,
			"0.004": 12.6305296146,
			"0.005": 11.9094949656,
			"0.006": 12.5483489949,
			"0.007": 6.16319675569,
			"0.008": 2.42956096507,
			"0.009": 1.79369113889,
			"0.01": 1.65093110292,
			"0.011": 0.578698815096,
			"0.012": 0.0,
			"0.013": 0.0,
			"0.014": 0.0,
			"0.015": 0.0,
			"0.016": 0.0,
			"0.017": 0.0,
			"0.018": 0.0,
			"0.019": 0.0,
			"0.02": 0.0,
			"0.021": 0.0,
			"0.022": 0.0,
			"0.023": 0.0,
			"0.024": 0.0,
			"0.025": 0.0
		}
	}
}
