{
	 "smiles": "COC1=CC=C(NC(=O)C=C/C2=CC(O)=C(O)C=C2)C=C1OC", 
	 "Tm": 474.15, 
	 "num_atms": 40, 
	 "gaussian": { 
		 "optdone": 1, 
		 "sigma_profile": "yes", 
		 "theory": "DFT", 
		 "functional": "B3LYP", 
		 "basiset": "6-31G**", 
		 "properties": { 
			 "R2extent": 9412.9675, 
			 "electric_dipole_moment_norm": 6.53122299497, 
			 "electric_quadrupole_moment_norm": 17.9889739874, 
			 "total_energy": -1088.88382501, 
			 "HOMO_LUMO_gap": 0.14534, 
			 "cosmo_polarized_energy": -23.8, 
			 "cosmo_cavitation_energy": 44.83, 
			 "cosmo_dispersion_energy": -30.61, 
			 "cosmo_repulsion_energy": 2.37, 
			 "cosmo_total_nonelectrostatic_energy": 16.58, 
			 "SMD_solvation_energy": 10.32 
		},
		"coords": [
			{
				"x": -2.2277493341,
				"y": 2.1094135989,
				"z": 4.9019508376,
				"element": "C" 
			},
			{
				"x": -0.8028068638,
				"y": 2.0564227938,
				"z": 4.8292281494,
				"element": "O" 
			},
			{
				"x": -0.282387832,
				"y": 1.7230675735,
				"z": 3.6005123446,
				"element": "C" 
			},
			{
				"x": 0.4262965613,
				"y": 2.6747159017,
				"z": 2.8761936735,
				"element": "C" 
			},
			{
				"x": 1.0374432641,
				"y": 2.3781186575,
				"z": 1.6555169839,
				"element": "C" 
			},
			{
				"x": 0.9205096337,
				"y": 1.0822862206,
				"z": 1.1415526904,
				"element": "C" 
			},
			{
				"x": 1.4907638932,
				"y": 0.6737396046,
				"z": -0.0811275169,
				"element": "N" 
			},
			{
				"x": 2.1962269573,
				"y": 1.4188876658,
				"z": -0.9995092676,
				"element": "C" 
			},
			{
				"x": 2.5010606692,
				"y": 2.5977418828,
				"z": -0.8447421511,
				"element": "O" 
			},
			{
				"x": 2.662482072,
				"y": 0.6751850506,
				"z": -2.2121644532,
				"element": "C" 
			},
			{
				"x": 2.0652439756,
				"y": -0.2848665745,
				"z": -2.9444925423,
				"element": "C" 
			},
			{
				"x": 0.7179141694,
				"y": -0.8767011296,
				"z": -2.8363000966,
				"element": "C" 
			},
			{
				"x": 0.5481551765,
				"y": -2.2275902725,
				"z": -3.1997453963,
				"element": "C" 
			},
			{
				"x": -0.7007121444,
				"y": -2.8341451828,
				"z": -3.1478489296,
				"element": "C" 
			},
			{
				"x": -0.8385513736,
				"y": -4.1444274684,
				"z": -3.4899612192,
				"element": "O" 
			},
			{
				"x": -1.8190005964,
				"y": -2.0804318716,
				"z": -2.7457816029,
				"element": "C" 
			},
			{
				"x": -3.0086760834,
				"y": -2.7671244729,
				"z": -2.7341474923,
				"element": "O" 
			},
			{
				"x": -1.672217327,
				"y": -0.7389314688,
				"z": -2.4073259114,
				"element": "C" 
			},
			{
				"x": -0.4136226484,
				"y": -0.1372074027,
				"z": -2.4526902234,
				"element": "C" 
			},
			{
				"x": 0.2064332511,
				"y": 0.1045426572,
				"z": 1.8611366854,
				"element": "C" 
			},
			{
				"x": -0.3869875594,
				"y": 0.4117152515,
				"z": 3.0846382068,
				"element": "C" 
			},
			{
				"x": -1.0786266321,
				"y": -0.4837534161,
				"z": 3.8516184089,
				"element": "O" 
			},
			{
				"x": -1.1523159562,
				"y": -1.82912567,
				"z": 3.41148203,
				"element": "C" 
			},
			{
				"x": -2.6778401217,
				"y": 1.1302136627,
				"z": 4.7099407235,
				"element": "H" 
			},
			{
				"x": -2.6312185067,
				"y": 2.8423346438,
				"z": 4.190336373,
				"element": "H" 
			},
			{
				"x": -2.4705186945,
				"y": 2.4268282382,
				"z": 5.9185793593,
				"element": "H" 
			},
			{
				"x": 0.5057755323,
				"y": 3.6716578235,
				"z": 3.298380906,
				"element": "H" 
			},
			{
				"x": 1.5902012925,
				"y": 3.1255690368,
				"z": 1.106171641,
				"element": "H" 
			},
			{
				"x": 1.3179789898,
				"y": -0.2868895951,
				"z": -0.3412466392,
				"element": "H" 
			},
			{
				"x": 3.6361660576,
				"y": 1.0307653159,
				"z": -2.5385670937,
				"element": "H" 
			},
			{
				"x": 2.659688604,
				"y": -0.6929007402,
				"z": -3.7620083206,
				"element": "H" 
			},
			{
				"x": 1.3950101017,
				"y": -2.8251013733,
				"z": -3.5231512904,
				"element": "H" 
			},
			{
				"x": -1.7776900964,
				"y": -4.3707764121,
				"z": -3.4150686051,
				"element": "H" 
			},
			{
				"x": -3.7332194783,
				"y": -2.1700481529,
				"z": -2.5101893672,
				"element": "H" 
			},
			{
				"x": -2.5441937397,
				"y": -0.1560629954,
				"z": -2.1188570083,
				"element": "H" 
			},
			{
				"x": -0.3201857353,
				"y": 0.9160026077,
				"z": -2.215539178,
				"element": "H" 
			},
			{
				"x": 0.129103142,
				"y": -0.8978779835,
				"z": 1.4541056333,
				"element": "H" 
			},
			{
				"x": -1.711609695,
				"y": -2.3671852415,
				"z": 4.1784714584,
				"element": "H" 
			},
			{
				"x": -1.6807785351,
				"y": -1.9167109265,
				"z": 2.4527123,
				"element": "H" 
			},
			{
				"x": -0.1550443896,
				"y": -2.2765498369,
				"z": 3.3118359003,
				"element": "H" 
			}
		],
		 "valence_orbital": [ 
			{
				"type": "occ",
				"energy": -0.25389,
				"method": "rhf"
			},
			{
				"type": "occ",
				"energy": -0.24247,
				"method": "rhf"
			},
			{
				"type": "occ",
				"energy": -0.23126,
				"method": "rhf"
			},
			{
				"type": "occ",
				"energy": -0.21967,
				"method": "rhf"
			},
			{
				"type": "occ",
				"energy": -0.19706,
				"method": "rhf"
			},
			{
				"type": "unocc",
				"energy": -0.05172,
				"method": "rhf"
			},
			{
				"type": "unocc",
				"energy": -0.00892,
				"method": "rhf"
			},
			{
				"type": "unocc",
				"energy": 0.0026,
				"method": "rhf"
			},
			{
				"type": "unocc",
				"energy": 0.01271,
				"method": "rhf"
			},
			{
				"type": "unocc",
				"energy": 0.03457,
				"method": "rhf"
			}
		],
		"cosmo_sigma_profile": { 
			"-0.025": 0.0,
			"-0.024": 0.0,
			"-0.023": 0.0,
			"-0.022": 0.0,
			"-0.021": 0.0,
			"-0.02": 0.0,
			"-0.019": 0.194700714131,
			"-0.018": 1.15799364683,
			"-0.017": 1.21942698778,
			"-0.016": 0.946351749633,
			"-0.015": 1.18024908073,
			"-0.014": 1.8146999096,
			"-0.013": 2.04624696829,
			"-0.012": 2.01184477565,
			"-0.011": 3.36149334811,
			"-0.01": 2.77877815933,
			"-0.009": 2.14345139739,
			"-0.008": 3.39788122417,
			"-0.007": 6.10501295218,
			"-0.006": 19.6072134707,
			"-0.005": 24.8961589481,
			"-0.004": 26.3302512441,
			"-0.003": 25.1934318062,
			"-0.002": 25.2439996568,
			"-0.001": 20.3331691118,
			"0.0": 18.6776769739,
			"0.001": 22.6915377154,
			"0.002": 25.0585643896,
			"0.003": 27.705390758,
			"0.004": 27.0762582519,
			"0.005": 18.5213189144,
			"0.006": 7.90813034082,
			"0.007": 7.12319769812,
			"0.008": 4.7894375694,
			"0.009": 4.82025793963,
			"0.01": 5.71058734498,
			"0.011": 6.16414383578,
			"0.012": 5.1535681538,
			"0.013": 3.36738180468,
			"0.014": 1.89959395198,
			"0.015": 0.286630271013,
			"0.016": 0.0,
			"0.017": 0.0,
			"0.018": 0.0,
			"0.019": 0.0,
			"0.02": 0.0,
			"0.021": 0.0,
			"0.022": 0.0,
			"0.023": 0.0,
			"0.024": 0.0,
			"0.025": 0.0
		}
	}
}
