{
	 "smiles": "COC(=O)C1=C(C)N=CC(=C1)[N+]([O-])=O", 
	 "Tm": 332.15, 
	 "num_atms": 22, 
	 "gaussian": { 
		 "optdone": 1, 
		 "sigma_profile": "yes", 
		 "theory": "DFT", 
		 "functional": "B3LYP", 
		 "basiset": "6-31G**", 
		 "properties": { 
			 "R2extent": 3527.9927, 
			 "electric_dipole_moment_norm": 3.40278131681, 
			 "electric_quadrupole_moment_norm": 16.9532941876, 
			 "total_energy": -719.976568284, 
			 "HOMO_LUMO_gap": 0.17937, 
			 "cosmo_polarized_energy": -10.39, 
			 "cosmo_cavitation_energy": 27.58, 
			 "cosmo_dispersion_energy": -20.11, 
			 "cosmo_repulsion_energy": 1.58, 
			 "cosmo_total_nonelectrostatic_energy": 9.05, 
			 "SMD_solvation_energy": 7.42 
		},
		"coords": [
			{
				"x": -2.4460491089,
				"y": 1.2635453859,
				"z": -1.3444604908,
				"element": "C" 
			},
			{
				"x": -1.1302640841,
				"y": 0.9425885777,
				"z": -0.8606887799,
				"element": "O" 
			},
			{
				"x": -1.0864568368,
				"y": 0.0351776135,
				"z": 0.1384593423,
				"element": "C" 
			},
			{
				"x": -2.0813903007,
				"y": -0.482193168,
				"z": 0.6061352904,
				"element": "O" 
			},
			{
				"x": 0.3171379951,
				"y": -0.2364460306,
				"z": 0.5765370074,
				"element": "C" 
			},
			{
				"x": 0.6090387723,
				"y": -1.1583094406,
				"z": 1.6176401272,
				"element": "C" 
			},
			{
				"x": -0.4399968386,
				"y": -1.9341536038,
				"z": 2.3649494509,
				"element": "C" 
			},
			{
				"x": 1.8772033759,
				"y": -1.3964432655,
				"z": 2.0052094537,
				"element": "N" 
			},
			{
				"x": 2.8821299387,
				"y": -0.7596210397,
				"z": 1.4059775347,
				"element": "C" 
			},
			{
				"x": 2.6671729544,
				"y": 0.1568757965,
				"z": 0.3783686339,
				"element": "C" 
			},
			{
				"x": 1.3756243753,
				"y": 0.4277291821,
				"z": -0.0474102353,
				"element": "C" 
			},
			{
				"x": 3.8041198414,
				"y": 0.8348422033,
				"z": -0.2530782257,
				"element": "N" 
			},
			{
				"x": 4.9282964736,
				"y": 0.5580426599,
				"z": 0.1623422632,
				"element": "O" 
			},
			{
				"x": 3.5589510732,
				"y": 1.6343069711,
				"z": -1.1550810226,
				"element": "O" 
			},
			{
				"x": -2.2946490985,
				"y": 1.9974598896,
				"z": -2.1352060139,
				"element": "H" 
			},
			{
				"x": -3.0573427343,
				"y": 1.6817148761,
				"z": -0.5412946035,
				"element": "H" 
			},
			{
				"x": -2.9381670348,
				"y": 0.3700779103,
				"z": -1.7357904189,
				"element": "H" 
			},
			{
				"x": -1.0349697224,
				"y": -2.5508804025,
				"z": 1.685703016,
				"element": "H" 
			},
			{
				"x": -1.1515897623,
				"y": -1.2652396002,
				"z": 2.8568237796,
				"element": "H" 
			},
			{
				"x": 0.0565320112,
				"y": -2.5627413187,
				"z": 3.1045389357,
				"element": "H" 
			},
			{
				"x": 3.8912207252,
				"y": -0.9754253557,
				"z": 1.7432567067,
				"element": "H" 
			},
			{
				"x": 1.202447985,
				"y": 1.1379921596,
				"z": -0.844531751,
				"element": "H" 
			}
		],
		 "valence_orbital": [ 
			{
				"type": "occ",
				"energy": -0.31603,
				"method": "rhf"
			},
			{
				"type": "occ",
				"energy": -0.30275,
				"method": "rhf"
			},
			{
				"type": "occ",
				"energy": -0.2932,
				"method": "rhf"
			},
			{
				"type": "occ",
				"energy": -0.29054,
				"method": "rhf"
			},
			{
				"type": "occ",
				"energy": -0.28046,
				"method": "rhf"
			},
			{
				"type": "unocc",
				"energy": -0.10109,
				"method": "rhf"
			},
			{
				"type": "unocc",
				"energy": -0.07638,
				"method": "rhf"
			},
			{
				"type": "unocc",
				"energy": -0.02671,
				"method": "rhf"
			},
			{
				"type": "unocc",
				"energy": 0.03482,
				"method": "rhf"
			},
			{
				"type": "unocc",
				"energy": 0.08841,
				"method": "rhf"
			}
		],
		"cosmo_sigma_profile": { 
			"-0.025": 0.0,
			"-0.024": 0.0,
			"-0.023": 0.0,
			"-0.022": 0.0,
			"-0.021": 0.0,
			"-0.02": 0.0,
			"-0.019": 0.0,
			"-0.018": 0.0,
			"-0.017": 0.0,
			"-0.016": 0.0,
			"-0.015": 0.0,
			"-0.014": 0.0,
			"-0.013": 0.0,
			"-0.012": 0.0,
			"-0.011": 0.0,
			"-0.01": 0.0,
			"-0.009": 0.369634952101,
			"-0.008": 1.68903687687,
			"-0.007": 4.90455105865,
			"-0.006": 10.0295307323,
			"-0.005": 16.6153153709,
			"-0.004": 29.2684522891,
			"-0.003": 29.3403617705,
			"-0.002": 20.973688363,
			"-0.001": 15.1594215434,
			"0.0": 11.8121922967,
			"0.001": 9.36194241534,
			"0.002": 7.15660253569,
			"0.003": 8.23589696742,
			"0.004": 6.55279060699,
			"0.005": 5.73708445656,
			"0.006": 8.48830535372,
			"0.007": 11.6467852339,
			"0.008": 7.97982236605,
			"0.009": 5.29143167254,
			"0.01": 4.2407396657,
			"0.011": 3.328132878,
			"0.012": 1.33196036809,
			"0.013": 0.827055092016,
			"0.014": 0.369191981252,
			"0.015": 0.0,
			"0.016": 0.0,
			"0.017": 0.0,
			"0.018": 0.0,
			"0.019": 0.0,
			"0.02": 0.0,
			"0.021": 0.0,
			"0.022": 0.0,
			"0.023": 0.0,
			"0.024": 0.0,
			"0.025": 0.0
		}
	}
}
