{
	 "smiles": "CC1CNC(C)CN1", 
	 "Tm": 389.15, 
	 "num_atms": 22, 
	 "gaussian": { 
		 "optdone": 1, 
		 "sigma_profile": "yes", 
		 "theory": "DFT", 
		 "functional": "B3LYP", 
		 "basiset": "6-31G**", 
		 "properties": { 
			 "R2extent": 1270.5507, 
			 "electric_dipole_moment_norm": 1.83072585878, 
			 "electric_quadrupole_moment_norm": 2.65179858209, 
			 "total_energy": -346.575758794, 
			 "HOMO_LUMO_gap": 0.2785, 
			 "cosmo_polarized_energy": -6.43, 
			 "cosmo_cavitation_energy": 22.16, 
			 "cosmo_dispersion_energy": -16.65, 
			 "cosmo_repulsion_energy": 1.38, 
			 "cosmo_total_nonelectrostatic_energy": 6.89, 
			 "SMD_solvation_energy": -0.12 
		},
		"coords": [
			{
				"x": 2.5836879237,
				"y": 2.0563620748,
				"z": -1.101789401,
				"element": "C" 
			},
			{
				"x": 1.1914406321,
				"y": 1.4356266123,
				"z": -1.187824202,
				"element": "C" 
			},
			{
				"x": 1.1968388532,
				"y": 0.1114461991,
				"z": -1.9726355704,
				"element": "C" 
			},
			{
				"x": -0.0937776323,
				"y": -0.5875193442,
				"z": -1.9795074171,
				"element": "N" 
			},
			{
				"x": -0.6809200831,
				"y": -0.7346917672,
				"z": -0.6312653393,
				"element": "C" 
			},
			{
				"x": 0.0235758922,
				"y": -1.848745288,
				"z": 0.1521472663,
				"element": "C" 
			},
			{
				"x": -0.6759938902,
				"y": 0.6062944109,
				"z": 0.1315955988,
				"element": "C" 
			},
			{
				"x": 0.6828130157,
				"y": 1.1497182028,
				"z": 0.157717366,
				"element": "N" 
			},
			{
				"x": 3.2726818137,
				"y": 1.3789365145,
				"z": -0.5870580568,
				"element": "H" 
			},
			{
				"x": 2.5627663628,
				"y": 3.0018577967,
				"z": -0.5471094322,
				"element": "H" 
			},
			{
				"x": 2.9809573778,
				"y": 2.266717969,
				"z": -2.1002560612,
				"element": "H" 
			},
			{
				"x": 0.5211684693,
				"y": 2.1376337207,
				"z": -1.7293977915,
				"element": "H" 
			},
			{
				"x": 1.9525467517,
				"y": -0.5498829207,
				"z": -1.5314330451,
				"element": "H" 
			},
			{
				"x": 1.4941595334,
				"y": 0.2935554093,
				"z": -3.0119090837,
				"element": "H" 
			},
			{
				"x": -0.7438384066,
				"y": -0.0520418487,
				"z": -2.5522274496,
				"element": "H" 
			},
			{
				"x": -1.7260588513,
				"y": -1.0331370123,
				"z": -0.7831187823,
				"element": "H" 
			},
			{
				"x": -0.5275405455,
				"y": -2.0743617496,
				"z": 1.0714781305,
				"element": "H" 
			},
			{
				"x": 0.0784450631,
				"y": -2.7573236866,
				"z": -0.4535396256,
				"element": "H" 
			},
			{
				"x": 1.0356236467,
				"y": -1.5524348703,
				"z": 0.4387261021,
				"element": "H" 
			},
			{
				"x": -1.3944714102,
				"y": 1.2904234131,
				"z": -0.363851295,
				"element": "H" 
			},
			{
				"x": -1.0200715988,
				"y": 0.4634137409,
				"z": 1.1628773294,
				"element": "H" 
			},
			{
				"x": 0.7104670828,
				"y": 1.9933524234,
				"z": 0.7242807597,
				"element": "H" 
			}
		],
		 "valence_orbital": [ 
			{
				"type": "occ",
				"energy": -0.33171,
				"method": "rhf"
			},
			{
				"type": "occ",
				"energy": -0.32521,
				"method": "rhf"
			},
			{
				"type": "occ",
				"energy": -0.31746,
				"method": "rhf"
			},
			{
				"type": "occ",
				"energy": -0.22713,
				"method": "rhf"
			},
			{
				"type": "occ",
				"energy": -0.20401,
				"method": "rhf"
			},
			{
				"type": "unocc",
				"energy": 0.07449,
				"method": "rhf"
			},
			{
				"type": "unocc",
				"energy": 0.10102,
				"method": "rhf"
			},
			{
				"type": "unocc",
				"energy": 0.11772,
				"method": "rhf"
			},
			{
				"type": "unocc",
				"energy": 0.12423,
				"method": "rhf"
			},
			{
				"type": "unocc",
				"energy": 0.14148,
				"method": "rhf"
			}
		],
		"cosmo_sigma_profile": { 
			"-0.025": 0.0,
			"-0.024": 0.0,
			"-0.023": 0.0,
			"-0.022": 0.0,
			"-0.021": 0.0,
			"-0.02": 0.0,
			"-0.019": 0.0,
			"-0.018": 0.0,
			"-0.017": 0.0,
			"-0.016": 0.0,
			"-0.015": 0.0,
			"-0.014": 0.0,
			"-0.013": 0.0,
			"-0.012": 0.0,
			"-0.011": 0.0,
			"-0.01": 0.219393024315,
			"-0.009": 2.0363515248,
			"-0.008": 2.62400126401,
			"-0.007": 2.8770344932,
			"-0.006": 2.69937517065,
			"-0.005": 3.67602933349,
			"-0.004": 6.21313293473,
			"-0.003": 16.9173023909,
			"-0.002": 24.9189838055,
			"-0.001": 29.0259097803,
			"0.0": 23.5354069405,
			"0.001": 19.2678950469,
			"0.002": 10.8940703858,
			"0.003": 3.1394006803,
			"0.004": 2.39507919794,
			"0.005": 2.81604471433,
			"0.006": 2.24389252001,
			"0.007": 1.16574426451,
			"0.008": 2.13303443503,
			"0.009": 0.882766147263,
			"0.01": 1.88614687999,
			"0.011": 1.76893712005,
			"0.012": 0.805402894545,
			"0.013": 1.18844830376,
			"0.014": 1.30550196306,
			"0.015": 1.0266712602,
			"0.016": 0.642669505686,
			"0.017": 0.467444892123,
			"0.018": 0.63623789167,
			"0.019": 0.175402182483,
			"0.02": 0.0,
			"0.021": 0.0,
			"0.022": 0.0,
			"0.023": 0.0,
			"0.024": 0.0,
			"0.025": 0.0
		}
	}
}
