{
	 "smiles": "CC1=CC(N)=CC=C1Cl", 
	 "Tm": 356.95, 
	 "num_atms": 17, 
	 "gaussian": { 
		 "optdone": 1, 
		 "sigma_profile": "yes", 
		 "theory": "DFT", 
		 "functional": "B3LYP", 
		 "basiset": "6-31G**", 
		 "properties": { 
			 "R2extent": 2148.1893, 
			 "electric_dipole_moment_norm": 3.31328947724, 
			 "electric_quadrupole_moment_norm": 7.50064576287, 
			 "total_energy": -786.52184791, 
			 "HOMO_LUMO_gap": 0.1994, 
			 "cosmo_polarized_energy": -8.5, 
			 "cosmo_cavitation_energy": 22.1, 
			 "cosmo_dispersion_energy": -16.61, 
			 "cosmo_repulsion_energy": 1.36, 
			 "cosmo_total_nonelectrostatic_energy": 6.85, 
			 "SMD_solvation_energy": 3.53 
		},
		"coords": [
			{
				"x": 0.7763410505,
				"y": -2.9195738151,
				"z": -1.1246776061,
				"element": "C" 
			},
			{
				"x": -0.0592078734,
				"y": -1.7359744733,
				"z": -0.7082584189,
				"element": "C" 
			},
			{
				"x": 0.4830256954,
				"y": -0.4471317612,
				"z": -0.7130826408,
				"element": "C" 
			},
			{
				"x": -0.2596657995,
				"y": 0.6827479253,
				"z": -0.3335472711,
				"element": "C" 
			},
			{
				"x": 0.3349838652,
				"y": 1.9454513765,
				"z": -0.2964151094,
				"element": "N" 
			},
			{
				"x": -1.5943838449,
				"y": 0.5030203034,
				"z": 0.0628618436,
				"element": "C" 
			},
			{
				"x": -2.1557315948,
				"y": -0.7699638904,
				"z": 0.0752690846,
				"element": "C" 
			},
			{
				"x": -1.3963017782,
				"y": -1.8736853379,
				"z": -0.3061546002,
				"element": "C" 
			},
			{
				"x": -2.1525631354,
				"y": -3.4697546811,
				"z": -0.2782084444,
				"element": "Cl" 
			},
			{
				"x": 0.3295711323,
				"y": -3.4413283647,
				"z": -1.9777754119,
				"element": "H" 
			},
			{
				"x": 1.7850749357,
				"y": -2.6053231118,
				"z": -1.4040367264,
				"element": "H" 
			},
			{
				"x": 0.8568242411,
				"y": -3.6525172557,
				"z": -0.3148009979,
				"element": "H" 
			},
			{
				"x": 1.519503515,
				"y": -0.3201262185,
				"z": -1.0177396709,
				"element": "H" 
			},
			{
				"x": 1.1347744262,
				"y": 2.0620753729,
				"z": -0.9031737376,
				"element": "H" 
			},
			{
				"x": -0.30585112,
				"y": 2.7238212471,
				"z": -0.3662808053,
				"element": "H" 
			},
			{
				"x": -2.1913286751,
				"y": 1.3590480642,
				"z": 0.3661347411,
				"element": "H" 
			},
			{
				"x": -3.1875650401,
				"y": -0.9082853796,
				"z": 0.3797857715,
				"element": "H" 
			}
		],
		 "valence_orbital": [ 
			{
				"type": "occ",
				"energy": -0.34448,
				"method": "rhf"
			},
			{
				"type": "occ",
				"energy": -0.30044,
				"method": "rhf"
			},
			{
				"type": "occ",
				"energy": -0.28761,
				"method": "rhf"
			},
			{
				"type": "occ",
				"energy": -0.24702,
				"method": "rhf"
			},
			{
				"type": "occ",
				"energy": -0.20113,
				"method": "rhf"
			},
			{
				"type": "unocc",
				"energy": -0.00173,
				"method": "rhf"
			},
			{
				"type": "unocc",
				"energy": 0.01063,
				"method": "rhf"
			},
			{
				"type": "unocc",
				"energy": 0.04082,
				"method": "rhf"
			},
			{
				"type": "unocc",
				"energy": 0.0805,
				"method": "rhf"
			},
			{
				"type": "unocc",
				"energy": 0.11305,
				"method": "rhf"
			}
		],
		"cosmo_sigma_profile": { 
			"-0.025": 0.0,
			"-0.024": 0.0,
			"-0.023": 0.0,
			"-0.022": 0.0,
			"-0.021": 0.0,
			"-0.02": 0.0,
			"-0.019": 0.0,
			"-0.018": 0.0,
			"-0.017": 0.0,
			"-0.016": 0.0,
			"-0.015": 0.0,
			"-0.014": 0.0,
			"-0.013": 0.442180623618,
			"-0.012": 2.767084054,
			"-0.011": 2.42437713948,
			"-0.01": 3.20315459458,
			"-0.009": 3.38815078374,
			"-0.008": 3.37172694013,
			"-0.007": 3.1174388309,
			"-0.006": 6.31520862297,
			"-0.005": 7.98016291454,
			"-0.004": 10.6295332203,
			"-0.003": 9.67272237946,
			"-0.002": 10.4684683912,
			"-0.001": 12.8181491249,
			"0.0": 13.6313526408,
			"0.001": 11.8972749435,
			"0.002": 10.7130363195,
			"0.003": 12.6151378528,
			"0.004": 15.4387191645,
			"0.005": 19.399810623,
			"0.006": 10.8295790992,
			"0.007": 0.94925110002,
			"0.008": 0.788348530454,
			"0.009": 0.970801428298,
			"0.01": 0.496845339922,
			"0.011": 0.660321208659,
			"0.012": 1.04431469393,
			"0.013": 0.383334404041,
			"0.014": 0.613432134385,
			"0.015": 0.116996797139,
			"0.016": 0.0,
			"0.017": 0.0,
			"0.018": 0.0,
			"0.019": 0.0,
			"0.02": 0.0,
			"0.021": 0.0,
			"0.022": 0.0,
			"0.023": 0.0,
			"0.024": 0.0,
			"0.025": 0.0
		}
	}
}
