{
	 "smiles": "CC1(C)CCC(=O)CC1", 
	 "Tm": 315.15, 
	 "num_atms": 23, 
	 "gaussian": { 
		 "optdone": 1, 
		 "sigma_profile": "yes", 
		 "theory": "DFT", 
		 "functional": "B3LYP", 
		 "basiset": "6-31G**", 
		 "properties": { 
			 "R2extent": 1949.4849, 
			 "electric_dipole_moment_norm": 3.07306937279, 
			 "electric_quadrupole_moment_norm": 7.73586497491, 
			 "total_energy": -388.526183992, 
			 "HOMO_LUMO_gap": 0.22478, 
			 "cosmo_polarized_energy": -7.02, 
			 "cosmo_cavitation_energy": 23.54, 
			 "cosmo_dispersion_energy": -17.12, 
			 "cosmo_repulsion_energy": 1.39, 
			 "cosmo_total_nonelectrostatic_energy": 7.81, 
			 "SMD_solvation_energy": 4.24 
		},
		"coords": [
			{
				"x": -2.187584264,
				"y": 2.0568381137,
				"z": -2.4174643772,
				"element": "C" 
			},
			{
				"x": -1.2145167321,
				"y": 1.6214518067,
				"z": -1.3059621447,
				"element": "C" 
			},
			{
				"x": -1.4464229327,
				"y": 2.4982459414,
				"z": -0.0612202079,
				"element": "C" 
			},
			{
				"x": 0.2478014963,
				"y": 1.7994496646,
				"z": -1.8179794107,
				"element": "C" 
			},
			{
				"x": 1.2383813409,
				"y": 0.8025706823,
				"z": -1.1979357727,
				"element": "C" 
			},
			{
				"x": 0.8585155275,
				"y": -0.6361812684,
				"z": -1.5346934417,
				"element": "C" 
			},
			{
				"x": 1.678366391,
				"y": -1.5290010179,
				"z": -1.6251340827,
				"element": "O" 
			},
			{
				"x": -0.6351473426,
				"y": -0.8620543572,
				"z": -1.748571476,
				"element": "C" 
			},
			{
				"x": -1.4713835967,
				"y": 0.1305773498,
				"z": -0.9270540612,
				"element": "C" 
			},
			{
				"x": -2.1212307717,
				"y": 1.3954072769,
				"z": -3.2891258963,
				"element": "H" 
			},
			{
				"x": -3.2245177093,
				"y": 2.0414311622,
				"z": -2.0633118551,
				"element": "H" 
			},
			{
				"x": -1.9653763774,
				"y": 3.0745599591,
				"z": -2.7584477077,
				"element": "H" 
			},
			{
				"x": -0.7093894428,
				"y": 2.2846621647,
				"z": 0.721651299,
				"element": "H" 
			},
			{
				"x": -1.3732716765,
				"y": 3.5632609842,
				"z": -0.3087522138,
				"element": "H" 
			},
			{
				"x": -2.4405790191,
				"y": 2.3211456073,
				"z": 0.3650249025,
				"element": "H" 
			},
			{
				"x": 0.5792917511,
				"y": 2.8274840283,
				"z": -1.6323036543,
				"element": "H" 
			},
			{
				"x": 0.2695506539,
				"y": 1.6704351829,
				"z": -2.9078039252,
				"element": "H" 
			},
			{
				"x": 2.2680277274,
				"y": 0.9753555678,
				"z": -1.5241801878,
				"element": "H" 
			},
			{
				"x": 1.239069316,
				"y": 0.8947710907,
				"z": -0.1017225848,
				"element": "H" 
			},
			{
				"x": -0.8366157906,
				"y": -0.735729502,
				"z": -2.8226432503,
				"element": "H" 
			},
			{
				"x": -0.8664268098,
				"y": -1.9042609659,
				"z": -1.5102806084,
				"element": "H" 
			},
			{
				"x": -2.5385446349,
				"y": -0.0962805812,
				"z": -1.0316157724,
				"element": "H" 
			},
			{
				"x": -1.2361971041,
				"y": -0.02033889,
				"z": 0.1344264293,
				"element": "H" 
			}
		],
		 "valence_orbital": [ 
			{
				"type": "occ",
				"energy": -0.34291,
				"method": "rhf"
			},
			{
				"type": "occ",
				"energy": -0.31671,
				"method": "rhf"
			},
			{
				"type": "occ",
				"energy": -0.31541,
				"method": "rhf"
			},
			{
				"type": "occ",
				"energy": -0.3099,
				"method": "rhf"
			},
			{
				"type": "occ",
				"energy": -0.23374,
				"method": "rhf"
			},
			{
				"type": "unocc",
				"energy": -0.00896,
				"method": "rhf"
			},
			{
				"type": "unocc",
				"energy": 0.06594,
				"method": "rhf"
			},
			{
				"type": "unocc",
				"energy": 0.104,
				"method": "rhf"
			},
			{
				"type": "unocc",
				"energy": 0.11449,
				"method": "rhf"
			},
			{
				"type": "unocc",
				"energy": 0.13076,
				"method": "rhf"
			}
		],
		"cosmo_sigma_profile": { 
			"-0.025": 0.0,
			"-0.024": 0.0,
			"-0.023": 0.0,
			"-0.022": 0.0,
			"-0.021": 0.0,
			"-0.02": 0.0,
			"-0.019": 0.0,
			"-0.018": 0.0,
			"-0.017": 0.0,
			"-0.016": 0.0,
			"-0.015": 0.0,
			"-0.014": 0.0,
			"-0.013": 0.0,
			"-0.012": 0.0,
			"-0.011": 0.0,
			"-0.01": 0.0,
			"-0.009": 0.0,
			"-0.008": 0.0,
			"-0.007": 0.0,
			"-0.006": 1.28931949645,
			"-0.005": 9.53935925283,
			"-0.004": 13.5477301029,
			"-0.003": 20.1308622447,
			"-0.002": 31.4936395456,
			"-0.001": 32.4348138628,
			"0.0": 22.4620690739,
			"0.001": 16.8186010727,
			"0.002": 8.75047613157,
			"0.003": 1.73669880869,
			"0.004": 1.63673837102,
			"0.005": 1.11533393412,
			"0.006": 1.42707980307,
			"0.007": 1.73465885652,
			"0.008": 1.55079483018,
			"0.009": 1.25660658758,
			"0.01": 2.45165382486,
			"0.011": 2.38817623038,
			"0.012": 4.24196415583,
			"0.013": 4.02488781432,
			"0.014": 1.20634964605,
			"0.015": 0.0,
			"0.016": 0.0,
			"0.017": 0.0,
			"0.018": 0.0,
			"0.019": 0.0,
			"0.02": 0.0,
			"0.021": 0.0,
			"0.022": 0.0,
			"0.023": 0.0,
			"0.024": 0.0,
			"0.025": 0.0
		}
	}
}
