{
	 "smiles": "CC1C2CCC3C4CC=C5CC(CCC5(C)C4CCC23CN1C)N(C)C", 
	 "Tm": 399.15, 
	 "num_atms": 66, 
	 "gaussian": { 
		 "optdone": 1, 
		 "sigma_profile": "yes", 
		 "theory": "DFT", 
		 "functional": "B3LYP", 
		 "basiset": "6-31G**", 
		 "properties": { 
			 "R2extent": 12693.8904, 
			 "electric_dipole_moment_norm": 0.42986003536, 
			 "electric_quadrupole_moment_norm": 6.13325346207, 
			 "total_energy": -1048.11836268, 
			 "HOMO_LUMO_gap": 0.21262, 
			 "cosmo_polarized_energy": -4.98, 
			 "cosmo_cavitation_energy": 54.58, 
			 "cosmo_dispersion_energy": -37.7, 
			 "cosmo_repulsion_energy": 2.76, 
			 "cosmo_total_nonelectrostatic_energy": 19.64, 
			 "SMD_solvation_energy": 4.23 
		},
		"coords": [
			{
				"x": 2.5279622046,
				"y": -0.6092272007,
				"z": -4.558933516,
				"element": "C" 
			},
			{
				"x": 3.514108876,
				"y": -0.5504698776,
				"z": -3.377213093,
				"element": "C" 
			},
			{
				"x": 3.1781533771,
				"y": 0.3725810097,
				"z": -2.198018737,
				"element": "C" 
			},
			{
				"x": 2.5647113851,
				"y": 1.7639407766,
				"z": -2.1480996642,
				"element": "C" 
			},
			{
				"x": 2.3913463771,
				"y": 1.931349791,
				"z": -0.6018063553,
				"element": "C" 
			},
			{
				"x": 2.3793425551,
				"y": 0.4813503424,
				"z": 0.0382753904,
				"element": "C" 
			},
			{
				"x": 1.2310107321,
				"y": 0.2033497247,
				"z": 1.0247527209,
				"element": "C" 
			},
			{
				"x": 1.3929197746,
				"y": 0.8992697218,
				"z": 2.3807016086,
				"element": "C" 
			},
			{
				"x": 0.1469810267,
				"y": 0.7892155676,
				"z": 3.2192120897,
				"element": "C" 
			},
			{
				"x": -1.0444439048,
				"y": 0.3703425491,
				"z": 2.7685646734,
				"element": "C" 
			},
			{
				"x": -2.2852590238,
				"y": 0.4477590102,
				"z": 3.6227903938,
				"element": "C" 
			},
			{
				"x": -3.1371934202,
				"y": 1.6766421309,
				"z": 3.1651534524,
				"element": "C" 
			},
			{
				"x": -3.0478093212,
				"y": 1.8340531646,
				"z": 1.6214644058,
				"element": "C" 
			},
			{
				"x": -2.6886040732,
				"y": 0.5316998074,
				"z": 0.8903804981,
				"element": "C" 
			},
			{
				"x": -1.2963017884,
				"y": -0.0499767297,
				"z": 1.3135684473,
				"element": "C" 
			},
			{
				"x": -1.3743365345,
				"y": -1.5930805833,
				"z": 1.2188468201,
				"element": "C" 
			},
			{
				"x": -0.1549604969,
				"y": 0.5351126335,
				"z": 0.4226552982,
				"element": "C" 
			},
			{
				"x": -0.2094703037,
				"y": 0.1613176936,
				"z": -1.0865844191,
				"element": "C" 
			},
			{
				"x": 0.8794390493,
				"y": -0.8339660901,
				"z": -1.5294148015,
				"element": "C" 
			},
			{
				"x": 2.3625743396,
				"y": -0.4710467569,
				"z": -1.1903972055,
				"element": "C" 
			},
			{
				"x": 3.2130062699,
				"y": -1.7597179318,
				"z": -1.2471778794,
				"element": "C" 
			},
			{
				"x": 3.7432463213,
				"y": -1.8022854227,
				"z": -2.6262715442,
				"element": "N" 
			},
			{
				"x": 3.795164587,
				"y": -3.0685201853,
				"z": -3.3118328459,
				"element": "C" 
			},
			{
				"x": -4.5262653538,
				"y": 1.7069683055,
				"z": 3.6491533686,
				"element": "N" 
			},
			{
				"x": -5.3975346369,
				"y": 0.6463600825,
				"z": 3.1658833494,
				"element": "C" 
			},
			{
				"x": -4.6262793859,
				"y": 1.8638059477,
				"z": 5.0927235301,
				"element": "C" 
			},
			{
				"x": 2.9139191597,
				"y": -1.2674904495,
				"z": -5.344521929,
				"element": "H" 
			},
			{
				"x": 1.532208731,
				"y": -0.9677329694,
				"z": -4.2930723951,
				"element": "H" 
			},
			{
				"x": 2.4212018382,
				"y": 0.3891588069,
				"z": -4.9982144577,
				"element": "H" 
			},
			{
				"x": 4.4726307343,
				"y": -0.2261684934,
				"z": -3.8170369844,
				"element": "H" 
			},
			{
				"x": 4.1527028385,
				"y": 0.4881968406,
				"z": -1.6963008715,
				"element": "H" 
			},
			{
				"x": 1.6043216915,
				"y": 1.8139596149,
				"z": -2.6713846914,
				"element": "H" 
			},
			{
				"x": 3.2071358502,
				"y": 2.5423105005,
				"z": -2.5728467005,
				"element": "H" 
			},
			{
				"x": 1.4893251927,
				"y": 2.4992954338,
				"z": -0.3592442563,
				"element": "H" 
			},
			{
				"x": 3.231545775,
				"y": 2.5050487273,
				"z": -0.1979331952,
				"element": "H" 
			},
			{
				"x": 3.3266082329,
				"y": 0.3353505677,
				"z": 0.5745024905,
				"element": "H" 
			},
			{
				"x": 1.2618570977,
				"y": -0.8764942906,
				"z": 1.224667145,
				"element": "H" 
			},
			{
				"x": 1.6343405694,
				"y": 1.9647748045,
				"z": 2.2340108386,
				"element": "H" 
			},
			{
				"x": 2.2539866703,
				"y": 0.4782093356,
				"z": 2.9192901763,
				"element": "H" 
			},
			{
				"x": 0.2279430377,
				"y": 1.110131656,
				"z": 4.2583107114,
				"element": "H" 
			},
			{
				"x": -2.8805845958,
				"y": -0.468250367,
				"z": 3.5173127737,
				"element": "H" 
			},
			{
				"x": -2.0267933728,
				"y": 0.5383512132,
				"z": 4.6823025374,
				"element": "H" 
			},
			{
				"x": -2.6654257223,
				"y": 2.5610658069,
				"z": 3.610539106,
				"element": "H" 
			},
			{
				"x": -2.2829803203,
				"y": 2.585931984,
				"z": 1.3947539861,
				"element": "H" 
			},
			{
				"x": -3.9922683119,
				"y": 2.2440925721,
				"z": 1.2489896292,
				"element": "H" 
			},
			{
				"x": -3.4623278588,
				"y": -0.2197608071,
				"z": 1.0866897063,
				"element": "H" 
			},
			{
				"x": -2.7076078255,
				"y": 0.697567597,
				"z": -0.1923072073,
				"element": "H" 
			},
			{
				"x": -2.1281356513,
				"y": -1.9836479449,
				"z": 1.9104546465,
				"element": "H" 
			},
			{
				"x": -1.6643989953,
				"y": -1.9119538222,
				"z": 0.2114399121,
				"element": "H" 
			},
			{
				"x": -0.4247072979,
				"y": -2.0728284364,
				"z": 1.4698481342,
				"element": "H" 
			},
			{
				"x": -0.2771595281,
				"y": 1.6242944816,
				"z": 0.4933494779,
				"element": "H" 
			},
			{
				"x": -1.1816329723,
				"y": -0.2766859145,
				"z": -1.3403124085,
				"element": "H" 
			},
			{
				"x": -0.1445139019,
				"y": 1.075418917,
				"z": -1.6847017897,
				"element": "H" 
			},
			{
				"x": 0.6699949845,
				"y": -1.7847329006,
				"z": -1.0245626632,
				"element": "H" 
			},
			{
				"x": 0.7573739227,
				"y": -1.0433415068,
				"z": -2.5932829072,
				"element": "H" 
			},
			{
				"x": 4.0368054917,
				"y": -1.721706477,
				"z": -0.5130398113,
				"element": "H" 
			},
			{
				"x": 2.6295632319,
				"y": -2.6637108882,
				"z": -1.0266933606,
				"element": "H" 
			},
			{
				"x": 4.2807759791,
				"y": -3.8189811112,
				"z": -2.6764330035,
				"element": "H" 
			},
			{
				"x": 2.8111327631,
				"y": -3.4791977501,
				"z": -3.6118368956,
				"element": "H" 
			},
			{
				"x": 4.4045464573,
				"y": -2.9795660925,
				"z": -4.2189817533,
				"element": "H" 
			},
			{
				"x": -5.1457820295,
				"y": -0.3624462477,
				"z": 3.5446756577,
				"element": "H" 
			},
			{
				"x": -5.3872619663,
				"y": 0.6095390478,
				"z": 2.073574689,
				"element": "H" 
			},
			{
				"x": -6.4259727218,
				"y": 0.8612097502,
				"z": 3.4767247161,
				"element": "H" 
			},
			{
				"x": -4.3130850959,
				"y": 0.9743180591,
				"z": 5.6711817563,
				"element": "H" 
			},
			{
				"x": -5.6652765509,
				"y": 2.0815935213,
				"z": 5.3649110345,
				"element": "H" 
			},
			{
				"x": -4.0096141627,
				"y": 2.7090497504,
				"z": 5.4167021703,
				"element": "H" 
			}
		],
		 "valence_orbital": [ 
			{
				"type": "occ",
				"energy": -0.2736,
				"method": "rhf"
			},
			{
				"type": "occ",
				"energy": -0.26356,
				"method": "rhf"
			},
			{
				"type": "occ",
				"energy": -0.23086,
				"method": "rhf"
			},
			{
				"type": "occ",
				"energy": -0.19494,
				"method": "rhf"
			},
			{
				"type": "occ",
				"energy": -0.17984,
				"method": "rhf"
			},
			{
				"type": "unocc",
				"energy": 0.03278,
				"method": "rhf"
			},
			{
				"type": "unocc",
				"energy": 0.06855,
				"method": "rhf"
			},
			{
				"type": "unocc",
				"energy": 0.0759,
				"method": "rhf"
			},
			{
				"type": "unocc",
				"energy": 0.08373,
				"method": "rhf"
			},
			{
				"type": "unocc",
				"energy": 0.09307,
				"method": "rhf"
			}
		],
		"cosmo_sigma_profile": { 
			"-0.025": 0.0,
			"-0.024": 0.0,
			"-0.023": 0.0,
			"-0.022": 0.0,
			"-0.021": 0.0,
			"-0.02": 0.0,
			"-0.019": 0.0,
			"-0.018": 0.0,
			"-0.017": 0.0,
			"-0.016": 0.0,
			"-0.015": 0.0,
			"-0.014": 0.0,
			"-0.013": 0.0,
			"-0.012": 0.0,
			"-0.011": 0.0,
			"-0.01": 0.0,
			"-0.009": 0.0,
			"-0.008": 0.0,
			"-0.007": 0.0,
			"-0.006": 0.0,
			"-0.005": 0.0,
			"-0.004": 2.8632963224,
			"-0.003": 30.1264035074,
			"-0.002": 70.7755879525,
			"-0.001": 92.4708745114,
			"0.0": 95.08769967,
			"0.001": 64.5287136071,
			"0.002": 26.9773200595,
			"0.003": 7.96854028176,
			"0.004": 5.54785616645,
			"0.005": 5.50285045075,
			"0.006": 3.57215026447,
			"0.007": 2.25395707282,
			"0.008": 2.22185684014,
			"0.009": 1.64831601502,
			"0.01": 1.01210712648,
			"0.011": 1.05849765454,
			"0.012": 1.15994694066,
			"0.013": 0.88183376977,
			"0.014": 0.722766552214,
			"0.015": 0.550734845744,
			"0.016": 0.484848753927,
			"0.017": 0.0,
			"0.018": 0.0,
			"0.019": 0.0,
			"0.02": 0.0,
			"0.021": 0.0,
			"0.022": 0.0,
			"0.023": 0.0,
			"0.024": 0.0,
			"0.025": 0.0
		}
	}
}
