{
	 "smiles": "CC1=CC(=NC(C)=C1)C#N", 
	 "Tm": 317.15, 
	 "num_atms": 18, 
	 "gaussian": { 
		 "optdone": 1, 
		 "sigma_profile": "yes", 
		 "theory": "DFT", 
		 "functional": "B3LYP", 
		 "basiset": "6-31G**", 
		 "properties": { 
			 "R2extent": 1762.1486, 
			 "electric_dipole_moment_norm": 6.14488718611, 
			 "electric_quadrupole_moment_norm": 16.4056549723, 
			 "total_energy": -419.167258967, 
			 "HOMO_LUMO_gap": 0.2092, 
			 "cosmo_polarized_energy": -10.91, 
			 "cosmo_cavitation_energy": 23.18, 
			 "cosmo_dispersion_energy": -16.4, 
			 "cosmo_repulsion_energy": 1.35, 
			 "cosmo_total_nonelectrostatic_energy": 8.13, 
			 "SMD_solvation_energy": 4.28 
		},
		"coords": [
			{
				"x": 2.9618794026,
				"y": 1.1718696142,
				"z": 0.5188369922,
				"element": "C" 
			},
			{
				"x": 1.5922496654,
				"y": 0.5429703421,
				"z": 0.5615354265,
				"element": "C" 
			},
			{
				"x": 1.3093475225,
				"y": -0.5089089327,
				"z": 1.4439654453,
				"element": "C" 
			},
			{
				"x": 0.0248599228,
				"y": -1.0545542646,
				"z": 1.4420470391,
				"element": "C" 
			},
			{
				"x": -0.9754646273,
				"y": -0.638287756,
				"z": 0.643499689,
				"element": "N" 
			},
			{
				"x": -0.7110684902,
				"y": 0.3649018827,
				"z": -0.2001144415,
				"element": "C" 
			},
			{
				"x": -1.8385611186,
				"y": 0.8250449615,
				"z": -1.090050972,
				"element": "C" 
			},
			{
				"x": 0.5554319168,
				"y": 0.9729417285,
				"z": -0.2647573252,
				"element": "C" 
			},
			{
				"x": -0.2833526365,
				"y": -2.1395322367,
				"z": 2.3452488431,
				"element": "C" 
			},
			{
				"x": -0.4985923869,
				"y": -3.0108456254,
				"z": 3.0836136914,
				"element": "N" 
			},
			{
				"x": 3.0113503872,
				"y": 1.9731290349,
				"z": -0.2224555265,
				"element": "H" 
			},
			{
				"x": 3.2298377238,
				"y": 1.5934507515,
				"z": 1.4938045165,
				"element": "H" 
			},
			{
				"x": 3.7265477299,
				"y": 0.4286181037,
				"z": 0.267966506,
				"element": "H" 
			},
			{
				"x": 2.0654953933,
				"y": -0.8982806052,
				"z": 2.1181606239,
				"element": "H" 
			},
			{
				"x": -2.0788626183,
				"y": 1.8787441908,
				"z": -0.9087980432,
				"element": "H" 
			},
			{
				"x": -2.7276454727,
				"y": 0.2235619857,
				"z": -0.8970088783,
				"element": "H" 
			},
			{
				"x": -1.5700043759,
				"y": 0.730751177,
				"z": -2.1481762252,
				"element": "H" 
			},
			{
				"x": 0.722552062,
				"y": 1.7853256479,
				"z": -0.9672173611,
				"element": "H" 
			}
		],
		 "valence_orbital": [ 
			{
				"type": "occ",
				"energy": -0.34151,
				"method": "rhf"
			},
			{
				"type": "occ",
				"energy": -0.33163,
				"method": "rhf"
			},
			{
				"type": "occ",
				"energy": -0.29154,
				"method": "rhf"
			},
			{
				"type": "occ",
				"energy": -0.27568,
				"method": "rhf"
			},
			{
				"type": "occ",
				"energy": -0.26679,
				"method": "rhf"
			},
			{
				"type": "unocc",
				"energy": -0.05759,
				"method": "rhf"
			},
			{
				"type": "unocc",
				"energy": -0.0352,
				"method": "rhf"
			},
			{
				"type": "unocc",
				"energy": 0.03859,
				"method": "rhf"
			},
			{
				"type": "unocc",
				"energy": 0.06788,
				"method": "rhf"
			},
			{
				"type": "unocc",
				"energy": 0.08602,
				"method": "rhf"
			}
		],
		"cosmo_sigma_profile": { 
			"-0.025": 0.0,
			"-0.024": 0.0,
			"-0.023": 0.0,
			"-0.022": 0.0,
			"-0.021": 0.0,
			"-0.02": 0.0,
			"-0.019": 0.0,
			"-0.018": 0.0,
			"-0.017": 0.0,
			"-0.016": 0.0,
			"-0.015": 0.0,
			"-0.014": 0.0,
			"-0.013": 0.0,
			"-0.012": 0.0,
			"-0.011": 0.0,
			"-0.01": 0.0,
			"-0.009": 0.132027820783,
			"-0.008": 2.02886833606,
			"-0.007": 4.40908100751,
			"-0.006": 7.35715955437,
			"-0.005": 16.171650687,
			"-0.004": 16.5666591137,
			"-0.003": 16.8020699251,
			"-0.002": 18.1888288204,
			"-0.001": 23.5791969325,
			"0.0": 19.7507696375,
			"0.001": 12.2019626041,
			"0.002": 4.77299069109,
			"0.003": 4.63683874168,
			"0.004": 4.75146914491,
			"0.005": 4.76843731633,
			"0.006": 3.83626182067,
			"0.007": 4.9278936303,
			"0.008": 4.26173584969,
			"0.009": 4.0290559825,
			"0.01": 4.56145208917,
			"0.011": 3.13951764306,
			"0.012": 3.04211415249,
			"0.013": 1.61995174301,
			"0.014": 0.302635142111,
			"0.015": 0.0,
			"0.016": 0.0,
			"0.017": 0.0,
			"0.018": 0.0,
			"0.019": 0.0,
			"0.02": 0.0,
			"0.021": 0.0,
			"0.022": 0.0,
			"0.023": 0.0,
			"0.024": 0.0,
			"0.025": 0.0
		}
	}
}
