{
	 "smiles": "NC1=C(C=CC=C1)C1=CC(F)=C(F)C(F)=C1", 
	 "Tm": 338.15, 
	 "num_atms": 24, 
	 "gaussian": { 
		 "optdone": 1, 
		 "sigma_profile": "yes", 
		 "theory": "DFT", 
		 "functional": "B3LYP", 
		 "basiset": "6-31G**", 
		 "properties": { 
			 "R2extent": 4629.9213, 
			 "electric_dipole_moment_norm": 3.11665038944, 
			 "electric_quadrupole_moment_norm": 10.7926508208, 
			 "total_energy": -816.346808654, 
			 "HOMO_LUMO_gap": 0.17457, 
			 "cosmo_polarized_energy": -7.98, 
			 "cosmo_cavitation_energy": 29.76, 
			 "cosmo_dispersion_energy": -21.27, 
			 "cosmo_repulsion_energy": 1.58, 
			 "cosmo_total_nonelectrostatic_energy": 10.07, 
			 "SMD_solvation_energy": 6.38 
		},
		"coords": [
			{
				"x": -0.9047959969,
				"y": -1.8628678627,
				"z": 0.8759299489,
				"element": "N" 
			},
			{
				"x": -1.0775322779,
				"y": -0.5588508197,
				"z": 1.3466206805,
				"element": "C" 
			},
			{
				"x": -0.9468020741,
				"y": 0.5670412893,
				"z": 0.4932041948,
				"element": "C" 
			},
			{
				"x": -1.1548926498,
				"y": 1.8461123928,
				"z": 1.0337287616,
				"element": "C" 
			},
			{
				"x": -1.4951985504,
				"y": 2.039146884,
				"z": 2.3696685532,
				"element": "C" 
			},
			{
				"x": -1.6311951667,
				"y": 0.924567225,
				"z": 3.1996370593,
				"element": "C" 
			},
			{
				"x": -1.4220619425,
				"y": -0.3536264349,
				"z": 2.69419753,
				"element": "C" 
			},
			{
				"x": -0.5868301126,
				"y": 0.4363430011,
				"z": -0.9448796128,
				"element": "C" 
			},
			{
				"x": 0.3978550715,
				"y": 1.2731031533,
				"z": -1.4991869398,
				"element": "C" 
			},
			{
				"x": 0.7033523409,
				"y": 1.1921285262,
				"z": -2.8504635746,
				"element": "C" 
			},
			{
				"x": 1.6484181303,
				"y": 1.9854845462,
				"z": -3.380924683,
				"element": "F" 
			},
			{
				"x": 0.057006982,
				"y": 0.2846758808,
				"z": -3.6866290055,
				"element": "C" 
			},
			{
				"x": 0.3663189029,
				"y": 0.2088279161,
				"z": -4.9874316503,
				"element": "F" 
			},
			{
				"x": -0.9148126257,
				"y": -0.5460648457,
				"z": -3.1337540894,
				"element": "C" 
			},
			{
				"x": -1.5428206967,
				"y": -1.415605371,
				"z": -3.9424787508,
				"element": "F" 
			},
			{
				"x": -1.2424006876,
				"y": -0.4816360604,
				"z": -1.7862274661,
				"element": "C" 
			},
			{
				"x": -0.2933946256,
				"y": -1.9582500921,
				"z": 0.0761418323,
				"element": "H" 
			},
			{
				"x": -0.6958929672,
				"y": -2.541414306,
				"z": 1.5956776279,
				"element": "H" 
			},
			{
				"x": -1.0671449414,
				"y": 2.7037518186,
				"z": 0.3726902499,
				"element": "H" 
			},
			{
				"x": -1.6596271611,
				"y": 3.0407838651,
				"z": 2.7534762279,
				"element": "H" 
			},
			{
				"x": -1.8974898299,
				"y": 1.0483187123,
				"z": 4.245538323,
				"element": "H" 
			},
			{
				"x": -1.5208118404,
				"y": -1.2184216653,
				"z": 3.3462103223,
				"element": "H" 
			},
			{
				"x": 0.9424210572,
				"y": 1.980631712,
				"z": -0.8845916161,
				"element": "H" 
			},
			{
				"x": -2.0207683383,
				"y": -1.134079465,
				"z": -1.4081539232,
				"element": "H" 
			}
		],
		 "valence_orbital": [ 
			{
				"type": "occ",
				"energy": -0.31419,
				"method": "rhf"
			},
			{
				"type": "occ",
				"energy": -0.27113,
				"method": "rhf"
			},
			{
				"type": "occ",
				"energy": -0.25808,
				"method": "rhf"
			},
			{
				"type": "occ",
				"energy": -0.23854,
				"method": "rhf"
			},
			{
				"type": "occ",
				"energy": -0.2072,
				"method": "rhf"
			},
			{
				"type": "unocc",
				"energy": -0.03263,
				"method": "rhf"
			},
			{
				"type": "unocc",
				"energy": -0.01295,
				"method": "rhf"
			},
			{
				"type": "unocc",
				"energy": 0.00441,
				"method": "rhf"
			},
			{
				"type": "unocc",
				"energy": 0.02152,
				"method": "rhf"
			},
			{
				"type": "unocc",
				"energy": 0.05301,
				"method": "rhf"
			}
		],
		"cosmo_sigma_profile": { 
			"-0.025": 0.0,
			"-0.024": 0.0,
			"-0.023": 0.0,
			"-0.022": 0.0,
			"-0.021": 0.0,
			"-0.02": 0.0,
			"-0.019": 0.0,
			"-0.018": 0.0,
			"-0.017": 0.0,
			"-0.016": 0.0,
			"-0.015": 0.0,
			"-0.014": 0.0,
			"-0.013": 0.215114203081,
			"-0.012": 1.68382883722,
			"-0.011": 2.12011705961,
			"-0.01": 2.76205016556,
			"-0.009": 2.70831902512,
			"-0.008": 2.61878725265,
			"-0.007": 5.18710794431,
			"-0.006": 6.69849435476,
			"-0.005": 12.8606518504,
			"-0.004": 11.9853180599,
			"-0.003": 13.351897381,
			"-0.002": 17.6965479848,
			"-0.001": 21.8614250857,
			"0.0": 19.2438424335,
			"0.001": 17.1358084686,
			"0.002": 20.7434705878,
			"0.003": 34.5924612776,
			"0.004": 21.258344771,
			"0.005": 9.01893885785,
			"0.006": 8.46326906021,
			"0.007": 3.59537926961,
			"0.008": 0.925960001771,
			"0.009": 0.934172629021,
			"0.01": 0.426310959045,
			"0.011": 0.521996211268,
			"0.012": 0.400334660923,
			"0.013": 0.303468667527,
			"0.014": 0.0,
			"0.015": 0.0,
			"0.016": 0.0,
			"0.017": 0.0,
			"0.018": 0.0,
			"0.019": 0.0,
			"0.02": 0.0,
			"0.021": 0.0,
			"0.022": 0.0,
			"0.023": 0.0,
			"0.024": 0.0,
			"0.025": 0.0
		}
	}
}
