{
	 "smiles": "NC1=CC=C(C=C1C(=O)C1=CC=CC=C1)[N+]([O-])=O", 
	 "Tm": 438.15, 
	 "num_atms": 28, 
	 "gaussian": { 
		 "optdone": 1, 
		 "sigma_profile": "yes", 
		 "theory": "DFT", 
		 "functional": "B3LYP", 
		 "basiset": "6-31G**", 
		 "properties": { 
			 "R2extent": 5170.7046, 
			 "electric_dipole_moment_norm": 4.42755899114, 
			 "electric_quadrupole_moment_norm": 34.0273760705, 
			 "total_energy": -836.501460915, 
			 "HOMO_LUMO_gap": 0.15491, 
			 "cosmo_polarized_energy": -15.31, 
			 "cosmo_cavitation_energy": 33.06, 
			 "cosmo_dispersion_energy": -23.93, 
			 "cosmo_repulsion_energy": 1.83, 
			 "cosmo_total_nonelectrostatic_energy": 10.96, 
			 "SMD_solvation_energy": 8.05 
		},
		"coords": [
			{
				"x": -1.1152945396,
				"y": 2.8755825583,
				"z": -0.6017870661,
				"element": "N" 
			},
			{
				"x": -1.3081825018,
				"y": 1.9505574438,
				"z": 0.3636398646,
				"element": "C" 
			},
			{
				"x": -2.3623375211,
				"y": 2.1165125355,
				"z": 1.3014791298,
				"element": "C" 
			},
			{
				"x": -2.56426625,
				"y": 1.21470945,
				"z": 2.3217112416,
				"element": "C" 
			},
			{
				"x": -1.7122313137,
				"y": 0.1055457814,
				"z": 2.4357878609,
				"element": "C" 
			},
			{
				"x": -0.6913261303,
				"y": -0.1075532781,
				"z": 1.520810039,
				"element": "C" 
			},
			{
				"x": -0.4774442992,
				"y": 0.7790117506,
				"z": 0.4569354586,
				"element": "C" 
			},
			{
				"x": 0.619165641,
				"y": 0.5564230134,
				"z": -0.5183418101,
				"element": "C" 
			},
			{
				"x": 1.027659753,
				"y": 1.4742694916,
				"z": -1.2429545936,
				"element": "O" 
			},
			{
				"x": 1.2678639488,
				"y": -0.7889923552,
				"z": -0.656292433,
				"element": "C" 
			},
			{
				"x": 2.6409002076,
				"y": -0.8209459592,
				"z": -0.9500175024,
				"element": "C" 
			},
			{
				"x": 3.2916478698,
				"y": -2.0349457388,
				"z": -1.1485544069,
				"element": "C" 
			},
			{
				"x": 2.5728080522,
				"y": -3.2325345019,
				"z": -1.0877228675,
				"element": "C" 
			},
			{
				"x": 1.2017788955,
				"y": -3.2094436824,
				"z": -0.8286345995,
				"element": "C" 
			},
			{
				"x": 0.5510931254,
				"y": -1.9951410686,
				"z": -0.607622202,
				"element": "C" 
			},
			{
				"x": -1.9018594015,
				"y": -0.8346573865,
				"z": 3.5297932669,
				"element": "N" 
			},
			{
				"x": -1.1353965771,
				"y": -1.7990517834,
				"z": 3.6047399944,
				"element": "O" 
			},
			{
				"x": -2.8233616794,
				"y": -0.6145103795,
				"z": 4.3211116389,
				"element": "O" 
			},
			{
				"x": -1.6821891737,
				"y": 3.7073546606,
				"z": -0.6221177364,
				"element": "H" 
			},
			{
				"x": -0.2720739388,
				"y": 2.7973555199,
				"z": -1.1613482953,
				"element": "H" 
			},
			{
				"x": -3.0038692265,
				"y": 2.9888987562,
				"z": 1.2137063681,
				"element": "H" 
			},
			{
				"x": -3.3578021413,
				"y": 1.3479248187,
				"z": 3.0466762076,
				"element": "H" 
			},
			{
				"x": -0.051650232,
				"y": -0.9684781909,
				"z": 1.65908086,
				"element": "H" 
			},
			{
				"x": 3.1806569914,
				"y": 0.1176327449,
				"z": -1.0184011709,
				"element": "H" 
			},
			{
				"x": 4.3573548964,
				"y": -2.0496740848,
				"z": -1.3570906753,
				"element": "H" 
			},
			{
				"x": 3.0794042475,
				"y": -4.1797466466,
				"z": -1.2486394259,
				"element": "H" 
			},
			{
				"x": 0.635993061,
				"y": -4.1357252071,
				"z": -0.7992372054,
				"element": "H" 
			},
			{
				"x": -0.5184417637,
				"y": -1.9859782619,
				"z": -0.42590994,
				"element": "H" 
			}
		],
		 "valence_orbital": [ 
			{
				"type": "occ",
				"energy": -0.27924,
				"method": "rhf"
			},
			{
				"type": "occ",
				"energy": -0.27289,
				"method": "rhf"
			},
			{
				"type": "occ",
				"energy": -0.26435,
				"method": "rhf"
			},
			{
				"type": "occ",
				"energy": -0.25749,
				"method": "rhf"
			},
			{
				"type": "occ",
				"energy": -0.23099,
				"method": "rhf"
			},
			{
				"type": "unocc",
				"energy": -0.07608,
				"method": "rhf"
			},
			{
				"type": "unocc",
				"energy": -0.07488,
				"method": "rhf"
			},
			{
				"type": "unocc",
				"energy": -0.02625,
				"method": "rhf"
			},
			{
				"type": "unocc",
				"energy": -0.01329,
				"method": "rhf"
			},
			{
				"type": "unocc",
				"energy": 0.00995,
				"method": "rhf"
			}
		],
		"cosmo_sigma_profile": { 
			"-0.025": 0.0,
			"-0.024": 0.0,
			"-0.023": 0.0,
			"-0.022": 0.0,
			"-0.021": 0.0,
			"-0.02": 0.0,
			"-0.019": 0.0,
			"-0.018": 0.0,
			"-0.017": 0.0,
			"-0.016": 0.0,
			"-0.015": 0.769890978733,
			"-0.014": 1.6411083442,
			"-0.013": 1.67847779276,
			"-0.012": 0.957223919431,
			"-0.011": 2.16295798227,
			"-0.01": 1.97330954415,
			"-0.009": 2.26676262967,
			"-0.008": 2.86807082003,
			"-0.007": 6.06059926168,
			"-0.006": 14.4997299698,
			"-0.005": 16.834492197,
			"-0.004": 18.1922593798,
			"-0.003": 17.2974676589,
			"-0.002": 19.289920521,
			"-0.001": 17.3144919177,
			"0.0": 25.1368526228,
			"0.001": 22.9561555708,
			"0.002": 16.3923250444,
			"0.003": 13.7653604716,
			"0.004": 15.7676589887,
			"0.005": 7.42399621163,
			"0.006": 4.59630953083,
			"0.007": 5.02090903124,
			"0.008": 10.7289751512,
			"0.009": 8.762998193,
			"0.01": 6.01126808334,
			"0.011": 4.20652577555,
			"0.012": 1.20687053356,
			"0.013": 0.0658646720369,
			"0.014": 0.0,
			"0.015": 0.0,
			"0.016": 0.0,
			"0.017": 0.0,
			"0.018": 0.0,
			"0.019": 0.0,
			"0.02": 0.0,
			"0.021": 0.0,
			"0.022": 0.0,
			"0.023": 0.0,
			"0.024": 0.0,
			"0.025": 0.0
		}
	}
}
