{
	 "smiles": "CCCCCCCCCCCC(=O)OC", 
	 "Tm": 278.25, 
	 "num_atms": 41, 
	 "gaussian": { 
		 "optdone": 1, 
		 "sigma_profile": "yes", 
		 "theory": "DFT", 
		 "functional": "B3LYP", 
		 "basiset": "6-31G**", 
		 "properties": { 
			 "R2extent": 4462.3745, 
			 "electric_dipole_moment_norm": 2.11781529412, 
			 "electric_quadrupole_moment_norm": 7.15707478164, 
			 "total_energy": -661.539819059, 
			 "HOMO_LUMO_gap": 0.27758, 
			 "cosmo_polarized_energy": -6.53, 
			 "cosmo_cavitation_energy": 40.87, 
			 "cosmo_dispersion_energy": -26.28, 
			 "cosmo_repulsion_energy": 2.12, 
			 "cosmo_total_nonelectrostatic_energy": 16.71, 
			 "SMD_solvation_energy": 6.86 
		},
		"coords": [
			{
				"x": -2.5207017306,
				"y": -3.0102023918,
				"z": 0.504012173,
				"element": "C" 
			},
			{
				"x": -1.0436813991,
				"y": -2.7681870483,
				"z": 0.8312972687,
				"element": "C" 
			},
			{
				"x": -0.8108793332,
				"y": -1.5199797807,
				"z": 1.6927311544,
				"element": "C" 
			},
			{
				"x": 0.664027249,
				"y": -1.31351584,
				"z": 2.0639238648,
				"element": "C" 
			},
			{
				"x": 0.9563085863,
				"y": -0.0321783512,
				"z": 2.8668234322,
				"element": "C" 
			},
			{
				"x": 0.6656870268,
				"y": 1.2937097006,
				"z": 2.1385340364,
				"element": "C" 
			},
			{
				"x": 1.4987879508,
				"y": 1.4992216809,
				"z": 0.86445995,
				"element": "C" 
			},
			{
				"x": 1.2491234069,
				"y": 2.8380922119,
				"z": 0.1445834311,
				"element": "C" 
			},
			{
				"x": -0.1383413074,
				"y": 3.0337678031,
				"z": -0.5066120255,
				"element": "C" 
			},
			{
				"x": -0.3281236269,
				"y": 2.5269503867,
				"z": -1.9506477954,
				"element": "C" 
			},
			{
				"x": -0.4042922452,
				"y": 1.0026610564,
				"z": -2.1663307937,
				"element": "C" 
			},
			{
				"x": 0.896538864,
				"y": 0.2260680653,
				"z": -2.2332761929,
				"element": "C" 
			},
			{
				"x": 1.0463254084,
				"y": -0.9113090789,
				"z": -1.8333150986,
				"element": "O" 
			},
			{
				"x": 1.8771037508,
				"y": 0.9205784559,
				"z": -2.8524089124,
				"element": "O" 
			},
			{
				"x": 3.1227072764,
				"y": 0.2204062145,
				"z": -3.0090088775,
				"element": "C" 
			},
			{
				"x": -3.1141508646,
				"y": -3.1499386551,
				"z": 1.4153028191,
				"element": "H" 
			},
			{
				"x": -2.9503715769,
				"y": -2.1608284804,
				"z": -0.0403308347,
				"element": "H" 
			},
			{
				"x": -2.6529762568,
				"y": -3.9016233452,
				"z": -0.1183348097,
				"element": "H" 
			},
			{
				"x": -0.63574199,
				"y": -3.6477091369,
				"z": 1.3486133778,
				"element": "H" 
			},
			{
				"x": -0.4721683138,
				"y": -2.6621325362,
				"z": -0.099366822,
				"element": "H" 
			},
			{
				"x": -1.1867575899,
				"y": -0.6442443051,
				"z": 1.1459263381,
				"element": "H" 
			},
			{
				"x": -1.413624012,
				"y": -1.583753958,
				"z": 2.6110018107,
				"element": "H" 
			},
			{
				"x": 1.001020713,
				"y": -2.1760863338,
				"z": 2.6550632535,
				"element": "H" 
			},
			{
				"x": 1.265961859,
				"y": -1.327632183,
				"z": 1.1468543248,
				"element": "H" 
			},
			{
				"x": 0.3754564584,
				"y": -0.0554729923,
				"z": 3.7992555973,
				"element": "H" 
			},
			{
				"x": 2.0128063195,
				"y": -0.0418360447,
				"z": 3.1690688026,
				"element": "H" 
			},
			{
				"x": -0.4039067336,
				"y": 1.3523553106,
				"z": 1.9016242615,
				"element": "H" 
			},
			{
				"x": 0.8627388784,
				"y": 2.1245230898,
				"z": 2.8303724505,
				"element": "H" 
			},
			{
				"x": 2.5629814611,
				"y": 1.4478819404,
				"z": 1.1351392029,
				"element": "H" 
			},
			{
				"x": 1.3278384186,
				"y": 0.6624465494,
				"z": 0.182102917,
				"element": "H" 
			},
			{
				"x": 2.0201840062,
				"y": 2.9828973068,
				"z": -0.6233695416,
				"element": "H" 
			},
			{
				"x": 1.400001598,
				"y": 3.6440045649,
				"z": 0.8756458664,
				"element": "H" 
			},
			{
				"x": -0.3468224872,
				"y": 4.1108522971,
				"z": -0.5306673105,
				"element": "H" 
			},
			{
				"x": -0.9198051567,
				"y": 2.6016308082,
				"z": 0.1324809746,
				"element": "H" 
			},
			{
				"x": -1.2736592077,
				"y": 2.9450290257,
				"z": -2.31716073,
				"element": "H" 
			},
			{
				"x": 0.4563662663,
				"y": 2.9395810654,
				"z": -2.5943246484,
				"element": "H" 
			},
			{
				"x": -1.0224220468,
				"y": 0.5168332965,
				"z": -1.4059352566,
				"element": "H" 
			},
			{
				"x": -0.8968724677,
				"y": 0.8112895527,
				"z": -3.1301282563,
				"element": "H" 
			},
			{
				"x": 3.5293145373,
				"y": -0.063764611,
				"z": -2.0354533456,
				"element": "H" 
			},
			{
				"x": 3.7905485587,
				"y": 0.9174471069,
				"z": -3.5150544931,
				"element": "H" 
			},
			{
				"x": 2.9833697522,
				"y": -0.682632417,
				"z": -3.6084915629,
				"element": "H" 
			}
		],
		 "valence_orbital": [ 
			{
				"type": "occ",
				"energy": -0.30233,
				"method": "rhf"
			},
			{
				"type": "occ",
				"energy": -0.2993,
				"method": "rhf"
			},
			{
				"type": "occ",
				"energy": -0.29677,
				"method": "rhf"
			},
			{
				"type": "occ",
				"energy": -0.29404,
				"method": "rhf"
			},
			{
				"type": "occ",
				"energy": -0.26764,
				"method": "rhf"
			},
			{
				"type": "unocc",
				"energy": 0.00994,
				"method": "rhf"
			},
			{
				"type": "unocc",
				"energy": 0.06578,
				"method": "rhf"
			},
			{
				"type": "unocc",
				"energy": 0.09121,
				"method": "rhf"
			},
			{
				"type": "unocc",
				"energy": 0.10167,
				"method": "rhf"
			},
			{
				"type": "unocc",
				"energy": 0.10528,
				"method": "rhf"
			}
		],
		"cosmo_sigma_profile": { 
			"-0.025": 0.0,
			"-0.024": 0.0,
			"-0.023": 0.0,
			"-0.022": 0.0,
			"-0.021": 0.0,
			"-0.02": 0.0,
			"-0.019": 0.0,
			"-0.018": 0.0,
			"-0.017": 0.0,
			"-0.016": 0.0,
			"-0.015": 0.0,
			"-0.014": 0.0,
			"-0.013": 0.0,
			"-0.012": 0.0,
			"-0.011": 0.0,
			"-0.01": 0.0,
			"-0.009": 0.0,
			"-0.008": 0.0,
			"-0.007": 0.726246204882,
			"-0.006": 5.73644492115,
			"-0.005": 9.05103654704,
			"-0.004": 10.6798439203,
			"-0.003": 21.029166959,
			"-0.002": 40.0650560726,
			"-0.001": 53.1731175046,
			"0.0": 56.1792453085,
			"0.001": 54.2430802724,
			"0.002": 26.8649683405,
			"0.003": 6.99324099059,
			"0.004": 6.52981865302,
			"0.005": 5.39948621317,
			"0.006": 4.60367042563,
			"0.007": 3.5590085226,
			"0.008": 2.68069446353,
			"0.009": 1.51785025562,
			"0.01": 1.74661795471,
			"0.011": 2.00387459148,
			"0.012": 1.29755342772,
			"0.013": 0.292398200031,
			"0.014": 0.0,
			"0.015": 0.0,
			"0.016": 0.0,
			"0.017": 0.0,
			"0.018": 0.0,
			"0.019": 0.0,
			"0.02": 0.0,
			"0.021": 0.0,
			"0.022": 0.0,
			"0.023": 0.0,
			"0.024": 0.0,
			"0.025": 0.0
		}
	}
}
