{
	 "smiles": "COC1=C(OCC2=C(C)ON=C2C)C=CC(C=CC(O)=O)=C1", 
	 "Tm": 384.15, 
	 "num_atms": 39, 
	 "gaussian": { 
		 "optdone": 1, 
		 "sigma_profile": "yes", 
		 "theory": "DFT", 
		 "functional": "B3LYP", 
		 "basiset": "6-31G**", 
		 "properties": { 
			 "R2extent": 9171.8691, 
			 "electric_dipole_moment_norm": 7.22544704845, 
			 "electric_quadrupole_moment_norm": 32.1820048233, 
			 "total_energy": -1050.74733319, 
			 "HOMO_LUMO_gap": 0.16128, 
			 "cosmo_polarized_energy": -24.12, 
			 "cosmo_cavitation_energy": 44.42, 
			 "cosmo_dispersion_energy": -29.41, 
			 "cosmo_repulsion_energy": 2.28, 
			 "cosmo_total_nonelectrostatic_energy": 17.28, 
			 "SMD_solvation_energy": 9.69 
		},
		"coords": [
			{
				"x": -2.9217284803,
				"y": -0.4155412262,
				"z": -1.6791051703,
				"element": "C" 
			},
			{
				"x": -2.0330089253,
				"y": 0.3165533854,
				"z": -0.8228320174,
				"element": "O" 
			},
			{
				"x": -1.1233743861,
				"y": -0.4685972503,
				"z": -0.1429936534,
				"element": "C" 
			},
			{
				"x": -0.0213380891,
				"y": -1.0551119651,
				"z": -0.8055146498,
				"element": "C" 
			},
			{
				"x": 0.1763773078,
				"y": -0.9343991772,
				"z": -2.1567315571,
				"element": "O" 
			},
			{
				"x": 0.355185931,
				"y": 0.411998599,
				"z": -2.6863445635,
				"element": "C" 
			},
			{
				"x": 1.6041357527,
				"y": 1.0661333835,
				"z": -2.2031958211,
				"element": "C" 
			},
			{
				"x": 1.7438252171,
				"y": 2.0811962076,
				"z": -1.2960716694,
				"element": "C" 
			},
			{
				"x": 0.7781136375,
				"y": 2.8988218387,
				"z": -0.5090047091,
				"element": "C" 
			},
			{
				"x": 3.0508639765,
				"y": 2.360766535,
				"z": -1.1289079534,
				"element": "O" 
			},
			{
				"x": 3.8200203221,
				"y": 1.5042507194,
				"z": -1.9368678278,
				"element": "N" 
			},
			{
				"x": 2.9549198605,
				"y": 0.7452196919,
				"z": -2.5660740829,
				"element": "C" 
			},
			{
				"x": 3.4242161911,
				"y": -0.2993188784,
				"z": -3.5302619065,
				"element": "C" 
			},
			{
				"x": 0.8666284467,
				"y": -1.842112937,
				"z": -0.0689317881,
				"element": "C" 
			},
			{
				"x": 0.6844141997,
				"y": -2.0299576748,
				"z": 1.2974648326,
				"element": "C" 
			},
			{
				"x": -0.3872061487,
				"y": -1.4232865008,
				"z": 1.9767385481,
				"element": "C" 
			},
			{
				"x": -0.5205735556,
				"y": -1.6362137881,
				"z": 3.4146821131,
				"element": "C" 
			},
			{
				"x": -1.4413965941,
				"y": -1.1220491567,
				"z": 4.2517431034,
				"element": "C" 
			},
			{
				"x": -1.3994662659,
				"y": -1.4713836739,
				"z": 5.6935408619,
				"element": "C" 
			},
			{
				"x": -2.3651670285,
				"y": -0.899539028,
				"z": 6.4689530781,
				"element": "O" 
			},
			{
				"x": -0.5848077281,
				"y": -2.2095944889,
				"z": 6.2007809698,
				"element": "O" 
			},
			{
				"x": -1.2886468072,
				"y": -0.6460581018,
				"z": 1.2246055421,
				"element": "C" 
			},
			{
				"x": -3.5309670057,
				"y": -1.1150143116,
				"z": -1.0941451152,
				"element": "H" 
			},
			{
				"x": -3.5715646434,
				"y": 0.3236294537,
				"z": -2.1514234786,
				"element": "H" 
			},
			{
				"x": -2.3700225382,
				"y": -0.9683794169,
				"z": -2.446389056,
				"element": "H" 
			},
			{
				"x": 0.3874858618,
				"y": 0.2513364401,
				"z": -3.7670136289,
				"element": "H" 
			},
			{
				"x": -0.5213623991,
				"y": 1.0192377735,
				"z": -2.4506991998,
				"element": "H" 
			},
			{
				"x": 0.8236454434,
				"y": 3.9513704907,
				"z": -0.809035338,
				"element": "H" 
			},
			{
				"x": 1.0172734538,
				"y": 2.8494909689,
				"z": 0.5579774937,
				"element": "H" 
			},
			{
				"x": -0.241478254,
				"y": 2.5357802493,
				"z": -0.6522432969,
				"element": "H" 
			},
			{
				"x": 3.0220151828,
				"y": -1.2812565976,
				"z": -3.262758596,
				"element": "H" 
			},
			{
				"x": 3.0853340753,
				"y": -0.0730819789,
				"z": -4.5477176528,
				"element": "H" 
			},
			{
				"x": 4.5148309282,
				"y": -0.346163833,
				"z": -3.532189302,
				"element": "H" 
			},
			{
				"x": 1.7034267185,
				"y": -2.2947064657,
				"z": -0.5901815585,
				"element": "H" 
			},
			{
				"x": 1.3901271151,
				"y": -2.639643881,
				"z": 1.854149721,
				"element": "H" 
			},
			{
				"x": 0.2182058526,
				"y": -2.2921897895,
				"z": 3.8729617867,
				"element": "H" 
			},
			{
				"x": -2.2206852599,
				"y": -0.4497773182,
				"z": 3.8980426679,
				"element": "H" 
			},
			{
				"x": -2.9380263849,
				"y": -0.3362183604,
				"z": 5.9307912401,
				"element": "H" 
			},
			{
				"x": -2.1468249802,
				"y": -0.1699899369,
				"z": 1.6877016341,
				"element": "H" 
			}
		],
		 "valence_orbital": [ 
			{
				"type": "occ",
				"energy": -0.28133,
				"method": "rhf"
			},
			{
				"type": "occ",
				"energy": -0.26739,
				"method": "rhf"
			},
			{
				"type": "occ",
				"energy": -0.26089,
				"method": "rhf"
			},
			{
				"type": "occ",
				"energy": -0.25544,
				"method": "rhf"
			},
			{
				"type": "occ",
				"energy": -0.23234,
				"method": "rhf"
			},
			{
				"type": "unocc",
				"energy": -0.07106,
				"method": "rhf"
			},
			{
				"type": "unocc",
				"energy": -0.01764,
				"method": "rhf"
			},
			{
				"type": "unocc",
				"energy": -0.0094,
				"method": "rhf"
			},
			{
				"type": "unocc",
				"energy": 0.0168,
				"method": "rhf"
			},
			{
				"type": "unocc",
				"energy": 0.03507,
				"method": "rhf"
			}
		],
		"cosmo_sigma_profile": { 
			"-0.025": 0.0,
			"-0.024": 0.0,
			"-0.023": 0.0,
			"-0.022": 0.0,
			"-0.021": 0.0,
			"-0.02": 0.0,
			"-0.019": 0.599536845273,
			"-0.018": 1.32144213653,
			"-0.017": 1.0139017847,
			"-0.016": 1.49470783632,
			"-0.015": 0.628068575201,
			"-0.014": 0.668314801585,
			"-0.013": 0.739993132094,
			"-0.012": 1.50007162317,
			"-0.011": 1.8342977211,
			"-0.01": 0.90323575879,
			"-0.009": 1.80871258639,
			"-0.008": 3.59754467833,
			"-0.007": 6.77023681004,
			"-0.006": 17.7149912778,
			"-0.005": 25.0327425583,
			"-0.004": 26.4554657767,
			"-0.003": 33.4168237185,
			"-0.002": 31.9304922166,
			"-0.001": 27.6447105654,
			"0.0": 23.7686293167,
			"0.001": 23.3702336247,
			"0.002": 25.4304518721,
			"0.003": 19.9167224339,
			"0.004": 11.089159591,
			"0.005": 6.46166716009,
			"0.006": 5.77018824704,
			"0.007": 5.68728232305,
			"0.008": 8.8409332543,
			"0.009": 8.93472413482,
			"0.01": 6.08055024338,
			"0.011": 8.11515622917,
			"0.012": 7.14572798924,
			"0.013": 4.65696899838,
			"0.014": 2.19177207995,
			"0.015": 0.602371533445,
			"0.016": 0.0,
			"0.017": 0.0,
			"0.018": 0.0,
			"0.019": 0.0,
			"0.02": 0.0,
			"0.021": 0.0,
			"0.022": 0.0,
			"0.023": 0.0,
			"0.024": 0.0,
			"0.025": 0.0
		}
	}
}
