{
	 "smiles": "COC1=C(NC2=NC3=C(S2)C=C(S3)C(O)=O)C=CC=C1", 
	 "Tm": 509.15, 
	 "num_atms": 30, 
	 "gaussian": { 
		 "optdone": 1, 
		 "sigma_profile": "yes", 
		 "theory": "DFT", 
		 "functional": "B3LYP", 
		 "basiset": "6-31G**", 
		 "properties": { 
			 "R2extent": 10292.5369, 
			 "electric_dipole_moment_norm": 8.53352566997, 
			 "electric_quadrupole_moment_norm": 26.0395979533, 
			 "total_energy": -1632.94519942, 
			 "HOMO_LUMO_gap": 0.14089, 
			 "cosmo_polarized_energy": -18.17, 
			 "cosmo_cavitation_energy": 38.43, 
			 "cosmo_dispersion_energy": -29.41, 
			 "cosmo_repulsion_energy": 2.15, 
			 "cosmo_total_nonelectrostatic_energy": 11.16, 
			 "SMD_solvation_energy": 6.37 
		},
		"coords": [
			{
				"x": 3.0753040513,
				"y": -3.3952778349,
				"z": -2.1449418472,
				"element": "C" 
			},
			{
				"x": 2.1460537325,
				"y": -2.4079630035,
				"z": -1.71999035,
				"element": "O" 
			},
			{
				"x": 1.9553140878,
				"y": -1.3035158622,
				"z": -2.5129508809,
				"element": "C" 
			},
			{
				"x": 1.0112379762,
				"y": -0.373547146,
				"z": -2.0112640101,
				"element": "C" 
			},
			{
				"x": 0.4164737299,
				"y": -0.7212937376,
				"z": -0.7841314115,
				"element": "N" 
			},
			{
				"x": -0.5107693418,
				"y": -0.0516564312,
				"z": -0.054085836,
				"element": "C" 
			},
			{
				"x": -1.0594091494,
				"y": 1.1000084905,
				"z": -0.3593648576,
				"element": "N" 
			},
			{
				"x": -1.9389749923,
				"y": 1.4412819286,
				"z": 0.6197182108,
				"element": "C" 
			},
			{
				"x": -2.1119111077,
				"y": 0.5915515243,
				"z": 1.7068430991,
				"element": "C" 
			},
			{
				"x": -1.0601454346,
				"y": -0.7953148823,
				"z": 1.4911393671,
				"element": "S" 
			},
			{
				"x": -3.0477058851,
				"y": 1.0477920157,
				"z": 2.6575058958,
				"element": "C" 
			},
			{
				"x": -3.5968303,
				"y": 2.2599609512,
				"z": 2.2937107493,
				"element": "C" 
			},
			{
				"x": -2.9504212223,
				"y": 2.8490239615,
				"z": 0.7546291942,
				"element": "S" 
			},
			{
				"x": -4.6046374227,
				"y": 2.9686443172,
				"z": 3.1054412391,
				"element": "C" 
			},
			{
				"x": -5.0748617098,
				"y": 4.1604089015,
				"z": 2.6441276322,
				"element": "O" 
			},
			{
				"x": -5.0182972623,
				"y": 2.5259785252,
				"z": 4.1540180082,
				"element": "O" 
			},
			{
				"x": 0.7386172269,
				"y": 0.7875275476,
				"z": -2.7375066055,
				"element": "C" 
			},
			{
				"x": 1.3978067606,
				"y": 1.0202674224,
				"z": -3.9486243066,
				"element": "C" 
			},
			{
				"x": 2.3238804525,
				"y": 0.1056555861,
				"z": -4.4383329984,
				"element": "C" 
			},
			{
				"x": 2.6054711925,
				"y": -1.0622329703,
				"z": -3.7189003647,
				"element": "C" 
			},
			{
				"x": 2.7798717492,
				"y": -3.8332232338,
				"z": -3.105992687,
				"element": "H" 
			},
			{
				"x": 4.0866408441,
				"y": -2.9799701809,
				"z": -2.2310232167,
				"element": "H" 
			},
			{
				"x": 3.0666125137,
				"y": -4.1696171331,
				"z": -1.3768035698,
				"element": "H" 
			},
			{
				"x": 0.7476195834,
				"y": -1.6037664008,
				"z": -0.4171167723,
				"element": "H" 
			},
			{
				"x": -3.3369060795,
				"y": 0.5503762125,
				"z": 3.574312227,
				"element": "H" 
			},
			{
				"x": -4.6716164446,
				"y": 4.4091383196,
				"z": 1.8003937135,
				"element": "H" 
			},
			{
				"x": 0.0171144762,
				"y": 1.492251801,
				"z": -2.3484001147,
				"element": "H" 
			},
			{
				"x": 1.177583929,
				"y": 1.9263394855,
				"z": -4.5042215554,
				"element": "H" 
			},
			{
				"x": 2.8346344806,
				"y": 0.2879628783,
				"z": -5.3786511986,
				"element": "H" 
			},
			{
				"x": 3.3275495658,
				"y": -1.7725910522,
				"z": -4.1035367533,
				"element": "H" 
			}
		],
		 "valence_orbital": [ 
			{
				"type": "occ",
				"energy": -0.27008,
				"method": "rhf"
			},
			{
				"type": "occ",
				"energy": -0.25797,
				"method": "rhf"
			},
			{
				"type": "occ",
				"energy": -0.25103,
				"method": "rhf"
			},
			{
				"type": "occ",
				"energy": -0.23871,
				"method": "rhf"
			},
			{
				"type": "occ",
				"energy": -0.20223,
				"method": "rhf"
			},
			{
				"type": "unocc",
				"energy": -0.06134,
				"method": "rhf"
			},
			{
				"type": "unocc",
				"energy": -0.02063,
				"method": "rhf"
			},
			{
				"type": "unocc",
				"energy": -0.01574,
				"method": "rhf"
			},
			{
				"type": "unocc",
				"energy": -0.00081,
				"method": "rhf"
			},
			{
				"type": "unocc",
				"energy": -0.0001,
				"method": "rhf"
			}
		],
		"cosmo_sigma_profile": { 
			"-0.025": 0.0,
			"-0.024": 0.0,
			"-0.023": 0.0,
			"-0.022": 0.0,
			"-0.021": 0.0,
			"-0.02": 0.0,
			"-0.019": 0.0,
			"-0.018": 0.476634989668,
			"-0.017": 0.918369469868,
			"-0.016": 1.0204175444,
			"-0.015": 0.561463331566,
			"-0.014": 1.15408798686,
			"-0.013": 2.08489037333,
			"-0.012": 2.94861159252,
			"-0.011": 1.8770697841,
			"-0.01": 1.49911778271,
			"-0.009": 2.38460759009,
			"-0.008": 3.45937992146,
			"-0.007": 5.45715456761,
			"-0.006": 13.8208597595,
			"-0.005": 19.1488902311,
			"-0.004": 20.3608398591,
			"-0.003": 19.8410224481,
			"-0.002": 18.810610239,
			"-0.001": 19.4850077339,
			"0.0": 26.4369990078,
			"0.001": 33.257159717,
			"0.002": 30.9151844837,
			"0.003": 22.2629792584,
			"0.004": 16.2133310583,
			"0.005": 13.6437799744,
			"0.006": 8.76671208362,
			"0.007": 3.8447117787,
			"0.008": 2.85230767904,
			"0.009": 3.09832112675,
			"0.01": 4.57804541428,
			"0.011": 4.84478285289,
			"0.012": 5.55506412091,
			"0.013": 2.10087040597,
			"0.014": 0.204995347226,
			"0.015": 0.0,
			"0.016": 0.0,
			"0.017": 0.0,
			"0.018": 0.0,
			"0.019": 0.0,
			"0.02": 0.0,
			"0.021": 0.0,
			"0.022": 0.0,
			"0.023": 0.0,
			"0.024": 0.0,
			"0.025": 0.0
		}
	}
}
