{
	 "smiles": "C1OCC2=CC=CC=C2COCC#CCOCC2=CC=CC=C2COCC#C1", 
	 "Tm": 403.15, 
	 "num_atms": 52, 
	 "gaussian": { 
		 "optdone": 1, 
		 "sigma_profile": "yes", 
		 "theory": "DFT", 
		 "functional": "B3LYP", 
		 "basiset": "6-31G**", 
		 "properties": { 
			 "R2extent": 12913.8514, 
			 "electric_dipole_moment_norm": 1.65881738597, 
			 "electric_quadrupole_moment_norm": 11.3537416837, 
			 "total_energy": -1229.71356155, 
			 "HOMO_LUMO_gap": 0.21543, 
			 "cosmo_polarized_energy": -15.74, 
			 "cosmo_cavitation_energy": 54.69, 
			 "cosmo_dispersion_energy": -35.76, 
			 "cosmo_repulsion_energy": 2.67, 
			 "cosmo_total_nonelectrostatic_energy": 21.6, 
			 "SMD_solvation_energy": 9.14 
		},
		"coords": [
			{
				"x": -0.0205421528,
				"y": -2.26710868,
				"z": -3.5519101356,
				"element": "C" 
			},
			{
				"x": -0.8245190088,
				"y": -2.9190510402,
				"z": -2.5768500608,
				"element": "O" 
			},
			{
				"x": -0.079456623,
				"y": -3.3602710561,
				"z": -1.4390157793,
				"element": "C" 
			},
			{
				"x": -1.0116705796,
				"y": -4.013078718,
				"z": -0.4490874507,
				"element": "C" 
			},
			{
				"x": -0.9161077374,
				"y": -5.3902532055,
				"z": -0.2261794884,
				"element": "C" 
			},
			{
				"x": -1.7491498427,
				"y": -6.0362224585,
				"z": 0.6878447487,
				"element": "C" 
			},
			{
				"x": -2.6992321286,
				"y": -5.2949171368,
				"z": 1.3866780638,
				"element": "C" 
			},
			{
				"x": -2.8106346062,
				"y": -3.9198609243,
				"z": 1.1710817846,
				"element": "C" 
			},
			{
				"x": -1.9753419666,
				"y": -3.2655270479,
				"z": 0.2613515446,
				"element": "C" 
			},
			{
				"x": -2.1100118156,
				"y": -1.7756393408,
				"z": 0.0301870059,
				"element": "C" 
			},
			{
				"x": -3.0297242586,
				"y": -1.224429936,
				"z": 0.9620128397,
				"element": "O" 
			},
			{
				"x": -3.2610574767,
				"y": 0.161989494,
				"z": 0.7842768711,
				"element": "C" 
			},
			{
				"x": -2.1173636952,
				"y": 1.0167687972,
				"z": 1.1340509958,
				"element": "C" 
			},
			{
				"x": -1.173242356,
				"y": 1.7187636315,
				"z": 1.417326438,
				"element": "C" 
			},
			{
				"x": -0.0197938882,
				"y": 2.5535632814,
				"z": 1.7404184538,
				"element": "C" 
			},
			{
				"x": 0.6614569723,
				"y": 2.8922082255,
				"z": 0.5353517262,
				"element": "O" 
			},
			{
				"x": 1.9496863999,
				"y": 3.4701162906,
				"z": 0.7353588161,
				"element": "C" 
			},
			{
				"x": 2.9929529494,
				"y": 2.5278879071,
				"z": 1.3123690094,
				"element": "C" 
			},
			{
				"x": 3.7874045791,
				"y": 2.9779647433,
				"z": 2.3720521927,
				"element": "C" 
			},
			{
				"x": 4.8030884051,
				"y": 2.1866852131,
				"z": 2.9126849168,
				"element": "C" 
			},
			{
				"x": 5.0296208564,
				"y": 0.9151169068,
				"z": 2.3930377086,
				"element": "C" 
			},
			{
				"x": 4.2408302247,
				"y": 0.4530242678,
				"z": 1.3374508887,
				"element": "C" 
			},
			{
				"x": 3.2235878226,
				"y": 1.2365127763,
				"z": 0.7837876583,
				"element": "C" 
			},
			{
				"x": 2.3762121776,
				"y": 0.6550653288,
				"z": -0.3267833314,
				"element": "C" 
			},
			{
				"x": 2.4533244252,
				"y": 1.4779823267,
				"z": -1.4920015577,
				"element": "O" 
			},
			{
				"x": 1.2670238617,
				"y": 1.4632369048,
				"z": -2.280586182,
				"element": "C" 
			},
			{
				"x": 0.8627693349,
				"y": 0.1371297973,
				"z": -2.7653739024,
				"element": "C" 
			},
			{
				"x": 0.4795359926,
				"y": -0.9522444572,
				"z": -3.1309005371,
				"element": "C" 
			},
			{
				"x": 0.8265517784,
				"y": -2.9104604654,
				"z": -3.8432186822,
				"element": "H" 
			},
			{
				"x": -0.6600739153,
				"y": -2.1525741994,
				"z": -4.4339994147,
				"element": "H" 
			},
			{
				"x": 0.6925297328,
				"y": -4.0783717636,
				"z": -1.756956665,
				"element": "H" 
			},
			{
				"x": 0.4408993659,
				"y": -2.5026710603,
				"z": -0.9849611721,
				"element": "H" 
			},
			{
				"x": -0.1752804529,
				"y": -5.962556877,
				"z": -0.7791725818,
				"element": "H" 
			},
			{
				"x": -1.6565072076,
				"y": -7.1065061006,
				"z": 0.8479630134,
				"element": "H" 
			},
			{
				"x": -3.3565884442,
				"y": -5.7825104482,
				"z": 2.1013051383,
				"element": "H" 
			},
			{
				"x": -3.5457159515,
				"y": -3.3374241083,
				"z": 1.7134594511,
				"element": "H" 
			},
			{
				"x": -2.4471778381,
				"y": -1.5862960441,
				"z": -1.0006080799,
				"element": "H" 
			},
			{
				"x": -1.1298267801,
				"y": -1.2841019146,
				"z": 0.1323320867,
				"element": "H" 
			},
			{
				"x": -3.5628292795,
				"y": 0.37485776,
				"z": -0.2549076003,
				"element": "H" 
			},
			{
				"x": -4.1130598714,
				"y": 0.4059309212,
				"z": 1.4283612826,
				"element": "H" 
			},
			{
				"x": -0.3427109123,
				"y": 3.467884001,
				"z": 2.266082575,
				"element": "H" 
			},
			{
				"x": 0.6475190626,
				"y": 2.007937401,
				"z": 2.4251017812,
				"element": "H" 
			},
			{
				"x": 2.2574876047,
				"y": 3.7950751282,
				"z": -0.2615738226,
				"element": "H" 
			},
			{
				"x": 1.8696092857,
				"y": 4.3608535122,
				"z": 1.3779278423,
				"element": "H" 
			},
			{
				"x": 3.6067537528,
				"y": 3.9695958959,
				"z": 2.7810273469,
				"element": "H" 
			},
			{
				"x": 5.4058847267,
				"y": 2.5622425808,
				"z": 3.7344829265,
				"element": "H" 
			},
			{
				"x": 5.8143185338,
				"y": 0.28484219,
				"z": 2.8013143493,
				"element": "H" 
			},
			{
				"x": 4.4202046191,
				"y": -0.5379461683,
				"z": 0.9280002917,
				"element": "H" 
			},
			{
				"x": 2.7259609093,
				"y": -0.3586422143,
				"z": -0.566006294,
				"element": "H" 
			},
			{
				"x": 1.3335173578,
				"y": 0.5763238781,
				"z": 0.0033892833,
				"element": "H" 
			},
			{
				"x": 1.4729108354,
				"y": 2.1221919396,
				"z": -3.1313639331,
				"element": "H" 
			},
			{
				"x": 0.438077222,
				"y": 1.8997142654,
				"z": -1.7050123597,
				"element": "H" 
			}
		],
		 "valence_orbital": [ 
			{
				"type": "occ",
				"energy": -0.2557,
				"method": "rhf"
			},
			{
				"type": "occ",
				"energy": -0.25017,
				"method": "rhf"
			},
			{
				"type": "occ",
				"energy": -0.24301,
				"method": "rhf"
			},
			{
				"type": "occ",
				"energy": -0.24097,
				"method": "rhf"
			},
			{
				"type": "occ",
				"energy": -0.23352,
				"method": "rhf"
			},
			{
				"type": "unocc",
				"energy": -0.01809,
				"method": "rhf"
			},
			{
				"type": "unocc",
				"energy": -0.00573,
				"method": "rhf"
			},
			{
				"type": "unocc",
				"energy": -0.00385,
				"method": "rhf"
			},
			{
				"type": "unocc",
				"energy": 0.00773,
				"method": "rhf"
			},
			{
				"type": "unocc",
				"energy": 0.0313,
				"method": "rhf"
			}
		],
		"cosmo_sigma_profile": { 
			"-0.025": 0.0,
			"-0.024": 0.0,
			"-0.023": 0.0,
			"-0.022": 0.0,
			"-0.021": 0.0,
			"-0.02": 0.0,
			"-0.019": 0.0,
			"-0.018": 0.0,
			"-0.017": 0.0,
			"-0.016": 0.0,
			"-0.015": 0.0,
			"-0.014": 0.0,
			"-0.013": 0.0,
			"-0.012": 0.0,
			"-0.011": 0.0,
			"-0.01": 0.0,
			"-0.009": 0.0,
			"-0.008": 0.340066235218,
			"-0.007": 6.4065471131,
			"-0.006": 26.5905632903,
			"-0.005": 43.1039578858,
			"-0.004": 43.6475447161,
			"-0.003": 40.6199126368,
			"-0.002": 31.5061741598,
			"-0.001": 27.5516249841,
			"0.0": 25.3047298348,
			"0.001": 25.9204436329,
			"0.002": 25.9438785383,
			"0.003": 25.077751397,
			"0.004": 30.0522873145,
			"0.005": 34.9147354469,
			"0.006": 22.9771041698,
			"0.007": 7.275386937,
			"0.008": 4.99411242147,
			"0.009": 3.75955467522,
			"0.01": 3.11951964538,
			"0.011": 2.7200950943,
			"0.012": 1.91279351953,
			"0.013": 1.01317711985,
			"0.014": 0.0103110967709,
			"0.015": 0.0,
			"0.016": 0.0,
			"0.017": 0.0,
			"0.018": 0.0,
			"0.019": 0.0,
			"0.02": 0.0,
			"0.021": 0.0,
			"0.022": 0.0,
			"0.023": 0.0,
			"0.024": 0.0,
			"0.025": 0.0
		}
	}
}
