{
	 "smiles": "OCCCN1C(=O)NC2=C(C=CC=C2)C1=O", 
	 "Tm": 448.15, 
	 "num_atms": 28, 
	 "gaussian": { 
		 "optdone": 1, 
		 "sigma_profile": "yes", 
		 "theory": "DFT", 
		 "functional": "B3LYP", 
		 "basiset": "6-31G**", 
		 "properties": { 
			 "R2extent": 3975.387, 
			 "electric_dipole_moment_norm": 2.61075861389, 
			 "electric_quadrupole_moment_norm": 16.4086374285, 
			 "total_energy": -761.627152414, 
			 "HOMO_LUMO_gap": 0.18496, 
			 "cosmo_polarized_energy": -17.67, 
			 "cosmo_cavitation_energy": 30.92, 
			 "cosmo_dispersion_energy": -22.37, 
			 "cosmo_repulsion_energy": 1.72, 
			 "cosmo_total_nonelectrostatic_energy": 10.27, 
			 "SMD_solvation_energy": 5.84 
		},
		"coords": [
			{
				"x": 0.7523812028,
				"y": -3.1524793433,
				"z": -1.1287069709,
				"element": "O" 
			},
			{
				"x": -0.2468605358,
				"y": -2.854638269,
				"z": -2.1026845964,
				"element": "C" 
			},
			{
				"x": -0.0438187073,
				"y": -1.4925528218,
				"z": -2.7757813203,
				"element": "C" 
			},
			{
				"x": -0.3639116151,
				"y": -0.2723064495,
				"z": -1.8986507657,
				"element": "C" 
			},
			{
				"x": 0.2737029688,
				"y": -0.2933605777,
				"z": -0.5698866885,
				"element": "N" 
			},
			{
				"x": 1.6473464811,
				"y": -0.0596489424,
				"z": -0.5333955621,
				"element": "C" 
			},
			{
				"x": 2.3072224124,
				"y": 0.1860491891,
				"z": -1.5338040523,
				"element": "O" 
			},
			{
				"x": 2.2275426585,
				"y": -0.1075637921,
				"z": 0.7198215123,
				"element": "N" 
			},
			{
				"x": 1.566725207,
				"y": -0.4130443959,
				"z": 1.8986919974,
				"element": "C" 
			},
			{
				"x": 0.1931643277,
				"y": -0.694680299,
				"z": 1.8345891249,
				"element": "C" 
			},
			{
				"x": -0.505864943,
				"y": -1.0113762299,
				"z": 3.0065555904,
				"element": "C" 
			},
			{
				"x": 0.151739912,
				"y": -1.042968067,
				"z": 4.2292402393,
				"element": "C" 
			},
			{
				"x": 1.524240836,
				"y": -0.7589805948,
				"z": 4.283709492,
				"element": "C" 
			},
			{
				"x": 2.2353249224,
				"y": -0.4453152714,
				"z": 3.131196486,
				"element": "C" 
			},
			{
				"x": -0.5083169773,
				"y": -0.6677080904,
				"z": 0.537872301,
				"element": "C" 
			},
			{
				"x": -1.6970826484,
				"y": -0.9335179242,
				"z": 0.4133418338,
				"element": "O" 
			},
			{
				"x": 1.6038716179,
				"y": -3.1688823429,
				"z": -1.5852984872,
				"element": "H" 
			},
			{
				"x": -1.1986401976,
				"y": -2.8789970552,
				"z": -1.5635395499,
				"element": "H" 
			},
			{
				"x": -0.2828828711,
				"y": -3.6392661987,
				"z": -2.874810311,
				"element": "H" 
			},
			{
				"x": -0.6922287757,
				"y": -1.4328497299,
				"z": -3.6599630467,
				"element": "H" 
			},
			{
				"x": 0.9878801923,
				"y": -1.4187958215,
				"z": -3.1390510834,
				"element": "H" 
			},
			{
				"x": -1.4347999883,
				"y": -0.2137300036,
				"z": -1.7052970914,
				"element": "H" 
			},
			{
				"x": -0.0379333623,
				"y": 0.6389615111,
				"z": -2.404836277,
				"element": "H" 
			},
			{
				"x": 3.2215215605,
				"y": 0.0724775989,
				"z": 0.7200421751,
				"element": "H" 
			},
			{
				"x": -1.5650192575,
				"y": -1.2282047928,
				"z": 2.9194238683,
				"element": "H" 
			},
			{
				"x": -0.3903895905,
				"y": -1.2872389312,
				"z": 5.1368493363,
				"element": "H" 
			},
			{
				"x": 2.0443911861,
				"y": -0.7833249304,
				"z": 5.2369072989,
				"element": "H" 
			},
			{
				"x": 3.2986939843,
				"y": -0.2270574245,
				"z": 3.1767645472,
				"element": "H" 
			}
		],
		 "valence_orbital": [ 
			{
				"type": "occ",
				"energy": -0.27643,
				"method": "rhf"
			},
			{
				"type": "occ",
				"energy": -0.26671,
				"method": "rhf"
			},
			{
				"type": "occ",
				"energy": -0.26086,
				"method": "rhf"
			},
			{
				"type": "occ",
				"energy": -0.25211,
				"method": "rhf"
			},
			{
				"type": "occ",
				"energy": -0.23199,
				"method": "rhf"
			},
			{
				"type": "unocc",
				"energy": -0.04703,
				"method": "rhf"
			},
			{
				"type": "unocc",
				"energy": -0.0144,
				"method": "rhf"
			},
			{
				"type": "unocc",
				"energy": 0.02594,
				"method": "rhf"
			},
			{
				"type": "unocc",
				"energy": 0.07397,
				"method": "rhf"
			},
			{
				"type": "unocc",
				"energy": 0.07468,
				"method": "rhf"
			}
		],
		"cosmo_sigma_profile": { 
			"-0.025": 0.0,
			"-0.024": 0.0,
			"-0.023": 0.0,
			"-0.022": 0.0,
			"-0.021": 0.0,
			"-0.02": 0.0,
			"-0.019": 0.0,
			"-0.018": 0.0,
			"-0.017": 0.0941532757808,
			"-0.016": 0.963725351817,
			"-0.015": 1.73346342315,
			"-0.014": 2.1782604973,
			"-0.013": 1.79441678865,
			"-0.012": 1.72779595579,
			"-0.011": 2.32538587832,
			"-0.01": 1.79053599046,
			"-0.009": 2.78977285333,
			"-0.008": 2.69136987228,
			"-0.007": 4.89157758611,
			"-0.006": 9.11160443749,
			"-0.005": 13.0449128714,
			"-0.004": 19.3117647829,
			"-0.003": 25.3969137231,
			"-0.002": 20.3445562782,
			"-0.001": 19.1017340757,
			"0.0": 13.4643192652,
			"0.001": 13.0708846732,
			"0.002": 14.9931331049,
			"0.003": 15.1409033863,
			"0.004": 13.3333416983,
			"0.005": 4.99961454905,
			"0.006": 5.21475642207,
			"0.007": 3.71166080182,
			"0.008": 3.54424375291,
			"0.009": 3.50399506536,
			"0.01": 3.84402012955,
			"0.011": 4.61708919514,
			"0.012": 7.26089126694,
			"0.013": 6.8707218374,
			"0.014": 1.45575578133,
			"0.015": 0.378932057788,
			"0.016": 0.0,
			"0.017": 0.0,
			"0.018": 0.0,
			"0.019": 0.0,
			"0.02": 0.0,
			"0.021": 0.0,
			"0.022": 0.0,
			"0.023": 0.0,
			"0.024": 0.0,
			"0.025": 0.0
		}
	}
}
