{
	 "smiles": "CCOC(=O)CN1N=CC2=C1C=C(N)C=C2", 
	 "Tm": 388.15, 
	 "num_atms": 29, 
	 "gaussian": { 
		 "optdone": 1, 
		 "sigma_profile": "yes", 
		 "theory": "DFT", 
		 "functional": "B3LYP", 
		 "basiset": "6-31G**", 
		 "properties": { 
			 "R2extent": 4070.1153, 
			 "electric_dipole_moment_norm": 2.93189965892, 
			 "electric_quadrupole_moment_norm": 12.4167806005, 
			 "total_energy": -741.706882292, 
			 "HOMO_LUMO_gap": 0.17968, 
			 "cosmo_polarized_energy": -16.75, 
			 "cosmo_cavitation_energy": 33.56, 
			 "cosmo_dispersion_energy": -23.36, 
			 "cosmo_repulsion_energy": 1.87, 
			 "cosmo_total_nonelectrostatic_energy": 12.07, 
			 "SMD_solvation_energy": 5.81 
		},
		"coords": [
			{
				"x": -3.3707192761,
				"y": -2.9825937683,
				"z": -1.5963399057,
				"element": "C" 
			},
			{
				"x": -2.0833718665,
				"y": -2.2659434917,
				"z": -1.9725648489,
				"element": "C" 
			},
			{
				"x": -1.5289511976,
				"y": -1.5575037287,
				"z": -0.8345544445,
				"element": "O" 
			},
			{
				"x": -0.7328360979,
				"y": -2.2613688269,
				"z": -0.0195773758,
				"element": "C" 
			},
			{
				"x": -0.4376531231,
				"y": -3.4293847886,
				"z": -0.1596256723,
				"element": "O" 
			},
			{
				"x": -0.2222091981,
				"y": -1.4378263571,
				"z": 1.1665145365,
				"element": "C" 
			},
			{
				"x": -0.4011580884,
				"y": -0.0138622906,
				"z": 1.0885661462,
				"element": "N" 
			},
			{
				"x": -1.4534793848,
				"y": 0.5746418419,
				"z": 1.7422145407,
				"element": "N" 
			},
			{
				"x": -1.4035439371,
				"y": 1.8553741444,
				"z": 1.4310001599,
				"element": "C" 
			},
			{
				"x": -0.3174233924,
				"y": 2.1446144592,
				"z": 0.5501087593,
				"element": "C" 
			},
			{
				"x": 0.308519669,
				"y": 0.8906450396,
				"z": 0.3424942949,
				"element": "C" 
			},
			{
				"x": 1.4367630055,
				"y": 0.7317751484,
				"z": -0.4748684609,
				"element": "C" 
			},
			{
				"x": 1.945611419,
				"y": 1.8728115763,
				"z": -1.0976247302,
				"element": "C" 
			},
			{
				"x": 3.0290883994,
				"y": 1.785306333,
				"z": -1.9742049125,
				"element": "N" 
			},
			{
				"x": 1.3251333035,
				"y": 3.1402022883,
				"z": -0.893714066,
				"element": "C" 
			},
			{
				"x": 0.2137793037,
				"y": 3.2816448682,
				"z": -0.0853171177,
				"element": "C" 
			},
			{
				"x": -3.1726844981,
				"y": -3.7723523713,
				"z": -0.8674338385,
				"element": "H" 
			},
			{
				"x": -3.8126185056,
				"y": -3.4411837308,
				"z": -2.4872122582,
				"element": "H" 
			},
			{
				"x": -4.0963640719,
				"y": -2.282199096,
				"z": -1.1731739692,
				"element": "H" 
			},
			{
				"x": -1.3339813326,
				"y": -2.966822617,
				"z": -2.3479685501,
				"element": "H" 
			},
			{
				"x": -2.2585517634,
				"y": -1.4845918413,
				"z": -2.7151529661,
				"element": "H" 
			},
			{
				"x": 0.8350501183,
				"y": -1.6896424766,
				"z": 1.2977814093,
				"element": "H" 
			},
			{
				"x": -0.7534686826,
				"y": -1.7834026793,
				"z": 2.0573674661,
				"element": "H" 
			},
			{
				"x": -2.1353525877,
				"y": 2.5367195422,
				"z": 1.8453006609,
				"element": "H" 
			},
			{
				"x": 1.8990812492,
				"y": -0.2382648835,
				"z": -0.6332840478,
				"element": "H" 
			},
			{
				"x": 3.6232689395,
				"y": 0.977662285,
				"z": -1.8471448807,
				"element": "H" 
			},
			{
				"x": 3.5663587002,
				"y": 2.6348856007,
				"z": -2.0780629761,
				"element": "H" 
			},
			{
				"x": 1.74126755,
				"y": 4.0074317747,
				"z": -1.3998237834,
				"element": "H" 
			},
			{
				"x": -0.2389546532,
				"y": 4.2592280459,
				"z": 0.0539008307,
				"element": "H" 
			}
		],
		 "valence_orbital": [ 
			{
				"type": "occ",
				"energy": -0.28406,
				"method": "rhf"
			},
			{
				"type": "occ",
				"energy": -0.28177,
				"method": "rhf"
			},
			{
				"type": "occ",
				"energy": -0.26846,
				"method": "rhf"
			},
			{
				"type": "occ",
				"energy": -0.21622,
				"method": "rhf"
			},
			{
				"type": "occ",
				"energy": -0.19607,
				"method": "rhf"
			},
			{
				"type": "unocc",
				"energy": -0.01639,
				"method": "rhf"
			},
			{
				"type": "unocc",
				"energy": 0.00843,
				"method": "rhf"
			},
			{
				"type": "unocc",
				"energy": 0.02588,
				"method": "rhf"
			},
			{
				"type": "unocc",
				"energy": 0.06694,
				"method": "rhf"
			},
			{
				"type": "unocc",
				"energy": 0.08108,
				"method": "rhf"
			}
		],
		"cosmo_sigma_profile": { 
			"-0.025": 0.0,
			"-0.024": 0.0,
			"-0.023": 0.0,
			"-0.022": 0.0,
			"-0.021": 0.0,
			"-0.02": 0.0,
			"-0.019": 0.0,
			"-0.018": 0.0,
			"-0.017": 0.0,
			"-0.016": 0.0,
			"-0.015": 0.0,
			"-0.014": 0.0,
			"-0.013": 0.379978629587,
			"-0.012": 2.69377103153,
			"-0.011": 2.58917576846,
			"-0.01": 3.68495646494,
			"-0.009": 4.24779153649,
			"-0.008": 7.63586416159,
			"-0.007": 9.87265601383,
			"-0.006": 14.4588411359,
			"-0.005": 15.9574836424,
			"-0.004": 22.702752783,
			"-0.003": 20.1326724003,
			"-0.002": 19.215018473,
			"-0.001": 15.5320808285,
			"0.0": 15.9744274203,
			"0.001": 9.96232802252,
			"0.002": 9.1938192388,
			"0.003": 11.1953503576,
			"0.004": 14.6501014758,
			"0.005": 17.5905888674,
			"0.006": 13.1183811489,
			"0.007": 5.86198448107,
			"0.008": 5.39702904321,
			"0.009": 4.93122312609,
			"0.01": 3.37531475615,
			"0.011": 5.54656078618,
			"0.012": 5.747542856,
			"0.013": 1.61983402137,
			"0.014": 1.60588794138,
			"0.015": 1.05551643853,
			"0.016": 0.117511040328,
			"0.017": 0.0,
			"0.018": 0.0,
			"0.019": 0.0,
			"0.02": 0.0,
			"0.021": 0.0,
			"0.022": 0.0,
			"0.023": 0.0,
			"0.024": 0.0,
			"0.025": 0.0
		}
	}
}
