{
	 "smiles": "CCCCOCOCCCC", 
	 "Tm": 215.05, 
	 "num_atms": 31, 
	 "gaussian": { 
		 "optdone": 1, 
		 "sigma_profile": "yes", 
		 "theory": "DFT", 
		 "functional": "B3LYP", 
		 "basiset": "6-31G**", 
		 "properties": { 
			 "R2extent": 4241.3152, 
			 "electric_dipole_moment_norm": 1.61652171653, 
			 "electric_quadrupole_moment_norm": 3.40959336725, 
			 "total_energy": -505.456935846, 
			 "HOMO_LUMO_gap": 0.33088, 
			 "cosmo_polarized_energy": -5.97, 
			 "cosmo_cavitation_energy": 32.35, 
			 "cosmo_dispersion_energy": -22.88, 
			 "cosmo_repulsion_energy": 1.93, 
			 "cosmo_total_nonelectrostatic_energy": 11.4, 
			 "SMD_solvation_energy": 5.5 
		},
		"coords": [
			{
				"x": -2.4796724015,
				"y": 3.9921771529,
				"z": -0.7273574168,
				"element": "C" 
			},
			{
				"x": -2.8575487765,
				"y": 2.5124014219,
				"z": -0.8596072247,
				"element": "C" 
			},
			{
				"x": -3.1478131195,
				"y": 1.8097750306,
				"z": 0.4767078312,
				"element": "C" 
			},
			{
				"x": -1.9408886836,
				"y": 1.6807255959,
				"z": 1.4008993523,
				"element": "C" 
			},
			{
				"x": -0.9414246515,
				"y": 0.9192316821,
				"z": 0.7407462943,
				"element": "O" 
			},
			{
				"x": 0.2252830933,
				"y": 0.7377851212,
				"z": 1.5183001941,
				"element": "C" 
			},
			{
				"x": 1.1079549495,
				"y": -0.0947021542,
				"z": 0.8459037182,
				"element": "O" 
			},
			{
				"x": 0.7002745131,
				"y": -1.469735679,
				"z": 0.7804212934,
				"element": "C" 
			},
			{
				"x": 1.1884582723,
				"y": -2.2794948568,
				"z": 1.9824930805,
				"element": "C" 
			},
			{
				"x": 2.715713597,
				"y": -2.3196859673,
				"z": 2.1141037456,
				"element": "C" 
			},
			{
				"x": 3.1941481354,
				"y": -3.0980595869,
				"z": 3.3431286797,
				"element": "C" 
			},
			{
				"x": -1.547294031,
				"y": 4.1269797163,
				"z": -0.1691336124,
				"element": "H" 
			},
			{
				"x": -3.2624998899,
				"y": 4.5596728599,
				"z": -0.2098259101,
				"element": "H" 
			},
			{
				"x": -2.335898975,
				"y": 4.4488011751,
				"z": -1.7120466854,
				"element": "H" 
			},
			{
				"x": -3.7478509853,
				"y": 2.4250288603,
				"z": -1.4948994755,
				"element": "H" 
			},
			{
				"x": -2.0544711249,
				"y": 1.9711429815,
				"z": -1.3714642055,
				"element": "H" 
			},
			{
				"x": -3.5328532908,
				"y": 0.8017293612,
				"z": 0.2802637664,
				"element": "H" 
			},
			{
				"x": -3.935314149,
				"y": 2.3486349515,
				"z": 1.0212025501,
				"element": "H" 
			},
			{
				"x": -2.2385773106,
				"y": 1.1880280938,
				"z": 2.3424966017,
				"element": "H" 
			},
			{
				"x": -1.5464004812,
				"y": 2.6745000425,
				"z": 1.6714896296,
				"element": "H" 
			},
			{
				"x": 0.7491929049,
				"y": 1.6947212831,
				"z": 1.6633302741,
				"element": "H" 
			},
			{
				"x": -0.057747289,
				"y": 0.3341500571,
				"z": 2.5104647692,
				"element": "H" 
			},
			{
				"x": -0.3892282019,
				"y": -1.5271608556,
				"z": 0.6766710274,
				"element": "H" 
			},
			{
				"x": 1.1423336629,
				"y": -1.860481157,
				"z": -0.1426535996,
				"element": "H" 
			},
			{
				"x": 0.7927414291,
				"y": -3.3006298736,
				"z": 1.8867006766,
				"element": "H" 
			},
			{
				"x": 0.7490454789,
				"y": -1.8710177203,
				"z": 2.9033261017,
				"element": "H" 
			},
			{
				"x": 3.0924459632,
				"y": -1.2912314167,
				"z": 2.1513933456,
				"element": "H" 
			},
			{
				"x": 3.1419380448,
				"y": -2.7676444165,
				"z": 1.205802132,
				"element": "H" 
			},
			{
				"x": 2.8512712481,
				"y": -4.1389999297,
				"z": 3.3148402374,
				"element": "H" 
			},
			{
				"x": 4.2871142805,
				"y": -3.1106239772,
				"z": 3.4077095006,
				"element": "H" 
			},
			{
				"x": 2.8126677882,
				"y": -2.6517177964,
				"z": 4.2688933283,
				"element": "H" 
			}
		],
		 "valence_orbital": [ 
			{
				"type": "occ",
				"energy": -0.32347,
				"method": "rhf"
			},
			{
				"type": "occ",
				"energy": -0.31336,
				"method": "rhf"
			},
			{
				"type": "occ",
				"energy": -0.30518,
				"method": "rhf"
			},
			{
				"type": "occ",
				"energy": -0.26379,
				"method": "rhf"
			},
			{
				"type": "occ",
				"energy": -0.2532,
				"method": "rhf"
			},
			{
				"type": "unocc",
				"energy": 0.07768,
				"method": "rhf"
			},
			{
				"type": "unocc",
				"energy": 0.09573,
				"method": "rhf"
			},
			{
				"type": "unocc",
				"energy": 0.11483,
				"method": "rhf"
			},
			{
				"type": "unocc",
				"energy": 0.11949,
				"method": "rhf"
			},
			{
				"type": "unocc",
				"energy": 0.12402,
				"method": "rhf"
			}
		],
		"cosmo_sigma_profile": { 
			"-0.025": 0.0,
			"-0.024": 0.0,
			"-0.023": 0.0,
			"-0.022": 0.0,
			"-0.021": 0.0,
			"-0.02": 0.0,
			"-0.019": 0.0,
			"-0.018": 0.0,
			"-0.017": 0.0,
			"-0.016": 0.0,
			"-0.015": 0.0,
			"-0.014": 0.0,
			"-0.013": 0.0,
			"-0.012": 0.0,
			"-0.011": 0.0,
			"-0.01": 0.0,
			"-0.009": 0.0,
			"-0.008": 0.0,
			"-0.007": 0.0,
			"-0.006": 0.0,
			"-0.005": 1.59895067002,
			"-0.004": 13.6365428551,
			"-0.003": 32.4548174711,
			"-0.002": 44.174901152,
			"-0.001": 38.9793277548,
			"0.0": 37.0426213934,
			"0.001": 34.0160071303,
			"0.002": 16.0440514802,
			"0.003": 4.59776501305,
			"0.004": 3.16581112861,
			"0.005": 3.09902854358,
			"0.006": 2.96218811752,
			"0.007": 3.59735093456,
			"0.008": 2.62905246348,
			"0.009": 1.81738448944,
			"0.01": 2.45967686189,
			"0.011": 2.54646141929,
			"0.012": 2.68007172569,
			"0.013": 1.2339578837,
			"0.014": 0.077723302139,
			"0.015": 0.0,
			"0.016": 0.0,
			"0.017": 0.0,
			"0.018": 0.0,
			"0.019": 0.0,
			"0.02": 0.0,
			"0.021": 0.0,
			"0.022": 0.0,
			"0.023": 0.0,
			"0.024": 0.0,
			"0.025": 0.0
		}
	}
}
