{
	 "smiles": "FC=C(F)F", 
	 "Tm": 195.15, 
	 "num_atms": 6, 
	 "gaussian": { 
		 "optdone": 1, 
		 "sigma_profile": "yes", 
		 "theory": "DFT", 
		 "functional": "B3LYP", 
		 "basiset": "6-31G**", 
		 "properties": { 
			 "R2extent": 562.4395, 
			 "electric_dipole_moment_norm": 1.15637846313, 
			 "electric_quadrupole_moment_norm": 2.33938603698, 
			 "total_energy": -376.270687341, 
			 "HOMO_LUMO_gap": 0.28031, 
			 "cosmo_polarized_energy": -2.04, 
			 "cosmo_cavitation_energy": 11.95, 
			 "cosmo_dispersion_energy": -8.27, 
			 "cosmo_repulsion_energy": 0.7, 
			 "cosmo_total_nonelectrostatic_energy": 4.39, 
			 "SMD_solvation_energy": 4.73 
		},
		"coords": [
			{
				"x": -0.2426334684,
				"y": -1.6143077263,
				"z": 1.1021756508,
				"element": "F" 
			},
			{
				"x": 0.1314294472,
				"y": -0.3675550472,
				"z": 0.7639085279,
				"element": "C" 
			},
			{
				"x": -0.7104059798,
				"y": 0.6499630756,
				"z": 0.893395465,
				"element": "C" 
			},
			{
				"x": -0.3852442895,
				"y": 1.8945724942,
				"z": 0.5730190828,
				"element": "F" 
			},
			{
				"x": -1.9482113089,
				"y": 0.5559777001,
				"z": 1.3465246962,
				"element": "F" 
			},
			{
				"x": 1.1389655995,
				"y": -0.2536504965,
				"z": 0.3889765774,
				"element": "H" 
			}
		],
		 "valence_orbital": [ 
			{
				"type": "occ",
				"energy": -0.45575,
				"method": "rhf"
			},
			{
				"type": "occ",
				"energy": -0.44849,
				"method": "rhf"
			},
			{
				"type": "occ",
				"energy": -0.43006,
				"method": "rhf"
			},
			{
				"type": "occ",
				"energy": -0.38987,
				"method": "rhf"
			},
			{
				"type": "occ",
				"energy": -0.25425,
				"method": "rhf"
			},
			{
				"type": "unocc",
				"energy": 0.02606,
				"method": "rhf"
			},
			{
				"type": "unocc",
				"energy": 0.07427,
				"method": "rhf"
			},
			{
				"type": "unocc",
				"energy": 0.12233,
				"method": "rhf"
			},
			{
				"type": "unocc",
				"energy": 0.15327,
				"method": "rhf"
			},
			{
				"type": "unocc",
				"energy": 0.31879,
				"method": "rhf"
			}
		],
		"cosmo_sigma_profile": { 
			"-0.025": 0.0,
			"-0.024": 0.0,
			"-0.023": 0.0,
			"-0.022": 0.0,
			"-0.021": 0.0,
			"-0.02": 0.0,
			"-0.019": 0.0,
			"-0.018": 0.0,
			"-0.017": 0.0,
			"-0.016": 0.0,
			"-0.015": 0.0,
			"-0.014": 0.0,
			"-0.013": 0.0,
			"-0.012": 0.0,
			"-0.011": 0.195321969418,
			"-0.01": 1.94043048792,
			"-0.009": 1.7348853249,
			"-0.008": 1.82010774085,
			"-0.007": 1.20821490125,
			"-0.006": 2.06416578574,
			"-0.005": 1.27220927316,
			"-0.004": 1.85686203926,
			"-0.003": 5.59202593568,
			"-0.002": 7.35384780964,
			"-0.001": 8.60655710606,
			"0.0": 9.03116835699,
			"0.001": 11.6846031681,
			"0.002": 23.9876618409,
			"0.003": 9.18093097973,
			"0.004": 8.85867468688,
			"0.005": 0.431853952498,
			"0.006": 0.0,
			"0.007": 0.0,
			"0.008": 0.0,
			"0.009": 0.0,
			"0.01": 0.0,
			"0.011": 0.0,
			"0.012": 0.0,
			"0.013": 0.0,
			"0.014": 0.0,
			"0.015": 0.0,
			"0.016": 0.0,
			"0.017": 0.0,
			"0.018": 0.0,
			"0.019": 0.0,
			"0.02": 0.0,
			"0.021": 0.0,
			"0.022": 0.0,
			"0.023": 0.0,
			"0.024": 0.0,
			"0.025": 0.0
		}
	}
}
