{
	 "smiles": "CC1=CC2=C(NC(C(O)=O)=C2Cl)C=C1", 
	 "Tm": 465.15, 
	 "num_atms": 22, 
	 "gaussian": { 
		 "optdone": 1, 
		 "sigma_profile": "yes", 
		 "theory": "DFT", 
		 "functional": "B3LYP", 
		 "basiset": "6-31G**", 
		 "properties": { 
			 "R2extent": 3821.8928, 
			 "electric_dipole_moment_norm": 4.16093477598, 
			 "electric_quadrupole_moment_norm": 13.7372863055, 
			 "total_energy": -1051.30237818, 
			 "HOMO_LUMO_gap": 0.16509, 
			 "cosmo_polarized_energy": -11.58, 
			 "cosmo_cavitation_energy": 28.1, 
			 "cosmo_dispersion_energy": -21.04, 
			 "cosmo_repulsion_energy": 1.64, 
			 "cosmo_total_nonelectrostatic_energy": 8.69, 
			 "SMD_solvation_energy": 5.34 
		},
		"coords": [
			{
				"x": 3.9380365052,
				"y": -2.4860966713,
				"z": -1.4046619317,
				"element": "C" 
			},
			{
				"x": 2.5855018154,
				"y": -1.8203322961,
				"z": -1.3013120463,
				"element": "C" 
			},
			{
				"x": 1.8226624284,
				"y": -1.9192363786,
				"z": -0.1469283732,
				"element": "C" 
			},
			{
				"x": 0.5670984454,
				"y": -1.2842653411,
				"z": -0.0897225009,
				"element": "C" 
			},
			{
				"x": 0.0925756325,
				"y": -0.5489630797,
				"z": -1.2123053613,
				"element": "C" 
			},
			{
				"x": -1.1392458656,
				"y": -0.0393495305,
				"z": -0.8937399135,
				"element": "N" 
			},
			{
				"x": -1.4887149981,
				"y": -0.4109631547,
				"z": 0.3889283301,
				"element": "C" 
			},
			{
				"x": -2.7957398582,
				"y": 0.0594012759,
				"z": 0.8889784724,
				"element": "C" 
			},
			{
				"x": -3.1581342267,
				"y": -0.2903285886,
				"z": 2.1379450172,
				"element": "O" 
			},
			{
				"x": -3.519025451,
				"y": 0.7412016222,
				"z": 0.1906557321,
				"element": "O" 
			},
			{
				"x": -0.4531377068,
				"y": -1.1763863837,
				"z": 0.8997793851,
				"element": "C" 
			},
			{
				"x": -0.3912138017,
				"y": -1.8951764312,
				"z": 2.4855618602,
				"element": "Cl" 
			},
			{
				"x": 0.8559489715,
				"y": -0.4426087176,
				"z": -2.3846045256,
				"element": "C" 
			},
			{
				"x": 2.0849952355,
				"y": -1.0786737054,
				"z": -2.4071407813,
				"element": "C" 
			},
			{
				"x": 4.1919379275,
				"y": -3.017841475,
				"z": -0.483860051,
				"element": "H" 
			},
			{
				"x": 3.9650074226,
				"y": -3.2104104435,
				"z": -2.2271828321,
				"element": "H" 
			},
			{
				"x": 4.7304274193,
				"y": -1.7531941169,
				"z": -1.5966930238,
				"element": "H" 
			},
			{
				"x": 2.1863124272,
				"y": -2.4807525309,
				"z": 0.708811372,
				"element": "H" 
			},
			{
				"x": -1.7555716901,
				"y": 0.5280459948,
				"z": -1.4580262116,
				"element": "H" 
			},
			{
				"x": -2.4730872016,
				"y": -0.8335797537,
				"z": 2.5624259571,
				"element": "H" 
			},
			{
				"x": 0.4958166406,
				"y": 0.1177541039,
				"z": -3.2419609442,
				"element": "H" 
			},
			{
				"x": 2.6948499286,
				"y": -1.0107443981,
				"z": -3.3043476296,
				"element": "H" 
			}
		],
		 "valence_orbital": [ 
			{
				"type": "occ",
				"energy": -0.31709,
				"method": "rhf"
			},
			{
				"type": "occ",
				"energy": -0.28919,
				"method": "rhf"
			},
			{
				"type": "occ",
				"energy": -0.28469,
				"method": "rhf"
			},
			{
				"type": "occ",
				"energy": -0.23769,
				"method": "rhf"
			},
			{
				"type": "occ",
				"energy": -0.2251,
				"method": "rhf"
			},
			{
				"type": "unocc",
				"energy": -0.06001,
				"method": "rhf"
			},
			{
				"type": "unocc",
				"energy": 0.00542,
				"method": "rhf"
			},
			{
				"type": "unocc",
				"energy": 0.01134,
				"method": "rhf"
			},
			{
				"type": "unocc",
				"energy": 0.0175,
				"method": "rhf"
			},
			{
				"type": "unocc",
				"energy": 0.08806,
				"method": "rhf"
			}
		],
		"cosmo_sigma_profile": { 
			"-0.025": 0.0,
			"-0.024": 0.0,
			"-0.023": 0.0,
			"-0.022": 0.0,
			"-0.021": 0.0,
			"-0.02": 0.0,
			"-0.019": 0.0,
			"-0.018": 0.0,
			"-0.017": 0.0,
			"-0.016": 0.153990950957,
			"-0.015": 0.87340211901,
			"-0.014": 1.02292191591,
			"-0.013": 1.35489628166,
			"-0.012": 1.37509142048,
			"-0.011": 1.68478699956,
			"-0.01": 2.98120632149,
			"-0.009": 2.95808590187,
			"-0.008": 2.82239020553,
			"-0.007": 4.4300693687,
			"-0.006": 5.84152069517,
			"-0.005": 9.2758320581,
			"-0.004": 16.0619727467,
			"-0.003": 16.6064009511,
			"-0.002": 18.3191546273,
			"-0.001": 18.7260646856,
			"0.0": 19.2058781197,
			"0.001": 22.2014641336,
			"0.002": 19.6041002098,
			"0.003": 15.3572714291,
			"0.004": 12.6035291936,
			"0.005": 8.96867132045,
			"0.006": 2.5039200277,
			"0.007": 2.21391383506,
			"0.008": 3.08908246779,
			"0.009": 2.93645675603,
			"0.01": 5.08719524203,
			"0.011": 4.51045114021,
			"0.012": 3.13459636589,
			"0.013": 1.30938326354,
			"0.014": 0.0186177733355,
			"0.015": 0.0,
			"0.016": 0.0,
			"0.017": 0.0,
			"0.018": 0.0,
			"0.019": 0.0,
			"0.02": 0.0,
			"0.021": 0.0,
			"0.022": 0.0,
			"0.023": 0.0,
			"0.024": 0.0,
			"0.025": 0.0
		}
	}
}
