{
	 "smiles": "COC(=O)C1=CNC2=C1C=CC=C2", 
	 "Tm": 424.15, 
	 "num_atms": 22, 
	 "gaussian": { 
		 "optdone": 1, 
		 "sigma_profile": "yes", 
		 "theory": "DFT", 
		 "functional": "B3LYP", 
		 "basiset": "6-31G**", 
		 "properties": { 
			 "R2extent": 2632.4521, 
			 "electric_dipole_moment_norm": 3.99912909269, 
			 "electric_quadrupole_moment_norm": 9.37200751547, 
			 "total_energy": -591.705681524, 
			 "HOMO_LUMO_gap": 0.18582, 
			 "cosmo_polarized_energy": -13.96, 
			 "cosmo_cavitation_energy": 26.36, 
			 "cosmo_dispersion_energy": -19.66, 
			 "cosmo_repulsion_energy": 1.54, 
			 "cosmo_total_nonelectrostatic_energy": 8.25, 
			 "SMD_solvation_energy": 5.91 
		},
		"coords": [
			{
				"x": 3.8462395061,
				"y": -1.8415836657,
				"z": 0.473554246,
				"element": "C" 
			},
			{
				"x": 2.4466079004,
				"y": -1.7406130249,
				"z": 0.7650293353,
				"element": "O" 
			},
			{
				"x": 1.786693216,
				"y": -0.762067452,
				"z": 0.0850390239,
				"element": "C" 
			},
			{
				"x": 2.3403944396,
				"y": -0.0252382441,
				"z": -0.7122451559,
				"element": "O" 
			},
			{
				"x": 0.367906424,
				"y": -0.7155076455,
				"z": 0.4294635568,
				"element": "C" 
			},
			{
				"x": -0.2927421192,
				"y": -1.5318368461,
				"z": 1.3250820401,
				"element": "C" 
			},
			{
				"x": -1.6145569623,
				"y": -1.1786140042,
				"z": 1.3741214359,
				"element": "N" 
			},
			{
				"x": -1.8486463518,
				"y": -0.1187538973,
				"z": 0.5078268788,
				"element": "C" 
			},
			{
				"x": -0.6118805771,
				"y": 0.2008528222,
				"z": -0.108441358,
				"element": "C" 
			},
			{
				"x": -0.5626496029,
				"y": 1.2492310994,
				"z": -1.0415153777,
				"element": "C" 
			},
			{
				"x": -1.7349344381,
				"y": 1.938560847,
				"z": -1.3278937835,
				"element": "C" 
			},
			{
				"x": -2.9544651385,
				"y": 1.6048103962,
				"z": -0.7039170178,
				"element": "C" 
			},
			{
				"x": -3.0304838776,
				"y": 0.5712882651,
				"z": 0.2234117024,
				"element": "C" 
			},
			{
				"x": 4.0086745509,
				"y": -2.0589183736,
				"z": -0.5855967177,
				"element": "H" 
			},
			{
				"x": 4.2183615588,
				"y": -2.6595374873,
				"z": 1.091306361,
				"element": "H" 
			},
			{
				"x": 4.3635876778,
				"y": -0.9106829545,
				"z": 0.7209165084,
				"element": "H" 
			},
			{
				"x": 0.0973549846,
				"y": -2.3387307525,
				"z": 1.9270950289,
				"element": "H" 
			},
			{
				"x": -2.3102569128,
				"y": -1.6222126134,
				"z": 1.952321143,
				"element": "H" 
			},
			{
				"x": 0.3787415979,
				"y": 1.4996615932,
				"z": -1.5168216143,
				"element": "H" 
			},
			{
				"x": -1.7149711446,
				"y": 2.752179754,
				"z": -2.0470920302,
				"element": "H" 
			},
			{
				"x": -3.8516069972,
				"y": 2.1646027566,
				"z": -0.9513622774,
				"element": "H" 
			},
			{
				"x": -3.9692677341,
				"y": 0.3128094273,
				"z": 0.7051180721,
				"element": "H" 
			}
		],
		 "valence_orbital": [ 
			{
				"type": "occ",
				"energy": -0.29027,
				"method": "rhf"
			},
			{
				"type": "occ",
				"energy": -0.27714,
				"method": "rhf"
			},
			{
				"type": "occ",
				"energy": -0.26207,
				"method": "rhf"
			},
			{
				"type": "occ",
				"energy": -0.22707,
				"method": "rhf"
			},
			{
				"type": "occ",
				"energy": -0.2116,
				"method": "rhf"
			},
			{
				"type": "unocc",
				"energy": -0.02578,
				"method": "rhf"
			},
			{
				"type": "unocc",
				"energy": 0.00765,
				"method": "rhf"
			},
			{
				"type": "unocc",
				"energy": 0.02611,
				"method": "rhf"
			},
			{
				"type": "unocc",
				"energy": 0.07102,
				"method": "rhf"
			},
			{
				"type": "unocc",
				"energy": 0.10567,
				"method": "rhf"
			}
		],
		"cosmo_sigma_profile": { 
			"-0.025": 0.0,
			"-0.024": 0.0,
			"-0.023": 0.0,
			"-0.022": 0.0,
			"-0.021": 0.0,
			"-0.02": 0.0,
			"-0.019": 0.0,
			"-0.018": 0.0,
			"-0.017": 0.290174576276,
			"-0.016": 1.797454255,
			"-0.015": 1.74351309111,
			"-0.014": 1.05842547335,
			"-0.013": 1.38739158627,
			"-0.012": 1.28374452613,
			"-0.011": 1.3314057763,
			"-0.01": 1.56894025168,
			"-0.009": 3.02580372756,
			"-0.008": 2.6448343586,
			"-0.007": 3.33316136323,
			"-0.006": 7.61920652379,
			"-0.005": 12.5168884214,
			"-0.004": 15.3076225156,
			"-0.003": 17.3995586656,
			"-0.002": 13.2036678565,
			"-0.001": 12.153728373,
			"0.0": 10.1310489411,
			"0.001": 11.4932595878,
			"0.002": 15.2304483856,
			"0.003": 16.4764549811,
			"0.004": 16.6195841939,
			"0.005": 13.1513474608,
			"0.006": 12.1466650264,
			"0.007": 4.94059555819,
			"0.008": 1.8302892082,
			"0.009": 1.91121364883,
			"0.01": 1.68801338328,
			"0.011": 2.18052015261,
			"0.012": 3.46400312367,
			"0.013": 2.01119107486,
			"0.014": 0.00700993034127,
			"0.015": 0.0,
			"0.016": 0.0,
			"0.017": 0.0,
			"0.018": 0.0,
			"0.019": 0.0,
			"0.02": 0.0,
			"0.021": 0.0,
			"0.022": 0.0,
			"0.023": 0.0,
			"0.024": 0.0,
			"0.025": 0.0
		}
	}
}
