{
	 "smiles": "OCC1=CC=C(OCC2=CC=CS2)C=C1", 
	 "Tm": 342.15, 
	 "num_atms": 27, 
	 "gaussian": { 
		 "optdone": 1, 
		 "sigma_profile": "yes", 
		 "theory": "DFT", 
		 "functional": "B3LYP", 
		 "basiset": "6-31G**", 
		 "properties": { 
			 "R2extent": 6707.2909, 
			 "electric_dipole_moment_norm": 1.85776094264, 
			 "electric_quadrupole_moment_norm": 13.0657978092, 
			 "total_energy": -1013.10701908, 
			 "HOMO_LUMO_gap": 0.19698, 
			 "cosmo_polarized_energy": -11.69, 
			 "cosmo_cavitation_energy": 32.88, 
			 "cosmo_dispersion_energy": -24.48, 
			 "cosmo_repulsion_energy": 1.88, 
			 "cosmo_total_nonelectrostatic_energy": 10.29, 
			 "SMD_solvation_energy": 5.65 
		},
		"coords": [
			{
				"x": -0.2116652942,
				"y": -4.9117424351,
				"z": 2.0677092547,
				"element": "O" 
			},
			{
				"x": 0.8628978724,
				"y": -4.3129283025,
				"z": 1.3541012072,
				"element": "C" 
			},
			{
				"x": 0.4694617047,
				"y": -3.0535807891,
				"z": 0.6076841205,
				"element": "C" 
			},
			{
				"x": 1.3822953878,
				"y": -2.0046615623,
				"z": 0.4233015661,
				"element": "C" 
			},
			{
				"x": 1.033241883,
				"y": -0.8641434143,
				"z": -0.2890935191,
				"element": "C" 
			},
			{
				"x": -0.2544127116,
				"y": -0.7419936454,
				"z": -0.8317909224,
				"element": "C" 
			},
			{
				"x": -0.5003289743,
				"y": 0.4180156457,
				"z": -1.5135013689,
				"element": "O" 
			},
			{
				"x": -1.8129025073,
				"y": 0.6297271896,
				"z": -2.0358287937,
				"element": "C" 
			},
			{
				"x": -1.8680268123,
				"y": 1.9724839828,
				"z": -2.6891446937,
				"element": "C" 
			},
			{
				"x": -2.2180502613,
				"y": 2.2613740386,
				"z": -3.9819645972,
				"element": "C" 
			},
			{
				"x": -2.2104014977,
				"y": 3.6597558434,
				"z": -4.2716782649,
				"element": "C" 
			},
			{
				"x": -1.8478260656,
				"y": 4.416111768,
				"z": -3.192085948,
				"element": "C" 
			},
			{
				"x": -1.5112717846,
				"y": 3.4337959904,
				"z": -1.8030717077,
				"element": "S" 
			},
			{
				"x": -1.1810048586,
				"y": -1.7759267971,
				"z": -0.6513875865,
				"element": "C" 
			},
			{
				"x": -0.809427015,
				"y": -2.9183524675,
				"z": 0.0628528758,
				"element": "C" 
			},
			{
				"x": -0.5700503847,
				"y": -4.238809942,
				"z": 2.6621445073,
				"element": "H" 
			},
			{
				"x": 1.1989608847,
				"y": -5.0855705901,
				"z": 0.6516163042,
				"element": "H" 
			},
			{
				"x": 1.7168720024,
				"y": -4.0962824446,
				"z": 2.0160860664,
				"element": "H" 
			},
			{
				"x": 2.3813191326,
				"y": -2.0802756117,
				"z": 0.8470871882,
				"element": "H" 
			},
			{
				"x": 1.7344634098,
				"y": -0.0483342044,
				"z": -0.4313425214,
				"element": "H" 
			},
			{
				"x": -2.5460128712,
				"y": 0.5532809348,
				"z": -1.219346675,
				"element": "H" 
			},
			{
				"x": -2.0619313124,
				"y": -0.1372860953,
				"z": -2.7821708975,
				"element": "H" 
			},
			{
				"x": -2.4746814769,
				"y": 1.494969867,
				"z": -4.7056716242,
				"element": "H" 
			},
			{
				"x": -2.4558782964,
				"y": 4.0785694474,
				"z": -5.2408377923,
				"element": "H" 
			},
			{
				"x": -1.7409803811,
				"y": 5.4903785519,
				"z": -3.1310389374,
				"element": "H" 
			},
			{
				"x": -2.182616198,
				"y": -1.7089628659,
				"z": -1.0596623033,
				"element": "H" 
			},
			{
				"x": -1.5282435744,
				"y": -3.7196120924,
				"z": 0.2063350629,
				"element": "H" 
			}
		],
		 "valence_orbital": [ 
			{
				"type": "occ",
				"energy": -0.27171,
				"method": "rhf"
			},
			{
				"type": "occ",
				"energy": -0.25279,
				"method": "rhf"
			},
			{
				"type": "occ",
				"energy": -0.2515,
				"method": "rhf"
			},
			{
				"type": "occ",
				"energy": -0.23582,
				"method": "rhf"
			},
			{
				"type": "occ",
				"energy": -0.21625,
				"method": "rhf"
			},
			{
				"type": "unocc",
				"energy": -0.01927,
				"method": "rhf"
			},
			{
				"type": "unocc",
				"energy": -0.00291,
				"method": "rhf"
			},
			{
				"type": "unocc",
				"energy": 0.00798,
				"method": "rhf"
			},
			{
				"type": "unocc",
				"energy": 0.0315,
				"method": "rhf"
			},
			{
				"type": "unocc",
				"energy": 0.06216,
				"method": "rhf"
			}
		],
		"cosmo_sigma_profile": { 
			"-0.025": 0.0,
			"-0.024": 0.0,
			"-0.023": 0.0,
			"-0.022": 0.0,
			"-0.021": 0.0,
			"-0.02": 0.0,
			"-0.019": 0.0,
			"-0.018": 0.0,
			"-0.017": 0.0,
			"-0.016": 0.0325548163496,
			"-0.015": 0.519773930494,
			"-0.014": 1.38953015089,
			"-0.013": 0.492011504565,
			"-0.012": 0.731459757465,
			"-0.011": 0.813218714908,
			"-0.01": 0.844091405502,
			"-0.009": 1.40669119523,
			"-0.008": 2.69492552357,
			"-0.007": 7.1800138949,
			"-0.006": 17.8399971379,
			"-0.005": 19.9078008406,
			"-0.004": 22.9623210995,
			"-0.003": 18.6740879865,
			"-0.002": 17.0306689381,
			"-0.001": 15.3144957201,
			"0.0": 13.2497249344,
			"0.001": 14.7920542379,
			"0.002": 14.6054393726,
			"0.003": 20.3154554583,
			"0.004": 22.0877821389,
			"0.005": 22.0437999508,
			"0.006": 11.766750932,
			"0.007": 2.50170537586,
			"0.008": 3.80760854914,
			"0.009": 2.06837240551,
			"0.01": 2.21401014273,
			"0.011": 1.7097914156,
			"0.012": 0.71779694324,
			"0.013": 1.86482821342,
			"0.014": 1.9989693787,
			"0.015": 0.285219994281,
			"0.016": 0.0,
			"0.017": 0.0,
			"0.018": 0.0,
			"0.019": 0.0,
			"0.02": 0.0,
			"0.021": 0.0,
			"0.022": 0.0,
			"0.023": 0.0,
			"0.024": 0.0,
			"0.025": 0.0
		}
	}
}
