{
	 "smiles": "C1CN(CCN1C1=NC=CC=N1)C1=NC=CC=N1", 
	 "Tm": 418.15, 
	 "num_atms": 32, 
	 "gaussian": { 
		 "optdone": 1, 
		 "sigma_profile": "yes", 
		 "theory": "DFT", 
		 "functional": "B3LYP", 
		 "basiset": "6-31G**", 
		 "properties": { 
			 "R2extent": 6357.2221, 
			 "electric_dipole_moment_norm": 0.000173205080757, 
			 "electric_quadrupole_moment_norm": 15.359585192, 
			 "total_energy": -794.229693091, 
			 "HOMO_LUMO_gap": 0.17415, 
			 "cosmo_polarized_energy": -9.63, 
			 "cosmo_cavitation_energy": 34.57, 
			 "cosmo_dispersion_energy": -25.93, 
			 "cosmo_repulsion_energy": 1.98, 
			 "cosmo_total_nonelectrostatic_energy": 10.62, 
			 "SMD_solvation_energy": 1.09 
		},
		"coords": [
			{
				"x": -0.2513559327,
				"y": -0.934094659,
				"z": 0.5199915319,
				"element": "C" 
			},
			{
				"x": 0.8968477743,
				"y": -0.0706244554,
				"z": 1.0513323894,
				"element": "C" 
			},
			{
				"x": 0.8774421515,
				"y": 1.2467095226,
				"z": 0.4228130826,
				"element": "N" 
			},
			{
				"x": 0.8904345235,
				"y": 1.222955735,
				"z": -1.0366355432,
				"element": "C" 
			},
			{
				"x": -0.2577407655,
				"y": 0.3594676393,
				"z": -1.5680140807,
				"element": "C" 
			},
			{
				"x": -0.238324666,
				"y": -0.9578739248,
				"z": -0.9394609759,
				"element": "N" 
			},
			{
				"x": -0.4199989899,
				"y": -2.1126754626,
				"z": -1.6543348613,
				"element": "C" 
			},
			{
				"x": -0.4926762463,
				"y": -3.2701176339,
				"z": -0.9570116089,
				"element": "N" 
			},
			{
				"x": -0.643158166,
				"y": -4.3822858655,
				"z": -1.6731262837,
				"element": "C" 
			},
			{
				"x": -0.7288765867,
				"y": -4.3911540655,
				"z": -3.0648882597,
				"element": "C" 
			},
			{
				"x": -0.6491035485,
				"y": -3.1408624792,
				"z": -3.6771217165,
				"element": "C" 
			},
			{
				"x": -0.4987454852,
				"y": -2.0039915137,
				"z": -3.000902317,
				"element": "N" 
			},
			{
				"x": 1.0588043786,
				"y": 2.4015098658,
				"z": 1.1377993413,
				"element": "C" 
			},
			{
				"x": 1.1374176865,
				"y": 2.2926812992,
				"z": 2.4843623532,
				"element": "N" 
			},
			{
				"x": 1.2875829774,
				"y": 3.429483668,
				"z": 3.160748045,
				"element": "C" 
			},
			{
				"x": 1.3672584553,
				"y": 4.6798700331,
				"z": 2.5486962435,
				"element": "C" 
			},
			{
				"x": 1.2816569169,
				"y": 4.6711728633,
				"z": 1.1569270561,
				"element": "C" 
			},
			{
				"x": 1.1313658027,
				"y": 3.5590757258,
				"z": 0.4406529722,
				"element": "N" 
			},
			{
				"x": -1.2086029819,
				"y": -0.5195748467,
				"z": 0.8723156799,
				"element": "H" 
			},
			{
				"x": -0.1637142412,
				"y": -1.9564085451,
				"z": 0.8846222836,
				"element": "H" 
			},
			{
				"x": 0.813780667,
				"y": 0.0578819269,
				"z": 2.1294462015,
				"element": "H" 
			},
			{
				"x": 1.8544374667,
				"y": -0.5681048654,
				"z": 0.832659235,
				"element": "H" 
			},
			{
				"x": 0.8027985055,
				"y": 2.2452659209,
				"z": -1.4012603283,
				"element": "H" 
			},
			{
				"x": 1.8476623919,
				"y": 0.8084118635,
				"z": -1.3889869085,
				"element": "H" 
			},
			{
				"x": -0.1746257209,
				"y": 0.2309511494,
				"z": -2.64612318,
				"element": "H" 
			},
			{
				"x": -1.2153623865,
				"y": 0.856908926,
				"z": -1.3493995732,
				"element": "H" 
			},
			{
				"x": -0.6997957576,
				"y": -5.3100350313,
				"z": -1.1041407065,
				"element": "H" 
			},
			{
				"x": -0.8543832368,
				"y": -5.3059570868,
				"z": -3.6312174613,
				"element": "H" 
			},
			{
				"x": -0.7106330807,
				"y": -3.0447505249,
				"z": -4.7609345513,
				"element": "H" 
			},
			{
				"x": 1.3489744424,
				"y": 3.3332435153,
				"z": 4.244557814,
				"element": "H" 
			},
			{
				"x": 1.4926645599,
				"y": 5.5946063772,
				"z": 3.1151552218,
				"element": "H" 
			},
			{
				"x": 1.3381690924,
				"y": 5.5990149283,
				"z": 0.5880789051,
				"element": "H" 
			}
		],
		 "valence_orbital": [ 
			{
				"type": "occ",
				"energy": -0.2973,
				"method": "rhf"
			},
			{
				"type": "occ",
				"energy": -0.23979,
				"method": "rhf"
			},
			{
				"type": "occ",
				"energy": -0.23889,
				"method": "rhf"
			},
			{
				"type": "occ",
				"energy": -0.21789,
				"method": "rhf"
			},
			{
				"type": "occ",
				"energy": -0.20294,
				"method": "rhf"
			},
			{
				"type": "unocc",
				"energy": -0.02879,
				"method": "rhf"
			},
			{
				"type": "unocc",
				"energy": -0.02861,
				"method": "rhf"
			},
			{
				"type": "unocc",
				"energy": 0.0022,
				"method": "rhf"
			},
			{
				"type": "unocc",
				"energy": 0.00613,
				"method": "rhf"
			},
			{
				"type": "unocc",
				"energy": 0.1074,
				"method": "rhf"
			}
		],
		"cosmo_sigma_profile": { 
			"-0.025": 0.0,
			"-0.024": 0.0,
			"-0.023": 0.0,
			"-0.022": 0.0,
			"-0.021": 0.0,
			"-0.02": 0.0,
			"-0.019": 0.0,
			"-0.018": 0.0,
			"-0.017": 0.0,
			"-0.016": 0.0,
			"-0.015": 0.0,
			"-0.014": 0.0,
			"-0.013": 0.0,
			"-0.012": 0.0,
			"-0.011": 0.0,
			"-0.01": 0.0,
			"-0.009": 0.0,
			"-0.008": 0.0790438383226,
			"-0.007": 7.72118886291,
			"-0.006": 13.4626917751,
			"-0.005": 16.2666896984,
			"-0.004": 30.0054936703,
			"-0.003": 29.4322830114,
			"-0.002": 20.5741970363,
			"-0.001": 18.6576263436,
			"0.0": 21.6772937065,
			"0.001": 24.4329556698,
			"0.002": 26.0501941142,
			"0.003": 17.1282821936,
			"0.004": 9.20108482832,
			"0.005": 8.45933774036,
			"0.006": 5.1293673809,
			"0.007": 5.24794214189,
			"0.008": 6.62148578114,
			"0.009": 4.69377824924,
			"0.01": 4.70947584746,
			"0.011": 5.37529309279,
			"0.012": 0.976318593322,
			"0.013": 0.0,
			"0.014": 0.0,
			"0.015": 0.0,
			"0.016": 0.0,
			"0.017": 0.0,
			"0.018": 0.0,
			"0.019": 0.0,
			"0.02": 0.0,
			"0.021": 0.0,
			"0.022": 0.0,
			"0.023": 0.0,
			"0.024": 0.0,
			"0.025": 0.0
		}
	}
}
