{
	 "smiles": "NNC(=O)CCC1=CC=C(O)C=C1", 
	 "Tm": 497.15, 
	 "num_atms": 25, 
	 "gaussian": { 
		 "optdone": 1, 
		 "sigma_profile": "yes", 
		 "theory": "DFT", 
		 "functional": "B3LYP", 
		 "basiset": "6-31G**", 
		 "properties": { 
			 "R2extent": 3012.5202, 
			 "electric_dipole_moment_norm": 3.3211605321, 
			 "electric_quadrupole_moment_norm": 6.93525875292, 
			 "total_energy": -610.126294135, 
			 "HOMO_LUMO_gap": 0.21265, 
			 "cosmo_polarized_energy": -17.63, 
			 "cosmo_cavitation_energy": 29.02, 
			 "cosmo_dispersion_energy": -20.46, 
			 "cosmo_repulsion_energy": 1.66, 
			 "cosmo_total_nonelectrostatic_energy": 10.22, 
			 "SMD_solvation_energy": 5.92 
		},
		"coords": [
			{
				"x": 0.8467872413,
				"y": -2.9140826803,
				"z": -1.9804851385,
				"element": "N" 
			},
			{
				"x": 0.6530801673,
				"y": -1.548522594,
				"z": -2.2702771637,
				"element": "N" 
			},
			{
				"x": 1.4395670279,
				"y": -0.5796335888,
				"z": -1.71161486,
				"element": "C" 
			},
			{
				"x": 2.4148249516,
				"y": -0.8610768379,
				"z": -1.021505931,
				"element": "O" 
			},
			{
				"x": 1.0413102891,
				"y": 0.8553316458,
				"z": -2.0384688669,
				"element": "C" 
			},
			{
				"x": 1.1421957244,
				"y": 1.7764702611,
				"z": -0.8045850429,
				"element": "C" 
			},
			{
				"x": 0.0947178057,
				"y": 1.494003047,
				"z": 0.2525154209,
				"element": "C" 
			},
			{
				"x": 0.3113568679,
				"y": 0.531306786,
				"z": 1.2520019839,
				"element": "C" 
			},
			{
				"x": -0.6583635283,
				"y": 0.2485650638,
				"z": 2.2098164066,
				"element": "C" 
			},
			{
				"x": -1.8792401927,
				"y": 0.9316791436,
				"z": 2.1882727968,
				"element": "C" 
			},
			{
				"x": -2.7966745062,
				"y": 0.6189546067,
				"z": 3.1535342238,
				"element": "O" 
			},
			{
				"x": -2.1148011737,
				"y": 1.895386619,
				"z": 1.2031815846,
				"element": "C" 
			},
			{
				"x": -1.1324067489,
				"y": 2.1673783161,
				"z": 0.2500003746,
				"element": "C" 
			},
			{
				"x": 1.6833470646,
				"y": -3.215328734,
				"z": -2.4796870158,
				"element": "H" 
			},
			{
				"x": 1.0917004087,
				"y": -2.9737099747,
				"z": -0.9911782746,
				"element": "H" 
			},
			{
				"x": -0.2528904866,
				"y": -1.3203950202,
				"z": -2.6518951419,
				"element": "H" 
			},
			{
				"x": 0.0342621395,
				"y": 0.8976152162,
				"z": -2.4701101154,
				"element": "H" 
			},
			{
				"x": 1.7370691407,
				"y": 1.2081590463,
				"z": -2.8106301893,
				"element": "H" 
			},
			{
				"x": 1.0549705019,
				"y": 2.8151693359,
				"z": -1.142144449,
				"element": "H" 
			},
			{
				"x": 2.1447562406,
				"y": 1.6541108783,
				"z": -0.3836712845,
				"element": "H" 
			},
			{
				"x": 1.2555978646,
				"y": -0.0051456276,
				"z": 1.2713338324,
				"element": "H" 
			},
			{
				"x": -0.4862559586,
				"y": -0.4921050822,
				"z": 2.984094201,
				"element": "H" 
			},
			{
				"x": -3.5832316351,
				"y": 1.1655353456,
				"z": 3.0293123221,
				"element": "H" 
			},
			{
				"x": -3.0589762896,
				"y": 2.4366574014,
				"z": 1.1845883963,
				"element": "H" 
			},
			{
				"x": -1.3269029161,
				"y": 2.9259774266,
				"z": -0.5050980693,
				"element": "H" 
			}
		],
		 "valence_orbital": [ 
			{
				"type": "occ",
				"energy": -0.28174,
				"method": "rhf"
			},
			{
				"type": "occ",
				"energy": -0.25663,
				"method": "rhf"
			},
			{
				"type": "occ",
				"energy": -0.25287,
				"method": "rhf"
			},
			{
				"type": "occ",
				"energy": -0.24812,
				"method": "rhf"
			},
			{
				"type": "occ",
				"energy": -0.21419,
				"method": "rhf"
			},
			{
				"type": "unocc",
				"energy": -0.00154,
				"method": "rhf"
			},
			{
				"type": "unocc",
				"energy": 0.01419,
				"method": "rhf"
			},
			{
				"type": "unocc",
				"energy": 0.02557,
				"method": "rhf"
			},
			{
				"type": "unocc",
				"energy": 0.07208,
				"method": "rhf"
			},
			{
				"type": "unocc",
				"energy": 0.08201,
				"method": "rhf"
			}
		],
		"cosmo_sigma_profile": { 
			"-0.025": 0.0,
			"-0.024": 0.0,
			"-0.023": 0.0,
			"-0.022": 0.0,
			"-0.021": 0.0,
			"-0.02": 0.0,
			"-0.019": 0.0,
			"-0.018": 0.186602484428,
			"-0.017": 1.00836189056,
			"-0.016": 1.23999875915,
			"-0.015": 1.12830836941,
			"-0.014": 1.84372690854,
			"-0.013": 2.05046365179,
			"-0.012": 2.10057463361,
			"-0.011": 4.07072610697,
			"-0.01": 4.53073924786,
			"-0.009": 4.60038725324,
			"-0.008": 4.25441939097,
			"-0.007": 3.90150063076,
			"-0.006": 6.06872770406,
			"-0.005": 12.9232993413,
			"-0.004": 15.1083696238,
			"-0.003": 17.3103349888,
			"-0.002": 15.9606720201,
			"-0.001": 15.1979152453,
			"0.0": 12.1006078359,
			"0.001": 12.7107406097,
			"0.002": 11.3297438257,
			"0.003": 10.6858995757,
			"0.004": 12.689491517,
			"0.005": 12.5652585293,
			"0.006": 10.1766067136,
			"0.007": 4.786403173,
			"0.008": 4.55961790121,
			"0.009": 3.12318451629,
			"0.01": 3.43313286753,
			"0.011": 3.55219880407,
			"0.012": 3.41383469803,
			"0.013": 3.44558745051,
			"0.014": 4.04167640252,
			"0.015": 1.19227275568,
			"0.016": 0.476987223395,
			"0.017": 0.290273777158,
			"0.018": 0.0,
			"0.019": 0.0,
			"0.02": 0.0,
			"0.021": 0.0,
			"0.022": 0.0,
			"0.023": 0.0,
			"0.024": 0.0,
			"0.025": 0.0
		}
	}
}
