{
	 "smiles": "OC(=O)C(CC=C)C(O)=O", 
	 "Tm": 377.15, 
	 "num_atms": 18, 
	 "gaussian": { 
		 "optdone": 1, 
		 "sigma_profile": "yes", 
		 "theory": "DFT", 
		 "functional": "B3LYP", 
		 "basiset": "6-31G**", 
		 "properties": { 
			 "R2extent": 2033.2379, 
			 "electric_dipole_moment_norm": 4.20179059926, 
			 "electric_quadrupole_moment_norm": 15.23848027, 
			 "total_energy": -534.350930043, 
			 "HOMO_LUMO_gap": 0.23619, 
			 "cosmo_polarized_energy": -16.5, 
			 "cosmo_cavitation_energy": 22.87, 
			 "cosmo_dispersion_energy": -16.1, 
			 "cosmo_repulsion_energy": 1.34, 
			 "cosmo_total_nonelectrostatic_energy": 8.11, 
			 "SMD_solvation_energy": 6.88 
		},
		"coords": [
			{
				"x": -0.703216489,
				"y": -1.2910887562,
				"z": 2.3810315428,
				"element": "O" 
			},
			{
				"x": 0.0991173333,
				"y": -0.8489305979,
				"z": 1.3581669037,
				"element": "C" 
			},
			{
				"x": 1.1072631897,
				"y": -1.430507672,
				"z": 1.0454638029,
				"element": "O" 
			},
			{
				"x": -0.464191877,
				"y": 0.3910377622,
				"z": 0.693767857,
				"element": "C" 
			},
			{
				"x": -1.8116963708,
				"y": 0.048192311,
				"z": -0.0282413179,
				"element": "C" 
			},
			{
				"x": -2.2762030698,
				"y": 1.1464275651,
				"z": -0.946285738,
				"element": "C" 
			},
			{
				"x": -2.5120812768,
				"y": 0.9766629914,
				"z": -2.2470078233,
				"element": "C" 
			},
			{
				"x": -0.6724815741,
				"y": 1.598050792,
				"z": 1.6324706858,
				"element": "C" 
			},
			{
				"x": -1.2065327157,
				"y": 1.3516031615,
				"z": 2.8457078193,
				"element": "O" 
			},
			{
				"x": -0.4345007223,
				"y": 2.7234676066,
				"z": 1.2701038008,
				"element": "O" 
			},
			{
				"x": -0.2707234797,
				"y": -2.0727136513,
				"z": 2.7654031451,
				"element": "H" 
			},
			{
				"x": 0.2692090496,
				"y": 0.7041388506,
				"z": -0.0494565201,
				"element": "H" 
			},
			{
				"x": -1.6730956319,
				"y": -0.8759799076,
				"z": -0.5998236627,
				"element": "H" 
			},
			{
				"x": -2.5693452616,
				"y": -0.158187205,
				"z": 0.738652792,
				"element": "H" 
			},
			{
				"x": -2.4161196798,
				"y": 2.1276187023,
				"z": -0.4967399805,
				"element": "H" 
			},
			{
				"x": -2.8559958362,
				"y": 1.7946074623,
				"z": -2.8726107009,
				"element": "H" 
			},
			{
				"x": -2.3734833641,
				"y": 0.0143237711,
				"z": -2.734838771,
				"element": "H" 
			},
			{
				"x": -1.2816222238,
				"y": 0.392276814,
				"z": 2.9948361649,
				"element": "H" 
			}
		],
		 "valence_orbital": [ 
			{
				"type": "occ",
				"energy": -0.3519,
				"method": "rhf"
			},
			{
				"type": "occ",
				"energy": -0.32001,
				"method": "rhf"
			},
			{
				"type": "occ",
				"energy": -0.31025,
				"method": "rhf"
			},
			{
				"type": "occ",
				"energy": -0.27315,
				"method": "rhf"
			},
			{
				"type": "occ",
				"energy": -0.26812,
				"method": "rhf"
			},
			{
				"type": "unocc",
				"energy": -0.03193,
				"method": "rhf"
			},
			{
				"type": "unocc",
				"energy": 0.00681,
				"method": "rhf"
			},
			{
				"type": "unocc",
				"energy": 0.01092,
				"method": "rhf"
			},
			{
				"type": "unocc",
				"energy": 0.04434,
				"method": "rhf"
			},
			{
				"type": "unocc",
				"energy": 0.10072,
				"method": "rhf"
			}
		],
		"cosmo_sigma_profile": { 
			"-0.025": 0.0,
			"-0.024": 0.0,
			"-0.023": 0.0,
			"-0.022": 0.0,
			"-0.021": 0.0,
			"-0.02": 0.273893548421,
			"-0.019": 0.920651479476,
			"-0.018": 1.26245791196,
			"-0.017": 0.677751859655,
			"-0.016": 0.380502836808,
			"-0.015": 0.98416460556,
			"-0.014": 1.09889787435,
			"-0.013": 0.618278897633,
			"-0.012": 0.626686276405,
			"-0.011": 0.875120463589,
			"-0.01": 2.35029319926,
			"-0.009": 3.53046959911,
			"-0.008": 3.39222777612,
			"-0.007": 6.3125724649,
			"-0.006": 11.3709541707,
			"-0.005": 15.2246390088,
			"-0.004": 11.5140937608,
			"-0.003": 10.8396765923,
			"-0.002": 12.1286354352,
			"-0.001": 10.0603175998,
			"0.0": 9.29617879673,
			"0.001": 5.55701749915,
			"0.002": 7.51720327585,
			"0.003": 8.60331846546,
			"0.004": 6.61748273843,
			"0.005": 6.65824953479,
			"0.006": 5.29529481924,
			"0.007": 3.41618294605,
			"0.008": 4.29222366463,
			"0.009": 6.47948656854,
			"0.01": 9.28450982706,
			"0.011": 8.16234170564,
			"0.012": 4.30946963098,
			"0.013": 0.779396279573,
			"0.014": 0.0,
			"0.015": 0.0,
			"0.016": 0.0,
			"0.017": 0.0,
			"0.018": 0.0,
			"0.019": 0.0,
			"0.02": 0.0,
			"0.021": 0.0,
			"0.022": 0.0,
			"0.023": 0.0,
			"0.024": 0.0,
			"0.025": 0.0
		}
	}
}
