{
	 "smiles": "CCN(CC)C(=O)C(Cl)(Cl)Cl", 
	 "Tm": 300.15, 
	 "num_atms": 21, 
	 "gaussian": { 
		 "optdone": 1, 
		 "sigma_profile": "yes", 
		 "theory": "DFT", 
		 "functional": "B3LYP", 
		 "basiset": "6-31G**", 
		 "properties": { 
			 "R2extent": 5716.4047, 
			 "electric_dipole_moment_norm": 4.00541341936, 
			 "electric_quadrupole_moment_norm": 10.1388514783, 
			 "total_energy": -1745.20665303, 
			 "HOMO_LUMO_gap": 0.21237, 
			 "cosmo_polarized_energy": -7.7, 
			 "cosmo_cavitation_energy": 28.05, 
			 "cosmo_dispersion_energy": -20.16, 
			 "cosmo_repulsion_energy": 1.62, 
			 "cosmo_total_nonelectrostatic_energy": 9.5, 
			 "SMD_solvation_energy": 4.34 
		},
		"coords": [
			{
				"x": 0.0713022519,
				"y": -0.0621179277,
				"z": 0.9621696698,
				"element": "C" 
			},
			{
				"x": -0.202363336,
				"y": 1.3882288896,
				"z": 0.5580183423,
				"element": "C" 
			},
			{
				"x": 0.5660539318,
				"y": 1.8387228257,
				"z": -0.622974027,
				"element": "N" 
			},
			{
				"x": 1.6688193074,
				"y": 2.776819462,
				"z": -0.363166163,
				"element": "C" 
			},
			{
				"x": 2.8373662795,
				"y": 2.1493309105,
				"z": 0.4008110955,
				"element": "C" 
			},
			{
				"x": 0.0841188512,
				"y": 1.3960826351,
				"z": -1.8165454481,
				"element": "C" 
			},
			{
				"x": -0.8863180995,
				"y": 0.6613259316,
				"z": -1.9021126702,
				"element": "O" 
			},
			{
				"x": 0.7794264435,
				"y": 1.8448989095,
				"z": -3.1669767363,
				"element": "C" 
			},
			{
				"x": 2.5360953802,
				"y": 1.4016223841,
				"z": -3.1805389939,
				"element": "Cl" 
			},
			{
				"x": -0.0044207231,
				"y": 1.0231639429,
				"z": -4.5379240154,
				"element": "Cl" 
			},
			{
				"x": 0.5880250838,
				"y": 3.6336757101,
				"z": -3.3982477651,
				"element": "Cl" 
			},
			{
				"x": 1.1258688631,
				"y": -0.2222660544,
				"z": 1.2038074851,
				"element": "H" 
			},
			{
				"x": -0.5239590019,
				"y": -0.3164079893,
				"z": 1.8455049317,
				"element": "H" 
			},
			{
				"x": -0.2117785073,
				"y": -0.7395233311,
				"z": 0.1542773613,
				"element": "H" 
			},
			{
				"x": -1.2652874968,
				"y": 1.5112854532,
				"z": 0.3333795962,
				"element": "H" 
			},
			{
				"x": 0.0503978014,
				"y": 2.070212676,
				"z": 1.375075026,
				"element": "H" 
			},
			{
				"x": 1.2555505536,
				"y": 3.6173080008,
				"z": 0.2094972338,
				"element": "H" 
			},
			{
				"x": 2.0258522424,
				"y": 3.1918514599,
				"z": -1.3004560738,
				"element": "H" 
			},
			{
				"x": 2.5323668558,
				"y": 1.7790749757,
				"z": 1.383824736,
				"element": "H" 
			},
			{
				"x": 3.6164376528,
				"y": 2.9024947915,
				"z": 0.5570593154,
				"element": "H" 
			},
			{
				"x": 3.2699456662,
				"y": 1.3184163444,
				"z": -0.1625829004,
				"element": "H" 
			}
		],
		 "valence_orbital": [ 
			{
				"type": "occ",
				"energy": -0.32636,
				"method": "rhf"
			},
			{
				"type": "occ",
				"energy": -0.31752,
				"method": "rhf"
			},
			{
				"type": "occ",
				"energy": -0.3083,
				"method": "rhf"
			},
			{
				"type": "occ",
				"energy": -0.27228,
				"method": "rhf"
			},
			{
				"type": "occ",
				"energy": -0.25844,
				"method": "rhf"
			},
			{
				"type": "unocc",
				"energy": -0.04607,
				"method": "rhf"
			},
			{
				"type": "unocc",
				"energy": -0.03817,
				"method": "rhf"
			},
			{
				"type": "unocc",
				"energy": -0.00023,
				"method": "rhf"
			},
			{
				"type": "unocc",
				"energy": 0.05115,
				"method": "rhf"
			},
			{
				"type": "unocc",
				"energy": 0.08011,
				"method": "rhf"
			}
		],
		"cosmo_sigma_profile": { 
			"-0.025": 0.0,
			"-0.024": 0.0,
			"-0.023": 0.0,
			"-0.022": 0.0,
			"-0.021": 0.0,
			"-0.02": 0.0,
			"-0.019": 0.0,
			"-0.018": 0.0,
			"-0.017": 0.0,
			"-0.016": 0.0,
			"-0.015": 0.0,
			"-0.014": 0.0,
			"-0.013": 0.0,
			"-0.012": 0.0,
			"-0.011": 0.0,
			"-0.01": 0.0,
			"-0.009": 0.0,
			"-0.008": 0.0,
			"-0.007": 0.519777439903,
			"-0.006": 4.53340348605,
			"-0.005": 7.47211224842,
			"-0.004": 19.4220274405,
			"-0.003": 26.1763105708,
			"-0.002": 26.6429660436,
			"-0.001": 27.7640262998,
			"0.0": 30.9933782634,
			"0.001": 20.7112605733,
			"0.002": 21.2382802906,
			"0.003": 20.1013105116,
			"0.004": 3.12466878172,
			"0.005": 1.5847736247,
			"0.006": 2.25070318174,
			"0.007": 1.766180274,
			"0.008": 1.87877713415,
			"0.009": 1.42801434342,
			"0.01": 2.07553775202,
			"0.011": 2.39673663761,
			"0.012": 4.17445113177,
			"0.013": 0.872009788874,
			"0.014": 0.0,
			"0.015": 0.0,
			"0.016": 0.0,
			"0.017": 0.0,
			"0.018": 0.0,
			"0.019": 0.0,
			"0.02": 0.0,
			"0.021": 0.0,
			"0.022": 0.0,
			"0.023": 0.0,
			"0.024": 0.0,
			"0.025": 0.0
		}
	}
}
