{
	 "smiles": "CC1=CC(=CC=C1N)C#N", 
	 "Tm": 367.15, 
	 "num_atms": 18, 
	 "gaussian": { 
		 "optdone": 1, 
		 "sigma_profile": "yes", 
		 "theory": "DFT", 
		 "functional": "B3LYP", 
		 "basiset": "6-31G**", 
		 "properties": { 
			 "R2extent": 1956.3452, 
			 "electric_dipole_moment_norm": 6.92539959136, 
			 "electric_quadrupole_moment_norm": 22.3796882827, 
			 "total_energy": -419.173467121, 
			 "HOMO_LUMO_gap": 0.18908, 
			 "cosmo_polarized_energy": -14.38, 
			 "cosmo_cavitation_energy": 22.71, 
			 "cosmo_dispersion_energy": -16.28, 
			 "cosmo_repulsion_energy": 1.32, 
			 "cosmo_total_nonelectrostatic_energy": 7.76, 
			 "SMD_solvation_energy": 5.28 
		},
		"coords": [
			{
				"x": 0.9505931294,
				"y": 1.468498694,
				"z": 1.9554824311,
				"element": "C" 
			},
			{
				"x": 0.1027223724,
				"y": 0.3756619082,
				"z": 1.3538545274,
				"element": "C" 
			},
			{
				"x": 0.5034880265,
				"y": -0.9549574571,
				"z": 1.4036432766,
				"element": "C" 
			},
			{
				"x": -0.2692237763,
				"y": -1.984157654,
				"z": 0.8361808552,
				"element": "C" 
			},
			{
				"x": -1.4782680435,
				"y": -1.6558347756,
				"z": 0.2006392867,
				"element": "C" 
			},
			{
				"x": -1.8954279047,
				"y": -0.335156705,
				"z": 0.1446716392,
				"element": "C" 
			},
			{
				"x": -1.1224045948,
				"y": 0.6938799081,
				"z": 0.7140932,
				"element": "C" 
			},
			{
				"x": -1.5296632965,
				"y": 2.0140770465,
				"z": 0.60267645,
				"element": "N" 
			},
			{
				"x": 0.1720834931,
				"y": -3.3425762298,
				"z": 0.906604604,
				"element": "C" 
			},
			{
				"x": 0.5312032973,
				"y": -4.4488091592,
				"z": 0.9650603594,
				"element": "N" 
			},
			{
				"x": 1.2202149913,
				"y": 2.224767584,
				"z": 1.2077810244,
				"element": "H" 
			},
			{
				"x": 1.876270763,
				"y": 1.063380666,
				"z": 2.3704520316,
				"element": "H" 
			},
			{
				"x": 0.4308778905,
				"y": 1.9898589654,
				"z": 2.7718195737,
				"element": "H" 
			},
			{
				"x": 1.4394913293,
				"y": -1.2079599928,
				"z": 1.8926140201,
				"element": "H" 
			},
			{
				"x": -2.0848701619,
				"y": -2.4390510823,
				"z": -0.2415928942,
				"element": "H" 
			},
			{
				"x": -2.8316221415,
				"y": -0.0853432878,
				"z": -0.3478630844,
				"element": "H" 
			},
			{
				"x": -1.1770989369,
				"y": 2.6647013193,
				"z": 1.2884056662,
				"element": "H" 
			},
			{
				"x": -2.5005664368,
				"y": 2.1653202522,
				"z": 0.3710770332,
				"element": "H" 
			}
		],
		 "valence_orbital": [ 
			{
				"type": "occ",
				"energy": -0.34244,
				"method": "rhf"
			},
			{
				"type": "occ",
				"energy": -0.31466,
				"method": "rhf"
			},
			{
				"type": "occ",
				"energy": -0.30415,
				"method": "rhf"
			},
			{
				"type": "occ",
				"energy": -0.26126,
				"method": "rhf"
			},
			{
				"type": "occ",
				"energy": -0.2171,
				"method": "rhf"
			},
			{
				"type": "unocc",
				"energy": -0.02802,
				"method": "rhf"
			},
			{
				"type": "unocc",
				"energy": -0.0124,
				"method": "rhf"
			},
			{
				"type": "unocc",
				"energy": 0.04984,
				"method": "rhf"
			},
			{
				"type": "unocc",
				"energy": 0.06081,
				"method": "rhf"
			},
			{
				"type": "unocc",
				"energy": 0.0868,
				"method": "rhf"
			}
		],
		"cosmo_sigma_profile": { 
			"-0.025": 0.0,
			"-0.024": 0.0,
			"-0.023": 0.0,
			"-0.022": 0.0,
			"-0.021": 0.0,
			"-0.02": 0.0,
			"-0.019": 0.0,
			"-0.018": 0.0,
			"-0.017": 0.0,
			"-0.016": 0.0,
			"-0.015": 0.0,
			"-0.014": 0.288534289529,
			"-0.013": 1.61390542482,
			"-0.012": 2.84916528368,
			"-0.011": 2.34796899856,
			"-0.01": 3.56733623913,
			"-0.009": 2.55516310607,
			"-0.008": 3.23536644206,
			"-0.007": 6.43331791593,
			"-0.006": 9.28672957213,
			"-0.005": 10.4538992353,
			"-0.004": 11.8164135709,
			"-0.003": 10.5365167923,
			"-0.002": 10.4109317993,
			"-0.001": 11.1892609438,
			"0.0": 13.520687647,
			"0.001": 12.7153858256,
			"0.002": 9.69708102855,
			"0.003": 10.9063365657,
			"0.004": 14.8094225507,
			"0.005": 3.777150441,
			"0.006": 2.6744481383,
			"0.007": 4.23628636805,
			"0.008": 3.23527349215,
			"0.009": 3.76328630148,
			"0.01": 4.33620852655,
			"0.011": 3.78570582375,
			"0.012": 3.49054843229,
			"0.013": 2.63574979964,
			"0.014": 1.37713132499,
			"0.015": 0.00193441277704,
			"0.016": 0.0,
			"0.017": 0.0,
			"0.018": 0.0,
			"0.019": 0.0,
			"0.02": 0.0,
			"0.021": 0.0,
			"0.022": 0.0,
			"0.023": 0.0,
			"0.024": 0.0,
			"0.025": 0.0
		}
	}
}
