{
	 "smiles": "OC(=O)C1=C(OCC=C)C=CC=C1", 
	 "Tm": 332.15, 
	 "num_atms": 23, 
	 "gaussian": { 
		 "optdone": 1, 
		 "sigma_profile": "yes", 
		 "theory": "DFT", 
		 "functional": "B3LYP", 
		 "basiset": "6-31G**", 
		 "properties": { 
			 "R2extent": 2960.8578, 
			 "electric_dipole_moment_norm": 6.52517557235, 
			 "electric_quadrupole_moment_norm": 15.6150298508, 
			 "total_energy": -612.740607597, 
			 "HOMO_LUMO_gap": 0.19984, 
			 "cosmo_polarized_energy": -14.2, 
			 "cosmo_cavitation_energy": 27.08, 
			 "cosmo_dispersion_energy": -19.65, 
			 "cosmo_repulsion_energy": 1.53, 
			 "cosmo_total_nonelectrostatic_energy": 8.96, 
			 "SMD_solvation_energy": 6.63 
		},
		"coords": [
			{
				"x": -0.2960106211,
				"y": -1.402621754,
				"z": -2.1666137049,
				"element": "O" 
			},
			{
				"x": -0.9499199735,
				"y": -0.2396616193,
				"z": -2.3636834801,
				"element": "C" 
			},
			{
				"x": -1.9175553633,
				"y": -0.1965317933,
				"z": -3.091608453,
				"element": "O" 
			},
			{
				"x": -0.4166029349,
				"y": 0.9947810918,
				"z": -1.6788878013,
				"element": "C" 
			},
			{
				"x": 0.5835055459,
				"y": 1.013230814,
				"z": -0.6802054283,
				"element": "C" 
			},
			{
				"x": 1.083381055,
				"y": -0.2046439921,
				"z": -0.284627985,
				"element": "O" 
			},
			{
				"x": 2.0958741729,
				"y": -0.2797013699,
				"z": 0.7178099024,
				"element": "C" 
			},
			{
				"x": 2.327780809,
				"y": -1.7124521326,
				"z": 1.1018651301,
				"element": "C" 
			},
			{
				"x": 1.5501635415,
				"y": -2.745270709,
				"z": 0.7828320152,
				"element": "C" 
			},
			{
				"x": 1.0195121515,
				"y": 2.2253926421,
				"z": -0.1367135947,
				"element": "C" 
			},
			{
				"x": 0.4513087625,
				"y": 3.424205707,
				"z": -0.5708302348,
				"element": "C" 
			},
			{
				"x": -0.5489877237,
				"y": 3.4251376808,
				"z": -1.5418888162,
				"element": "C" 
			},
			{
				"x": -0.971713055,
				"y": 2.2147353504,
				"z": -2.0835886779,
				"element": "C" 
			},
			{
				"x": 0.4511504514,
				"y": -1.2582897251,
				"z": -1.5572841456,
				"element": "H" 
			},
			{
				"x": 3.0238688709,
				"y": 0.176025184,
				"z": 0.3420619884,
				"element": "H" 
			},
			{
				"x": 1.7823073723,
				"y": 0.2960879231,
				"z": 1.6008308545,
				"element": "H" 
			},
			{
				"x": 3.2168704957,
				"y": -1.8645314086,
				"z": 1.7119653323,
				"element": "H" 
			},
			{
				"x": 1.7954607284,
				"y": -3.7488426939,
				"z": 1.1145335715,
				"element": "H" 
			},
			{
				"x": 0.6491304735,
				"y": -2.6319474307,
				"z": 0.189239551,
				"element": "H" 
			},
			{
				"x": 1.7962960981,
				"y": 2.2460663489,
				"z": 0.6174263763,
				"element": "H" 
			},
			{
				"x": 0.7992381468,
				"y": 4.3589951102,
				"z": -0.1408588298,
				"element": "H" 
			},
			{
				"x": -0.991891229,
				"y": 4.3579434236,
				"z": -1.8753127951,
				"element": "H" 
			},
			{
				"x": -1.7466677746,
				"y": 2.1732933526,
				"z": -2.841160775,
				"element": "H" 
			}
		],
		 "valence_orbital": [ 
			{
				"type": "occ",
				"energy": -0.30007,
				"method": "rhf"
			},
			{
				"type": "occ",
				"energy": -0.27898,
				"method": "rhf"
			},
			{
				"type": "occ",
				"energy": -0.26706,
				"method": "rhf"
			},
			{
				"type": "occ",
				"energy": -0.26044,
				"method": "rhf"
			},
			{
				"type": "occ",
				"energy": -0.24518,
				"method": "rhf"
			},
			{
				"type": "unocc",
				"energy": -0.04534,
				"method": "rhf"
			},
			{
				"type": "unocc",
				"energy": -0.00791,
				"method": "rhf"
			},
			{
				"type": "unocc",
				"energy": -0.00148,
				"method": "rhf"
			},
			{
				"type": "unocc",
				"energy": 0.05872,
				"method": "rhf"
			},
			{
				"type": "unocc",
				"energy": 0.07231,
				"method": "rhf"
			}
		],
		"cosmo_sigma_profile": { 
			"-0.025": 0.0,
			"-0.024": 0.0,
			"-0.023": 0.0,
			"-0.022": 0.0,
			"-0.021": 0.0,
			"-0.02": 0.0,
			"-0.019": 0.0,
			"-0.018": 0.0,
			"-0.017": 0.0,
			"-0.016": 0.0,
			"-0.015": 0.0,
			"-0.014": 0.0,
			"-0.013": 0.0,
			"-0.012": 0.0,
			"-0.011": 0.0,
			"-0.01": 0.0,
			"-0.009": 0.291062002755,
			"-0.008": 3.76192996945,
			"-0.007": 11.6359341605,
			"-0.006": 18.7890107386,
			"-0.005": 16.7612716316,
			"-0.004": 15.3284936933,
			"-0.003": 15.13605838,
			"-0.002": 14.8870349639,
			"-0.001": 15.2655133149,
			"0.0": 13.3639849834,
			"0.001": 13.7204490803,
			"0.002": 15.8348831457,
			"0.003": 16.0429944506,
			"0.004": 11.2249613106,
			"0.005": 5.10147400796,
			"0.006": 4.21407964,
			"0.007": 2.21679267606,
			"0.008": 2.5531976322,
			"0.009": 3.14481430989,
			"0.01": 2.80597409602,
			"0.011": 5.40000581761,
			"0.012": 5.96934648528,
			"0.013": 2.73108794439,
			"0.014": 0.76442736688,
			"0.015": 0.0,
			"0.016": 0.0,
			"0.017": 0.0,
			"0.018": 0.0,
			"0.019": 0.0,
			"0.02": 0.0,
			"0.021": 0.0,
			"0.022": 0.0,
			"0.023": 0.0,
			"0.024": 0.0,
			"0.025": 0.0
		}
	}
}
