{
	 "smiles": "CN1CCN(CC1)C1=CC(=NC=C1)C#N", 
	 "Tm": 388.15, 
	 "num_atms": 29, 
	 "gaussian": { 
		 "optdone": 1, 
		 "sigma_profile": "yes", 
		 "theory": "DFT", 
		 "functional": "B3LYP", 
		 "basiset": "6-31G**", 
		 "properties": { 
			 "R2extent": 4997.9572, 
			 "electric_dipole_moment_norm": 8.82532242924, 
			 "electric_quadrupole_moment_norm": 34.2504885283, 
			 "total_energy": -646.570202498, 
			 "HOMO_LUMO_gap": 0.17401, 
			 "cosmo_polarized_energy": -15.36, 
			 "cosmo_cavitation_energy": 31.81, 
			 "cosmo_dispersion_energy": -22.97, 
			 "cosmo_repulsion_energy": 1.78, 
			 "cosmo_total_nonelectrostatic_energy": 10.62, 
			 "SMD_solvation_energy": 2.14 
		},
		"coords": [
			{
				"x": -0.8780935192,
				"y": -0.71897027,
				"z": 3.5875917781,
				"element": "C" 
			},
			{
				"x": -0.7460390586,
				"y": -0.7523962136,
				"z": 2.141962875,
				"element": "N" 
			},
			{
				"x": -2.0103332343,
				"y": -0.4739598626,
				"z": 1.4522519902,
				"element": "C" 
			},
			{
				"x": -1.7977498376,
				"y": 0.1833231205,
				"z": 0.0757900181,
				"element": "C" 
			},
			{
				"x": -0.6286329989,
				"y": -0.352667412,
				"z": -0.6111899798,
				"element": "N" 
			},
			{
				"x": 0.6154864447,
				"y": -0.3870727684,
				"z": 0.1672263581,
				"element": "C" 
			},
			{
				"x": 0.3611179293,
				"y": 0.0281697466,
				"z": 1.6168581438,
				"element": "C" 
			},
			{
				"x": -0.5935835181,
				"y": -0.5851208937,
				"z": -1.9640416739,
				"element": "C" 
			},
			{
				"x": 0.5811528335,
				"y": -1.070691188,
				"z": -2.5880557836,
				"element": "C" 
			},
			{
				"x": 0.5744733366,
				"y": -1.3150569667,
				"z": -3.9615177938,
				"element": "C" 
			},
			{
				"x": -0.472702589,
				"y": -1.1222718903,
				"z": -4.7811235442,
				"element": "N" 
			},
			{
				"x": -1.5741384384,
				"y": -0.6531639976,
				"z": -4.1838986556,
				"element": "C" 
			},
			{
				"x": -1.6935545344,
				"y": -0.3692310213,
				"z": -2.8285980308,
				"element": "C" 
			},
			{
				"x": 1.786600928,
				"y": -1.8159465357,
				"z": -4.5723306456,
				"element": "C" 
			},
			{
				"x": 2.7757127545,
				"y": -2.2168309555,
				"z": -5.0323439917,
				"element": "N" 
			},
			{
				"x": -1.6618161441,
				"y": -1.4171396584,
				"z": 3.9000751953,
				"element": "H" 
			},
			{
				"x": 0.0589637228,
				"y": -1.0377938858,
				"z": 4.0549942118,
				"element": "H" 
			},
			{
				"x": -1.1402063745,
				"y": 0.2807728892,
				"z": 3.98483253,
				"element": "H" 
			},
			{
				"x": -2.6516891721,
				"y": 0.2102058515,
				"z": 2.0368919037,
				"element": "H" 
			},
			{
				"x": -2.5651244389,
				"y": -1.4143500628,
				"z": 1.3380671482,
				"element": "H" 
			},
			{
				"x": -1.7089811195,
				"y": 1.2739532879,
				"z": 0.1885004384,
				"element": "H" 
			},
			{
				"x": -2.6903787451,
				"y": 0.0015817218,
				"z": -0.5211234164,
				"element": "H" 
			},
			{
				"x": 1.3691238584,
				"y": 0.2748164735,
				"z": -0.2838069197,
				"element": "H" 
			},
			{
				"x": 1.0173196908,
				"y": -1.4078693862,
				"z": 0.1673612479,
				"element": "H" 
			},
			{
				"x": 0.2087558642,
				"y": 1.1229029874,
				"z": 1.6918711995,
				"element": "H" 
			},
			{
				"x": 1.2611720739,
				"y": -0.1992285709,
				"z": 2.1970385071,
				"element": "H" 
			},
			{
				"x": 1.4844166491,
				"y": -1.2681703895,
				"z": -2.0275918423,
				"element": "H" 
			},
			{
				"x": -2.4288314051,
				"y": -0.4827899026,
				"z": -4.8361312778,
				"element": "H" 
			},
			{
				"x": -2.6333409579,
				"y": 0.0289957531,
				"z": -2.46835999,
				"element": "H" 
			}
		],
		 "valence_orbital": [ 
			{
				"type": "occ",
				"energy": -0.31852,
				"method": "rhf"
			},
			{
				"type": "occ",
				"energy": -0.26678,
				"method": "rhf"
			},
			{
				"type": "occ",
				"energy": -0.26464,
				"method": "rhf"
			},
			{
				"type": "occ",
				"energy": -0.23061,
				"method": "rhf"
			},
			{
				"type": "occ",
				"energy": -0.21981,
				"method": "rhf"
			},
			{
				"type": "unocc",
				"energy": -0.0458,
				"method": "rhf"
			},
			{
				"type": "unocc",
				"energy": -0.01432,
				"method": "rhf"
			},
			{
				"type": "unocc",
				"energy": 0.0464,
				"method": "rhf"
			},
			{
				"type": "unocc",
				"energy": 0.05836,
				"method": "rhf"
			},
			{
				"type": "unocc",
				"energy": 0.08163,
				"method": "rhf"
			}
		],
		"cosmo_sigma_profile": { 
			"-0.025": 0.0,
			"-0.024": 0.0,
			"-0.023": 0.0,
			"-0.022": 0.0,
			"-0.021": 0.0,
			"-0.02": 0.0,
			"-0.019": 0.0,
			"-0.018": 0.0,
			"-0.017": 0.0,
			"-0.016": 0.0,
			"-0.015": 0.0,
			"-0.014": 0.0,
			"-0.013": 0.0,
			"-0.012": 0.0,
			"-0.011": 0.0,
			"-0.01": 0.0211739585866,
			"-0.009": 1.31199623228,
			"-0.008": 3.25333731556,
			"-0.007": 5.68786106177,
			"-0.006": 9.33126368032,
			"-0.005": 15.5424709449,
			"-0.004": 27.4692341234,
			"-0.003": 29.9275520399,
			"-0.002": 27.300314656,
			"-0.001": 25.1996347883,
			"0.0": 18.2678333196,
			"0.001": 16.3700797193,
			"0.002": 12.7706970313,
			"0.003": 8.14615482803,
			"0.004": 6.48302165133,
			"0.005": 6.71101840995,
			"0.006": 4.75928028889,
			"0.007": 4.96656096251,
			"0.008": 6.15373084596,
			"0.009": 4.66179361327,
			"0.01": 5.09594685122,
			"0.011": 3.83042001132,
			"0.012": 4.05604034698,
			"0.013": 2.12946371849,
			"0.014": 1.01160221644,
			"0.015": 1.33970965766,
			"0.016": 0.231660276711,
			"0.017": 0.0,
			"0.018": 0.0,
			"0.019": 0.0,
			"0.02": 0.0,
			"0.021": 0.0,
			"0.022": 0.0,
			"0.023": 0.0,
			"0.024": 0.0,
			"0.025": 0.0
		}
	}
}
