{
	 "smiles": "ClCCC1=CC=CC=C1", 
	 "Tm": 213.15, 
	 "num_atms": 18, 
	 "gaussian": { 
		 "optdone": 1, 
		 "sigma_profile": "yes", 
		 "theory": "DFT", 
		 "functional": "B3LYP", 
		 "basiset": "6-31G**", 
		 "properties": { 
			 "R2extent": 2095.4971, 
			 "electric_dipole_moment_norm": 2.43389387402, 
			 "electric_quadrupole_moment_norm": 6.36557979606, 
			 "total_energy": -770.479615592, 
			 "HOMO_LUMO_gap": 0.23582, 
			 "cosmo_polarized_energy": -5.52, 
			 "cosmo_cavitation_energy": 23.17, 
			 "cosmo_dispersion_energy": -17.02, 
			 "cosmo_repulsion_energy": 1.41, 
			 "cosmo_total_nonelectrostatic_energy": 7.56, 
			 "SMD_solvation_energy": 3.43 
		},
		"coords": [
			{
				"x": 0.7348998193,
				"y": 3.103468556,
				"z": 1.5991624946,
				"element": "Cl" 
			},
			{
				"x": 0.5474812732,
				"y": 1.5163989955,
				"z": 0.7279958838,
				"element": "C" 
			},
			{
				"x": -0.8797726688,
				"y": 1.321580932,
				"z": 0.2109260901,
				"element": "C" 
			},
			{
				"x": -1.0088841209,
				"y": -0.0056564554,
				"z": -0.5091490405,
				"element": "C" 
			},
			{
				"x": -1.3542573845,
				"y": -1.1697274184,
				"z": 0.1911640373,
				"element": "C" 
			},
			{
				"x": -1.4375543045,
				"y": -2.3995588883,
				"z": -0.4627873039,
				"element": "C" 
			},
			{
				"x": -1.1740803102,
				"y": -2.4839775511,
				"z": -1.8312680252,
				"element": "C" 
			},
			{
				"x": -0.8290532989,
				"y": -1.3318021552,
				"z": -2.5403170317,
				"element": "C" 
			},
			{
				"x": -0.7468484441,
				"y": -0.1038833237,
				"z": -1.8826320513,
				"element": "C" 
			},
			{
				"x": 0.8255420763,
				"y": 0.7383109743,
				"z": 1.440524166,
				"element": "H" 
			},
			{
				"x": 1.2719642597,
				"y": 1.5245199722,
				"z": -0.0877857672,
				"element": "H" 
			},
			{
				"x": -1.5738297909,
				"y": 1.3688339954,
				"z": 1.0562149158,
				"element": "H" 
			},
			{
				"x": -1.1307705232,
				"y": 2.1488313571,
				"z": -0.4607311328,
				"element": "H" 
			},
			{
				"x": -1.5673442673,
				"y": -1.1092159324,
				"z": 1.2560067891,
				"element": "H" 
			},
			{
				"x": -1.7124404594,
				"y": -3.2902388317,
				"z": 0.0951630324,
				"element": "H" 
			},
			{
				"x": -1.241697047,
				"y": -3.4399408628,
				"z": -2.3424013533,
				"element": "H" 
			},
			{
				"x": -0.6282757413,
				"y": -1.3877480935,
				"z": -3.6064968618,
				"element": "H" 
			},
			{
				"x": -0.4842790672,
				"y": 0.79130473,
				"z": -2.4417888415,
				"element": "H" 
			}
		],
		 "valence_orbital": [ 
			{
				"type": "occ",
				"energy": -0.34332,
				"method": "rhf"
			},
			{
				"type": "occ",
				"energy": -0.294,
				"method": "rhf"
			},
			{
				"type": "occ",
				"energy": -0.29231,
				"method": "rhf"
			},
			{
				"type": "occ",
				"energy": -0.25578,
				"method": "rhf"
			},
			{
				"type": "occ",
				"energy": -0.24968,
				"method": "rhf"
			},
			{
				"type": "unocc",
				"energy": -0.01386,
				"method": "rhf"
			},
			{
				"type": "unocc",
				"energy": -0.00738,
				"method": "rhf"
			},
			{
				"type": "unocc",
				"energy": 0.03742,
				"method": "rhf"
			},
			{
				"type": "unocc",
				"energy": 0.08755,
				"method": "rhf"
			},
			{
				"type": "unocc",
				"energy": 0.10935,
				"method": "rhf"
			}
		],
		"cosmo_sigma_profile": { 
			"-0.025": 0.0,
			"-0.024": 0.0,
			"-0.023": 0.0,
			"-0.022": 0.0,
			"-0.021": 0.0,
			"-0.02": 0.0,
			"-0.019": 0.0,
			"-0.018": 0.0,
			"-0.017": 0.0,
			"-0.016": 0.0,
			"-0.015": 0.0,
			"-0.014": 0.0,
			"-0.013": 0.0,
			"-0.012": 0.0,
			"-0.011": 0.0,
			"-0.01": 0.0,
			"-0.009": 0.0,
			"-0.008": 0.0,
			"-0.007": 1.13261584793,
			"-0.006": 7.62833487754,
			"-0.005": 21.1222269784,
			"-0.004": 20.5965441976,
			"-0.003": 18.6227078532,
			"-0.002": 12.2188164285,
			"-0.001": 12.8385631297,
			"0.0": 10.3792756418,
			"0.001": 9.62949280266,
			"0.002": 12.0533104193,
			"0.003": 10.8152760277,
			"0.004": 10.7418196737,
			"0.005": 13.7666249217,
			"0.006": 15.6616438017,
			"0.007": 8.60287168869,
			"0.008": 0.158450958796,
			"0.009": 0.0,
			"0.01": 0.0,
			"0.011": 0.0,
			"0.012": 0.0,
			"0.013": 0.0,
			"0.014": 0.0,
			"0.015": 0.0,
			"0.016": 0.0,
			"0.017": 0.0,
			"0.018": 0.0,
			"0.019": 0.0,
			"0.02": 0.0,
			"0.021": 0.0,
			"0.022": 0.0,
			"0.023": 0.0,
			"0.024": 0.0,
			"0.025": 0.0
		}
	}
}
