{
	 "smiles": "NC1=CN=C(NC(=O)C2=CC=CC=C2)C=C1", 
	 "Tm": 413.15, 
	 "num_atms": 27, 
	 "gaussian": { 
		 "optdone": 1, 
		 "sigma_profile": "yes", 
		 "theory": "DFT", 
		 "functional": "B3LYP", 
		 "basiset": "6-31G**", 
		 "properties": { 
			 "R2extent": 3997.2509, 
			 "electric_dipole_moment_norm": 6.11060738552, 
			 "electric_quadrupole_moment_norm": 11.9294791953, 
			 "total_energy": -703.39623221, 
			 "HOMO_LUMO_gap": 0.17337, 
			 "cosmo_polarized_energy": -19.39, 
			 "cosmo_cavitation_energy": 31.81, 
			 "cosmo_dispersion_energy": -22.68, 
			 "cosmo_repulsion_energy": 1.79, 
			 "cosmo_total_nonelectrostatic_energy": 10.92, 
			 "SMD_solvation_energy": 5.08 
		},
		"coords": [
			{
				"x": 0.9594103444,
				"y": -1.781453439,
				"z": -4.179943757,
				"element": "N" 
			},
			{
				"x": 1.1333606329,
				"y": -1.2660913772,
				"z": -2.8959961338,
				"element": "C" 
			},
			{
				"x": 0.3025709688,
				"y": -1.6572452473,
				"z": -1.8321394083,
				"element": "C" 
			},
			{
				"x": 0.4684004056,
				"y": -1.264533566,
				"z": -0.5690955824,
				"element": "N" 
			},
			{
				"x": 1.4570447751,
				"y": -0.4132810648,
				"z": -0.2912233594,
				"element": "C" 
			},
			{
				"x": 1.638316387,
				"y": -0.0010456921,
				"z": 1.0510186286,
				"element": "N" 
			},
			{
				"x": 0.7222459177,
				"y": -0.0156652229,
				"z": 2.0986444542,
				"element": "C" 
			},
			{
				"x": 1.1254110147,
				"y": -0.1867462194,
				"z": 3.2434069764,
				"element": "O" 
			},
			{
				"x": -0.7165934646,
				"y": 0.2902374111,
				"z": 1.8198123488,
				"element": "C" 
			},
			{
				"x": -1.6662488713,
				"y": -0.2030367889,
				"z": 2.7237936786,
				"element": "C" 
			},
			{
				"x": -3.0151960113,
				"y": 0.1078968365,
				"z": 2.5674056042,
				"element": "C" 
			},
			{
				"x": -3.4241178699,
				"y": 0.9385832897,
				"z": 1.5213512568,
				"element": "C" 
			},
			{
				"x": -2.4784257471,
				"y": 1.4555510508,
				"z": 0.632791472,
				"element": "C" 
			},
			{
				"x": -1.1307843646,
				"y": 1.1293710958,
				"z": 0.7767263525,
				"element": "C" 
			},
			{
				"x": 2.3366388796,
				"y": 0.058379342,
				"z": -1.2768697871,
				"element": "C" 
			},
			{
				"x": 2.1810517767,
				"y": -0.3845583238,
				"z": -2.5833618854,
				"element": "C" 
			},
			{
				"x": 1.3112169645,
				"y": -1.2023269717,
				"z": -4.9299852712,
				"element": "H" 
			},
			{
				"x": 0.0316339467,
				"y": -2.1303104459,
				"z": -4.3792393522,
				"element": "H" 
			},
			{
				"x": -0.5259935715,
				"y": -2.3411871807,
				"z": -2.0172830045,
				"element": "H" 
			},
			{
				"x": 2.585360276,
				"y": -0.0633667148,
				"z": 1.4064025532,
				"element": "H" 
			},
			{
				"x": -1.325471923,
				"y": -0.8242561773,
				"z": 3.545096924,
				"element": "H" 
			},
			{
				"x": -3.7465187503,
				"y": -0.2896663029,
				"z": 3.265263301,
				"element": "H" 
			},
			{
				"x": -4.4748158798,
				"y": 1.1886680932,
				"z": 1.4032021158,
				"element": "H" 
			},
			{
				"x": -2.7907643287,
				"y": 2.1158244918,
				"z": -0.1713386101,
				"element": "H" 
			},
			{
				"x": -0.3994532506,
				"y": 1.5404587831,
				"z": 0.0889314861,
				"element": "H" 
			},
			{
				"x": 3.119898437,
				"y": 0.7649693362,
				"z": -1.0202470046,
				"element": "H" 
			},
			{
				"x": 2.8585233059,
				"y": -0.0428689955,
				"z": -3.3619239961,
				"element": "H" 
			}
		],
		 "valence_orbital": [ 
			{
				"type": "occ",
				"energy": -0.27037,
				"method": "rhf"
			},
			{
				"type": "occ",
				"energy": -0.2504,
				"method": "rhf"
			},
			{
				"type": "occ",
				"energy": -0.24321,
				"method": "rhf"
			},
			{
				"type": "occ",
				"energy": -0.23799,
				"method": "rhf"
			},
			{
				"type": "occ",
				"energy": -0.20554,
				"method": "rhf"
			},
			{
				"type": "unocc",
				"energy": -0.03217,
				"method": "rhf"
			},
			{
				"type": "unocc",
				"energy": -0.02587,
				"method": "rhf"
			},
			{
				"type": "unocc",
				"energy": 0.00198,
				"method": "rhf"
			},
			{
				"type": "unocc",
				"energy": 0.00766,
				"method": "rhf"
			},
			{
				"type": "unocc",
				"energy": 0.06263,
				"method": "rhf"
			}
		],
		"cosmo_sigma_profile": { 
			"-0.025": 0.0,
			"-0.024": 0.0,
			"-0.023": 0.0,
			"-0.022": 0.0,
			"-0.021": 0.0,
			"-0.02": 0.0,
			"-0.019": 0.0,
			"-0.018": 0.0,
			"-0.017": 0.0,
			"-0.016": 0.0,
			"-0.015": 0.0216232954017,
			"-0.014": 0.862942589488,
			"-0.013": 2.08030525159,
			"-0.012": 4.01148162754,
			"-0.011": 3.94756470396,
			"-0.01": 4.43241467384,
			"-0.009": 4.93889860103,
			"-0.008": 4.85991847439,
			"-0.007": 7.4593925388,
			"-0.006": 14.0865103473,
			"-0.005": 16.7668733525,
			"-0.004": 16.7195432153,
			"-0.003": 13.7608142288,
			"-0.002": 12.1045756087,
			"-0.001": 12.6263739162,
			"0.0": 13.8878318912,
			"0.001": 15.8661145229,
			"0.002": 16.9146944651,
			"0.003": 21.3691074436,
			"0.004": 17.180993701,
			"0.005": 12.020166994,
			"0.006": 5.5347729328,
			"0.007": 3.7310107806,
			"0.008": 3.96241144844,
			"0.009": 4.07772570888,
			"0.01": 4.03517263809,
			"0.011": 2.46059526172,
			"0.012": 4.5765327152,
			"0.013": 7.18128618482,
			"0.014": 2.53000717016,
			"0.015": 0.0627084407821,
			"0.016": 0.0,
			"0.017": 0.0,
			"0.018": 0.0,
			"0.019": 0.0,
			"0.02": 0.0,
			"0.021": 0.0,
			"0.022": 0.0,
			"0.023": 0.0,
			"0.024": 0.0,
			"0.025": 0.0
		}
	}
}
