{
	 "smiles": "OCC(O)C=O", 
	 "Tm": 418.15, 
	 "num_atms": 12, 
	 "gaussian": { 
		 "optdone": 1, 
		 "sigma_profile": "yes", 
		 "theory": "DFT", 
		 "functional": "B3LYP", 
		 "basiset": "6-31G**", 
		 "properties": { 
			 "R2extent": 1358.2204, 
			 "electric_dipole_moment_norm": 1.41370890214, 
			 "electric_quadrupole_moment_norm": 4.20817653503, 
			 "total_energy": -343.571225131, 
			 "HOMO_LUMO_gap": 0.20836, 
			 "cosmo_polarized_energy": -9.16, 
			 "cosmo_cavitation_energy": 15.41, 
			 "cosmo_dispersion_energy": -11.68, 
			 "cosmo_repulsion_energy": 1.03, 
			 "cosmo_total_nonelectrostatic_energy": 4.75, 
			 "SMD_solvation_energy": 3.68 
		},
		"coords": [
			{
				"x": 2.5053012381,
				"y": -2.6953581877,
				"z": 0.402685992,
				"element": "O" 
			},
			{
				"x": 1.1369298816,
				"y": -2.3046608788,
				"z": 0.3655217845,
				"element": "C" 
			},
			{
				"x": 1.0432331972,
				"y": -0.7827785471,
				"z": 0.2593144299,
				"element": "C" 
			},
			{
				"x": 1.8194169357,
				"y": -0.3013007925,
				"z": -0.8325382219,
				"element": "O" 
			},
			{
				"x": 1.5983443248,
				"y": -0.0886176933,
				"z": 1.503066673,
				"element": "C" 
			},
			{
				"x": 2.1488012856,
				"y": -0.6704564322,
				"z": 2.418254204,
				"element": "O" 
			},
			{
				"x": 2.8291057304,
				"y": -2.4233696734,
				"z": 1.2757142687,
				"element": "H" 
			},
			{
				"x": 0.7030965618,
				"y": -2.7582880982,
				"z": -0.5301241221,
				"element": "H" 
			},
			{
				"x": 0.5817831106,
				"y": -2.6656165085,
				"z": 1.2416979088,
				"element": "H" 
			},
			{
				"x": 0.0065588757,
				"y": -0.459879017,
				"z": 0.0947042222,
				"element": "H" 
			},
			{
				"x": 2.6069536774,
				"y": -0.8726626477,
				"z": -0.8359160527,
				"element": "H" 
			},
			{
				"x": 1.5392751812,
				"y": 1.0195884764,
				"z": 1.4805189137,
				"element": "H" 
			}
		],
		 "valence_orbital": [ 
			{
				"type": "occ",
				"energy": -0.36459,
				"method": "rhf"
			},
			{
				"type": "occ",
				"energy": -0.34445,
				"method": "rhf"
			},
			{
				"type": "occ",
				"energy": -0.3165,
				"method": "rhf"
			},
			{
				"type": "occ",
				"energy": -0.29154,
				"method": "rhf"
			},
			{
				"type": "occ",
				"energy": -0.25603,
				"method": "rhf"
			},
			{
				"type": "unocc",
				"energy": -0.04767,
				"method": "rhf"
			},
			{
				"type": "unocc",
				"energy": 0.08174,
				"method": "rhf"
			},
			{
				"type": "unocc",
				"energy": 0.10495,
				"method": "rhf"
			},
			{
				"type": "unocc",
				"energy": 0.12208,
				"method": "rhf"
			},
			{
				"type": "unocc",
				"energy": 0.13849,
				"method": "rhf"
			}
		],
		"cosmo_sigma_profile": { 
			"-0.025": 0.0,
			"-0.024": 0.0,
			"-0.023": 0.0,
			"-0.022": 0.0,
			"-0.021": 0.0,
			"-0.02": 0.0,
			"-0.019": 0.0,
			"-0.018": 0.0,
			"-0.017": 0.0,
			"-0.016": 0.0,
			"-0.015": 0.0,
			"-0.014": 0.0,
			"-0.013": 0.119895247533,
			"-0.012": 0.706010853517,
			"-0.011": 0.973440178397,
			"-0.01": 1.06251673121,
			"-0.009": 1.39681477056,
			"-0.008": 4.63348439305,
			"-0.007": 10.9232718321,
			"-0.006": 10.6462134159,
			"-0.005": 10.6174364272,
			"-0.004": 8.74569438787,
			"-0.003": 7.45579328205,
			"-0.002": 6.31616701486,
			"-0.001": 5.039275206,
			"0.0": 3.6201209488,
			"0.001": 3.88659604776,
			"0.002": 3.79800053308,
			"0.003": 3.74378644637,
			"0.004": 2.52287905499,
			"0.005": 3.41343669294,
			"0.006": 3.72733157753,
			"0.007": 3.98814776889,
			"0.008": 3.29792593847,
			"0.009": 3.61881754504,
			"0.01": 4.33406829695,
			"0.011": 4.79390830025,
			"0.012": 2.79825323042,
			"0.013": 3.52826198431,
			"0.014": 0.939280333979,
			"0.015": 0.0,
			"0.016": 0.0,
			"0.017": 0.0,
			"0.018": 0.0,
			"0.019": 0.0,
			"0.02": 0.0,
			"0.021": 0.0,
			"0.022": 0.0,
			"0.023": 0.0,
			"0.024": 0.0,
			"0.025": 0.0
		}
	}
}
