{
	 "smiles": "CC(C)C1=CC=C(O)C=C1", 
	 "Tm": 334.25, 
	 "num_atms": 22, 
	 "gaussian": { 
		 "optdone": 1, 
		 "sigma_profile": "yes", 
		 "theory": "DFT", 
		 "functional": "B3LYP", 
		 "basiset": "6-31G**", 
		 "properties": { 
			 "R2extent": 2075.6586, 
			 "electric_dipole_moment_norm": 1.32179915645, 
			 "electric_quadrupole_moment_norm": 9.82995613825, 
			 "total_energy": -425.422485292, 
			 "HOMO_LUMO_gap": 0.21299, 
			 "cosmo_polarized_energy": -7.71, 
			 "cosmo_cavitation_energy": 24.65, 
			 "cosmo_dispersion_energy": -17.86, 
			 "cosmo_repulsion_energy": 1.46, 
			 "cosmo_total_nonelectrostatic_energy": 8.26, 
			 "SMD_solvation_energy": 4.67 
		},
		"coords": [
			{
				"x": -1.0667701841,
				"y": -1.1484961552,
				"z": 1.582744109,
				"element": "C" 
			},
			{
				"x": 0.2425368599,
				"y": -1.5952508855,
				"z": 0.9053032415,
				"element": "C" 
			},
			{
				"x": 0.1491180048,
				"y": -3.0599405055,
				"z": 0.4375315711,
				"element": "C" 
			},
			{
				"x": 0.6472544112,
				"y": -0.6596597852,
				"z": -0.2266976046,
				"element": "C" 
			},
			{
				"x": 1.8451448246,
				"y": 0.065994838,
				"z": -0.1685893132,
				"element": "C" 
			},
			{
				"x": 2.2351242739,
				"y": 0.9270531296,
				"z": -1.1921636871,
				"element": "C" 
			},
			{
				"x": 1.4179779747,
				"y": 1.0813870621,
				"z": -2.3151987836,
				"element": "C" 
			},
			{
				"x": 1.8400778382,
				"y": 1.9373028945,
				"z": -3.2961584293,
				"element": "O" 
			},
			{
				"x": 0.2173500585,
				"y": 0.3683108899,
				"z": -2.397126348,
				"element": "C" 
			},
			{
				"x": -0.1559411422,
				"y": -0.4887547697,
				"z": -1.362566497,
				"element": "C" 
			},
			{
				"x": -1.3086174006,
				"y": -1.7997316574,
				"z": 2.4301653486,
				"element": "H" 
			},
			{
				"x": -0.9908976678,
				"y": -0.1210544096,
				"z": 1.9520159296,
				"element": "H" 
			},
			{
				"x": -1.909226851,
				"y": -1.1891834816,
				"z": 0.8831367679,
				"element": "H" 
			},
			{
				"x": 1.0369957253,
				"y": -1.5431098226,
				"z": 1.6617028165,
				"element": "H" 
			},
			{
				"x": -0.085462063,
				"y": -3.7228807857,
				"z": 1.2778931526,
				"element": "H" 
			},
			{
				"x": -0.6383077366,
				"y": -3.186872688,
				"z": -0.3139308602,
				"element": "H" 
			},
			{
				"x": 1.0910220226,
				"y": -3.3938889386,
				"z": -0.0086233394,
				"element": "H" 
			},
			{
				"x": 2.4909259292,
				"y": -0.0443672239,
				"z": 0.6995807457,
				"element": "H" 
			},
			{
				"x": 3.1646701093,
				"y": 1.4842882302,
				"z": -1.1372943316,
				"element": "H" 
			},
			{
				"x": 1.1857537484,
				"y": 1.9476064962,
				"z": -4.0064798393,
				"element": "H" 
			},
			{
				"x": -0.4248848013,
				"y": 0.4829058988,
				"z": -3.2685920119,
				"element": "H" 
			},
			{
				"x": -1.0935439342,
				"y": -1.0316583307,
				"z": -1.4498526373,
				"element": "H" 
			}
		],
		 "valence_orbital": [ 
			{
				"type": "occ",
				"energy": -0.32362,
				"method": "rhf"
			},
			{
				"type": "occ",
				"energy": -0.31915,
				"method": "rhf"
			},
			{
				"type": "occ",
				"energy": -0.31632,
				"method": "rhf"
			},
			{
				"type": "occ",
				"energy": -0.24683,
				"method": "rhf"
			},
			{
				"type": "occ",
				"energy": -0.21152,
				"method": "rhf"
			},
			{
				"type": "unocc",
				"energy": 0.00147,
				"method": "rhf"
			},
			{
				"type": "unocc",
				"energy": 0.01895,
				"method": "rhf"
			},
			{
				"type": "unocc",
				"energy": 0.07345,
				"method": "rhf"
			},
			{
				"type": "unocc",
				"energy": 0.08864,
				"method": "rhf"
			},
			{
				"type": "unocc",
				"energy": 0.11382,
				"method": "rhf"
			}
		],
		"cosmo_sigma_profile": { 
			"-0.025": 0.0,
			"-0.024": 0.0,
			"-0.023": 0.0,
			"-0.022": 0.0,
			"-0.021": 0.0,
			"-0.02": 0.0,
			"-0.019": 0.0,
			"-0.018": 0.177461470621,
			"-0.017": 0.897626095706,
			"-0.016": 1.13445034202,
			"-0.015": 1.14331392984,
			"-0.014": 1.35889034897,
			"-0.013": 0.547431202511,
			"-0.012": 0.383286498869,
			"-0.011": 0.340458799155,
			"-0.01": 1.8733038269,
			"-0.009": 1.54325478743,
			"-0.008": 0.857391370088,
			"-0.007": 1.27665994385,
			"-0.006": 2.05876190587,
			"-0.005": 6.9768152343,
			"-0.004": 11.5355607976,
			"-0.003": 16.0487313456,
			"-0.002": 19.6083831084,
			"-0.001": 19.5026320617,
			"0.0": 19.1920496332,
			"0.001": 22.3021353269,
			"0.002": 14.1324190306,
			"0.003": 7.73851083615,
			"0.004": 10.1614241039,
			"0.005": 10.55275056,
			"0.006": 9.92884637148,
			"0.007": 4.14970213065,
			"0.008": 1.56293190856,
			"0.009": 1.28931165892,
			"0.01": 1.65451744722,
			"0.011": 1.83760943059,
			"0.012": 1.49061888709,
			"0.013": 0.00258492932895,
			"0.014": 0.0,
			"0.015": 0.0,
			"0.016": 0.0,
			"0.017": 0.0,
			"0.018": 0.0,
			"0.019": 0.0,
			"0.02": 0.0,
			"0.021": 0.0,
			"0.022": 0.0,
			"0.023": 0.0,
			"0.024": 0.0,
			"0.025": 0.0
		}
	}
}
