{
	 "smiles": "COC1=C(C=CC=C1)N(C)S(=O)(=O)C1=CC(C(O)=O)=C(Cl)C=C1", 
	 "Tm": 453.15, 
	 "num_atms": 37, 
	 "gaussian": { 
		 "optdone": 1, 
		 "sigma_profile": "yes", 
		 "theory": "DFT", 
		 "functional": "B3LYP", 
		 "basiset": "6-31G**", 
		 "properties": { 
			 "R2extent": 9881.0693, 
			 "electric_dipole_moment_norm": 4.7041943391, 
			 "electric_quadrupole_moment_norm": 14.3275970689, 
			 "total_energy": -1869.20074118, 
			 "HOMO_LUMO_gap": 0.16167, 
			 "cosmo_polarized_energy": -19.92, 
			 "cosmo_cavitation_energy": 44.49, 
			 "cosmo_dispersion_energy": -30.49, 
			 "cosmo_repulsion_energy": 2.3, 
			 "cosmo_total_nonelectrostatic_energy": 16.29, 
			 "SMD_solvation_energy": 8.78 
		},
		"coords": [
			{
				"x": -4.0602476585,
				"y": -2.2262380308,
				"z": 1.8325582444,
				"element": "C" 
			},
			{
				"x": -2.7563788075,
				"y": -1.6758477653,
				"z": 1.7023943255,
				"element": "O" 
			},
			{
				"x": -1.7492406272,
				"y": -2.4804825167,
				"z": 1.2767960159,
				"element": "C" 
			},
			{
				"x": -0.5173108052,
				"y": -1.8408079383,
				"z": 1.0033353634,
				"element": "C" 
			},
			{
				"x": 0.5738219522,
				"y": -2.5995607173,
				"z": 0.5816077093,
				"element": "C" 
			},
			{
				"x": 0.4661270886,
				"y": -3.9821709934,
				"z": 0.4135417721,
				"element": "C" 
			},
			{
				"x": -0.7512952101,
				"y": -4.6048934811,
				"z": 0.6782247158,
				"element": "C" 
			},
			{
				"x": -1.8559891516,
				"y": -3.8656231678,
				"z": 1.110015305,
				"element": "C" 
			},
			{
				"x": -0.3711852122,
				"y": -0.4250984397,
				"z": 1.1749399126,
				"element": "N" 
			},
			{
				"x": -0.4020190246,
				"y": 0.1077620343,
				"z": 2.5478881641,
				"element": "C" 
			},
			{
				"x": -0.912414893,
				"y": 0.567402585,
				"z": -0.0903193857,
				"element": "S" 
			},
			{
				"x": -1.2037477012,
				"y": 1.8804842865,
				"z": 0.4928040924,
				"element": "O" 
			},
			{
				"x": -1.8900034282,
				"y": -0.1577206835,
				"z": -0.9045414245,
				"element": "O" 
			},
			{
				"x": 0.5519587431,
				"y": 0.7537349969,
				"z": -1.1218311959,
				"element": "C" 
			},
			{
				"x": 1.4612506878,
				"y": 1.7669322125,
				"z": -0.8434817489,
				"element": "C" 
			},
			{
				"x": 2.6144449985,
				"y": 1.9371797723,
				"z": -1.6278413182,
				"element": "C" 
			},
			{
				"x": 3.5475936574,
				"y": 3.0581980444,
				"z": -1.2981131597,
				"element": "C" 
			},
			{
				"x": 3.2082327933,
				"y": 3.6668992916,
				"z": -0.1314491244,
				"element": "O" 
			},
			{
				"x": 4.4976346935,
				"y": 3.4234647718,
				"z": -1.9542659522,
				"element": "O" 
			},
			{
				"x": 2.82151634,
				"y": 1.0471824426,
				"z": -2.7036268568,
				"element": "C" 
			},
			{
				"x": 4.2175062762,
				"y": 1.1214482005,
				"z": -3.7480549612,
				"element": "Cl" 
			},
			{
				"x": 1.8946810363,
				"y": 0.0371637015,
				"z": -2.9800367409,
				"element": "C" 
			},
			{
				"x": 0.7547705979,
				"y": -0.1122089433,
				"z": -2.1973101407,
				"element": "C" 
			},
			{
				"x": -4.4038759187,
				"y": -2.6604988413,
				"z": 0.8865158979,
				"element": "H" 
			},
			{
				"x": -4.100466974,
				"y": -2.9889447647,
				"z": 2.6205676933,
				"element": "H" 
			},
			{
				"x": -4.7091522136,
				"y": -1.3932139941,
				"z": 2.1045236436,
				"element": "H" 
			},
			{
				"x": 1.5102972896,
				"y": -2.0854979981,
				"z": 0.3891235574,
				"element": "H" 
			},
			{
				"x": 1.3228450277,
				"y": -4.5610577554,
				"z": 0.0841477166,
				"element": "H" 
			},
			{
				"x": -0.8523495514,
				"y": -5.6791930229,
				"z": 0.5531616174,
				"element": "H" 
			},
			{
				"x": -2.7926222277,
				"y": -4.3716989422,
				"z": 1.3110932603,
				"element": "H" 
			},
			{
				"x": -1.3652058074,
				"y": -0.0754746288,
				"z": 3.0336120288,
				"element": "H" 
			},
			{
				"x": -0.2154415247,
				"y": 1.1806132298,
				"z": 2.5224384672,
				"element": "H" 
			},
			{
				"x": 0.3940890765,
				"y": -0.3819391852,
				"z": 3.1153018463,
				"element": "H" 
			},
			{
				"x": 1.273076495,
				"y": 2.4500983219,
				"z": -0.0254254985,
				"element": "H" 
			},
			{
				"x": 3.8500880226,
				"y": 4.3867846323,
				"z": -0.018357417,
				"element": "H" 
			},
			{
				"x": 2.0745203381,
				"y": -0.6248672164,
				"z": -3.8193132991,
				"element": "H" 
			},
			{
				"x": 0.0221916225,
				"y": -0.8792094978,
				"z": -2.4219231257,
				"element": "H" 
			}
		],
		 "valence_orbital": [ 
			{
				"type": "occ",
				"energy": -0.27704,
				"method": "rhf"
			},
			{
				"type": "occ",
				"energy": -0.27545,
				"method": "rhf"
			},
			{
				"type": "occ",
				"energy": -0.2615,
				"method": "rhf"
			},
			{
				"type": "occ",
				"energy": -0.24678,
				"method": "rhf"
			},
			{
				"type": "occ",
				"energy": -0.22988,
				"method": "rhf"
			},
			{
				"type": "unocc",
				"energy": -0.06821,
				"method": "rhf"
			},
			{
				"type": "unocc",
				"energy": -0.04409,
				"method": "rhf"
			},
			{
				"type": "unocc",
				"energy": -0.01993,
				"method": "rhf"
			},
			{
				"type": "unocc",
				"energy": 6e-05,
				"method": "rhf"
			},
			{
				"type": "unocc",
				"energy": 0.02259,
				"method": "rhf"
			}
		],
		"cosmo_sigma_profile": { 
			"-0.025": 0.0,
			"-0.024": 0.0,
			"-0.023": 0.0,
			"-0.022": 0.0,
			"-0.021": 0.0,
			"-0.02": 0.0,
			"-0.019": 0.498602757302,
			"-0.018": 0.897097410551,
			"-0.017": 0.717705984888,
			"-0.016": 0.775733541489,
			"-0.015": 0.642689448844,
			"-0.014": 0.402663768297,
			"-0.013": 0.645072446769,
			"-0.012": 1.07843399578,
			"-0.011": 0.839634136199,
			"-0.01": 0.451320472797,
			"-0.009": 1.59774186919,
			"-0.008": 3.98438088547,
			"-0.007": 7.53929683027,
			"-0.006": 16.9532615522,
			"-0.005": 23.6386936641,
			"-0.004": 29.1413989935,
			"-0.003": 30.6649553178,
			"-0.002": 32.6931884895,
			"-0.001": 33.9639300498,
			"0.0": 26.7030170929,
			"0.001": 19.6161911786,
			"0.002": 19.1047346208,
			"0.003": 19.7129705377,
			"0.004": 19.0684902525,
			"0.005": 14.5110943059,
			"0.006": 7.26105645286,
			"0.007": 6.96766141834,
			"0.008": 5.55243451628,
			"0.009": 7.19323537049,
			"0.01": 11.1672013935,
			"0.011": 11.8828934991,
			"0.012": 1.83565519938,
			"0.013": 0.0,
			"0.014": 0.0,
			"0.015": 0.0,
			"0.016": 0.0,
			"0.017": 0.0,
			"0.018": 0.0,
			"0.019": 0.0,
			"0.02": 0.0,
			"0.021": 0.0,
			"0.022": 0.0,
			"0.023": 0.0,
			"0.024": 0.0,
			"0.0": 0.0
		}
	}
}
