{
	 "smiles": "CC1(C)N(CC2=CC=CC=C2)CCNC1=O", 
	 "Tm": 486.15, 
	 "num_atms": 34, 
	 "gaussian": { 
		 "optdone": 1, 
		 "sigma_profile": "yes", 
		 "theory": "DFT", 
		 "functional": "B3LYP", 
		 "basiset": "6-31G**", 
		 "properties": { 
			 "R2extent": 4313.9831, 
			 "electric_dipole_moment_norm": 3.27940249436, 
			 "electric_quadrupole_moment_norm": 11.5438043426, 
			 "total_energy": -690.966154402, 
			 "HOMO_LUMO_gap": 0.20077, 
			 "cosmo_polarized_energy": -12.83, 
			 "cosmo_cavitation_energy": 34.3, 
			 "cosmo_dispersion_energy": -24.18, 
			 "cosmo_repulsion_energy": 1.86, 
			 "cosmo_total_nonelectrostatic_energy": 11.98, 
			 "SMD_solvation_energy": 4.57 
		},
		"coords": [
			{
				"x": 1.4181564967,
				"y": -2.4187845263,
				"z": 1.2649018759,
				"element": "C" 
			},
			{
				"x": 1.6844329773,
				"y": -1.0704016472,
				"z": 0.5734990123,
				"element": "C" 
			},
			{
				"x": 3.0103700559,
				"y": -0.5132642901,
				"z": 1.1492360679,
				"element": "C" 
			},
			{
				"x": 0.5980114189,
				"y": -0.0808722358,
				"z": 0.8215012708,
				"element": "N" 
			},
			{
				"x": -0.7751512536,
				"y": -0.6037362583,
				"z": 0.8765191908,
				"element": "C" 
			},
			{
				"x": -1.7592059672,
				"y": 0.409268979,
				"z": 1.4366323441,
				"element": "C" 
			},
			{
				"x": -1.4640035599,
				"y": 1.1122779696,
				"z": 2.6136777861,
				"element": "C" 
			},
			{
				"x": -2.3873011927,
				"y": 2.003145143,
				"z": 3.158775828,
				"element": "C" 
			},
			{
				"x": -3.6235439207,
				"y": 2.2039068473,
				"z": 2.5376386079,
				"element": "C" 
			},
			{
				"x": -3.9260392318,
				"y": 1.5105070464,
				"z": 1.3659075639,
				"element": "C" 
			},
			{
				"x": -2.9962976566,
				"y": 0.6221720006,
				"z": 0.8189235702,
				"element": "C" 
			},
			{
				"x": 0.7146651289,
				"y": 1.069286085,
				"z": -0.0785041678,
				"element": "C" 
			},
			{
				"x": 0.572062443,
				"y": 0.6860351417,
				"z": -1.5546595227,
				"element": "C" 
			},
			{
				"x": 1.4096789493,
				"y": -0.4727645614,
				"z": -1.8367176524,
				"element": "N" 
			},
			{
				"x": 1.9258496614,
				"y": -1.3589158968,
				"z": -0.9329469362,
				"element": "C" 
			},
			{
				"x": 2.5959223112,
				"y": -2.3199472598,
				"z": -1.2989083114,
				"element": "O" 
			},
			{
				"x": 0.564754541,
				"y": -2.9521439842,
				"z": 0.8394127181,
				"element": "H" 
			},
			{
				"x": 2.291938412,
				"y": -3.055760609,
				"z": 1.1266619428,
				"element": "H" 
			},
			{
				"x": 1.2487348238,
				"y": -2.2689082727,
				"z": 2.335780112,
				"element": "H" 
			},
			{
				"x": 2.9020267407,
				"y": -0.3652678242,
				"z": 2.2273337138,
				"element": "H" 
			},
			{
				"x": 3.8185553787,
				"y": -1.2233616189,
				"z": 0.9594040978,
				"element": "H" 
			},
			{
				"x": 3.2977005457,
				"y": 0.4407417634,
				"z": 0.7002826936,
				"element": "H" 
			},
			{
				"x": -0.7762044206,
				"y": -1.4695244112,
				"z": 1.5417296243,
				"element": "H" 
			},
			{
				"x": -1.1500656657,
				"y": -0.9677987378,
				"z": -0.0974745271,
				"element": "H" 
			},
			{
				"x": -0.4976206674,
				"y": 0.9598770465,
				"z": 3.085132637,
				"element": "H" 
			},
			{
				"x": -2.1443629163,
				"y": 2.5409467249,
				"z": 4.0712147143,
				"element": "H" 
			},
			{
				"x": -4.3428844686,
				"y": 2.8975156401,
				"z": 2.9636779698,
				"element": "H" 
			},
			{
				"x": -4.8822480682,
				"y": 1.6627764142,
				"z": 0.873003613,
				"element": "H" 
			},
			{
				"x": -3.2365398985,
				"y": 0.0851310995,
				"z": -0.0960057344,
				"element": "H" 
			},
			{
				"x": -0.0476270403,
				"y": 1.8072836492,
				"z": 0.1829697216,
				"element": "H" 
			},
			{
				"x": 1.6868616674,
				"y": 1.5445333777,
				"z": 0.0785217219,
				"element": "H" 
			},
			{
				"x": 0.8828494328,
				"y": 1.5251164029,
				"z": -2.1893081393,
				"element": "H" 
			},
			{
				"x": -0.4782215117,
				"y": 0.4721021472,
				"z": -1.7997676499,
				"element": "H" 
			},
			{
				"x": 1.5887464552,
				"y": -0.7301713446,
				"z": -2.7992457566,
				"element": "H" 
			}
		],
		 "valence_orbital": [ 
			{
				"type": "occ",
				"energy": -0.25866,
				"method": "rhf"
			},
			{
				"type": "occ",
				"energy": -0.25062,
				"method": "rhf"
			},
			{
				"type": "occ",
				"energy": -0.2456,
				"method": "rhf"
			},
			{
				"type": "occ",
				"energy": -0.24273,
				"method": "rhf"
			},
			{
				"type": "occ",
				"energy": -0.20533,
				"method": "rhf"
			},
			{
				"type": "unocc",
				"energy": -0.00456,
				"method": "rhf"
			},
			{
				"type": "unocc",
				"energy": -0.00118,
				"method": "rhf"
			},
			{
				"type": "unocc",
				"energy": 0.03266,
				"method": "rhf"
			},
			{
				"type": "unocc",
				"energy": 0.07435,
				"method": "rhf"
			},
			{
				"type": "unocc",
				"energy": 0.09387,
				"method": "rhf"
			}
		],
		"cosmo_sigma_profile": { 
			"-0.025": 0.0,
			"-0.024": 0.0,
			"-0.023": 0.0,
			"-0.022": 0.0,
			"-0.021": 0.0,
			"-0.02": 0.0,
			"-0.019": 0.0,
			"-0.018": 0.0,
			"-0.017": 0.0,
			"-0.016": 0.0,
			"-0.015": 0.0,
			"-0.014": 0.122999252655,
			"-0.013": 1.17424371888,
			"-0.012": 0.822741168468,
			"-0.011": 0.562698204692,
			"-0.01": 1.62887504822,
			"-0.009": 0.769216106311,
			"-0.008": 1.02593835463,
			"-0.007": 1.40835505111,
			"-0.006": 3.80626424773,
			"-0.005": 15.6905823479,
			"-0.004": 30.4898305121,
			"-0.003": 38.0556426001,
			"-0.002": 29.3837938624,
			"-0.001": 23.4442722534,
			"0.0": 21.9010588361,
			"0.001": 19.1317976654,
			"0.002": 12.4585589408,
			"0.003": 12.0529037353,
			"0.004": 11.6561960442,
			"0.005": 10.4400116328,
			"0.006": 9.97664778644,
			"0.007": 3.52296662219,
			"0.008": 1.74811502458,
			"0.009": 2.226849377,
			"0.01": 1.82928296311,
			"0.011": 1.60114892487,
			"0.012": 1.52735864297,
			"0.013": 2.0061099284,
			"0.014": 4.6427688069,
			"0.015": 3.35451945202,
			"0.016": 0.119593542193,
			"0.017": 0.0,
			"0.018": 0.0,
			"0.019": 0.0,
			"0.02": 0.0,
			"0.021": 0.0,
			"0.022": 0.0,
			"0.023": 0.0,
			"0.024": 0.0,
			"0.025": 0.0
		}
	}
}
