{
	 "smiles": "C1CN(CCN1)C1=C2C=CSC2=NC=N1", 
	 "Tm": 345.15, 
	 "num_atms": 27, 
	 "gaussian": { 
		 "optdone": 1, 
		 "sigma_profile": "yes", 
		 "theory": "DFT", 
		 "functional": "B3LYP", 
		 "basiset": "6-31G**", 
		 "properties": { 
			 "R2extent": 4116.6718, 
			 "electric_dipole_moment_norm": 4.28171006258, 
			 "electric_quadrupole_moment_norm": 13.4905372599, 
			 "total_energy": -1005.47091472, 
			 "HOMO_LUMO_gap": 0.1789, 
			 "cosmo_polarized_energy": -12.35, 
			 "cosmo_cavitation_energy": 30.15, 
			 "cosmo_dispersion_energy": -23.51, 
			 "cosmo_repulsion_energy": 1.76, 
			 "cosmo_total_nonelectrostatic_energy": 8.41, 
			 "SMD_solvation_energy": -1.18 
		},
		"coords": [
			{
				"x": -0.0295033979,
				"y": 3.0968822266,
				"z": -0.7192803471,
				"element": "C" 
			},
			{
				"x": 0.8939179405,
				"y": 1.8828500156,
				"z": -0.8481936537,
				"element": "C" 
			},
			{
				"x": 0.4334624285,
				"y": 0.829310302,
				"z": 0.0692184129,
				"element": "N" 
			},
			{
				"x": -0.1787274919,
				"y": 1.2776584243,
				"z": 1.324504359,
				"element": "C" 
			},
			{
				"x": 0.3040829144,
				"y": 2.6841448677,
				"z": 1.6787657739,
				"element": "C" 
			},
			{
				"x": -0.1090807454,
				"y": 3.640472126,
				"z": 0.6484776461,
				"element": "N" 
			},
			{
				"x": 0.775857527,
				"y": -0.4723664435,
				"z": -0.1763953793,
				"element": "C" 
			},
			{
				"x": 0.2444490781,
				"y": -1.6000369777,
				"z": 0.5309469062,
				"element": "C" 
			},
			{
				"x": -0.7810344741,
				"y": -1.769591856,
				"z": 1.5323386739,
				"element": "C" 
			},
			{
				"x": -0.9555455018,
				"y": -3.0680180728,
				"z": 1.8967942587,
				"element": "C" 
			},
			{
				"x": 0.0966429143,
				"y": -4.1730042992,
				"z": 1.0472359135,
				"element": "S" 
			},
			{
				"x": 0.7989821987,
				"y": -2.8411375033,
				"z": 0.1438150509,
				"element": "C" 
			},
			{
				"x": 1.7120857419,
				"y": -3.0404079574,
				"z": -0.8133168869,
				"element": "N" 
			},
			{
				"x": 2.0683697967,
				"y": -1.9176641409,
				"z": -1.4324596549,
				"element": "C" 
			},
			{
				"x": 1.6619176392,
				"y": -0.6716814004,
				"z": -1.1713180924,
				"element": "N" 
			},
			{
				"x": 0.3102502408,
				"y": 3.8805217085,
				"z": -1.4039047382,
				"element": "H" 
			},
			{
				"x": -1.034003638,
				"y": 2.8029307398,
				"z": -1.0540057161,
				"element": "H" 
			},
			{
				"x": 1.9375391395,
				"y": 2.1576524288,
				"z": -0.637850464,
				"element": "H" 
			},
			{
				"x": 0.8745812322,
				"y": 1.4872528951,
				"z": -1.8647464842,
				"element": "H" 
			},
			{
				"x": -1.2765265235,
				"y": 1.2791077833,
				"z": 1.256748121,
				"element": "H" 
			},
			{
				"x": 0.1105701889,
				"y": 0.5979622528,
				"z": 2.1288800912,
				"element": "H" 
			},
			{
				"x": 1.3968818664,
				"y": 2.6398384653,
				"z": 1.8276881808,
				"element": "H" 
			},
			{
				"x": -0.1378629936,
				"y": 2.971305504,
				"z": 2.6406915558,
				"element": "H" 
			},
			{
				"x": 0.4487232501,
				"y": 4.4836499978,
				"z": 0.7251213758,
				"element": "H" 
			},
			{
				"x": -1.3816730948,
				"y": -0.9733659411,
				"z": 1.9487722908,
				"element": "H" 
			},
			{
				"x": -1.6596837055,
				"y": -3.4534992181,
				"z": 2.6212556948,
				"element": "H" 
			},
			{
				"x": 2.7859274694,
				"y": -2.0210659272,
				"z": -2.2446828885,
				"element": "H" 
			}
		],
		 "valence_orbital": [ 
			{
				"type": "occ",
				"energy": -0.26115,
				"method": "rhf"
			},
			{
				"type": "occ",
				"energy": -0.25268,
				"method": "rhf"
			},
			{
				"type": "occ",
				"energy": -0.24817,
				"method": "rhf"
			},
			{
				"type": "occ",
				"energy": -0.22626,
				"method": "rhf"
			},
			{
				"type": "occ",
				"energy": -0.20567,
				"method": "rhf"
			},
			{
				"type": "unocc",
				"energy": -0.02677,
				"method": "rhf"
			},
			{
				"type": "unocc",
				"energy": -0.00962,
				"method": "rhf"
			},
			{
				"type": "unocc",
				"energy": 0.02756,
				"method": "rhf"
			},
			{
				"type": "unocc",
				"energy": 0.03586,
				"method": "rhf"
			},
			{
				"type": "unocc",
				"energy": 0.06576,
				"method": "rhf"
			}
		],
		"cosmo_sigma_profile": { 
			"-0.025": 0.0,
			"-0.024": 0.0,
			"-0.023": 0.0,
			"-0.022": 0.0,
			"-0.021": 0.0,
			"-0.02": 0.0,
			"-0.019": 0.0,
			"-0.018": 0.0,
			"-0.017": 0.0,
			"-0.016": 0.0,
			"-0.015": 0.0,
			"-0.014": 0.0,
			"-0.013": 0.0,
			"-0.012": 0.0,
			"-0.011": 0.222958406651,
			"-0.01": 1.35772007179,
			"-0.009": 2.38003462146,
			"-0.008": 4.28080536445,
			"-0.007": 6.00785770894,
			"-0.006": 10.8130398321,
			"-0.005": 14.213961727,
			"-0.004": 22.173220575,
			"-0.003": 27.2410804224,
			"-0.002": 19.3067495821,
			"-0.001": 14.9622898984,
			"0.0": 14.4998228262,
			"0.001": 20.7572365061,
			"0.002": 18.6343680612,
			"0.003": 16.6768953954,
			"0.004": 13.7218048471,
			"0.005": 6.40631205303,
			"0.006": 3.96981728193,
			"0.007": 3.2504327038,
			"0.008": 3.21250723984,
			"0.009": 3.89889151941,
			"0.01": 2.14380228377,
			"0.011": 2.10243906212,
			"0.012": 2.5152434998,
			"0.013": 2.02681788504,
			"0.014": 1.26005956328,
			"0.015": 1.75351532264,
			"0.016": 0.673403414659,
			"0.017": 0.451955185773,
			"0.018": 0.361223374449,
			"0.019": 0.0,
			"0.02": 0.0,
			"0.021": 0.0,
			"0.022": 0.0,
			"0.023": 0.0,
			"0.024": 0.0,
			"0.025": 0.0
		}
	}
}
