{
	 "smiles": "OC(=O)CSCC1=CN=CC=C1", 
	 "Tm": 383.15, 
	 "num_atms": 21, 
	 "gaussian": { 
		 "optdone": 1, 
		 "sigma_profile": "yes", 
		 "theory": "DFT", 
		 "functional": "B3LYP", 
		 "basiset": "6-31G**", 
		 "properties": { 
			 "R2extent": 3095.7909, 
			 "electric_dipole_moment_norm": 2.19358934397, 
			 "electric_quadrupole_moment_norm": 13.1490847472, 
			 "total_energy": -913.668893301, 
			 "HOMO_LUMO_gap": 0.20141, 
			 "cosmo_polarized_energy": -13.8, 
			 "cosmo_cavitation_energy": 26.81, 
			 "cosmo_dispersion_energy": -19.57, 
			 "cosmo_repulsion_energy": 1.53, 
			 "cosmo_total_nonelectrostatic_energy": 8.77, 
			 "SMD_solvation_energy": 3.88 
		},
		"coords": [
			{
				"x": 1.8560637485,
				"y": -2.5534304607,
				"z": 1.6887563023,
				"element": "O" 
			},
			{
				"x": 2.0775826967,
				"y": -2.8744510104,
				"z": 0.3857256443,
				"element": "C" 
			},
			{
				"x": 2.6518072517,
				"y": -3.8845593974,
				"z": 0.0529288268,
				"element": "O" 
			},
			{
				"x": 1.5268868608,
				"y": -1.8236047826,
				"z": -0.5527294126,
				"element": "C" 
			},
			{
				"x": 2.5438708154,
				"y": -0.2933101222,
				"z": -0.5934362898,
				"element": "S" 
			},
			{
				"x": 1.9706873195,
				"y": 0.5758465054,
				"z": 0.9376821671,
				"element": "C" 
			},
			{
				"x": 0.517009814,
				"y": 0.9644175657,
				"z": 0.9300564211,
				"element": "C" 
			},
			{
				"x": -0.4146129626,
				"y": 0.2661158598,
				"z": 1.7107928252,
				"element": "C" 
			},
			{
				"x": -1.7227698811,
				"y": 0.5501103234,
				"z": 1.7605973935,
				"element": "N" 
			},
			{
				"x": -2.1569310858,
				"y": 1.5709443743,
				"z": 1.0145020183,
				"element": "C" 
			},
			{
				"x": -1.3210575314,
				"y": 2.3371278036,
				"z": 0.1968929404,
				"element": "C" 
			},
			{
				"x": 0.0335192355,
				"y": 2.0246181904,
				"z": 0.152204928,
				"element": "C" 
			},
			{
				"x": 2.2579135795,
				"y": -3.2654661637,
				"z": 2.2149761821,
				"element": "H" 
			},
			{
				"x": 0.4978413374,
				"y": -1.5651708925,
				"z": -0.2867724542,
				"element": "H" 
			},
			{
				"x": 1.5507709629,
				"y": -2.2288350388,
				"z": -1.5644988893,
				"element": "H" 
			},
			{
				"x": 2.6156416414,
				"y": 1.4592933659,
				"z": 0.9744615612,
				"element": "H" 
			},
			{
				"x": 2.2058722722,
				"y": -0.0509781761,
				"z": 1.7997157892,
				"element": "H" 
			},
			{
				"x": -0.0795587785,
				"y": -0.5673068617,
				"z": 2.3270968243,
				"element": "H" 
			},
			{
				"x": -3.2221768907,
				"y": 1.788743644,
				"z": 1.0701305552,
				"element": "H" 
			},
			{
				"x": -1.7272797037,
				"y": 3.1567177537,
				"z": -0.3877385698,
				"element": "H" 
			},
			{
				"x": 0.7133192982,
				"y": 2.5915775199,
				"z": -0.4788447634,
				"element": "H" 
			}
		],
		 "valence_orbital": [ 
			{
				"type": "occ",
				"energy": -0.29088,
				"method": "rhf"
			},
			{
				"type": "occ",
				"energy": -0.28765,
				"method": "rhf"
			},
			{
				"type": "occ",
				"energy": -0.26245,
				"method": "rhf"
			},
			{
				"type": "occ",
				"energy": -0.25791,
				"method": "rhf"
			},
			{
				"type": "occ",
				"energy": -0.23665,
				"method": "rhf"
			},
			{
				"type": "unocc",
				"energy": -0.03524,
				"method": "rhf"
			},
			{
				"type": "unocc",
				"energy": -0.02,
				"method": "rhf"
			},
			{
				"type": "unocc",
				"energy": -0.01475,
				"method": "rhf"
			},
			{
				"type": "unocc",
				"energy": 0.04299,
				"method": "rhf"
			},
			{
				"type": "unocc",
				"energy": 0.06381,
				"method": "rhf"
			}
		],
		"cosmo_sigma_profile": { 
			"-0.025": 0.0,
			"-0.024": 0.0,
			"-0.023": 0.0,
			"-0.022": 0.0,
			"-0.021": 0.0,
			"-0.02": 0.0,
			"-0.019": 0.0432225265958,
			"-0.018": 0.782336278732,
			"-0.017": 1.19652945007,
			"-0.016": 0.645786022479,
			"-0.015": 0.709803132021,
			"-0.014": 1.02558642581,
			"-0.013": 0.428647810935,
			"-0.012": 0.639819887181,
			"-0.011": 0.811627006601,
			"-0.01": 1.17272184021,
			"-0.009": 0.271085893193,
			"-0.008": 2.36269354953,
			"-0.007": 10.2124494831,
			"-0.006": 14.2767543946,
			"-0.005": 16.0838158188,
			"-0.004": 16.533375576,
			"-0.003": 13.4472460651,
			"-0.002": 13.1417372353,
			"-0.001": 11.8101322513,
			"0.0": 11.8683635451,
			"0.001": 14.3698371403,
			"0.002": 18.7026492541,
			"0.003": 13.6311120611,
			"0.004": 7.28865823659,
			"0.005": 7.56973943021,
			"0.006": 4.91209216539,
			"0.007": 4.72788532758,
			"0.008": 5.18232354192,
			"0.009": 4.07699994309,
			"0.01": 3.05311589879,
			"0.011": 6.48422378786,
			"0.012": 4.02724169169,
			"0.013": 1.17983251749,
			"0.014": 0.489992197801,
			"0.015": 1.15597463861,
			"0.016": 0.823760426476,
			"0.017": 0.307368071391,
			"0.018": 0.0,
			"0.019": 0.0,
			"0.02": 0.0,
			"0.021": 0.0,
			"0.022": 0.0,
			"0.023": 0.0,
			"0.024": 0.0,
			"0.025": 0.0
		}
	}
}
