{
	 "smiles": "[O-][N+](=O)C1=CC2=C(COC2=O)C=C1", 
	 "Tm": 417.15, 
	 "num_atms": 18, 
	 "gaussian": { 
		 "optdone": 1, 
		 "sigma_profile": "yes", 
		 "theory": "DFT", 
		 "functional": "B3LYP", 
		 "basiset": "6-31G**", 
		 "properties": { 
			 "R2extent": 2808.0521, 
			 "electric_dipole_moment_norm": 5.7432458584, 
			 "electric_quadrupole_moment_norm": 16.0442014977, 
			 "total_energy": -663.415051747, 
			 "HOMO_LUMO_gap": 0.1849, 
			 "cosmo_polarized_energy": -15.61, 
			 "cosmo_cavitation_energy": 23.78, 
			 "cosmo_dispersion_energy": -17.74, 
			 "cosmo_repulsion_energy": 1.39, 
			 "cosmo_total_nonelectrostatic_energy": 7.44, 
			 "SMD_solvation_energy": 7.38 
		},
		"coords": [
			{
				"x": 3.2488244058,
				"y": -2.8125504726,
				"z": -1.8189349316,
				"element": "O" 
			},
			{
				"x": 2.1334355699,
				"y": -2.7001078257,
				"z": -1.3131309242,
				"element": "N" 
			},
			{
				"x": 1.3980928448,
				"y": -3.6359700183,
				"z": -1.0086875862,
				"element": "O" 
			},
			{
				"x": 1.638161842,
				"y": -1.3351510717,
				"z": -1.0509741949,
				"element": "C" 
			},
			{
				"x": 0.3788180938,
				"y": -1.1779958881,
				"z": -0.4791389977,
				"element": "C" 
			},
			{
				"x": -0.0325228474,
				"y": 0.1312135014,
				"z": -0.2564347077,
				"element": "C" 
			},
			{
				"x": 0.7618381415,
				"y": 1.2266441963,
				"z": -0.5829799525,
				"element": "C" 
			},
			{
				"x": 0.0008548025,
				"y": 2.4698589844,
				"z": -0.2044627956,
				"element": "C" 
			},
			{
				"x": -1.2422841817,
				"y": 1.9971316754,
				"z": 0.3420783791,
				"element": "O" 
			},
			{
				"x": -1.3054482735,
				"y": 0.6221870921,
				"z": 0.3310595453,
				"element": "C" 
			},
			{
				"x": -2.2532281955,
				"y": 0.0052460009,
				"z": 0.7404186395,
				"element": "O" 
			},
			{
				"x": 2.0208700231,
				"y": 1.0513065226,
				"z": -1.1552237017,
				"element": "C" 
			},
			{
				"x": 2.4586786499,
				"y": -0.251715558,
				"z": -1.3897040507,
				"element": "C" 
			},
			{
				"x": -0.2369335968,
				"y": -2.0323082967,
				"z": -0.226131615,
				"element": "H" 
			},
			{
				"x": 0.5139645,
				"y": 3.068657973,
				"z": 0.5568100994,
				"element": "H" 
			},
			{
				"x": -0.2160632283,
				"y": 3.1151827257,
				"z": -1.0634616916,
				"element": "H" 
			},
			{
				"x": 2.6532930114,
				"y": 1.8942753238,
				"z": -1.4160519418,
				"element": "H" 
			},
			{
				"x": 3.4265484386,
				"y": -0.4538048643,
				"z": -1.8315495723,
				"element": "H" 
			}
		],
		 "valence_orbital": [ 
			{
				"type": "occ",
				"energy": -0.31945,
				"method": "rhf"
			},
			{
				"type": "occ",
				"energy": -0.30444,
				"method": "rhf"
			},
			{
				"type": "occ",
				"energy": -0.30032,
				"method": "rhf"
			},
			{
				"type": "occ",
				"energy": -0.29607,
				"method": "rhf"
			},
			{
				"type": "occ",
				"energy": -0.28878,
				"method": "rhf"
			},
			{
				"type": "unocc",
				"energy": -0.10388,
				"method": "rhf"
			},
			{
				"type": "unocc",
				"energy": -0.07364,
				"method": "rhf"
			},
			{
				"type": "unocc",
				"energy": -0.02609,
				"method": "rhf"
			},
			{
				"type": "unocc",
				"energy": 0.03911,
				"method": "rhf"
			},
			{
				"type": "unocc",
				"energy": 0.07071,
				"method": "rhf"
			}
		],
		"cosmo_sigma_profile": { 
			"-0.025": 0.0,
			"-0.024": 0.0,
			"-0.023": 0.0,
			"-0.022": 0.0,
			"-0.021": 0.0,
			"-0.02": 0.0,
			"-0.019": 0.0,
			"-0.018": 0.0,
			"-0.017": 0.0,
			"-0.016": 0.0,
			"-0.015": 0.0,
			"-0.014": 0.0,
			"-0.013": 0.0,
			"-0.012": 0.0,
			"-0.011": 0.0,
			"-0.01": 0.0,
			"-0.009": 4.47621611771,
			"-0.008": 14.5331086427,
			"-0.007": 12.3842546423,
			"-0.006": 11.7637198404,
			"-0.005": 10.0809823123,
			"-0.004": 11.0514094782,
			"-0.003": 11.4950324922,
			"-0.002": 16.4212901153,
			"-0.001": 16.6445379181,
			"0.0": 9.32964627682,
			"0.001": 5.67961362539,
			"0.002": 4.31708455504,
			"0.003": 4.41070383209,
			"0.004": 4.46295911997,
			"0.005": 5.22590711488,
			"0.006": 6.70099959082,
			"0.007": 11.6320918486,
			"0.008": 8.82789375838,
			"0.009": 8.8048521208,
			"0.01": 4.77861517574,
			"0.011": 5.94607921976,
			"0.012": 2.73165691805,
			"0.013": 0.172321281449,
			"0.014": 0.0,
			"0.015": 0.0,
			"0.016": 0.0,
			"0.017": 0.0,
			"0.018": 0.0,
			"0.019": 0.0,
			"0.02": 0.0,
			"0.021": 0.0,
			"0.022": 0.0,
			"0.023": 0.0,
			"0.024": 0.0,
			"0.025": 0.0
		}
	}
}
