{
	 "smiles": "NC1=C(Cl)C=CC(Br)=C1", 
	 "Tm": 321.65, 
	 "num_atms": 14, 
	 "gaussian": { 
		 "optdone": 1, 
		 "sigma_profile": "yes", 
		 "theory": "DFT", 
		 "functional": "B3LYP", 
		 "basiset": "6-31G**", 
		 "properties": { 
			 "R2extent": 2752.1251, 
			 "electric_dipole_moment_norm": 1.87943088726, 
			 "electric_quadrupole_moment_norm": 9.05784206696, 
			 "total_energy": -3318.00433701, 
			 "HOMO_LUMO_gap": 0.19895, 
			 "cosmo_polarized_energy": -7.46, 
			 "cosmo_cavitation_energy": 22.04, 
			 "cosmo_dispersion_energy": -17.2, 
			 "cosmo_repulsion_energy": 1.41, 
			 "cosmo_total_nonelectrostatic_energy": 6.25, 
			 "SMD_solvation_energy": 2.31 
		},
		"coords": [
			{
				"x": -2.6162152612,
				"y": -0.0688716951,
				"z": -0.7994446557,
				"element": "N" 
			},
			{
				"x": -1.4705027153,
				"y": 0.1345979529,
				"z": -0.053678713,
				"element": "C" 
			},
			{
				"x": -1.2826134597,
				"y": 1.2941788187,
				"z": 0.7254743158,
				"element": "C" 
			},
			{
				"x": -2.5096533915,
				"y": 2.5596908873,
				"z": 0.6848277305,
				"element": "Cl" 
			},
			{
				"x": -0.1534275476,
				"y": 1.4684515652,
				"z": 1.5181926405,
				"element": "C" 
			},
			{
				"x": 0.8382668323,
				"y": 0.4892434707,
				"z": 1.5629086328,
				"element": "C" 
			},
			{
				"x": 0.6619335966,
				"y": -0.6588600526,
				"z": 0.7925865604,
				"element": "C" 
			},
			{
				"x": 2.0039351765,
				"y": -2.0205096047,
				"z": 0.8254413475,
				"element": "Br" 
			},
			{
				"x": -0.4606657215,
				"y": -0.84591272,
				"z": -0.002984858,
				"element": "C" 
			},
			{
				"x": -2.5439793161,
				"y": -0.7343947305,
				"z": -1.5544840776,
				"element": "H" 
			},
			{
				"x": -3.1531440829,
				"y": 0.7557201922,
				"z": -1.026792334,
				"element": "H" 
			},
			{
				"x": -0.0502249265,
				"y": 2.3777633139,
				"z": 2.1002500403,
				"element": "H" 
			},
			{
				"x": 1.7198707808,
				"y": 0.6187452346,
				"z": 2.1778961806,
				"element": "H" 
			},
			{
				"x": -0.5706799637,
				"y": -1.7537426326,
				"z": -0.5862928101,
				"element": "H" 
			}
		],
		 "valence_orbital": [ 
			{
				"type": "occ",
				"energy": -0.32331,
				"method": "rhf"
			},
			{
				"type": "occ",
				"energy": -0.29512,
				"method": "rhf"
			},
			{
				"type": "occ",
				"energy": -0.28806,
				"method": "rhf"
			},
			{
				"type": "occ",
				"energy": -0.24573,
				"method": "rhf"
			},
			{
				"type": "occ",
				"energy": -0.21796,
				"method": "rhf"
			},
			{
				"type": "unocc",
				"energy": -0.01901,
				"method": "rhf"
			},
			{
				"type": "unocc",
				"energy": -0.00291,
				"method": "rhf"
			},
			{
				"type": "unocc",
				"energy": 0.00307,
				"method": "rhf"
			},
			{
				"type": "unocc",
				"energy": 0.02906,
				"method": "rhf"
			},
			{
				"type": "unocc",
				"energy": 0.07698,
				"method": "rhf"
			}
		],
		"cosmo_sigma_profile": { 
			"-0.025": 0.0,
			"-0.024": 0.0,
			"-0.023": 0.0,
			"-0.022": 0.0,
			"-0.021": 0.0,
			"-0.02": 0.0,
			"-0.019": 0.0,
			"-0.018": 0.0,
			"-0.017": 0.0,
			"-0.016": 0.0,
			"-0.015": 0.0,
			"-0.014": 0.383639406352,
			"-0.013": 1.57046770856,
			"-0.012": 2.56268022047,
			"-0.011": 2.29571986303,
			"-0.01": 3.02433417346,
			"-0.009": 2.18612963518,
			"-0.008": 3.24911693701,
			"-0.007": 5.82056634724,
			"-0.006": 6.01840829011,
			"-0.005": 6.2632774668,
			"-0.004": 7.96047178674,
			"-0.003": 6.62623508197,
			"-0.002": 9.00484387167,
			"-0.001": 9.12938482232,
			"0.0": 11.5980261023,
			"0.001": 13.9229568056,
			"0.002": 21.1350424473,
			"0.003": 27.6594432016,
			"0.004": 24.4048383531,
			"0.005": 12.7449409418,
			"0.006": 0.241543716942,
			"0.007": 0.787061450566,
			"0.008": 1.07039759099,
			"0.009": 0.46405901212,
			"0.01": 0.612691993935,
			"0.011": 0.609938459625,
			"0.012": 0.565650951882,
			"0.013": 0.0669131112931,
			"0.014": 0.0,
			"0.015": 0.0,
			"0.016": 0.0,
			"0.017": 0.0,
			"0.018": 0.0,
			"0.019": 0.0,
			"0.02": 0.0,
			"0.021": 0.0,
			"0.022": 0.0,
			"0.023": 0.0,
			"0.024": 0.0,
			"0.025": 0.0
		}
	}
}
