{
	 "smiles": "CCC(=N/NC(N)=O)C(C)=N/NC(N)=O", 
	 "Tm": 517.15, 
	 "num_atms": 29, 
	 "gaussian": { 
		 "optdone": 1, 
		 "sigma_profile": "yes", 
		 "theory": "DFT", 
		 "functional": "B3LYP", 
		 "basiset": "6-31G**", 
		 "properties": { 
			 "R2extent": 4375.5652, 
			 "electric_dipole_moment_norm": 5.15666646391, 
			 "electric_quadrupole_moment_norm": 5.5535957496, 
			 "total_energy": -754.138579895, 
			 "HOMO_LUMO_gap": 0.15642, 
			 "cosmo_polarized_energy": -21.6, 
			 "cosmo_cavitation_energy": 33.2, 
			 "cosmo_dispersion_energy": -23.37, 
			 "cosmo_repulsion_energy": 1.88, 
			 "cosmo_total_nonelectrostatic_energy": 11.7, 
			 "SMD_solvation_energy": 6.97 
		},
		"coords": [
			{
				"x": -2.8212424059,
				"y": 2.0672617775,
				"z": -1.0728661537,
				"element": "C" 
			},
			{
				"x": -2.3945962924,
				"y": 0.889487602,
				"z": -0.1726058165,
				"element": "C" 
			},
			{
				"x": -0.9229140155,
				"y": 0.928297994,
				"z": 0.2019947818,
				"element": "C" 
			},
			{
				"x": 0.0069782763,
				"y": 0.4841647613,
				"z": -0.5997637451,
				"element": "N" 
			},
			{
				"x": -0.3015437581,
				"y": -0.0334885179,
				"z": -1.8034463075,
				"element": "N" 
			},
			{
				"x": 0.6525865646,
				"y": -0.5877978282,
				"z": -2.6731114969,
				"element": "C" 
			},
			{
				"x": 1.9487518713,
				"y": -0.5392633292,
				"z": -2.2660700367,
				"element": "N" 
			},
			{
				"x": 0.2686898833,
				"y": -1.0796958358,
				"z": -3.7250491364,
				"element": "O" 
			},
			{
				"x": -0.5150423909,
				"y": 1.5204108112,
				"z": 1.4976138853,
				"element": "C" 
			},
			{
				"x": -1.5850802506,
				"y": 2.0280582745,
				"z": 2.4392504141,
				"element": "C" 
			},
			{
				"x": 0.7019803559,
				"y": 1.6694945049,
				"z": 1.9422317771,
				"element": "N" 
			},
			{
				"x": 1.739924336,
				"y": 1.2469103339,
				"z": 1.2015217666,
				"element": "N" 
			},
			{
				"x": 3.0662270167,
				"y": 1.3854887027,
				"z": 1.5996734828,
				"element": "C" 
			},
			{
				"x": 3.2499960983,
				"y": 2.029157173,
				"z": 2.7849074678,
				"element": "N" 
			},
			{
				"x": 3.9561329427,
				"y": 0.9539252344,
				"z": 0.8730696339,
				"element": "O" 
			},
			{
				"x": -3.8787443196,
				"y": 1.9828909466,
				"z": -1.3404690633,
				"element": "H" 
			},
			{
				"x": -2.6772019401,
				"y": 3.0230056009,
				"z": -0.5601549676,
				"element": "H" 
			},
			{
				"x": -2.2391614762,
				"y": 2.1018840533,
				"z": -1.998679717,
				"element": "H" 
			},
			{
				"x": -2.6152545026,
				"y": -0.0621546775,
				"z": -0.6739928684,
				"element": "H" 
			},
			{
				"x": -3.0062483149,
				"y": 0.8845225645,
				"z": 0.7307624505,
				"element": "H" 
			},
			{
				"x": -1.2540903298,
				"y": -0.1246627477,
				"z": -2.1377160432,
				"element": "H" 
			},
			{
				"x": 2.2749651735,
				"y": -0.0544812948,
				"z": -1.445883623,
				"element": "H" 
			},
			{
				"x": 2.6273241448,
				"y": -0.8866759393,
				"z": -2.9232425347,
				"element": "H" 
			},
			{
				"x": -2.2330823081,
				"y": 1.2211798965,
				"z": 2.802745265,
				"element": "H" 
			},
			{
				"x": -2.2311884677,
				"y": 2.779159229,
				"z": 1.9704823901,
				"element": "H" 
			},
			{
				"x": -1.0989480308,
				"y": 2.4854891368,
				"z": 3.3018556641,
				"element": "H" 
			},
			{
				"x": 1.552731286,
				"y": 0.7942933244,
				"z": 0.3112356394,
				"element": "H" 
			},
			{
				"x": 4.1773340482,
				"y": 2.0195641343,
				"z": 3.1743005563,
				"element": "H" 
			},
			{
				"x": 2.4495168056,
				"y": 2.2288741147,
				"z": 3.3650063355,
				"element": "H" 
			}
		],
		 "valence_orbital": [ 
			{
				"type": "occ",
				"energy": -0.26842,
				"method": "rhf"
			},
			{
				"type": "occ",
				"energy": -0.2666,
				"method": "rhf"
			},
			{
				"type": "occ",
				"energy": -0.26309,
				"method": "rhf"
			},
			{
				"type": "occ",
				"energy": -0.2599,
				"method": "rhf"
			},
			{
				"type": "occ",
				"energy": -0.2167,
				"method": "rhf"
			},
			{
				"type": "unocc",
				"energy": -0.06028,
				"method": "rhf"
			},
			{
				"type": "unocc",
				"energy": 0.03649,
				"method": "rhf"
			},
			{
				"type": "unocc",
				"energy": 0.05959,
				"method": "rhf"
			},
			{
				"type": "unocc",
				"energy": 0.07133,
				"method": "rhf"
			},
			{
				"type": "unocc",
				"energy": 0.07859,
				"method": "rhf"
			}
		],
		"cosmo_sigma_profile": { 
			"-0.025": 0.0,
			"-0.024": 0.0,
			"-0.023": 0.0,
			"-0.022": 0.0,
			"-0.021": 0.0,
			"-0.02": 0.0,
			"-0.019": 0.0,
			"-0.018": 0.0,
			"-0.017": 0.0,
			"-0.016": 0.0,
			"-0.015": 0.350849097479,
			"-0.014": 2.43518602322,
			"-0.013": 2.87906891959,
			"-0.012": 3.71889940377,
			"-0.011": 3.80586076752,
			"-0.01": 3.81188612124,
			"-0.009": 4.2993736662,
			"-0.008": 5.17513070182,
			"-0.007": 6.12050766637,
			"-0.006": 6.77240337188,
			"-0.005": 12.8501148754,
			"-0.004": 19.3107794124,
			"-0.003": 20.4633642454,
			"-0.002": 22.3151233325,
			"-0.001": 18.4103697474,
			"0.0": 25.5283031925,
			"0.001": 19.9072496531,
			"0.002": 14.4545360099,
			"0.003": 10.7526354007,
			"0.004": 8.00612076505,
			"0.005": 6.74629319341,
			"0.006": 4.89483082986,
			"0.007": 4.0516196595,
			"0.008": 2.83953705227,
			"0.009": 3.4787897806,
			"0.01": 2.28121661712,
			"0.011": 2.31430087407,
			"0.012": 3.86888772368,
			"0.013": 6.38435409911,
			"0.014": 11.0951167009,
			"0.015": 2.17470977722,
			"0.016": 0.0212039939717,
			"0.017": 0.0,
			"0.018": 0.0,
			"0.019": 0.0,
			"0.02": 0.0,
			"0.021": 0.0,
			"0.022": 0.0,
			"0.023": 0.0,
			"0.024": 0.0,
			"0.025": 0.0
		}
	}
}
