{
	 "smiles": "OC(=O)C=CC1=CC=C(C=C1)S(=O)(=O)N1CCC2=C1C=CC=C2", 
	 "Tm": 473.15, 
	 "num_atms": 38, 
	 "gaussian": { 
		 "optdone": 1, 
		 "sigma_profile": "yes", 
		 "theory": "DFT", 
		 "functional": "B3LYP", 
		 "basiset": "6-31G**", 
		 "properties": { 
			 "R2extent": 10399.7658, 
			 "electric_dipole_moment_norm": 4.28694641091, 
			 "electric_quadrupole_moment_norm": 40.3395018108, 
			 "total_energy": -1410.60749303, 
			 "HOMO_LUMO_gap": 0.13328, 
			 "cosmo_polarized_energy": -26.17, 
			 "cosmo_cavitation_energy": 43.66, 
			 "cosmo_dispersion_energy": -30.72, 
			 "cosmo_repulsion_energy": 2.29, 
			 "cosmo_total_nonelectrostatic_energy": 15.23, 
			 "SMD_solvation_energy": 6.79 
		},
		"coords": [
			{
				"x": -6.248151996,
				"y": -1.9175279924,
				"z": -2.1097343984,
				"element": "O" 
			},
			{
				"x": -4.9738019833,
				"y": -1.5891964108,
				"z": -2.4582146124,
				"element": "C" 
			},
			{
				"x": -4.7297532635,
				"y": -1.2422996886,
				"z": -3.5913347653,
				"element": "O" 
			},
			{
				"x": -3.9600649505,
				"y": -1.689070338,
				"z": -1.373591653,
				"element": "C" 
			},
			{
				"x": -2.674199738,
				"y": -1.399644684,
				"z": -1.6405823697,
				"element": "C" 
			},
			{
				"x": -1.5339584886,
				"y": -1.431684763,
				"z": -0.7240165851,
				"element": "C" 
			},
			{
				"x": -0.2576018993,
				"y": -1.1275640548,
				"z": -1.2343912804,
				"element": "C" 
			},
			{
				"x": 0.8702017291,
				"y": -1.1435040302,
				"z": -0.419451166,
				"element": "C" 
			},
			{
				"x": 0.7235845641,
				"y": -1.4584262686,
				"z": 0.9340616918,
				"element": "C" 
			},
			{
				"x": -0.531732311,
				"y": -1.7711369177,
				"z": 1.4685757589,
				"element": "C" 
			},
			{
				"x": -1.6482820461,
				"y": -1.758084707,
				"z": 0.6415969752,
				"element": "C" 
			},
			{
				"x": 2.1592668128,
				"y": -1.4343683931,
				"z": 2.0166788012,
				"element": "S" 
			},
			{
				"x": 3.3122929545,
				"y": -1.8685989991,
				"z": 1.2292368378,
				"element": "O" 
			},
			{
				"x": 1.7716161694,
				"y": -2.084974726,
				"z": 3.2683044473,
				"element": "O" 
			},
			{
				"x": 2.4372501424,
				"y": 0.1863751004,
				"z": 2.417845959,
				"element": "N" 
			},
			{
				"x": 1.501159652,
				"y": 0.8661059719,
				"z": 3.3612360525,
				"element": "C" 
			},
			{
				"x": 1.0786884867,
				"y": 2.1737947819,
				"z": 2.6503561088,
				"element": "C" 
			},
			{
				"x": 2.1334343468,
				"y": 2.3310297482,
				"z": 1.5767989182,
				"element": "C" 
			},
			{
				"x": 2.8676908362,
				"y": 1.1437562675,
				"z": 1.4496765356,
				"element": "C" 
			},
			{
				"x": 3.903888292,
				"y": 1.0191868341,
				"z": 0.5239645949,
				"element": "C" 
			},
			{
				"x": 4.1754673021,
				"y": 2.1160681859,
				"z": -0.3003931493,
				"element": "C" 
			},
			{
				"x": 3.4498383455,
				"y": 3.3048220327,
				"z": -0.1866079987,
				"element": "C" 
			},
			{
				"x": 2.4246257184,
				"y": 3.4174668012,
				"z": 0.7597975177,
				"element": "C" 
			},
			{
				"x": -6.2898370622,
				"y": -2.18153747,
				"z": -1.1802909756,
				"element": "H" 
			},
			{
				"x": -4.2832342161,
				"y": -1.9983109078,
				"z": -0.3816929342,
				"element": "H" 
			},
			{
				"x": -2.4590886095,
				"y": -1.1064288585,
				"z": -2.6669561362,
				"element": "H" 
			},
			{
				"x": -0.1528095673,
				"y": -0.8847000312,
				"z": -2.287916523,
				"element": "H" 
			},
			{
				"x": 1.8514057825,
				"y": -0.9293368316,
				"z": -0.826687142,
				"element": "H" 
			},
			{
				"x": -0.6135773232,
				"y": -2.0438880352,
				"z": 2.5148521232,
				"element": "H" 
			},
			{
				"x": -2.6165210238,
				"y": -2.0093100059,
				"z": 1.0625821941,
				"element": "H" 
			},
			{
				"x": 2.0511766967,
				"y": 1.0740134365,
				"z": 4.2839919276,
				"element": "H" 
			},
			{
				"x": 0.6660853838,
				"y": 0.2120920746,
				"z": 3.6135522589,
				"element": "H" 
			},
			{
				"x": 0.0785484843,
				"y": 2.0886357324,
				"z": 2.205858945,
				"element": "H" 
			},
			{
				"x": 1.0515909327,
				"y": 3.0148405285,
				"z": 3.3493493006,
				"element": "H" 
			},
			{
				"x": 4.4743468652,
				"y": 0.1015179078,
				"z": 0.4551696402,
				"element": "H" 
			},
			{
				"x": 4.9773007451,
				"y": 2.0426425586,
				"z": -1.0292475213,
				"element": "H" 
			},
			{
				"x": 3.6876289102,
				"y": 4.1478841348,
				"z": -0.8281546437,
				"element": "H" 
			},
			{
				"x": 1.8624253257,
				"y": 4.3427620164,
				"z": 0.8533772656,
				"element": "H" 
			}
		],
		 "valence_orbital": [ 
			{
				"type": "occ",
				"energy": -0.28523,
				"method": "rhf"
			},
			{
				"type": "occ",
				"energy": -0.27889,
				"method": "rhf"
			},
			{
				"type": "occ",
				"energy": -0.26072,
				"method": "rhf"
			},
			{
				"type": "occ",
				"energy": -0.25714,
				"method": "rhf"
			},
			{
				"type": "occ",
				"energy": -0.22519,
				"method": "rhf"
			},
			{
				"type": "unocc",
				"energy": -0.09191,
				"method": "rhf"
			},
			{
				"type": "unocc",
				"energy": -0.03476,
				"method": "rhf"
			},
			{
				"type": "unocc",
				"energy": -0.02036,
				"method": "rhf"
			},
			{
				"type": "unocc",
				"energy": -0.01465,
				"method": "rhf"
			},
			{
				"type": "unocc",
				"energy": -0.00167,
				"method": "rhf"
			}
		],
		"cosmo_sigma_profile": { 
			"-0.025": 0.0,
			"-0.024": 0.0,
			"-0.023": 0.0,
			"-0.022": 0.0,
			"-0.021": 0.0,
			"-0.02": 0.130497462225,
			"-0.019": 0.808934116016,
			"-0.018": 1.37173074672,
			"-0.017": 1.42554242245,
			"-0.016": 0.86394529802,
			"-0.015": 0.537066801887,
			"-0.014": 1.7708693848,
			"-0.013": 0.931903690387,
			"-0.012": 1.0893528708,
			"-0.011": 1.10280757189,
			"-0.01": 2.57707328676,
			"-0.009": 2.67523677105,
			"-0.008": 5.92695192529,
			"-0.007": 8.923465583,
			"-0.006": 17.2262533976,
			"-0.005": 27.7954863511,
			"-0.004": 27.9353515782,
			"-0.003": 25.3950412148,
			"-0.002": 22.1962482884,
			"-0.001": 21.4606234872,
			"0.0": 21.1115828487,
			"0.001": 29.1618983591,
			"0.002": 24.067592067,
			"0.003": 14.6596170247,
			"0.004": 15.4693995077,
			"0.005": 13.8531881242,
			"0.006": 7.9473119927,
			"0.007": 6.03213046437,
			"0.008": 6.07109887578,
			"0.009": 7.30462953309,
			"0.01": 11.0028004275,
			"0.011": 11.8306729741,
			"0.012": 6.25493062975,
			"0.013": 2.29239146966,
			"0.014": 0.267024809191,
			"0.015": 0.0,
			"0.016": 0.0,
			"0.017": 0.0,
			"0.018": 0.0,
			"0.019": 0.0,
			"0.02": 0.0,
			"0.021": 0.0,
			"0.022": 0.0,
			"0.023": 0.0,
			"0.024": 0.0,
			"0.0": 0.0
		}
	}
}
