{
	 "smiles": "[O-][N+](=O)C1=CC=CN=C1N1CCOCC1", 
	 "Tm": 363.15, 
	 "num_atms": 26, 
	 "gaussian": { 
		 "optdone": 1, 
		 "sigma_profile": "yes", 
		 "theory": "DFT", 
		 "functional": "B3LYP", 
		 "basiset": "6-31G**", 
		 "properties": { 
			 "R2extent": 3619.786, 
			 "electric_dipole_moment_norm": 3.32553757158, 
			 "electric_quadrupole_moment_norm": 14.4187639703, 
			 "total_energy": -739.384952467, 
			 "HOMO_LUMO_gap": 0.13633, 
			 "cosmo_polarized_energy": -11.13, 
			 "cosmo_cavitation_energy": 28.65, 
			 "cosmo_dispersion_energy": -21.39, 
			 "cosmo_repulsion_energy": 1.65, 
			 "cosmo_total_nonelectrostatic_energy": 8.91, 
			 "SMD_solvation_energy": 5.55 
		},
		"coords": [
			{
				"x": 3.6538501777,
				"y": -0.9348083226,
				"z": 1.0132304613,
				"element": "O" 
			},
			{
				"x": 2.5022430381,
				"y": -0.5485522182,
				"z": 1.2297671059,
				"element": "N" 
			},
			{
				"x": 2.2113806651,
				"y": 0.6199942826,
				"z": 1.5048965799,
				"element": "O" 
			},
			{
				"x": 1.4362626382,
				"y": -1.5477892848,
				"z": 1.2160642626,
				"element": "C" 
			},
			{
				"x": 1.8440879736,
				"y": -2.8676585423,
				"z": 1.4273705623,
				"element": "C" 
			},
			{
				"x": 0.9020394575,
				"y": -3.8518392206,
				"z": 1.6807721208,
				"element": "C" 
			},
			{
				"x": -0.4320912683,
				"y": -3.441854445,
				"z": 1.7616701482,
				"element": "C" 
			},
			{
				"x": -0.8469972893,
				"y": -2.209484729,
				"z": 1.4949422858,
				"element": "N" 
			},
			{
				"x": 0.0376525959,
				"y": -1.2453429148,
				"z": 1.1567618509,
				"element": "C" 
			},
			{
				"x": -0.5037334797,
				"y": -0.0427662472,
				"z": 0.7829261601,
				"element": "N" 
			},
			{
				"x": -1.9344340133,
				"y": 0.2060274948,
				"z": 1.0012756881,
				"element": "C" 
			},
			{
				"x": -2.144608238,
				"y": 1.7025518545,
				"z": 1.2382681896,
				"element": "C" 
			},
			{
				"x": -1.6380747635,
				"y": 2.4863548956,
				"z": 0.1679619035,
				"element": "O" 
			},
			{
				"x": -0.246126575,
				"y": 2.257995652,
				"z": -0.0123762851,
				"element": "C" 
			},
			{
				"x": 0.0302664503,
				"y": 0.7851952839,
				"z": -0.3060175975,
				"element": "C" 
			},
			{
				"x": 2.907359755,
				"y": -3.0740776614,
				"z": 1.4320305879,
				"element": "H" 
			},
			{
				"x": 1.1882087822,
				"y": -4.881332942,
				"z": 1.8613060106,
				"element": "H" 
			},
			{
				"x": -1.2094318404,
				"y": -4.1492713964,
				"z": 2.0473499763,
				"element": "H" 
			},
			{
				"x": -2.2717399779,
				"y": -0.3721769432,
				"z": 1.8607459474,
				"element": "H" 
			},
			{
				"x": -2.5177567968,
				"y": -0.1208059745,
				"z": 0.1275989235,
				"element": "H" 
			},
			{
				"x": -1.6617501701,
				"y": 1.9924279384,
				"z": 2.1855996369,
				"element": "H" 
			},
			{
				"x": -3.2139587909,
				"y": 1.9223759562,
				"z": 1.3094771578,
				"element": "H" 
			},
			{
				"x": 0.3179292813,
				"y": 2.5606652506,
				"z": 0.8819125987,
				"element": "H" 
			},
			{
				"x": 0.0661719556,
				"y": 2.8774136148,
				"z": -0.8578302866,
				"element": "H" 
			},
			{
				"x": 1.0958719948,
				"y": 0.6274050265,
				"z": -0.4395977523,
				"element": "H" 
			},
			{
				"x": -0.4831215621,
				"y": 0.5038535919,
				"z": -1.2389062367,
				"element": "H" 
			}
		],
		 "valence_orbital": [ 
			{
				"type": "occ",
				"energy": -0.30441,
				"method": "rhf"
			},
			{
				"type": "occ",
				"energy": -0.28597,
				"method": "rhf"
			},
			{
				"type": "occ",
				"energy": -0.27544,
				"method": "rhf"
			},
			{
				"type": "occ",
				"energy": -0.2624,
				"method": "rhf"
			},
			{
				"type": "occ",
				"energy": -0.2243,
				"method": "rhf"
			},
			{
				"type": "unocc",
				"energy": -0.08797,
				"method": "rhf"
			},
			{
				"type": "unocc",
				"energy": -0.0304,
				"method": "rhf"
			},
			{
				"type": "unocc",
				"energy": -0.00689,
				"method": "rhf"
			},
			{
				"type": "unocc",
				"energy": 0.0895,
				"method": "rhf"
			},
			{
				"type": "unocc",
				"energy": 0.10062,
				"method": "rhf"
			}
		],
		"cosmo_sigma_profile": { 
			"-0.025": 0.0,
			"-0.024": 0.0,
			"-0.023": 0.0,
			"-0.022": 0.0,
			"-0.021": 0.0,
			"-0.02": 0.0,
			"-0.019": 0.0,
			"-0.018": 0.0,
			"-0.017": 0.0,
			"-0.016": 0.0,
			"-0.015": 0.0,
			"-0.014": 0.0,
			"-0.013": 0.0,
			"-0.012": 0.0,
			"-0.011": 0.0,
			"-0.01": 0.024425231404,
			"-0.009": 0.597885849707,
			"-0.008": 2.69458104771,
			"-0.007": 7.70920120625,
			"-0.006": 10.6746951439,
			"-0.005": 20.7436957536,
			"-0.004": 25.8966626086,
			"-0.003": 24.060472905,
			"-0.002": 18.2125202701,
			"-0.001": 15.6666878917,
			"0.0": 15.6641359185,
			"0.001": 13.4374814575,
			"0.002": 9.85503691844,
			"0.003": 7.41560185909,
			"0.004": 5.99723892724,
			"0.005": 5.97725170412,
			"0.006": 5.41474822818,
			"0.007": 7.11905196746,
			"0.008": 11.1868127148,
			"0.009": 6.2369647165,
			"0.01": 5.95407040176,
			"0.011": 3.06106237628,
			"0.012": 1.71332457002,
			"0.013": 1.805935077,
			"0.014": 0.0734628521558,
			"0.015": 0.0,
			"0.016": 0.0,
			"0.017": 0.0,
			"0.018": 0.0,
			"0.019": 0.0,
			"0.02": 0.0,
			"0.021": 0.0,
			"0.022": 0.0,
			"0.023": 0.0,
			"0.024": 0.0,
			"0.025": 0.0
		}
	}
}
