{
	 "smiles": "CC(=O)C1=CC=C(O)C(C)=C1", 
	 "Tm": 381.15, 
	 "num_atms": 21, 
	 "gaussian": { 
		 "optdone": 1, 
		 "sigma_profile": "yes", 
		 "theory": "DFT", 
		 "functional": "B3LYP", 
		 "basiset": "6-31G**", 
		 "properties": { 
			 "R2extent": 2078.3481, 
			 "electric_dipole_moment_norm": 3.05309434836, 
			 "electric_quadrupole_moment_norm": 17.9116533556, 
			 "total_energy": -499.442527656, 
			 "HOMO_LUMO_gap": 0.18464, 
			 "cosmo_polarized_energy": -12.55, 
			 "cosmo_cavitation_energy": 24.8, 
			 "cosmo_dispersion_energy": -18.11, 
			 "cosmo_repulsion_energy": 1.45, 
			 "cosmo_total_nonelectrostatic_energy": 8.15, 
			 "SMD_solvation_energy": 5.38 
		},
		"coords": [
			{
				"x": -1.1142270513,
				"y": -2.5021507542,
				"z": 0.7603250894,
				"element": "C" 
			},
			{
				"x": -1.3195054661,
				"y": -1.0125321358,
				"z": 0.9916491717,
				"element": "C" 
			},
			{
				"x": -2.2088313441,
				"y": -0.6216932511,
				"z": 1.7361341661,
				"element": "O" 
			},
			{
				"x": -0.4212775061,
				"y": -0.0440414406,
				"z": 0.2969142701,
				"element": "C" 
			},
			{
				"x": -0.6225708481,
				"y": 1.3257931207,
				"z": 0.5195630052,
				"element": "C" 
			},
			{
				"x": 0.1864475161,
				"y": 2.2661568051,
				"z": -0.1032171216,
				"element": "C" 
			},
			{
				"x": 1.2119530386,
				"y": 1.8490257373,
				"z": -0.9605590671,
				"element": "C" 
			},
			{
				"x": 2.0333055594,
				"y": 2.7333336819,
				"z": -1.5958133798,
				"element": "O" 
			},
			{
				"x": 1.4424404368,
				"y": 0.4814919625,
				"z": -1.2070258881,
				"element": "C" 
			},
			{
				"x": 2.5533984449,
				"y": 0.0610779136,
				"z": -2.1344729896,
				"element": "C" 
			},
			{
				"x": 0.6141575726,
				"y": -0.4391633529,
				"z": -0.5676567611,
				"element": "C" 
			},
			{
				"x": -1.8548199776,
				"y": -3.0494483855,
				"z": 1.3440465085,
				"element": "H" 
			},
			{
				"x": -0.1090015882,
				"y": -2.8139582876,
				"z": 1.064954023,
				"element": "H" 
			},
			{
				"x": -1.2272408684,
				"y": -2.7561033156,
				"z": -0.2995057676,
				"element": "H" 
			},
			{
				"x": -1.4225863106,
				"y": 1.6267924125,
				"z": 1.1873905465,
				"element": "H" 
			},
			{
				"x": 0.0291666716,
				"y": 3.3290950391,
				"z": 0.0704425747,
				"element": "H" 
			},
			{
				"x": 1.7818944084,
				"y": 3.6339816453,
				"z": -1.351958912,
				"element": "H" 
			},
			{
				"x": 2.4134464371,
				"y": 0.4788360077,
				"z": -3.1375993286,
				"element": "H" 
			},
			{
				"x": 3.5252767813,
				"y": 0.4217316166,
				"z": -1.7798611393,
				"element": "H" 
			},
			{
				"x": 2.600608352,
				"y": -1.0276566475,
				"z": -2.2189230234,
				"element": "H" 
			},
			{
				"x": 0.7886657418,
				"y": -1.4946683714,
				"z": -0.755125977,
				"element": "H" 
			}
		],
		 "valence_orbital": [ 
			{
				"type": "occ",
				"energy": -0.34041,
				"method": "rhf"
			},
			{
				"type": "occ",
				"energy": -0.32737,
				"method": "rhf"
			},
			{
				"type": "occ",
				"energy": -0.25503,
				"method": "rhf"
			},
			{
				"type": "occ",
				"energy": -0.23967,
				"method": "rhf"
			},
			{
				"type": "occ",
				"energy": -0.22743,
				"method": "rhf"
			},
			{
				"type": "unocc",
				"energy": -0.04279,
				"method": "rhf"
			},
			{
				"type": "unocc",
				"energy": -0.00585,
				"method": "rhf"
			},
			{
				"type": "unocc",
				"energy": 0.05083,
				"method": "rhf"
			},
			{
				"type": "unocc",
				"energy": 0.06049,
				"method": "rhf"
			},
			{
				"type": "unocc",
				"energy": 0.09638,
				"method": "rhf"
			}
		],
		"cosmo_sigma_profile": { 
			"-0.025": 0.0,
			"-0.024": 0.0,
			"-0.023": 0.0,
			"-0.022": 0.0,
			"-0.021": 0.0,
			"-0.02": 0.0,
			"-0.019": 0.0,
			"-0.018": 1.03777304268,
			"-0.017": 0.804911890336,
			"-0.016": 1.379602985,
			"-0.015": 0.849249136563,
			"-0.014": 1.54110864944,
			"-0.013": 0.668579955021,
			"-0.012": 0.574184057794,
			"-0.011": 1.14839017119,
			"-0.01": 1.09806728512,
			"-0.009": 1.33207128161,
			"-0.008": 1.0227146682,
			"-0.007": 1.57071860508,
			"-0.006": 7.17611755119,
			"-0.005": 13.7952833797,
			"-0.004": 15.0048586168,
			"-0.003": 14.0761861673,
			"-0.002": 15.1945958245,
			"-0.001": 16.1871368439,
			"0.0": 17.2466375896,
			"0.001": 13.0607624209,
			"0.002": 11.6729956806,
			"0.003": 12.9706545887,
			"0.004": 14.464050406,
			"0.005": 5.82667119077,
			"0.006": 3.13970811576,
			"0.007": 3.20735949336,
			"0.008": 3.14121928655,
			"0.009": 3.53461871341,
			"0.01": 3.13645265124,
			"0.011": 2.85775313613,
			"0.012": 3.71609095327,
			"0.013": 3.00993468184,
			"0.014": 0.834645497673,
			"0.015": 0.0,
			"0.016": 0.0,
			"0.017": 0.0,
			"0.018": 0.0,
			"0.019": 0.0,
			"0.02": 0.0,
			"0.021": 0.0,
			"0.022": 0.0,
			"0.023": 0.0,
			"0.024": 0.0,
			"0.025": 0.0
		}
	}
}
