{
	 "smiles": "N#CC1=CC=C(C=C1)C1=CC=CO1", 
	 "Tm": 339.65, 
	 "num_atms": 20, 
	 "gaussian": { 
		 "optdone": 1, 
		 "sigma_profile": "yes", 
		 "theory": "DFT", 
		 "functional": "B3LYP", 
		 "basiset": "6-31G**", 
		 "properties": { 
			 "R2extent": 3140.361, 
			 "electric_dipole_moment_norm": 5.81009656804, 
			 "electric_quadrupole_moment_norm": 16.7001435754, 
			 "total_energy": -553.328875123, 
			 "HOMO_LUMO_gap": 0.15586, 
			 "cosmo_polarized_energy": -10.33, 
			 "cosmo_cavitation_energy": 26.06, 
			 "cosmo_dispersion_energy": -18.65, 
			 "cosmo_repulsion_energy": 1.44, 
			 "cosmo_total_nonelectrostatic_energy": 8.85, 
			 "SMD_solvation_energy": 6.74 
		},
		"coords": [
			{
				"x": 0.645360965,
				"y": 4.5994673941,
				"z": -2.4502303829,
				"element": "N" 
			},
			{
				"x": 0.6317059996,
				"y": 3.550636551,
				"z": -1.9458115033,
				"element": "C" 
			},
			{
				"x": 0.6144687879,
				"y": 2.260656511,
				"z": -1.32442951,
				"element": "C" 
			},
			{
				"x": -0.096959226,
				"y": 2.0594187051,
				"z": -0.1275078916,
				"element": "C" 
			},
			{
				"x": -0.1119199404,
				"y": 0.8090002606,
				"z": 0.472149918,
				"element": "C" 
			},
			{
				"x": 0.5795957723,
				"y": -0.2764521087,
				"z": -0.1007049488,
				"element": "C" 
			},
			{
				"x": 1.2889990451,
				"y": -0.0659348808,
				"z": -1.2988218708,
				"element": "C" 
			},
			{
				"x": 1.3074801375,
				"y": 1.1835429788,
				"z": -1.9034833787,
				"element": "C" 
			},
			{
				"x": 0.5591483687,
				"y": -1.5848443448,
				"z": 0.5341391216,
				"element": "C" 
			},
			{
				"x": -0.0290567677,
				"y": -2.0777253094,
				"z": 1.6733256161,
				"element": "C" 
			},
			{
				"x": 0.326247333,
				"y": -3.4578194378,
				"z": 1.7585003995,
				"element": "C" 
			},
			{
				"x": 1.1048495403,
				"y": -3.7151408164,
				"z": 0.6697811252,
				"element": "C" 
			},
			{
				"x": 1.2565580115,
				"y": -2.5928270679,
				"z": -0.0826781768,
				"element": "O" 
			},
			{
				"x": -0.633001568,
				"y": 2.8884073938,
				"z": 0.3222626698,
				"element": "H" 
			},
			{
				"x": -0.6655565342,
				"y": 0.6708402379,
				"z": 1.3950899252,
				"element": "H" 
			},
			{
				"x": 1.8253366204,
				"y": -0.8925061109,
				"z": -1.7503023228,
				"element": "H" 
			},
			{
				"x": 1.8570251537,
				"y": 1.33558996,
				"z": -2.8264770371,
				"element": "H" 
			},
			{
				"x": -0.6425327585,
				"y": -1.5251788229,
				"z": 2.369775968,
				"element": "H" 
			},
			{
				"x": 0.0403509857,
				"y": -4.1618811248,
				"z": 2.5262914567,
				"element": "H" 
			},
			{
				"x": 1.6038000743,
				"y": -4.598849968,
				"z": 0.3034308226,
				"element": "H" 
			}
		],
		 "valence_orbital": [ 
			{
				"type": "occ",
				"energy": -0.32613,
				"method": "rhf"
			},
			{
				"type": "occ",
				"energy": -0.29651,
				"method": "rhf"
			},
			{
				"type": "occ",
				"energy": -0.28538,
				"method": "rhf"
			},
			{
				"type": "occ",
				"energy": -0.27544,
				"method": "rhf"
			},
			{
				"type": "occ",
				"energy": -0.22173,
				"method": "rhf"
			},
			{
				"type": "unocc",
				"energy": -0.06587,
				"method": "rhf"
			},
			{
				"type": "unocc",
				"energy": -0.023,
				"method": "rhf"
			},
			{
				"type": "unocc",
				"energy": 0.01249,
				"method": "rhf"
			},
			{
				"type": "unocc",
				"energy": 0.0396,
				"method": "rhf"
			},
			{
				"type": "unocc",
				"energy": 0.05294,
				"method": "rhf"
			}
		],
		"cosmo_sigma_profile": { 
			"-0.025": 0.0,
			"-0.024": 0.0,
			"-0.023": 0.0,
			"-0.022": 0.0,
			"-0.021": 0.0,
			"-0.02": 0.0,
			"-0.019": 0.0,
			"-0.018": 0.0,
			"-0.017": 0.0,
			"-0.016": 0.0,
			"-0.015": 0.0,
			"-0.014": 0.0,
			"-0.013": 0.0,
			"-0.012": 0.0,
			"-0.011": 0.0,
			"-0.01": 0.356571366696,
			"-0.009": 1.8836848922,
			"-0.008": 7.81042485603,
			"-0.007": 12.708588033,
			"-0.006": 12.7986622839,
			"-0.005": 12.0118761692,
			"-0.004": 10.5693313805,
			"-0.003": 10.0894996259,
			"-0.002": 11.1883876369,
			"-0.001": 13.2233134564,
			"0.0": 15.1774529807,
			"0.001": 21.1040038343,
			"0.002": 26.5661629381,
			"0.003": 16.051130087,
			"0.004": 10.747970252,
			"0.005": 5.80982701039,
			"0.006": 3.6859826795,
			"0.007": 2.70684579824,
			"0.008": 3.22610025729,
			"0.009": 3.36391431117,
			"0.01": 3.43911393114,
			"0.011": 2.66742192119,
			"0.012": 2.70782951129,
			"0.013": 1.87483129885,
			"0.014": 0.141016535111,
			"0.015": 0.0,
			"0.016": 0.0,
			"0.017": 0.0,
			"0.018": 0.0,
			"0.019": 0.0,
			"0.02": 0.0,
			"0.021": 0.0,
			"0.022": 0.0,
			"0.023": 0.0,
			"0.024": 0.0,
			"0.025": 0.0
		}
	}
}
