{
	 "smiles": "ClC1=NC=C(C=C1)C(=O)N1CCNC(=O)C1", 
	 "Tm": 437.15, 
	 "num_atms": 26, 
	 "gaussian": { 
		 "optdone": 1, 
		 "sigma_profile": "yes", 
		 "theory": "DFT", 
		 "functional": "B3LYP", 
		 "basiset": "6-31G**", 
		 "properties": { 
			 "R2extent": 6866.4889, 
			 "electric_dipole_moment_norm": 4.10243021757, 
			 "electric_quadrupole_moment_norm": 21.9550158319, 
			 "total_energy": -1161.99899008, 
			 "HOMO_LUMO_gap": 0.18826, 
			 "cosmo_polarized_energy": -21.3, 
			 "cosmo_cavitation_energy": 31.88, 
			 "cosmo_dispersion_energy": -23.34, 
			 "cosmo_repulsion_energy": 1.84, 
			 "cosmo_total_nonelectrostatic_energy": 10.38, 
			 "SMD_solvation_energy": 3.54 
		},
		"coords": [
			{
				"x": -3.2988545899,
				"y": -3.5444707759,
				"z": -4.3230732836,
				"element": "Cl" 
			},
			{
				"x": -2.5614440388,
				"y": -2.2113722238,
				"z": -3.4443707233,
				"element": "C" 
			},
			{
				"x": -3.3758883271,
				"y": -1.4259456007,
				"z": -2.7639665563,
				"element": "N" 
			},
			{
				"x": -2.8241995183,
				"y": -0.4200342306,
				"z": -2.0711419758,
				"element": "C" 
			},
			{
				"x": -1.4495372945,
				"y": -0.1663218187,
				"z": -2.0331990096,
				"element": "C" 
			},
			{
				"x": -0.6195576433,
				"y": -0.9923518036,
				"z": -2.8055467724,
				"element": "C" 
			},
			{
				"x": -1.1729770998,
				"y": -2.0477602225,
				"z": -3.5167186294,
				"element": "C" 
			},
			{
				"x": -0.8379682104,
				"y": 1.0327456797,
				"z": -1.3600398517,
				"element": "C" 
			},
			{
				"x": 0.0020271226,
				"y": 1.6901155133,
				"z": -1.9684279046,
				"element": "O" 
			},
			{
				"x": -1.2763103983,
				"y": 1.3814402419,
				"z": -0.0990096935,
				"element": "N" 
			},
			{
				"x": -1.917993623,
				"y": 0.4850940803,
				"z": 0.858324677,
				"element": "C" 
			},
			{
				"x": -0.9290576651,
				"y": 0.109387625,
				"z": 1.9630261659,
				"element": "C" 
			},
			{
				"x": -0.3442121368,
				"y": 1.3131957913,
				"z": 2.5347687,
				"element": "N" 
			},
			{
				"x": -0.1730421929,
				"y": 2.5049521951,
				"z": 1.8856297407,
				"element": "C" 
			},
			{
				"x": 0.3874961524,
				"y": 3.4602554159,
				"z": 2.4010971424,
				"element": "O" 
			},
			{
				"x": -0.7704345344,
				"y": 2.6264227388,
				"z": 0.4837898618,
				"element": "C" 
			},
			{
				"x": -3.5228820524,
				"y": 0.2248387625,
				"z": -1.5426692134,
				"element": "H" 
			},
			{
				"x": 0.445335837,
				"y": -0.7878497198,
				"z": -2.845768097,
				"element": "H" 
			},
			{
				"x": -0.5663048727,
				"y": -2.7162209489,
				"z": -4.1155703176,
				"element": "H" 
			},
			{
				"x": -2.2607596721,
				"y": -0.4196398896,
				"z": 0.3603271838,
				"element": "H" 
			},
			{
				"x": -2.7907317584,
				"y": 0.9876187238,
				"z": 1.295350178,
				"element": "H" 
			},
			{
				"x": -0.155383005,
				"y": -0.5537507242,
				"z": 1.5486045155,
				"element": "H" 
			},
			{
				"x": -1.4541147083,
				"y": -0.4439868744,
				"z": 2.7498304134,
				"element": "H" 
			},
			{
				"x": 0.1096530607,
				"y": 1.2640203294,
				"z": 3.4377591565,
				"element": "H" 
			},
			{
				"x": -1.57528458,
				"y": 3.3714940195,
				"z": 0.5451652222,
				"element": "H" 
			},
			{
				"x": -0.0014742515,
				"y": 3.0245237162,
				"z": -0.178470929,
				"element": "H" 
			}
		],
		 "valence_orbital": [ 
			{
				"type": "occ",
				"energy": -0.28043,
				"method": "rhf"
			},
			{
				"type": "occ",
				"energy": -0.27659,
				"method": "rhf"
			},
			{
				"type": "occ",
				"energy": -0.26275,
				"method": "rhf"
			},
			{
				"type": "occ",
				"energy": -0.26164,
				"method": "rhf"
			},
			{
				"type": "occ",
				"energy": -0.24592,
				"method": "rhf"
			},
			{
				"type": "unocc",
				"energy": -0.05766,
				"method": "rhf"
			},
			{
				"type": "unocc",
				"energy": -0.04894,
				"method": "rhf"
			},
			{
				"type": "unocc",
				"energy": 0.01681,
				"method": "rhf"
			},
			{
				"type": "unocc",
				"energy": 0.0198,
				"method": "rhf"
			},
			{
				"type": "unocc",
				"energy": 0.02652,
				"method": "rhf"
			}
		],
		"cosmo_sigma_profile": { 
			"-0.025": 0.0,
			"-0.024": 0.0,
			"-0.023": 0.0,
			"-0.022": 0.0,
			"-0.021": 0.0,
			"-0.02": 0.0,
			"-0.019": 0.0,
			"-0.018": 0.0,
			"-0.017": 0.0,
			"-0.016": 0.0,
			"-0.015": 0.0394813736383,
			"-0.014": 1.08596912617,
			"-0.013": 0.916019297648,
			"-0.012": 1.23990523313,
			"-0.011": 1.36966316409,
			"-0.01": 0.7118677202,
			"-0.009": 1.69117784449,
			"-0.008": 6.15024584957,
			"-0.007": 14.8359062466,
			"-0.006": 23.2411036369,
			"-0.005": 21.3466351777,
			"-0.004": 18.7039229733,
			"-0.003": 15.3024354423,
			"-0.002": 13.8495089877,
			"-0.001": 19.8175303236,
			"0.0": 16.6599445467,
			"0.001": 10.7794752362,
			"0.002": 11.9448706579,
			"0.003": 10.5088161569,
			"0.004": 13.6514471079,
			"0.005": 6.10963336732,
			"0.006": 4.58507468727,
			"0.007": 3.78017419518,
			"0.008": 4.73571957424,
			"0.009": 3.90022742065,
			"0.01": 3.27045777442,
			"0.011": 4.20208979399,
			"0.012": 6.36267970045,
			"0.013": 7.84485167476,
			"0.014": 6.67787497482,
			"0.015": 1.12126754515,
			"0.016": 0.0,
			"0.017": 0.0,
			"0.018": 0.0,
			"0.019": 0.0,
			"0.02": 0.0,
			"0.021": 0.0,
			"0.022": 0.0,
			"0.023": 0.0,
			"0.024": 0.0,
			"0.025": 0.0
		}
	}
}
