{
	 "smiles": "SC1=NN=C(NC2CC2)S1", 
	 "Tm": 444.15, 
	 "num_atms": 17, 
	 "gaussian": { 
		 "optdone": 1, 
		 "sigma_profile": "yes", 
		 "theory": "DFT", 
		 "functional": "B3LYP", 
		 "basiset": "6-31G**", 
		 "properties": { 
			 "R2extent": 2559.3548, 
			 "electric_dipole_moment_norm": 5.11684945548, 
			 "electric_quadrupole_moment_norm": 12.8961383038, 
			 "total_energy": -1155.30455073, 
			 "HOMO_LUMO_gap": 0.19487, 
			 "cosmo_polarized_energy": -13.68, 
			 "cosmo_cavitation_energy": 24.55, 
			 "cosmo_dispersion_energy": -19.12, 
			 "cosmo_repulsion_energy": 1.48, 
			 "cosmo_total_nonelectrostatic_energy": 6.9, 
			 "SMD_solvation_energy": 0.75 
		},
		"coords": [
			{
				"x": 2.3742562984,
				"y": 2.9316023853,
				"z": -0.1777067305,
				"element": "S" 
			},
			{
				"x": 1.7132541511,
				"y": 1.4319875208,
				"z": 0.4928466966,
				"element": "C" 
			},
			{
				"x": 2.159894507,
				"y": 0.8785552291,
				"z": 1.5780231427,
				"element": "N" 
			},
			{
				"x": 1.4555495349,
				"y": -0.2195520402,
				"z": 1.9738324094,
				"element": "N" 
			},
			{
				"x": 0.4510719717,
				"y": -0.4939896801,
				"z": 1.1714735811,
				"element": "C" 
			},
			{
				"x": -0.3974488107,
				"y": -1.5414679752,
				"z": 1.386067944,
				"element": "N" 
			},
			{
				"x": -1.2703624061,
				"y": -2.0569170109,
				"z": 0.3716608795,
				"element": "C" 
			},
			{
				"x": -2.5744939401,
				"y": -1.3340391648,
				"z": 0.1107529387,
				"element": "C" 
			},
			{
				"x": -2.5726060266,
				"y": -2.6621539613,
				"z": 0.8219981428,
				"element": "C" 
			},
			{
				"x": 0.2791329369,
				"y": 0.6214089935,
				"z": -0.1770426621,
				"element": "S" 
			},
			{
				"x": 2.807624082,
				"y": 2.412443265,
				"z": -1.3473427581,
				"element": "H" 
			},
			{
				"x": -0.0567836611,
				"y": -2.1864719108,
				"z": 2.0893611745,
				"element": "H" 
			},
			{
				"x": -0.7799830628,
				"y": -2.514533996,
				"z": -0.4891167089,
				"element": "H" 
			},
			{
				"x": -2.9284459862,
				"y": -1.2890319615,
				"z": -0.9140421162,
				"element": "H" 
			},
			{
				"x": -2.7747689173,
				"y": -0.4487108493,
				"z": 0.7046315489,
				"element": "H" 
			},
			{
				"x": -2.7777032377,
				"y": -2.6569219875,
				"z": 1.8878965612,
				"element": "H" 
			},
			{
				"x": -2.9281874333,
				"y": -3.5408068561,
				"z": 0.2939059562,
				"element": "H" 
			}
		],
		 "valence_orbital": [ 
			{
				"type": "occ",
				"energy": -0.3015,
				"method": "rhf"
			},
			{
				"type": "occ",
				"energy": -0.29278,
				"method": "rhf"
			},
			{
				"type": "occ",
				"energy": -0.2681,
				"method": "rhf"
			},
			{
				"type": "occ",
				"energy": -0.25582,
				"method": "rhf"
			},
			{
				"type": "occ",
				"energy": -0.22573,
				"method": "rhf"
			},
			{
				"type": "unocc",
				"energy": -0.03086,
				"method": "rhf"
			},
			{
				"type": "unocc",
				"energy": -0.00243,
				"method": "rhf"
			},
			{
				"type": "unocc",
				"energy": 0.02594,
				"method": "rhf"
			},
			{
				"type": "unocc",
				"energy": 0.0413,
				"method": "rhf"
			},
			{
				"type": "unocc",
				"energy": 0.05844,
				"method": "rhf"
			}
		],
		"cosmo_sigma_profile": { 
			"-0.025": 0.0,
			"-0.024": 0.0,
			"-0.023": 0.0,
			"-0.022": 0.0,
			"-0.021": 0.0,
			"-0.02": 0.0,
			"-0.019": 0.0,
			"-0.018": 0.0,
			"-0.017": 0.0,
			"-0.016": 0.0,
			"-0.015": 0.233385564139,
			"-0.014": 1.14893920428,
			"-0.013": 0.909305145197,
			"-0.012": 0.985096913025,
			"-0.011": 3.07183715572,
			"-0.01": 3.36845481892,
			"-0.009": 3.239503885,
			"-0.008": 2.03079869103,
			"-0.007": 2.93913260004,
			"-0.006": 6.11143121537,
			"-0.005": 14.4764689073,
			"-0.004": 13.6880621947,
			"-0.003": 13.4348746283,
			"-0.002": 15.4126383086,
			"-0.001": 19.4355253705,
			"0.0": 19.0677516612,
			"0.001": 14.595107746,
			"0.002": 13.4135210605,
			"0.003": 8.87472694393,
			"0.004": 7.40622637855,
			"0.005": 5.39591225819,
			"0.006": 4.51511244478,
			"0.007": 3.7903246912,
			"0.008": 3.62830302295,
			"0.009": 2.83430265939,
			"0.01": 2.69187625034,
			"0.011": 3.19117823168,
			"0.012": 3.66881616207,
			"0.013": 2.80142052897,
			"0.014": 2.25065098274,
			"0.015": 1.40076613227,
			"0.016": 0.0317183041467,
			"0.017": 0.0,
			"0.018": 0.0,
			"0.019": 0.0,
			"0.02": 0.0,
			"0.021": 0.0,
			"0.022": 0.0,
			"0.023": 0.0,
			"0.024": 0.0,
			"0.025": 0.0
		}
	}
}
