{
	 "smiles": "O=C(C1=NN2C(S1)=NC(=O)C1=CC=CC=C21)C1=CC=CC2=C1C=CC=C2", 
	 "Tm": 514.15, 
	 "num_atms": 37, 
	 "gaussian": { 
		 "optdone": 1, 
		 "sigma_profile": "yes", 
		 "theory": "DFT", 
		 "functional": "B3LYP", 
		 "basiset": "6-31G**", 
		 "properties": { 
			 "R2extent": 11369.3198, 
			 "electric_dipole_moment_norm": 4.92866281054, 
			 "electric_quadrupole_moment_norm": 38.2934641299, 
			 "total_energy": -1481.62773748, 
			 "HOMO_LUMO_gap": 0.1371, 
			 "cosmo_polarized_energy": -20.02, 
			 "cosmo_cavitation_energy": 44.05, 
			 "cosmo_dispersion_energy": -31.76, 
			 "cosmo_repulsion_energy": 2.3, 
			 "cosmo_total_nonelectrostatic_energy": 14.59, 
			 "SMD_solvation_energy": 5.38 
		},
		"coords": [
			{
				"x": 2.22571404,
				"y": 1.5720831639,
				"z": -1.8011123135,
				"element": "O" 
			},
			{
				"x": 1.634416354,
				"y": 0.5567912168,
				"z": -1.4786632739,
				"element": "C" 
			},
			{
				"x": 0.8359619451,
				"y": 0.5593777326,
				"z": -0.1986258631,
				"element": "C" 
			},
			{
				"x": 1.1364689681,
				"y": 1.3676139615,
				"z": 0.769355953,
				"element": "N" 
			},
			{
				"x": 0.2375264563,
				"y": 1.2669845172,
				"z": 1.777778269,
				"element": "N" 
			},
			{
				"x": -0.8219005637,
				"y": 0.3778217062,
				"z": 1.6272195791,
				"element": "C" 
			},
			{
				"x": -0.628347632,
				"y": -0.4057905603,
				"z": 0.0490525335,
				"element": "S" 
			},
			{
				"x": -1.7699692621,
				"y": 0.1464558504,
				"z": 2.461295289,
				"element": "N" 
			},
			{
				"x": -1.7800296994,
				"y": 0.8499612528,
				"z": 3.6813009946,
				"element": "C" 
			},
			{
				"x": -2.6590964232,
				"y": 0.6664344648,
				"z": 4.5072378351,
				"element": "O" 
			},
			{
				"x": -0.6703432957,
				"y": 1.8215722162,
				"z": 3.91406389,
				"element": "C" 
			},
			{
				"x": -0.6152663082,
				"y": 2.5571208884,
				"z": 5.1062261461,
				"element": "C" 
			},
			{
				"x": 0.4124238876,
				"y": 3.4639537913,
				"z": 5.3283366551,
				"element": "C" 
			},
			{
				"x": 1.4056987959,
				"y": 3.6506556158,
				"z": 4.354455671,
				"element": "C" 
			},
			{
				"x": 1.3793161116,
				"y": 2.9372607371,
				"z": 3.1621881866,
				"element": "C" 
			},
			{
				"x": 0.3373225925,
				"y": 2.0257535878,
				"z": 2.9551763188,
				"element": "C" 
			},
			{
				"x": 1.5734349132,
				"y": -0.6505494693,
				"z": -2.3599093794,
				"element": "C" 
			},
			{
				"x": 1.2822633764,
				"y": -0.4154636532,
				"z": -3.6947343699,
				"element": "C" 
			},
			{
				"x": 1.1429119111,
				"y": -1.4805492723,
				"z": -4.6081261327,
				"element": "C" 
			},
			{
				"x": 1.3222967062,
				"y": -2.7772429619,
				"z": -4.181792496,
				"element": "C" 
			},
			{
				"x": 1.6757304639,
				"y": -3.0641957216,
				"z": -2.8366319753,
				"element": "C" 
			},
			{
				"x": 1.8191740523,
				"y": -1.9871104458,
				"z": -1.8983749449,
				"element": "C" 
			},
			{
				"x": 2.2543812422,
				"y": -2.2981490307,
				"z": -0.5801984606,
				"element": "C" 
			},
			{
				"x": 2.4873781383,
				"y": -3.6009650772,
				"z": -0.1987651924,
				"element": "C" 
			},
			{
				"x": 2.3070515792,
				"y": -4.6639660753,
				"z": -1.1148725782,
				"element": "C" 
			},
			{
				"x": 1.9165323713,
				"y": -4.3971841694,
				"z": -2.4064769842,
				"element": "C" 
			},
			{
				"x": -1.4009194519,
				"y": 2.3873476227,
				"z": 5.8345953545,
				"element": "H" 
			},
			{
				"x": 0.4489395523,
				"y": 4.0301742869,
				"z": 6.253723399,
				"element": "H" 
			},
			{
				"x": 2.2078535824,
				"y": 4.3615594587,
				"z": 4.5284258217,
				"element": "H" 
			},
			{
				"x": 2.1359546874,
				"y": 3.0712050529,
				"z": 2.3987431891,
				"element": "H" 
			},
			{
				"x": 1.1385794567,
				"y": 0.6083098025,
				"z": -4.0250415532,
				"element": "H" 
			},
			{
				"x": 0.8883358047,
				"y": -1.271264417,
				"z": -5.6423201202,
				"element": "H" 
			},
			{
				"x": 1.2093298138,
				"y": -3.6050708241,
				"z": -4.8769123671,
				"element": "H" 
			},
			{
				"x": 2.4282821531,
				"y": -1.4975031379,
				"z": 0.1309741051,
				"element": "H" 
			},
			{
				"x": 2.8199313414,
				"y": -3.8140292823,
				"z": 0.8127066461,
				"element": "H" 
			},
			{
				"x": 2.4912777221,
				"y": -5.6860237646,
				"z": -0.7982687436,
				"element": "H" 
			},
			{
				"x": 1.7968846174,
				"y": -5.2039790639,
				"z": -3.1246290882,
				"element": "H" 
			}
		],
		 "valence_orbital": [ 
			{
				"type": "occ",
				"energy": -0.26974,
				"method": "rhf"
			},
			{
				"type": "occ",
				"energy": -0.26427,
				"method": "rhf"
			},
			{
				"type": "occ",
				"energy": -0.24916,
				"method": "rhf"
			},
			{
				"type": "occ",
				"energy": -0.23722,
				"method": "rhf"
			},
			{
				"type": "occ",
				"energy": -0.23508,
				"method": "rhf"
			},
			{
				"type": "unocc",
				"energy": -0.09798,
				"method": "rhf"
			},
			{
				"type": "unocc",
				"energy": -0.06297,
				"method": "rhf"
			},
			{
				"type": "unocc",
				"energy": -0.05182,
				"method": "rhf"
			},
			{
				"type": "unocc",
				"energy": -0.03503,
				"method": "rhf"
			},
			{
				"type": "unocc",
				"energy": -0.03075,
				"method": "rhf"
			}
		],
		"cosmo_sigma_profile": { 
			"-0.025": 0.0,
			"-0.024": 0.0,
			"-0.023": 0.0,
			"-0.022": 0.0,
			"-0.021": 0.0,
			"-0.02": 0.0,
			"-0.019": 0.0,
			"-0.018": 0.0,
			"-0.017": 0.0,
			"-0.016": 0.0,
			"-0.015": 0.0,
			"-0.014": 0.0,
			"-0.013": 0.0,
			"-0.012": 0.0,
			"-0.011": 0.0,
			"-0.01": 0.000150650444548,
			"-0.009": 0.380306979759,
			"-0.008": 3.43771767049,
			"-0.007": 21.0450561314,
			"-0.006": 28.195795472,
			"-0.005": 26.8353564247,
			"-0.004": 25.2698400168,
			"-0.003": 22.934522887,
			"-0.002": 26.7003323795,
			"-0.001": 25.3567989003,
			"0.0": 24.65335508,
			"0.001": 29.668599524,
			"0.002": 32.678329531,
			"0.003": 26.9898058669,
			"0.004": 12.7837447454,
			"0.005": 5.10321423686,
			"0.006": 4.34735712473,
			"0.007": 4.42818832424,
			"0.008": 4.32034194117,
			"0.009": 5.55659829987,
			"0.01": 7.13492731544,
			"0.011": 6.27442978045,
			"0.012": 5.09473996447,
			"0.013": 5.20519588388,
			"0.014": 3.33631552938,
			"0.015": 1.37046779977,
			"0.016": 0.0,
			"0.017": 0.0,
			"0.018": 0.0,
			"0.019": 0.0,
			"0.02": 0.0,
			"0.021": 0.0,
			"0.022": 0.0,
			"0.023": 0.0,
			"0.024": 0.0,
			"0.025": 0.0
		}
	}
}
