{
	 "smiles": "COC(=O)C1=C(C)NC(C)=C(C1C1=CC=CC2=NON=C12)C(=O)OC(C)C", 
	 "Tm": 442.15, 
	 "num_atms": 48, 
	 "gaussian": { 
		 "optdone": 1, 
		 "sigma_profile": "yes", 
		 "theory": "DFT", 
		 "functional": "B3LYP", 
		 "basiset": "6-31G**", 
		 "properties": { 
			 "R2extent": 9863.8616, 
			 "electric_dipole_moment_norm": 7.70630013301, 
			 "electric_quadrupole_moment_norm": 7.36209814387, 
			 "total_energy": -1276.98366112, 
			 "HOMO_LUMO_gap": 0.13564, 
			 "cosmo_polarized_energy": -24.91, 
			 "cosmo_cavitation_energy": 50.86, 
			 "cosmo_dispersion_energy": -33.24, 
			 "cosmo_repulsion_energy": 2.53, 
			 "cosmo_total_nonelectrostatic_energy": 20.16, 
			 "SMD_solvation_energy": 10.56 
		},
		"coords": [
			{
				"x": -1.6334382419,
				"y": -0.807495586,
				"z": 4.6434918494,
				"element": "C" 
			},
			{
				"x": -0.9996068571,
				"y": -0.51646408,
				"z": 3.3923049208,
				"element": "O" 
			},
			{
				"x": -0.2107886698,
				"y": 0.5839649958,
				"z": 3.3677117124,
				"element": "C" 
			},
			{
				"x": -0.0473196605,
				"y": 1.2923801896,
				"z": 4.3510226305,
				"element": "O" 
			},
			{
				"x": 0.3921492196,
				"y": 0.7730058769,
				"z": 2.0368807985,
				"element": "C" 
			},
			{
				"x": 1.2310040439,
				"y": 1.8230607796,
				"z": 1.8211896106,
				"element": "C" 
			},
			{
				"x": 1.5891016236,
				"y": 2.9059577026,
				"z": 2.8062120505,
				"element": "C" 
			},
			{
				"x": 1.8666712771,
				"y": 1.9354152906,
				"z": 0.5946012692,
				"element": "N" 
			},
			{
				"x": 1.9016441725,
				"y": 0.9280891465,
				"z": -0.359408443,
				"element": "C" 
			},
			{
				"x": 2.9054612128,
				"y": 1.180936517,
				"z": -1.4578100412,
				"element": "C" 
			},
			{
				"x": 1.0831026643,
				"y": -0.149370205,
				"z": -0.2079025552,
				"element": "C" 
			},
			{
				"x": 0.0427202498,
				"y": -0.203717256,
				"z": 0.9130738317,
				"element": "C" 
			},
			{
				"x": -1.3694039973,
				"y": 0.0457894142,
				"z": 0.3663711868,
				"element": "C" 
			},
			{
				"x": -1.7129041368,
				"y": 1.1897259068,
				"z": -0.3102950084,
				"element": "C" 
			},
			{
				"x": -3.0285720128,
				"y": 1.4352935934,
				"z": -0.8353900621,
				"element": "C" 
			},
			{
				"x": -4.050172234,
				"y": 0.5355942536,
				"z": -0.7012421505,
				"element": "C" 
			},
			{
				"x": -3.7442643541,
				"y": -0.6678929287,
				"z": -0.0021203103,
				"element": "C" 
			},
			{
				"x": -4.5188085631,
				"y": -1.7006726067,
				"z": 0.2850617732,
				"element": "N" 
			},
			{
				"x": -3.7023139577,
				"y": -2.5582838541,
				"z": 0.9737182023,
				"element": "O" 
			},
			{
				"x": -2.4298071567,
				"y": -2.0878269226,
				"z": 1.1272919126,
				"element": "N" 
			},
			{
				"x": -2.4278264485,
				"y": -0.9096347899,
				"z": 0.5254470994,
				"element": "C" 
			},
			{
				"x": 1.0707431034,
				"y": -1.337456838,
				"z": -1.0811445206,
				"element": "C" 
			},
			{
				"x": 0.2660347996,
				"y": -2.2444887525,
				"z": -0.9417431721,
				"element": "O" 
			},
			{
				"x": 2.0369049908,
				"y": -1.3563265668,
				"z": -2.0385005003,
				"element": "O" 
			},
			{
				"x": 2.0634414638,
				"y": -2.5198711805,
				"z": -2.9163819002,
				"element": "C" 
			},
			{
				"x": 3.4997083904,
				"y": -2.6426391224,
				"z": -3.406584765,
				"element": "C" 
			},
			{
				"x": 1.0491912081,
				"y": -2.338464021,
				"z": -4.0414068547,
				"element": "C" 
			},
			{
				"x": -2.2288535372,
				"y": -1.7021812833,
				"z": 4.4639526427,
				"element": "H" 
			},
			{
				"x": -2.269761542,
				"y": 0.0242694692,
				"z": 4.9571381505,
				"element": "H" 
			},
			{
				"x": -0.887155856,
				"y": -0.9893735607,
				"z": 5.4215915149,
				"element": "H" 
			},
			{
				"x": 0.697111545,
				"y": 3.3304076672,
				"z": 3.2668069528,
				"element": "H" 
			},
			{
				"x": 2.156969884,
				"y": 3.7027501701,
				"z": 2.3132908954,
				"element": "H" 
			},
			{
				"x": 2.1898732863,
				"y": 2.5035540836,
				"z": 3.6264369562,
				"element": "H" 
			},
			{
				"x": 2.507742274,
				"y": 2.7047174443,
				"z": 0.4779636057,
				"element": "H" 
			},
			{
				"x": 2.4916313531,
				"y": 0.9454859415,
				"z": -2.4368123481,
				"element": "H" 
			},
			{
				"x": 3.7932817172,
				"y": 0.5549719337,
				"z": -1.3292256932,
				"element": "H" 
			},
			{
				"x": 3.2205453169,
				"y": 2.2297778318,
				"z": -1.4515867402,
				"element": "H" 
			},
			{
				"x": 0.0361626802,
				"y": -1.2184895681,
				"z": 1.3151608652,
				"element": "H" 
			},
			{
				"x": -0.9561401408,
				"y": 1.9531772703,
				"z": -0.466821138,
				"element": "H" 
			},
			{
				"x": -3.2036519023,
				"y": 2.3715437414,
				"z": -1.3575940498,
				"element": "H" 
			},
			{
				"x": -5.0436843263,
				"y": 0.7120176951,
				"z": -1.0967197736,
				"element": "H" 
			},
			{
				"x": 1.785758366,
				"y": -3.3883710516,
				"z": -2.3130136819,
				"element": "H" 
			},
			{
				"x": 3.7918176679,
				"y": -1.7628469942,
				"z": -3.9896138383,
				"element": "H" 
			},
			{
				"x": 3.6027562475,
				"y": -3.5247023036,
				"z": -4.0461976224,
				"element": "H" 
			},
			{
				"x": 4.1910282658,
				"y": -2.7455761163,
				"z": -2.5653695881,
				"element": "H" 
			},
			{
				"x": 1.0743319989,
				"y": -3.2022486001,
				"z": -4.7138742927,
				"element": "H" 
			},
			{
				"x": 0.0395268696,
				"y": -2.252344235,
				"z": -3.6342593069,
				"element": "H" 
			},
			{
				"x": 1.2771577027,
				"y": -1.4413484919,
				"z": -4.6271020744,
				"element": "H" 
			}
		],
		 "valence_orbital": [ 
			{
				"type": "occ",
				"energy": -0.26748,
				"method": "rhf"
			},
			{
				"type": "occ",
				"energy": -0.26382,
				"method": "rhf"
			},
			{
				"type": "occ",
				"energy": -0.25844,
				"method": "rhf"
			},
			{
				"type": "occ",
				"energy": -0.22813,
				"method": "rhf"
			},
			{
				"type": "occ",
				"energy": -0.20939,
				"method": "rhf"
			},
			{
				"type": "unocc",
				"energy": -0.07375,
				"method": "rhf"
			},
			{
				"type": "unocc",
				"energy": -0.04881,
				"method": "rhf"
			},
			{
				"type": "unocc",
				"energy": 0.00181,
				"method": "rhf"
			},
			{
				"type": "unocc",
				"energy": 0.01879,
				"method": "rhf"
			},
			{
				"type": "unocc",
				"energy": 0.02327,
				"method": "rhf"
			}
		],
		"cosmo_sigma_profile": { 
			"-0.025": 0.0,
			"-0.024": 0.0,
			"-0.023": 0.0,
			"-0.022": 0.0,
			"-0.021": 0.0,
			"-0.02": 0.0,
			"-0.019": 0.0,
			"-0.018": 0.0,
			"-0.017": 0.0,
			"-0.016": 0.29341527344,
			"-0.015": 1.26513096867,
			"-0.014": 1.13977198332,
			"-0.013": 1.54641804735,
			"-0.012": 1.51026985257,
			"-0.011": 1.70051065898,
			"-0.01": 1.07081961808,
			"-0.009": 1.94654448469,
			"-0.008": 3.35921719268,
			"-0.007": 6.53544675376,
			"-0.006": 11.0512052075,
			"-0.005": 18.7005597711,
			"-0.004": 29.2956898075,
			"-0.003": 43.4154689569,
			"-0.002": 40.2912741875,
			"-0.001": 43.5970938411,
			"0.0": 43.5281756704,
			"0.001": 35.0264482556,
			"0.002": 25.7778270003,
			"0.003": 14.5303628883,
			"0.004": 10.5888618781,
			"0.005": 11.5921685997,
			"0.006": 11.81076704,
			"0.007": 6.81523646402,
			"0.008": 4.74882377474,
			"0.009": 7.16161194774,
			"0.01": 6.01289514492,
			"0.011": 6.94833549706,
			"0.012": 6.72817781835,
			"0.013": 4.63820110242,
			"0.014": 0.250116600254,
			"0.015": 0.0,
			"0.016": 0.0,
			"0.017": 0.0,
			"0.018": 0.0,
			"0.019": 0.0,
			"0.02": 0.0,
			"0.021": 0.0,
			"0.022": 0.0,
			"0.023": 0.0,
			"0.024": 0.0,
			"0.025": 0.0
		}
	}
}
