{
	 "smiles": "CC1=CC(NC(=O)N2CCCC(C2)C(O)=O)=CC=C1", 
	 "Tm": 413.15, 
	 "num_atms": 37, 
	 "gaussian": { 
		 "optdone": 1, 
		 "sigma_profile": "yes", 
		 "theory": "DFT", 
		 "functional": "B3LYP", 
		 "basiset": "6-31G**", 
		 "properties": { 
			 "R2extent": 5545.3042, 
			 "electric_dipole_moment_norm": 6.2314839589, 
			 "electric_quadrupole_moment_norm": 17.6160571485, 
			 "total_energy": -879.545898238, 
			 "HOMO_LUMO_gap": 0.20903, 
			 "cosmo_polarized_energy": -23.47, 
			 "cosmo_cavitation_energy": 38.58, 
			 "cosmo_dispersion_energy": -26.45, 
			 "cosmo_repulsion_energy": 2.05, 
			 "cosmo_total_nonelectrostatic_energy": 14.18, 
			 "SMD_solvation_energy": 7.7 
		},
		"coords": [
			{
				"x": -1.2187583804,
				"y": -3.0848708425,
				"z": -2.681481597,
				"element": "C" 
			},
			{
				"x": -0.1315846969,
				"y": -2.8767905205,
				"z": -1.652076728,
				"element": "C" 
			},
			{
				"x": -0.3003013321,
				"y": -1.9325360218,
				"z": -0.6313802211,
				"element": "C" 
			},
			{
				"x": 0.6806062045,
				"y": -1.7489466574,
				"z": 0.3529523173,
				"element": "C" 
			},
			{
				"x": 0.5499930945,
				"y": -0.8105956599,
				"z": 1.4088584277,
				"element": "N" 
			},
			{
				"x": -0.4689993509,
				"y": 0.1460202899,
				"z": 1.5918564848,
				"element": "C" 
			},
			{
				"x": -1.0434030582,
				"y": 0.2464786174,
				"z": 2.6695739709,
				"element": "O" 
			},
			{
				"x": -0.7426155159,
				"y": 0.9789061837,
				"z": 0.5304026779,
				"element": "N" 
			},
			{
				"x": -1.8564363438,
				"y": 1.929724051,
				"z": 0.7197661818,
				"element": "C" 
			},
			{
				"x": -2.1791548567,
				"y": 2.6098713829,
				"z": -0.6099926607,
				"element": "C" 
			},
			{
				"x": -0.9798346688,
				"y": 3.4216812709,
				"z": -1.1432991001,
				"element": "C" 
			},
			{
				"x": 0.3717121097,
				"y": 2.7438126235,
				"z": -0.812258512,
				"element": "C" 
			},
			{
				"x": 0.1841436454,
				"y": 1.2272071042,
				"z": -0.5731284875,
				"element": "C" 
			},
			{
				"x": 1.0639967444,
				"y": 3.4095408443,
				"z": 0.3894167736,
				"element": "C" 
			},
			{
				"x": 2.3132610565,
				"y": 2.9531476245,
				"z": 0.6702231928,
				"element": "O" 
			},
			{
				"x": 0.5849651167,
				"y": 4.2864552867,
				"z": 1.0640106091,
				"element": "O" 
			},
			{
				"x": 1.8419840564,
				"y": -2.5365951735,
				"z": 0.3173514899,
				"element": "C" 
			},
			{
				"x": 2.00642524,
				"y": -3.4854471841,
				"z": -0.6877221434,
				"element": "C" 
			},
			{
				"x": 1.0337406343,
				"y": -3.6523953052,
				"z": -1.6746697119,
				"element": "C" 
			},
			{
				"x": -0.8077257245,
				"y": -3.4468631492,
				"z": -3.6285203255,
				"element": "H" 
			},
			{
				"x": -1.7682896606,
				"y": -2.1597519285,
				"z": -2.8804872899,
				"element": "H" 
			},
			{
				"x": -1.9490630339,
				"y": -3.8282647235,
				"z": -2.3384812794,
				"element": "H" 
			},
			{
				"x": -1.2120900854,
				"y": -1.3449835451,
				"z": -0.5917854836,
				"element": "H" 
			},
			{
				"x": 0.811400565,
				"y": -1.1778586033,
				"z": 2.3158930725,
				"element": "H" 
			},
			{
				"x": -2.714024349,
				"y": 1.3732613492,
				"z": 1.1052534854,
				"element": "H" 
			},
			{
				"x": -1.5892803294,
				"y": 2.6753622029,
				"z": 1.4778785672,
				"element": "H" 
			},
			{
				"x": -3.0444617446,
				"y": 3.2660188182,
				"z": -0.474582919,
				"element": "H" 
			},
			{
				"x": -2.4786624914,
				"y": 1.8460963431,
				"z": -1.3387027377,
				"element": "H" 
			},
			{
				"x": -0.977871082,
				"y": 4.4175888432,
				"z": -0.6945004193,
				"element": "H" 
			},
			{
				"x": -1.0714706701,
				"y": 3.5483812146,
				"z": -2.2266655197,
				"element": "H" 
			},
			{
				"x": 1.0596527313,
				"y": 2.8513277834,
				"z": -1.6628549731,
				"element": "H" 
			},
			{
				"x": -0.1744740832,
				"y": 0.77187703,
				"z": -1.5056301949,
				"element": "H" 
			},
			{
				"x": 1.1313050354,
				"y": 0.7379996055,
				"z": -0.3386851952,
				"element": "H" 
			},
			{
				"x": 2.5747856077,
				"y": 2.2631349396,
				"z": 0.0445655741,
				"element": "H" 
			},
			{
				"x": 2.6087358637,
				"y": -2.3931885451,
				"z": 1.0738164441,
				"element": "H" 
			},
			{
				"x": 2.9078576142,
				"y": -4.0915341971,
				"z": -0.7076513313,
				"element": "H" 
			},
			{
				"x": 1.1772361383,
				"y": -4.3879713519,
				"z": -2.4613624388,
				"element": "H" 
			}
		],
		 "valence_orbital": [ 
			{
				"type": "occ",
				"energy": -0.27615,
				"method": "rhf"
			},
			{
				"type": "occ",
				"energy": -0.2624,
				"method": "rhf"
			},
			{
				"type": "occ",
				"energy": -0.2508,
				"method": "rhf"
			},
			{
				"type": "occ",
				"energy": -0.24012,
				"method": "rhf"
			},
			{
				"type": "occ",
				"energy": -0.21963,
				"method": "rhf"
			},
			{
				"type": "unocc",
				"energy": -0.0106,
				"method": "rhf"
			},
			{
				"type": "unocc",
				"energy": -0.00635,
				"method": "rhf"
			},
			{
				"type": "unocc",
				"energy": 0.00244,
				"method": "rhf"
			},
			{
				"type": "unocc",
				"energy": 0.03898,
				"method": "rhf"
			},
			{
				"type": "unocc",
				"energy": 0.04466,
				"method": "rhf"
			}
		],
		"cosmo_sigma_profile": { 
			"-0.025": 0.0,
			"-0.024": 0.0,
			"-0.023": 0.0,
			"-0.022": 0.0,
			"-0.021": 0.0,
			"-0.02": 0.0,
			"-0.019": 0.685615343185,
			"-0.018": 1.4446321462,
			"-0.017": 0.903433355038,
			"-0.016": 0.922563246255,
			"-0.015": 1.00646323682,
			"-0.014": 1.57679445009,
			"-0.013": 1.54736832848,
			"-0.012": 2.05047813886,
			"-0.011": 2.06838389851,
			"-0.01": 2.0079873674,
			"-0.009": 1.77754875597,
			"-0.008": 3.16032329432,
			"-0.007": 5.46661649171,
			"-0.006": 6.4524990341,
			"-0.005": 13.2843421957,
			"-0.004": 30.1793307007,
			"-0.003": 31.7360849133,
			"-0.002": 31.1769885722,
			"-0.001": 28.7132222831,
			"0.0": 24.4816210146,
			"0.001": 14.6326158375,
			"0.002": 12.6007795756,
			"0.003": 10.4565654059,
			"0.004": 11.1394167892,
			"0.005": 11.7025270573,
			"0.006": 9.97375552218,
			"0.007": 4.41839956027,
			"0.008": 4.20280550757,
			"0.009": 4.67040539685,
			"0.01": 6.08730759854,
			"0.011": 5.71655182154,
			"0.012": 5.80679491834,
			"0.013": 4.14150988709,
			"0.014": 5.64722776983,
			"0.015": 0.990799825639,
			"0.016": 0.0,
			"0.017": 0.0,
			"0.018": 0.0,
			"0.019": 0.0,
			"0.02": 0.0,
			"0.021": 0.0,
			"0.022": 0.0,
			"0.023": 0.0,
			"0.024": 0.0,
			"0.025": 0.0
		}
	}
}
