{
	 "smiles": "CC(=O)NC1=CC(CO)=CC=C1", 
	 "Tm": 387.15, 
	 "num_atms": 23, 
	 "gaussian": { 
		 "optdone": 1, 
		 "sigma_profile": "yes", 
		 "theory": "DFT", 
		 "functional": "B3LYP", 
		 "basiset": "6-31G**", 
		 "properties": { 
			 "R2extent": 3249.3281, 
			 "electric_dipole_moment_norm": 4.13480903308, 
			 "electric_quadrupole_moment_norm": 10.8192452278, 
			 "total_energy": -554.79899902, 
			 "HOMO_LUMO_gap": 0.20709, 
			 "cosmo_polarized_energy": -15.7, 
			 "cosmo_cavitation_energy": 26.83, 
			 "cosmo_dispersion_energy": -19.79, 
			 "cosmo_repulsion_energy": 1.6, 
			 "cosmo_total_nonelectrostatic_energy": 8.64, 
			 "SMD_solvation_energy": 5.42 
		},
		"coords": [
			{
				"x": 2.1570274145,
				"y": 3.978407822,
				"z": 0.7361449725,
				"element": "C" 
			},
			{
				"x": 1.1017804796,
				"y": 3.087384029,
				"z": 0.0942170431,
				"element": "C" 
			},
			{
				"x": -0.0435069569,
				"y": 3.4800248564,
				"z": -0.0777366266,
				"element": "O" 
			},
			{
				"x": 1.5542020386,
				"y": 1.8358611815,
				"z": -0.26463897,
				"element": "N" 
			},
			{
				"x": 0.8508235015,
				"y": 0.7786411359,
				"z": -0.8822377574,
				"element": "C" 
			},
			{
				"x": -0.5020188729,
				"y": 0.8629654183,
				"z": -1.2413506481,
				"element": "C" 
			},
			{
				"x": -1.1317523165,
				"y": -0.2269395939,
				"z": -1.8515071329,
				"element": "C" 
			},
			{
				"x": -2.5860090078,
				"y": -0.1103928618,
				"z": -2.272886733,
				"element": "C" 
			},
			{
				"x": -3.2797758568,
				"y": -1.350157883,
				"z": -2.2879113277,
				"element": "O" 
			},
			{
				"x": -0.4201257499,
				"y": -1.4063753751,
				"z": -2.0948559023,
				"element": "C" 
			},
			{
				"x": 0.9238008495,
				"y": -1.4898132382,
				"z": -1.7296107427,
				"element": "C" 
			},
			{
				"x": 1.5604644191,
				"y": -0.4077010438,
				"z": -1.1295724136,
				"element": "C" 
			},
			{
				"x": 3.1323415003,
				"y": 3.5014708306,
				"z": 0.8677136221,
				"element": "H" 
			},
			{
				"x": 2.2812360517,
				"y": 4.8721136676,
				"z": 0.1182253754,
				"element": "H" 
			},
			{
				"x": 1.7879327077,
				"y": 4.3067484706,
				"z": 1.7113110555,
				"element": "H" 
			},
			{
				"x": 2.5234930228,
				"y": 1.6386411526,
				"z": -0.0639136356,
				"element": "H" 
			},
			{
				"x": -1.0436974288,
				"y": 1.7768533858,
				"z": -1.0365190213,
				"element": "H" 
			},
			{
				"x": -2.6455176247,
				"y": 0.2626462281,
				"z": -3.3025342186,
				"element": "H" 
			},
			{
				"x": -3.0944188714,
				"y": 0.6316400826,
				"z": -1.6381591694,
				"element": "H" 
			},
			{
				"x": -3.2356745047,
				"y": -1.7157910421,
				"z": -1.3942057678,
				"element": "H" 
			},
			{
				"x": -0.9253100591,
				"y": -2.2446276328,
				"z": -2.5630009887,
				"element": "H" 
			},
			{
				"x": 1.4827192065,
				"y": -2.4029187196,
				"z": -1.9141333806,
				"element": "H" 
			},
			{
				"x": 2.6084860576,
				"y": -0.4804808707,
				"z": -0.8465376322,
				"element": "H" 
			}
		],
		 "valence_orbital": [ 
			{
				"type": "occ",
				"energy": -0.30393,
				"method": "rhf"
			},
			{
				"type": "occ",
				"energy": -0.27294,
				"method": "rhf"
			},
			{
				"type": "occ",
				"energy": -0.25379,
				"method": "rhf"
			},
			{
				"type": "occ",
				"energy": -0.24473,
				"method": "rhf"
			},
			{
				"type": "occ",
				"energy": -0.22024,
				"method": "rhf"
			},
			{
				"type": "unocc",
				"energy": -0.01315,
				"method": "rhf"
			},
			{
				"type": "unocc",
				"energy": -0.00407,
				"method": "rhf"
			},
			{
				"type": "unocc",
				"energy": 0.04401,
				"method": "rhf"
			},
			{
				"type": "unocc",
				"energy": 0.06178,
				"method": "rhf"
			},
			{
				"type": "unocc",
				"energy": 0.08991,
				"method": "rhf"
			}
		],
		"cosmo_sigma_profile": { 
			"-0.025": 0.0,
			"-0.024": 0.0,
			"-0.023": 0.0,
			"-0.022": 0.0,
			"-0.021": 0.0,
			"-0.02": 0.0,
			"-0.019": 0.0,
			"-0.018": 0.0,
			"-0.017": 0.0,
			"-0.016": 0.162766401025,
			"-0.015": 1.56446141467,
			"-0.014": 2.12865026981,
			"-0.013": 2.96654847286,
			"-0.012": 2.35428683689,
			"-0.011": 1.45001487368,
			"-0.01": 3.01399831641,
			"-0.009": 2.34479063066,
			"-0.008": 2.18699589039,
			"-0.007": 3.20917274902,
			"-0.006": 7.60593767439,
			"-0.005": 13.7690176233,
			"-0.004": 17.9716017426,
			"-0.003": 18.9973310239,
			"-0.002": 17.4149362738,
			"-0.001": 15.6329307046,
			"0.0": 8.95217305844,
			"0.001": 8.56848921443,
			"0.002": 11.4399381414,
			"0.003": 11.4599571883,
			"0.004": 12.8585333799,
			"0.005": 10.9782178965,
			"0.006": 7.6266735658,
			"0.007": 3.65361718295,
			"0.008": 2.07155982633,
			"0.009": 3.05043889801,
			"0.01": 3.03250307085,
			"0.011": 2.36820762828,
			"0.012": 4.14148743706,
			"0.013": 4.83362870488,
			"0.014": 4.00339855353,
			"0.015": 0.483559696379,
			"0.016": 0.0,
			"0.017": 0.0,
			"0.018": 0.0,
			"0.019": 0.0,
			"0.02": 0.0,
			"0.021": 0.0,
			"0.022": 0.0,
			"0.023": 0.0,
			"0.024": 0.0,
			"0.025": 0.0
		}
	}
}
