{
	 "smiles": "CC1=CC(O)=C(C=C1)C(=O)NCCC(O)=O", 
	 "Tm": 433.15, 
	 "num_atms": 29, 
	 "gaussian": { 
		 "optdone": 1, 
		 "sigma_profile": "yes", 
		 "theory": "DFT", 
		 "functional": "B3LYP", 
		 "basiset": "6-31G**", 
		 "properties": { 
			 "R2extent": 4802.7347, 
			 "electric_dipole_moment_norm": 7.21465997743, 
			 "electric_quadrupole_moment_norm": 9.87735468028, 
			 "total_energy": -782.683408595, 
			 "HOMO_LUMO_gap": 0.19935, 
			 "cosmo_polarized_energy": -23.78, 
			 "cosmo_cavitation_energy": 32.93, 
			 "cosmo_dispersion_energy": -23.57, 
			 "cosmo_repulsion_energy": 1.86, 
			 "cosmo_total_nonelectrostatic_energy": 11.23, 
			 "SMD_solvation_energy": 6.92 
		},
		"coords": [
			{
				"x": -3.9233716577,
				"y": 3.2823652953,
				"z": 0.9059322467,
				"element": "C" 
			},
			{
				"x": -2.9296495596,
				"y": 2.3052376908,
				"z": 0.3251404261,
				"element": "C" 
			},
			{
				"x": -2.2972766551,
				"y": 2.5758937406,
				"z": -0.8930053326,
				"element": "C" 
			},
			{
				"x": -1.3433088121,
				"y": 1.7067086986,
				"z": -1.4311005864,
				"element": "C" 
			},
			{
				"x": -0.7454932305,
				"y": 1.9475857805,
				"z": -2.6283204887,
				"element": "O" 
			},
			{
				"x": -1.0112305213,
				"y": 0.5202197807,
				"z": -0.7482794726,
				"element": "C" 
			},
			{
				"x": -1.6561645155,
				"y": 0.2500270054,
				"z": 0.465736471,
				"element": "C" 
			},
			{
				"x": -2.5990889581,
				"y": 1.1242518366,
				"z": 1.0010832286,
				"element": "C" 
			},
			{
				"x": 0.0514897355,
				"y": -0.4021456235,
				"z": -1.2709233275,
				"element": "C" 
			},
			{
				"x": 1.1687825279,
				"y": -0.0000229112,
				"z": -1.6176003051,
				"element": "O" 
			},
			{
				"x": -0.2960843324,
				"y": -1.7191485776,
				"z": -1.272451901,
				"element": "N" 
			},
			{
				"x": 0.4998209013,
				"y": -2.8323690529,
				"z": -1.8011649423,
				"element": "C" 
			},
			{
				"x": 2.0092795752,
				"y": -2.7880887757,
				"z": -1.5041867163,
				"element": "C" 
			},
			{
				"x": 2.3176992154,
				"y": -2.6110445724,
				"z": -0.0168945055,
				"element": "C" 
			},
			{
				"x": 2.5041725066,
				"y": -1.3434620326,
				"z": 0.3949989341,
				"element": "O" 
			},
			{
				"x": 2.3822372177,
				"y": -3.5421789468,
				"z": 0.7531049584,
				"element": "O" 
			},
			{
				"x": -3.4172698633,
				"y": 4.0326979728,
				"z": 1.525874473,
				"element": "H" 
			},
			{
				"x": -4.4656003252,
				"y": 3.8197748042,
				"z": 0.1221722481,
				"element": "H" 
			},
			{
				"x": -4.6554416682,
				"y": 2.7755662965,
				"z": 1.5409969763,
				"element": "H" 
			},
			{
				"x": -2.5530921852,
				"y": 3.4816089129,
				"z": -1.4411003026,
				"element": "H" 
			},
			{
				"x": -1.0584174139,
				"y": 2.7938530294,
				"z": -2.9737172395,
				"element": "H" 
			},
			{
				"x": -1.386677359,
				"y": -0.6484697096,
				"z": 1.0139107563,
				"element": "H" 
			},
			{
				"x": -3.0720957632,
				"y": 0.8935770511,
				"z": 1.9510017343,
				"element": "H" 
			},
			{
				"x": -1.2603057599,
				"y": -1.9265266421,
				"z": -1.0570542508,
				"element": "H" 
			},
			{
				"x": 0.0832112657,
				"y": -3.7415492237,
				"z": -1.3580107378,
				"element": "H" 
			},
			{
				"x": 0.364707117,
				"y": -2.9007023987,
				"z": -2.8887798143,
				"element": "H" 
			},
			{
				"x": 2.4209439693,
				"y": -3.7557893289,
				"z": -1.8029418843,
				"element": "H" 
			},
			{
				"x": 2.4805137747,
				"y": -2.0043365454,
				"z": -2.0978729334,
				"element": "H" 
			},
			{
				"x": 2.2926107742,
				"y": -0.7240335544,
				"z": -0.3360477122,
				"element": "H" 
			}
		],
		 "valence_orbital": [ 
			{
				"type": "occ",
				"energy": -0.27743,
				"method": "rhf"
			},
			{
				"type": "occ",
				"energy": -0.26659,
				"method": "rhf"
			},
			{
				"type": "occ",
				"energy": -0.25702,
				"method": "rhf"
			},
			{
				"type": "occ",
				"energy": -0.2468,
				"method": "rhf"
			},
			{
				"type": "occ",
				"energy": -0.23371,
				"method": "rhf"
			},
			{
				"type": "unocc",
				"energy": -0.03436,
				"method": "rhf"
			},
			{
				"type": "unocc",
				"energy": -0.00678,
				"method": "rhf"
			},
			{
				"type": "unocc",
				"energy": 0.0233,
				"method": "rhf"
			},
			{
				"type": "unocc",
				"energy": 0.02706,
				"method": "rhf"
			},
			{
				"type": "unocc",
				"energy": 0.06093,
				"method": "rhf"
			}
		],
		"cosmo_sigma_profile": { 
			"-0.025": 0.0,
			"-0.024": 0.0,
			"-0.023": 0.0,
			"-0.022": 0.0,
			"-0.021": 0.0,
			"-0.02": 0.0,
			"-0.019": 0.0,
			"-0.018": 0.757628376182,
			"-0.017": 1.10024083525,
			"-0.016": 1.02554217879,
			"-0.015": 1.60167276663,
			"-0.014": 2.36550322584,
			"-0.013": 1.92509146166,
			"-0.012": 2.12076942863,
			"-0.011": 1.47166881846,
			"-0.01": 3.04775194118,
			"-0.009": 2.50156202716,
			"-0.008": 3.09850494633,
			"-0.007": 6.38984588211,
			"-0.006": 13.4920187352,
			"-0.005": 20.323741489,
			"-0.004": 25.138331798,
			"-0.003": 19.6462213945,
			"-0.002": 15.8085555078,
			"-0.001": 18.8105867383,
			"0.0": 15.0673158297,
			"0.001": 11.0158182045,
			"0.002": 9.69386276422,
			"0.003": 11.7450264549,
			"0.004": 12.4353651233,
			"0.005": 9.3268884758,
			"0.006": 5.22074398648,
			"0.007": 3.71800474624,
			"0.008": 4.0051577652,
			"0.009": 4.89962247414,
			"0.01": 5.85648957808,
			"0.011": 6.8816528621,
			"0.012": 8.35048169832,
			"0.013": 6.51062321469,
			"0.014": 2.93810379797,
			"0.015": 1.58761980362,
			"0.016": 0.305867507789,
			"0.017": 0.0,
			"0.018": 0.0,
			"0.019": 0.0,
			"0.02": 0.0,
			"0.021": 0.0,
			"0.022": 0.0,
			"0.023": 0.0,
			"0.024": 0.0,
			"0.025": 0.0
		}
	}
}
