{
	 "smiles": "COC1=CC(O)=CC=C1C=O", 
	 "Tm": 431.15, 
	 "num_atms": 19, 
	 "gaussian": { 
		 "optdone": 1, 
		 "sigma_profile": "yes", 
		 "theory": "DFT", 
		 "functional": "B3LYP", 
		 "basiset": "6-31G**", 
		 "properties": { 
			 "R2extent": 1963.3621, 
			 "electric_dipole_moment_norm": 4.36607947019, 
			 "electric_quadrupole_moment_norm": 12.8774309573, 
			 "total_energy": -535.31247893, 
			 "HOMO_LUMO_gap": 0.18508, 
			 "cosmo_polarized_energy": -14.11, 
			 "cosmo_cavitation_energy": 23.27, 
			 "cosmo_dispersion_energy": -17.15, 
			 "cosmo_repulsion_energy": 1.37, 
			 "cosmo_total_nonelectrostatic_energy": 7.48, 
			 "SMD_solvation_energy": 6.23 
		},
		"coords": [
			{
				"x": -1.6644003899,
				"y": -1.8537038812,
				"z": 1.9396670491,
				"element": "C" 
			},
			{
				"x": -0.3641382559,
				"y": -1.9418782693,
				"z": 1.3408374515,
				"element": "O" 
			},
			{
				"x": -0.057705116,
				"y": -1.0392888889,
				"z": 0.3675036186,
				"element": "C" 
			},
			{
				"x": 0.9427345081,
				"y": -0.1197264066,
				"z": 0.6757073335,
				"element": "C" 
			},
			{
				"x": 1.3735688306,
				"y": 0.8144989061,
				"z": -0.2717453046,
				"element": "C" 
			},
			{
				"x": 2.3496064838,
				"y": 1.6785417195,
				"z": 0.1094601378,
				"element": "O" 
			},
			{
				"x": 0.7970568477,
				"y": 0.8405075685,
				"z": -1.5499139719,
				"element": "C" 
			},
			{
				"x": -0.1868449451,
				"y": -0.08677816,
				"z": -1.8561617492,
				"element": "C" 
			},
			{
				"x": -0.6430818828,
				"y": -1.042218981,
				"z": -0.9300130728,
				"element": "C" 
			},
			{
				"x": -1.6225619037,
				"y": -2.0207914807,
				"z": -1.4290758854,
				"element": "C" 
			},
			{
				"x": -2.1580840901,
				"y": -2.9244953993,
				"z": -0.8105427756,
				"element": "O" 
			},
			{
				"x": -1.6631087406,
				"y": -2.5834435181,
				"z": 2.7511588936,
				"element": "H" 
			},
			{
				"x": -2.4472835078,
				"y": -2.1085285665,
				"z": 1.2237506614,
				"element": "H" 
			},
			{
				"x": -1.8264226738,
				"y": -0.8512198163,
				"z": 2.3550364821,
				"element": "H" 
			},
			{
				"x": 1.3908894569,
				"y": -0.1348424933,
				"z": 1.6623481687,
				"element": "H" 
			},
			{
				"x": 2.5554577077,
				"y": 2.2751137758,
				"z": -0.6225290317,
				"element": "H" 
			},
			{
				"x": 1.1279197907,
				"y": 1.5654778424,
				"z": -2.2894040395,
				"element": "H" 
			},
			{
				"x": -0.6218978178,
				"y": -0.0884721191,
				"z": -2.852857905,
				"element": "H" 
			},
			{
				"x": -1.855504302,
				"y": -1.876051832,
				"z": -2.5092260609,
				"element": "H" 
			}
		],
		 "valence_orbital": [ 
			{
				"type": "occ",
				"energy": -0.32727,
				"method": "rhf"
			},
			{
				"type": "occ",
				"energy": -0.28067,
				"method": "rhf"
			},
			{
				"type": "occ",
				"energy": -0.25286,
				"method": "rhf"
			},
			{
				"type": "occ",
				"energy": -0.2455,
				"method": "rhf"
			},
			{
				"type": "occ",
				"energy": -0.23824,
				"method": "rhf"
			},
			{
				"type": "unocc",
				"energy": -0.05316,
				"method": "rhf"
			},
			{
				"type": "unocc",
				"energy": -0.01276,
				"method": "rhf"
			},
			{
				"type": "unocc",
				"energy": 0.04809,
				"method": "rhf"
			},
			{
				"type": "unocc",
				"energy": 0.05628,
				"method": "rhf"
			},
			{
				"type": "unocc",
				"energy": 0.08949,
				"method": "rhf"
			}
		],
		"cosmo_sigma_profile": { 
			"-0.025": 0.0,
			"-0.024": 0.0,
			"-0.023": 0.0,
			"-0.022": 0.0,
			"-0.021": 0.0,
			"-0.02": 0.0,
			"-0.019": 0.161390039168,
			"-0.018": 1.27535124075,
			"-0.017": 1.16527116429,
			"-0.016": 0.966390811244,
			"-0.015": 1.14063991503,
			"-0.014": 1.28118244047,
			"-0.013": 0.753431471165,
			"-0.012": 0.600438778617,
			"-0.011": 1.42763302851,
			"-0.01": 1.07466668167,
			"-0.009": 1.05113073006,
			"-0.008": 2.12473440874,
			"-0.007": 6.67801740366,
			"-0.006": 8.64435051723,
			"-0.005": 10.9600016468,
			"-0.004": 10.5544543253,
			"-0.003": 13.7977130335,
			"-0.002": 15.0629278345,
			"-0.001": 11.529370787,
			"0.0": 10.4274034997,
			"0.001": 11.1142351224,
			"0.002": 17.2183204475,
			"0.003": 13.2208529903,
			"0.004": 6.38644342289,
			"0.005": 3.42224556248,
			"0.006": 3.95944287675,
			"0.007": 3.52002790347,
			"0.008": 4.41087405931,
			"0.009": 4.37660202352,
			"0.01": 5.34973962475,
			"0.011": 6.2281249239,
			"0.012": 3.81904651639,
			"0.013": 1.60295999227,
			"0.014": 0.228066904614,
			"0.015": 0.0,
			"0.016": 0.0,
			"0.017": 0.0,
			"0.018": 0.0,
			"0.019": 0.0,
			"0.02": 0.0,
			"0.021": 0.0,
			"0.022": 0.0,
			"0.023": 0.0,
			"0.024": 0.0,
			"0.025": 0.0
		}
	}
}
