{
	 "smiles": "CC1=NC(=NC(Cl)=C1)C1=CN=CC=C1", 
	 "Tm": 344.15, 
	 "num_atms": 22, 
	 "gaussian": { 
		 "optdone": 1, 
		 "sigma_profile": "yes", 
		 "theory": "DFT", 
		 "functional": "B3LYP", 
		 "basiset": "6-31G**", 
		 "properties": { 
			 "R2extent": 4034.5799, 
			 "electric_dipole_moment_norm": 4.40636892918, 
			 "electric_quadrupole_moment_norm": 10.5252628927, 
			 "total_energy": -1010.34100214, 
			 "HOMO_LUMO_gap": 0.18342, 
			 "cosmo_polarized_energy": -9.41, 
			 "cosmo_cavitation_energy": 28.73, 
			 "cosmo_dispersion_energy": -21.3, 
			 "cosmo_repulsion_energy": 1.68, 
			 "cosmo_total_nonelectrostatic_energy": 9.1, 
			 "SMD_solvation_energy": 1.27 
		},
		"coords": [
			{
				"x": 2.0716386171,
				"y": 1.3869148198,
				"z": -2.4482132243,
				"element": "C" 
			},
			{
				"x": 0.9007213054,
				"y": 0.5601173129,
				"z": -1.9862391516,
				"element": "C" 
			},
			{
				"x": 1.0008499848,
				"y": -0.044741477,
				"z": -0.7949326091,
				"element": "N" 
			},
			{
				"x": -0.04112623,
				"y": -0.7828947174,
				"z": -0.3794087369,
				"element": "C" 
			},
			{
				"x": -1.1838976819,
				"y": -0.9645243331,
				"z": -1.0678258737,
				"element": "N" 
			},
			{
				"x": -1.2627100097,
				"y": -0.3610998741,
				"z": -2.2374762124,
				"element": "C" 
			},
			{
				"x": -2.7468682286,
				"y": -0.5862181223,
				"z": -3.1507063637,
				"element": "Cl" 
			},
			{
				"x": -0.2505863153,
				"y": 0.4284740812,
				"z": -2.7732591545,
				"element": "C" 
			},
			{
				"x": 0.0717446072,
				"y": -1.4506991892,
				"z": 0.9374927926,
				"element": "C" 
			},
			{
				"x": -0.9749909884,
				"y": -2.2406215939,
				"z": 1.4425063538,
				"element": "C" 
			},
			{
				"x": -0.9311111483,
				"y": -2.8667654565,
				"z": 2.6221139911,
				"element": "N" 
			},
			{
				"x": 0.181407985,
				"y": -2.7240222023,
				"z": 3.3545552717,
				"element": "C" 
			},
			{
				"x": 1.2809708938,
				"y": -1.9636530078,
				"z": 2.9503918479,
				"element": "C" 
			},
			{
				"x": 1.2257152973,
				"y": -1.3158446215,
				"z": 1.7211719593,
				"element": "C" 
			},
			{
				"x": 2.4675222158,
				"y": 1.006350649,
				"z": -3.3960727172,
				"element": "H" 
			},
			{
				"x": 1.7720113595,
				"y": 2.4271042897,
				"z": -2.6162022187,
				"element": "H" 
			},
			{
				"x": 2.8619363802,
				"y": 1.3615429871,
				"z": -1.6971865629,
				"element": "H" 
			},
			{
				"x": -0.3496983017,
				"y": 0.9096315043,
				"z": -3.7382461216,
				"element": "H" 
			},
			{
				"x": -1.8808789948,
				"y": -2.361973884,
				"z": 0.8554219072,
				"element": "H" 
			},
			{
				"x": 0.1942082916,
				"y": -3.2431400001,
				"z": 4.3115316474,
				"element": "H" 
			},
			{
				"x": 2.1565975833,
				"y": -1.8843767722,
				"z": 3.5870522196,
				"element": "H" 
			},
			{
				"x": 2.0482433777,
				"y": -0.7118603925,
				"z": 1.3547309562,
				"element": "H" 
			}
		],
		 "valence_orbital": [ 
			{
				"type": "occ",
				"energy": -0.29965,
				"method": "rhf"
			},
			{
				"type": "occ",
				"energy": -0.28113,
				"method": "rhf"
			},
			{
				"type": "occ",
				"energy": -0.26973,
				"method": "rhf"
			},
			{
				"type": "occ",
				"energy": -0.25274,
				"method": "rhf"
			},
			{
				"type": "occ",
				"energy": -0.25155,
				"method": "rhf"
			},
			{
				"type": "unocc",
				"energy": -0.06813,
				"method": "rhf"
			},
			{
				"type": "unocc",
				"energy": -0.04906,
				"method": "rhf"
			},
			{
				"type": "unocc",
				"energy": -0.01923,
				"method": "rhf"
			},
			{
				"type": "unocc",
				"energy": 0.01172,
				"method": "rhf"
			},
			{
				"type": "unocc",
				"energy": 0.02463,
				"method": "rhf"
			}
		],
		"cosmo_sigma_profile": { 
			"-0.025": 0.0,
			"-0.024": 0.0,
			"-0.023": 0.0,
			"-0.022": 0.0,
			"-0.021": 0.0,
			"-0.02": 0.0,
			"-0.019": 0.0,
			"-0.018": 0.0,
			"-0.017": 0.0,
			"-0.016": 0.0,
			"-0.015": 0.0,
			"-0.014": 0.0,
			"-0.013": 0.0,
			"-0.012": 0.0,
			"-0.011": 0.0,
			"-0.01": 0.0,
			"-0.009": 0.775791093249,
			"-0.008": 2.18247632277,
			"-0.007": 5.37086520789,
			"-0.006": 12.7958859617,
			"-0.005": 15.0924354113,
			"-0.004": 13.0910183942,
			"-0.003": 18.0544355456,
			"-0.002": 21.3122477807,
			"-0.001": 25.2351106236,
			"0.0": 19.9287534018,
			"0.001": 24.7808840708,
			"0.002": 18.9965939638,
			"0.003": 13.8207544958,
			"0.004": 13.7007720088,
			"0.005": 6.1482625916,
			"0.006": 4.1988578704,
			"0.007": 5.17097529955,
			"0.008": 4.57265774332,
			"0.009": 2.44374103747,
			"0.01": 0.41710281633,
			"0.011": 1.28503275745,
			"0.012": 1.09707720348,
			"0.013": 0.724420833761,
			"0.014": 0.692575869688,
			"0.015": 1.01664798259,
			"0.016": 0.735875597084,
			"0.017": 0.210560614279,
			"0.018": 0.0,
			"0.019": 0.0,
			"0.02": 0.0,
			"0.021": 0.0,
			"0.022": 0.0,
			"0.023": 0.0,
			"0.024": 0.0,
			"0.025": 0.0
		}
	}
}
