{
	 "smiles": "NC(=S)C1=CC2=CC=CC=C2OC1", 
	 "Tm": 446.15, 
	 "num_atms": 22, 
	 "gaussian": { 
		 "optdone": 1, 
		 "sigma_profile": "yes", 
		 "theory": "DFT", 
		 "functional": "B3LYP", 
		 "basiset": "6-31G**", 
		 "properties": { 
			 "R2extent": 3723.7254, 
			 "electric_dipole_moment_norm": 4.57252006338, 
			 "electric_quadrupole_moment_norm": 18.7453335145, 
			 "total_energy": -914.64229347, 
			 "HOMO_LUMO_gap": 0.13229, 
			 "cosmo_polarized_energy": -15.62, 
			 "cosmo_cavitation_energy": 27.39, 
			 "cosmo_dispersion_energy": -20.94, 
			 "cosmo_repulsion_energy": 1.6, 
			 "cosmo_total_nonelectrostatic_energy": 8.05, 
			 "SMD_solvation_energy": 3.78 
		},
		"coords": [
			{
				"x": -1.7560909656,
				"y": 4.182472918,
				"z": 0.0529922011,
				"element": "N" 
			},
			{
				"x": -0.4943035794,
				"y": 3.7049904921,
				"z": -0.0855370731,
				"element": "C" 
			},
			{
				"x": 0.8375021527,
				"y": 4.7170700749,
				"z": -0.0340908996,
				"element": "S" 
			},
			{
				"x": -0.3558813767,
				"y": 2.2485436571,
				"z": -0.229754074,
				"element": "C" 
			},
			{
				"x": -1.2688728489,
				"y": 1.3669742696,
				"z": 0.2455839347,
				"element": "C" 
			},
			{
				"x": -1.0705772234,
				"y": -0.0614254153,
				"z": 0.0983720225,
				"element": "C" 
			},
			{
				"x": -1.8828230942,
				"y": -1.025569185,
				"z": 0.7176387592,
				"element": "C" 
			},
			{
				"x": -1.692528556,
				"y": -2.3815647963,
				"z": 0.4713075085,
				"element": "C" 
			},
			{
				"x": -0.6900983745,
				"y": -2.7873486019,
				"z": -0.4182494483,
				"element": "C" 
			},
			{
				"x": 0.1286621985,
				"y": -1.8499624234,
				"z": -1.047589248,
				"element": "C" 
			},
			{
				"x": -0.0510509157,
				"y": -0.4924936054,
				"z": -0.7793817222,
				"element": "C" 
			},
			{
				"x": 0.7272016019,
				"y": 0.408526136,
				"z": -1.4362343414,
				"element": "O" 
			},
			{
				"x": 0.9301287398,
				"y": 1.6843651471,
				"z": -0.799389888,
				"element": "C" 
			},
			{
				"x": -1.8727116582,
				"y": 5.1810528405,
				"z": 0.1441422067,
				"element": "H" 
			},
			{
				"x": -2.5516606898,
				"y": 3.6333075892,
				"z": -0.2360904102,
				"element": "H" 
			},
			{
				"x": -2.1626361125,
				"y": 1.7058188305,
				"z": 0.7640606922,
				"element": "H" 
			},
			{
				"x": -2.6685547368,
				"y": -0.6951560515,
				"z": 1.3926324967,
				"element": "H" 
			},
			{
				"x": -2.3214889849,
				"y": -3.1190093626,
				"z": 0.9594988681,
				"element": "H" 
			},
			{
				"x": -0.5404988486,
				"y": -3.8441826326,
				"z": -0.6193531375,
				"element": "H" 
			},
			{
				"x": 0.908867516,
				"y": -2.1484771473,
				"z": -1.7396656137,
				"element": "H" 
			},
			{
				"x": 1.6860353269,
				"y": 1.5763268298,
				"z": -0.0072827656,
				"element": "H" 
			},
			{
				"x": 1.3459804295,
				"y": 2.3357404364,
				"z": -1.5674100681,
				"element": "H" 
			}
		],
		 "valence_orbital": [ 
			{
				"type": "occ",
				"energy": -0.30721,
				"method": "rhf"
			},
			{
				"type": "occ",
				"energy": -0.25168,
				"method": "rhf"
			},
			{
				"type": "occ",
				"energy": -0.23516,
				"method": "rhf"
			},
			{
				"type": "occ",
				"energy": -0.2181,
				"method": "rhf"
			},
			{
				"type": "occ",
				"energy": -0.21149,
				"method": "rhf"
			},
			{
				"type": "unocc",
				"energy": -0.0792,
				"method": "rhf"
			},
			{
				"type": "unocc",
				"energy": -0.00518,
				"method": "rhf"
			},
			{
				"type": "unocc",
				"energy": 0.0006,
				"method": "rhf"
			},
			{
				"type": "unocc",
				"energy": 0.0531,
				"method": "rhf"
			},
			{
				"type": "unocc",
				"energy": 0.06746,
				"method": "rhf"
			}
		],
		"cosmo_sigma_profile": { 
			"-0.025": 0.0,
			"-0.024": 0.0,
			"-0.023": 0.0,
			"-0.022": 0.0,
			"-0.021": 0.0,
			"-0.02": 0.0,
			"-0.019": 0.0,
			"-0.018": 0.0,
			"-0.017": 0.0,
			"-0.016": 0.100242000283,
			"-0.015": 1.58953612389,
			"-0.014": 2.08549224311,
			"-0.013": 2.98490250849,
			"-0.012": 3.13654463159,
			"-0.011": 2.10352324368,
			"-0.01": 1.7669112859,
			"-0.009": 2.35979025905,
			"-0.008": 3.61696974588,
			"-0.007": 5.29343622501,
			"-0.006": 10.5499323099,
			"-0.005": 14.0675102432,
			"-0.004": 14.2598717837,
			"-0.003": 11.9940185213,
			"-0.002": 12.7018302472,
			"-0.001": 11.7746362693,
			"0.0": 11.0867362924,
			"0.001": 14.2868331663,
			"0.002": 16.0536210205,
			"0.003": 16.2354885919,
			"0.004": 16.6322847762,
			"0.005": 10.8045931814,
			"0.006": 5.45430678509,
			"0.007": 5.72315778538,
			"0.008": 6.20973581678,
			"0.009": 9.11126263443,
			"0.01": 5.66635793422,
			"0.011": 3.09089070159,
			"0.012": 0.766233349386,
			"0.013": 0.0,
			"0.014": 0.0,
			"0.015": 0.0,
			"0.016": 0.0,
			"0.017": 0.0,
			"0.018": 0.0,
			"0.019": 0.0,
			"0.02": 0.0,
			"0.021": 0.0,
			"0.022": 0.0,
			"0.023": 0.0,
			"0.024": 0.0,
			"0.025": 0.0
		}
	}
}
