{
	 "smiles": "NC(=S)C1=CC(I)=CC=C1", 
	 "Tm": 395.15, 
	 "num_atms": 16, 
	 "gaussian": { 
		 "optdone": 1, 
		 "sigma_profile": "no", 
		 "theory": "DFT", 
		 "functional": "B3LYP", 
		 "basiset": "6-31G**", 
		 "properties": { 
			 "R2extent": 2946.5125, 
			 "electric_dipole_moment_norm": 5.22366674569, 
			 "electric_quadrupole_moment_norm": 19.2950795404, 
			 "total_energy": -734.692806128, 
			 "HOMO_LUMO_gap": 0.14503, 
			 "cosmo_polarized_energy": -98021.48, 
			 "cosmo_cavitation_energy": 25.19, 
			 "cosmo_dispersion_energy": -20.39, 
			 "cosmo_repulsion_energy": 1.59, 
			 "cosmo_total_nonelectrostatic_energy": 6.39, 
			 "SMD_solvation_energy": 2.54 
		},
		"coords": [
			{
				"x": 0.2423618803,
				"y": 2.7913863487,
				"z": -3.3271444041,
				"element": "N" 
			},
			{
				"x": -0.7367029974,
				"y": 2.467871031,
				"z": -2.4507227062,
				"element": "C" 
			},
			{
				"x": -2.281436609,
				"y": 3.0753429816,
				"z": -2.5971070831,
				"element": "S" 
			},
			{
				"x": -0.3098492397,
				"y": 1.5643642411,
				"z": -1.341822345,
				"element": "C" 
			},
			{
				"x": -1.2316553779,
				"y": 0.6622178647,
				"z": -0.7869605371,
				"element": "C" 
			},
			{
				"x": -0.8308000281,
				"y": -0.1884128524,
				"z": 0.2387314752,
				"element": "C" 
			},
			{
				"x": -2.2236333601,
				"y": -1.5657893396,
				"z": 1.0509189207,
				"element": "I" 
			},
			{
				"x": 0.4719165726,
				"y": -0.1521196142,
				"z": 0.7447327463,
				"element": "C" 
			},
			{
				"x": 1.3800236193,
				"y": 0.7583594758,
				"z": 0.2036702058,
				"element": "C" 
			},
			{
				"x": 0.9993779879,
				"y": 1.6068950847,
				"z": -0.8346265118,
				"element": "C" 
			},
			{
				"x": 0.0013693341,
				"y": 3.3809446471,
				"z": -4.1106833864,
				"element": "H" 
			},
			{
				"x": 1.103828923,
				"y": 2.2668207252,
				"z": -3.3672495994,
				"element": "H" 
			},
			{
				"x": -2.2439385533,
				"y": 0.6483362011,
				"z": -1.1721564046,
				"element": "H" 
			},
			{
				"x": 0.7712439828,
				"y": -0.8142697533,
				"z": 1.5492262985,
				"element": "H" 
			},
			{
				"x": 2.3886508436,
				"y": 0.8090521571,
				"z": 0.6028633107,
				"element": "H" 
			},
			{
				"x": 1.708543022,
				"y": 2.3337008013,
				"z": -1.2184699796,
				"element": "H" 
			}
		],
		 "valence_orbital": [ 
			{
				"type": "occ",
				"energy": -0.27796,
				"method": "rhf"
			},
			{
				"type": "occ",
				"energy": -0.27183,
				"method": "rhf"
			},
			{
				"type": "occ",
				"energy": -0.24838,
				"method": "rhf"
			},
			{
				"type": "occ",
				"energy": -0.23715,
				"method": "rhf"
			},
			{
				"type": "occ",
				"energy": -0.21438,
				"method": "rhf"
			},
			{
				"type": "unocc",
				"energy": -0.06935,
				"method": "rhf"
			},
			{
				"type": "unocc",
				"energy": -0.04288,
				"method": "rhf"
			},
			{
				"type": "unocc",
				"energy": -0.02921,
				"method": "rhf"
			},
			{
				"type": "unocc",
				"energy": 0.00678,
				"method": "rhf"
			},
			{
				"type": "unocc",
				"energy": 0.04503,
				"method": "rhf"
			}
		],
		"cosmo_sigma_profile": { 
			"0.0": 0.0,
			"0.0": 0.0,
			"0.0": 0.0,
			"0.0": 0.0,
			"0.0": 0.0,
			"0.0": 0.0,
			"0.0": 0.0,
			"0.0": 0.0,
			"0.0": 0.0,
			"0.0": 0.0,
			"0.0": 0.0,
			"0.0": 0.0,
			"0.0": 0.0,
			"0.0": 0.0,
			"0.0": 0.0,
			"0.0": 0.0,
			"0.0": 0.0,
			"0.0": 0.0,
			"0.0": 0.0,
			"0.0": 0.0,
			"0.0": 0.0,
			"0.0": 0.0,
			"0.0": 0.0,
			"0.0": 0.0,
			"0.0": 0.0,
			"0.0": 0.0,
			"0.0": 0.0,
			"0.0": 0.0,
			"0.0": 0.0,
			"0.0": 0.0,
			"0.0": 0.0,
			"0.0": 0.0,
			"0.0": 0.0,
			"0.0": 0.0,
			"0.0": 0.0,
			"0.0": 0.0,
			"0.0": 0.0,
			"0.0": 0.0,
			"0.0": 0.0,
			"0.0": 0.0,
			"0.0": 0.0,
			"0.0": 0.0,
			"0.0": 0.0,
			"0.0": 0.0,
			"0.0": 0.0,
			"0.0": 0.0,
			"0.0": 0.0,
			"0.0": 0.0,
			"0.0": 0.0,
			"0.0": 0.0,
			"0.0": 0.0
		}
	}
}
