{
	 "smiles": "CCOC(=O)CN(C)C(=O)COC(=O)C1=CC=CC=C1OC(C)=O", 
	 "Tm": 320.65, 
	 "num_atms": 43, 
	 "gaussian": { 
		 "optdone": 1, 
		 "sigma_profile": "yes", 
		 "theory": "DFT", 
		 "functional": "B3LYP", 
		 "basiset": "6-31G**", 
		 "properties": { 
			 "R2extent": 9764.1332, 
			 "electric_dipole_moment_norm": 2.05310313672, 
			 "electric_quadrupole_moment_norm": 12.8415988237, 
			 "total_energy": -1202.50892515, 
			 "HOMO_LUMO_gap": 0.20146, 
			 "cosmo_polarized_energy": -22.94, 
			 "cosmo_cavitation_energy": 48.36, 
			 "cosmo_dispersion_energy": -31.03, 
			 "cosmo_repulsion_energy": 2.38, 
			 "cosmo_total_nonelectrostatic_energy": 19.71, 
			 "SMD_solvation_energy": 11.31 
		},
		"coords": [
			{
				"x": 3.9709477127,
				"y": -1.2234563917,
				"z": 0.1646796635,
				"element": "C" 
			},
			{
				"x": 3.2747448217,
				"y": -2.5269684777,
				"z": 0.520844172,
				"element": "C" 
			},
			{
				"x": 2.1478463758,
				"y": -2.2782039306,
				"z": 1.4067316669,
				"element": "O" 
			},
			{
				"x": 2.3970575959,
				"y": -2.2452664225,
				"z": 2.7234768638,
				"element": "C" 
			},
			{
				"x": 3.4703332589,
				"y": -2.4504341148,
				"z": 3.2464606857,
				"element": "O" 
			},
			{
				"x": 1.1468564454,
				"y": -1.8707849056,
				"z": 3.5339805119,
				"element": "C" 
			},
			{
				"x": -0.1181926491,
				"y": -1.8950771167,
				"z": 2.8274979721,
				"element": "N" 
			},
			{
				"x": -0.7431528956,
				"y": -3.2046814825,
				"z": 2.6579457341,
				"element": "C" 
			},
			{
				"x": -0.5524418581,
				"y": -0.860855687,
				"z": 2.0301838759,
				"element": "C" 
			},
			{
				"x": -1.5130351805,
				"y": -0.9541849649,
				"z": 1.2810964274,
				"element": "O" 
			},
			{
				"x": 0.2206063504,
				"y": 0.4658994752,
				"z": 2.1519618488,
				"element": "C" 
			},
			{
				"x": -0.4052582101,
				"y": 1.4383078074,
				"z": 1.3266649133,
				"element": "O" 
			},
			{
				"x": 0.1024876923,
				"y": 1.5990504412,
				"z": 0.0746631061,
				"element": "C" 
			},
			{
				"x": 1.1751145089,
				"y": 1.1464580596,
				"z": -0.2737620407,
				"element": "O" 
			},
			{
				"x": -0.8255484896,
				"y": 2.3973073519,
				"z": -0.7703130985,
				"element": "C" 
			},
			{
				"x": -2.2081514116,
				"y": 2.3448503797,
				"z": -0.5328872549,
				"element": "C" 
			},
			{
				"x": -3.0928758976,
				"y": 3.0560327677,
				"z": -1.3387899001,
				"element": "C" 
			},
			{
				"x": -2.6034521441,
				"y": 3.8422271309,
				"z": -2.384281444,
				"element": "C" 
			},
			{
				"x": -1.2323543771,
				"y": 3.9089325565,
				"z": -2.6304430618,
				"element": "C" 
			},
			{
				"x": -0.3523614634,
				"y": 3.1845424241,
				"z": -1.8328858964,
				"element": "C" 
			},
			{
				"x": 1.0137535154,
				"y": 3.3271016136,
				"z": -2.036385212,
				"element": "O" 
			},
			{
				"x": 1.6293019832,
				"y": 2.4479371136,
				"z": -2.9044291586,
				"element": "C" 
			},
			{
				"x": 3.1224526814,
				"y": 2.607376791,
				"z": -2.8082989267,
				"element": "C" 
			},
			{
				"x": 1.026792067,
				"y": 1.6860857558,
				"z": -3.6138746634,
				"element": "O" 
			},
			{
				"x": 4.7391224858,
				"y": -1.4118102844,
				"z": -0.5927301199,
				"element": "H" 
			},
			{
				"x": 4.4590318254,
				"y": -0.7947765573,
				"z": 1.0444117196,
				"element": "H" 
			},
			{
				"x": 3.2522217881,
				"y": -0.5021479268,
				"z": -0.2337766085,
				"element": "H" 
			},
			{
				"x": 3.9521759815,
				"y": -3.2305860996,
				"z": 1.0099197161,
				"element": "H" 
			},
			{
				"x": 2.8247639002,
				"y": -2.9961523685,
				"z": -0.3562281468,
				"element": "H" 
			},
			{
				"x": 1.1018385667,
				"y": -2.5612338836,
				"z": 4.3815726471,
				"element": "H" 
			},
			{
				"x": 1.3400521882,
				"y": -0.8850182451,
				"z": 3.9674457496,
				"element": "H" 
			},
			{
				"x": -0.1179057062,
				"y": -3.8621250395,
				"z": 2.0415897383,
				"element": "H" 
			},
			{
				"x": -0.8964689256,
				"y": -3.6707378403,
				"z": 3.636659269,
				"element": "H" 
			},
			{
				"x": -1.7014913739,
				"y": -3.0639474976,
				"z": 2.1614603052,
				"element": "H" 
			},
			{
				"x": 1.2635334781,
				"y": 0.3379176215,
				"z": 1.8528418014,
				"element": "H" 
			},
			{
				"x": 0.1747309457,
				"y": 0.853667136,
				"z": 3.1739193864,
				"element": "H" 
			},
			{
				"x": -2.5679900426,
				"y": 1.7153313658,
				"z": 0.2725132679,
				"element": "H" 
			},
			{
				"x": -4.1606009449,
				"y": 2.9967275056,
				"z": -1.1528699911,
				"element": "H" 
			},
			{
				"x": -3.2885459486,
				"y": 4.4027503531,
				"z": -3.0134892829,
				"element": "H" 
			},
			{
				"x": -0.831099459,
				"y": 4.5180028445,
				"z": -3.4331190721,
				"element": "H" 
			},
			{
				"x": 3.4023658732,
				"y": 3.6636569349,
				"z": -2.8266216406,
				"element": "H" 
			},
			{
				"x": 3.6004548551,
				"y": 2.0698983203,
				"z": -3.6267669637,
				"element": "H" 
			},
			{
				"x": 3.4500400806,
				"y": 2.1911874869,
				"z": -1.8507685596,
				"element": "H" 
			}
		],
		 "valence_orbital": [ 
			{
				"type": "occ",
				"energy": -0.27223,
				"method": "rhf"
			},
			{
				"type": "occ",
				"energy": -0.26384,
				"method": "rhf"
			},
			{
				"type": "occ",
				"energy": -0.25806,
				"method": "rhf"
			},
			{
				"type": "occ",
				"energy": -0.25124,
				"method": "rhf"
			},
			{
				"type": "occ",
				"energy": -0.24722,
				"method": "rhf"
			},
			{
				"type": "unocc",
				"energy": -0.04576,
				"method": "rhf"
			},
			{
				"type": "unocc",
				"energy": -0.00714,
				"method": "rhf"
			},
			{
				"type": "unocc",
				"energy": -0.00173,
				"method": "rhf"
			},
			{
				"type": "unocc",
				"energy": 0.01534,
				"method": "rhf"
			},
			{
				"type": "unocc",
				"energy": 0.01638,
				"method": "rhf"
			}
		],
		"cosmo_sigma_profile": { 
			"-0.025": 0.0,
			"-0.024": 0.0,
			"-0.023": 0.0,
			"-0.022": 0.0,
			"-0.021": 0.0,
			"-0.02": 0.0,
			"-0.019": 0.0,
			"-0.018": 0.0,
			"-0.017": 0.0,
			"-0.016": 0.0,
			"-0.015": 0.0,
			"-0.014": 0.0,
			"-0.013": 0.0,
			"-0.012": 0.0248521482025,
			"-0.011": 1.65860841798,
			"-0.01": 3.28155470621,
			"-0.009": 3.59929561016,
			"-0.008": 7.21670983501,
			"-0.007": 12.8821388652,
			"-0.006": 21.1615662163,
			"-0.005": 29.1651444863,
			"-0.004": 31.8354791562,
			"-0.003": 31.124598911,
			"-0.002": 32.9669729374,
			"-0.001": 26.0466050098,
			"0.0": 22.8154721275,
			"0.001": 22.3197511544,
			"0.002": 24.2724130617,
			"0.003": 23.5285265154,
			"0.004": 15.9767813588,
			"0.005": 13.2899499327,
			"0.006": 9.87474613381,
			"0.007": 10.2458700888,
			"0.008": 6.6138202349,
			"0.009": 6.01212848958,
			"0.01": 5.97841889264,
			"0.011": 11.0173011132,
			"0.012": 8.27674424251,
			"0.013": 2.28505697533,
			"0.014": 0.0,
			"0.015": 0.0,
			"0.016": 0.0,
			"0.017": 0.0,
			"0.018": 0.0,
			"0.019": 0.0,
			"0.02": 0.0,
			"0.021": 0.0,
			"0.022": 0.0,
			"0.023": 0.0,
			"0.024": 0.0,
			"0.025": 0.0
		}
	}
}
