{
	 "smiles": "CN1CCN(CC1)C1=CC(=CC=C1)[N+]([O-])=O", 
	 "Tm": 334.15, 
	 "num_atms": 31, 
	 "gaussian": { 
		 "optdone": 1, 
		 "sigma_profile": "yes", 
		 "theory": "DFT", 
		 "functional": "B3LYP", 
		 "basiset": "6-31G**", 
		 "properties": { 
			 "R2extent": 5115.8262, 
			 "electric_dipole_moment_norm": 6.46710370181, 
			 "electric_quadrupole_moment_norm": 13.6927108167, 
			 "total_energy": -742.792175258, 
			 "HOMO_LUMO_gap": 0.12695, 
			 "cosmo_polarized_energy": -10.79, 
			 "cosmo_cavitation_energy": 33.01, 
			 "cosmo_dispersion_energy": -24.21, 
			 "cosmo_repulsion_energy": 1.86, 
			 "cosmo_total_nonelectrostatic_energy": 10.66, 
			 "SMD_solvation_energy": 4.17 
		},
		"coords": [
			{
				"x": -3.7917813557,
				"y": -0.4547495294,
				"z": 3.6071066493,
				"element": "C" 
			},
			{
				"x": -2.4766707081,
				"y": -0.8217813527,
				"z": 3.1061067722,
				"element": "N" 
			},
			{
				"x": -1.5289238965,
				"y": 0.2965281481,
				"z": 2.9975500609,
				"element": "C" 
			},
			{
				"x": -1.3054876806,
				"y": 0.7914101217,
				"z": 1.5618139623,
				"element": "C" 
			},
			{
				"x": -0.8306246443,
				"y": -0.3139735068,
				"z": 0.732024125,
				"element": "N" 
			},
			{
				"x": -1.2318859643,
				"y": -1.6604513483,
				"z": 1.1389593907,
				"element": "C" 
			},
			{
				"x": -2.5682655442,
				"y": -1.6086705335,
				"z": 1.8764239487,
				"element": "C" 
			},
			{
				"x": -0.0175465338,
				"y": -0.1040643193,
				"z": -0.3641669808,
				"element": "C" 
			},
			{
				"x": 0.6776224205,
				"y": -1.172718953,
				"z": -0.9705078864,
				"element": "C" 
			},
			{
				"x": 1.4815118725,
				"y": -0.9278853096,
				"z": -2.0774179322,
				"element": "C" 
			},
			{
				"x": 1.6585837257,
				"y": 0.3361373586,
				"z": -2.6333032411,
				"element": "C" 
			},
			{
				"x": 0.9753865052,
				"y": 1.3905396759,
				"z": -2.0296044209,
				"element": "C" 
			},
			{
				"x": 0.1511561173,
				"y": 1.1858285717,
				"z": -0.9262687737,
				"element": "C" 
			},
			{
				"x": 2.1920667335,
				"y": -2.0715034332,
				"z": -2.6803376194,
				"element": "N" 
			},
			{
				"x": 2.023417168,
				"y": -3.1844917506,
				"z": -2.1805799841,
				"element": "O" 
			},
			{
				"x": 2.9139509891,
				"y": -1.8479868618,
				"z": -3.651624574,
				"element": "O" 
			},
			{
				"x": -4.3879940367,
				"y": -1.3610141884,
				"z": 3.7599959404,
				"element": "H" 
			},
			{
				"x": -3.6982744333,
				"y": 0.0461272254,
				"z": 4.575374806,
				"element": "H" 
			},
			{
				"x": -4.3632737347,
				"y": 0.2071773684,
				"z": 2.9272388853,
				"element": "H" 
			},
			{
				"x": -0.5548731021,
				"y": -0.006099763,
				"z": 3.4060054588,
				"element": "H" 
			},
			{
				"x": -1.8825825865,
				"y": 1.1314442313,
				"z": 3.6104077171,
				"element": "H" 
			},
			{
				"x": -2.2286278579,
				"y": 1.2380854594,
				"z": 1.158112964,
				"element": "H" 
			},
			{
				"x": -0.5465336833,
				"y": 1.5809604677,
				"z": 1.5827090549,
				"element": "H" 
			},
			{
				"x": -1.356945414,
				"y": -2.2825944177,
				"z": 0.2474043873,
				"element": "H" 
			},
			{
				"x": -0.4708991311,
				"y": -2.1426362043,
				"z": 1.772439251,
				"element": "H" 
			},
			{
				"x": -3.3263186737,
				"y": -1.1999484301,
				"z": 1.1800792353,
				"element": "H" 
			},
			{
				"x": -2.8833197084,
				"y": -2.6307388885,
				"z": 2.1220653418,
				"element": "H" 
			},
			{
				"x": 0.6281392566,
				"y": -2.1824152699,
				"z": -0.5894551686,
				"element": "H" 
			},
			{
				"x": 2.2979627071,
				"y": 0.4697688813,
				"z": -3.4949937708,
				"element": "H" 
			},
			{
				"x": 1.0746135907,
				"y": 2.3936597931,
				"z": -2.4335283786,
				"element": "H" 
			},
			{
				"x": -0.3855823971,
				"y": 2.0309567576,
				"z": -0.5119292203,
				"element": "H" 
			}
		],
		 "valence_orbital": [ 
			{
				"type": "occ",
				"energy": -0.29661,
				"method": "rhf"
			},
			{
				"type": "occ",
				"energy": -0.28025,
				"method": "rhf"
			},
			{
				"type": "occ",
				"energy": -0.26878,
				"method": "rhf"
			},
			{
				"type": "occ",
				"energy": -0.21781,
				"method": "rhf"
			},
			{
				"type": "occ",
				"energy": -0.20466,
				"method": "rhf"
			},
			{
				"type": "unocc",
				"energy": -0.07771,
				"method": "rhf"
			},
			{
				"type": "unocc",
				"energy": -0.00491,
				"method": "rhf"
			},
			{
				"type": "unocc",
				"energy": 0.01836,
				"method": "rhf"
			},
			{
				"type": "unocc",
				"energy": 0.06373,
				"method": "rhf"
			},
			{
				"type": "unocc",
				"energy": 0.08767,
				"method": "rhf"
			}
		],
		"cosmo_sigma_profile": { 
			"-0.025": 0.0,
			"-0.024": 0.0,
			"-0.023": 0.0,
			"-0.022": 0.0,
			"-0.021": 0.0,
			"-0.02": 0.0,
			"-0.019": 0.0,
			"-0.018": 0.0,
			"-0.017": 0.0,
			"-0.016": 0.0,
			"-0.015": 0.0,
			"-0.014": 0.0,
			"-0.013": 0.0,
			"-0.012": 0.0,
			"-0.011": 0.0,
			"-0.01": 0.0,
			"-0.009": 0.0,
			"-0.008": 0.0,
			"-0.007": 2.07699366001,
			"-0.006": 9.54100704024,
			"-0.005": 15.8074244994,
			"-0.004": 27.4776020666,
			"-0.003": 33.9246537637,
			"-0.002": 32.123593373,
			"-0.001": 23.2358277039,
			"0.0": 20.9798692825,
			"0.001": 14.6271349028,
			"0.002": 13.4679251428,
			"0.003": 17.5234065976,
			"0.004": 9.94649854673,
			"0.005": 5.06611844501,
			"0.006": 3.84077969716,
			"0.007": 6.58723423583,
			"0.008": 10.8616557918,
			"0.009": 5.15398396418,
			"0.01": 4.03493636789,
			"0.011": 1.36035520782,
			"0.012": 0.627274522435,
			"0.013": 0.0961096943355,
			"0.014": 0.340570213981,
			"0.015": 0.772276085349,
			"0.016": 0.35286595883,
			"0.017": 0.0,
			"0.018": 0.0,
			"0.019": 0.0,
			"0.02": 0.0,
			"0.021": 0.0,
			"0.022": 0.0,
			"0.023": 0.0,
			"0.024": 0.0,
			"0.025": 0.0
		}
	}
}
