{
	 "smiles": "NC(CN1CCC2=C1C=CC=C2)=NO", 
	 "Tm": 367.15, 
	 "num_atms": 27, 
	 "gaussian": { 
		 "optdone": 1, 
		 "sigma_profile": "yes", 
		 "theory": "DFT", 
		 "functional": "B3LYP", 
		 "basiset": "6-31G**", 
		 "properties": { 
			 "R2extent": 3987.1344, 
			 "electric_dipole_moment_norm": 1.61451373794, 
			 "electric_quadrupole_moment_norm": 8.58665884847, 
			 "total_energy": -628.326883996, 
			 "HOMO_LUMO_gap": 0.1982, 
			 "cosmo_polarized_energy": -11.98, 
			 "cosmo_cavitation_energy": 29.65, 
			 "cosmo_dispersion_energy": -21.53, 
			 "cosmo_repulsion_energy": 1.72, 
			 "cosmo_total_nonelectrostatic_energy": 9.84, 
			 "SMD_solvation_energy": 4.19 
		},
		"coords": [
			{
				"x": 3.7156940694,
				"y": -0.7138468646,
				"z": -1.8379169293,
				"element": "N" 
			},
			{
				"x": 2.8055455844,
				"y": -1.7068197508,
				"z": -2.1003858633,
				"element": "C" 
			},
			{
				"x": 2.0397978354,
				"y": -2.2573308458,
				"z": -0.916822616,
				"element": "C" 
			},
			{
				"x": 1.5059778164,
				"y": -1.1983060811,
				"z": -0.0673573626,
				"element": "N" 
			},
			{
				"x": 1.4158910279,
				"y": -1.4672863421,
				"z": 1.3828434108,
				"element": "C" 
			},
			{
				"x": 0.5253923154,
				"y": -0.3247764258,
				"z": 1.9155620588,
				"element": "C" 
			},
			{
				"x": -0.3176452501,
				"y": 0.0005243826,
				"z": 0.7002352977,
				"element": "C" 
			},
			{
				"x": 0.3129745547,
				"y": -0.5411297522,
				"z": -0.4339337322,
				"element": "C" 
			},
			{
				"x": -0.2388361317,
				"y": -0.3898860209,
				"z": -1.7070911989,
				"element": "C" 
			},
			{
				"x": -1.4347665489,
				"y": 0.331509712,
				"z": -1.8213886085,
				"element": "C" 
			},
			{
				"x": -2.062304135,
				"y": 0.8820819098,
				"z": -0.7030786762,
				"element": "C" 
			},
			{
				"x": -1.4981432165,
				"y": 0.7161622987,
				"z": 0.5709845058,
				"element": "C" 
			},
			{
				"x": 2.5999277881,
				"y": -2.2645604094,
				"z": -3.2448310266,
				"element": "N" 
			},
			{
				"x": 3.4471334404,
				"y": -1.6570916986,
				"z": -4.2222005373,
				"element": "O" 
			},
			{
				"x": 4.0572926603,
				"y": -0.2306538464,
				"z": -2.6573015114,
				"element": "H" 
			},
			{
				"x": 3.4663248403,
				"y": -0.1296087806,
				"z": -1.0505096671,
				"element": "H" 
			},
			{
				"x": 1.2636851353,
				"y": -2.9387104922,
				"z": -1.2922123339,
				"element": "H" 
			},
			{
				"x": 2.7354361246,
				"y": -2.8433429824,
				"z": -0.3047312245,
				"element": "H" 
			},
			{
				"x": 0.931283876,
				"y": -2.4412209842,
				"z": 1.5655090248,
				"element": "H" 
			},
			{
				"x": 2.4125051168,
				"y": -1.4920820263,
				"z": 1.8334647241,
				"element": "H" 
			},
			{
				"x": 1.1388257336,
				"y": 0.5394238411,
				"z": 2.2055472194,
				"element": "H" 
			},
			{
				"x": -0.0550675752,
				"y": -0.6251931636,
				"z": 2.7924566964,
				"element": "H" 
			},
			{
				"x": 0.2354935253,
				"y": -0.8224068178,
				"z": -2.5814543265,
				"element": "H" 
			},
			{
				"x": -1.8823131238,
				"y": 0.4555555344,
				"z": -2.8037044989,
				"element": "H" 
			},
			{
				"x": -2.9907028978,
				"y": 1.4334172629,
				"z": -0.8169943893,
				"element": "H" 
			},
			{
				"x": -1.9881942112,
				"y": 1.1342092661,
				"z": 1.4468813398,
				"element": "H" 
			},
			{
				"x": 3.1704916459,
				"y": -2.106830923,
				"z": -5.0293697753,
				"element": "H" 
			}
		],
		 "valence_orbital": [ 
			{
				"type": "occ",
				"energy": -0.28295,
				"method": "rhf"
			},
			{
				"type": "occ",
				"energy": -0.26908,
				"method": "rhf"
			},
			{
				"type": "occ",
				"energy": -0.23932,
				"method": "rhf"
			},
			{
				"type": "occ",
				"energy": -0.21044,
				"method": "rhf"
			},
			{
				"type": "occ",
				"energy": -0.19461,
				"method": "rhf"
			},
			{
				"type": "unocc",
				"energy": 0.00359,
				"method": "rhf"
			},
			{
				"type": "unocc",
				"energy": 0.01769,
				"method": "rhf"
			},
			{
				"type": "unocc",
				"energy": 0.03721,
				"method": "rhf"
			},
			{
				"type": "unocc",
				"energy": 0.07547,
				"method": "rhf"
			},
			{
				"type": "unocc",
				"energy": 0.09476,
				"method": "rhf"
			}
		],
		"cosmo_sigma_profile": { 
			"-0.025": 0.0,
			"-0.024": 0.0,
			"-0.023": 0.0,
			"-0.022": 0.0,
			"-0.021": 0.0,
			"-0.02": 0.0,
			"-0.019": 0.0,
			"-0.018": 0.0,
			"-0.017": 0.120858588063,
			"-0.016": 0.861712563696,
			"-0.015": 1.12173881977,
			"-0.014": 0.679990909065,
			"-0.013": 0.582727347565,
			"-0.012": 1.36586177407,
			"-0.011": 1.90113405568,
			"-0.01": 2.39644243254,
			"-0.009": 1.82764045809,
			"-0.008": 3.06031770765,
			"-0.007": 2.7673250825,
			"-0.006": 4.71326901181,
			"-0.005": 12.572161467,
			"-0.004": 22.1847360244,
			"-0.003": 26.4245098552,
			"-0.002": 24.510526597,
			"-0.001": 17.8703921496,
			"0.0": 14.0630533116,
			"0.001": 10.9766650513,
			"0.002": 10.662760168,
			"0.003": 10.2336812423,
			"0.004": 10.9503035761,
			"0.005": 10.3445990662,
			"0.006": 10.8417296794,
			"0.007": 11.5349526615,
			"0.008": 5.24764834552,
			"0.009": 4.15928942799,
			"0.01": 2.40896645832,
			"0.011": 2.65009231371,
			"0.012": 2.30296161375,
			"0.013": 0.613343903409,
			"0.014": 0.867380606508,
			"0.015": 0.688152696822,
			"0.016": 0.0752082318853,
			"0.017": 0.0,
			"0.018": 0.0,
			"0.019": 0.0,
			"0.02": 0.0,
			"0.021": 0.0,
			"0.022": 0.0,
			"0.023": 0.0,
			"0.024": 0.0,
			"0.025": 0.0
		}
	}
}
