{
	 "smiles": "NC(=O)NC1CC1", 
	 "Tm": 388.15, 
	 "num_atms": 15, 
	 "gaussian": { 
		 "optdone": 1, 
		 "sigma_profile": "yes", 
		 "theory": "DFT", 
		 "functional": "B3LYP", 
		 "basiset": "6-31G**", 
		 "properties": { 
			 "R2extent": 994.8981, 
			 "electric_dipole_moment_norm": 3.83259601576, 
			 "electric_quadrupole_moment_norm": 5.94630871466, 
			 "total_energy": -341.962798674, 
			 "HOMO_LUMO_gap": 0.29318, 
			 "cosmo_polarized_energy": -15.85, 
			 "cosmo_cavitation_energy": 18.65, 
			 "cosmo_dispersion_energy": -13.81, 
			 "cosmo_repulsion_energy": 1.21, 
			 "cosmo_total_nonelectrostatic_energy": 6.05, 
			 "SMD_solvation_energy": 3.36 
		},
		"coords": [
			{
				"x": 0.6735644854,
				"y": -1.9702035098,
				"z": -0.9855958248,
				"element": "N" 
			},
			{
				"x": 0.2196005951,
				"y": -0.6863828071,
				"z": -0.683733446,
				"element": "C" 
			},
			{
				"x": 0.9826259894,
				"y": 0.2408808547,
				"z": -0.4556554413,
				"element": "O" 
			},
			{
				"x": -1.1545911683,
				"y": -0.5800603559,
				"z": -0.6024765553,
				"element": "N" 
			},
			{
				"x": -1.8032692197,
				"y": 0.6822414817,
				"z": -0.4069836452,
				"element": "C" 
			},
			{
				"x": -3.0029159119,
				"y": 0.7173162823,
				"z": 0.508775555,
				"element": "C" 
			},
			{
				"x": -1.7032080494,
				"y": 1.3500560861,
				"z": 0.9372957272,
				"element": "C" 
			},
			{
				"x": 0.1016174805,
				"y": -2.559357611,
				"z": -1.5749040433,
				"element": "H" 
			},
			{
				"x": 1.6549796115,
				"y": -1.9787251545,
				"z": -1.2237404646,
				"element": "H" 
			},
			{
				"x": -1.7279168107,
				"y": -1.3711147802,
				"z": -0.8559318024,
				"element": "H" 
			},
			{
				"x": -1.8242333009,
				"y": 1.3381817885,
				"z": -1.276948663,
				"element": "H" 
			},
			{
				"x": -3.8344955777,
				"y": 1.3574318419,
				"z": 0.2309686444,
				"element": "H" 
			},
			{
				"x": -3.2916340589,
				"y": -0.213182937,
				"z": 0.9891290101,
				"element": "H" 
			},
			{
				"x": -1.6279281013,
				"y": 2.4323499785,
				"z": 0.955067713,
				"element": "H" 
			},
			{
				"x": -1.1122959632,
				"y": 0.8413688418,
				"z": 1.6902332363,
				"element": "H" 
			}
		],
		 "valence_orbital": [ 
			{
				"type": "occ",
				"energy": -0.31183,
				"method": "rhf"
			},
			{
				"type": "occ",
				"energy": -0.29519,
				"method": "rhf"
			},
			{
				"type": "occ",
				"energy": -0.26643,
				"method": "rhf"
			},
			{
				"type": "occ",
				"energy": -0.24738,
				"method": "rhf"
			},
			{
				"type": "occ",
				"energy": -0.23845,
				"method": "rhf"
			},
			{
				"type": "unocc",
				"energy": 0.05473,
				"method": "rhf"
			},
			{
				"type": "unocc",
				"energy": 0.0726,
				"method": "rhf"
			},
			{
				"type": "unocc",
				"energy": 0.10531,
				"method": "rhf"
			},
			{
				"type": "unocc",
				"energy": 0.11623,
				"method": "rhf"
			},
			{
				"type": "unocc",
				"energy": 0.12222,
				"method": "rhf"
			}
		],
		"cosmo_sigma_profile": { 
			"-0.025": 0.0,
			"-0.024": 0.0,
			"-0.023": 0.0,
			"-0.022": 0.0,
			"-0.021": 0.0,
			"-0.02": 0.0,
			"-0.019": 0.0,
			"-0.018": 0.0,
			"-0.017": 0.0,
			"-0.016": 0.0323535904922,
			"-0.015": 1.23644877682,
			"-0.014": 2.38519354323,
			"-0.013": 2.62948695097,
			"-0.012": 3.71281828753,
			"-0.011": 2.23013501021,
			"-0.01": 3.24432100061,
			"-0.009": 3.03342068908,
			"-0.008": 2.1465978218,
			"-0.007": 2.07098964135,
			"-0.006": 2.72154511619,
			"-0.005": 7.90206453055,
			"-0.004": 12.0185660566,
			"-0.003": 10.666498742,
			"-0.002": 9.93184974382,
			"-0.001": 9.103605352,
			"0.0": 11.580372567,
			"0.001": 8.13745905822,
			"0.002": 6.94950606225,
			"0.003": 6.28860984962,
			"0.004": 4.11609627148,
			"0.005": 4.28847135698,
			"0.006": 3.23712491271,
			"0.007": 2.26331202966,
			"0.008": 2.29051672504,
			"0.009": 2.31173342096,
			"0.01": 1.96513027917,
			"0.011": 1.59606372723,
			"0.012": 2.62960075571,
			"0.013": 2.44722173396,
			"0.014": 4.05403989669,
			"0.015": 6.02742335406,
			"0.016": 0.617450291956,
			"0.017": 0.0,
			"0.018": 0.0,
			"0.019": 0.0,
			"0.02": 0.0,
			"0.021": 0.0,
			"0.022": 0.0,
			"0.023": 0.0,
			"0.024": 0.0,
			"0.025": 0.0
		}
	}
}
