{
	 "smiles": "CC1=C(SC2=CC=C(Cl)C=C12)C(=O)CBr", 
	 "Tm": 428.15, 
	 "num_atms": 23, 
	 "gaussian": { 
		 "optdone": 1, 
		 "sigma_profile": "yes", 
		 "theory": "DFT", 
		 "functional": "B3LYP", 
		 "basiset": "6-31G**", 
		 "properties": { 
			 "R2extent": 7517.7134, 
			 "electric_dipole_moment_norm": 2.04450826117, 
			 "electric_quadrupole_moment_norm": 10.3763460905, 
			 "total_energy": -3929.00561753, 
			 "HOMO_LUMO_gap": 0.14571, 
			 "cosmo_polarized_energy": -9.19, 
			 "cosmo_cavitation_energy": 32.56, 
			 "cosmo_dispersion_energy": -24.58, 
			 "cosmo_repulsion_energy": 1.87, 
			 "cosmo_total_nonelectrostatic_energy": 9.85, 
			 "SMD_solvation_energy": 4.11 
		},
		"coords": [
			{
				"x": -1.2599047895,
				"y": -1.2084378428,
				"z": -1.3150107007,
				"element": "C" 
			},
			{
				"x": -0.1996242424,
				"y": -0.2223497466,
				"z": -0.9142068754,
				"element": "C" 
			},
			{
				"x": 0.1042052297,
				"y": 0.9343740374,
				"z": -1.606618961,
				"element": "C" 
			},
			{
				"x": 1.4027436225,
				"y": 1.8689249791,
				"z": -0.8515576027,
				"element": "S" 
			},
			{
				"x": 1.563918708,
				"y": 0.6793845572,
				"z": 0.4113681314,
				"element": "C" 
			},
			{
				"x": 2.4654034982,
				"y": 0.7101167504,
				"z": 1.482390843,
				"element": "C" 
			},
			{
				"x": 2.4467853957,
				"y": -0.3278540578,
				"z": 2.4023585769,
				"element": "C" 
			},
			{
				"x": 1.5297624609,
				"y": -1.3848675122,
				"z": 2.2476537648,
				"element": "C" 
			},
			{
				"x": 1.5353119562,
				"y": -2.6838387139,
				"z": 3.4319501399,
				"element": "Cl" 
			},
			{
				"x": 0.631242329,
				"y": -1.4283461242,
				"z": 1.1965905613,
				"element": "C" 
			},
			{
				"x": 0.6365884456,
				"y": -0.3809332142,
				"z": 0.2516504029,
				"element": "C" 
			},
			{
				"x": -0.5261488829,
				"y": 1.3700681682,
				"z": -2.8640306901,
				"element": "C" 
			},
			{
				"x": -1.383809968,
				"y": 0.6981728024,
				"z": -3.4228115705,
				"element": "O" 
			},
			{
				"x": -0.0773188919,
				"y": 2.6756255464,
				"z": -3.5135844157,
				"element": "C" 
			},
			{
				"x": -0.8898490986,
				"y": 4.2246483667,
				"z": -2.5870058663,
				"element": "Br" 
			},
			{
				"x": -2.2181828315,
				"y": -0.7097566941,
				"z": -1.4776320291,
				"element": "H" 
			},
			{
				"x": -1.0074130229,
				"y": -1.6894043947,
				"z": -2.2650999164,
				"element": "H" 
			},
			{
				"x": -1.3879234018,
				"y": -1.98269796,
				"z": -0.5558056019,
				"element": "H" 
			},
			{
				"x": 3.1692026038,
				"y": 1.5282457464,
				"z": 1.5963351499,
				"element": "H" 
			},
			{
				"x": 3.1333398526,
				"y": -0.3328812696,
				"z": 3.241303585,
				"element": "H" 
			},
			{
				"x": -0.059983639,
				"y": -2.258083717,
				"z": 1.1085609003,
				"element": "H" 
			},
			{
				"x": 1.0007612209,
				"y": 2.8343098329,
				"z": -3.4794565952,
				"element": "H" 
			},
			{
				"x": -0.4484065545,
				"y": 2.7026804598,
				"z": -4.5350412304,
				"element": "H" 
			}
		],
		 "valence_orbital": [ 
			{
				"type": "occ",
				"energy": -0.29533,
				"method": "rhf"
			},
			{
				"type": "occ",
				"energy": -0.28415,
				"method": "rhf"
			},
			{
				"type": "occ",
				"energy": -0.2635,
				"method": "rhf"
			},
			{
				"type": "occ",
				"energy": -0.25002,
				"method": "rhf"
			},
			{
				"type": "occ",
				"energy": -0.23408,
				"method": "rhf"
			},
			{
				"type": "unocc",
				"energy": -0.08837,
				"method": "rhf"
			},
			{
				"type": "unocc",
				"energy": -0.03023,
				"method": "rhf"
			},
			{
				"type": "unocc",
				"energy": -0.02503,
				"method": "rhf"
			},
			{
				"type": "unocc",
				"energy": -0.00036,
				"method": "rhf"
			},
			{
				"type": "unocc",
				"energy": 0.01196,
				"method": "rhf"
			}
		],
		"cosmo_sigma_profile": { 
			"-0.025": 0.0,
			"-0.024": 0.0,
			"-0.023": 0.0,
			"-0.022": 0.0,
			"-0.021": 0.0,
			"-0.02": 0.0,
			"-0.019": 0.0,
			"-0.018": 0.0,
			"-0.017": 0.0,
			"-0.016": 0.0,
			"-0.015": 0.0,
			"-0.014": 0.0,
			"-0.013": 0.0,
			"-0.012": 0.0,
			"-0.011": 0.0,
			"-0.01": 0.00559780976255,
			"-0.009": 2.72260207722,
			"-0.008": 10.2033411638,
			"-0.007": 10.887286492,
			"-0.006": 10.995996672,
			"-0.005": 11.5541534633,
			"-0.004": 11.6974100358,
			"-0.003": 14.4192500511,
			"-0.002": 16.291794887,
			"-0.001": 22.0378118001,
			"0.0": 25.0954773487,
			"0.001": 30.4491541554,
			"0.002": 30.56742188,
			"0.003": 18.2518311584,
			"0.004": 21.4161209083,
			"0.005": 18.2231858387,
			"0.006": 2.63565408968,
			"0.007": 1.56834517518,
			"0.008": 1.12916441777,
			"0.009": 2.12457401888,
			"0.01": 2.04884384998,
			"0.011": 3.03529823116,
			"0.012": 1.2480684899,
			"0.013": 0.038835575874,
			"0.014": 0.0,
			"0.015": 0.0,
			"0.016": 0.0,
			"0.017": 0.0,
			"0.018": 0.0,
			"0.019": 0.0,
			"0.02": 0.0,
			"0.021": 0.0,
			"0.022": 0.0,
			"0.023": 0.0,
			"0.024": 0.0,
			"0.025": 0.0
		}
	}
}
