{
	 "smiles": "CC1=C(C=NO)C=CC=C1", 
	 "Tm": 312.15, 
	 "num_atms": 19, 
	 "gaussian": { 
		 "optdone": 1, 
		 "sigma_profile": "yes", 
		 "theory": "DFT", 
		 "functional": "B3LYP", 
		 "basiset": "6-31G**", 
		 "properties": { 
			 "R2extent": 1563.4905, 
			 "electric_dipole_moment_norm": 0.420429363865, 
			 "electric_quadrupole_moment_norm": 5.31630786825, 
			 "total_energy": -440.189581225, 
			 "HOMO_LUMO_gap": 0.20899, 
			 "cosmo_polarized_energy": -7.89, 
			 "cosmo_cavitation_energy": 22.52, 
			 "cosmo_dispersion_energy": -16.58, 
			 "cosmo_repulsion_energy": 1.35, 
			 "cosmo_total_nonelectrostatic_energy": 7.29, 
			 "SMD_solvation_energy": 3.9 
		},
		"coords": [
			{
				"x": 0.0358416498,
				"y": -1.4791068188,
				"z": -1.5741951325,
				"element": "C" 
			},
			{
				"x": 0.7632975034,
				"y": -0.5302126587,
				"z": -0.6540765783,
				"element": "C" 
			},
			{
				"x": 0.1199241996,
				"y": 0.5661699248,
				"z": -0.0366836786,
				"element": "C" 
			},
			{
				"x": -1.3134748976,
				"y": 0.8934789216,
				"z": -0.233422931,
				"element": "C" 
			},
			{
				"x": -1.9777483942,
				"y": 1.132731936,
				"z": -1.3036838281,
				"element": "N" 
			},
			{
				"x": -1.1917641308,
				"y": 1.0727454883,
				"z": -2.4636164697,
				"element": "O" 
			},
			{
				"x": 0.8306425285,
				"y": 1.3702489249,
				"z": 0.869936666,
				"element": "C" 
			},
			{
				"x": 2.1779187315,
				"y": 1.1423922635,
				"z": 1.1352985711,
				"element": "C" 
			},
			{
				"x": 2.8257067667,
				"y": 0.0775511149,
				"z": 0.5083099283,
				"element": "C" 
			},
			{
				"x": 2.117215299,
				"y": -0.7474806625,
				"z": -0.3637371504,
				"element": "C" 
			},
			{
				"x": 0.599134363,
				"y": -2.4080596833,
				"z": -1.6980137205,
				"element": "H" 
			},
			{
				"x": -0.1175240088,
				"y": -1.0260647182,
				"z": -2.5579311447,
				"element": "H" 
			},
			{
				"x": -0.9571261005,
				"y": -1.72984783,
				"z": -1.1870002956,
				"element": "H" 
			},
			{
				"x": -1.9249806015,
				"y": 1.0069172184,
				"z": 0.6625471333,
				"element": "H" 
			},
			{
				"x": -1.8372548776,
				"y": 1.2787174254,
				"z": -3.152822044,
				"element": "H" 
			},
			{
				"x": 0.3152935769,
				"y": 2.1934264083,
				"z": 1.358451213,
				"element": "H" 
			},
			{
				"x": 2.7137444574,
				"y": 1.7847645017,
				"z": 1.8278031419,
				"element": "H" 
			},
			{
				"x": 3.8749337216,
				"y": -0.1204855506,
				"z": 0.7086221407,
				"element": "H" 
			},
			{
				"x": 2.6203202135,
				"y": -1.5916862057,
				"z": -0.828585821,
				"element": "H" 
			}
		],
		 "valence_orbital": [ 
			{
				"type": "occ",
				"energy": -0.33987,
				"method": "rhf"
			},
			{
				"type": "occ",
				"energy": -0.27454,
				"method": "rhf"
			},
			{
				"type": "occ",
				"energy": -0.26945,
				"method": "rhf"
			},
			{
				"type": "occ",
				"energy": -0.24222,
				"method": "rhf"
			},
			{
				"type": "occ",
				"energy": -0.23542,
				"method": "rhf"
			},
			{
				"type": "unocc",
				"energy": -0.02643,
				"method": "rhf"
			},
			{
				"type": "unocc",
				"energy": 0.00199,
				"method": "rhf"
			},
			{
				"type": "unocc",
				"energy": 0.02925,
				"method": "rhf"
			},
			{
				"type": "unocc",
				"energy": 0.07378,
				"method": "rhf"
			},
			{
				"type": "unocc",
				"energy": 0.10068,
				"method": "rhf"
			}
		],
		"cosmo_sigma_profile": { 
			"-0.025": 0.0,
			"-0.024": 0.0,
			"-0.023": 0.0,
			"-0.022": 0.0,
			"-0.021": 0.0,
			"-0.02": 0.0,
			"-0.019": 0.0,
			"-0.018": 0.0764778538925,
			"-0.017": 0.778057608581,
			"-0.016": 1.30536919885,
			"-0.015": 0.563088175016,
			"-0.014": 0.612714399261,
			"-0.013": 0.839491638536,
			"-0.012": 1.05542603195,
			"-0.011": 0.737657506853,
			"-0.01": 0.462521747815,
			"-0.009": 0.303406002027,
			"-0.008": 1.12392515484,
			"-0.007": 2.84160421093,
			"-0.006": 7.16411821084,
			"-0.005": 12.5376239636,
			"-0.004": 13.2035608396,
			"-0.003": 14.2841803974,
			"-0.002": 12.8417699976,
			"-0.001": 12.510887788,
			"0.0": 13.5189622032,
			"0.001": 14.0412315275,
			"0.002": 11.3729398724,
			"0.003": 9.45040096207,
			"0.004": 12.0024569569,
			"0.005": 12.5181017913,
			"0.006": 8.37119888435,
			"0.007": 3.20655906751,
			"0.008": 1.90872451696,
			"0.009": 3.39259114012,
			"0.01": 1.82635025914,
			"0.011": 1.69631461416,
			"0.012": 1.04619467516,
			"0.013": 1.06117579282,
			"0.014": 0.126639776572,
			"0.015": 0.0,
			"0.016": 0.0,
			"0.017": 0.0,
			"0.018": 0.0,
			"0.019": 0.0,
			"0.02": 0.0,
			"0.021": 0.0,
			"0.022": 0.0,
			"0.023": 0.0,
			"0.024": 0.0,
			"0.025": 0.0
		}
	}
}
