{
	 "smiles": "COC(=O)C1=CC=C2C=CNC2=C1", 
	 "Tm": 352.15, 
	 "num_atms": 22, 
	 "gaussian": { 
		 "optdone": 1, 
		 "sigma_profile": "yes", 
		 "theory": "DFT", 
		 "functional": "B3LYP", 
		 "basiset": "6-31G**", 
		 "properties": { 
			 "R2extent": 2826.223, 
			 "electric_dipole_moment_norm": 4.33630433203, 
			 "electric_quadrupole_moment_norm": 9.88705142396, 
			 "total_energy": -591.702825193, 
			 "HOMO_LUMO_gap": 0.17371, 
			 "cosmo_polarized_energy": -13.0, 
			 "cosmo_cavitation_energy": 26.43, 
			 "cosmo_dispersion_energy": -19.75, 
			 "cosmo_repulsion_energy": 1.55, 
			 "cosmo_total_nonelectrostatic_energy": 8.22, 
			 "SMD_solvation_energy": 6.06 
		},
		"coords": [
			{
				"x": -0.0014364549,
				"y": 4.3807644001,
				"z": -0.0409487619,
				"element": "C" 
			},
			{
				"x": -0.1794965411,
				"y": 2.9739283677,
				"z": -0.2509207183,
				"element": "O" 
			},
			{
				"x": 0.2946609085,
				"y": 2.1799950114,
				"z": 0.7444757202,
				"element": "C" 
			},
			{
				"x": 0.8305147611,
				"y": 2.6304908957,
				"z": 1.7398998697,
				"element": "O" 
			},
			{
				"x": 0.0831816568,
				"y": 0.735464016,
				"z": 0.4733293248,
				"element": "C" 
			},
			{
				"x": 0.5400283361,
				"y": -0.1863772033,
				"z": 1.4473159668,
				"element": "C" 
			},
			{
				"x": 0.3835468695,
				"y": -1.5504923639,
				"z": 1.2749896803,
				"element": "C" 
			},
			{
				"x": -0.2426812466,
				"y": -2.0275675263,
				"z": 0.1070202108,
				"element": "C" 
			},
			{
				"x": -0.5678385338,
				"y": -3.3290757659,
				"z": -0.3983521876,
				"element": "C" 
			},
			{
				"x": -1.1843958711,
				"y": -3.1476454016,
				"z": -1.6107197808,
				"element": "C" 
			},
			{
				"x": -1.2642678095,
				"y": -1.7996607458,
				"z": -1.8948922016,
				"element": "N" 
			},
			{
				"x": -0.6947201406,
				"y": -1.0826229243,
				"z": -0.8598199801,
				"element": "C" 
			},
			{
				"x": -0.5417330007,
				"y": 0.2928006526,
				"z": -0.6953933412,
				"element": "C" 
			},
			{
				"x": -0.4298600377,
				"y": 4.867014806,
				"z": -0.9178858894,
				"element": "H" 
			},
			{
				"x": -0.5167055192,
				"y": 4.7055648091,
				"z": 0.8668363099,
				"element": "H" 
			},
			{
				"x": 1.059358412,
				"y": 4.6274554985,
				"z": 0.0535277585,
				"element": "H" 
			},
			{
				"x": 1.0176550401,
				"y": 0.2137437902,
				"z": 2.3346247967,
				"element": "H" 
			},
			{
				"x": 0.7390080406,
				"y": -2.2451288392,
				"z": 2.0305895899,
				"element": "H" 
			},
			{
				"x": -0.3700094391,
				"y": -4.2794044992,
				"z": 0.0762565634,
				"element": "H" 
			},
			{
				"x": -1.5782151246,
				"y": -3.8773530051,
				"z": -2.303986167,
				"element": "H" 
			},
			{
				"x": -1.6726763801,
				"y": -1.4019468964,
				"z": -2.724725134,
				"element": "H" 
			},
			{
				"x": -0.8889179257,
				"y": 1.0036529237,
				"z": -1.4366216295,
				"element": "H" 
			}
		],
		 "valence_orbital": [ 
			{
				"type": "occ",
				"energy": -0.29211,
				"method": "rhf"
			},
			{
				"type": "occ",
				"energy": -0.2815,
				"method": "rhf"
			},
			{
				"type": "occ",
				"energy": -0.263,
				"method": "rhf"
			},
			{
				"type": "occ",
				"energy": -0.22685,
				"method": "rhf"
			},
			{
				"type": "occ",
				"energy": -0.2105,
				"method": "rhf"
			},
			{
				"type": "unocc",
				"energy": -0.03679,
				"method": "rhf"
			},
			{
				"type": "unocc",
				"energy": 0.00858,
				"method": "rhf"
			},
			{
				"type": "unocc",
				"energy": 0.05169,
				"method": "rhf"
			},
			{
				"type": "unocc",
				"energy": 0.07388,
				"method": "rhf"
			},
			{
				"type": "unocc",
				"energy": 0.09076,
				"method": "rhf"
			}
		],
		"cosmo_sigma_profile": { 
			"-0.025": 0.0,
			"-0.024": 0.0,
			"-0.023": 0.0,
			"-0.022": 0.0,
			"-0.021": 0.0,
			"-0.02": 0.0,
			"-0.019": 0.0,
			"-0.018": 0.0,
			"-0.017": 0.0,
			"-0.016": 1.01421848703,
			"-0.015": 1.47855942496,
			"-0.014": 1.80777880824,
			"-0.013": 1.20259875921,
			"-0.012": 1.35443608441,
			"-0.011": 1.09667693805,
			"-0.01": 1.30768029848,
			"-0.009": 2.01081352653,
			"-0.008": 4.14172777869,
			"-0.007": 3.48590207409,
			"-0.006": 8.87198887178,
			"-0.005": 13.0940147321,
			"-0.004": 14.6458283247,
			"-0.003": 19.2277726049,
			"-0.002": 12.2126019198,
			"-0.001": 11.6287881852,
			"0.0": 9.48893600114,
			"0.001": 12.2641010739,
			"0.002": 13.5391249147,
			"0.003": 16.5960444544,
			"0.004": 19.426292892,
			"0.005": 16.3498703892,
			"0.006": 9.80919755905,
			"0.007": 1.9620932687,
			"0.008": 1.72959658156,
			"0.009": 1.48789000293,
			"0.01": 1.85752443187,
			"0.011": 2.14878485542,
			"0.012": 4.67793505837,
			"0.013": 1.64860574271,
			"0.014": 0.0,
			"0.015": 0.0,
			"0.016": 0.0,
			"0.017": 0.0,
			"0.018": 0.0,
			"0.019": 0.0,
			"0.02": 0.0,
			"0.021": 0.0,
			"0.022": 0.0,
			"0.023": 0.0,
			"0.024": 0.0,
			"0.025": 0.0
		}
	}
}
