{
	 "smiles": "CC1CCNC2=C(N1)C=CC=C2", 
	 "Tm": 370.15, 
	 "num_atms": 26, 
	 "gaussian": { 
		 "optdone": 1, 
		 "sigma_profile": "yes", 
		 "theory": "DFT", 
		 "functional": "B3LYP", 
		 "basiset": "6-31G**", 
		 "properties": { 
			 "R2extent": 2716.3966, 
			 "electric_dipole_moment_norm": 1.60154937482, 
			 "electric_quadrupole_moment_norm": 7.81397106982, 
			 "total_energy": -499.006083088, 
			 "HOMO_LUMO_gap": 0.18997, 
			 "cosmo_polarized_energy": -8.31, 
			 "cosmo_cavitation_energy": 26.82, 
			 "cosmo_dispersion_energy": -20.21, 
			 "cosmo_repulsion_energy": 1.59, 
			 "cosmo_total_nonelectrostatic_energy": 8.21, 
			 "SMD_solvation_energy": 2.39 
		},
		"coords": [
			{
				"x": 2.1877365312,
				"y": 0.236357462,
				"z": -0.2616105795,
				"element": "C" 
			},
			{
				"x": 0.7766416635,
				"y": -0.3517808677,
				"z": -0.2486278903,
				"element": "C" 
			},
			{
				"x": 0.5055978337,
				"y": -1.1333322604,
				"z": 1.0500512551,
				"element": "C" 
			},
			{
				"x": -0.99421633,
				"y": -1.3569038557,
				"z": 1.2850169573,
				"element": "C" 
			},
			{
				"x": -1.6837452787,
				"y": -1.7397189554,
				"z": 0.0470196903,
				"element": "N" 
			},
			{
				"x": -2.1670834269,
				"y": -0.7276039159,
				"z": -0.8080272259,
				"element": "C" 
			},
			{
				"x": -1.4390981988,
				"y": 0.4696210987,
				"z": -1.0414445545,
				"element": "C" 
			},
			{
				"x": -0.2087529259,
				"y": 0.7341807282,
				"z": -0.4024150673,
				"element": "N" 
			},
			{
				"x": -1.9869724527,
				"y": 1.4268630192,
				"z": -1.9074384538,
				"element": "C" 
			},
			{
				"x": -3.2072410387,
				"y": 1.231471521,
				"z": -2.5528360137,
				"element": "C" 
			},
			{
				"x": -3.9045885517,
				"y": 0.0426263576,
				"z": -2.3490819209,
				"element": "C" 
			},
			{
				"x": -3.3835627301,
				"y": -0.9145821675,
				"z": -1.4797027319,
				"element": "C" 
			},
			{
				"x": 2.9329213834,
				"y": -0.5442053833,
				"z": -0.0814180993,
				"element": "H" 
			},
			{
				"x": 2.2953619732,
				"y": 0.99323533,
				"z": 0.5242222559,
				"element": "H" 
			},
			{
				"x": 2.4174647047,
				"y": 0.7034470207,
				"z": -1.2258673589,
				"element": "H" 
			},
			{
				"x": 0.6857785163,
				"y": -1.0515644032,
				"z": -1.0918377643,
				"element": "H" 
			},
			{
				"x": 1.0275460695,
				"y": -2.0964873784,
				"z": 0.9925022557,
				"element": "H" 
			},
			{
				"x": 0.9189864245,
				"y": -0.5863354348,
				"z": 1.9075098854,
				"element": "H" 
			},
			{
				"x": -1.135769544,
				"y": -2.1652957785,
				"z": 2.0095396049,
				"element": "H" 
			},
			{
				"x": -1.4394138946,
				"y": -0.4523155153,
				"z": 1.7209302346,
				"element": "H" 
			},
			{
				"x": -2.3883941969,
				"y": -2.44826393,
				"z": 0.202043061,
				"element": "H" 
			},
			{
				"x": 0.213964948,
				"y": 1.5752218009,
				"z": -0.775215423,
				"element": "H" 
			},
			{
				"x": -1.4275721934,
				"y": 2.3445023498,
				"z": -2.0802400155,
				"element": "H" 
			},
			{
				"x": -3.5954986931,
				"y": 1.9966389201,
				"z": -3.2182088464,
				"element": "H" 
			},
			{
				"x": -4.8526468652,
				"y": -0.1380091663,
				"z": -2.8465853363,
				"element": "H" 
			},
			{
				"x": -3.9345437272,
				"y": -1.835966596,
				"z": -1.2998779187,
				"element": "H" 
			}
		],
		 "valence_orbital": [ 
			{
				"type": "occ",
				"energy": -0.32582,
				"method": "rhf"
			},
			{
				"type": "occ",
				"energy": -0.28125,
				"method": "rhf"
			},
			{
				"type": "occ",
				"energy": -0.27395,
				"method": "rhf"
			},
			{
				"type": "occ",
				"energy": -0.21042,
				"method": "rhf"
			},
			{
				"type": "occ",
				"energy": -0.17054,
				"method": "rhf"
			},
			{
				"type": "unocc",
				"energy": 0.01943,
				"method": "rhf"
			},
			{
				"type": "unocc",
				"energy": 0.02961,
				"method": "rhf"
			},
			{
				"type": "unocc",
				"energy": 0.07994,
				"method": "rhf"
			},
			{
				"type": "unocc",
				"energy": 0.09498,
				"method": "rhf"
			},
			{
				"type": "unocc",
				"energy": 0.10337,
				"method": "rhf"
			}
		],
		"cosmo_sigma_profile": { 
			"-0.025": 0.0,
			"-0.024": 0.0,
			"-0.023": 0.0,
			"-0.022": 0.0,
			"-0.021": 0.0,
			"-0.02": 0.0,
			"-0.019": 0.0,
			"-0.018": 0.0,
			"-0.017": 0.0,
			"-0.016": 0.0,
			"-0.015": 0.0,
			"-0.014": 0.0,
			"-0.013": 0.0,
			"-0.012": 0.3014076997,
			"-0.011": 1.98743776524,
			"-0.01": 2.85984077675,
			"-0.009": 2.30653802877,
			"-0.008": 3.09032962713,
			"-0.007": 3.14164313646,
			"-0.006": 4.12654350853,
			"-0.005": 8.16511742547,
			"-0.004": 12.2628669106,
			"-0.003": 18.9862975992,
			"-0.002": 27.8132433254,
			"-0.001": 26.5601445428,
			"0.0": 21.2715707103,
			"0.001": 13.3762010229,
			"0.002": 7.87904319809,
			"0.003": 7.19892592015,
			"0.004": 7.78914463855,
			"0.005": 7.32894230157,
			"0.006": 9.47528923377,
			"0.007": 9.05869270432,
			"0.008": 7.76873111594,
			"0.009": 3.06701324979,
			"0.01": 1.23641990761,
			"0.011": 1.1577310331,
			"0.012": 0.719731114252,
			"0.013": 0.740301521195,
			"0.014": 0.0439493074479,
			"0.015": 0.0,
			"0.016": 0.0,
			"0.017": 0.0,
			"0.018": 0.0,
			"0.019": 0.0,
			"0.02": 0.0,
			"0.021": 0.0,
			"0.022": 0.0,
			"0.023": 0.0,
			"0.024": 0.0,
			"0.025": 0.0
		}
	}
}
