{
	 "smiles": "COC1=C(OC)C(OC)=C(C=C1)C1=NOC(N)=C1", 
	 "Tm": 435.15, 
	 "num_atms": 32, 
	 "gaussian": { 
		 "optdone": 1, 
		 "sigma_profile": "yes", 
		 "theory": "DFT", 
		 "functional": "B3LYP", 
		 "basiset": "6-31G**", 
		 "properties": { 
			 "R2extent": 5614.7893, 
			 "electric_dipole_moment_norm": 3.70188996055, 
			 "electric_quadrupole_moment_norm": 24.1314547491, 
			 "total_energy": -876.010059869, 
			 "HOMO_LUMO_gap": 0.18693, 
			 "cosmo_polarized_energy": -17.34, 
			 "cosmo_cavitation_energy": 35.62, 
			 "cosmo_dispersion_energy": -25.36, 
			 "cosmo_repulsion_energy": 1.97, 
			 "cosmo_total_nonelectrostatic_energy": 12.22, 
			 "SMD_solvation_energy": 8.22 
		},
		"coords": [
			{
				"x": -0.1999685183,
				"y": 4.020188967,
				"z": 0.6664681715,
				"element": "C" 
			},
			{
				"x": -0.8768252686,
				"y": 2.8834928563,
				"z": 1.2182214866,
				"element": "O" 
			},
			{
				"x": -0.7006409121,
				"y": 1.7156392751,
				"z": 0.5075052316,
				"element": "C" 
			},
			{
				"x": 0.5361081746,
				"y": 1.0475324848,
				"z": 0.5006106321,
				"element": "C" 
			},
			{
				"x": 1.631483363,
				"y": 1.5293107415,
				"z": 1.179924951,
				"element": "O" 
			},
			{
				"x": 1.4834710403,
				"y": 1.643682152,
				"z": 2.6022707012,
				"element": "C" 
			},
			{
				"x": 0.6917494914,
				"y": -0.1162657806,
				"z": -0.2781317494,
				"element": "C" 
			},
			{
				"x": 1.9262683259,
				"y": -0.715904931,
				"z": -0.3640388072,
				"element": "O" 
			},
			{
				"x": 2.344205205,
				"y": -1.4546580762,
				"z": 0.784138168,
				"element": "C" 
			},
			{
				"x": -0.3917204792,
				"y": -0.6375071548,
				"z": -1.012296922,
				"element": "C" 
			},
			{
				"x": -1.6282516516,
				"y": 0.0268740968,
				"z": -0.9473632491,
				"element": "C" 
			},
			{
				"x": -1.7815251503,
				"y": 1.1869540061,
				"z": -0.2004266784,
				"element": "C" 
			},
			{
				"x": -0.2744107615,
				"y": -1.8571883108,
				"z": -1.8376434921,
				"element": "C" 
			},
			{
				"x": -1.3805041899,
				"y": -2.5171536686,
				"z": -2.1425473604,
				"element": "N" 
			},
			{
				"x": -0.957650823,
				"y": -3.5847290217,
				"z": -2.9656810799,
				"element": "O" 
			},
			{
				"x": 0.3766263026,
				"y": -3.5176870315,
				"z": -3.1162653086,
				"element": "C" 
			},
			{
				"x": 0.9372173595,
				"y": -4.4589789564,
				"z": -3.9490574954,
				"element": "N" 
			},
			{
				"x": 0.8834087568,
				"y": -2.4522235635,
				"z": -2.4223300884,
				"element": "C" 
			},
			{
				"x": -0.4335180977,
				"y": 4.862740007,
				"z": 1.3205974488,
				"element": "H" 
			},
			{
				"x": 0.8833177734,
				"y": 3.8643360062,
				"z": 0.6352302157,
				"element": "H" 
			},
			{
				"x": -0.5654243794,
				"y": 4.2340821243,
				"z": -0.3454030407,
				"element": "H" 
			},
			{
				"x": 0.6852237798,
				"y": 2.3400306981,
				"z": 2.8700215744,
				"element": "H" 
			},
			{
				"x": 2.4418560779,
				"y": 2.0111734289,
				"z": 2.9747351859,
				"element": "H" 
			},
			{
				"x": 1.2721720877,
				"y": 0.6649719817,
				"z": 3.0515225452,
				"element": "H" 
			},
			{
				"x": 3.2854751514,
				"y": -1.9372241211,
				"z": 0.5118971576,
				"element": "H" 
			},
			{
				"x": 2.5154606748,
				"y": -0.7969749132,
				"z": 1.6414491024,
				"element": "H" 
			},
			{
				"x": 1.6076855908,
				"y": -2.22335831,
				"z": 1.0490048906,
				"element": "H" 
			},
			{
				"x": -2.4605269671,
				"y": -0.3780270376,
				"z": -1.5113714529,
				"element": "H" 
			},
			{
				"x": -2.727743239,
				"y": 1.7169303799,
				"z": -0.1674222521,
				"element": "H" 
			},
			{
				"x": 1.9145380361,
				"y": -4.6477295765,
				"z": -3.7793151129,
				"element": "H" 
			},
			{
				"x": 0.3825449383,
				"y": -5.2972011637,
				"z": -4.0620583273,
				"element": "H" 
			},
			{
				"x": 1.9030983084,
				"y": -2.1177275885,
				"z": -2.3499450457,
				"element": "H" 
			}
		],
		 "valence_orbital": [ 
			{
				"type": "occ",
				"energy": -0.27841,
				"method": "rhf"
			},
			{
				"type": "occ",
				"energy": -0.26235,
				"method": "rhf"
			},
			{
				"type": "occ",
				"energy": -0.22829,
				"method": "rhf"
			},
			{
				"type": "occ",
				"energy": -0.22243,
				"method": "rhf"
			},
			{
				"type": "occ",
				"energy": -0.20893,
				"method": "rhf"
			},
			{
				"type": "unocc",
				"energy": -0.022,
				"method": "rhf"
			},
			{
				"type": "unocc",
				"energy": 0.00364,
				"method": "rhf"
			},
			{
				"type": "unocc",
				"energy": 0.03642,
				"method": "rhf"
			},
			{
				"type": "unocc",
				"energy": 0.06662,
				"method": "rhf"
			},
			{
				"type": "unocc",
				"energy": 0.0731,
				"method": "rhf"
			}
		],
		"cosmo_sigma_profile": { 
			"-0.025": 0.0,
			"-0.024": 0.0,
			"-0.023": 0.0,
			"-0.022": 0.0,
			"-0.021": 0.0,
			"-0.02": 0.0,
			"-0.019": 0.0,
			"-0.018": 0.0,
			"-0.017": 0.0,
			"-0.016": 0.0,
			"-0.015": 0.449842359554,
			"-0.014": 2.40785135812,
			"-0.013": 2.72141153571,
			"-0.012": 2.97172106014,
			"-0.011": 2.97407462657,
			"-0.01": 2.01335728009,
			"-0.009": 1.32502913967,
			"-0.008": 2.58298935493,
			"-0.007": 2.73187668735,
			"-0.006": 7.9132052361,
			"-0.005": 18.1172944671,
			"-0.004": 24.5066718665,
			"-0.003": 33.0169466022,
			"-0.002": 25.8974317784,
			"-0.001": 16.1011849751,
			"0.0": 14.2205235384,
			"0.001": 13.1599953339,
			"0.002": 21.8600591424,
			"0.003": 19.4443012476,
			"0.004": 16.5588806159,
			"0.005": 8.46563333631,
			"0.006": 6.16889109688,
			"0.007": 6.58942975907,
			"0.008": 6.52293578507,
			"0.009": 6.89062366353,
			"0.01": 5.71672659516,
			"0.011": 5.63503689918,
			"0.012": 2.89272617795,
			"0.013": 1.6865149484,
			"0.014": 0.885114569431,
			"0.015": 0.542308650138,
			"0.016": 0.0,
			"0.017": 0.0,
			"0.018": 0.0,
			"0.019": 0.0,
			"0.02": 0.0,
			"0.021": 0.0,
			"0.022": 0.0,
			"0.023": 0.0,
			"0.024": 0.0,
			"0.025": 0.0
		}
	}
}
