{
	 "smiles": "[O-][N+](=O)C1=CC(=CC=C1C(Cl)C(Cl)C1=CC=C(C=C1)C(Cl)C(Cl)C1=C(C=C(C=C1)C#N)[N+]([O-])=O)C#N", 
	 "Tm": 551.15, 
	 "num_atms": 50, 
	 "gaussian": { 
		 "optdone": 1, 
		 "sigma_profile": "yes", 
		 "theory": "DFT", 
		 "functional": "B3LYP", 
		 "basiset": "6-31G**", 
		 "properties": { 
			 "R2extent": 24097.1418, 
			 "electric_dipole_moment_norm": 4.99584092421, 
			 "electric_quadrupole_moment_norm": 32.3814687331, 
			 "total_energy": -3283.39881617, 
			 "HOMO_LUMO_gap": 0.15231, 
			 "cosmo_polarized_energy": -35.5, 
			 "cosmo_cavitation_energy": 64.34, 
			 "cosmo_dispersion_energy": -39.93, 
			 "cosmo_repulsion_energy": 3.0, 
			 "cosmo_total_nonelectrostatic_energy": 27.41, 
			 "SMD_solvation_energy": 15.65 
		},
		"coords": [
			{
				"x": -0.3847051828,
				"y": -2.1344916449,
				"z": 3.1709619581,
				"element": "O" 
			},
			{
				"x": -1.0818711972,
				"y": -3.1091770774,
				"z": 3.4212451518,
				"element": "N" 
			},
			{
				"x": -1.1636786925,
				"y": -3.6806609079,
				"z": 4.5044497326,
				"element": "O" 
			},
			{
				"x": -1.9612002278,
				"y": -3.6079971702,
				"z": 2.3415008035,
				"element": "C" 
			},
			{
				"x": -3.2818552125,
				"y": -3.8118166001,
				"z": 2.7338242752,
				"element": "C" 
			},
			{
				"x": -4.2354955859,
				"y": -4.2161266128,
				"z": 1.7945457295,
				"element": "C" 
			},
			{
				"x": -3.8348230759,
				"y": -4.4511764982,
				"z": 0.4706593275,
				"element": "C" 
			},
			{
				"x": -2.5012966829,
				"y": -4.2882353095,
				"z": 0.1199131692,
				"element": "C" 
			},
			{
				"x": -1.5209979966,
				"y": -3.8509906508,
				"z": 1.0298423098,
				"element": "C" 
			},
			{
				"x": -0.1065248979,
				"y": -3.7790173441,
				"z": 0.4544077725,
				"element": "C" 
			},
			{
				"x": 1.1984892016,
				"y": -4.2342453645,
				"z": 1.6183393659,
				"element": "Cl" 
			},
			{
				"x": 0.1701907133,
				"y": -2.4680033512,
				"z": -0.337063655,
				"element": "C" 
			},
			{
				"x": 1.5747833788,
				"y": -2.7824422808,
				"z": -1.4728817865,
				"element": "Cl" 
			},
			{
				"x": 0.35688212,
				"y": -1.1733389632,
				"z": 0.4135829672,
				"element": "C" 
			},
			{
				"x": 1.5479838525,
				"y": -0.8526268561,
				"z": 1.0790653579,
				"element": "C" 
			},
			{
				"x": 1.6678560673,
				"y": 0.3505484051,
				"z": 1.764665577,
				"element": "C" 
			},
			{
				"x": 0.6071050054,
				"y": 1.2672647275,
				"z": 1.7956949888,
				"element": "C" 
			},
			{
				"x": -0.5793075093,
				"y": 0.950142446,
				"z": 1.1268645065,
				"element": "C" 
			},
			{
				"x": -0.6984027752,
				"y": -0.2566111242,
				"z": 0.4376773493,
				"element": "C" 
			},
			{
				"x": 0.7282985818,
				"y": 2.6155499564,
				"z": 2.473875262,
				"element": "C" 
			},
			{
				"x": 1.4076789886,
				"y": 2.4404902066,
				"z": 4.1601778198,
				"element": "Cl" 
			},
			{
				"x": 1.6408637453,
				"y": 3.5842609439,
				"z": 1.6789104326,
				"element": "C" 
			},
			{
				"x": 1.58727986,
				"y": 5.267890601,
				"z": 2.3721507996,
				"element": "Cl" 
			},
			{
				"x": 1.4319126115,
				"y": 3.6273139057,
				"z": 0.1691427143,
				"element": "C" 
			},
			{
				"x": 0.3960687783,
				"y": 4.2685765237,
				"z": -0.5366892001,
				"element": "C" 
			},
			{
				"x": 0.3625803251,
				"y": 4.3273326449,
				"z": -1.9259992597,
				"element": "C" 
			},
			{
				"x": 1.3615343632,
				"y": 3.6930924136,
				"z": -2.673161339,
				"element": "C" 
			},
			{
				"x": 2.4032285825,
				"y": 3.0360595736,
				"z": -2.0034111071,
				"element": "C" 
			},
			{
				"x": 2.431949581,
				"y": 3.028843106,
				"z": -0.613705866,
				"element": "C" 
			},
			{
				"x": 1.3178366315,
				"y": 3.723062398,
				"z": -4.1060605646,
				"element": "C" 
			},
			{
				"x": 1.2848552926,
				"y": 3.7405813281,
				"z": -5.2680786529,
				"element": "N" 
			},
			{
				"x": -0.7473368655,
				"y": 4.9253669539,
				"z": 0.1294899629,
				"element": "N" 
			},
			{
				"x": -1.2441799693,
				"y": 4.3619895993,
				"z": 1.1036973022,
				"element": "O" 
			},
			{
				"x": -1.1590923709,
				"y": 5.9670375193,
				"z": -0.3667972316,
				"element": "O" 
			},
			{
				"x": -5.6028925328,
				"y": -4.3995731782,
				"z": 2.1852925942,
				"element": "C" 
			},
			{
				"x": -6.714179909,
				"y": -4.5479046326,
				"z": 2.4928099245,
				"element": "N" 
			},
			{
				"x": -3.5553230182,
				"y": -3.6472690927,
				"z": 3.7687496691,
				"element": "H" 
			},
			{
				"x": -4.5597615369,
				"y": -4.7811573666,
				"z": -0.2650777209,
				"element": "H" 
			},
			{
				"x": -2.1988780967,
				"y": -4.5238965212,
				"z": -0.8966067262,
				"element": "H" 
			},
			{
				"x": -0.0559309461,
				"y": -4.5734668723,
				"z": -0.290909569,
				"element": "H" 
			},
			{
				"x": -0.6867236178,
				"y": -2.3609235732,
				"z": -1.0066693457,
				"element": "H" 
			},
			{
				"x": 2.3801175511,
				"y": -1.5466039185,
				"z": 1.059432534,
				"element": "H" 
			},
			{
				"x": 2.5849086195,
				"y": 0.5689845953,
				"z": 2.3032491402,
				"element": "H" 
			},
			{
				"x": -1.4044783923,
				"y": 1.6555148971,
				"z": 1.1304169529,
				"element": "H" 
			},
			{
				"x": -1.6259112167,
				"y": -0.4828657354,
				"z": -0.0821751385,
				"element": "H" 
			},
			{
				"x": -0.2505258612,
				"y": 3.0650391967,
				"z": 2.6023804593,
				"element": "H" 
			},
			{
				"x": 2.6698808534,
				"y": 3.262528613,
				"z": 1.8421567482,
				"element": "H" 
			},
			{
				"x": -0.4424717991,
				"y": 4.8628630701,
				"z": -2.4131790298,
				"element": "H" 
			},
			{
				"x": 3.1892772246,
				"y": 2.5489936472,
				"z": -2.5696566408,
				"element": "H" 
			},
			{
				"x": 3.26128324,
				"y": 2.5416913747,
				"z": -0.1120498249,
				"element": "H" 
			}
		],
		 "valence_orbital": [ 
			{
				"type": "occ",
				"energy": -0.30409,
				"method": "rhf"
			},
			{
				"type": "occ",
				"energy": -0.2968,
				"method": "rhf"
			},
			{
				"type": "occ",
				"energy": -0.29299,
				"method": "rhf"
			},
			{
				"type": "occ",
				"energy": -0.27687,
				"method": "rhf"
			},
			{
				"type": "occ",
				"energy": -0.26795,
				"method": "rhf"
			},
			{
				"type": "unocc",
				"energy": -0.11564,
				"method": "rhf"
			},
			{
				"type": "unocc",
				"energy": -0.10916,
				"method": "rhf"
			},
			{
				"type": "unocc",
				"energy": -0.08825,
				"method": "rhf"
			},
			{
				"type": "unocc",
				"energy": -0.08698,
				"method": "rhf"
			},
			{
				"type": "unocc",
				"energy": -0.05565,
				"method": "rhf"
			}
		],
		"cosmo_sigma_profile": { 
			"-0.025": 0.0,
			"-0.024": 0.0,
			"-0.023": 0.0,
			"-0.022": 0.0,
			"-0.021": 0.0,
			"-0.02": 0.0,
			"-0.019": 0.0,
			"-0.018": 0.0,
			"-0.017": 0.0,
			"-0.016": 0.0,
			"-0.015": 0.0,
			"-0.014": 0.0,
			"-0.013": 0.291861307885,
			"-0.012": 1.71439964113,
			"-0.011": 3.66551709348,
			"-0.01": 11.98484504,
			"-0.009": 23.2096917452,
			"-0.008": 17.5652270165,
			"-0.007": 17.2295993478,
			"-0.006": 19.8475146554,
			"-0.005": 22.197482242,
			"-0.004": 23.8101344309,
			"-0.003": 35.7286577823,
			"-0.002": 39.6068470931,
			"-0.001": 33.0881481736,
			"0.0": 27.9867808786,
			"0.001": 28.2547501789,
			"0.002": 28.981802116,
			"0.003": 29.7000286214,
			"0.004": 33.6110708539,
			"0.005": 36.1515936435,
			"0.006": 29.0796874304,
			"0.007": 22.8217655745,
			"0.008": 15.1679905509,
			"0.009": 10.2917168156,
			"0.01": 5.96099293931,
			"0.011": 4.68104568097,
			"0.012": 3.77135941704,
			"0.013": 0.287845119667,
			"0.014": 0.0,
			"0.015": 0.0,
			"0.016": 0.0,
			"0.017": 0.0,
			"0.018": 0.0,
			"0.019": 0.0,
			"0.02": 0.0,
			"0.021": 0.0,
			"0.022": 0.0,
			"0.023": 0.0,
			"0.024": 0.0,
			"0.025": 0.0
		}
	}
}
