{
	 "smiles": "OC1=CC=NC2=CC(=CC=C12)C(F)(F)F", 
	 "Tm": 541.15, 
	 "num_atms": 21, 
	 "gaussian": { 
		 "optdone": 1, 
		 "sigma_profile": "yes", 
		 "theory": "DFT", 
		 "functional": "B3LYP", 
		 "basiset": "6-31G**", 
		 "properties": { 
			 "R2extent": 4464.218, 
			 "electric_dipole_moment_norm": 3.46962220854, 
			 "electric_quadrupole_moment_norm": 7.27508131913, 
			 "total_energy": -814.185513313, 
			 "HOMO_LUMO_gap": 0.17626, 
			 "cosmo_polarized_energy": -11.54, 
			 "cosmo_cavitation_energy": 26.86, 
			 "cosmo_dispersion_energy": -19.69, 
			 "cosmo_repulsion_energy": 1.44, 
			 "cosmo_total_nonelectrostatic_energy": 8.62, 
			 "SMD_solvation_energy": 4.43 
		},
		"coords": [
			{
				"x": 1.9101731145,
				"y": 1.7478452693,
				"z": -0.9212787455,
				"element": "O" 
			},
			{
				"x": 0.7292415089,
				"y": 1.2981055189,
				"z": -1.410413342,
				"element": "C" 
			},
			{
				"x": 0.0697707021,
				"y": 2.0792165785,
				"z": -2.3386685488,
				"element": "C" 
			},
			{
				"x": -1.1600047612,
				"y": 1.626934705,
				"z": -2.858101034,
				"element": "C" 
			},
			{
				"x": -1.7497159641,
				"y": 0.4930157233,
				"z": -2.5251501714,
				"element": "N" 
			},
			{
				"x": -1.110564955,
				"y": -0.2881265578,
				"z": -1.6102587026,
				"element": "C" 
			},
			{
				"x": -1.7297207915,
				"y": -1.512414528,
				"z": -1.2392644183,
				"element": "C" 
			},
			{
				"x": -1.1392068612,
				"y": -2.3484524115,
				"z": -0.3214332107,
				"element": "C" 
			},
			{
				"x": 0.1015268589,
				"y": -2.0064202127,
				"z": 0.2750512309,
				"element": "C" 
			},
			{
				"x": 0.7235362647,
				"y": -0.8292864377,
				"z": -0.0641143136,
				"element": "C" 
			},
			{
				"x": 0.1422703445,
				"y": 0.0586271656,
				"z": -1.0087432294,
				"element": "C" 
			},
			{
				"x": -1.7840044001,
				"y": -3.6475537909,
				"z": 0.0798180197,
				"element": "C" 
			},
			{
				"x": -2.9553941465,
				"y": -3.8609789163,
				"z": -0.5499204562,
				"element": "F" 
			},
			{
				"x": -0.9765327572,
				"y": -4.6992237047,
				"z": -0.1934530161,
				"element": "F" 
			},
			{
				"x": -2.0245170493,
				"y": -3.6832850319,
				"z": 1.4115626283,
				"element": "F" 
			},
			{
				"x": 2.2734271618,
				"y": 1.1198901074,
				"z": -0.284433296,
				"element": "H" 
			},
			{
				"x": 0.5005947746,
				"y": 3.0224412485,
				"z": -2.6547616191,
				"element": "H" 
			},
			{
				"x": -1.6798194875,
				"y": 2.243441148,
				"z": -3.5902814806,
				"element": "H" 
			},
			{
				"x": -2.6767327163,
				"y": -1.7578142848,
				"z": -1.7045115041,
				"element": "H" 
			},
			{
				"x": 0.5529868765,
				"y": -2.678141873,
				"z": 0.9974067451,
				"element": "H" 
			},
			{
				"x": 1.6740862835,
				"y": -0.5955197153,
				"z": 0.4108484643,
				"element": "H" 
			}
		],
		 "valence_orbital": [ 
			{
				"type": "occ",
				"energy": -0.35523,
				"method": "rhf"
			},
			{
				"type": "occ",
				"energy": -0.29506,
				"method": "rhf"
			},
			{
				"type": "occ",
				"energy": -0.26789,
				"method": "rhf"
			},
			{
				"type": "occ",
				"energy": -0.26477,
				"method": "rhf"
			},
			{
				"type": "occ",
				"energy": -0.23836,
				"method": "rhf"
			},
			{
				"type": "unocc",
				"energy": -0.0621,
				"method": "rhf"
			},
			{
				"type": "unocc",
				"energy": -0.03649,
				"method": "rhf"
			},
			{
				"type": "unocc",
				"energy": 0.01287,
				"method": "rhf"
			},
			{
				"type": "unocc",
				"energy": 0.03859,
				"method": "rhf"
			},
			{
				"type": "unocc",
				"energy": 0.06685,
				"method": "rhf"
			}
		],
		"cosmo_sigma_profile": { 
			"-0.025": 0.0,
			"-0.024": 0.0,
			"-0.023": 0.0,
			"-0.022": 0.0,
			"-0.021": 0.0,
			"-0.02": 0.0,
			"-0.019": 0.541159982874,
			"-0.018": 1.03177082434,
			"-0.017": 0.902623236282,
			"-0.016": 1.381121398,
			"-0.015": 0.771503943398,
			"-0.014": 0.851784279658,
			"-0.013": 0.673134478274,
			"-0.012": 1.58273449978,
			"-0.011": 1.34646554578,
			"-0.01": 0.962552187618,
			"-0.009": 0.895754034853,
			"-0.008": 2.80801351446,
			"-0.007": 7.01794057357,
			"-0.006": 9.02561511854,
			"-0.005": 8.53261333426,
			"-0.004": 8.26628104687,
			"-0.003": 7.36071210403,
			"-0.002": 10.0298648306,
			"-0.001": 11.4194167965,
			"0.0": 18.8632690017,
			"0.001": 28.515490422,
			"0.002": 36.1167620026,
			"0.003": 31.7023029542,
			"0.004": 4.86234870259,
			"0.005": 3.2929596463,
			"0.006": 2.6959743274,
			"0.007": 1.99362711533,
			"0.008": 2.87563074822,
			"0.009": 2.9323467722,
			"0.01": 2.06413754021,
			"0.011": 1.40591446974,
			"0.012": 0.921634556701,
			"0.013": 0.539652639928,
			"0.014": 1.05787305603,
			"0.015": 0.848455615455,
			"0.016": 0.428391464518,
			"0.017": 0.0719558871619,
			"0.018": 0.0,
			"0.019": 0.0,
			"0.02": 0.0,
			"0.021": 0.0,
			"0.022": 0.0,
			"0.023": 0.0,
			"0.024": 0.0,
			"0.025": 0.0
		}
	}
}
