{
	 "smiles": "CC(C)(C)C1=CC2=CC=CC=C2C=C1", 
	 "Tm": 269.15, 
	 "num_atms": 30, 
	 "gaussian": { 
		 "optdone": 1, 
		 "sigma_profile": "yes", 
		 "theory": "DFT", 
		 "functional": "B3LYP", 
		 "basiset": "6-31G**", 
		 "properties": { 
			 "R2extent": 3485.276, 
			 "electric_dipole_moment_norm": 0.431864897856, 
			 "electric_quadrupole_moment_norm": 6.92314712829, 
			 "total_energy": -543.159394379, 
			 "HOMO_LUMO_gap": 0.17312, 
			 "cosmo_polarized_energy": -4.63, 
			 "cosmo_cavitation_energy": 31.19, 
			 "cosmo_dispersion_energy": -22.42, 
			 "cosmo_repulsion_energy": 1.73, 
			 "cosmo_total_nonelectrostatic_energy": 10.49, 
			 "SMD_solvation_energy": 5.12 
		},
		"coords": [
			{
				"x": -0.2078236853,
				"y": -0.1319502394,
				"z": -3.0331733313,
				"element": "C" 
			},
			{
				"x": 0.5041203677,
				"y": -0.9386954684,
				"z": -1.9300061181,
				"element": "C" 
			},
			{
				"x": -0.1299417559,
				"y": -2.3493002801,
				"z": -1.8824509187,
				"element": "C" 
			},
			{
				"x": 1.9980097504,
				"y": -1.0617202541,
				"z": -2.3137806668,
				"element": "C" 
			},
			{
				"x": 0.3834155005,
				"y": -0.2739170615,
				"z": -0.5438451346,
				"element": "C" 
			},
			{
				"x": 0.9640642175,
				"y": -0.8668285763,
				"z": 0.5652284705,
				"element": "C" 
			},
			{
				"x": 0.8853286607,
				"y": -0.2993058695,
				"z": 1.8625866272,
				"element": "C" 
			},
			{
				"x": 1.4844977821,
				"y": -0.9139827441,
				"z": 2.9972798585,
				"element": "C" 
			},
			{
				"x": 1.3905078447,
				"y": -0.3377816705,
				"z": 4.2434171754,
				"element": "C" 
			},
			{
				"x": 0.6915084668,
				"y": 0.8838186401,
				"z": 4.4175878174,
				"element": "C" 
			},
			{
				"x": 0.1006505855,
				"y": 1.5038726802,
				"z": 3.3403709728,
				"element": "C" 
			},
			{
				"x": 0.1799555444,
				"y": 0.9340586974,
				"z": 2.0404725752,
				"element": "C" 
			},
			{
				"x": -0.4111439454,
				"y": 1.5334383741,
				"z": 0.9002576723,
				"element": "C" 
			},
			{
				"x": -0.3129653641,
				"y": 0.9512392989,
				"z": -0.3445843797,
				"element": "C" 
			},
			{
				"x": 0.2153399936,
				"y": 0.8719431553,
				"z": -3.1435855527,
				"element": "H" 
			},
			{
				"x": -1.2808590065,
				"y": -0.0320788946,
				"z": -2.8389995537,
				"element": "H" 
			},
			{
				"x": -0.09399051,
				"y": -0.6439931644,
				"z": -3.994205644,
				"element": "H" 
			},
			{
				"x": -1.1909377446,
				"y": -2.2931663969,
				"z": -1.6176587339,
				"element": "H" 
			},
			{
				"x": -0.048870839,
				"y": -2.8377576043,
				"z": -2.8602924134,
				"element": "H" 
			},
			{
				"x": 0.3631390012,
				"y": -2.9918438524,
				"z": -1.1471460669,
				"element": "H" 
			},
			{
				"x": 2.4730231641,
				"y": -0.0762180163,
				"z": -2.3599128286,
				"element": "H" 
			},
			{
				"x": 2.1023602434,
				"y": -1.5358566877,
				"z": -3.2964685291,
				"element": "H" 
			},
			{
				"x": 2.5544633162,
				"y": -1.6660060073,
				"z": -1.5913572524,
				"element": "H" 
			},
			{
				"x": 1.5061829922,
				"y": -1.8034277596,
				"z": 0.4613596725,
				"element": "H" 
			},
			{
				"x": 2.0202451201,
				"y": -1.8505153912,
				"z": 2.862870047,
				"element": "H" 
			},
			{
				"x": 1.8527665677,
				"y": -0.8177827074,
				"z": 5.1013287627,
				"element": "H" 
			},
			{
				"x": 0.6250125777,
				"y": 1.3277124294,
				"z": 5.4067647883,
				"element": "H" 
			},
			{
				"x": -0.4362736114,
				"y": 2.4404925237,
				"z": 3.4690936404,
				"element": "H" 
			},
			{
				"x": -0.9502047685,
				"y": 2.4702262157,
				"z": 1.0197405237,
				"element": "H" 
			},
			{
				"x": -0.7814804662,
				"y": 1.447126631,
				"z": -1.1865914799,
				"element": "H" 
			}
		],
		 "valence_orbital": [ 
			{
				"type": "occ",
				"energy": -0.31178,
				"method": "rhf"
			},
			{
				"type": "occ",
				"energy": -0.3107,
				"method": "rhf"
			},
			{
				"type": "occ",
				"energy": -0.27697,
				"method": "rhf"
			},
			{
				"type": "occ",
				"energy": -0.23493,
				"method": "rhf"
			},
			{
				"type": "occ",
				"energy": -0.2078,
				"method": "rhf"
			},
			{
				"type": "unocc",
				"energy": -0.03468,
				"method": "rhf"
			},
			{
				"type": "unocc",
				"energy": -0.00249,
				"method": "rhf"
			},
			{
				"type": "unocc",
				"energy": 0.03669,
				"method": "rhf"
			},
			{
				"type": "unocc",
				"energy": 0.0834,
				"method": "rhf"
			},
			{
				"type": "unocc",
				"energy": 0.1005,
				"method": "rhf"
			}
		],
		"cosmo_sigma_profile": { 
			"-0.025": 0.0,
			"-0.024": 0.0,
			"-0.023": 0.0,
			"-0.022": 0.0,
			"-0.021": 0.0,
			"-0.02": 0.0,
			"-0.019": 0.0,
			"-0.018": 0.0,
			"-0.017": 0.0,
			"-0.016": 0.0,
			"-0.015": 0.0,
			"-0.014": 0.0,
			"-0.013": 0.0,
			"-0.012": 0.0,
			"-0.011": 0.0,
			"-0.01": 0.0,
			"-0.009": 0.0,
			"-0.008": 0.0,
			"-0.007": 0.0,
			"-0.006": 3.46785578021,
			"-0.005": 16.3566669234,
			"-0.004": 16.0131524101,
			"-0.003": 26.5084348884,
			"-0.002": 29.9786058483,
			"-0.001": 24.8444514927,
			"0.0": 21.4875842592,
			"0.001": 29.4864974923,
			"0.002": 18.4690227746,
			"0.003": 10.9532483673,
			"0.004": 17.0506022633,
			"0.005": 22.8710232081,
			"0.006": 8.02789984529,
			"0.007": 0.0,
			"0.008": 0.0,
			"0.009": 0.0,
			"0.01": 0.0,
			"0.011": 0.0,
			"0.012": 0.0,
			"0.013": 0.0,
			"0.014": 0.0,
			"0.015": 0.0,
			"0.016": 0.0,
			"0.017": 0.0,
			"0.018": 0.0,
			"0.019": 0.0,
			"0.02": 0.0,
			"0.021": 0.0,
			"0.022": 0.0,
			"0.023": 0.0,
			"0.024": 0.0,
			"0.025": 0.0
		}
	}
}
