{
	 "smiles": "C1SC2=NN=C(N2CN1C1=NC=CC=C1)C1=CN=CC=C1", 
	 "Tm": 552.15, 
	 "num_atms": 33, 
	 "gaussian": { 
		 "optdone": 1, 
		 "sigma_profile": "yes", 
		 "theory": "DFT", 
		 "functional": "B3LYP", 
		 "basiset": "6-31G**", 
		 "properties": { 
			 "R2extent": 7027.8796, 
			 "electric_dipole_moment_norm": 7.56777831401, 
			 "electric_quadrupole_moment_norm": 26.7060847402, 
			 "total_energy": -1267.37434872, 
			 "HOMO_LUMO_gap": 0.17064, 
			 "cosmo_polarized_energy": -26.17, 
			 "cosmo_cavitation_energy": 38.3, 
			 "cosmo_dispersion_energy": -27.59, 
			 "cosmo_repulsion_energy": 2.02, 
			 "cosmo_total_nonelectrostatic_energy": 12.74, 
			 "SMD_solvation_energy": 0.08 
		},
		"coords": [
			{
				"x": -1.2209952519,
				"y": 2.2650611319,
				"z": 0.0114731881,
				"element": "C" 
			},
			{
				"x": -0.4119694687,
				"y": 2.8390913159,
				"z": -1.5887710583,
				"element": "S" 
			},
			{
				"x": 0.2494547452,
				"y": 1.2880923253,
				"z": -2.103011122,
				"element": "C" 
			},
			{
				"x": 0.9905820411,
				"y": 1.1221690737,
				"z": -3.1759571397,
				"element": "N" 
			},
			{
				"x": 1.3644279107,
				"y": -0.2014627563,
				"z": -3.20950249,
				"element": "N" 
			},
			{
				"x": 0.8465103239,
				"y": -0.8061457164,
				"z": -2.160648859,
				"element": "C" 
			},
			{
				"x": 0.1178482977,
				"y": 0.1058258476,
				"z": -1.4108118315,
				"element": "N" 
			},
			{
				"x": -0.5595710271,
				"y": -0.0359348896,
				"z": -0.1111283502,
				"element": "C" 
			},
			{
				"x": -0.5076478906,
				"y": 1.186608175,
				"z": 0.6431496079,
				"element": "N" 
			},
			{
				"x": 0.6192600007,
				"y": 1.5007270067,
				"z": 1.4398472225,
				"element": "C" 
			},
			{
				"x": 0.5711118027,
				"y": 2.6971837239,
				"z": 2.0361399584,
				"element": "N" 
			},
			{
				"x": 1.5688689443,
				"y": 3.0430663402,
				"z": 2.8545363635,
				"element": "C" 
			},
			{
				"x": 2.6606972344,
				"y": 2.2240515891,
				"z": 3.1313165708,
				"element": "C" 
			},
			{
				"x": 2.7139172237,
				"y": 0.9853400492,
				"z": 2.4917252283,
				"element": "C" 
			},
			{
				"x": 1.6917657831,
				"y": 0.6096392969,
				"z": 1.6260467247,
				"element": "C" 
			},
			{
				"x": 1.0412471296,
				"y": -2.2221487711,
				"z": -1.8391360893,
				"element": "C" 
			},
			{
				"x": 2.2639464632,
				"y": -2.8323517972,
				"z": -2.1849382768,
				"element": "C" 
			},
			{
				"x": 2.545707554,
				"y": -4.115836123,
				"z": -1.9599259285,
				"element": "N" 
			},
			{
				"x": 1.6058987126,
				"y": -4.864539011,
				"z": -1.3650480601,
				"element": "C" 
			},
			{
				"x": 0.3581289219,
				"y": -4.3703194854,
				"z": -0.9866032851,
				"element": "C" 
			},
			{
				"x": 0.0678594436,
				"y": -3.0302029471,
				"z": -1.2342215883,
				"element": "C" 
			},
			{
				"x": -2.2406604861,
				"y": 1.945816092,
				"z": -0.2113222054,
				"element": "H" 
			},
			{
				"x": -1.2234128222,
				"y": 3.1355732931,
				"z": 0.6625584698,
				"element": "H" 
			},
			{
				"x": -0.1004828107,
				"y": -0.8555955153,
				"z": 0.4392261062,
				"element": "H" 
			},
			{
				"x": -1.6124230748,
				"y": -0.2882780514,
				"z": -0.2800790296,
				"element": "H" 
			},
			{
				"x": 1.4852026124,
				"y": 4.0279450475,
				"z": 3.310088308,
				"element": "H" 
			},
			{
				"x": 3.4436438197,
				"y": 2.5512129327,
				"z": 3.8063008241,
				"element": "H" 
			},
			{
				"x": 3.5544321103,
				"y": 0.3160782749,
				"z": 2.649957944,
				"element": "H" 
			},
			{
				"x": 1.7571051162,
				"y": -0.3336320439,
				"z": 1.0983033912,
				"element": "H" 
			},
			{
				"x": 3.0314429327,
				"y": -2.2334877964,
				"z": -2.6685915489,
				"element": "H" 
			},
			{
				"x": 1.8628175695,
				"y": -5.907301286,
				"z": -1.18874503,
				"element": "H" 
			},
			{
				"x": -0.3749986192,
				"y": -5.0232100898,
				"z": -0.5236740329,
				"element": "H" 
			},
			{
				"x": -0.9134152418,
				"y": -2.633935236,
				"z": -0.9906539821,
				"element": "H" 
			}
		],
		 "valence_orbital": [ 
			{
				"type": "occ",
				"energy": -0.27205,
				"method": "rhf"
			},
			{
				"type": "occ",
				"energy": -0.26372,
				"method": "rhf"
			},
			{
				"type": "occ",
				"energy": -0.25383,
				"method": "rhf"
			},
			{
				"type": "occ",
				"energy": -0.23851,
				"method": "rhf"
			},
			{
				"type": "occ",
				"energy": -0.21843,
				"method": "rhf"
			},
			{
				"type": "unocc",
				"energy": -0.04779,
				"method": "rhf"
			},
			{
				"type": "unocc",
				"energy": -0.03833,
				"method": "rhf"
			},
			{
				"type": "unocc",
				"energy": -0.03336,
				"method": "rhf"
			},
			{
				"type": "unocc",
				"energy": -0.02168,
				"method": "rhf"
			},
			{
				"type": "unocc",
				"energy": 0.01329,
				"method": "rhf"
			}
		],
		"cosmo_sigma_profile": { 
			"-0.025": 0.0,
			"-0.024": 0.0,
			"-0.023": 0.0,
			"-0.022": 0.0,
			"-0.021": 0.0,
			"-0.02": 0.0,
			"-0.019": 0.0,
			"-0.018": 0.0,
			"-0.017": 0.0,
			"-0.016": 0.0,
			"-0.015": 0.0,
			"-0.014": 0.0,
			"-0.013": 0.0,
			"-0.012": 0.0,
			"-0.011": 1.13876909526,
			"-0.01": 6.29701318812,
			"-0.009": 9.16887604884,
			"-0.008": 9.51869924342,
			"-0.007": 17.3469185766,
			"-0.006": 21.8890822179,
			"-0.005": 20.1502606241,
			"-0.004": 16.4163336012,
			"-0.003": 15.39493372,
			"-0.002": 15.5600755342,
			"-0.001": 15.088626808,
			"0.0": 16.9801127795,
			"0.001": 25.2318717014,
			"0.002": 26.8398982272,
			"0.003": 20.6293354977,
			"0.004": 13.3541422338,
			"0.005": 10.6783881254,
			"0.006": 8.39566862573,
			"0.007": 7.06773393932,
			"0.008": 4.12117361358,
			"0.009": 4.16693543956,
			"0.01": 3.80228588084,
			"0.011": 4.22969084809,
			"0.012": 3.75315683279,
			"0.013": 3.65524088269,
			"0.014": 4.22888464648,
			"0.015": 3.20356945269,
			"0.016": 2.33327638321,
			"0.017": 0.192671177663,
			"0.018": 0.0,
			"0.019": 0.0,
			"0.02": 0.0,
			"0.021": 0.0,
			"0.022": 0.0,
			"0.023": 0.0,
			"0.024": 0.0,
			"0.025": 0.0
		}
	}
}
