{
	 "smiles": "CC1=CC(C)=C(O)C=C1O", 
	 "Tm": 399.15, 
	 "num_atms": 20, 
	 "gaussian": { 
		 "optdone": 1, 
		 "sigma_profile": "yes", 
		 "theory": "DFT", 
		 "functional": "B3LYP", 
		 "basiset": "6-31G**", 
		 "properties": { 
			 "R2extent": 1761.2371, 
			 "electric_dipole_moment_norm": 1.23052828899, 
			 "electric_quadrupole_moment_norm": 7.14588959962, 
			 "total_energy": -461.331360849, 
			 "HOMO_LUMO_gap": 0.21287, 
			 "cosmo_polarized_energy": -11.05, 
			 "cosmo_cavitation_energy": 23.11, 
			 "cosmo_dispersion_energy": -17.27, 
			 "cosmo_repulsion_energy": 1.4, 
			 "cosmo_total_nonelectrostatic_energy": 7.24, 
			 "SMD_solvation_energy": 4.56 
		},
		"coords": [
			{
				"x": 2.2121954614,
				"y": 1.0824219298,
				"z": -2.7473302898,
				"element": "C" 
			},
			{
				"x": 1.2775280556,
				"y": 0.4807460919,
				"z": -1.7290077347,
				"element": "C" 
			},
			{
				"x": 1.17969296,
				"y": 0.9644794393,
				"z": -0.4237654417,
				"element": "C" 
			},
			{
				"x": 0.3196997279,
				"y": 0.42285049,
				"z": 0.53961657,
				"element": "C" 
			},
			{
				"x": 0.2447637539,
				"y": 0.9773567888,
				"z": 1.9429242565,
				"element": "C" 
			},
			{
				"x": -0.4793122084,
				"y": -0.6647059307,
				"z": 0.1534410062,
				"element": "C" 
			},
			{
				"x": -1.3568052818,
				"y": -1.2745675294,
				"z": 1.0109237833,
				"element": "O" 
			},
			{
				"x": -0.4114080771,
				"y": -1.1786247017,
				"z": -1.1432284375,
				"element": "C" 
			},
			{
				"x": 0.4587723479,
				"y": -0.6095245585,
				"z": -2.0717506116,
				"element": "C" 
			},
			{
				"x": 0.5586228277,
				"y": -1.0806858173,
				"z": -3.3544350298,
				"element": "O" 
			},
			{
				"x": 2.7714129242,
				"y": 1.9173548189,
				"z": -2.3160106345,
				"element": "H" 
			},
			{
				"x": 1.6674660797,
				"y": 1.4519751845,
				"z": -3.623589501,
				"element": "H" 
			},
			{
				"x": 2.9320221734,
				"y": 0.3436506714,
				"z": -3.1177360972,
				"element": "H" 
			},
			{
				"x": 1.8055168537,
				"y": 1.8080988239,
				"z": -0.1393606636,
				"element": "H" 
			},
			{
				"x": -0.7589908962,
				"y": 1.3494662602,
				"z": 2.1929326116,
				"element": "H" 
			},
			{
				"x": 0.9329309595,
				"y": 1.8176649145,
				"z": 2.0634202808,
				"element": "H" 
			},
			{
				"x": 0.517140116,
				"y": 0.2312373387,
				"z": 2.7029342338,
				"element": "H" 
			},
			{
				"x": -1.3159638127,
				"y": -0.8361901286,
				"z": 1.8698442933,
				"element": "H" 
			},
			{
				"x": -1.0454098788,
				"y": -2.0214986488,
				"z": -1.4056644328,
				"element": "H" 
			},
			{
				"x": -0.0487740859,
				"y": -1.8234054369,
				"z": -3.4638581614,
				"element": "H" 
			}
		],
		 "valence_orbital": [ 
			{
				"type": "occ",
				"energy": -0.34355,
				"method": "rhf"
			},
			{
				"type": "occ",
				"energy": -0.3342,
				"method": "rhf"
			},
			{
				"type": "occ",
				"energy": -0.29807,
				"method": "rhf"
			},
			{
				"type": "occ",
				"energy": -0.22553,
				"method": "rhf"
			},
			{
				"type": "occ",
				"energy": -0.19862,
				"method": "rhf"
			},
			{
				"type": "unocc",
				"energy": 0.01425,
				"method": "rhf"
			},
			{
				"type": "unocc",
				"energy": 0.02586,
				"method": "rhf"
			},
			{
				"type": "unocc",
				"energy": 0.06665,
				"method": "rhf"
			},
			{
				"type": "unocc",
				"energy": 0.07704,
				"method": "rhf"
			},
			{
				"type": "unocc",
				"energy": 0.11433,
				"method": "rhf"
			}
		],
		"cosmo_sigma_profile": { 
			"-0.025": 0.0,
			"-0.024": 0.0,
			"-0.023": 0.0,
			"-0.022": 0.0,
			"-0.021": 0.0,
			"-0.02": 0.0,
			"-0.019": 0.0,
			"-0.018": 0.0906376550574,
			"-0.017": 0.822814559285,
			"-0.016": 1.51296944454,
			"-0.015": 1.42779206742,
			"-0.014": 1.57272290767,
			"-0.013": 2.36215033582,
			"-0.012": 1.26850140777,
			"-0.011": 1.91924728097,
			"-0.01": 2.10774104759,
			"-0.009": 3.29764916952,
			"-0.008": 2.50280912507,
			"-0.007": 2.2202842982,
			"-0.006": 2.50806619846,
			"-0.005": 7.32687488452,
			"-0.004": 11.9937527109,
			"-0.003": 13.6481953695,
			"-0.002": 10.9493374933,
			"-0.001": 13.789032708,
			"0.0": 16.5647448521,
			"0.001": 12.1833997222,
			"0.002": 7.5871499417,
			"0.003": 9.11621310373,
			"0.004": 11.3717199295,
			"0.005": 13.1915216886,
			"0.006": 11.6139991004,
			"0.007": 4.43792829013,
			"0.008": 2.88466585853,
			"0.009": 3.00069583339,
			"0.01": 3.60468842167,
			"0.011": 3.43649109266,
			"0.012": 1.46120952595,
			"0.013": 0.0,
			"0.014": 0.0,
			"0.015": 0.0,
			"0.016": 0.0,
			"0.017": 0.0,
			"0.018": 0.0,
			"0.019": 0.0,
			"0.02": 0.0,
			"0.021": 0.0,
			"0.022": 0.0,
			"0.023": 0.0,
			"0.024": 0.0,
			"0.025": 0.0
		}
	}
}
