{
	 "smiles": "NC(=O)C1=C(Cl)C=C(N)C=C1", 
	 "Tm": 437.15, 
	 "num_atms": 18, 
	 "gaussian": { 
		 "optdone": 1, 
		 "sigma_profile": "yes", 
		 "theory": "DFT", 
		 "functional": "B3LYP", 
		 "basiset": "6-31G**", 
		 "properties": { 
			 "R2extent": 2394.8988, 
			 "electric_dipole_moment_norm": 4.1747697182, 
			 "electric_quadrupole_moment_norm": 19.582173706, 
			 "total_energy": -915.903904986, 
			 "HOMO_LUMO_gap": 0.19197, 
			 "cosmo_polarized_energy": -15.98, 
			 "cosmo_cavitation_energy": 23.71, 
			 "cosmo_dispersion_energy": -18.13, 
			 "cosmo_repulsion_energy": 1.46, 
			 "cosmo_total_nonelectrostatic_energy": 7.04, 
			 "SMD_solvation_energy": 4.47 
		},
		"coords": [
			{
				"x": -1.7176361553,
				"y": 2.5593580547,
				"z": 0.2170565682,
				"element": "N" 
			},
			{
				"x": -0.3811540864,
				"y": 2.3872908095,
				"z": 0.4070545091,
				"element": "C" 
			},
			{
				"x": 0.2593229793,
				"y": 3.1717685903,
				"z": 1.1045122409,
				"element": "O" 
			},
			{
				"x": 0.3233742492,
				"y": 1.2324766145,
				"z": -0.2690210975,
				"element": "C" 
			},
			{
				"x": -0.1900794971,
				"y": 0.1375595769,
				"z": -0.9869239737,
				"element": "C" 
			},
			{
				"x": -1.927038898,
				"y": -0.1339890477,
				"z": -1.2442333145,
				"element": "Cl" 
			},
			{
				"x": 0.6257050417,
				"y": -0.844103018,
				"z": -1.5418327549,
				"element": "C" 
			},
			{
				"x": 2.021268144,
				"y": -0.7734135739,
				"z": -1.4059986529,
				"element": "C" 
			},
			{
				"x": 2.8380621681,
				"y": -1.7184495911,
				"z": -2.0031413558,
				"element": "N" 
			},
			{
				"x": 2.5623749013,
				"y": 0.3099723937,
				"z": -0.6896046559,
				"element": "C" 
			},
			{
				"x": 1.7271141931,
				"y": 1.2673551248,
				"z": -0.1453159029,
				"element": "C" 
			},
			{
				"x": -2.1350932344,
				"y": 3.3450154504,
				"z": 0.69104668,
				"element": "H" 
			},
			{
				"x": -2.2871506686,
				"y": 1.9420916201,
				"z": -0.336308984,
				"element": "H" 
			},
			{
				"x": 0.1727118253,
				"y": -1.6670513399,
				"z": -2.0844016135,
				"element": "H" 
			},
			{
				"x": 2.4163945771,
				"y": -2.6070544288,
				"z": -2.2302467495,
				"element": "H" 
			},
			{
				"x": 3.7732694847,
				"y": -1.8021530464,
				"z": -1.6324476838,
				"element": "H" 
			},
			{
				"x": 3.6388750972,
				"y": 0.3931359487,
				"z": -0.5671816517,
				"element": "H" 
			},
			{
				"x": 2.1329798788,
				"y": 2.1009898622,
				"z": 0.4167883925,
				"element": "H" 
			}
		],
		 "valence_orbital": [ 
			{
				"type": "occ",
				"energy": -0.30897,
				"method": "rhf"
			},
			{
				"type": "occ",
				"energy": -0.25601,
				"method": "rhf"
			},
			{
				"type": "occ",
				"energy": -0.25342,
				"method": "rhf"
			},
			{
				"type": "occ",
				"energy": -0.24531,
				"method": "rhf"
			},
			{
				"type": "occ",
				"energy": -0.21928,
				"method": "rhf"
			},
			{
				"type": "unocc",
				"energy": -0.02731,
				"method": "rhf"
			},
			{
				"type": "unocc",
				"energy": -0.01196,
				"method": "rhf"
			},
			{
				"type": "unocc",
				"energy": 0.01706,
				"method": "rhf"
			},
			{
				"type": "unocc",
				"energy": 0.0632,
				"method": "rhf"
			},
			{
				"type": "unocc",
				"energy": 0.07893,
				"method": "rhf"
			}
		],
		"cosmo_sigma_profile": { 
			"-0.025": 0.0,
			"-0.024": 0.0,
			"-0.023": 0.0,
			"-0.022": 0.0,
			"-0.021": 0.0,
			"-0.02": 0.0,
			"-0.019": 0.0,
			"-0.018": 0.0,
			"-0.017": 0.0,
			"-0.016": 0.0,
			"-0.015": 0.0,
			"-0.014": 0.89417077,
			"-0.013": 4.13251257901,
			"-0.012": 4.06229143338,
			"-0.011": 4.54527230758,
			"-0.01": 5.04111812866,
			"-0.009": 5.86092291113,
			"-0.008": 4.36144130214,
			"-0.007": 5.78533717326,
			"-0.006": 5.79057334805,
			"-0.005": 4.9760432711,
			"-0.004": 7.55649580347,
			"-0.003": 8.47167806669,
			"-0.002": 7.53911710492,
			"-0.001": 9.92631908296,
			"0.0": 10.6307713487,
			"0.001": 14.421071437,
			"0.002": 16.3230328645,
			"0.003": 21.3017243036,
			"0.004": 19.3394361609,
			"0.005": 5.47095005842,
			"0.006": 2.62874914899,
			"0.007": 2.38548498523,
			"0.008": 2.47724384018,
			"0.009": 2.00901083939,
			"0.01": 1.39614231303,
			"0.011": 1.74927551579,
			"0.012": 2.88637653158,
			"0.013": 2.66404008696,
			"0.014": 5.38219003066,
			"0.015": 1.08316609771,
			"0.016": 0.0,
			"0.017": 0.0,
			"0.018": 0.0,
			"0.019": 0.0,
			"0.02": 0.0,
			"0.021": 0.0,
			"0.022": 0.0,
			"0.023": 0.0,
			"0.024": 0.0,
			"0.025": 0.0
		}
	}
}
