{
	 "smiles": "COC1=C(OC)C=C(C=C1)C1=NN=C(S)O1", 
	 "Tm": 525.15, 
	 "num_atms": 26, 
	 "gaussian": { 
		 "optdone": 1, 
		 "sigma_profile": "yes", 
		 "theory": "DFT", 
		 "functional": "B3LYP", 
		 "basiset": "6-31G**", 
		 "properties": { 
			 "R2extent": 6862.0504, 
			 "electric_dipole_moment_norm": 2.95368332934, 
			 "electric_quadrupole_moment_norm": 28.3273986656, 
			 "total_energy": -1120.38363047, 
			 "HOMO_LUMO_gap": 0.16979, 
			 "cosmo_polarized_energy": -14.26, 
			 "cosmo_cavitation_energy": 32.95, 
			 "cosmo_dispersion_energy": -24.5, 
			 "cosmo_repulsion_energy": 1.87, 
			 "cosmo_total_nonelectrostatic_energy": 10.32, 
			 "SMD_solvation_energy": 5.3 
		},
		"coords": [
			{
				"x": 1.5560652438,
				"y": -1.6393317723,
				"z": 3.4547529801,
				"element": "C" 
			},
			{
				"x": 1.0649064295,
				"y": -1.9061311723,
				"z": 2.1360339233,
				"element": "O" 
			},
			{
				"x": 0.2807427752,
				"y": -0.9461805417,
				"z": 1.5588990577,
				"element": "C" 
			},
			{
				"x": 0.7734920365,
				"y": 0.3471249466,
				"z": 1.2462933016,
				"element": "C" 
			},
			{
				"x": 2.068958297,
				"y": 0.5961406261,
				"z": 1.5892091576,
				"element": "O" 
			},
			{
				"x": 2.6190707025,
				"y": 1.8646733224,
				"z": 1.2561351712,
				"element": "C" 
			},
			{
				"x": -0.0597202542,
				"y": 1.2620729861,
				"z": 0.6091030701,
				"element": "C" 
			},
			{
				"x": -1.3752996675,
				"y": 0.9040251013,
				"z": 0.2597501805,
				"element": "C" 
			},
			{
				"x": -1.8544440007,
				"y": -0.3771771397,
				"z": 0.5494413471,
				"element": "C" 
			},
			{
				"x": -1.0218395091,
				"y": -1.2863138077,
				"z": 1.2005024771,
				"element": "C" 
			},
			{
				"x": -2.2052019947,
				"y": 1.8963723163,
				"z": -0.4071203354,
				"element": "C" 
			},
			{
				"x": -1.911111587,
				"y": 3.1217565994,
				"z": -0.7281209741,
				"element": "N" 
			},
			{
				"x": -3.0282918952,
				"y": 3.6554138485,
				"z": -1.3725778419,
				"element": "N" 
			},
			{
				"x": -3.9158168095,
				"y": 2.7129410736,
				"z": -1.378041273,
				"element": "C" 
			},
			{
				"x": -5.5593287896,
				"y": 2.8251265351,
				"z": -1.9865359843,
				"element": "S" 
			},
			{
				"x": -3.4849168318,
				"y": 1.5628702493,
				"z": -0.7867460469,
				"element": "O" 
			},
			{
				"x": 2.0918038974,
				"y": -2.5397567524,
				"z": 3.7609032284,
				"element": "H" 
			},
			{
				"x": 2.2352026012,
				"y": -0.7836372801,
				"z": 3.4668677671,
				"element": "H" 
			},
			{
				"x": 0.7250280855,
				"y": -1.4606183661,
				"z": 4.1488474228,
				"element": "H" 
			},
			{
				"x": 3.6543173073,
				"y": 1.8400084058,
				"z": 1.5985658574,
				"element": "H" 
			},
			{
				"x": 2.0879714732,
				"y": 2.6806346521,
				"z": 1.7616182594,
				"element": "H" 
			},
			{
				"x": 2.5982660964,
				"y": 2.0380211486,
				"z": 0.1734595422,
				"element": "H" 
			},
			{
				"x": 0.284836743,
				"y": 2.2570085898,
				"z": 0.3580627532,
				"element": "H" 
			},
			{
				"x": -2.866112974,
				"y": -0.657555627,
				"z": 0.2793008328,
				"element": "H" 
			},
			{
				"x": -1.3647729096,
				"y": -2.2871312764,
				"z": 1.4410594069,
				"element": "H" 
			},
			{
				"x": -5.7371044656,
				"y": 1.4926433346,
				"z": -2.0773632811,
				"element": "H" 
			}
		],
		 "valence_orbital": [ 
			{
				"type": "occ",
				"energy": -0.28762,
				"method": "rhf"
			},
			{
				"type": "occ",
				"energy": -0.27978,
				"method": "rhf"
			},
			{
				"type": "occ",
				"energy": -0.26544,
				"method": "rhf"
			},
			{
				"type": "occ",
				"energy": -0.24227,
				"method": "rhf"
			},
			{
				"type": "occ",
				"energy": -0.21835,
				"method": "rhf"
			},
			{
				"type": "unocc",
				"energy": -0.04856,
				"method": "rhf"
			},
			{
				"type": "unocc",
				"energy": -0.00656,
				"method": "rhf"
			},
			{
				"type": "unocc",
				"energy": -0.00198,
				"method": "rhf"
			},
			{
				"type": "unocc",
				"energy": 0.01692,
				"method": "rhf"
			},
			{
				"type": "unocc",
				"energy": 0.04998,
				"method": "rhf"
			}
		],
		"cosmo_sigma_profile": { 
			"-0.025": 0.0,
			"-0.024": 0.0,
			"-0.023": 0.0,
			"-0.022": 0.0,
			"-0.021": 0.0,
			"-0.02": 0.0,
			"-0.019": 0.0,
			"-0.018": 0.0,
			"-0.017": 0.0,
			"-0.016": 0.0,
			"-0.015": 0.0,
			"-0.014": 0.0949603957656,
			"-0.013": 1.91133302929,
			"-0.012": 1.71027784671,
			"-0.011": 1.95701803707,
			"-0.01": 1.04523264214,
			"-0.009": 1.60205769697,
			"-0.008": 1.66239522439,
			"-0.007": 3.98625748204,
			"-0.006": 14.1737056145,
			"-0.005": 18.9813832279,
			"-0.004": 21.3158329107,
			"-0.003": 25.5374319673,
			"-0.002": 21.3518212207,
			"-0.001": 17.7170036182,
			"0.0": 19.8337776731,
			"0.001": 18.9996231743,
			"0.002": 22.1792046667,
			"0.003": 19.6709217926,
			"0.004": 10.4133811894,
			"0.005": 7.20530326292,
			"0.006": 5.82512749939,
			"0.007": 3.15260399311,
			"0.008": 4.35554507987,
			"0.009": 4.95839155388,
			"0.01": 4.69988363389,
			"0.011": 4.86798341616,
			"0.012": 3.12223263748,
			"0.013": 2.24610737285,
			"0.014": 1.85954673291,
			"0.015": 0.258076918625,
			"0.016": 0.0,
			"0.017": 0.0,
			"0.018": 0.0,
			"0.019": 0.0,
			"0.02": 0.0,
			"0.021": 0.0,
			"0.022": 0.0,
			"0.023": 0.0,
			"0.024": 0.0,
			"0.025": 0.0
		}
	}
}
