{
	 "smiles": "COC1=CC(O)=C2C(=O)C(O)=C(OC2=C1)C1=CC=C(OCC2=CC=CC=C2)C(O)=C1", 
	 "Tm": 481.15, 
	 "num_atms": 48, 
	 "gaussian": { 
		 "optdone": 1, 
		 "sigma_profile": "yes", 
		 "theory": "DFT", 
		 "functional": "B3LYP", 
		 "basiset": "6-31G**", 
		 "properties": { 
			 "R2extent": 18188.3843, 
			 "electric_dipole_moment_norm": 5.1141415174, 
			 "electric_quadrupole_moment_norm": 29.6465056873, 
			 "total_energy": -1413.84608366, 
			 "HOMO_LUMO_gap": 0.13549, 
			 "cosmo_polarized_energy": -19.54, 
			 "cosmo_cavitation_energy": 52.72, 
			 "cosmo_dispersion_energy": -37.65, 
			 "cosmo_repulsion_energy": 2.78, 
			 "cosmo_total_nonelectrostatic_energy": 17.86, 
			 "SMD_solvation_energy": 11.07 
		},
		"coords": [
			{
				"x": -3.4334237821,
				"y": -5.9625289406,
				"z": -0.6115087905,
				"element": "C" 
			},
			{
				"x": -2.4442052233,
				"y": -6.3296709016,
				"z": 0.3408291428,
				"element": "O" 
			},
			{
				"x": -1.38552498,
				"y": -5.5043139085,
				"z": 0.5353486371,
				"element": "C" 
			},
			{
				"x": -0.458610166,
				"y": -5.9525980871,
				"z": 1.4957312726,
				"element": "C" 
			},
			{
				"x": 0.6650597249,
				"y": -5.1915100646,
				"z": 1.77908776,
				"element": "C" 
			},
			{
				"x": 1.5534439181,
				"y": -5.6103072484,
				"z": 2.6919010331,
				"element": "O" 
			},
			{
				"x": 0.873546014,
				"y": -3.9564891963,
				"z": 1.0933029476,
				"element": "C" 
			},
			{
				"x": 2.0168159136,
				"y": -3.1313133651,
				"z": 1.3465215917,
				"element": "C" 
			},
			{
				"x": 2.9274673546,
				"y": -3.4032949616,
				"z": 2.1762205529,
				"element": "O" 
			},
			{
				"x": 2.1203482515,
				"y": -1.8970951421,
				"z": 0.5865737134,
				"element": "C" 
			},
			{
				"x": 3.2193588611,
				"y": -1.1574551448,
				"z": 0.8671148471,
				"element": "O" 
			},
			{
				"x": 1.1666869874,
				"y": -1.540088654,
				"z": -0.3307923805,
				"element": "C" 
			},
			{
				"x": 0.0883355906,
				"y": -2.3736200159,
				"z": -0.5314519275,
				"element": "O" 
			},
			{
				"x": -0.0733249121,
				"y": -3.5433182224,
				"z": 0.1430656272,
				"element": "C" 
			},
			{
				"x": -1.2088361067,
				"y": -4.2975866732,
				"z": -0.1534380546,
				"element": "C" 
			},
			{
				"x": 1.1154704297,
				"y": -0.3433372632,
				"z": -1.1740555863,
				"element": "C" 
			},
			{
				"x": 2.1262250141,
				"y": 0.6353938076,
				"z": -1.1451695839,
				"element": "C" 
			},
			{
				"x": 2.028176661,
				"y": 1.7598260556,
				"z": -1.9593687309,
				"element": "C" 
			},
			{
				"x": 0.9514547493,
				"y": 1.94976924,
				"z": -2.8252573513,
				"element": "C" 
			},
			{
				"x": 0.9563264535,
				"y": 3.035858437,
				"z": -3.6592414407,
				"element": "O" 
			},
			{
				"x": -0.1438763138,
				"y": 3.9689665985,
				"z": -3.5556763565,
				"element": "C" 
			},
			{
				"x": -0.1013729783,
				"y": 4.7800538162,
				"z": -2.2810044752,
				"element": "C" 
			},
			{
				"x": -1.171968013,
				"y": 4.757348479,
				"z": -1.3815246602,
				"element": "C" 
			},
			{
				"x": -1.1348722892,
				"y": 5.5172374682,
				"z": -0.2095967822,
				"element": "C" 
			},
			{
				"x": -0.0179188423,
				"y": 6.3015244485,
				"z": 0.0773140895,
				"element": "C" 
			},
			{
				"x": 1.060736856,
				"y": 6.3253020842,
				"z": -0.8121532718,
				"element": "C" 
			},
			{
				"x": 1.0173514882,
				"y": 5.5713263958,
				"z": -1.9831128698,
				"element": "C" 
			},
			{
				"x": -0.0562156159,
				"y": 0.9631536157,
				"z": -2.8722124715,
				"element": "C" 
			},
			{
				"x": -1.0901380573,
				"y": 1.1465220691,
				"z": -3.7523224762,
				"element": "O" 
			},
			{
				"x": 0.0280192841,
				"y": -0.155603094,
				"z": -2.0510964559,
				"element": "C" 
			},
			{
				"x": -3.9183981069,
				"y": -5.0161105391,
				"z": -0.3426400068,
				"element": "H" 
			},
			{
				"x": -4.1733976292,
				"y": -6.7635351457,
				"z": -0.5967935636,
				"element": "H" 
			},
			{
				"x": -3.009304121,
				"y": -5.8793324222,
				"z": -1.6196479768,
				"element": "H" 
			},
			{
				"x": -0.6293934784,
				"y": -6.8913707635,
				"z": 2.0079402381,
				"element": "H" 
			},
			{
				"x": 2.2688852282,
				"y": -4.9276048534,
				"z": 2.7382405124,
				"element": "H" 
			},
			{
				"x": 3.6825482295,
				"y": -1.6857744404,
				"z": 1.5518800994,
				"element": "H" 
			},
			{
				"x": -1.907386364,
				"y": -3.9349421272,
				"z": -0.8942793232,
				"element": "H" 
			},
			{
				"x": 2.9742658408,
				"y": 0.5217708023,
				"z": -0.4856446589,
				"element": "H" 
			},
			{
				"x": 2.7990276474,
				"y": 2.5227027554,
				"z": -1.9409804458,
				"element": "H" 
			},
			{
				"x": -1.0971909852,
				"y": 3.4440268153,
				"z": -3.6548344526,
				"element": "H" 
			},
			{
				"x": -0.0139037934,
				"y": 4.6133514009,
				"z": -4.4302325675,
				"element": "H" 
			},
			{
				"x": -2.0409242027,
				"y": 4.141466783,
				"z": -1.6004803927,
				"element": "H" 
			},
			{
				"x": -1.9745431231,
				"y": 5.4911657312,
				"z": 0.4792143043,
				"element": "H" 
			},
			{
				"x": 0.0148895105,
				"y": 6.8913451763,
				"z": 0.9889418409,
				"element": "H" 
			},
			{
				"x": 1.9327522307,
				"y": 6.9349816864,
				"z": -0.5925284441,
				"element": "H" 
			},
			{
				"x": 1.856150148,
				"y": 5.5872688104,
				"z": -2.6740426648,
				"element": "H" 
			},
			{
				"x": -1.6863903983,
				"y": 0.3889107667,
				"z": -3.6928335854,
				"element": "H" 
			},
			{
				"x": -0.7565229046,
				"y": -0.9039720686,
				"z": -2.0993064625,
				"element": "H" 
			}
		],
		 "valence_orbital": [ 
			{
				"type": "occ",
				"energy": -0.24728,
				"method": "rhf"
			},
			{
				"type": "occ",
				"energy": -0.24327,
				"method": "rhf"
			},
			{
				"type": "occ",
				"energy": -0.23818,
				"method": "rhf"
			},
			{
				"type": "occ",
				"energy": -0.22619,
				"method": "rhf"
			},
			{
				"type": "occ",
				"energy": -0.2036,
				"method": "rhf"
			},
			{
				"type": "unocc",
				"energy": -0.06811,
				"method": "rhf"
			},
			{
				"type": "unocc",
				"energy": -0.0213,
				"method": "rhf"
			},
			{
				"type": "unocc",
				"energy": -0.0098,
				"method": "rhf"
			},
			{
				"type": "unocc",
				"energy": -0.00374,
				"method": "rhf"
			},
			{
				"type": "unocc",
				"energy": 0.00329,
				"method": "rhf"
			}
		],
		"cosmo_sigma_profile": { 
			"-0.025": 0.0,
			"-0.024": 0.0,
			"-0.023": 0.0,
			"-0.022": 0.0,
			"-0.021": 0.0,
			"-0.02": 0.0,
			"-0.019": 0.0,
			"-0.018": 0.973851780457,
			"-0.017": 0.977373361386,
			"-0.016": 1.15307013515,
			"-0.015": 1.61854242517,
			"-0.014": 0.515063917375,
			"-0.013": 1.14465996228,
			"-0.012": 1.38565840096,
			"-0.011": 1.12580544464,
			"-0.01": 2.35338435242,
			"-0.009": 1.46525495844,
			"-0.008": 2.3013613755,
			"-0.007": 6.03867451011,
			"-0.006": 19.2865118384,
			"-0.005": 30.0352519867,
			"-0.004": 33.0059456344,
			"-0.003": 31.7988107786,
			"-0.002": 28.2028215893,
			"-0.001": 27.1222958807,
			"0.0": 30.6587782267,
			"0.001": 33.5103972862,
			"0.002": 36.7801646216,
			"0.003": 35.9547896618,
			"0.004": 28.1577619873,
			"0.005": 21.6384240786,
			"0.006": 12.1761893761,
			"0.007": 7.12785268918,
			"0.008": 8.07552281792,
			"0.009": 7.70110087228,
			"0.01": 6.44999523535,
			"0.011": 3.28062653411,
			"0.012": 0.524024632944,
			"0.013": 0.0,
			"0.014": 0.0,
			"0.015": 0.0,
			"0.016": 0.0,
			"0.017": 0.0,
			"0.018": 0.0,
			"0.019": 0.0,
			"0.02": 0.0,
			"0.021": 0.0,
			"0.022": 0.0,
			"0.023": 0.0,
			"0.024": 0.0,
			"0.025": 0.0
		}
	}
}
