{
	 "smiles": "COC1=C(C=O)C=C(Cl)C=C1Cl", 
	 "Tm": 359.15, 
	 "num_atms": 18, 
	 "gaussian": { 
		 "optdone": 1, 
		 "sigma_profile": "yes", 
		 "theory": "DFT", 
		 "functional": "B3LYP", 
		 "basiset": "6-31G**", 
		 "properties": { 
			 "R2extent": 3894.0988, 
			 "electric_dipole_moment_norm": 2.85145417989, 
			 "electric_quadrupole_moment_norm": 16.4869865442, 
			 "total_energy": -1379.2684313, 
			 "HOMO_LUMO_gap": 0.17602, 
			 "cosmo_polarized_energy": -7.93, 
			 "cosmo_cavitation_energy": 26.44, 
			 "cosmo_dispersion_energy": -19.21, 
			 "cosmo_repulsion_energy": 1.53, 
			 "cosmo_total_nonelectrostatic_energy": 8.77, 
			 "SMD_solvation_energy": 5.82 
		},
		"coords": [
			{
				"x": 2.1195138804,
				"y": -0.4167047223,
				"z": -4.0867104571,
				"element": "C" 
			},
			{
				"x": 2.6277223383,
				"y": 0.1653696081,
				"z": -2.8755382879,
				"element": "O" 
			},
			{
				"x": 1.8842537235,
				"y": -0.059452557,
				"z": -1.7515717829,
				"element": "C" 
			},
			{
				"x": 2.2749310539,
				"y": -1.0565624933,
				"z": -0.8379782858,
				"element": "C" 
			},
			{
				"x": 3.4753209446,
				"y": -1.8969262239,
				"z": -1.0981036472,
				"element": "C" 
			},
			{
				"x": 3.8327278456,
				"y": -2.7933590518,
				"z": -0.3572383164,
				"element": "O" 
			},
			{
				"x": 1.5531309368,
				"y": -1.2654959363,
				"z": 0.3448788816,
				"element": "C" 
			},
			{
				"x": 0.4419564857,
				"y": -0.4805755714,
				"z": 0.6140627024,
				"element": "C" 
			},
			{
				"x": -0.4746776772,
				"y": -0.731180982,
				"z": 2.0874566905,
				"element": "Cl" 
			},
			{
				"x": 0.0386010638,
				"y": 0.5237849215,
				"z": -0.2705818433,
				"element": "C" 
			},
			{
				"x": 0.7610285489,
				"y": 0.7277863875,
				"z": -1.4438489697,
				"element": "C" 
			},
			{
				"x": 0.271840095,
				"y": 2.0116777465,
				"z": -2.527454196,
				"element": "Cl" 
			},
			{
				"x": 2.0906695796,
				"y": -1.5102884425,
				"z": -4.0086301777,
				"element": "H" 
			},
			{
				"x": 1.1201945634,
				"y": -0.038471788,
				"z": -4.3222452405,
				"element": "H" 
			},
			{
				"x": 2.8146997567,
				"y": -0.1241906394,
				"z": -4.8745811507,
				"element": "H" 
			},
			{
				"x": 4.0374611255,
				"y": -1.6481397065,
				"z": -2.0164065132,
				"element": "H" 
			},
			{
				"x": 1.8860669458,
				"y": -2.0411147578,
				"z": 1.0252756373,
				"element": "H" 
			},
			{
				"x": -0.8215412102,
				"y": 1.1436442086,
				"z": -0.0479850437,
				"element": "H" 
			}
		],
		 "valence_orbital": [ 
			{
				"type": "occ",
				"energy": -0.32561,
				"method": "rhf"
			},
			{
				"type": "occ",
				"energy": -0.30676,
				"method": "rhf"
			},
			{
				"type": "occ",
				"energy": -0.27696,
				"method": "rhf"
			},
			{
				"type": "occ",
				"energy": -0.26519,
				"method": "rhf"
			},
			{
				"type": "occ",
				"energy": -0.2578,
				"method": "rhf"
			},
			{
				"type": "unocc",
				"energy": -0.08178,
				"method": "rhf"
			},
			{
				"type": "unocc",
				"energy": -0.03474,
				"method": "rhf"
			},
			{
				"type": "unocc",
				"energy": -0.00357,
				"method": "rhf"
			},
			{
				"type": "unocc",
				"energy": 0.01649,
				"method": "rhf"
			},
			{
				"type": "unocc",
				"energy": 0.0379,
				"method": "rhf"
			}
		],
		"cosmo_sigma_profile": { 
			"-0.025": 0.0,
			"-0.024": 0.0,
			"-0.023": 0.0,
			"-0.022": 0.0,
			"-0.021": 0.0,
			"-0.02": 0.0,
			"-0.019": 0.0,
			"-0.018": 0.0,
			"-0.017": 0.0,
			"-0.016": 0.0,
			"-0.015": 0.0,
			"-0.014": 0.0,
			"-0.013": 0.0,
			"-0.012": 0.0,
			"-0.011": 0.0,
			"-0.01": 0.184365063187,
			"-0.009": 1.1785336199,
			"-0.008": 1.76893437108,
			"-0.007": 4.81374438591,
			"-0.006": 11.2728717094,
			"-0.005": 12.959025966,
			"-0.004": 16.4875114092,
			"-0.003": 18.2847227485,
			"-0.002": 15.4006873113,
			"-0.001": 23.9617309782,
			"0.0": 24.4250244041,
			"0.001": 14.6648855524,
			"0.002": 13.0677174382,
			"0.003": 17.5171344392,
			"0.004": 15.2485792855,
			"0.005": 4.18927387422,
			"0.006": 2.24245502215,
			"0.007": 3.54699188372,
			"0.008": 3.57560255704,
			"0.009": 2.9134954334,
			"0.01": 3.92568291352,
			"0.011": 3.62639972046,
			"0.012": 1.43988682863,
			"0.013": 0.163107313733,
			"0.014": 0.0,
			"0.015": 0.0,
			"0.016": 0.0,
			"0.017": 0.0,
			"0.018": 0.0,
			"0.019": 0.0,
			"0.02": 0.0,
			"0.021": 0.0,
			"0.022": 0.0,
			"0.023": 0.0,
			"0.024": 0.0,
			"0.025": 0.0
		}
	}
}
