{
	 "smiles": "OCCSC1=C(C=C(C=C1)[N+]([O-])=O)C(O)=O", 
	 "Tm": 437.15, 
	 "num_atms": 25, 
	 "gaussian": { 
		 "optdone": 1, 
		 "sigma_profile": "yes", 
		 "theory": "DFT", 
		 "functional": "B3LYP", 
		 "basiset": "6-31G**", 
		 "properties": { 
			 "R2extent": 4270.3894, 
			 "electric_dipole_moment_norm": 6.87421445403, 
			 "electric_quadrupole_moment_norm": 12.2230139426, 
			 "total_energy": -1177.33450373, 
			 "HOMO_LUMO_gap": 0.16849, 
			 "cosmo_polarized_energy": -18.18, 
			 "cosmo_cavitation_energy": 30.81, 
			 "cosmo_dispersion_energy": -22.61, 
			 "cosmo_repulsion_energy": 1.7, 
			 "cosmo_total_nonelectrostatic_energy": 9.91, 
			 "SMD_solvation_energy": 8.16 
		},
		"coords": [
			{
				"x": -2.2009587698,
				"y": -2.2396832751,
				"z": -0.2568940447,
				"element": "O" 
			},
			{
				"x": -1.9828626828,
				"y": -3.1550171764,
				"z": 0.8027207792,
				"element": "C" 
			},
			{
				"x": -1.3741765728,
				"y": -2.3932243386,
				"z": 1.971725915,
				"element": "C" 
			},
			{
				"x": 0.3963997347,
				"y": -1.8755237915,
				"z": 1.7919082184,
				"element": "S" 
			},
			{
				"x": 0.3339487861,
				"y": -0.452969154,
				"z": 0.6802300315,
				"element": "C" 
			},
			{
				"x": 0.3412887516,
				"y": -0.5530414178,
				"z": -0.7292658503,
				"element": "C" 
			},
			{
				"x": 0.3306259687,
				"y": 0.6247996788,
				"z": -1.4850151951,
				"element": "C" 
			},
			{
				"x": 0.3384558559,
				"y": 1.8589497958,
				"z": -0.8499075965,
				"element": "C" 
			},
			{
				"x": 0.3418870119,
				"y": 1.9767010754,
				"z": 0.5363142071,
				"element": "C" 
			},
			{
				"x": 0.3378394319,
				"y": 0.8091104192,
				"z": 1.2922484863,
				"element": "C" 
			},
			{
				"x": 0.3395931865,
				"y": 3.0861822392,
				"z": -1.6694411685,
				"element": "N" 
			},
			{
				"x": 0.3332437433,
				"y": 4.1621102742,
				"z": -1.0727608335,
				"element": "O" 
			},
			{
				"x": 0.3473645723,
				"y": 2.9555322343,
				"z": -2.8904900936,
				"element": "O" 
			},
			{
				"x": 0.3144747634,
				"y": -1.8239254641,
				"z": -1.5604871528,
				"element": "C" 
			},
			{
				"x": 0.7303545535,
				"y": -2.9725319512,
				"z": -1.0030917398,
				"element": "O" 
			},
			{
				"x": -0.033075747,
				"y": -1.7981181855,
				"z": -2.7204572761,
				"element": "O" 
			},
			{
				"x": -2.3265073616,
				"y": -2.7290474685,
				"z": -1.0799058745,
				"element": "H" 
			},
			{
				"x": -2.9326290747,
				"y": -3.5955568941,
				"z": 1.1496808798,
				"element": "H" 
			},
			{
				"x": -1.3216528727,
				"y": -3.9785662937,
				"z": 0.5024436639,
				"element": "H" 
			},
			{
				"x": -1.9649545788,
				"y": -1.5005136294,
				"z": 2.1923412641,
				"element": "H" 
			},
			{
				"x": -1.3596862712,
				"y": -3.0245454559,
				"z": 2.86539314,
				"element": "H" 
			},
			{
				"x": 0.3085010556,
				"y": 0.5608206347,
				"z": -2.5651821621,
				"element": "H" 
			},
			{
				"x": 0.3468874467,
				"y": 2.9571444309,
				"z": 0.9955457185,
				"element": "H" 
			},
			{
				"x": 0.3403997955,
				"y": 0.8674442885,
				"z": 2.3752337926,
				"element": "H" 
			},
			{
				"x": 0.8984392736,
				"y": -2.8505305753,
				"z": -0.0428871086,
				"element": "H" 
			}
		],
		 "valence_orbital": [ 
			{
				"type": "occ",
				"energy": -0.29927,
				"method": "rhf"
			},
			{
				"type": "occ",
				"energy": -0.29295,
				"method": "rhf"
			},
			{
				"type": "occ",
				"energy": -0.28615,
				"method": "rhf"
			},
			{
				"type": "occ",
				"energy": -0.27938,
				"method": "rhf"
			},
			{
				"type": "occ",
				"energy": -0.27138,
				"method": "rhf"
			},
			{
				"type": "unocc",
				"energy": -0.10289,
				"method": "rhf"
			},
			{
				"type": "unocc",
				"energy": -0.06337,
				"method": "rhf"
			},
			{
				"type": "unocc",
				"energy": -0.02961,
				"method": "rhf"
			},
			{
				"type": "unocc",
				"energy": 0.01512,
				"method": "rhf"
			},
			{
				"type": "unocc",
				"energy": 0.03117,
				"method": "rhf"
			}
		],
		"cosmo_sigma_profile": { 
			"-0.025": 0.0,
			"-0.024": 0.0,
			"-0.023": 0.0,
			"-0.022": 0.0,
			"-0.021": 0.0,
			"-0.02": 0.0,
			"-0.019": 0.0,
			"-0.018": 0.0,
			"-0.017": 0.0,
			"-0.016": 0.334461103307,
			"-0.015": 0.854499608218,
			"-0.014": 0.715259499045,
			"-0.013": 0.922219453125,
			"-0.012": 0.381331102219,
			"-0.011": 0.905985571255,
			"-0.01": 1.19543894801,
			"-0.009": 2.64926394998,
			"-0.008": 7.46455781543,
			"-0.007": 11.3122904849,
			"-0.006": 13.0464521208,
			"-0.005": 20.5781189886,
			"-0.004": 21.0249333738,
			"-0.003": 19.4136650313,
			"-0.002": 16.6596900783,
			"-0.001": 19.0774446649,
			"0.0": 13.4968820183,
			"0.001": 9.24882747644,
			"0.002": 7.92997476951,
			"0.003": 8.59982155384,
			"0.004": 6.890097978,
			"0.005": 8.21319843007,
			"0.006": 9.84657802386,
			"0.007": 12.8033558339,
			"0.008": 7.37765889393,
			"0.009": 8.45181000043,
			"0.01": 5.30275971528,
			"0.011": 6.04646158401,
			"0.012": 4.26823592603,
			"0.013": 1.89399167653,
			"0.014": 0.251616047791,
			"0.015": 0.0,
			"0.016": 0.0,
			"0.017": 0.0,
			"0.018": 0.0,
			"0.019": 0.0,
			"0.02": 0.0,
			"0.021": 0.0,
			"0.022": 0.0,
			"0.023": 0.0,
			"0.024": 0.0,
			"0.025": 0.0
		}
	}
}
