{
	 "smiles": "NS(=O)(=O)C1=CC2=C(S1)C(O)CCS2", 
	 "Tm": 431.15, 
	 "num_atms": 23, 
	 "gaussian": { 
		 "optdone": 1, 
		 "sigma_profile": "yes", 
		 "theory": "DFT", 
		 "functional": "B3LYP", 
		 "basiset": "6-31G**", 
		 "properties": { 
			 "R2extent": 4835.8471, 
			 "electric_dipole_moment_norm": 3.91849812301, 
			 "electric_quadrupole_moment_norm": 12.6033055315, 
			 "total_energy": -1747.06141113, 
			 "HOMO_LUMO_gap": 0.1659, 
			 "cosmo_polarized_energy": -18.96, 
			 "cosmo_cavitation_energy": 30.6, 
			 "cosmo_dispersion_energy": -24.11, 
			 "cosmo_repulsion_energy": 1.77, 
			 "cosmo_total_nonelectrostatic_energy": 8.27, 
			 "SMD_solvation_energy": 3.57 
		},
		"coords": [
			{
				"x": -3.4345718354,
				"y": 1.0239671749,
				"z": 0.7926960054,
				"element": "N" 
			},
			{
				"x": -1.8477017156,
				"y": 1.606959863,
				"z": 0.781429071,
				"element": "S" 
			},
			{
				"x": -1.7130464243,
				"y": 2.3454042484,
				"z": -0.4743092473,
				"element": "O" 
			},
			{
				"x": -1.5363075002,
				"y": 2.2051337915,
				"z": 2.0813776507,
				"element": "O" 
			},
			{
				"x": -0.8845746671,
				"y": 0.1243764267,
				"z": 0.6753480979,
				"element": "C" 
			},
			{
				"x": -0.1185673459,
				"y": -0.3783697494,
				"z": 1.6912173131,
				"element": "C" 
			},
			{
				"x": 0.5735435631,
				"y": -1.5685713442,
				"z": 1.3059914694,
				"element": "C" 
			},
			{
				"x": 0.315259194,
				"y": -1.9435402263,
				"z": 0.0057223931,
				"element": "C" 
			},
			{
				"x": -0.7848455397,
				"y": -0.8283207027,
				"z": -0.7743229196,
				"element": "S" 
			},
			{
				"x": 0.8914914837,
				"y": -3.119887437,
				"z": -0.7387596335,
				"element": "C" 
			},
			{
				"x": 2.0307189994,
				"y": -2.761622759,
				"z": -1.5289957847,
				"element": "O" 
			},
			{
				"x": 1.3721539001,
				"y": -4.1994876831,
				"z": 0.2383907508,
				"element": "C" 
			},
			{
				"x": 2.3717268942,
				"y": -3.6475633417,
				"z": 1.254747866,
				"element": "C" 
			},
			{
				"x": 1.6135900306,
				"y": -2.4528729832,
				"z": 2.4323339533,
				"element": "S" 
			},
			{
				"x": -3.8013984849,
				"y": 1.0040456974,
				"z": 1.7408813255,
				"element": "H" 
			},
			{
				"x": -3.9999990042,
				"y": 1.6123843799,
				"z": 0.1857387979,
				"element": "H" 
			},
			{
				"x": -0.0476433853,
				"y": 0.0941382632,
				"z": 2.6632493924,
				"element": "H" 
			},
			{
				"x": 0.1123790802,
				"y": -3.5520428782,
				"z": -1.3853502869,
				"element": "H" 
			},
			{
				"x": 1.8473101709,
				"y": -1.9224556895,
				"z": -1.9712248,
				"element": "H" 
			},
			{
				"x": 0.5112299148,
				"y": -4.6490362597,
				"z": 0.744075816,
				"element": "H" 
			},
			{
				"x": 1.8644305589,
				"y": -4.9805022153,
				"z": -0.3512723871,
				"element": "H" 
			},
			{
				"x": 3.1961523814,
				"y": -3.1551691017,
				"z": 0.7343936412,
				"element": "H" 
			},
			{
				"x": 2.7763697312,
				"y": -4.4432674739,
				"z": 1.8845415156,
				"element": "H" 
			}
		],
		 "valence_orbital": [ 
			{
				"type": "occ",
				"energy": -0.30838,
				"method": "rhf"
			},
			{
				"type": "occ",
				"energy": -0.2945,
				"method": "rhf"
			},
			{
				"type": "occ",
				"energy": -0.28901,
				"method": "rhf"
			},
			{
				"type": "occ",
				"energy": -0.26361,
				"method": "rhf"
			},
			{
				"type": "occ",
				"energy": -0.21972,
				"method": "rhf"
			},
			{
				"type": "unocc",
				"energy": -0.05382,
				"method": "rhf"
			},
			{
				"type": "unocc",
				"energy": -0.00385,
				"method": "rhf"
			},
			{
				"type": "unocc",
				"energy": 0.02186,
				"method": "rhf"
			},
			{
				"type": "unocc",
				"energy": 0.03314,
				"method": "rhf"
			},
			{
				"type": "unocc",
				"energy": 0.04503,
				"method": "rhf"
			}
		],
		"cosmo_sigma_profile": { 
			"-0.025": 0.0,
			"-0.024": 0.0,
			"-0.023": 0.0,
			"-0.022": 0.0,
			"-0.021": 0.0,
			"-0.02": 0.0,
			"-0.019": 0.0,
			"-0.018": 0.0,
			"-0.017": 0.0,
			"-0.016": 0.119030862301,
			"-0.015": 2.55875635604,
			"-0.014": 3.29583020705,
			"-0.013": 3.57834192168,
			"-0.012": 4.08411886371,
			"-0.011": 3.66398457932,
			"-0.01": 2.90338620342,
			"-0.009": 2.59158944834,
			"-0.008": 4.17477451719,
			"-0.007": 7.74115221931,
			"-0.006": 8.88213998604,
			"-0.005": 13.3984859992,
			"-0.004": 14.4407473947,
			"-0.003": 16.8703573606,
			"-0.002": 16.6823170533,
			"-0.001": 12.4589000779,
			"0.0": 13.7928298825,
			"0.001": 16.6802235223,
			"0.002": 15.8907163587,
			"0.003": 12.206184269,
			"0.004": 9.88248216716,
			"0.005": 8.3758914543,
			"0.006": 8.00901154282,
			"0.007": 7.02941917049,
			"0.008": 6.59912363834,
			"0.009": 6.30770653995,
			"0.01": 11.6632419311,
			"0.011": 9.24560708243,
			"0.012": 1.84102882226,
			"0.013": 1.16200021583,
			"0.014": 0.237364154825,
			"0.015": 0.0,
			"0.016": 0.0,
			"0.017": 0.0,
			"0.018": 0.0,
			"0.019": 0.0,
			"0.02": 0.0,
			"0.021": 0.0,
			"0.022": 0.0,
			"0.023": 0.0,
			"0.024": 0.0,
			"0.025": 0.0
		}
	}
}
