{
	 "smiles": "CC1=NC2=NC=C(C=O)N2C(C)=C1", 
	 "Tm": 443.15, 
	 "num_atms": 22, 
	 "gaussian": { 
		 "optdone": 1, 
		 "sigma_profile": "yes", 
		 "theory": "DFT", 
		 "functional": "B3LYP", 
		 "basiset": "6-31G**", 
		 "properties": { 
			 "R2extent": 2621.4028, 
			 "electric_dipole_moment_norm": 3.24059282385, 
			 "electric_quadrupole_moment_norm": 13.5525144165, 
			 "total_energy": -587.85650823, 
			 "HOMO_LUMO_gap": 0.16674, 
			 "cosmo_polarized_energy": -14.51, 
			 "cosmo_cavitation_energy": 25.97, 
			 "cosmo_dispersion_energy": -19.24, 
			 "cosmo_repulsion_energy": 1.48, 
			 "cosmo_total_nonelectrostatic_energy": 8.2, 
			 "SMD_solvation_energy": 2.21 
		},
		"coords": [
			{
				"x": -1.2727857044,
				"y": 1.6230840555,
				"z": 2.6983412739,
				"element": "C" 
			},
			{
				"x": -0.9960903659,
				"y": 0.7094047907,
				"z": 1.5337127513,
				"element": "C" 
			},
			{
				"x": -1.8341190091,
				"y": -0.2977180492,
				"z": 1.3445389714,
				"element": "N" 
			},
			{
				"x": -1.6030301922,
				"y": -1.1178832576,
				"z": 0.3155383412,
				"element": "C" 
			},
			{
				"x": -2.3491055587,
				"y": -2.1792062568,
				"z": -0.0151085549,
				"element": "N" 
			},
			{
				"x": -1.7545486518,
				"y": -2.6995779164,
				"z": -1.0970340206,
				"element": "C" 
			},
			{
				"x": -0.6126086513,
				"y": -2.0039843245,
				"z": -1.5055471261,
				"element": "C" 
			},
			{
				"x": 0.1791999836,
				"y": -2.3976272572,
				"z": -2.6513530374,
				"element": "C" 
			},
			{
				"x": 1.1886534113,
				"y": -1.8924335795,
				"z": -3.1223371156,
				"element": "O" 
			},
			{
				"x": -0.5041596136,
				"y": -0.9532985141,
				"z": -0.574829796,
				"element": "N" 
			},
			{
				"x": 0.3729942164,
				"y": 0.0914155113,
				"z": -0.3861087507,
				"element": "C" 
			},
			{
				"x": 1.5423795101,
				"y": 0.3061710034,
				"z": -1.2946844652,
				"element": "C" 
			},
			{
				"x": 0.1154494154,
				"y": 0.9240679411,
				"z": 0.680590023,
				"element": "C" 
			},
			{
				"x": -0.5324851576,
				"y": 2.4225322138,
				"z": 2.7760523471,
				"element": "H" 
			},
			{
				"x": -1.2746736895,
				"y": 1.0506265736,
				"z": 3.6312621445,
				"element": "H" 
			},
			{
				"x": -2.2667132817,
				"y": 2.0699194354,
				"z": 2.5958831521,
				"element": "H" 
			},
			{
				"x": -2.149387798,
				"y": -3.581899325,
				"z": -1.5877843971,
				"element": "H" 
			},
			{
				"x": -0.2632536909,
				"y": -3.303061346,
				"z": -3.1216762138,
				"element": "H" 
			},
			{
				"x": 1.2241898421,
				"y": 0.4497995942,
				"z": -2.3290234172,
				"element": "H" 
			},
			{
				"x": 2.2061421151,
				"y": -0.5604553982,
				"z": -1.3040059187,
				"element": "H" 
			},
			{
				"x": 2.0970162506,
				"y": 1.1847922975,
				"z": -0.9601083777,
				"element": "H" 
			},
			{
				"x": 0.7851366201,
				"y": 1.7566318081,
				"z": 0.8590821864,
				"element": "H" 
			}
		],
		 "valence_orbital": [ 
			{
				"type": "occ",
				"energy": -0.29334,
				"method": "rhf"
			},
			{
				"type": "occ",
				"energy": -0.27744,
				"method": "rhf"
			},
			{
				"type": "occ",
				"energy": -0.26986,
				"method": "rhf"
			},
			{
				"type": "occ",
				"energy": -0.25393,
				"method": "rhf"
			},
			{
				"type": "occ",
				"energy": -0.23307,
				"method": "rhf"
			},
			{
				"type": "unocc",
				"energy": -0.06633,
				"method": "rhf"
			},
			{
				"type": "unocc",
				"energy": -0.05041,
				"method": "rhf"
			},
			{
				"type": "unocc",
				"energy": 0.01198,
				"method": "rhf"
			},
			{
				"type": "unocc",
				"energy": 0.08153,
				"method": "rhf"
			},
			{
				"type": "unocc",
				"energy": 0.09092,
				"method": "rhf"
			}
		],
		"cosmo_sigma_profile": { 
			"-0.025": 0.0,
			"-0.024": 0.0,
			"-0.023": 0.0,
			"-0.022": 0.0,
			"-0.021": 0.0,
			"-0.02": 0.0,
			"-0.019": 0.0,
			"-0.018": 0.0,
			"-0.017": 0.0,
			"-0.016": 0.0,
			"-0.015": 0.0,
			"-0.014": 0.0,
			"-0.013": 0.0,
			"-0.012": 0.0,
			"-0.011": 0.0,
			"-0.01": 0.0,
			"-0.009": 1.33537226082,
			"-0.008": 6.13548184306,
			"-0.007": 7.64430308734,
			"-0.006": 10.1651613157,
			"-0.005": 17.4425151994,
			"-0.004": 18.2428324264,
			"-0.003": 19.811616423,
			"-0.002": 26.4828712456,
			"-0.001": 23.3953973826,
			"0.0": 13.5867593881,
			"0.001": 9.24043094755,
			"0.002": 4.82039026814,
			"0.003": 4.50139098328,
			"0.004": 3.58246892849,
			"0.005": 4.41972103844,
			"0.006": 2.54458280274,
			"0.007": 3.11793953799,
			"0.008": 4.17580028728,
			"0.009": 3.87211365749,
			"0.01": 2.88279522356,
			"0.011": 3.92398129856,
			"0.012": 5.25932640444,
			"0.013": 4.06560724426,
			"0.014": 3.35893372212,
			"0.015": 2.13183821814,
			"0.016": 1.28731426405,
			"0.017": 0.464104822422,
			"0.018": 0.0,
			"0.019": 0.0,
			"0.02": 0.0,
			"0.021": 0.0,
			"0.022": 0.0,
			"0.023": 0.0,
			"0.024": 0.0,
			"0.025": 0.0
		}
	}
}
