{
	 "smiles": "OCCCCCCCCCCCCCCCC(O)=O", 
	 "Tm": 371.65, 
	 "num_atms": 51, 
	 "gaussian": { 
		 "optdone": 1, 
		 "sigma_profile": "yes", 
		 "theory": "DFT", 
		 "functional": "B3LYP", 
		 "basiset": "6-31G**", 
		 "properties": { 
			 "R2extent": 12573.3711, 
			 "electric_dipole_moment_norm": 2.71605982445, 
			 "electric_quadrupole_moment_norm": 19.040004114, 
			 "total_energy": -854.70634708, 
			 "HOMO_LUMO_gap": 0.27492, 
			 "cosmo_polarized_energy": -13.41, 
			 "cosmo_cavitation_energy": 51.18, 
			 "cosmo_dispersion_energy": -34.52, 
			 "cosmo_repulsion_energy": 2.83, 
			 "cosmo_total_nonelectrostatic_energy": 19.49, 
			 "SMD_solvation_energy": 7.88 
		},
		"coords": [
			{
				"x": 0.696238133,
				"y": -3.9153326203,
				"z": 5.26802679,
				"element": "O" 
			},
			{
				"x": 1.3252968877,
				"y": -3.8619664701,
				"z": 3.9919461783,
				"element": "C" 
			},
			{
				"x": 0.4904558317,
				"y": -4.4850634083,
				"z": 2.8705102373,
				"element": "C" 
			},
			{
				"x": -0.9364266212,
				"y": -3.9298036631,
				"z": 2.7129091965,
				"element": "C" 
			},
			{
				"x": -1.0277477605,
				"y": -2.4172089879,
				"z": 2.408184432,
				"element": "C" 
			},
			{
				"x": -1.2507288029,
				"y": -1.5344729468,
				"z": 3.6488969141,
				"element": "C" 
			},
			{
				"x": -1.3139779895,
				"y": -0.0266522863,
				"z": 3.3553169391,
				"element": "C" 
			},
			{
				"x": 0.0195240301,
				"y": 0.6047416553,
				"z": 2.9278723198,
				"element": "C" 
			},
			{
				"x": -0.0806133824,
				"y": 2.1204324325,
				"z": 2.704625374,
				"element": "C" 
			},
			{
				"x": 1.2531927677,
				"y": 2.8124014746,
				"z": 2.3713984253,
				"element": "C" 
			},
			{
				"x": 1.9318865304,
				"y": 2.3789286821,
				"z": 1.0596816966,
				"element": "C" 
			},
			{
				"x": 1.1265468811,
				"y": 2.6865499927,
				"z": -0.21035017,
				"element": "C" 
			},
			{
				"x": 1.8733758322,
				"y": 2.3265668011,
				"z": -1.5014007079,
				"element": "C" 
			},
			{
				"x": 1.0740870201,
				"y": 2.6278840341,
				"z": -2.7753968702,
				"element": "C" 
			},
			{
				"x": 1.8286389957,
				"y": 2.2634510211,
				"z": -4.0602547152,
				"element": "C" 
			},
			{
				"x": 1.055705947,
				"y": 2.5978982585,
				"z": -5.3491583052,
				"element": "C" 
			},
			{
				"x": -0.2504436425,
				"y": 1.848320726,
				"z": -5.5042800283,
				"element": "C" 
			},
			{
				"x": -0.0877886767,
				"y": 0.5070687383,
				"z": -5.3576847757,
				"element": "O" 
			},
			{
				"x": -1.3292710162,
				"y": 2.3426065565,
				"z": -5.7467789895,
				"element": "O" 
			},
			{
				"x": 0.5116026991,
				"y": -4.8425102133,
				"z": 5.4675709752,
				"element": "H" 
			},
			{
				"x": 2.3168240536,
				"y": -4.3422350796,
				"z": 4.0197303061,
				"element": "H" 
			},
			{
				"x": 1.4934614846,
				"y": -2.7980532028,
				"z": 3.797114775,
				"element": "H" 
			},
			{
				"x": 1.0424914486,
				"y": -4.3564752654,
				"z": 1.9286755711,
				"element": "H" 
			},
			{
				"x": 0.4319755287,
				"y": -5.5714507195,
				"z": 3.0368761573,
				"element": "H" 
			},
			{
				"x": -1.5087772256,
				"y": -4.1510240718,
				"z": 3.6221373052,
				"element": "H" 
			},
			{
				"x": -1.4188333434,
				"y": -4.4939181031,
				"z": 1.9054950671,
				"element": "H" 
			},
			{
				"x": -1.8588126894,
				"y": -2.2387524498,
				"z": 1.7127870954,
				"element": "H" 
			},
			{
				"x": -0.122725418,
				"y": -2.1013469129,
				"z": 1.8716407247,
				"element": "H" 
			},
			{
				"x": -0.4784973955,
				"y": -1.7341011524,
				"z": 4.4011435365,
				"element": "H" 
			},
			{
				"x": -2.1969984324,
				"y": -1.8416817867,
				"z": 4.1146349523,
				"element": "H" 
			},
			{
				"x": -2.069760498,
				"y": 0.1625636705,
				"z": 2.5786334316,
				"element": "H" 
			},
			{
				"x": -1.672036519,
				"y": 0.4918137399,
				"z": 4.2551778969,
				"element": "H" 
			},
			{
				"x": 0.7767019322,
				"y": 0.402380114,
				"z": 3.6998072935,
				"element": "H" 
			},
			{
				"x": 0.3814442259,
				"y": 0.1206568977,
				"z": 2.0122845073,
				"element": "H" 
			},
			{
				"x": -0.8155009362,
				"y": 2.3222836082,
				"z": 1.9136709443,
				"element": "H" 
			},
			{
				"x": -0.4896759271,
				"y": 2.5832233886,
				"z": 3.6131253306,
				"element": "H" 
			},
			{
				"x": 1.0861383979,
				"y": 3.8978203365,
				"z": 2.336862026,
				"element": "H" 
			},
			{
				"x": 1.9534883072,
				"y": 2.6414320873,
				"z": 3.2004890773,
				"element": "H" 
			},
			{
				"x": 2.1595773411,
				"y": 1.3049932005,
				"z": 1.0927408174,
				"element": "H" 
			},
			{
				"x": 2.9041250106,
				"y": 2.8860539314,
				"z": 0.9914421035,
				"element": "H" 
			},
			{
				"x": 0.1709683013,
				"y": 2.1459854054,
				"z": -0.1890137638,
				"element": "H" 
			},
			{
				"x": 0.8692010714,
				"y": 3.755579751,
				"z": -0.2258313158,
				"element": "H" 
			},
			{
				"x": 2.1368133041,
				"y": 1.2593192585,
				"z": -1.4832573427,
				"element": "H" 
			},
			{
				"x": 2.8271744088,
				"y": 2.8726550358,
				"z": -1.5334506505,
				"element": "H" 
			},
			{
				"x": 0.8101466559,
				"y": 3.6945719715,
				"z": -2.7979077705,
				"element": "H" 
			},
			{
				"x": 0.1221764229,
				"y": 2.0799688148,
				"z": -2.7418391202,
				"element": "H" 
			},
			{
				"x": 2.0719725917,
				"y": 1.194926367,
				"z": -4.0561266139,
				"element": "H" 
			},
			{
				"x": 2.7841241324,
				"y": 2.8023820796,
				"z": -4.0875279859,
				"element": "H" 
			},
			{
				"x": 1.6761815863,
				"y": 2.3505388001,
				"z": -6.21999384,
				"element": "H" 
			},
			{
				"x": 0.8165222031,
				"y": 3.6629712347,
				"z": -5.4045898646,
				"element": "H" 
			},
			{
				"x": -0.9697436874,
				"y": 0.1182792742,
				"z": -5.4828655676,
				"element": "H" 
			}
		],
		 "valence_orbital": [ 
			{
				"type": "occ",
				"energy": -0.30039,
				"method": "rhf"
			},
			{
				"type": "occ",
				"energy": -0.29841,
				"method": "rhf"
			},
			{
				"type": "occ",
				"energy": -0.29437,
				"method": "rhf"
			},
			{
				"type": "occ",
				"energy": -0.26871,
				"method": "rhf"
			},
			{
				"type": "occ",
				"energy": -0.26407,
				"method": "rhf"
			},
			{
				"type": "unocc",
				"energy": 0.01085,
				"method": "rhf"
			},
			{
				"type": "unocc",
				"energy": 0.07034,
				"method": "rhf"
			},
			{
				"type": "unocc",
				"energy": 0.07328,
				"method": "rhf"
			},
			{
				"type": "unocc",
				"energy": 0.08075,
				"method": "rhf"
			},
			{
				"type": "unocc",
				"energy": 0.09857,
				"method": "rhf"
			}
		],
		"cosmo_sigma_profile": { 
			"-0.025": 0.0,
			"-0.024": 0.0,
			"-0.023": 0.0,
			"-0.022": 0.0,
			"-0.021": 0.0,
			"-0.02": 0.0,
			"-0.019": 0.0,
			"-0.018": 0.255154998935,
			"-0.017": 0.930534426393,
			"-0.016": 0.85008689115,
			"-0.015": 1.70140806551,
			"-0.014": 1.43461056784,
			"-0.013": 1.54657874535,
			"-0.012": 1.26138955085,
			"-0.011": 1.86623758756,
			"-0.01": 1.90193999255,
			"-0.009": 1.55311904778,
			"-0.008": 0.996336852845,
			"-0.007": 1.9299436453,
			"-0.006": 4.31298503413,
			"-0.005": 5.61431919067,
			"-0.004": 6.54170304106,
			"-0.003": 18.1787391441,
			"-0.002": 55.768016459,
			"-0.001": 82.7193445847,
			"0.0": 75.3567324266,
			"0.001": 52.9761126252,
			"0.002": 23.3931761434,
			"0.003": 6.04743917187,
			"0.004": 3.1960851254,
			"0.005": 5.26490211447,
			"0.006": 3.67684555914,
			"0.007": 3.40465604788,
			"0.008": 4.57184458929,
			"0.009": 3.67364389465,
			"0.01": 4.10759545433,
			"0.011": 4.47366655834,
			"0.012": 7.12510293479,
			"0.013": 2.72688724576,
			"0.014": 1.52667354846,
			"0.015": 0.868087847655,
			"0.016": 0.0175293130607,
			"0.017": 0.0,
			"0.018": 0.0,
			"0.019": 0.0,
			"0.02": 0.0,
			"0.021": 0.0,
			"0.022": 0.0,
			"0.023": 0.0,
			"0.024": 0.0,
			"0.025": 0.0
		}
	}
}
