{
	 "smiles": "OCC1=CC(Cl)=C2OCOC2=C1", 
	 "Tm": 376.15, 
	 "num_atms": 19, 
	 "gaussian": { 
		 "optdone": 1, 
		 "sigma_profile": "yes", 
		 "theory": "DFT", 
		 "functional": "B3LYP", 
		 "basiset": "6-31G**", 
		 "properties": { 
			 "R2extent": 2874.3728, 
			 "electric_dipole_moment_norm": 2.68381072358, 
			 "electric_quadrupole_moment_norm": 6.77451480181, 
			 "total_energy": -994.892520257, 
			 "HOMO_LUMO_gap": 0.20342, 
			 "cosmo_polarized_energy": -10.12, 
			 "cosmo_cavitation_energy": 24.89, 
			 "cosmo_dispersion_energy": -19.01, 
			 "cosmo_repulsion_energy": 1.53, 
			 "cosmo_total_nonelectrostatic_energy": 7.41, 
			 "SMD_solvation_energy": 4.69 
		},
		"coords": [
			{
				"x": -1.5952336412,
				"y": -0.5437817293,
				"z": -3.3481945101,
				"element": "O" 
			},
			{
				"x": -1.2844078282,
				"y": 0.5963800563,
				"z": -2.5647934893,
				"element": "C" 
			},
			{
				"x": -0.2701369338,
				"y": 0.329525975,
				"z": -1.4651657407,
				"element": "C" 
			},
			{
				"x": 0.6544805609,
				"y": -0.7061245273,
				"z": -1.6127738048,
				"element": "C" 
			},
			{
				"x": 1.6237923847,
				"y": -0.9564353574,
				"z": -0.6268949323,
				"element": "C" 
			},
			{
				"x": 2.7720563629,
				"y": -2.2626140349,
				"z": -0.7972370631,
				"element": "Cl" 
			},
			{
				"x": 1.6452159728,
				"y": -0.1407633723,
				"z": 0.4881752611,
				"element": "C" 
			},
			{
				"x": 2.4587944525,
				"y": -0.1966003055,
				"z": 1.5871388325,
				"element": "O" 
			},
			{
				"x": 2.1284132778,
				"y": 0.9615685577,
				"z": 2.3653167725,
				"element": "C" 
			},
			{
				"x": 0.9259564796,
				"y": 1.5257482588,
				"z": 1.828148746,
				"element": "O" 
			},
			{
				"x": 0.7196760906,
				"y": 0.8930384522,
				"z": 0.6264603709,
				"element": "C" 
			},
			{
				"x": -0.2510201749,
				"y": 1.1519713931,
				"z": -0.3188572132,
				"element": "C" 
			},
			{
				"x": -1.9483587175,
				"y": -1.2190186299,
				"z": -2.7530833645,
				"element": "H" 
			},
			{
				"x": -0.8833643108,
				"y": 1.3301874532,
				"z": -3.2743516437,
				"element": "H" 
			},
			{
				"x": -2.188896762,
				"y": 1.0452868259,
				"z": -2.1240200943,
				"element": "H" 
			},
			{
				"x": 0.6233368266,
				"y": -1.3240088146,
				"z": -2.5024467018,
				"element": "H" 
			},
			{
				"x": 2.943462225,
				"y": 1.6953471152,
				"z": 2.2929081385,
				"element": "H" 
			},
			{
				"x": 1.9599177979,
				"y": 0.6640882784,
				"z": 3.4042694161,
				"element": "H" 
			},
			{
				"x": -0.9698840629,
				"y": 1.9526044055,
				"z": -0.1797989798,
				"element": "H" 
			}
		],
		 "valence_orbital": [ 
			{
				"type": "occ",
				"energy": -0.31421,
				"method": "rhf"
			},
			{
				"type": "occ",
				"energy": -0.31136,
				"method": "rhf"
			},
			{
				"type": "occ",
				"energy": -0.28035,
				"method": "rhf"
			},
			{
				"type": "occ",
				"energy": -0.24436,
				"method": "rhf"
			},
			{
				"type": "occ",
				"energy": -0.21611,
				"method": "rhf"
			},
			{
				"type": "unocc",
				"energy": -0.01269,
				"method": "rhf"
			},
			{
				"type": "unocc",
				"energy": -0.00269,
				"method": "rhf"
			},
			{
				"type": "unocc",
				"energy": 0.02993,
				"method": "rhf"
			},
			{
				"type": "unocc",
				"energy": 0.08036,
				"method": "rhf"
			},
			{
				"type": "unocc",
				"energy": 0.09284,
				"method": "rhf"
			}
		],
		"cosmo_sigma_profile": { 
			"-0.025": 0.0,
			"-0.024": 0.0,
			"-0.023": 0.0,
			"-0.022": 0.0,
			"-0.021": 0.0,
			"-0.02": 0.0,
			"-0.019": 0.0,
			"-0.018": 0.0,
			"-0.017": 0.0,
			"-0.016": 0.218534010319,
			"-0.015": 0.953386607788,
			"-0.014": 0.933225507645,
			"-0.013": 0.725607993255,
			"-0.012": 0.744090366747,
			"-0.011": 1.16567569513,
			"-0.01": 0.72405962262,
			"-0.009": 1.5984496693,
			"-0.008": 5.34117935232,
			"-0.007": 10.5833385973,
			"-0.006": 10.4862186847,
			"-0.005": 11.6207950282,
			"-0.004": 10.1845567325,
			"-0.003": 11.5827885008,
			"-0.002": 11.6453379881,
			"-0.001": 9.86542267647,
			"0.0": 10.9219813331,
			"0.001": 16.2813353899,
			"0.002": 20.1468300376,
			"0.003": 16.3405008343,
			"0.004": 15.7651841585,
			"0.005": 8.1442351097,
			"0.006": 4.4290958251,
			"0.007": 5.04223521169,
			"0.008": 3.72883713745,
			"0.009": 4.42312642378,
			"0.01": 1.15979395429,
			"0.011": 1.43857083871,
			"0.012": 1.14501849577,
			"0.013": 1.9341127696,
			"0.014": 1.43912229228,
			"0.015": 0.00475471495354,
			"0.016": 0.0,
			"0.017": 0.0,
			"0.018": 0.0,
			"0.019": 0.0,
			"0.02": 0.0,
			"0.021": 0.0,
			"0.022": 0.0,
			"0.023": 0.0,
			"0.024": 0.0,
			"0.025": 0.0
		}
	}
}
