{
	 "smiles": "CC1=C(C(O)=O)C(=NO1)C1=CC=CC=C1Cl", 
	 "Tm": 462.65, 
	 "num_atms": 24, 
	 "gaussian": { 
		 "optdone": 1, 
		 "sigma_profile": "yes", 
		 "theory": "DFT", 
		 "functional": "B3LYP", 
		 "basiset": "6-31G**", 
		 "properties": { 
			 "R2extent": 4104.997, 
			 "electric_dipole_moment_norm": 3.39019201374, 
			 "electric_quadrupole_moment_norm": 32.037730298, 
			 "total_energy": -1164.56358797, 
			 "HOMO_LUMO_gap": 0.19998, 
			 "cosmo_polarized_energy": -19.68, 
			 "cosmo_cavitation_energy": 30.91, 
			 "cosmo_dispersion_energy": -21.92, 
			 "cosmo_repulsion_energy": 1.71, 
			 "cosmo_total_nonelectrostatic_energy": 10.71, 
			 "SMD_solvation_energy": 5.9 
		},
		"coords": [
			{
				"x": -1.3820155387,
				"y": -4.4519507392,
				"z": -0.7025092906,
				"element": "C" 
			},
			{
				"x": -0.9768702982,
				"y": -3.1361138444,
				"z": -0.1254743972,
				"element": "C" 
			},
			{
				"x": 0.1031898192,
				"y": -2.3026408679,
				"z": -0.2908738996,
				"element": "C" 
			},
			{
				"x": 1.3141812837,
				"y": -2.4627116997,
				"z": -1.1266083018,
				"element": "C" 
			},
			{
				"x": 1.6424379014,
				"y": -3.7428385968,
				"z": -1.4770384831,
				"element": "O" 
			},
			{
				"x": 2.00018347,
				"y": -1.5438255622,
				"z": -1.5000961541,
				"element": "O" 
			},
			{
				"x": -0.2073752774,
				"y": -1.1732921368,
				"z": 0.5471629379,
				"element": "C" 
			},
			{
				"x": -1.3464641919,
				"y": -1.3405919425,
				"z": 1.1756842155,
				"element": "N" 
			},
			{
				"x": -1.8399279622,
				"y": -2.5814214156,
				"z": 0.7387432931,
				"element": "O" 
			},
			{
				"x": 0.5947054791,
				"y": 0.046870085,
				"z": 0.8103937986,
				"element": "C" 
			},
			{
				"x": 1.266030161,
				"y": 0.1746369596,
				"z": 2.0338814729,
				"element": "C" 
			},
			{
				"x": 2.0271310022,
				"y": 1.3058247886,
				"z": 2.3213729568,
				"element": "C" 
			},
			{
				"x": 2.1198960886,
				"y": 2.3329513191,
				"z": 1.3822539012,
				"element": "C" 
			},
			{
				"x": 1.4463625223,
				"y": 2.2342488699,
				"z": 0.1650307924,
				"element": "C" 
			},
			{
				"x": 0.6871186797,
				"y": 1.0989171145,
				"z": -0.1128089088,
				"element": "C" 
			},
			{
				"x": -0.1885169193,
				"y": 1.0284055975,
				"z": -1.6293628977,
				"element": "Cl" 
			},
			{
				"x": -0.8671798624,
				"y": -4.6372700898,
				"z": -1.6475402403,
				"element": "H" 
			},
			{
				"x": -1.1663640589,
				"y": -5.275811785,
				"z": -0.011220414,
				"element": "H" 
			},
			{
				"x": -2.4591579884,
				"y": -4.4571535349,
				"z": -0.88796187,
				"element": "H" 
			},
			{
				"x": 1.1557833727,
				"y": -4.3778059793,
				"z": -0.9347837062,
				"element": "H" 
			},
			{
				"x": 1.183955061,
				"y": -0.6294824861,
				"z": 2.7582165313,
				"element": "H" 
			},
			{
				"x": 2.5424253619,
				"y": 1.383848296,
				"z": 3.2734352419,
				"element": "H" 
			},
			{
				"x": 2.7120050673,
				"y": 3.218133222,
				"z": 1.5942068919,
				"element": "H" 
			},
			{
				"x": 1.5008668275,
				"y": 3.031074428,
				"z": -0.5681034702,
				"element": "H" 
			}
		],
		 "valence_orbital": [ 
			{
				"type": "occ",
				"energy": -0.30513,
				"method": "rhf"
			},
			{
				"type": "occ",
				"energy": -0.28542,
				"method": "rhf"
			},
			{
				"type": "occ",
				"energy": -0.27567,
				"method": "rhf"
			},
			{
				"type": "occ",
				"energy": -0.26347,
				"method": "rhf"
			},
			{
				"type": "occ",
				"energy": -0.24679,
				"method": "rhf"
			},
			{
				"type": "unocc",
				"energy": -0.04681,
				"method": "rhf"
			},
			{
				"type": "unocc",
				"energy": -0.0286,
				"method": "rhf"
			},
			{
				"type": "unocc",
				"energy": -0.01435,
				"method": "rhf"
			},
			{
				"type": "unocc",
				"energy": -0.00582,
				"method": "rhf"
			},
			{
				"type": "unocc",
				"energy": 0.03255,
				"method": "rhf"
			}
		],
		"cosmo_sigma_profile": { 
			"-0.025": 0.0,
			"-0.024": 0.0,
			"-0.023": 0.0,
			"-0.022": 0.0,
			"-0.021": 0.0,
			"-0.02": 0.0,
			"-0.019": 0.125660208442,
			"-0.018": 1.0316864893,
			"-0.017": 0.949189180418,
			"-0.016": 0.594277789266,
			"-0.015": 0.745476685208,
			"-0.014": 1.00671394668,
			"-0.013": 1.09066457858,
			"-0.012": 1.52261813982,
			"-0.011": 0.790986055978,
			"-0.01": 1.3423230755,
			"-0.009": 1.29687252714,
			"-0.008": 4.7919125934,
			"-0.007": 14.4477576497,
			"-0.006": 16.8666324626,
			"-0.005": 16.6483560676,
			"-0.004": 16.7041591291,
			"-0.003": 15.6692008186,
			"-0.002": 12.0913782765,
			"-0.001": 10.7715043937,
			"0.0": 11.1252335838,
			"0.001": 14.1430010543,
			"0.002": 17.6845632569,
			"0.003": 21.6615563468,
			"0.004": 15.504786567,
			"0.005": 6.95152947191,
			"0.006": 7.75610278014,
			"0.007": 7.1385315436,
			"0.008": 5.39513102423,
			"0.009": 5.63031395831,
			"0.01": 7.69356282853,
			"0.011": 5.24582512646,
			"0.012": 4.32305183438,
			"0.013": 1.50123012236,
			"0.014": 0.119025203706,
			"0.015": 0.0,
			"0.016": 0.0,
			"0.017": 0.0,
			"0.018": 0.0,
			"0.019": 0.0,
			"0.02": 0.0,
			"0.021": 0.0,
			"0.022": 0.0,
			"0.023": 0.0,
			"0.024": 0.0,
			"0.025": 0.0
		}
	}
}
