{
	 "smiles": "C1COC2(O1)C1=CC=CC=C1CCC1=CC=CC=C1C21OCCO1", 
	 "Tm": 384.15, 
	 "num_atms": 44, 
	 "gaussian": { 
		 "optdone": 1, 
		 "sigma_profile": "yes", 
		 "theory": "DFT", 
		 "functional": "B3LYP", 
		 "basiset": "6-31G**", 
		 "properties": { 
			 "R2extent": 6381.6086, 
			 "electric_dipole_moment_norm": 2.01110412212, 
			 "electric_quadrupole_moment_norm": 8.60737304118, 
			 "total_energy": -1075.02816556, 
			 "HOMO_LUMO_gap": 0.21559, 
			 "cosmo_polarized_energy": -11.38, 
			 "cosmo_cavitation_energy": 41.98, 
			 "cosmo_dispersion_energy": -29.55, 
			 "cosmo_repulsion_energy": 2.21, 
			 "cosmo_total_nonelectrostatic_energy": 14.63, 
			 "SMD_solvation_energy": 6.82 
		},
		"coords": [
			{
				"x": -0.0315849074,
				"y": 1.2606440548,
				"z": -2.6094800831,
				"element": "C" 
			},
			{
				"x": 1.1797579876,
				"y": 0.4565548969,
				"z": -3.0620487634,
				"element": "C" 
			},
			{
				"x": 1.7735820944,
				"y": 0.1026402138,
				"z": -1.8146686529,
				"element": "O" 
			},
			{
				"x": 0.7376461768,
				"y": -0.0176801932,
				"z": -0.8442364686,
				"element": "C" 
			},
			{
				"x": -0.4282704836,
				"y": 0.5562716666,
				"z": -1.4355219379,
				"element": "O" 
			},
			{
				"x": 1.190219623,
				"y": 0.7513129156,
				"z": 0.4109948777,
				"element": "C" 
			},
			{
				"x": 2.5222628017,
				"y": 1.1862688359,
				"z": 0.4774910163,
				"element": "C" 
			},
			{
				"x": 3.0056786171,
				"y": 1.9103885379,
				"z": 1.5670440334,
				"element": "C" 
			},
			{
				"x": 2.1475379378,
				"y": 2.2262175059,
				"z": 2.6157729076,
				"element": "C" 
			},
			{
				"x": 0.81986981,
				"y": 1.806895914,
				"z": 2.5549730772,
				"element": "C" 
			},
			{
				"x": 0.3160308002,
				"y": 1.0684988825,
				"z": 1.4748965729,
				"element": "C" 
			},
			{
				"x": -1.1331272432,
				"y": 0.6338637808,
				"z": 1.5324195927,
				"element": "C" 
			},
			{
				"x": -1.3193037963,
				"y": -0.8881536557,
				"z": 1.8332770291,
				"element": "C" 
			},
			{
				"x": -1.8355065562,
				"y": -1.664193205,
				"z": 0.6408978961,
				"element": "C" 
			},
			{
				"x": -3.173865168,
				"y": -2.0819572639,
				"z": 0.6535874865,
				"element": "C" 
			},
			{
				"x": -3.7547430728,
				"y": -2.7411039148,
				"z": -0.4278383378,
				"element": "C" 
			},
			{
				"x": -2.9861767274,
				"y": -2.9939762191,
				"z": -1.5608620925,
				"element": "C" 
			},
			{
				"x": -1.650156093,
				"y": -2.5977631692,
				"z": -1.5890404097,
				"element": "C" 
			},
			{
				"x": -1.0576811294,
				"y": -1.9416701467,
				"z": -0.5024253788,
				"element": "C" 
			},
			{
				"x": 0.4302913939,
				"y": -1.5894200945,
				"z": -0.6073681986,
				"element": "C" 
			},
			{
				"x": 0.9803362615,
				"y": -2.3000065113,
				"z": -1.7086658934,
				"element": "O" 
			},
			{
				"x": 2.254150417,
				"y": -2.8296973165,
				"z": -1.3448688718,
				"element": "C" 
			},
			{
				"x": 2.4416826652,
				"y": -2.3974480022,
				"z": 0.1191965852,
				"element": "C" 
			},
			{
				"x": 1.1187838565,
				"y": -2.067076952,
				"z": 0.5355842534,
				"element": "O" 
			},
			{
				"x": 0.2399430735,
				"y": 2.299186754,
				"z": -2.3737373504,
				"element": "H" 
			},
			{
				"x": -0.868203863,
				"y": 1.2503827874,
				"z": -3.3124590872,
				"element": "H" 
			},
			{
				"x": 1.9104985354,
				"y": 1.0307257549,
				"z": -3.6377342977,
				"element": "H" 
			},
			{
				"x": 0.8863739243,
				"y": -0.4432252324,
				"z": -3.6163177858,
				"element": "H" 
			},
			{
				"x": 3.1823074889,
				"y": 0.9671414075,
				"z": -0.3520535836,
				"element": "H" 
			},
			{
				"x": 4.0433218645,
				"y": 2.2317864535,
				"z": 1.5840204356,
				"element": "H" 
			},
			{
				"x": 2.500969558,
				"y": 2.7962740028,
				"z": 3.4704909597,
				"element": "H" 
			},
			{
				"x": 0.1440636377,
				"y": 2.0569159838,
				"z": 3.3691997065,
				"element": "H" 
			},
			{
				"x": -1.6247633797,
				"y": 1.2111738472,
				"z": 2.3216875899,
				"element": "H" 
			},
			{
				"x": -1.6400234386,
				"y": 0.883133306,
				"z": 0.5973746614,
				"element": "H" 
			},
			{
				"x": -0.3758618328,
				"y": -1.3095062996,
				"z": 2.1868451006,
				"element": "H" 
			},
			{
				"x": -2.041352731,
				"y": -0.9999451028,
				"z": 2.6481508732,
				"element": "H" 
			},
			{
				"x": -3.7711331119,
				"y": -1.8780128416,
				"z": 1.5389984854,
				"element": "H" 
			},
			{
				"x": -4.7953395413,
				"y": -3.0504306094,
				"z": -0.3828456134,
				"element": "H" 
			},
			{
				"x": -3.4161131191,
				"y": -3.5038539186,
				"z": -2.4184383632,
				"element": "H" 
			},
			{
				"x": -1.0450287831,
				"y": -2.812716197,
				"z": -2.4603409668,
				"element": "H" 
			},
			{
				"x": 3.0302249846,
				"y": -2.4210453908,
				"z": -1.9995369043,
				"element": "H" 
			},
			{
				"x": 2.2205377123,
				"y": -3.9197486977,
				"z": -1.4559617389,
				"element": "H" 
			},
			{
				"x": 3.1065229065,
				"y": -1.52982238,
				"z": 0.2060346904,
				"element": "H" 
			},
			{
				"x": 2.8077408494,
				"y": -3.1966241875,
				"z": 0.7684129494,
				"element": "H" 
			}
		],
		 "valence_orbital": [ 
			{
				"type": "occ",
				"energy": -0.23949,
				"method": "rhf"
			},
			{
				"type": "occ",
				"energy": -0.23752,
				"method": "rhf"
			},
			{
				"type": "occ",
				"energy": -0.23571,
				"method": "rhf"
			},
			{
				"type": "occ",
				"energy": -0.23279,
				"method": "rhf"
			},
			{
				"type": "occ",
				"energy": -0.22245,
				"method": "rhf"
			},
			{
				"type": "unocc",
				"energy": -0.00686,
				"method": "rhf"
			},
			{
				"type": "unocc",
				"energy": 0.00823,
				"method": "rhf"
			},
			{
				"type": "unocc",
				"energy": 0.01126,
				"method": "rhf"
			},
			{
				"type": "unocc",
				"energy": 0.01484,
				"method": "rhf"
			},
			{
				"type": "unocc",
				"energy": 0.08763,
				"method": "rhf"
			}
		],
		"cosmo_sigma_profile": { 
			"-0.025": 0.0,
			"-0.024": 0.0,
			"-0.023": 0.0,
			"-0.022": 0.0,
			"-0.021": 0.0,
			"-0.02": 0.0,
			"-0.019": 0.0,
			"-0.018": 0.0,
			"-0.017": 0.0,
			"-0.016": 0.0,
			"-0.015": 0.0,
			"-0.014": 0.0,
			"-0.013": 0.0,
			"-0.012": 0.0,
			"-0.011": 0.0,
			"-0.01": 0.0,
			"-0.009": 0.0,
			"-0.008": 0.0,
			"-0.007": 0.904782589906,
			"-0.006": 12.1007716144,
			"-0.005": 33.9526581436,
			"-0.004": 38.1956530321,
			"-0.003": 34.7812463047,
			"-0.002": 25.3609851618,
			"-0.001": 22.9797646104,
			"0.0": 23.5714530266,
			"0.001": 20.1996296323,
			"0.002": 18.6394212676,
			"0.003": 18.6380909577,
			"0.004": 19.7661440518,
			"0.005": 22.2068193788,
			"0.006": 22.2230913164,
			"0.007": 9.75351730509,
			"0.008": 4.02631228791,
			"0.009": 2.18190457851,
			"0.01": 1.83015323205,
			"0.011": 0.667357765598,
			"0.012": 0.0891971886967,
			"0.013": 0.0,
			"0.014": 0.0,
			"0.015": 0.0,
			"0.016": 0.0,
			"0.017": 0.0,
			"0.018": 0.0,
			"0.019": 0.0,
			"0.02": 0.0,
			"0.021": 0.0,
			"0.022": 0.0,
			"0.023": 0.0,
			"0.024": 0.0,
			"0.025": 0.0
		}
	}
}
