{
	 "smiles": "FC1=CC=C(C=C1)C1=NC(=CS1)S(Cl)(=O)=O", 
	 "Tm": 349.15, 
	 "num_atms": 21, 
	 "gaussian": { 
		 "optdone": 1, 
		 "sigma_profile": "yes", 
		 "theory": "DFT", 
		 "functional": "B3LYP", 
		 "basiset": "6-31G**", 
		 "properties": { 
			 "R2extent": 7009.1315, 
			 "electric_dipole_moment_norm": 5.56329334208, 
			 "electric_quadrupole_moment_norm": 24.111695138, 
			 "total_energy": -1907.49055913, 
			 "HOMO_LUMO_gap": 0.16144, 
			 "cosmo_polarized_energy": -11.67, 
			 "cosmo_cavitation_energy": 32.2, 
			 "cosmo_dispersion_energy": -24.26, 
			 "cosmo_repulsion_energy": 1.77, 
			 "cosmo_total_nonelectrostatic_energy": 9.71, 
			 "SMD_solvation_energy": 3.33 
		},
		"coords": [
			{
				"x": 4.9058223743,
				"y": 1.1122207176,
				"z": 0.2733716435,
				"element": "F" 
			},
			{
				"x": 3.6738056599,
				"y": 0.7898285538,
				"z": -0.1565119948,
				"element": "C" 
			},
			{
				"x": 2.6407593448,
				"y": 0.6823339219,
				"z": 0.7710107539,
				"element": "C" 
			},
			{
				"x": 1.3688467243,
				"y": 0.3485065048,
				"z": 0.3218814952,
				"element": "C" 
			},
			{
				"x": 1.1286059069,
				"y": 0.1232770152,
				"z": -1.0466904909,
				"element": "C" 
			},
			{
				"x": 2.1933473686,
				"y": 0.2404077935,
				"z": -1.9553040269,
				"element": "C" 
			},
			{
				"x": 3.4705687285,
				"y": 0.573716503,
				"z": -1.5161454406,
				"element": "C" 
			},
			{
				"x": -0.2279852248,
				"y": -0.2256967417,
				"z": -1.4763199345,
				"element": "C" 
			},
			{
				"x": -1.2518684478,
				"y": -0.3174794791,
				"z": -0.667675697,
				"element": "N" 
			},
			{
				"x": -2.373717531,
				"y": -0.6598994365,
				"z": -1.3522237786,
				"element": "C" 
			},
			{
				"x": -2.2782704095,
				"y": -0.842165252,
				"z": -2.7026196088,
				"element": "C" 
			},
			{
				"x": -0.6389559883,
				"y": -0.5766126837,
				"z": -3.1704427988,
				"element": "S" 
			},
			{
				"x": -3.9091333628,
				"y": -0.8896651164,
				"z": -0.4743424275,
				"element": "S" 
			},
			{
				"x": -4.3641208828,
				"y": 1.1086881579,
				"z": 0.0766803971,
				"element": "Cl" 
			},
			{
				"x": -4.9137963056,
				"y": -1.2984256728,
				"z": -1.4487686918,
				"element": "O" 
			},
			{
				"x": -3.6764029247,
				"y": -1.6195118954,
				"z": 0.761579664,
				"element": "O" 
			},
			{
				"x": 2.8431346578,
				"y": 0.85860926,
				"z": 1.8216100761,
				"element": "H" 
			},
			{
				"x": 0.5449660283,
				"y": 0.2565046585,
				"z": 1.0204050402,
				"element": "H" 
			},
			{
				"x": 2.0330041145,
				"y": 0.0737026564,
				"z": -3.0167719572,
				"element": "H" 
			},
			{
				"x": 4.3022351787,
				"y": 0.6683699411,
				"z": -2.2051257077,
				"element": "H" 
			},
			{
				"x": -3.0568450091,
				"y": -1.1098094063,
				"z": -3.4010965148,
				"element": "H" 
			}
		],
		 "valence_orbital": [ 
			{
				"type": "occ",
				"energy": -0.31477,
				"method": "rhf"
			},
			{
				"type": "occ",
				"energy": -0.31404,
				"method": "rhf"
			},
			{
				"type": "occ",
				"energy": -0.30625,
				"method": "rhf"
			},
			{
				"type": "occ",
				"energy": -0.28576,
				"method": "rhf"
			},
			{
				"type": "occ",
				"energy": -0.25096,
				"method": "rhf"
			},
			{
				"type": "unocc",
				"energy": -0.08952,
				"method": "rhf"
			},
			{
				"type": "unocc",
				"energy": -0.0808,
				"method": "rhf"
			},
			{
				"type": "unocc",
				"energy": -0.0364,
				"method": "rhf"
			},
			{
				"type": "unocc",
				"energy": -0.02623,
				"method": "rhf"
			},
			{
				"type": "unocc",
				"energy": -0.01415,
				"method": "rhf"
			}
		],
		"cosmo_sigma_profile": { 
			"-0.025": 0.0,
			"-0.024": 0.0,
			"-0.023": 0.0,
			"-0.022": 0.0,
			"-0.021": 0.0,
			"-0.02": 0.0,
			"-0.019": 0.0,
			"-0.018": 0.0,
			"-0.017": 0.0,
			"-0.016": 0.0,
			"-0.015": 0.0,
			"-0.014": 0.0,
			"-0.013": 0.0175335183885,
			"-0.012": 1.10200532967,
			"-0.011": 1.68046540364,
			"-0.01": 1.34492636201,
			"-0.009": 2.74289898972,
			"-0.008": 6.10195518242,
			"-0.007": 9.07806381691,
			"-0.006": 9.59800917687,
			"-0.005": 11.3350307693,
			"-0.004": 12.9999328455,
			"-0.003": 17.6669233527,
			"-0.002": 19.4428037581,
			"-0.001": 21.2409226411,
			"0.0": 25.5834573982,
			"0.001": 24.6095121471,
			"0.002": 26.2442537075,
			"0.003": 26.072182534,
			"0.004": 15.0780454836,
			"0.005": 3.73774872502,
			"0.006": 5.00807744531,
			"0.007": 8.74157887614,
			"0.008": 12.7943802565,
			"0.009": 3.40340725128,
			"0.01": 0.0,
			"0.011": 0.0,
			"0.012": 0.0,
			"0.013": 0.0,
			"0.014": 0.0,
			"0.015": 0.0,
			"0.016": 0.0,
			"0.017": 0.0,
			"0.018": 0.0,
			"0.019": 0.0,
			"0.02": 0.0,
			"0.021": 0.0,
			"0.022": 0.0,
			"0.023": 0.0,
			"0.024": 0.0,
			"0.025": 0.0
		}
	}
}
