{
	 "smiles": "CC(CCC(O)=O)C1CCC2C3C(O)CC4CC5(CCC4(C)C3CC(=O)C12C)OCCO5", 
	 "Tm": 492.15, 
	 "num_atms": 72, 
	 "gaussian": { 
		 "optdone": 1, 
		 "sigma_profile": "yes", 
		 "theory": "DFT", 
		 "functional": "B3LYP", 
		 "basiset": "6-31G**", 
		 "properties": { 
			 "R2extent": 15446.5914, 
			 "electric_dipole_moment_norm": 2.85181023738, 
			 "electric_quadrupole_moment_norm": 39.7440059886, 
			 "total_energy": -1466.21461512, 
			 "HOMO_LUMO_gap": 0.2151, 
			 "cosmo_polarized_energy": -23.41, 
			 "cosmo_cavitation_energy": 59.87, 
			 "cosmo_dispersion_energy": -40.43, 
			 "cosmo_repulsion_energy": 2.92, 
			 "cosmo_total_nonelectrostatic_energy": 22.36, 
			 "SMD_solvation_energy": 9.67 
		},
		"coords": [
			{
				"x": 4.3958237592,
				"y": 0.3017752999,
				"z": 1.4260238133,
				"element": "C" 
			},
			{
				"x": 3.048768382,
				"y": -0.4297677477,
				"z": 1.5731727111,
				"element": "C" 
			},
			{
				"x": 2.9349450315,
				"y": -1.0604596612,
				"z": 2.9852680556,
				"element": "C" 
			},
			{
				"x": 3.1206362696,
				"y": -0.1217352366,
				"z": 4.1871805087,
				"element": "C" 
			},
			{
				"x": 2.1246267723,
				"y": 1.0247356416,
				"z": 4.2977802946,
				"element": "C" 
			},
			{
				"x": 2.3297883968,
				"y": 1.8626704929,
				"z": 5.3500252485,
				"element": "O" 
			},
			{
				"x": 1.1993321274,
				"y": 1.2359437368,
				"z": 3.5504515063,
				"element": "O" 
			},
			{
				"x": 2.8253240934,
				"y": -1.5358664756,
				"z": 0.4801617739,
				"element": "C" 
			},
			{
				"x": 3.4627457305,
				"y": -1.2124786485,
				"z": -0.8907679125,
				"element": "C" 
			},
			{
				"x": 2.4538096597,
				"y": -0.2819750101,
				"z": -1.582865564,
				"element": "C" 
			},
			{
				"x": 1.0462968254,
				"y": -0.7154481386,
				"z": -1.0719677645,
				"element": "C" 
			},
			{
				"x": 0.1639991023,
				"y": 0.500181852,
				"z": -0.6921735337,
				"element": "C" 
			},
			{
				"x": -0.2541068831,
				"y": 1.2420833294,
				"z": -1.9742066594,
				"element": "C" 
			},
			{
				"x": -1.048946208,
				"y": 0.3598571501,
				"z": -2.7644466102,
				"element": "O" 
			},
			{
				"x": -0.9532382345,
				"y": 2.5468252585,
				"z": -1.6135882727,
				"element": "C" 
			},
			{
				"x": -2.1097381924,
				"y": 2.4741151067,
				"z": -0.5746956343,
				"element": "C" 
			},
			{
				"x": -3.4897127393,
				"y": 2.7896000694,
				"z": -1.1956169729,
				"element": "C" 
			},
			{
				"x": -4.14322994,
				"y": 1.6411920276,
				"z": -1.9595347571,
				"element": "C" 
			},
			{
				"x": -3.9927584906,
				"y": 0.3022539552,
				"z": -1.2120526713,
				"element": "C" 
			},
			{
				"x": -3.5653783516,
				"y": 0.5118494693,
				"z": 0.2472543838,
				"element": "C" 
			},
			{
				"x": -2.1723288383,
				"y": 1.2000669051,
				"z": 0.3857418766,
				"element": "C" 
			},
			{
				"x": -2.0673009136,
				"y": 1.7530477158,
				"z": 1.826785423,
				"element": "C" 
			},
			{
				"x": -1.0848565026,
				"y": 0.0755953064,
				"z": 0.1005797404,
				"element": "C" 
			},
			{
				"x": -0.642989003,
				"y": -0.6406632712,
				"z": 1.389788855,
				"element": "C" 
			},
			{
				"x": 0.3144677651,
				"y": -1.7986210223,
				"z": 1.1998269871,
				"element": "C" 
			},
			{
				"x": 0.2880866422,
				"y": -2.7407746995,
				"z": 1.9797409078,
				"element": "O" 
			},
			{
				"x": 1.3236779251,
				"y": -1.7897047914,
				"z": 0.0413346756,
				"element": "C" 
			},
			{
				"x": 1.2177354952,
				"y": -3.2081140842,
				"z": -0.581222627,
				"element": "C" 
			},
			{
				"x": -5.5126520073,
				"y": 1.9996833023,
				"z": -2.1704513328,
				"element": "O" 
			},
			{
				"x": -5.8480904687,
				"y": 1.683968744,
				"z": -3.5156145878,
				"element": "C" 
			},
			{
				"x": -4.5350745313,
				"y": 1.9511641935,
				"z": -4.2421759501,
				"element": "C" 
			},
			{
				"x": -3.5769696765,
				"y": 1.4963513081,
				"z": -3.2885882756,
				"element": "O" 
			},
			{
				"x": 5.2431999012,
				"y": -0.393419451,
				"z": 1.4772284845,
				"element": "H" 
			},
			{
				"x": 4.5292120038,
				"y": 1.0440997167,
				"z": 2.2189269102,
				"element": "H" 
			},
			{
				"x": 4.4664286649,
				"y": 0.8477386788,
				"z": 0.482339166,
				"element": "H" 
			},
			{
				"x": 2.2640406907,
				"y": 0.3274723548,
				"z": 1.4817771529,
				"element": "H" 
			},
			{
				"x": 1.9765336746,
				"y": -1.5698381599,
				"z": 3.0918112412,
				"element": "H" 
			},
			{
				"x": 3.7009476101,
				"y": -1.8431601245,
				"z": 3.0717534568,
				"element": "H" 
			},
			{
				"x": 4.1293028021,
				"y": 0.3115181529,
				"z": 4.2071520324,
				"element": "H" 
			},
			{
				"x": 3.0358137277,
				"y": -0.7095433299,
				"z": 5.1124347789,
				"element": "H" 
			},
			{
				"x": 3.0954372354,
				"y": 1.5702092427,
				"z": 5.8648756015,
				"element": "H" 
			},
			{
				"x": 3.2415325306,
				"y": -2.4709363333,
				"z": 0.8752896814,
				"element": "H" 
			},
			{
				"x": 4.4628534973,
				"y": -0.7809614104,
				"z": -0.820134232,
				"element": "H" 
			},
			{
				"x": 3.5760041367,
				"y": -2.139086028,
				"z": -1.4611250118,
				"element": "H" 
			},
			{
				"x": 2.5341959736,
				"y": -0.3213819858,
				"z": -2.6733971063,
				"element": "H" 
			},
			{
				"x": 2.649762361,
				"y": 0.7587768223,
				"z": -1.2936117043,
				"element": "H" 
			},
			{
				"x": 0.5058278649,
				"y": -1.218027702,
				"z": -1.8803967418,
				"element": "H" 
			},
			{
				"x": 0.7564850992,
				"y": 1.2032075766,
				"z": -0.0863447281,
				"element": "H" 
			},
			{
				"x": 0.6517990107,
				"y": 1.5043056063,
				"z": -2.5448802596,
				"element": "H" 
			},
			{
				"x": -1.7675264831,
				"y": 0.855135866,
				"z": -3.1885614271,
				"element": "H" 
			},
			{
				"x": -1.3099810101,
				"y": 3.0297946328,
				"z": -2.5319349946,
				"element": "H" 
			},
			{
				"x": -0.1721177788,
				"y": 3.2075072045,
				"z": -1.2176484468,
				"element": "H" 
			},
			{
				"x": -1.9257367081,
				"y": 3.3238684161,
				"z": 0.0894639336,
				"element": "H" 
			},
			{
				"x": -3.4191115818,
				"y": 3.658608268,
				"z": -1.8589356746,
				"element": "H" 
			},
			{
				"x": -4.1896249147,
				"y": 3.0661582188,
				"z": -0.399603408,
				"element": "H" 
			},
			{
				"x": -3.2451950822,
				"y": -0.2952941264,
				"z": -1.7388456791,
				"element": "H" 
			},
			{
				"x": -4.9461704364,
				"y": -0.2333774283,
				"z": -1.266323775,
				"element": "H" 
			},
			{
				"x": -4.3270472477,
				"y": 1.1047585529,
				"z": 0.7687840564,
				"element": "H" 
			},
			{
				"x": -3.5371326991,
				"y": -0.4550560452,
				"z": 0.7632648261,
				"element": "H" 
			},
			{
				"x": -2.8018450811,
				"y": 2.5544721951,
				"z": 1.9654680538,
				"element": "H" 
			},
			{
				"x": -1.0770971963,
				"y": 2.1686281788,
				"z": 2.0405399909,
				"element": "H" 
			},
			{
				"x": -2.2765599389,
				"y": 0.9929586985,
				"z": 2.5840884345,
				"element": "H" 
			},
			{
				"x": -1.5770662335,
				"y": -0.6701928293,
				"z": -0.5328027898,
				"element": "H" 
			},
			{
				"x": -0.120404296,
				"y": 0.0617329411,
				"z": 2.05275726,
				"element": "H" 
			},
			{
				"x": -1.4868357291,
				"y": -1.037373297,
				"z": 1.9622179643,
				"element": "H" 
			},
			{
				"x": 1.8797031446,
				"y": -3.3233917889,
				"z": -1.4425583244,
				"element": "H" 
			},
			{
				"x": 1.4597756128,
				"y": -3.9672640477,
				"z": 0.1651467035,
				"element": "H" 
			},
			{
				"x": 0.1961697408,
				"y": -3.3946451369,
				"z": -0.929292648,
				"element": "H" 
			},
			{
				"x": -6.6734071387,
				"y": 2.3292081513,
				"z": -3.8273448964,
				"element": "H" 
			},
			{
				"x": -6.1511793973,
				"y": 0.6314331732,
				"z": -3.6205072959,
				"element": "H" 
			},
			{
				"x": -4.4055007886,
				"y": 1.3802981601,
				"z": -5.1655464788,
				"element": "H" 
			},
			{
				"x": -4.4063785381,
				"y": 3.0220063384,
				"z": -4.4541717421,
				"element": "H" 
			}
		],
		 "valence_orbital": [ 
			{
				"type": "occ",
				"energy": -0.27348,
				"method": "rhf"
			},
			{
				"type": "occ",
				"energy": -0.27051,
				"method": "rhf"
			},
			{
				"type": "occ",
				"energy": -0.25009,
				"method": "rhf"
			},
			{
				"type": "occ",
				"energy": -0.24244,
				"method": "rhf"
			},
			{
				"type": "occ",
				"energy": -0.21971,
				"method": "rhf"
			},
			{
				"type": "unocc",
				"energy": -0.00461,
				"method": "rhf"
			},
			{
				"type": "unocc",
				"energy": 0.00431,
				"method": "rhf"
			},
			{
				"type": "unocc",
				"energy": 0.05024,
				"method": "rhf"
			},
			{
				"type": "unocc",
				"energy": 0.06977,
				"method": "rhf"
			},
			{
				"type": "unocc",
				"energy": 0.08215,
				"method": "rhf"
			}
		],
		"cosmo_sigma_profile": { 
			"-0.025": 0.0,
			"-0.024": 0.0,
			"-0.023": 0.0,
			"-0.022": 0.0,
			"-0.021": 0.0,
			"-0.02": 0.0,
			"-0.019": 0.226435815781,
			"-0.018": 1.09725784356,
			"-0.017": 1.13387319763,
			"-0.016": 0.933589306885,
			"-0.015": 1.31615835628,
			"-0.014": 1.33416603877,
			"-0.013": 1.27931994882,
			"-0.012": 0.987691292609,
			"-0.011": 0.899131808082,
			"-0.01": 1.14080065945,
			"-0.009": 1.45789427657,
			"-0.008": 2.31425193899,
			"-0.007": 2.98957208826,
			"-0.006": 9.22984516785,
			"-0.005": 13.7179855248,
			"-0.004": 25.2144730185,
			"-0.003": 49.9534000954,
			"-0.002": 78.4384216702,
			"-0.001": 60.6330911595,
			"0.0": 48.1119209993,
			"0.001": 40.8933056091,
			"0.002": 22.8379689119,
			"0.003": 12.6239538751,
			"0.004": 10.8719094828,
			"0.005": 9.5159125419,
			"0.006": 9.40331112864,
			"0.007": 7.95514489892,
			"0.008": 6.3605593516,
			"0.009": 7.40206152647,
			"0.01": 8.14109497687,
			"0.011": 7.682489043,
			"0.012": 6.36053189468,
			"0.013": 5.44860627659,
			"0.014": 1.7759101199,
			"0.015": 0.512396899103,
			"0.016": 0.0,
			"0.017": 0.0,
			"0.018": 0.0,
			"0.019": 0.0,
			"0.02": 0.0,
			"0.021": 0.0,
			"0.022": 0.0,
			"0.023": 0.0,
			"0.024": 0.0,
			"0.025": 0.0
		}
	}
}
