{
	 "smiles": "CNC1=CC=C(O)C2=C1C(=O)C1=C(C2=O)C(NC)=CC=C1O", 
	 "Tm": 490.15, 
	 "num_atms": 36, 
	 "gaussian": { 
		 "optdone": 1, 
		 "sigma_profile": "yes", 
		 "theory": "DFT", 
		 "functional": "B3LYP", 
		 "basiset": "6-31G**", 
		 "properties": { 
			 "R2extent": 8090.8984, 
			 "electric_dipole_moment_norm": 2.86790746713, 
			 "electric_quadrupole_moment_norm": 25.1273472923, 
			 "total_energy": -1028.56472762, 
			 "HOMO_LUMO_gap": 0.08782, 
			 "cosmo_polarized_energy": -18.79, 
			 "cosmo_cavitation_energy": 38.01, 
			 "cosmo_dispersion_energy": -29.12, 
			 "cosmo_repulsion_energy": 2.14, 
			 "cosmo_total_nonelectrostatic_energy": 11.03, 
			 "SMD_solvation_energy": 5.91 
		},
		"coords": [
			{
				"x": -1.5507173974,
				"y": 3.6273352821,
				"z": 3.4344721694,
				"element": "C" 
			},
			{
				"x": -0.8963540287,
				"y": 2.7723975961,
				"z": 2.472250005,
				"element": "N" 
			},
			{
				"x": -0.7938729393,
				"y": 3.0455366639,
				"z": 1.1424579596,
				"element": "C" 
			},
			{
				"x": -1.3541765674,
				"y": 4.2382374772,
				"z": 0.6230236719,
				"element": "C" 
			},
			{
				"x": -1.2642103115,
				"y": 4.5373703493,
				"z": -0.7170661647,
				"element": "C" 
			},
			{
				"x": -0.6192692348,
				"y": 3.6860146836,
				"z": -1.6326971112,
				"element": "C" 
			},
			{
				"x": -0.5659571966,
				"y": 4.0422061336,
				"z": -2.9453552464,
				"element": "O" 
			},
			{
				"x": -0.0454026791,
				"y": 2.4875993748,
				"z": -1.1678435331,
				"element": "C" 
			},
			{
				"x": -0.1312583806,
				"y": 2.1630935347,
				"z": 0.2251846945,
				"element": "C" 
			},
			{
				"x": 0.4643573817,
				"y": 0.9203028667,
				"z": 0.7075627981,
				"element": "C" 
			},
			{
				"x": 0.4048785552,
				"y": 0.603929135,
				"z": 1.9371428212,
				"element": "O" 
			},
			{
				"x": 1.1410962984,
				"y": 0.0173867497,
				"z": -0.221095415,
				"element": "C" 
			},
			{
				"x": 1.2328734709,
				"y": 0.3298815806,
				"z": -1.6109554792,
				"element": "C" 
			},
			{
				"x": 0.6429120654,
				"y": 1.5705631864,
				"z": -2.1207543782,
				"element": "C" 
			},
			{
				"x": 0.7082119908,
				"y": 1.867263516,
				"z": -3.3290552292,
				"element": "O" 
			},
			{
				"x": 1.8993022746,
				"y": -0.5690339878,
				"z": -2.4966951369,
				"element": "C" 
			},
			{
				"x": 2.0107772558,
				"y": -0.3127209504,
				"z": -3.8278969643,
				"element": "N" 
			},
			{
				"x": 2.669676045,
				"y": -1.1739049547,
				"z": -4.7809000331,
				"element": "C" 
			},
			{
				"x": 2.4550278736,
				"y": -1.7614057316,
				"z": -1.9476853056,
				"element": "C" 
			},
			{
				"x": 2.3608995,
				"y": -2.0521208327,
				"z": -0.6086897458,
				"element": "C" 
			},
			{
				"x": 1.7056787576,
				"y": -1.1756646653,
				"z": 0.2825582486,
				"element": "C" 
			},
			{
				"x": 1.6576369821,
				"y": -1.5334396445,
				"z": 1.5736780079,
				"element": "O" 
			},
			{
				"x": -2.6168018276,
				"y": 3.7716234581,
				"z": 3.2091507006,
				"element": "H" 
			},
			{
				"x": -1.0817699667,
				"y": 4.6192690166,
				"z": 3.4998406094,
				"element": "H" 
			},
			{
				"x": -1.4775270649,
				"y": 3.1577150137,
				"z": 4.4171813526,
				"element": "H" 
			},
			{
				"x": -0.4672647125,
				"y": 1.8983803014,
				"z": 2.7591330719,
				"element": "H" 
			},
			{
				"x": -1.8617103821,
				"y": 4.9276114057,
				"z": 1.2865779077,
				"element": "H" 
			},
			{
				"x": -1.7053765175,
				"y": 5.4624638687,
				"z": -1.0851575585,
				"element": "H" 
			},
			{
				"x": -1.0176157079,
				"y": 4.8918263639,
				"z": -3.0411122401,
				"element": "H" 
			},
			{
				"x": 1.5789695886,
				"y": 0.5647575879,
				"z": -4.1140282156,
				"element": "H" 
			},
			{
				"x": 3.7346975531,
				"y": -1.3176626681,
				"z": -4.5500206162,
				"element": "H" 
			},
			{
				"x": 2.2010768273,
				"y": -2.1662503681,
				"z": -4.8436980369,
				"element": "H" 
			},
			{
				"x": 2.6017626271,
				"y": -0.7099587604,
				"z": -5.7667955623,
				"element": "H" 
			},
			{
				"x": 2.9651941235,
				"y": -2.4570199,
				"z": -2.603943578,
				"element": "H" 
			},
			{
				"x": 2.7874390016,
				"y": -2.9627678075,
				"z": -0.2006905222,
				"element": "H" 
			},
			{
				"x": 1.1628167426,
				"y": -0.7964148744,
				"z": 2.028322054,
				"element": "H" 
			}
		],
		 "valence_orbital": [ 
			{
				"type": "occ",
				"energy": -0.2597,
				"method": "rhf"
			},
			{
				"type": "occ",
				"energy": -0.25451,
				"method": "rhf"
			},
			{
				"type": "occ",
				"energy": -0.23314,
				"method": "rhf"
			},
			{
				"type": "occ",
				"energy": -0.19599,
				"method": "rhf"
			},
			{
				"type": "occ",
				"energy": -0.17737,
				"method": "rhf"
			},
			{
				"type": "unocc",
				"energy": -0.08955,
				"method": "rhf"
			},
			{
				"type": "unocc",
				"energy": -0.02323,
				"method": "rhf"
			},
			{
				"type": "unocc",
				"energy": -0.01326,
				"method": "rhf"
			},
			{
				"type": "unocc",
				"energy": 0.03014,
				"method": "rhf"
			},
			{
				"type": "unocc",
				"energy": 0.06805,
				"method": "rhf"
			}
		],
		"cosmo_sigma_profile": { 
			"-0.025": 0.0,
			"-0.024": 0.0,
			"-0.023": 0.0,
			"-0.022": 0.0,
			"-0.021": 0.0,
			"-0.02": 0.0,
			"-0.019": 0.0,
			"-0.018": 0.666225927842,
			"-0.017": 1.28022102956,
			"-0.016": 1.16550860013,
			"-0.015": 1.07422596673,
			"-0.014": 1.26848692672,
			"-0.013": 0.755480741539,
			"-0.012": 0.656108455435,
			"-0.011": 1.15721628746,
			"-0.01": 1.5413102318,
			"-0.009": 1.72390263605,
			"-0.008": 2.65263945662,
			"-0.007": 6.89965092126,
			"-0.006": 16.1100024327,
			"-0.005": 20.380144524,
			"-0.004": 21.4206845219,
			"-0.003": 18.3816550156,
			"-0.002": 22.538652639,
			"-0.001": 19.6126022403,
			"0.0": 20.5240463353,
			"0.001": 21.6668783662,
			"0.002": 37.5160456843,
			"0.003": 31.5541516754,
			"0.004": 13.1316381713,
			"0.005": 5.21846513243,
			"0.006": 5.50828648951,
			"0.007": 5.80117685994,
			"0.008": 3.01206911737,
			"0.009": 3.40602648903,
			"0.01": 3.34988240711,
			"0.011": 3.44109464509,
			"0.012": 3.17273613846,
			"0.013": 1.70569165365,
			"0.014": 0.908646948728,
			"0.015": 1.72597397944,
			"0.016": 1.4972082813,
			"0.017": 1.18456449556,
			"0.018": 0.29035777734,
			"0.019": 0.0,
			"0.02": 0.0,
			"0.021": 0.0,
			"0.022": 0.0,
			"0.023": 0.0,
			"0.024": 0.0,
			"0.025": 0.0
		}
	}
}
