{
	 "smiles": "CC1=CC=C(C=C1)N1N=C(C=C1N)C(C)(C)C", 
	 "Tm": 390.15, 
	 "num_atms": 36, 
	 "gaussian": { 
		 "optdone": 1, 
		 "sigma_profile": "yes", 
		 "theory": "DFT", 
		 "functional": "B3LYP", 
		 "basiset": "6-31G**", 
		 "properties": { 
			 "R2extent": 6415.4922, 
			 "electric_dipole_moment_norm": 3.04735367655, 
			 "electric_quadrupole_moment_norm": 10.7665743359, 
			 "total_energy": -709.199932346, 
			 "HOMO_LUMO_gap": 0.19267, 
			 "cosmo_polarized_energy": -11.82, 
			 "cosmo_cavitation_energy": 37.76, 
			 "cosmo_dispersion_energy": -26.6, 
			 "cosmo_repulsion_energy": 2.08, 
			 "cosmo_total_nonelectrostatic_energy": 13.24, 
			 "SMD_solvation_energy": 6.02 
		},
		"coords": [
			{
				"x": 3.7286577747,
				"y": -2.3263716246,
				"z": -4.8197475257,
				"element": "C" 
			},
			{
				"x": 2.7532930698,
				"y": -1.5159165534,
				"z": -3.999320909,
				"element": "C" 
			},
			{
				"x": 2.6444718436,
				"y": -1.7060193198,
				"z": -2.6127703273,
				"element": "C" 
			},
			{
				"x": 1.7740178989,
				"y": -0.9466182004,
				"z": -1.839168248,
				"element": "C" 
			},
			{
				"x": 0.9698748987,
				"y": 0.0276127988,
				"z": -2.4466569751,
				"element": "C" 
			},
			{
				"x": 1.0415380332,
				"y": 0.2146586314,
				"z": -3.8322478278,
				"element": "C" 
			},
			{
				"x": 1.934977798,
				"y": -0.5467944123,
				"z": -4.5882320584,
				"element": "C" 
			},
			{
				"x": 0.0781216538,
				"y": 0.7832038132,
				"z": -1.644698005,
				"element": "N" 
			},
			{
				"x": -0.4793819434,
				"y": 0.2037327499,
				"z": -0.5272846697,
				"element": "N" 
			},
			{
				"x": -1.218622684,
				"y": 1.1537901578,
				"z": 0.0295489258,
				"element": "C" 
			},
			{
				"x": -1.1400712341,
				"y": 2.3701117407,
				"z": -0.7030128694,
				"element": "C" 
			},
			{
				"x": -0.2933472707,
				"y": 2.1001810215,
				"z": -1.7609495536,
				"element": "C" 
			},
			{
				"x": 0.1261199433,
				"y": 2.9171704868,
				"z": -2.8115203355,
				"element": "N" 
			},
			{
				"x": -2.0280824633,
				"y": 0.8874040303,
				"z": 1.2873692964,
				"element": "C" 
			},
			{
				"x": -1.6215720467,
				"y": 1.9023486153,
				"z": 2.3798916817,
				"element": "C" 
			},
			{
				"x": -1.779959589,
				"y": -0.5416139732,
				"z": 1.8023683144,
				"element": "C" 
			},
			{
				"x": -3.5305198764,
				"y": 1.0612542885,
				"z": 0.965672855,
				"element": "C" 
			},
			{
				"x": 4.7594862437,
				"y": -1.9806850313,
				"z": -4.6717887702,
				"element": "H" 
			},
			{
				"x": 3.5088844683,
				"y": -2.2535633161,
				"z": -5.8887373016,
				"element": "H" 
			},
			{
				"x": 3.7025187887,
				"y": -3.3853589444,
				"z": -4.5420019644,
				"element": "H" 
			},
			{
				"x": 3.2584371283,
				"y": -2.4613017779,
				"z": -2.1278380075,
				"element": "H" 
			},
			{
				"x": 1.6881659586,
				"y": -1.1014492796,
				"z": -0.7704468345,
				"element": "H" 
			},
			{
				"x": 0.3856444394,
				"y": 0.9273653975,
				"z": -4.3193809389,
				"element": "H" 
			},
			{
				"x": 1.977891956,
				"y": -0.3923905838,
				"z": -5.6635817249,
				"element": "H" 
			},
			{
				"x": -1.6195579516,
				"y": 3.3144261993,
				"z": -0.4910006733,
				"element": "H" 
			},
			{
				"x": 1.0832301136,
				"y": 2.7479405584,
				"z": -3.1016764064,
				"element": "H" 
			},
			{
				"x": -0.010992808,
				"y": 3.8973221955,
				"z": -2.5990080393,
				"element": "H" 
			},
			{
				"x": -0.560239513,
				"y": 1.8048153921,
				"z": 2.6305452805,
				"element": "H" 
			},
			{
				"x": -2.2037686866,
				"y": 1.7340375606,
				"z": 3.2930870323,
				"element": "H" 
			},
			{
				"x": -1.797030433,
				"y": 2.9339354404,
				"z": 2.0572343673,
				"element": "H" 
			},
			{
				"x": -0.7255419475,
				"y": -0.696120319,
				"z": 2.0479802691,
				"element": "H" 
			},
			{
				"x": -2.375513388,
				"y": -0.7214066784,
				"z": 2.7042368417,
				"element": "H" 
			},
			{
				"x": -2.0534875471,
				"y": -1.2861083026,
				"z": 1.0502865962,
				"element": "H" 
			},
			{
				"x": -3.7481778305,
				"y": 2.0704978212,
				"z": 0.6009478711,
				"element": "H" 
			},
			{
				"x": -3.8498531677,
				"y": 0.3506065775,
				"z": 0.1967067505,
				"element": "H" 
			},
			{
				"x": -4.1366116301,
				"y": 0.88900284,
				"z": 1.8625938836,
				"element": "H" 
			}
		],
		 "valence_orbital": [ 
			{
				"type": "occ",
				"energy": -0.27,
				"method": "rhf"
			},
			{
				"type": "occ",
				"energy": -0.26559,
				"method": "rhf"
			},
			{
				"type": "occ",
				"energy": -0.25056,
				"method": "rhf"
			},
			{
				"type": "occ",
				"energy": -0.21054,
				"method": "rhf"
			},
			{
				"type": "occ",
				"energy": -0.20121,
				"method": "rhf"
			},
			{
				"type": "unocc",
				"energy": -0.00854,
				"method": "rhf"
			},
			{
				"type": "unocc",
				"energy": -0.00342,
				"method": "rhf"
			},
			{
				"type": "unocc",
				"energy": 0.05217,
				"method": "rhf"
			},
			{
				"type": "unocc",
				"energy": 0.07661,
				"method": "rhf"
			},
			{
				"type": "unocc",
				"energy": 0.09229,
				"method": "rhf"
			}
		],
		"cosmo_sigma_profile": { 
			"-0.025": 0.0,
			"-0.024": 0.0,
			"-0.023": 0.0,
			"-0.022": 0.0,
			"-0.021": 0.0,
			"-0.02": 0.0,
			"-0.019": 0.0,
			"-0.018": 0.0,
			"-0.017": 0.0,
			"-0.016": 0.0,
			"-0.015": 0.0,
			"-0.014": 0.0989193063356,
			"-0.013": 1.34944926366,
			"-0.012": 2.11059377423,
			"-0.011": 2.56353723069,
			"-0.01": 2.66229636892,
			"-0.009": 2.61716170451,
			"-0.008": 2.57774567457,
			"-0.007": 2.02010031021,
			"-0.006": 4.93213218497,
			"-0.005": 11.1305145115,
			"-0.004": 17.1911555903,
			"-0.003": 25.0786910697,
			"-0.002": 32.3833222398,
			"-0.001": 29.9378896338,
			"0.0": 32.8332192267,
			"0.001": 31.2795624643,
			"0.002": 23.7768232273,
			"0.003": 13.2263569884,
			"0.004": 14.2410977964,
			"0.005": 17.5599714868,
			"0.006": 9.34443737153,
			"0.007": 4.52873782818,
			"0.008": 2.97064975618,
			"0.009": 2.39244718437,
			"0.01": 2.08868784314,
			"0.011": 1.75050559131,
			"0.012": 1.89887910226,
			"0.013": 0.965693562551,
			"0.014": 0.734395860475,
			"0.015": 0.0416042707748,
			"0.016": 0.0,
			"0.017": 0.0,
			"0.018": 0.0,
			"0.019": 0.0,
			"0.02": 0.0,
			"0.021": 0.0,
			"0.022": 0.0,
			"0.023": 0.0,
			"0.024": 0.0,
			"0.025": 0.0
		}
	}
}
