{
	 "smiles": "COC1=CC(CC(=NO)C(O)=O)=CC=C1O", 
	 "Tm": 412.15, 
	 "num_atms": 27, 
	 "gaussian": { 
		 "optdone": 1, 
		 "sigma_profile": "yes", 
		 "theory": "DFT", 
		 "functional": "B3LYP", 
		 "basiset": "6-31G**", 
		 "properties": { 
			 "R2extent": 5170.1805, 
			 "electric_dipole_moment_norm": 2.94765163138, 
			 "electric_quadrupole_moment_norm": 8.53104333889, 
			 "total_energy": -818.484986144, 
			 "HOMO_LUMO_gap": 0.16919, 
			 "cosmo_polarized_energy": -19.22, 
			 "cosmo_cavitation_energy": 32.62, 
			 "cosmo_dispersion_energy": -22.81, 
			 "cosmo_repulsion_energy": 1.84, 
			 "cosmo_total_nonelectrostatic_energy": 11.65, 
			 "SMD_solvation_energy": 7.88 
		},
		"coords": [
			{
				"x": 0.211412476,
				"y": -3.1897854115,
				"z": -0.2519916854,
				"element": "C" 
			},
			{
				"x": 0.6296723065,
				"y": -1.8231732536,
				"z": -0.294063592,
				"element": "O" 
			},
			{
				"x": -0.3441696261,
				"y": -0.9011808741,
				"z": -0.5874614026,
				"element": "C" 
			},
			{
				"x": -0.664864817,
				"y": 0.0601878423,
				"z": 0.3705474991,
				"element": "C" 
			},
			{
				"x": -1.6027581942,
				"y": 1.0684653089,
				"z": 0.1145165066,
				"element": "C" 
			},
			{
				"x": -1.9245119459,
				"y": 2.123354934,
				"z": 1.161096357,
				"element": "C" 
			},
			{
				"x": -1.1521679947,
				"y": 3.4089048981,
				"z": 0.9518101324,
				"element": "C" 
			},
			{
				"x": -1.8264870788,
				"y": 4.4611942063,
				"z": 0.6636775599,
				"element": "N" 
			},
			{
				"x": -1.0580017782,
				"y": 5.6145943749,
				"z": 0.5263935571,
				"element": "O" 
			},
			{
				"x": 0.3334999587,
				"y": 3.3209527551,
				"z": 1.19196192,
				"element": "C" 
			},
			{
				"x": 1.0864397145,
				"y": 3.9907324312,
				"z": 0.3050378149,
				"element": "O" 
			},
			{
				"x": 0.7977655659,
				"y": 2.658613841,
				"z": 2.0975689901,
				"element": "O" 
			},
			{
				"x": -2.226440973,
				"y": 1.0946938192,
				"z": -1.1367455005,
				"element": "C" 
			},
			{
				"x": -1.9175768006,
				"y": 0.1391206538,
				"z": -2.1044673518,
				"element": "C" 
			},
			{
				"x": -0.9739902655,
				"y": -0.8576877764,
				"z": -1.8468495589,
				"element": "C" 
			},
			{
				"x": -0.6205417069,
				"y": -1.8010560009,
				"z": -2.7738580535,
				"element": "O" 
			},
			{
				"x": 1.0903111559,
				"y": -3.7653995265,
				"z": 0.0457114218,
				"element": "H" 
			},
			{
				"x": -0.1386607236,
				"y": -3.5359144006,
				"z": -1.2287510863,
				"element": "H" 
			},
			{
				"x": -0.5818331463,
				"y": -3.3330538569,
				"z": 0.4934803085,
				"element": "H" 
			},
			{
				"x": -0.149990235,
				"y": 0.0117816162,
				"z": 1.3250515805,
				"element": "H" 
			},
			{
				"x": -2.9882009286,
				"y": 2.3744042146,
				"z": 1.1397995511,
				"element": "H" 
			},
			{
				"x": -1.6828424504,
				"y": 1.74243847,
				"z": 2.1585072359,
				"element": "H" 
			},
			{
				"x": -1.7309880472,
				"y": 6.2834577056,
				"z": 0.3406372098,
				"element": "H" 
			},
			{
				"x": 2.0107495773,
				"y": 3.8305427446,
				"z": 0.5640852087,
				"element": "H" 
			},
			{
				"x": -2.9560692015,
				"y": 1.8676862745,
				"z": -1.3618236815,
				"element": "H" 
			},
			{
				"x": -2.4069094783,
				"y": 0.1702438578,
				"z": -3.0764458339,
				"element": "H" 
			},
			{
				"x": -1.1185453627,
				"y": -1.6403188475,
				"z": -3.5857251071,
				"element": "H" 
			}
		],
		 "valence_orbital": [ 
			{
				"type": "occ",
				"energy": -0.27374,
				"method": "rhf"
			},
			{
				"type": "occ",
				"energy": -0.26964,
				"method": "rhf"
			},
			{
				"type": "occ",
				"energy": -0.2617,
				"method": "rhf"
			},
			{
				"type": "occ",
				"energy": -0.23922,
				"method": "rhf"
			},
			{
				"type": "occ",
				"energy": -0.21291,
				"method": "rhf"
			},
			{
				"type": "unocc",
				"energy": -0.04372,
				"method": "rhf"
			},
			{
				"type": "unocc",
				"energy": 0.00047,
				"method": "rhf"
			},
			{
				"type": "unocc",
				"energy": 0.00961,
				"method": "rhf"
			},
			{
				"type": "unocc",
				"energy": 0.0497,
				"method": "rhf"
			},
			{
				"type": "unocc",
				"energy": 0.06426,
				"method": "rhf"
			}
		],
		"cosmo_sigma_profile": { 
			"-0.025": 0.0,
			"-0.024": 0.0,
			"-0.023": 0.0,
			"-0.022": 0.0,
			"-0.021": 0.0,
			"-0.02": 0.0322117080266,
			"-0.019": 0.613681109383,
			"-0.018": 2.1559009374,
			"-0.017": 3.06413850286,
			"-0.016": 3.07545349685,
			"-0.015": 1.88328979826,
			"-0.014": 2.60344757595,
			"-0.013": 3.07826338201,
			"-0.012": 2.41125061876,
			"-0.011": 2.11200225791,
			"-0.01": 2.38361569265,
			"-0.009": 3.61025688754,
			"-0.008": 2.04217178691,
			"-0.007": 2.96956040375,
			"-0.006": 5.52121052552,
			"-0.005": 12.4261720774,
			"-0.004": 16.2697986819,
			"-0.003": 16.8120965558,
			"-0.002": 22.2225302231,
			"-0.001": 13.4993265415,
			"0.0": 13.9536441078,
			"0.001": 14.9449459553,
			"0.002": 15.2182684948,
			"0.003": 17.209184354,
			"0.004": 15.4753069933,
			"0.005": 13.0439145762,
			"0.006": 8.91765997939,
			"0.007": 6.62293369463,
			"0.008": 6.6447732094,
			"0.009": 6.17525815081,
			"0.01": 7.6078292349,
			"0.011": 8.82088434683,
			"0.012": 3.8574042114,
			"0.013": 0.852135930809,
			"0.014": 0.0,
			"0.015": 0.0,
			"0.016": 0.0,
			"0.017": 0.0,
			"0.018": 0.0,
			"0.019": 0.0,
			"0.02": 0.0,
			"0.021": 0.0,
			"0.022": 0.0,
			"0.023": 0.0,
			"0.024": 0.0,
			"0.025": 0.0
		}
	}
}
