{
	 "smiles": "CC1=NC2=C(N=NC3=CC(Cl)=C(Cl)C=C3Cl)C(N)=NN2C(=C1)C(F)(F)F", 
	 "Tm": 501.15, 
	 "num_atms": 34, 
	 "gaussian": { 
		 "optdone": 1, 
		 "sigma_profile": "yes", 
		 "theory": "DFT", 
		 "functional": "B3LYP", 
		 "basiset": "6-31G**", 
		 "properties": { 
			 "R2extent": 18751.6053, 
			 "electric_dipole_moment_norm": 3.70583007031, 
			 "electric_quadrupole_moment_norm": 24.7991509175, 
			 "total_energy": -2546.86424389, 
			 "HOMO_LUMO_gap": 0.12627, 
			 "cosmo_polarized_energy": -13.18, 
			 "cosmo_cavitation_energy": 47.09, 
			 "cosmo_dispersion_energy": -33.69, 
			 "cosmo_repulsion_energy": 2.49, 
			 "cosmo_total_nonelectrostatic_energy": 15.9, 
			 "SMD_solvation_energy": 4.95 
		},
		"coords": [
			{
				"x": -1.8998469798,
				"y": -3.3746996041,
				"z": 1.4262684857,
				"element": "C" 
			},
			{
				"x": -1.8818261633,
				"y": -2.0642008638,
				"z": 0.686783541,
				"element": "C" 
			},
			{
				"x": -0.8149926927,
				"y": -1.28604858,
				"z": 0.8613885953,
				"element": "N" 
			},
			{
				"x": -0.7766570832,
				"y": -0.1200723146,
				"z": 0.2164911059,
				"element": "C" 
			},
			{
				"x": 0.1751994034,
				"y": 0.9223160675,
				"z": 0.1732348995,
				"element": "C" 
			},
			{
				"x": 1.3505918779,
				"y": 0.9226442004,
				"z": 0.8562461828,
				"element": "N" 
			},
			{
				"x": 2.0753794588,
				"y": 1.96300957,
				"z": 0.6822379159,
				"element": "N" 
			},
			{
				"x": 3.2870758892,
				"y": 1.9499435349,
				"z": 1.3941260066,
				"element": "C" 
			},
			{
				"x": 3.6904405063,
				"y": 0.8960930936,
				"z": 2.2318827539,
				"element": "C" 
			},
			{
				"x": 4.8988777093,
				"y": 0.935109533,
				"z": 2.9121355928,
				"element": "C" 
			},
			{
				"x": 5.3357630445,
				"y": -0.4109628649,
				"z": 3.9366947298,
				"element": "Cl" 
			},
			{
				"x": 5.7472458606,
				"y": 2.0467234078,
				"z": 2.7690798783,
				"element": "C" 
			},
			{
				"x": 7.2761791244,
				"y": 2.1479313846,
				"z": 3.6000290439,
				"element": "Cl" 
			},
			{
				"x": 5.364930592,
				"y": 3.1027173255,
				"z": 1.9423050851,
				"element": "C" 
			},
			{
				"x": 4.1508193936,
				"y": 3.0534903861,
				"z": 1.2645807518,
				"element": "C" 
			},
			{
				"x": 3.7226753374,
				"y": 4.4098727708,
				"z": 0.2391056838,
				"element": "Cl" 
			},
			{
				"x": -0.3950059819,
				"y": 1.9014890797,
				"z": -0.7184582289,
				"element": "C" 
			},
			{
				"x": 0.1751361946,
				"y": 3.0695617246,
				"z": -1.0555901926,
				"element": "N" 
			},
			{
				"x": -1.5918620212,
				"y": 1.5269314712,
				"z": -1.1996399455,
				"element": "N" 
			},
			{
				"x": -1.8126401732,
				"y": 0.307426916,
				"z": -0.6300954231,
				"element": "N" 
			},
			{
				"x": -2.9018610387,
				"y": -0.4730504035,
				"z": -0.8162878628,
				"element": "C" 
			},
			{
				"x": -2.9557596845,
				"y": -1.6821383326,
				"z": -0.1557255601,
				"element": "C" 
			},
			{
				"x": -3.9984994521,
				"y": 0.0213796718,
				"z": -1.7361227264,
				"element": "C" 
			},
			{
				"x": -4.9918822239,
				"y": -0.8899570132,
				"z": -1.7919319518,
				"element": "F" 
			},
			{
				"x": -3.543664898,
				"y": 0.2102064248,
				"z": -2.9841958145,
				"element": "F" 
			},
			{
				"x": -4.5237466622,
				"y": 1.1752368934,
				"z": -1.2967722707,
				"element": "F" 
			},
			{
				"x": -2.8088295303,
				"y": -3.9448802239,
				"z": 1.2227500925,
				"element": "H" 
			},
			{
				"x": -1.0325406562,
				"y": -3.9786777002,
				"z": 1.1414908816,
				"element": "H" 
			},
			{
				"x": -1.8268902006,
				"y": -3.1988578589,
				"z": 2.5041832835,
				"element": "H" 
			},
			{
				"x": 3.0274368383,
				"y": 0.0453844874,
				"z": 2.3333555542,
				"element": "H" 
			},
			{
				"x": 6.0161314107,
				"y": 3.9606114922,
				"z": 1.8298356834,
				"element": "H" 
			},
			{
				"x": -0.2974542053,
				"y": 3.6952960787,
				"z": -1.6877591609,
				"element": "H" 
			},
			{
				"x": 1.0790669082,
				"y": 3.2801961369,
				"z": -0.65033147,
				"element": "H" 
			},
			{
				"x": -3.8179899023,
				"y": -2.320025891,
				"z": -0.2915951401,
				"element": "H" 
			}
		],
		 "valence_orbital": [ 
			{
				"type": "occ",
				"energy": -0.27552,
				"method": "rhf"
			},
			{
				"type": "occ",
				"energy": -0.25467,
				"method": "rhf"
			},
			{
				"type": "occ",
				"energy": -0.24017,
				"method": "rhf"
			},
			{
				"type": "occ",
				"energy": -0.24005,
				"method": "rhf"
			},
			{
				"type": "occ",
				"energy": -0.2166,
				"method": "rhf"
			},
			{
				"type": "unocc",
				"energy": -0.09033,
				"method": "rhf"
			},
			{
				"type": "unocc",
				"energy": -0.07815,
				"method": "rhf"
			},
			{
				"type": "unocc",
				"energy": -0.0288,
				"method": "rhf"
			},
			{
				"type": "unocc",
				"energy": -0.01956,
				"method": "rhf"
			},
			{
				"type": "unocc",
				"energy": -0.00575,
				"method": "rhf"
			}
		],
		"cosmo_sigma_profile": { 
			"-0.025": 0.0,
			"-0.024": 0.0,
			"-0.023": 0.0,
			"-0.022": 0.0,
			"-0.021": 0.0,
			"-0.02": 0.0,
			"-0.019": 0.0,
			"-0.018": 0.0,
			"-0.017": 0.0,
			"-0.016": 0.0,
			"-0.015": 0.563969875803,
			"-0.014": 1.28725802657,
			"-0.013": 1.16536111684,
			"-0.012": 0.762923320109,
			"-0.011": 0.91089714443,
			"-0.01": 1.21736218279,
			"-0.009": 3.53356585202,
			"-0.008": 5.18418202556,
			"-0.007": 5.46650305612,
			"-0.006": 11.6185300034,
			"-0.005": 17.1928613131,
			"-0.004": 19.9270614542,
			"-0.003": 24.1890499229,
			"-0.002": 29.5811694956,
			"-0.001": 32.4642750462,
			"0.0": 49.1356760354,
			"0.001": 45.8517345673,
			"0.002": 46.2057794202,
			"0.003": 34.3013873952,
			"0.004": 26.3424050523,
			"0.005": 7.63067581726,
			"0.006": 4.15386682357,
			"0.007": 3.0857197304,
			"0.008": 3.4638234477,
			"0.009": 3.44896668176,
			"0.01": 2.81978177704,
			"0.011": 2.28208384984,
			"0.012": 1.61132300723,
			"0.013": 0.880427965499,
			"0.014": 0.488547078282,
			"0.015": 0.0565247653129,
			"0.016": 0.0,
			"0.017": 0.0,
			"0.018": 0.0,
			"0.019": 0.0,
			"0.02": 0.0,
			"0.021": 0.0,
			"0.022": 0.0,
			"0.023": 0.0,
			"0.024": 0.0,
			"0.025": 0.0
		}
	}
}
