{
	 "smiles": "CCCCC1=CC=C(NS(=O)(=O)C2=CC(=CC=C2)C(O)=O)C=C1", 
	 "Tm": 480.15, 
	 "num_atms": 42, 
	 "gaussian": { 
		 "optdone": 1, 
		 "sigma_profile": "yes", 
		 "theory": "DFT", 
		 "functional": "B3LYP", 
		 "basiset": "6-31G**", 
		 "properties": { 
			 "R2extent": 11050.191, 
			 "electric_dipole_moment_norm": 6.02743142474, 
			 "electric_quadrupole_moment_norm": 23.9977716686, 
			 "total_energy": -1413.05757979, 
			 "HOMO_LUMO_gap": 0.15969, 
			 "cosmo_polarized_energy": -20.87, 
			 "cosmo_cavitation_energy": 47.73, 
			 "cosmo_dispersion_energy": -31.73, 
			 "cosmo_repulsion_energy": 2.43, 
			 "cosmo_total_nonelectrostatic_energy": 18.42, 
			 "SMD_solvation_energy": 7.95 
		},
		"coords": [
			{
				"x": -1.7339843977,
				"y": -3.7400399739,
				"z": 1.4678379715,
				"element": "C" 
			},
			{
				"x": -0.9324265719,
				"y": -4.6079719988,
				"z": 0.4894540619,
				"element": "C" 
			},
			{
				"x": 0.4514145164,
				"y": -4.0654988463,
				"z": 0.088436415,
				"element": "C" 
			},
			{
				"x": 0.4656598368,
				"y": -2.8843100751,
				"z": -0.9097568753,
				"element": "C" 
			},
			{
				"x": 0.0433871603,
				"y": -1.532594659,
				"z": -0.3689336749,
				"element": "C" 
			},
			{
				"x": -1.0776625556,
				"y": -0.8622021665,
				"z": -0.8728777344,
				"element": "C" 
			},
			{
				"x": -1.4451172266,
				"y": 0.3961615406,
				"z": -0.3968444808,
				"element": "C" 
			},
			{
				"x": -0.7061276599,
				"y": 1.0049457972,
				"z": 0.6233338986,
				"element": "C" 
			},
			{
				"x": -1.1257435565,
				"y": 2.261645201,
				"z": 1.1493635783,
				"element": "N" 
			},
			{
				"x": -0.1309905044,
				"y": 3.6347971048,
				"z": 1.1792595167,
				"element": "S" 
			},
			{
				"x": -1.0144564062,
				"y": 4.7023877548,
				"z": 1.6500626578,
				"element": "O" 
			},
			{
				"x": 1.1018478962,
				"y": 3.2663630603,
				"z": 1.8709375648,
				"element": "O" 
			},
			{
				"x": 0.2990421535,
				"y": 3.997368238,
				"z": -0.5301655786,
				"element": "C" 
			},
			{
				"x": 1.37230823,
				"y": 3.3389292881,
				"z": -1.1261751307,
				"element": "C" 
			},
			{
				"x": 1.6769277871,
				"y": 3.6125662813,
				"z": -2.4649469245,
				"element": "C" 
			},
			{
				"x": 0.9139370703,
				"y": 4.5423578192,
				"z": -3.1847661352,
				"element": "C" 
			},
			{
				"x": -0.150458999,
				"y": 5.2001762926,
				"z": -2.568584712,
				"element": "C" 
			},
			{
				"x": -0.4662854139,
				"y": 4.9302545099,
				"z": -1.2368881168,
				"element": "C" 
			},
			{
				"x": 2.8317443608,
				"y": 2.8924421238,
				"z": -3.0715915513,
				"element": "C" 
			},
			{
				"x": 3.0437036191,
				"y": 3.2338050487,
				"z": -4.3661790401,
				"element": "O" 
			},
			{
				"x": 3.5233739283,
				"y": 2.0820732826,
				"z": -2.49041611,
				"element": "O" 
			},
			{
				"x": 0.4128570706,
				"y": 0.3447135776,
				"z": 1.1500974042,
				"element": "C" 
			},
			{
				"x": 0.7830532481,
				"y": -0.8963531448,
				"z": 0.6399214455,
				"element": "C" 
			},
			{
				"x": -2.6628469741,
				"y": -4.24292837,
				"z": 1.758283515,
				"element": "H" 
			},
			{
				"x": -1.1612135767,
				"y": -3.5487607826,
				"z": 2.3824824808,
				"element": "H" 
			},
			{
				"x": -1.9991095614,
				"y": -2.7707959889,
				"z": 1.0388999718,
				"element": "H" 
			},
			{
				"x": -1.5247856779,
				"y": -4.7830220124,
				"z": -0.4197877225,
				"element": "H" 
			},
			{
				"x": -0.7858416222,
				"y": -5.5969042162,
				"z": 0.9430218237,
				"element": "H" 
			},
			{
				"x": 1.0159493345,
				"y": -4.8839259901,
				"z": -0.3762528305,
				"element": "H" 
			},
			{
				"x": 1.0118260429,
				"y": -3.7895685472,
				"z": 0.9918632947,
				"element": "H" 
			},
			{
				"x": 1.4878588615,
				"y": -2.7917338243,
				"z": -1.3007053632,
				"element": "H" 
			},
			{
				"x": -0.1643737309,
				"y": -3.1408990596,
				"z": -1.7706400879,
				"element": "H" 
			},
			{
				"x": -1.668539205,
				"y": -1.3239677418,
				"z": -1.6598901878,
				"element": "H" 
			},
			{
				"x": -2.3093101737,
				"y": 0.9052806792,
				"z": -0.8169671398,
				"element": "H" 
			},
			{
				"x": -2.0709910303,
				"y": 2.5380948571,
				"z": 0.9030212451,
				"element": "H" 
			},
			{
				"x": 1.982022957,
				"y": 2.6345590418,
				"z": -0.5727739137,
				"element": "H" 
			},
			{
				"x": 1.1633578583,
				"y": 4.7494139215,
				"z": -4.2190435922,
				"element": "H" 
			},
			{
				"x": -0.7316365896,
				"y": 5.9298639911,
				"z": -3.1236305956,
				"element": "H" 
			},
			{
				"x": -1.2785171601,
				"y": 5.445419441,
				"z": -0.7353562822,
				"element": "H" 
			},
			{
				"x": 3.8111706838,
				"y": 2.7138697597,
				"z": -4.6564155843,
				"element": "H" 
			},
			{
				"x": 0.9805420423,
				"y": 0.8112399113,
				"z": 1.9462180163,
				"element": "H" 
			},
			{
				"x": 1.6627339354,
				"y": -1.3871511253,
				"z": 1.0483945027,
				"element": "H" 
			}
		],
		 "valence_orbital": [ 
			{
				"type": "occ",
				"energy": -0.28903,
				"method": "rhf"
			},
			{
				"type": "occ",
				"energy": -0.28184,
				"method": "rhf"
			},
			{
				"type": "occ",
				"energy": -0.27879,
				"method": "rhf"
			},
			{
				"type": "occ",
				"energy": -0.25685,
				"method": "rhf"
			},
			{
				"type": "occ",
				"energy": -0.22702,
				"method": "rhf"
			},
			{
				"type": "unocc",
				"energy": -0.06733,
				"method": "rhf"
			},
			{
				"type": "unocc",
				"energy": -0.04517,
				"method": "rhf"
			},
			{
				"type": "unocc",
				"energy": -0.0104,
				"method": "rhf"
			},
			{
				"type": "unocc",
				"energy": -0.00812,
				"method": "rhf"
			},
			{
				"type": "unocc",
				"energy": 0.03179,
				"method": "rhf"
			}
		],
		"cosmo_sigma_profile": { 
			"-0.025": 0.0,
			"-0.024": 0.0,
			"-0.023": 0.0,
			"-0.022": 0.0,
			"-0.021": 0.0,
			"-0.02": 0.0,
			"-0.019": 0.122974248861,
			"-0.018": 1.00893196522,
			"-0.017": 0.972810217062,
			"-0.016": 0.895838852177,
			"-0.015": 2.15389663851,
			"-0.014": 2.14327497861,
			"-0.013": 1.82656935436,
			"-0.012": 1.56682754162,
			"-0.011": 2.16092205533,
			"-0.01": 2.20578395937,
			"-0.009": 1.8614647389,
			"-0.008": 4.35769504567,
			"-0.007": 9.52565332986,
			"-0.006": 9.11913112201,
			"-0.005": 13.4350206116,
			"-0.004": 16.8518469968,
			"-0.003": 25.1884337127,
			"-0.002": 38.1162756538,
			"-0.001": 38.4029043646,
			"0.0": 47.345184005,
			"0.001": 43.3182037512,
			"0.002": 24.7452700478,
			"0.003": 15.4776598644,
			"0.004": 16.931991431,
			"0.005": 9.32982531136,
			"0.006": 7.15731565277,
			"0.007": 7.00965029679,
			"0.008": 5.68432332527,
			"0.009": 5.68773433895,
			"0.01": 9.53269456525,
			"0.011": 11.0648833174,
			"0.012": 2.39878335171,
			"0.013": 0.0,
			"0.014": 0.0,
			"0.015": 0.0,
			"0.016": 0.0,
			"0.017": 0.0,
			"0.018": 0.0,
			"0.019": 0.0,
			"0.02": 0.0,
			"0.021": 0.0,
			"0.022": 0.0,
			"0.023": 0.0,
			"0.024": 0.0,
			"0.0": 0.0
		}
	}
}
