{
	 "smiles": "CC(C)(C)OC(=O)NC1=CSC=N1", 
	 "Tm": 427.15, 
	 "num_atms": 25, 
	 "gaussian": { 
		 "optdone": 1, 
		 "sigma_profile": "yes", 
		 "theory": "DFT", 
		 "functional": "B3LYP", 
		 "basiset": "6-31G**", 
		 "properties": { 
			 "R2extent": 4636.7335, 
			 "electric_dipole_moment_norm": 2.91254734725, 
			 "electric_quadrupole_moment_norm": 10.6916757503, 
			 "total_energy": -970.238107292, 
			 "HOMO_LUMO_gap": 0.19111, 
			 "cosmo_polarized_energy": -14.9, 
			 "cosmo_cavitation_energy": 30.15, 
			 "cosmo_dispersion_energy": -22.45, 
			 "cosmo_repulsion_energy": 1.74, 
			 "cosmo_total_nonelectrostatic_energy": 9.44, 
			 "SMD_solvation_energy": 5.48 
		},
		"coords": [
			{
				"x": -2.1046775297,
				"y": 1.2338733134,
				"z": 1.0690066148,
				"element": "C" 
			},
			{
				"x": -1.8684557881,
				"y": 0.289796906,
				"z": -0.1148607481,
				"element": "C" 
			},
			{
				"x": -2.2962053245,
				"y": -1.1489519598,
				"z": 0.1943963054,
				"element": "C" 
			},
			{
				"x": -2.5723144985,
				"y": 0.8077974497,
				"z": -1.3719254574,
				"element": "C" 
			},
			{
				"x": -0.4506289313,
				"y": 0.3202673533,
				"z": -0.5083269932,
				"element": "O" 
			},
			{
				"x": 0.5180578275,
				"y": -0.0765577168,
				"z": 0.3610182374,
				"element": "C" 
			},
			{
				"x": 0.3574329756,
				"y": -0.4785299352,
				"z": 1.4914317449,
				"element": "O" 
			},
			{
				"x": 1.726641084,
				"y": 0.0695257666,
				"z": -0.3019017586,
				"element": "N" 
			},
			{
				"x": 3.0155654388,
				"y": -0.2038317173,
				"z": 0.1603386406,
				"element": "C" 
			},
			{
				"x": 4.1407467549,
				"y": -0.0116514095,
				"z": -0.6076349548,
				"element": "C" 
			},
			{
				"x": 5.5467805701,
				"y": -0.4580413846,
				"z": 0.2992673422,
				"element": "S" 
			},
			{
				"x": 4.5018231997,
				"y": -0.8651086304,
				"z": 1.6339773447,
				"element": "C" 
			},
			{
				"x": 3.2311092973,
				"y": -0.6870910299,
				"z": 1.4271952132,
				"element": "N" 
			},
			{
				"x": -3.1769406235,
				"y": 1.2936094418,
				"z": 1.2820842498,
				"element": "H" 
			},
			{
				"x": -1.7498816712,
				"y": 2.2411369982,
				"z": 0.8284904738,
				"element": "H" 
			},
			{
				"x": -1.5875868253,
				"y": 0.8803192391,
				"z": 1.9612672735,
				"element": "H" 
			},
			{
				"x": -1.7818679815,
				"y": -1.5294141789,
				"z": 1.0771226973,
				"element": "H" 
			},
			{
				"x": -2.0740779263,
				"y": -1.802329193,
				"z": -0.6553468537,
				"element": "H" 
			},
			{
				"x": -3.3758937825,
				"y": -1.1801050322,
				"z": 0.3733569908,
				"element": "H" 
			},
			{
				"x": -2.3662543639,
				"y": 0.1568121285,
				"z": -2.2266579669,
				"element": "H" 
			},
			{
				"x": -3.6540848395,
				"y": 0.8362744029,
				"z": -1.2114145006,
				"element": "H" 
			},
			{
				"x": -2.2320864807,
				"y": 1.8182185839,
				"z": -1.6170923664,
				"element": "H" 
			},
			{
				"x": 1.6498101615,
				"y": 0.4216988021,
				"z": -1.2440809525,
				"element": "H" 
			},
			{
				"x": 4.2142436333,
				"y": 0.3551741196,
				"z": -1.6208598622,
				"element": "H" 
			},
			{
				"x": 4.9126456239,
				"y": -1.2399923173,
				"z": 2.5635492859,
				"element": "H" 
			}
		],
		 "valence_orbital": [ 
			{
				"type": "occ",
				"energy": -0.2891,
				"method": "rhf"
			},
			{
				"type": "occ",
				"energy": -0.28591,
				"method": "rhf"
			},
			{
				"type": "occ",
				"energy": -0.28415,
				"method": "rhf"
			},
			{
				"type": "occ",
				"energy": -0.25468,
				"method": "rhf"
			},
			{
				"type": "occ",
				"energy": -0.21826,
				"method": "rhf"
			},
			{
				"type": "unocc",
				"energy": -0.02715,
				"method": "rhf"
			},
			{
				"type": "unocc",
				"energy": 0.01564,
				"method": "rhf"
			},
			{
				"type": "unocc",
				"energy": 0.03077,
				"method": "rhf"
			},
			{
				"type": "unocc",
				"energy": 0.07444,
				"method": "rhf"
			},
			{
				"type": "unocc",
				"energy": 0.08906,
				"method": "rhf"
			}
		],
		"cosmo_sigma_profile": { 
			"-0.025": 0.0,
			"-0.024": 0.0,
			"-0.023": 0.0,
			"-0.022": 0.0,
			"-0.021": 0.0,
			"-0.02": 0.0,
			"-0.019": 0.0,
			"-0.018": 0.0,
			"-0.017": 0.0,
			"-0.016": 0.20138440847,
			"-0.015": 1.28191081739,
			"-0.014": 0.673421971855,
			"-0.013": 1.29325182218,
			"-0.012": 0.919822233919,
			"-0.011": 1.32918539485,
			"-0.01": 2.41385173955,
			"-0.009": 5.35278785846,
			"-0.008": 3.66514192278,
			"-0.007": 4.48532448102,
			"-0.006": 4.16763464763,
			"-0.005": 4.19248195527,
			"-0.004": 15.2908036395,
			"-0.003": 19.0698156086,
			"-0.002": 19.1951170282,
			"-0.001": 24.7276881491,
			"0.0": 34.9640579172,
			"0.001": 30.3336278255,
			"0.002": 17.6267655898,
			"0.003": 12.6430721329,
			"0.004": 5.67263981627,
			"0.005": 4.38455918108,
			"0.006": 4.20616440512,
			"0.007": 2.65696171414,
			"0.008": 2.05658427743,
			"0.009": 2.24253876713,
			"0.01": 2.29840052365,
			"0.011": 1.77875719673,
			"0.012": 1.96731364864,
			"0.013": 2.44447834443,
			"0.014": 1.78975069922,
			"0.015": 1.57675964297,
			"0.016": 1.301626502,
			"0.017": 0.904956603433,
			"0.018": 1.08087480089,
			"0.019": 0.264008401711,
			"0.02": 0.0,
			"0.021": 0.0,
			"0.022": 0.0,
			"0.023": 0.0,
			"0.024": 0.0,
			"0.025": 0.0
		}
	}
}
