{
	 "smiles": "COC1=CC(F)=C(C(O)=O)C(F)=C1", 
	 "Tm": 457.15, 
	 "num_atms": 19, 
	 "gaussian": { 
		 "optdone": 1, 
		 "sigma_profile": "yes", 
		 "theory": "DFT", 
		 "functional": "B3LYP", 
		 "basiset": "6-31G**", 
		 "properties": { 
			 "R2extent": 3838.6554, 
			 "electric_dipole_moment_norm": 6.73455601135, 
			 "electric_quadrupole_moment_norm": 26.8388308141, 
			 "total_energy": -733.798899464, 
			 "HOMO_LUMO_gap": 0.20491, 
			 "cosmo_polarized_energy": -14.5, 
			 "cosmo_cavitation_energy": 24.55, 
			 "cosmo_dispersion_energy": -18.26, 
			 "cosmo_repulsion_energy": 1.39, 
			 "cosmo_total_nonelectrostatic_energy": 7.68, 
			 "SMD_solvation_energy": 7.08 
		},
		"coords": [
			{
				"x": -3.3580721355,
				"y": 1.0368483741,
				"z": 1.260166247,
				"element": "C" 
			},
			{
				"x": -2.2551877411,
				"y": 0.2902599255,
				"z": 0.7522051646,
				"element": "O" 
			},
			{
				"x": -1.0279501814,
				"y": 0.8542342441,
				"z": 0.7724324209,
				"element": "C" 
			},
			{
				"x": -0.7498721305,
				"y": 2.1345731095,
				"z": 1.260951459,
				"element": "C" 
			},
			{
				"x": 0.5589802998,
				"y": 2.6057617336,
				"z": 1.2278174982,
				"element": "C" 
			},
			{
				"x": 0.7492803212,
				"y": 3.8343998247,
				"z": 1.7100846272,
				"element": "F" 
			},
			{
				"x": 1.6472247008,
				"y": 1.8657750782,
				"z": 0.7250978698,
				"element": "C" 
			},
			{
				"x": 3.0373244701,
				"y": 2.4455053315,
				"z": 0.7232268824,
				"element": "C" 
			},
			{
				"x": 4.02877549,
				"y": 1.672425169,
				"z": 0.223370979,
				"element": "O" 
			},
			{
				"x": 3.2890186894,
				"y": 3.5495091485,
				"z": 1.1424103359,
				"element": "O" 
			},
			{
				"x": 1.2890454902,
				"y": 0.5883766018,
				"z": 0.2519303983,
				"element": "C" 
			},
			{
				"x": 2.2614917405,
				"y": -0.2232567261,
				"z": -0.2605078664,
				"element": "F" 
			},
			{
				"x": 0.0142238117,
				"y": 0.06700201,
				"z": 0.2579738038,
				"element": "C" 
			},
			{
				"x": -4.2299434385,
				"y": 0.3930337002,
				"z": 1.1439261971,
				"element": "H" 
			},
			{
				"x": -3.509073762,
				"y": 1.9617140809,
				"z": 0.6913741838,
				"element": "H" 
			},
			{
				"x": -3.2214450058,
				"y": 1.278024006,
				"z": 2.320762849,
				"element": "H" 
			},
			{
				"x": -1.5111797061,
				"y": 2.7855102061,
				"z": 1.6686342337,
				"element": "H" 
			},
			{
				"x": 3.6876391355,
				"y": 0.8164131602,
				"z": -0.0759922012,
				"element": "H" 
			},
			{
				"x": -0.1794800481,
				"y": -0.926808978,
				"z": -0.1251650823,
				"element": "H" 
			}
		],
		 "valence_orbital": [ 
			{
				"type": "occ",
				"energy": -0.33905,
				"method": "rhf"
			},
			{
				"type": "occ",
				"energy": -0.30487,
				"method": "rhf"
			},
			{
				"type": "occ",
				"energy": -0.27161,
				"method": "rhf"
			},
			{
				"type": "occ",
				"energy": -0.26569,
				"method": "rhf"
			},
			{
				"type": "occ",
				"energy": -0.25396,
				"method": "rhf"
			},
			{
				"type": "unocc",
				"energy": -0.04905,
				"method": "rhf"
			},
			{
				"type": "unocc",
				"energy": -0.02324,
				"method": "rhf"
			},
			{
				"type": "unocc",
				"energy": 0.05294,
				"method": "rhf"
			},
			{
				"type": "unocc",
				"energy": 0.05629,
				"method": "rhf"
			},
			{
				"type": "unocc",
				"energy": 0.0817,
				"method": "rhf"
			}
		],
		"cosmo_sigma_profile": { 
			"-0.025": 0.0,
			"-0.024": 0.0,
			"-0.023": 0.0,
			"-0.022": 0.0,
			"-0.021": 0.0,
			"-0.02": 0.0,
			"-0.019": 0.0,
			"-0.018": 0.0,
			"-0.017": 0.0,
			"-0.016": 0.0,
			"-0.015": 0.0,
			"-0.014": 0.0,
			"-0.013": 0.392309740781,
			"-0.012": 0.64101864245,
			"-0.011": 0.549117274444,
			"-0.01": 1.53679489501,
			"-0.009": 3.27791507856,
			"-0.008": 5.55169961589,
			"-0.007": 8.62036189343,
			"-0.006": 12.7142527814,
			"-0.005": 11.7635381647,
			"-0.004": 14.18325727,
			"-0.003": 10.2592713045,
			"-0.002": 13.563243061,
			"-0.001": 20.8080599267,
			"0.0": 16.8912052769,
			"0.001": 13.0398304344,
			"0.002": 9.75732674453,
			"0.003": 8.88159143353,
			"0.004": 6.05353491264,
			"0.005": 4.31871076433,
			"0.006": 3.85147527742,
			"0.007": 3.79054266919,
			"0.008": 4.41484369275,
			"0.009": 3.79610256643,
			"0.01": 4.25128692701,
			"0.011": 5.91713645157,
			"0.012": 6.32224218787,
			"0.013": 2.09674054535,
			"0.014": 0.161982276228,
			"0.015": 0.0,
			"0.016": 0.0,
			"0.017": 0.0,
			"0.018": 0.0,
			"0.019": 0.0,
			"0.02": 0.0,
			"0.021": 0.0,
			"0.022": 0.0,
			"0.023": 0.0,
			"0.024": 0.0,
			"0.025": 0.0
		}
	}
}
