{
	 "smiles": "CC1=C(C=NN1C1=CC=CC=C1)S(Cl)(=O)=O", 
	 "Tm": 330.15, 
	 "num_atms": 25, 
	 "gaussian": { 
		 "optdone": 1, 
		 "sigma_profile": "yes", 
		 "theory": "DFT", 
		 "functional": "B3LYP", 
		 "basiset": "6-31G**", 
		 "properties": { 
			 "R2extent": 7413.4783, 
			 "electric_dipole_moment_norm": 6.7434938526, 
			 "electric_quadrupole_moment_norm": 18.384294522, 
			 "total_energy": -1504.73284244, 
			 "HOMO_LUMO_gap": 0.17938, 
			 "cosmo_polarized_energy": -12.01, 
			 "cosmo_cavitation_energy": 32.87, 
			 "cosmo_dispersion_energy": -23.9, 
			 "cosmo_repulsion_energy": 1.81, 
			 "cosmo_total_nonelectrostatic_energy": 10.77, 
			 "SMD_solvation_energy": 3.67 
		},
		"coords": [
			{
				"x": 1.2415329385,
				"y": 1.4433802632,
				"z": -2.1160799458,
				"element": "C" 
			},
			{
				"x": 0.6252352559,
				"y": 0.0874950684,
				"z": -1.9944227285,
				"element": "C" 
			},
			{
				"x": 1.0719513382,
				"y": -1.1536363449,
				"z": -2.4497515117,
				"element": "C" 
			},
			{
				"x": 0.0611998681,
				"y": -2.0907522676,
				"z": -2.1301932954,
				"element": "C" 
			},
			{
				"x": -0.9379278747,
				"y": -1.4992903853,
				"z": -1.5032240924,
				"element": "N" 
			},
			{
				"x": -0.5816303385,
				"y": -0.1781362469,
				"z": -1.4198471577,
				"element": "N" 
			},
			{
				"x": -1.4935841899,
				"y": 0.7294731495,
				"z": -0.7960610363,
				"element": "C" 
			},
			{
				"x": -2.8520789165,
				"y": 0.635077496,
				"z": -1.1119216638,
				"element": "C" 
			},
			{
				"x": -3.7556836612,
				"y": 1.5029028818,
				"z": -0.5026980607,
				"element": "C" 
			},
			{
				"x": -3.3088663273,
				"y": 2.4622081437,
				"z": 0.4097373814,
				"element": "C" 
			},
			{
				"x": -1.9519953672,
				"y": 2.5423964285,
				"z": 0.7249366277,
				"element": "C" 
			},
			{
				"x": -1.0385659101,
				"y": 1.6700104125,
				"z": 0.1314480516,
				"element": "C" 
			},
			{
				"x": 2.5656003028,
				"y": -1.5025117009,
				"z": -3.2706898449,
				"element": "S" 
			},
			{
				"x": 2.1009845565,
				"y": -0.991703968,
				"z": -5.3035839733,
				"element": "Cl" 
			},
			{
				"x": 2.782249463,
				"y": -2.9429639472,
				"z": -3.2616288186,
				"element": "O" 
			},
			{
				"x": 3.5938822406,
				"y": -0.550160949,
				"z": -2.8657462875,
				"element": "O" 
			},
			{
				"x": 0.4747765617,
				"y": 2.2201944609,
				"z": -2.1452703876,
				"element": "H" 
			},
			{
				"x": 1.9127430353,
				"y": 1.652802107,
				"z": -1.276363993,
				"element": "H" 
			},
			{
				"x": 1.8427198787,
				"y": 1.4975147037,
				"z": -3.0249085882,
				"element": "H" 
			},
			{
				"x": 0.0514223944,
				"y": -3.1536501191,
				"z": -2.3243019305,
				"element": "H" 
			},
			{
				"x": -3.1808444442,
				"y": -0.1174654269,
				"z": -1.8190857956,
				"element": "H" 
			},
			{
				"x": -4.8113386541,
				"y": 1.4318349553,
				"z": -0.7459306544,
				"element": "H" 
			},
			{
				"x": -4.0167256967,
				"y": 3.1390435162,
				"z": 0.8782008623,
				"element": "H" 
			},
			{
				"x": -1.6003916411,
				"y": 3.2738212936,
				"z": 1.4460088684,
				"element": "H" 
			},
			{
				"x": 0.0100351878,
				"y": 1.7043164755,
				"z": 0.4050779746,
				"element": "H" 
			}
		],
		 "valence_orbital": [ 
			{
				"type": "occ",
				"energy": -0.30874,
				"method": "rhf"
			},
			{
				"type": "occ",
				"energy": -0.30845,
				"method": "rhf"
			},
			{
				"type": "occ",
				"energy": -0.27811,
				"method": "rhf"
			},
			{
				"type": "occ",
				"energy": -0.27716,
				"method": "rhf"
			},
			{
				"type": "occ",
				"energy": -0.26151,
				"method": "rhf"
			},
			{
				"type": "unocc",
				"energy": -0.08213,
				"method": "rhf"
			},
			{
				"type": "unocc",
				"energy": -0.04493,
				"method": "rhf"
			},
			{
				"type": "unocc",
				"energy": -0.02861,
				"method": "rhf"
			},
			{
				"type": "unocc",
				"energy": -0.00179,
				"method": "rhf"
			},
			{
				"type": "unocc",
				"energy": 0.00831,
				"method": "rhf"
			}
		],
		"cosmo_sigma_profile": { 
			"-0.025": 0.0,
			"-0.024": 0.0,
			"-0.023": 0.0,
			"-0.022": 0.0,
			"-0.021": 0.0,
			"-0.02": 0.0,
			"-0.019": 0.0,
			"-0.018": 0.0,
			"-0.017": 0.0,
			"-0.016": 0.0,
			"-0.015": 0.0,
			"-0.014": 0.0,
			"-0.013": 0.0,
			"-0.012": 0.0,
			"-0.011": 0.0,
			"-0.01": 0.602449839892,
			"-0.009": 1.97560337796,
			"-0.008": 3.98188517809,
			"-0.007": 9.06906055687,
			"-0.006": 15.66460377,
			"-0.005": 19.4949079358,
			"-0.004": 20.9661041325,
			"-0.003": 20.9431541762,
			"-0.002": 19.5061869306,
			"-0.001": 16.7433067748,
			"0.0": 16.9874299816,
			"0.001": 16.3234472301,
			"0.002": 16.8226234311,
			"0.003": 24.5513488528,
			"0.004": 24.39830391,
			"0.005": 5.46012721506,
			"0.006": 5.58855693698,
			"0.007": 6.66563657914,
			"0.008": 10.6195604734,
			"0.009": 6.46726036345,
			"0.01": 1.27832312579,
			"0.011": 1.0747018713,
			"0.012": 0.819337103404,
			"0.013": 0.573456244502,
			"0.014": 0.0535149635198,
			"0.015": 0.0,
			"0.016": 0.0,
			"0.017": 0.0,
			"0.018": 0.0,
			"0.019": 0.0,
			"0.02": 0.0,
			"0.021": 0.0,
			"0.022": 0.0,
			"0.023": 0.0,
			"0.024": 0.0,
			"0.025": 0.0
		}
	}
}
