{
	 "smiles": "CCCCCCCCCCOC(=O)C1=CC=CC=C1C(=O)OCCCCCC", 
	 "Tm": 269.15, 
	 "num_atms": 66, 
	 "gaussian": { 
		 "optdone": 1, 
		 "sigma_profile": "yes", 
		 "theory": "DFT", 
		 "functional": "B3LYP", 
		 "basiset": "6-31G**", 
		 "properties": { 
			 "R2extent": 17921.1591, 
			 "electric_dipole_moment_norm": 2.55403648173, 
			 "electric_quadrupole_moment_norm": 20.0773707763, 
			 "total_energy": -1238.41669485, 
			 "HOMO_LUMO_gap": 0.20498, 
			 "cosmo_polarized_energy": -12.27, 
			 "cosmo_cavitation_energy": 68.07, 
			 "cosmo_dispersion_energy": -41.93, 
			 "cosmo_repulsion_energy": 3.35, 
			 "cosmo_total_nonelectrostatic_energy": 29.49, 
			 "SMD_solvation_energy": 11.03 
		},
		"coords": [
			{
				"x": 3.0244733364,
				"y": -4.2864211915,
				"z": 4.3325018742,
				"element": "C" 
			},
			{
				"x": 1.9167336721,
				"y": -3.4597062545,
				"z": 3.6681974215,
				"element": "C" 
			},
			{
				"x": 2.1483713631,
				"y": -3.1580986803,
				"z": 2.176761089,
				"element": "C" 
			},
			{
				"x": 2.0864026399,
				"y": -4.3929512493,
				"z": 1.2663630061,
				"element": "C" 
			},
			{
				"x": 2.3700196393,
				"y": -4.1417330487,
				"z": -0.2263787466,
				"element": "C" 
			},
			{
				"x": 1.3725361631,
				"y": -3.2125953744,
				"z": -0.9570330306,
				"element": "C" 
			},
			{
				"x": 1.807689064,
				"y": -1.7391495138,
				"z": -1.0322496532,
				"element": "C" 
			},
			{
				"x": 0.7743651706,
				"y": -0.7988517429,
				"z": -1.675016083,
				"element": "C" 
			},
			{
				"x": 0.5142462472,
				"y": -1.0645245685,
				"z": -3.1644897104,
				"element": "C" 
			},
			{
				"x": -0.4686531691,
				"y": -0.0871115313,
				"z": -3.8023231381,
				"element": "C" 
			},
			{
				"x": -1.7684470187,
				"y": -0.1277808493,
				"z": -3.1611309083,
				"element": "O" 
			},
			{
				"x": -2.6195095091,
				"y": -1.088501536,
				"z": -3.5711569105,
				"element": "C" 
			},
			{
				"x": -2.3488634391,
				"y": -1.9068195553,
				"z": -4.4300941943,
				"element": "O" 
			},
			{
				"x": -3.9366645673,
				"y": -1.0362745499,
				"z": -2.864668124,
				"element": "C" 
			},
			{
				"x": -4.8738461066,
				"y": -2.0101048702,
				"z": -3.2395136852,
				"element": "C" 
			},
			{
				"x": -6.1367500782,
				"y": -2.0504386005,
				"z": -2.6585152892,
				"element": "C" 
			},
			{
				"x": -6.4812148973,
				"y": -1.1043165418,
				"z": -1.6916521015,
				"element": "C" 
			},
			{
				"x": -5.5604406434,
				"y": -0.1283240335,
				"z": -1.313924939,
				"element": "C" 
			},
			{
				"x": -4.2838044461,
				"y": -0.0845126108,
				"z": -1.886316877,
				"element": "C" 
			},
			{
				"x": -3.3889553942,
				"y": 1.0399626882,
				"z": -1.428420471,
				"element": "C" 
			},
			{
				"x": -3.4492756637,
				"y": 2.1685638192,
				"z": -1.8637014712,
				"element": "O" 
			},
			{
				"x": -2.6011999819,
				"y": 0.6508859366,
				"z": -0.4056697286,
				"element": "O" 
			},
			{
				"x": -1.7449489325,
				"y": 1.6700594957,
				"z": 0.1692348544,
				"element": "C" 
			},
			{
				"x": -2.4802853983,
				"y": 2.4609268286,
				"z": 1.2483552436,
				"element": "C" 
			},
			{
				"x": -1.6079441231,
				"y": 3.5372842753,
				"z": 1.9163135441,
				"element": "C" 
			},
			{
				"x": -0.44130125,
				"y": 2.9974573092,
				"z": 2.7569732344,
				"element": "C" 
			},
			{
				"x": 0.3397014674,
				"y": 4.1009483656,
				"z": 3.4825983214,
				"element": "C" 
			},
			{
				"x": 1.5038424204,
				"y": 3.5660719096,
				"z": 4.322485206,
				"element": "C" 
			},
			{
				"x": 2.8258707549,
				"y": -4.4235573511,
				"z": 5.4006569936,
				"element": "H" 
			},
			{
				"x": 3.9972337965,
				"y": -3.7896467704,
				"z": 4.2371990703,
				"element": "H" 
			},
			{
				"x": 3.1173105838,
				"y": -5.2823699021,
				"z": 3.8876817724,
				"element": "H" 
			},
			{
				"x": 1.8155864642,
				"y": -2.5081934723,
				"z": 4.2059556677,
				"element": "H" 
			},
			{
				"x": 0.9540567346,
				"y": -3.9763399616,
				"z": 3.7856662062,
				"element": "H" 
			},
			{
				"x": 3.1234495109,
				"y": -2.6633716845,
				"z": 2.0563622066,
				"element": "H" 
			},
			{
				"x": 1.3940365142,
				"y": -2.4309079973,
				"z": 1.851656718,
				"element": "H" 
			},
			{
				"x": 2.8033771571,
				"y": -5.1429445017,
				"z": 1.6237787026,
				"element": "H" 
			},
			{
				"x": 1.0930639576,
				"y": -4.8548075744,
				"z": 1.3649435852,
				"element": "H" 
			},
			{
				"x": 3.3886804902,
				"y": -3.7447690368,
				"z": -0.3420661456,
				"element": "H" 
			},
			{
				"x": 2.3754765923,
				"y": -5.1182341334,
				"z": -0.7261385627,
				"element": "H" 
			},
			{
				"x": 1.224914595,
				"y": -3.5870107212,
				"z": -1.9767695081,
				"element": "H" 
			},
			{
				"x": 0.3877633159,
				"y": -3.2777270287,
				"z": -0.4721100683,
				"element": "H" 
			},
			{
				"x": 2.7533406649,
				"y": -1.6763608484,
				"z": -1.5902165433,
				"element": "H" 
			},
			{
				"x": 2.031533418,
				"y": -1.3716568483,
				"z": -0.0240746428,
				"element": "H" 
			},
			{
				"x": 1.1212265133,
				"y": 0.2379788172,
				"z": -1.5601976573,
				"element": "H" 
			},
			{
				"x": -0.174313217,
				"y": -0.8658145277,
				"z": -1.1275829451,
				"element": "H" 
			},
			{
				"x": 0.1398695502,
				"y": -2.0803675906,
				"z": -3.3244257521,
				"element": "H" 
			},
			{
				"x": 1.4569715396,
				"y": -0.9874416674,
				"z": -3.7246212386,
				"element": "H" 
			},
			{
				"x": -0.5997757621,
				"y": -0.3026138672,
				"z": -4.8651730478,
				"element": "H" 
			},
			{
				"x": -0.1439287036,
				"y": 0.949105699,
				"z": -3.6754129419,
				"element": "H" 
			},
			{
				"x": -4.579978031,
				"y": -2.7268264443,
				"z": -3.9983686529,
				"element": "H" 
			},
			{
				"x": -6.8494201863,
				"y": -2.81221864,
				"z": -2.9594351151,
				"element": "H" 
			},
			{
				"x": -7.4653933244,
				"y": -1.1223395943,
				"z": -1.2327088352,
				"element": "H" 
			},
			{
				"x": -5.8314661368,
				"y": 0.6117520769,
				"z": -0.5670382396,
				"element": "H" 
			},
			{
				"x": -1.3958140862,
				"y": 2.3313397137,
				"z": -0.6283169022,
				"element": "H" 
			},
			{
				"x": -0.8990317254,
				"y": 1.1121594202,
				"z": 0.5750254031,
				"element": "H" 
			},
			{
				"x": -2.8586794082,
				"y": 1.7620775996,
				"z": 2.0053228528,
				"element": "H" 
			},
			{
				"x": -3.3496731711,
				"y": 2.9383578879,
				"z": 0.7840247251,
				"element": "H" 
			},
			{
				"x": -1.2199273323,
				"y": 4.2199344238,
				"z": 1.147196357,
				"element": "H" 
			},
			{
				"x": -2.2526095779,
				"y": 4.1488681644,
				"z": 2.5607136325,
				"element": "H" 
			},
			{
				"x": -0.828853039,
				"y": 2.2816281359,
				"z": 3.4963520453,
				"element": "H" 
			},
			{
				"x": 0.2543277534,
				"y": 2.4309600834,
				"z": 2.1228264971,
				"element": "H" 
			},
			{
				"x": 0.7203074701,
				"y": 4.8194931907,
				"z": 2.7439427655,
				"element": "H" 
			},
			{
				"x": -0.3485527267,
				"y": 4.6653227945,
				"z": 4.1264708002,
				"element": "H" 
			},
			{
				"x": 2.2278439432,
				"y": 3.0278313751,
				"z": 3.6999589436,
				"element": "H" 
			},
			{
				"x": 2.0388015437,
				"y": 4.3769216626,
				"z": 4.8275133759,
				"element": "H" 
			},
			{
				"x": 1.1505969997,
				"y": 2.8707447933,
				"z": 5.0925797448,
				"element": "H" 
			}
		],
		 "valence_orbital": [ 
			{
				"type": "occ",
				"energy": -0.29054,
				"method": "rhf"
			},
			{
				"type": "occ",
				"energy": -0.28014,
				"method": "rhf"
			},
			{
				"type": "occ",
				"energy": -0.27419,
				"method": "rhf"
			},
			{
				"type": "occ",
				"energy": -0.26326,
				"method": "rhf"
			},
			{
				"type": "occ",
				"energy": -0.25454,
				"method": "rhf"
			},
			{
				"type": "unocc",
				"energy": -0.04956,
				"method": "rhf"
			},
			{
				"type": "unocc",
				"energy": -0.01499,
				"method": "rhf"
			},
			{
				"type": "unocc",
				"energy": 0.01524,
				"method": "rhf"
			},
			{
				"type": "unocc",
				"energy": 0.055,
				"method": "rhf"
			},
			{
				"type": "unocc",
				"energy": 0.07881,
				"method": "rhf"
			}
		],
		"cosmo_sigma_profile": { 
			"-0.025": 0.0,
			"-0.024": 0.0,
			"-0.023": 0.0,
			"-0.022": 0.0,
			"-0.021": 0.0,
			"-0.02": 0.0,
			"-0.019": 0.0,
			"-0.018": 0.0,
			"-0.017": 0.0,
			"-0.016": 0.0,
			"-0.015": 0.0,
			"-0.014": 0.0,
			"-0.013": 0.0,
			"-0.012": 0.0,
			"-0.011": 0.0,
			"-0.01": 0.0,
			"-0.009": 0.0,
			"-0.008": 0.564316030101,
			"-0.007": 5.61162923141,
			"-0.006": 9.34285372396,
			"-0.005": 12.7940697248,
			"-0.004": 18.2708018472,
			"-0.003": 33.5760891223,
			"-0.002": 70.5780575548,
			"-0.001": 96.0794950237,
			"0.0": 100.931461921,
			"0.001": 74.6850282529,
			"0.002": 41.096740129,
			"0.003": 19.5339657343,
			"0.004": 7.46718123059,
			"0.005": 4.98076020485,
			"0.006": 5.25446831107,
			"0.007": 3.55632839205,
			"0.008": 4.62226350226,
			"0.009": 3.09242652785,
			"0.01": 4.20595854381,
			"0.011": 6.75195993329,
			"0.012": 5.84413542724,
			"0.013": 0.397070615551,
			"0.014": 0.0,
			"0.015": 0.0,
			"0.016": 0.0,
			"0.017": 0.0,
			"0.018": 0.0,
			"0.019": 0.0,
			"0.02": 0.0,
			"0.021": 0.0,
			"0.022": 0.0,
			"0.023": 0.0,
			"0.024": 0.0,
			"0.025": 0.0
		}
	}
}
