{
	 "smiles": "NC1=CC2=C(C=C1)N(N=C2)C(F)F", 
	 "Tm": 351.15, 
	 "num_atms": 20, 
	 "gaussian": { 
		 "optdone": 1, 
		 "sigma_profile": "yes", 
		 "theory": "DFT", 
		 "functional": "B3LYP", 
		 "basiset": "6-31G**", 
		 "properties": { 
			 "R2extent": 2530.9051, 
			 "electric_dipole_moment_norm": 3.04851570768, 
			 "electric_quadrupole_moment_norm": 11.9881997005, 
			 "total_energy": -672.985087377, 
			 "HOMO_LUMO_gap": 0.16789, 
			 "cosmo_polarized_energy": -10.92, 
			 "cosmo_cavitation_energy": 25.2, 
			 "cosmo_dispersion_energy": -18.4, 
			 "cosmo_repulsion_energy": 1.41, 
			 "cosmo_total_nonelectrostatic_energy": 8.21, 
			 "SMD_solvation_energy": 3.95 
		},
		"coords": [
			{
				"x": 2.9252490358,
				"y": 0.7991486886,
				"z": -2.6657175654,
				"element": "N" 
			},
			{
				"x": 2.0364214312,
				"y": 0.486962742,
				"z": -1.6288993546,
				"element": "C" 
			},
			{
				"x": 1.5248159821,
				"y": -0.8011239787,
				"z": -1.4783069131,
				"element": "C" 
			},
			{
				"x": 0.6864271366,
				"y": -1.0710399691,
				"z": -0.383300731,
				"element": "C" 
			},
			{
				"x": 0.3727399417,
				"y": -0.0513562579,
				"z": 0.5401807073,
				"element": "C" 
			},
			{
				"x": 0.8828298725,
				"y": 1.2467203845,
				"z": 0.4075952041,
				"element": "C" 
			},
			{
				"x": 1.7050666959,
				"y": 1.4936324133,
				"z": -0.6779465614,
				"element": "C" 
			},
			{
				"x": -0.4483953428,
				"y": -0.6384810022,
				"z": 1.4880492565,
				"element": "N" 
			},
			{
				"x": -0.6938373936,
				"y": -1.9542084994,
				"z": 1.2051679315,
				"element": "N" 
			},
			{
				"x": -0.0180172309,
				"y": -2.2199463434,
				"z": 0.1058949503,
				"element": "C" 
			},
			{
				"x": -1.1634436216,
				"y": -0.0212111414,
				"z": 2.5424938126,
				"element": "C" 
			},
			{
				"x": -0.3176202918,
				"y": 0.7466043537,
				"z": 3.2866857108,
				"element": "F" 
			},
			{
				"x": -2.1203491135,
				"y": 0.8279477441,
				"z": 2.0655269623,
				"element": "F" 
			},
			{
				"x": 2.8744363338,
				"y": 0.1811434196,
				"z": -3.4643988541,
				"element": "H" 
			},
			{
				"x": 2.9165926877,
				"y": 1.7687884892,
				"z": -2.9521986981,
				"element": "H" 
			},
			{
				"x": 1.7743756142,
				"y": -1.580071095,
				"z": -2.1937128626,
				"element": "H" 
			},
			{
				"x": 0.646253936,
				"y": 2.0255258538,
				"z": 1.1229617199,
				"element": "H" 
			},
			{
				"x": 2.1250553651,
				"y": 2.4876353394,
				"z": -0.8093260151,
				"element": "H" 
			},
			{
				"x": -0.0451971486,
				"y": -3.2189978279,
				"z": -0.3090071986,
				"element": "H" 
			},
			{
				"x": -1.6277038898,
				"y": -0.7938733132,
				"z": 3.1580584988,
				"element": "H" 
			}
		],
		 "valence_orbital": [ 
			{
				"type": "occ",
				"energy": -0.30695,
				"method": "rhf"
			},
			{
				"type": "occ",
				"energy": -0.30082,
				"method": "rhf"
			},
			{
				"type": "occ",
				"energy": -0.2883,
				"method": "rhf"
			},
			{
				"type": "occ",
				"energy": -0.23631,
				"method": "rhf"
			},
			{
				"type": "occ",
				"energy": -0.20098,
				"method": "rhf"
			},
			{
				"type": "unocc",
				"energy": -0.03309,
				"method": "rhf"
			},
			{
				"type": "unocc",
				"energy": 0.01926,
				"method": "rhf"
			},
			{
				"type": "unocc",
				"energy": 0.05101,
				"method": "rhf"
			},
			{
				"type": "unocc",
				"energy": 0.0776,
				"method": "rhf"
			},
			{
				"type": "unocc",
				"energy": 0.10013,
				"method": "rhf"
			}
		],
		"cosmo_sigma_profile": { 
			"-0.025": 0.0,
			"-0.024": 0.0,
			"-0.023": 0.0,
			"-0.022": 0.0,
			"-0.021": 0.0,
			"-0.02": 0.0,
			"-0.019": 0.0,
			"-0.018": 0.0,
			"-0.017": 0.0,
			"-0.016": 0.0,
			"-0.015": 0.0,
			"-0.014": 0.0,
			"-0.013": 0.333595140702,
			"-0.012": 2.25124729177,
			"-0.011": 3.72816260575,
			"-0.01": 5.55618187152,
			"-0.009": 4.53059007428,
			"-0.008": 5.43806624703,
			"-0.007": 8.00355819708,
			"-0.006": 9.10700352609,
			"-0.005": 9.78949257516,
			"-0.004": 8.99960752616,
			"-0.003": 7.56728514887,
			"-0.002": 8.14373823069,
			"-0.001": 8.4559521862,
			"0.0": 8.79147614397,
			"0.001": 13.5213816654,
			"0.002": 18.9072097162,
			"0.003": 22.4346996562,
			"0.004": 27.1238015692,
			"0.005": 11.3529107862,
			"0.006": 3.79374252674,
			"0.007": 1.71787357078,
			"0.008": 2.08271680214,
			"0.009": 1.78190984839,
			"0.01": 2.1165440517,
			"0.011": 1.33274946222,
			"0.012": 1.58529123904,
			"0.013": 1.87077434681,
			"0.014": 1.13549194293,
			"0.015": 0.34068642677,
			"0.016": 0.0,
			"0.017": 0.0,
			"0.018": 0.0,
			"0.019": 0.0,
			"0.02": 0.0,
			"0.021": 0.0,
			"0.022": 0.0,
			"0.023": 0.0,
			"0.024": 0.0,
			"0.025": 0.0
		}
	}
}
