{
	 "smiles": "CN(C(Cl)=S)C1=CC=C(Br)C=C1", 
	 "Tm": 375.15, 
	 "num_atms": 19, 
	 "gaussian": { 
		 "optdone": 1, 
		 "sigma_profile": "yes", 
		 "theory": "DFT", 
		 "functional": "B3LYP", 
		 "basiset": "6-31G**", 
		 "properties": { 
			 "R2extent": 6316.6029, 
			 "electric_dipole_moment_norm": 4.43542707527, 
			 "electric_quadrupole_moment_norm": 16.2710049533, 
			 "total_energy": -3793.59297883, 
			 "HOMO_LUMO_gap": 0.176, 
			 "cosmo_polarized_energy": -11.37, 
			 "cosmo_cavitation_energy": 29.31, 
			 "cosmo_dispersion_energy": -21.43, 
			 "cosmo_repulsion_energy": 1.69, 
			 "cosmo_total_nonelectrostatic_energy": 9.56, 
			 "SMD_solvation_energy": 3.23 
		},
		"coords": [
			{
				"x": -1.9153842237,
				"y": -0.4727892652,
				"z": 0.4674491562,
				"element": "C" 
			},
			{
				"x": -1.1393964577,
				"y": 0.6998146431,
				"z": 0.0232469326,
				"element": "N" 
			},
			{
				"x": -1.4067128454,
				"y": 1.9780673742,
				"z": 0.3801770476,
				"element": "C" 
			},
			{
				"x": -2.8333670202,
				"y": 2.0845653322,
				"z": 1.4716533278,
				"element": "Cl" 
			},
			{
				"x": -0.5999688705,
				"y": 3.3355763341,
				"z": -0.0653822442,
				"element": "S" 
			},
			{
				"x": -0.0207545876,
				"y": 0.438651222,
				"z": -0.8535703552,
				"element": "C" 
			},
			{
				"x": 1.2352025291,
				"y": 0.163026611,
				"z": -0.3106251592,
				"element": "C" 
			},
			{
				"x": 2.3015048569,
				"y": -0.156358278,
				"z": -1.1500224077,
				"element": "C" 
			},
			{
				"x": 2.094217882,
				"y": -0.1976488444,
				"z": -2.5284518584,
				"element": "C" 
			},
			{
				"x": 3.5494477925,
				"y": -0.6401101865,
				"z": -3.6813842356,
				"element": "Br" 
			},
			{
				"x": 0.8430116505,
				"y": 0.0761058386,
				"z": -3.080071942,
				"element": "C" 
			},
			{
				"x": -0.2186400202,
				"y": 0.3948301096,
				"z": -2.2345524865,
				"element": "C" 
			},
			{
				"x": -2.957105924,
				"y": -0.4001630692,
				"z": 0.1448407252,
				"element": "H" 
			},
			{
				"x": -1.4616202667,
				"y": -1.3548055375,
				"z": 0.0174061808,
				"element": "H" 
			},
			{
				"x": -1.8906929048,
				"y": -0.57144326,
				"z": 1.5556571509,
				"element": "H" 
			},
			{
				"x": 1.3799192451,
				"y": 0.2083003372,
				"z": 0.7638833357,
				"element": "H" 
			},
			{
				"x": 3.2811761229,
				"y": -0.3689410743,
				"z": -0.7382697757,
				"element": "H" 
			},
			{
				"x": 0.7001221731,
				"y": 0.0424221981,
				"z": -4.1538219099,
				"element": "H" 
			},
			{
				"x": -1.1971591314,
				"y": 0.6192995149,
				"z": -2.6464614823,
				"element": "H" 
			}
		],
		 "valence_orbital": [ 
			{
				"type": "occ",
				"energy": -0.297,
				"method": "rhf"
			},
			{
				"type": "occ",
				"energy": -0.28069,
				"method": "rhf"
			},
			{
				"type": "occ",
				"energy": -0.25949,
				"method": "rhf"
			},
			{
				"type": "occ",
				"energy": -0.24158,
				"method": "rhf"
			},
			{
				"type": "occ",
				"energy": -0.22223,
				"method": "rhf"
			},
			{
				"type": "unocc",
				"energy": -0.04623,
				"method": "rhf"
			},
			{
				"type": "unocc",
				"energy": -0.03696,
				"method": "rhf"
			},
			{
				"type": "unocc",
				"energy": -0.03045,
				"method": "rhf"
			},
			{
				"type": "unocc",
				"energy": -0.00381,
				"method": "rhf"
			},
			{
				"type": "unocc",
				"energy": 0.00686,
				"method": "rhf"
			}
		],
		"cosmo_sigma_profile": { 
			"-0.025": 0.0,
			"-0.024": 0.0,
			"-0.023": 0.0,
			"-0.022": 0.0,
			"-0.021": 0.0,
			"-0.02": 0.0,
			"-0.019": 0.0,
			"-0.018": 0.0,
			"-0.017": 0.0,
			"-0.016": 0.0,
			"-0.015": 0.0,
			"-0.014": 0.0,
			"-0.013": 0.0,
			"-0.012": 0.0,
			"-0.011": 0.0,
			"-0.01": 0.0,
			"-0.009": 0.0059145806344,
			"-0.008": 4.72784231819,
			"-0.007": 11.3086304316,
			"-0.006": 16.9356649175,
			"-0.005": 17.8145527229,
			"-0.004": 19.3569986198,
			"-0.003": 14.7626891636,
			"-0.002": 10.2228099959,
			"-0.001": 13.1582109229,
			"0.0": 13.0550165338,
			"0.001": 21.4197915672,
			"0.002": 21.9678445852,
			"0.003": 19.5620834643,
			"0.004": 20.4841435652,
			"0.005": 9.99726966764,
			"0.006": 8.44433985975,
			"0.007": 9.03624108314,
			"0.008": 5.88102371113,
			"0.009": 3.29340641002,
			"0.01": 1.52005370354,
			"0.011": 0.0652655620036,
			"0.012": 0.0,
			"0.013": 0.0,
			"0.014": 0.0,
			"0.015": 0.0,
			"0.016": 0.0,
			"0.017": 0.0,
			"0.018": 0.0,
			"0.019": 0.0,
			"0.02": 0.0,
			"0.021": 0.0,
			"0.022": 0.0,
			"0.023": 0.0,
			"0.024": 0.0,
			"0.025": 0.0
		}
	}
}
