{
	 "smiles": "CC1=CC(NS(=O)(=O)C2=CC=C(N)C=C2)=NO1", 
	 "Tm": 442.15, 
	 "num_atms": 28, 
	 "gaussian": { 
		 "optdone": 1, 
		 "sigma_profile": "yes", 
		 "theory": "DFT", 
		 "functional": "B3LYP", 
		 "basiset": "6-31G**", 
		 "properties": { 
			 "R2extent": 5639.8016, 
			 "electric_dipole_moment_norm": 6.71305215085, 
			 "electric_quadrupole_moment_norm": 35.6386686683, 
			 "total_energy": -1175.69452785, 
			 "HOMO_LUMO_gap": 0.19494, 
			 "cosmo_polarized_energy": -22.33, 
			 "cosmo_cavitation_energy": 34.4, 
			 "cosmo_dispersion_energy": -24.79, 
			 "cosmo_repulsion_energy": 1.9, 
			 "cosmo_total_nonelectrostatic_energy": 11.51, 
			 "SMD_solvation_energy": 5.08 
		},
		"coords": [
			{
				"x": 0.2803117431,
				"y": -4.1746585448,
				"z": 0.5955174826,
				"element": "C" 
			},
			{
				"x": -0.3086581308,
				"y": -2.9710068289,
				"z": -0.0545711948,
				"element": "C" 
			},
			{
				"x": -0.0935616025,
				"y": -2.3542686588,
				"z": -1.2500354671,
				"element": "C" 
			},
			{
				"x": -1.0128429248,
				"y": -1.2639432206,
				"z": -1.2259843369,
				"element": "C" 
			},
			{
				"x": -1.284132275,
				"y": -0.3386392424,
				"z": -2.2387914365,
				"element": "N" 
			},
			{
				"x": -0.0396043597,
				"y": 0.4813242915,
				"z": -3.0791201965,
				"element": "S" 
			},
			{
				"x": 0.8979012377,
				"y": -0.5560610395,
				"z": -3.5088569307,
				"element": "O" 
			},
			{
				"x": -0.7680500267,
				"y": 1.3313646411,
				"z": -4.0188537112,
				"element": "O" 
			},
			{
				"x": 0.7872682373,
				"y": 1.5266805849,
				"z": -1.9011502517,
				"element": "C" 
			},
			{
				"x": 0.3354835236,
				"y": 2.836650419,
				"z": -1.7040845834,
				"element": "C" 
			},
			{
				"x": 0.9560611762,
				"y": 3.6460192049,
				"z": -0.7638933933,
				"element": "C" 
			},
			{
				"x": 2.0383512331,
				"y": 3.1612493773,
				"z": -0.0007520701,
				"element": "C" 
			},
			{
				"x": 2.6847540229,
				"y": 3.9823740145,
				"z": 0.9031377754,
				"element": "N" 
			},
			{
				"x": 2.485033251,
				"y": 1.8418569795,
				"z": -0.2189567219,
				"element": "C" 
			},
			{
				"x": 1.8664971176,
				"y": 1.0316845158,
				"z": -1.1604051471,
				"element": "C" 
			},
			{
				"x": -1.7144257882,
				"y": -1.2174614303,
				"z": -0.1115618702,
				"element": "N" 
			},
			{
				"x": -1.2743857378,
				"y": -2.3200897265,
				"z": 0.6323750837,
				"element": "O" 
			},
			{
				"x": 1.0355263616,
				"y": -4.6209620528,
				"z": -0.0541295615,
				"element": "H" 
			},
			{
				"x": 0.749187563,
				"y": -3.9141106344,
				"z": 1.5503225239,
				"element": "H" 
			},
			{
				"x": -0.4917843999,
				"y": -4.9235774258,
				"z": 0.8002235674,
				"element": "H" 
			},
			{
				"x": 0.5864741966,
				"y": -2.6186220647,
				"z": -2.0425966564,
				"element": "H" 
			},
			{
				"x": -2.0595813299,
				"y": 0.2825376328,
				"z": -2.0238600041,
				"element": "H" 
			},
			{
				"x": -0.4857736744,
				"y": 3.2182455273,
				"z": -2.3012598865,
				"element": "H" 
			},
			{
				"x": 0.6136485164,
				"y": 4.6670972238,
				"z": -0.619196992,
				"element": "H" 
			},
			{
				"x": 2.180827819,
				"y": 4.7924324532,
				"z": 1.2318062295,
				"element": "H" 
			},
			{
				"x": 3.2451267215,
				"y": 3.535099658,
				"z": 1.6131045872,
				"element": "H" 
			},
			{
				"x": 3.3293920807,
				"y": 1.4618458127,
				"z": 0.3497845893,
				"element": "H" 
			},
			{
				"x": 2.2237554484,
				"y": 0.0232385332,
				"z": -1.3357114271,
				"element": "H" 
			}
		],
		 "valence_orbital": [ 
			{
				"type": "occ",
				"energy": -0.30346,
				"method": "rhf"
			},
			{
				"type": "occ",
				"energy": -0.2718,
				"method": "rhf"
			},
			{
				"type": "occ",
				"energy": -0.2615,
				"method": "rhf"
			},
			{
				"type": "occ",
				"energy": -0.25108,
				"method": "rhf"
			},
			{
				"type": "occ",
				"energy": -0.22479,
				"method": "rhf"
			},
			{
				"type": "unocc",
				"energy": -0.02985,
				"method": "rhf"
			},
			{
				"type": "unocc",
				"energy": -0.02092,
				"method": "rhf"
			},
			{
				"type": "unocc",
				"energy": -0.00562,
				"method": "rhf"
			},
			{
				"type": "unocc",
				"energy": 0.04224,
				"method": "rhf"
			},
			{
				"type": "unocc",
				"energy": 0.06415,
				"method": "rhf"
			}
		],
		"cosmo_sigma_profile": { 
			"-0.025": 0.0,
			"-0.024": 0.0,
			"-0.023": 0.0,
			"-0.022": 0.0,
			"-0.021": 0.0,
			"-0.02": 0.0,
			"-0.019": 0.0,
			"-0.018": 0.0,
			"-0.017": 0.0,
			"-0.016": 0.621353188193,
			"-0.015": 0.752411080226,
			"-0.014": 1.53377733836,
			"-0.013": 3.92363803398,
			"-0.012": 4.17612732847,
			"-0.011": 3.50451898343,
			"-0.01": 4.57579678728,
			"-0.009": 3.43460222432,
			"-0.008": 5.08042470144,
			"-0.007": 8.69124719002,
			"-0.006": 17.4891153505,
			"-0.005": 15.2105149167,
			"-0.004": 14.851189886,
			"-0.003": 14.991071062,
			"-0.002": 18.0245428551,
			"-0.001": 13.8366674461,
			"0.0": 14.8194311442,
			"0.001": 16.2102998779,
			"0.002": 17.1261036628,
			"0.003": 18.2323039859,
			"0.004": 15.9133938969,
			"0.005": 7.72771199386,
			"0.006": 6.55009795929,
			"0.007": 7.73800700647,
			"0.008": 8.70101111777,
			"0.009": 7.72265356358,
			"0.01": 9.24607907651,
			"0.011": 9.3896326222,
			"0.012": 2.24520358378,
			"0.013": 1.42624182511,
			"0.014": 0.71320739808,
			"0.015": 0.0174403576671,
			"0.016": 0.0,
			"0.017": 0.0,
			"0.018": 0.0,
			"0.019": 0.0,
			"0.02": 0.0,
			"0.021": 0.0,
			"0.022": 0.0,
			"0.023": 0.0,
			"0.024": 0.0,
			"0.025": 0.0
		}
	}
}
