{
	 "smiles": "FC1=CC(F)=C(C=O)C(F)=C1", 
	 "Tm": 339.15, 
	 "num_atms": 14, 
	 "gaussian": { 
		 "optdone": 1, 
		 "sigma_profile": "yes", 
		 "theory": "DFT", 
		 "functional": "B3LYP", 
		 "basiset": "6-31G**", 
		 "properties": { 
			 "R2extent": 1681.8111, 
			 "electric_dipole_moment_norm": 3.1367395445, 
			 "electric_quadrupole_moment_norm": 9.19808340688, 
			 "total_energy": -643.259277243, 
			 "HOMO_LUMO_gap": 0.18616, 
			 "cosmo_polarized_energy": -7.6, 
			 "cosmo_cavitation_energy": 20.68, 
			 "cosmo_dispersion_energy": -14.8, 
			 "cosmo_repulsion_energy": 1.11, 
			 "cosmo_total_nonelectrostatic_energy": 6.99, 
			 "SMD_solvation_energy": 6.14 
		},
		"coords": [
			{
				"x": 2.46425681,
				"y": 2.0128181318,
				"z": 0.5494848147,
				"element": "F" 
			},
			{
				"x": 1.4627351342,
				"y": 1.1407308689,
				"z": 0.3737653315,
				"element": "C" 
			},
			{
				"x": 0.4351402057,
				"y": 1.10908576,
				"z": 1.3110269153,
				"element": "C" 
			},
			{
				"x": -0.593895025,
				"y": 0.1983550383,
				"z": 1.1114128087,
				"element": "C" 
			},
			{
				"x": -1.5778469496,
				"y": 0.1689442093,
				"z": 2.0101010411,
				"element": "F" 
			},
			{
				"x": -0.6340243675,
				"y": -0.6805238466,
				"z": 0.0115869545,
				"element": "C" 
			},
			{
				"x": -1.7214474074,
				"y": -1.6602684703,
				"z": -0.22206687,
				"element": "C" 
			},
			{
				"x": -2.6884296389,
				"y": -1.8152356597,
				"z": 0.4973649533,
				"element": "O" 
			},
			{
				"x": 0.4420230727,
				"y": -0.5837790382,
				"z": -0.887381818,
				"element": "C" 
			},
			{
				"x": 0.4560181029,
				"y": -1.3992476035,
				"z": -1.9565235476,
				"element": "F" 
			},
			{
				"x": 1.4950486685,
				"y": 0.3054107755,
				"z": -0.7384860589,
				"element": "C" 
			},
			{
				"x": 0.4340014224,
				"y": 1.7702713968,
				"z": 2.1682134378,
				"element": "H" 
			},
			{
				"x": -1.5854846507,
				"y": -2.2674531127,
				"z": -1.1374230326,
				"element": "H" 
			},
			{
				"x": 2.3044046228,
				"y": 0.3462915504,
				"z": -1.4559749297,
				"element": "H" 
			}
		],
		 "valence_orbital": [ 
			{
				"type": "occ",
				"energy": -0.38802,
				"method": "rhf"
			},
			{
				"type": "occ",
				"energy": -0.36266,
				"method": "rhf"
			},
			{
				"type": "occ",
				"energy": -0.27708,
				"method": "rhf"
			},
			{
				"type": "occ",
				"energy": -0.27517,
				"method": "rhf"
			},
			{
				"type": "occ",
				"energy": -0.25955,
				"method": "rhf"
			},
			{
				"type": "unocc",
				"energy": -0.07339,
				"method": "rhf"
			},
			{
				"type": "unocc",
				"energy": -0.0292,
				"method": "rhf"
			},
			{
				"type": "unocc",
				"energy": 0.02393,
				"method": "rhf"
			},
			{
				"type": "unocc",
				"energy": 0.05546,
				"method": "rhf"
			},
			{
				"type": "unocc",
				"energy": 0.11582,
				"method": "rhf"
			}
		],
		"cosmo_sigma_profile": { 
			"-0.025": 0.0,
			"-0.024": 0.0,
			"-0.023": 0.0,
			"-0.022": 0.0,
			"-0.021": 0.0,
			"-0.02": 0.0,
			"-0.019": 0.0,
			"-0.018": 0.0,
			"-0.017": 0.0,
			"-0.016": 0.0,
			"-0.015": 0.0,
			"-0.014": 0.0,
			"-0.013": 0.0,
			"-0.012": 0.0,
			"-0.011": 0.0,
			"-0.01": 1.06885549145,
			"-0.009": 3.14307205049,
			"-0.008": 3.31206772922,
			"-0.007": 4.51602493607,
			"-0.006": 5.20965064256,
			"-0.005": 8.31279424536,
			"-0.004": 7.89469249057,
			"-0.003": 10.8144268244,
			"-0.002": 26.1081495876,
			"-0.001": 18.8130710007,
			"0.0": 11.8388004295,
			"0.001": 7.49887052151,
			"0.002": 13.1408775092,
			"0.003": 21.409027036,
			"0.004": 3.61797188797,
			"0.005": 1.73052805756,
			"0.006": 1.77480466737,
			"0.007": 2.45989731052,
			"0.008": 2.18285978135,
			"0.009": 2.08951953528,
			"0.01": 3.6208561969,
			"0.011": 4.91963412548,
			"0.012": 2.05106839928,
			"0.013": 0.368386584595,
			"0.014": 0.0,
			"0.015": 0.0,
			"0.016": 0.0,
			"0.017": 0.0,
			"0.018": 0.0,
			"0.019": 0.0,
			"0.02": 0.0,
			"0.021": 0.0,
			"0.022": 0.0,
			"0.023": 0.0,
			"0.024": 0.0,
			"0.025": 0.0
		}
	}
}
