{
	 "smiles": "ClC1=CC=C(C=C1)N=NC1=CC=CC=C1", 
	 "Tm": 361.15, 
	 "num_atms": 24, 
	 "gaussian": { 
		 "optdone": 1, 
		 "sigma_profile": "yes", 
		 "theory": "DFT", 
		 "functional": "B3LYP", 
		 "basiset": "6-31G**", 
		 "properties": { 
			 "R2extent": 6471.4232, 
			 "electric_dipole_moment_norm": 2.08538974775, 
			 "electric_quadrupole_moment_norm": 9.64458576093, 
			 "total_energy": -1032.35608508, 
			 "HOMO_LUMO_gap": 0.14238, 
			 "cosmo_polarized_energy": -6.07, 
			 "cosmo_cavitation_energy": 31.2, 
			 "cosmo_dispersion_energy": -23.07, 
			 "cosmo_repulsion_energy": 1.8, 
			 "cosmo_total_nonelectrostatic_energy": 9.93, 
			 "SMD_solvation_energy": 3.78 
		},
		"coords": [
			{
				"x": -1.4723448881,
				"y": -3.3460732247,
				"z": 4.6425374843,
				"element": "Cl" 
			},
			{
				"x": -1.3653259501,
				"y": -2.2356347819,
				"z": 3.2874173217,
				"element": "C" 
			},
			{
				"x": -1.3724926812,
				"y": -0.8615058365,
				"z": 3.5253386656,
				"element": "C" 
			},
			{
				"x": -1.2868099334,
				"y": 0.0082311073,
				"z": 2.440943697,
				"element": "C" 
			},
			{
				"x": -1.1949250535,
				"y": -0.4856453839,
				"z": 1.1330921447,
				"element": "C" 
			},
			{
				"x": -1.1893057561,
				"y": -1.8743688806,
				"z": 0.913825237,
				"element": "C" 
			},
			{
				"x": -1.2743054643,
				"y": -2.7495212659,
				"z": 1.988349524,
				"element": "C" 
			},
			{
				"x": -1.1130444949,
				"y": 0.4943361006,
				"z": 0.1135816617,
				"element": "N" 
			},
			{
				"x": -1.0303193743,
				"y": 0.0314574257,
				"z": -1.0563691418,
				"element": "N" 
			},
			{
				"x": -0.9482023817,
				"y": 1.007205957,
				"z": -2.0806347298,
				"element": "C" 
			},
			{
				"x": -0.8559724548,
				"y": 0.5019408418,
				"z": -3.384792049,
				"element": "C" 
			},
			{
				"x": -0.7700962926,
				"y": 1.3725615254,
				"z": -4.4698907918,
				"element": "C" 
			},
			{
				"x": -0.7760539271,
				"y": 2.7519512179,
				"z": -4.2552217668,
				"element": "C" 
			},
			{
				"x": -0.8681314542,
				"y": 3.2591616472,
				"z": -2.9521746233,
				"element": "C" 
			},
			{
				"x": -0.9540584407,
				"y": 2.3968919779,
				"z": -1.8657318804,
				"element": "C" 
			},
			{
				"x": -1.4437471502,
				"y": -0.4842074187,
				"z": 4.5391777296,
				"element": "H" 
			},
			{
				"x": -1.2894261546,
				"y": 1.0836025248,
				"z": 2.5865623333,
				"element": "H" 
			},
			{
				"x": -1.1179242188,
				"y": -2.2429631223,
				"z": -0.102887306,
				"element": "H" 
			},
			{
				"x": -1.2709089659,
				"y": -3.8227947177,
				"z": 1.832298841,
				"element": "H" 
			},
			{
				"x": -0.8537857498,
				"y": -0.5751675782,
				"z": -3.5186112421,
				"element": "H" 
			},
			{
				"x": -0.6988690414,
				"y": 0.9770675842,
				"z": -5.4787092116,
				"element": "H" 
			},
			{
				"x": -0.709233098,
				"y": 3.4336932606,
				"z": -5.0982021095,
				"element": "H" 
			},
			{
				"x": -0.872334367,
				"y": 4.3333069882,
				"z": -2.789738949,
				"element": "H" 
			},
			{
				"x": -1.0259827072,
				"y": 2.7683740517,
				"z": -0.8500608388,
				"element": "H" 
			}
		],
		 "valence_orbital": [ 
			{
				"type": "occ",
				"energy": -0.27229,
				"method": "rhf"
			},
			{
				"type": "occ",
				"energy": -0.2694,
				"method": "rhf"
			},
			{
				"type": "occ",
				"energy": -0.25965,
				"method": "rhf"
			},
			{
				"type": "occ",
				"energy": -0.23154,
				"method": "rhf"
			},
			{
				"type": "occ",
				"energy": -0.22981,
				"method": "rhf"
			},
			{
				"type": "unocc",
				"energy": -0.08743,
				"method": "rhf"
			},
			{
				"type": "unocc",
				"energy": -0.01762,
				"method": "rhf"
			},
			{
				"type": "unocc",
				"energy": -0.00861,
				"method": "rhf"
			},
			{
				"type": "unocc",
				"energy": 0.00023,
				"method": "rhf"
			},
			{
				"type": "unocc",
				"energy": 0.02718,
				"method": "rhf"
			}
		],
		"cosmo_sigma_profile": { 
			"-0.025": 0.0,
			"-0.024": 0.0,
			"-0.023": 0.0,
			"-0.022": 0.0,
			"-0.021": 0.0,
			"-0.02": 0.0,
			"-0.019": 0.0,
			"-0.018": 0.0,
			"-0.017": 0.0,
			"-0.016": 0.0,
			"-0.015": 0.0,
			"-0.014": 0.0,
			"-0.013": 0.0,
			"-0.012": 0.0,
			"-0.011": 0.0,
			"-0.01": 0.0,
			"-0.009": 0.0,
			"-0.008": 1.19714597813,
			"-0.007": 6.17238077076,
			"-0.006": 15.3384076841,
			"-0.005": 17.2257852361,
			"-0.004": 15.7422265945,
			"-0.003": 14.339338437,
			"-0.002": 13.5495085764,
			"-0.001": 14.0854118415,
			"0.0": 17.2390377259,
			"0.001": 33.3126963765,
			"0.002": 37.7523993749,
			"0.003": 28.1351294456,
			"0.004": 24.9596349779,
			"0.005": 7.46238717368,
			"0.006": 3.61253592456,
			"0.007": 3.07430729984,
			"0.008": 0.746494363595,
			"0.009": 0.0,
			"0.01": 0.0,
			"0.011": 0.0,
			"0.012": 0.0,
			"0.013": 0.0,
			"0.014": 0.0,
			"0.015": 0.0,
			"0.016": 0.0,
			"0.017": 0.0,
			"0.018": 0.0,
			"0.019": 0.0,
			"0.02": 0.0,
			"0.021": 0.0,
			"0.022": 0.0,
			"0.023": 0.0,
			"0.024": 0.0,
			"0.025": 0.0
		}
	}
}
