{
	 "smiles": "CC1=CC=C(C=C1)S(=O)(=O)N1CC2=C(CC1C(O)=O)C=CC=C2", 
	 "Tm": 417.15, 
	 "num_atms": 40, 
	 "gaussian": { 
		 "optdone": 1, 
		 "sigma_profile": "yes", 
		 "theory": "DFT", 
		 "functional": "B3LYP", 
		 "basiset": "6-31G**", 
		 "properties": { 
			 "R2extent": 7469.5386, 
			 "electric_dipole_moment_norm": 4.81764864016, 
			 "electric_quadrupole_moment_norm": 24.2831548826, 
			 "total_energy": -1411.83657767, 
			 "HOMO_LUMO_gap": 0.20931, 
			 "cosmo_polarized_energy": -19.73, 
			 "cosmo_cavitation_energy": 42.87, 
			 "cosmo_dispersion_energy": -29.44, 
			 "cosmo_repulsion_energy": 2.2, 
			 "cosmo_total_nonelectrostatic_energy": 15.63, 
			 "SMD_solvation_energy": 6.05 
		},
		"coords": [
			{
				"x": 1.0338477655,
				"y": -2.389782262,
				"z": -4.1824075006,
				"element": "C" 
			},
			{
				"x": 0.0837398021,
				"y": -1.6505003844,
				"z": -3.2716117545,
				"element": "C" 
			},
			{
				"x": -0.3198622809,
				"y": -0.3404184139,
				"z": -3.5669272818,
				"element": "C" 
			},
			{
				"x": -1.2207278655,
				"y": 0.3382911862,
				"z": -2.7493049088,
				"element": "C" 
			},
			{
				"x": -1.7234318197,
				"y": -0.3008400056,
				"z": -1.61392635,
				"element": "C" 
			},
			{
				"x": -1.3445832773,
				"y": -1.6084324532,
				"z": -1.297154699,
				"element": "C" 
			},
			{
				"x": -0.4413250793,
				"y": -2.2691886052,
				"z": -2.127528043,
				"element": "C" 
			},
			{
				"x": -2.8916176269,
				"y": 0.5633402449,
				"z": -0.556914033,
				"element": "S" 
			},
			{
				"x": -3.6661647962,
				"y": -0.459865455,
				"z": 0.1477213428,
				"element": "O" 
			},
			{
				"x": -3.5315950971,
				"y": 1.5946564218,
				"z": -1.3776257454,
				"element": "O" 
			},
			{
				"x": -2.0678485591,
				"y": 1.4215674258,
				"z": 0.6537484163,
				"element": "N" 
			},
			{
				"x": -1.4553225022,
				"y": 2.7084252275,
				"z": 0.2973557869,
				"element": "C" 
			},
			{
				"x": 0.0506620614,
				"y": 2.6419616995,
				"z": 0.1085491057,
				"element": "C" 
			},
			{
				"x": 0.7950481579,
				"y": 1.5687065575,
				"z": 0.6244596247,
				"element": "C" 
			},
			{
				"x": 0.1169078336,
				"y": 0.4105712626,
				"z": 1.331611633,
				"element": "C" 
			},
			{
				"x": -1.3229374511,
				"y": 0.746206498,
				"z": 1.7364759933,
				"element": "C" 
			},
			{
				"x": -2.0497086484,
				"y": -0.4690327781,
				"z": 2.3229731687,
				"element": "C" 
			},
			{
				"x": -3.1069854285,
				"y": -0.0976548398,
				"z": 3.0632992994,
				"element": "O" 
			},
			{
				"x": -1.6712796581,
				"y": -1.614515862,
				"z": 2.2117344188,
				"element": "O" 
			},
			{
				"x": 2.1874232765,
				"y": 1.5691280757,
				"z": 0.4615618508,
				"element": "C" 
			},
			{
				"x": 2.8360584086,
				"y": 2.6111072061,
				"z": -0.1961283547,
				"element": "C" 
			},
			{
				"x": 2.0924136273,
				"y": 3.6790115963,
				"z": -0.7052834947,
				"element": "C" 
			},
			{
				"x": 0.7086530539,
				"y": 3.6887454271,
				"z": -0.5499849627,
				"element": "C" 
			},
			{
				"x": 1.7218283201,
				"y": -1.7040333603,
				"z": -4.6853437974,
				"element": "H" 
			},
			{
				"x": 0.4851010997,
				"y": -2.9318978971,
				"z": -4.9626076547,
				"element": "H" 
			},
			{
				"x": 1.6262310213,
				"y": -3.1255110603,
				"z": -3.6308559321,
				"element": "H" 
			},
			{
				"x": 0.0722271424,
				"y": 0.1538273801,
				"z": -4.4518606917,
				"element": "H" 
			},
			{
				"x": -1.548279534,
				"y": 1.3420804817,
				"z": -2.9954092129,
				"element": "H" 
			},
			{
				"x": -1.7492919928,
				"y": -2.0934724942,
				"z": -0.4155988572,
				"element": "H" 
			},
			{
				"x": -0.1436210718,
				"y": -3.2858510606,
				"z": -1.8846910695,
				"element": "H" 
			},
			{
				"x": -1.954913583,
				"y": 3.0872398222,
				"z": -0.5955798973,
				"element": "H" 
			},
			{
				"x": -1.6982023738,
				"y": 3.411936845,
				"z": 1.1073567292,
				"element": "H" 
			},
			{
				"x": 0.1134012213,
				"y": -0.4786231772,
				"z": 0.6931016993,
				"element": "H" 
			},
			{
				"x": 0.6836682272,
				"y": 0.1329474764,
				"z": 2.2278504056,
				"element": "H" 
			},
			{
				"x": -1.3051929143,
				"y": 1.4894218164,
				"z": 2.5449311355,
				"element": "H" 
			},
			{
				"x": -3.5483228769,
				"y": -0.9153095851,
				"z": 3.3480559582,
				"element": "H" 
			},
			{
				"x": 2.7653586435,
				"y": 0.7383549209,
				"z": 0.8599631223,
				"element": "H" 
			},
			{
				"x": 3.9160726044,
				"y": 2.5924002001,
				"z": -0.310222045,
				"element": "H" 
			},
			{
				"x": 2.5878805346,
				"y": 4.4955519636,
				"z": -1.2224688293,
				"element": "H" 
			},
			{
				"x": 0.1256916356,
				"y": 4.5174499585,
				"z": -0.9462145751,
				"element": "H" 
			}
		],
		 "valence_orbital": [ 
			{
				"type": "occ",
				"energy": -0.27192,
				"method": "rhf"
			},
			{
				"type": "occ",
				"energy": -0.2656,
				"method": "rhf"
			},
			{
				"type": "occ",
				"energy": -0.25307,
				"method": "rhf"
			},
			{
				"type": "occ",
				"energy": -0.24525,
				"method": "rhf"
			},
			{
				"type": "occ",
				"energy": -0.24401,
				"method": "rhf"
			},
			{
				"type": "unocc",
				"energy": -0.0347,
				"method": "rhf"
			},
			{
				"type": "unocc",
				"energy": -0.01785,
				"method": "rhf"
			},
			{
				"type": "unocc",
				"energy": -0.01209,
				"method": "rhf"
			},
			{
				"type": "unocc",
				"energy": -0.00901,
				"method": "rhf"
			},
			{
				"type": "unocc",
				"energy": 0.00107,
				"method": "rhf"
			}
		],
		"cosmo_sigma_profile": { 
			"-0.025": 0.0,
			"-0.024": 0.0,
			"-0.023": 0.0,
			"-0.022": 0.0,
			"-0.021": 0.0,
			"-0.02": 0.0,
			"-0.019": 0.400400856196,
			"-0.018": 0.948064923655,
			"-0.017": 0.949511538223,
			"-0.016": 1.02270223292,
			"-0.015": 0.630818861322,
			"-0.014": 0.578374042935,
			"-0.013": 0.22124803379,
			"-0.012": 0.75470754738,
			"-0.011": 0.693488838135,
			"-0.01": 0.526714344237,
			"-0.009": 1.33869277144,
			"-0.008": 5.05177256688,
			"-0.007": 6.9101393599,
			"-0.006": 19.5688377038,
			"-0.005": 31.1334540437,
			"-0.004": 28.9984274486,
			"-0.003": 25.6359395191,
			"-0.002": 22.800220277,
			"-0.001": 24.067290549,
			"0.0": 20.7970089789,
			"0.001": 18.1041600149,
			"0.002": 21.4243578779,
			"0.003": 23.0038449602,
			"0.004": 14.8378834531,
			"0.005": 14.1718245295,
			"0.006": 11.9454059404,
			"0.007": 6.99730076709,
			"0.008": 7.16191582982,
			"0.009": 8.16932886265,
			"0.01": 9.82182379666,
			"0.011": 9.84911534989,
			"0.012": 1.77243602573,
			"0.013": 0.0,
			"0.014": 0.0,
			"0.015": 0.0,
			"0.016": 0.0,
			"0.017": 0.0,
			"0.018": 0.0,
			"0.019": 0.0,
			"0.02": 0.0,
			"0.021": 0.0,
			"0.022": 0.0,
			"0.023": 0.0,
			"0.024": 0.0,
			"0.0": 0.0
		}
	}
}
