{
	 "smiles": "CC(C)NCC(O)COC1=C(C)C(C)=C(OC(C)=O)C(C)=C1", 
	 "Tm": 379.15, 
	 "num_atms": 49, 
	 "gaussian": { 
		 "optdone": 1, 
		 "sigma_profile": "yes", 
		 "theory": "DFT", 
		 "functional": "B3LYP", 
		 "basiset": "6-31G**", 
		 "properties": { 
			 "R2extent": 11742.7012, 
			 "electric_dipole_moment_norm": 2.70397065258, 
			 "electric_quadrupole_moment_norm": 15.0719014315, 
			 "total_energy": -1019.7461781, 
			 "HOMO_LUMO_gap": 0.21114, 
			 "cosmo_polarized_energy": -13.62, 
			 "cosmo_cavitation_energy": 50.32, 
			 "cosmo_dispersion_energy": -33.69, 
			 "cosmo_repulsion_energy": 2.64, 
			 "cosmo_total_nonelectrostatic_energy": 19.27, 
			 "SMD_solvation_energy": 8.43 
		},
		"coords": [
			{
				"x": 3.0907563097,
				"y": -3.737198016,
				"z": -3.7778358954,
				"element": "C" 
			},
			{
				"x": 2.2676025374,
				"y": -2.6818003597,
				"z": -4.5270070857,
				"element": "C" 
			},
			{
				"x": 2.9713965869,
				"y": -2.2370610556,
				"z": -5.8242660585,
				"element": "C" 
			},
			{
				"x": 1.8801395613,
				"y": -1.5846814478,
				"z": -3.6252197808,
				"element": "N" 
			},
			{
				"x": 2.9443167411,
				"y": -0.7135781538,
				"z": -3.1330430934,
				"element": "C" 
			},
			{
				"x": 2.3496745342,
				"y": 0.4019971582,
				"z": -2.2725753264,
				"element": "C" 
			},
			{
				"x": 1.4645233561,
				"y": 1.1507681312,
				"z": -3.0989376168,
				"element": "O" 
			},
			{
				"x": 1.5963490407,
				"y": -0.1296273741,
				"z": -1.0563226261,
				"element": "C" 
			},
			{
				"x": 0.9963037523,
				"y": 1.0169724432,
				"z": -0.427058487,
				"element": "O" 
			},
			{
				"x": 0.0494052374,
				"y": 0.7566493137,
				"z": 0.5512927127,
				"element": "C" 
			},
			{
				"x": 0.319992008,
				"y": 1.1324494292,
				"z": 1.8737806912,
				"element": "C" 
			},
			{
				"x": 1.6367811419,
				"y": 1.7718871086,
				"z": 2.2407646287,
				"element": "C" 
			},
			{
				"x": -0.674178758,
				"y": 0.9099210274,
				"z": 2.8518074733,
				"element": "C" 
			},
			{
				"x": -0.4263451471,
				"y": 1.3004988965,
				"z": 4.2887446743,
				"element": "C" 
			},
			{
				"x": -1.8832153559,
				"y": 0.3257386901,
				"z": 2.4643152696,
				"element": "C" 
			},
			{
				"x": -2.8362787498,
				"y": 0.0368174747,
				"z": 3.4587364679,
				"element": "O" 
			},
			{
				"x": -3.9017506772,
				"y": 0.8856650756,
				"z": 3.6064621922,
				"element": "C" 
			},
			{
				"x": -4.7948191595,
				"y": 0.4003482679,
				"z": 4.7224071721,
				"element": "C" 
			},
			{
				"x": -4.0800511808,
				"y": 1.8683878226,
				"z": 2.9301465644,
				"element": "O" 
			},
			{
				"x": -2.1615667438,
				"y": -0.0540412186,
				"z": 1.1449805981,
				"element": "C" 
			},
			{
				"x": -3.4849300967,
				"y": -0.6705587472,
				"z": 0.768980783,
				"element": "C" 
			},
			{
				"x": -1.1693834016,
				"y": 0.1758653593,
				"z": 0.1940687434,
				"element": "C" 
			},
			{
				"x": 3.232876507,
				"y": -4.6259620246,
				"z": -4.4009376021,
				"element": "H" 
			},
			{
				"x": 4.08655209,
				"y": -3.3637927555,
				"z": -3.5136118325,
				"element": "H" 
			},
			{
				"x": 2.5816569099,
				"y": -4.0354564417,
				"z": -2.8567631958,
				"element": "H" 
			},
			{
				"x": 1.3191753057,
				"y": -3.1555465386,
				"z": -4.8151298415,
				"element": "H" 
			},
			{
				"x": 3.9572439729,
				"y": -1.8035351867,
				"z": -5.6240846649,
				"element": "H" 
			},
			{
				"x": 3.118204825,
				"y": -3.0890603528,
				"z": -6.4973044167,
				"element": "H" 
			},
			{
				"x": 2.3757743324,
				"y": -1.4874886435,
				"z": -6.3572099186,
				"element": "H" 
			},
			{
				"x": 1.2005814833,
				"y": -0.9875932479,
				"z": -4.0909492878,
				"element": "H" 
			},
			{
				"x": 3.5377576413,
				"y": -0.2321542536,
				"z": -3.9289457054,
				"element": "H" 
			},
			{
				"x": 3.6439497306,
				"y": -1.2941781532,
				"z": -2.5198876979,
				"element": "H" 
			},
			{
				"x": 3.1721750712,
				"y": 1.0454399476,
				"z": -1.9177914381,
				"element": "H" 
			},
			{
				"x": 0.9358551159,
				"y": 1.6930212366,
				"z": -2.4946823958,
				"element": "H" 
			},
			{
				"x": 0.8332543891,
				"y": -0.845225773,
				"z": -1.3745570509,
				"element": "H" 
			},
			{
				"x": 2.2798134522,
				"y": -0.6283955056,
				"z": -0.3550368894,
				"element": "H" 
			},
			{
				"x": 2.2000176768,
				"y": 1.1553353686,
				"z": 2.9521616529,
				"element": "H" 
			},
			{
				"x": 1.4876032373,
				"y": 2.7478801055,
				"z": 2.7169368564,
				"element": "H" 
			},
			{
				"x": 2.2510646246,
				"y": 1.9182154174,
				"z": 1.3524408375,
				"element": "H" 
			},
			{
				"x": -1.20188763,
				"y": 0.9083474247,
				"z": 4.9467952474,
				"element": "H" 
			},
			{
				"x": -0.4037344262,
				"y": 2.3912952745,
				"z": 4.4031524154,
				"element": "H" 
			},
			{
				"x": 0.5392821053,
				"y": 0.9234620096,
				"z": 4.6415510168,
				"element": "H" 
			},
			{
				"x": -4.2359128224,
				"y": 0.3622821717,
				"z": 5.6621852808,
				"element": "H" 
			},
			{
				"x": -5.1421755369,
				"y": -0.6149640057,
				"z": 4.5102310537,
				"element": "H" 
			},
			{
				"x": -5.6457893695,
				"y": 1.0729681688,
				"z": 4.823330985,
				"element": "H" 
			},
			{
				"x": -3.7369551279,
				"y": -1.5070803381,
				"z": 1.4292352469,
				"element": "H" 
			},
			{
				"x": -4.2938408198,
				"y": 0.0642262864,
				"z": 0.8474243146,
				"element": "H" 
			},
			{
				"x": -3.4627441833,
				"y": -1.0410359388,
				"z": -0.2588347219,
				"element": "H" 
			},
			{
				"x": -1.3478200912,
				"y": -0.0832240781,
				"z": -0.8453402493,
				"element": "H" 
			}
		],
		 "valence_orbital": [ 
			{
				"type": "occ",
				"energy": -0.27462,
				"method": "rhf"
			},
			{
				"type": "occ",
				"energy": -0.26484,
				"method": "rhf"
			},
			{
				"type": "occ",
				"energy": -0.23445,
				"method": "rhf"
			},
			{
				"type": "occ",
				"energy": -0.22328,
				"method": "rhf"
			},
			{
				"type": "occ",
				"energy": -0.21263,
				"method": "rhf"
			},
			{
				"type": "unocc",
				"energy": -0.00149,
				"method": "rhf"
			},
			{
				"type": "unocc",
				"energy": 0.00502,
				"method": "rhf"
			},
			{
				"type": "unocc",
				"energy": 0.01137,
				"method": "rhf"
			},
			{
				"type": "unocc",
				"energy": 0.08189,
				"method": "rhf"
			},
			{
				"type": "unocc",
				"energy": 0.0837,
				"method": "rhf"
			}
		],
		"cosmo_sigma_profile": { 
			"-0.025": 0.0,
			"-0.024": 0.0,
			"-0.023": 0.0,
			"-0.022": 0.0,
			"-0.021": 0.0,
			"-0.02": 0.0,
			"-0.019": 0.0,
			"-0.018": 0.0,
			"-0.017": 0.0,
			"-0.016": 0.0,
			"-0.015": 0.0,
			"-0.014": 0.0,
			"-0.013": 0.0,
			"-0.012": 0.246043527398,
			"-0.011": 0.819105259212,
			"-0.01": 0.447172355078,
			"-0.009": 0.542403413698,
			"-0.008": 0.454374707581,
			"-0.007": 2.65924234544,
			"-0.006": 8.56288970035,
			"-0.005": 16.4471227554,
			"-0.004": 33.4570095685,
			"-0.003": 44.7517996529,
			"-0.002": 55.1343233899,
			"-0.001": 49.0173810039,
			"0.0": 44.8185359787,
			"0.001": 34.4499858075,
			"0.002": 21.3228769626,
			"0.003": 12.7788618377,
			"0.004": 15.526752493,
			"0.005": 10.5857176568,
			"0.006": 6.68965234171,
			"0.007": 4.2400545739,
			"0.008": 5.64271525672,
			"0.009": 4.75850917292,
			"0.01": 3.63809393618,
			"0.011": 5.76784404042,
			"0.012": 5.52865938223,
			"0.013": 1.72108208681,
			"0.014": 1.56484158298,
			"0.015": 0.252681358501,
			"0.016": 0.0,
			"0.017": 0.0,
			"0.018": 0.0,
			"0.019": 0.0,
			"0.02": 0.0,
			"0.021": 0.0,
			"0.022": 0.0,
			"0.023": 0.0,
			"0.024": 0.0,
			"0.025": 0.0
		}
	}
}
