{
	 "smiles": "CC1(NC(=O)NC1=O)C1=C(F)C=CC=C1", 
	 "Tm": 488.15, 
	 "num_atms": 24, 
	 "gaussian": { 
		 "optdone": 1, 
		 "sigma_profile": "yes", 
		 "theory": "DFT", 
		 "functional": "B3LYP", 
		 "basiset": "6-31G**", 
		 "properties": { 
			 "R2extent": 3092.8286, 
			 "electric_dipole_moment_norm": 3.88752426488, 
			 "electric_quadrupole_moment_norm": 14.3061273649, 
			 "total_energy": -746.314212708, 
			 "HOMO_LUMO_gap": 0.224, 
			 "cosmo_polarized_energy": -16.97, 
			 "cosmo_cavitation_energy": 28.27, 
			 "cosmo_dispersion_energy": -20.13, 
			 "cosmo_repulsion_energy": 1.56, 
			 "cosmo_total_nonelectrostatic_energy": 9.69, 
			 "SMD_solvation_energy": 6.41 
		},
		"coords": [
			{
				"x": 1.0628152124,
				"y": 0.2683266504,
				"z": 2.4560989938,
				"element": "C" 
			},
			{
				"x": 0.1662593875,
				"y": -0.442612639,
				"z": 1.4275325644,
				"element": "C" 
			},
			{
				"x": -1.2376641251,
				"y": -0.0533597667,
				"z": 1.5966277411,
				"element": "N" 
			},
			{
				"x": -2.0596107986,
				"y": -1.0829645341,
				"z": 1.9816288847,
				"element": "C" 
			},
			{
				"x": -3.264091613,
				"y": -1.0778179573,
				"z": 2.1214400395,
				"element": "O" 
			},
			{
				"x": -1.2016087745,
				"y": -2.1789154701,
				"z": 2.2142168221,
				"element": "N" 
			},
			{
				"x": 0.0999410752,
				"y": -1.9460593708,
				"z": 1.833949086,
				"element": "C" 
			},
			{
				"x": 1.0278367135,
				"y": -2.7239205276,
				"z": 1.8564196881,
				"element": "O" 
			},
			{
				"x": 0.639636654,
				"y": -0.2698236067,
				"z": -0.0168333315,
				"element": "C" 
			},
			{
				"x": 0.0032658976,
				"y": -0.9604343697,
				"z": -1.055475397,
				"element": "C" 
			},
			{
				"x": -1.0038495769,
				"y": -1.8103964125,
				"z": -0.746724767,
				"element": "F" 
			},
			{
				"x": 0.3582458398,
				"y": -0.8276013519,
				"z": -2.3896068864,
				"element": "C" 
			},
			{
				"x": 1.4028095401,
				"y": 0.0350875123,
				"z": -2.7235837002,
				"element": "C" 
			},
			{
				"x": 2.0679262991,
				"y": 0.7380510694,
				"z": -1.7199003111,
				"element": "C" 
			},
			{
				"x": 1.6876969208,
				"y": 0.5831300902,
				"z": -0.3849807447,
				"element": "C" 
			},
			{
				"x": 2.0801752086,
				"y": -0.1280289695,
				"z": 2.4136446807,
				"element": "H" 
			},
			{
				"x": 1.0844904679,
				"y": 1.3475343198,
				"z": 2.2809101636,
				"element": "H" 
			},
			{
				"x": 0.663702978,
				"y": 0.0989666474,
				"z": 3.4590281125,
				"element": "H" 
			},
			{
				"x": -1.6359146603,
				"y": 0.784407574,
				"z": 1.2014704422,
				"element": "H" 
			},
			{
				"x": -1.5560186488,
				"y": -3.0850770612,
				"z": 2.4843387051,
				"element": "H" 
			},
			{
				"x": -0.1801109752,
				"y": -1.399791854,
				"z": -3.1371800681,
				"element": "H" 
			},
			{
				"x": 1.6948542749,
				"y": 0.1499835401,
				"z": -3.7628094145,
				"element": "H" 
			},
			{
				"x": 2.8849189164,
				"y": 1.4071165843,
				"z": -1.9705964962,
				"element": "H" 
			},
			{
				"x": 2.2229937867,
				"y": 1.1341999032,
				"z": 0.3792851928,
				"element": "H" 
			}
		],
		 "valence_orbital": [ 
			{
				"type": "occ",
				"energy": -0.28659,
				"method": "rhf"
			},
			{
				"type": "occ",
				"energy": -0.27583,
				"method": "rhf"
			},
			{
				"type": "occ",
				"energy": -0.26699,
				"method": "rhf"
			},
			{
				"type": "occ",
				"energy": -0.26003,
				"method": "rhf"
			},
			{
				"type": "occ",
				"energy": -0.25177,
				"method": "rhf"
			},
			{
				"type": "unocc",
				"energy": -0.02777,
				"method": "rhf"
			},
			{
				"type": "unocc",
				"energy": -0.01382,
				"method": "rhf"
			},
			{
				"type": "unocc",
				"energy": -0.00579,
				"method": "rhf"
			},
			{
				"type": "unocc",
				"energy": 0.06567,
				"method": "rhf"
			},
			{
				"type": "unocc",
				"energy": 0.07323,
				"method": "rhf"
			}
		],
		"cosmo_sigma_profile": { 
			"-0.025": 0.0,
			"-0.024": 0.0,
			"-0.023": 0.0,
			"-0.022": 0.0,
			"-0.021": 0.0,
			"-0.02": 0.0,
			"-0.019": 0.0,
			"-0.018": 0.0,
			"-0.017": 0.367576667375,
			"-0.016": 1.43390355104,
			"-0.015": 2.20425613902,
			"-0.014": 1.77204710964,
			"-0.013": 2.39518876595,
			"-0.012": 1.27359840606,
			"-0.011": 2.14893732208,
			"-0.01": 2.00287352544,
			"-0.009": 1.54951548181,
			"-0.008": 2.07518319601,
			"-0.007": 6.65913823033,
			"-0.006": 14.3401821717,
			"-0.005": 16.5515472959,
			"-0.004": 14.5196781036,
			"-0.003": 12.6171205507,
			"-0.002": 12.9841704393,
			"-0.001": 14.985042623,
			"0.0": 14.2769662736,
			"0.001": 13.2761949482,
			"0.002": 15.1437226671,
			"0.003": 17.7547416575,
			"0.004": 15.1057488846,
			"0.005": 3.34873630159,
			"0.006": 1.92683664339,
			"0.007": 3.50137972661,
			"0.008": 2.8079944043,
			"0.009": 2.14465123011,
			"0.01": 3.33113528846,
			"0.011": 6.02273301886,
			"0.012": 9.33180205287,
			"0.013": 6.47709922049,
			"0.014": 0.676299864302,
			"0.015": 0.0,
			"0.016": 0.0,
			"0.017": 0.0,
			"0.018": 0.0,
			"0.019": 0.0,
			"0.02": 0.0,
			"0.021": 0.0,
			"0.022": 0.0,
			"0.023": 0.0,
			"0.024": 0.0,
			"0.025": 0.0
		}
	}
}
