{
	 "smiles": "O=C1NN=CC2=C1C=CC=C2", 
	 "Tm": 461.15, 
	 "num_atms": 17, 
	 "gaussian": { 
		 "optdone": 1, 
		 "sigma_profile": "yes", 
		 "theory": "DFT", 
		 "functional": "B3LYP", 
		 "basiset": "6-31G**", 
		 "properties": { 
			 "R2extent": 2014.7075, 
			 "electric_dipole_moment_norm": 3.38087343301, 
			 "electric_quadrupole_moment_norm": 10.6985422498, 
			 "total_energy": -493.189793145, 
			 "HOMO_LUMO_gap": 0.17827, 
			 "cosmo_polarized_energy": -11.31, 
			 "cosmo_cavitation_energy": 21.36, 
			 "cosmo_dispersion_energy": -16.26, 
			 "cosmo_repulsion_energy": 1.28, 
			 "cosmo_total_nonelectrostatic_energy": 6.37, 
			 "SMD_solvation_energy": 3.59 
		},
		"coords": [
			{
				"x": -1.052205777,
				"y": -0.1297910119,
				"z": -1.4792682854,
				"element": "O" 
			},
			{
				"x": -0.467667379,
				"y": 0.0825499798,
				"z": -0.4229015271,
				"element": "C" 
			},
			{
				"x": 0.9116486589,
				"y": 0.2752310368,
				"z": -0.3955539072,
				"element": "N" 
			},
			{
				"x": 1.7138690847,
				"y": 0.5191843032,
				"z": 0.6687515966,
				"element": "N" 
			},
			{
				"x": 1.1366218633,
				"y": 0.5861626742,
				"z": 1.8295173207,
				"element": "C" 
			},
			{
				"x": -0.2817483429,
				"y": 0.418151583,
				"z": 2.0375951494,
				"element": "C" 
			},
			{
				"x": -1.0923562348,
				"y": 0.1648860338,
				"z": 0.9081181297,
				"element": "C" 
			},
			{
				"x": -2.4760595825,
				"y": -0.0065744115,
				"z": 1.0500848791,
				"element": "C" 
			},
			{
				"x": -3.0524077901,
				"y": 0.0732501802,
				"z": 2.3102673354,
				"element": "C" 
			},
			{
				"x": -2.252895834,
				"y": 0.324896447,
				"z": 3.4395767337,
				"element": "C" 
			},
			{
				"x": -0.8824959984,
				"y": 0.4960652771,
				"z": 3.3092065799,
				"element": "C" 
			},
			{
				"x": 1.387916699,
				"y": 0.228434211,
				"z": -1.2876092405,
				"element": "H" 
			},
			{
				"x": 1.7954832082,
				"y": 0.7824518748,
				"z": 2.6713578918,
				"element": "H" 
			},
			{
				"x": -3.0653122916,
				"y": -0.1993363737,
				"z": 0.1599174722,
				"element": "H" 
			},
			{
				"x": -4.1237871539,
				"y": -0.0586011887,
				"z": 2.4275877629,
				"element": "H" 
			},
			{
				"x": -2.7128455024,
				"y": 0.3856278131,
				"z": 4.4215861354,
				"element": "H" 
			},
			{
				"x": -0.2647576275,
				"y": 0.6905115716,
				"z": 4.1816659735,
				"element": "H" 
			}
		],
		 "valence_orbital": [ 
			{
				"type": "occ",
				"energy": -0.31017,
				"method": "rhf"
			},
			{
				"type": "occ",
				"energy": -0.29302,
				"method": "rhf"
			},
			{
				"type": "occ",
				"energy": -0.27039,
				"method": "rhf"
			},
			{
				"type": "occ",
				"energy": -0.25339,
				"method": "rhf"
			},
			{
				"type": "occ",
				"energy": -0.23415,
				"method": "rhf"
			},
			{
				"type": "unocc",
				"energy": -0.05588,
				"method": "rhf"
			},
			{
				"type": "unocc",
				"energy": -0.04626,
				"method": "rhf"
			},
			{
				"type": "unocc",
				"energy": 0.02653,
				"method": "rhf"
			},
			{
				"type": "unocc",
				"energy": 0.06758,
				"method": "rhf"
			},
			{
				"type": "unocc",
				"energy": 0.08368,
				"method": "rhf"
			}
		],
		"cosmo_sigma_profile": { 
			"-0.025": 0.0,
			"-0.024": 0.0,
			"-0.023": 0.0,
			"-0.022": 0.0,
			"-0.021": 0.0,
			"-0.02": 0.0,
			"-0.019": 0.0,
			"-0.018": 0.0,
			"-0.017": 0.0,
			"-0.016": 0.455175455604,
			"-0.015": 1.04745009359,
			"-0.014": 1.15458515218,
			"-0.013": 0.782475496395,
			"-0.012": 0.904664845113,
			"-0.011": 0.429354616906,
			"-0.01": 0.994169766362,
			"-0.009": 0.882340328723,
			"-0.008": 4.38224072207,
			"-0.007": 8.3595922136,
			"-0.006": 10.4320840382,
			"-0.005": 10.8137147457,
			"-0.004": 8.76163411799,
			"-0.003": 10.3590283262,
			"-0.002": 9.19885280773,
			"-0.001": 13.8629520311,
			"0.0": 13.7995392404,
			"0.001": 14.920011488,
			"0.002": 15.3250149548,
			"0.003": 12.2057098938,
			"0.004": 3.29176287274,
			"0.005": 2.725024152,
			"0.006": 2.73656038065,
			"0.007": 2.98729156608,
			"0.008": 1.78076467209,
			"0.009": 2.29958853103,
			"0.01": 2.37160691213,
			"0.011": 2.32434795666,
			"0.012": 3.43374369176,
			"0.013": 6.82378393506,
			"0.014": 2.14480382627,
			"0.015": 0.0,
			"0.016": 0.0,
			"0.017": 0.0,
			"0.018": 0.0,
			"0.019": 0.0,
			"0.02": 0.0,
			"0.021": 0.0,
			"0.022": 0.0,
			"0.023": 0.0,
			"0.024": 0.0,
			"0.025": 0.0
		}
	}
}
