{
	 "smiles": "O=S1(=O)C2=CC=CC=C2C2=C1C=CC=C2", 
	 "Tm": 507.15, 
	 "num_atms": 23, 
	 "gaussian": { 
		 "optdone": 1, 
		 "sigma_profile": "yes", 
		 "theory": "DFT", 
		 "functional": "B3LYP", 
		 "basiset": "6-31G**", 
		 "properties": { 
			 "R2extent": 3347.3872, 
			 "electric_dipole_moment_norm": 5.49483263985, 
			 "electric_quadrupole_moment_norm": 23.1405154063, 
			 "total_energy": -1010.66537772, 
			 "HOMO_LUMO_gap": 0.17811, 
			 "cosmo_polarized_energy": -15.6, 
			 "cosmo_cavitation_energy": 28.49, 
			 "cosmo_dispersion_energy": -21.41, 
			 "cosmo_repulsion_energy": 1.58, 
			 "cosmo_total_nonelectrostatic_energy": 8.66, 
			 "SMD_solvation_energy": 3.67 
		},
		"coords": [
			{
				"x": 2.1132394316,
				"y": 0.8870262315,
				"z": 0.887532365,
				"element": "O" 
			},
			{
				"x": 1.3603467679,
				"y": 0.8195796977,
				"z": -0.3736466801,
				"element": "S" 
			},
			{
				"x": 2.0981930534,
				"y": 0.765503681,
				"z": -1.6443309935,
				"element": "O" 
			},
			{
				"x": 0.1183522401,
				"y": -0.4805551392,
				"z": -0.3039165228,
				"element": "C" 
			},
			{
				"x": 0.3658250685,
				"y": -1.8431641532,
				"z": -0.2400458308,
				"element": "C" 
			},
			{
				"x": -0.733736973,
				"y": -2.7066175465,
				"z": -0.1921867181,
				"element": "C" 
			},
			{
				"x": -2.0342459755,
				"y": -2.1931247336,
				"z": -0.2091663325,
				"element": "C" 
			},
			{
				"x": -2.2643752999,
				"y": -0.8162890199,
				"z": -0.2737922598,
				"element": "C" 
			},
			{
				"x": -1.1762919942,
				"y": 0.0581562357,
				"z": -0.3220877125,
				"element": "C" 
			},
			{
				"x": -1.1899988953,
				"y": 1.5353454679,
				"z": -0.3927829298,
				"element": "C" 
			},
			{
				"x": 0.0944309774,
				"y": 2.0972047325,
				"z": -0.4273907948,
				"element": "C" 
			},
			{
				"x": 0.3165554265,
				"y": 3.4640328701,
				"z": -0.4942704368,
				"element": "C" 
			},
			{
				"x": -0.7988545792,
				"y": 4.3075957173,
				"z": -0.5280173303,
				"element": "C" 
			},
			{
				"x": -2.0896170855,
				"y": 3.7708418658,
				"z": -0.4945188268,
				"element": "C" 
			},
			{
				"x": -2.2941378211,
				"y": 2.3901057935,
				"z": -0.4271105849,
				"element": "C" 
			},
			{
				"x": 1.3814526993,
				"y": -2.2256263558,
				"z": -0.2276923551,
				"element": "H" 
			},
			{
				"x": -0.5746286073,
				"y": -3.779105716,
				"z": -0.1417140957,
				"element": "H" 
			},
			{
				"x": -2.8798190884,
				"y": -2.8733700913,
				"z": -0.1715907979,
				"element": "H" 
			},
			{
				"x": -3.2807649042,
				"y": -0.4347614287,
				"z": -0.2860952984,
				"element": "H" 
			},
			{
				"x": 1.3249088548,
				"y": 3.8646740774,
				"z": -0.5195429154,
				"element": "H" 
			},
			{
				"x": -0.6596823039,
				"y": 5.3827611902,
				"z": -0.5804056239,
				"element": "H" 
			},
			{
				"x": -2.9476750242,
				"y": 4.4357932594,
				"z": -0.5212387079,
				"element": "H" 
			},
			{
				"x": -3.3032759678,
				"y": 1.9903933643,
				"z": -0.4018886172,
				"element": "H" 
			}
		],
		 "valence_orbital": [ 
			{
				"type": "occ",
				"energy": -0.30367,
				"method": "rhf"
			},
			{
				"type": "occ",
				"energy": -0.28796,
				"method": "rhf"
			},
			{
				"type": "occ",
				"energy": -0.27108,
				"method": "rhf"
			},
			{
				"type": "occ",
				"energy": -0.27052,
				"method": "rhf"
			},
			{
				"type": "occ",
				"energy": -0.2451,
				"method": "rhf"
			},
			{
				"type": "unocc",
				"energy": -0.06699,
				"method": "rhf"
			},
			{
				"type": "unocc",
				"energy": -0.04702,
				"method": "rhf"
			},
			{
				"type": "unocc",
				"energy": -0.02094,
				"method": "rhf"
			},
			{
				"type": "unocc",
				"energy": 0.01393,
				"method": "rhf"
			},
			{
				"type": "unocc",
				"energy": 0.05575,
				"method": "rhf"
			}
		],
		"cosmo_sigma_profile": { 
			"-0.025": 0.0,
			"-0.024": 0.0,
			"-0.023": 0.0,
			"-0.022": 0.0,
			"-0.021": 0.0,
			"-0.02": 0.0,
			"-0.019": 0.0,
			"-0.018": 0.0,
			"-0.017": 0.0,
			"-0.016": 0.0,
			"-0.015": 0.0,
			"-0.014": 0.0,
			"-0.013": 0.0,
			"-0.012": 0.0,
			"-0.011": 0.0,
			"-0.01": 0.0,
			"-0.009": 1.66313343276,
			"-0.008": 8.89968039964,
			"-0.007": 16.7247300595,
			"-0.006": 18.7963076297,
			"-0.005": 15.2313901016,
			"-0.004": 12.2753760486,
			"-0.003": 12.605915162,
			"-0.002": 9.86977953179,
			"-0.001": 13.5640055459,
			"0.0": 15.4077756079,
			"0.001": 19.615561772,
			"0.002": 27.9159002744,
			"0.003": 16.8584134171,
			"0.004": 2.3737593116,
			"0.005": 2.19454737465,
			"0.006": 1.64244545086,
			"0.007": 2.38176487386,
			"0.008": 3.0490305615,
			"0.009": 2.97142348499,
			"0.01": 7.83585968337,
			"0.011": 14.0590438844,
			"0.012": 4.31301335081,
			"0.013": 0.0,
			"0.014": 0.0,
			"0.015": 0.0,
			"0.016": 0.0,
			"0.017": 0.0,
			"0.018": 0.0,
			"0.019": 0.0,
			"0.02": 0.0,
			"0.021": 0.0,
			"0.022": 0.0,
			"0.023": 0.0,
			"0.024": 0.0,
			"0.025": 0.0
		}
	}
}
