{
	 "smiles": "CC1=NN(CC2=CC=C(C=C2)C(O)=O)C(C)=C1", 
	 "Tm": 453.15, 
	 "num_atms": 31, 
	 "gaussian": { 
		 "optdone": 1, 
		 "sigma_profile": "yes", 
		 "theory": "DFT", 
		 "functional": "B3LYP", 
		 "basiset": "6-31G**", 
		 "properties": { 
			 "R2extent": 5802.5278, 
			 "electric_dipole_moment_norm": 3.29617334041, 
			 "electric_quadrupole_moment_norm": 10.0785622144, 
			 "total_energy": -763.788832568, 
			 "HOMO_LUMO_gap": 0.1798, 
			 "cosmo_polarized_energy": -14.09, 
			 "cosmo_cavitation_energy": 35.5, 
			 "cosmo_dispersion_energy": -24.82, 
			 "cosmo_repulsion_energy": 1.94, 
			 "cosmo_total_nonelectrostatic_energy": 12.62, 
			 "SMD_solvation_energy": 6.5 
		},
		"coords": [
			{
				"x": 0.537188905,
				"y": 4.3969590956,
				"z": 0.3696716741,
				"element": "C" 
			},
			{
				"x": 0.6597658275,
				"y": 3.2265367068,
				"z": -0.5585412285,
				"element": "C" 
			},
			{
				"x": 1.4199313235,
				"y": 2.1811359442,
				"z": -0.2296557401,
				"element": "N" 
			},
			{
				"x": 1.3215753234,
				"y": 1.3249614685,
				"z": -1.2827410999,
				"element": "N" 
			},
			{
				"x": 1.975140327,
				"y": 0.0298960829,
				"z": -1.2023455333,
				"element": "C" 
			},
			{
				"x": 1.0699616415,
				"y": -1.0918226346,
				"z": -0.7181881311,
				"element": "C" 
			},
			{
				"x": 1.0965207841,
				"y": -2.3424761313,
				"z": -1.3461492032,
				"element": "C" 
			},
			{
				"x": 0.2968553417,
				"y": -3.387815902,
				"z": -0.8870138562,
				"element": "C" 
			},
			{
				"x": -0.5487975941,
				"y": -3.1866973251,
				"z": 0.2108163524,
				"element": "C" 
			},
			{
				"x": -0.5810587492,
				"y": -1.9338600082,
				"z": 0.8410046844,
				"element": "C" 
			},
			{
				"x": 0.2216029002,
				"y": -0.8962347375,
				"z": 0.3817535,
				"element": "C" 
			},
			{
				"x": -1.4277681297,
				"y": -4.2602260367,
				"z": 0.742693326,
				"element": "C" 
			},
			{
				"x": -1.3165927683,
				"y": -5.4280762441,
				"z": 0.0587254452,
				"element": "O" 
			},
			{
				"x": -2.1798296096,
				"y": -4.1392587845,
				"z": 1.6898030777,
				"element": "O" 
			},
			{
				"x": 0.5006755146,
				"y": 1.8001112813,
				"z": -2.2673726247,
				"element": "C" 
			},
			{
				"x": 0.2149506513,
				"y": 1.0462589528,
				"z": -3.5275350635,
				"element": "C" 
			},
			{
				"x": 0.0618311026,
				"y": 3.03638854,
				"z": -1.8288038537,
				"element": "C" 
			},
			{
				"x": -0.5059171974,
				"y": 4.5751667708,
				"z": 0.6543191808,
				"element": "H" 
			},
			{
				"x": 1.1154550151,
				"y": 4.2125832378,
				"z": 1.2778970204,
				"element": "H" 
			},
			{
				"x": 0.9093909428,
				"y": 5.3176375564,
				"z": -0.0939452439,
				"element": "H" 
			},
			{
				"x": 2.3917177422,
				"y": -0.2218409464,
				"z": -2.1826719075,
				"element": "H" 
			},
			{
				"x": 2.8135534547,
				"y": 0.1637572587,
				"z": -0.512355281,
				"element": "H" 
			},
			{
				"x": 1.7485834593,
				"y": -2.50179423,
				"z": -2.201576019,
				"element": "H" 
			},
			{
				"x": 0.3202598258,
				"y": -4.3539718073,
				"z": -1.3780869823,
				"element": "H" 
			},
			{
				"x": -1.2419029646,
				"y": -1.797647799,
				"z": 1.6904337044,
				"element": "H" 
			},
			{
				"x": 0.2005473791,
				"y": 0.074442713,
				"z": 0.8677673046,
				"element": "H" 
			},
			{
				"x": -1.9287625119,
				"y": -6.044438428,
				"z": 0.4929444805,
				"element": "H" 
			},
			{
				"x": -0.4794653293,
				"y": 1.6155109956,
				"z": -4.1490744492,
				"element": "H" 
			},
			{
				"x": 1.1234106871,
				"y": 0.8736397624,
				"z": -4.1177860045,
				"element": "H" 
			},
			{
				"x": -0.2370680084,
				"y": 0.0685650303,
				"z": -3.3254167087,
				"element": "H" 
			},
			{
				"x": -0.594455286,
				"y": 3.7109096176,
				"z": -2.3603708201,
				"element": "H" 
			}
		],
		 "valence_orbital": [ 
			{
				"type": "occ",
				"energy": -0.27655,
				"method": "rhf"
			},
			{
				"type": "occ",
				"energy": -0.26277,
				"method": "rhf"
			},
			{
				"type": "occ",
				"energy": -0.26052,
				"method": "rhf"
			},
			{
				"type": "occ",
				"energy": -0.23297,
				"method": "rhf"
			},
			{
				"type": "occ",
				"energy": -0.23059,
				"method": "rhf"
			},
			{
				"type": "unocc",
				"energy": -0.05079,
				"method": "rhf"
			},
			{
				"type": "unocc",
				"energy": -0.01285,
				"method": "rhf"
			},
			{
				"type": "unocc",
				"energy": 0.02426,
				"method": "rhf"
			},
			{
				"type": "unocc",
				"energy": 0.05181,
				"method": "rhf"
			},
			{
				"type": "unocc",
				"energy": 0.07346,
				"method": "rhf"
			}
		],
		"cosmo_sigma_profile": { 
			"-0.025": 0.0,
			"-0.024": 0.0,
			"-0.023": 0.0,
			"-0.022": 0.0,
			"-0.021": 0.0,
			"-0.02": 0.0,
			"-0.019": 0.0453326836586,
			"-0.018": 0.586844442002,
			"-0.017": 1.61781446197,
			"-0.016": 0.25426230709,
			"-0.015": 0.402711675732,
			"-0.014": 0.859009355323,
			"-0.013": 0.544692835852,
			"-0.012": 0.934442264008,
			"-0.011": 0.858833580636,
			"-0.01": 0.779106288563,
			"-0.009": 0.35165027511,
			"-0.008": 1.06940275206,
			"-0.007": 6.41175695116,
			"-0.006": 11.8805703161,
			"-0.005": 17.0297934353,
			"-0.004": 21.9594462547,
			"-0.003": 22.2781737014,
			"-0.002": 24.655026003,
			"-0.001": 26.0171712924,
			"0.0": 26.4187109281,
			"0.001": 21.2726583156,
			"0.002": 18.8740694487,
			"0.003": 19.3801160908,
			"0.004": 12.2854397114,
			"0.005": 9.6483235066,
			"0.006": 7.95178440896,
			"0.007": 6.31226587623,
			"0.008": 3.05753630911,
			"0.009": 3.02292478258,
			"0.01": 2.30756735886,
			"0.011": 4.70105162845,
			"0.012": 5.27437755459,
			"0.013": 1.05927421734,
			"0.014": 0.535317166944,
			"0.015": 0.639150785294,
			"0.016": 0.67962226979,
			"0.017": 0.0346351044952,
			"0.018": 0.0,
			"0.019": 0.0,
			"0.02": 0.0,
			"0.021": 0.0,
			"0.022": 0.0,
			"0.023": 0.0,
			"0.024": 0.0,
			"0.025": 0.0
		}
	}
}
