{
	 "smiles": "COC(=O)C(=O)CC(=O)C1=CN=CC=C1", 
	 "Tm": 387.15, 
	 "num_atms": 24, 
	 "gaussian": { 
		 "optdone": 1, 
		 "sigma_profile": "yes", 
		 "theory": "DFT", 
		 "functional": "B3LYP", 
		 "basiset": "6-31G**", 
		 "properties": { 
			 "R2extent": 5204.8916, 
			 "electric_dipole_moment_norm": 3.04354921925, 
			 "electric_quadrupole_moment_norm": 23.6619953973, 
			 "total_energy": -742.111275781, 
			 "HOMO_LUMO_gap": 0.16339, 
			 "cosmo_polarized_energy": -15.18, 
			 "cosmo_cavitation_energy": 30.16, 
			 "cosmo_dispersion_energy": -21.26, 
			 "cosmo_repulsion_energy": 1.67, 
			 "cosmo_total_nonelectrostatic_energy": 10.57, 
			 "SMD_solvation_energy": 6.71 
		},
		"coords": [
			{
				"x": -1.7875106911,
				"y": -4.9524752094,
				"z": 0.5231800914,
				"element": "C" 
			},
			{
				"x": -1.2861358964,
				"y": -3.6012906152,
				"z": 0.5278432103,
				"element": "O" 
			},
			{
				"x": -2.1856868291,
				"y": -2.6623035069,
				"z": 0.8233896565,
				"element": "C" 
			},
			{
				"x": -3.3535076305,
				"y": -2.85776234,
				"z": 1.0830417643,
				"element": "O" 
			},
			{
				"x": -1.5507910932,
				"y": -1.252866562,
				"z": 0.8259366214,
				"element": "C" 
			},
			{
				"x": -0.3488295826,
				"y": -1.1104045057,
				"z": 0.8889828565,
				"element": "O" 
			},
			{
				"x": -2.5430265218,
				"y": -0.1035020446,
				"z": 0.7592334601,
				"element": "C" 
			},
			{
				"x": -2.7521495636,
				"y": 0.37471711,
				"z": -0.6959027645,
				"element": "C" 
			},
			{
				"x": -3.7061618853,
				"y": -0.0377301038,
				"z": -1.3307225693,
				"element": "O" 
			},
			{
				"x": -1.7837053181,
				"y": 1.3462673368,
				"z": -1.2849646575,
				"element": "C" 
			},
			{
				"x": -2.1065047563,
				"y": 1.9325845737,
				"z": -2.5227569836,
				"element": "C" 
			},
			{
				"x": -1.3337140831,
				"y": 2.8184156556,
				"z": -3.1526904669,
				"element": "N" 
			},
			{
				"x": -0.1760829164,
				"y": 3.1503005826,
				"z": -2.5609256829,
				"element": "C" 
			},
			{
				"x": 0.2505731706,
				"y": 2.6234228383,
				"z": -1.3414724883,
				"element": "C" 
			},
			{
				"x": -0.5688635321,
				"y": 1.7072419195,
				"z": -0.686325061,
				"element": "C" 
			},
			{
				"x": -0.9406918491,
				"y": -5.5761695106,
				"z": 0.2408418934,
				"element": "H" 
			},
			{
				"x": -2.1546037572,
				"y": -5.2236032005,
				"z": 1.5159063565,
				"element": "H" 
			},
			{
				"x": -2.6020845503,
				"y": -5.0525511049,
				"z": -0.1979860859,
				"element": "H" 
			},
			{
				"x": -2.161503354,
				"y": 0.711026452,
				"z": 1.3791064593,
				"element": "H" 
			},
			{
				"x": -3.5152415944,
				"y": -0.4410903014,
				"z": 1.1175125465,
				"element": "H" 
			},
			{
				"x": -3.042267098,
				"y": 1.659742042,
				"z": -3.0037272381,
				"element": "H" 
			},
			{
				"x": 0.4409174109,
				"y": 3.8726450763,
				"z": -3.0925712379,
				"element": "H" 
			},
			{
				"x": 1.203807016,
				"y": 2.9227801788,
				"z": -0.9179856073,
				"element": "H" 
			},
			{
				"x": -0.2511350951,
				"y": 1.2568052395,
				"z": 0.247855927,
				"element": "H" 
			}
		],
		 "valence_orbital": [ 
			{
				"type": "occ",
				"energy": -0.30047,
				"method": "rhf"
			},
			{
				"type": "occ",
				"energy": -0.28011,
				"method": "rhf"
			},
			{
				"type": "occ",
				"energy": -0.27443,
				"method": "rhf"
			},
			{
				"type": "occ",
				"energy": -0.26667,
				"method": "rhf"
			},
			{
				"type": "occ",
				"energy": -0.25595,
				"method": "rhf"
			},
			{
				"type": "unocc",
				"energy": -0.09256,
				"method": "rhf"
			},
			{
				"type": "unocc",
				"energy": -0.07009,
				"method": "rhf"
			},
			{
				"type": "unocc",
				"energy": -0.03341,
				"method": "rhf"
			},
			{
				"type": "unocc",
				"energy": 0.01688,
				"method": "rhf"
			},
			{
				"type": "unocc",
				"energy": 0.04738,
				"method": "rhf"
			}
		],
		"cosmo_sigma_profile": { 
			"-0.025": 0.0,
			"-0.024": 0.0,
			"-0.023": 0.0,
			"-0.022": 0.0,
			"-0.021": 0.0,
			"-0.02": 0.0,
			"-0.019": 0.0,
			"-0.018": 0.0,
			"-0.017": 0.0,
			"-0.016": 0.0,
			"-0.015": 0.0,
			"-0.014": 0.0,
			"-0.013": 0.0,
			"-0.012": 0.0,
			"-0.011": 0.0,
			"-0.01": 0.23019877553,
			"-0.009": 2.30334831377,
			"-0.008": 6.65944535327,
			"-0.007": 15.1013643416,
			"-0.006": 21.5207671744,
			"-0.005": 21.159433331,
			"-0.004": 20.4329299712,
			"-0.003": 12.3035780526,
			"-0.002": 12.997865842,
			"-0.001": 14.1800843899,
			"0.0": 18.1649287076,
			"0.001": 16.8852042377,
			"0.002": 8.43905179278,
			"0.003": 7.75481795302,
			"0.004": 6.44638984319,
			"0.005": 5.68616517952,
			"0.006": 6.79264189451,
			"0.007": 7.71980508948,
			"0.008": 7.11565483669,
			"0.009": 8.74446123942,
			"0.01": 10.4069268498,
			"0.011": 6.63252694083,
			"0.012": 1.09973836377,
			"0.013": 0.798091984157,
			"0.014": 1.21464798183,
			"0.015": 0.638182070605,
			"0.016": 0.499139951692,
			"0.017": 0.0,
			"0.018": 0.0,
			"0.019": 0.0,
			"0.02": 0.0,
			"0.021": 0.0,
			"0.022": 0.0,
			"0.023": 0.0,
			"0.024": 0.0,
			"0.025": 0.0
		}
	}
}
