{
	 "smiles": "C[C@H]1CC11C(O)C(=O)C2=C([C@H](O)[C@@H](O)C3C(=C)[C@H](C)CC[C@]23C)C1=O", 
	 "Tm": 467.15, 
	 "num_atms": 51, 
	 "gaussian": { 
		 "optdone": 1, 
		 "sigma_profile": "yes", 
		 "theory": "DFT", 
		 "functional": "B3LYP", 
		 "basiset": "6-31G**", 
		 "properties": { 
			 "R2extent": 8539.9785, 
			 "electric_dipole_moment_norm": 1.83598549559, 
			 "electric_quadrupole_moment_norm": 16.6118501715, 
			 "total_energy": -1153.84196275, 
			 "HOMO_LUMO_gap": 0.14124, 
			 "cosmo_polarized_energy": -18.28, 
			 "cosmo_cavitation_energy": 47.4, 
			 "cosmo_dispersion_energy": -32.14, 
			 "cosmo_repulsion_energy": 2.4, 
			 "cosmo_total_nonelectrostatic_energy": 17.66, 
			 "SMD_solvation_energy": 8.63 
		},
		"coords": [
			{
				"x": 3.8890143284,
				"y": -2.9913559876,
				"z": -0.4645389908,
				"element": "C" 
			},
			{
				"x": 4.169695312,
				"y": -1.5528196615,
				"z": -0.8412069224,
				"element": "C" 
			},
			{
				"x": 4.0410440903,
				"y": -1.0622283669,
				"z": -2.2458592029,
				"element": "C" 
			},
			{
				"x": 3.0488245047,
				"y": -0.5544984567,
				"z": -1.2204173062,
				"element": "C" 
			},
			{
				"x": 3.1772783378,
				"y": 0.8714550297,
				"z": -0.7488636931,
				"element": "C" 
			},
			{
				"x": 2.841350482,
				"y": 1.7313892031,
				"z": -1.8461843702,
				"element": "O" 
			},
			{
				"x": 2.2197014161,
				"y": 1.2314467274,
				"z": 0.3900711158,
				"element": "C" 
			},
			{
				"x": 2.5756515862,
				"y": 2.0580753085,
				"z": 1.2184898348,
				"element": "O" 
			},
			{
				"x": 0.8423197528,
				"y": 0.6414497147,
				"z": 0.373736663,
				"element": "C" 
			},
			{
				"x": 0.6239260778,
				"y": -0.4760384009,
				"z": -0.3676973406,
				"element": "C" 
			},
			{
				"x": -0.7013150564,
				"y": -1.2216036524,
				"z": -0.4018374543,
				"element": "C" 
			},
			{
				"x": -1.3400886753,
				"y": -1.0387662433,
				"z": -1.6612993831,
				"element": "O" 
			},
			{
				"x": -1.6779496318,
				"y": -0.7774152026,
				"z": 0.6931589451,
				"element": "C" 
			},
			{
				"x": -1.3632964315,
				"y": -1.4117000798,
				"z": 1.9330711313,
				"element": "O" 
			},
			{
				"x": -1.6404444955,
				"y": 0.742760591,
				"z": 0.8306767384,
				"element": "C" 
			},
			{
				"x": -2.7256511849,
				"y": 1.3749571793,
				"z": 1.6852989323,
				"element": "C" 
			},
			{
				"x": -3.6068982223,
				"y": 0.67088611,
				"z": 2.4014501374,
				"element": "C" 
			},
			{
				"x": -2.7159615063,
				"y": 2.9105381618,
				"z": 1.6838419222,
				"element": "C" 
			},
			{
				"x": -4.0988796451,
				"y": 3.5164255526,
				"z": 1.3916703816,
				"element": "C" 
			},
			{
				"x": -1.6685336547,
				"y": 3.4451675225,
				"z": 0.6930355296,
				"element": "C" 
			},
			{
				"x": -0.2579152357,
				"y": 2.8635677135,
				"z": 0.9033138718,
				"element": "C" 
			},
			{
				"x": -0.2366747233,
				"y": 1.3166526782,
				"z": 1.2185296535,
				"element": "C" 
			},
			{
				"x": 0.0789944962,
				"y": 1.0948145516,
				"z": 2.7230505981,
				"element": "C" 
			},
			{
				"x": 1.6526600569,
				"y": -1.0674204986,
				"z": -1.2757915414,
				"element": "C" 
			},
			{
				"x": 1.3258468335,
				"y": -1.99102073,
				"z": -2.0249553376,
				"element": "O" 
			},
			{
				"x": 3.0785447866,
				"y": -3.4123627599,
				"z": -1.0632588683,
				"element": "H" 
			},
			{
				"x": 4.7852839248,
				"y": -3.5976947963,
				"z": -0.6353827302,
				"element": "H" 
			},
			{
				"x": 3.6224503022,
				"y": -3.0819160223,
				"z": 0.5942057425,
				"element": "H" 
			},
			{
				"x": 4.9523330565,
				"y": -1.0841726839,
				"z": -0.2460978067,
				"element": "H" 
			},
			{
				"x": 4.7537982332,
				"y": -0.3381819537,
				"z": -2.6278213559,
				"element": "H" 
			},
			{
				"x": 3.6326810518,
				"y": -1.7482886744,
				"z": -2.981330027,
				"element": "H" 
			},
			{
				"x": 4.1959120243,
				"y": 1.07542776,
				"z": -0.3937014142,
				"element": "H" 
			},
			{
				"x": 3.0001159239,
				"y": 2.6418935024,
				"z": -1.5585304522,
				"element": "H" 
			},
			{
				"x": -0.4805948127,
				"y": -2.2895509814,
				"z": -0.2462674847,
				"element": "H" 
			},
			{
				"x": -0.7468859358,
				"y": -1.4472762992,
				"z": -2.3105359682,
				"element": "H" 
			},
			{
				"x": -2.6819117017,
				"y": -1.0690072716,
				"z": 0.3540496522,
				"element": "H" 
			},
			{
				"x": -1.5007419045,
				"y": -2.3613029011,
				"z": 1.8206176593,
				"element": "H" 
			},
			{
				"x": -1.8190788722,
				"y": 1.0737034932,
				"z": -0.203550932,
				"element": "H" 
			},
			{
				"x": -3.5695312334,
				"y": -0.4103867836,
				"z": 2.4565183041,
				"element": "H" 
			},
			{
				"x": -4.3782031984,
				"y": 1.1597111508,
				"z": 2.9901894862,
				"element": "H" 
			},
			{
				"x": -2.4141076517,
				"y": 3.239190213,
				"z": 2.6900110751,
				"element": "H" 
			},
			{
				"x": -4.0540984316,
				"y": 4.6110348716,
				"z": 1.4169924221,
				"element": "H" 
			},
			{
				"x": -4.4532522133,
				"y": 3.2145378716,
				"z": 0.3998487343,
				"element": "H" 
			},
			{
				"x": -4.8466121188,
				"y": 3.197463684,
				"z": 2.1226466431,
				"element": "H" 
			},
			{
				"x": -2.0113851654,
				"y": 3.2380468139,
				"z": -0.329221108,
				"element": "H" 
			},
			{
				"x": -1.6165037141,
				"y": 4.5375149374,
				"z": 0.771404295,
				"element": "H" 
			},
			{
				"x": 0.2443635457,
				"y": 3.3881028803,
				"z": 1.7206346863,
				"element": "H" 
			},
			{
				"x": 0.3302169573,
				"y": 3.0747317264,
				"z": 0.0037027501,
				"element": "H" 
			},
			{
				"x": -0.7089126913,
				"y": 1.5380192359,
				"z": 3.338225542,
				"element": "H" 
			},
			{
				"x": 0.1219286738,
				"y": 0.0317205698,
				"z": 2.9605267019,
				"element": "H" 
			},
			{
				"x": 1.0281923529,
				"y": 1.5689236537,
				"z": 2.9756805407,
				"element": "H" 
			}
		],
		 "valence_orbital": [ 
			{
				"type": "occ",
				"energy": -0.27502,
				"method": "rhf"
			},
			{
				"type": "occ",
				"energy": -0.26894,
				"method": "rhf"
			},
			{
				"type": "occ",
				"energy": -0.26313,
				"method": "rhf"
			},
			{
				"type": "occ",
				"energy": -0.24316,
				"method": "rhf"
			},
			{
				"type": "occ",
				"energy": -0.23337,
				"method": "rhf"
			},
			{
				"type": "unocc",
				"energy": -0.09213,
				"method": "rhf"
			},
			{
				"type": "unocc",
				"energy": -0.02305,
				"method": "rhf"
			},
			{
				"type": "unocc",
				"energy": 0.02466,
				"method": "rhf"
			},
			{
				"type": "unocc",
				"energy": 0.05376,
				"method": "rhf"
			},
			{
				"type": "unocc",
				"energy": 0.065,
				"method": "rhf"
			}
		],
		"cosmo_sigma_profile": { 
			"-0.025": 0.0,
			"-0.024": 0.0,
			"-0.023": 0.0,
			"-0.022": 0.0,
			"-0.021": 0.0,
			"-0.02": 0.0,
			"-0.019": 0.0,
			"-0.018": 0.0,
			"-0.017": 0.141912731567,
			"-0.016": 1.26589913899,
			"-0.015": 1.80093746583,
			"-0.014": 2.42240881833,
			"-0.013": 1.21707602353,
			"-0.012": 1.43404325063,
			"-0.011": 3.57510829831,
			"-0.01": 1.83980058469,
			"-0.009": 2.27443287399,
			"-0.008": 3.39382065827,
			"-0.007": 6.55347145196,
			"-0.006": 8.89804933008,
			"-0.005": 11.1309705336,
			"-0.004": 20.7080458038,
			"-0.003": 33.9771261129,
			"-0.002": 42.1217679204,
			"-0.001": 43.3742350088,
			"0.0": 37.6056072172,
			"0.001": 34.0837337462,
			"0.002": 20.7951516519,
			"0.003": 13.2582835276,
			"0.004": 11.416806594,
			"0.005": 10.4374348995,
			"0.006": 11.2493106882,
			"0.007": 7.9800591249,
			"0.008": 6.89431947218,
			"0.009": 5.78645522642,
			"0.01": 7.3194586441,
			"0.011": 7.88736441721,
			"0.012": 5.21359447445,
			"0.013": 1.66067284404,
			"0.014": 0.185554905621,
			"0.015": 0.0,
			"0.016": 0.0,
			"0.017": 0.0,
			"0.018": 0.0,
			"0.019": 0.0,
			"0.02": 0.0,
			"0.021": 0.0,
			"0.022": 0.0,
			"0.023": 0.0,
			"0.024": 0.0,
			"0.025": 0.0
		}
	}
}
