{
	 "smiles": "CCN(CC)C(=O)CCC(O)=O", 
	 "Tm": 348.15, 
	 "num_atms": 27, 
	 "gaussian": { 
		 "optdone": 1, 
		 "sigma_profile": "yes", 
		 "theory": "DFT", 
		 "functional": "B3LYP", 
		 "basiset": "6-31G**", 
		 "properties": { 
			 "R2extent": 3287.8634, 
			 "electric_dipole_moment_norm": 3.16303352812, 
			 "electric_quadrupole_moment_norm": 9.01744303725, 
			 "total_energy": -594.356507977, 
			 "HOMO_LUMO_gap": 0.25764, 
			 "cosmo_polarized_energy": -15.59, 
			 "cosmo_cavitation_energy": 29.6, 
			 "cosmo_dispersion_energy": -20.67, 
			 "cosmo_repulsion_energy": 1.69, 
			 "cosmo_total_nonelectrostatic_energy": 10.61, 
			 "SMD_solvation_energy": 6.4 
		},
		"coords": [
			{
				"x": 1.9172103656,
				"y": -0.3118914059,
				"z": -2.3050769982,
				"element": "C" 
			},
			{
				"x": 1.4157398511,
				"y": 0.5075388776,
				"z": -1.1119004485,
				"element": "C" 
			},
			{
				"x": 1.3583304113,
				"y": -0.2413872729,
				"z": 0.1529814808,
				"element": "N" 
			},
			{
				"x": 2.4018376275,
				"y": -0.0063386988,
				"z": 1.1504244241,
				"element": "C" 
			},
			{
				"x": 3.7293562101,
				"y": -0.7155346943,
				"z": 0.8548538882,
				"element": "C" 
			},
			{
				"x": 0.3039921073,
				"y": -1.1008856671,
				"z": 0.3199968781,
				"element": "C" 
			},
			{
				"x": -0.5446736618,
				"y": -1.2492961272,
				"z": -0.5593573109,
				"element": "O" 
			},
			{
				"x": 0.2024318352,
				"y": -1.8829068441,
				"z": 1.634543806,
				"element": "C" 
			},
			{
				"x": -1.0221865517,
				"y": -2.7940452152,
				"z": 1.6221223148,
				"element": "C" 
			},
			{
				"x": -2.307322207,
				"y": -1.9996030735,
				"z": 1.7238786782,
				"element": "C" 
			},
			{
				"x": -3.3697216912,
				"y": -2.6988279109,
				"z": 1.265286425,
				"element": "O" 
			},
			{
				"x": -2.4119504296,
				"y": -0.8908280856,
				"z": 2.2031326647,
				"element": "O" 
			},
			{
				"x": 1.2513856734,
				"y": -1.1596378252,
				"z": -2.4794434227,
				"element": "H" 
			},
			{
				"x": 2.9320721856,
				"y": -0.6879312704,
				"z": -2.143247936,
				"element": "H" 
			},
			{
				"x": 1.9252122356,
				"y": 0.3089615688,
				"z": -3.2075932344,
				"element": "H" 
			},
			{
				"x": 2.0608957336,
				"y": 1.3762912978,
				"z": -0.9440670619,
				"element": "H" 
			},
			{
				"x": 0.4074599478,
				"y": 0.8725230631,
				"z": -1.3266198334,
				"element": "H" 
			},
			{
				"x": 2.0320099223,
				"y": -0.312935069,
				"z": 2.1299818131,
				"element": "H" 
			},
			{
				"x": 2.5696556884,
				"y": 1.0760870908,
				"z": 1.2141321075,
				"element": "H" 
			},
			{
				"x": 3.5901360502,
				"y": -1.7993584888,
				"z": 0.7904943109,
				"element": "H" 
			},
			{
				"x": 4.163502627,
				"y": -0.3747932437,
				"z": -0.0895407677,
				"element": "H" 
			},
			{
				"x": 4.4533342649,
				"y": -0.5091593909,
				"z": 1.6505160122,
				"element": "H" 
			},
			{
				"x": 0.1168726493,
				"y": -1.1843390188,
				"z": 2.4735842024,
				"element": "H" 
			},
			{
				"x": 1.1115699914,
				"y": -2.4743089284,
				"z": 1.7926015506,
				"element": "H" 
			},
			{
				"x": -0.9935338195,
				"y": -3.473598176,
				"z": 2.4835667875,
				"element": "H" 
			},
			{
				"x": -1.0571456288,
				"y": -3.4063087379,
				"z": 0.7195233168,
				"element": "H" 
			},
			{
				"x": -4.1426713883,
				"y": -2.1225867532,
				"z": 1.3885263529,
				"element": "H" 
			}
		],
		 "valence_orbital": [ 
			{
				"type": "occ",
				"energy": -0.33344,
				"method": "rhf"
			},
			{
				"type": "occ",
				"energy": -0.30757,
				"method": "rhf"
			},
			{
				"type": "occ",
				"energy": -0.26688,
				"method": "rhf"
			},
			{
				"type": "occ",
				"energy": -0.24473,
				"method": "rhf"
			},
			{
				"type": "occ",
				"energy": -0.23554,
				"method": "rhf"
			},
			{
				"type": "unocc",
				"energy": 0.0221,
				"method": "rhf"
			},
			{
				"type": "unocc",
				"energy": 0.03085,
				"method": "rhf"
			},
			{
				"type": "unocc",
				"energy": 0.07767,
				"method": "rhf"
			},
			{
				"type": "unocc",
				"energy": 0.08749,
				"method": "rhf"
			},
			{
				"type": "unocc",
				"energy": 0.1031,
				"method": "rhf"
			}
		],
		"cosmo_sigma_profile": { 
			"-0.025": 0.0,
			"-0.024": 0.0,
			"-0.023": 0.0,
			"-0.022": 0.0,
			"-0.021": 0.0,
			"-0.02": 0.0,
			"-0.019": 0.0,
			"-0.018": 0.392777093569,
			"-0.017": 0.742766359273,
			"-0.016": 1.29379502582,
			"-0.015": 0.695931482972,
			"-0.014": 0.602737774657,
			"-0.013": 0.971734924819,
			"-0.012": 0.446197252483,
			"-0.011": 0.636622736687,
			"-0.01": 1.0298806607,
			"-0.009": 0.64326977052,
			"-0.008": 0.4148416662,
			"-0.007": 2.49406266448,
			"-0.006": 7.40662243775,
			"-0.005": 16.7876146297,
			"-0.004": 22.1265624684,
			"-0.003": 27.7259260622,
			"-0.002": 27.1216208345,
			"-0.001": 19.5532587347,
			"0.0": 18.8811871477,
			"0.001": 16.5346138802,
			"0.002": 9.23071862629,
			"0.003": 5.10852015919,
			"0.004": 3.56866108274,
			"0.005": 4.17716324723,
			"0.006": 4.46904330466,
			"0.007": 4.21810911608,
			"0.008": 6.12164557882,
			"0.009": 5.46948029081,
			"0.01": 4.71814832867,
			"0.011": 4.32763147025,
			"0.012": 6.3305208054,
			"0.013": 2.87297121413,
			"0.014": 2.80116133306,
			"0.015": 0.36844144234,
			"0.016": 0.0,
			"0.017": 0.0,
			"0.018": 0.0,
			"0.019": 0.0,
			"0.02": 0.0,
			"0.021": 0.0,
			"0.022": 0.0,
			"0.023": 0.0,
			"0.024": 0.0,
			"0.025": 0.0
		}
	}
}
