{
	 "smiles": "COP(=O)(OC)OC(C)=CC(=O)OC(C)C1=CC=CC=C1", 
	 "Tm": 298.15, 
	 "num_atms": 40, 
	 "gaussian": { 
		 "optdone": 1, 
		 "sigma_profile": "yes", 
		 "theory": "DFT", 
		 "functional": "B3LYP", 
		 "basiset": "6-31G**", 
		 "properties": { 
			 "R2extent": 10997.7721, 
			 "electric_dipole_moment_norm": 4.27585560561, 
			 "electric_quadrupole_moment_norm": 20.2198365204, 
			 "total_energy": -1337.70898228, 
			 "HOMO_LUMO_gap": 0.20646, 
			 "cosmo_polarized_energy": -16.69, 
			 "cosmo_cavitation_energy": 46.39, 
			 "cosmo_dispersion_energy": -31.61, 
			 "cosmo_repulsion_energy": 2.46, 
			 "cosmo_total_nonelectrostatic_energy": 17.24, 
			 "SMD_solvation_energy": 12.17 
		},
		"coords": [
			{
				"x": 0.5567150183,
				"y": -5.9158269044,
				"z": 0.4088087544,
				"element": "C" 
			},
			{
				"x": 0.7654252809,
				"y": -5.3913316287,
				"z": -0.9182514812,
				"element": "O" 
			},
			{
				"x": -0.3034053021,
				"y": -4.3625006999,
				"z": -1.525618391,
				"element": "P" 
			},
			{
				"x": -1.7293163456,
				"y": -4.7304869171,
				"z": -1.4816262207,
				"element": "O" 
			},
			{
				"x": 0.2692508764,
				"y": -4.1161098886,
				"z": -2.9954237051,
				"element": "O" 
			},
			{
				"x": 1.6588002483,
				"y": -3.8113358293,
				"z": -3.2292039382,
				"element": "C" 
			},
			{
				"x": 0.1084782124,
				"y": -3.0267820064,
				"z": -0.6641904326,
				"element": "O" 
			},
			{
				"x": -0.5962950536,
				"y": -1.8328045478,
				"z": -0.5939206879,
				"element": "C" 
			},
			{
				"x": -1.5904236557,
				"y": -1.5516668897,
				"z": -1.6729715235,
				"element": "C" 
			},
			{
				"x": -0.256831155,
				"y": -1.0471769064,
				"z": 0.4471655178,
				"element": "C" 
			},
			{
				"x": -0.8106268592,
				"y": 0.287191695,
				"z": 0.7188863623,
				"element": "C" 
			},
			{
				"x": -1.6457028623,
				"y": 0.89741687,
				"z": 0.0737908538,
				"element": "O" 
			},
			{
				"x": -0.2465136035,
				"y": 0.7818193027,
				"z": 1.856435721,
				"element": "O" 
			},
			{
				"x": -0.6544809818,
				"y": 2.1148503721,
				"z": 2.2617347799,
				"element": "C" 
			},
			{
				"x": -0.5253356872,
				"y": 2.1468475789,
				"z": 3.7831358446,
				"element": "C" 
			},
			{
				"x": 0.1983339255,
				"y": 3.1655100983,
				"z": 1.5740505671,
				"element": "C" 
			},
			{
				"x": -0.3906192671,
				"y": 4.3315836277,
				"z": 1.0743411852,
				"element": "C" 
			},
			{
				"x": 0.3917372501,
				"y": 5.3293149519,
				"z": 0.4900422264,
				"element": "C" 
			},
			{
				"x": 1.774046937,
				"y": 5.1654847483,
				"z": 0.3909455341,
				"element": "C" 
			},
			{
				"x": 2.3688782035,
				"y": 3.9993376298,
				"z": 0.878729807,
				"element": "C" 
			},
			{
				"x": 1.5863777637,
				"y": 3.0072054081,
				"z": 1.4690027751,
				"element": "C" 
			},
			{
				"x": 1.2936689219,
				"y": -6.7076055965,
				"z": 0.5454180505,
				"element": "H" 
			},
			{
				"x": 0.714232838,
				"y": -5.1295540176,
				"z": 1.1527534887,
				"element": "H" 
			},
			{
				"x": -0.4524466199,
				"y": -6.3246394212,
				"z": 0.5027635702,
				"element": "H" 
			},
			{
				"x": 1.7522590871,
				"y": -3.6297475979,
				"z": -4.30014266,
				"element": "H" 
			},
			{
				"x": 1.9568098736,
				"y": -2.9171452096,
				"z": -2.6743896348,
				"element": "H" 
			},
			{
				"x": 2.2857639562,
				"y": -4.656428756,
				"z": -2.9361688469,
				"element": "H" 
			},
			{
				"x": -1.1090726824,
				"y": -1.6304854122,
				"z": -2.6545877582,
				"element": "H" 
			},
			{
				"x": -2.3902565838,
				"y": -2.2987679087,
				"z": -1.6464428152,
				"element": "H" 
			},
			{
				"x": -2.0029194228,
				"y": -0.553558921,
				"z": -1.5407058503,
				"element": "H" 
			},
			{
				"x": 0.4884848059,
				"y": -1.4099343515,
				"z": 1.1452607114,
				"element": "H" 
			},
			{
				"x": -1.6970334989,
				"y": 2.251752812,
				"z": 1.9634499483,
				"element": "H" 
			},
			{
				"x": -0.8345038123,
				"y": 3.1249146855,
				"z": 4.162828637,
				"element": "H" 
			},
			{
				"x": 0.510872394,
				"y": 1.9738720494,
				"z": 4.0883550471,
				"element": "H" 
			},
			{
				"x": -1.1569112026,
				"y": 1.377487692,
				"z": 4.2368906616,
				"element": "H" 
			},
			{
				"x": -1.4689707339,
				"y": 4.455361365,
				"z": 1.135167652,
				"element": "H" 
			},
			{
				"x": -0.080119148,
				"y": 6.2283364585,
				"z": 0.1036604659,
				"element": "H" 
			},
			{
				"x": 2.3838801929,
				"y": 5.9381456953,
				"z": -0.068560983,
				"element": "H" 
			},
			{
				"x": 3.4438299401,
				"y": 3.8626752623,
				"z": 0.7987491519,
				"element": "H" 
			},
			{
				"x": 2.0485387516,
				"y": 2.0964811076,
				"z": 1.8387376155,
				"element": "H" 
			}
		],
		 "valence_orbital": [ 
			{
				"type": "occ",
				"energy": -0.29314,
				"method": "rhf"
			},
			{
				"type": "occ",
				"energy": -0.26693,
				"method": "rhf"
			},
			{
				"type": "occ",
				"energy": -0.25107,
				"method": "rhf"
			},
			{
				"type": "occ",
				"energy": -0.24811,
				"method": "rhf"
			},
			{
				"type": "occ",
				"energy": -0.24232,
				"method": "rhf"
			},
			{
				"type": "unocc",
				"energy": -0.03586,
				"method": "rhf"
			},
			{
				"type": "unocc",
				"energy": -0.00259,
				"method": "rhf"
			},
			{
				"type": "unocc",
				"energy": 0.00074,
				"method": "rhf"
			},
			{
				"type": "unocc",
				"energy": 0.04808,
				"method": "rhf"
			},
			{
				"type": "unocc",
				"energy": 0.08459,
				"method": "rhf"
			}
		],
		"cosmo_sigma_profile": { 
			"-0.025": 0.0,
			"-0.024": 0.0,
			"-0.023": 0.0,
			"-0.022": 0.0,
			"-0.021": 0.0,
			"-0.02": 0.0,
			"-0.019": 0.0,
			"-0.018": 0.0,
			"-0.017": 0.0,
			"-0.016": 0.0,
			"-0.015": 0.0,
			"-0.014": 0.0,
			"-0.013": 0.0,
			"-0.012": 0.0,
			"-0.011": 0.0,
			"-0.01": 0.0,
			"-0.009": 0.0,
			"-0.008": 0.206873742632,
			"-0.007": 5.5415263007,
			"-0.006": 19.9198485013,
			"-0.005": 31.7321096406,
			"-0.004": 42.0382389346,
			"-0.003": 34.1449415989,
			"-0.002": 27.6890206413,
			"-0.001": 33.8780791305,
			"0.0": 28.4994771541,
			"0.001": 25.8419598637,
			"0.002": 20.3555839044,
			"0.003": 16.2586365691,
			"0.004": 16.3016260416,
			"0.005": 15.0674068463,
			"0.006": 14.0303190404,
			"0.007": 6.73070246843,
			"0.008": 4.95345602172,
			"0.009": 3.60679372634,
			"0.01": 3.40036842236,
			"0.011": 4.61912350883,
			"0.012": 4.34752044572,
			"0.013": 4.93604686533,
			"0.014": 1.5273098561,
			"0.015": 0.0,
			"0.016": 0.0,
			"0.017": 0.0,
			"0.018": 0.0,
			"0.019": 0.0,
			"0.02": 0.0,
			"0.021": 0.0,
			"0.022": 0.0,
			"0.023": 0.0,
			"0.024": 0.0,
			"0.025": 0.0
		}
	}
}
