{
	 "smiles": "ClC1=CC2=C(NC=C2CC#N)C=C1", 
	 "Tm": 378.15, 
	 "num_atms": 20, 
	 "gaussian": { 
		 "optdone": 1, 
		 "sigma_profile": "yes", 
		 "theory": "DFT", 
		 "functional": "B3LYP", 
		 "basiset": "6-31G**", 
		 "properties": { 
			 "R2extent": 3460.1081, 
			 "electric_dipole_moment_norm": 6.75553179402, 
			 "electric_quadrupole_moment_norm": 13.7654551498, 
			 "total_energy": -954.964865126, 
			 "HOMO_LUMO_gap": 0.1928, 
			 "cosmo_polarized_energy": -17.09, 
			 "cosmo_cavitation_energy": 27.36, 
			 "cosmo_dispersion_energy": -19.42, 
			 "cosmo_repulsion_energy": 1.55, 
			 "cosmo_total_nonelectrostatic_energy": 9.49, 
			 "SMD_solvation_energy": 5.59 
		},
		"coords": [
			{
				"x": 3.564694541,
				"y": 0.5336467228,
				"z": 2.3216491049,
				"element": "Cl" 
			},
			{
				"x": 1.9844372639,
				"y": 0.5642894322,
				"z": 1.5427129886,
				"element": "C" 
			},
			{
				"x": 1.9060123378,
				"y": 0.8268172344,
				"z": 0.1835888265,
				"element": "C" 
			},
			{
				"x": 0.6318932073,
				"y": 0.8481444029,
				"z": -0.4098799603,
				"element": "C" 
			},
			{
				"x": -0.5146524029,
				"y": 0.5960240486,
				"z": 0.3912201743,
				"element": "C" 
			},
			{
				"x": -1.617808069,
				"y": 0.6761553753,
				"z": -0.4350956796,
				"element": "N" 
			},
			{
				"x": -1.204605592,
				"y": 0.9699579997,
				"z": -1.7176539288,
				"element": "C" 
			},
			{
				"x": 0.1623715793,
				"y": 1.0873237056,
				"z": -1.7508342697,
				"element": "C" 
			},
			{
				"x": 0.9956196205,
				"y": 1.4212831097,
				"z": -2.9603603424,
				"element": "C" 
			},
			{
				"x": 1.845007275,
				"y": 0.3082344056,
				"z": -3.4152453196,
				"element": "C" 
			},
			{
				"x": 2.5164268575,
				"y": -0.5695413236,
				"z": -3.7695857291,
				"element": "N" 
			},
			{
				"x": -0.4204267548,
				"y": 0.3297807268,
				"z": 1.7605127878,
				"element": "C" 
			},
			{
				"x": 0.8448102861,
				"y": 0.3171138418,
				"z": 2.3332712603,
				"element": "C" 
			},
			{
				"x": 2.8060391332,
				"y": 0.9989373931,
				"z": -0.3962196136,
				"element": "H" 
			},
			{
				"x": -2.5740243367,
				"y": 0.543644584,
				"z": -0.1491470181,
				"element": "H" 
			},
			{
				"x": -1.9229971044,
				"y": 1.0756650344,
				"z": -2.5186410665,
				"element": "H" 
			},
			{
				"x": 1.6508752905,
				"y": 2.2791093143,
				"z": -2.7588273889,
				"element": "H" 
			},
			{
				"x": 0.3492308805,
				"y": 1.7157082556,
				"z": -3.7947360391,
				"element": "H" 
			},
			{
				"x": -1.3021918465,
				"y": 0.1379369181,
				"z": 2.3645774579,
				"element": "H" 
			},
			{
				"x": 0.9655878336,
				"y": 0.1151688187,
				"z": 3.3912937551,
				"element": "H" 
			}
		],
		 "valence_orbital": [ 
			{
				"type": "occ",
				"energy": -0.31437,
				"method": "rhf"
			},
			{
				"type": "occ",
				"energy": -0.30678,
				"method": "rhf"
			},
			{
				"type": "occ",
				"energy": -0.29137,
				"method": "rhf"
			},
			{
				"type": "occ",
				"energy": -0.23142,
				"method": "rhf"
			},
			{
				"type": "occ",
				"energy": -0.22215,
				"method": "rhf"
			},
			{
				"type": "unocc",
				"energy": -0.02935,
				"method": "rhf"
			},
			{
				"type": "unocc",
				"energy": 0.00698,
				"method": "rhf"
			},
			{
				"type": "unocc",
				"energy": 0.0282,
				"method": "rhf"
			},
			{
				"type": "unocc",
				"energy": 0.03431,
				"method": "rhf"
			},
			{
				"type": "unocc",
				"energy": 0.04081,
				"method": "rhf"
			}
		],
		"cosmo_sigma_profile": { 
			"-0.025": 0.0,
			"-0.024": 0.0,
			"-0.023": 0.0,
			"-0.022": 0.0,
			"-0.021": 0.0,
			"-0.02": 0.0,
			"-0.019": 0.0,
			"-0.018": 0.0,
			"-0.017": 0.122945227236,
			"-0.016": 1.36917810948,
			"-0.015": 1.83643286904,
			"-0.014": 0.810657835814,
			"-0.013": 1.67142516923,
			"-0.012": 1.05232978441,
			"-0.011": 1.48194176143,
			"-0.01": 1.41581479081,
			"-0.009": 5.01145353348,
			"-0.008": 10.8028908527,
			"-0.007": 12.0198101596,
			"-0.006": 10.9279296654,
			"-0.005": 10.9014804981,
			"-0.004": 9.48735406049,
			"-0.003": 6.90396163008,
			"-0.002": 7.83577591508,
			"-0.001": 9.50309147213,
			"0.0": 9.54031327848,
			"0.001": 11.8146791086,
			"0.002": 14.9799074288,
			"0.003": 23.5777517088,
			"0.004": 26.5949462719,
			"0.005": 16.9022056988,
			"0.006": 5.72911229255,
			"0.007": 2.30765793603,
			"0.008": 3.17487780397,
			"0.009": 3.63199186931,
			"0.01": 3.36722903285,
			"0.011": 2.94704652054,
			"0.012": 2.61004807289,
			"0.013": 2.04901253086,
			"0.014": 0.470453981139,
			"0.015": 0.0,
			"0.016": 0.0,
			"0.017": 0.0,
			"0.018": 0.0,
			"0.019": 0.0,
			"0.02": 0.0,
			"0.021": 0.0,
			"0.022": 0.0,
			"0.023": 0.0,
			"0.024": 0.0,
			"0.025": 0.0
		}
	}
}
