{
	 "smiles": "COC1=CC=C(C=C1)C1=C2C=CC=CC2=C(Cl)N=N1", 
	 "Tm": 422.15, 
	 "num_atms": 30, 
	 "gaussian": { 
		 "optdone": 1, 
		 "sigma_profile": "yes", 
		 "theory": "DFT", 
		 "functional": "B3LYP", 
		 "basiset": "6-31G**", 
		 "properties": { 
			 "R2extent": 8652.837, 
			 "electric_dipole_moment_norm": 5.1790517105, 
			 "electric_quadrupole_moment_norm": 32.6944415377, 
			 "total_energy": -1223.10671698, 
			 "HOMO_LUMO_gap": 0.14996, 
			 "cosmo_polarized_energy": -14.38, 
			 "cosmo_cavitation_energy": 35.91, 
			 "cosmo_dispersion_energy": -26.62, 
			 "cosmo_repulsion_energy": 2.02, 
			 "cosmo_total_nonelectrostatic_energy": 11.31, 
			 "SMD_solvation_energy": 4.61 
		},
		"coords": [
			{
				"x": 3.2447425101,
				"y": 2.572643381,
				"z": -2.0180226318,
				"element": "C" 
			},
			{
				"x": 2.0159273827,
				"y": 1.9209527539,
				"z": -2.3058914387,
				"element": "O" 
			},
			{
				"x": 1.4409527204,
				"y": 1.1638628035,
				"z": -1.3315170937,
				"element": "C" 
			},
			{
				"x": 0.2444060709,
				"y": 0.521613785,
				"z": -1.6850142824,
				"element": "C" 
			},
			{
				"x": -0.4254064079,
				"y": -0.2656587508,
				"z": -0.7589244638,
				"element": "C" 
			},
			{
				"x": 0.0751649267,
				"y": -0.4375918098,
				"z": 0.5457322829,
				"element": "C" 
			},
			{
				"x": 1.2842415332,
				"y": 0.1900778099,
				"z": 0.8748043468,
				"element": "C" 
			},
			{
				"x": 1.962512964,
				"y": 0.9907860402,
				"z": -0.0422649537,
				"element": "C" 
			},
			{
				"x": -0.5864537934,
				"y": -1.3156746103,
				"z": 1.5435008553,
				"element": "C" 
			},
			{
				"x": -2.0102582327,
				"y": -1.3151067563,
				"z": 1.774343546,
				"element": "C" 
			},
			{
				"x": -2.9191641156,
				"y": -0.3997947234,
				"z": 1.1866080956,
				"element": "C" 
			},
			{
				"x": -4.2689135452,
				"y": -0.4797311193,
				"z": 1.4629688692,
				"element": "C" 
			},
			{
				"x": -4.765443387,
				"y": -1.4692816412,
				"z": 2.33866286,
				"element": "C" 
			},
			{
				"x": -3.9028298364,
				"y": -2.3511661851,
				"z": 2.9554771586,
				"element": "C" 
			},
			{
				"x": -2.5147025474,
				"y": -2.2779721863,
				"z": 2.6952440565,
				"element": "C" 
			},
			{
				"x": -1.5204142295,
				"y": -3.082856434,
				"z": 3.3313577868,
				"element": "C" 
			},
			{
				"x": -2.0155790802,
				"y": -4.3086434271,
				"z": 4.4952762386,
				"element": "Cl" 
			},
			{
				"x": -0.2374996799,
				"y": -2.9753434659,
				"z": 3.1459457663,
				"element": "N" 
			},
			{
				"x": 0.2378478727,
				"y": -2.0975817539,
				"z": 2.224492412,
				"element": "N" 
			},
			{
				"x": 4.0338457257,
				"y": 1.8533903031,
				"z": -1.7653944633,
				"element": "H" 
			},
			{
				"x": 3.5223153683,
				"y": 3.1056918913,
				"z": -2.9284269241,
				"element": "H" 
			},
			{
				"x": 3.1379488176,
				"y": 3.2925403638,
				"z": -1.1967013964,
				"element": "H" 
			},
			{
				"x": -0.1311300346,
				"y": 0.6449084832,
				"z": -2.6953878434,
				"element": "H" 
			},
			{
				"x": -1.3302357191,
				"y": -0.7814375786,
				"z": -1.064637546,
				"element": "H" 
			},
			{
				"x": 1.6957461002,
				"y": 0.0404687827,
				"z": 1.8670524059,
				"element": "H" 
			},
			{
				"x": 2.8887107624,
				"y": 1.4682874374,
				"z": 0.2542815048,
				"element": "H" 
			},
			{
				"x": -2.5431819835,
				"y": 0.3758377513,
				"z": 0.5310508128,
				"element": "H" 
			},
			{
				"x": -4.9547861496,
				"y": 0.2295104707,
				"z": 1.0093639768,
				"element": "H" 
			},
			{
				"x": -5.8307921338,
				"y": -1.5240662844,
				"z": 2.5412072708,
				"element": "H" 
			},
			{
				"x": -4.272071879,
				"y": -3.0960653306,
				"z": 3.6502127912,
				"element": "H" 
			}
		],
		 "valence_orbital": [ 
			{
				"type": "occ",
				"energy": -0.2837,
				"method": "rhf"
			},
			{
				"type": "occ",
				"energy": -0.26077,
				"method": "rhf"
			},
			{
				"type": "occ",
				"energy": -0.25428,
				"method": "rhf"
			},
			{
				"type": "occ",
				"energy": -0.23751,
				"method": "rhf"
			},
			{
				"type": "occ",
				"energy": -0.22005,
				"method": "rhf"
			},
			{
				"type": "unocc",
				"energy": -0.07009,
				"method": "rhf"
			},
			{
				"type": "unocc",
				"energy": -0.0503,
				"method": "rhf"
			},
			{
				"type": "unocc",
				"energy": -0.01249,
				"method": "rhf"
			},
			{
				"type": "unocc",
				"energy": -0.00924,
				"method": "rhf"
			},
			{
				"type": "unocc",
				"energy": 0.02832,
				"method": "rhf"
			}
		],
		"cosmo_sigma_profile": { 
			"-0.025": 0.0,
			"-0.024": 0.0,
			"-0.023": 0.0,
			"-0.022": 0.0,
			"-0.021": 0.0,
			"-0.02": 0.0,
			"-0.019": 0.0,
			"-0.018": 0.0,
			"-0.017": 0.0,
			"-0.016": 0.0,
			"-0.015": 0.0,
			"-0.014": 0.0,
			"-0.013": 0.0,
			"-0.012": 0.0,
			"-0.011": 0.0,
			"-0.01": 0.0,
			"-0.009": 0.0,
			"-0.008": 0.890076520153,
			"-0.007": 8.49216727253,
			"-0.006": 19.9500638032,
			"-0.005": 25.5737539746,
			"-0.004": 21.6805086507,
			"-0.003": 23.4372318953,
			"-0.002": 24.0000997803,
			"-0.001": 22.2675837072,
			"0.0": 22.8261827429,
			"0.001": 22.1950519883,
			"0.002": 22.7737999721,
			"0.003": 19.5698570583,
			"0.004": 18.7647793741,
			"0.005": 8.22565266489,
			"0.006": 5.19696945927,
			"0.007": 4.06313013892,
			"0.008": 3.80496059897,
			"0.009": 3.43457484215,
			"0.01": 3.20407206853,
			"0.011": 2.60093299832,
			"0.012": 1.6874968131,
			"0.013": 3.232760938,
			"0.014": 2.15345348363,
			"0.015": 1.47117537996,
			"0.016": 0.0415757936088,
			"0.017": 0.0,
			"0.018": 0.0,
			"0.019": 0.0,
			"0.02": 0.0,
			"0.021": 0.0,
			"0.022": 0.0,
			"0.023": 0.0,
			"0.024": 0.0,
			"0.025": 0.0
		}
	}
}
