{
	 "smiles": "CC1=CC(C)=C2C(=C1)C=C1C=CC=CN1C2=O", 
	 "Tm": 387.15, 
	 "num_atms": 30, 
	 "gaussian": { 
		 "optdone": 1, 
		 "sigma_profile": "yes", 
		 "theory": "DFT", 
		 "functional": "B3LYP", 
		 "basiset": "6-31G**", 
		 "properties": { 
			 "R2extent": 4839.3604, 
			 "electric_dipole_moment_norm": 2.80101852011, 
			 "electric_quadrupole_moment_norm": 14.9520236276, 
			 "total_energy": -709.435327561, 
			 "HOMO_LUMO_gap": 0.12796, 
			 "cosmo_polarized_energy": -8.87, 
			 "cosmo_cavitation_energy": 32.59, 
			 "cosmo_dispersion_energy": -24.26, 
			 "cosmo_repulsion_energy": 1.81, 
			 "cosmo_total_nonelectrostatic_energy": 10.14, 
			 "SMD_solvation_energy": 6.0 
		},
		"coords": [
			{
				"x": -0.5206060469,
				"y": 3.8110599127,
				"z": 0.9546752793,
				"element": "C" 
			},
			{
				"x": -0.2804956844,
				"y": 2.3984656016,
				"z": 0.4816963351,
				"element": "C" 
			},
			{
				"x": 0.6708617565,
				"y": 1.5868842003,
				"z": 1.1420840884,
				"element": "C" 
			},
			{
				"x": 0.9414399497,
				"y": 0.2811650766,
				"z": 0.760675032,
				"element": "C" 
			},
			{
				"x": 1.9784353017,
				"y": -0.4947270677,
				"z": 1.5375693861,
				"element": "C" 
			},
			{
				"x": 0.2239329923,
				"y": -0.2648312446,
				"z": -0.350496804,
				"element": "C" 
			},
			{
				"x": -0.7399886373,
				"y": 0.5411090467,
				"z": -1.028788734,
				"element": "C" 
			},
			{
				"x": -0.9701856595,
				"y": 1.8679655318,
				"z": -0.5898998041,
				"element": "C" 
			},
			{
				"x": -1.4595113176,
				"y": 0.0128584615,
				"z": -2.1334945533,
				"element": "C" 
			},
			{
				"x": -1.2531452209,
				"y": -1.2702010019,
				"z": -2.5761722865,
				"element": "C" 
			},
			{
				"x": -1.9539388541,
				"y": -1.8519883093,
				"z": -3.687744585,
				"element": "C" 
			},
			{
				"x": -1.7181054681,
				"y": -3.1287015854,
				"z": -4.0930647279,
				"element": "C" 
			},
			{
				"x": -0.7464909832,
				"y": -3.9198385373,
				"z": -3.3976434104,
				"element": "C" 
			},
			{
				"x": -0.078640625,
				"y": -3.3826630899,
				"z": -2.3474237504,
				"element": "C" 
			},
			{
				"x": -0.308643696,
				"y": -2.0815593772,
				"z": -1.9225517527,
				"element": "N" 
			},
			{
				"x": 0.4690695897,
				"y": -1.630779161,
				"z": -0.7920945883,
				"element": "C" 
			},
			{
				"x": 1.2680984816,
				"y": -2.4235043179,
				"z": -0.2950226593,
				"element": "O" 
			},
			{
				"x": 0.3990288813,
				"y": 4.4056220968,
				"z": 0.9038956602,
				"element": "H" 
			},
			{
				"x": -0.8525589646,
				"y": 3.8260419552,
				"z": 1.9993602003,
				"element": "H" 
			},
			{
				"x": -1.2812641209,
				"y": 4.3136877739,
				"z": 0.3514881175,
				"element": "H" 
			},
			{
				"x": 1.2146459138,
				"y": 2.0044914808,
				"z": 1.9861516378,
				"element": "H" 
			},
			{
				"x": 2.7954040495,
				"y": -0.8312181862,
				"z": 0.8942508341,
				"element": "H" 
			},
			{
				"x": 2.388658159,
				"y": 0.1298637671,
				"z": 2.3364879629,
				"element": "H" 
			},
			{
				"x": 1.5569517096,
				"y": -1.4024658354,
				"z": 1.9768149743,
				"element": "H" 
			},
			{
				"x": -1.7074514326,
				"y": 2.4686298193,
				"z": -1.1168525956,
				"element": "H" 
			},
			{
				"x": -2.1904049723,
				"y": 0.628253961,
				"z": -2.6456608925,
				"element": "H" 
			},
			{
				"x": -2.6819347149,
				"y": -1.2234304847,
				"z": -4.1897699772,
				"element": "H" 
			},
			{
				"x": -2.2588436353,
				"y": -3.5485563667,
				"z": -4.9353213336,
				"element": "H" 
			},
			{
				"x": -0.5367177367,
				"y": -4.9398850254,
				"z": -3.6969973412,
				"element": "H" 
			},
			{
				"x": 0.6698009855,
				"y": -3.8970490949,
				"z": -1.7613497118,
				"element": "H" 
			}
		],
		 "valence_orbital": [ 
			{
				"type": "occ",
				"energy": -0.29681,
				"method": "rhf"
			},
			{
				"type": "occ",
				"energy": -0.25333,
				"method": "rhf"
			},
			{
				"type": "occ",
				"energy": -0.25292,
				"method": "rhf"
			},
			{
				"type": "occ",
				"energy": -0.24031,
				"method": "rhf"
			},
			{
				"type": "occ",
				"energy": -0.18017,
				"method": "rhf"
			},
			{
				"type": "unocc",
				"energy": -0.05221,
				"method": "rhf"
			},
			{
				"type": "unocc",
				"energy": -0.03586,
				"method": "rhf"
			},
			{
				"type": "unocc",
				"energy": -0.00176,
				"method": "rhf"
			},
			{
				"type": "unocc",
				"energy": 0.04731,
				"method": "rhf"
			},
			{
				"type": "unocc",
				"energy": 0.06237,
				"method": "rhf"
			}
		],
		"cosmo_sigma_profile": { 
			"-0.025": 0.0,
			"-0.024": 0.0,
			"-0.023": 0.0,
			"-0.022": 0.0,
			"-0.021": 0.0,
			"-0.02": 0.0,
			"-0.019": 0.0,
			"-0.018": 0.0,
			"-0.017": 0.0,
			"-0.016": 0.0,
			"-0.015": 0.0,
			"-0.014": 0.0,
			"-0.013": 0.0,
			"-0.012": 0.0,
			"-0.011": 0.0,
			"-0.01": 0.0,
			"-0.009": 0.0,
			"-0.008": 0.522915441691,
			"-0.007": 7.59586657834,
			"-0.006": 12.095598164,
			"-0.005": 15.5084365813,
			"-0.004": 18.0371734498,
			"-0.003": 20.4579215323,
			"-0.002": 20.1473243043,
			"-0.001": 24.8274013553,
			"0.0": 27.9569040546,
			"0.001": 26.6596831078,
			"0.002": 21.789193676,
			"0.003": 21.2001746537,
			"0.004": 17.8326562739,
			"0.005": 10.7316394338,
			"0.006": 2.11829855122,
			"0.007": 1.57988275044,
			"0.008": 1.7410490934,
			"0.009": 1.17634057202,
			"0.01": 1.65434853109,
			"0.011": 1.69678431134,
			"0.012": 2.18119127341,
			"0.013": 2.47133857079,
			"0.014": 0.353193815526,
			"0.015": 0.0,
			"0.016": 0.0,
			"0.017": 0.0,
			"0.018": 0.0,
			"0.019": 0.0,
			"0.02": 0.0,
			"0.021": 0.0,
			"0.022": 0.0,
			"0.023": 0.0,
			"0.024": 0.0,
			"0.025": 0.0
		}
	}
}
