{
	 "smiles": "CS(=O)(=O)C1=CC=C(OCCCl)C=C1", 
	 "Tm": 359.15, 
	 "num_atms": 25, 
	 "gaussian": { 
		 "optdone": 1, 
		 "sigma_profile": "yes", 
		 "theory": "DFT", 
		 "functional": "B3LYP", 
		 "basiset": "6-31G**", 
		 "properties": { 
			 "R2extent": 7090.2005, 
			 "electric_dipole_moment_norm": 4.65143782287, 
			 "electric_quadrupole_moment_norm": 38.7864358418, 
			 "total_energy": -1433.56974387, 
			 "HOMO_LUMO_gap": 0.21603, 
			 "cosmo_polarized_energy": -19.86, 
			 "cosmo_cavitation_energy": 32.33, 
			 "cosmo_dispersion_energy": -23.9, 
			 "cosmo_repulsion_energy": 1.86, 
			 "cosmo_total_nonelectrostatic_energy": 10.28, 
			 "SMD_solvation_energy": 5.13 
		},
		"coords": [
			{
				"x": -2.3782228106,
				"y": 2.6000343432,
				"z": 1.3401844728,
				"element": "C" 
			},
			{
				"x": -2.5141941067,
				"y": 2.9100268352,
				"z": -0.4376741209,
				"element": "S" 
			},
			{
				"x": -3.9071871755,
				"y": 2.6331270189,
				"z": -0.8229156279,
				"element": "O" 
			},
			{
				"x": -1.8955719892,
				"y": 4.2193830554,
				"z": -0.701141852,
				"element": "O" 
			},
			{
				"x": -1.4746537891,
				"y": 1.6497945318,
				"z": -1.1762506969,
				"element": "C" 
			},
			{
				"x": -0.1394329251,
				"y": 1.9363083359,
				"z": -1.4525539052,
				"element": "C" 
			},
			{
				"x": 0.6776431488,
				"y": 0.9614992099,
				"z": -2.0264240971,
				"element": "C" 
			},
			{
				"x": 0.1435721928,
				"y": -0.3007521196,
				"z": -2.3215924907,
				"element": "C" 
			},
			{
				"x": 0.8455248316,
				"y": -1.3214499754,
				"z": -2.883322176,
				"element": "O" 
			},
			{
				"x": 2.2237260585,
				"y": -1.1345041109,
				"z": -3.1715909209,
				"element": "C" 
			},
			{
				"x": 2.7673809083,
				"y": -2.4275205432,
				"z": -3.7431855473,
				"element": "C" 
			},
			{
				"x": 2.838515914,
				"y": -3.7504240979,
				"z": -2.5104979675,
				"element": "Cl" 
			},
			{
				"x": -1.207394895,
				"y": -0.5778316935,
				"z": -2.050606321,
				"element": "C" 
			},
			{
				"x": -2.0162010767,
				"y": 0.3950202408,
				"z": -1.4829426133,
				"element": "C" 
			},
			{
				"x": -2.7440897158,
				"y": 1.5960717441,
				"z": 1.5595644346,
				"element": "H" 
			},
			{
				"x": -1.3378595729,
				"y": 2.716159369,
				"z": 1.646781258,
				"element": "H" 
			},
			{
				"x": -3.0051123109,
				"y": 3.3482030879,
				"z": 1.8297882367,
				"element": "H" 
			},
			{
				"x": 0.2519967948,
				"y": 2.9253689044,
				"z": -1.2389015338,
				"element": "H" 
			},
			{
				"x": 1.7117756618,
				"y": 1.198403853,
				"z": -2.2449368421,
				"element": "H" 
			},
			{
				"x": 2.3526374862,
				"y": -0.3422664763,
				"z": -3.9249113226,
				"element": "H" 
			},
			{
				"x": 2.7772889761,
				"y": -0.8494414973,
				"z": -2.2682157109,
				"element": "H" 
			},
			{
				"x": 3.7848151448,
				"y": -2.2757963981,
				"z": -4.1069542297,
				"element": "H" 
			},
			{
				"x": 2.1360831997,
				"y": -2.7842170467,
				"z": -4.5579357494,
				"element": "H" 
			},
			{
				"x": -1.5948908396,
				"y": -1.5589294668,
				"z": -2.3030670105,
				"element": "H" 
			},
			{
				"x": -3.0666491103,
				"y": 0.200432896,
				"z": -1.2938976663,
				"element": "H" 
			}
		],
		 "valence_orbital": [ 
			{
				"type": "occ",
				"energy": -0.30685,
				"method": "rhf"
			},
			{
				"type": "occ",
				"energy": -0.29174,
				"method": "rhf"
			},
			{
				"type": "occ",
				"energy": -0.28442,
				"method": "rhf"
			},
			{
				"type": "occ",
				"energy": -0.27639,
				"method": "rhf"
			},
			{
				"type": "occ",
				"energy": -0.24818,
				"method": "rhf"
			},
			{
				"type": "unocc",
				"energy": -0.03215,
				"method": "rhf"
			},
			{
				"type": "unocc",
				"energy": -0.0257,
				"method": "rhf"
			},
			{
				"type": "unocc",
				"energy": 0.01241,
				"method": "rhf"
			},
			{
				"type": "unocc",
				"energy": 0.06545,
				"method": "rhf"
			},
			{
				"type": "unocc",
				"energy": 0.07652,
				"method": "rhf"
			}
		],
		"cosmo_sigma_profile": { 
			"-0.025": 0.0,
			"-0.024": 0.0,
			"-0.023": 0.0,
			"-0.022": 0.0,
			"-0.021": 0.0,
			"-0.02": 0.0,
			"-0.019": 0.0,
			"-0.018": 0.0,
			"-0.017": 0.0,
			"-0.016": 0.0,
			"-0.015": 0.0,
			"-0.014": 0.0,
			"-0.013": 0.0,
			"-0.012": 0.0,
			"-0.011": 0.0,
			"-0.01": 0.0,
			"-0.009": 1.61078977319,
			"-0.008": 14.8459849917,
			"-0.007": 24.5906669198,
			"-0.006": 22.366299219,
			"-0.005": 17.4621526577,
			"-0.004": 15.812277588,
			"-0.003": 13.1818220102,
			"-0.002": 9.98052034262,
			"-0.001": 8.63299760402,
			"0.0": 10.5864145052,
			"0.001": 14.6650467906,
			"0.002": 18.4125170615,
			"0.003": 16.5759122047,
			"0.004": 9.32345194209,
			"0.005": 8.49152452035,
			"0.006": 12.1717870556,
			"0.007": 7.31558467901,
			"0.008": 5.26689136932,
			"0.009": 3.69176621159,
			"0.01": 4.33643257292,
			"0.011": 8.21531383623,
			"0.012": 9.61152991387,
			"0.013": 2.12562000575,
			"0.014": 0.0,
			"0.015": 0.0,
			"0.016": 0.0,
			"0.017": 0.0,
			"0.018": 0.0,
			"0.019": 0.0,
			"0.02": 0.0,
			"0.021": 0.0,
			"0.022": 0.0,
			"0.023": 0.0,
			"0.024": 0.0,
			"0.025": 0.0
		}
	}
}
