{
	 "smiles": "CCC(C)=C(C)C", 
	 "Tm": 155.15, 
	 "num_atms": 21, 
	 "gaussian": { 
		 "optdone": 1, 
		 "sigma_profile": "yes", 
		 "theory": "DFT", 
		 "functional": "B3LYP", 
		 "basiset": "6-31G**", 
		 "properties": { 
			 "R2extent": 1074.7121, 
			 "electric_dipole_moment_norm": 0.0256204996048, 
			 "electric_quadrupole_moment_norm": 1.55407986925, 
			 "total_energy": -275.183282693, 
			 "HOMO_LUMO_gap": 0.25146, 
			 "cosmo_polarized_energy": -1.44, 
			 "cosmo_cavitation_energy": 22.14, 
			 "cosmo_dispersion_energy": -15.99, 
			 "cosmo_repulsion_energy": 1.36, 
			 "cosmo_total_nonelectrostatic_energy": 7.5, 
			 "SMD_solvation_energy": 4.25 
		},
		"coords": [
			{
				"x": 1.7988077893,
				"y": -1.0732589336,
				"z": -1.8711369147,
				"element": "C" 
			},
			{
				"x": 0.4268060661,
				"y": -0.9494212542,
				"z": -1.1827648859,
				"element": "C" 
			},
			{
				"x": 0.4998165524,
				"y": -0.3053940537,
				"z": 0.1947675788,
				"element": "C" 
			},
			{
				"x": 0.778686245,
				"y": -1.3106191963,
				"z": 1.2914525836,
				"element": "C" 
			},
			{
				"x": 0.3470585609,
				"y": 1.0194275291,
				"z": 0.4000246188,
				"element": "C" 
			},
			{
				"x": 0.1007966956,
				"y": 2.0164756166,
				"z": -0.7119357606,
				"element": "C" 
			},
			{
				"x": 0.4014220365,
				"y": 1.6884059672,
				"z": 1.7557218536,
				"element": "C" 
			},
			{
				"x": 1.7150799283,
				"y": -1.6026731537,
				"z": -2.8266041834,
				"element": "H" 
			},
			{
				"x": 2.2289997498,
				"y": -0.0857703117,
				"z": -2.0665583042,
				"element": "H" 
			},
			{
				"x": 2.5106494945,
				"y": -1.6242707166,
				"z": -1.2471833968,
				"element": "H" 
			},
			{
				"x": -0.2570428272,
				"y": -0.4048314837,
				"z": -1.8404167121,
				"element": "H" 
			},
			{
				"x": -0.003056685,
				"y": -1.9540434715,
				"z": -1.0740455977,
				"element": "H" 
			},
			{
				"x": 1.0150100403,
				"y": -0.8639537998,
				"z": 2.2575873284,
				"element": "H" 
			},
			{
				"x": -0.0817746408,
				"y": -1.9790887758,
				"z": 1.4329159901,
				"element": "H" 
			},
			{
				"x": 1.6236314234,
				"y": -1.9540866793,
				"z": 1.0145596415,
				"element": "H" 
			},
			{
				"x": 0.8687423816,
				"y": 2.8014937808,
				"z": -0.6955136158,
				"element": "H" 
			},
			{
				"x": 0.1034886951,
				"y": 1.5780245967,
				"z": -1.7102020226,
				"element": "H" 
			},
			{
				"x": -0.8612593069,
				"y": 2.5280324678,
				"z": -0.5709405926,
				"element": "H" 
			},
			{
				"x": 0.5218189771,
				"y": 0.9970709163,
				"z": 2.5898824158,
				"element": "H" 
			},
			{
				"x": 1.2257743367,
				"y": 2.4132959209,
				"z": 1.7992151255,
				"element": "H" 
			},
			{
				"x": -0.5186555127,
				"y": 2.2614850345,
				"z": 1.9332748504,
				"element": "H" 
			}
		],
		 "valence_orbital": [ 
			{
				"type": "occ",
				"energy": -0.35698,
				"method": "rhf"
			},
			{
				"type": "occ",
				"energy": -0.34823,
				"method": "rhf"
			},
			{
				"type": "occ",
				"energy": -0.32841,
				"method": "rhf"
			},
			{
				"type": "occ",
				"energy": -0.30462,
				"method": "rhf"
			},
			{
				"type": "occ",
				"energy": -0.21617,
				"method": "rhf"
			},
			{
				"type": "unocc",
				"energy": 0.03529,
				"method": "rhf"
			},
			{
				"type": "unocc",
				"energy": 0.0865,
				"method": "rhf"
			},
			{
				"type": "unocc",
				"energy": 0.11516,
				"method": "rhf"
			},
			{
				"type": "unocc",
				"energy": 0.12844,
				"method": "rhf"
			},
			{
				"type": "unocc",
				"energy": 0.13611,
				"method": "rhf"
			}
		],
		"cosmo_sigma_profile": { 
			"-0.025": 0.0,
			"-0.024": 0.0,
			"-0.023": 0.0,
			"-0.022": 0.0,
			"-0.021": 0.0,
			"-0.02": 0.0,
			"-0.019": 0.0,
			"-0.018": 0.0,
			"-0.017": 0.0,
			"-0.016": 0.0,
			"-0.015": 0.0,
			"-0.014": 0.0,
			"-0.013": 0.0,
			"-0.012": 0.0,
			"-0.011": 0.0,
			"-0.01": 0.0,
			"-0.009": 0.0,
			"-0.008": 0.0,
			"-0.007": 0.0,
			"-0.006": 0.0,
			"-0.005": 0.500192159989,
			"-0.004": 2.65001945012,
			"-0.003": 15.9109957936,
			"-0.002": 27.5107519503,
			"-0.001": 27.5930218682,
			"0.0": 29.4831138401,
			"0.001": 35.571568442,
			"0.002": 16.1083803794,
			"0.003": 4.98472590287,
			"0.004": 3.85002583743,
			"0.005": 3.17357822031,
			"0.006": 2.30178412249,
			"0.007": 1.71971016234,
			"0.008": 0.128736909908,
			"0.009": 0.0,
			"0.01": 0.0,
			"0.011": 0.0,
			"0.012": 0.0,
			"0.013": 0.0,
			"0.014": 0.0,
			"0.015": 0.0,
			"0.016": 0.0,
			"0.017": 0.0,
			"0.018": 0.0,
			"0.019": 0.0,
			"0.02": 0.0,
			"0.021": 0.0,
			"0.022": 0.0,
			"0.023": 0.0,
			"0.024": 0.0,
			"0.025": 0.0
		}
	}
}
