{
	 "smiles": "FC1=C2C=CC=CC2=CC=C1", 
	 "Tm": 262.15, 
	 "num_atms": 18, 
	 "gaussian": { 
		 "optdone": 1, 
		 "sigma_profile": "yes", 
		 "theory": "DFT", 
		 "functional": "B3LYP", 
		 "basiset": "6-31G**", 
		 "properties": { 
			 "R2extent": 1823.6124, 
			 "electric_dipole_moment_norm": 1.23520588162, 
			 "electric_quadrupole_moment_norm": 8.40179445892, 
			 "total_energy": -485.128651204, 
			 "HOMO_LUMO_gap": 0.1752, 
			 "cosmo_polarized_energy": -4.1, 
			 "cosmo_cavitation_energy": 22.03, 
			 "cosmo_dispersion_energy": -16.52, 
			 "cosmo_repulsion_energy": 1.27, 
			 "cosmo_total_nonelectrostatic_energy": 6.78, 
			 "SMD_solvation_energy": 4.0 
		},
		"coords": [
			{
				"x": 0.2956570181,
				"y": 1.4151560644,
				"z": 2.2545762558,
				"element": "F" 
			},
			{
				"x": 0.2936570131,
				"y": 0.4657699912,
				"z": 1.2913679609,
				"element": "C" 
			},
			{
				"x": -0.9639960501,
				"y": -0.0075292593,
				"z": 0.8397968894,
				"element": "C" 
			},
			{
				"x": -2.1938552902,
				"y": 0.4750641638,
				"z": 1.3574422115,
				"element": "C" 
			},
			{
				"x": -3.3864453382,
				"y": -0.0211306405,
				"z": 0.8811635139,
				"element": "C" 
			},
			{
				"x": -3.3969631027,
				"y": -1.0157749777,
				"z": -0.127771468,
				"element": "C" 
			},
			{
				"x": -2.2157113012,
				"y": -1.4987194314,
				"z": -0.6446803024,
				"element": "C" 
			},
			{
				"x": -0.9627102347,
				"y": -1.0139786519,
				"z": -0.1814011324,
				"element": "C" 
			},
			{
				"x": 0.2779688027,
				"y": -1.487054323,
				"z": -0.6896543004,
				"element": "C" 
			},
			{
				"x": 1.4691480943,
				"y": -0.9891330192,
				"z": -0.2115999237,
				"element": "C" 
			},
			{
				"x": 1.4863804745,
				"y": 0.0051125436,
				"z": 0.7967959779,
				"element": "C" 
			},
			{
				"x": -2.1742001432,
				"y": 1.2364207873,
				"z": 2.1294564282,
				"element": "H" 
			},
			{
				"x": -4.3260642388,
				"y": 0.3502938806,
				"z": 1.2794270328,
				"element": "H" 
			},
			{
				"x": -4.3452961291,
				"y": -1.3981748774,
				"z": -0.494137439,
				"element": "H" 
			},
			{
				"x": -2.2249051357,
				"y": -2.2617882837,
				"z": -1.4186768617,
				"element": "H" 
			},
			{
				"x": 0.2709244874,
				"y": -2.2496920471,
				"z": -1.4632744022,
				"element": "H" 
			},
			{
				"x": 2.4116733028,
				"y": -1.35663407,
				"z": -0.6059684218,
				"element": "H" 
			},
			{
				"x": 2.4164377709,
				"y": 0.40699215,
				"z": 1.1833379812,
				"element": "H" 
			}
		],
		 "valence_orbital": [ 
			{
				"type": "occ",
				"energy": -0.33926,
				"method": "rhf"
			},
			{
				"type": "occ",
				"energy": -0.32721,
				"method": "rhf"
			},
			{
				"type": "occ",
				"energy": -0.28031,
				"method": "rhf"
			},
			{
				"type": "occ",
				"energy": -0.24901,
				"method": "rhf"
			},
			{
				"type": "occ",
				"energy": -0.21494,
				"method": "rhf"
			},
			{
				"type": "unocc",
				"energy": -0.03974,
				"method": "rhf"
			},
			{
				"type": "unocc",
				"energy": -0.01444,
				"method": "rhf"
			},
			{
				"type": "unocc",
				"energy": 0.03506,
				"method": "rhf"
			},
			{
				"type": "unocc",
				"energy": 0.094,
				"method": "rhf"
			},
			{
				"type": "unocc",
				"energy": 0.09602,
				"method": "rhf"
			}
		],
		"cosmo_sigma_profile": { 
			"-0.025": 0.0,
			"-0.024": 0.0,
			"-0.023": 0.0,
			"-0.022": 0.0,
			"-0.021": 0.0,
			"-0.02": 0.0,
			"-0.019": 0.0,
			"-0.018": 0.0,
			"-0.017": 0.0,
			"-0.016": 0.0,
			"-0.015": 0.0,
			"-0.014": 0.0,
			"-0.013": 0.0,
			"-0.012": 0.0,
			"-0.011": 0.0,
			"-0.01": 0.0,
			"-0.009": 0.0,
			"-0.008": 0.050839159931,
			"-0.007": 2.20082460168,
			"-0.006": 11.7793667106,
			"-0.005": 14.615455698,
			"-0.004": 15.7166050176,
			"-0.003": 9.9104294022,
			"-0.002": 9.19141608913,
			"-0.001": 9.65897870268,
			"0.0": 11.0323928116,
			"0.001": 16.178188948,
			"0.002": 17.3800203046,
			"0.003": 21.6883600289,
			"0.004": 26.7828051016,
			"0.005": 11.347448051,
			"0.006": 0.00498149749218,
			"0.007": 0.0,
			"0.008": 0.0,
			"0.009": 0.0,
			"0.01": 0.0,
			"0.011": 0.0,
			"0.012": 0.0,
			"0.013": 0.0,
			"0.014": 0.0,
			"0.015": 0.0,
			"0.016": 0.0,
			"0.017": 0.0,
			"0.018": 0.0,
			"0.019": 0.0,
			"0.02": 0.0,
			"0.021": 0.0,
			"0.022": 0.0,
			"0.023": 0.0,
			"0.024": 0.0,
			"0.025": 0.0
		}
	}
}
