{
	 "smiles": "CC1(C)NC(=O)N(CC2=CC=C(C=C2)C#N)C1=O", 
	 "Tm": 441.15, 
	 "num_atms": 31, 
	 "gaussian": { 
		 "optdone": 1, 
		 "sigma_profile": "yes", 
		 "theory": "DFT", 
		 "functional": "B3LYP", 
		 "basiset": "6-31G**", 
		 "properties": { 
			 "R2extent": 5874.8803, 
			 "electric_dipole_moment_norm": 6.09583591725, 
			 "electric_quadrupole_moment_norm": 30.2627031228, 
			 "total_energy": -817.962444397, 
			 "HOMO_LUMO_gap": 0.20772, 
			 "cosmo_polarized_energy": -18.83, 
			 "cosmo_cavitation_energy": 36.51, 
			 "cosmo_dispersion_energy": -24.24, 
			 "cosmo_repulsion_energy": 1.88, 
			 "cosmo_total_nonelectrostatic_energy": 14.15, 
			 "SMD_solvation_energy": 8.47 
		},
		"coords": [
			{
				"x": -2.8511314858,
				"y": -0.0937983523,
				"z": -0.4222858951,
				"element": "C" 
			},
			{
				"x": -1.7637641959,
				"y": 0.8733307386,
				"z": -0.9189287303,
				"element": "C" 
			},
			{
				"x": -2.236943792,
				"y": 1.6727911177,
				"z": -2.1425135942,
				"element": "C" 
			},
			{
				"x": -1.2592175348,
				"y": 1.7384942125,
				"z": 0.1486707205,
				"element": "N" 
			},
			{
				"x": 0.0448152566,
				"y": 1.5027694288,
				"z": 0.4822299205,
				"element": "C" 
			},
			{
				"x": 0.7165741029,
				"y": 2.0163342114,
				"z": 1.3574080133,
				"element": "O" 
			},
			{
				"x": 0.5052468658,
				"y": 0.5159267664,
				"z": -0.4224300112,
				"element": "N" 
			},
			{
				"x": 1.8678059086,
				"y": -0.009749757,
				"z": -0.3976666026,
				"element": "C" 
			},
			{
				"x": 2.0142221071,
				"y": -1.2170000418,
				"z": 0.5091979214,
				"element": "C" 
			},
			{
				"x": 1.8687312185,
				"y": -2.511535052,
				"z": -0.0061097755,
				"element": "C" 
			},
			{
				"x": 1.9878041331,
				"y": -3.6219472664,
				"z": 0.8244090057,
				"element": "C" 
			},
			{
				"x": 2.2534335822,
				"y": -3.4446276783,
				"z": 2.1926068557,
				"element": "C" 
			},
			{
				"x": 2.3921500828,
				"y": -2.1478111966,
				"z": 2.7165717927,
				"element": "C" 
			},
			{
				"x": 2.2712176992,
				"y": -1.0455077532,
				"z": 1.8763835828,
				"element": "C" 
			},
			{
				"x": 2.380537585,
				"y": -4.5849956007,
				"z": 3.0534133702,
				"element": "C" 
			},
			{
				"x": 2.482397045,
				"y": -5.5097848103,
				"z": 3.751864818,
				"element": "N" 
			},
			{
				"x": -0.4879641249,
				"y": 0.079666063,
				"z": -1.2703842881,
				"element": "C" 
			},
			{
				"x": -0.3800496751,
				"y": -0.7705661559,
				"z": -2.1341476327,
				"element": "O" 
			},
			{
				"x": -3.0952084895,
				"y": -0.8109629455,
				"z": -1.2101225091,
				"element": "H" 
			},
			{
				"x": -3.7599496772,
				"y": 0.4572061425,
				"z": -0.1588186942,
				"element": "H" 
			},
			{
				"x": -2.5117791573,
				"y": -0.6459543506,
				"z": 0.4586326935,
				"element": "H" 
			},
			{
				"x": -3.1466205623,
				"y": 2.2332224732,
				"z": -1.9040619995,
				"element": "H" 
			},
			{
				"x": -2.4531137203,
				"y": 0.9898529687,
				"z": -2.9680927153,
				"element": "H" 
			},
			{
				"x": -1.4688686344,
				"y": 2.3807904305,
				"z": -2.4652637562,
				"element": "H" 
			},
			{
				"x": -1.8345650573,
				"y": 2.328870114,
				"z": 0.728988274,
				"element": "H" 
			},
			{
				"x": 2.5126568722,
				"y": 0.8045715477,
				"z": -0.0603098698,
				"element": "H" 
			},
			{
				"x": 2.1260553867,
				"y": -0.2692362956,
				"z": -1.4269724446,
				"element": "H" 
			},
			{
				"x": 1.6486116756,
				"y": -2.6444368074,
				"z": -1.0611287068,
				"element": "H" 
			},
			{
				"x": 1.8778067084,
				"y": -4.6243953075,
				"z": 0.4245199489,
				"element": "H" 
			},
			{
				"x": 2.5942871418,
				"y": -2.01550738,
				"z": 3.7742077869,
				"element": "H" 
			},
			{
				"x": 2.3613227355,
				"y": -0.040909464,
				"z": 2.2786325213,
				"element": "H" 
			}
		],
		 "valence_orbital": [ 
			{
				"type": "occ",
				"energy": -0.28587,
				"method": "rhf"
			},
			{
				"type": "occ",
				"energy": -0.27553,
				"method": "rhf"
			},
			{
				"type": "occ",
				"energy": -0.27277,
				"method": "rhf"
			},
			{
				"type": "occ",
				"energy": -0.27192,
				"method": "rhf"
			},
			{
				"type": "occ",
				"energy": -0.2612,
				"method": "rhf"
			},
			{
				"type": "unocc",
				"energy": -0.05348,
				"method": "rhf"
			},
			{
				"type": "unocc",
				"energy": -0.02439,
				"method": "rhf"
			},
			{
				"type": "unocc",
				"energy": -0.01626,
				"method": "rhf"
			},
			{
				"type": "unocc",
				"energy": 0.03885,
				"method": "rhf"
			},
			{
				"type": "unocc",
				"energy": 0.04638,
				"method": "rhf"
			}
		],
		"cosmo_sigma_profile": { 
			"-0.025": 0.0,
			"-0.024": 0.0,
			"-0.023": 0.0,
			"-0.022": 0.0,
			"-0.021": 0.0,
			"-0.02": 0.0,
			"-0.019": 0.0,
			"-0.018": 0.0,
			"-0.017": 0.0,
			"-0.016": 0.00924853098983,
			"-0.015": 1.06346102085,
			"-0.014": 1.15245328786,
			"-0.013": 1.33046297154,
			"-0.012": 1.06388695835,
			"-0.011": 1.28037702977,
			"-0.01": 0.84395884769,
			"-0.009": 0.869585435895,
			"-0.008": 4.58568422547,
			"-0.007": 8.20760195855,
			"-0.006": 17.0794668356,
			"-0.005": 22.488623457,
			"-0.004": 23.2978148933,
			"-0.003": 24.702186055,
			"-0.002": 23.2154333904,
			"-0.001": 28.1764596442,
			"0.0": 22.1061341308,
			"0.001": 14.9549280061,
			"0.002": 21.465283625,
			"0.003": 9.67346587603,
			"0.004": 6.03139708594,
			"0.005": 5.95343632239,
			"0.006": 4.97777036222,
			"0.007": 5.48336478409,
			"0.008": 6.1945999753,
			"0.009": 5.44514707217,
			"0.01": 6.51461601585,
			"0.011": 7.09621545131,
			"0.012": 9.16134915099,
			"0.013": 5.6213257041,
			"0.014": 0.702833805259,
			"0.015": 0.0,
			"0.016": 0.0,
			"0.017": 0.0,
			"0.018": 0.0,
			"0.019": 0.0,
			"0.02": 0.0,
			"0.021": 0.0,
			"0.022": 0.0,
			"0.023": 0.0,
			"0.024": 0.0,
			"0.025": 0.0
		}
	}
}
