{
	 "smiles": "OCC1=CC=C(C=C1)C(F)(F)F", 
	 "Tm": 292.15, 
	 "num_atms": 19, 
	 "gaussian": { 
		 "optdone": 1, 
		 "sigma_profile": "yes", 
		 "theory": "DFT", 
		 "functional": "B3LYP", 
		 "basiset": "6-31G**", 
		 "properties": { 
			 "R2extent": 2631.4901, 
			 "electric_dipole_moment_norm": 0.671256679669, 
			 "electric_quadrupole_moment_norm": 13.305613506, 
			 "total_energy": -683.80899744, 
			 "HOMO_LUMO_gap": 0.2291, 
			 "cosmo_polarized_energy": -7.69, 
			 "cosmo_cavitation_energy": 24.58, 
			 "cosmo_dispersion_energy": -17.46, 
			 "cosmo_repulsion_energy": 1.34, 
			 "cosmo_total_nonelectrostatic_energy": 8.46, 
			 "SMD_solvation_energy": 5.39 
		},
		"coords": [
			{
				"x": 3.1013428971,
				"y": 1.3990940841,
				"z": -1.2999277684,
				"element": "O" 
			},
			{
				"x": 2.0589001333,
				"y": 2.0585830057,
				"z": -0.5763897857,
				"element": "C" 
			},
			{
				"x": 0.9011632624,
				"y": 1.142781746,
				"z": -0.2545477463,
				"element": "C" 
			},
			{
				"x": 0.9010478678,
				"y": 0.3780885888,
				"z": 0.9205023055,
				"element": "C" 
			},
			{
				"x": -0.1347054387,
				"y": -0.5129694661,
				"z": 1.1930544548,
				"element": "C" 
			},
			{
				"x": -1.1859070544,
				"y": -0.6542727784,
				"z": 0.2830870916,
				"element": "C" 
			},
			{
				"x": -1.1980245619,
				"y": 0.0972270862,
				"z": -0.8951120371,
				"element": "C" 
			},
			{
				"x": -0.1580688523,
				"y": 0.9858605337,
				"z": -1.1594822209,
				"element": "C" 
			},
			{
				"x": -2.3365021705,
				"y": -1.5708774502,
				"z": 0.6011583472,
				"element": "C" 
			},
			{
				"x": -3.3112873632,
				"y": -0.9280034165,
				"z": 1.2852179792,
				"element": "F" 
			},
			{
				"x": -1.9489675323,
				"y": -2.618470591,
				"z": 1.3620673904,
				"element": "F" 
			},
			{
				"x": -2.9064098998,
				"y": -2.0692356674,
				"z": -0.5184361096,
				"element": "F" 
			},
			{
				"x": 2.8362756445,
				"y": 0.4812650484,
				"z": -1.4327625884,
				"element": "H" 
			},
			{
				"x": 2.4814939297,
				"y": 2.4633067425,
				"z": 0.3530829634,
				"element": "H" 
			},
			{
				"x": 1.7042631836,
				"y": 2.9094874151,
				"z": -1.1734645306,
				"element": "H" 
			},
			{
				"x": 1.7179319493,
				"y": 0.4862314578,
				"z": 1.6290560968,
				"element": "H" 
			},
			{
				"x": -0.1267210936,
				"y": -1.1018084671,
				"z": 2.1039165032,
				"element": "H" 
			},
			{
				"x": -2.0133279588,
				"y": -0.0191851177,
				"z": -1.6009418011,
				"element": "H" 
			},
			{
				"x": -0.168896942,
				"y": 1.5689972462,
				"z": -2.076478544,
				"element": "H" 
			}
		],
		 "valence_orbital": [ 
			{
				"type": "occ",
				"energy": -0.3639,
				"method": "rhf"
			},
			{
				"type": "occ",
				"energy": -0.33454,
				"method": "rhf"
			},
			{
				"type": "occ",
				"energy": -0.27768,
				"method": "rhf"
			},
			{
				"type": "occ",
				"energy": -0.27195,
				"method": "rhf"
			},
			{
				"type": "occ",
				"energy": -0.26901,
				"method": "rhf"
			},
			{
				"type": "unocc",
				"energy": -0.03991,
				"method": "rhf"
			},
			{
				"type": "unocc",
				"energy": -0.02499,
				"method": "rhf"
			},
			{
				"type": "unocc",
				"energy": 0.08462,
				"method": "rhf"
			},
			{
				"type": "unocc",
				"energy": 0.09162,
				"method": "rhf"
			},
			{
				"type": "unocc",
				"energy": 0.11075,
				"method": "rhf"
			}
		],
		"cosmo_sigma_profile": { 
			"-0.025": 0.0,
			"-0.024": 0.0,
			"-0.023": 0.0,
			"-0.022": 0.0,
			"-0.021": 0.0,
			"-0.02": 0.0,
			"-0.019": 0.0,
			"-0.018": 0.0,
			"-0.017": 0.0,
			"-0.016": 0.0,
			"-0.015": 0.343400182612,
			"-0.014": 0.471810164976,
			"-0.013": 0.778681635482,
			"-0.012": 0.901478025955,
			"-0.011": 0.535035677685,
			"-0.01": 1.09804136132,
			"-0.009": 0.405429609049,
			"-0.008": 0.976014392637,
			"-0.007": 4.77436396712,
			"-0.006": 10.6649192606,
			"-0.005": 13.3610844702,
			"-0.004": 13.757649979,
			"-0.003": 11.8757106705,
			"-0.002": 13.2828108273,
			"-0.001": 10.8734046823,
			"0.0": 13.5833604271,
			"0.001": 14.7878137026,
			"0.002": 25.8151555633,
			"0.003": 38.9207805479,
			"0.004": 4.39870720499,
			"0.005": 0.948319584548,
			"0.006": 0.902229877285,
			"0.007": 1.33161314641,
			"0.008": 1.18336072202,
			"0.009": 1.19665047537,
			"0.01": 0.943327579289,
			"0.011": 1.30195803986,
			"0.012": 1.48604443763,
			"0.013": 1.80398003265,
			"0.014": 2.45955560348,
			"0.015": 0.654158589921,
			"0.016": 0.0,
			"0.017": 0.0,
			"0.018": 0.0,
			"0.019": 0.0,
			"0.02": 0.0,
			"0.021": 0.0,
			"0.022": 0.0,
			"0.023": 0.0,
			"0.024": 0.0,
			"0.025": 0.0
		}
	}
}
