{
	 "smiles": "CC#C[C@]1(O)CC[C@H]2[C@@H]3CCC4=CC(=O)CCC4=C3[C@H](C[C@]12C)C1=CC=C(C=C1)N(C)C", 
	 "Tm": 466.65, 
	 "num_atms": 67, 
	 "gaussian": { 
		 "optdone": 1, 
		 "sigma_profile": "yes", 
		 "theory": "DFT", 
		 "functional": "B3LYP", 
		 "basiset": "6-31G**", 
		 "properties": { 
			 "R2extent": 16577.3573, 
			 "electric_dipole_moment_norm": 4.77050228488, 
			 "electric_quadrupole_moment_norm": 48.1435684634, 
			 "total_energy": -1331.2922234, 
			 "HOMO_LUMO_gap": 0.13631, 
			 "cosmo_polarized_energy": -18.93, 
			 "cosmo_cavitation_energy": 62.63, 
			 "cosmo_dispersion_energy": -40.64, 
			 "cosmo_repulsion_energy": 3.07, 
			 "cosmo_total_nonelectrostatic_energy": 25.06, 
			 "SMD_solvation_energy": 9.59 
		},
		"coords": [
			{
				"x": -4.2196255529,
				"y": 1.0158623981,
				"z": -2.6551290584,
				"element": "C" 
			},
			{
				"x": -3.920156469,
				"y": 1.540416034,
				"z": -1.3252141081,
				"element": "C" 
			},
			{
				"x": -3.6839097554,
				"y": 1.9956296297,
				"z": -0.2275909515,
				"element": "C" 
			},
			{
				"x": -3.4292503749,
				"y": 2.5035526,
				"z": 1.1328962706,
				"element": "C" 
			},
			{
				"x": -4.3646509522,
				"y": 1.9133225474,
				"z": 2.0400584026,
				"element": "O" 
			},
			{
				"x": -3.6073329555,
				"y": 4.0600863479,
				"z": 1.2164873188,
				"element": "C" 
			},
			{
				"x": -2.1836972949,
				"y": 4.6891317889,
				"z": 1.1550269351,
				"element": "C" 
			},
			{
				"x": -1.2938883442,
				"y": 3.4904553121,
				"z": 0.7828550732,
				"element": "C" 
			},
			{
				"x": 0.2342124169,
				"y": 3.5253467591,
				"z": 0.9261564634,
				"element": "C" 
			},
			{
				"x": 0.8339554487,
				"y": 4.8545885904,
				"z": 0.4561338125,
				"element": "C" 
			},
			{
				"x": 2.3552680043,
				"y": 4.7680346433,
				"z": 0.4589835477,
				"element": "C" 
			},
			{
				"x": 2.831506545,
				"y": 3.6247926946,
				"z": -0.4065476765,
				"element": "C" 
			},
			{
				"x": 4.0777665238,
				"y": 3.6616296775,
				"z": -0.9501643149,
				"element": "C" 
			},
			{
				"x": 4.7051420806,
				"y": 2.533094505,
				"z": -1.6481730648,
				"element": "C" 
			},
			{
				"x": 5.8347366493,
				"y": 2.6062039137,
				"z": -2.1195926489,
				"element": "O" 
			},
			{
				"x": 3.8900552324,
				"y": 1.2495457299,
				"z": -1.6905088602,
				"element": "C" 
			},
			{
				"x": 2.3835692957,
				"y": 1.5339657232,
				"z": -1.7111600267,
				"element": "C" 
			},
			{
				"x": 1.9394010532,
				"y": 2.4701984257,
				"z": -0.5994259915,
				"element": "C" 
			},
			{
				"x": 0.7876058078,
				"y": 2.3376589366,
				"z": 0.1203854264,
				"element": "C" 
			},
			{
				"x": -0.1167594381,
				"y": 1.0854730221,
				"z": 0.0364258779,
				"element": "C" 
			},
			{
				"x": -1.212947845,
				"y": 0.9946435123,
				"z": 1.1502727066,
				"element": "C" 
			},
			{
				"x": -1.9208959101,
				"y": 2.3115505825,
				"z": 1.5474399271,
				"element": "C" 
			},
			{
				"x": -1.8318726063,
				"y": 2.462977229,
				"z": 3.0828926539,
				"element": "C" 
			},
			{
				"x": 0.6094219111,
				"y": -0.2579032804,
				"z": 0.0616872418,
				"element": "C" 
			},
			{
				"x": 1.6385048779,
				"y": -0.5329214143,
				"z": 0.9717231188,
				"element": "C" 
			},
			{
				"x": 2.2397157178,
				"y": -1.7855579882,
				"z": 1.0474786103,
				"element": "C" 
			},
			{
				"x": 1.8209791957,
				"y": -2.8497833095,
				"z": 0.215936881,
				"element": "C" 
			},
			{
				"x": 0.7841996193,
				"y": -2.5732155893,
				"z": -0.7022068802,
				"element": "C" 
			},
			{
				"x": 0.1969968397,
				"y": -1.3113503569,
				"z": -0.7617988028,
				"element": "C" 
			},
			{
				"x": 2.3975904166,
				"y": -4.114034314,
				"z": 0.3065481145,
				"element": "N" 
			},
			{
				"x": 3.6199998676,
				"y": -4.2792877017,
				"z": 1.0751232709,
				"element": "C" 
			},
			{
				"x": 2.1075323191,
				"y": -5.0964295379,
				"z": -0.7237014916,
				"element": "C" 
			},
			{
				"x": -3.7460524236,
				"y": 1.6234370874,
				"z": -3.4344628327,
				"element": "H" 
			},
			{
				"x": -3.8603953441,
				"y": -0.0127440601,
				"z": -2.7719387221,
				"element": "H" 
			},
			{
				"x": -5.2986935269,
				"y": 1.0153769365,
				"z": -2.8455877301,
				"element": "H" 
			},
			{
				"x": -4.4130665661,
				"y": 0.9697419235,
				"z": 1.834973876,
				"element": "H" 
			},
			{
				"x": -4.2516470842,
				"y": 4.414225946,
				"z": 0.4092618699,
				"element": "H" 
			},
			{
				"x": -4.1162003605,
				"y": 4.2809270216,
				"z": 2.1580389962,
				"element": "H" 
			},
			{
				"x": -1.9015292075,
				"y": 5.1174215452,
				"z": 2.1226854976,
				"element": "H" 
			},
			{
				"x": -2.1217348245,
				"y": 5.4955857843,
				"z": 0.4190999182,
				"element": "H" 
			},
			{
				"x": -1.4912782187,
				"y": 3.307002365,
				"z": -0.2835082618,
				"element": "H" 
			},
			{
				"x": 0.4946342845,
				"y": 3.4066917432,
				"z": 1.9903973157,
				"element": "H" 
			},
			{
				"x": 0.4916080646,
				"y": 5.6686647181,
				"z": 1.1038261792,
				"element": "H" 
			},
			{
				"x": 0.4781454154,
				"y": 5.0764713902,
				"z": -0.5589678626,
				"element": "H" 
			},
			{
				"x": 2.7026074976,
				"y": 4.5995412246,
				"z": 1.4897984288,
				"element": "H" 
			},
			{
				"x": 2.8198442829,
				"y": 5.7024778267,
				"z": 0.1268081181,
				"element": "H" 
			},
			{
				"x": 4.7065178218,
				"y": 4.5397943058,
				"z": -0.8219172455,
				"element": "H" 
			},
			{
				"x": 4.2055410189,
				"y": 0.6629235893,
				"z": -2.5578559291,
				"element": "H" 
			},
			{
				"x": 4.1443110143,
				"y": 0.6631671209,
				"z": -0.7962349576,
				"element": "H" 
			},
			{
				"x": 1.8266162146,
				"y": 0.6006708857,
				"z": -1.7070545462,
				"element": "H" 
			},
			{
				"x": 2.1432218039,
				"y": 2.0406971024,
				"z": -2.6586135738,
				"element": "H" 
			},
			{
				"x": -0.6471327465,
				"y": 1.1486981359,
				"z": -0.9248686589,
				"element": "H" 
			},
			{
				"x": -0.7326597152,
				"y": 0.574989465,
				"z": 2.0399344363,
				"element": "H" 
			},
			{
				"x": -1.9352336002,
				"y": 0.2379058858,
				"z": 0.8233047036,
				"element": "H" 
			},
			{
				"x": -2.3144837406,
				"y": 1.6074417897,
				"z": 3.5618705414,
				"element": "H" 
			},
			{
				"x": -0.7890301305,
				"y": 2.4875696865,
				"z": 3.4135235579,
				"element": "H" 
			},
			{
				"x": -2.3288837041,
				"y": 3.3588822857,
				"z": 3.460977483,
				"element": "H" 
			},
			{
				"x": 1.996640219,
				"y": 0.2560431556,
				"z": 1.6279511967,
				"element": "H" 
			},
			{
				"x": 3.0408423779,
				"y": -1.9313521894,
				"z": 1.7617007949,
				"element": "H" 
			},
			{
				"x": 0.4308929525,
				"y": -3.3409247576,
				"z": -1.3795747025,
				"element": "H" 
			},
			{
				"x": -0.5994702227,
				"y": -1.142162506,
				"z": -1.4839005976,
				"element": "H" 
			},
			{
				"x": 3.920410252,
				"y": -5.3280464053,
				"z": 1.0465727148,
				"element": "H" 
			},
			{
				"x": 3.4621277928,
				"y": -4.0138014799,
				"z": 2.126397083,
				"element": "H" 
			},
			{
				"x": 4.4559708286,
				"y": -3.6713044784,
				"z": 0.6939098372,
				"element": "H" 
			},
			{
				"x": 1.0352180418,
				"y": -5.3186312464,
				"z": -0.7631697185,
				"element": "H" 
			},
			{
				"x": 2.4240519848,
				"y": -4.7755386037,
				"z": -1.7292763213,
				"element": "H" 
			},
			{
				"x": 2.623917224,
				"y": -6.0277203048,
				"z": -0.4848986651,
				"element": "H" 
			}
		],
		 "valence_orbital": [ 
			{
				"type": "occ",
				"energy": -0.2482,
				"method": "rhf"
			},
			{
				"type": "occ",
				"energy": -0.24546,
				"method": "rhf"
			},
			{
				"type": "occ",
				"energy": -0.21913,
				"method": "rhf"
			},
			{
				"type": "occ",
				"energy": -0.21371,
				"method": "rhf"
			},
			{
				"type": "occ",
				"energy": -0.18716,
				"method": "rhf"
			},
			{
				"type": "unocc",
				"energy": -0.05085,
				"method": "rhf"
			},
			{
				"type": "unocc",
				"energy": 0.00071,
				"method": "rhf"
			},
			{
				"type": "unocc",
				"energy": 0.01578,
				"method": "rhf"
			},
			{
				"type": "unocc",
				"energy": 0.02738,
				"method": "rhf"
			},
			{
				"type": "unocc",
				"energy": 0.03464,
				"method": "rhf"
			}
		],
		"cosmo_sigma_profile": { 
			"-0.025": 0.0,
			"-0.024": 0.0,
			"-0.023": 0.0,
			"-0.022": 0.0,
			"-0.021": 0.0,
			"-0.02": 0.0,
			"-0.019": 0.0,
			"-0.018": 0.0,
			"-0.017": 0.0,
			"-0.016": 0.0,
			"-0.015": 0.314476584776,
			"-0.014": 0.613798660956,
			"-0.013": 0.744020881075,
			"-0.012": 0.926511291192,
			"-0.011": 0.230921907274,
			"-0.01": 0.988435896678,
			"-0.009": 1.27539550201,
			"-0.008": 1.07376535403,
			"-0.007": 1.00178626671,
			"-0.006": 6.6449630504,
			"-0.005": 19.742145633,
			"-0.004": 36.872166792,
			"-0.003": 59.9521784428,
			"-0.002": 76.9729024857,
			"-0.001": 71.6386114231,
			"0.0": 46.761011847,
			"0.001": 36.1649577982,
			"0.002": 26.0413281508,
			"0.003": 19.3543591996,
			"0.004": 15.2598006388,
			"0.005": 13.5058726321,
			"0.006": 13.3738038984,
			"0.007": 9.67426789848,
			"0.008": 4.59240420967,
			"0.009": 3.00949120639,
			"0.01": 2.48553173832,
			"0.011": 3.00626238771,
			"0.012": 4.53207289492,
			"0.013": 5.82727250025,
			"0.014": 4.80927234265,
			"0.015": 1.50185739833,
			"0.016": 0.0141109079091,
			"0.017": 0.0,
			"0.018": 0.0,
			"0.019": 0.0,
			"0.02": 0.0,
			"0.021": 0.0,
			"0.022": 0.0,
			"0.023": 0.0,
			"0.024": 0.0,
			"0.025": 0.0
		}
	}
}
