{
	 "smiles": "COCCOCC(=O)NC1=C(C)C(N)=CC=C1", 
	 "Tm": 356.15, 
	 "num_atms": 35, 
	 "gaussian": { 
		 "optdone": 1, 
		 "sigma_profile": "yes", 
		 "theory": "DFT", 
		 "functional": "B3LYP", 
		 "basiset": "6-31G**", 
		 "properties": { 
			 "R2extent": 4673.3163, 
			 "electric_dipole_moment_norm": 4.85885115434, 
			 "electric_quadrupole_moment_norm": 10.7438090192, 
			 "total_energy": -803.283215582, 
			 "HOMO_LUMO_gap": 0.19713, 
			 "cosmo_polarized_energy": -18.41, 
			 "cosmo_cavitation_energy": 38.19, 
			 "cosmo_dispersion_energy": -25.25, 
			 "cosmo_repulsion_energy": 2.01, 
			 "cosmo_total_nonelectrostatic_energy": 14.96, 
			 "SMD_solvation_energy": 7.78 
		},
		"coords": [
			{
				"x": -1.7546307667,
				"y": -4.0033937831,
				"z": 1.1874115698,
				"element": "C" 
			},
			{
				"x": -2.232665851,
				"y": -2.7614656047,
				"z": 0.7192311709,
				"element": "O" 
			},
			{
				"x": -1.6693958567,
				"y": -1.6636456376,
				"z": 1.4089494827,
				"element": "C" 
			},
			{
				"x": -2.2614103549,
				"y": -0.3965266157,
				"z": 0.8109023312,
				"element": "C" 
			},
			{
				"x": -1.6946635286,
				"y": 0.7001909912,
				"z": 1.5121510479,
				"element": "O" 
			},
			{
				"x": -2.1474534872,
				"y": 1.9564998333,
				"z": 1.0658379409,
				"element": "C" 
			},
			{
				"x": -1.6364433316,
				"y": 2.4178761927,
				"z": -0.3090768967,
				"element": "C" 
			},
			{
				"x": -2.3643280864,
				"y": 3.077763969,
				"z": -1.0395155252,
				"element": "O" 
			},
			{
				"x": -0.368658151,
				"y": 2.0634152635,
				"z": -0.7140060305,
				"element": "N" 
			},
			{
				"x": 0.7421028555,
				"y": 1.5602632723,
				"z": 0.0270968395,
				"element": "C" 
			},
			{
				"x": 1.4836026783,
				"y": 0.4900114529,
				"z": -0.5052289149,
				"element": "C" 
			},
			{
				"x": 1.0918624527,
				"y": -0.203479372,
				"z": -1.7872356298,
				"element": "C" 
			},
			{
				"x": 2.6260364734,
				"y": 0.0473854774,
				"z": 0.2017659667,
				"element": "C" 
			},
			{
				"x": 3.3661324895,
				"y": -1.0369447482,
				"z": -0.284576485,
				"element": "N" 
			},
			{
				"x": 2.9752727815,
				"y": 0.6462123399,
				"z": 1.4214963341,
				"element": "C" 
			},
			{
				"x": 2.216150225,
				"y": 1.6949000704,
				"z": 1.930999134,
				"element": "C" 
			},
			{
				"x": 1.112947488,
				"y": 2.1718810745,
				"z": 1.2303616173,
				"element": "C" 
			},
			{
				"x": -1.9953011751,
				"y": -4.1604926055,
				"z": 2.2510160138,
				"element": "H" 
			},
			{
				"x": -2.2417724488,
				"y": -4.7835724855,
				"z": 0.5971885037,
				"element": "H" 
			},
			{
				"x": -0.663436266,
				"y": -4.0943985883,
				"z": 1.0664676268,
				"element": "H" 
			},
			{
				"x": -1.8991827768,
				"y": -1.7071206292,
				"z": 2.4862059305,
				"element": "H" 
			},
			{
				"x": -0.5728967927,
				"y": -1.6432688616,
				"z": 1.3045101504,
				"element": "H" 
			},
			{
				"x": -2.028935578,
				"y": -0.3521251879,
				"z": -0.2628684266,
				"element": "H" 
			},
			{
				"x": -3.3571275554,
				"y": -0.4056852706,
				"z": 0.9169263992,
				"element": "H" 
			},
			{
				"x": -3.2426315036,
				"y": 1.9985405357,
				"z": 0.991255126,
				"element": "H" 
			},
			{
				"x": -1.8375915201,
				"y": 2.6875947213,
				"z": 1.8206257717,
				"element": "H" 
			},
			{
				"x": -0.1903384603,
				"y": 2.3682707015,
				"z": -1.6640851887,
				"element": "H" 
			},
			{
				"x": 0.0723965168,
				"y": 0.0480734655,
				"z": -2.0837963055,
				"element": "H" 
			},
			{
				"x": 1.7522424686,
				"y": 0.0634769828,
				"z": -2.6257941512,
				"element": "H" 
			},
			{
				"x": 1.1460192595,
				"y": -1.2917329778,
				"z": -1.6695858666,
				"element": "H" 
			},
			{
				"x": 3.4162407528,
				"y": -1.1126671208,
				"z": -1.2910753625,
				"element": "H" 
			},
			{
				"x": 4.2785389841,
				"y": -1.1402192844,
				"z": 0.1384781265,
				"element": "H" 
			},
			{
				"x": 3.8491432413,
				"y": 0.2888756232,
				"z": 1.9607373037,
				"element": "H" 
			},
			{
				"x": 2.5038242238,
				"y": 2.161176586,
				"z": 2.8687245707,
				"element": "H" 
			},
			{
				"x": 0.5493506002,
				"y": 3.0219302199,
				"z": 1.5978058249,
				"element": "H" 
			}
		],
		 "valence_orbital": [ 
			{
				"type": "occ",
				"energy": -0.27397,
				"method": "rhf"
			},
			{
				"type": "occ",
				"energy": -0.25312,
				"method": "rhf"
			},
			{
				"type": "occ",
				"energy": -0.23845,
				"method": "rhf"
			},
			{
				"type": "occ",
				"energy": -0.22619,
				"method": "rhf"
			},
			{
				"type": "occ",
				"energy": -0.20515,
				"method": "rhf"
			},
			{
				"type": "unocc",
				"energy": -0.00802,
				"method": "rhf"
			},
			{
				"type": "unocc",
				"energy": 0.01004,
				"method": "rhf"
			},
			{
				"type": "unocc",
				"energy": 0.03115,
				"method": "rhf"
			},
			{
				"type": "unocc",
				"energy": 0.06655,
				"method": "rhf"
			},
			{
				"type": "unocc",
				"energy": 0.08728,
				"method": "rhf"
			}
		],
		"cosmo_sigma_profile": { 
			"-0.025": 0.0,
			"-0.024": 0.0,
			"-0.023": 0.0,
			"-0.022": 0.0,
			"-0.021": 0.0,
			"-0.02": 0.0,
			"-0.019": 0.0,
			"-0.018": 0.0,
			"-0.017": 0.0,
			"-0.016": 0.0,
			"-0.015": 0.0,
			"-0.014": 0.0921990198961,
			"-0.013": 0.846028558209,
			"-0.012": 2.68134102678,
			"-0.011": 2.81556337759,
			"-0.01": 4.26191280834,
			"-0.009": 4.52655339751,
			"-0.008": 5.3745765881,
			"-0.007": 6.96723233881,
			"-0.006": 8.54793524933,
			"-0.005": 15.149993018,
			"-0.004": 25.9163105634,
			"-0.003": 35.7363326012,
			"-0.002": 32.952869615,
			"-0.001": 24.1148880966,
			"0.0": 18.7137434601,
			"0.001": 13.80729477,
			"0.002": 12.2780548638,
			"0.003": 10.3690047202,
			"0.004": 10.1630950359,
			"0.005": 10.4703999606,
			"0.006": 10.4357408519,
			"0.007": 6.93263963541,
			"0.008": 4.67652535298,
			"0.009": 5.12192483058,
			"0.01": 4.78700963835,
			"0.011": 5.29980624811,
			"0.012": 5.12127083897,
			"0.013": 6.02825871472,
			"0.014": 4.35896278752,
			"0.015": 0.452893243199,
			"0.016": 0.0,
			"0.017": 0.0,
			"0.018": 0.0,
			"0.019": 0.0,
			"0.02": 0.0,
			"0.021": 0.0,
			"0.022": 0.0,
			"0.023": 0.0,
			"0.024": 0.0,
			"0.025": 0.0
		}
	}
}
