{
	 "smiles": "CSC1=C2C(CC(C)(C)CC2=NO)=CS1", 
	 "Tm": 425.15, 
	 "num_atms": 30, 
	 "gaussian": { 
		 "optdone": 1, 
		 "sigma_profile": "yes", 
		 "theory": "DFT", 
		 "functional": "B3LYP", 
		 "basiset": "6-31G**", 
		 "properties": { 
			 "R2extent": 4276.306, 
			 "electric_dipole_moment_norm": 1.88280204483, 
			 "electric_quadrupole_moment_norm": 12.5569856315, 
			 "total_energy": -1354.5005984, 
			 "HOMO_LUMO_gap": 0.1759, 
			 "cosmo_polarized_energy": -9.94, 
			 "cosmo_cavitation_energy": 33.95, 
			 "cosmo_dispersion_energy": -24.85, 
			 "cosmo_repulsion_energy": 1.85, 
			 "cosmo_total_nonelectrostatic_energy": 10.95, 
			 "SMD_solvation_energy": 5.24 
		},
		"coords": [
			{
				"x": -0.5804230909,
				"y": -1.4209082536,
				"z": 3.5929920671,
				"element": "C" 
			},
			{
				"x": 0.9235539432,
				"y": -0.6862278863,
				"z": 2.8429566246,
				"element": "S" 
			},
			{
				"x": 0.2455421343,
				"y": 0.6485223038,
				"z": 1.9044824105,
				"element": "C" 
			},
			{
				"x": 0.1372036647,
				"y": 0.8151734153,
				"z": 0.5308330736,
				"element": "C" 
			},
			{
				"x": -0.2192022006,
				"y": 2.1684277653,
				"z": 0.1612433049,
				"element": "C" 
			},
			{
				"x": -0.2179787822,
				"y": 2.6715766299,
				"z": -1.2679101481,
				"element": "C" 
			},
			{
				"x": -0.1930961144,
				"y": 1.5558448076,
				"z": -2.3412232265,
				"element": "C" 
			},
			{
				"x": 0.2955360955,
				"y": 2.1426956035,
				"z": -3.6758513437,
				"element": "C" 
			},
			{
				"x": -1.6026212032,
				"y": 0.963451882,
				"z": -2.5320522329,
				"element": "C" 
			},
			{
				"x": 0.8011689193,
				"y": 0.4574195376,
				"z": -1.870296596,
				"element": "C" 
			},
			{
				"x": 0.3371947677,
				"y": -0.1542448857,
				"z": -0.5673473437,
				"element": "C" 
			},
			{
				"x": 0.0165185953,
				"y": -1.3984144688,
				"z": -0.6501107127,
				"element": "N" 
			},
			{
				"x": -0.5961081925,
				"y": -1.9184483284,
				"z": 0.4954730756,
				"element": "O" 
			},
			{
				"x": -0.4498168434,
				"y": 2.9629900144,
				"z": 1.2507797359,
				"element": "C" 
			},
			{
				"x": -0.1498134952,
				"y": 2.1366435078,
				"z": 2.736540616,
				"element": "S" 
			},
			{
				"x": -1.2517473505,
				"y": -1.7552342341,
				"z": 2.8022758605,
				"element": "H" 
			},
			{
				"x": -1.0797105457,
				"y": -0.7064189173,
				"z": 4.250172404,
				"element": "H" 
			},
			{
				"x": -0.2411740172,
				"y": -2.2756165927,
				"z": 4.183912536,
				"element": "H" 
			},
			{
				"x": -1.0740068781,
				"y": 3.335934656,
				"z": -1.439530585,
				"element": "H" 
			},
			{
				"x": 0.6786822176,
				"y": 3.2939132171,
				"z": -1.3990070447,
				"element": "H" 
			},
			{
				"x": 1.3188856378,
				"y": 2.5259976131,
				"z": -3.5928449872,
				"element": "H" 
			},
			{
				"x": -0.3471817465,
				"y": 2.9696545405,
				"z": -3.9990818585,
				"element": "H" 
			},
			{
				"x": 0.2835678456,
				"y": 1.3834160106,
				"z": -4.4654100717,
				"element": "H" 
			},
			{
				"x": -2.2801626439,
				"y": 1.719293811,
				"z": -2.9446476436,
				"element": "H" 
			},
			{
				"x": -1.5802537597,
				"y": 0.1154530131,
				"z": -3.2249626632,
				"element": "H" 
			},
			{
				"x": -2.0299729812,
				"y": 0.6084369063,
				"z": -1.5900544811,
				"element": "H" 
			},
			{
				"x": 1.7954121184,
				"y": 0.9077239578,
				"z": -1.7450907632,
				"element": "H" 
			},
			{
				"x": 0.8795107383,
				"y": -0.3337391912,
				"z": -2.6210611648,
				"element": "H" 
			},
			{
				"x": -0.7255806091,
				"y": -2.8426068465,
				"z": 0.2453362138,
				"element": "H" 
			},
			{
				"x": -0.7517262238,
				"y": 4.0023904118,
				"z": 1.2544849441,
				"element": "H" 
			}
		],
		 "valence_orbital": [ 
			{
				"type": "occ",
				"energy": -0.2715,
				"method": "rhf"
			},
			{
				"type": "occ",
				"energy": -0.26509,
				"method": "rhf"
			},
			{
				"type": "occ",
				"energy": -0.2374,
				"method": "rhf"
			},
			{
				"type": "occ",
				"energy": -0.22415,
				"method": "rhf"
			},
			{
				"type": "occ",
				"energy": -0.21698,
				"method": "rhf"
			},
			{
				"type": "unocc",
				"energy": -0.04108,
				"method": "rhf"
			},
			{
				"type": "unocc",
				"energy": 0.00996,
				"method": "rhf"
			},
			{
				"type": "unocc",
				"energy": 0.02842,
				"method": "rhf"
			},
			{
				"type": "unocc",
				"energy": 0.04699,
				"method": "rhf"
			},
			{
				"type": "unocc",
				"energy": 0.06991,
				"method": "rhf"
			}
		],
		"cosmo_sigma_profile": { 
			"-0.025": 0.0,
			"-0.024": 0.0,
			"-0.023": 0.0,
			"-0.022": 0.0,
			"-0.021": 0.0,
			"-0.02": 0.0,
			"-0.019": 0.0,
			"-0.018": 0.0,
			"-0.017": 0.645045381733,
			"-0.016": 0.778868920241,
			"-0.015": 1.20066736317,
			"-0.014": 0.461372712629,
			"-0.013": 0.624024441666,
			"-0.012": 1.04624929815,
			"-0.011": 0.562063214023,
			"-0.01": 0.644774706935,
			"-0.009": 1.11173451798,
			"-0.008": 2.47101753938,
			"-0.007": 3.03968313243,
			"-0.006": 4.59189826853,
			"-0.005": 6.37940115018,
			"-0.004": 16.1351013094,
			"-0.003": 31.7226153697,
			"-0.002": 30.7989205632,
			"-0.001": 29.3540967131,
			"0.0": 24.3964480097,
			"0.001": 26.4525085137,
			"0.002": 19.2840094332,
			"0.003": 17.6694512812,
			"0.004": 15.0665485049,
			"0.005": 8.93442749646,
			"0.006": 6.14401113771,
			"0.007": 5.93372726821,
			"0.008": 5.00156765218,
			"0.009": 3.49819250646,
			"0.01": 2.30700393091,
			"0.011": 1.48133676613,
			"0.012": 1.3727827983,
			"0.013": 0.802792467363,
			"0.014": 0.15250561709,
			"0.015": 0.0,
			"0.016": 0.0,
			"0.017": 0.0,
			"0.018": 0.0,
			"0.019": 0.0,
			"0.02": 0.0,
			"0.021": 0.0,
			"0.022": 0.0,
			"0.023": 0.0,
			"0.024": 0.0,
			"0.025": 0.0
		}
	}
}
