{
	 "smiles": "FC1=C(Cl)C=C(C=C1)N1C(=O)C=CC1=O", 
	 "Tm": 433.15, 
	 "num_atms": 20, 
	 "gaussian": { 
		 "optdone": 1, 
		 "sigma_profile": "yes", 
		 "theory": "DFT", 
		 "functional": "B3LYP", 
		 "basiset": "6-31G**", 
		 "properties": { 
			 "R2extent": 3936.1204, 
			 "electric_dipole_moment_norm": 3.94797442494, 
			 "electric_quadrupole_moment_norm": 11.1598581084, 
			 "total_energy": -1149.2949922, 
			 "HOMO_LUMO_gap": 0.13276, 
			 "cosmo_polarized_energy": -10.58, 
			 "cosmo_cavitation_energy": 27.99, 
			 "cosmo_dispersion_energy": -20.32, 
			 "cosmo_repulsion_energy": 1.55, 
			 "cosmo_total_nonelectrostatic_energy": 9.23, 
			 "SMD_solvation_energy": 6.61 
		},
		"coords": [
			{
				"x": -3.8933041608,
				"y": 0.3111741192,
				"z": 1.7944741497,
				"element": "F" 
			},
			{
				"x": -2.675761299,
				"y": 0.0516870974,
				"z": 1.2964748109,
				"element": "C" 
			},
			{
				"x": -2.4420324511,
				"y": 0.1771397963,
				"z": -0.0736673675,
				"element": "C" 
			},
			{
				"x": -3.739187553,
				"y": 0.67448026,
				"z": -1.129556016,
				"element": "Cl" 
			},
			{
				"x": -1.1753404836,
				"y": -0.0848720677,
				"z": -0.5899071599,
				"element": "C" 
			},
			{
				"x": -0.1483757629,
				"y": -0.4906025396,
				"z": 0.2708306775,
				"element": "C" 
			},
			{
				"x": -0.3900698934,
				"y": -0.6238076309,
				"z": 1.6437990628,
				"element": "C" 
			},
			{
				"x": -1.6551100762,
				"y": -0.3423100091,
				"z": 2.1525336469,
				"element": "C" 
			},
			{
				"x": 1.1461119577,
				"y": -0.765765526,
				"z": -0.25761908,
				"element": "N" 
			},
			{
				"x": 1.4058046578,
				"y": -1.3751944796,
				"z": -1.5067740661,
				"element": "C" 
			},
			{
				"x": 0.5786157021,
				"y": -1.7455857877,
				"z": -2.3109795997,
				"element": "O" 
			},
			{
				"x": 2.8969145303,
				"y": -1.4598814519,
				"z": -1.6298028347,
				"element": "C" 
			},
			{
				"x": 3.4532710989,
				"y": -0.9327809915,
				"z": -0.5368931275,
				"element": "C" 
			},
			{
				"x": 2.3685351846,
				"y": -0.4698523117,
				"z": 0.3877747278,
				"element": "C" 
			},
			{
				"x": 2.5005238958,
				"y": 0.0500199426,
				"z": 1.4744706185,
				"element": "O" 
			},
			{
				"x": -1.0028251737,
				"y": 0.0090054606,
				"z": -1.653066294,
				"element": "H" 
			},
			{
				"x": 0.4065372839,
				"y": -0.9258631799,
				"z": 2.3100390543,
				"element": "H" 
			},
			{
				"x": -1.8671558065,
				"y": -0.4311654891,
				"z": 3.212262484,
				"element": "H" 
			},
			{
				"x": 3.3661680664,
				"y": -1.8940295258,
				"z": -2.5026211546,
				"element": "H" 
			},
			{
				"x": 4.4981802827,
				"y": -0.8195956856,
				"z": -0.2802725324,
				"element": "H" 
			}
		],
		 "valence_orbital": [ 
			{
				"type": "occ",
				"energy": -0.31359,
				"method": "rhf"
			},
			{
				"type": "occ",
				"energy": -0.30966,
				"method": "rhf"
			},
			{
				"type": "occ",
				"energy": -0.28469,
				"method": "rhf"
			},
			{
				"type": "occ",
				"energy": -0.26351,
				"method": "rhf"
			},
			{
				"type": "occ",
				"energy": -0.24286,
				"method": "rhf"
			},
			{
				"type": "unocc",
				"energy": -0.1101,
				"method": "rhf"
			},
			{
				"type": "unocc",
				"energy": -0.02633,
				"method": "rhf"
			},
			{
				"type": "unocc",
				"energy": -0.02367,
				"method": "rhf"
			},
			{
				"type": "unocc",
				"energy": 0.01941,
				"method": "rhf"
			},
			{
				"type": "unocc",
				"energy": 0.04957,
				"method": "rhf"
			}
		],
		"cosmo_sigma_profile": { 
			"-0.025": 0.0,
			"-0.024": 0.0,
			"-0.023": 0.0,
			"-0.022": 0.0,
			"-0.021": 0.0,
			"-0.02": 0.0,
			"-0.019": 0.0,
			"-0.018": 0.0,
			"-0.017": 0.0,
			"-0.016": 0.0,
			"-0.015": 0.0,
			"-0.014": 0.0,
			"-0.013": 0.0,
			"-0.012": 0.0,
			"-0.011": 0.111193302108,
			"-0.01": 3.23277171026,
			"-0.009": 3.67414938225,
			"-0.008": 5.4755896194,
			"-0.007": 7.80209397699,
			"-0.006": 13.8893557459,
			"-0.005": 12.9102542438,
			"-0.004": 13.079922764,
			"-0.003": 12.7015884027,
			"-0.002": 14.1365584223,
			"-0.001": 17.3840731119,
			"0.0": 20.0532529446,
			"0.001": 20.0709214096,
			"0.002": 15.1084171018,
			"0.003": 18.5662414506,
			"0.004": 18.3082802994,
			"0.005": 5.47748051365,
			"0.006": 3.34686617321,
			"0.007": 3.16462609704,
			"0.008": 4.46145700987,
			"0.009": 4.79110197245,
			"0.01": 7.75311787561,
			"0.011": 3.69457802122,
			"0.012": 0.182857225543,
			"0.013": 0.0,
			"0.014": 0.0,
			"0.015": 0.0,
			"0.016": 0.0,
			"0.017": 0.0,
			"0.018": 0.0,
			"0.019": 0.0,
			"0.02": 0.0,
			"0.021": 0.0,
			"0.022": 0.0,
			"0.023": 0.0,
			"0.024": 0.0,
			"0.025": 0.0
		}
	}
}
