{
	 "smiles": "CC1=CC=C(C=C1)N1C(=O)CSC1=S", 
	 "Tm": 442.15, 
	 "num_atms": 23, 
	 "gaussian": { 
		 "optdone": 1, 
		 "sigma_profile": "yes", 
		 "theory": "DFT", 
		 "functional": "B3LYP", 
		 "basiset": "6-31G**", 
		 "properties": { 
			 "R2extent": 4446.4784, 
			 "electric_dipole_moment_norm": 2.01879969041, 
			 "electric_quadrupole_moment_norm": 16.812755499, 
			 "total_energy": -1312.85481032, 
			 "HOMO_LUMO_gap": 0.16014, 
			 "cosmo_polarized_energy": -13.8, 
			 "cosmo_cavitation_energy": 30.86, 
			 "cosmo_dispersion_energy": -22.49, 
			 "cosmo_repulsion_energy": 1.71, 
			 "cosmo_total_nonelectrostatic_energy": 10.07, 
			 "SMD_solvation_energy": 4.93 
		},
		"coords": [
			{
				"x": -3.4648836691,
				"y": 1.859826483,
				"z": 0.8922622034,
				"element": "C" 
			},
			{
				"x": -2.2424451187,
				"y": 1.308805019,
				"z": 0.1976354905,
				"element": "C" 
			},
			{
				"x": -1.2462590275,
				"y": 2.1645203427,
				"z": -0.2912906355,
				"element": "C" 
			},
			{
				"x": -0.1012880208,
				"y": 1.6609845776,
				"z": -0.9051680205,
				"element": "C" 
			},
			{
				"x": 0.0540969056,
				"y": 0.2828098437,
				"z": -1.0377620678,
				"element": "C" 
			},
			{
				"x": -0.9251794429,
				"y": -0.5899948404,
				"z": -0.5671372932,
				"element": "C" 
			},
			{
				"x": -2.0637917858,
				"y": -0.0733129312,
				"z": 0.0465886118,
				"element": "C" 
			},
			{
				"x": 1.2239779167,
				"y": -0.242736355,
				"z": -1.6985170863,
				"element": "N" 
			},
			{
				"x": 1.2634507602,
				"y": -0.2951035381,
				"z": -3.1039428584,
				"element": "C" 
			},
			{
				"x": 0.3684539163,
				"y": 0.0809145903,
				"z": -3.8243670182,
				"element": "O" 
			},
			{
				"x": 2.5785170685,
				"y": -0.885863147,
				"z": -3.5951367095,
				"element": "C" 
			},
			{
				"x": 3.5773048794,
				"y": -1.2808800393,
				"z": -2.1182237856,
				"element": "S" 
			},
			{
				"x": 2.3318552587,
				"y": -0.7018577218,
				"z": -0.9973407828,
				"element": "C" 
			},
			{
				"x": 2.5255115801,
				"y": -0.729538954,
				"z": 0.633157892,
				"element": "S" 
			},
			{
				"x": -3.7209468375,
				"y": 2.8566214785,
				"z": 0.5216198481,
				"element": "H" 
			},
			{
				"x": -4.3334042523,
				"y": 1.2101906198,
				"z": 0.749494603,
				"element": "H" 
			},
			{
				"x": -3.2966456647,
				"y": 1.946437949,
				"z": 1.9729217626,
				"element": "H" 
			},
			{
				"x": -1.3675452665,
				"y": 3.2398025935,
				"z": -0.1920650002,
				"element": "H" 
			},
			{
				"x": 0.6655389776,
				"y": 2.3302588603,
				"z": -1.2814134162,
				"element": "H" 
			},
			{
				"x": -0.7942726895,
				"y": -1.6611012969,
				"z": -0.6809809985,
				"element": "H" 
			},
			{
				"x": -2.8270042678,
				"y": -0.7551274582,
				"z": 0.4119222751,
				"element": "H" 
			},
			{
				"x": 3.084226571,
				"y": -0.1575637567,
				"z": -4.233970742,
				"element": "H" 
			},
			{
				"x": 2.3711322089,
				"y": -1.7813923186,
				"z": -4.1861862717,
				"element": "H" 
			}
		],
		 "valence_orbital": [ 
			{
				"type": "occ",
				"energy": -0.2786,
				"method": "rhf"
			},
			{
				"type": "occ",
				"energy": -0.26219,
				"method": "rhf"
			},
			{
				"type": "occ",
				"energy": -0.25462,
				"method": "rhf"
			},
			{
				"type": "occ",
				"energy": -0.24491,
				"method": "rhf"
			},
			{
				"type": "occ",
				"energy": -0.22667,
				"method": "rhf"
			},
			{
				"type": "unocc",
				"energy": -0.06653,
				"method": "rhf"
			},
			{
				"type": "unocc",
				"energy": -0.022,
				"method": "rhf"
			},
			{
				"type": "unocc",
				"energy": -0.01243,
				"method": "rhf"
			},
			{
				"type": "unocc",
				"energy": 0.00198,
				"method": "rhf"
			},
			{
				"type": "unocc",
				"energy": 0.00669,
				"method": "rhf"
			}
		],
		"cosmo_sigma_profile": { 
			"-0.025": 0.0,
			"-0.024": 0.0,
			"-0.023": 0.0,
			"-0.022": 0.0,
			"-0.021": 0.0,
			"-0.02": 0.0,
			"-0.019": 0.0,
			"-0.018": 0.0,
			"-0.017": 0.0,
			"-0.016": 0.0,
			"-0.015": 0.0,
			"-0.014": 0.0,
			"-0.013": 0.0,
			"-0.012": 0.0,
			"-0.011": 0.0,
			"-0.01": 3.20749424123,
			"-0.009": 6.64937519484,
			"-0.008": 6.23396528363,
			"-0.007": 12.3211872885,
			"-0.006": 14.6208414412,
			"-0.005": 15.57682228,
			"-0.004": 18.1121869842,
			"-0.003": 13.0496093051,
			"-0.002": 13.8252870969,
			"-0.001": 16.4325100356,
			"0.0": 16.2466384673,
			"0.001": 14.9461315476,
			"0.002": 14.3657603495,
			"0.003": 16.1505615002,
			"0.004": 16.2188426201,
			"0.005": 12.8018883588,
			"0.006": 10.9830742738,
			"0.007": 7.37401736712,
			"0.008": 6.85468410842,
			"0.009": 5.82057108065,
			"0.01": 5.22680944453,
			"0.011": 4.19623300484,
			"0.012": 0.442454265824,
			"0.013": 0.0,
			"0.014": 0.0,
			"0.015": 0.0,
			"0.016": 0.0,
			"0.017": 0.0,
			"0.018": 0.0,
			"0.019": 0.0,
			"0.02": 0.0,
			"0.021": 0.0,
			"0.022": 0.0,
			"0.023": 0.0,
			"0.024": 0.0,
			"0.025": 0.0
		}
	}
}
