{
	 "smiles": "CC1=C(C)N(CC(O)=O)C(=O)S1", 
	 "Tm": 460.15, 
	 "num_atms": 21, 
	 "gaussian": { 
		 "optdone": 1, 
		 "sigma_profile": "yes", 
		 "theory": "DFT", 
		 "functional": "B3LYP", 
		 "basiset": "6-31G**", 
		 "properties": { 
			 "R2extent": 2787.6432, 
			 "electric_dipole_moment_norm": 4.61593961182, 
			 "electric_quadrupole_moment_norm": 12.208429854, 
			 "total_energy": -950.805390818, 
			 "HOMO_LUMO_gap": 0.20368, 
			 "cosmo_polarized_energy": -15.54, 
			 "cosmo_cavitation_energy": 26.57, 
			 "cosmo_dispersion_energy": -19.42, 
			 "cosmo_repulsion_energy": 1.52, 
			 "cosmo_total_nonelectrostatic_energy": 8.67, 
			 "SMD_solvation_energy": 6.57 
		},
		"coords": [
			{
				"x": 1.5261990024,
				"y": 2.9310531997,
				"z": 0.7217411184,
				"element": "C" 
			},
			{
				"x": 0.8113270589,
				"y": 1.6487820076,
				"z": 1.0180280387,
				"element": "C" 
			},
			{
				"x": 0.1154227521,
				"y": 0.8390870088,
				"z": 0.1879569265,
				"element": "C" 
			},
			{
				"x": -0.1278560631,
				"y": 1.0190956949,
				"z": -1.2794260875,
				"element": "C" 
			},
			{
				"x": -0.4190112194,
				"y": -0.2963025204,
				"z": 0.8306611138,
				"element": "N" 
			},
			{
				"x": -1.2378694615,
				"y": -1.3117086277,
				"z": 0.2006925701,
				"element": "C" 
			},
			{
				"x": -2.6872412395,
				"y": -0.9350769007,
				"z": -0.0858469963,
				"element": "C" 
			},
			{
				"x": -3.0664040654,
				"y": 0.2175322015,
				"z": 0.5019256475,
				"element": "O" 
			},
			{
				"x": -3.420577632,
				"y": -1.6190757227,
				"z": -0.761842959,
				"element": "O" 
			},
			{
				"x": -0.1736810258,
				"y": -0.4020978385,
				"z": 2.1930543941,
				"element": "C" 
			},
			{
				"x": -0.5529622925,
				"y": -1.2984750499,
				"z": 2.9213696055,
				"element": "O" 
			},
			{
				"x": 0.8199069022,
				"y": 1.0156320371,
				"z": 2.6740305534,
				"element": "S" 
			},
			{
				"x": 1.1248437838,
				"y": 3.7585910724,
				"z": 1.3183413484,
				"element": "H" 
			},
			{
				"x": 2.5962142849,
				"y": 2.8547105456,
				"z": 0.9480967184,
				"element": "H" 
			},
			{
				"x": 1.4293025267,
				"y": 3.2047857802,
				"z": -0.3313356952,
				"element": "H" 
			},
			{
				"x": 0.2783212202,
				"y": 0.1853499472,
				"z": -1.8644979188,
				"element": "H" 
			},
			{
				"x": 0.3470808765,
				"y": 1.9326230465,
				"z": -1.6377953911,
				"element": "H" 
			},
			{
				"x": -1.1984219113,
				"y": 1.0924812188,
				"z": -1.5019067209,
				"element": "H" 
			},
			{
				"x": -1.2626286384,
				"y": -2.1629796838,
				"z": 0.8881825295,
				"element": "H" 
			},
			{
				"x": -0.7982360066,
				"y": -1.6563618126,
				"z": -0.7384596321,
				"element": "H" 
			},
			{
				"x": -4.0073288521,
				"y": 0.3360543959,
				"z": 0.2869308366,
				"element": "H" 
			}
		],
		 "valence_orbital": [ 
			{
				"type": "occ",
				"energy": -0.3297,
				"method": "rhf"
			},
			{
				"type": "occ",
				"energy": -0.30038,
				"method": "rhf"
			},
			{
				"type": "occ",
				"energy": -0.27543,
				"method": "rhf"
			},
			{
				"type": "occ",
				"energy": -0.26903,
				"method": "rhf"
			},
			{
				"type": "occ",
				"energy": -0.20883,
				"method": "rhf"
			},
			{
				"type": "unocc",
				"energy": -0.00515,
				"method": "rhf"
			},
			{
				"type": "unocc",
				"energy": 0.00763,
				"method": "rhf"
			},
			{
				"type": "unocc",
				"energy": 0.01423,
				"method": "rhf"
			},
			{
				"type": "unocc",
				"energy": 0.03487,
				"method": "rhf"
			},
			{
				"type": "unocc",
				"energy": 0.05766,
				"method": "rhf"
			}
		],
		"cosmo_sigma_profile": { 
			"-0.025": 0.0,
			"-0.024": 0.0,
			"-0.023": 0.0,
			"-0.022": 0.0,
			"-0.021": 0.0,
			"-0.02": 0.0,
			"-0.019": 0.417560634406,
			"-0.018": 1.0628668107,
			"-0.017": 1.08352158025,
			"-0.016": 0.493498847143,
			"-0.015": 0.981941773805,
			"-0.014": 0.616011586656,
			"-0.013": 0.465279720042,
			"-0.012": 0.847237861034,
			"-0.011": 1.20730093874,
			"-0.01": 0.36073434206,
			"-0.009": 2.19290362424,
			"-0.008": 4.87119154057,
			"-0.007": 6.77442189787,
			"-0.006": 9.60726849153,
			"-0.005": 13.5115089342,
			"-0.004": 15.0655806136,
			"-0.003": 16.6724034328,
			"-0.002": 17.6111999387,
			"-0.001": 16.9333995327,
			"0.0": 12.103413134,
			"0.001": 11.8474667899,
			"0.002": 13.1837917648,
			"0.003": 12.7737727955,
			"0.004": 8.41996744282,
			"0.005": 7.86285428012,
			"0.006": 4.14699152141,
			"0.007": 4.15913347472,
			"0.008": 2.75303091039,
			"0.009": 3.24821500188,
			"0.01": 4.12452237589,
			"0.011": 7.56172295148,
			"0.012": 7.6716900843,
			"0.013": 2.15274947103,
			"0.014": 0.0218351147274,
			"0.015": 0.0,
			"0.016": 0.0,
			"0.017": 0.0,
			"0.018": 0.0,
			"0.019": 0.0,
			"0.02": 0.0,
			"0.021": 0.0,
			"0.022": 0.0,
			"0.023": 0.0,
			"0.024": 0.0,
			"0.025": 0.0
		}
	}
}
