{
	 "smiles": "[O-][N+](=O)C1=CC2=C(NC(=O)CN=C2C2=CC=CC=C2Cl)C=C1", 
	 "Tm": 510.15, 
	 "num_atms": 32, 
	 "gaussian": { 
		 "optdone": 1, 
		 "sigma_profile": "yes", 
		 "theory": "DFT", 
		 "functional": "B3LYP", 
		 "basiset": "6-31G**", 
		 "properties": { 
			 "R2extent": 7136.8869, 
			 "electric_dipole_moment_norm": 2.57587294135, 
			 "electric_quadrupole_moment_norm": 37.0727925038, 
			 "total_energy": -1427.63863352, 
			 "HOMO_LUMO_gap": 0.15579, 
			 "cosmo_polarized_energy": -20.91, 
			 "cosmo_cavitation_energy": 39.28, 
			 "cosmo_dispersion_energy": -27.18, 
			 "cosmo_repulsion_energy": 2.08, 
			 "cosmo_total_nonelectrostatic_energy": 14.18, 
			 "SMD_solvation_energy": 6.73 
		},
		"coords": [
			{
				"x": 0.3532327416,
				"y": -1.8865348948,
				"z": -3.9776701132,
				"element": "O" 
			},
			{
				"x": 1.1005849557,
				"y": -2.5109810595,
				"z": -3.2257145717,
				"element": "N" 
			},
			{
				"x": 1.8704255457,
				"y": -3.4042136722,
				"z": -3.580525979,
				"element": "O" 
			},
			{
				"x": 1.0766571047,
				"y": -2.1671837374,
				"z": -1.7996433879,
				"element": "C" 
			},
			{
				"x": 0.2473285589,
				"y": -1.1454196977,
				"z": -1.362482318,
				"element": "C" 
			},
			{
				"x": 0.1929244832,
				"y": -0.8021963138,
				"z": -0.0035267724,
				"element": "C" 
			},
			{
				"x": 1.0080475313,
				"y": -1.5247068833,
				"z": 0.9070648362,
				"element": "C" 
			},
			{
				"x": 1.0526902985,
				"y": -1.2309397536,
				"z": 2.2699134943,
				"element": "N" 
			},
			{
				"x": -0.0028411409,
				"y": -0.9043267517,
				"z": 3.124728414,
				"element": "C" 
			},
			{
				"x": 0.1763506275,
				"y": -0.8331352484,
				"z": 4.3230459685,
				"element": "O" 
			},
			{
				"x": -1.3411200484,
				"y": -0.6839581134,
				"z": 2.4317516962,
				"element": "C" 
			},
			{
				"x": -1.3027367095,
				"y": 0.4477002675,
				"z": 1.5187338859,
				"element": "N" 
			},
			{
				"x": -0.649496377,
				"y": 0.3523837497,
				"z": 0.4212452628,
				"element": "C" 
			},
			{
				"x": -0.7068202088,
				"y": 1.5265375735,
				"z": -0.5113946758,
				"element": "C" 
			},
			{
				"x": 0.4926686099,
				"y": 2.1472615451,
				"z": -0.8975639455,
				"element": "C" 
			},
			{
				"x": 0.5014401678,
				"y": 3.2796332222,
				"z": -1.7071746377,
				"element": "C" 
			},
			{
				"x": -0.7059329565,
				"y": 3.8059668361,
				"z": -2.1675443462,
				"element": "C" 
			},
			{
				"x": -1.9102078748,
				"y": 3.1974585056,
				"z": -1.8189274729,
				"element": "C" 
			},
			{
				"x": -1.9091169716,
				"y": 2.0698481222,
				"z": -0.9957680109,
				"element": "C" 
			},
			{
				"x": -3.460981629,
				"y": 1.3270791302,
				"z": -0.6432062621,
				"element": "Cl" 
			},
			{
				"x": 1.8661581832,
				"y": -2.5355399995,
				"z": 0.426008361,
				"element": "C" 
			},
			{
				"x": 1.9064616757,
				"y": -2.863139437,
				"z": -0.9169406893,
				"element": "C" 
			},
			{
				"x": -0.3508881837,
				"y": -0.6077802161,
				"z": -2.087245853,
				"element": "H" 
			},
			{
				"x": 1.8764093297,
				"y": -1.5328999536,
				"z": 2.7774480499,
				"element": "H" 
			},
			{
				"x": -2.0750959587,
				"y": -0.4903059738,
				"z": 3.2141200297,
				"element": "H" 
			},
			{
				"x": -1.6164651894,
				"y": -1.6146167415,
				"z": 1.9105799563,
				"element": "H" 
			},
			{
				"x": 1.4301626393,
				"y": 1.7339745658,
				"z": -0.5373868351,
				"element": "H" 
			},
			{
				"x": 1.4436041921,
				"y": 3.7453989954,
				"z": -1.9781276702,
				"element": "H" 
			},
			{
				"x": -0.7156258005,
				"y": 4.684953501,
				"z": -2.80481005,
				"element": "H" 
			},
			{
				"x": -2.8543776596,
				"y": 3.5860605331,
				"z": -2.1837240476,
				"element": "H" 
			},
			{
				"x": 2.4937338456,
				"y": -3.0717001807,
				"z": 1.1319307688,
				"element": "H" 
			},
			{
				"x": 2.5538262179,
				"y": -3.644677919,
				"z": -1.294093085,
				"element": "H" 
			}
		],
		 "valence_orbital": [ 
			{
				"type": "occ",
				"energy": -0.28323,
				"method": "rhf"
			},
			{
				"type": "occ",
				"energy": -0.26911,
				"method": "rhf"
			},
			{
				"type": "occ",
				"energy": -0.2627,
				"method": "rhf"
			},
			{
				"type": "occ",
				"energy": -0.25792,
				"method": "rhf"
			},
			{
				"type": "occ",
				"energy": -0.25366,
				"method": "rhf"
			},
			{
				"type": "unocc",
				"energy": -0.09787,
				"method": "rhf"
			},
			{
				"type": "unocc",
				"energy": -0.07312,
				"method": "rhf"
			},
			{
				"type": "unocc",
				"energy": -0.03816,
				"method": "rhf"
			},
			{
				"type": "unocc",
				"energy": -0.02701,
				"method": "rhf"
			},
			{
				"type": "unocc",
				"energy": -0.02042,
				"method": "rhf"
			}
		],
		"cosmo_sigma_profile": { 
			"-0.025": 0.0,
			"-0.024": 0.0,
			"-0.023": 0.0,
			"-0.022": 0.0,
			"-0.021": 0.0,
			"-0.02": 0.0,
			"-0.019": 0.0,
			"-0.018": 0.0,
			"-0.017": 0.0278361852103,
			"-0.016": 0.977656425071,
			"-0.015": 1.43686211649,
			"-0.014": 0.935261025546,
			"-0.013": 1.44141607266,
			"-0.012": 0.861044493707,
			"-0.011": 2.05495499513,
			"-0.01": 1.39499986335,
			"-0.009": 1.70746489788,
			"-0.008": 5.34599383901,
			"-0.007": 14.6490151358,
			"-0.006": 20.6706475045,
			"-0.005": 20.5782769438,
			"-0.004": 19.1946162293,
			"-0.003": 19.105201787,
			"-0.002": 23.3336905128,
			"-0.001": 25.2395002376,
			"0.0": 22.9218713853,
			"0.001": 17.3325263967,
			"0.002": 19.1101030632,
			"0.003": 20.6283267574,
			"0.004": 15.5994975064,
			"0.005": 9.16723478918,
			"0.006": 6.40502459317,
			"0.007": 11.3042444161,
			"0.008": 9.65786975869,
			"0.009": 7.62786302177,
			"0.01": 6.10803218907,
			"0.011": 4.49998230115,
			"0.012": 5.98730528762,
			"0.013": 1.47249304262,
			"0.014": 0.91594894862,
			"0.015": 0.244188359128,
			"0.016": 0.0,
			"0.017": 0.0,
			"0.018": 0.0,
			"0.019": 0.0,
			"0.02": 0.0,
			"0.021": 0.0,
			"0.022": 0.0,
			"0.023": 0.0,
			"0.024": 0.0,
			"0.025": 0.0
		}
	}
}
