{
	 "smiles": "OC(=O)C1=CC2=C(S1)C=CS2", 
	 "Tm": 495.15, 
	 "num_atms": 15, 
	 "gaussian": { 
		 "optdone": 1, 
		 "sigma_profile": "yes", 
		 "theory": "DFT", 
		 "functional": "B3LYP", 
		 "basiset": "6-31G**", 
		 "properties": { 
			 "R2extent": 3023.7502, 
			 "electric_dipole_moment_norm": 5.1625802357, 
			 "electric_quadrupole_moment_norm": 9.46501124775, 
			 "total_energy": -1215.96176242, 
			 "HOMO_LUMO_gap": 0.16673, 
			 "cosmo_polarized_energy": -15.8, 
			 "cosmo_cavitation_energy": 23.13, 
			 "cosmo_dispersion_energy": -18.47, 
			 "cosmo_repulsion_energy": 1.37, 
			 "cosmo_total_nonelectrostatic_energy": 6.02, 
			 "SMD_solvation_energy": 4.6 
		},
		"coords": [
			{
				"x": -0.3918619865,
				"y": 2.5002915734,
				"z": -0.8820873006,
				"element": "O" 
			},
			{
				"x": 0.4385019432,
				"y": 1.6268612524,
				"z": -0.2519145204,
				"element": "C" 
			},
			{
				"x": 1.2567211407,
				"y": 2.0287616128,
				"z": 0.5442031491,
				"element": "O" 
			},
			{
				"x": 0.2854546632,
				"y": 0.1976902031,
				"z": -0.592748116,
				"element": "C" 
			},
			{
				"x": -0.4498622772,
				"y": -0.408166123,
				"z": -1.5896843327,
				"element": "C" 
			},
			{
				"x": -0.2907969892,
				"y": -1.8153158385,
				"z": -1.5695293857,
				"element": "C" 
			},
			{
				"x": 0.56545971,
				"y": -2.2717210426,
				"z": -0.5653020384,
				"element": "C" 
			},
			{
				"x": 1.1979446103,
				"y": -0.9529536271,
				"z": 0.3726683395,
				"element": "S" 
			},
			{
				"x": 0.725865671,
				"y": -3.6881247333,
				"z": -0.5453370233,
				"element": "C" 
			},
			{
				"x": -0.008586928,
				"y": -4.2809066365,
				"z": -1.5344397571,
				"element": "C" 
			},
			{
				"x": -0.9107728893,
				"y": -3.1467833084,
				"z": -2.5131205303,
				"element": "S" 
			},
			{
				"x": -1.0709779793,
				"y": 2.0287508616,
				"z": -1.3832782447,
				"element": "H" 
			},
			{
				"x": -1.0543510436,
				"y": 0.1223140598,
				"z": -2.3179363337,
				"element": "H" 
			},
			{
				"x": 1.345063264,
				"y": -4.2360282591,
				"z": 0.1540406709,
				"element": "H" 
			},
			{
				"x": -0.0796009091,
				"y": -5.3369699948,
				"z": -1.7567345766,
				"element": "H" 
			}
		],
		 "valence_orbital": [ 
			{
				"type": "occ",
				"energy": -0.3183,
				"method": "rhf"
			},
			{
				"type": "occ",
				"energy": -0.30113,
				"method": "rhf"
			},
			{
				"type": "occ",
				"energy": -0.28038,
				"method": "rhf"
			},
			{
				"type": "occ",
				"energy": -0.24792,
				"method": "rhf"
			},
			{
				"type": "occ",
				"energy": -0.23729,
				"method": "rhf"
			},
			{
				"type": "unocc",
				"energy": -0.07056,
				"method": "rhf"
			},
			{
				"type": "unocc",
				"energy": -0.00439,
				"method": "rhf"
			},
			{
				"type": "unocc",
				"energy": 0.00281,
				"method": "rhf"
			},
			{
				"type": "unocc",
				"energy": 0.01425,
				"method": "rhf"
			},
			{
				"type": "unocc",
				"energy": 0.04618,
				"method": "rhf"
			}
		],
		"cosmo_sigma_profile": { 
			"-0.025": 0.0,
			"-0.024": 0.0,
			"-0.023": 0.0,
			"-0.022": 0.0,
			"-0.021": 0.0,
			"-0.02": 0.193162829744,
			"-0.019": 0.966486720251,
			"-0.018": 1.47531465379,
			"-0.017": 0.616360637824,
			"-0.016": 0.826323392378,
			"-0.015": 0.885382693445,
			"-0.014": 0.641194105437,
			"-0.013": 2.02602909641,
			"-0.012": 1.31875729837,
			"-0.011": 0.888863556288,
			"-0.01": 2.55405773412,
			"-0.009": 4.17766664345,
			"-0.008": 6.3321721381,
			"-0.007": 7.21037753426,
			"-0.006": 6.55586888157,
			"-0.005": 5.69125124007,
			"-0.004": 7.73255261315,
			"-0.003": 6.66028192778,
			"-0.002": 8.57210020275,
			"-0.001": 9.71481032514,
			"0.0": 10.9470967529,
			"0.001": 19.4788713562,
			"0.002": 26.8026718958,
			"0.003": 18.4626787837,
			"0.004": 9.80816216807,
			"0.005": 2.84941603051,
			"0.006": 3.11326839004,
			"0.007": 2.3790047125,
			"0.008": 2.37300814652,
			"0.009": 4.13303704607,
			"0.01": 4.63325683054,
			"0.011": 5.5323091959,
			"0.012": 4.45379020435,
			"0.013": 1.34403708849,
			"0.014": 0.00812194812201,
			"0.015": 0.0,
			"0.016": 0.0,
			"0.017": 0.0,
			"0.018": 0.0,
			"0.019": 0.0,
			"0.02": 0.0,
			"0.021": 0.0,
			"0.022": 0.0,
			"0.023": 0.0,
			"0.024": 0.0,
			"0.025": 0.0
		}
	}
}
