{
	 "smiles": "OC(=O)CCC1=C(F)C=C(Br)C=C1", 
	 "Tm": 371.15, 
	 "num_atms": 21, 
	 "gaussian": { 
		 "optdone": 1, 
		 "sigma_profile": "yes", 
		 "theory": "DFT", 
		 "functional": "B3LYP", 
		 "basiset": "6-31G**", 
		 "properties": { 
			 "R2extent": 4707.9989, 
			 "electric_dipole_moment_norm": 2.66567833206, 
			 "electric_quadrupole_moment_norm": 10.1602455664, 
			 "total_energy": -3169.48615081, 
			 "HOMO_LUMO_gap": 0.21872, 
			 "cosmo_polarized_energy": -11.24, 
			 "cosmo_cavitation_energy": 28.27, 
			 "cosmo_dispersion_energy": -20.29, 
			 "cosmo_repulsion_energy": 1.61, 
			 "cosmo_total_nonelectrostatic_energy": 9.58, 
			 "SMD_solvation_energy": 4.86 
		},
		"coords": [
			{
				"x": -2.0263785633,
				"y": 2.9967156438,
				"z": 0.1031058925,
				"element": "O" 
			},
			{
				"x": -2.2107485214,
				"y": 1.7527150552,
				"z": -0.4037905707,
				"element": "C" 
			},
			{
				"x": -1.8009888459,
				"y": 1.4226566483,
				"z": -1.493891421,
				"element": "O" 
			},
			{
				"x": -2.967436608,
				"y": 0.8670313913,
				"z": 0.5631235927,
				"element": "C" 
			},
			{
				"x": -2.1051423351,
				"y": 0.410596995,
				"z": 1.7699652511,
				"element": "C" 
			},
			{
				"x": -0.9840959216,
				"y": -0.534550097,
				"z": 1.4023550118,
				"element": "C" 
			},
			{
				"x": 0.2551647674,
				"y": -0.0572679941,
				"z": 0.9707562879,
				"element": "C" 
			},
			{
				"x": 0.4408452709,
				"y": 1.2810184809,
				"z": 0.9003342486,
				"element": "F" 
			},
			{
				"x": 1.3140682384,
				"y": -0.8820724244,
				"z": 0.6142318351,
				"element": "C" 
			},
			{
				"x": 1.1209220373,
				"y": -2.2593458675,
				"z": 0.691959596,
				"element": "C" 
			},
			{
				"x": 2.5518362182,
				"y": -3.4282922411,
				"z": 0.2120703997,
				"element": "Br" 
			},
			{
				"x": -0.0942804489,
				"y": -2.7944258467,
				"z": 1.1153306323,
				"element": "C" 
			},
			{
				"x": -1.1284639222,
				"y": -1.9257355095,
				"z": 1.4656020944,
				"element": "C" 
			},
			{
				"x": -1.4931801023,
				"y": 3.478321699,
				"z": -0.5512686842,
				"element": "H" 
			},
			{
				"x": -3.8289128398,
				"y": 1.4261683924,
				"z": 0.9431613584,
				"element": "H" 
			},
			{
				"x": -3.326624381,
				"y": 0.0007049186,
				"z": 0.0036859863,
				"element": "H" 
			},
			{
				"x": -1.701726298,
				"y": 1.2968143727,
				"z": 2.2683075786,
				"element": "H" 
			},
			{
				"x": -2.7675079207,
				"y": -0.0893276906,
				"z": 2.4838398739,
				"element": "H" 
			},
			{
				"x": 2.2515837772,
				"y": -0.4498523247,
				"z": 0.2878121515,
				"element": "H" 
			},
			{
				"x": -0.2286990169,
				"y": -3.8678615604,
				"z": 1.1741950361,
				"element": "H" 
			},
			{
				"x": -2.0750345844,
				"y": -2.3406120413,
				"z": 1.8024138492,
				"element": "H" 
			}
		],
		 "valence_orbital": [ 
			{
				"type": "occ",
				"energy": -0.31061,
				"method": "rhf"
			},
			{
				"type": "occ",
				"energy": -0.29118,
				"method": "rhf"
			},
			{
				"type": "occ",
				"energy": -0.27261,
				"method": "rhf"
			},
			{
				"type": "occ",
				"energy": -0.26279,
				"method": "rhf"
			},
			{
				"type": "occ",
				"energy": -0.24317,
				"method": "rhf"
			},
			{
				"type": "unocc",
				"energy": -0.02445,
				"method": "rhf"
			},
			{
				"type": "unocc",
				"energy": -0.01339,
				"method": "rhf"
			},
			{
				"type": "unocc",
				"energy": 0.00118,
				"method": "rhf"
			},
			{
				"type": "unocc",
				"energy": 0.00714,
				"method": "rhf"
			},
			{
				"type": "unocc",
				"energy": 0.07576,
				"method": "rhf"
			}
		],
		"cosmo_sigma_profile": { 
			"-0.025": 0.0,
			"-0.024": 0.0,
			"-0.023": 0.0,
			"-0.022": 0.0,
			"-0.021": 0.0,
			"-0.02": 0.0,
			"-0.019": 0.0,
			"-0.018": 0.512733986284,
			"-0.017": 0.833478717978,
			"-0.016": 1.11433887193,
			"-0.015": 0.842875160102,
			"-0.014": 0.698486351144,
			"-0.013": 0.308834664067,
			"-0.012": 0.333928147086,
			"-0.011": 0.852553770996,
			"-0.01": 0.913887938472,
			"-0.009": 0.856262511598,
			"-0.008": 2.03596707231,
			"-0.007": 6.3358084885,
			"-0.006": 10.9308926073,
			"-0.005": 15.1550042438,
			"-0.004": 16.7599244558,
			"-0.003": 15.3185077132,
			"-0.002": 16.0565828893,
			"-0.001": 13.1741510933,
			"0.0": 13.5814200525,
			"0.001": 17.4457530704,
			"0.002": 22.0411240478,
			"0.003": 21.1856776929,
			"0.004": 20.955845824,
			"0.005": 8.41536415928,
			"0.006": 2.44089515433,
			"0.007": 2.19989454128,
			"0.008": 2.72548322957,
			"0.009": 3.23270137256,
			"0.01": 2.06308238309,
			"0.011": 3.2139930237,
			"0.012": 4.53495595407,
			"0.013": 1.08961855545,
			"0.014": 0.00244783280245,
			"0.015": 0.0,
			"0.016": 0.0,
			"0.017": 0.0,
			"0.018": 0.0,
			"0.019": 0.0,
			"0.02": 0.0,
			"0.021": 0.0,
			"0.022": 0.0,
			"0.023": 0.0,
			"0.024": 0.0,
			"0.025": 0.0
		}
	}
}
