{
	 "smiles": "CCOC(=O)C1=C(C)C(C(O)=O)=C(C)N1", 
	 "Tm": 377.15, 
	 "num_atms": 28, 
	 "gaussian": { 
		 "optdone": 1, 
		 "sigma_profile": "yes", 
		 "theory": "DFT", 
		 "functional": "B3LYP", 
		 "basiset": "6-31G**", 
		 "properties": { 
			 "R2extent": 4480.6299, 
			 "electric_dipole_moment_norm": 4.47605636359, 
			 "electric_quadrupole_moment_norm": 28.3771313822, 
			 "total_energy": -744.58734844, 
			 "HOMO_LUMO_gap": 0.19847, 
			 "cosmo_polarized_energy": -18.93, 
			 "cosmo_cavitation_energy": 31.89, 
			 "cosmo_dispersion_energy": -22.89, 
			 "cosmo_repulsion_energy": 1.82, 
			 "cosmo_total_nonelectrostatic_energy": 10.82, 
			 "SMD_solvation_energy": 7.45 
		},
		"coords": [
			{
				"x": -3.1118442827,
				"y": 1.358106578,
				"z": -2.0734617801,
				"element": "C" 
			},
			{
				"x": -2.9448249048,
				"y": -0.0573918212,
				"z": -1.5422791258,
				"element": "C" 
			},
			{
				"x": -1.5495785754,
				"y": -0.373281916,
				"z": -1.3105819812,
				"element": "O" 
			},
			{
				"x": -1.0389981785,
				"y": 0.002076904,
				"z": -0.1205627947,
				"element": "C" 
			},
			{
				"x": -1.6803217964,
				"y": 0.5740287129,
				"z": 0.7515771828,
				"element": "O" 
			},
			{
				"x": 0.3708858748,
				"y": -0.341610059,
				"z": 0.0539412492,
				"element": "C" 
			},
			{
				"x": 1.3547962371,
				"y": -0.9728093068,
				"z": -0.6979898362,
				"element": "C" 
			},
			{
				"x": 1.2324793958,
				"y": -1.5553712384,
				"z": -2.0731378845,
				"element": "C" 
			},
			{
				"x": 2.5396722635,
				"y": -0.9612248836,
				"z": 0.1097111999,
				"element": "C" 
			},
			{
				"x": 3.8206972646,
				"y": -1.5691226136,
				"z": -0.2993561562,
				"element": "C" 
			},
			{
				"x": 4.9470124964,
				"y": -1.1315088933,
				"z": 0.3479884942,
				"element": "O" 
			},
			{
				"x": 3.9284884859,
				"y": -2.4204303961,
				"z": -1.1531604551,
				"element": "O" 
			},
			{
				"x": 2.2302823828,
				"y": -0.3422741394,
				"z": 1.3326129144,
				"element": "C" 
			},
			{
				"x": 3.0460804801,
				"y": -0.0875653283,
				"z": 2.5646829893,
				"element": "C" 
			},
			{
				"x": 0.9291641497,
				"y": 0.019439267,
				"z": 1.2700318587,
				"element": "N" 
			},
			{
				"x": -2.5211679395,
				"y": 1.5059263139,
				"z": -2.9822725105,
				"element": "H" 
			},
			{
				"x": -2.7991775478,
				"y": 2.0887472228,
				"z": -1.323650748,
				"element": "H" 
			},
			{
				"x": -4.1643913387,
				"y": 1.5414766543,
				"z": -2.3139699517,
				"element": "H" 
			},
			{
				"x": -3.4962930969,
				"y": -0.197747214,
				"z": -0.6100024971,
				"element": "H" 
			},
			{
				"x": -3.2695087094,
				"y": -0.8015008508,
				"z": -2.2731121803,
				"element": "H" 
			},
			{
				"x": 1.3501537384,
				"y": -2.642633642,
				"z": -2.0383394253,
				"element": "H" 
			},
			{
				"x": 2.0329189782,
				"y": -1.1881175518,
				"z": -2.7222254713,
				"element": "H" 
			},
			{
				"x": 0.2671905474,
				"y": -1.3121168103,
				"z": -2.5151810129,
				"element": "H" 
			},
			{
				"x": 4.7549825442,
				"y": -0.3169001498,
				"z": 0.830430768,
				"element": "H" 
			},
			{
				"x": 2.4069935772,
				"y": -0.0562149748,
				"z": 3.4521544767,
				"element": "H" 
			},
			{
				"x": 3.7854796266,
				"y": -0.8775890874,
				"z": 2.716837948,
				"element": "H" 
			},
			{
				"x": 3.5777829279,
				"y": 0.873085647,
				"z": 2.5211870746,
				"element": "H" 
			},
			{
				"x": 0.3787453995,
				"y": 0.4720235766,
				"z": 1.987227655,
				"element": "H" 
			}
		],
		 "valence_orbital": [ 
			{
				"type": "occ",
				"energy": -0.30274,
				"method": "rhf"
			},
			{
				"type": "occ",
				"energy": -0.28329,
				"method": "rhf"
			},
			{
				"type": "occ",
				"energy": -0.26621,
				"method": "rhf"
			},
			{
				"type": "occ",
				"energy": -0.25408,
				"method": "rhf"
			},
			{
				"type": "occ",
				"energy": -0.23159,
				"method": "rhf"
			},
			{
				"type": "unocc",
				"energy": -0.03312,
				"method": "rhf"
			},
			{
				"type": "unocc",
				"energy": -0.01733,
				"method": "rhf"
			},
			{
				"type": "unocc",
				"energy": 0.05504,
				"method": "rhf"
			},
			{
				"type": "unocc",
				"energy": 0.08066,
				"method": "rhf"
			},
			{
				"type": "unocc",
				"energy": 0.09439,
				"method": "rhf"
			}
		],
		"cosmo_sigma_profile": { 
			"-0.025": 0.0,
			"-0.024": 0.0,
			"-0.023": 0.0,
			"-0.022": 0.0,
			"-0.021": 0.0,
			"-0.02": 0.0,
			"-0.019": 0.0,
			"-0.018": 0.0,
			"-0.017": 0.376250038134,
			"-0.016": 0.586571091704,
			"-0.015": 2.32985826137,
			"-0.014": 1.57493235075,
			"-0.013": 1.51566270831,
			"-0.012": 1.92351798879,
			"-0.011": 2.51797435506,
			"-0.01": 1.93179864538,
			"-0.009": 2.16939880695,
			"-0.008": 2.88576914005,
			"-0.007": 3.46017329821,
			"-0.006": 7.90123714271,
			"-0.005": 12.5890687059,
			"-0.004": 19.4215515887,
			"-0.003": 21.6315718417,
			"-0.002": 24.5347655668,
			"-0.001": 21.4031899078,
			"0.0": 25.6580388424,
			"0.001": 16.6410021688,
			"0.002": 13.9007967122,
			"0.003": 12.2706155356,
			"0.004": 7.9342170588,
			"0.005": 5.72988381529,
			"0.006": 3.85764817611,
			"0.007": 4.12597965114,
			"0.008": 3.86945040987,
			"0.009": 4.1369435933,
			"0.01": 4.89034030774,
			"0.011": 6.79889742489,
			"0.012": 8.75126867621,
			"0.013": 3.71656844426,
			"0.014": 0.887270726032,
			"0.015": 0.0,
			"0.016": 0.0,
			"0.017": 0.0,
			"0.018": 0.0,
			"0.019": 0.0,
			"0.02": 0.0,
			"0.021": 0.0,
			"0.022": 0.0,
			"0.023": 0.0,
			"0.024": 0.0,
			"0.025": 0.0
		}
	}
}
