{
	 "smiles": "O=C1OC(C2COC3(CCCCC3)O2)C2OC3(CCCCC3)OC12", 
	 "Tm": 385.15, 
	 "num_atms": 50, 
	 "gaussian": { 
		 "optdone": 1, 
		 "sigma_profile": "yes", 
		 "theory": "DFT", 
		 "functional": "B3LYP", 
		 "basiset": "6-31G**", 
		 "properties": { 
			 "R2extent": 7916.5252, 
			 "electric_dipole_moment_norm": 4.08927857818, 
			 "electric_quadrupole_moment_norm": 18.8937888487, 
			 "total_energy": -1152.91261451, 
			 "HOMO_LUMO_gap": 0.24542, 
			 "cosmo_polarized_energy": -19.37, 
			 "cosmo_cavitation_energy": 46.81, 
			 "cosmo_dispersion_energy": -31.66, 
			 "cosmo_repulsion_energy": 2.39, 
			 "cosmo_total_nonelectrostatic_energy": 17.54, 
			 "SMD_solvation_energy": 6.42 
		},
		"coords": [
			{
				"x": -1.6257170079,
				"y": -1.5077329378,
				"z": -3.0539413868,
				"element": "O" 
			},
			{
				"x": -1.3191904325,
				"y": -0.4302181503,
				"z": -2.6209829082,
				"element": "C" 
			},
			{
				"x": -2.2045291166,
				"y": 0.403637124,
				"z": -2.0044797129,
				"element": "O" 
			},
			{
				"x": -1.5530313845,
				"y": 1.6208544606,
				"z": -1.5724188966,
				"element": "C" 
			},
			{
				"x": -2.2802768759,
				"y": 2.1834561115,
				"z": -0.3510049762,
				"element": "C" 
			},
			{
				"x": -1.7188160064,
				"y": 3.5547541741,
				"z": 0.1073810076,
				"element": "C" 
			},
			{
				"x": -1.0172039627,
				"y": 3.250210651,
				"z": 1.2989042419,
				"element": "O" 
			},
			{
				"x": -1.6960607579,
				"y": 2.1522478002,
				"z": 1.8991437751,
				"element": "C" 
			},
			{
				"x": -0.7105872098,
				"y": 1.3286433399,
				"z": 2.7143348592,
				"element": "C" 
			},
			{
				"x": -1.3668780238,
				"y": 0.0401248795,
				"z": 3.2640547628,
				"element": "C" 
			},
			{
				"x": -2.8755608085,
				"y": 0.2168590372,
				"z": 3.5597557849,
				"element": "C" 
			},
			{
				"x": -3.1962421055,
				"y": 1.6687398913,
				"z": 3.9386377644,
				"element": "C" 
			},
			{
				"x": -2.8881744939,
				"y": 2.6309211607,
				"z": 2.7676873758,
				"element": "C" 
			},
			{
				"x": -2.1651019728,
				"y": 1.358028402,
				"z": 0.7934461765,
				"element": "O" 
			},
			{
				"x": -0.0535711971,
				"y": 1.2898573755,
				"z": -1.5384976905,
				"element": "C" 
			},
			{
				"x": 0.351597265,
				"y": 0.5309485825,
				"z": -0.4111676689,
				"element": "O" 
			},
			{
				"x": 1.2511882848,
				"y": -0.5141885798,
				"z": -0.8308236296,
				"element": "C" 
			},
			{
				"x": 0.7928985355,
				"y": -1.8234527885,
				"z": -0.1691583995,
				"element": "C" 
			},
			{
				"x": 1.9594874872,
				"y": -2.808377899,
				"z": -0.0237378963,
				"element": "C" 
			},
			{
				"x": 3.0549725976,
				"y": -2.2496610325,
				"z": 0.9173046916,
				"element": "C" 
			},
			{
				"x": 3.1259937842,
				"y": -0.7035052872,
				"z": 0.8727281261,
				"element": "C" 
			},
			{
				"x": 2.715632192,
				"y": -0.170671236,
				"z": -0.5054215668,
				"element": "C" 
			},
			{
				"x": 1.1330116186,
				"y": -0.5821978305,
				"z": -2.2674236379,
				"element": "O" 
			},
			{
				"x": 0.0699551341,
				"y": 0.2488620849,
				"z": -2.650316989,
				"element": "C" 
			},
			{
				"x": -1.6871120184,
				"y": 2.36558578,
				"z": -2.3735187698,
				"element": "H" 
			},
			{
				"x": -3.336701866,
				"y": 2.2704138983,
				"z": -0.6411491854,
				"element": "H" 
			},
			{
				"x": -1.016451936,
				"y": 4.0059176029,
				"z": -0.6003589526,
				"element": "H" 
			},
			{
				"x": -2.5343280965,
				"y": 4.2695683048,
				"z": 0.2857849559,
				"element": "H" 
			},
			{
				"x": -0.3629286533,
				"y": 1.9639393702,
				"z": 3.5372895134,
				"element": "H" 
			},
			{
				"x": 0.1488664396,
				"y": 1.1027025261,
				"z": 2.0808173558,
				"element": "H" 
			},
			{
				"x": -1.2342331868,
				"y": -0.7722034001,
				"z": 2.5432179992,
				"element": "H" 
			},
			{
				"x": -0.8377601824,
				"y": -0.2580496853,
				"z": 4.1766369969,
				"element": "H" 
			},
			{
				"x": -3.4532923462,
				"y": -0.0498947781,
				"z": 2.6677098367,
				"element": "H" 
			},
			{
				"x": -3.1874675837,
				"y": -0.4668812364,
				"z": 4.3569301074,
				"element": "H" 
			},
			{
				"x": -2.600220345,
				"y": 1.952271238,
				"z": 4.8160611598,
				"element": "H" 
			},
			{
				"x": -4.2454068884,
				"y": 1.7713046842,
				"z": 4.2366345905,
				"element": "H" 
			},
			{
				"x": -3.7685862891,
				"y": 2.7314889133,
				"z": 2.1235898324,
				"element": "H" 
			},
			{
				"x": -2.6459663663,
				"y": 3.6280965001,
				"z": 3.1506320154,
				"element": "H" 
			},
			{
				"x": 0.5672037825,
				"y": 2.1849029705,
				"z": -1.6727825012,
				"element": "H" 
			},
			{
				"x": 0.3832893961,
				"y": -1.5755335295,
				"z": 0.8164701114,
				"element": "H" 
			},
			{
				"x": -0.0201862776,
				"y": -2.2461398302,
				"z": -0.7654188273,
				"element": "H" 
			},
			{
				"x": 1.5943212555,
				"y": -3.7721367786,
				"z": 0.345537299,
				"element": "H" 
			},
			{
				"x": 2.3787804506,
				"y": -3.00330752,
				"z": -1.0181742674,
				"element": "H" 
			},
			{
				"x": 2.8643336145,
				"y": -2.572219653,
				"z": 1.9474198478,
				"element": "H" 
			},
			{
				"x": 4.0251160198,
				"y": -2.6760994881,
				"z": 0.6369083066,
				"element": "H" 
			},
			{
				"x": 2.4594833462,
				"y": -0.2736475631,
				"z": 1.6304471728,
				"element": "H" 
			},
			{
				"x": 4.1343267705,
				"y": -0.3593508288,
				"z": 1.1257852118,
				"element": "H" 
			},
			{
				"x": 2.8441874597,
				"y": 0.914428402,
				"z": -0.5750833005,
				"element": "H" 
			},
			{
				"x": 3.3424779211,
				"y": -0.6215959449,
				"z": -1.2830027415,
				"element": "H" 
			},
			{
				"x": 0.2652600365,
				"y": 0.6474007123,
				"z": -3.651486974,
				"element": "H" 
			}
		],
		 "valence_orbital": [ 
			{
				"type": "occ",
				"energy": -0.3004,
				"method": "rhf"
			},
			{
				"type": "occ",
				"energy": -0.26948,
				"method": "rhf"
			},
			{
				"type": "occ",
				"energy": -0.26793,
				"method": "rhf"
			},
			{
				"type": "occ",
				"energy": -0.25357,
				"method": "rhf"
			},
			{
				"type": "occ",
				"energy": -0.24662,
				"method": "rhf"
			},
			{
				"type": "unocc",
				"energy": -0.0012,
				"method": "rhf"
			},
			{
				"type": "unocc",
				"energy": 0.0576,
				"method": "rhf"
			},
			{
				"type": "unocc",
				"energy": 0.07049,
				"method": "rhf"
			},
			{
				"type": "unocc",
				"energy": 0.07576,
				"method": "rhf"
			},
			{
				"type": "unocc",
				"energy": 0.08398,
				"method": "rhf"
			}
		],
		"cosmo_sigma_profile": { 
			"-0.025": 0.0,
			"-0.024": 0.0,
			"-0.023": 0.0,
			"-0.022": 0.0,
			"-0.021": 0.0,
			"-0.02": 0.0,
			"-0.019": 0.0,
			"-0.018": 0.0,
			"-0.017": 0.0,
			"-0.016": 0.0,
			"-0.015": 0.0,
			"-0.014": 0.0,
			"-0.013": 0.0,
			"-0.012": 0.0822424332135,
			"-0.011": 1.37786692733,
			"-0.01": 3.20086589281,
			"-0.009": 7.13684478439,
			"-0.008": 8.09332688432,
			"-0.007": 8.3057314508,
			"-0.006": 10.0289365715,
			"-0.005": 10.853676041,
			"-0.004": 12.0115856348,
			"-0.003": 30.6665778493,
			"-0.002": 50.4657025344,
			"-0.001": 53.9063201415,
			"0.0": 45.088642535,
			"0.001": 34.138510265,
			"0.002": 10.6974927226,
			"0.003": 6.4749679655,
			"0.004": 7.28762551705,
			"0.005": 5.71863231264,
			"0.006": 7.39766012708,
			"0.007": 7.43652601057,
			"0.008": 9.26950311416,
			"0.009": 9.0216425298,
			"0.01": 7.57551281641,
			"0.011": 10.072729276,
			"0.012": 4.97925964583,
			"0.013": 0.606358709845,
			"0.014": 0.0,
			"0.015": 0.0,
			"0.016": 0.0,
			"0.017": 0.0,
			"0.018": 0.0,
			"0.019": 0.0,
			"0.02": 0.0,
			"0.021": 0.0,
			"0.022": 0.0,
			"0.023": 0.0,
			"0.024": 0.0,
			"0.025": 0.0
		}
	}
}
