{
	 "smiles": "CC(=O)N1CCCNC2=C1C=CC=C2", 
	 "Tm": 406.15, 
	 "num_atms": 28, 
	 "gaussian": { 
		 "optdone": 1, 
		 "sigma_profile": "yes", 
		 "theory": "DFT", 
		 "functional": "B3LYP", 
		 "basiset": "6-31G**", 
		 "properties": { 
			 "R2extent": 2872.6111, 
			 "electric_dipole_moment_norm": 4.16650205328, 
			 "electric_quadrupole_moment_norm": 13.7431215599, 
			 "total_energy": -612.344145689, 
			 "HOMO_LUMO_gap": 0.19243, 
			 "cosmo_polarized_energy": -14.4, 
			 "cosmo_cavitation_energy": 29.0, 
			 "cosmo_dispersion_energy": -21.45, 
			 "cosmo_repulsion_energy": 1.66, 
			 "cosmo_total_nonelectrostatic_energy": 9.22, 
			 "SMD_solvation_energy": 4.46 
		},
		"coords": [
			{
				"x": -0.2243288837,
				"y": -0.4338050403,
				"z": -3.5366919603,
				"element": "C" 
			},
			{
				"x": -1.1210806891,
				"y": -0.287930062,
				"z": -2.3111813314,
				"element": "C" 
			},
			{
				"x": -2.3163964209,
				"y": -0.0605394673,
				"z": -2.4409189635,
				"element": "O" 
			},
			{
				"x": -0.5218521932,
				"y": -0.456431414,
				"z": -1.0705797965,
				"element": "N" 
			},
			{
				"x": 0.9303094809,
				"y": -0.605322254,
				"z": -0.903440495,
				"element": "C" 
			},
			{
				"x": 1.6581989641,
				"y": 0.746054897,
				"z": -0.7915073463,
				"element": "C" 
			},
			{
				"x": 0.8415804708,
				"y": 1.7289797212,
				"z": 0.0575865574,
				"element": "C" 
			},
			{
				"x": 0.3311122202,
				"y": 1.0872181836,
				"z": 1.2697637808,
				"element": "N" 
			},
			{
				"x": -0.8630856692,
				"y": 0.3494334216,
				"z": 1.2541719083,
				"element": "C" 
			},
			{
				"x": -1.3040980007,
				"y": -0.3982820062,
				"z": 0.1349873517,
				"element": "C" 
			},
			{
				"x": -2.4889307373,
				"y": -1.1395890568,
				"z": 0.2271852425,
				"element": "C" 
			},
			{
				"x": -3.2450050434,
				"y": -1.16082395,
				"z": 1.3946658379,
				"element": "C" 
			},
			{
				"x": -2.8061857463,
				"y": -0.4396266333,
				"z": 2.5066715454,
				"element": "C" 
			},
			{
				"x": -1.6341177865,
				"y": 0.3017307449,
				"z": 2.4310579609,
				"element": "C" 
			},
			{
				"x": -0.8393847651,
				"y": -0.2103166723,
				"z": -4.4077770616,
				"element": "H" 
			},
			{
				"x": 0.1587039341,
				"y": -1.4561476737,
				"z": -3.6292829631,
				"element": "H" 
			},
			{
				"x": 0.6346127148,
				"y": 0.243345908,
				"z": -3.5219322803,
				"element": "H" 
			},
			{
				"x": 1.0858245846,
				"y": -1.1754759589,
				"z": 0.0150943335,
				"element": "H" 
			},
			{
				"x": 1.3395485672,
				"y": -1.2052821509,
				"z": -1.7192247961,
				"element": "H" 
			},
			{
				"x": 2.6423542635,
				"y": 0.5761585195,
				"z": -0.3392683881,
				"element": "H" 
			},
			{
				"x": 1.8281840803,
				"y": 1.1865283417,
				"z": -1.7815946749,
				"element": "H" 
			},
			{
				"x": 1.4752228102,
				"y": 2.5667079284,
				"z": 0.3640550502,
				"element": "H" 
			},
			{
				"x": 0.0224848332,
				"y": 2.1504886996,
				"z": -0.5423279054,
				"element": "H" 
			},
			{
				"x": 0.394448455,
				"y": 1.6757899359,
				"z": 2.0884227449,
				"element": "H" 
			},
			{
				"x": -2.8159544492,
				"y": -1.6933905202,
				"z": -0.6435432714,
				"element": "H" 
			},
			{
				"x": -4.1613414682,
				"y": -1.7408837301,
				"z": 1.435726368,
				"element": "H" 
			},
			{
				"x": -3.3787950492,
				"y": -0.4450825877,
				"z": 3.4296680174,
				"element": "H" 
			},
			{
				"x": -1.2962284771,
				"y": 0.8714928765,
				"z": 3.2943145348,
				"element": "H" 
			}
		],
		 "valence_orbital": [ 
			{
				"type": "occ",
				"energy": -0.28966,
				"method": "rhf"
			},
			{
				"type": "occ",
				"energy": -0.26883,
				"method": "rhf"
			},
			{
				"type": "occ",
				"energy": -0.2406,
				"method": "rhf"
			},
			{
				"type": "occ",
				"energy": -0.22003,
				"method": "rhf"
			},
			{
				"type": "occ",
				"energy": -0.19122,
				"method": "rhf"
			},
			{
				"type": "unocc",
				"energy": 0.00121,
				"method": "rhf"
			},
			{
				"type": "unocc",
				"energy": 0.01782,
				"method": "rhf"
			},
			{
				"type": "unocc",
				"energy": 0.03878,
				"method": "rhf"
			},
			{
				"type": "unocc",
				"energy": 0.06945,
				"method": "rhf"
			},
			{
				"type": "unocc",
				"energy": 0.08844,
				"method": "rhf"
			}
		],
		"cosmo_sigma_profile": { 
			"-0.025": 0.0,
			"-0.024": 0.0,
			"-0.023": 0.0,
			"-0.022": 0.0,
			"-0.021": 0.0,
			"-0.02": 0.0,
			"-0.019": 0.0,
			"-0.018": 0.0,
			"-0.017": 0.0,
			"-0.016": 0.0,
			"-0.015": 0.0,
			"-0.014": 0.0,
			"-0.013": 0.248396399798,
			"-0.012": 1.35372761936,
			"-0.011": 1.45996518814,
			"-0.01": 1.46469374792,
			"-0.009": 1.26596692434,
			"-0.008": 1.60836609905,
			"-0.007": 2.94632630787,
			"-0.006": 9.62294732581,
			"-0.005": 17.5423366468,
			"-0.004": 21.7527170393,
			"-0.003": 27.4514744872,
			"-0.002": 25.5993778575,
			"-0.001": 22.4904670301,
			"0.0": 13.6421017983,
			"0.001": 9.16810890053,
			"0.002": 7.23715119867,
			"0.003": 8.62196265298,
			"0.004": 8.22049639112,
			"0.005": 9.21149265634,
			"0.006": 9.40375733127,
			"0.007": 7.08654112398,
			"0.008": 2.54570920576,
			"0.009": 1.88400305761,
			"0.01": 2.52279870855,
			"0.011": 2.17802332341,
			"0.012": 1.92700610692,
			"0.013": 2.99796995484,
			"0.014": 5.42938708252,
			"0.015": 1.44605575989,
			"0.016": 0.0,
			"0.017": 0.0,
			"0.018": 0.0,
			"0.019": 0.0,
			"0.02": 0.0,
			"0.021": 0.0,
			"0.022": 0.0,
			"0.023": 0.0,
			"0.024": 0.0,
			"0.025": 0.0
		}
	}
}
