{
	 "smiles": "O=C1NC2CCCCC12", 
	 "Tm": 322.15, 
	 "num_atms": 20, 
	 "gaussian": { 
		 "optdone": 1, 
		 "sigma_profile": "yes", 
		 "theory": "DFT", 
		 "functional": "B3LYP", 
		 "basiset": "6-31G**", 
		 "properties": { 
			 "R2extent": 1415.248, 
			 "electric_dipole_moment_norm": 3.76976131605, 
			 "electric_quadrupole_moment_norm": 14.70844738, 
			 "total_energy": -403.346917757, 
			 "HOMO_LUMO_gap": 0.27312, 
			 "cosmo_polarized_energy": -9.9, 
			 "cosmo_cavitation_energy": 21.35, 
			 "cosmo_dispersion_energy": -16.25, 
			 "cosmo_repulsion_energy": 1.36, 
			 "cosmo_total_nonelectrostatic_energy": 6.46, 
			 "SMD_solvation_energy": 2.65 
		},
		"coords": [
			{
				"x": -0.776415899,
				"y": -3.0666932615,
				"z": 1.9919402634,
				"element": "O" 
			},
			{
				"x": 0.0054502376,
				"y": -2.2607818699,
				"z": 1.5410626433,
				"element": "C" 
			},
			{
				"x": 1.0127893111,
				"y": -1.5088886172,
				"z": 2.1058968291,
				"element": "N" 
			},
			{
				"x": 1.2310184486,
				"y": -0.6549594678,
				"z": 0.9192852484,
				"element": "C" 
			},
			{
				"x": 0.7199360024,
				"y": 0.7959896479,
				"z": 1.0704302287,
				"element": "C" 
			},
			{
				"x": -0.2025265733,
				"y": 1.2396475937,
				"z": -0.07632851,
				"element": "C" 
			},
			{
				"x": -1.372240525,
				"y": 0.2607685514,
				"z": -0.2422624628,
				"element": "C" 
			},
			{
				"x": -0.8691778426,
				"y": -1.1173614624,
				"z": -0.6970817577,
				"element": "C" 
			},
			{
				"x": 0.2899923443,
				"y": -1.650302435,
				"z": 0.1467428842,
				"element": "C" 
			},
			{
				"x": 1.2178005036,
				"y": -1.3353380032,
				"z": 3.0828160424,
				"element": "H" 
			},
			{
				"x": 2.2705412726,
				"y": -0.6708842778,
				"z": 0.5739599384,
				"element": "H" 
			},
			{
				"x": 0.1532928843,
				"y": 0.8641585171,
				"z": 2.0073507422,
				"element": "H" 
			},
			{
				"x": 1.5690813711,
				"y": 1.4821344886,
				"z": 1.1682491062,
				"element": "H" 
			},
			{
				"x": -0.5707620642,
				"y": 2.2514765655,
				"z": 0.1283231852,
				"element": "H" 
			},
			{
				"x": 0.3619875128,
				"y": 1.2980540223,
				"z": -1.0178635246,
				"element": "H" 
			},
			{
				"x": -1.9109158983,
				"y": 0.1732410639,
				"z": 0.7112893949,
				"element": "H" 
			},
			{
				"x": -2.0930296424,
				"y": 0.6431737195,
				"z": -0.9738662482,
				"element": "H" 
			},
			{
				"x": -1.6795475559,
				"y": -1.8556616325,
				"z": -0.6808659569,
				"element": "H" 
			},
			{
				"x": -0.5389927192,
				"y": -1.0382176868,
				"z": -1.7408675549,
				"element": "H" 
			},
			{
				"x": 0.8807188318,
				"y": -2.3674554559,
				"z": -0.4335104914,
				"element": "H" 
			}
		],
		 "valence_orbital": [ 
			{
				"type": "occ",
				"energy": -0.33029,
				"method": "rhf"
			},
			{
				"type": "occ",
				"energy": -0.32002,
				"method": "rhf"
			},
			{
				"type": "occ",
				"energy": -0.30714,
				"method": "rhf"
			},
			{
				"type": "occ",
				"energy": -0.25276,
				"method": "rhf"
			},
			{
				"type": "occ",
				"energy": -0.24242,
				"method": "rhf"
			},
			{
				"type": "unocc",
				"energy": 0.0307,
				"method": "rhf"
			},
			{
				"type": "unocc",
				"energy": 0.08158,
				"method": "rhf"
			},
			{
				"type": "unocc",
				"energy": 0.09216,
				"method": "rhf"
			},
			{
				"type": "unocc",
				"energy": 0.10282,
				"method": "rhf"
			},
			{
				"type": "unocc",
				"energy": 0.12202,
				"method": "rhf"
			}
		],
		"cosmo_sigma_profile": { 
			"-0.025": 0.0,
			"-0.024": 0.0,
			"-0.023": 0.0,
			"-0.022": 0.0,
			"-0.021": 0.0,
			"-0.02": 0.0,
			"-0.019": 0.0,
			"-0.018": 0.0,
			"-0.017": 0.0,
			"-0.016": 0.0,
			"-0.015": 0.0,
			"-0.014": 0.43726050896,
			"-0.013": 1.59337911434,
			"-0.012": 1.01641594445,
			"-0.011": 0.632206770167,
			"-0.01": 1.43955523115,
			"-0.009": 1.27770875106,
			"-0.008": 1.0839365347,
			"-0.007": 0.816041452314,
			"-0.006": 1.13465034249,
			"-0.005": 4.28059997627,
			"-0.004": 7.70198989522,
			"-0.003": 23.9314576256,
			"-0.002": 31.7555465225,
			"-0.001": 23.7551744132,
			"0.0": 20.7136508803,
			"0.001": 10.9885911229,
			"0.002": 2.97795557081,
			"0.003": 2.24946843234,
			"0.004": 2.39424029498,
			"0.005": 2.44858528882,
			"0.006": 1.91177113214,
			"0.007": 1.32014878321,
			"0.008": 1.51831186557,
			"0.009": 1.63201651832,
			"0.01": 1.47215122198,
			"0.011": 1.56060809292,
			"0.012": 2.30580962249,
			"0.013": 6.10445862164,
			"0.014": 4.52749323206,
			"0.015": 0.59376040316,
			"0.016": 0.0,
			"0.017": 0.0,
			"0.018": 0.0,
			"0.019": 0.0,
			"0.02": 0.0,
			"0.021": 0.0,
			"0.022": 0.0,
			"0.023": 0.0,
			"0.024": 0.0,
			"0.025": 0.0
		}
	}
}
