{
	 "smiles": "OC(=O)C1=C(OCC2=CC=CC=C2)C=C(S1)C1=CC=CC=C1", 
	 "Tm": 452.15, 
	 "num_atms": 36, 
	 "gaussian": { 
		 "optdone": 1, 
		 "sigma_profile": "yes", 
		 "theory": "DFT", 
		 "functional": "B3LYP", 
		 "basiset": "6-31G**", 
		 "properties": { 
			 "R2extent": 8515.7248, 
			 "electric_dipole_moment_norm": 8.05040112417, 
			 "electric_quadrupole_moment_norm": 26.7850055759, 
			 "total_energy": -1318.21024674, 
			 "HOMO_LUMO_gap": 0.15778, 
			 "cosmo_polarized_energy": -18.08, 
			 "cosmo_cavitation_energy": 42.28, 
			 "cosmo_dispersion_energy": -29.86, 
			 "cosmo_repulsion_energy": 2.25, 
			 "cosmo_total_nonelectrostatic_energy": 14.66, 
			 "SMD_solvation_energy": 7.93 
		},
		"coords": [
			{
				"x": 0.5364706798,
				"y": 3.0271175274,
				"z": -2.5566350172,
				"element": "O" 
			},
			{
				"x": 0.6741464609,
				"y": 3.3417137646,
				"z": -1.2470127565,
				"element": "C" 
			},
			{
				"x": 1.0501869286,
				"y": 4.4429563678,
				"z": -0.9026150682,
				"element": "O" 
			},
			{
				"x": 0.3404756997,
				"y": 2.2787875679,
				"z": -0.2826744394,
				"element": "C" 
			},
			{
				"x": -0.0988824436,
				"y": 0.9812676578,
				"z": -0.4873352406,
				"element": "C" 
			},
			{
				"x": -0.2499950649,
				"y": 0.515852707,
				"z": -1.7666835905,
				"element": "O" 
			},
			{
				"x": -0.9496771593,
				"y": -0.7221596172,
				"z": -1.9804309242,
				"element": "C" 
			},
			{
				"x": -0.106809244,
				"y": -1.9517403256,
				"z": -1.7169348404,
				"element": "C" 
			},
			{
				"x": -0.7088013664,
				"y": -3.1145700159,
				"z": -1.2223812749,
				"element": "C" 
			},
			{
				"x": 0.0432997353,
				"y": -4.2752004145,
				"z": -1.031601878,
				"element": "C" 
			},
			{
				"x": 1.4076728189,
				"y": -4.278571907,
				"z": -1.3246265508,
				"element": "C" 
			},
			{
				"x": 2.0148322349,
				"y": -3.1188551096,
				"z": -1.8123082991,
				"element": "C" 
			},
			{
				"x": 1.2616775029,
				"y": -1.9623119428,
				"z": -2.0125318824,
				"element": "C" 
			},
			{
				"x": -0.3340959147,
				"y": 0.2590040746,
				"z": 0.712767692,
				"element": "C" 
			},
			{
				"x": -0.0730174758,
				"y": 1.0147908693,
				"z": 1.8392634437,
				"element": "C" 
			},
			{
				"x": 0.4586718426,
				"y": 2.6203608529,
				"z": 1.4195090648,
				"element": "S" 
			},
			{
				"x": -0.1980848216,
				"y": 0.5934019718,
				"z": 3.2408231684,
				"element": "C" 
			},
			{
				"x": 0.594485752,
				"y": 1.167538725,
				"z": 4.2509872628,
				"element": "C" 
			},
			{
				"x": 0.4658255647,
				"y": 0.757172062,
				"z": 5.5759657529,
				"element": "C" 
			},
			{
				"x": -0.4498795814,
				"y": -0.2394531538,
				"z": 5.9191894135,
				"element": "C" 
			},
			{
				"x": -1.2422023814,
				"y": -0.8186604287,
				"z": 4.9253697312,
				"element": "C" 
			},
			{
				"x": -1.1227917325,
				"y": -0.4041269078,
				"z": 3.6012462801,
				"element": "C" 
			},
			{
				"x": 0.2208494147,
				"y": 2.1099078886,
				"z": -2.6456182908,
				"element": "H" 
			},
			{
				"x": -1.2445530009,
				"y": -0.6752461903,
				"z": -3.0335923992,
				"element": "H" 
			},
			{
				"x": -1.8651209742,
				"y": -0.7351931297,
				"z": -1.3772170802,
				"element": "H" 
			},
			{
				"x": -1.7708059909,
				"y": -3.1145115102,
				"z": -0.9864236714,
				"element": "H" 
			},
			{
				"x": -0.4348320726,
				"y": -5.171269424,
				"z": -0.646790731,
				"element": "H" 
			},
			{
				"x": 1.9960417663,
				"y": -5.1782186793,
				"z": -1.1702916179,
				"element": "H" 
			},
			{
				"x": 3.0771622276,
				"y": -3.114853491,
				"z": -2.0382023617,
				"element": "H" 
			},
			{
				"x": 1.7348079628,
				"y": -1.0601154304,
				"z": -2.3878445417,
				"element": "H" 
			},
			{
				"x": -0.6191245084,
				"y": -0.7836070904,
				"z": 0.7503845637,
				"element": "H" 
			},
			{
				"x": 1.3295464684,
				"y": 1.9240104965,
				"z": 3.9920707263,
				"element": "H" 
			},
			{
				"x": 1.0896234043,
				"y": 1.2111260856,
				"z": 6.340315351,
				"element": "H" 
			},
			{
				"x": -0.5471271011,
				"y": -0.5604530638,
				"z": 6.9519935142,
				"element": "H" 
			},
			{
				"x": -1.9642772488,
				"y": -1.5878547471,
				"z": 5.18372439,
				"element": "H" 
			},
			{
				"x": -1.765798382,
				"y": -0.8370360396,
				"z": 2.8412421014,
				"element": "H" 
			}
		],
		 "valence_orbital": [ 
			{
				"type": "occ",
				"energy": -0.26332,
				"method": "rhf"
			},
			{
				"type": "occ",
				"energy": -0.26296,
				"method": "rhf"
			},
			{
				"type": "occ",
				"energy": -0.26029,
				"method": "rhf"
			},
			{
				"type": "occ",
				"energy": -0.25072,
				"method": "rhf"
			},
			{
				"type": "occ",
				"energy": -0.22074,
				"method": "rhf"
			},
			{
				"type": "unocc",
				"energy": -0.06296,
				"method": "rhf"
			},
			{
				"type": "unocc",
				"energy": -0.02414,
				"method": "rhf"
			},
			{
				"type": "unocc",
				"energy": -0.01948,
				"method": "rhf"
			},
			{
				"type": "unocc",
				"energy": -0.01448,
				"method": "rhf"
			},
			{
				"type": "unocc",
				"energy": -0.00327,
				"method": "rhf"
			}
		],
		"cosmo_sigma_profile": { 
			"-0.025": 0.0,
			"-0.024": 0.0,
			"-0.023": 0.0,
			"-0.022": 0.0,
			"-0.021": 0.0,
			"-0.02": 0.0,
			"-0.019": 0.0,
			"-0.018": 0.0,
			"-0.017": 0.0,
			"-0.016": 0.0,
			"-0.015": 0.0,
			"-0.014": 0.0,
			"-0.013": 0.0,
			"-0.012": 0.0,
			"-0.011": 0.19521534684,
			"-0.01": 0.539841860289,
			"-0.009": 0.656370275857,
			"-0.008": 2.43716962106,
			"-0.007": 11.329427795,
			"-0.006": 24.0552908902,
			"-0.005": 30.1887698823,
			"-0.004": 29.2165923148,
			"-0.003": 23.4158434015,
			"-0.002": 21.1372219258,
			"-0.001": 23.6287857194,
			"0.0": 19.3686755044,
			"0.001": 28.4977970656,
			"0.002": 29.726362086,
			"0.003": 25.4489851028,
			"0.004": 22.02526136,
			"0.005": 17.0794968168,
			"0.006": 5.29520801253,
			"0.007": 2.01615416782,
			"0.008": 2.9952422085,
			"0.009": 3.18925652758,
			"0.01": 3.56227752737,
			"0.011": 5.25958005778,
			"0.012": 5.94613900892,
			"0.013": 3.53484698761,
			"0.014": 0.78101520222,
			"0.015": 0.0,
			"0.016": 0.0,
			"0.017": 0.0,
			"0.018": 0.0,
			"0.019": 0.0,
			"0.02": 0.0,
			"0.021": 0.0,
			"0.022": 0.0,
			"0.023": 0.0,
			"0.024": 0.0,
			"0.025": 0.0
		}
	}
}
