{
	 "smiles": "CC1=NN(N=C1C(O)=O)C1=C(C)C=C(C)C=C1", 
	 "Tm": 452.15, 
	 "num_atms": 30, 
	 "gaussian": { 
		 "optdone": 1, 
		 "sigma_profile": "yes", 
		 "theory": "DFT", 
		 "functional": "B3LYP", 
		 "basiset": "6-31G**", 
		 "properties": { 
			 "R2extent": 5907.1003, 
			 "electric_dipole_moment_norm": 5.47633357366, 
			 "electric_quadrupole_moment_norm": 23.6931950701, 
			 "total_energy": -779.817448562, 
			 "HOMO_LUMO_gap": 0.18378, 
			 "cosmo_polarized_energy": -12.16, 
			 "cosmo_cavitation_energy": 34.49, 
			 "cosmo_dispersion_energy": -24.56, 
			 "cosmo_repulsion_energy": 1.91, 
			 "cosmo_total_nonelectrostatic_energy": 11.84, 
			 "SMD_solvation_energy": 6.08 
		},
		"coords": [
			{
				"x": -0.2127772234,
				"y": -4.4479923658,
				"z": 2.2144177581,
				"element": "C" 
			},
			{
				"x": -0.5738321664,
				"y": -3.3437669104,
				"z": 1.2774159791,
				"element": "C" 
			},
			{
				"x": 0.0717061428,
				"y": -2.1768026993,
				"z": 1.2567228481,
				"element": "N" 
			},
			{
				"x": -0.5342309577,
				"y": -1.4678905265,
				"z": 0.2862645316,
				"element": "N" 
			},
			{
				"x": -1.5368890183,
				"y": -2.0958515898,
				"z": -0.3162197451,
				"element": "N" 
			},
			{
				"x": -1.5806831276,
				"y": -3.2912052567,
				"z": 0.2856739032,
				"element": "C" 
			},
			{
				"x": -2.5765693458,
				"y": -4.3138408377,
				"z": -0.101200537,
				"element": "C" 
			},
			{
				"x": -3.4248070965,
				"y": -3.9390953823,
				"z": -1.0851144576,
				"element": "O" 
			},
			{
				"x": -2.6386645047,
				"y": -5.4059578077,
				"z": 0.4172988053,
				"element": "O" 
			},
			{
				"x": -0.1600592309,
				"y": -0.1161092264,
				"z": 0.0090421713,
				"element": "C" 
			},
			{
				"x": -0.1797232124,
				"y": 0.4018223914,
				"z": -1.2983566245,
				"element": "C" 
			},
			{
				"x": -0.5632075588,
				"y": -0.4039368306,
				"z": -2.5164382506,
				"element": "C" 
			},
			{
				"x": 0.2077308746,
				"y": 1.7398426086,
				"z": -1.4522757878,
				"element": "C" 
			},
			{
				"x": 0.6120703056,
				"y": 2.5494566058,
				"z": -0.3863929528,
				"element": "C" 
			},
			{
				"x": 0.9958498626,
				"y": 3.992857144,
				"z": -0.6072144026,
				"element": "C" 
			},
			{
				"x": 0.6377645971,
				"y": 1.9841597761,
				"z": 0.8950829925,
				"element": "C" 
			},
			{
				"x": 0.2517307814,
				"y": 0.6647339004,
				"z": 1.0936360984,
				"element": "C" 
			},
			{
				"x": -1.0724665065,
				"y": -4.7305730326,
				"z": 2.828546572,
				"element": "H" 
			},
			{
				"x": 0.6090050103,
				"y": -4.1351159969,
				"z": 2.8611587485,
				"element": "H" 
			},
			{
				"x": 0.0833635473,
				"y": -5.3440242743,
				"z": 1.6613170645,
				"element": "H" 
			},
			{
				"x": -3.2083599421,
				"y": -3.0291692401,
				"z": -1.3510202989,
				"element": "H" 
			},
			{
				"x": -0.1144541241,
				"y": -1.4011019985,
				"z": -2.5034353346,
				"element": "H" 
			},
			{
				"x": -1.6460381708,
				"y": -0.5467121423,
				"z": -2.5810951728,
				"element": "H" 
			},
			{
				"x": -0.2326590497,
				"y": 0.1095472326,
				"z": -3.4229163654,
				"element": "H" 
			},
			{
				"x": 0.2053029076,
				"y": 2.1574945624,
				"z": -2.4563248116,
				"element": "H" 
			},
			{
				"x": 0.1646037086,
				"y": 4.6642622079,
				"z": -0.3584804656,
				"element": "H" 
			},
			{
				"x": 1.8432954413,
				"y": 4.2816033177,
				"z": 0.0223368985,
				"element": "H" 
			},
			{
				"x": 1.2675543911,
				"y": 4.1807043801,
				"z": -1.6496977333,
				"element": "H" 
			},
			{
				"x": 0.9570760571,
				"y": 2.5804695231,
				"z": 1.7453948035,
				"element": "H" 
			},
			{
				"x": 0.2701676083,
				"y": 0.219492468,
				"z": 2.0812737655,
				"element": "H" 
			}
		],
		 "valence_orbital": [ 
			{
				"type": "occ",
				"energy": -0.30447,
				"method": "rhf"
			},
			{
				"type": "occ",
				"energy": -0.29221,
				"method": "rhf"
			},
			{
				"type": "occ",
				"energy": -0.27533,
				"method": "rhf"
			},
			{
				"type": "occ",
				"energy": -0.25949,
				"method": "rhf"
			},
			{
				"type": "occ",
				"energy": -0.23924,
				"method": "rhf"
			},
			{
				"type": "unocc",
				"energy": -0.05546,
				"method": "rhf"
			},
			{
				"type": "unocc",
				"energy": -0.0156,
				"method": "rhf"
			},
			{
				"type": "unocc",
				"energy": -0.01531,
				"method": "rhf"
			},
			{
				"type": "unocc",
				"energy": 0.01071,
				"method": "rhf"
			},
			{
				"type": "unocc",
				"energy": 0.08002,
				"method": "rhf"
			}
		],
		"cosmo_sigma_profile": { 
			"-0.025": 0.0,
			"-0.024": 0.0,
			"-0.023": 0.0,
			"-0.022": 0.0,
			"-0.021": 0.0,
			"-0.02": 0.0,
			"-0.019": 0.0,
			"-0.018": 0.0,
			"-0.017": 0.0,
			"-0.016": 0.0,
			"-0.015": 0.525076658431,
			"-0.014": 0.618054199569,
			"-0.013": 0.334912507214,
			"-0.012": 0.441208653078,
			"-0.011": 1.28630517797,
			"-0.01": 0.787002885346,
			"-0.009": 0.441079933243,
			"-0.008": 1.11101320382,
			"-0.007": 1.89442299371,
			"-0.006": 5.8374858305,
			"-0.005": 17.4293953281,
			"-0.004": 27.1998778335,
			"-0.003": 27.1385474041,
			"-0.002": 32.3041775556,
			"-0.001": 32.4917703003,
			"0.0": 26.472359997,
			"0.001": 16.3161596208,
			"0.002": 13.3025306113,
			"0.003": 13.3440544196,
			"0.004": 14.8017105052,
			"0.005": 7.51503451842,
			"0.006": 4.01812035749,
			"0.007": 3.12305310916,
			"0.008": 4.45749094877,
			"0.009": 4.78687300964,
			"0.01": 6.0619361477,
			"0.011": 5.07501201985,
			"0.012": 4.07968049132,
			"0.013": 1.08675248525,
			"0.014": 0.0,
			"0.015": 0.0,
			"0.016": 0.0,
			"0.017": 0.0,
			"0.018": 0.0,
			"0.019": 0.0,
			"0.02": 0.0,
			"0.021": 0.0,
			"0.022": 0.0,
			"0.023": 0.0,
			"0.024": 0.0,
			"0.025": 0.0
		}
	}
}
