{
	 "smiles": "CCOC(=O)CSC1=C(C)NC2=C1C=CC=C2", 
	 "Tm": 346.65, 
	 "num_atms": 32, 
	 "gaussian": { 
		 "optdone": 1, 
		 "sigma_profile": "yes", 
		 "theory": "DFT", 
		 "functional": "B3LYP", 
		 "basiset": "6-31G**", 
		 "properties": { 
			 "R2extent": 4693.5732, 
			 "electric_dipole_moment_norm": 1.94274226031, 
			 "electric_quadrupole_moment_norm": 22.7210688331, 
			 "total_energy": -1107.83704682, 
			 "HOMO_LUMO_gap": 0.18899, 
			 "cosmo_polarized_energy": -15.49, 
			 "cosmo_cavitation_energy": 37.45, 
			 "cosmo_dispersion_energy": -25.41, 
			 "cosmo_repulsion_energy": 1.97, 
			 "cosmo_total_nonelectrostatic_energy": 14.0, 
			 "SMD_solvation_energy": 6.46 
		},
		"coords": [
			{
				"x": -1.7831522443,
				"y": -2.6378218082,
				"z": 3.2666850295,
				"element": "C" 
			},
			{
				"x": -0.7008830212,
				"y": -2.420927883,
				"z": 2.2197261865,
				"element": "C" 
			},
			{
				"x": 0.0874346235,
				"y": -1.2398213449,
				"z": 2.5069776878,
				"element": "O" 
			},
			{
				"x": -0.4176675154,
				"y": -0.0646421712,
				"z": 2.0772351137,
				"element": "C" 
			},
			{
				"x": -1.4859059113,
				"y": 0.0601213148,
				"z": 1.5168303239,
				"element": "O" 
			},
			{
				"x": 0.5195920655,
				"y": 1.0871984855,
				"z": 2.3718484453,
				"element": "C" 
			},
			{
				"x": 2.0222803453,
				"y": 1.1273864898,
				"z": 1.2871072355,
				"element": "S" 
			},
			{
				"x": 1.3382065439,
				"y": 1.1634990147,
				"z": -0.3385695514,
				"element": "C" 
			},
			{
				"x": 0.9896692017,
				"y": 2.2952649933,
				"z": -1.0561366832,
				"element": "C" 
			},
			{
				"x": 1.0331946673,
				"y": 3.7357641497,
				"z": -0.6697198078,
				"element": "C" 
			},
			{
				"x": 0.5427720606,
				"y": 1.901188608,
				"z": -2.3004348128,
				"element": "N" 
			},
			{
				"x": 0.5967860884,
				"y": 0.5221552599,
				"z": -2.4161843128,
				"element": "C" 
			},
			{
				"x": 1.1002455378,
				"y": 0.019761788,
				"z": -1.1890727675,
				"element": "C" 
			},
			{
				"x": 1.2715845854,
				"y": -1.3648257001,
				"z": -1.0378050498,
				"element": "C" 
			},
			{
				"x": 0.9347183593,
				"y": -2.2014152534,
				"z": -2.0960202689,
				"element": "C" 
			},
			{
				"x": 0.4311907864,
				"y": -1.6818226226,
				"z": -3.3055226564,
				"element": "C" 
			},
			{
				"x": 0.2562539981,
				"y": -0.3129713794,
				"z": -3.4835247404,
				"element": "C" 
			},
			{
				"x": -2.3071173444,
				"y": -3.5790452588,
				"z": 3.0689474685,
				"element": "H" 
			},
			{
				"x": -1.3498314686,
				"y": -2.6911660189,
				"z": 4.2699794961,
				"element": "H" 
			},
			{
				"x": -2.5135886574,
				"y": -1.8260138814,
				"z": 3.2371269087,
				"element": "H" 
			},
			{
				"x": 0.0264055118,
				"y": -3.236365736,
				"z": 2.2227040132,
				"element": "H" 
			},
			{
				"x": -1.1292448409,
				"y": -2.321265528,
				"z": 1.2195963136,
				"element": "H" 
			},
			{
				"x": 0.9201132082,
				"y": 1.0017210097,
				"z": 3.3856968744,
				"element": "H" 
			},
			{
				"x": -0.0399709379,
				"y": 2.0170535882,
				"z": 2.2680342945,
				"element": "H" 
			},
			{
				"x": 0.0259072326,
				"y": 4.162371405,
				"z": -0.5850015824,
				"element": "H" 
			},
			{
				"x": 1.5843222914,
				"y": 4.332416971,
				"z": -1.4064894963,
				"element": "H" 
			},
			{
				"x": 1.5314411752,
				"y": 3.8408416988,
				"z": 0.2959189426,
				"element": "H" 
			},
			{
				"x": 0.218094933,
				"y": 2.5314909126,
				"z": -3.0166720635,
				"element": "H" 
			},
			{
				"x": 1.6638640335,
				"y": -1.7634421177,
				"z": -0.1070348445,
				"element": "H" 
			},
			{
				"x": 1.063407113,
				"y": -3.2751484106,
				"z": -1.993827361,
				"element": "H" 
			},
			{
				"x": 0.1767607201,
				"y": -2.3607662256,
				"z": -4.1140740056,
				"element": "H" 
			},
			{
				"x": -0.1293831406,
				"y": 0.0887256508,
				"z": -4.4165243295,
				"element": "H" 
			}
		],
		 "valence_orbital": [ 
			{
				"type": "occ",
				"energy": -0.27403,
				"method": "rhf"
			},
			{
				"type": "occ",
				"energy": -0.26417,
				"method": "rhf"
			},
			{
				"type": "occ",
				"energy": -0.22744,
				"method": "rhf"
			},
			{
				"type": "occ",
				"energy": -0.21881,
				"method": "rhf"
			},
			{
				"type": "occ",
				"energy": -0.20174,
				"method": "rhf"
			},
			{
				"type": "unocc",
				"energy": -0.01275,
				"method": "rhf"
			},
			{
				"type": "unocc",
				"energy": -0.00124,
				"method": "rhf"
			},
			{
				"type": "unocc",
				"energy": 0.02862,
				"method": "rhf"
			},
			{
				"type": "unocc",
				"energy": 0.04136,
				"method": "rhf"
			},
			{
				"type": "unocc",
				"energy": 0.06904,
				"method": "rhf"
			}
		],
		"cosmo_sigma_profile": { 
			"-0.025": 0.0,
			"-0.024": 0.0,
			"-0.023": 0.0,
			"-0.022": 0.0,
			"-0.021": 0.0,
			"-0.02": 0.0,
			"-0.019": 0.0,
			"-0.018": 0.0,
			"-0.017": 0.0,
			"-0.016": 0.473772615617,
			"-0.015": 1.66088622697,
			"-0.014": 1.05240265129,
			"-0.013": 1.08816054259,
			"-0.012": 1.10465785749,
			"-0.011": 1.66151159726,
			"-0.01": 1.49131446659,
			"-0.009": 1.17457754623,
			"-0.008": 2.78456204802,
			"-0.007": 4.31358581765,
			"-0.006": 9.89069255975,
			"-0.005": 18.4414664981,
			"-0.004": 25.0725967827,
			"-0.003": 28.5976025225,
			"-0.002": 27.3621788429,
			"-0.001": 25.3594769014,
			"0.0": 22.9374224164,
			"0.001": 16.467114212,
			"0.002": 13.3300514194,
			"0.003": 17.0003143339,
			"0.004": 17.8208185777,
			"0.005": 15.6587271161,
			"0.006": 14.0674864279,
			"0.007": 11.2661145622,
			"0.008": 4.76586412137,
			"0.009": 3.92062690781,
			"0.01": 2.28924837134,
			"0.011": 3.0127259499,
			"0.012": 3.46189122173,
			"0.013": 0.766544481177,
			"0.014": 0.0,
			"0.015": 0.0,
			"0.016": 0.0,
			"0.017": 0.0,
			"0.018": 0.0,
			"0.019": 0.0,
			"0.02": 0.0,
			"0.021": 0.0,
			"0.022": 0.0,
			"0.023": 0.0,
			"0.024": 0.0,
			"0.025": 0.0
		}
	}
}
