{
	 "smiles": "CC(=O)NC1=CC(CCl)=CC=C1", 
	 "Tm": 357.15, 
	 "num_atms": 22, 
	 "gaussian": { 
		 "optdone": 1, 
		 "sigma_profile": "yes", 
		 "theory": "DFT", 
		 "functional": "B3LYP", 
		 "basiset": "6-31G**", 
		 "properties": { 
			 "R2extent": 4570.3909, 
			 "electric_dipole_moment_norm": 2.98845927695, 
			 "electric_quadrupole_moment_norm": 21.2571189762, 
			 "total_energy": -939.180483525, 
			 "HOMO_LUMO_gap": 0.19749, 
			 "cosmo_polarized_energy": -14.82, 
			 "cosmo_cavitation_energy": 27.9, 
			 "cosmo_dispersion_energy": -20.44, 
			 "cosmo_repulsion_energy": 1.65, 
			 "cosmo_total_nonelectrostatic_energy": 9.1, 
			 "SMD_solvation_energy": 5.17 
		},
		"coords": [
			{
				"x": -3.3420798553,
				"y": -0.5402432477,
				"z": 0.9027252567,
				"element": "C" 
			},
			{
				"x": -2.0091024436,
				"y": 0.1109641165,
				"z": 1.2444996277,
				"element": "C" 
			},
			{
				"x": -1.6139375004,
				"y": 0.1913479384,
				"z": 2.3981655182,
				"element": "O" 
			},
			{
				"x": -1.3187527536,
				"y": 0.6005653235,
				"z": 0.1543364591,
				"element": "N" 
			},
			{
				"x": -0.0833221873,
				"y": 1.2799353085,
				"z": 0.1207172395,
				"element": "C" 
			},
			{
				"x": 0.4118482658,
				"y": 1.6504782012,
				"z": -1.137483112,
				"element": "C" 
			},
			{
				"x": 1.6253330533,
				"y": 2.3308313638,
				"z": -1.262838649,
				"element": "C" 
			},
			{
				"x": 2.1363332658,
				"y": 2.7141816991,
				"z": -2.6191105648,
				"element": "C" 
			},
			{
				"x": 1.4417400181,
				"y": 4.3118227575,
				"z": -3.2096603623,
				"element": "Cl" 
			},
			{
				"x": 2.3569128244,
				"y": 2.6432553098,
				"z": -0.1109548039,
				"element": "C" 
			},
			{
				"x": 1.8675831013,
				"y": 2.2701240008,
				"z": 1.1397742177,
				"element": "C" 
			},
			{
				"x": 0.6566453627,
				"y": 1.5920454974,
				"z": 1.2732226534,
				"element": "C" 
			},
			{
				"x": -4.1491755987,
				"y": 0.0819965658,
				"z": 1.3012563499,
				"element": "H" 
			},
			{
				"x": -3.3946425262,
				"y": -1.5064065762,
				"z": 1.4097141681,
				"element": "H" 
			},
			{
				"x": -3.5094069564,
				"y": -0.688008297,
				"z": -0.167869196,
				"element": "H" 
			},
			{
				"x": -1.7569828177,
				"y": 0.4702007612,
				"z": -0.7456068631,
				"element": "H" 
			},
			{
				"x": -0.1599523623,
				"y": 1.4121022116,
				"z": -2.0325814679,
				"element": "H" 
			},
			{
				"x": 3.2173819241,
				"y": 2.8518086527,
				"z": -2.6213538873,
				"element": "H" 
			},
			{
				"x": 1.8629448283,
				"y": 1.9867444315,
				"z": -3.3838460159,
				"element": "H" 
			},
			{
				"x": 3.3003843557,
				"y": 3.1747751549,
				"z": -0.1964926298,
				"element": "H" 
			},
			{
				"x": 2.4365909159,
				"y": 2.5085275207,
				"z": 2.0336353706,
				"element": "H" 
			},
			{
				"x": 0.2767570862,
				"y": 1.3000513058,
				"z": 2.2415506911,
				"element": "H" 
			}
		],
		 "valence_orbital": [ 
			{
				"type": "occ",
				"energy": -0.29571,
				"method": "rhf"
			},
			{
				"type": "occ",
				"energy": -0.29318,
				"method": "rhf"
			},
			{
				"type": "occ",
				"energy": -0.25787,
				"method": "rhf"
			},
			{
				"type": "occ",
				"energy": -0.2553,
				"method": "rhf"
			},
			{
				"type": "occ",
				"energy": -0.22764,
				"method": "rhf"
			},
			{
				"type": "unocc",
				"energy": -0.03015,
				"method": "rhf"
			},
			{
				"type": "unocc",
				"energy": -0.01784,
				"method": "rhf"
			},
			{
				"type": "unocc",
				"energy": 0.02803,
				"method": "rhf"
			},
			{
				"type": "unocc",
				"energy": 0.05229,
				"method": "rhf"
			},
			{
				"type": "unocc",
				"energy": 0.0591,
				"method": "rhf"
			}
		],
		"cosmo_sigma_profile": { 
			"-0.025": 0.0,
			"-0.024": 0.0,
			"-0.023": 0.0,
			"-0.022": 0.0,
			"-0.021": 0.0,
			"-0.02": 0.0,
			"-0.019": 0.0,
			"-0.018": 0.0,
			"-0.017": 0.0,
			"-0.016": 0.0958421530033,
			"-0.015": 0.964240453758,
			"-0.014": 1.67032070241,
			"-0.013": 1.71414477292,
			"-0.012": 1.25462322874,
			"-0.011": 1.23571468319,
			"-0.01": 2.02788997711,
			"-0.009": 1.49234594438,
			"-0.008": 3.69936490331,
			"-0.007": 9.31686493231,
			"-0.006": 12.9693134535,
			"-0.005": 15.154418638,
			"-0.004": 15.4673538229,
			"-0.003": 15.8547385954,
			"-0.002": 12.7025301748,
			"-0.001": 13.2875940966,
			"0.0": 10.8514239865,
			"0.001": 10.1925534209,
			"0.002": 13.1158867813,
			"0.003": 14.9739928954,
			"0.004": 15.7054208507,
			"0.005": 15.7025678885,
			"0.006": 10.5415558819,
			"0.007": 10.3223625482,
			"0.008": 1.18017416967,
			"0.009": 1.83191403464,
			"0.01": 1.37348672798,
			"0.011": 1.85150856946,
			"0.012": 2.45697950774,
			"0.013": 3.11762269389,
			"0.014": 1.80796413648,
			"0.015": 0.246856479366,
			"0.016": 0.0,
			"0.017": 0.0,
			"0.018": 0.0,
			"0.019": 0.0,
			"0.02": 0.0,
			"0.021": 0.0,
			"0.022": 0.0,
			"0.023": 0.0,
			"0.024": 0.0,
			"0.025": 0.0
		}
	}
}
