{
	 "smiles": "C(=N/N=C/C1=CC=CC=C1)C1=CC=CC=C1", 
	 "Tm": 366.15, 
	 "num_atms": 28, 
	 "gaussian": { 
		 "optdone": 1, 
		 "sigma_profile": "yes", 
		 "theory": "DFT", 
		 "functional": "B3LYP", 
		 "basiset": "6-31G**", 
		 "properties": { 
			 "R2extent": 7022.0839, 
			 "electric_dipole_moment_norm": 0.0, 
			 "electric_quadrupole_moment_norm": 15.0456602969, 
			 "total_energy": -650.187185968, 
			 "HOMO_LUMO_gap": 0.14957, 
			 "cosmo_polarized_energy": -8.95, 
			 "cosmo_cavitation_energy": 33.63, 
			 "cosmo_dispersion_energy": -24.52, 
			 "cosmo_repulsion_energy": 1.9, 
			 "cosmo_total_nonelectrostatic_energy": 11.01, 
			 "SMD_solvation_energy": 4.88 
		},
		"coords": [
			{
				"x": -0.2338508077,
				"y": -0.3443180077,
				"z": -1.0667292971,
				"element": "C" 
			},
			{
				"x": -0.7882969953,
				"y": 0.2379961951,
				"z": -0.0603694291,
				"element": "N" 
			},
			{
				"x": 0.1314415965,
				"y": 0.9570409698,
				"z": 0.7023313574,
				"element": "N" 
			},
			{
				"x": -0.4230040424,
				"y": 1.5393540306,
				"z": 1.7086920759,
				"element": "C" 
			},
			{
				"x": 0.3391673043,
				"y": 2.3529741953,
				"z": 2.6552019503,
				"element": "C" 
			},
			{
				"x": -0.3298609798,
				"y": 2.9593988463,
				"z": 3.7313368775,
				"element": "C" 
			},
			{
				"x": 0.3677246943,
				"y": 3.7408499309,
				"z": 4.6509900644,
				"element": "C" 
			},
			{
				"x": 1.7438587738,
				"y": 3.9255388603,
				"z": 4.5055876471,
				"element": "C" 
			},
			{
				"x": 2.4196852808,
				"y": 3.3254827183,
				"z": 3.4365484146,
				"element": "C" 
			},
			{
				"x": 1.7266349502,
				"y": 2.5454803687,
				"z": 2.5176265744,
				"element": "C" 
			},
			{
				"x": -0.9960232497,
				"y": -1.1579377525,
				"z": -2.0132386602,
				"element": "C" 
			},
			{
				"x": -2.3834914731,
				"y": -1.3504445661,
				"z": -1.8756612264,
				"element": "C" 
			},
			{
				"x": -3.0765404258,
				"y": -2.1304485565,
				"z": -2.7945803628,
				"element": "C" 
			},
			{
				"x": -2.4007171149,
				"y": -2.7305035925,
				"z": -3.8636227855,
				"element": "C" 
			},
			{
				"x": -1.0245845467,
				"y": -2.5458141965,
				"z": -4.0090270629,
				"element": "C" 
			},
			{
				"x": -0.3269961002,
				"y": -1.7643634427,
				"z": -3.0893735447,
				"element": "C" 
			},
			{
				"x": 0.8429340259,
				"y": -0.2386546058,
				"z": -1.2363589293,
				"element": "H" 
			},
			{
				"x": -1.4997892072,
				"y": 1.4336930448,
				"z": 1.8783208065,
				"element": "H" 
			},
			{
				"x": -1.4015578177,
				"y": 2.8138603831,
				"z": 3.8421263638,
				"element": "H" 
			},
			{
				"x": -0.160486722,
				"y": 4.2046172851,
				"z": 5.4789181089,
				"element": "H" 
			},
			{
				"x": 2.2892950674,
				"y": 4.5341416381,
				"z": 5.221170819,
				"element": "H" 
			},
			{
				"x": 3.4904584302,
				"y": 3.4690476355,
				"z": 3.3231973791,
				"element": "H" 
			},
			{
				"x": 2.2360305266,
				"y": 2.0739819412,
				"z": 1.684143504,
				"element": "H" 
			},
			{
				"x": -2.8928848017,
				"y": -0.8789463719,
				"z": -1.0421767017,
				"element": "H" 
			},
			{
				"x": -4.147314677,
				"y": -2.2740154765,
				"z": -2.681226756,
				"element": "H" 
			},
			{
				"x": -2.9461569496,
				"y": -3.3391052822,
				"z": -4.5792054435,
				"element": "H" 
			},
			{
				"x": -0.4963751569,
				"y": -3.0095792808,
				"z": -4.8369568795,
				"element": "H" 
			},
			{
				"x": 0.7447004178,
				"y": -1.6188269114,
				"z": -3.2001648641,
				"element": "H" 
			}
		],
		 "valence_orbital": [ 
			{
				"type": "occ",
				"energy": -0.26094,
				"method": "rhf"
			},
			{
				"type": "occ",
				"energy": -0.25517,
				"method": "rhf"
			},
			{
				"type": "occ",
				"energy": -0.25479,
				"method": "rhf"
			},
			{
				"type": "occ",
				"energy": -0.23156,
				"method": "rhf"
			},
			{
				"type": "occ",
				"energy": -0.21804,
				"method": "rhf"
			},
			{
				"type": "unocc",
				"energy": -0.06847,
				"method": "rhf"
			},
			{
				"type": "unocc",
				"energy": -0.02064,
				"method": "rhf"
			},
			{
				"type": "unocc",
				"energy": -0.00384,
				"method": "rhf"
			},
			{
				"type": "unocc",
				"energy": -0.00339,
				"method": "rhf"
			},
			{
				"type": "unocc",
				"energy": 0.04556,
				"method": "rhf"
			}
		],
		"cosmo_sigma_profile": { 
			"-0.025": 0.0,
			"-0.024": 0.0,
			"-0.023": 0.0,
			"-0.022": 0.0,
			"-0.021": 0.0,
			"-0.02": 0.0,
			"-0.019": 0.0,
			"-0.018": 0.0,
			"-0.017": 0.0,
			"-0.016": 0.0,
			"-0.015": 0.0,
			"-0.014": 0.0,
			"-0.013": 0.0,
			"-0.012": 0.0,
			"-0.011": 0.0,
			"-0.01": 0.0,
			"-0.009": 0.0,
			"-0.008": 0.48752472262,
			"-0.007": 6.61073986595,
			"-0.006": 18.7968589915,
			"-0.005": 23.2014267333,
			"-0.004": 24.2659636946,
			"-0.003": 17.7481757354,
			"-0.002": 15.6647500268,
			"-0.001": 15.8726870564,
			"0.0": 16.0942970137,
			"0.001": 19.2422180183,
			"0.002": 21.5899865443,
			"0.003": 27.0073509949,
			"0.004": 30.7632474387,
			"0.005": 16.8815678666,
			"0.006": 3.58175912704,
			"0.007": 4.73379506681,
			"0.008": 2.58260193519,
			"0.009": 1.28753243902,
			"0.01": 2.86519416501,
			"0.011": 1.10615420983,
			"0.012": 0.0,
			"0.013": 0.0,
			"0.014": 0.0,
			"0.015": 0.0,
			"0.016": 0.0,
			"0.017": 0.0,
			"0.018": 0.0,
			"0.019": 0.0,
			"0.02": 0.0,
			"0.021": 0.0,
			"0.022": 0.0,
			"0.023": 0.0,
			"0.024": 0.0,
			"0.025": 0.0
		}
	}
}
