{
	 "smiles": "OC(=O)C1CCN(CC1)C1=NC2=C(O1)C=CC=C2", 
	 "Tm": 421.15, 
	 "num_atms": 32, 
	 "gaussian": { 
		 "optdone": 1, 
		 "sigma_profile": "yes", 
		 "theory": "DFT", 
		 "functional": "B3LYP", 
		 "basiset": "6-31G**", 
		 "properties": { 
			 "R2extent": 5997.695, 
			 "electric_dipole_moment_norm": 2.58384796379, 
			 "electric_quadrupole_moment_norm": 15.0884151179, 
			 "total_energy": -839.022663717, 
			 "HOMO_LUMO_gap": 0.19051, 
			 "cosmo_polarized_energy": -13.62, 
			 "cosmo_cavitation_energy": 34.53, 
			 "cosmo_dispersion_energy": -25.43, 
			 "cosmo_repulsion_energy": 1.94, 
			 "cosmo_total_nonelectrostatic_energy": 11.04, 
			 "SMD_solvation_energy": 4.01 
		},
		"coords": [
			{
				"x": -1.4301502911,
				"y": -4.7526134062,
				"z": -1.662459355,
				"element": "O" 
			},
			{
				"x": -1.8996860957,
				"y": -3.5439857288,
				"z": -1.2669090568,
				"element": "C" 
			},
			{
				"x": -2.8726783067,
				"y": -3.4353710035,
				"z": -0.5505078419,
				"element": "O" 
			},
			{
				"x": -1.0700555736,
				"y": -2.4037479311,
				"z": -1.8414952153,
				"element": "C" 
			},
			{
				"x": 0.4072763303,
				"y": -2.4863045048,
				"z": -1.375945773,
				"element": "C" 
			},
			{
				"x": 0.5614135619,
				"y": -2.072837868,
				"z": 0.0944544495,
				"element": "C" 
			},
			{
				"x": -0.0286931523,
				"y": -0.7529607137,
				"z": 0.330264894,
				"element": "N" 
			},
			{
				"x": -1.446758981,
				"y": -0.6428242043,
				"z": -0.0281360232,
				"element": "C" 
			},
			{
				"x": -1.6813249411,
				"y": -1.0319261272,
				"z": -1.4977705495,
				"element": "C" 
			},
			{
				"x": 0.797152297,
				"y": 0.324917643,
				"z": 0.3292645453,
				"element": "C" 
			},
			{
				"x": 2.1033647444,
				"y": 0.3254265084,
				"z": 0.3255520972,
				"element": "N" 
			},
			{
				"x": 2.4360612128,
				"y": 1.6779458015,
				"z": 0.400742155,
				"element": "C" 
			},
			{
				"x": 1.261087794,
				"y": 2.4437006659,
				"z": 0.4328840825,
				"element": "C" 
			},
			{
				"x": 0.1939894772,
				"y": 1.5616134445,
				"z": 0.3849349739,
				"element": "O" 
			},
			{
				"x": 1.2285651975,
				"y": 3.8233226534,
				"z": 0.4968162352,
				"element": "C" 
			},
			{
				"x": 2.4770318656,
				"y": 4.4607750759,
				"z": 0.532544677,
				"element": "C" 
			},
			{
				"x": 3.6700288736,
				"y": 3.7234730805,
				"z": 0.5023525558,
				"element": "C" 
			},
			{
				"x": 3.6717600254,
				"y": 2.3261498824,
				"z": 0.435807531,
				"element": "C" 
			},
			{
				"x": -2.0140818434,
				"y": -5.416057036,
				"z": -1.2575658597,
				"element": "H" 
			},
			{
				"x": -1.0861963352,
				"y": -2.5505065849,
				"z": -2.9291434766,
				"element": "H" 
			},
			{
				"x": 0.7961365598,
				"y": -3.4973418906,
				"z": -1.5278845556,
				"element": "H" 
			},
			{
				"x": 1.005559206,
				"y": -1.8070559074,
				"z": -1.9933941934,
				"element": "H" 
			},
			{
				"x": 1.6125113657,
				"y": -2.0321748239,
				"z": 0.3806273596,
				"element": "H" 
			},
			{
				"x": 0.0522363784,
				"y": -2.7892419581,
				"z": 0.752560914,
				"element": "H" 
			},
			{
				"x": -1.7831595782,
				"y": 0.375528543,
				"z": 0.1640587529,
				"element": "H" 
			},
			{
				"x": -2.01276853,
				"y": -1.3157957847,
				"z": 0.6232792812,
				"element": "H" 
			},
			{
				"x": -2.7562161501,
				"y": -1.0359944124,
				"z": -1.7022959408,
				"element": "H" 
			},
			{
				"x": -1.2221967684,
				"y": -0.2756803803,
				"z": -2.1453555959,
				"element": "H" 
			},
			{
				"x": 0.2961388621,
				"y": 4.3767962224,
				"z": 0.5200664454,
				"element": "H" 
			},
			{
				"x": 2.5176510916,
				"y": 5.5443168336,
				"z": 0.5852613712,
				"element": "H" 
			},
			{
				"x": 4.6178504684,
				"y": 4.2531511925,
				"z": 0.531783598,
				"element": "H" 
			},
			{
				"x": 4.5961512352,
				"y": 1.7587027187,
				"z": 0.412507518,
				"element": "H" 
			}
		],
		 "valence_orbital": [ 
			{
				"type": "occ",
				"energy": -0.28432,
				"method": "rhf"
			},
			{
				"type": "occ",
				"energy": -0.27669,
				"method": "rhf"
			},
			{
				"type": "occ",
				"energy": -0.26796,
				"method": "rhf"
			},
			{
				"type": "occ",
				"energy": -0.23409,
				"method": "rhf"
			},
			{
				"type": "occ",
				"energy": -0.19543,
				"method": "rhf"
			},
			{
				"type": "unocc",
				"energy": -0.00492,
				"method": "rhf"
			},
			{
				"type": "unocc",
				"energy": 2e-05,
				"method": "rhf"
			},
			{
				"type": "unocc",
				"energy": 0.01987,
				"method": "rhf"
			},
			{
				"type": "unocc",
				"energy": 0.06242,
				"method": "rhf"
			},
			{
				"type": "unocc",
				"energy": 0.06897,
				"method": "rhf"
			}
		],
		"cosmo_sigma_profile": { 
			"-0.025": 0.0,
			"-0.024": 0.0,
			"-0.023": 0.0,
			"-0.022": 0.0,
			"-0.021": 0.0,
			"-0.02": 0.0,
			"-0.019": 0.0,
			"-0.018": 0.605435228049,
			"-0.017": 1.18690421,
			"-0.016": 0.653514522764,
			"-0.015": 0.867531244813,
			"-0.014": 0.417025803103,
			"-0.013": 0.681662303905,
			"-0.012": 1.00977921001,
			"-0.011": 0.704208100691,
			"-0.01": 0.759902026044,
			"-0.009": 0.718989932293,
			"-0.008": 0.395292422407,
			"-0.007": 2.42789625036,
			"-0.006": 9.48542556954,
			"-0.005": 19.249717039,
			"-0.004": 31.2155087023,
			"-0.003": 28.9800627828,
			"-0.002": 24.650803783,
			"-0.001": 20.9066359574,
			"0.0": 15.1868291606,
			"0.001": 14.4434616778,
			"0.002": 15.8141477921,
			"0.003": 14.309140068,
			"0.004": 16.145398796,
			"0.005": 14.2512659053,
			"0.006": 11.5237487255,
			"0.007": 4.68345493625,
			"0.008": 4.07480844273,
			"0.009": 3.74710538012,
			"0.01": 3.39219094013,
			"0.011": 4.19642864686,
			"0.012": 4.13044767045,
			"0.013": 0.893504137682,
			"0.014": 1.02342755015,
			"0.015": 0.636431532019,
			"0.016": 0.0,
			"0.017": 0.0,
			"0.018": 0.0,
			"0.019": 0.0,
			"0.02": 0.0,
			"0.021": 0.0,
			"0.022": 0.0,
			"0.023": 0.0,
			"0.024": 0.0,
			"0.025": 0.0
		}
	}
}
