{
	 "smiles": "[O-][N+](=O)C1=NNC=C1S(Cl)(=O)=O", 
	 "Tm": 428.15, 
	 "num_atms": 14, 
	 "gaussian": { 
		 "optdone": 1, 
		 "sigma_profile": "yes", 
		 "theory": "DFT", 
		 "functional": "B3LYP", 
		 "basiset": "6-31G**", 
		 "properties": { 
			 "R2extent": 2717.8129, 
			 "electric_dipole_moment_norm": 7.0365317103, 
			 "electric_quadrupole_moment_norm": 16.1500388334, 
			 "total_energy": -1438.83050446, 
			 "HOMO_LUMO_gap": 0.20111, 
			 "cosmo_polarized_energy": -21.6, 
			 "cosmo_cavitation_energy": 23.44, 
			 "cosmo_dispersion_energy": -17.89, 
			 "cosmo_repulsion_energy": 1.39, 
			 "cosmo_total_nonelectrostatic_energy": 6.95, 
			 "SMD_solvation_energy": 4.5 
		},
		"coords": [
			{
				"x": 1.0474492884,
				"y": 0.826503598,
				"z": 1.3936862008,
				"element": "O" 
			},
			{
				"x": 1.270101239,
				"y": 0.1832528596,
				"z": 0.3701575047,
				"element": "N" 
			},
			{
				"x": 2.3630045385,
				"y": -0.0475813316,
				"z": -0.1274100197,
				"element": "O" 
			},
			{
				"x": 0.0932058887,
				"y": -0.3557194248,
				"z": -0.2972915052,
				"element": "C" 
			},
			{
				"x": 0.2407815601,
				"y": -1.2291051955,
				"z": -1.2777191055,
				"element": "N" 
			},
			{
				"x": -1.0177045948,
				"y": -1.5313640721,
				"z": -1.634687951,
				"element": "N" 
			},
			{
				"x": -1.9631256695,
				"y": -0.8836851149,
				"z": -0.9172396336,
				"element": "C" 
			},
			{
				"x": -1.2730418011,
				"y": -0.0933402468,
				"z": -0.0144430862,
				"element": "C" 
			},
			{
				"x": -2.1272755488,
				"y": 1.0202182637,
				"z": 1.0655782609,
				"element": "S" 
			},
			{
				"x": -1.7800901851,
				"y": 0.162976633,
				"z": 2.9537086211,
				"element": "Cl" 
			},
			{
				"x": -3.5461259106,
				"y": 0.8291751789,
				"z": 0.7839285614,
				"element": "O" 
			},
			{
				"x": -1.5085382107,
				"y": 2.3331609839,
				"z": 1.0466102049,
				"element": "O" 
			},
			{
				"x": -1.1599865749,
				"y": -2.1953516502,
				"z": -2.3834183862,
				"element": "H" 
			},
			{
				"x": -3.0245540193,
				"y": -1.0015404812,
				"z": -1.0738596665,
				"element": "H" 
			}
		],
		 "valence_orbital": [ 
			{
				"type": "occ",
				"energy": -0.3291,
				"method": "rhf"
			},
			{
				"type": "occ",
				"energy": -0.32695,
				"method": "rhf"
			},
			{
				"type": "occ",
				"energy": -0.32129,
				"method": "rhf"
			},
			{
				"type": "occ",
				"energy": -0.31893,
				"method": "rhf"
			},
			{
				"type": "occ",
				"energy": -0.31141,
				"method": "rhf"
			},
			{
				"type": "unocc",
				"energy": -0.1103,
				"method": "rhf"
			},
			{
				"type": "unocc",
				"energy": -0.09023,
				"method": "rhf"
			},
			{
				"type": "unocc",
				"energy": -0.04849,
				"method": "rhf"
			},
			{
				"type": "unocc",
				"energy": 0.00148,
				"method": "rhf"
			},
			{
				"type": "unocc",
				"energy": 0.02118,
				"method": "rhf"
			}
		],
		"cosmo_sigma_profile": { 
			"-0.025": 0.0,
			"-0.024": 0.0,
			"-0.023": 0.0,
			"-0.022": 0.0,
			"-0.021": 0.0,
			"-0.02": 1.48524345293,
			"-0.019": 2.33326070162,
			"-0.018": 1.87844321952,
			"-0.017": 1.34611277321,
			"-0.016": 0.959131766346,
			"-0.015": 1.07136963009,
			"-0.014": 1.42495838548,
			"-0.013": 2.61259983783,
			"-0.012": 2.11552360532,
			"-0.011": 2.04256104956,
			"-0.01": 1.88139342794,
			"-0.009": 2.47328932211,
			"-0.008": 3.28421699749,
			"-0.007": 4.0395745139,
			"-0.006": 6.56713222643,
			"-0.005": 10.4929912046,
			"-0.004": 11.3326456914,
			"-0.003": 8.37064927681,
			"-0.002": 8.01730585855,
			"-0.001": 6.68721220737,
			"0.0": 7.76969867055,
			"0.001": 9.05835012025,
			"0.002": 14.3314134089,
			"0.003": 11.579566551,
			"0.004": 6.7139976445,
			"0.005": 7.22004433367,
			"0.006": 12.5458328435,
			"0.007": 17.693326286,
			"0.008": 15.9921036093,
			"0.009": 5.11903555792,
			"0.01": 1.39599741717,
			"0.011": 1.58522793132,
			"0.012": 0.415719040452,
			"0.013": 0.0,
			"0.014": 0.0,
			"0.015": 0.0,
			"0.016": 0.0,
			"0.017": 0.0,
			"0.018": 0.0,
			"0.019": 0.0,
			"0.02": 0.0,
			"0.021": 0.0,
			"0.022": 0.0,
			"0.023": 0.0,
			"0.024": 0.0,
			"0.025": 0.0
		}
	}
}
