{
	 "smiles": "NC1=C2C=CC=CC2=NC(CN2CCNCC2)=N1", 
	 "Tm": 487.15, 
	 "num_atms": 35, 
	 "gaussian": { 
		 "optdone": 1, 
		 "sigma_profile": "yes", 
		 "theory": "DFT", 
		 "functional": "B3LYP", 
		 "basiset": "6-31G**", 
		 "properties": { 
			 "R2extent": 5109.1933, 
			 "electric_dipole_moment_norm": 5.19620673761, 
			 "electric_quadrupole_moment_norm": 10.8727013387, 
			 "total_energy": -779.382295982, 
			 "HOMO_LUMO_gap": 0.13573, 
			 "cosmo_polarized_energy": -16.36, 
			 "cosmo_cavitation_energy": 36.16, 
			 "cosmo_dispersion_energy": -26.07, 
			 "cosmo_repulsion_energy": 2.02, 
			 "cosmo_total_nonelectrostatic_energy": 12.11, 
			 "SMD_solvation_energy": -1.49 
		},
		"coords": [
			{
				"x": -3.2536804832,
				"y": -0.5155261658,
				"z": 2.2282710495,
				"element": "N" 
			},
			{
				"x": -2.3711541366,
				"y": -0.6922293992,
				"z": 1.1970827138,
				"element": "C" 
			},
			{
				"x": -1.6365606101,
				"y": -1.9199464604,
				"z": 1.0402071433,
				"element": "C" 
			},
			{
				"x": -1.7323746697,
				"y": -3.0415488439,
				"z": 1.8976313211,
				"element": "C" 
			},
			{
				"x": -0.9942137887,
				"y": -4.1790501487,
				"z": 1.6412644,
				"element": "C" 
			},
			{
				"x": -0.1347300074,
				"y": -4.2280891339,
				"z": 0.5193176295,
				"element": "C" 
			},
			{
				"x": -0.0156975309,
				"y": -3.1430794589,
				"z": -0.3225512866,
				"element": "C" 
			},
			{
				"x": -0.7583336113,
				"y": -1.9591459611,
				"z": -0.0797027341,
				"element": "C" 
			},
			{
				"x": -0.6062588323,
				"y": -0.8945740119,
				"z": -0.924639771,
				"element": "N" 
			},
			{
				"x": -1.3167991948,
				"y": 0.185760482,
				"z": -0.6506511962,
				"element": "C" 
			},
			{
				"x": -1.1024317674,
				"y": 1.4045604252,
				"z": -1.5351648301,
				"element": "C" 
			},
			{
				"x": -0.101278036,
				"y": 2.3558212329,
				"z": -1.0544350972,
				"element": "N" 
			},
			{
				"x": -0.5082077288,
				"y": 3.162123313,
				"z": 0.0996538013,
				"element": "C" 
			},
			{
				"x": 0.6989326696,
				"y": 3.9680087183,
				"z": 0.5867932522,
				"element": "C" 
			},
			{
				"x": 1.8101281346,
				"y": 3.1198560815,
				"z": 1.0562555141,
				"element": "N" 
			},
			{
				"x": 1.8204720123,
				"y": 1.7799984774,
				"z": 0.4437935641,
				"element": "C" 
			},
			{
				"x": 1.2849835537,
				"y": 1.8559485178,
				"z": -0.9880284774,
				"element": "C" 
			},
			{
				"x": -2.2058382767,
				"y": 0.3314225754,
				"z": 0.3707749168,
				"element": "N" 
			},
			{
				"x": -3.8277044284,
				"y": 0.3121152566,
				"z": 2.151946629,
				"element": "H" 
			},
			{
				"x": -3.6870644349,
				"y": -1.3204825093,
				"z": 2.6509947911,
				"element": "H" 
			},
			{
				"x": -2.3707319983,
				"y": -3.0084633292,
				"z": 2.7762788179,
				"element": "H" 
			},
			{
				"x": -1.067604762,
				"y": -5.0362079588,
				"z": 2.3035956971,
				"element": "H" 
			},
			{
				"x": 0.4404376576,
				"y": -5.1292231209,
				"z": 0.3262555031,
				"element": "H" 
			},
			{
				"x": 0.6438589846,
				"y": -3.1548552024,
				"z": -1.1839891686,
				"element": "H" 
			},
			{
				"x": -0.7992066653,
				"y": 1.051414901,
				"z": -2.5256678913,
				"element": "H" 
			},
			{
				"x": -2.0537846502,
				"y": 1.939372428,
				"z": -1.6316496021,
				"element": "H" 
			},
			{
				"x": -0.902518698,
				"y": 2.5585317285,
				"z": 0.9352684324,
				"element": "H" 
			},
			{
				"x": -1.3195299953,
				"y": 3.8363724584,
				"z": -0.2101522433,
				"element": "H" 
			},
			{
				"x": 1.0476503793,
				"y": 4.6028890435,
				"z": -0.2392390111,
				"element": "H" 
			},
			{
				"x": 0.399335696,
				"y": 4.6409752351,
				"z": 1.3967866551,
				"element": "H" 
			},
			{
				"x": 1.759155282,
				"y": 3.0242173401,
				"z": 2.0650387498,
				"element": "H" 
			},
			{
				"x": 1.2126876874,
				"y": 1.0488529241,
				"z": 1.0029698307,
				"element": "H" 
			},
			{
				"x": 2.848685798,
				"y": 1.3945510377,
				"z": 0.4303231014,
				"element": "H" 
			},
			{
				"x": 1.9433976591,
				"y": 2.5152985385,
				"z": -1.5729654742,
				"element": "H" 
			},
			{
				"x": 1.331978792,
				"y": 0.8614309894,
				"z": -1.4390667301,
				"element": "H" 
			}
		],
		 "valence_orbital": [ 
			{
				"type": "occ",
				"energy": -0.2636,
				"method": "rhf"
			},
			{
				"type": "occ",
				"energy": -0.24196,
				"method": "rhf"
			},
			{
				"type": "occ",
				"energy": -0.22422,
				"method": "rhf"
			},
			{
				"type": "occ",
				"energy": -0.20049,
				"method": "rhf"
			},
			{
				"type": "occ",
				"energy": -0.18467,
				"method": "rhf"
			},
			{
				"type": "unocc",
				"energy": -0.04894,
				"method": "rhf"
			},
			{
				"type": "unocc",
				"energy": -0.02277,
				"method": "rhf"
			},
			{
				"type": "unocc",
				"energy": 0.02683,
				"method": "rhf"
			},
			{
				"type": "unocc",
				"energy": 0.06133,
				"method": "rhf"
			},
			{
				"type": "unocc",
				"energy": 0.08162,
				"method": "rhf"
			}
		],
		"cosmo_sigma_profile": { 
			"-0.025": 0.0,
			"-0.024": 0.0,
			"-0.023": 0.0,
			"-0.022": 0.0,
			"-0.021": 0.0,
			"-0.02": 0.0,
			"-0.019": 0.0,
			"-0.018": 0.0,
			"-0.017": 0.0,
			"-0.016": 0.0,
			"-0.015": 0.429698049654,
			"-0.014": 1.51441889144,
			"-0.013": 2.63394211929,
			"-0.012": 2.46551588764,
			"-0.011": 2.4909910497,
			"-0.01": 3.35223806685,
			"-0.009": 3.79273983513,
			"-0.008": 3.51071591109,
			"-0.007": 3.59649899878,
			"-0.006": 9.52627336865,
			"-0.005": 12.7933488805,
			"-0.004": 13.8894128039,
			"-0.003": 18.5760510201,
			"-0.002": 28.6412727456,
			"-0.001": 33.2339650178,
			"0.0": 28.4610176902,
			"0.001": 18.3994235705,
			"0.002": 17.3128233605,
			"0.003": 20.1440796895,
			"0.004": 17.2719974652,
			"0.005": 7.52667971081,
			"0.006": 5.72533659646,
			"0.007": 4.806915573,
			"0.008": 4.51187624683,
			"0.009": 4.11357619422,
			"0.01": 3.09176999197,
			"0.011": 2.69264290336,
			"0.012": 3.04263601667,
			"0.013": 1.91908205487,
			"0.014": 1.15410041511,
			"0.015": 1.67410955943,
			"0.016": 0.77755525145,
			"0.017": 0.518922574105,
			"0.018": 0.419193317633,
			"0.019": 0.371774671812,
			"0.02": 0.0281464062956,
			"0.021": 0.0,
			"0.022": 0.0,
			"0.023": 0.0,
			"0.024": 0.0,
			"0.025": 0.0
		}
	}
}
