{
	 "smiles": "CC1=CC(N)=C(C(O)=O)C(C)=C1", 
	 "Tm": 377.15, 
	 "num_atms": 23, 
	 "gaussian": { 
		 "optdone": 1, 
		 "sigma_profile": "yes", 
		 "theory": "DFT", 
		 "functional": "B3LYP", 
		 "basiset": "6-31G**", 
		 "properties": { 
			 "R2extent": 2573.18, 
			 "electric_dipole_moment_norm": 1.20936281157, 
			 "electric_quadrupole_moment_norm": 7.85467284551, 
			 "total_energy": -554.82632515, 
			 "HOMO_LUMO_gap": 0.16355, 
			 "cosmo_polarized_energy": -9.47, 
			 "cosmo_cavitation_energy": 25.78, 
			 "cosmo_dispersion_energy": -19.49, 
			 "cosmo_repulsion_energy": 1.55, 
			 "cosmo_total_nonelectrostatic_energy": 7.83, 
			 "SMD_solvation_energy": 5.45 
		},
		"coords": [
			{
				"x": 2.4853810988,
				"y": 1.3303731086,
				"z": 0.1635895953,
				"element": "C" 
			},
			{
				"x": 1.0837492372,
				"y": 0.7833779395,
				"z": 0.2778913886,
				"element": "C" 
			},
			{
				"x": 0.3091152175,
				"y": 0.5613732855,
				"z": -0.8438778045,
				"element": "C" 
			},
			{
				"x": -1.0063642139,
				"y": 0.0502149685,
				"z": -0.7487806915,
				"element": "C" 
			},
			{
				"x": -1.7158691401,
				"y": -0.1176610497,
				"z": -1.8982878674,
				"element": "N" 
			},
			{
				"x": -1.5505247631,
				"y": -0.2524619345,
				"z": 0.5443203809,
				"element": "C" 
			},
			{
				"x": -2.9115689555,
				"y": -0.8036047675,
				"z": 0.5937660478,
				"element": "C" 
			},
			{
				"x": -3.4086593172,
				"y": -1.0547145252,
				"z": 1.8323430924,
				"element": "O" 
			},
			{
				"x": -3.6249078038,
				"y": -1.0537277557,
				"z": -0.3797525709,
				"element": "O" 
			},
			{
				"x": -0.7414807656,
				"y": -0.0159970118,
				"z": 1.7016304633,
				"element": "C" 
			},
			{
				"x": -1.1943483786,
				"y": -0.2886323593,
				"z": 3.1205897147,
				"element": "C" 
			},
			{
				"x": 0.5420255947,
				"y": 0.4907412071,
				"z": 1.5440826497,
				"element": "C" 
			},
			{
				"x": 2.581194074,
				"y": 2.2797770929,
				"z": 0.7030061801,
				"element": "H" 
			},
			{
				"x": 3.2137838905,
				"y": 0.6391469999,
				"z": 0.6030066154,
				"element": "H" 
			},
			{
				"x": 2.7689630482,
				"y": 1.5034526579,
				"z": -0.8778968321,
				"element": "H" 
			},
			{
				"x": 0.7049343511,
				"y": 0.7845083098,
				"z": -1.8321485894,
				"element": "H" 
			},
			{
				"x": -2.6227203909,
				"y": -0.5635276576,
				"z": -1.8391708359,
				"element": "H" 
			},
			{
				"x": -1.2505820945,
				"y": 0.0005598396,
				"z": -2.7821568224,
				"element": "H" 
			},
			{
				"x": -4.2978226165,
				"y": -1.4095895367,
				"z": 1.6662980452,
				"element": "H" 
			},
			{
				"x": -1.4548343973,
				"y": -1.3393271866,
				"z": 3.2719218524,
				"element": "H" 
			},
			{
				"x": -2.0839106531,
				"y": 0.2894448082,
				"z": 3.3834808387,
				"element": "H" 
			},
			{
				"x": -0.3935880565,
				"y": -0.0273161794,
				"z": 3.8169156709,
				"element": "H" 
			},
			{
				"x": 1.1485350347,
				"y": 0.6658897463,
				"z": 2.4283294786,
				"element": "H" 
			}
		],
		 "valence_orbital": [ 
			{
				"type": "occ",
				"energy": -0.30869,
				"method": "rhf"
			},
			{
				"type": "occ",
				"energy": -0.295,
				"method": "rhf"
			},
			{
				"type": "occ",
				"energy": -0.26979,
				"method": "rhf"
			},
			{
				"type": "occ",
				"energy": -0.24034,
				"method": "rhf"
			},
			{
				"type": "occ",
				"energy": -0.19676,
				"method": "rhf"
			},
			{
				"type": "unocc",
				"energy": -0.03321,
				"method": "rhf"
			},
			{
				"type": "unocc",
				"energy": 0.01995,
				"method": "rhf"
			},
			{
				"type": "unocc",
				"energy": 0.06375,
				"method": "rhf"
			},
			{
				"type": "unocc",
				"energy": 0.08546,
				"method": "rhf"
			},
			{
				"type": "unocc",
				"energy": 0.09866,
				"method": "rhf"
			}
		],
		"cosmo_sigma_profile": { 
			"-0.025": 0.0,
			"-0.024": 0.0,
			"-0.023": 0.0,
			"-0.022": 0.0,
			"-0.021": 0.0,
			"-0.02": 0.0,
			"-0.019": 0.0,
			"-0.018": 0.196574622239,
			"-0.017": 0.625383342568,
			"-0.016": 0.607192034392,
			"-0.015": 1.35902028102,
			"-0.014": 0.539516250914,
			"-0.013": 1.1709204417,
			"-0.012": 1.78724337147,
			"-0.011": 2.12401075501,
			"-0.01": 2.25363848554,
			"-0.009": 2.01070319813,
			"-0.008": 2.32363128894,
			"-0.007": 3.31439152587,
			"-0.006": 3.63887223788,
			"-0.005": 5.45713941189,
			"-0.004": 12.9908451171,
			"-0.003": 14.2394978078,
			"-0.002": 16.8839638373,
			"-0.001": 16.8624386747,
			"0.0": 20.8732294211,
			"0.001": 18.6264329673,
			"0.002": 12.1768824768,
			"0.003": 12.3883063422,
			"0.004": 14.0267406484,
			"0.005": 14.9670714159,
			"0.006": 9.96119303694,
			"0.007": 1.97529697902,
			"0.008": 1.57207372601,
			"0.009": 2.12900701222,
			"0.01": 1.56070069503,
			"0.011": 2.25512150456,
			"0.012": 1.99334193187,
			"0.013": 0.492204899206,
			"0.014": 0.0,
			"0.015": 0.0,
			"0.016": 0.0,
			"0.017": 0.0,
			"0.018": 0.0,
			"0.019": 0.0,
			"0.02": 0.0,
			"0.021": 0.0,
			"0.022": 0.0,
			"0.023": 0.0,
			"0.024": 0.0,
			"0.025": 0.0
		}
	}
}
