{
	 "smiles": "CC1=C(F)C=C(Cl)C(=C1)C(=O)CCl", 
	 "Tm": 310.15, 
	 "num_atms": 20, 
	 "gaussian": { 
		 "optdone": 1, 
		 "sigma_profile": "yes", 
		 "theory": "DFT", 
		 "functional": "B3LYP", 
		 "basiset": "6-31G**", 
		 "properties": { 
			 "R2extent": 4791.1155, 
			 "electric_dipole_moment_norm": 3.72314507641, 
			 "electric_quadrupole_moment_norm": 8.91527917566, 
			 "total_energy": -1442.61712858, 
			 "HOMO_LUMO_gap": 0.19083, 
			 "cosmo_polarized_energy": -9.26, 
			 "cosmo_cavitation_energy": 28.15, 
			 "cosmo_dispersion_energy": -20.73, 
			 "cosmo_repulsion_energy": 1.62, 
			 "cosmo_total_nonelectrostatic_energy": 9.04, 
			 "SMD_solvation_energy": 5.27 
		},
		"coords": [
			{
				"x": -2.0694540039,
				"y": -0.7987869918,
				"z": -2.7313204011,
				"element": "C" 
			},
			{
				"x": -2.0271361004,
				"y": 0.0051492914,
				"z": -1.4585319776,
				"element": "C" 
			},
			{
				"x": -3.2042056405,
				"y": 0.4880547806,
				"z": -0.8793663209,
				"element": "C" 
			},
			{
				"x": -4.3766616444,
				"y": 0.2195606213,
				"z": -1.4827622729,
				"element": "F" 
			},
			{
				"x": -3.2205067506,
				"y": 1.2343213506,
				"z": 0.2877999355,
				"element": "C" 
			},
			{
				"x": -2.0131207016,
				"y": 1.5170620087,
				"z": 0.9280624087,
				"element": "C" 
			},
			{
				"x": -2.1580225292,
				"y": 2.4913848671,
				"z": 2.3882412738,
				"element": "Cl" 
			},
			{
				"x": -0.7882638622,
				"y": 1.059757036,
				"z": 0.4057109747,
				"element": "C" 
			},
			{
				"x": -0.8478414402,
				"y": 0.3134534198,
				"z": -0.7911918777,
				"element": "C" 
			},
			{
				"x": 0.6160472904,
				"y": 1.2506287172,
				"z": 0.9398553018,
				"element": "C" 
			},
			{
				"x": 1.5617133197,
				"y": 0.9033252696,
				"z": 0.259397113,
				"element": "O" 
			},
			{
				"x": 0.8381208862,
				"y": 1.8468078962,
				"z": 2.3312629061,
				"element": "C" 
			},
			{
				"x": 2.5571052546,
				"y": 1.784314132,
				"z": 2.8378857901,
				"element": "Cl" 
			},
			{
				"x": -2.664334653,
				"y": -1.7095249923,
				"z": -2.6044145002,
				"element": "H" 
			},
			{
				"x": -2.5305249255,
				"y": -0.2280150845,
				"z": -3.5442639632,
				"element": "H" 
			},
			{
				"x": -1.062748454,
				"y": -1.0864704998,
				"z": -3.0413390788,
				"element": "H" 
			},
			{
				"x": -4.1619676003,
				"y": 1.5906470352,
				"z": 0.6869538331,
				"element": "H" 
			},
			{
				"x": 0.1011799442,
				"y": -0.0267480267,
				"z": -1.19142086,
				"element": "H" 
			},
			{
				"x": 0.2498685225,
				"y": 1.313113758,
				"z": 3.0791399603,
				"element": "H" 
			},
			{
				"x": 0.5278530881,
				"y": 2.8926654116,
				"z": 2.3478017552,
				"element": "H" 
			}
		],
		 "valence_orbital": [ 
			{
				"type": "occ",
				"energy": -0.29812,
				"method": "rhf"
			},
			{
				"type": "occ",
				"energy": -0.29701,
				"method": "rhf"
			},
			{
				"type": "occ",
				"energy": -0.27704,
				"method": "rhf"
			},
			{
				"type": "occ",
				"energy": -0.27289,
				"method": "rhf"
			},
			{
				"type": "occ",
				"energy": -0.26395,
				"method": "rhf"
			},
			{
				"type": "unocc",
				"energy": -0.07312,
				"method": "rhf"
			},
			{
				"type": "unocc",
				"energy": -0.03415,
				"method": "rhf"
			},
			{
				"type": "unocc",
				"energy": 0.00043,
				"method": "rhf"
			},
			{
				"type": "unocc",
				"energy": 0.01601,
				"method": "rhf"
			},
			{
				"type": "unocc",
				"energy": 0.03241,
				"method": "rhf"
			}
		],
		"cosmo_sigma_profile": { 
			"-0.025": 0.0,
			"-0.024": 0.0,
			"-0.023": 0.0,
			"-0.022": 0.0,
			"-0.021": 0.0,
			"-0.02": 0.0,
			"-0.019": 0.0,
			"-0.018": 0.0,
			"-0.017": 0.0,
			"-0.016": 0.0,
			"-0.015": 0.0,
			"-0.014": 0.0,
			"-0.013": 0.0,
			"-0.012": 0.0,
			"-0.011": 0.0,
			"-0.01": 0.21027843437,
			"-0.009": 4.39920661287,
			"-0.008": 5.40617216158,
			"-0.007": 5.54105575438,
			"-0.006": 8.11703266047,
			"-0.005": 11.5261131462,
			"-0.004": 12.7843732598,
			"-0.003": 15.0354722626,
			"-0.002": 18.6905772305,
			"-0.001": 26.946322047,
			"0.0": 26.6657574659,
			"0.001": 19.2241363414,
			"0.002": 13.4815675926,
			"0.003": 18.1487606377,
			"0.004": 11.5141163985,
			"0.005": 6.57375771071,
			"0.006": 8.6684114793,
			"0.007": 2.81883564766,
			"0.008": 2.72695120903,
			"0.009": 2.38797393108,
			"0.01": 3.58512251193,
			"0.011": 2.62075388563,
			"0.012": 1.95967409009,
			"0.013": 0.583185420434,
			"0.014": 0.0,
			"0.015": 0.0,
			"0.016": 0.0,
			"0.017": 0.0,
			"0.018": 0.0,
			"0.019": 0.0,
			"0.02": 0.0,
			"0.021": 0.0,
			"0.022": 0.0,
			"0.023": 0.0,
			"0.024": 0.0,
			"0.025": 0.0
		}
	}
}
