{
	 "smiles": "OC1=CC=C(NCC2=CC=CC=C2)C=C1", 
	 "Tm": 359.15, 
	 "num_atms": 28, 
	 "gaussian": { 
		 "optdone": 1, 
		 "sigma_profile": "yes", 
		 "theory": "DFT", 
		 "functional": "B3LYP", 
		 "basiset": "6-31G**", 
		 "properties": { 
			 "R2extent": 4406.6209, 
			 "electric_dipole_moment_norm": 1.65324606759, 
			 "electric_quadrupole_moment_norm": 10.4926794833, 
			 "total_energy": -633.1869618, 
			 "HOMO_LUMO_gap": 0.17896, 
			 "cosmo_polarized_energy": -12.62, 
			 "cosmo_cavitation_energy": 31.57, 
			 "cosmo_dispersion_energy": -22.8, 
			 "cosmo_repulsion_energy": 1.79, 
			 "cosmo_total_nonelectrostatic_energy": 10.56, 
			 "SMD_solvation_energy": 5.05 
		},
		"coords": [
			{
				"x": 2.2583598644,
				"y": -4.7987531751,
				"z": -1.572644195,
				"element": "O" 
			},
			{
				"x": 1.8698036271,
				"y": -3.6046732675,
				"z": -1.0168846913,
				"element": "C" 
			},
			{
				"x": 0.6122573285,
				"y": -3.0384046415,
				"z": -1.2237736866,
				"element": "C" 
			},
			{
				"x": 0.2698692043,
				"y": -1.8203873961,
				"z": -0.6302085607,
				"element": "C" 
			},
			{
				"x": 1.1862966707,
				"y": -1.1418005939,
				"z": 0.1867079614,
				"element": "C" 
			},
			{
				"x": 0.8962892762,
				"y": 0.0991921143,
				"z": 0.7784412161,
				"element": "N" 
			},
			{
				"x": -0.4797097613,
				"y": 0.5269168047,
				"z": 0.9831244863,
				"element": "C" 
			},
			{
				"x": -1.1205685961,
				"y": 1.1999976558,
				"z": -0.2245273161,
				"element": "C" 
			},
			{
				"x": -2.5121851047,
				"y": 1.1725529961,
				"z": -0.3791787623,
				"element": "C" 
			},
			{
				"x": -3.1246932672,
				"y": 1.8325537291,
				"z": -1.4455595394,
				"element": "C" 
			},
			{
				"x": -2.3487413373,
				"y": 2.5242624749,
				"z": -2.3776362554,
				"element": "C" 
			},
			{
				"x": -0.9599306528,
				"y": 2.5496096831,
				"z": -2.2343138805,
				"element": "C" 
			},
			{
				"x": -0.3500559207,
				"y": 1.8932215672,
				"z": -1.1642747387,
				"element": "C" 
			},
			{
				"x": 2.4529186049,
				"y": -1.723803519,
				"z": 0.3842005823,
				"element": "C" 
			},
			{
				"x": 2.7921788253,
				"y": -2.9350864496,
				"z": -0.2051689245,
				"element": "C" 
			},
			{
				"x": 1.5321136358,
				"y": -5.1427897431,
				"z": -2.1077789203,
				"element": "H" 
			},
			{
				"x": -0.115204232,
				"y": -3.5449749315,
				"z": -1.8554932719,
				"element": "H" 
			},
			{
				"x": -0.7082907665,
				"y": -1.3963871705,
				"z": -0.8255484967,
				"element": "H" 
			},
			{
				"x": 1.4985806042,
				"y": 0.304375402,
				"z": 1.5626297832,
				"element": "H" 
			},
			{
				"x": -0.4684999822,
				"y": 1.24482869,
				"z": 1.8127447035,
				"element": "H" 
			},
			{
				"x": -1.1200937901,
				"y": -0.3097426763,
				"z": 1.3077792252,
				"element": "H" 
			},
			{
				"x": -3.121266697,
				"y": 0.6290235261,
				"z": 0.3404025286,
				"element": "H" 
			},
			{
				"x": -4.2055633765,
				"y": 1.8004212964,
				"z": -1.5519011646,
				"element": "H" 
			},
			{
				"x": -2.8222355905,
				"y": 3.0343437722,
				"z": -3.2117308689,
				"element": "H" 
			},
			{
				"x": -0.3486446729,
				"y": 3.0801498196,
				"z": -2.9593457469,
				"element": "H" 
			},
			{
				"x": 0.7296499111,
				"y": 1.8994372789,
				"z": -1.0523590285,
				"element": "H" 
			},
			{
				"x": 3.1815881726,
				"y": -1.2143674452,
				"z": 1.0111974993,
				"element": "H" 
			},
			{
				"x": 3.7696780227,
				"y": -3.3780158013,
				"z": -0.0438999379,
				"element": "H" 
			}
		],
		 "valence_orbital": [ 
			{
				"type": "occ",
				"energy": -0.26893,
				"method": "rhf"
			},
			{
				"type": "occ",
				"energy": -0.24625,
				"method": "rhf"
			},
			{
				"type": "occ",
				"energy": -0.24395,
				"method": "rhf"
			},
			{
				"type": "occ",
				"energy": -0.23725,
				"method": "rhf"
			},
			{
				"type": "occ",
				"energy": -0.18083,
				"method": "rhf"
			},
			{
				"type": "unocc",
				"energy": -0.00187,
				"method": "rhf"
			},
			{
				"type": "unocc",
				"energy": 0.00218,
				"method": "rhf"
			},
			{
				"type": "unocc",
				"energy": 0.00797,
				"method": "rhf"
			},
			{
				"type": "unocc",
				"energy": 0.0353,
				"method": "rhf"
			},
			{
				"type": "unocc",
				"energy": 0.07664,
				"method": "rhf"
			}
		],
		"cosmo_sigma_profile": { 
			"-0.025": 0.0,
			"-0.024": 0.0,
			"-0.023": 0.0,
			"-0.022": 0.0,
			"-0.021": 0.0,
			"-0.02": 0.0,
			"-0.019": 0.0,
			"-0.018": 0.0,
			"-0.017": 0.652163672925,
			"-0.016": 1.09275712925,
			"-0.015": 1.16425816976,
			"-0.014": 0.910560979813,
			"-0.013": 1.118026701,
			"-0.012": 2.60602450123,
			"-0.011": 1.57524153766,
			"-0.01": 2.30577940832,
			"-0.009": 2.83280818736,
			"-0.008": 3.04171394715,
			"-0.007": 3.14673521459,
			"-0.006": 7.77036174205,
			"-0.005": 16.4215215029,
			"-0.004": 19.4692052346,
			"-0.003": 22.9902938396,
			"-0.002": 18.0889617474,
			"-0.001": 14.9283555632,
			"0.0": 13.7424930095,
			"0.001": 11.9343116972,
			"0.002": 13.5145118865,
			"0.003": 14.650630549,
			"0.004": 15.4979568129,
			"0.005": 20.9531593144,
			"0.006": 20.6378274438,
			"0.007": 10.8085154472,
			"0.008": 2.12152005051,
			"0.009": 1.35371761435,
			"0.01": 1.4643027991,
			"0.011": 1.79001981822,
			"0.012": 1.97956859901,
			"0.013": 0.317762817534,
			"0.014": 0.0,
			"0.015": 0.0,
			"0.016": 0.0,
			"0.017": 0.0,
			"0.018": 0.0,
			"0.019": 0.0,
			"0.02": 0.0,
			"0.021": 0.0,
			"0.022": 0.0,
			"0.023": 0.0,
			"0.024": 0.0,
			"0.025": 0.0
		}
	}
}
