{
	 "smiles": "CCN(CC)C1=CC=C(C=O)C(O)=C1", 
	 "Tm": 335.15, 
	 "num_atms": 29, 
	 "gaussian": { 
		 "optdone": 1, 
		 "sigma_profile": "yes", 
		 "theory": "DFT", 
		 "functional": "B3LYP", 
		 "basiset": "6-31G**", 
		 "properties": { 
			 "R2extent": 5239.9056, 
			 "electric_dipole_moment_norm": 7.57440679261, 
			 "electric_quadrupole_moment_norm": 34.7509299858, 
			 "total_energy": -633.405053029, 
			 "HOMO_LUMO_gap": 0.16462, 
			 "cosmo_polarized_energy": -16.6, 
			 "cosmo_cavitation_energy": 31.53, 
			 "cosmo_dispersion_energy": -22.41, 
			 "cosmo_repulsion_energy": 1.76, 
			 "cosmo_total_nonelectrostatic_energy": 10.88, 
			 "SMD_solvation_energy": 6.65 
		},
		"coords": [
			{
				"x": -2.6824450953,
				"y": -0.3771507261,
				"z": -1.8219804234,
				"element": "C" 
			},
			{
				"x": -1.5239991864,
				"y": -1.2263750574,
				"z": -1.2837745859,
				"element": "C" 
			},
			{
				"x": -0.4133262862,
				"y": -0.4405067917,
				"z": -0.7461891379,
				"element": "N" 
			},
			{
				"x": -0.4636784735,
				"y": -0.1453595284,
				"z": 0.6838345999,
				"element": "C" 
			},
			{
				"x": 0.2701009075,
				"y": -1.1716419996,
				"z": 1.5574587294,
				"element": "C" 
			},
			{
				"x": 0.6198513741,
				"y": 0.0011927091,
				"z": -1.5467427028,
				"element": "C" 
			},
			{
				"x": 0.5942317927,
				"y": -0.1828246588,
				"z": -2.9575782079,
				"element": "C" 
			},
			{
				"x": 1.639075088,
				"y": 0.2674786744,
				"z": -3.7395701976,
				"element": "C" 
			},
			{
				"x": 2.7608595487,
				"y": 0.9223894645,
				"z": -3.2028083919,
				"element": "C" 
			},
			{
				"x": 3.8385548187,
				"y": 1.3835114049,
				"z": -4.0842228774,
				"element": "C" 
			},
			{
				"x": 3.839773055,
				"y": 1.2341165223,
				"z": -5.2990583285,
				"element": "O" 
			},
			{
				"x": 2.7875648512,
				"y": 1.1075494696,
				"z": -1.8054717041,
				"element": "C" 
			},
			{
				"x": 3.8736895482,
				"y": 1.7362715611,
				"z": -1.2690383369,
				"element": "O" 
			},
			{
				"x": 1.746826304,
				"y": 0.6565218896,
				"z": -0.9961497779,
				"element": "C" 
			},
			{
				"x": -3.0953950826,
				"y": 0.264591538,
				"z": -1.0368521793,
				"element": "H" 
			},
			{
				"x": -3.4885581793,
				"y": -1.0197679043,
				"z": -2.191989531,
				"element": "H" 
			},
			{
				"x": -2.3523611219,
				"y": 0.266885434,
				"z": -2.6417162388,
				"element": "H" 
			},
			{
				"x": -1.8859476519,
				"y": -1.8743583383,
				"z": -0.4778778024,
				"element": "H" 
			},
			{
				"x": -1.1482883108,
				"y": -1.8996718074,
				"z": -2.0597346665,
				"element": "H" 
			},
			{
				"x": -1.5192106836,
				"y": -0.1051740112,
				"z": 0.9742891051,
				"element": "H" 
			},
			{
				"x": -0.0704073776,
				"y": 0.8611039207,
				"z": 0.8597227875,
				"element": "H" 
			},
			{
				"x": 1.331192519,
				"y": -1.227168106,
				"z": 1.2984306006,
				"element": "H" 
			},
			{
				"x": 0.1867350609,
				"y": -0.9039324243,
				"z": 2.6163534695,
				"element": "H" 
			},
			{
				"x": -0.1569846934,
				"y": -2.1711208089,
				"z": 1.427176961,
				"element": "H" 
			},
			{
				"x": -0.2520492836,
				"y": -0.6584266051,
				"z": -3.4353941918,
				"element": "H" 
			},
			{
				"x": 1.6178127196,
				"y": 0.1323961709,
				"z": -4.8167684248,
				"element": "H" 
			},
			{
				"x": 4.6816821782,
				"y": 1.8925672663,
				"z": -3.5780151519,
				"element": "H" 
			},
			{
				"x": 3.7624891699,
				"y": 1.8030288114,
				"z": -0.3119793809,
				"element": "H" 
			},
			{
				"x": 1.8328124901,
				"y": 0.8003739306,
				"z": 0.0755459865,
				"element": "H" 
			}
		],
		 "valence_orbital": [ 
			{
				"type": "occ",
				"energy": -0.34187,
				"method": "rhf"
			},
			{
				"type": "occ",
				"energy": -0.27959,
				"method": "rhf"
			},
			{
				"type": "occ",
				"energy": -0.23282,
				"method": "rhf"
			},
			{
				"type": "occ",
				"energy": -0.22571,
				"method": "rhf"
			},
			{
				"type": "occ",
				"energy": -0.19787,
				"method": "rhf"
			},
			{
				"type": "unocc",
				"energy": -0.03325,
				"method": "rhf"
			},
			{
				"type": "unocc",
				"energy": 0.0084,
				"method": "rhf"
			},
			{
				"type": "unocc",
				"energy": 0.05941,
				"method": "rhf"
			},
			{
				"type": "unocc",
				"energy": 0.06296,
				"method": "rhf"
			},
			{
				"type": "unocc",
				"energy": 0.06704,
				"method": "rhf"
			}
		],
		"cosmo_sigma_profile": { 
			"-0.025": 0.0,
			"-0.024": 0.0,
			"-0.023": 0.0,
			"-0.022": 0.0,
			"-0.021": 0.0,
			"-0.02": 0.0,
			"-0.019": 0.0,
			"-0.018": 0.53987926853,
			"-0.017": 1.33315194391,
			"-0.016": 0.789297553591,
			"-0.015": 0.986357457496,
			"-0.014": 1.40074774723,
			"-0.013": 1.13355618927,
			"-0.012": 0.748242309022,
			"-0.011": 0.822376986603,
			"-0.01": 1.04952270115,
			"-0.009": 0.86708660771,
			"-0.008": 1.33513222704,
			"-0.007": 1.55847275191,
			"-0.006": 4.72662359376,
			"-0.005": 13.2323551265,
			"-0.004": 21.2640398939,
			"-0.003": 27.3463808524,
			"-0.002": 25.7915892854,
			"-0.001": 20.7410450894,
			"0.0": 23.4271190006,
			"0.001": 18.0530490856,
			"0.002": 12.0210400269,
			"0.003": 15.1075823616,
			"0.004": 14.0529199335,
			"0.005": 11.1908933681,
			"0.006": 3.88233418989,
			"0.007": 3.27382288964,
			"0.008": 3.55301617437,
			"0.009": 3.66206049648,
			"0.01": 2.1293237545,
			"0.011": 1.93961773467,
			"0.012": 3.39033504619,
			"0.013": 4.77787005348,
			"0.014": 1.83590124704,
			"0.015": 0.337617862674,
			"0.016": 0.0,
			"0.017": 0.0,
			"0.018": 0.0,
			"0.019": 0.0,
			"0.02": 0.0,
			"0.021": 0.0,
			"0.022": 0.0,
			"0.023": 0.0,
			"0.024": 0.0,
			"0.025": 0.0
		}
	}
}
