{
	 "smiles": "CCC(=O)C1(CCN(C)CC1)C1=CC=CC(O)=C1", 
	 "Tm": 429.15, 
	 "num_atms": 39, 
	 "gaussian": { 
		 "optdone": 1, 
		 "sigma_profile": "yes", 
		 "theory": "DFT", 
		 "functional": "B3LYP", 
		 "basiset": "6-31G**", 
		 "properties": { 
			 "R2extent": 5382.8415, 
			 "electric_dipole_moment_norm": 3.50354928894, 
			 "electric_quadrupole_moment_norm": 13.2823201746, 
			 "total_energy": -789.437085302, 
			 "HOMO_LUMO_gap": 0.18165, 
			 "cosmo_polarized_energy": -14.04, 
			 "cosmo_cavitation_energy": 38.73, 
			 "cosmo_dispersion_energy": -26.8, 
			 "cosmo_repulsion_energy": 2.08, 
			 "cosmo_total_nonelectrostatic_energy": 14.0, 
			 "SMD_solvation_energy": 4.35 
		},
		"coords": [
			{
				"x": -3.1868513749,
				"y": 0.2614620382,
				"z": -2.2089042286,
				"element": "C" 
			},
			{
				"x": -2.2288773549,
				"y": -0.7107832967,
				"z": -1.5214753566,
				"element": "C" 
			},
			{
				"x": -1.2881435963,
				"y": -0.0287583783,
				"z": -0.530473616,
				"element": "C" 
			},
			{
				"x": -1.4828873211,
				"y": 1.1176902918,
				"z": -0.1697140661,
				"element": "O" 
			},
			{
				"x": -0.077108141,
				"y": -0.8534879121,
				"z": -0.0109943579,
				"element": "C" 
			},
			{
				"x": -0.6165579779,
				"y": -2.1846291221,
				"z": 0.5982448554,
				"element": "C" 
			},
			{
				"x": 0.2975634895,
				"y": -2.6840538853,
				"z": 1.7288969551,
				"element": "C" 
			},
			{
				"x": 0.34341535,
				"y": -1.7617077232,
				"z": 2.8767297833,
				"element": "N" 
			},
			{
				"x": -0.5003280043,
				"y": -2.161673299,
				"z": 3.9903373954,
				"element": "C" 
			},
			{
				"x": 0.1016463862,
				"y": -0.3631942327,
				"z": 2.496985985,
				"element": "C" 
			},
			{
				"x": 0.6685481712,
				"y": -0.0646012394,
				"z": 1.1100457927,
				"element": "C" 
			},
			{
				"x": 0.8783830085,
				"y": -1.0429405729,
				"z": -1.2039429374,
				"element": "C" 
			},
			{
				"x": 1.3862932355,
				"y": -2.2894627683,
				"z": -1.601042107,
				"element": "C" 
			},
			{
				"x": 2.279639164,
				"y": -2.3778208058,
				"z": -2.6701682839,
				"element": "C" 
			},
			{
				"x": 2.680484093,
				"y": -1.2402317384,
				"z": -3.3668159329,
				"element": "C" 
			},
			{
				"x": 2.1771787614,
				"y": 0.0059073463,
				"z": -2.978051475,
				"element": "C" 
			},
			{
				"x": 2.5176148417,
				"y": 1.1682143398,
				"z": -3.6098494999,
				"element": "O" 
			},
			{
				"x": 1.2862665244,
				"y": 0.1003665232,
				"z": -1.9058318988,
				"element": "C" 
			},
			{
				"x": -3.8680794002,
				"y": -0.2759748679,
				"z": -2.8753297834,
				"element": "H" 
			},
			{
				"x": -3.7785922838,
				"y": 0.81124591,
				"z": -1.4732929787,
				"element": "H" 
			},
			{
				"x": -2.6375144254,
				"y": 0.9984929703,
				"z": -2.8017017839,
				"element": "H" 
			},
			{
				"x": -2.7936405364,
				"y": -1.4745858856,
				"z": -0.9691364532,
				"element": "H" 
			},
			{
				"x": -1.6269182801,
				"y": -1.2654686897,
				"z": -2.2505002985,
				"element": "H" 
			},
			{
				"x": -1.6115772805,
				"y": -2.0078482475,
				"z": 1.024500286,
				"element": "H" 
			},
			{
				"x": -0.7513612753,
				"y": -2.9514559712,
				"z": -0.1701707061,
				"element": "H" 
			},
			{
				"x": 1.3129844598,
				"y": -2.832061495,
				"z": 1.3371206369,
				"element": "H" 
			},
			{
				"x": -0.0450674207,
				"y": -3.6630189612,
				"z": 2.0801108617,
				"element": "H" 
			},
			{
				"x": -1.5855294559,
				"y": -2.1510219488,
				"z": 3.7628641226,
				"element": "H" 
			},
			{
				"x": -0.232300825,
				"y": -3.168546079,
				"z": 4.3262775525,
				"element": "H" 
			},
			{
				"x": -0.3389994717,
				"y": -1.477880326,
				"z": 4.8312691788,
				"element": "H" 
			},
			{
				"x": 0.5719319495,
				"y": 0.2893697297,
				"z": 3.2438278002,
				"element": "H" 
			},
			{
				"x": -0.9770234555,
				"y": -0.1138754465,
				"z": 2.5040113436,
				"element": "H" 
			},
			{
				"x": 1.7296846874,
				"y": -0.33204881,
				"z": 1.0957290238,
				"element": "H" 
			},
			{
				"x": 0.5897952151,
				"y": 1.0048743025,
				"z": 0.9054871008,
				"element": "H" 
			},
			{
				"x": 1.1025066986,
				"y": -3.1966870905,
				"z": -1.0816753309,
				"element": "H" 
			},
			{
				"x": 2.6695954836,
				"y": -3.3481769769,
				"z": -2.9644630502,
				"element": "H" 
			},
			{
				"x": 3.3748237369,
				"y": -1.3169258095,
				"z": -4.2008236889,
				"element": "H" 
			},
			{
				"x": 3.1344825513,
				"y": 0.9705101726,
				"z": -4.3263372582,
				"element": "H" 
			},
			{
				"x": 0.9167200732,
				"y": 1.0838879553,
				"z": -1.6337435818,
				"element": "H" 
			}
		],
		 "valence_orbital": [ 
			{
				"type": "occ",
				"energy": -0.31253,
				"method": "rhf"
			},
			{
				"type": "occ",
				"energy": -0.25451,
				"method": "rhf"
			},
			{
				"type": "occ",
				"energy": -0.23636,
				"method": "rhf"
			},
			{
				"type": "occ",
				"energy": -0.22361,
				"method": "rhf"
			},
			{
				"type": "occ",
				"energy": -0.19696,
				"method": "rhf"
			},
			{
				"type": "unocc",
				"energy": -0.01531,
				"method": "rhf"
			},
			{
				"type": "unocc",
				"energy": -0.00741,
				"method": "rhf"
			},
			{
				"type": "unocc",
				"energy": 0.01723,
				"method": "rhf"
			},
			{
				"type": "unocc",
				"energy": 0.06831,
				"method": "rhf"
			},
			{
				"type": "unocc",
				"energy": 0.07633,
				"method": "rhf"
			}
		],
		"cosmo_sigma_profile": { 
			"-0.025": 0.0,
			"-0.024": 0.0,
			"-0.023": 0.0,
			"-0.022": 0.0,
			"-0.021": 0.0,
			"-0.02": 0.0,
			"-0.019": 0.0,
			"-0.018": 0.220120864625,
			"-0.017": 1.10112199088,
			"-0.016": 1.15096972439,
			"-0.015": 0.992147329048,
			"-0.014": 1.09672877686,
			"-0.013": 0.898509747194,
			"-0.012": 0.960040273299,
			"-0.011": 0.667662696533,
			"-0.01": 1.07331641489,
			"-0.009": 1.5631108778,
			"-0.008": 1.14427826503,
			"-0.007": 1.14960802998,
			"-0.006": 5.05076957667,
			"-0.005": 11.1384311338,
			"-0.004": 19.5764412548,
			"-0.003": 32.0977567015,
			"-0.002": 41.4181574928,
			"-0.001": 40.6773754234,
			"0.0": 32.2612124966,
			"0.001": 22.6347066132,
			"0.002": 12.0865421336,
			"0.003": 11.2375900765,
			"0.004": 14.5172864687,
			"0.005": 10.6584055088,
			"0.006": 8.07495769279,
			"0.007": 3.74027283327,
			"0.008": 4.34556569856,
			"0.009": 2.92048125477,
			"0.01": 4.37842045261,
			"0.011": 5.1928485984,
			"0.012": 5.01355501602,
			"0.013": 0.931510522646,
			"0.014": 0.18326382126,
			"0.015": 0.671364076638,
			"0.016": 0.463058527647,
			"0.017": 0.32064250688,
			"0.018": 0.000274187574651,
			"0.019": 0.0,
			"0.02": 0.0,
			"0.021": 0.0,
			"0.022": 0.0,
			"0.023": 0.0,
			"0.024": 0.0,
			"0.025": 0.0
		}
	}
}
