{
	 "smiles": "CC(C)N1N=C(C=C1N)C(C)C", 
	 "Tm": 326.15, 
	 "num_atms": 29, 
	 "gaussian": { 
		 "optdone": 1, 
		 "sigma_profile": "yes", 
		 "theory": "DFT", 
		 "functional": "B3LYP", 
		 "basiset": "6-31G**", 
		 "properties": { 
			 "R2extent": 2791.0409, 
			 "electric_dipole_moment_norm": 2.81283407438, 
			 "electric_quadrupole_moment_norm": 7.91006965646, 
			 "total_energy": -517.461870753, 
			 "HOMO_LUMO_gap": 0.24435, 
			 "cosmo_polarized_energy": -11.09, 
			 "cosmo_cavitation_energy": 30.96, 
			 "cosmo_dispersion_energy": -21.37, 
			 "cosmo_repulsion_energy": 1.77, 
			 "cosmo_total_nonelectrostatic_energy": 11.35, 
			 "SMD_solvation_energy": 4.9 
		},
		"coords": [
			{
				"x": 2.259180499,
				"y": 2.9153592296,
				"z": -0.3178299876,
				"element": "C" 
			},
			{
				"x": 0.7382290209,
				"y": 3.0663508425,
				"z": -0.4354873771,
				"element": "C" 
			},
			{
				"x": 0.1548665234,
				"y": 3.9500161828,
				"z": 0.6748787641,
				"element": "C" 
			},
			{
				"x": 0.0951923239,
				"y": 1.7499645238,
				"z": -0.4358949969,
				"element": "N" 
			},
			{
				"x": 0.3233776596,
				"y": 0.8793707159,
				"z": 0.5867043607,
				"element": "N" 
			},
			{
				"x": -0.3661249878,
				"y": -0.217916732,
				"z": 0.2761105012,
				"element": "C" 
			},
			{
				"x": -1.0691180401,
				"y": -0.0544354079,
				"z": -0.9443134013,
				"element": "C" 
			},
			{
				"x": -0.7523854948,
				"y": 1.2268812186,
				"z": -1.3676421231,
				"element": "C" 
			},
			{
				"x": -1.0941409866,
				"y": 1.9442398553,
				"z": -2.5281324588,
				"element": "N" 
			},
			{
				"x": -0.3358417059,
				"y": -1.4149995772,
				"z": 1.1930783192,
				"element": "C" 
			},
			{
				"x": 0.27145887,
				"y": -2.6463021075,
				"z": 0.4957243663,
				"element": "C" 
			},
			{
				"x": -1.7323797059,
				"y": -1.7330787141,
				"z": 1.7587764172,
				"element": "C" 
			},
			{
				"x": 2.6527818247,
				"y": 2.3088957015,
				"z": -1.1384528528,
				"element": "H" 
			},
			{
				"x": 2.7385225461,
				"y": 3.8989277555,
				"z": -0.3524474024,
				"element": "H" 
			},
			{
				"x": 2.5196189315,
				"y": 2.4281522854,
				"z": 0.624745117,
				"element": "H" 
			},
			{
				"x": 0.5012824047,
				"y": 3.4985747284,
				"z": -1.4131632554,
				"element": "H" 
			},
			{
				"x": 0.6207804557,
				"y": 4.9405778956,
				"z": 0.6618159067,
				"element": "H" 
			},
			{
				"x": 0.3349325274,
				"y": 3.490640034,
				"z": 1.6507203142,
				"element": "H" 
			},
			{
				"x": -0.925778765,
				"y": 4.0766746242,
				"z": 0.5531698856,
				"element": "H" 
			},
			{
				"x": -1.7253221047,
				"y": -0.7546357052,
				"z": -1.4410517306,
				"element": "H" 
			},
			{
				"x": -1.5890451331,
				"y": 1.3517339863,
				"z": -3.1840198143,
				"element": "H" 
			},
			{
				"x": -1.666519389,
				"y": 2.7613048747,
				"z": -2.3352105281,
				"element": "H" 
			},
			{
				"x": 0.3175008964,
				"y": -1.135687035,
				"z": 2.0284941091,
				"element": "H" 
			},
			{
				"x": 0.3335289533,
				"y": -3.4943173663,
				"z": 1.1869523828,
				"element": "H" 
			},
			{
				"x": -0.3402338294,
				"y": -2.95741058,
				"z": -0.3589918791,
				"element": "H" 
			},
			{
				"x": 1.278735203,
				"y": -2.4329560887,
				"z": 0.1251701664,
				"element": "H" 
			},
			{
				"x": -2.4295451579,
				"y": -2.0074008791,
				"z": 0.9585706068,
				"element": "H" 
			},
			{
				"x": -1.6861254007,
				"y": -2.57253958,
				"z": 2.4616014857,
				"element": "H" 
			},
			{
				"x": -2.1508279386,
				"y": -0.8696846811,
				"z": 2.2851251045,
				"element": "H" 
			}
		],
		 "valence_orbital": [ 
			{
				"type": "occ",
				"energy": -0.31898,
				"method": "rhf"
			},
			{
				"type": "occ",
				"energy": -0.29898,
				"method": "rhf"
			},
			{
				"type": "occ",
				"energy": -0.26459,
				"method": "rhf"
			},
			{
				"type": "occ",
				"energy": -0.22239,
				"method": "rhf"
			},
			{
				"type": "occ",
				"energy": -0.20419,
				"method": "rhf"
			},
			{
				"type": "unocc",
				"energy": 0.04016,
				"method": "rhf"
			},
			{
				"type": "unocc",
				"energy": 0.06885,
				"method": "rhf"
			},
			{
				"type": "unocc",
				"energy": 0.08663,
				"method": "rhf"
			},
			{
				"type": "unocc",
				"energy": 0.10294,
				"method": "rhf"
			},
			{
				"type": "unocc",
				"energy": 0.10794,
				"method": "rhf"
			}
		],
		"cosmo_sigma_profile": { 
			"-0.025": 0.0,
			"-0.024": 0.0,
			"-0.023": 0.0,
			"-0.022": 0.0,
			"-0.021": 0.0,
			"-0.02": 0.0,
			"-0.019": 0.0,
			"-0.018": 0.0,
			"-0.017": 0.0,
			"-0.016": 0.0,
			"-0.015": 0.0,
			"-0.014": 0.0,
			"-0.013": 0.221198058996,
			"-0.012": 2.49825588161,
			"-0.011": 3.18829573677,
			"-0.01": 3.00518425134,
			"-0.009": 3.51232684792,
			"-0.008": 1.77521063783,
			"-0.007": 2.92370597666,
			"-0.006": 2.97418634282,
			"-0.005": 4.39585270608,
			"-0.004": 9.56915009688,
			"-0.003": 23.0682622669,
			"-0.002": 29.3753561521,
			"-0.001": 28.369235834,
			"0.0": 31.2116117029,
			"0.001": 31.8119777034,
			"0.002": 13.7605648724,
			"0.003": 6.23729639812,
			"0.004": 5.61403629526,
			"0.005": 6.7543082356,
			"0.006": 7.34397374052,
			"0.007": 6.63745076659,
			"0.008": 3.68219749688,
			"0.009": 2.58536683648,
			"0.01": 1.63060543496,
			"0.011": 2.26368149701,
			"0.012": 1.64491152672,
			"0.013": 1.71034170847,
			"0.014": 1.15796187106,
			"0.015": 1.05259846704,
			"0.016": 0.331003027661,
			"0.017": 0.0444323981511,
			"0.018": 0.0,
			"0.019": 0.0,
			"0.02": 0.0,
			"0.021": 0.0,
			"0.022": 0.0,
			"0.023": 0.0,
			"0.024": 0.0,
			"0.025": 0.0
		}
	}
}
