{
	 "smiles": "CO[C@H]1OC[C@H](O)[C@H](O)[C@H]1O", 
	 "Tm": 442.65, 
	 "num_atms": 23, 
	 "gaussian": { 
		 "optdone": 1, 
		 "sigma_profile": "yes", 
		 "theory": "DFT", 
		 "functional": "B3LYP", 
		 "basiset": "6-31G**", 
		 "properties": { 
			 "R2extent": 1928.3387, 
			 "electric_dipole_moment_norm": 3.13567150862, 
			 "electric_quadrupole_moment_norm": 8.93153940315, 
			 "total_energy": -611.947005969, 
			 "HOMO_LUMO_gap": 0.2919, 
			 "cosmo_polarized_energy": -13.9, 
			 "cosmo_cavitation_energy": 24.58, 
			 "cosmo_dispersion_energy": -18.54, 
			 "cosmo_repulsion_energy": 1.51, 
			 "cosmo_total_nonelectrostatic_energy": 7.55, 
			 "SMD_solvation_energy": 4.54 
		},
		"coords": [
			{
				"x": 0.1284883799,
				"y": 2.9454392678,
				"z": 0.2935675235,
				"element": "C" 
			},
			{
				"x": -0.6553094485,
				"y": 1.7627302757,
				"z": 0.1605318232,
				"element": "O" 
			},
			{
				"x": 0.0834733372,
				"y": 0.5806005143,
				"z": 0.0891135701,
				"element": "C" 
			},
			{
				"x": 0.8087626511,
				"y": 0.4321177986,
				"z": 1.2959513687,
				"element": "O" 
			},
			{
				"x": 1.5618481431,
				"y": -0.7793643353,
				"z": 1.3288894502,
				"element": "C" 
			},
			{
				"x": 0.6341534482,
				"y": -2.0019658699,
				"z": 1.2604028262,
				"element": "C" 
			},
			{
				"x": 1.3777195901,
				"y": -3.2063850642,
				"z": 1.2739654199,
				"element": "O" 
			},
			{
				"x": -0.2529488757,
				"y": -1.921073485,
				"z": 0.0109644417,
				"element": "C" 
			},
			{
				"x": 0.6238493503,
				"y": -2.1468607475,
				"z": -1.1024083924,
				"element": "O" 
			},
			{
				"x": -0.9380462554,
				"y": -0.5516684033,
				"z": -0.1044764461,
				"element": "C" 
			},
			{
				"x": -1.9470980393,
				"y": -0.4958959494,
				"z": 0.8832911231,
				"element": "O" 
			},
			{
				"x": 0.6939952173,
				"y": 2.9449234993,
				"z": 1.229705321,
				"element": "H" 
			},
			{
				"x": 0.8270737205,
				"y": 3.0472272122,
				"z": -0.5489674531,
				"element": "H" 
			},
			{
				"x": -0.5697814453,
				"y": 3.7845267398,
				"z": 0.2825998342,
				"element": "H" 
			},
			{
				"x": 0.7885323035,
				"y": 0.6017673351,
				"z": -0.7633353606,
				"element": "H" 
			},
			{
				"x": 2.282214532,
				"y": -0.8142721627,
				"z": 0.4964633358,
				"element": "H" 
			},
			{
				"x": 2.1196299192,
				"y": -0.7789394454,
				"z": 2.2677393088,
				"element": "H" 
			},
			{
				"x": -0.0161864584,
				"y": -1.9992052895,
				"z": 2.1395458464,
				"element": "H" 
			},
			{
				"x": 1.6835402786,
				"y": -3.328500527,
				"z": 0.3618251693,
				"element": "H" 
			},
			{
				"x": -1.0219924667,
				"y": -2.7028347091,
				"z": 0.0643871545,
				"element": "H" 
			},
			{
				"x": 0.0921702647,
				"y": -2.3945269598,
				"z": -1.8684040587,
				"element": "H" 
			},
			{
				"x": -1.365982543,
				"y": -0.4449210342,
				"z": -1.1174360553,
				"element": "H" 
			},
			{
				"x": -2.0894056033,
				"y": 0.4447813395,
				"z": 1.0684842497,
				"element": "H" 
			}
		],
		 "valence_orbital": [ 
			{
				"type": "occ",
				"energy": -0.30116,
				"method": "rhf"
			},
			{
				"type": "occ",
				"energy": -0.2819,
				"method": "rhf"
			},
			{
				"type": "occ",
				"energy": -0.27715,
				"method": "rhf"
			},
			{
				"type": "occ",
				"energy": -0.26658,
				"method": "rhf"
			},
			{
				"type": "occ",
				"energy": -0.24251,
				"method": "rhf"
			},
			{
				"type": "unocc",
				"energy": 0.04939,
				"method": "rhf"
			},
			{
				"type": "unocc",
				"energy": 0.08202,
				"method": "rhf"
			},
			{
				"type": "unocc",
				"energy": 0.11113,
				"method": "rhf"
			},
			{
				"type": "unocc",
				"energy": 0.11265,
				"method": "rhf"
			},
			{
				"type": "unocc",
				"energy": 0.12637,
				"method": "rhf"
			}
		],
		"cosmo_sigma_profile": { 
			"-0.025": 0.0,
			"-0.024": 0.0,
			"-0.023": 0.0,
			"-0.022": 0.0,
			"-0.021": 0.0,
			"-0.02": 0.0,
			"-0.019": 0.0,
			"-0.018": 0.0,
			"-0.017": 0.433625296673,
			"-0.016": 1.36152241927,
			"-0.015": 1.1623387285,
			"-0.014": 0.540404016077,
			"-0.013": 0.931691629475,
			"-0.012": 1.79697877314,
			"-0.011": 1.97968092102,
			"-0.01": 2.24568367861,
			"-0.009": 2.04970422575,
			"-0.008": 2.22353871412,
			"-0.007": 2.40541870953,
			"-0.006": 4.43097609035,
			"-0.005": 14.443119052,
			"-0.004": 21.1903161179,
			"-0.003": 20.2327685034,
			"-0.002": 16.0563915421,
			"-0.001": 12.5213598903,
			"0.0": 9.49256525539,
			"0.001": 8.0768724059,
			"0.002": 6.42342244393,
			"0.003": 5.58843314719,
			"0.004": 7.45596822056,
			"0.005": 6.58966343089,
			"0.006": 5.65501665571,
			"0.007": 6.32474093268,
			"0.008": 6.05128083018,
			"0.009": 5.45533260003,
			"0.01": 3.5458301028,
			"0.011": 3.52375565172,
			"0.012": 3.14486505467,
			"0.013": 3.68399278164,
			"0.014": 2.58196480657,
			"0.015": 0.204635830907,
			"0.016": 0.0,
			"0.017": 0.0,
			"0.018": 0.0,
			"0.019": 0.0,
			"0.02": 0.0,
			"0.021": 0.0,
			"0.022": 0.0,
			"0.023": 0.0,
			"0.024": 0.0,
			"0.025": 0.0
		}
	}
}
