{
	 "smiles": "CC1=C(F)C(=CC(=C1)C(O)=O)S(C)(=O)=O", 
	 "Tm": 503.15, 
	 "num_atms": 24, 
	 "gaussian": { 
		 "optdone": 1, 
		 "sigma_profile": "yes", 
		 "theory": "DFT", 
		 "functional": "B3LYP", 
		 "basiset": "6-31G**", 
		 "properties": { 
			 "R2extent": 4682.3722, 
			 "electric_dipole_moment_norm": 8.03082643008, 
			 "electric_quadrupole_moment_norm": 26.8230272717, 
			 "total_energy": -1147.24461511, 
			 "HOMO_LUMO_gap": 0.20457, 
			 "cosmo_polarized_energy": -25.58, 
			 "cosmo_cavitation_energy": 30.3, 
			 "cosmo_dispersion_energy": -22.17, 
			 "cosmo_repulsion_energy": 1.67, 
			 "cosmo_total_nonelectrostatic_energy": 9.81, 
			 "SMD_solvation_energy": 6.56 
		},
		"coords": [
			{
				"x": 0.2149928321,
				"y": 1.7857608061,
				"z": -1.8778110587,
				"element": "C" 
			},
			{
				"x": 0.103501001,
				"y": 1.4588870987,
				"z": -0.4109509314,
				"element": "C" 
			},
			{
				"x": -0.4032517781,
				"y": 0.2235803318,
				"z": -0.0028224978,
				"element": "C" 
			},
			{
				"x": -0.7471424912,
				"y": -0.6634196715,
				"z": -0.95748569,
				"element": "F" 
			},
			{
				"x": -0.5500268097,
				"y": -0.124326967,
				"z": 1.3400034892,
				"element": "C" 
			},
			{
				"x": -0.1798233129,
				"y": 0.7849249297,
				"z": 2.3258989836,
				"element": "C" 
			},
			{
				"x": 0.3552045025,
				"y": 2.0247905029,
				"z": 1.9591191218,
				"element": "C" 
			},
			{
				"x": 0.4768939532,
				"y": 2.3490931844,
				"z": 0.5999756587,
				"element": "C" 
			},
			{
				"x": 0.7326814205,
				"y": 2.9696998678,
				"z": 3.0633322711,
				"element": "C" 
			},
			{
				"x": 1.6086977989,
				"y": 3.9614259845,
				"z": 2.7482577624,
				"element": "O" 
			},
			{
				"x": 0.2954170253,
				"y": 2.879729966,
				"z": 4.1843187205,
				"element": "O" 
			},
			{
				"x": -1.3076661699,
				"y": -1.6920329317,
				"z": 1.8401341695,
				"element": "S" 
			},
			{
				"x": -0.1882875104,
				"y": -2.936883041,
				"z": 1.166099007,
				"element": "C" 
			},
			{
				"x": -2.5996358825,
				"y": -1.8190412364,
				"z": 1.1563311797,
				"element": "O" 
			},
			{
				"x": -1.2203672,
				"y": -1.7451979721,
				"z": 3.3055510239,
				"element": "O" 
			},
			{
				"x": 0.8688895992,
				"y": 1.0749168218,
				"z": -2.393595849,
				"element": "H" 
			},
			{
				"x": -0.762213927,
				"y": 1.7345117717,
				"z": -2.3685039289,
				"element": "H" 
			},
			{
				"x": 0.6186731073,
				"y": 2.7902425344,
				"z": -2.0232079957,
				"element": "H" 
			},
			{
				"x": -0.3073147789,
				"y": 0.5321986219,
				"z": 3.3727377375,
				"element": "H" 
			},
			{
				"x": 0.8373726642,
				"y": 3.330031026,
				"z": 0.2987800251,
				"element": "H" 
			},
			{
				"x": 2.0096904801,
				"y": 3.7992620603,
				"z": 1.8835716816,
				"element": "H" 
			},
			{
				"x": -0.624004032,
				"y": -3.904139959,
				"z": 1.4247080388,
				"element": "H" 
			},
			{
				"x": 0.7914299161,
				"y": -2.8242247608,
				"z": 1.632411502,
				"element": "H" 
			},
			{
				"x": -0.1385104079,
				"y": -2.8171889685,
				"z": 0.0839475793,
				"element": "H" 
			}
		],
		 "valence_orbital": [ 
			{
				"type": "occ",
				"energy": -0.30793,
				"method": "rhf"
			},
			{
				"type": "occ",
				"energy": -0.30176,
				"method": "rhf"
			},
			{
				"type": "occ",
				"energy": -0.29262,
				"method": "rhf"
			},
			{
				"type": "occ",
				"energy": -0.2882,
				"method": "rhf"
			},
			{
				"type": "occ",
				"energy": -0.27559,
				"method": "rhf"
			},
			{
				"type": "unocc",
				"energy": -0.07102,
				"method": "rhf"
			},
			{
				"type": "unocc",
				"energy": -0.05403,
				"method": "rhf"
			},
			{
				"type": "unocc",
				"energy": 0.02037,
				"method": "rhf"
			},
			{
				"type": "unocc",
				"energy": 0.03654,
				"method": "rhf"
			},
			{
				"type": "unocc",
				"energy": 0.05263,
				"method": "rhf"
			}
		],
		"cosmo_sigma_profile": { 
			"-0.025": 0.0,
			"-0.024": 0.0,
			"-0.023": 0.0,
			"-0.022": 0.0,
			"-0.021": 0.0,
			"-0.02": 0.0398770053682,
			"-0.019": 0.795833151875,
			"-0.018": 1.00516072886,
			"-0.017": 1.38724211114,
			"-0.016": 0.888536690291,
			"-0.015": 0.597606864019,
			"-0.014": 1.11755742097,
			"-0.013": 1.06832609096,
			"-0.012": 1.57230411306,
			"-0.011": 0.808418473489,
			"-0.01": 2.15689487278,
			"-0.009": 5.77844023228,
			"-0.008": 7.03146445403,
			"-0.007": 8.56203858728,
			"-0.006": 10.1403067918,
			"-0.005": 17.3499960081,
			"-0.004": 17.0703029917,
			"-0.003": 18.6637530326,
			"-0.002": 20.6185897908,
			"-0.001": 20.9795861709,
			"0.0": 12.9927423461,
			"0.001": 7.68534752054,
			"0.002": 7.5614936894,
			"0.003": 6.82245294375,
			"0.004": 5.49216647428,
			"0.005": 4.67923702612,
			"0.006": 5.12655648658,
			"0.007": 4.22656432421,
			"0.008": 6.7269964273,
			"0.009": 7.49600290282,
			"0.01": 12.1757746863,
			"0.011": 16.2755191815,
			"0.012": 6.56199109805,
			"0.013": 0.606893213845,
			"0.014": 0.0,
			"0.015": 0.0,
			"0.016": 0.0,
			"0.017": 0.0,
			"0.018": 0.0,
			"0.019": 0.0,
			"0.02": 0.0,
			"0.021": 0.0,
			"0.022": 0.0,
			"0.023": 0.0,
			"0.024": 0.0,
			"0.025": 0.0
		}
	}
}
