{
	 "smiles": "CC(=O)OCC(=O)C1(O)C(CC2C3CCC4=CC(=O)C=CC4(C)C3(F)C(O)CC12C)OC(C)=O", 
	 "Tm": 508.15, 
	 "num_atms": 65, 
	 "gaussian": { 
		 "optdone": 1, 
		 "sigma_profile": "yes", 
		 "theory": "DFT", 
		 "functional": "B3LYP", 
		 "basiset": "6-31G**", 
		 "properties": { 
			 "R2extent": 15825.6504, 
			 "electric_dipole_moment_norm": 4.54359213398, 
			 "electric_quadrupole_moment_norm": 46.0912195443, 
			 "total_energy": -1672.95183367, 
			 "HOMO_LUMO_gap": 0.17773, 
			 "cosmo_polarized_energy": -32.61, 
			 "cosmo_cavitation_energy": 59.71, 
			 "cosmo_dispersion_energy": -39.58, 
			 "cosmo_repulsion_energy": 2.9, 
			 "cosmo_total_nonelectrostatic_energy": 23.04, 
			 "SMD_solvation_energy": 12.54 
		},
		"coords": [
			{
				"x": 1.8868890868,
				"y": -4.8218834134,
				"z": 2.2773212801,
				"element": "C" 
			},
			{
				"x": 0.8752334551,
				"y": -3.7867631696,
				"z": 2.6974494286,
				"element": "C" 
			},
			{
				"x": -0.30802706,
				"y": -3.979510304,
				"z": 2.8652831963,
				"element": "O" 
			},
			{
				"x": 1.4752281737,
				"y": -2.5786095558,
				"z": 2.8720877949,
				"element": "O" 
			},
			{
				"x": 0.6135128538,
				"y": -1.4785733678,
				"z": 3.1426519628,
				"element": "C" 
			},
			{
				"x": 0.0329123184,
				"y": -0.912536553,
				"z": 1.845603198,
				"element": "C" 
			},
			{
				"x": 0.2806082407,
				"y": -1.4272502516,
				"z": 0.7734675115,
				"element": "O" 
			},
			{
				"x": -0.910500155,
				"y": 0.305120626,
				"z": 1.9921048167,
				"element": "C" 
			},
			{
				"x": -0.7133799595,
				"y": 0.8877562389,
				"z": 3.2775679015,
				"element": "O" 
			},
			{
				"x": -2.3660515926,
				"y": -0.2004614533,
				"z": 1.9166145464,
				"element": "C" 
			},
			{
				"x": -2.6280761397,
				"y": -0.3835747933,
				"z": 0.4246526138,
				"element": "C" 
			},
			{
				"x": -1.8990684434,
				"y": 0.7993531694,
				"z": -0.2624169496,
				"element": "C" 
			},
			{
				"x": -1.4349679099,
				"y": 0.5245049213,
				"z": -1.7360652895,
				"element": "C" 
			},
			{
				"x": -1.2075691203,
				"y": -0.9576075999,
				"z": -2.1153416044,
				"element": "C" 
			},
			{
				"x": -0.7953402262,
				"y": -1.1344914555,
				"z": -3.5894529163,
				"element": "C" 
			},
			{
				"x": 0.3250606194,
				"y": -0.2172096442,
				"z": -4.0077126253,
				"element": "C" 
			},
			{
				"x": 1.3964042297,
				"y": -0.6505882589,
				"z": -4.6968708271,
				"element": "C" 
			},
			{
				"x": 2.4710802052,
				"y": 0.2421994445,
				"z": -5.1767547563,
				"element": "C" 
			},
			{
				"x": 3.4102862363,
				"y": -0.178783024,
				"z": -5.8491723783,
				"element": "O" 
			},
			{
				"x": 2.3438094286,
				"y": 1.6629864441,
				"z": -4.8021995497,
				"element": "C" 
			},
			{
				"x": 1.3240238186,
				"y": 2.1005142308,
				"z": -4.0510367621,
				"element": "C" 
			},
			{
				"x": 0.1400120552,
				"y": 1.2488286231,
				"z": -3.6565493562,
				"element": "C" 
			},
			{
				"x": -1.0429417965,
				"y": 1.829598477,
				"z": -4.5038700954,
				"element": "C" 
			},
			{
				"x": -0.2024934216,
				"y": 1.369870848,
				"z": -2.1243049557,
				"element": "C" 
			},
			{
				"x": -0.5308922216,
				"y": 2.7429610069,
				"z": -1.9151406028,
				"element": "F" 
			},
			{
				"x": 0.9531140549,
				"y": 1.0559287245,
				"z": -1.1502000274,
				"element": "C" 
			},
			{
				"x": 2.2098671632,
				"y": 1.5960894871,
				"z": -1.5255840803,
				"element": "O" 
			},
			{
				"x": 0.6063961737,
				"y": 1.5577107084,
				"z": 0.2617597466,
				"element": "C" 
			},
			{
				"x": -0.8377031218,
				"y": 1.3299180053,
				"z": 0.7946916678,
				"element": "C" 
			},
			{
				"x": -1.3497328117,
				"y": 2.7033662404,
				"z": 1.3001723035,
				"element": "C" 
			},
			{
				"x": -2.4767789827,
				"y": -1.4172310845,
				"z": 2.6731592618,
				"element": "O" 
			},
			{
				"x": -3.7307146673,
				"y": -1.8404382529,
				"z": 2.9852835109,
				"element": "C" 
			},
			{
				"x": -3.6729851263,
				"y": -3.1008839552,
				"z": 3.8107151812,
				"element": "C" 
			},
			{
				"x": -4.7318099338,
				"y": -1.2491420438,
				"z": 2.6462085203,
				"element": "O" 
			},
			{
				"x": 2.2182085046,
				"y": -4.603526849,
				"z": 1.257208303,
				"element": "H" 
			},
			{
				"x": 1.4313198819,
				"y": -5.8110108829,
				"z": 2.309870042,
				"element": "H" 
			},
			{
				"x": 2.7675456225,
				"y": -4.7844406397,
				"z": 2.9235972023,
				"element": "H" 
			},
			{
				"x": 1.2212250929,
				"y": -0.7285349848,
				"z": 3.6531155199,
				"element": "H" 
			},
			{
				"x": -0.2142402682,
				"y": -1.7633779834,
				"z": 3.7970148216,
				"element": "H" 
			},
			{
				"x": 0.0753317297,
				"y": 1.4459804822,
				"z": 3.247479942,
				"element": "H" 
			},
			{
				"x": -3.0221999855,
				"y": 0.5496857981,
				"z": 2.3658162544,
				"element": "H" 
			},
			{
				"x": -2.195518073,
				"y": -1.3432136412,
				"z": 0.1379235257,
				"element": "H" 
			},
			{
				"x": -3.6974447445,
				"y": -0.4153227562,
				"z": 0.2060380872,
				"element": "H" 
			},
			{
				"x": -2.6249512085,
				"y": 1.6111888114,
				"z": -0.356261534,
				"element": "H" 
			},
			{
				"x": -2.2594594966,
				"y": 0.8799030406,
				"z": -2.363219217,
				"element": "H" 
			},
			{
				"x": -0.4614907643,
				"y": -1.4121197579,
				"z": -1.4605665707,
				"element": "H" 
			},
			{
				"x": -2.1369864866,
				"y": -1.5122163995,
				"z": -1.9557972675,
				"element": "H" 
			},
			{
				"x": -1.6694355992,
				"y": -0.9356446376,
				"z": -4.2264222366,
				"element": "H" 
			},
			{
				"x": -0.512674418,
				"y": -2.1751129507,
				"z": -3.7760846339,
				"element": "H" 
			},
			{
				"x": 1.5067024149,
				"y": -1.6999794985,
				"z": -4.9594888839,
				"element": "H" 
			},
			{
				"x": 3.139595233,
				"y": 2.3233819583,
				"z": -5.1339142744,
				"element": "H" 
			},
			{
				"x": 1.2518273875,
				"y": 3.1512123789,
				"z": -3.7772883348,
				"element": "H" 
			},
			{
				"x": -1.9702843133,
				"y": 1.2690666562,
				"z": -4.3730840458,
				"element": "H" 
			},
			{
				"x": -1.2300635201,
				"y": 2.8674460001,
				"z": -4.2212980761,
				"element": "H" 
			},
			{
				"x": -0.7733108264,
				"y": 1.7947763397,
				"z": -5.561904332,
				"element": "H" 
			},
			{
				"x": 1.1062647043,
				"y": -0.0240308458,
				"z": -1.1419232756,
				"element": "H" 
			},
			{
				"x": 2.1291513353,
				"y": 2.5598965439,
				"z": -1.5284391985,
				"element": "H" 
			},
			{
				"x": 1.3569953956,
				"y": 1.1434075934,
				"z": 0.9441105358,
				"element": "H" 
			},
			{
				"x": 0.7884924211,
				"y": 2.6376590487,
				"z": 0.240893839,
				"element": "H" 
			},
			{
				"x": -2.342585169,
				"y": 2.6404674243,
				"z": 1.7535748599,
				"element": "H" 
			},
			{
				"x": -1.4014942276,
				"y": 3.3814249082,
				"z": 0.4442267411,
				"element": "H" 
			},
			{
				"x": -0.6778700597,
				"y": 3.1498977456,
				"z": 2.0402223848,
				"element": "H" 
			},
			{
				"x": -4.6060262924,
				"y": -3.6528921217,
				"z": 3.6931492877,
				"element": "H" 
			},
			{
				"x": -3.5652356931,
				"y": -2.8269542602,
				"z": 4.8663591164,
				"element": "H" 
			},
			{
				"x": -2.8107940008,
				"y": -3.7085855353,
				"z": 3.5298697517,
				"element": "H" 
			}
		],
		 "valence_orbital": [ 
			{
				"type": "occ",
				"energy": -0.27391,
				"method": "rhf"
			},
			{
				"type": "occ",
				"energy": -0.25947,
				"method": "rhf"
			},
			{
				"type": "occ",
				"energy": -0.25705,
				"method": "rhf"
			},
			{
				"type": "occ",
				"energy": -0.24625,
				"method": "rhf"
			},
			{
				"type": "occ",
				"energy": -0.22844,
				"method": "rhf"
			},
			{
				"type": "unocc",
				"energy": -0.05071,
				"method": "rhf"
			},
			{
				"type": "unocc",
				"energy": -0.04353,
				"method": "rhf"
			},
			{
				"type": "unocc",
				"energy": -0.00069,
				"method": "rhf"
			},
			{
				"type": "unocc",
				"energy": 0.00568,
				"method": "rhf"
			},
			{
				"type": "unocc",
				"energy": 0.00879,
				"method": "rhf"
			}
		],
		"cosmo_sigma_profile": { 
			"-0.025": 0.0,
			"-0.024": 0.0,
			"-0.023": 0.0,
			"-0.022": 0.0,
			"-0.021": 0.0,
			"-0.02": 0.0,
			"-0.019": 0.0,
			"-0.018": 0.0,
			"-0.017": 0.0,
			"-0.016": 0.50499496817,
			"-0.015": 1.81247326251,
			"-0.014": 2.88490791406,
			"-0.013": 2.19326739242,
			"-0.012": 2.224221116,
			"-0.011": 2.32494493317,
			"-0.01": 2.74286186655,
			"-0.009": 3.16478788089,
			"-0.008": 5.22017553625,
			"-0.007": 10.0379247808,
			"-0.006": 17.9970895355,
			"-0.005": 28.7247726167,
			"-0.004": 39.557819688,
			"-0.003": 51.6763304661,
			"-0.002": 50.6347014537,
			"-0.001": 42.1191500166,
			"0.0": 29.382011736,
			"0.001": 23.3632164141,
			"0.002": 21.2441569539,
			"0.003": 17.5308440073,
			"0.004": 12.2781753366,
			"0.005": 16.0101862343,
			"0.006": 11.3396604085,
			"0.007": 11.0728227269,
			"0.008": 12.1768763044,
			"0.009": 8.22356420227,
			"0.01": 8.89728598873,
			"0.011": 8.80393706742,
			"0.012": 8.86159420735,
			"0.013": 7.06742192937,
			"0.014": 4.51099098665,
			"0.015": 1.51817345966,
			"0.016": 0.00782235420644,
			"0.017": 0.0,
			"0.018": 0.0,
			"0.019": 0.0,
			"0.02": 0.0,
			"0.021": 0.0,
			"0.022": 0.0,
			"0.023": 0.0,
			"0.024": 0.0,
			"0.025": 0.0
		}
	}
}
