{
	 "smiles": "CCOC(=O)C1=C(C)SC(SC2=C(C=CC=C2)[N+]([O-])=O)=C1O", 
	 "Tm": 418.15, 
	 "num_atms": 35, 
	 "gaussian": { 
		 "optdone": 1, 
		 "sigma_profile": "yes", 
		 "theory": "DFT", 
		 "functional": "B3LYP", 
		 "basiset": "6-31G**", 
		 "properties": { 
			 "R2extent": 9110.6857, 
			 "electric_dipole_moment_norm": 4.55964461554, 
			 "electric_quadrupole_moment_norm": 16.6308406408, 
			 "total_energy": -1768.46385458, 
			 "HOMO_LUMO_gap": 0.11895, 
			 "cosmo_polarized_energy": -14.49, 
			 "cosmo_cavitation_energy": 42.92, 
			 "cosmo_dispersion_energy": -30.78, 
			 "cosmo_repulsion_energy": 2.28, 
			 "cosmo_total_nonelectrostatic_energy": 14.42, 
			 "SMD_solvation_energy": 9.79 
		},
		"coords": [
			{
				"x": 1.0764414763,
				"y": 0.4657534605,
				"z": 5.006316106,
				"element": "C" 
			},
			{
				"x": 2.2332066456,
				"y": -0.2324493356,
				"z": 4.30625206,
				"element": "C" 
			},
			{
				"x": 1.8964254391,
				"y": -0.5713609408,
				"z": 2.9415117555,
				"element": "O" 
			},
			{
				"x": 1.2396680705,
				"y": -1.7308833138,
				"z": 2.7543378655,
				"element": "C" 
			},
			{
				"x": 0.93083856,
				"y": -2.4837887772,
				"z": 3.6651628283,
				"element": "O" 
			},
			{
				"x": 0.9377361924,
				"y": -2.0032476983,
				"z": 1.3289123053,
				"element": "C" 
			},
			{
				"x": 0.3023772824,
				"y": -3.1787797547,
				"z": 0.9558617306,
				"element": "C" 
			},
			{
				"x": -0.1636188596,
				"y": -4.3173514758,
				"z": 1.8139665193,
				"element": "C" 
			},
			{
				"x": 0.0650258899,
				"y": -3.260871155,
				"z": -0.7535692725,
				"element": "S" 
			},
			{
				"x": 0.8286673611,
				"y": -1.7022158505,
				"z": -1.0065417452,
				"element": "C" 
			},
			{
				"x": 1.0883369936,
				"y": -1.018554849,
				"z": -2.599830487,
				"element": "S" 
			},
			{
				"x": -0.2525774722,
				"y": 0.1906920122,
				"z": -2.7311852459,
				"element": "C" 
			},
			{
				"x": -0.0319714203,
				"y": 1.5682621524,
				"z": -2.8874439459,
				"element": "C" 
			},
			{
				"x": -1.0799133769,
				"y": 2.4639598432,
				"z": -3.1183240369,
				"element": "C" 
			},
			{
				"x": -2.3883434445,
				"y": 1.9958498736,
				"z": -3.1430927777,
				"element": "C" 
			},
			{
				"x": -2.6372873641,
				"y": 0.6320543066,
				"z": -2.9689191892,
				"element": "C" 
			},
			{
				"x": -1.5796987481,
				"y": -0.2563791582,
				"z": -2.7873032261,
				"element": "C" 
			},
			{
				"x": 1.3086279385,
				"y": 2.1803381788,
				"z": -2.805949903,
				"element": "N" 
			},
			{
				"x": 2.0878288514,
				"y": 1.8048806342,
				"z": -1.9252039652,
				"element": "O" 
			},
			{
				"x": 1.5580399407,
				"y": 3.0771001736,
				"z": -3.6037810083,
				"element": "O" 
			},
			{
				"x": 1.2389155838,
				"y": -1.154403068,
				"z": 0.1964665773,
				"element": "C" 
			},
			{
				"x": 1.8388437171,
				"y": 0.0335706795,
				"z": 0.3364303687,
				"element": "O" 
			},
			{
				"x": 0.2260117439,
				"y": -0.2121943455,
				"z": 5.1113595674,
				"element": "H" 
			},
			{
				"x": 0.7598280779,
				"y": 1.3494707127,
				"z": 4.4446586093,
				"element": "H" 
			},
			{
				"x": 1.3864625238,
				"y": 0.7861343103,
				"z": 6.0067483613,
				"element": "H" 
			},
			{
				"x": 3.0989292511,
				"y": 0.4270395075,
				"z": 4.211216817,
				"element": "H" 
			},
			{
				"x": 2.5237097051,
				"y": -1.1419700587,
				"z": 4.8374736139,
				"element": "H" 
			},
			{
				"x": -0.8912082737,
				"y": -3.9705486276,
				"z": 2.5525646903,
				"element": "H" 
			},
			{
				"x": 0.6701198938,
				"y": -4.7391310799,
				"z": 2.3816042632,
				"element": "H" 
			},
			{
				"x": -0.6173192425,
				"y": -5.1049333028,
				"z": 1.2060499824,
				"element": "H" 
			},
			{
				"x": -0.8508457871,
				"y": 3.5136840136,
				"z": -3.2581333374,
				"element": "H" 
			},
			{
				"x": -3.2066112419,
				"y": 2.6904470685,
				"z": -3.3022350884,
				"element": "H" 
			},
			{
				"x": -3.6552889841,
				"y": 0.2555588071,
				"z": -2.9956519469,
				"element": "H" 
			},
			{
				"x": -1.7725882045,
				"y": -1.3194931803,
				"z": -2.6896407526,
				"element": "H" 
			},
			{
				"x": 1.9129312814,
				"y": 0.4814602376,
				"z": -0.529088093,
				"element": "H" 
			}
		],
		 "valence_orbital": [ 
			{
				"type": "occ",
				"energy": -0.28584,
				"method": "rhf"
			},
			{
				"type": "occ",
				"energy": -0.26866,
				"method": "rhf"
			},
			{
				"type": "occ",
				"energy": -0.25672,
				"method": "rhf"
			},
			{
				"type": "occ",
				"energy": -0.24746,
				"method": "rhf"
			},
			{
				"type": "occ",
				"energy": -0.21907,
				"method": "rhf"
			},
			{
				"type": "unocc",
				"energy": -0.10012,
				"method": "rhf"
			},
			{
				"type": "unocc",
				"energy": -0.04728,
				"method": "rhf"
			},
			{
				"type": "unocc",
				"energy": -0.03985,
				"method": "rhf"
			},
			{
				"type": "unocc",
				"energy": -0.02754,
				"method": "rhf"
			},
			{
				"type": "unocc",
				"energy": -0.00394,
				"method": "rhf"
			}
		],
		"cosmo_sigma_profile": { 
			"-0.025": 0.0,
			"-0.024": 0.0,
			"-0.023": 0.0,
			"-0.022": 0.0,
			"-0.021": 0.0,
			"-0.02": 0.0,
			"-0.019": 0.0,
			"-0.018": 0.0,
			"-0.017": 0.0,
			"-0.016": 0.0,
			"-0.015": 0.0,
			"-0.014": 0.0,
			"-0.013": 0.0,
			"-0.012": 0.0,
			"-0.011": 0.0,
			"-0.01": 0.0,
			"-0.009": 0.734925974846,
			"-0.008": 5.89410897254,
			"-0.007": 11.7326532403,
			"-0.006": 14.4669591788,
			"-0.005": 17.6859451989,
			"-0.004": 24.4403381024,
			"-0.003": 25.8985800054,
			"-0.002": 32.9323002018,
			"-0.001": 34.3811346949,
			"0.0": 36.4341529276,
			"0.001": 40.0210335039,
			"0.002": 27.1108886834,
			"0.003": 13.0110896507,
			"0.004": 9.22138721853,
			"0.005": 8.96881583981,
			"0.006": 9.56098898857,
			"0.007": 10.5731885343,
			"0.008": 6.55899662713,
			"0.009": 4.866038356,
			"0.01": 3.16075598705,
			"0.011": 3.23611288193,
			"0.012": 3.70087204765,
			"0.013": 2.09359554979,
			"0.014": 0.369551342632,
			"0.015": 0.0,
			"0.016": 0.0,
			"0.017": 0.0,
			"0.018": 0.0,
			"0.019": 0.0,
			"0.02": 0.0,
			"0.021": 0.0,
			"0.022": 0.0,
			"0.023": 0.0,
			"0.024": 0.0,
			"0.025": 0.0
		}
	}
}
