{
	 "smiles": "CC(=O)C1=CC=C(F)C=C1", 
	 "Tm": 277.15, 
	 "num_atms": 17, 
	 "gaussian": { 
		 "optdone": 1, 
		 "sigma_profile": "yes", 
		 "theory": "DFT", 
		 "functional": "B3LYP", 
		 "basiset": "6-31G**", 
		 "properties": { 
			 "R2extent": 2095.5714, 
			 "electric_dipole_moment_norm": 2.35294860335, 
			 "electric_quadrupole_moment_norm": 10.0670735857, 
			 "total_energy": -484.131981084, 
			 "HOMO_LUMO_gap": 0.19496, 
			 "cosmo_polarized_energy": -7.72, 
			 "cosmo_cavitation_energy": 21.75, 
			 "cosmo_dispersion_energy": -15.81, 
			 "cosmo_repulsion_energy": 1.25, 
			 "cosmo_total_nonelectrostatic_energy": 7.18, 
			 "SMD_solvation_energy": 5.03 
		},
		"coords": [
			{
				"x": 1.2664417881,
				"y": 2.2997733216,
				"z": 0.9836750873,
				"element": "C" 
			},
			{
				"x": 0.1302922481,
				"y": 1.2901235441,
				"z": 0.9992124388,
				"element": "C" 
			},
			{
				"x": -0.2788570272,
				"y": 0.8330442363,
				"z": 2.0561019796,
				"element": "O" 
			},
			{
				"x": -0.4786783474,
				"y": 0.8654811462,
				"z": -0.3018091482,
				"element": "C" 
			},
			{
				"x": -1.527794913,
				"y": -0.0687835754,
				"z": -0.2668007691,
				"element": "C" 
			},
			{
				"x": -2.1363353334,
				"y": -0.5045981974,
				"z": -1.4374274201,
				"element": "C" 
			},
			{
				"x": -1.6829614755,
				"y": 0.0059884252,
				"z": -2.6518342181,
				"element": "C" 
			},
			{
				"x": -2.2663346619,
				"y": -0.4102786514,
				"z": -3.7911400212,
				"element": "F" 
			},
			{
				"x": -0.64745564,
				"y": 0.9317833552,
				"z": -2.7273373336,
				"element": "C" 
			},
			{
				"x": -0.048240499,
				"y": 1.3581957501,
				"z": -1.5438734875,
				"element": "C" 
			},
			{
				"x": 2.1190191329,
				"y": 1.9250985942,
				"z": 0.4063459234,
				"element": "H" 
			},
			{
				"x": 1.5796863059,
				"y": 2.4864303971,
				"z": 2.0110294351,
				"element": "H" 
			},
			{
				"x": 0.949951775,
				"y": 3.2424210921,
				"z": 0.5234315055,
				"element": "H" 
			},
			{
				"x": -1.8480900775,
				"y": -0.439331589,
				"z": 0.7010669934,
				"element": "H" 
			},
			{
				"x": -2.9471309996,
				"y": -1.2249556675,
				"z": -1.429390628,
				"element": "H" 
			},
			{
				"x": -0.3288802441,
				"y": 1.3008866776,
				"z": -3.6959675415,
				"element": "H" 
			},
			{
				"x": 0.7597679685,
				"y": 2.080221141,
				"z": -1.5974827958,
				"element": "H" 
			}
		],
		 "valence_orbital": [ 
			{
				"type": "occ",
				"energy": -0.3528,
				"method": "rhf"
			},
			{
				"type": "occ",
				"energy": -0.35062,
				"method": "rhf"
			},
			{
				"type": "occ",
				"energy": -0.27248,
				"method": "rhf"
			},
			{
				"type": "occ",
				"energy": -0.25566,
				"method": "rhf"
			},
			{
				"type": "occ",
				"energy": -0.25098,
				"method": "rhf"
			},
			{
				"type": "unocc",
				"energy": -0.05602,
				"method": "rhf"
			},
			{
				"type": "unocc",
				"energy": -0.02103,
				"method": "rhf"
			},
			{
				"type": "unocc",
				"energy": 0.03954,
				"method": "rhf"
			},
			{
				"type": "unocc",
				"energy": 0.07906,
				"method": "rhf"
			},
			{
				"type": "unocc",
				"energy": 0.11042,
				"method": "rhf"
			}
		],
		"cosmo_sigma_profile": { 
			"-0.025": 0.0,
			"-0.024": 0.0,
			"-0.023": 0.0,
			"-0.022": 0.0,
			"-0.021": 0.0,
			"-0.02": 0.0,
			"-0.019": 0.0,
			"-0.018": 0.0,
			"-0.017": 0.0,
			"-0.016": 0.0,
			"-0.015": 0.0,
			"-0.014": 0.0,
			"-0.013": 0.0,
			"-0.012": 0.0,
			"-0.011": 0.0,
			"-0.01": 0.0,
			"-0.009": 0.0,
			"-0.008": 1.59405985009,
			"-0.007": 7.15105870547,
			"-0.006": 13.2899128236,
			"-0.005": 13.0006243334,
			"-0.004": 10.9040694429,
			"-0.003": 9.83337393883,
			"-0.002": 11.912048742,
			"-0.001": 14.5090919366,
			"0.0": 16.4816573598,
			"0.001": 13.7371886347,
			"0.002": 16.5413030739,
			"0.003": 14.6577068184,
			"0.004": 11.3409529199,
			"0.005": 1.88172280375,
			"0.006": 1.88510965493,
			"0.007": 1.29862074773,
			"0.008": 1.5914030533,
			"0.009": 1.77022011231,
			"0.01": 1.89636108525,
			"0.011": 3.1250429772,
			"0.012": 3.89935103732,
			"0.013": 1.6786727532,
			"0.014": 0.156428325485,
			"0.015": 0.0,
			"0.016": 0.0,
			"0.017": 0.0,
			"0.018": 0.0,
			"0.019": 0.0,
			"0.02": 0.0,
			"0.021": 0.0,
			"0.022": 0.0,
			"0.023": 0.0,
			"0.024": 0.0,
			"0.025": 0.0
		}
	}
}
