{
	 "smiles": "O=C1OC2(CCCCC2)OC1C1=CC=CC=C1", 
	 "Tm": 360.15, 
	 "num_atms": 33, 
	 "gaussian": { 
		 "optdone": 1, 
		 "sigma_profile": "yes", 
		 "theory": "DFT", 
		 "functional": "B3LYP", 
		 "basiset": "6-31G**", 
		 "properties": { 
			 "R2extent": 4431.8458, 
			 "electric_dipole_moment_norm": 3.20024882314, 
			 "electric_quadrupole_moment_norm": 11.7761830654, 
			 "total_energy": -768.82849765, 
			 "HOMO_LUMO_gap": 0.23419, 
			 "cosmo_polarized_energy": -9.04, 
			 "cosmo_cavitation_energy": 34.27, 
			 "cosmo_dispersion_energy": -24.53, 
			 "cosmo_repulsion_energy": 1.9, 
			 "cosmo_total_nonelectrostatic_energy": 11.64, 
			 "SMD_solvation_energy": 5.74 
		},
		"coords": [
			{
				"x": 2.7690407756,
				"y": 0.2798424703,
				"z": -2.0305039145,
				"element": "O" 
			},
			{
				"x": 1.5986173822,
				"y": 0.4299071324,
				"z": -1.7965775222,
				"element": "C" 
			},
			{
				"x": 0.606450821,
				"y": 0.0001335059,
				"z": -2.6108968937,
				"element": "O" 
			},
			{
				"x": -0.6864518362,
				"y": 0.3197770776,
				"z": -2.0604354269,
				"element": "C" 
			},
			{
				"x": -1.3982453859,
				"y": -0.9764310485,
				"z": -1.6657825801,
				"element": "C" 
			},
			{
				"x": -2.8318487278,
				"y": -0.7021146416,
				"z": -1.182493321,
				"element": "C" 
			},
			{
				"x": -3.6322416756,
				"y": 0.1021820451,
				"z": -2.2185953098,
				"element": "C" 
			},
			{
				"x": -2.9075726289,
				"y": 1.4050366192,
				"z": -2.5903451749,
				"element": "C" 
			},
			{
				"x": -1.4790591077,
				"y": 1.1274805179,
				"z": -3.0857008414,
				"element": "C" 
			},
			{
				"x": -0.4334443684,
				"y": 1.1388970282,
				"z": -0.9082735699,
				"element": "O" 
			},
			{
				"x": 0.9509340532,
				"y": 1.1259051209,
				"z": -0.5965386429,
				"element": "C" 
			},
			{
				"x": 1.2767439338,
				"y": 0.45544417,
				"z": 0.7346669682,
				"element": "C" 
			},
			{
				"x": 2.6121937953,
				"y": 0.2255850239,
				"z": 1.0921288207,
				"element": "C" 
			},
			{
				"x": 2.915856816,
				"y": -0.3548207088,
				"z": 2.3232326573,
				"element": "C" 
			},
			{
				"x": 1.8943808878,
				"y": -0.703855318,
				"z": 3.2099730748,
				"element": "C" 
			},
			{
				"x": 0.5653102329,
				"y": -0.4686934654,
				"z": 2.8577754136,
				"element": "C" 
			},
			{
				"x": 0.2559798958,
				"y": 0.110152045,
				"z": 1.6248176997,
				"element": "C" 
			},
			{
				"x": -1.4153596635,
				"y": -1.6289738332,
				"z": -2.5471513112,
				"element": "H" 
			},
			{
				"x": -0.8072818578,
				"y": -1.481861274,
				"z": -0.8950235752,
				"element": "H" 
			},
			{
				"x": -2.7917158096,
				"y": -0.1407169049,
				"z": -0.2407738347,
				"element": "H" 
			},
			{
				"x": -3.3310312579,
				"y": -1.6521467493,
				"z": -0.9622331806,
				"element": "H" 
			},
			{
				"x": -3.7735878579,
				"y": -0.5068054455,
				"z": -3.1228590908,
				"element": "H" 
			},
			{
				"x": -4.6333082474,
				"y": 0.3241540301,
				"z": -1.8315930376,
				"element": "H" 
			},
			{
				"x": -2.8585984535,
				"y": 2.0613308468,
				"z": -1.7128355044,
				"element": "H" 
			},
			{
				"x": -3.4632252119,
				"y": 1.9484581294,
				"z": -3.3624582069,
				"element": "H" 
			},
			{
				"x": -0.9373642885,
				"y": 2.0568765123,
				"z": -3.2888263423,
				"element": "H" 
			},
			{
				"x": -1.506792012,
				"y": 0.5500743249,
				"z": -4.0176506013,
				"element": "H" 
			},
			{
				"x": 1.315319034,
				"y": 2.1627200351,
				"z": -0.5771114954,
				"element": "H" 
			},
			{
				"x": 3.4053141238,
				"y": 0.4827111567,
				"z": 0.3974908459,
				"element": "H" 
			},
			{
				"x": 3.9533819527,
				"y": -0.5364968937,
				"z": 2.5888256032,
				"element": "H" 
			},
			{
				"x": 2.1342165023,
				"y": -1.1542849647,
				"z": 4.1688593101,
				"element": "H" 
			},
			{
				"x": -0.235300819,
				"y": -0.7334384741,
				"z": 3.5428367202,
				"element": "H" 
			},
			{
				"x": -0.7748109969,
				"y": 0.3036719301,
				"z": 1.3502522639,
				"element": "H" 
			}
		],
		 "valence_orbital": [ 
			{
				"type": "occ",
				"energy": -0.30639,
				"method": "rhf"
			},
			{
				"type": "occ",
				"energy": -0.27949,
				"method": "rhf"
			},
			{
				"type": "occ",
				"energy": -0.27065,
				"method": "rhf"
			},
			{
				"type": "occ",
				"energy": -0.25107,
				"method": "rhf"
			},
			{
				"type": "occ",
				"energy": -0.24543,
				"method": "rhf"
			},
			{
				"type": "unocc",
				"energy": -0.01124,
				"method": "rhf"
			},
			{
				"type": "unocc",
				"energy": -0.00365,
				"method": "rhf"
			},
			{
				"type": "unocc",
				"energy": 0.01122,
				"method": "rhf"
			},
			{
				"type": "unocc",
				"energy": 0.06715,
				"method": "rhf"
			},
			{
				"type": "unocc",
				"energy": 0.08954,
				"method": "rhf"
			}
		],
		"cosmo_sigma_profile": { 
			"-0.025": 0.0,
			"-0.024": 0.0,
			"-0.023": 0.0,
			"-0.022": 0.0,
			"-0.021": 0.0,
			"-0.02": 0.0,
			"-0.019": 0.0,
			"-0.018": 0.0,
			"-0.017": 0.0,
			"-0.016": 0.0,
			"-0.015": 0.0,
			"-0.014": 0.0,
			"-0.013": 0.0,
			"-0.012": 0.0,
			"-0.011": 0.0,
			"-0.01": 0.0,
			"-0.009": 0.205137076733,
			"-0.008": 3.06327465443,
			"-0.007": 2.74417873794,
			"-0.006": 6.56313904892,
			"-0.005": 12.7853403842,
			"-0.004": 21.8383783174,
			"-0.003": 30.4866561737,
			"-0.002": 33.6572023186,
			"-0.001": 36.3041320814,
			"0.0": 27.382709319,
			"0.001": 17.9882843577,
			"0.002": 10.8324948504,
			"0.003": 12.0085459765,
			"0.004": 10.7877765347,
			"0.005": 13.9470405323,
			"0.006": 7.21798193797,
			"0.007": 4.13578393764,
			"0.008": 4.58778425405,
			"0.009": 3.73049178652,
			"0.01": 3.46322724116,
			"0.011": 4.24728457321,
			"0.012": 1.46827567312,
			"0.013": 0.00104143735938,
			"0.014": 0.0,
			"0.015": 0.0,
			"0.016": 0.0,
			"0.017": 0.0,
			"0.018": 0.0,
			"0.019": 0.0,
			"0.02": 0.0,
			"0.021": 0.0,
			"0.022": 0.0,
			"0.023": 0.0,
			"0.024": 0.0,
			"0.025": 0.0
		}
	}
}
