{
	 "smiles": "FC1=C(Br)C=C(CC#N)C=C1", 
	 "Tm": 309.15, 
	 "num_atms": 16, 
	 "gaussian": { 
		 "optdone": 1, 
		 "sigma_profile": "yes", 
		 "theory": "DFT", 
		 "functional": "B3LYP", 
		 "basiset": "6-31G**", 
		 "properties": { 
			 "R2extent": 3796.2463, 
			 "electric_dipole_moment_norm": 1.92842512429, 
			 "electric_quadrupole_moment_norm": 17.3535234843, 
			 "total_energy": -3033.83238639, 
			 "HOMO_LUMO_gap": 0.2176, 
			 "cosmo_polarized_energy": -10.37, 
			 "cosmo_cavitation_energy": 24.29, 
			 "cosmo_dispersion_energy": -17.57, 
			 "cosmo_repulsion_energy": 1.39, 
			 "cosmo_total_nonelectrostatic_energy": 8.11, 
			 "SMD_solvation_energy": 4.8 
		},
		"coords": [
			{
				"x": 2.4487492412,
				"y": -2.8979395749,
				"z": -1.3463342019,
				"element": "F" 
			},
			{
				"x": 1.4387750189,
				"y": -2.1058877842,
				"z": -0.9590189762,
				"element": "C" 
			},
			{
				"x": 1.3466661011,
				"y": -0.8024679406,
				"z": -1.4497934893,
				"element": "C" 
			},
			{
				"x": 2.6552460734,
				"y": -0.1578575465,
				"z": -2.6652655919,
				"element": "Br" 
			},
			{
				"x": 0.2946022761,
				"y": 0.0118165098,
				"z": -1.0407702134,
				"element": "C" 
			},
			{
				"x": -0.6680930539,
				"y": -0.467505166,
				"z": -0.1439956208,
				"element": "C" 
			},
			{
				"x": -1.8010393243,
				"y": 0.4715665387,
				"z": 0.2602268969,
				"element": "C" 
			},
			{
				"x": -2.7290204686,
				"y": -0.086460768,
				"z": 1.2457786141,
				"element": "C" 
			},
			{
				"x": -3.4620751264,
				"y": -0.5346178298,
				"z": 2.0256132872,
				"element": "N" 
			},
			{
				"x": -0.5614675144,
				"y": -1.7744906138,
				"z": 0.3381214301,
				"element": "C" 
			},
			{
				"x": 0.4918689148,
				"y": -2.5941091379,
				"z": -0.06888993,
				"element": "C" 
			},
			{
				"x": 0.2330856841,
				"y": 1.0238721741,
				"z": -1.4281339939,
				"element": "H" 
			},
			{
				"x": -1.3900409869,
				"y": 1.4012935396,
				"z": 0.6733419505,
				"element": "H" 
			},
			{
				"x": -2.3841560801,
				"y": 0.7606461178,
				"z": -0.623616862,
				"element": "H" 
			},
			{
				"x": -1.2992942693,
				"y": -2.1584635932,
				"z": 1.0348903593,
				"element": "H" 
			},
			{
				"x": 0.5913935143,
				"y": -3.6108949251,
				"z": 0.2952463412,
				"element": "H" 
			}
		],
		 "valence_orbital": [ 
			{
				"type": "occ",
				"energy": -0.33865,
				"method": "rhf"
			},
			{
				"type": "occ",
				"energy": -0.3277,
				"method": "rhf"
			},
			{
				"type": "occ",
				"energy": -0.30014,
				"method": "rhf"
			},
			{
				"type": "occ",
				"energy": -0.27115,
				"method": "rhf"
			},
			{
				"type": "occ",
				"energy": -0.25523,
				"method": "rhf"
			},
			{
				"type": "unocc",
				"energy": -0.03763,
				"method": "rhf"
			},
			{
				"type": "unocc",
				"energy": -0.0241,
				"method": "rhf"
			},
			{
				"type": "unocc",
				"energy": -0.01127,
				"method": "rhf"
			},
			{
				"type": "unocc",
				"energy": 0.02468,
				"method": "rhf"
			},
			{
				"type": "unocc",
				"energy": 0.03094,
				"method": "rhf"
			}
		],
		"cosmo_sigma_profile": { 
			"-0.025": 0.0,
			"-0.024": 0.0,
			"-0.023": 0.0,
			"-0.022": 0.0,
			"-0.021": 0.0,
			"-0.02": 0.0,
			"-0.019": 0.0,
			"-0.018": 0.0,
			"-0.017": 0.0,
			"-0.016": 0.0,
			"-0.015": 0.0,
			"-0.014": 0.0,
			"-0.013": 0.0,
			"-0.012": 0.0,
			"-0.011": 0.0,
			"-0.01": 0.969229507161,
			"-0.009": 6.76849551538,
			"-0.008": 10.2097886279,
			"-0.007": 9.06213385712,
			"-0.006": 8.80489495461,
			"-0.005": 8.66490124338,
			"-0.004": 7.82446653571,
			"-0.003": 9.52679236005,
			"-0.002": 10.1496297865,
			"-0.001": 12.2495514049,
			"0.0": 15.6193592099,
			"0.001": 19.7089988651,
			"0.002": 17.887896608,
			"0.003": 17.9717890537,
			"0.004": 17.8131192956,
			"0.005": 5.71942881328,
			"0.006": 2.50795210225,
			"0.007": 2.42417461816,
			"0.008": 3.18583148653,
			"0.009": 2.99033908051,
			"0.01": 3.33285327612,
			"0.011": 2.34448787465,
			"0.012": 2.44933393471,
			"0.013": 1.50043455873,
			"0.014": 0.0,
			"0.015": 0.0,
			"0.016": 0.0,
			"0.017": 0.0,
			"0.018": 0.0,
			"0.019": 0.0,
			"0.02": 0.0,
			"0.021": 0.0,
			"0.022": 0.0,
			"0.023": 0.0,
			"0.024": 0.0,
			"0.025": 0.0
		}
	}
}
