{
	 "smiles": "COC(=O)C1=C(C)N(C)C(C)=C1C=O", 
	 "Tm": 399.15, 
	 "num_atms": 27, 
	 "gaussian": { 
		 "optdone": 1, 
		 "sigma_profile": "yes", 
		 "theory": "DFT", 
		 "functional": "B3LYP", 
		 "basiset": "6-31G**", 
		 "properties": { 
			 "R2extent": 3295.2313, 
			 "electric_dipole_moment_norm": 6.77874287829, 
			 "electric_quadrupole_moment_norm": 20.9383457432, 
			 "total_energy": -669.333678629, 
			 "HOMO_LUMO_gap": 0.18141, 
			 "cosmo_polarized_energy": -15.04, 
			 "cosmo_cavitation_energy": 30.02, 
			 "cosmo_dispersion_energy": -21.67, 
			 "cosmo_repulsion_energy": 1.69, 
			 "cosmo_total_nonelectrostatic_energy": 10.03, 
			 "SMD_solvation_energy": 7.83 
		},
		"coords": [
			{
				"x": -0.9839780115,
				"y": -3.5083871213,
				"z": 1.428962493,
				"element": "C" 
			},
			{
				"x": -0.9695988588,
				"y": -2.097517321,
				"z": 1.1655926769,
				"element": "O" 
			},
			{
				"x": 0.2670219429,
				"y": -1.5635364757,
				"z": 0.964484718,
				"element": "C" 
			},
			{
				"x": 1.2694661975,
				"y": -2.2557800382,
				"z": 1.0098666754,
				"element": "O" 
			},
			{
				"x": 0.2478643463,
				"y": -0.1176954618,
				"z": 0.6978393779,
				"element": "C" 
			},
			{
				"x": -0.8518327157,
				"y": 0.73055369,
				"z": 0.6362728626,
				"element": "C" 
			},
			{
				"x": -2.3209152639,
				"y": 0.5076779311,
				"z": 0.8063661059,
				"element": "C" 
			},
			{
				"x": -0.3765485487,
				"y": 1.9997438191,
				"z": 0.3592510486,
				"element": "N" 
			},
			{
				"x": -1.2296546361,
				"y": 3.1704974123,
				"z": 0.2172542218,
				"element": "C" 
			},
			{
				"x": 0.9974301551,
				"y": 1.991605945,
				"z": 0.2411557199,
				"element": "C" 
			},
			{
				"x": 1.7885137149,
				"y": 3.2244283537,
				"z": -0.0566898976,
				"element": "C" 
			},
			{
				"x": 1.4279719452,
				"y": 0.6866789608,
				"z": 0.4458905277,
				"element": "C" 
			},
			{
				"x": 2.8271820881,
				"y": 0.2387535666,
				"z": 0.4066833887,
				"element": "C" 
			},
			{
				"x": 3.7873982605,
				"y": 0.9704045845,
				"z": 0.1871855242,
				"element": "O" 
			},
			{
				"x": -0.4105594908,
				"y": -3.7405998576,
				"z": 2.3298260663,
				"element": "H" 
			},
			{
				"x": -0.5566807628,
				"y": -4.0636906285,
				"z": 0.5902904859,
				"element": "H" 
			},
			{
				"x": -2.0336808426,
				"y": -3.7698256237,
				"z": 1.5656280504,
				"element": "H" 
			},
			{
				"x": -2.8756396157,
				"y": 0.7844862638,
				"z": -0.0993314379,
				"element": "H" 
			},
			{
				"x": -2.7250045973,
				"y": 1.1116592815,
				"z": 1.6288391838,
				"element": "H" 
			},
			{
				"x": -2.5170791702,
				"y": -0.5389789501,
				"z": 1.0213356506,
				"element": "H" 
			},
			{
				"x": -0.6145484447,
				"y": 4.0407845756,
				"z": -0.0043860317,
				"element": "H" 
			},
			{
				"x": -1.9459518874,
				"y": 3.033271833,
				"z": -0.5984969192,
				"element": "H" 
			},
			{
				"x": -1.7848087584,
				"y": 3.3622086141,
				"z": 1.1406124574,
				"element": "H" 
			},
			{
				"x": 2.8414846048,
				"y": 2.9489105257,
				"z": -0.0977127337,
				"element": "H" 
			},
			{
				"x": 1.6563385833,
				"y": 3.9915356401,
				"z": 0.7166577208,
				"element": "H" 
			},
			{
				"x": 1.5045785901,
				"y": 3.6697771507,
				"z": -1.0184853124,
				"element": "H" 
			},
			{
				"x": 2.9715311759,
				"y": -0.8370666696,
				"z": 0.5935073768,
				"element": "H" 
			}
		],
		 "valence_orbital": [ 
			{
				"type": "occ",
				"energy": -0.29734,
				"method": "rhf"
			},
			{
				"type": "occ",
				"energy": -0.27302,
				"method": "rhf"
			},
			{
				"type": "occ",
				"energy": -0.25045,
				"method": "rhf"
			},
			{
				"type": "occ",
				"energy": -0.22487,
				"method": "rhf"
			},
			{
				"type": "occ",
				"energy": -0.21778,
				"method": "rhf"
			},
			{
				"type": "unocc",
				"energy": -0.03637,
				"method": "rhf"
			},
			{
				"type": "unocc",
				"energy": -0.01014,
				"method": "rhf"
			},
			{
				"type": "unocc",
				"energy": 0.06792,
				"method": "rhf"
			},
			{
				"type": "unocc",
				"energy": 0.07023,
				"method": "rhf"
			},
			{
				"type": "unocc",
				"energy": 0.10799,
				"method": "rhf"
			}
		],
		"cosmo_sigma_profile": { 
			"-0.025": 0.0,
			"-0.024": 0.0,
			"-0.023": 0.0,
			"-0.022": 0.0,
			"-0.021": 0.0,
			"-0.02": 0.0,
			"-0.019": 0.0,
			"-0.018": 0.0,
			"-0.017": 0.0,
			"-0.016": 0.0,
			"-0.015": 0.0,
			"-0.014": 0.0,
			"-0.013": 0.0,
			"-0.012": 0.0,
			"-0.011": 0.0,
			"-0.01": 0.0,
			"-0.009": 0.0,
			"-0.008": 0.0,
			"-0.007": 3.9678839854,
			"-0.006": 17.636559262,
			"-0.005": 22.4943397577,
			"-0.004": 22.2162852281,
			"-0.003": 24.4706854344,
			"-0.002": 17.2502601092,
			"-0.001": 22.0672982925,
			"0.0": 17.9390622804,
			"0.001": 15.2389584656,
			"0.002": 14.5613414374,
			"0.003": 13.4603718413,
			"0.004": 9.25942854184,
			"0.005": 5.39541853701,
			"0.006": 3.66620773064,
			"0.007": 3.54868226791,
			"0.008": 2.58237620619,
			"0.009": 3.81180970584,
			"0.01": 3.85376809982,
			"0.011": 4.25620205534,
			"0.012": 5.64409999417,
			"0.013": 3.19687874794,
			"0.014": 1.36023792222,
			"0.015": 0.134248647196,
			"0.016": 0.0,
			"0.017": 0.0,
			"0.018": 0.0,
			"0.019": 0.0,
			"0.02": 0.0,
			"0.021": 0.0,
			"0.022": 0.0,
			"0.023": 0.0,
			"0.024": 0.0,
			"0.025": 0.0
		}
	}
}
