{
	 "smiles": "NC1=C(Cl)C=C(Cl)C(O)=C1", 
	 "Tm": 408.15, 
	 "num_atms": 15, 
	 "gaussian": { 
		 "optdone": 1, 
		 "sigma_profile": "yes", 
		 "theory": "DFT", 
		 "functional": "B3LYP", 
		 "basiset": "6-31G**", 
		 "properties": { 
			 "R2extent": 2825.5595, 
			 "electric_dipole_moment_norm": 4.3954734307, 
			 "electric_quadrupole_moment_norm": 16.3402758612, 
			 "total_energy": -1282.00806293, 
			 "HOMO_LUMO_gap": 0.19478, 
			 "cosmo_polarized_energy": -13.9, 
			 "cosmo_cavitation_energy": 22.74, 
			 "cosmo_dispersion_energy": -17.49, 
			 "cosmo_repulsion_energy": 1.43, 
			 "cosmo_total_nonelectrostatic_energy": 6.67, 
			 "SMD_solvation_energy": 3.69 
		},
		"coords": [
			{
				"x": -1.1883788068,
				"y": 1.0421195137,
				"z": 1.5077616343,
				"element": "N" 
			},
			{
				"x": -0.9019018915,
				"y": 0.8330993309,
				"z": 0.1695002176,
				"element": "C" 
			},
			{
				"x": 0.3317764282,
				"y": 0.3041316017,
				"z": -0.2544034267,
				"element": "C" 
			},
			{
				"x": 1.5228328978,
				"y": -0.185621382,
				"z": 0.9495261057,
				"element": "Cl" 
			},
			{
				"x": 0.6308152772,
				"y": 0.150761057,
				"z": -1.6041367407,
				"element": "C" 
			},
			{
				"x": -0.2945577988,
				"y": 0.519461533,
				"z": -2.5746435821,
				"element": "C" 
			},
			{
				"x": 0.0869642291,
				"y": 0.3223230322,
				"z": -4.2708205171,
				"element": "Cl" 
			},
			{
				"x": -1.5363262232,
				"y": 1.0488157439,
				"z": -2.1876971095,
				"element": "C" 
			},
			{
				"x": -2.4182747173,
				"y": 1.3980332897,
				"z": -3.1603596107,
				"element": "O" 
			},
			{
				"x": -1.8214867529,
				"y": 1.1963013094,
				"z": -0.8297478633,
				"element": "C" 
			},
			{
				"x": -0.6250835812,
				"y": 0.5192815324,
				"z": 2.1633843842,
				"element": "H" 
			},
			{
				"x": -2.167275778,
				"y": 1.0747464103,
				"z": 1.7511450539,
				"element": "H" 
			},
			{
				"x": 1.587423584,
				"y": -0.2615458477,
				"z": -1.9016191385,
				"element": "H" 
			},
			{
				"x": -3.2168024081,
				"y": 1.7561795652,
				"z": -2.7518978139,
				"element": "H" 
			},
			{
				"x": -2.7804244583,
				"y": 1.6157133103,
				"z": -0.5317915932,
				"element": "H" 
			}
		],
		 "valence_orbital": [ 
			{
				"type": "occ",
				"energy": -0.32273,
				"method": "rhf"
			},
			{
				"type": "occ",
				"energy": -0.3054,
				"method": "rhf"
			},
			{
				"type": "occ",
				"energy": -0.28895,
				"method": "rhf"
			},
			{
				"type": "occ",
				"energy": -0.24135,
				"method": "rhf"
			},
			{
				"type": "occ",
				"energy": -0.20778,
				"method": "rhf"
			},
			{
				"type": "unocc",
				"energy": -0.013,
				"method": "rhf"
			},
			{
				"type": "unocc",
				"energy": 0.00628,
				"method": "rhf"
			},
			{
				"type": "unocc",
				"energy": 0.01257,
				"method": "rhf"
			},
			{
				"type": "unocc",
				"energy": 0.04804,
				"method": "rhf"
			},
			{
				"type": "unocc",
				"energy": 0.06684,
				"method": "rhf"
			}
		],
		"cosmo_sigma_profile": { 
			"-0.025": 0.0,
			"-0.024": 0.0,
			"-0.023": 0.0,
			"-0.022": 0.0,
			"-0.021": 0.0,
			"-0.02": 0.0,
			"-0.019": 0.178149941037,
			"-0.018": 1.35700227438,
			"-0.017": 0.880649966735,
			"-0.016": 1.2855652845,
			"-0.015": 0.960838350462,
			"-0.014": 1.12351868103,
			"-0.013": 2.77384268013,
			"-0.012": 3.16611276938,
			"-0.011": 3.53948607881,
			"-0.01": 4.03792137422,
			"-0.009": 2.96239341122,
			"-0.008": 4.60741526079,
			"-0.007": 4.69516130642,
			"-0.006": 4.67066844386,
			"-0.005": 4.67362380618,
			"-0.004": 4.02121520128,
			"-0.003": 4.72959666549,
			"-0.002": 6.68185125703,
			"-0.001": 8.61877010302,
			"0.0": 9.31593548662,
			"0.001": 11.668993844,
			"0.002": 20.5290301812,
			"0.003": 26.2299614215,
			"0.004": 19.5149855075,
			"0.005": 14.4094224198,
			"0.006": 5.34982681125,
			"0.007": 2.44307042992,
			"0.008": 3.02695570808,
			"0.009": 2.08915680446,
			"0.01": 3.01806809303,
			"0.011": 2.53200908245,
			"0.012": 0.65595631647,
			"0.013": 0.177633315786,
			"0.014": 0.0,
			"0.015": 0.0,
			"0.016": 0.0,
			"0.017": 0.0,
			"0.018": 0.0,
			"0.019": 0.0,
			"0.02": 0.0,
			"0.021": 0.0,
			"0.022": 0.0,
			"0.023": 0.0,
			"0.024": 0.0,
			"0.025": 0.0
		}
	}
}
