{
	 "smiles": "CN1C(C)=NN=C1S", 
	 "Tm": 387.15, 
	 "num_atms": 15, 
	 "gaussian": { 
		 "optdone": 1, 
		 "sigma_profile": "yes", 
		 "theory": "DFT", 
		 "functional": "B3LYP", 
		 "basiset": "6-31G**", 
		 "properties": { 
			 "R2extent": 1568.755, 
			 "electric_dipole_moment_norm": 4.89737000746, 
			 "electric_quadrupole_moment_norm": 15.5843541082, 
			 "total_energy": -719.062780899, 
			 "HOMO_LUMO_gap": 0.23103, 
			 "cosmo_polarized_energy": -15.89, 
			 "cosmo_cavitation_energy": 20.41, 
			 "cosmo_dispersion_energy": -15.62, 
			 "cosmo_repulsion_energy": 1.25, 
			 "cosmo_total_nonelectrostatic_energy": 6.04, 
			 "SMD_solvation_energy": 1.38 
		},
		"coords": [
			{
				"x": -0.5692003752,
				"y": 0.6650516449,
				"z": -0.574755748,
				"element": "C" 
			},
			{
				"x": 0.7476536592,
				"y": 0.5257612642,
				"z": 0.0256747895,
				"element": "N" 
			},
			{
				"x": 1.3561695868,
				"y": 1.3209295649,
				"z": 0.9789524758,
				"element": "C" 
			},
			{
				"x": 0.7380493996,
				"y": 2.5296458337,
				"z": 1.5960077661,
				"element": "C" 
			},
			{
				"x": 2.550310965,
				"y": 0.8550147728,
				"z": 1.2563784822,
				"element": "N" 
			},
			{
				"x": 2.7629430257,
				"y": -0.2736789292,
				"z": 0.4838164933,
				"element": "N" 
			},
			{
				"x": 1.6806547311,
				"y": -0.4458793006,
				"z": -0.2352509465,
				"element": "C" 
			},
			{
				"x": 1.3914237785,
				"y": -1.7386340565,
				"z": -1.4075969569,
				"element": "S" 
			},
			{
				"x": -0.4878986072,
				"y": 0.7971385817,
				"z": -1.6580425949,
				"element": "H" 
			},
			{
				"x": -1.062780475,
				"y": 1.5404668814,
				"z": -0.1523807183,
				"element": "H" 
			},
			{
				"x": -1.1831398388,
				"y": -0.217044221,
				"z": -0.3684791311,
				"element": "H" 
			},
			{
				"x": -0.185948453,
				"y": 2.2917735873,
				"z": 2.1356233933,
				"element": "H" 
			},
			{
				"x": 0.5057900335,
				"y": 3.3006467267,
				"z": 0.8522660413,
				"element": "H" 
			},
			{
				"x": 1.4539113849,
				"y": 2.9438591668,
				"z": 2.3074952242,
				"element": "H" 
			},
			{
				"x": 2.5989611848,
				"y": -2.2933515169,
				"z": -1.1924085701,
				"element": "H" 
			}
		],
		 "valence_orbital": [ 
			{
				"type": "occ",
				"energy": -0.30706,
				"method": "rhf"
			},
			{
				"type": "occ",
				"energy": -0.30114,
				"method": "rhf"
			},
			{
				"type": "occ",
				"energy": -0.28599,
				"method": "rhf"
			},
			{
				"type": "occ",
				"energy": -0.25017,
				"method": "rhf"
			},
			{
				"type": "occ",
				"energy": -0.22569,
				"method": "rhf"
			},
			{
				"type": "unocc",
				"energy": 0.00534,
				"method": "rhf"
			},
			{
				"type": "unocc",
				"energy": 0.01903,
				"method": "rhf"
			},
			{
				"type": "unocc",
				"energy": 0.05012,
				"method": "rhf"
			},
			{
				"type": "unocc",
				"energy": 0.06131,
				"method": "rhf"
			},
			{
				"type": "unocc",
				"energy": 0.08431,
				"method": "rhf"
			}
		],
		"cosmo_sigma_profile": { 
			"-0.025": 0.0,
			"-0.024": 0.0,
			"-0.023": 0.0,
			"-0.022": 0.0,
			"-0.021": 0.0,
			"-0.02": 0.0,
			"-0.019": 0.0,
			"-0.018": 0.0,
			"-0.017": 0.0,
			"-0.016": 0.0,
			"-0.015": 0.0,
			"-0.014": 0.0,
			"-0.013": 0.00762421123061,
			"-0.012": 1.04885971565,
			"-0.011": 1.65878220972,
			"-0.01": 1.03632581734,
			"-0.009": 1.07390878323,
			"-0.008": 1.92187303672,
			"-0.007": 9.05045022365,
			"-0.006": 15.7223496121,
			"-0.005": 15.9364928899,
			"-0.004": 17.928796053,
			"-0.003": 11.2889522181,
			"-0.002": 10.918368725,
			"-0.001": 8.93901846019,
			"0.0": 7.43924689686,
			"0.001": 6.92436147285,
			"0.002": 6.82209640377,
			"0.003": 6.26808632268,
			"0.004": 4.74002966493,
			"0.005": 4.64284460048,
			"0.006": 4.50704887876,
			"0.007": 2.93287466191,
			"0.008": 1.5097906178,
			"0.009": 1.67425939793,
			"0.01": 2.00991049593,
			"0.011": 2.59519534415,
			"0.012": 1.91806817514,
			"0.013": 3.26457052569,
			"0.014": 3.84302999052,
			"0.015": 2.46838793708,
			"0.016": 2.74758893955,
			"0.017": 1.421036436,
			"0.018": 0.345893409167,
			"0.019": 0.0,
			"0.02": 0.0,
			"0.021": 0.0,
			"0.022": 0.0,
			"0.023": 0.0,
			"0.024": 0.0,
			"0.025": 0.0
		}
	}
}
