{
	 "smiles": "BrCC(=O)C1=CC=CC2=C1OCCO2", 
	 "Tm": 344.65, 
	 "num_atms": 23, 
	 "gaussian": { 
		 "optdone": 1, 
		 "sigma_profile": "yes", 
		 "theory": "DFT", 
		 "functional": "B3LYP", 
		 "basiset": "6-31G**", 
		 "properties": { 
			 "R2extent": 6527.8194, 
			 "electric_dipole_moment_norm": 6.0953743068, 
			 "electric_quadrupole_moment_norm": 25.3635354631, 
			 "total_energy": -3183.53847968, 
			 "HOMO_LUMO_gap": 0.17055, 
			 "cosmo_polarized_energy": -13.37, 
			 "cosmo_cavitation_energy": 28.71, 
			 "cosmo_dispersion_energy": -21.91, 
			 "cosmo_repulsion_energy": 1.73, 
			 "cosmo_total_nonelectrostatic_energy": 8.53, 
			 "SMD_solvation_energy": 4.5 
		},
		"coords": [
			{
				"x": 1.8513322445,
				"y": 5.3121483694,
				"z": 0.2822437413,
				"element": "Br" 
			},
			{
				"x": 1.2334482458,
				"y": 3.4632592472,
				"z": 0.1168104394,
				"element": "C" 
			},
			{
				"x": 0.4141982384,
				"y": 2.9967727299,
				"z": 1.3188343647,
				"element": "C" 
			},
			{
				"x": 0.1679271404,
				"y": 3.74477457,
				"z": 2.2464847281,
				"element": "O" 
			},
			{
				"x": -0.0891561385,
				"y": 1.5759048171,
				"z": 1.3448418805,
				"element": "C" 
			},
			{
				"x": -0.8037070017,
				"y": 1.202753022,
				"z": 2.4971099314,
				"element": "C" 
			},
			{
				"x": -1.3271983249,
				"y": -0.075453957,
				"z": 2.6411046534,
				"element": "C" 
			},
			{
				"x": -1.1278185385,
				"y": -1.0245240555,
				"z": 1.6385612166,
				"element": "C" 
			},
			{
				"x": -0.4161026749,
				"y": -0.686648389,
				"z": 0.4905970634,
				"element": "C" 
			},
			{
				"x": 0.0937489809,
				"y": 0.6167500477,
				"z": 0.3264990287,
				"element": "C" 
			},
			{
				"x": 0.7731708654,
				"y": 0.9599027126,
				"z": -0.8162583926,
				"element": "O" 
			},
			{
				"x": 0.6192170238,
				"y": 0.0508571066,
				"z": -1.9117529259,
				"element": "C" 
			},
			{
				"x": 0.772643875,
				"y": -1.3754575935,
				"z": -1.41935241,
				"element": "C" 
			},
			{
				"x": -0.2433547394,
				"y": -1.6621715488,
				"z": -0.4619331215,
				"element": "O" 
			},
			{
				"x": 0.6436198478,
				"y": 3.4021722095,
				"z": -0.7971913751,
				"element": "H" 
			},
			{
				"x": 2.1159887606,
				"y": 2.838987987,
				"z": -0.019287112,
				"element": "H" 
			},
			{
				"x": -0.9329573178,
				"y": 1.9567792447,
				"z": 3.2645194829,
				"element": "H" 
			},
			{
				"x": -1.8809302109,
				"y": -0.3422516162,
				"z": 3.5354091265,
				"element": "H" 
			},
			{
				"x": -1.5079860785,
				"y": -2.0374766947,
				"z": 1.7240333743,
				"element": "H" 
			},
			{
				"x": -0.369081726,
				"y": 0.1885418721,
				"z": -2.3688286521,
				"element": "H" 
			},
			{
				"x": 1.3915767167,
				"y": 0.3152596549,
				"z": -2.637692476,
				"element": "H" 
			},
			{
				"x": 0.6467879766,
				"y": -2.093920992,
				"z": -2.2330055885,
				"element": "H" 
			},
			{
				"x": 1.7655328352,
				"y": -1.5135587438,
				"z": -0.9697469777,
				"element": "H" 
			}
		],
		 "valence_orbital": [ 
			{
				"type": "occ",
				"energy": -0.26523,
				"method": "rhf"
			},
			{
				"type": "occ",
				"energy": -0.26429,
				"method": "rhf"
			},
			{
				"type": "occ",
				"energy": -0.25849,
				"method": "rhf"
			},
			{
				"type": "occ",
				"energy": -0.25233,
				"method": "rhf"
			},
			{
				"type": "occ",
				"energy": -0.22916,
				"method": "rhf"
			},
			{
				"type": "unocc",
				"energy": -0.05861,
				"method": "rhf"
			},
			{
				"type": "unocc",
				"energy": -0.00078,
				"method": "rhf"
			},
			{
				"type": "unocc",
				"energy": 0.01326,
				"method": "rhf"
			},
			{
				"type": "unocc",
				"energy": 0.03296,
				"method": "rhf"
			},
			{
				"type": "unocc",
				"energy": 0.06508,
				"method": "rhf"
			}
		],
		"cosmo_sigma_profile": { 
			"-0.025": 0.0,
			"-0.024": 0.0,
			"-0.023": 0.0,
			"-0.022": 0.0,
			"-0.021": 0.0,
			"-0.02": 0.0,
			"-0.019": 0.0,
			"-0.018": 0.0,
			"-0.017": 0.0,
			"-0.016": 0.0,
			"-0.015": 0.0,
			"-0.014": 0.0,
			"-0.013": 0.0,
			"-0.012": 0.0,
			"-0.011": 0.0,
			"-0.01": 0.0,
			"-0.009": 0.276746020113,
			"-0.008": 4.90487473365,
			"-0.007": 13.7431047522,
			"-0.006": 20.2088173708,
			"-0.005": 17.8073125162,
			"-0.004": 15.9247458026,
			"-0.003": 14.0064754159,
			"-0.002": 11.7672481013,
			"-0.001": 13.2452707284,
			"0.0": 14.0128298958,
			"0.001": 15.3226813247,
			"0.002": 17.0124722942,
			"0.003": 15.3145722987,
			"0.004": 14.2549569599,
			"0.005": 9.79712852457,
			"0.006": 10.8922533669,
			"0.007": 4.67472143872,
			"0.008": 3.68403668093,
			"0.009": 4.02102554609,
			"0.01": 3.51617182798,
			"0.011": 4.18225292498,
			"0.012": 2.68965565174,
			"0.013": 1.07055212752,
			"0.014": 0.0,
			"0.015": 0.0,
			"0.016": 0.0,
			"0.017": 0.0,
			"0.018": 0.0,
			"0.019": 0.0,
			"0.02": 0.0,
			"0.021": 0.0,
			"0.022": 0.0,
			"0.023": 0.0,
			"0.024": 0.0,
			"0.025": 0.0
		}
	}
}
