{
	 "smiles": "COC1=CC=C(C=C1)C#C", 
	 "Tm": 302.15, 
	 "num_atms": 18, 
	 "gaussian": { 
		 "optdone": 1, 
		 "sigma_profile": "yes", 
		 "theory": "DFT", 
		 "functional": "B3LYP", 
		 "basiset": "6-31G**", 
		 "properties": { 
			 "R2extent": 1874.5737, 
			 "electric_dipole_moment_norm": 1.99203627979, 
			 "electric_quadrupole_moment_norm": 7.60718778393, 
			 "total_energy": -422.920803002, 
			 "HOMO_LUMO_gap": 0.1933, 
			 "cosmo_polarized_energy": -7.06, 
			 "cosmo_cavitation_energy": 23.05, 
			 "cosmo_dispersion_energy": -16.44, 
			 "cosmo_repulsion_energy": 1.32, 
			 "cosmo_total_nonelectrostatic_energy": 7.93, 
			 "SMD_solvation_energy": 6.14 
		},
		"coords": [
			{
				"x": -1.2070826649,
				"y": -2.7547630299,
				"z": -0.4898906539,
				"element": "C" 
			},
			{
				"x": -0.6965934887,
				"y": -1.9180540801,
				"z": 0.5368751068,
				"element": "O" 
			},
			{
				"x": -0.055779636,
				"y": -0.7703902287,
				"z": 0.1782911805,
				"element": "C" 
			},
			{
				"x": 0.1412282167,
				"y": -0.3464010802,
				"z": -1.1423830961,
				"element": "C" 
			},
			{
				"x": 0.8132061372,
				"y": 0.8495904185,
				"z": -1.3911728801,
				"element": "C" 
			},
			{
				"x": 1.3003307167,
				"y": 1.6442099876,
				"z": -0.3407157944,
				"element": "C" 
			},
			{
				"x": 1.092745527,
				"y": 1.201466572,
				"z": 0.9831795547,
				"element": "C" 
			},
			{
				"x": 0.4259319856,
				"y": 0.0141495233,
				"z": 1.2388082286,
				"element": "C" 
			},
			{
				"x": 1.98780767,
				"y": 2.868135158,
				"z": -0.6042316435,
				"element": "C" 
			},
			{
				"x": 2.5708212775,
				"y": 3.9058869196,
				"z": -0.8256808406,
				"element": "C" 
			},
			{
				"x": -1.9621102448,
				"y": -2.2374949672,
				"z": -1.0956186332,
				"element": "H" 
			},
			{
				"x": -0.4087044485,
				"y": -3.1212693332,
				"z": -1.1477725552,
				"element": "H" 
			},
			{
				"x": -1.672157478,
				"y": -3.6020736476,
				"z": 0.0159799938,
				"element": "H" 
			},
			{
				"x": -0.2208716863,
				"y": -0.933867822,
				"z": -1.9775542844,
				"element": "H" 
			},
			{
				"x": 0.9645194603,
				"y": 1.1757790527,
				"z": -2.4151609656,
				"element": "H" 
			},
			{
				"x": 1.4626555929,
				"y": 1.8033206745,
				"z": 1.8069224229,
				"element": "H" 
			},
			{
				"x": 0.2626927072,
				"y": -0.3324946978,
				"z": 2.2538902017,
				"element": "H" 
			},
			{
				"x": 3.0836603562,
				"y": 4.8186705804,
				"z": -1.0205653419,
				"element": "H" 
			}
		],
		 "valence_orbital": [ 
			{
				"type": "occ",
				"energy": -0.33071,
				"method": "rhf"
			},
			{
				"type": "occ",
				"energy": -0.27989,
				"method": "rhf"
			},
			{
				"type": "occ",
				"energy": -0.26611,
				"method": "rhf"
			},
			{
				"type": "occ",
				"energy": -0.25641,
				"method": "rhf"
			},
			{
				"type": "occ",
				"energy": -0.21025,
				"method": "rhf"
			},
			{
				"type": "unocc",
				"energy": -0.01695,
				"method": "rhf"
			},
			{
				"type": "unocc",
				"energy": -0.00464,
				"method": "rhf"
			},
			{
				"type": "unocc",
				"energy": 0.06007,
				"method": "rhf"
			},
			{
				"type": "unocc",
				"energy": 0.09046,
				"method": "rhf"
			},
			{
				"type": "unocc",
				"energy": 0.10115,
				"method": "rhf"
			}
		],
		"cosmo_sigma_profile": { 
			"-0.025": 0.0,
			"-0.024": 0.0,
			"-0.023": 0.0,
			"-0.022": 0.0,
			"-0.021": 0.0,
			"-0.02": 0.0,
			"-0.019": 0.0,
			"-0.018": 0.0,
			"-0.017": 0.0,
			"-0.016": 0.0,
			"-0.015": 0.0,
			"-0.014": 0.0,
			"-0.013": 0.0,
			"-0.012": 0.294299560286,
			"-0.011": 1.20147367764,
			"-0.01": 1.30497447722,
			"-0.009": 0.595067905357,
			"-0.008": 1.4342350902,
			"-0.007": 3.84752388131,
			"-0.006": 12.7253597001,
			"-0.005": 16.7215424774,
			"-0.004": 16.4734434769,
			"-0.003": 13.7379269977,
			"-0.002": 9.57219625024,
			"-0.001": 8.41609414782,
			"0.0": 8.12051993962,
			"0.001": 10.7047403443,
			"0.002": 11.1851060531,
			"0.003": 17.2432436668,
			"0.004": 20.3887614909,
			"0.005": 10.2769461566,
			"0.006": 9.36834295284,
			"0.007": 7.88796956126,
			"0.008": 1.20789268888,
			"0.009": 1.79556471909,
			"0.01": 1.06130576932,
			"0.011": 0.0986522940656,
			"0.012": 0.0,
			"0.013": 0.0,
			"0.014": 0.0,
			"0.015": 0.0,
			"0.016": 0.0,
			"0.017": 0.0,
			"0.018": 0.0,
			"0.019": 0.0,
			"0.02": 0.0,
			"0.021": 0.0,
			"0.022": 0.0,
			"0.023": 0.0,
			"0.024": 0.0,
			"0.025": 0.0
		}
	}
}
