{
	 "smiles": "CC1=C(C=NNC2=C(C=C(C=C2)[N+]([O-])=O)[N+]([O-])=O)C=NC=C1", 
	 "Tm": 429.15, 
	 "num_atms": 33, 
	 "gaussian": { 
		 "optdone": 1, 
		 "sigma_profile": "yes", 
		 "theory": "DFT", 
		 "functional": "B3LYP", 
		 "basiset": "6-31G**", 
		 "properties": { 
			 "R2extent": 10590.6667, 
			 "electric_dipole_moment_norm": 9.70221786294, 
			 "electric_quadrupole_moment_norm": 15.2324695618, 
			 "total_energy": -1076.41776617, 
			 "HOMO_LUMO_gap": 0.13039, 
			 "cosmo_polarized_energy": -26.77, 
			 "cosmo_cavitation_energy": 40.29, 
			 "cosmo_dispersion_energy": -28.11, 
			 "cosmo_repulsion_energy": 2.1, 
			 "cosmo_total_nonelectrostatic_energy": 14.28, 
			 "SMD_solvation_energy": 9.91 
		},
		"coords": [
			{
				"x": 1.8743551336,
				"y": -3.1884370922,
				"z": 2.7970151504,
				"element": "C" 
			},
			{
				"x": 2.349865175,
				"y": -3.3696448134,
				"z": 1.3751212603,
				"element": "C" 
			},
			{
				"x": 1.8631908843,
				"y": -2.5868901018,
				"z": 0.3042224478,
				"element": "C" 
			},
			{
				"x": 0.8491173472,
				"y": -1.5545020547,
				"z": 0.5143046108,
				"element": "C" 
			},
			{
				"x": 0.61330217,
				"y": -0.6564167313,
				"z": -0.3773346237,
				"element": "N" 
			},
			{
				"x": -0.368215921,
				"y": 0.2383136612,
				"z": -0.1190049021,
				"element": "N" 
			},
			{
				"x": -0.6576039531,
				"y": 1.2754865358,
				"z": -0.971882055,
				"element": "C" 
			},
			{
				"x": -0.2904419112,
				"y": 1.3199678226,
				"z": -2.3391001937,
				"element": "C" 
			},
			{
				"x": -0.4994141538,
				"y": 2.458596667,
				"z": -3.1062643574,
				"element": "C" 
			},
			{
				"x": -1.1550531773,
				"y": 3.5462897936,
				"z": -2.5435805163,
				"element": "C" 
			},
			{
				"x": -1.595505418,
				"y": 3.5160730114,
				"z": -1.2169647256,
				"element": "C" 
			},
			{
				"x": -1.3361376008,
				"y": 2.3989752593,
				"z": -0.445856554,
				"element": "C" 
			},
			{
				"x": -1.3968197157,
				"y": 4.735444976,
				"z": -3.3568920064,
				"element": "N" 
			},
			{
				"x": -0.9914700041,
				"y": 4.7259394322,
				"z": -4.5193191332,
				"element": "O" 
			},
			{
				"x": -1.9924055571,
				"y": 5.6744762716,
				"z": -2.8253566467,
				"element": "O" 
			},
			{
				"x": 0.2261242048,
				"y": 0.1472183158,
				"z": -3.062505433,
				"element": "N" 
			},
			{
				"x": -0.3670966402,
				"y": -0.9152407963,
				"z": -2.8991219322,
				"element": "O" 
			},
			{
				"x": 1.1696192376,
				"y": 0.3301643144,
				"z": -3.8272618962,
				"element": "O" 
			},
			{
				"x": 2.3647031932,
				"y": -2.837936494,
				"z": -0.9894814556,
				"element": "C" 
			},
			{
				"x": 3.2925857383,
				"y": -3.7526116436,
				"z": -1.2689963887,
				"element": "N" 
			},
			{
				"x": 3.7583952507,
				"y": -4.479435327,
				"z": -0.2438375875,
				"element": "C" 
			},
			{
				"x": 3.3168273273,
				"y": -4.3304489319,
				"z": 1.06934096,
				"element": "C" 
			},
			{
				"x": 2.0500243378,
				"y": -2.1682497709,
				"z": 3.1560670478,
				"element": "H" 
			},
			{
				"x": 0.8007412353,
				"y": -3.3887181953,
				"z": 2.8952894837,
				"element": "H" 
			},
			{
				"x": 2.3980917887,
				"y": -3.8720420376,
				"z": 3.4692103803,
				"element": "H" 
			},
			{
				"x": 0.2835491481,
				"y": -1.5699703335,
				"z": 1.4544698904,
				"element": "H" 
			},
			{
				"x": -0.7894085291,
				"y": 0.2616631861,
				"z": 0.8075349718,
				"element": "H" 
			},
			{
				"x": -0.180756397,
				"y": 2.4838592038,
				"z": -4.1403135851,
				"element": "H" 
			},
			{
				"x": -2.1086767049,
				"y": 4.3775158556,
				"z": -0.8085880223,
				"element": "H" 
			},
			{
				"x": -1.6301810167,
				"y": 2.3883363965,
				"z": 0.5998859953,
				"element": "H" 
			},
			{
				"x": 1.9687047135,
				"y": -2.2712253541,
				"z": -1.8286192812,
				"element": "H" 
			},
			{
				"x": 4.5185630686,
				"y": -5.220190195,
				"z": -0.4853434656,
				"element": "H" 
			},
			{
				"x": 3.7299267461,
				"y": -4.9572608302,
				"z": 1.854462563,
				"element": "H" 
			}
		],
		 "valence_orbital": [ 
			{
				"type": "occ",
				"energy": -0.28889,
				"method": "rhf"
			},
			{
				"type": "occ",
				"energy": -0.28449,
				"method": "rhf"
			},
			{
				"type": "occ",
				"energy": -0.27663,
				"method": "rhf"
			},
			{
				"type": "occ",
				"energy": -0.25755,
				"method": "rhf"
			},
			{
				"type": "occ",
				"energy": -0.23003,
				"method": "rhf"
			},
			{
				"type": "unocc",
				"energy": -0.09964,
				"method": "rhf"
			},
			{
				"type": "unocc",
				"energy": -0.08515,
				"method": "rhf"
			},
			{
				"type": "unocc",
				"energy": -0.05978,
				"method": "rhf"
			},
			{
				"type": "unocc",
				"energy": -0.03668,
				"method": "rhf"
			},
			{
				"type": "unocc",
				"energy": -0.02648,
				"method": "rhf"
			}
		],
		"cosmo_sigma_profile": { 
			"-0.025": 0.0,
			"-0.024": 0.0,
			"-0.023": 0.0,
			"-0.022": 0.0,
			"-0.021": 0.0,
			"-0.02": 0.0,
			"-0.019": 0.0,
			"-0.018": 0.0,
			"-0.017": 0.627441983857,
			"-0.016": 2.32341038511,
			"-0.015": 2.07357149687,
			"-0.014": 1.61142921643,
			"-0.013": 1.95603898459,
			"-0.012": 1.33312692902,
			"-0.011": 1.23938443482,
			"-0.01": 2.46595036188,
			"-0.009": 3.60200924216,
			"-0.008": 6.54459885427,
			"-0.007": 10.1823871324,
			"-0.006": 15.6762009828,
			"-0.005": 18.4721284574,
			"-0.004": 17.2110767706,
			"-0.003": 18.6540310083,
			"-0.002": 28.4049887073,
			"-0.001": 28.9513152593,
			"0.0": 20.9264882679,
			"0.001": 24.3312078446,
			"0.002": 19.2530254916,
			"0.003": 12.842028672,
			"0.004": 9.70219031553,
			"0.005": 9.65810764569,
			"0.006": 9.80587935664,
			"0.007": 17.7030794752,
			"0.008": 17.7282413725,
			"0.009": 9.77167685141,
			"0.01": 4.56230990389,
			"0.011": 1.34059533923,
			"0.012": 0.620681064084,
			"0.013": 0.818230167723,
			"0.014": 1.01863399618,
			"0.015": 1.03409807154,
			"0.016": 0.748754820617,
			"0.017": 0.3543278486,
			"0.018": 0.0,
			"0.019": 0.0,
			"0.02": 0.0,
			"0.021": 0.0,
			"0.022": 0.0,
			"0.023": 0.0,
			"0.024": 0.0,
			"0.025": 0.0
		}
	}
}
