{
	 "smiles": "BrC1=CC2=C(C=C1)N(CC1=NOC=N1)C(=O)C2=O", 
	 "Tm": 471.15, 
	 "num_atms": 24, 
	 "gaussian": { 
		 "optdone": 1, 
		 "sigma_profile": "yes", 
		 "theory": "DFT", 
		 "functional": "B3LYP", 
		 "basiset": "6-31G**", 
		 "properties": { 
			 "R2extent": 7365.7748, 
			 "electric_dipole_moment_norm": 6.13601443121, 
			 "electric_quadrupole_moment_norm": 17.8042932351, 
			 "total_energy": -3384.06182202, 
			 "HOMO_LUMO_gap": 0.13119, 
			 "cosmo_polarized_energy": -17.35, 
			 "cosmo_cavitation_energy": 33.0, 
			 "cosmo_dispersion_energy": -23.87, 
			 "cosmo_repulsion_energy": 1.81, 
			 "cosmo_total_nonelectrostatic_energy": 10.94, 
			 "SMD_solvation_energy": 5.12 
		},
		"coords": [
			{
				"x": 1.8022769,
				"y": -1.1115661726,
				"z": -4.5936253845,
				"element": "Br" 
			},
			{
				"x": 1.0873410924,
				"y": -0.4009542127,
				"z": -2.9720398876,
				"element": "C" 
			},
			{
				"x": 1.9037461342,
				"y": -0.2930144088,
				"z": -1.8465863843,
				"element": "C" 
			},
			{
				"x": 1.3417014644,
				"y": 0.2334561583,
				"z": -0.6885568909,
				"element": "C" 
			},
			{
				"x": -0.0063493304,
				"y": 0.6417542717,
				"z": -0.6430787295,
				"element": "C" 
			},
			{
				"x": -0.8211662723,
				"y": 0.5238547355,
				"z": -1.7639857284,
				"element": "C" 
			},
			{
				"x": -0.252152717,
				"y": -0.0012098861,
				"z": -2.9315731244,
				"element": "C" 
			},
			{
				"x": -0.3291608501,
				"y": 1.1440577123,
				"z": 0.634348643,
				"element": "N" 
			},
			{
				"x": -1.574964334,
				"y": 1.7830579564,
				"z": 1.032597167,
				"element": "C" 
			},
			{
				"x": -2.7151339284,
				"y": 0.8249002735,
				"z": 1.2424204512,
				"element": "C" 
			},
			{
				"x": -3.0988705254,
				"y": 0.4567316675,
				"z": 2.4386044359,
				"element": "N" 
			},
			{
				"x": -4.1699284688,
				"y": -0.4123760078,
				"z": 2.1800811689,
				"element": "O" 
			},
			{
				"x": -4.30271518,
				"y": -0.4586570586,
				"z": 0.8509840033,
				"element": "C" 
			},
			{
				"x": -3.4493914808,
				"y": 0.276666561,
				"z": 0.2073762817,
				"element": "N" 
			},
			{
				"x": 0.7814313319,
				"y": 1.1149929429,
				"z": 1.4772591645,
				"element": "C" 
			},
			{
				"x": 0.8295172531,
				"y": 1.5266452432,
				"z": 2.6141298535,
				"element": "O" 
			},
			{
				"x": 1.9366508744,
				"y": 0.480069336,
				"z": 0.6341855814,
				"element": "C" 
			},
			{
				"x": 3.0562216045,
				"y": 0.2751534473,
				"z": 1.0460911918,
				"element": "O" 
			},
			{
				"x": 2.9429874481,
				"y": -0.6016304036,
				"z": -1.862956517,
				"element": "H" 
			},
			{
				"x": -1.8711000965,
				"y": 0.7899878145,
				"z": -1.7353601707,
				"element": "H" 
			},
			{
				"x": -0.8643216683,
				"y": -0.1061583472,
				"z": -3.8203858408,
				"element": "H" 
			},
			{
				"x": -1.8670360815,
				"y": 2.5227527512,
				"z": 0.2791280462,
				"element": "H" 
			},
			{
				"x": -1.3641411523,
				"y": 2.2927324822,
				"z": 1.9753635482,
				"element": "H" 
			},
			{
				"x": -5.0895420173,
				"y": -1.0836468563,
				"z": 0.4513791214,
				"element": "H" 
			}
		],
		 "valence_orbital": [ 
			{
				"type": "occ",
				"energy": -0.2999,
				"method": "rhf"
			},
			{
				"type": "occ",
				"energy": -0.29906,
				"method": "rhf"
			},
			{
				"type": "occ",
				"energy": -0.28892,
				"method": "rhf"
			},
			{
				"type": "occ",
				"energy": -0.25717,
				"method": "rhf"
			},
			{
				"type": "occ",
				"energy": -0.23869,
				"method": "rhf"
			},
			{
				"type": "unocc",
				"energy": -0.1075,
				"method": "rhf"
			},
			{
				"type": "unocc",
				"energy": -0.05189,
				"method": "rhf"
			},
			{
				"type": "unocc",
				"energy": -0.03324,
				"method": "rhf"
			},
			{
				"type": "unocc",
				"energy": -0.00967,
				"method": "rhf"
			},
			{
				"type": "unocc",
				"energy": -0.00583,
				"method": "rhf"
			}
		],
		"cosmo_sigma_profile": { 
			"-0.025": 0.0,
			"-0.024": 0.0,
			"-0.023": 0.0,
			"-0.022": 0.0,
			"-0.021": 0.0,
			"-0.02": 0.0,
			"-0.019": 0.0,
			"-0.018": 0.0,
			"-0.017": 0.0,
			"-0.016": 0.0,
			"-0.015": 0.0,
			"-0.014": 0.000839628620755,
			"-0.013": 2.11556058301,
			"-0.012": 2.03163410593,
			"-0.011": 1.8162563281,
			"-0.01": 1.59072047482,
			"-0.009": 4.00131989074,
			"-0.008": 10.6938845715,
			"-0.007": 11.7649896315,
			"-0.006": 13.9958158154,
			"-0.005": 15.4108171862,
			"-0.004": 16.3893908291,
			"-0.003": 14.8795631387,
			"-0.002": 16.4191284495,
			"-0.001": 17.4556035902,
			"0.0": 20.4023057362,
			"0.001": 20.7579576232,
			"0.002": 13.4556502864,
			"0.003": 14.5610980528,
			"0.004": 17.714335202,
			"0.005": 9.8745642873,
			"0.006": 6.5510096206,
			"0.007": 5.59060956364,
			"0.008": 6.82073630412,
			"0.009": 8.55116263239,
			"0.01": 10.3655128593,
			"0.011": 6.12470213015,
			"0.012": 1.5340367894,
			"0.013": 0.0123563012516,
			"0.014": 0.0,
			"0.015": 0.0,
			"0.016": 0.0,
			"0.017": 0.0,
			"0.018": 0.0,
			"0.019": 0.0,
			"0.02": 0.0,
			"0.021": 0.0,
			"0.022": 0.0,
			"0.023": 0.0,
			"0.024": 0.0,
			"0.025": 0.0
		}
	}
}
