{
	 "smiles": "NNC(=S)NN", 
	 "Tm": 443.15, 
	 "num_atms": 12, 
	 "gaussian": { 
		 "optdone": 1, 
		 "sigma_profile": "yes", 
		 "theory": "DFT", 
		 "functional": "B3LYP", 
		 "basiset": "6-31G**", 
		 "properties": { 
			 "R2extent": 870.2921, 
			 "electric_dipole_moment_norm": 4.72236111072, 
			 "electric_quadrupole_moment_norm": 5.14617990455, 
			 "total_energy": -658.849496993, 
			 "HOMO_LUMO_gap": 0.18382, 
			 "cosmo_polarized_energy": -19.77, 
			 "cosmo_cavitation_energy": 17.45, 
			 "cosmo_dispersion_energy": -13.51, 
			 "cosmo_repulsion_energy": 1.13, 
			 "cosmo_total_nonelectrostatic_energy": 5.07, 
			 "SMD_solvation_energy": 2.94 
		},
		"coords": [
			{
				"x": 1.5088250336,
				"y": -1.178814295,
				"z": 1.1194430575,
				"element": "N" 
			},
			{
				"x": 0.1842569034,
				"y": -1.5054563349,
				"z": 0.7408803895,
				"element": "N" 
			},
			{
				"x": -0.7180073643,
				"y": -0.5897056249,
				"z": 0.2521096333,
				"element": "C" 
			},
			{
				"x": -2.3444859618,
				"y": -0.6664638246,
				"z": 0.6389081744,
				"element": "S" 
			},
			{
				"x": -0.2174919956,
				"y": 0.3911218203,
				"z": -0.5721932171,
				"element": "N" 
			},
			{
				"x": 0.8164481553,
				"y": 0.1731365586,
				"z": -1.5146539759,
				"element": "N" 
			},
			{
				"x": 2.1303463581,
				"y": -1.2754073212,
				"z": 0.322106546,
				"element": "H" 
			},
			{
				"x": 1.5501664537,
				"y": -0.2175880344,
				"z": 1.4542511126,
				"element": "H" 
			},
			{
				"x": -0.2450207616,
				"y": -2.1643745734,
				"z": 1.3782650032,
				"element": "H" 
			},
			{
				"x": -0.9446215254,
				"y": 0.9951389955,
				"z": -0.9344016119,
				"element": "H" 
			},
			{
				"x": 1.7198393825,
				"y": 0.3409853939,
				"z": -1.0821745968,
				"element": "H" 
			},
			{
				"x": 0.7863453222,
				"y": -0.7877727599,
				"z": -1.8515405148,
				"element": "H" 
			}
		],
		 "valence_orbital": [ 
			{
				"type": "occ",
				"energy": -0.31067,
				"method": "rhf"
			},
			{
				"type": "occ",
				"energy": -0.28487,
				"method": "rhf"
			},
			{
				"type": "occ",
				"energy": -0.27807,
				"method": "rhf"
			},
			{
				"type": "occ",
				"energy": -0.22826,
				"method": "rhf"
			},
			{
				"type": "occ",
				"energy": -0.21148,
				"method": "rhf"
			},
			{
				"type": "unocc",
				"energy": -0.02766,
				"method": "rhf"
			},
			{
				"type": "unocc",
				"energy": 0.03009,
				"method": "rhf"
			},
			{
				"type": "unocc",
				"energy": 0.07374,
				"method": "rhf"
			},
			{
				"type": "unocc",
				"energy": 0.10707,
				"method": "rhf"
			},
			{
				"type": "unocc",
				"energy": 0.11573,
				"method": "rhf"
			}
		],
		"cosmo_sigma_profile": { 
			"-0.025": 0.0,
			"-0.024": 0.0,
			"-0.023": 0.0,
			"-0.022": 0.0,
			"-0.021": 0.0,
			"-0.02": 0.0,
			"-0.019": 0.0,
			"-0.018": 0.0,
			"-0.017": 0.0,
			"-0.016": 0.00553122010465,
			"-0.015": 1.01872760768,
			"-0.014": 2.68972935445,
			"-0.013": 4.38962695173,
			"-0.012": 7.98350411876,
			"-0.011": 6.12532174603,
			"-0.01": 3.76633655209,
			"-0.009": 4.58383706176,
			"-0.008": 4.74068616406,
			"-0.007": 4.99385724693,
			"-0.006": 4.81776929261,
			"-0.005": 3.92063761126,
			"-0.004": 3.7683431646,
			"-0.003": 4.57325042844,
			"-0.002": 3.55751108938,
			"-0.001": 3.66732001523,
			"0.0": 4.40972405774,
			"0.001": 4.09290694816,
			"0.002": 4.80755090889,
			"0.003": 5.41184360407,
			"0.004": 5.70624557871,
			"0.005": 5.40935836226,
			"0.006": 5.14237549649,
			"0.007": 5.31992101004,
			"0.008": 5.21326546378,
			"0.009": 5.25917934426,
			"0.01": 9.00145740786,
			"0.011": 6.90872715542,
			"0.012": 4.27570248621,
			"0.013": 1.13458161877,
			"0.014": 1.18283499767,
			"0.015": 1.3497570053,
			"0.016": 0.104206707254,
			"0.017": 0.0,
			"0.018": 0.0,
			"0.019": 0.0,
			"0.02": 0.0,
			"0.021": 0.0,
			"0.022": 0.0,
			"0.023": 0.0,
			"0.024": 0.0,
			"0.025": 0.0
		}
	}
}
