{
	 "smiles": "NCCN1CCNCC1", 
	 "Tm": 254.15, 
	 "num_atms": 24, 
	 "gaussian": { 
		 "optdone": 1, 
		 "sigma_profile": "yes", 
		 "theory": "DFT", 
		 "functional": "B3LYP", 
		 "basiset": "6-31G**", 
		 "properties": { 
			 "R2extent": 1724.8606, 
			 "electric_dipole_moment_norm": 2.78864824064, 
			 "electric_quadrupole_moment_norm": 6.41940483924, 
			 "total_energy": -401.89865397, 
			 "HOMO_LUMO_gap": 0.26759, 
			 "cosmo_polarized_energy": -8.32, 
			 "cosmo_cavitation_energy": 23.91, 
			 "cosmo_dispersion_energy": -17.95, 
			 "cosmo_repulsion_energy": 1.49, 
			 "cosmo_total_nonelectrostatic_energy": 7.45, 
			 "SMD_solvation_energy": -0.36 
		},
		"coords": [
			{
				"x": 0.8749240489,
				"y": -1.1002525053,
				"z": 1.7316838692,
				"element": "N" 
			},
			{
				"x": 0.1974318871,
				"y": -1.6189260963,
				"z": 0.541800271,
				"element": "C" 
			},
			{
				"x": 0.1005194254,
				"y": -0.6373751526,
				"z": -0.6393339698,
				"element": "C" 
			},
			{
				"x": -0.5830223149,
				"y": 0.60418229,
				"z": -0.2463603327,
				"element": "N" 
			},
			{
				"x": -0.2121243678,
				"y": 1.8089000951,
				"z": -1.005537756,
				"element": "C" 
			},
			{
				"x": -1.1933714182,
				"y": 2.1266754176,
				"z": -2.1677158771,
				"element": "C" 
			},
			{
				"x": -1.8068240331,
				"y": 0.8758475779,
				"z": -2.6033643557,
				"element": "N" 
			},
			{
				"x": -2.7050564346,
				"y": 0.3295592071,
				"z": -1.58064071,
				"element": "C" 
			},
			{
				"x": -2.039280201,
				"y": 0.4914960376,
				"z": -0.1840172234,
				"element": "C" 
			},
			{
				"x": 0.4901887736,
				"y": -0.1734885888,
				"z": 1.9131022128,
				"element": "H" 
			},
			{
				"x": 1.857589144,
				"y": -0.9441826753,
				"z": 1.5116042988,
				"element": "H" 
			},
			{
				"x": 0.7150929248,
				"y": -2.5250299339,
				"z": 0.2038236376,
				"element": "H" 
			},
			{
				"x": -0.8089190894,
				"y": -1.9432205873,
				"z": 0.8387994925,
				"element": "H" 
			},
			{
				"x": 1.1192664058,
				"y": -0.367763537,
				"z": -0.9432911359,
				"element": "H" 
			},
			{
				"x": -0.3651386774,
				"y": -1.1269820928,
				"z": -1.5100373808,
				"element": "H" 
			},
			{
				"x": 0.7985119234,
				"y": 1.6653941256,
				"z": -1.3976848876,
				"element": "H" 
			},
			{
				"x": -0.1751515462,
				"y": 2.6712278025,
				"z": -0.32356502,
				"element": "H" 
			},
			{
				"x": -0.6512291057,
				"y": 2.5720772091,
				"z": -3.0085363306,
				"element": "H" 
			},
			{
				"x": -1.9361525249,
				"y": 2.8781315225,
				"z": -1.8361460393,
				"element": "H" 
			},
			{
				"x": -2.3016402573,
				"y": 0.9993987038,
				"z": -3.4808004248,
				"element": "H" 
			},
			{
				"x": -3.693034869,
				"y": 0.8260861383,
				"z": -1.5547477851,
				"element": "H" 
			},
			{
				"x": -2.8851491928,
				"y": -0.727791041,
				"z": -1.8089221895,
				"element": "H" 
			},
			{
				"x": -2.4166509455,
				"y": 1.4012873467,
				"z": 0.2990796598,
				"element": "H" 
			},
			{
				"x": -2.3233795552,
				"y": -0.3406512635,
				"z": 0.4666079767,
				"element": "H" 
			}
		],
		 "valence_orbital": [ 
			{
				"type": "occ",
				"energy": -0.33212,
				"method": "rhf"
			},
			{
				"type": "occ",
				"energy": -0.32569,
				"method": "rhf"
			},
			{
				"type": "occ",
				"energy": -0.22371,
				"method": "rhf"
			},
			{
				"type": "occ",
				"energy": -0.21845,
				"method": "rhf"
			},
			{
				"type": "occ",
				"energy": -0.19893,
				"method": "rhf"
			},
			{
				"type": "unocc",
				"energy": 0.06866,
				"method": "rhf"
			},
			{
				"type": "unocc",
				"energy": 0.10319,
				"method": "rhf"
			},
			{
				"type": "unocc",
				"energy": 0.11055,
				"method": "rhf"
			},
			{
				"type": "unocc",
				"energy": 0.11491,
				"method": "rhf"
			},
			{
				"type": "unocc",
				"energy": 0.11868,
				"method": "rhf"
			}
		],
		"cosmo_sigma_profile": { 
			"-0.025": 0.0,
			"-0.024": 0.0,
			"-0.023": 0.0,
			"-0.022": 0.0,
			"-0.021": 0.0,
			"-0.02": 0.0,
			"-0.019": 0.0,
			"-0.018": 0.0,
			"-0.017": 0.0,
			"-0.016": 0.0,
			"-0.015": 0.0,
			"-0.014": 0.0,
			"-0.013": 0.0,
			"-0.012": 0.0,
			"-0.011": 0.0,
			"-0.01": 0.719288189984,
			"-0.009": 2.31558728891,
			"-0.008": 1.91989899459,
			"-0.007": 2.9761148187,
			"-0.006": 3.92275214653,
			"-0.005": 3.64594275427,
			"-0.004": 10.9205283097,
			"-0.003": 21.5505120696,
			"-0.002": 30.6318292635,
			"-0.001": 33.8522562644,
			"0.0": 23.0417133254,
			"0.001": 9.67185051954,
			"0.002": 4.48109213333,
			"0.003": 4.34905796351,
			"0.004": 3.77014623022,
			"0.005": 3.44452624209,
			"0.006": 2.76623186182,
			"0.007": 1.79120142551,
			"0.008": 2.29964455485,
			"0.009": 2.37898576248,
			"0.01": 2.32621827336,
			"0.011": 1.54658877136,
			"0.012": 1.07073321648,
			"0.013": 1.91199590719,
			"0.014": 0.700760652477,
			"0.015": 0.899436684229,
			"0.016": 1.52423018293,
			"0.017": 0.702362923063,
			"0.018": 0.719950873698,
			"0.019": 0.452878121177,
			"0.02": 0.765058583914,
			"0.021": 0.159158935185,
			"0.022": 0.0,
			"0.023": 0.0,
			"0.024": 0.0,
			"0.025": 0.0
		}
	}
}
