{
	 "smiles": "NC1=CC(=NN1)C1=CC=CS1", 
	 "Tm": 374.15, 
	 "num_atms": 18, 
	 "gaussian": { 
		 "optdone": 1, 
		 "sigma_profile": "yes", 
		 "theory": "DFT", 
		 "functional": "B3LYP", 
		 "basiset": "6-31G**", 
		 "properties": { 
			 "R2extent": 2562.7995, 
			 "electric_dipole_moment_norm": 3.29641775872, 
			 "electric_quadrupole_moment_norm": 17.873612291, 
			 "total_energy": -833.36903079, 
			 "HOMO_LUMO_gap": 0.17725, 
			 "cosmo_polarized_energy": -15.62, 
			 "cosmo_cavitation_energy": 24.09, 
			 "cosmo_dispersion_energy": -18.7, 
			 "cosmo_repulsion_energy": 1.46, 
			 "cosmo_total_nonelectrostatic_energy": 6.85, 
			 "SMD_solvation_energy": 3.21 
		},
		"coords": [
			{
				"x": -0.979685698,
				"y": -3.4656294138,
				"z": 1.117546759,
				"element": "N" 
			},
			{
				"x": -0.8650645788,
				"y": -2.3301061916,
				"z": 0.3095920333,
				"element": "C" 
			},
			{
				"x": 0.1922296091,
				"y": -1.4862306757,
				"z": 0.0224419103,
				"element": "C" 
			},
			{
				"x": -0.36648464,
				"y": -0.4702511784,
				"z": -0.8038405372,
				"element": "C" 
			},
			{
				"x": -1.6703672266,
				"y": -0.671477776,
				"z": -1.0193530421,
				"element": "N" 
			},
			{
				"x": -1.9480434643,
				"y": -1.8084039464,
				"z": -0.3296467179,
				"element": "N" 
			},
			{
				"x": 0.3043255338,
				"y": 0.6745170986,
				"z": -1.4089139734,
				"element": "C" 
			},
			{
				"x": -0.2220676661,
				"y": 1.6108093248,
				"z": -2.267428654,
				"element": "C" 
			},
			{
				"x": 0.7192888838,
				"y": 2.6033185707,
				"z": -2.6658217926,
				"element": "C" 
			},
			{
				"x": 1.9565632307,
				"y": 2.4192466808,
				"z": -2.1113560083,
				"element": "C" 
			},
			{
				"x": 1.9889599274,
				"y": 1.0209912259,
				"z": -1.0841891065,
				"element": "S" 
			},
			{
				"x": -0.0923408376,
				"y": -3.7214198676,
				"z": 1.5318935316,
				"element": "H" 
			},
			{
				"x": -1.3683122641,
				"y": -4.2683771109,
				"z": 0.6329506547,
				"element": "H" 
			},
			{
				"x": 1.2181206873,
				"y": -1.5994620728,
				"z": 0.3399032323,
				"element": "H" 
			},
			{
				"x": -2.903413541,
				"y": -2.1217096177,
				"z": -0.2609329633,
				"element": "H" 
			},
			{
				"x": -1.2541504021,
				"y": 1.5732709873,
				"z": -2.5937403022,
				"element": "H" 
			},
			{
				"x": 0.4846894616,
				"y": 3.4204325025,
				"z": -3.3389047716,
				"element": "H" 
			},
			{
				"x": 2.8493529848,
				"y": 3.01498146,
				"z": -2.239800252,
				"element": "H" 
			}
		],
		 "valence_orbital": [ 
			{
				"type": "occ",
				"energy": -0.28249,
				"method": "rhf"
			},
			{
				"type": "occ",
				"energy": -0.2747,
				"method": "rhf"
			},
			{
				"type": "occ",
				"energy": -0.24112,
				"method": "rhf"
			},
			{
				"type": "occ",
				"energy": -0.21854,
				"method": "rhf"
			},
			{
				"type": "occ",
				"energy": -0.19612,
				"method": "rhf"
			},
			{
				"type": "unocc",
				"energy": -0.01887,
				"method": "rhf"
			},
			{
				"type": "unocc",
				"energy": 0.03641,
				"method": "rhf"
			},
			{
				"type": "unocc",
				"energy": 0.03942,
				"method": "rhf"
			},
			{
				"type": "unocc",
				"energy": 0.06318,
				"method": "rhf"
			},
			{
				"type": "unocc",
				"energy": 0.07212,
				"method": "rhf"
			}
		],
		"cosmo_sigma_profile": { 
			"-0.025": 0.0,
			"-0.024": 0.0,
			"-0.023": 0.0,
			"-0.022": 0.0,
			"-0.021": 0.0,
			"-0.02": 0.0,
			"-0.019": 0.0,
			"-0.018": 0.0,
			"-0.017": 0.128792865112,
			"-0.016": 1.0678414464,
			"-0.015": 1.5829569444,
			"-0.014": 1.46077491681,
			"-0.013": 3.38557661889,
			"-0.012": 4.0875887452,
			"-0.011": 3.55468794691,
			"-0.01": 4.649431869,
			"-0.009": 3.75134890952,
			"-0.008": 3.24733827859,
			"-0.007": 6.84674592275,
			"-0.006": 7.66383504663,
			"-0.005": 8.59180392423,
			"-0.004": 8.87313862631,
			"-0.003": 8.44950340817,
			"-0.002": 8.08421478964,
			"-0.001": 7.07512387292,
			"0.0": 8.54873694084,
			"0.001": 8.73773982302,
			"0.002": 10.6944501831,
			"0.003": 13.4788721271,
			"0.004": 18.8645373811,
			"0.005": 21.6855575765,
			"0.006": 11.5595613981,
			"0.007": 3.18976066427,
			"0.008": 2.47841218243,
			"0.009": 1.91315300869,
			"0.01": 2.61658710009,
			"0.011": 1.52630228312,
			"0.012": 2.54549572194,
			"0.013": 1.70087315791,
			"0.014": 1.18004204556,
			"0.015": 1.27576190424,
			"0.016": 0.266448228429,
			"0.017": 0.0,
			"0.018": 0.0,
			"0.019": 0.0,
			"0.02": 0.0,
			"0.021": 0.0,
			"0.022": 0.0,
			"0.023": 0.0,
			"0.024": 0.0,
			"0.025": 0.0
		}
	}
}
