{
	 "smiles": "CC1CC2=C(C=CC=C2Br)C(=O)N1", 
	 "Tm": 409.15, 
	 "num_atms": 23, 
	 "gaussian": { 
		 "optdone": 1, 
		 "sigma_profile": "yes", 
		 "theory": "DFT", 
		 "functional": "B3LYP", 
		 "basiset": "6-31G**", 
		 "properties": { 
			 "R2extent": 5555.7944, 
			 "electric_dipole_moment_norm": 2.49905830864, 
			 "electric_quadrupole_moment_norm": 14.7368804823, 
			 "total_energy": -3088.50531616, 
			 "HOMO_LUMO_gap": 0.19963, 
			 "cosmo_polarized_energy": -10.77, 
			 "cosmo_cavitation_energy": 27.94, 
			 "cosmo_dispersion_energy": -21.09, 
			 "cosmo_repulsion_energy": 1.66, 
			 "cosmo_total_nonelectrostatic_energy": 8.51, 
			 "SMD_solvation_energy": 3.37 
		},
		"coords": [
			{
				"x": -0.4715715365,
				"y": -1.9832678988,
				"z": 2.4757302656,
				"element": "C" 
			},
			{
				"x": 0.6521548552,
				"y": -1.935641062,
				"z": 1.4422016994,
				"element": "C" 
			},
			{
				"x": 0.1159046008,
				"y": -1.7876302296,
				"z": 0.014753248,
				"element": "C" 
			},
			{
				"x": 1.2253705771,
				"y": -1.5350953414,
				"z": -0.9786581056,
				"element": "C" 
			},
			{
				"x": 2.3784994002,
				"y": -0.8464567019,
				"z": -0.5520250993,
				"element": "C" 
			},
			{
				"x": 3.4228475983,
				"y": -0.5607746332,
				"z": -1.4351583462,
				"element": "C" 
			},
			{
				"x": 3.3396938425,
				"y": -0.962408583,
				"z": -2.7644347098,
				"element": "C" 
			},
			{
				"x": 2.2062078069,
				"y": -1.639919823,
				"z": -3.2150182153,
				"element": "C" 
			},
			{
				"x": 1.1669871628,
				"y": -1.9117468518,
				"z": -2.3256121477,
				"element": "C" 
			},
			{
				"x": -0.3762578673,
				"y": -2.8190973276,
				"z": -3.0201152423,
				"element": "Br" 
			},
			{
				"x": 2.5154271834,
				"y": -0.3747751607,
				"z": 0.8664711368,
				"element": "C" 
			},
			{
				"x": 3.4244402579,
				"y": 0.3671913604,
				"z": 1.225676822,
				"element": "O" 
			},
			{
				"x": 1.5426816257,
				"y": -0.8089953968,
				"z": 1.7295356013,
				"element": "N" 
			},
			{
				"x": -0.0703258404,
				"y": -2.0990398824,
				"z": 3.4885686532,
				"element": "H" 
			},
			{
				"x": -1.0663402512,
				"y": -1.064697247,
				"z": 2.4444499318,
				"element": "H" 
			},
			{
				"x": -1.132683377,
				"y": -2.8329138978,
				"z": 2.2813720023,
				"element": "H" 
			},
			{
				"x": 1.2188830098,
				"y": -2.8799850067,
				"z": 1.4978931858,
				"element": "H" 
			},
			{
				"x": -0.594805435,
				"y": -0.9489548003,
				"z": -0.016159073,
				"element": "H" 
			},
			{
				"x": -0.4439496399,
				"y": -2.6854007706,
				"z": -0.2584065498,
				"element": "H" 
			},
			{
				"x": 4.2809324445,
				"y": -0.0205587756,
				"z": -1.0507663794,
				"element": "H" 
			},
			{
				"x": 4.148126962,
				"y": -0.7486996648,
				"z": -3.4568293277,
				"element": "H" 
			},
			{
				"x": 2.1234476718,
				"y": -1.9555870992,
				"z": -4.2488048214,
				"element": "H" 
			},
			{
				"x": 1.7313289483,
				"y": -0.581145206,
				"z": 2.6980354713,
				"element": "H" 
			}
		],
		 "valence_orbital": [ 
			{
				"type": "occ",
				"energy": -0.29295,
				"method": "rhf"
			},
			{
				"type": "occ",
				"energy": -0.2629,
				"method": "rhf"
			},
			{
				"type": "occ",
				"energy": -0.25644,
				"method": "rhf"
			},
			{
				"type": "occ",
				"energy": -0.24993,
				"method": "rhf"
			},
			{
				"type": "occ",
				"energy": -0.24481,
				"method": "rhf"
			},
			{
				"type": "unocc",
				"energy": -0.04518,
				"method": "rhf"
			},
			{
				"type": "unocc",
				"energy": -0.01802,
				"method": "rhf"
			},
			{
				"type": "unocc",
				"energy": 0.00222,
				"method": "rhf"
			},
			{
				"type": "unocc",
				"energy": 0.05558,
				"method": "rhf"
			},
			{
				"type": "unocc",
				"energy": 0.07817,
				"method": "rhf"
			}
		],
		"cosmo_sigma_profile": { 
			"-0.025": 0.0,
			"-0.024": 0.0,
			"-0.023": 0.0,
			"-0.022": 0.0,
			"-0.021": 0.0,
			"-0.02": 0.0,
			"-0.019": 0.0,
			"-0.018": 0.0,
			"-0.017": 0.0,
			"-0.016": 0.0,
			"-0.015": 0.0,
			"-0.014": 0.0716642384157,
			"-0.013": 0.855546399,
			"-0.012": 0.725266527133,
			"-0.011": 1.09783765403,
			"-0.01": 1.27023975387,
			"-0.009": 1.17522286496,
			"-0.008": 1.58194000297,
			"-0.007": 4.13932778761,
			"-0.006": 6.20823629145,
			"-0.005": 12.4617431187,
			"-0.004": 23.9570443885,
			"-0.003": 20.5580335125,
			"-0.002": 18.3658728087,
			"-0.001": 19.1847113995,
			"0.0": 19.5440999411,
			"0.001": 16.7639592257,
			"0.002": 20.5387790573,
			"0.003": 17.6360816752,
			"0.004": 13.1920142029,
			"0.005": 6.3090422876,
			"0.006": 1.33593829156,
			"0.007": 1.52221908886,
			"0.008": 1.78658506645,
			"0.009": 1.02249571207,
			"0.01": 0.778025283635,
			"0.011": 1.8125027834,
			"0.012": 2.04410836153,
			"0.013": 4.3917609916,
			"0.014": 4.04510502355,
			"0.015": 0.447095281092,
			"0.016": 0.0,
			"0.017": 0.0,
			"0.018": 0.0,
			"0.019": 0.0,
			"0.02": 0.0,
			"0.021": 0.0,
			"0.022": 0.0,
			"0.023": 0.0,
			"0.024": 0.0,
			"0.025": 0.0
		}
	}
}
