{
	 "smiles": "CC1=C(C=C(C=C1)S(Cl)(=O)=O)[N+]([O-])=O", 
	 "Tm": 312.15, 
	 "num_atms": 20, 
	 "gaussian": { 
		 "optdone": 1, 
		 "sigma_profile": "yes", 
		 "theory": "DFT", 
		 "functional": "B3LYP", 
		 "basiset": "6-31G**", 
		 "properties": { 
			 "R2extent": 4496.0487, 
			 "electric_dipole_moment_norm": 5.33485554631, 
			 "electric_quadrupole_moment_norm": 12.2945839116, 
			 "total_energy": -1484.21634764, 
			 "HOMO_LUMO_gap": 0.19034, 
			 "cosmo_polarized_energy": -12.51, 
			 "cosmo_cavitation_energy": 28.6, 
			 "cosmo_dispersion_energy": -21.27, 
			 "cosmo_repulsion_energy": 1.63, 
			 "cosmo_total_nonelectrostatic_energy": 8.96, 
			 "SMD_solvation_energy": 5.73 
		},
		"coords": [
			{
				"x": 1.869177852,
				"y": 1.5983722467,
				"z": 1.5487127577,
				"element": "C" 
			},
			{
				"x": 0.9225683124,
				"y": 0.9825116792,
				"z": 0.5504159004,
				"element": "C" 
			},
			{
				"x": -0.4765918416,
				"y": 0.8849328363,
				"z": 0.7042284095,
				"element": "C" 
			},
			{
				"x": -1.2987389774,
				"y": 0.2904427028,
				"z": -0.2524161255,
				"element": "C" 
			},
			{
				"x": -0.7118524438,
				"y": -0.2109517952,
				"z": -1.4053575906,
				"element": "C" 
			},
			{
				"x": 0.6662839844,
				"y": -0.1475950937,
				"z": -1.613000086,
				"element": "C" 
			},
			{
				"x": 1.456685774,
				"y": 0.4407684374,
				"z": -0.6326631824,
				"element": "C" 
			},
			{
				"x": -1.749316439,
				"y": -0.9858193972,
				"z": -2.6396691284,
				"element": "S" 
			},
			{
				"x": -2.2094961948,
				"y": 0.6750180906,
				"z": -3.8881499211,
				"element": "Cl" 
			},
			{
				"x": -3.0021349031,
				"y": -1.398566453,
				"z": -2.0232421138,
				"element": "O" 
			},
			{
				"x": -0.9311966753,
				"y": -1.8864718401,
				"z": -3.4411853075,
				"element": "O" 
			},
			{
				"x": -1.1709844874,
				"y": 1.4052261502,
				"z": 1.9030110506,
				"element": "N" 
			},
			{
				"x": -2.3413047787,
				"y": 1.0696691313,
				"z": 2.0670837973,
				"element": "O" 
			},
			{
				"x": -0.5447798566,
				"y": 2.1471289201,
				"z": 2.6577046476,
				"element": "O" 
			},
			{
				"x": 1.7327483771,
				"y": 1.178738275,
				"z": 2.54801971,
				"element": "H" 
			},
			{
				"x": 1.6954629144,
				"y": 2.6730294785,
				"z": 1.6448434188,
				"element": "H" 
			},
			{
				"x": 2.9004963506,
				"y": 1.4315707964,
				"z": 1.2295298037,
				"element": "H" 
			},
			{
				"x": -2.3649606014,
				"y": 0.2225700693,
				"z": -0.0776497666,
				"element": "H" 
			},
			{
				"x": 1.1047876337,
				"y": -0.5609736144,
				"z": -2.5143736832,
				"element": "H" 
			},
			{
				"x": 2.5312460006,
				"y": 0.4843993798,
				"z": -0.7788425906,
				"element": "H" 
			}
		],
		 "valence_orbital": [ 
			{
				"type": "occ",
				"energy": -0.32617,
				"method": "rhf"
			},
			{
				"type": "occ",
				"energy": -0.32409,
				"method": "rhf"
			},
			{
				"type": "occ",
				"energy": -0.31654,
				"method": "rhf"
			},
			{
				"type": "occ",
				"energy": -0.30664,
				"method": "rhf"
			},
			{
				"type": "occ",
				"energy": -0.30276,
				"method": "rhf"
			},
			{
				"type": "unocc",
				"energy": -0.11242,
				"method": "rhf"
			},
			{
				"type": "unocc",
				"energy": -0.10004,
				"method": "rhf"
			},
			{
				"type": "unocc",
				"energy": -0.05991,
				"method": "rhf"
			},
			{
				"type": "unocc",
				"energy": -0.03419,
				"method": "rhf"
			},
			{
				"type": "unocc",
				"energy": 0.03956,
				"method": "rhf"
			}
		],
		"cosmo_sigma_profile": { 
			"-0.025": 0.0,
			"-0.024": 0.0,
			"-0.023": 0.0,
			"-0.022": 0.0,
			"-0.021": 0.0,
			"-0.02": 0.0,
			"-0.019": 0.0,
			"-0.018": 0.0,
			"-0.017": 0.0,
			"-0.016": 0.0,
			"-0.015": 0.0,
			"-0.014": 0.0,
			"-0.013": 0.0,
			"-0.012": 0.0,
			"-0.011": 0.0,
			"-0.01": 0.482389087033,
			"-0.009": 3.10507207456,
			"-0.008": 6.96468222126,
			"-0.007": 9.16173147395,
			"-0.006": 10.3475970507,
			"-0.005": 12.7130101891,
			"-0.004": 16.315565729,
			"-0.003": 20.0675616406,
			"-0.002": 25.113501092,
			"-0.001": 19.2665589347,
			"0.0": 11.7853232383,
			"0.001": 10.0839149271,
			"0.002": 12.5353764542,
			"0.003": 17.0813678055,
			"0.004": 7.4852171239,
			"0.005": 6.67160842662,
			"0.006": 8.08012138657,
			"0.007": 14.6625187356,
			"0.008": 13.5818585183,
			"0.009": 5.97516065799,
			"0.01": 0.768455117234,
			"0.011": 0.0,
			"0.012": 0.0,
			"0.013": 0.0,
			"0.014": 0.0,
			"0.015": 0.0,
			"0.016": 0.0,
			"0.017": 0.0,
			"0.018": 0.0,
			"0.019": 0.0,
			"0.02": 0.0,
			"0.021": 0.0,
			"0.022": 0.0,
			"0.023": 0.0,
			"0.024": 0.0,
			"0.025": 0.0
		}
	}
}
