{
	 "smiles": "CC1=C(NC(=O)C2CCC3=C(N2)C=CC=C3)C=CC=C1", 
	 "Tm": 389.15, 
	 "num_atms": 38, 
	 "gaussian": { 
		 "optdone": 1, 
		 "sigma_profile": "yes", 
		 "theory": "DFT", 
		 "functional": "B3LYP", 
		 "basiset": "6-31G**", 
		 "properties": { 
			 "R2extent": 7257.841, 
			 "electric_dipole_moment_norm": 3.3997655831, 
			 "electric_quadrupole_moment_norm": 4.61594914725, 
			 "total_energy": -843.415154222, 
			 "HOMO_LUMO_gap": 0.18006, 
			 "cosmo_polarized_energy": -16.29, 
			 "cosmo_cavitation_energy": 39.82, 
			 "cosmo_dispersion_energy": -27.97, 
			 "cosmo_repulsion_energy": 2.12, 
			 "cosmo_total_nonelectrostatic_energy": 13.97, 
			 "SMD_solvation_energy": 5.49 
		},
		"coords": [
			{
				"x": -1.4350644016,
				"y": -2.1057998069,
				"z": 1.9468656925,
				"element": "C" 
			},
			{
				"x": -2.6504116956,
				"y": -1.4299438084,
				"z": 1.3676934797,
				"element": "C" 
			},
			{
				"x": -2.6114355602,
				"y": -0.116888415,
				"z": 0.8586613967,
				"element": "C" 
			},
			{
				"x": -1.406713125,
				"y": 0.6532040153,
				"z": 0.8639689623,
				"element": "N" 
			},
			{
				"x": -0.2549544671,
				"y": 0.3343821683,
				"z": 0.1827039781,
				"element": "C" 
			},
			{
				"x": -0.0840378467,
				"y": -0.7286088566,
				"z": -0.3958371986,
				"element": "O" 
			},
			{
				"x": 0.817364943,
				"y": 1.4586726307,
				"z": 0.1194260089,
				"element": "C" 
			},
			{
				"x": 1.0914814085,
				"y": 2.1942707148,
				"z": 1.4426358622,
				"element": "C" 
			},
			{
				"x": 1.7467689956,
				"y": 1.2607437956,
				"z": 2.4652103723,
				"element": "C" 
			},
			{
				"x": 2.9222098407,
				"y": 0.5228368075,
				"z": 1.8581385379,
				"element": "C" 
			},
			{
				"x": 2.9997764047,
				"y": 0.3560136155,
				"z": 0.460483982,
				"element": "C" 
			},
			{
				"x": 2.0675834104,
				"y": 0.9478963319,
				"z": -0.4115537991,
				"element": "N" 
			},
			{
				"x": 4.0716105809,
				"y": -0.3718867277,
				"z": -0.0852670362,
				"element": "C" 
			},
			{
				"x": 5.0496308758,
				"y": -0.9227438839,
				"z": 0.7349814204,
				"element": "C" 
			},
			{
				"x": 4.9872261316,
				"y": -0.7485769911,
				"z": 2.1203856501,
				"element": "C" 
			},
			{
				"x": 3.9266976238,
				"y": -0.0253202309,
				"z": 2.6622445313,
				"element": "C" 
			},
			{
				"x": -3.7748092345,
				"y": 0.5001072539,
				"z": 0.383841988,
				"element": "C" 
			},
			{
				"x": -4.9925580984,
				"y": -0.1754081686,
				"z": 0.3898402401,
				"element": "C" 
			},
			{
				"x": -5.0446966849,
				"y": -1.4860612083,
				"z": 0.8638756655,
				"element": "C" 
			},
			{
				"x": -3.8851177378,
				"y": -2.0935412527,
				"z": 1.3430439859,
				"element": "C" 
			},
			{
				"x": -0.7263365945,
				"y": -2.3762369415,
				"z": 1.15914946,
				"element": "H" 
			},
			{
				"x": -0.904404177,
				"y": -1.4389821288,
				"z": 2.6357587142,
				"element": "H" 
			},
			{
				"x": -1.7194148738,
				"y": -3.006993853,
				"z": 2.4963461272,
				"element": "H" 
			},
			{
				"x": -1.5087433864,
				"y": 1.6169637549,
				"z": 1.1499598073,
				"element": "H" 
			},
			{
				"x": 0.4241296601,
				"y": 2.1898327159,
				"z": -0.6038474528,
				"element": "H" 
			},
			{
				"x": 1.764200945,
				"y": 3.0290818012,
				"z": 1.2174619172,
				"element": "H" 
			},
			{
				"x": 0.1742228934,
				"y": 2.6338617125,
				"z": 1.8488605754,
				"element": "H" 
			},
			{
				"x": 2.0703599442,
				"y": 1.8334055417,
				"z": 3.3420456807,
				"element": "H" 
			},
			{
				"x": 0.999259287,
				"y": 0.5414110796,
				"z": 2.8298042145,
				"element": "H" 
			},
			{
				"x": 1.9078620855,
				"y": 0.3782621325,
				"z": -1.2343329703,
				"element": "H" 
			},
			{
				"x": 4.1295035356,
				"y": -0.4940099257,
				"z": -1.1641954093,
				"element": "H" 
			},
			{
				"x": 5.8660555014,
				"y": -1.4847416028,
				"z": 0.2898915133,
				"element": "H" 
			},
			{
				"x": 5.7526015346,
				"y": -1.1681800564,
				"z": 2.7658739217,
				"element": "H" 
			},
			{
				"x": 3.8633423462,
				"y": 0.1145617841,
				"z": 3.7396060166,
				"element": "H" 
			},
			{
				"x": -3.7138921457,
				"y": 1.5140685268,
				"z": -0.0038589961,
				"element": "H" 
			},
			{
				"x": -5.8868910298,
				"y": 0.3152361088,
				"z": 0.0176704893,
				"element": "H" 
			},
			{
				"x": -5.9842481267,
				"y": -2.0307429805,
				"z": 0.8695017302,
				"element": "H" 
			},
			{
				"x": -3.9330587623,
				"y": -3.1087456531,
				"z": 1.7283609408,
				"element": "H" 
			}
		],
		 "valence_orbital": [ 
			{
				"type": "occ",
				"energy": -0.2574,
				"method": "rhf"
			},
			{
				"type": "occ",
				"energy": -0.24577,
				"method": "rhf"
			},
			{
				"type": "occ",
				"energy": -0.23342,
				"method": "rhf"
			},
			{
				"type": "occ",
				"energy": -0.23164,
				"method": "rhf"
			},
			{
				"type": "occ",
				"energy": -0.19136,
				"method": "rhf"
			},
			{
				"type": "unocc",
				"energy": -0.0113,
				"method": "rhf"
			},
			{
				"type": "unocc",
				"energy": -0.00068,
				"method": "rhf"
			},
			{
				"type": "unocc",
				"energy": 0.00777,
				"method": "rhf"
			},
			{
				"type": "unocc",
				"energy": 0.02041,
				"method": "rhf"
			},
			{
				"type": "unocc",
				"energy": 0.02842,
				"method": "rhf"
			}
		],
		"cosmo_sigma_profile": { 
			"-0.025": 0.0,
			"-0.024": 0.0,
			"-0.023": 0.0,
			"-0.022": 0.0,
			"-0.021": 0.0,
			"-0.02": 0.0,
			"-0.019": 0.0,
			"-0.018": 0.0,
			"-0.017": 0.0,
			"-0.016": 0.0,
			"-0.015": 0.350594068475,
			"-0.014": 1.36190406177,
			"-0.013": 1.16622540748,
			"-0.012": 1.24072852418,
			"-0.011": 1.90847760952,
			"-0.01": 2.33836675362,
			"-0.009": 2.63985094034,
			"-0.008": 2.51162811504,
			"-0.007": 5.60295541942,
			"-0.006": 11.1750687124,
			"-0.005": 19.230598627,
			"-0.004": 26.1576020015,
			"-0.003": 29.5403788772,
			"-0.002": 30.7901653867,
			"-0.001": 26.4607865167,
			"0.0": 21.635165951,
			"0.001": 20.7766975898,
			"0.002": 16.0642850368,
			"0.003": 13.3648007049,
			"0.004": 16.1916669273,
			"0.005": 17.1716748416,
			"0.006": 17.0524143558,
			"0.007": 11.2582814084,
			"0.008": 4.51469037816,
			"0.009": 2.87652216528,
			"0.01": 2.88816161249,
			"0.011": 2.38993718814,
			"0.012": 2.82847511887,
			"0.013": 3.3354635707,
			"0.014": 0.233167003261,
			"0.015": 0.0,
			"0.016": 0.0,
			"0.017": 0.0,
			"0.018": 0.0,
			"0.019": 0.0,
			"0.02": 0.0,
			"0.021": 0.0,
			"0.022": 0.0,
			"0.023": 0.0,
			"0.024": 0.0,
			"0.025": 0.0
		}
	}
}
