{
	 "smiles": "COC(=O)C1=CNC(C)=N1", 
	 "Tm": 410.15, 
	 "num_atms": 18, 
	 "gaussian": { 
		 "optdone": 1, 
		 "sigma_profile": "yes", 
		 "theory": "DFT", 
		 "functional": "B3LYP", 
		 "basiset": "6-31G**", 
		 "properties": { 
			 "R2extent": 1959.6216, 
			 "electric_dipole_moment_norm": 3.85977284953, 
			 "electric_quadrupole_moment_norm": 12.5018563922, 
			 "total_energy": -493.422135149, 
			 "HOMO_LUMO_gap": 0.21742, 
			 "cosmo_polarized_energy": -18.18, 
			 "cosmo_cavitation_energy": 22.85, 
			 "cosmo_dispersion_energy": -16.94, 
			 "cosmo_repulsion_energy": 1.41, 
			 "cosmo_total_nonelectrostatic_energy": 7.31, 
			 "SMD_solvation_energy": 4.37 
		},
		"coords": [
			{
				"x": 2.4929537082,
				"y": 0.1343207712,
				"z": -3.5121017306,
				"element": "C" 
			},
			{
				"x": 1.5830049423,
				"y": 0.3865338188,
				"z": -2.4333766526,
				"element": "O" 
			},
			{
				"x": 1.001698263,
				"y": -0.7127139268,
				"z": -1.9124080101,
				"element": "C" 
			},
			{
				"x": 1.2177272122,
				"y": -1.8447570226,
				"z": -2.3103895387,
				"element": "O" 
			},
			{
				"x": 0.0782327222,
				"y": -0.4021579069,
				"z": -0.8087829116,
				"element": "C" 
			},
			{
				"x": -0.6354925316,
				"y": -1.3538901551,
				"z": -0.1144300654,
				"element": "C" 
			},
			{
				"x": -1.3589993376,
				"y": -0.6486564809,
				"z": 0.811685366,
				"element": "N" 
			},
			{
				"x": -1.0627795697,
				"y": 0.6898985687,
				"z": 0.6491194211,
				"element": "C" 
			},
			{
				"x": -1.6685562025,
				"y": 1.766492387,
				"z": 1.4891974913,
				"element": "C" 
			},
			{
				"x": -0.1972379884,
				"y": 0.8621599936,
				"z": -0.323555573,
				"element": "N" 
			},
			{
				"x": 3.3150475737,
				"y": -0.5081490208,
				"z": -3.1849972006,
				"element": "H" 
			},
			{
				"x": 1.9811262681,
				"y": -0.3529998658,
				"z": -4.3464616208,
				"element": "H" 
			},
			{
				"x": 2.8689340167,
				"y": 1.1121669621,
				"z": -3.8132809704,
				"element": "H" 
			},
			{
				"x": -0.6761299275,
				"y": -2.42706279,
				"z": -0.2105292307,
				"element": "H" 
			},
			{
				"x": -1.9942729934,
				"y": -1.0421227976,
				"z": 1.4900044983,
				"element": "H" 
			},
			{
				"x": -1.2697613186,
				"y": 2.7260892432,
				"z": 1.1583771634,
				"element": "H" 
			},
			{
				"x": -2.7603363429,
				"y": 1.7936306788,
				"z": 1.393642746,
				"element": "H" 
			},
			{
				"x": -1.4288584944,
				"y": 1.6394175432,
				"z": 2.5513868187,
				"element": "H" 
			}
		],
		 "valence_orbital": [ 
			{
				"type": "occ",
				"energy": -0.28754,
				"method": "rhf"
			},
			{
				"type": "occ",
				"energy": -0.28505,
				"method": "rhf"
			},
			{
				"type": "occ",
				"energy": -0.27389,
				"method": "rhf"
			},
			{
				"type": "occ",
				"energy": -0.25856,
				"method": "rhf"
			},
			{
				"type": "occ",
				"energy": -0.22994,
				"method": "rhf"
			},
			{
				"type": "unocc",
				"energy": -0.01252,
				"method": "rhf"
			},
			{
				"type": "unocc",
				"energy": 0.02755,
				"method": "rhf"
			},
			{
				"type": "unocc",
				"energy": 0.06475,
				"method": "rhf"
			},
			{
				"type": "unocc",
				"energy": 0.11624,
				"method": "rhf"
			},
			{
				"type": "unocc",
				"energy": 0.12627,
				"method": "rhf"
			}
		],
		"cosmo_sigma_profile": { 
			"-0.025": 0.0,
			"-0.024": 0.0,
			"-0.023": 0.0,
			"-0.022": 0.0,
			"-0.021": 0.0,
			"-0.02": 0.0,
			"-0.019": 0.0,
			"-0.018": 0.0,
			"-0.017": 0.939229070857,
			"-0.016": 1.90044323186,
			"-0.015": 1.15243668247,
			"-0.014": 1.02393493675,
			"-0.013": 1.32393900667,
			"-0.012": 1.58552814763,
			"-0.011": 1.08050297849,
			"-0.01": 2.02030325275,
			"-0.009": 3.1836676979,
			"-0.008": 2.53891043763,
			"-0.007": 3.00351419485,
			"-0.006": 8.69034372137,
			"-0.005": 13.9055507337,
			"-0.004": 14.0968668977,
			"-0.003": 16.8696277749,
			"-0.002": 13.6174334396,
			"-0.001": 13.4095299635,
			"0.0": 8.41045182858,
			"0.001": 9.34453872779,
			"0.002": 9.28400867611,
			"0.003": 8.34403038264,
			"0.004": 5.41550293159,
			"0.005": 3.71111545572,
			"0.006": 3.33766189144,
			"0.007": 3.75784447142,
			"0.008": 3.81773710894,
			"0.009": 2.91234578619,
			"0.01": 3.07162935064,
			"0.011": 4.06605548368,
			"0.012": 6.00334975544,
			"0.013": 3.91878710008,
			"0.014": 1.48168959319,
			"0.015": 1.41676905559,
			"0.016": 1.18305025552,
			"0.017": 1.06764532123,
			"0.018": 0.676308709584,
			"0.019": 0.0,
			"0.02": 0.0,
			"0.021": 0.0,
			"0.022": 0.0,
			"0.023": 0.0,
			"0.024": 0.0,
			"0.025": 0.0
		}
	}
}
