{
	 "smiles": "CC=CC1=CC2=C(C(=O)O1)C(=O)C(O)C(C)O2", 
	 "Tm": 495.15, 
	 "num_atms": 29, 
	 "gaussian": { 
		 "optdone": 1, 
		 "sigma_profile": "yes", 
		 "theory": "DFT", 
		 "functional": "B3LYP", 
		 "basiset": "6-31G**", 
		 "properties": { 
			 "R2extent": 5487.851, 
			 "electric_dipole_moment_norm": 7.8500138726, 
			 "electric_quadrupole_moment_norm": 19.9914581914, 
			 "total_energy": -840.605601553, 
			 "HOMO_LUMO_gap": 0.14641, 
			 "cosmo_polarized_energy": -19.91, 
			 "cosmo_cavitation_energy": 33.4, 
			 "cosmo_dispersion_energy": -24.47, 
			 "cosmo_repulsion_energy": 1.9, 
			 "cosmo_total_nonelectrostatic_energy": 10.83, 
			 "SMD_solvation_energy": 7.78 
		},
		"coords": [
			{
				"x": 0.7262104874,
				"y": -5.1543741693,
				"z": 0.5114020783,
				"element": "C" 
			},
			{
				"x": 0.50204096,
				"y": -3.6817339325,
				"z": 0.3751181369,
				"element": "C" 
			},
			{
				"x": 1.1293111142,
				"y": -2.8969013756,
				"z": -0.51554499,
				"element": "C" 
			},
			{
				"x": 0.9330213744,
				"y": -1.4583281372,
				"z": -0.6723916565,
				"element": "C" 
			},
			{
				"x": -0.0134025129,
				"y": -0.6835222978,
				"z": -0.0599085509,
				"element": "C" 
			},
			{
				"x": -0.0465333321,
				"y": 0.705587988,
				"z": -0.3428191034,
				"element": "C" 
			},
			{
				"x": 0.8686346352,
				"y": 1.2901534403,
				"z": -1.2215091203,
				"element": "C" 
			},
			{
				"x": 1.8460862768,
				"y": 0.4596171608,
				"z": -1.9021346113,
				"element": "C" 
			},
			{
				"x": 2.6844523558,
				"y": 0.7723747424,
				"z": -2.7024576484,
				"element": "O" 
			},
			{
				"x": 1.8116244414,
				"y": -0.929998767,
				"z": -1.5447261274,
				"element": "O" 
			},
			{
				"x": 0.8563826138,
				"y": 2.7380927442,
				"z": -1.3999764054,
				"element": "C" 
			},
			{
				"x": 1.461853315,
				"y": 3.3851693047,
				"z": -2.2453176216,
				"element": "O" 
			},
			{
				"x": -0.0116243164,
				"y": 3.4998155199,
				"z": -0.3862257374,
				"element": "C" 
			},
			{
				"x": -0.2680534862,
				"y": 4.794970721,
				"z": -0.8504084834,
				"element": "O" 
			},
			{
				"x": -1.3196749085,
				"y": 2.7393024543,
				"z": -0.1758342144,
				"element": "C" 
			},
			{
				"x": -2.2385254105,
				"y": 3.3631260068,
				"z": 0.8545841991,
				"element": "C" 
			},
			{
				"x": -1.0174151756,
				"y": 1.3865482574,
				"z": 0.280664634,
				"element": "O" 
			},
			{
				"x": -0.2096195137,
				"y": -5.7058809612,
				"z": 0.3552892995,
				"element": "H" 
			},
			{
				"x": 1.0676736604,
				"y": -5.4040973777,
				"z": 1.523861646,
				"element": "H" 
			},
			{
				"x": 1.4667626027,
				"y": -5.5212490818,
				"z": -0.2039448327,
				"element": "H" 
			},
			{
				"x": -0.2213940158,
				"y": -3.2426724697,
				"z": 1.0615356617,
				"element": "H" 
			},
			{
				"x": 1.86818968,
				"y": -3.3199048739,
				"z": -1.1917565123,
				"element": "H" 
			},
			{
				"x": -0.7485835483,
				"y": -1.1043121431,
				"z": 0.6117733946,
				"element": "H" 
			},
			{
				"x": 0.5356485765,
				"y": 3.5162049156,
				"z": 0.5754306775,
				"element": "H" 
			},
			{
				"x": 0.3666698684,
				"y": 4.9156897737,
				"z": -1.5838907961,
				"element": "H" 
			},
			{
				"x": -1.8308985051,
				"y": 2.6462525033,
				"z": -1.1440925414,
				"element": "H" 
			},
			{
				"x": -3.1560834123,
				"y": 2.7782670013,
				"z": 0.961912693,
				"element": "H" 
			},
			{
				"x": -2.4947472983,
				"y": 4.3750006142,
				"z": 0.532743556,
				"element": "H" 
			},
			{
				"x": -1.7413065264,
				"y": 3.4201024389,
				"z": 1.8278229765,
				"element": "H" 
			}
		],
		 "valence_orbital": [ 
			{
				"type": "occ",
				"energy": -0.28878,
				"method": "rhf"
			},
			{
				"type": "occ",
				"energy": -0.28455,
				"method": "rhf"
			},
			{
				"type": "occ",
				"energy": -0.27287,
				"method": "rhf"
			},
			{
				"type": "occ",
				"energy": -0.25164,
				"method": "rhf"
			},
			{
				"type": "occ",
				"energy": -0.23575,
				"method": "rhf"
			},
			{
				"type": "unocc",
				"energy": -0.08934,
				"method": "rhf"
			},
			{
				"type": "unocc",
				"energy": -0.01974,
				"method": "rhf"
			},
			{
				"type": "unocc",
				"energy": -0.0136,
				"method": "rhf"
			},
			{
				"type": "unocc",
				"energy": 0.05915,
				"method": "rhf"
			},
			{
				"type": "unocc",
				"energy": 0.07363,
				"method": "rhf"
			}
		],
		"cosmo_sigma_profile": { 
			"-0.025": 0.0,
			"-0.024": 0.0,
			"-0.023": 0.0,
			"-0.022": 0.0,
			"-0.021": 0.0,
			"-0.02": 0.0,
			"-0.019": 0.0,
			"-0.018": 0.0,
			"-0.017": 0.0,
			"-0.016": 0.0,
			"-0.015": 0.0,
			"-0.014": 0.0,
			"-0.013": 0.0,
			"-0.012": 0.0,
			"-0.011": 0.161018947732,
			"-0.01": 0.933333507475,
			"-0.009": 3.48563357776,
			"-0.008": 3.79876434555,
			"-0.007": 8.87060098671,
			"-0.006": 14.1236991764,
			"-0.005": 21.2389947336,
			"-0.004": 25.4977331718,
			"-0.003": 25.0766404951,
			"-0.002": 26.0390049897,
			"-0.001": 26.5113142899,
			"0.0": 23.2075218858,
			"0.001": 12.5680814961,
			"0.002": 8.06828086525,
			"0.003": 7.32316902436,
			"0.004": 4.60979951097,
			"0.005": 5.21869822868,
			"0.006": 5.98526116798,
			"0.007": 4.46716499042,
			"0.008": 4.57116499317,
			"0.009": 4.88941846765,
			"0.01": 5.58361222411,
			"0.011": 8.84398001036,
			"0.012": 6.93272553748,
			"0.013": 3.25020481327,
			"0.014": 1.86001647785,
			"0.015": 0.736132665307,
			"0.016": 1.12103559064,
			"0.017": 0.198377849873,
			"0.018": 0.0,
			"0.019": 0.0,
			"0.02": 0.0,
			"0.021": 0.0,
			"0.022": 0.0,
			"0.023": 0.0,
			"0.024": 0.0,
			"0.025": 0.0
		}
	}
}
