{
	 "smiles": "NC1=C(O)C=C(Br)C=C1", 
	 "Tm": 412.15, 
	 "num_atms": 15, 
	 "gaussian": { 
		 "optdone": 1, 
		 "sigma_profile": "yes", 
		 "theory": "DFT", 
		 "functional": "B3LYP", 
		 "basiset": "6-31G**", 
		 "properties": { 
			 "R2extent": 4169.8099, 
			 "electric_dipole_moment_norm": 2.72538344091, 
			 "electric_quadrupole_moment_norm": 13.918561019, 
			 "total_energy": -2933.63139869, 
			 "HOMO_LUMO_gap": 0.19502, 
			 "cosmo_polarized_energy": -11.45, 
			 "cosmo_cavitation_energy": 21.3, 
			 "cosmo_dispersion_energy": -16.59, 
			 "cosmo_repulsion_energy": 1.37, 
			 "cosmo_total_nonelectrostatic_energy": 6.07, 
			 "SMD_solvation_energy": 2.76 
		},
		"coords": [
			{
				"x": 0.8071528762,
				"y": 1.2216652117,
				"z": 0.8933684638,
				"element": "N" 
			},
			{
				"x": 0.8638826477,
				"y": -0.1548745667,
				"z": 0.6911717169,
				"element": "C" 
			},
			{
				"x": 0.2761778826,
				"y": -0.7069061391,
				"z": -0.4687393073,
				"element": "C" 
			},
			{
				"x": -0.3772690187,
				"y": 0.1829414711,
				"z": -1.2861205641,
				"element": "O" 
			},
			{
				"x": 0.3589580945,
				"y": -2.0686757222,
				"z": -0.7376010035,
				"element": "C" 
			},
			{
				"x": 1.0324833813,
				"y": -2.9054170655,
				"z": 0.1552791659,
				"element": "C" 
			},
			{
				"x": 1.1390784895,
				"y": -4.7782910421,
				"z": -0.2233512703,
				"element": "Br" 
			},
			{
				"x": 1.617347541,
				"y": -2.3939383378,
				"z": 1.3067885949,
				"element": "C" 
			},
			{
				"x": 1.5276912887,
				"y": -1.0235617042,
				"z": 1.5642426516,
				"element": "C" 
			},
			{
				"x": 0.8634862113,
				"y": 1.5181987633,
				"z": 1.8573001611,
				"element": "H" 
			},
			{
				"x": 0.0715759467,
				"y": 1.6862595241,
				"z": 0.3789933436,
				"element": "H" 
			},
			{
				"x": -0.7594872384,
				"y": -0.2902625262,
				"z": -2.0356452175,
				"element": "H" 
			},
			{
				"x": -0.1004718896,
				"y": -2.4781951622,
				"z": -1.6323171317,
				"element": "H" 
			},
			{
				"x": 2.1367531517,
				"y": -3.0478450805,
				"z": 1.9971474244,
				"element": "H" 
			},
			{
				"x": 1.9887406355,
				"y": -0.6175976237,
				"z": 2.4608829722,
				"element": "H" 
			}
		],
		 "valence_orbital": [ 
			{
				"type": "occ",
				"energy": -0.33256,
				"method": "rhf"
			},
			{
				"type": "occ",
				"energy": -0.27908,
				"method": "rhf"
			},
			{
				"type": "occ",
				"energy": -0.27512,
				"method": "rhf"
			},
			{
				"type": "occ",
				"energy": -0.23959,
				"method": "rhf"
			},
			{
				"type": "occ",
				"energy": -0.19519,
				"method": "rhf"
			},
			{
				"type": "unocc",
				"energy": -0.00017,
				"method": "rhf"
			},
			{
				"type": "unocc",
				"energy": 0.01319,
				"method": "rhf"
			},
			{
				"type": "unocc",
				"energy": 0.01437,
				"method": "rhf"
			},
			{
				"type": "unocc",
				"energy": 0.05912,
				"method": "rhf"
			},
			{
				"type": "unocc",
				"energy": 0.09279,
				"method": "rhf"
			}
		],
		"cosmo_sigma_profile": { 
			"-0.025": 0.0,
			"-0.024": 0.0,
			"-0.023": 0.0,
			"-0.022": 0.0,
			"-0.021": 0.0,
			"-0.02": 0.0,
			"-0.019": 0.0,
			"-0.018": 0.696082036736,
			"-0.017": 1.10313562165,
			"-0.016": 1.27377146319,
			"-0.015": 0.916028565863,
			"-0.014": 0.895946023953,
			"-0.013": 1.49644571008,
			"-0.012": 2.38974691143,
			"-0.011": 3.76163639782,
			"-0.01": 3.30695441162,
			"-0.009": 2.74248895863,
			"-0.008": 4.13262795572,
			"-0.007": 4.19773774906,
			"-0.006": 6.44121658998,
			"-0.005": 6.00620477498,
			"-0.004": 7.29007339706,
			"-0.003": 6.9609184703,
			"-0.002": 6.58678801156,
			"-0.001": 7.35085368152,
			"0.0": 7.60232307763,
			"0.001": 8.39668650903,
			"0.002": 10.5964535116,
			"0.003": 17.3301627983,
			"0.004": 19.9994568254,
			"0.005": 22.3207082918,
			"0.006": 7.51369317752,
			"0.007": 3.85683548752,
			"0.008": 2.20345486802,
			"0.009": 1.59693974871,
			"0.01": 1.1365098406,
			"0.011": 0.835280398766,
			"0.012": 0.471071395649,
			"0.013": 0.717064475336,
			"0.014": 0.639831390606,
			"0.015": 0.0309813174117,
			"0.016": 0.0,
			"0.017": 0.0,
			"0.018": 0.0,
			"0.019": 0.0,
			"0.02": 0.0,
			"0.021": 0.0,
			"0.022": 0.0,
			"0.023": 0.0,
			"0.024": 0.0,
			"0.025": 0.0
		}
	}
}
