{
	 "smiles": "NC(=S)COC1=CC(Cl)=CC=C1", 
	 "Tm": 396.15, 
	 "num_atms": 20, 
	 "gaussian": { 
		 "optdone": 1, 
		 "sigma_profile": "yes", 
		 "theory": "DFT", 
		 "functional": "B3LYP", 
		 "basiset": "6-31G**", 
		 "properties": { 
			 "R2extent": 4155.9973, 
			 "electric_dipole_moment_norm": 4.75837052046, 
			 "electric_quadrupole_moment_norm": 13.285483835, 
			 "total_energy": -1298.02514697, 
			 "HOMO_LUMO_gap": 0.17617, 
			 "cosmo_polarized_energy": -14.91, 
			 "cosmo_cavitation_energy": 27.92, 
			 "cosmo_dispersion_energy": -20.6, 
			 "cosmo_repulsion_energy": 1.63, 
			 "cosmo_total_nonelectrostatic_energy": 8.96, 
			 "SMD_solvation_energy": 3.65 
		},
		"coords": [
			{
				"x": -1.1017736625,
				"y": -2.9379026741,
				"z": -1.2640259671,
				"element": "N" 
			},
			{
				"x": -1.6750622496,
				"y": -2.1574949688,
				"z": -0.3395774273,
				"element": "C" 
			},
			{
				"x": -2.9108769928,
				"y": -1.0867729818,
				"z": -0.6256547329,
				"element": "S" 
			},
			{
				"x": -1.1401972073,
				"y": -2.3730428992,
				"z": 1.0737431815,
				"element": "C" 
			},
			{
				"x": 0.1197025042,
				"y": -3.0409767209,
				"z": 1.1213238712,
				"element": "O" 
			},
			{
				"x": 1.2717525225,
				"y": -2.2946231001,
				"z": 1.0153240881,
				"element": "C" 
			},
			{
				"x": 1.301611289,
				"y": -0.9603803,
				"z": 0.5967259122,
				"element": "C" 
			},
			{
				"x": 2.5396946139,
				"y": -0.3171541753,
				"z": 0.5231440626,
				"element": "C" 
			},
			{
				"x": 2.5832620419,
				"y": 1.3596622657,
				"z": -0.0016104228,
				"element": "Cl" 
			},
			{
				"x": 3.730762186,
				"y": -0.9619319507,
				"z": 0.8433708763,
				"element": "C" 
			},
			{
				"x": 3.6721637967,
				"y": -2.2977577586,
				"z": 1.250909272,
				"element": "C" 
			},
			{
				"x": 2.4564353597,
				"y": -2.9669621337,
				"z": 1.3407136204,
				"element": "C" 
			},
			{
				"x": -1.4058814306,
				"y": -2.8773964788,
				"z": -2.2245893556,
				"element": "H" 
			},
			{
				"x": -0.3459846005,
				"y": -3.558528634,
				"z": -1.0068743094,
				"element": "H" 
			},
			{
				"x": -1.8391566948,
				"y": -3.0322753729,
				"z": 1.5979524793,
				"element": "H" 
			},
			{
				"x": -1.1140598983,
				"y": -1.4184532598,
				"z": 1.6043081086,
				"element": "H" 
			},
			{
				"x": 0.4032527286,
				"y": -0.4237090195,
				"z": 0.31816387,
				"element": "H" 
			},
			{
				"x": 4.6748084141,
				"y": -0.434558545,
				"z": 0.7753807036,
				"element": "H" 
			},
			{
				"x": 4.5899409343,
				"y": -2.8182001256,
				"z": 1.5074852742,
				"element": "H" 
			},
			{
				"x": 2.3987063455,
				"y": -3.9999411669,
				"z": 1.6661868949,
				"element": "H" 
			}
		],
		 "valence_orbital": [ 
			{
				"type": "occ",
				"energy": -0.31611,
				"method": "rhf"
			},
			{
				"type": "occ",
				"energy": -0.26185,
				"method": "rhf"
			},
			{
				"type": "occ",
				"energy": -0.24283,
				"method": "rhf"
			},
			{
				"type": "occ",
				"energy": -0.24033,
				"method": "rhf"
			},
			{
				"type": "occ",
				"energy": -0.21703,
				"method": "rhf"
			},
			{
				"type": "unocc",
				"energy": -0.04086,
				"method": "rhf"
			},
			{
				"type": "unocc",
				"energy": -0.02189,
				"method": "rhf"
			},
			{
				"type": "unocc",
				"energy": -0.01087,
				"method": "rhf"
			},
			{
				"type": "unocc",
				"energy": 0.02354,
				"method": "rhf"
			},
			{
				"type": "unocc",
				"energy": 0.06503,
				"method": "rhf"
			}
		],
		"cosmo_sigma_profile": { 
			"-0.025": 0.0,
			"-0.024": 0.0,
			"-0.023": 0.0,
			"-0.022": 0.0,
			"-0.021": 0.0,
			"-0.02": 0.0,
			"-0.019": 0.0,
			"-0.018": 0.0,
			"-0.017": 0.0,
			"-0.016": 0.371231518933,
			"-0.015": 1.56854333101,
			"-0.014": 2.23488852806,
			"-0.013": 2.14940851572,
			"-0.012": 1.72601468872,
			"-0.011": 2.2835876731,
			"-0.01": 1.73576098098,
			"-0.009": 2.38442243158,
			"-0.008": 4.74983152326,
			"-0.007": 9.66753659689,
			"-0.006": 12.039291026,
			"-0.005": 13.601860715,
			"-0.004": 11.7720400056,
			"-0.003": 9.65684174272,
			"-0.002": 10.7775565582,
			"-0.001": 10.8552199509,
			"0.0": 12.4870912335,
			"0.001": 16.0305566731,
			"0.002": 19.3434320339,
			"0.003": 20.106240881,
			"0.004": 20.0714046643,
			"0.005": 10.8711203071,
			"0.006": 3.29630091231,
			"0.007": 6.05443560442,
			"0.008": 6.77244609602,
			"0.009": 5.80580938693,
			"0.01": 4.05131708728,
			"0.011": 4.03356006699,
			"0.012": 1.5881469501,
			"0.013": 0.0482157453919,
			"0.014": 0.0,
			"0.015": 0.0,
			"0.016": 0.0,
			"0.017": 0.0,
			"0.018": 0.0,
			"0.019": 0.0,
			"0.02": 0.0,
			"0.021": 0.0,
			"0.022": 0.0,
			"0.023": 0.0,
			"0.024": 0.0,
			"0.025": 0.0
		}
	}
}
