{
	 "smiles": "CCN(CC)CC(=O)NC1=C(C#N)C2=C(CCCC2)S1", 
	 "Tm": 443.15, 
	 "num_atms": 41, 
	 "gaussian": { 
		 "optdone": 1, 
		 "sigma_profile": "yes", 
		 "theory": "DFT", 
		 "functional": "B3LYP", 
		 "basiset": "6-31G**", 
		 "properties": { 
			 "R2extent": 9190.6505, 
			 "electric_dipole_moment_norm": 6.50713388444, 
			 "electric_quadrupole_moment_norm": 28.7699804378, 
			 "total_energy": -1221.90748499, 
			 "HOMO_LUMO_gap": 0.15759, 
			 "cosmo_polarized_energy": -15.52, 
			 "cosmo_cavitation_energy": 43.89, 
			 "cosmo_dispersion_energy": -30.74, 
			 "cosmo_repulsion_energy": 2.36, 
			 "cosmo_total_nonelectrostatic_energy": 15.51, 
			 "SMD_solvation_energy": 6.77 
		},
		"coords": [
			{
				"x": 1.8123561158,
				"y": -3.3944605414,
				"z": 1.514034011,
				"element": "C" 
			},
			{
				"x": 0.4050195271,
				"y": -3.9444441889,
				"z": 1.2123628412,
				"element": "C" 
			},
			{
				"x": -0.7318092115,
				"y": -3.0406466929,
				"z": 1.3497710916,
				"element": "N" 
			},
			{
				"x": -1.2820926057,
				"y": -2.8124347295,
				"z": 2.6858373893,
				"element": "C" 
			},
			{
				"x": -0.5529184697,
				"y": -1.8125252051,
				"z": 3.6033833126,
				"element": "C" 
			},
			{
				"x": -0.756048771,
				"y": -1.9266471511,
				"z": 0.4384480139,
				"element": "C" 
			},
			{
				"x": -2.1669471152,
				"y": -1.5764959779,
				"z": -0.0410488163,
				"element": "C" 
			},
			{
				"x": -3.1789009112,
				"y": -2.1393325541,
				"z": 0.3322729547,
				"element": "O" 
			},
			{
				"x": -2.3029036819,
				"y": -0.5230594894,
				"z": -0.9559585685,
				"element": "N" 
			},
			{
				"x": -1.4291043664,
				"y": 0.2972651158,
				"z": -1.6451295562,
				"element": "C" 
			},
			{
				"x": -1.8313869842,
				"y": 1.2025111736,
				"z": -2.620544457,
				"element": "C" 
			},
			{
				"x": -3.1930024234,
				"y": 1.3373521943,
				"z": -2.9998776346,
				"element": "C" 
			},
			{
				"x": -4.3193829017,
				"y": 1.4242829803,
				"z": -3.2889271976,
				"element": "N" 
			},
			{
				"x": -0.7427894564,
				"y": 1.962657335,
				"z": -3.186286559,
				"element": "C" 
			},
			{
				"x": 0.4615984982,
				"y": 1.6360888371,
				"z": -2.6405516918,
				"element": "C" 
			},
			{
				"x": 1.790398291,
				"y": 2.2295543878,
				"z": -3.0194536686,
				"element": "C" 
			},
			{
				"x": 1.5675572175,
				"y": 3.5269585571,
				"z": -3.8220485573,
				"element": "C" 
			},
			{
				"x": 0.4777765654,
				"y": 3.348765902,
				"z": -4.8902727337,
				"element": "C" 
			},
			{
				"x": -0.8848663281,
				"y": 3.0133374385,
				"z": -4.2588227596,
				"element": "C" 
			},
			{
				"x": 0.3016106503,
				"y": 0.3857392406,
				"z": -1.4142584806,
				"element": "S" 
			},
			{
				"x": 2.0429305522,
				"y": -2.5199050986,
				"z": 0.8953959586,
				"element": "H" 
			},
			{
				"x": 2.5669261888,
				"y": -4.1588917727,
				"z": 1.2958531434,
				"element": "H" 
			},
			{
				"x": 1.9257822983,
				"y": -3.1034768857,
				"z": 2.5617289453,
				"element": "H" 
			},
			{
				"x": 0.2089882958,
				"y": -4.8081174971,
				"z": 1.8586710134,
				"element": "H" 
			},
			{
				"x": 0.3988430521,
				"y": -4.3290757872,
				"z": 0.1825891759,
				"element": "H" 
			},
			{
				"x": -1.3281875039,
				"y": -3.7890175635,
				"z": 3.181943143,
				"element": "H" 
			},
			{
				"x": -2.3188964393,
				"y": -2.4884785757,
				"z": 2.5551538389,
				"element": "H" 
			},
			{
				"x": -0.4603249109,
				"y": -0.8236248996,
				"z": 3.1406224446,
				"element": "H" 
			},
			{
				"x": -1.1228913897,
				"y": -1.681420919,
				"z": 4.5299795469,
				"element": "H" 
			},
			{
				"x": 0.4509344223,
				"y": -2.1500390402,
				"z": 3.8760005613,
				"element": "H" 
			},
			{
				"x": -0.3016992693,
				"y": -0.9989775375,
				"z": 0.8366231073,
				"element": "H" 
			},
			{
				"x": -0.1638226904,
				"y": -2.1846817057,
				"z": -0.4482550454,
				"element": "H" 
			},
			{
				"x": -3.2806882137,
				"y": -0.390569675,
				"z": -1.2025726698,
				"element": "H" 
			},
			{
				"x": 2.3655244077,
				"y": 1.5121579247,
				"z": -3.6225423447,
				"element": "H" 
			},
			{
				"x": 2.3962134372,
				"y": 2.4368558201,
				"z": -2.1289364811,
				"element": "H" 
			},
			{
				"x": 1.2733144102,
				"y": 4.3298793383,
				"z": -3.134157286,
				"element": "H" 
			},
			{
				"x": 2.511281854,
				"y": 3.8345427846,
				"z": -4.2850478609,
				"element": "H" 
			},
			{
				"x": 0.7704583685,
				"y": 2.5398596367,
				"z": -5.5723632529,
				"element": "H" 
			},
			{
				"x": 0.3892789106,
				"y": 4.2561325894,
				"z": -5.4969783547,
				"element": "H" 
			},
			{
				"x": -1.5912176963,
				"y": 2.6740582523,
				"z": -5.0255135107,
				"element": "H" 
			},
			{
				"x": -1.3297117232,
				"y": 3.9182239794,
				"z": -3.821023006,
				"element": "H" 
			}
		],
		 "valence_orbital": [ 
			{
				"type": "occ",
				"energy": -0.31248,
				"method": "rhf"
			},
			{
				"type": "occ",
				"energy": -0.27129,
				"method": "rhf"
			},
			{
				"type": "occ",
				"energy": -0.26264,
				"method": "rhf"
			},
			{
				"type": "occ",
				"energy": -0.21787,
				"method": "rhf"
			},
			{
				"type": "occ",
				"energy": -0.20424,
				"method": "rhf"
			},
			{
				"type": "unocc",
				"energy": -0.04665,
				"method": "rhf"
			},
			{
				"type": "unocc",
				"energy": -0.00605,
				"method": "rhf"
			},
			{
				"type": "unocc",
				"energy": 0.00888,
				"method": "rhf"
			},
			{
				"type": "unocc",
				"energy": 0.01946,
				"method": "rhf"
			},
			{
				"type": "unocc",
				"energy": 0.03449,
				"method": "rhf"
			}
		],
		"cosmo_sigma_profile": { 
			"-0.025": 0.0,
			"-0.024": 0.0,
			"-0.023": 0.0,
			"-0.022": 0.0,
			"-0.021": 0.0,
			"-0.02": 0.0,
			"-0.019": 0.0,
			"-0.018": 0.0,
			"-0.017": 0.0,
			"-0.016": 0.0,
			"-0.015": 0.0,
			"-0.014": 0.0,
			"-0.013": 0.0,
			"-0.012": 0.272157189831,
			"-0.011": 1.28318748366,
			"-0.01": 1.09084261387,
			"-0.009": 2.01643163345,
			"-0.008": 1.94010261692,
			"-0.007": 3.69387808052,
			"-0.006": 4.77383162239,
			"-0.005": 10.2188729911,
			"-0.004": 23.6328650287,
			"-0.003": 46.7309961643,
			"-0.002": 51.3002669235,
			"-0.001": 51.3280223486,
			"0.0": 40.8614396237,
			"0.001": 31.0460288392,
			"0.002": 18.7074446667,
			"0.003": 8.85403737021,
			"0.004": 3.12431374282,
			"0.005": 3.69436414687,
			"0.006": 4.760904787,
			"0.007": 3.10402489896,
			"0.008": 4.55240704913,
			"0.009": 5.05713337442,
			"0.01": 4.83670498045,
			"0.011": 5.31895841217,
			"0.012": 7.78426287422,
			"0.013": 4.06731249283,
			"0.014": 1.05135315819,
			"0.015": 0.787997095252,
			"0.016": 0.729615421872,
			"0.017": 0.0639045842252,
			"0.018": 0.0,
			"0.019": 0.0,
			"0.02": 0.0,
			"0.021": 0.0,
			"0.022": 0.0,
			"0.023": 0.0,
			"0.024": 0.0,
			"0.025": 0.0
		}
	}
}
