{
	 "smiles": "C[C@@H]1CCC[C@@H](C)C1", 
	 "Tm": 183.05, 
	 "num_atms": 24, 
	 "gaussian": { 
		 "optdone": 1, 
		 "sigma_profile": "yes", 
		 "theory": "DFT", 
		 "functional": "B3LYP", 
		 "basiset": "6-31G**", 
		 "properties": { 
			 "R2extent": 1423.9136, 
			 "electric_dipole_moment_norm": 0.0288591406663, 
			 "electric_quadrupole_moment_norm": 0.364828932515, 
			 "total_energy": -314.509774143, 
			 "HOMO_LUMO_gap": 0.35432, 
			 "cosmo_polarized_energy": -0.58, 
			 "cosmo_cavitation_energy": 22.73, 
			 "cosmo_dispersion_energy": -17.17, 
			 "cosmo_repulsion_energy": 1.41, 
			 "cosmo_total_nonelectrostatic_energy": 6.97, 
			 "SMD_solvation_energy": 3.29 
		},
		"coords": [
			{
				"x": -0.9360951454,
				"y": -1.9072031179,
				"z": -0.7242547686,
				"element": "C" 
			},
			{
				"x": -0.1699362255,
				"y": -0.8757364752,
				"z": -1.5714368794,
				"element": "C" 
			},
			{
				"x": 1.2459708774,
				"y": -1.3617833161,
				"z": -1.9333381017,
				"element": "C" 
			},
			{
				"x": 2.1959916853,
				"y": -1.4467753431,
				"z": -0.7142370743,
				"element": "C" 
			},
			{
				"x": 1.8543665056,
				"y": -0.4268024472,
				"z": 0.3990451027,
				"element": "C" 
			},
			{
				"x": 1.1964891124,
				"y": 0.8603457891,
				"z": -0.132572208,
				"element": "C" 
			},
			{
				"x": 2.1759688221,
				"y": 1.7098152113,
				"z": -0.9617914798,
				"element": "C" 
			},
			{
				"x": -0.1170594127,
				"y": 0.5314803838,
				"z": -0.9039456341,
				"element": "C" 
			},
			{
				"x": -0.9925334813,
				"y": -2.8722366636,
				"z": -1.2410947991,
				"element": "H" 
			},
			{
				"x": -1.9616033566,
				"y": -1.5708062276,
				"z": -0.5350559509,
				"element": "H" 
			},
			{
				"x": -0.465147252,
				"y": -2.0818608173,
				"z": 0.2484149981,
				"element": "H" 
			},
			{
				"x": -0.7287784128,
				"y": -0.7724446303,
				"z": -2.5110239543,
				"element": "H" 
			},
			{
				"x": 1.6643051503,
				"y": -0.6722765381,
				"z": -2.6764824928,
				"element": "H" 
			},
			{
				"x": 1.1889576517,
				"y": -2.3378351578,
				"z": -2.4305445249,
				"element": "H" 
			},
			{
				"x": 3.2255995631,
				"y": -1.2962343921,
				"z": -1.0583418492,
				"element": "H" 
			},
			{
				"x": 2.170199972,
				"y": -2.456012086,
				"z": -0.2876986261,
				"element": "H" 
			},
			{
				"x": 2.7594493855,
				"y": -0.1757906328,
				"z": 0.9655633798,
				"element": "H" 
			},
			{
				"x": 1.1689846952,
				"y": -0.8877820472,
				"z": 1.1203906255,
				"element": "H" 
			},
			{
				"x": 0.9215823157,
				"y": 1.4693867702,
				"z": 0.7387954483,
				"element": "H" 
			},
			{
				"x": 1.7079329206,
				"y": 2.6500758595,
				"z": -1.2740081934,
				"element": "H" 
			},
			{
				"x": 3.0678757675,
				"y": 1.9605677362,
				"z": -0.3759433103,
				"element": "H" 
			},
			{
				"x": 2.5113911404,
				"y": 1.1954131785,
				"z": -1.8679973486,
				"element": "H" 
			},
			{
				"x": -0.2703090287,
				"y": 1.2993569457,
				"z": -1.6720484159,
				"element": "H" 
			},
			{
				"x": -0.9686032497,
				"y": 0.623138018,
				"z": -0.218693943,
				"element": "H" 
			}
		],
		 "valence_orbital": [ 
			{
				"type": "occ",
				"energy": -0.32587,
				"method": "rhf"
			},
			{
				"type": "occ",
				"energy": -0.3236,
				"method": "rhf"
			},
			{
				"type": "occ",
				"energy": -0.29228,
				"method": "rhf"
			},
			{
				"type": "occ",
				"energy": -0.28394,
				"method": "rhf"
			},
			{
				"type": "occ",
				"energy": -0.28344,
				"method": "rhf"
			},
			{
				"type": "unocc",
				"energy": 0.07088,
				"method": "rhf"
			},
			{
				"type": "unocc",
				"energy": 0.10184,
				"method": "rhf"
			},
			{
				"type": "unocc",
				"energy": 0.12304,
				"method": "rhf"
			},
			{
				"type": "unocc",
				"energy": 0.1259,
				"method": "rhf"
			},
			{
				"type": "unocc",
				"energy": 0.134,
				"method": "rhf"
			}
		],
		"cosmo_sigma_profile": { 
			"-0.025": 0.0,
			"-0.024": 0.0,
			"-0.023": 0.0,
			"-0.022": 0.0,
			"-0.021": 0.0,
			"-0.02": 0.0,
			"-0.019": 0.0,
			"-0.018": 0.0,
			"-0.017": 0.0,
			"-0.016": 0.0,
			"-0.015": 0.0,
			"-0.014": 0.0,
			"-0.013": 0.0,
			"-0.012": 0.0,
			"-0.011": 0.0,
			"-0.01": 0.0,
			"-0.009": 0.0,
			"-0.008": 0.0,
			"-0.007": 0.0,
			"-0.006": 0.0,
			"-0.005": 0.0,
			"-0.004": 0.0,
			"-0.003": 3.17992475979,
			"-0.002": 21.6746867885,
			"-0.001": 38.7804751494,
			"0.0": 45.3335257549,
			"0.001": 38.725088931,
			"0.002": 24.6855959748,
			"0.003": 1.24189999669,
			"0.004": 0.0,
			"0.005": 0.0,
			"0.006": 0.0,
			"0.007": 0.0,
			"0.008": 0.0,
			"0.009": 0.0,
			"0.01": 0.0,
			"0.011": 0.0,
			"0.012": 0.0,
			"0.013": 0.0,
			"0.014": 0.0,
			"0.015": 0.0,
			"0.016": 0.0,
			"0.017": 0.0,
			"0.018": 0.0,
			"0.019": 0.0,
			"0.02": 0.0,
			"0.021": 0.0,
			"0.022": 0.0,
			"0.023": 0.0,
			"0.024": 0.0,
			"0.025": 0.0
		}
	}
}
