{
	 "smiles": "COC1=CC(C=O)=C(C=C1OC)[N+]([O-])=O", 
	 "Tm": 406.15, 
	 "num_atms": 24, 
	 "gaussian": { 
		 "optdone": 1, 
		 "sigma_profile": "yes", 
		 "theory": "DFT", 
		 "functional": "B3LYP", 
		 "basiset": "6-31G**", 
		 "properties": { 
			 "R2extent": 3916.9364, 
			 "electric_dipole_moment_norm": 6.14529375457, 
			 "electric_quadrupole_moment_norm": 8.33689188307, 
			 "total_energy": -779.104155875, 
			 "HOMO_LUMO_gap": 0.1499, 
			 "cosmo_polarized_energy": -12.5, 
			 "cosmo_cavitation_energy": 29.29, 
			 "cosmo_dispersion_energy": -21.02, 
			 "cosmo_repulsion_energy": 1.65, 
			 "cosmo_total_nonelectrostatic_energy": 9.91, 
			 "SMD_solvation_energy": 9.96 
		},
		"coords": [
			{
				"x": -1.8722374673,
				"y": 1.5257661532,
				"z": 1.1485063258,
				"element": "C" 
			},
			{
				"x": -1.7125685111,
				"y": 0.7839024926,
				"z": -0.059774086,
				"element": "O" 
			},
			{
				"x": -0.6500342758,
				"y": -0.0491093417,
				"z": -0.1700757744,
				"element": "C" 
			},
			{
				"x": 0.2918864941,
				"y": -0.2625924207,
				"z": 0.8347303511,
				"element": "C" 
			},
			{
				"x": 1.4066948363,
				"y": -1.0929756951,
				"z": 0.6523011797,
				"element": "C" 
			},
			{
				"x": 2.2847085069,
				"y": -1.2779752928,
				"z": 1.8543465925,
				"element": "C" 
			},
			{
				"x": 2.124720542,
				"y": -0.6194872974,
				"z": 2.8661574115,
				"element": "O" 
			},
			{
				"x": 1.5483160679,
				"y": -1.7228782118,
				"z": -0.5963982373,
				"element": "C" 
			},
			{
				"x": 0.5938479888,
				"y": -1.557437475,
				"z": -1.6003396964,
				"element": "C" 
			},
			{
				"x": -0.5067461194,
				"y": -0.7306480495,
				"z": -1.408016098,
				"element": "C" 
			},
			{
				"x": -1.3555769113,
				"y": -0.5495704989,
				"z": -2.4558215689,
				"element": "O" 
			},
			{
				"x": -2.7415523914,
				"y": -0.8688775578,
				"z": -2.2614114994,
				"element": "C" 
			},
			{
				"x": 2.7028533578,
				"y": -2.5676856934,
				"z": -0.9286600289,
				"element": "N" 
			},
			{
				"x": 3.7402054531,
				"y": -2.4145521986,
				"z": -0.2788861479,
				"element": "O" 
			},
			{
				"x": 2.5747076078,
				"y": -3.3695299432,
				"z": -1.8528485454,
				"element": "O" 
			},
			{
				"x": -2.0249349972,
				"y": 0.8623372609,
				"z": 2.0074371838,
				"element": "H" 
			},
			{
				"x": -1.0058889234,
				"y": 2.170141574,
				"z": 1.3347160069,
				"element": "H" 
			},
			{
				"x": -2.759752217,
				"y": 2.1413914741,
				"z": 1.0014092869,
				"element": "H" 
			},
			{
				"x": 0.2054498098,
				"y": 0.2135984567,
				"z": 1.8038054691,
				"element": "H" 
			},
			{
				"x": 3.061124223,
				"y": -2.0519082978,
				"z": 1.7895933516,
				"element": "H" 
			},
			{
				"x": 0.7132240276,
				"y": -2.0635824311,
				"z": -2.549328837,
				"element": "H" 
			},
			{
				"x": -3.2072918424,
				"y": -0.7569175634,
				"z": -3.2414718338,
				"element": "H" 
			},
			{
				"x": -2.8533721938,
				"y": -1.9062992391,
				"z": -1.9243285941,
				"element": "H" 
			},
			{
				"x": -3.2142830652,
				"y": -0.1939102041,
				"z": -1.5453422115,
				"element": "H" 
			}
		],
		 "valence_orbital": [ 
			{
				"type": "occ",
				"energy": -0.3069,
				"method": "rhf"
			},
			{
				"type": "occ",
				"energy": -0.29774,
				"method": "rhf"
			},
			{
				"type": "occ",
				"energy": -0.27256,
				"method": "rhf"
			},
			{
				"type": "occ",
				"energy": -0.26334,
				"method": "rhf"
			},
			{
				"type": "occ",
				"energy": -0.24859,
				"method": "rhf"
			},
			{
				"type": "unocc",
				"energy": -0.09869,
				"method": "rhf"
			},
			{
				"type": "unocc",
				"energy": -0.06242,
				"method": "rhf"
			},
			{
				"type": "unocc",
				"energy": -0.0076,
				"method": "rhf"
			},
			{
				"type": "unocc",
				"energy": 0.02535,
				"method": "rhf"
			},
			{
				"type": "unocc",
				"energy": 0.0697,
				"method": "rhf"
			}
		],
		"cosmo_sigma_profile": { 
			"-0.025": 0.0,
			"-0.024": 0.0,
			"-0.023": 0.0,
			"-0.022": 0.0,
			"-0.021": 0.0,
			"-0.02": 0.0,
			"-0.019": 0.0,
			"-0.018": 0.0,
			"-0.017": 0.0,
			"-0.016": 0.0,
			"-0.015": 0.0,
			"-0.014": 0.0,
			"-0.013": 0.0,
			"-0.012": 0.0,
			"-0.011": 0.0,
			"-0.01": 0.118987352633,
			"-0.009": 0.902844510397,
			"-0.008": 1.37169782729,
			"-0.007": 10.424074976,
			"-0.006": 17.1549264811,
			"-0.005": 17.6330098975,
			"-0.004": 22.5748668719,
			"-0.003": 20.6528201276,
			"-0.002": 18.4118565903,
			"-0.001": 21.6870379788,
			"0.0": 16.2989747465,
			"0.001": 11.5721537645,
			"0.002": 8.636896242,
			"0.003": 6.37212993063,
			"0.004": 6.62374861575,
			"0.005": 6.21330012909,
			"0.006": 8.41644343764,
			"0.007": 11.2996340682,
			"0.008": 8.92488162858,
			"0.009": 8.42609909106,
			"0.01": 5.94188178797,
			"0.011": 3.5127739232,
			"0.012": 1.1228622272,
			"0.013": 0.074751392155,
			"0.014": 0.0,
			"0.015": 0.0,
			"0.016": 0.0,
			"0.017": 0.0,
			"0.018": 0.0,
			"0.019": 0.0,
			"0.02": 0.0,
			"0.021": 0.0,
			"0.022": 0.0,
			"0.023": 0.0,
			"0.024": 0.0,
			"0.025": 0.0
		}
	}
}
