{
	 "smiles": "CNCC1=NN=NN1", 
	 "Tm": 498.15, 
	 "num_atms": 15, 
	 "gaussian": { 
		 "optdone": 1, 
		 "sigma_profile": "yes", 
		 "theory": "DFT", 
		 "functional": "B3LYP", 
		 "basiset": "6-31G**", 
		 "properties": { 
			 "R2extent": 1450.2364, 
			 "electric_dipole_moment_norm": 4.56936907461, 
			 "electric_quadrupole_moment_norm": 16.5774208241, 
			 "total_energy": -392.227336936, 
			 "HOMO_LUMO_gap": 0.22292, 
			 "cosmo_polarized_energy": -18.51, 
			 "cosmo_cavitation_energy": 19.04, 
			 "cosmo_dispersion_energy": -14.18, 
			 "cosmo_repulsion_energy": 1.2, 
			 "cosmo_total_nonelectrostatic_energy": 6.06, 
			 "SMD_solvation_energy": -0.59 
		},
		"coords": [
			{
				"x": -0.624618679,
				"y": 2.611375097,
				"z": 1.2421102083,
				"element": "C" 
			},
			{
				"x": -1.0415596341,
				"y": 1.2911804657,
				"z": 0.7686472676,
				"element": "N" 
			},
			{
				"x": -0.1326820011,
				"y": 0.6914136371,
				"z": -0.1907806941,
				"element": "C" 
			},
			{
				"x": 1.2280849485,
				"y": 0.32415232,
				"z": 0.3588873773,
				"element": "C" 
			},
			{
				"x": 1.4891281412,
				"y": -0.016481341,
				"z": 1.6070573577,
				"element": "N" 
			},
			{
				"x": 2.8220555778,
				"y": -0.3016984701,
				"z": 1.6588799856,
				"element": "N" 
			},
			{
				"x": 3.3778770068,
				"y": -0.1516267851,
				"z": 0.5045379139,
				"element": "N" 
			},
			{
				"x": 2.38637226,
				"y": 0.2460261003,
				"z": -0.3322091102,
				"element": "N" 
			},
			{
				"x": 0.3685393024,
				"y": 2.6340650282,
				"z": 1.7172314149,
				"element": "H" 
			},
			{
				"x": -0.6197755495,
				"y": 3.3122266666,
				"z": 0.3992526171,
				"element": "H" 
			},
			{
				"x": -1.3577005466,
				"y": 2.9743482051,
				"z": 1.9675868117,
				"element": "H" 
			},
			{
				"x": -1.133232183,
				"y": 0.663208459,
				"z": 1.5632209761,
				"element": "H" 
			},
			{
				"x": -0.595191855,
				"y": -0.2203608656,
				"z": -0.5910390605,
				"element": "H" 
			},
			{
				"x": -0.0083893113,
				"y": 1.3755116825,
				"z": -1.0398574746,
				"element": "H" 
			},
			{
				"x": 2.5881925229,
				"y": 0.4337598003,
				"z": -1.3037255908,
				"element": "H" 
			}
		],
		 "valence_orbital": [ 
			{
				"type": "occ",
				"energy": -0.32726,
				"method": "rhf"
			},
			{
				"type": "occ",
				"energy": -0.29945,
				"method": "rhf"
			},
			{
				"type": "occ",
				"energy": -0.29646,
				"method": "rhf"
			},
			{
				"type": "occ",
				"energy": -0.28618,
				"method": "rhf"
			},
			{
				"type": "occ",
				"energy": -0.24002,
				"method": "rhf"
			},
			{
				"type": "unocc",
				"energy": -0.0171,
				"method": "rhf"
			},
			{
				"type": "unocc",
				"energy": 0.01874,
				"method": "rhf"
			},
			{
				"type": "unocc",
				"energy": 0.05595,
				"method": "rhf"
			},
			{
				"type": "unocc",
				"energy": 0.08246,
				"method": "rhf"
			},
			{
				"type": "unocc",
				"energy": 0.11729,
				"method": "rhf"
			}
		],
		"cosmo_sigma_profile": { 
			"-0.025": 0.0,
			"-0.024": 0.0,
			"-0.023": 0.0,
			"-0.022": 0.0,
			"-0.021": 0.0,
			"-0.02": 0.0,
			"-0.019": 0.986971328152,
			"-0.018": 1.96966098282,
			"-0.017": 1.32489648195,
			"-0.016": 1.87852826138,
			"-0.015": 1.00203402248,
			"-0.014": 0.886969975307,
			"-0.013": 1.12163664049,
			"-0.012": 1.1063573401,
			"-0.011": 1.25733898406,
			"-0.01": 1.81374285258,
			"-0.009": 2.367781834,
			"-0.008": 2.56157076677,
			"-0.007": 6.12934595382,
			"-0.006": 7.75447092486,
			"-0.005": 6.80470230134,
			"-0.004": 9.78398107816,
			"-0.003": 11.9513081549,
			"-0.002": 10.7804332634,
			"-0.001": 11.1764422021,
			"0.0": 8.35056403584,
			"0.001": 4.13937447004,
			"0.002": 3.57916675633,
			"0.003": 4.18569586006,
			"0.004": 3.7895316295,
			"0.005": 3.44943874436,
			"0.006": 3.1690349322,
			"0.007": 3.48401159662,
			"0.008": 5.23242612989,
			"0.009": 5.86853916217,
			"0.01": 5.33651430108,
			"0.011": 5.50659377763,
			"0.012": 4.25763587245,
			"0.013": 3.21401810515,
			"0.014": 2.16642349091,
			"0.015": 0.881509430807,
			"0.016": 0.74938622992,
			"0.017": 0.340275123655,
			"0.018": 0.0595862896511,
			"0.019": 0.0,
			"0.02": 0.0,
			"0.021": 0.0,
			"0.022": 0.0,
			"0.023": 0.0,
			"0.024": 0.0,
			"0.025": 0.0
		}
	}
}
