{
	 "smiles": "ClC1=CC=C(C=C1)C1=CC=C(O1)C=CC(=O)C1=CC=CO1", 
	 "Tm": 421.15, 
	 "num_atms": 32, 
	 "gaussian": { 
		 "optdone": 1, 
		 "sigma_profile": "yes", 
		 "theory": "DFT", 
		 "functional": "B3LYP", 
		 "basiset": "6-31G**", 
		 "properties": { 
			 "R2extent": 7861.5953, 
			 "electric_dipole_moment_norm": 4.23223157684, 
			 "electric_quadrupole_moment_norm": 14.0949249175, 
			 "total_energy": -1340.2419153, 
			 "HOMO_LUMO_gap": 0.12991, 
			 "cosmo_polarized_energy": -13.86, 
			 "cosmo_cavitation_energy": 39.98, 
			 "cosmo_dispersion_energy": -26.86, 
			 "cosmo_repulsion_energy": 2.05, 
			 "cosmo_total_nonelectrostatic_energy": 15.17, 
			 "SMD_solvation_energy": 8.09 
		},
		"coords": [
			{
				"x": 6.3572606752,
				"y": 0.4512195699,
				"z": 1.1954919554,
				"element": "Cl" 
			},
			{
				"x": 4.6373434949,
				"y": 0.7996855302,
				"z": 1.2688360955,
				"element": "C" 
			},
			{
				"x": 4.106831369,
				"y": 1.4047402283,
				"z": 2.4095855072,
				"element": "C" 
			},
			{
				"x": 2.7447837603,
				"y": 1.6785447816,
				"z": 2.4632377979,
				"element": "C" 
			},
			{
				"x": 1.896402284,
				"y": 1.3537609344,
				"z": 1.388375847,
				"element": "C" 
			},
			{
				"x": 2.4568242673,
				"y": 0.7439847061,
				"z": 0.2512711332,
				"element": "C" 
			},
			{
				"x": 3.8197626947,
				"y": 0.4684046418,
				"z": 0.188733081,
				"element": "C" 
			},
			{
				"x": 0.4723468677,
				"y": 1.6436565431,
				"z": 1.458380099,
				"element": "C" 
			},
			{
				"x": -0.3340285977,
				"y": 2.1909392333,
				"z": 2.4316566252,
				"element": "C" 
			},
			{
				"x": -1.647020011,
				"y": 2.2287195455,
				"z": 1.8985385041,
				"element": "C" 
			},
			{
				"x": -1.5821777674,
				"y": 1.6927564906,
				"z": 0.630728886,
				"element": "C" 
			},
			{
				"x": -0.2863369918,
				"y": 1.34281516,
				"z": 0.3615811805,
				"element": "O" 
			},
			{
				"x": -2.6125648868,
				"y": 1.5288979569,
				"z": -0.3582969129,
				"element": "C" 
			},
			{
				"x": -2.5939066049,
				"y": 0.9327284985,
				"z": -1.5712094406,
				"element": "C" 
			},
			{
				"x": -1.5078665611,
				"y": 0.1926913607,
				"z": -2.2723144943,
				"element": "C" 
			},
			{
				"x": -1.2680134687,
				"y": 0.4345550122,
				"z": -3.4535947409,
				"element": "O" 
			},
			{
				"x": -0.7897333571,
				"y": -0.9017119976,
				"z": -1.6057785262,
				"element": "C" 
			},
			{
				"x": 0.2485272738,
				"y": -1.6793806571,
				"z": -2.056430941,
				"element": "C" 
			},
			{
				"x": 0.5297521341,
				"y": -2.6190849759,
				"z": -1.0241039431,
				"element": "C" 
			},
			{
				"x": -0.3628482083,
				"y": -2.3543687299,
				"z": -0.0222771862,
				"element": "C" 
			},
			{
				"x": -1.1717700698,
				"y": -1.3220867948,
				"z": -0.3578706229,
				"element": "O" 
			},
			{
				"x": 4.7542667148,
				"y": 1.6585616292,
				"z": 3.2414940755,
				"element": "H" 
			},
			{
				"x": 2.3391911312,
				"y": 2.152980406,
				"z": 3.3512377027,
				"element": "H" 
			},
			{
				"x": 1.8191499656,
				"y": 0.4823803068,
				"z": -0.5853856217,
				"element": "H" 
			},
			{
				"x": 4.2457376157,
				"y": -0.0009441137,
				"z": -0.6910794246,
				"element": "H" 
			},
			{
				"x": -0.0216310368,
				"y": 2.528184635,
				"z": 3.4089141038,
				"element": "H" 
			},
			{
				"x": -2.539563209,
				"y": 2.5997470092,
				"z": 2.3821815451,
				"element": "H" 
			},
			{
				"x": -3.5367503398,
				"y": 2.0287626204,
				"z": -0.074078197,
				"element": "H" 
			},
			{
				"x": -3.4654567195,
				"y": 1.0718462127,
				"z": -2.2060725034,
				"element": "H" 
			},
			{
				"x": 0.731227135,
				"y": -1.574393067,
				"z": -3.0165969925,
				"element": "H" 
			},
			{
				"x": 1.2859350173,
				"y": -3.3907157658,
				"z": -1.0221279126,
				"element": "H" 
			},
			{
				"x": -0.5420745709,
				"y": -2.7994769107,
				"z": 0.9446733208,
				"element": "H" 
			}
		],
		 "valence_orbital": [ 
			{
				"type": "occ",
				"energy": -0.26895,
				"method": "rhf"
			},
			{
				"type": "occ",
				"energy": -0.26465,
				"method": "rhf"
			},
			{
				"type": "occ",
				"energy": -0.24997,
				"method": "rhf"
			},
			{
				"type": "occ",
				"energy": -0.23779,
				"method": "rhf"
			},
			{
				"type": "occ",
				"energy": -0.20531,
				"method": "rhf"
			},
			{
				"type": "unocc",
				"energy": -0.0754,
				"method": "rhf"
			},
			{
				"type": "unocc",
				"energy": -0.04281,
				"method": "rhf"
			},
			{
				"type": "unocc",
				"energy": -0.01902,
				"method": "rhf"
			},
			{
				"type": "unocc",
				"energy": -0.00932,
				"method": "rhf"
			},
			{
				"type": "unocc",
				"energy": 0.02715,
				"method": "rhf"
			}
		],
		"cosmo_sigma_profile": { 
			"-0.025": 0.0,
			"-0.024": 0.0,
			"-0.023": 0.0,
			"-0.022": 0.0,
			"-0.021": 0.0,
			"-0.02": 0.0,
			"-0.019": 0.0,
			"-0.018": 0.0,
			"-0.017": 0.0,
			"-0.016": 0.0,
			"-0.015": 0.0,
			"-0.014": 0.0,
			"-0.013": 0.0,
			"-0.012": 0.0,
			"-0.011": 0.0,
			"-0.01": 0.995456880945,
			"-0.009": 2.80488607682,
			"-0.008": 10.1819389922,
			"-0.007": 17.7565874754,
			"-0.006": 17.1277585604,
			"-0.005": 17.4960784614,
			"-0.004": 14.933716353,
			"-0.003": 17.3248240584,
			"-0.002": 15.5371347256,
			"-0.001": 19.7118946695,
			"0.0": 20.2698332268,
			"0.001": 39.0914697553,
			"0.002": 40.785182362,
			"0.003": 36.2374249292,
			"0.004": 22.5605763537,
			"0.005": 9.3814584709,
			"0.006": 3.51429814484,
			"0.007": 3.47377688063,
			"0.008": 1.77297306958,
			"0.009": 1.41242648657,
			"0.01": 1.97859452752,
			"0.011": 2.5413382524,
			"0.012": 4.61480292576,
			"0.013": 3.20940169156,
			"0.014": 0.676353495629,
			"0.015": 0.0,
			"0.016": 0.0,
			"0.017": 0.0,
			"0.018": 0.0,
			"0.019": 0.0,
			"0.02": 0.0,
			"0.021": 0.0,
			"0.022": 0.0,
			"0.023": 0.0,
			"0.024": 0.0,
			"0.025": 0.0
		}
	}
}
