{
	 "smiles": "CC12CCC[C@@]1(O)C1CC[C@@H]3CC(=O)CCC3(C)C1CC2", 
	 "Tm": 413.15, 
	 "num_atms": 51, 
	 "gaussian": { 
		 "optdone": 1, 
		 "sigma_profile": "yes", 
		 "theory": "DFT", 
		 "functional": "B3LYP", 
		 "basiset": "6-31G**", 
		 "properties": { 
			 "R2extent": 7205.4536, 
			 "electric_dipole_moment_norm": 3.56516089399, 
			 "electric_quadrupole_moment_norm": 22.8616322094, 
			 "total_energy": -892.554154458, 
			 "HOMO_LUMO_gap": 0.22394, 
			 "cosmo_polarized_energy": -12.04, 
			 "cosmo_cavitation_energy": 41.94, 
			 "cosmo_dispersion_energy": -30.35, 
			 "cosmo_repulsion_energy": 2.21, 
			 "cosmo_total_nonelectrostatic_energy": 13.8, 
			 "SMD_solvation_energy": 5.99 
		},
		"coords": [
			{
				"x": -1.7601304808,
				"y": 1.5543364009,
				"z": -0.53839869,
				"element": "C" 
			},
			{
				"x": -1.0409804477,
				"y": 0.8747012499,
				"z": -1.7308099835,
				"element": "C" 
			},
			{
				"x": -1.3431327452,
				"y": 1.7283485535,
				"z": -2.9866569208,
				"element": "C" 
			},
			{
				"x": -0.3301662279,
				"y": 2.9124872087,
				"z": -2.8995935717,
				"element": "C" 
			},
			{
				"x": 0.7856158577,
				"y": 2.4692220944,
				"z": -1.9021629546,
				"element": "C" 
			},
			{
				"x": 0.5256367348,
				"y": 0.9697498393,
				"z": -1.7109927713,
				"element": "C" 
			},
			{
				"x": 1.0438752017,
				"y": 0.4194980109,
				"z": -2.9479207544,
				"element": "O" 
			},
			{
				"x": 1.2127141388,
				"y": 0.2091578965,
				"z": -0.5512498004,
				"element": "C" 
			},
			{
				"x": 1.1322318171,
				"y": 0.8940154833,
				"z": 0.8428006101,
				"element": "C" 
			},
			{
				"x": 0.9598941117,
				"y": -0.1060460358,
				"z": 1.995939899,
				"element": "C" 
			},
			{
				"x": 1.8478422615,
				"y": -1.3478942388,
				"z": 1.8310525483,
				"element": "C" 
			},
			{
				"x": 3.3444076277,
				"y": -0.9720750709,
				"z": 1.9462961868,
				"element": "C" 
			},
			{
				"x": 4.2563339953,
				"y": -2.1831582918,
				"z": 1.8593568555,
				"element": "C" 
			},
			{
				"x": 5.233442617,
				"y": -2.3292624802,
				"z": 2.5683744921,
				"element": "O" 
			},
			{
				"x": 3.8469394179,
				"y": -3.2120708883,
				"z": 0.8111656964,
				"element": "C" 
			},
			{
				"x": 2.8009828044,
				"y": -2.6608590719,
				"z": -0.1645387729,
				"element": "C" 
			},
			{
				"x": 1.4938942698,
				"y": -2.1547233152,
				"z": 0.5172734655,
				"element": "C" 
			},
			{
				"x": 0.6605363637,
				"y": -3.3878602952,
				"z": 0.9242395307,
				"element": "C" 
			},
			{
				"x": 0.7267064983,
				"y": -1.2775313993,
				"z": -0.5531414287,
				"element": "C" 
			},
			{
				"x": -0.8196605013,
				"y": -1.3936736499,
				"z": -0.5830194958,
				"element": "C" 
			},
			{
				"x": -1.4496246632,
				"y": -0.6085576156,
				"z": -1.7579898022,
				"element": "C" 
			},
			{
				"x": -1.4644149905,
				"y": 2.5986924579,
				"z": -0.4089692701,
				"element": "H" 
			},
			{
				"x": -1.6116085231,
				"y": 1.0452866823,
				"z": 0.4151759862,
				"element": "H" 
			},
			{
				"x": -2.8378039291,
				"y": 1.5486334237,
				"z": -0.7386568264,
				"element": "H" 
			},
			{
				"x": -2.3834105457,
				"y": 2.0695285793,
				"z": -3.011726184,
				"element": "H" 
			},
			{
				"x": -1.1614934675,
				"y": 1.147013734,
				"z": -3.8935495239,
				"element": "H" 
			},
			{
				"x": -0.8206885342,
				"y": 3.8272094126,
				"z": -2.5519943971,
				"element": "H" 
			},
			{
				"x": 0.0894909698,
				"y": 3.1339821618,
				"z": -3.8836974972,
				"element": "H" 
			},
			{
				"x": 1.791305343,
				"y": 2.6271732582,
				"z": -2.3005523699,
				"element": "H" 
			},
			{
				"x": 0.7160397686,
				"y": 3.0106166048,
				"z": -0.954942355,
				"element": "H" 
			},
			{
				"x": 0.7391163624,
				"y": -0.4907285036,
				"z": -3.0394357806,
				"element": "H" 
			},
			{
				"x": 2.2717839686,
				"y": 0.1812075602,
				"z": -0.8353343557,
				"element": "H" 
			},
			{
				"x": 2.0518661258,
				"y": 1.4697581325,
				"z": 0.9974011104,
				"element": "H" 
			},
			{
				"x": 0.3261579841,
				"y": 1.6270609858,
				"z": 0.8877498814,
				"element": "H" 
			},
			{
				"x": -0.0865075292,
				"y": -0.4271075616,
				"z": 2.06231003,
				"element": "H" 
			},
			{
				"x": 1.1841538487,
				"y": 0.3852902932,
				"z": 2.9506151393,
				"element": "H" 
			},
			{
				"x": 1.6374943112,
				"y": -2.0106348775,
				"z": 2.6807658457,
				"element": "H" 
			},
			{
				"x": 3.6315845294,
				"y": -0.2918053484,
				"z": 1.1321180615,
				"element": "H" 
			},
			{
				"x": 3.5506447909,
				"y": -0.4498749869,
				"z": 2.8853373475,
				"element": "H" 
			},
			{
				"x": 4.7500711163,
				"y": -3.5510941905,
				"z": 0.2923261682,
				"element": "H" 
			},
			{
				"x": 3.4667029274,
				"y": -4.0905014379,
				"z": 1.3498433527,
				"element": "H" 
			},
			{
				"x": 3.2562603248,
				"y": -1.8416308224,
				"z": -0.7348914027,
				"element": "H" 
			},
			{
				"x": 2.5384720883,
				"y": -3.4281909375,
				"z": -0.9027812954,
				"element": "H" 
			},
			{
				"x": -0.244961785,
				"y": -3.1062025066,
				"z": 1.4705324907,
				"element": "H" 
			},
			{
				"x": 0.3585545467,
				"y": -3.9795007795,
				"z": 0.0531150851,
				"element": "H" 
			},
			{
				"x": 1.2400905172,
				"y": -4.0449914377,
				"z": 1.5808200778,
				"element": "H" 
			},
			{
				"x": 1.0516505426,
				"y": -1.6970256701,
				"z": -1.5168228087,
				"element": "H" 
			},
			{
				"x": -1.259817006,
				"y": -1.053249281,
				"z": 0.3598983256,
				"element": "H" 
			},
			{
				"x": -1.1069689426,
				"y": -2.4443511328,
				"z": -0.6831424896,
				"element": "H" 
			},
			{
				"x": -1.1483707917,
				"y": -1.0716001921,
				"z": -2.7089751435,
				"element": "H" 
			},
			{
				"x": -2.5417526722,
				"y": -0.7062680046,
				"z": -1.7219615404,
				"element": "H" 
			}
		],
		 "valence_orbital": [ 
			{
				"type": "occ",
				"energy": -0.29553,
				"method": "rhf"
			},
			{
				"type": "occ",
				"energy": -0.29143,
				"method": "rhf"
			},
			{
				"type": "occ",
				"energy": -0.2794,
				"method": "rhf"
			},
			{
				"type": "occ",
				"energy": -0.2554,
				"method": "rhf"
			},
			{
				"type": "occ",
				"energy": -0.23313,
				"method": "rhf"
			},
			{
				"type": "unocc",
				"energy": -0.00919,
				"method": "rhf"
			},
			{
				"type": "unocc",
				"energy": 0.05343,
				"method": "rhf"
			},
			{
				"type": "unocc",
				"energy": 0.07072,
				"method": "rhf"
			},
			{
				"type": "unocc",
				"energy": 0.07676,
				"method": "rhf"
			},
			{
				"type": "unocc",
				"energy": 0.08735,
				"method": "rhf"
			}
		],
		"cosmo_sigma_profile": { 
			"-0.025": 0.0,
			"-0.024": 0.0,
			"-0.023": 0.0,
			"-0.022": 0.0,
			"-0.021": 0.0,
			"-0.02": 0.0,
			"-0.019": 0.0,
			"-0.018": 0.0,
			"-0.017": 0.0,
			"-0.016": 0.0,
			"-0.015": 0.0,
			"-0.014": 0.0,
			"-0.013": 0.31330174642,
			"-0.012": 0.544488133514,
			"-0.011": 0.995761001947,
			"-0.01": 0.927573756292,
			"-0.009": 0.85935949235,
			"-0.008": 0.781693946259,
			"-0.007": 1.61355312735,
			"-0.006": 3.49895211994,
			"-0.005": 10.8985817343,
			"-0.004": 14.3781138897,
			"-0.003": 31.341996044,
			"-0.002": 56.8605777666,
			"-0.001": 54.1157175052,
			"0.0": 45.2167212062,
			"0.001": 38.2173975648,
			"0.002": 18.5106772715,
			"0.003": 3.94369146304,
			"0.004": 2.2558035566,
			"0.005": 2.70415348532,
			"0.006": 3.54720052607,
			"0.007": 2.79551594001,
			"0.008": 2.86327494976,
			"0.009": 2.71337764721,
			"0.01": 2.3085353152,
			"0.011": 3.62861769244,
			"0.012": 5.55764360041,
			"0.013": 5.4919390689,
			"0.014": 2.90152382341,
			"0.015": 0.856474473201,
			"0.016": 0.0,
			"0.017": 0.0,
			"0.018": 0.0,
			"0.019": 0.0,
			"0.02": 0.0,
			"0.021": 0.0,
			"0.022": 0.0,
			"0.023": 0.0,
			"0.024": 0.0,
			"0.025": 0.0
		}
	}
}
