{
	 "smiles": "ClC(=O)C1=CSC(=N1)C1=CC=C2OCCC2=C1", 
	 "Tm": 407.15, 
	 "num_atms": 25, 
	 "gaussian": { 
		 "optdone": 1, 
		 "sigma_profile": "yes", 
		 "theory": "DFT", 
		 "functional": "B3LYP", 
		 "basiset": "6-31G**", 
		 "properties": { 
			 "R2extent": 7517.8733, 
			 "electric_dipole_moment_norm": 7.02014867293, 
			 "electric_quadrupole_moment_norm": 10.2837358941, 
			 "total_energy": -1525.6721409, 
			 "HOMO_LUMO_gap": 0.14416, 
			 "cosmo_polarized_energy": -12.29, 
			 "cosmo_cavitation_energy": 33.41, 
			 "cosmo_dispersion_energy": -25.47, 
			 "cosmo_repulsion_energy": 1.93, 
			 "cosmo_total_nonelectrostatic_energy": 9.86, 
			 "SMD_solvation_energy": 5.0 
		},
		"coords": [
			{
				"x": 2.4172553853,
				"y": -5.7089168232,
				"z": 0.4454755337,
				"element": "Cl" 
			},
			{
				"x": 1.0937988167,
				"y": -4.5030223342,
				"z": 0.0212701867,
				"element": "C" 
			},
			{
				"x": 0.09394115,
				"y": -4.8845224184,
				"z": -0.4982901158,
				"element": "O" 
			},
			{
				"x": 1.42842722,
				"y": -3.1144370069,
				"z": 0.3892290525,
				"element": "C" 
			},
			{
				"x": 2.5876023164,
				"y": -2.6842350978,
				"z": 0.9881720966,
				"element": "C" 
			},
			{
				"x": 2.5293389787,
				"y": -0.9817794662,
				"z": 1.2224557821,
				"element": "S" 
			},
			{
				"x": 0.9041478366,
				"y": -0.9600422551,
				"z": 0.4810040965,
				"element": "C" 
			},
			{
				"x": 0.4970410341,
				"y": -2.1409962141,
				"z": 0.1114949371,
				"element": "N" 
			},
			{
				"x": 0.1359304856,
				"y": 0.2750534467,
				"z": 0.3182278905,
				"element": "C" 
			},
			{
				"x": -1.127230932,
				"y": 0.207390889,
				"z": -0.3032258616,
				"element": "C" 
			},
			{
				"x": -1.9058032995,
				"y": 1.3456381652,
				"z": -0.4943367693,
				"element": "C" 
			},
			{
				"x": -1.3929070393,
				"y": 2.5623092197,
				"z": -0.0486854879,
				"element": "C" 
			},
			{
				"x": -2.0341357331,
				"y": 3.7536608278,
				"z": -0.1615860814,
				"element": "O" 
			},
			{
				"x": -1.1072914233,
				"y": 4.7978102207,
				"z": 0.2442568323,
				"element": "C" 
			},
			{
				"x": 0.0667857533,
				"y": 4.1011738544,
				"z": 0.9767323746,
				"element": "C" 
			},
			{
				"x": -0.1438432451,
				"y": 2.6579722319,
				"z": 0.5761981922,
				"element": "C" 
			},
			{
				"x": 0.6223330614,
				"y": 1.5213033716,
				"z": 0.7651147976,
				"element": "C" 
			},
			{
				"x": 3.4406844591,
				"y": -3.272229822,
				"z": 1.2898166705,
				"element": "H" 
			},
			{
				"x": -1.4828777165,
				"y": -0.7604980097,
				"z": -0.6384183523,
				"element": "H" 
			},
			{
				"x": -2.8756782142,
				"y": 1.2951265836,
				"z": -0.9763438678,
				"element": "H" 
			},
			{
				"x": -1.6600419972,
				"y": 5.5032597627,
				"z": 0.8677693772,
				"element": "H" 
			},
			{
				"x": -0.7711666749,
				"y": 5.3136340467,
				"z": -0.6621885764,
				"element": "H" 
			},
			{
				"x": -0.0042372013,
				"y": 4.2250917191,
				"z": 2.0641980772,
				"element": "H" 
			},
			{
				"x": 1.0351432455,
				"y": 4.5032076528,
				"z": 0.6638074791,
				"element": "H" 
			},
			{
				"x": 1.5895837338,
				"y": 1.5938474558,
				"z": 1.2561517362,
				"element": "H" 
			}
		],
		 "valence_orbital": [ 
			{
				"type": "occ",
				"energy": -0.29386,
				"method": "rhf"
			},
			{
				"type": "occ",
				"energy": -0.28795,
				"method": "rhf"
			},
			{
				"type": "occ",
				"energy": -0.27821,
				"method": "rhf"
			},
			{
				"type": "occ",
				"energy": -0.26506,
				"method": "rhf"
			},
			{
				"type": "occ",
				"energy": -0.21871,
				"method": "rhf"
			},
			{
				"type": "unocc",
				"energy": -0.07455,
				"method": "rhf"
			},
			{
				"type": "unocc",
				"energy": -0.05237,
				"method": "rhf"
			},
			{
				"type": "unocc",
				"energy": -0.0201,
				"method": "rhf"
			},
			{
				"type": "unocc",
				"energy": 0.00049,
				"method": "rhf"
			},
			{
				"type": "unocc",
				"energy": 0.02069,
				"method": "rhf"
			}
		],
		"cosmo_sigma_profile": { 
			"-0.025": 0.0,
			"-0.024": 0.0,
			"-0.023": 0.0,
			"-0.022": 0.0,
			"-0.021": 0.0,
			"-0.02": 0.0,
			"-0.019": 0.0,
			"-0.018": 0.0,
			"-0.017": 0.0,
			"-0.016": 0.0,
			"-0.015": 0.0,
			"-0.014": 0.0,
			"-0.013": 0.0,
			"-0.012": 0.0127609439521,
			"-0.011": 0.832407284769,
			"-0.01": 1.3942911166,
			"-0.009": 1.60783764324,
			"-0.008": 2.18206373743,
			"-0.007": 4.85647622153,
			"-0.006": 12.0969950102,
			"-0.005": 22.3633075176,
			"-0.004": 22.1525133638,
			"-0.003": 20.8768615197,
			"-0.002": 23.0016006852,
			"-0.001": 23.1698460304,
			"0.0": 20.1922540887,
			"0.001": 19.6395353246,
			"0.002": 20.7929999441,
			"0.003": 20.9341182941,
			"0.004": 17.8034401745,
			"0.005": 10.4876252188,
			"0.006": 4.43424965135,
			"0.007": 4.39161518622,
			"0.008": 7.44275851039,
			"0.009": 5.93069044512,
			"0.01": 3.6252237505,
			"0.011": 2.16062658979,
			"0.012": 0.987340102755,
			"0.013": 0.144006381619,
			"0.014": 0.0,
			"0.015": 0.0,
			"0.016": 0.0,
			"0.017": 0.0,
			"0.018": 0.0,
			"0.019": 0.0,
			"0.02": 0.0,
			"0.021": 0.0,
			"0.022": 0.0,
			"0.023": 0.0,
			"0.024": 0.0,
			"0.025": 0.0
		}
	}
}
