{
	 "smiles": "NNC1=NC2=C(C=CC=C2)C=C1", 
	 "Tm": 422.15, 
	 "num_atms": 21, 
	 "gaussian": { 
		 "optdone": 1, 
		 "sigma_profile": "yes", 
		 "theory": "DFT", 
		 "functional": "B3LYP", 
		 "basiset": "6-31G**", 
		 "properties": { 
			 "R2extent": 2576.6139, 
			 "electric_dipole_moment_norm": 2.41296141909, 
			 "electric_quadrupole_moment_norm": 9.06409512472, 
			 "total_energy": -512.616498442, 
			 "HOMO_LUMO_gap": 0.1617, 
			 "cosmo_polarized_energy": -11.84, 
			 "cosmo_cavitation_energy": 24.81, 
			 "cosmo_dispersion_energy": -18.75, 
			 "cosmo_repulsion_energy": 1.48, 
			 "cosmo_total_nonelectrostatic_energy": 7.54, 
			 "SMD_solvation_energy": 2.97 
		},
		"coords": [
			{
				"x": -3.7686131625,
				"y": -0.851225348,
				"z": 1.5403115773,
				"element": "N" 
			},
			{
				"x": -3.2963551699,
				"y": 0.0575785062,
				"z": 0.5803100647,
				"element": "N" 
			},
			{
				"x": -2.0544812346,
				"y": -0.0449236477,
				"z": -0.0230943765,
				"element": "C" 
			},
			{
				"x": -1.5750180883,
				"y": 1.0717974743,
				"z": -0.5477269831,
				"element": "N" 
			},
			{
				"x": -0.3800348446,
				"y": 1.0223595625,
				"z": -1.1973118185,
				"element": "C" 
			},
			{
				"x": 0.3845692501,
				"y": -0.1824208248,
				"z": -1.3190078432,
				"element": "C" 
			},
			{
				"x": 1.6269478137,
				"y": -0.1587739029,
				"z": -2.0009776931,
				"element": "C" 
			},
			{
				"x": 2.1033293756,
				"y": 1.0130326585,
				"z": -2.5478531337,
				"element": "C" 
			},
			{
				"x": 1.3490548679,
				"y": 2.2061034524,
				"z": -2.4289620627,
				"element": "C" 
			},
			{
				"x": 0.1383028943,
				"y": 2.214416263,
				"z": -1.7709553933,
				"element": "C" 
			},
			{
				"x": -0.1656696212,
				"y": -1.3536286272,
				"z": -0.7334069159,
				"element": "C" 
			},
			{
				"x": -1.3740322783,
				"y": -1.3015408472,
				"z": -0.0895898157,
				"element": "C" 
			},
			{
				"x": -3.0238930015,
				"y": -1.1347611314,
				"z": 2.1768957438,
				"element": "H" 
			},
			{
				"x": -4.1289158234,
				"y": -1.6810870896,
				"z": 1.0767929122,
				"element": "H" 
			},
			{
				"x": -3.5948577204,
				"y": 1.0116851632,
				"z": 0.7359428769,
				"element": "H" 
			},
			{
				"x": 2.1969253925,
				"y": -1.0811065595,
				"z": -2.0858472827,
				"element": "H" 
			},
			{
				"x": 3.0552745502,
				"y": 1.0262409863,
				"z": -3.0700812626,
				"element": "H" 
			},
			{
				"x": 1.7327791228,
				"y": 3.1249876519,
				"z": -2.8637189294,
				"element": "H" 
			},
			{
				"x": -0.4511619652,
				"y": 3.1201038784,
				"z": -1.6712991118,
				"element": "H" 
			},
			{
				"x": 0.379357171,
				"y": -2.2919132573,
				"z": -0.8051886729,
				"element": "H" 
			},
			{
				"x": -1.8149075281,
				"y": -2.1886243612,
				"z": 0.35066812,
				"element": "H" 
			}
		],
		 "valence_orbital": [ 
			{
				"type": "occ",
				"energy": -0.28125,
				"method": "rhf"
			},
			{
				"type": "occ",
				"energy": -0.27365,
				"method": "rhf"
			},
			{
				"type": "occ",
				"energy": -0.25255,
				"method": "rhf"
			},
			{
				"type": "occ",
				"energy": -0.23176,
				"method": "rhf"
			},
			{
				"type": "occ",
				"energy": -0.2051,
				"method": "rhf"
			},
			{
				"type": "unocc",
				"energy": -0.0434,
				"method": "rhf"
			},
			{
				"type": "unocc",
				"energy": -0.00051,
				"method": "rhf"
			},
			{
				"type": "unocc",
				"energy": 0.02874,
				"method": "rhf"
			},
			{
				"type": "unocc",
				"energy": 0.07144,
				"method": "rhf"
			},
			{
				"type": "unocc",
				"energy": 0.10111,
				"method": "rhf"
			}
		],
		"cosmo_sigma_profile": { 
			"-0.025": 0.0,
			"-0.024": 0.0,
			"-0.023": 0.0,
			"-0.022": 0.0,
			"-0.021": 0.0,
			"-0.02": 0.0,
			"-0.019": 0.0,
			"-0.018": 0.0,
			"-0.017": 0.0,
			"-0.016": 0.0,
			"-0.015": 0.0,
			"-0.014": 0.0,
			"-0.013": 0.0305536356933,
			"-0.012": 0.89415803097,
			"-0.011": 3.75151000266,
			"-0.01": 3.80632712598,
			"-0.009": 5.24373186879,
			"-0.008": 4.59735646627,
			"-0.007": 5.41702868144,
			"-0.006": 9.96708155004,
			"-0.005": 14.1097606661,
			"-0.004": 12.8681538447,
			"-0.003": 12.247709562,
			"-0.002": 9.38321484813,
			"-0.001": 9.45694713636,
			"0.0": 8.38162903638,
			"0.001": 10.7245408396,
			"0.002": 14.8730694743,
			"0.003": 17.0637396383,
			"0.004": 16.1343281012,
			"0.005": 13.8511951621,
			"0.006": 6.57159434455,
			"0.007": 2.67861313357,
			"0.008": 2.84772792149,
			"0.009": 3.34485784932,
			"0.01": 1.80905479519,
			"0.011": 1.22652272795,
			"0.012": 1.90890686335,
			"0.013": 1.34227862988,
			"0.014": 0.9894874828,
			"0.015": 1.6614597273,
			"0.016": 0.44891328217,
			"0.017": 0.138069010507,
			"0.018": 0.0,
			"0.019": 0.0,
			"0.02": 0.0,
			"0.021": 0.0,
			"0.022": 0.0,
			"0.023": 0.0,
			"0.024": 0.0,
			"0.025": 0.0
		}
	}
}
