{
	 "smiles": "CN1N=C(C)C(=C1C)C1=NNC(=C1)C(O)=O", 
	 "Tm": 555.15, 
	 "num_atms": 28, 
	 "gaussian": { 
		 "optdone": 1, 
		 "sigma_profile": "yes", 
		 "theory": "DFT", 
		 "functional": "B3LYP", 
		 "basiset": "6-31G**", 
		 "properties": { 
			 "R2extent": 5406.2571, 
			 "electric_dipole_moment_norm": 2.49080666853, 
			 "electric_quadrupole_moment_norm": 33.343849542, 
			 "total_energy": -757.731013662, 
			 "HOMO_LUMO_gap": 0.16752, 
			 "cosmo_polarized_energy": -23.65, 
			 "cosmo_cavitation_energy": 32.58, 
			 "cosmo_dispersion_energy": -23.44, 
			 "cosmo_repulsion_energy": 1.84, 
			 "cosmo_total_nonelectrostatic_energy": 10.98, 
			 "SMD_solvation_energy": 5.11 
		},
		"coords": [
			{
				"x": -3.4760631804,
				"y": -1.3689867192,
				"z": -0.4146576489,
				"element": "C" 
			},
			{
				"x": -2.0615027484,
				"y": -1.5100612331,
				"z": -0.1273774908,
				"element": "N" 
			},
			{
				"x": -1.4467452159,
				"y": -2.6884352169,
				"z": -0.4081602607,
				"element": "N" 
			},
			{
				"x": -0.1745087702,
				"y": -2.5161498506,
				"z": -0.0625338776,
				"element": "C" 
			},
			{
				"x": 0.8071457621,
				"y": -3.6335029898,
				"z": -0.2337506813,
				"element": "C" 
			},
			{
				"x": 0.0388350689,
				"y": -1.2035719066,
				"z": 0.4576808537,
				"element": "C" 
			},
			{
				"x": -1.210050331,
				"y": -0.583569875,
				"z": 0.3905709491,
				"element": "C" 
			},
			{
				"x": -1.6549634697,
				"y": 0.7976645535,
				"z": 0.7565952592,
				"element": "C" 
			},
			{
				"x": 1.2852406849,
				"y": -0.6391082576,
				"z": 0.9609131772,
				"element": "C" 
			},
			{
				"x": 2.4716763741,
				"y": -1.1668835121,
				"z": 0.6072941365,
				"element": "N" 
			},
			{
				"x": 3.3957973321,
				"y": -0.4040139697,
				"z": 1.2194497871,
				"element": "N" 
			},
			{
				"x": 2.8428031043,
				"y": 0.5765529664,
				"z": 2.0011393247,
				"element": "C" 
			},
			{
				"x": 1.4753178996,
				"y": 0.4539284056,
				"z": 1.8512291224,
				"element": "C" 
			},
			{
				"x": 3.6206399439,
				"y": 1.545295163,
				"z": 2.7999120054,
				"element": "C" 
			},
			{
				"x": 4.9123704931,
				"y": 1.7407340904,
				"z": 2.3946287056,
				"element": "O" 
			},
			{
				"x": 3.180608028,
				"y": 2.1292993023,
				"z": 3.758694332,
				"element": "O" 
			},
			{
				"x": -4.0354386099,
				"y": -1.0840340786,
				"z": 0.4819373351,
				"element": "H" 
			},
			{
				"x": -3.8250237192,
				"y": -2.3400398817,
				"z": -0.7633433165,
				"element": "H" 
			},
			{
				"x": -3.6537430695,
				"y": -0.6229035968,
				"z": -1.1970176483,
				"element": "H" 
			},
			{
				"x": 1.3185180938,
				"y": -3.8608277035,
				"z": 0.7073559134,
				"element": "H" 
			},
			{
				"x": 0.2823844645,
				"y": -4.5271626728,
				"z": -0.5792081649,
				"element": "H" 
			},
			{
				"x": 1.5859092611,
				"y": -3.3727291718,
				"z": -0.956678862,
				"element": "H" 
			},
			{
				"x": -2.4810052725,
				"y": 1.1329535363,
				"z": 0.1224962348,
				"element": "H" 
			},
			{
				"x": -0.8348240369,
				"y": 1.5088683134,
				"z": 0.6330244704,
				"element": "H" 
			},
			{
				"x": -1.9951311094,
				"y": 0.8615847323,
				"z": 1.7982703597,
				"element": "H" 
			},
			{
				"x": 4.3490124329,
				"y": -0.7362097861,
				"z": 1.2397105912,
				"element": "H" 
			},
			{
				"x": 0.7352651363,
				"y": 1.0724825885,
				"z": 2.3325696704,
				"element": "H" 
			},
			{
				"x": 5.0224754535,
				"y": 1.4476267699,
				"z": 1.4783557231,
				"element": "H" 
			}
		],
		 "valence_orbital": [ 
			{
				"type": "occ",
				"energy": -0.28379,
				"method": "rhf"
			},
			{
				"type": "occ",
				"energy": -0.27812,
				"method": "rhf"
			},
			{
				"type": "occ",
				"energy": -0.26556,
				"method": "rhf"
			},
			{
				"type": "occ",
				"energy": -0.23396,
				"method": "rhf"
			},
			{
				"type": "occ",
				"energy": -0.21647,
				"method": "rhf"
			},
			{
				"type": "unocc",
				"energy": -0.04895,
				"method": "rhf"
			},
			{
				"type": "unocc",
				"energy": 0.00359,
				"method": "rhf"
			},
			{
				"type": "unocc",
				"energy": 0.03369,
				"method": "rhf"
			},
			{
				"type": "unocc",
				"energy": 0.03457,
				"method": "rhf"
			},
			{
				"type": "unocc",
				"energy": 0.07728,
				"method": "rhf"
			}
		],
		"cosmo_sigma_profile": { 
			"-0.025": 0.0,
			"-0.024": 0.0,
			"-0.023": 0.0,
			"-0.022": 0.0,
			"-0.021": 0.0896669323729,
			"-0.02": 1.0049345417,
			"-0.019": 1.99704016111,
			"-0.018": 2.05098538551,
			"-0.017": 1.68193614094,
			"-0.016": 2.35029268196,
			"-0.015": 1.82452452552,
			"-0.014": 1.68413329033,
			"-0.013": 1.55104606889,
			"-0.012": 1.16689938911,
			"-0.011": 1.6017950454,
			"-0.01": 1.22960110208,
			"-0.009": 1.16775051868,
			"-0.008": 1.3490682381,
			"-0.007": 2.86378218775,
			"-0.006": 11.8764138495,
			"-0.005": 17.349819671,
			"-0.004": 18.3528433769,
			"-0.003": 21.2291513497,
			"-0.002": 19.8393309174,
			"-0.001": 16.8931647691,
			"0.0": 14.835544207,
			"0.001": 12.2727554861,
			"0.002": 13.1946441998,
			"0.003": 14.718481628,
			"0.004": 12.9565325597,
			"0.005": 10.0085989447,
			"0.006": 7.1955790696,
			"0.007": 6.8502454047,
			"0.008": 5.51539245398,
			"0.009": 6.14566499355,
			"0.01": 8.28888523025,
			"0.011": 8.82513420324,
			"0.012": 4.76608786792,
			"0.013": 1.41765167211,
			"0.014": 1.01645012755,
			"0.015": 0.843047276937,
			"0.016": 0.640866342793,
			"0.017": 0.0,
			"0.018": 0.0,
			"0.019": 0.0,
			"0.02": 0.0,
			"0.021": 0.0,
			"0.022": 0.0,
			"0.023": 0.0,
			"0.024": 0.0,
			"0.025": 0.0
		}
	}
}
