{
	 "smiles": "COC1CC1", 
	 "Tm": 154.15, 
	 "num_atms": 13, 
	 "gaussian": { 
		 "optdone": 1, 
		 "sigma_profile": "yes", 
		 "theory": "DFT", 
		 "functional": "B3LYP", 
		 "basiset": "6-31G**", 
		 "properties": { 
			 "R2extent": 546.6719, 
			 "electric_dipole_moment_norm": 1.18742825046, 
			 "electric_quadrupole_moment_norm": 2.98298054637, 
			 "total_energy": -232.418339357, 
			 "HOMO_LUMO_gap": 0.34016, 
			 "cosmo_polarized_energy": -3.73, 
			 "cosmo_cavitation_energy": 15.69, 
			 "cosmo_dispersion_energy": -11.76, 
			 "cosmo_repulsion_energy": 1.05, 
			 "cosmo_total_nonelectrostatic_energy": 4.98, 
			 "SMD_solvation_energy": 3.2 
		},
		"coords": [
			{
				"x": -0.0259734008,
				"y": -0.0094894395,
				"z": -1.2872442053,
				"element": "C" 
			},
			{
				"x": -0.4840186163,
				"y": -0.9034709091,
				"z": -0.2884840051,
				"element": "O" 
			},
			{
				"x": 0.2774828942,
				"y": -0.8419454115,
				"z": 0.8812372485,
				"element": "C" 
			},
			{
				"x": -0.0253694436,
				"y": 0.2310497253,
				"z": 1.8987551504,
				"element": "C" 
			},
			{
				"x": -0.4255118054,
				"y": -1.2124189572,
				"z": 2.146051245,
				"element": "C" 
			},
			{
				"x": 1.0076393771,
				"y": -0.2347123036,
				"z": -1.5924000737,
				"element": "H" 
			},
			{
				"x": -0.0653045453,
				"y": 1.0360500238,
				"z": -0.9486033977,
				"element": "H" 
			},
			{
				"x": -0.6821214063,
				"y": -0.1308507082,
				"z": -2.1525394612,
				"element": "H" 
			},
			{
				"x": 1.3197918016,
				"y": -1.1462341181,
				"z": 0.756948975,
				"element": "H" 
			},
			{
				"x": -0.8231530279,
				"y": 0.9262468469,
				"z": 1.6557298716,
				"element": "H" 
			},
			{
				"x": 0.7916584995,
				"y": 0.6560656416,
				"z": 2.4745422665,
				"element": "H" 
			},
			{
				"x": 0.1141113203,
				"y": -1.7887578343,
				"z": 2.8912426973,
				"element": "H" 
			},
			{
				"x": -1.4794316472,
				"y": -1.455132556,
				"z": 2.0556636886,
				"element": "H" 
			}
		],
		 "valence_orbital": [ 
			{
				"type": "occ",
				"energy": -0.36319,
				"method": "rhf"
			},
			{
				"type": "occ",
				"energy": -0.34044,
				"method": "rhf"
			},
			{
				"type": "occ",
				"energy": -0.30923,
				"method": "rhf"
			},
			{
				"type": "occ",
				"energy": -0.28072,
				"method": "rhf"
			},
			{
				"type": "occ",
				"energy": -0.24387,
				"method": "rhf"
			},
			{
				"type": "unocc",
				"energy": 0.09629,
				"method": "rhf"
			},
			{
				"type": "unocc",
				"energy": 0.11411,
				"method": "rhf"
			},
			{
				"type": "unocc",
				"energy": 0.12147,
				"method": "rhf"
			},
			{
				"type": "unocc",
				"energy": 0.14265,
				"method": "rhf"
			},
			{
				"type": "unocc",
				"energy": 0.15576,
				"method": "rhf"
			}
		],
		"cosmo_sigma_profile": { 
			"-0.025": 0.0,
			"-0.024": 0.0,
			"-0.023": 0.0,
			"-0.022": 0.0,
			"-0.021": 0.0,
			"-0.02": 0.0,
			"-0.019": 0.0,
			"-0.018": 0.0,
			"-0.017": 0.0,
			"-0.016": 0.0,
			"-0.015": 0.0,
			"-0.014": 0.0,
			"-0.013": 0.0,
			"-0.012": 0.0,
			"-0.011": 0.0,
			"-0.01": 0.0,
			"-0.009": 0.0,
			"-0.008": 0.0,
			"-0.007": 0.0,
			"-0.006": 0.0148801483336,
			"-0.005": 5.59229219494,
			"-0.004": 16.1414109256,
			"-0.003": 16.4570410226,
			"-0.002": 18.5471481552,
			"-0.001": 13.7199336694,
			"0.0": 10.8916202234,
			"0.001": 8.06500734718,
			"0.002": 7.04850938458,
			"0.003": 5.55925596855,
			"0.004": 4.10891440686,
			"0.005": 3.85660286635,
			"0.006": 2.39719361006,
			"0.007": 1.39051617493,
			"0.008": 1.33611542123,
			"0.009": 1.30616701121,
			"0.01": 1.95125629487,
			"0.011": 0.803526792941,
			"0.012": 1.52703068663,
			"0.013": 1.68829892026,
			"0.014": 0.2602771968,
			"0.015": 0.0,
			"0.016": 0.0,
			"0.017": 0.0,
			"0.018": 0.0,
			"0.019": 0.0,
			"0.02": 0.0,
			"0.021": 0.0,
			"0.022": 0.0,
			"0.023": 0.0,
			"0.024": 0.0,
			"0.025": 0.0
		}
	}
}
