{
	 "smiles": "COC(=O)C(CC1=CC=CC=C1)N=C=S", 
	 "Tm": 308.15, 
	 "num_atms": 26, 
	 "gaussian": { 
		 "optdone": 1, 
		 "sigma_profile": "yes", 
		 "theory": "DFT", 
		 "functional": "B3LYP", 
		 "basiset": "6-31G**", 
		 "properties": { 
			 "R2extent": 4592.6613, 
			 "electric_dipole_moment_norm": 1.85341348058, 
			 "electric_quadrupole_moment_norm": 16.0345071814, 
			 "total_energy": -1029.18465731, 
			 "HOMO_LUMO_gap": 0.22385, 
			 "cosmo_polarized_energy": -10.55, 
			 "cosmo_cavitation_energy": 33.71, 
			 "cosmo_dispersion_energy": -23.11, 
			 "cosmo_repulsion_energy": 1.81, 
			 "cosmo_total_nonelectrostatic_energy": 12.41, 
			 "SMD_solvation_energy": 6.54 
		},
		"coords": [
			{
				"x": -4.182563524,
				"y": -0.900301959,
				"z": -0.7167933527,
				"element": "C" 
			},
			{
				"x": -2.7907542734,
				"y": -0.5527910946,
				"z": -0.5752893102,
				"element": "O" 
			},
			{
				"x": -2.4124208494,
				"y": -0.1786350392,
				"z": 0.6511252117,
				"element": "C" 
			},
			{
				"x": -3.1425248637,
				"y": -0.121215063,
				"z": 1.6164714908,
				"element": "O" 
			},
			{
				"x": -0.9161502768,
				"y": 0.1657663971,
				"z": 0.7542005251,
				"element": "C" 
			},
			{
				"x": -0.2285089834,
				"y": -0.8208300092,
				"z": 1.7443508676,
				"element": "C" 
			},
			{
				"x": 1.1798870575,
				"y": -0.4116846143,
				"z": 2.1099938068,
				"element": "C" 
			},
			{
				"x": 2.2827135201,
				"y": -0.9091360339,
				"z": 1.4042191129,
				"element": "C" 
			},
			{
				"x": 3.5785166842,
				"y": -0.508275807,
				"z": 1.7328873748,
				"element": "C" 
			},
			{
				"x": 3.789178326,
				"y": 0.3971057861,
				"z": 2.7740731188,
				"element": "C" 
			},
			{
				"x": 2.6973715777,
				"y": 0.8975736406,
				"z": 3.4864405488,
				"element": "C" 
			},
			{
				"x": 1.4034780402,
				"y": 0.494266305,
				"z": 3.1561464313,
				"element": "C" 
			},
			{
				"x": -0.2396476177,
				"y": 0.21280115,
				"z": -0.4992698777,
				"element": "N" 
			},
			{
				"x": -0.0634845216,
				"y": -0.1938281752,
				"z": -1.6075721301,
				"element": "C" 
			},
			{
				"x": 0.2619770401,
				"y": -0.6506860008,
				"z": -3.0966877133,
				"element": "S" 
			},
			{
				"x": -4.3078701605,
				"y": -1.1756858676,
				"z": -1.7628146911,
				"element": "H" 
			},
			{
				"x": -4.4327966022,
				"y": -1.7374667642,
				"z": -0.0612698945,
				"element": "H" 
			},
			{
				"x": -4.813543258,
				"y": -0.0460641939,
				"z": -0.4615348269,
				"element": "H" 
			},
			{
				"x": -0.8756548612,
				"y": 1.165404087,
				"z": 1.2013024542,
				"element": "H" 
			},
			{
				"x": -0.237305803,
				"y": -1.8181271945,
				"z": 1.2914227238,
				"element": "H" 
			},
			{
				"x": -0.8652043091,
				"y": -0.8527658896,
				"z": 2.6330580703,
				"element": "H" 
			},
			{
				"x": 2.1261371429,
				"y": -1.6162886526,
				"z": 0.5939365493,
				"element": "H" 
			},
			{
				"x": 4.4226156402,
				"y": -0.9049893747,
				"z": 1.1761668308,
				"element": "H" 
			},
			{
				"x": 4.7975638042,
				"y": 0.7075380384,
				"z": 3.0319382957,
				"element": "H" 
			},
			{
				"x": 2.8531463369,
				"y": 1.5969030095,
				"z": 4.3029807072,
				"element": "H" 
			},
			{
				"x": 0.557644734,
				"y": 0.8807133196,
				"z": 3.7206176765,
				"element": "H" 
			}
		],
		 "valence_orbital": [ 
			{
				"type": "occ",
				"energy": -0.29762,
				"method": "rhf"
			},
			{
				"type": "occ",
				"energy": -0.25521,
				"method": "rhf"
			},
			{
				"type": "occ",
				"energy": -0.25396,
				"method": "rhf"
			},
			{
				"type": "occ",
				"energy": -0.2486,
				"method": "rhf"
			},
			{
				"type": "occ",
				"energy": -0.24246,
				"method": "rhf"
			},
			{
				"type": "unocc",
				"energy": -0.01861,
				"method": "rhf"
			},
			{
				"type": "unocc",
				"energy": -0.01521,
				"method": "rhf"
			},
			{
				"type": "unocc",
				"energy": -0.00674,
				"method": "rhf"
			},
			{
				"type": "unocc",
				"energy": 0.0035,
				"method": "rhf"
			},
			{
				"type": "unocc",
				"energy": 0.00874,
				"method": "rhf"
			}
		],
		"cosmo_sigma_profile": { 
			"-0.025": 0.0,
			"-0.024": 0.0,
			"-0.023": 0.0,
			"-0.022": 0.0,
			"-0.021": 0.0,
			"-0.02": 0.0,
			"-0.019": 0.0,
			"-0.018": 0.0,
			"-0.017": 0.0,
			"-0.016": 0.0,
			"-0.015": 0.0,
			"-0.014": 0.0,
			"-0.013": 0.0,
			"-0.012": 0.0,
			"-0.011": 0.0,
			"-0.01": 0.00924287353517,
			"-0.009": 1.22965626214,
			"-0.008": 2.57169648903,
			"-0.007": 6.95148734364,
			"-0.006": 17.7586523398,
			"-0.005": 26.9503902019,
			"-0.004": 26.6437324996,
			"-0.003": 20.539166535,
			"-0.002": 14.5049911412,
			"-0.001": 15.3871813071,
			"0.0": 14.8476937016,
			"0.001": 16.9699511918,
			"0.002": 17.0773651024,
			"0.003": 17.3427310779,
			"0.004": 18.0835096588,
			"0.005": 23.4527896132,
			"0.006": 18.6086649191,
			"0.007": 2.32875154651,
			"0.008": 1.34135416373,
			"0.009": 1.40146563749,
			"0.01": 2.59272971721,
			"0.011": 4.54124551608,
			"0.012": 1.16482323236,
			"0.013": 0.0,
			"0.014": 0.0,
			"0.015": 0.0,
			"0.016": 0.0,
			"0.017": 0.0,
			"0.018": 0.0,
			"0.019": 0.0,
			"0.02": 0.0,
			"0.021": 0.0,
			"0.022": 0.0,
			"0.023": 0.0,
			"0.024": 0.0,
			"0.025": 0.0
		}
	}
}
