{
	 "smiles": "OC(=O)C1=CC(=NO1)C1=CC(Cl)=CC=C1", 
	 "Tm": 456.15, 
	 "num_atms": 21, 
	 "gaussian": { 
		 "optdone": 1, 
		 "sigma_profile": "yes", 
		 "theory": "DFT", 
		 "functional": "B3LYP", 
		 "basiset": "6-31G**", 
		 "properties": { 
			 "R2extent": 6261.9111, 
			 "electric_dipole_moment_norm": 3.54450287205, 
			 "electric_quadrupole_moment_norm": 10.4934466902, 
			 "total_energy": -1125.25138822, 
			 "HOMO_LUMO_gap": 0.17677, 
			 "cosmo_polarized_energy": -13.39, 
			 "cosmo_cavitation_energy": 29.06, 
			 "cosmo_dispersion_energy": -21.57, 
			 "cosmo_repulsion_energy": 1.67, 
			 "cosmo_total_nonelectrostatic_energy": 9.16, 
			 "SMD_solvation_energy": 5.88 
		},
		"coords": [
			{
				"x": -4.1751211105,
				"y": 1.6138985672,
				"z": -1.6275961775,
				"element": "O" 
			},
			{
				"x": -3.901683284,
				"y": 0.313390529,
				"z": -1.3973951546,
				"element": "C" 
			},
			{
				"x": -4.6077100877,
				"y": -0.5790272438,
				"z": -1.7982389396,
				"element": "O" 
			},
			{
				"x": -2.6672060687,
				"y": 0.0516629155,
				"z": -0.6134811825,
				"element": "C" 
			},
			{
				"x": -2.082675219,
				"y": -1.1014797389,
				"z": -0.1954722233,
				"element": "C" 
			},
			{
				"x": -0.9195861876,
				"y": -0.661782186,
				"z": 0.5119725483,
				"element": "C" 
			},
			{
				"x": -0.8314036828,
				"y": 0.6593343194,
				"z": 0.5070561113,
				"element": "N" 
			},
			{
				"x": -1.9342508064,
				"y": 1.1149640079,
				"z": -0.2034252369,
				"element": "O" 
			},
			{
				"x": 0.1076549472,
				"y": -1.4719821132,
				"z": 1.1913502811,
				"element": "C" 
			},
			{
				"x": 0.0112142754,
				"y": -2.8704390808,
				"z": 1.1948958261,
				"element": "C" 
			},
			{
				"x": 0.9886919579,
				"y": -3.6240328401,
				"z": 1.8406032616,
				"element": "C" 
			},
			{
				"x": 0.8563005283,
				"y": -5.3755267802,
				"z": 1.837820081,
				"element": "Cl" 
			},
			{
				"x": 2.064962632,
				"y": -3.018141692,
				"z": 2.4860017416,
				"element": "C" 
			},
			{
				"x": 2.154050871,
				"y": -1.6240551546,
				"z": 2.4780676788,
				"element": "C" 
			},
			{
				"x": 1.1887180988,
				"y": -0.8521372241,
				"z": 1.8391255366,
				"element": "C" 
			},
			{
				"x": -3.4945776515,
				"y": 2.1796164249,
				"z": -1.2278026614,
				"element": "H" 
			},
			{
				"x": -2.439935526,
				"y": -2.102806306,
				"z": -0.3734046903,
				"element": "H" 
			},
			{
				"x": -0.8111834095,
				"y": -3.3770562111,
				"z": 0.7037530431,
				"element": "H" 
			},
			{
				"x": 2.8140495925,
				"y": -3.6248286723,
				"z": 2.9821649874,
				"element": "H" 
			},
			{
				"x": 2.9878986542,
				"y": -1.1403128166,
				"z": 2.9774635023,
				"element": "H" 
			},
			{
				"x": 1.2604914765,
				"y": 0.2295412957,
				"z": 1.834641667,
				"element": "H" 
			}
		],
		 "valence_orbital": [ 
			{
				"type": "occ",
				"energy": -0.32481,
				"method": "rhf"
			},
			{
				"type": "occ",
				"energy": -0.29576,
				"method": "rhf"
			},
			{
				"type": "occ",
				"energy": -0.29475,
				"method": "rhf"
			},
			{
				"type": "occ",
				"energy": -0.27223,
				"method": "rhf"
			},
			{
				"type": "occ",
				"energy": -0.25798,
				"method": "rhf"
			},
			{
				"type": "unocc",
				"energy": -0.08121,
				"method": "rhf"
			},
			{
				"type": "unocc",
				"energy": -0.05227,
				"method": "rhf"
			},
			{
				"type": "unocc",
				"energy": -0.02805,
				"method": "rhf"
			},
			{
				"type": "unocc",
				"energy": 0.01644,
				"method": "rhf"
			},
			{
				"type": "unocc",
				"energy": 0.03884,
				"method": "rhf"
			}
		],
		"cosmo_sigma_profile": { 
			"-0.025": 0.0,
			"-0.024": 0.0,
			"-0.023": 0.0,
			"-0.022": 0.0,
			"-0.021": 0.0,
			"-0.02": 0.0,
			"-0.019": 0.00488433311914,
			"-0.018": 0.675607187052,
			"-0.017": 0.280451824352,
			"-0.016": 0.568190914493,
			"-0.015": 0.697433929344,
			"-0.014": 0.690545687587,
			"-0.013": 1.48114410331,
			"-0.012": 1.23394281318,
			"-0.011": 3.38431161949,
			"-0.01": 2.54149389479,
			"-0.009": 3.28099999864,
			"-0.008": 4.821380256,
			"-0.007": 9.04792508915,
			"-0.006": 10.3340880932,
			"-0.005": 9.85302237461,
			"-0.004": 9.52253933954,
			"-0.003": 12.1005900666,
			"-0.002": 15.8719581494,
			"-0.001": 17.0837173315,
			"0.0": 17.716510659,
			"0.001": 21.2920067051,
			"0.002": 22.3059802151,
			"0.003": 17.5605489691,
			"0.004": 13.5238656468,
			"0.005": 7.88073597963,
			"0.006": 4.76965673204,
			"0.007": 4.55692549693,
			"0.008": 5.74534920993,
			"0.009": 5.51151522031,
			"0.01": 5.98638316751,
			"0.011": 5.82218663284,
			"0.012": 1.03388770136,
			"0.013": 0.0,
			"0.014": 0.0,
			"0.015": 0.0,
			"0.016": 0.0,
			"0.017": 0.0,
			"0.018": 0.0,
			"0.019": 0.0,
			"0.02": 0.0,
			"0.021": 0.0,
			"0.022": 0.0,
			"0.023": 0.0,
			"0.024": 0.0,
			"0.025": 0.0
		}
	}
}
