{
	 "smiles": "COC1=CC(C=C2CCCC3=C2N=C2C=CC=CC2=C3C(O)=O)=CC(OC)=C1OC", 
	 "Tm": 523.15, 
	 "num_atms": 53, 
	 "gaussian": { 
		 "optdone": 1, 
		 "sigma_profile": "yes", 
		 "theory": "DFT", 
		 "functional": "B3LYP", 
		 "basiset": "6-31G**", 
		 "properties": { 
			 "R2extent": 14373.7816, 
			 "electric_dipole_moment_norm": 3.38751970179, 
			 "electric_quadrupole_moment_norm": 21.6845733389, 
			 "total_energy": -1359.25203609, 
			 "HOMO_LUMO_gap": 0.12441, 
			 "cosmo_polarized_energy": -21.53, 
			 "cosmo_cavitation_energy": 55.62, 
			 "cosmo_dispersion_energy": -36.87, 
			 "cosmo_repulsion_energy": 2.8, 
			 "cosmo_total_nonelectrostatic_energy": 21.56, 
			 "SMD_solvation_energy": 10.67 
		},
		"coords": [
			{
				"x": 3.540978513,
				"y": 1.7748326357,
				"z": -5.3475534384,
				"element": "C" 
			},
			{
				"x": 3.8802718301,
				"y": 1.0416192734,
				"z": -4.1837711462,
				"element": "O" 
			},
			{
				"x": 3.0042024403,
				"y": 1.0571861025,
				"z": -3.137457921,
				"element": "C" 
			},
			{
				"x": 1.7794481389,
				"y": 1.7318992419,
				"z": -3.1367504857,
				"element": "C" 
			},
			{
				"x": 0.9232067097,
				"y": 1.6696476047,
				"z": -2.022778955,
				"element": "C" 
			},
			{
				"x": -0.332766087,
				"y": 2.4305258919,
				"z": -2.1108433403,
				"element": "C" 
			},
			{
				"x": -1.491114868,
				"y": 2.3760669187,
				"z": -1.4178267109,
				"element": "C" 
			},
			{
				"x": -2.607055422,
				"y": 3.3727291347,
				"z": -1.7004522925,
				"element": "C" 
			},
			{
				"x": -3.165946427,
				"y": 4.0390562543,
				"z": -0.407265992,
				"element": "C" 
			},
			{
				"x": -2.5366146846,
				"y": 3.4512948983,
				"z": 0.8736585821,
				"element": "C" 
			},
			{
				"x": -2.4975768565,
				"y": 1.9428285501,
				"z": 0.8126260468,
				"element": "C" 
			},
			{
				"x": -1.8692098702,
				"y": 1.3992255478,
				"z": -0.3623143676,
				"element": "C" 
			},
			{
				"x": -1.7001054588,
				"y": 0.1077711574,
				"z": -0.570040927,
				"element": "N" 
			},
			{
				"x": -2.1149557718,
				"y": -0.7655966309,
				"z": 0.389181993,
				"element": "C" 
			},
			{
				"x": -1.9065366356,
				"y": -2.1504297911,
				"z": 0.1479272601,
				"element": "C" 
			},
			{
				"x": -2.3030568935,
				"y": -3.0888898682,
				"z": 1.0724912028,
				"element": "C" 
			},
			{
				"x": -2.9252750973,
				"y": -2.6778142745,
				"z": 2.2751931314,
				"element": "C" 
			},
			{
				"x": -3.1423474277,
				"y": -1.3424499287,
				"z": 2.5391590438,
				"element": "C" 
			},
			{
				"x": -2.7437263957,
				"y": -0.3470599823,
				"z": 1.6062859976,
				"element": "C" 
			},
			{
				"x": -2.9457643127,
				"y": 1.0630486002,
				"z": 1.7830424761,
				"element": "C" 
			},
			{
				"x": -3.6108751778,
				"y": 1.5411154615,
				"z": 3.0389290432,
				"element": "C" 
			},
			{
				"x": -4.6149532896,
				"y": 2.4209484703,
				"z": 2.8007144065,
				"element": "O" 
			},
			{
				"x": -3.3299943496,
				"y": 1.1799937148,
				"z": 4.162781577,
				"element": "O" 
			},
			{
				"x": 1.3299912791,
				"y": 0.9483421879,
				"z": -0.8886120941,
				"element": "C" 
			},
			{
				"x": 2.5574814293,
				"y": 0.2835746226,
				"z": -0.8814901198,
				"element": "C" 
			},
			{
				"x": 3.0340927738,
				"y": -0.4443780584,
				"z": 0.1706547206,
				"element": "O" 
			},
			{
				"x": 2.2232356685,
				"y": -0.5531989461,
				"z": 1.3306489301,
				"element": "C" 
			},
			{
				"x": 3.4091576844,
				"y": 0.33582163,
				"z": -2.0019720165,
				"element": "C" 
			},
			{
				"x": 4.6443874179,
				"y": -0.2565427876,
				"z": -1.9762826309,
				"element": "O" 
			},
			{
				"x": 4.6386026036,
				"y": -1.6641186836,
				"z": -2.2170291271,
				"element": "C" 
			},
			{
				"x": 4.3692112588,
				"y": 1.6326807611,
				"z": -6.0438823469,
				"element": "H" 
			},
			{
				"x": 3.4297270133,
				"y": 2.8464001423,
				"z": -5.1356905911,
				"element": "H" 
			},
			{
				"x": 2.6154664489,
				"y": 1.4049381687,
				"z": -5.8086649584,
				"element": "H" 
			},
			{
				"x": 1.4666993376,
				"y": 2.2979952967,
				"z": -4.0060103583,
				"element": "H" 
			},
			{
				"x": -0.3022833641,
				"y": 3.1969240429,
				"z": -2.8862968675,
				"element": "H" 
			},
			{
				"x": -2.2531691908,
				"y": 4.132097561,
				"z": -2.4037843445,
				"element": "H" 
			},
			{
				"x": -3.4234906518,
				"y": 2.8389220636,
				"z": -2.2048952821,
				"element": "H" 
			},
			{
				"x": -2.9778341327,
				"y": 5.1174858716,
				"z": -0.425335326,
				"element": "H" 
			},
			{
				"x": -4.2516345436,
				"y": 3.9086580896,
				"z": -0.3587505929,
				"element": "H" 
			},
			{
				"x": -1.4988270477,
				"y": 3.8051578723,
				"z": 0.9438912928,
				"element": "H" 
			},
			{
				"x": -3.0635395836,
				"y": 3.8148364775,
				"z": 1.7549464541,
				"element": "H" 
			},
			{
				"x": -1.4302968105,
				"y": -2.4247978806,
				"z": -0.7875684424,
				"element": "H" 
			},
			{
				"x": -2.1412843045,
				"y": -4.146010765,
				"z": 0.8828945459,
				"element": "H" 
			},
			{
				"x": -3.2334294521,
				"y": -3.4238006881,
				"z": 3.0019588132,
				"element": "H" 
			},
			{
				"x": -3.6010971573,
				"y": -1.042315526,
				"z": 3.4728872918,
				"element": "H" 
			},
			{
				"x": -4.9665047783,
				"y": 2.6628548696,
				"z": 3.6752734527,
				"element": "H" 
			},
			{
				"x": 0.6906007949,
				"y": 0.9109276351,
				"z": -0.0204880067,
				"element": "H" 
			},
			{
				"x": 2.7802999166,
				"y": -1.1822903176,
				"z": 2.0268693317,
				"element": "H" 
			},
			{
				"x": 1.2569852008,
				"y": -1.0232576605,
				"z": 1.1089052867,
				"element": "H" 
			},
			{
				"x": 2.0470258554,
				"y": 0.4258923058,
				"z": 1.7942413206,
				"element": "H" 
			},
			{
				"x": 4.0641285435,
				"y": -2.1957666178,
				"z": -1.4502120906,
				"element": "H" 
			},
			{
				"x": 4.2291114273,
				"y": -1.8930550602,
				"z": -3.2089648483,
				"element": "H" 
			},
			{
				"x": 5.6813537567,
				"y": -1.9870255892,
				"z": -2.17607658,
				"element": "H" 
			}
		],
		 "valence_orbital": [ 
			{
				"type": "occ",
				"energy": -0.25286,
				"method": "rhf"
			},
			{
				"type": "occ",
				"energy": -0.24142,
				"method": "rhf"
			},
			{
				"type": "occ",
				"energy": -0.23263,
				"method": "rhf"
			},
			{
				"type": "occ",
				"energy": -0.20941,
				"method": "rhf"
			},
			{
				"type": "occ",
				"energy": -0.1938,
				"method": "rhf"
			},
			{
				"type": "unocc",
				"energy": -0.06939,
				"method": "rhf"
			},
			{
				"type": "unocc",
				"energy": -0.03754,
				"method": "rhf"
			},
			{
				"type": "unocc",
				"energy": -0.01161,
				"method": "rhf"
			},
			{
				"type": "unocc",
				"energy": -0.00406,
				"method": "rhf"
			},
			{
				"type": "unocc",
				"energy": 0.02774,
				"method": "rhf"
			}
		],
		"cosmo_sigma_profile": { 
			"-0.025": 0.0,
			"-0.024": 0.0,
			"-0.023": 0.0,
			"-0.022": 0.0,
			"-0.021": 0.0,
			"-0.02": 0.0,
			"-0.019": 0.287728215637,
			"-0.018": 0.854090490189,
			"-0.017": 1.22857248003,
			"-0.016": 0.98864380059,
			"-0.015": 0.237138306558,
			"-0.014": 0.646694591227,
			"-0.013": 0.381669440274,
			"-0.012": 0.684466321082,
			"-0.011": 1.3020231424,
			"-0.01": 0.501354049924,
			"-0.009": 0.655517353262,
			"-0.008": 0.795790594001,
			"-0.007": 1.78443958639,
			"-0.006": 14.7031731746,
			"-0.005": 32.2245687834,
			"-0.004": 43.6186716374,
			"-0.003": 57.6742013578,
			"-0.002": 44.6994010635,
			"-0.001": 35.4267342162,
			"0.0": 31.6985934109,
			"0.001": 23.4319008033,
			"0.002": 22.5001564103,
			"0.003": 27.9708177896,
			"0.004": 26.411143735,
			"0.005": 15.9000174822,
			"0.006": 9.47309382134,
			"0.007": 6.98622511402,
			"0.008": 6.80897311878,
			"0.009": 6.49358332547,
			"0.01": 5.88563125456,
			"0.011": 8.4332843118,
			"0.012": 5.6289588791,
			"0.013": 3.12772407484,
			"0.014": 1.55336514288,
			"0.015": 0.629998853532,
			"0.016": 0.0644506248791,
			"0.017": 0.0,
			"0.018": 0.0,
			"0.019": 0.0,
			"0.02": 0.0,
			"0.021": 0.0,
			"0.022": 0.0,
			"0.023": 0.0,
			"0.024": 0.0,
			"0.0": 0.0
		}
	}
}
