{
	 "smiles": "[O-][N+](=O)C1=CC(Cl)=C(NC(=O)OCC(F)(F)F)C=C1", 
	 "Tm": 406.15, 
	 "num_atms": 25, 
	 "gaussian": { 
		 "optdone": 1, 
		 "sigma_profile": "yes", 
		 "theory": "DFT", 
		 "functional": "B3LYP", 
		 "basiset": "6-31G**", 
		 "properties": { 
			 "R2extent": 7521.7559, 
			 "electric_dipole_moment_norm": 3.5405748135, 
			 "electric_quadrupole_moment_norm": 20.9236809759, 
			 "total_energy": -1516.60818083, 
			 "HOMO_LUMO_gap": 0.16306, 
			 "cosmo_polarized_energy": -13.23, 
			 "cosmo_cavitation_energy": 34.69, 
			 "cosmo_dispersion_energy": -24.26, 
			 "cosmo_repulsion_energy": 1.8, 
			 "cosmo_total_nonelectrostatic_energy": 12.23, 
			 "SMD_solvation_energy": 10.18 
		},
		"coords": [
			{
				"x": 3.5734937346,
				"y": 2.9571960876,
				"z": 2.398650024,
				"element": "O" 
			},
			{
				"x": 3.9206706217,
				"y": 2.5583670359,
				"z": 1.287334174,
				"element": "N" 
			},
			{
				"x": 5.0468064228,
				"y": 2.6959394009,
				"z": 0.8092657539,
				"element": "O" 
			},
			{
				"x": 2.9165584459,
				"y": 1.8680722978,
				"z": 0.4724584726,
				"element": "C" 
			},
			{
				"x": 3.2767969389,
				"y": 1.4099691005,
				"z": -0.7914918512,
				"element": "C" 
			},
			{
				"x": 2.3201923358,
				"y": 0.7636810237,
				"z": -1.5583591083,
				"element": "C" 
			},
			{
				"x": 2.7821661491,
				"y": 0.184329716,
				"z": -3.1527876095,
				"element": "Cl" 
			},
			{
				"x": 0.9992564522,
				"y": 0.5611211581,
				"z": -1.0902475628,
				"element": "C" 
			},
			{
				"x": 0.1080278256,
				"y": -0.1233404169,
				"z": -1.9199953059,
				"element": "N" 
			},
			{
				"x": -1.2622188447,
				"y": -0.2756849481,
				"z": -1.8998609062,
				"element": "C" 
			},
			{
				"x": -1.8514409091,
				"y": -0.9814944599,
				"z": -2.6884386466,
				"element": "O" 
			},
			{
				"x": -1.8522833371,
				"y": 0.4790144589,
				"z": -0.9347387202,
				"element": "O" 
			},
			{
				"x": -3.2471966698,
				"y": 0.2664694868,
				"z": -0.7271320547,
				"element": "C" 
			},
			{
				"x": -3.4281015951,
				"y": -0.4990042558,
				"z": 0.5724011555,
				"element": "C" 
			},
			{
				"x": -2.8712447007,
				"y": 0.1607928483,
				"z": 1.610482783,
				"element": "F" 
			},
			{
				"x": -4.7398389838,
				"y": -0.6544578898,
				"z": 0.8296302598,
				"element": "F" 
			},
			{
				"x": -2.8562234425,
				"y": -1.714477457,
				"z": 0.5091181553,
				"element": "F" 
			},
			{
				"x": 0.6830082869,
				"y": 1.0250159729,
				"z": 0.2015128448,
				"element": "C" 
			},
			{
				"x": 1.6321657449,
				"y": 1.6790040621,
				"z": 0.9750395672,
				"element": "C" 
			},
			{
				"x": 4.2827968831,
				"y": 1.564223433,
				"z": -1.1586724744,
				"element": "H" 
			},
			{
				"x": 0.5166474172,
				"y": -0.5803388328,
				"z": -2.7257575933,
				"element": "H" 
			},
			{
				"x": -3.7241194477,
				"y": 1.2438633936,
				"z": -0.6368714171,
				"element": "H" 
			},
			{
				"x": -3.6788509099,
				"y": -0.300219203,
				"z": -1.5531664299,
				"element": "H" 
			},
			{
				"x": -0.3093231784,
				"y": 0.8657280819,
				"z": 0.5959930827,
				"element": "H" 
			},
			{
				"x": 1.39115476,
				"y": 2.0364299053,
				"z": 1.9680334076,
				"element": "H" 
			}
		],
		 "valence_orbital": [ 
			{
				"type": "occ",
				"energy": -0.31562,
				"method": "rhf"
			},
			{
				"type": "occ",
				"energy": -0.3136,
				"method": "rhf"
			},
			{
				"type": "occ",
				"energy": -0.29747,
				"method": "rhf"
			},
			{
				"type": "occ",
				"energy": -0.2854,
				"method": "rhf"
			},
			{
				"type": "occ",
				"energy": -0.26053,
				"method": "rhf"
			},
			{
				"type": "unocc",
				"energy": -0.09747,
				"method": "rhf"
			},
			{
				"type": "unocc",
				"energy": -0.04469,
				"method": "rhf"
			},
			{
				"type": "unocc",
				"energy": -0.02189,
				"method": "rhf"
			},
			{
				"type": "unocc",
				"energy": -0.00275,
				"method": "rhf"
			},
			{
				"type": "unocc",
				"energy": 0.03047,
				"method": "rhf"
			}
		],
		"cosmo_sigma_profile": { 
			"-0.025": 0.0,
			"-0.024": 0.0,
			"-0.023": 0.0,
			"-0.022": 0.0,
			"-0.021": 0.0,
			"-0.02": 0.0,
			"-0.019": 0.0,
			"-0.018": 0.0,
			"-0.017": 0.0,
			"-0.016": 0.0,
			"-0.015": 0.0,
			"-0.014": 0.0,
			"-0.013": 0.5044648668,
			"-0.012": 0.794878800431,
			"-0.011": 0.71247677565,
			"-0.01": 3.0895880177,
			"-0.009": 5.01887308372,
			"-0.008": 7.30594720853,
			"-0.007": 8.76683452434,
			"-0.006": 9.71585279029,
			"-0.005": 11.396293632,
			"-0.004": 14.3033715614,
			"-0.003": 19.8266961991,
			"-0.002": 22.6243333499,
			"-0.001": 29.223468351,
			"0.0": 22.4431865284,
			"0.001": 20.8459333844,
			"0.002": 35.9577080211,
			"0.003": 20.6574211584,
			"0.004": 5.01089871895,
			"0.005": 4.07129376087,
			"0.006": 5.46994335503,
			"0.007": 9.23712418735,
			"0.008": 8.13477194383,
			"0.009": 6.11905903134,
			"0.01": 5.29284588741,
			"0.011": 4.35132282133,
			"0.012": 0.687568751677,
			"0.013": 0.0,
			"0.014": 0.0,
			"0.015": 0.0,
			"0.016": 0.0,
			"0.017": 0.0,
			"0.018": 0.0,
			"0.019": 0.0,
			"0.02": 0.0,
			"0.021": 0.0,
			"0.022": 0.0,
			"0.023": 0.0,
			"0.024": 0.0,
			"0.025": 0.0
		}
	}
}
