{
	 "smiles": "OC[C@H]1OC(C[C@@H]1O)NC1=CC=CC=C1", 
	 "Tm": 424.15, 
	 "num_atms": 30, 
	 "gaussian": { 
		 "optdone": 1, 
		 "sigma_profile": "yes", 
		 "theory": "DFT", 
		 "functional": "B3LYP", 
		 "basiset": "6-31G**", 
		 "properties": { 
			 "R2extent": 4770.7487, 
			 "electric_dipole_moment_norm": 2.34873471682, 
			 "electric_quadrupole_moment_norm": 11.5724514832, 
			 "total_energy": -708.607866314, 
			 "HOMO_LUMO_gap": 0.20201, 
			 "cosmo_polarized_energy": -14.46, 
			 "cosmo_cavitation_energy": 32.18, 
			 "cosmo_dispersion_energy": -23.53, 
			 "cosmo_repulsion_energy": 1.85, 
			 "cosmo_total_nonelectrostatic_energy": 10.5, 
			 "SMD_solvation_energy": 4.16 
		},
		"coords": [
			{
				"x": 2.0479876176,
				"y": -4.5737688638,
				"z": -1.7381361265,
				"element": "O" 
			},
			{
				"x": 2.2516561285,
				"y": -3.1797446114,
				"z": -1.4818528483,
				"element": "C" 
			},
			{
				"x": 1.662670638,
				"y": -2.8126591436,
				"z": -0.1248723224,
				"element": "C" 
			},
			{
				"x": 1.8001064728,
				"y": -1.4093267509,
				"z": 0.111511452,
				"element": "O" 
			},
			{
				"x": 0.6460128464,
				"y": -0.9107752217,
				"z": 0.8014877195,
				"element": "C" 
			},
			{
				"x": -0.2337034622,
				"y": -2.1367132011,
				"z": 1.1105355018,
				"element": "C" 
			},
			{
				"x": 0.1595785537,
				"y": -3.1053539041,
				"z": -0.002543753,
				"element": "C" 
			},
			{
				"x": -0.1313762887,
				"y": -4.4476310131,
				"z": 0.3209553799,
				"element": "O" 
			},
			{
				"x": 0.0069100613,
				"y": 0.0407792125,
				"z": -0.1021785412,
				"element": "N" 
			},
			{
				"x": -0.7140167942,
				"y": 1.1360266894,
				"z": 0.3768476363,
				"element": "C" 
			},
			{
				"x": -1.2881424385,
				"y": 1.153002742,
				"z": 1.6616206109,
				"element": "C" 
			},
			{
				"x": -2.0274912755,
				"y": 2.2580187617,
				"z": 2.0877135593,
				"element": "C" 
			},
			{
				"x": -2.2175655914,
				"y": 3.360516953,
				"z": 1.2562846873,
				"element": "C" 
			},
			{
				"x": -1.6526953995,
				"y": 3.345247564,
				"z": -0.0230524311,
				"element": "C" 
			},
			{
				"x": -0.9110880964,
				"y": 2.2532464031,
				"z": -0.4590511339,
				"element": "C" 
			},
			{
				"x": 2.6866192721,
				"y": -5.068231877,
				"z": -1.2076159653,
				"element": "H" 
			},
			{
				"x": 3.3133569853,
				"y": -2.9062320186,
				"z": -1.5429165595,
				"element": "H" 
			},
			{
				"x": 1.7203951207,
				"y": -2.6390697367,
				"z": -2.2713170805,
				"element": "H" 
			},
			{
				"x": 2.1827902185,
				"y": -3.3815404789,
				"z": 0.6653017851,
				"element": "H" 
			},
			{
				"x": 0.980727184,
				"y": -0.4007508524,
				"z": 1.7173524742,
				"element": "H" 
			},
			{
				"x": 0.0399732635,
				"y": -2.578924047,
				"z": 2.0752668746,
				"element": "H" 
			},
			{
				"x": -1.2965784365,
				"y": -1.8902476098,
				"z": 1.1213667388,
				"element": "H" 
			},
			{
				"x": -0.3363941465,
				"y": -2.804393307,
				"z": -0.9394379343,
				"element": "H" 
			},
			{
				"x": 0.2321402811,
				"y": -4.9711483807,
				"z": -0.4097038739,
				"element": "H" 
			},
			{
				"x": 0.6199133422,
				"y": 0.2510554424,
				"z": -0.8796418095,
				"element": "H" 
			},
			{
				"x": -1.1703440252,
				"y": 0.3048177172,
				"z": 2.3272835458,
				"element": "H" 
			},
			{
				"x": -2.4598157336,
				"y": 2.2486038576,
				"z": 3.0847501131,
				"element": "H" 
			},
			{
				"x": -2.7954114585,
				"y": 4.2148597871,
				"z": 1.5943609645,
				"element": "H" 
			},
			{
				"x": -1.7872839175,
				"y": 4.1943518858,
				"z": -0.6877976058,
				"element": "H" 
			},
			{
				"x": -0.4760309212,
				"y": 2.2526840019,
				"z": -1.4559210579,
				"element": "H" 
			}
		],
		 "valence_orbital": [ 
			{
				"type": "occ",
				"energy": -0.28708,
				"method": "rhf"
			},
			{
				"type": "occ",
				"energy": -0.27106,
				"method": "rhf"
			},
			{
				"type": "occ",
				"energy": -0.26289,
				"method": "rhf"
			},
			{
				"type": "occ",
				"energy": -0.24254,
				"method": "rhf"
			},
			{
				"type": "occ",
				"energy": -0.19629,
				"method": "rhf"
			},
			{
				"type": "unocc",
				"energy": 0.00572,
				"method": "rhf"
			},
			{
				"type": "unocc",
				"energy": 0.02088,
				"method": "rhf"
			},
			{
				"type": "unocc",
				"energy": 0.04664,
				"method": "rhf"
			},
			{
				"type": "unocc",
				"energy": 0.0849,
				"method": "rhf"
			},
			{
				"type": "unocc",
				"energy": 0.09284,
				"method": "rhf"
			}
		],
		"cosmo_sigma_profile": { 
			"-0.025": 0.0,
			"-0.024": 0.0,
			"-0.023": 0.0,
			"-0.022": 0.0,
			"-0.021": 0.0,
			"-0.02": 0.0,
			"-0.019": 0.0,
			"-0.018": 0.0,
			"-0.017": 0.00869164605942,
			"-0.016": 1.04455267898,
			"-0.015": 1.11220699137,
			"-0.014": 1.23939395299,
			"-0.013": 1.05324527232,
			"-0.012": 1.25127993259,
			"-0.011": 1.95931305547,
			"-0.01": 2.29751443755,
			"-0.009": 2.75580051942,
			"-0.008": 3.28222207083,
			"-0.007": 3.94292143628,
			"-0.006": 6.22234829449,
			"-0.005": 18.8600163778,
			"-0.004": 27.5859005527,
			"-0.003": 25.4538428261,
			"-0.002": 21.1536662249,
			"-0.001": 17.8800218343,
			"0.0": 13.2674940626,
			"0.001": 9.24690036345,
			"0.002": 10.9927902782,
			"0.003": 11.068107593,
			"0.004": 10.342367288,
			"0.005": 11.5741272861,
			"0.006": 12.2590885382,
			"0.007": 12.2363879225,
			"0.008": 5.16189529155,
			"0.009": 2.65531558717,
			"0.01": 3.52079567315,
			"0.011": 3.11854678077,
			"0.012": 4.12385046935,
			"0.013": 2.87210758802,
			"0.014": 2.38546509924,
			"0.015": 0.086524803533,
			"0.016": 0.0,
			"0.017": 0.0,
			"0.018": 0.0,
			"0.019": 0.0,
			"0.02": 0.0,
			"0.021": 0.0,
			"0.022": 0.0,
			"0.023": 0.0,
			"0.024": 0.0,
			"0.025": 0.0
		}
	}
}
