{
	 "smiles": "CCOC(=O)COC1=C(O)C=CC=C1", 
	 "Tm": 325.15, 
	 "num_atms": 26, 
	 "gaussian": { 
		 "optdone": 1, 
		 "sigma_profile": "yes", 
		 "theory": "DFT", 
		 "functional": "B3LYP", 
		 "basiset": "6-31G**", 
		 "properties": { 
			 "R2extent": 3958.3319, 
			 "electric_dipole_moment_norm": 4.08766415206, 
			 "electric_quadrupole_moment_norm": 6.63600850286, 
			 "total_energy": -689.186029893, 
			 "HOMO_LUMO_gap": 0.20243, 
			 "cosmo_polarized_energy": -12.87, 
			 "cosmo_cavitation_energy": 30.23, 
			 "cosmo_dispersion_energy": -21.81, 
			 "cosmo_repulsion_energy": 1.76, 
			 "cosmo_total_nonelectrostatic_energy": 10.19, 
			 "SMD_solvation_energy": 6.77 
		},
		"coords": [
			{
				"x": -4.0700529665,
				"y": -2.7811707342,
				"z": -0.0591896806,
				"element": "C" 
			},
			{
				"x": -2.6695334982,
				"y": -3.2121106814,
				"z": 0.3468668778,
				"element": "C" 
			},
			{
				"x": -1.6889502741,
				"y": -2.8237364026,
				"z": -0.6513823815,
				"element": "O" 
			},
			{
				"x": -1.1961965645,
				"y": -1.5716055895,
				"z": -0.5571535954,
				"element": "C" 
			},
			{
				"x": -1.4809747081,
				"y": -0.766793924,
				"z": 0.2965811523,
				"element": "O" 
			},
			{
				"x": -0.2402815267,
				"y": -1.3203236865,
				"z": -1.7245765883,
				"element": "C" 
			},
			{
				"x": 0.4670816063,
				"y": -0.1121538084,
				"z": -1.5962205682,
				"element": "O" 
			},
			{
				"x": 1.5347373661,
				"y": -0.0511467547,
				"z": -0.7192604483,
				"element": "C" 
			},
			{
				"x": 2.16874497,
				"y": 1.2068788332,
				"z": -0.7016716224,
				"element": "C" 
			},
			{
				"x": 1.7036334563,
				"y": 2.222127211,
				"z": -1.4811145824,
				"element": "O" 
			},
			{
				"x": 3.2782782207,
				"y": 1.4056976679,
				"z": 0.1143598,
				"element": "C" 
			},
			{
				"x": 3.7556410464,
				"y": 0.361210342,
				"z": 0.9115791274,
				"element": "C" 
			},
			{
				"x": 3.122253606,
				"y": -0.8789037711,
				"z": 0.8970983274,
				"element": "C" 
			},
			{
				"x": 2.0044540173,
				"y": -1.0887280289,
				"z": 0.0791668231,
				"element": "C" 
			},
			{
				"x": -4.7970201692,
				"y": -3.1509826382,
				"z": 0.6713800869,
				"element": "H" 
			},
			{
				"x": -4.3344304399,
				"y": -3.1854128935,
				"z": -1.0407269399,
				"element": "H" 
			},
			{
				"x": -4.1437895107,
				"y": -1.6912890968,
				"z": -0.0915048184,
				"element": "H" 
			},
			{
				"x": -2.3821435275,
				"y": -2.7745462041,
				"z": 1.3056645592,
				"element": "H" 
			},
			{
				"x": -2.5820104404,
				"y": -4.2994717659,
				"z": 0.4015978737,
				"element": "H" 
			},
			{
				"x": -0.8388371193,
				"y": -1.2324273139,
				"z": -2.637010562,
				"element": "H" 
			},
			{
				"x": 0.4272861378,
				"y": -2.1809530835,
				"z": -1.8520036969,
				"element": "H" 
			},
			{
				"x": 0.9136087179,
				"y": 1.8935340112,
				"z": -1.9362986849,
				"element": "H" 
			},
			{
				"x": 3.7523279686,
				"y": 2.3817515589,
				"z": 0.1118977043,
				"element": "H" 
			},
			{
				"x": 4.6210537092,
				"y": 0.525000363,
				"z": 1.5463667806,
				"element": "H" 
			},
			{
				"x": 3.4851732187,
				"y": -1.6897882682,
				"z": 1.5206449566,
				"element": "H" 
			},
			{
				"x": 1.5111467035,
				"y": -2.0544553416,
				"z": 0.0835100999,
				"element": "H" 
			}
		],
		 "valence_orbital": [ 
			{
				"type": "occ",
				"energy": -0.32055,
				"method": "rhf"
			},
			{
				"type": "occ",
				"energy": -0.31026,
				"method": "rhf"
			},
			{
				"type": "occ",
				"energy": -0.28399,
				"method": "rhf"
			},
			{
				"type": "occ",
				"energy": -0.23465,
				"method": "rhf"
			},
			{
				"type": "occ",
				"energy": -0.20416,
				"method": "rhf"
			},
			{
				"type": "unocc",
				"energy": -0.00173,
				"method": "rhf"
			},
			{
				"type": "unocc",
				"energy": 0.01117,
				"method": "rhf"
			},
			{
				"type": "unocc",
				"energy": 0.02209,
				"method": "rhf"
			},
			{
				"type": "unocc",
				"energy": 0.07567,
				"method": "rhf"
			},
			{
				"type": "unocc",
				"energy": 0.08825,
				"method": "rhf"
			}
		],
		"cosmo_sigma_profile": { 
			"-0.025": 0.0,
			"-0.024": 0.0,
			"-0.023": 0.0,
			"-0.022": 0.0,
			"-0.021": 0.0,
			"-0.02": 0.0,
			"-0.019": 0.0,
			"-0.018": 0.0,
			"-0.017": 0.0,
			"-0.016": 0.0,
			"-0.015": 0.0927505519012,
			"-0.014": 0.301776501365,
			"-0.013": 0.864807261031,
			"-0.012": 0.659076882869,
			"-0.011": 0.433078030578,
			"-0.01": 0.530706993869,
			"-0.009": 3.20818493007,
			"-0.008": 5.55259391091,
			"-0.007": 6.28035368455,
			"-0.006": 10.466344734,
			"-0.005": 17.6663670406,
			"-0.004": 21.7672662563,
			"-0.003": 22.4653591957,
			"-0.002": 17.5979274667,
			"-0.001": 16.1784487288,
			"0.0": 15.7287431074,
			"0.001": 12.1115954517,
			"0.002": 11.6995381094,
			"0.003": 12.2069443018,
			"0.004": 13.4330330016,
			"0.005": 12.2712569411,
			"0.006": 11.4820632693,
			"0.007": 4.7492564834,
			"0.008": 4.06799631194,
			"0.009": 3.94219070552,
			"0.01": 4.14287565109,
			"0.011": 6.18995768014,
			"0.012": 3.32277992981,
			"0.013": 0.10626080552,
			"0.014": 0.0,
			"0.015": 0.0,
			"0.016": 0.0,
			"0.017": 0.0,
			"0.018": 0.0,
			"0.019": 0.0,
			"0.02": 0.0,
			"0.021": 0.0,
			"0.022": 0.0,
			"0.023": 0.0,
			"0.024": 0.0,
			"0.025": 0.0
		}
	}
}
