{
	 "smiles": "CC(=O)NC1CCC(=O)CC1", 
	 "Tm": 411.15, 
	 "num_atms": 24, 
	 "gaussian": { 
		 "optdone": 1, 
		 "sigma_profile": "yes", 
		 "theory": "DFT", 
		 "functional": "B3LYP", 
		 "basiset": "6-31G**", 
		 "properties": { 
			 "R2extent": 2475.0822, 
			 "electric_dipole_moment_norm": 3.08300490593, 
			 "electric_quadrupole_moment_norm": 21.9411888466, 
			 "total_energy": -517.907334758, 
			 "HOMO_LUMO_gap": 0.22438, 
			 "cosmo_polarized_energy": -17.34, 
			 "cosmo_cavitation_energy": 26.34, 
			 "cosmo_dispersion_energy": -19.05, 
			 "cosmo_repulsion_energy": 1.56, 
			 "cosmo_total_nonelectrostatic_energy": 8.85, 
			 "SMD_solvation_energy": 5.0 
		},
		"coords": [
			{
				"x": 0.1622424974,
				"y": 3.0910822739,
				"z": -2.0176055808,
				"element": "C" 
			},
			{
				"x": -0.0350428501,
				"y": 2.6274972225,
				"z": -0.5815690962,
				"element": "C" 
			},
			{
				"x": -0.3745821722,
				"y": 3.3971453419,
				"z": 0.3096585691,
				"element": "O" 
			},
			{
				"x": 0.2001276681,
				"y": 1.2992589828,
				"z": -0.3495943562,
				"element": "N" 
			},
			{
				"x": 0.0600369049,
				"y": 0.7123304539,
				"z": 0.9820034973,
				"element": "C" 
			},
			{
				"x": -1.4127962846,
				"y": 0.363027643,
				"z": 1.3281719665,
				"element": "C" 
			},
			{
				"x": -1.781522706,
				"y": -1.0798725912,
				"z": 0.9580195995,
				"element": "C" 
			},
			{
				"x": -0.9072559306,
				"y": -2.0823785415,
				"z": 1.7066279749,
				"element": "C" 
			},
			{
				"x": -1.2759482117,
				"y": -3.2092719784,
				"z": 1.971474122,
				"element": "O" 
			},
			{
				"x": 0.4732733762,
				"y": -1.5585583031,
				"z": 2.0994682373,
				"element": "C" 
			},
			{
				"x": 0.9895913331,
				"y": -0.5197402348,
				"z": 1.092219706,
				"element": "C" 
			},
			{
				"x": -0.7706144937,
				"y": 3.5350341427,
				"z": -2.3755332048,
				"element": "H" 
			},
			{
				"x": 0.4644451478,
				"y": 2.2955900091,
				"z": -2.7047833883,
				"element": "H" 
			},
			{
				"x": 0.9213339025,
				"y": 3.8779773507,
				"z": -2.0297069459,
				"element": "H" 
			},
			{
				"x": 0.4525823784,
				"y": 0.7014083939,
				"z": -1.1218916472,
				"element": "H" 
			},
			{
				"x": 0.383806059,
				"y": 1.488900914,
				"z": 1.680663728,
				"element": "H" 
			},
			{
				"x": -1.5606657984,
				"y": 0.5005754847,
				"z": 2.4062637677,
				"element": "H" 
			},
			{
				"x": -2.0724503594,
				"y": 1.0831370974,
				"z": 0.8381907606,
				"element": "H" 
			},
			{
				"x": -2.8304111571,
				"y": -1.3145058344,
				"z": 1.1601235668,
				"element": "H" 
			},
			{
				"x": -1.6290638522,
				"y": -1.2475204582,
				"z": -0.1190881385,
				"element": "H" 
			},
			{
				"x": 1.1517653686,
				"y": -2.4099088557,
				"z": 2.1998875885,
				"element": "H" 
			},
			{
				"x": 0.3854756014,
				"y": -1.1062757965,
				"z": 3.0979965108,
				"element": "H" 
			},
			{
				"x": 2.0056361573,
				"y": -0.2032958007,
				"z": 1.3469927001,
				"element": "H" 
			},
			{
				"x": 1.0621374213,
				"y": -1.008536916,
				"z": 0.1100100626,
				"element": "H" 
			}
		],
		 "valence_orbital": [ 
			{
				"type": "occ",
				"energy": -0.33383,
				"method": "rhf"
			},
			{
				"type": "occ",
				"energy": -0.32864,
				"method": "rhf"
			},
			{
				"type": "occ",
				"energy": -0.25527,
				"method": "rhf"
			},
			{
				"type": "occ",
				"energy": -0.24712,
				"method": "rhf"
			},
			{
				"type": "occ",
				"energy": -0.24105,
				"method": "rhf"
			},
			{
				"type": "unocc",
				"energy": -0.01667,
				"method": "rhf"
			},
			{
				"type": "unocc",
				"energy": 0.02599,
				"method": "rhf"
			},
			{
				"type": "unocc",
				"energy": 0.05928,
				"method": "rhf"
			},
			{
				"type": "unocc",
				"energy": 0.07791,
				"method": "rhf"
			},
			{
				"type": "unocc",
				"energy": 0.10234,
				"method": "rhf"
			}
		],
		"cosmo_sigma_profile": { 
			"-0.025": 0.0,
			"-0.024": 0.0,
			"-0.023": 0.0,
			"-0.022": 0.0,
			"-0.021": 0.0,
			"-0.02": 0.0,
			"-0.019": 0.0,
			"-0.018": 0.0,
			"-0.017": 0.0,
			"-0.016": 0.0,
			"-0.015": 0.0,
			"-0.014": 0.277287474839,
			"-0.013": 1.30423494073,
			"-0.012": 1.04851048713,
			"-0.011": 1.35729990385,
			"-0.01": 2.33227155473,
			"-0.009": 1.99119936733,
			"-0.008": 2.02229821337,
			"-0.007": 3.76883247478,
			"-0.006": 10.586834801,
			"-0.005": 14.9585383979,
			"-0.004": 20.964517216,
			"-0.003": 26.1283033464,
			"-0.002": 23.4861299141,
			"-0.001": 22.7306149662,
			"0.0": 10.9867248811,
			"0.001": 5.62971067175,
			"0.002": 5.10395341415,
			"0.003": 4.25073311092,
			"0.004": 2.95984125715,
			"0.005": 2.53612189516,
			"0.006": 4.00780315977,
			"0.007": 2.46471907288,
			"0.008": 2.14359390724,
			"0.009": 3.3307469001,
			"0.01": 3.67600810225,
			"0.011": 4.43324192737,
			"0.012": 5.71273914796,
			"0.013": 5.45736320576,
			"0.014": 5.63925679215,
			"0.015": 3.31333510478,
			"0.016": 0.413247983964,
			"0.017": 0.0,
			"0.018": 0.0,
			"0.019": 0.0,
			"0.02": 0.0,
			"0.021": 0.0,
			"0.022": 0.0,
			"0.023": 0.0,
			"0.024": 0.0,
			"0.025": 0.0
		}
	}
}
