{
	 "smiles": "CCCOC1=C(C=C(Cl)C=C1)C(O)=O", 
	 "Tm": 333.15, 
	 "num_atms": 25, 
	 "gaussian": { 
		 "optdone": 1, 
		 "sigma_profile": "yes", 
		 "theory": "DFT", 
		 "functional": "B3LYP", 
		 "basiset": "6-31G**", 
		 "properties": { 
			 "R2extent": 4072.7181, 
			 "electric_dipole_moment_norm": 6.36755655256, 
			 "electric_quadrupole_moment_norm": 6.6096106958, 
			 "total_energy": -1073.56987449, 
			 "HOMO_LUMO_gap": 0.19698, 
			 "cosmo_polarized_energy": -13.08, 
			 "cosmo_cavitation_energy": 30.59, 
			 "cosmo_dispersion_energy": -21.98, 
			 "cosmo_repulsion_energy": 1.73, 
			 "cosmo_total_nonelectrostatic_energy": 10.34, 
			 "SMD_solvation_energy": 6.01 
		},
		"coords": [
			{
				"x": -2.4518351304,
				"y": 2.1808019122,
				"z": 2.985538679,
				"element": "C" 
			},
			{
				"x": -1.2610092079,
				"y": 2.9130365251,
				"z": 2.3577420763,
				"element": "C" 
			},
			{
				"x": -0.6363369504,
				"y": 2.1952160728,
				"z": 1.171191308,
				"element": "C" 
			},
			{
				"x": -0.1177373845,
				"y": 0.9133274216,
				"z": 1.616737061,
				"element": "O" 
			},
			{
				"x": 0.6593207995,
				"y": 0.2233737946,
				"z": 0.6956956553,
				"element": "C" 
			},
			{
				"x": 0.1833614842,
				"y": -0.9727343466,
				"z": 0.1296293108,
				"element": "C" 
			},
			{
				"x": 1.0077032068,
				"y": -1.6691367199,
				"z": -0.7652812673,
				"element": "C" 
			},
			{
				"x": 2.2681804101,
				"y": -1.1807775187,
				"z": -1.0825243472,
				"element": "C" 
			},
			{
				"x": 3.2863711885,
				"y": -2.0642828063,
				"z": -2.2060520695,
				"element": "Cl" 
			},
			{
				"x": 2.7430447253,
				"y": 0.003895215,
				"z": -0.5140881113,
				"element": "C" 
			},
			{
				"x": 1.9328139078,
				"y": 0.7011088106,
				"z": 0.3768815527,
				"element": "C" 
			},
			{
				"x": -1.16975196,
				"y": -1.5872864442,
				"z": 0.4086692324,
				"element": "C" 
			},
			{
				"x": -1.914742604,
				"y": -1.0076659252,
				"z": 1.3653012805,
				"element": "O" 
			},
			{
				"x": -1.5646865692,
				"y": -2.5589332027,
				"z": -0.1963475964,
				"element": "O" 
			},
			{
				"x": -2.9098152815,
				"y": 2.791461109,
				"z": 3.7690988816,
				"element": "H" 
			},
			{
				"x": -2.1463277411,
				"y": 1.2364988951,
				"z": 3.4457183882,
				"element": "H" 
			},
			{
				"x": -3.2238769071,
				"y": 1.9590275431,
				"z": 2.2406101472,
				"element": "H" 
			},
			{
				"x": -1.5774861268,
				"y": 3.9004060612,
				"z": 1.9983132766,
				"element": "H" 
			},
			{
				"x": -0.4838667485,
				"y": 3.0879245343,
				"z": 3.1111166647,
				"element": "H" 
			},
			{
				"x": 0.1864915975,
				"y": 2.7816791823,
				"z": 0.7483548564,
				"element": "H" 
			},
			{
				"x": -1.3740689998,
				"y": 2.0150745121,
				"z": 0.3773015073,
				"element": "H" 
			},
			{
				"x": 0.6278198978,
				"y": -2.587139908,
				"z": -1.1980431909,
				"element": "H" 
			},
			{
				"x": 3.7345513579,
				"y": 0.3677449985,
				"z": -0.7595517543,
				"element": "H" 
			},
			{
				"x": 2.2920028126,
				"y": 1.6115756994,
				"z": 0.8455101677,
				"element": "H" 
			},
			{
				"x": -1.4119197767,
				"y": -0.2559954156,
				"z": 1.7437782913,
				"element": "H" 
			}
		],
		 "valence_orbital": [ 
			{
				"type": "occ",
				"energy": -0.31303,
				"method": "rhf"
			},
			{
				"type": "occ",
				"energy": -0.30605,
				"method": "rhf"
			},
			{
				"type": "occ",
				"energy": -0.27992,
				"method": "rhf"
			},
			{
				"type": "occ",
				"energy": -0.27057,
				"method": "rhf"
			},
			{
				"type": "occ",
				"energy": -0.25461,
				"method": "rhf"
			},
			{
				"type": "unocc",
				"energy": -0.05763,
				"method": "rhf"
			},
			{
				"type": "unocc",
				"energy": -0.02904,
				"method": "rhf"
			},
			{
				"type": "unocc",
				"energy": 0.02105,
				"method": "rhf"
			},
			{
				"type": "unocc",
				"energy": 0.04732,
				"method": "rhf"
			},
			{
				"type": "unocc",
				"energy": 0.0673,
				"method": "rhf"
			}
		],
		"cosmo_sigma_profile": { 
			"-0.025": 0.0,
			"-0.024": 0.0,
			"-0.023": 0.0,
			"-0.022": 0.0,
			"-0.021": 0.0,
			"-0.02": 0.0,
			"-0.019": 0.0,
			"-0.018": 0.0,
			"-0.017": 0.0,
			"-0.016": 0.0,
			"-0.015": 0.0,
			"-0.014": 0.0,
			"-0.013": 0.0,
			"-0.012": 0.0,
			"-0.011": 0.0,
			"-0.01": 0.0,
			"-0.009": 0.501147392678,
			"-0.008": 5.08810334257,
			"-0.007": 7.94785712629,
			"-0.006": 10.9834617677,
			"-0.005": 13.9348354076,
			"-0.004": 20.0260024346,
			"-0.003": 21.0907810822,
			"-0.002": 20.1551002863,
			"-0.001": 23.1194534063,
			"0.0": 26.6074142512,
			"0.001": 27.0799434079,
			"0.002": 12.3153129862,
			"0.003": 9.1120315326,
			"0.004": 12.5297862345,
			"0.005": 6.84994340223,
			"0.006": 2.19454417128,
			"0.007": 2.65145049469,
			"0.008": 3.15477771868,
			"0.009": 2.9437911826,
			"0.01": 4.12089951386,
			"0.011": 6.02429166621,
			"0.012": 4.89966831859,
			"0.013": 1.89937773467,
			"0.014": 0.162832719589,
			"0.015": 0.0,
			"0.016": 0.0,
			"0.017": 0.0,
			"0.018": 0.0,
			"0.019": 0.0,
			"0.02": 0.0,
			"0.021": 0.0,
			"0.022": 0.0,
			"0.023": 0.0,
			"0.024": 0.0,
			"0.025": 0.0
		}
	}
}
