{
	 "smiles": "NC(=O)CCOC1=CC(F)=CC=C1", 
	 "Tm": 368.15, 
	 "num_atms": 23, 
	 "gaussian": { 
		 "optdone": 1, 
		 "sigma_profile": "yes", 
		 "theory": "DFT", 
		 "functional": "B3LYP", 
		 "basiset": "6-31G**", 
		 "properties": { 
			 "R2extent": 3554.0998, 
			 "electric_dipole_moment_norm": 3.32972393751, 
			 "electric_quadrupole_moment_norm": 17.8103211136, 
			 "total_energy": -654.027739628, 
			 "HOMO_LUMO_gap": 0.22135, 
			 "cosmo_polarized_energy": -15.51, 
			 "cosmo_cavitation_energy": 28.15, 
			 "cosmo_dispersion_energy": -20.16, 
			 "cosmo_repulsion_energy": 1.62, 
			 "cosmo_total_nonelectrostatic_energy": 9.61, 
			 "SMD_solvation_energy": 6.23 
		},
		"coords": [
			{
				"x": 1.4525485428,
				"y": -3.5814280177,
				"z": -1.0157159508,
				"element": "N" 
			},
			{
				"x": 0.9525308101,
				"y": -2.8318447254,
				"z": 0.0108904487,
				"element": "C" 
			},
			{
				"x": 1.6276550778,
				"y": -2.4905977051,
				"z": 0.9705862595,
				"element": "O" 
			},
			{
				"x": -0.5389815934,
				"y": -2.4978580721,
				"z": -0.0807280654,
				"element": "C" 
			},
			{
				"x": -0.7976504128,
				"y": -1.0480932885,
				"z": 0.2973176778,
				"element": "C" 
			},
			{
				"x": -0.3087031275,
				"y": -0.2440955825,
				"z": -0.7766695053,
				"element": "O" 
			},
			{
				"x": -0.3711619946,
				"y": 1.1130169009,
				"z": -0.6601052016,
				"element": "C" 
			},
			{
				"x": 0.1225470429,
				"y": 1.8326974313,
				"z": -1.7581590079,
				"element": "C" 
			},
			{
				"x": 0.0888201605,
				"y": 3.2164503032,
				"z": -1.7168433589,
				"element": "C" 
			},
			{
				"x": 0.5656610476,
				"y": 3.9035982016,
				"z": -2.7769751105,
				"element": "F" 
			},
			{
				"x": -0.4167319757,
				"y": 3.9248191304,
				"z": -0.629084044,
				"element": "C" 
			},
			{
				"x": -0.901936041,
				"y": 3.1914377311,
				"z": 0.4508537838,
				"element": "C" 
			},
			{
				"x": -0.8871402227,
				"y": 1.7932887031,
				"z": 0.4511679958,
				"element": "C" 
			},
			{
				"x": 2.4465126129,
				"y": -3.7586008602,
				"z": -1.0175022067,
				"element": "H" 
			},
			{
				"x": 0.9463778817,
				"y": -3.6985524421,
				"z": -1.8785461749,
				"element": "H" 
			},
			{
				"x": -0.9543448833,
				"y": -2.7045990573,
				"z": -1.0725039863,
				"element": "H" 
			},
			{
				"x": -1.0580792002,
				"y": -3.1444919729,
				"z": 0.6366170958,
				"element": "H" 
			},
			{
				"x": -0.2613780386,
				"y": -0.8179517246,
				"z": 1.2251689896,
				"element": "H" 
			},
			{
				"x": -1.870908682,
				"y": -0.8676209593,
				"z": 0.4439430471,
				"element": "H" 
			},
			{
				"x": 0.5237324366,
				"y": 1.3110537731,
				"z": -2.6187915595,
				"element": "H" 
			},
			{
				"x": -0.4215966315,
				"y": 5.0084764875,
				"z": -0.6425945129,
				"element": "H" 
			},
			{
				"x": -1.3009477462,
				"y": 3.7146018625,
				"z": 1.314842547,
				"element": "H" 
			},
			{
				"x": -1.2685250633,
				"y": 1.2536938829,
				"z": 1.3087308394,
				"element": "H" 
			}
		],
		 "valence_orbital": [ 
			{
				"type": "occ",
				"energy": -0.31632,
				"method": "rhf"
			},
			{
				"type": "occ",
				"energy": -0.27295,
				"method": "rhf"
			},
			{
				"type": "occ",
				"energy": -0.25309,
				"method": "rhf"
			},
			{
				"type": "occ",
				"energy": -0.24435,
				"method": "rhf"
			},
			{
				"type": "occ",
				"energy": -0.22329,
				"method": "rhf"
			},
			{
				"type": "unocc",
				"energy": -0.00194,
				"method": "rhf"
			},
			{
				"type": "unocc",
				"energy": 0.01355,
				"method": "rhf"
			},
			{
				"type": "unocc",
				"energy": 0.02477,
				"method": "rhf"
			},
			{
				"type": "unocc",
				"energy": 0.06839,
				"method": "rhf"
			},
			{
				"type": "unocc",
				"energy": 0.08821,
				"method": "rhf"
			}
		],
		"cosmo_sigma_profile": { 
			"-0.025": 0.0,
			"-0.024": 0.0,
			"-0.023": 0.0,
			"-0.022": 0.0,
			"-0.021": 0.0,
			"-0.02": 0.0,
			"-0.019": 0.0,
			"-0.018": 0.0,
			"-0.017": 0.0,
			"-0.016": 0.0,
			"-0.015": 0.170497872312,
			"-0.014": 1.89091119862,
			"-0.013": 2.47906880653,
			"-0.012": 2.42666625059,
			"-0.011": 2.95904692165,
			"-0.01": 2.73836686495,
			"-0.009": 2.0467689259,
			"-0.008": 2.00394373846,
			"-0.007": 6.52327234361,
			"-0.006": 14.2308374084,
			"-0.005": 17.0965061694,
			"-0.004": 17.8910381101,
			"-0.003": 11.497535915,
			"-0.002": 11.1741948854,
			"-0.001": 8.48730740357,
			"0.0": 8.55579077121,
			"0.001": 12.6577828672,
			"0.002": 14.9237623196,
			"0.003": 19.0463693113,
			"0.004": 22.8430410427,
			"0.005": 15.1399768318,
			"0.006": 4.64521641293,
			"0.007": 3.03386981975,
			"0.008": 3.41487762429,
			"0.009": 1.74483039481,
			"0.01": 0.688136226601,
			"0.011": 1.46870473195,
			"0.012": 2.22581592437,
			"0.013": 3.05871841439,
			"0.014": 5.39869140639,
			"0.015": 0.800923282291,
			"0.016": 0.0,
			"0.017": 0.0,
			"0.018": 0.0,
			"0.019": 0.0,
			"0.02": 0.0,
			"0.021": 0.0,
			"0.022": 0.0,
			"0.023": 0.0,
			"0.024": 0.0,
			"0.025": 0.0
		}
	}
}
