{
	 "smiles": "COC(=O)CC1N(CCC2=C1C=CC=C2)S(C)(=O)=O", 
	 "Tm": 377.15, 
	 "num_atms": 36, 
	 "gaussian": { 
		 "optdone": 1, 
		 "sigma_profile": "yes", 
		 "theory": "DFT", 
		 "functional": "B3LYP", 
		 "basiset": "6-31G**", 
		 "properties": { 
			 "R2extent": 5316.2593, 
			 "electric_dipole_moment_norm": 5.98010570893, 
			 "electric_quadrupole_moment_norm": 18.9355638435, 
			 "total_energy": -1259.39607254, 
			 "HOMO_LUMO_gap": 0.2336, 
			 "cosmo_polarized_energy": -20.25, 
			 "cosmo_cavitation_energy": 37.1, 
			 "cosmo_dispersion_energy": -26.21, 
			 "cosmo_repulsion_energy": 1.94, 
			 "cosmo_total_nonelectrostatic_energy": 12.82, 
			 "SMD_solvation_energy": 5.89 
		},
		"coords": [
			{
				"x": -2.401954663,
				"y": -2.6626682274,
				"z": 1.1119516399,
				"element": "C" 
			},
			{
				"x": -1.6334556062,
				"y": -1.4999198435,
				"z": 0.751788063,
				"element": "O" 
			},
			{
				"x": -1.5356964286,
				"y": -0.5659376923,
				"z": 1.7245375401,
				"element": "C" 
			},
			{
				"x": -2.0045210133,
				"y": -0.7131517422,
				"z": 2.8301442001,
				"element": "O" 
			},
			{
				"x": -0.725593,
				"y": 0.6651475858,
				"z": 1.3515906615,
				"element": "C" 
			},
			{
				"x": -0.1513436176,
				"y": 0.9171936271,
				"z": -0.0549126957,
				"element": "C" 
			},
			{
				"x": -1.0947567761,
				"y": 1.4917350332,
				"z": -1.048598159,
				"element": "N" 
			},
			{
				"x": -0.3813676126,
				"y": 1.9623843233,
				"z": -2.2463986292,
				"element": "C" 
			},
			{
				"x": 0.318340615,
				"y": 0.81647555,
				"z": -2.9872914817,
				"element": "C" 
			},
			{
				"x": 0.983826999,
				"y": -0.1791773598,
				"z": -2.0517571145,
				"element": "C" 
			},
			{
				"x": 0.7348528818,
				"y": -0.176691283,
				"z": -0.6651664636,
				"element": "C" 
			},
			{
				"x": 1.4000387803,
				"y": -1.1095387431,
				"z": 0.142984818,
				"element": "C" 
			},
			{
				"x": 2.2764082233,
				"y": -2.0454738403,
				"z": -0.4011494005,
				"element": "C" 
			},
			{
				"x": 2.5068827297,
				"y": -2.0608375593,
				"z": -1.7773699624,
				"element": "C" 
			},
			{
				"x": 1.8623835554,
				"y": -1.1306142638,
				"z": -2.5877154777,
				"element": "C" 
			},
			{
				"x": -2.7250267265,
				"y": 1.1116550852,
				"z": -1.2152717442,
				"element": "S" 
			},
			{
				"x": -2.860573457,
				"y": -0.4936988578,
				"z": -2.0370332581,
				"element": "C" 
			},
			{
				"x": -3.2824589813,
				"y": 0.9587620932,
				"z": 0.1308636092,
				"element": "O" 
			},
			{
				"x": -3.2721015021,
				"y": 2.1045215529,
				"z": -2.1432605184,
				"element": "O" 
			},
			{
				"x": -2.3446744902,
				"y": -3.3321192154,
				"z": 0.2534197914,
				"element": "H" 
			},
			{
				"x": -3.437880445,
				"y": -2.3826839105,
				"z": 1.3167555097,
				"element": "H" 
			},
			{
				"x": -1.9810703762,
				"y": -3.1396138874,
				"z": 1.9995347963,
				"element": "H" 
			},
			{
				"x": 0.1173429755,
				"y": 0.6717011941,
				"z": 2.0517187922,
				"element": "H" 
			},
			{
				"x": -1.3463583314,
				"y": 1.5195727642,
				"z": 1.6268610216,
				"element": "H" 
			},
			{
				"x": 0.5238810367,
				"y": 1.769098275,
				"z": 0.1217822158,
				"element": "H" 
			},
			{
				"x": -1.0849130739,
				"y": 2.4923942818,
				"z": -2.8882013742,
				"element": "H" 
			},
			{
				"x": 0.3589215312,
				"y": 2.6940465039,
				"z": -1.8991001135,
				"element": "H" 
			},
			{
				"x": -0.4060733391,
				"y": 0.2889049124,
				"z": -3.6223273101,
				"element": "H" 
			},
			{
				"x": 1.0641136113,
				"y": 1.2325384721,
				"z": -3.6758801479,
				"element": "H" 
			},
			{
				"x": 1.2324107268,
				"y": -1.1148077698,
				"z": 1.2147182998,
				"element": "H" 
			},
			{
				"x": 2.7735188623,
				"y": -2.7606670697,
				"z": 0.247671322,
				"element": "H" 
			},
			{
				"x": 3.1876902342,
				"y": -2.785928429,
				"z": -2.2136916699,
				"element": "H" 
			},
			{
				"x": 2.0460588617,
				"y": -1.1299900363,
				"z": -3.6599281147,
				"element": "H" 
			},
			{
				"x": -3.9207354837,
				"y": -0.7545130844,
				"z": -2.0300014788,
				"element": "H" 
			},
			{
				"x": -2.5068969177,
				"y": -0.3946514251,
				"z": -3.0631250509,
				"element": "H" 
			},
			{
				"x": -2.2776197826,
				"y": -1.2223470141,
				"z": -1.4766421152,
				"element": "H" 
			}
		],
		 "valence_orbital": [ 
			{
				"type": "occ",
				"energy": -0.2945,
				"method": "rhf"
			},
			{
				"type": "occ",
				"energy": -0.27034,
				"method": "rhf"
			},
			{
				"type": "occ",
				"energy": -0.25739,
				"method": "rhf"
			},
			{
				"type": "occ",
				"energy": -0.25406,
				"method": "rhf"
			},
			{
				"type": "occ",
				"energy": -0.24801,
				"method": "rhf"
			},
			{
				"type": "unocc",
				"energy": -0.01441,
				"method": "rhf"
			},
			{
				"type": "unocc",
				"energy": -0.01293,
				"method": "rhf"
			},
			{
				"type": "unocc",
				"energy": 0.01538,
				"method": "rhf"
			},
			{
				"type": "unocc",
				"energy": 0.05674,
				"method": "rhf"
			},
			{
				"type": "unocc",
				"energy": 0.06661,
				"method": "rhf"
			}
		],
		"cosmo_sigma_profile": { 
			"-0.025": 0.0,
			"-0.024": 0.0,
			"-0.023": 0.0,
			"-0.022": 0.0,
			"-0.021": 0.0,
			"-0.02": 0.0,
			"-0.019": 0.0,
			"-0.018": 0.0,
			"-0.017": 0.0,
			"-0.016": 0.0,
			"-0.015": 0.0,
			"-0.014": 0.0,
			"-0.013": 0.0,
			"-0.012": 0.0,
			"-0.011": 0.00218847619366,
			"-0.01": 0.145962618403,
			"-0.009": 1.60311886231,
			"-0.008": 6.47013734,
			"-0.007": 12.0952142134,
			"-0.006": 18.98502957,
			"-0.005": 29.3885844957,
			"-0.004": 33.7635747184,
			"-0.003": 33.1560718749,
			"-0.002": 20.2156544944,
			"-0.001": 14.5977140947,
			"0.0": 10.177905225,
			"0.001": 10.0463533823,
			"0.002": 9.42961282436,
			"0.003": 10.7680803974,
			"0.004": 11.9200610166,
			"0.005": 12.0942772601,
			"0.006": 10.9832363293,
			"0.007": 6.84201540747,
			"0.008": 5.44205265461,
			"0.009": 5.09854726033,
			"0.01": 6.60589148742,
			"0.011": 9.66342779885,
			"0.012": 11.0075406699,
			"0.013": 1.96940523897,
			"0.014": 0.0387026241444,
			"0.015": 0.0,
			"0.016": 0.0,
			"0.017": 0.0,
			"0.018": 0.0,
			"0.019": 0.0,
			"0.02": 0.0,
			"0.021": 0.0,
			"0.022": 0.0,
			"0.023": 0.0,
			"0.024": 0.0,
			"0.025": 0.0
		}
	}
}
