{
	 "smiles": "ClC(=CC1=CC=CC=C1)C1=CC=C2CCC3=C2C1=CC=C3", 
	 "Tm": 350.15, 
	 "num_atms": 36, 
	 "gaussian": { 
		 "optdone": 1, 
		 "sigma_profile": "yes", 
		 "theory": "DFT", 
		 "functional": "B3LYP", 
		 "basiset": "6-31G**", 
		 "properties": { 
			 "R2extent": 8945.1418, 
			 "electric_dipole_moment_norm": 2.1913806835, 
			 "electric_quadrupole_moment_norm": 10.4515934536, 
			 "total_energy": -1231.36631866, 
			 "HOMO_LUMO_gap": 0.15587, 
			 "cosmo_polarized_energy": -7.55, 
			 "cosmo_cavitation_energy": 40.44, 
			 "cosmo_dispersion_energy": -29.44, 
			 "cosmo_repulsion_energy": 2.23, 
			 "cosmo_total_nonelectrostatic_energy": 13.23, 
			 "SMD_solvation_energy": 5.51 
		},
		"coords": [
			{
				"x": -2.5651084542,
				"y": 0.7083460725,
				"z": 0.0406876539,
				"element": "Cl" 
			},
			{
				"x": -1.1281349291,
				"y": 0.8068044813,
				"z": 1.0819661519,
				"element": "C" 
			},
			{
				"x": -1.1903417188,
				"y": 1.137429219,
				"z": 2.3866471578,
				"element": "C" 
			},
			{
				"x": -2.2728431112,
				"y": 1.5065109801,
				"z": 3.3063246348,
				"element": "C" 
			},
			{
				"x": -3.5920880913,
				"y": 1.8384232493,
				"z": 2.9374526144,
				"element": "C" 
			},
			{
				"x": -4.5341740683,
				"y": 2.1844961613,
				"z": 3.9042879606,
				"element": "C" 
			},
			{
				"x": -4.1938997148,
				"y": 2.2090256658,
				"z": 5.2582332418,
				"element": "C" 
			},
			{
				"x": -2.8900172558,
				"y": 1.8897447098,
				"z": 5.6418880958,
				"element": "C" 
			},
			{
				"x": -1.9457621758,
				"y": 1.5491351749,
				"z": 4.6781187921,
				"element": "C" 
			},
			{
				"x": 0.1493238282,
				"y": 0.5339821144,
				"z": 0.3809881653,
				"element": "C" 
			},
			{
				"x": 1.114830579,
				"y": 1.5354165925,
				"z": 0.3405009318,
				"element": "C" 
			},
			{
				"x": 2.374721189,
				"y": 1.3776595445,
				"z": -0.2940276061,
				"element": "C" 
			},
			{
				"x": 2.6598464135,
				"y": 0.1801993321,
				"z": -0.9095202081,
				"element": "C" 
			},
			{
				"x": 3.8798354595,
				"y": -0.3132122592,
				"z": -1.6658571039,
				"element": "C" 
			},
			{
				"x": 3.5304031344,
				"y": -1.7853060587,
				"z": -2.0753390897,
				"element": "C" 
			},
			{
				"x": 2.1372294988,
				"y": -2.023823462,
				"z": -1.5192360827,
				"element": "C" 
			},
			{
				"x": 1.6922706571,
				"y": -0.8489764525,
				"z": -0.871965469,
				"element": "C" 
			},
			{
				"x": 0.4310037887,
				"y": -0.7295499671,
				"z": -0.2417402382,
				"element": "C" 
			},
			{
				"x": -0.3923732699,
				"y": -1.888522258,
				"z": -0.2693209874,
				"element": "C" 
			},
			{
				"x": 0.0452400834,
				"y": -3.0388911509,
				"z": -0.9022269188,
				"element": "C" 
			},
			{
				"x": 1.3118683778,
				"y": -3.125943571,
				"z": -1.5401092185,
				"element": "C" 
			},
			{
				"x": -0.2142628536,
				"y": 1.096324659,
				"z": 2.867506537,
				"element": "H" 
			},
			{
				"x": -3.8799107115,
				"y": 1.8351133013,
				"z": 1.8954918379,
				"element": "H" 
			},
			{
				"x": -5.5437341803,
				"y": 2.4394904952,
				"z": 3.594264187,
				"element": "H" 
			},
			{
				"x": -4.935251845,
				"y": 2.4778516915,
				"z": 6.005156677,
				"element": "H" 
			},
			{
				"x": -2.6075788432,
				"y": 1.9088891687,
				"z": 6.690648511,
				"element": "H" 
			},
			{
				"x": -0.9318448799,
				"y": 1.3051903077,
				"z": 4.9852791638,
				"element": "H" 
			},
			{
				"x": 0.8808144065,
				"y": 2.4887723059,
				"z": 0.8049777081,
				"element": "H" 
			},
			{
				"x": 3.080802966,
				"y": 2.2035598681,
				"z": -0.2898956214,
				"element": "H" 
			},
			{
				"x": 4.779790423,
				"y": -0.2724911762,
				"z": -1.0416178267,
				"element": "H" 
			},
			{
				"x": 4.0841529675,
				"y": 0.310471934,
				"z": -2.5436568332,
				"element": "H" 
			},
			{
				"x": 4.2538017685,
				"y": -2.4983437408,
				"z": -1.6637494833,
				"element": "H" 
			},
			{
				"x": 3.5537399036,
				"y": -1.9142018686,
				"z": -3.163505424,
				"element": "H" 
			},
			{
				"x": -1.3655405375,
				"y": -1.8744484653,
				"z": 0.2081773981,
				"element": "H" 
			},
			{
				"x": -0.6023484027,
				"y": -3.9115167139,
				"z": -0.9097059174,
				"element": "H" 
			},
			{
				"x": 1.6091395985,
				"y": -4.052809885,
				"z": -2.0234233917,
				"element": "H" 
			}
		],
		 "valence_orbital": [ 
			{
				"type": "occ",
				"energy": -0.27259,
				"method": "rhf"
			},
			{
				"type": "occ",
				"energy": -0.24943,
				"method": "rhf"
			},
			{
				"type": "occ",
				"energy": -0.24265,
				"method": "rhf"
			},
			{
				"type": "occ",
				"energy": -0.22257,
				"method": "rhf"
			},
			{
				"type": "occ",
				"energy": -0.20329,
				"method": "rhf"
			},
			{
				"type": "unocc",
				"energy": -0.04742,
				"method": "rhf"
			},
			{
				"type": "unocc",
				"energy": -0.02818,
				"method": "rhf"
			},
			{
				"type": "unocc",
				"energy": -0.01004,
				"method": "rhf"
			},
			{
				"type": "unocc",
				"energy": 0.00113,
				"method": "rhf"
			},
			{
				"type": "unocc",
				"energy": 0.02037,
				"method": "rhf"
			}
		],
		"cosmo_sigma_profile": { 
			"-0.025": 0.0,
			"-0.024": 0.0,
			"-0.023": 0.0,
			"-0.022": 0.0,
			"-0.021": 0.0,
			"-0.02": 0.0,
			"-0.019": 0.0,
			"-0.018": 0.0,
			"-0.017": 0.0,
			"-0.016": 0.0,
			"-0.015": 0.0,
			"-0.014": 0.0,
			"-0.013": 0.0,
			"-0.012": 0.0,
			"-0.011": 0.0,
			"-0.01": 0.0,
			"-0.009": 0.0,
			"-0.008": 0.0580608283989,
			"-0.007": 1.87690576189,
			"-0.006": 10.5668131615,
			"-0.005": 20.555358322,
			"-0.004": 31.8173108406,
			"-0.003": 31.5910507328,
			"-0.002": 29.6272932943,
			"-0.001": 29.4170135976,
			"0.0": 20.7523584457,
			"0.001": 23.7302061226,
			"0.002": 22.9489501506,
			"0.003": 33.3793968019,
			"0.004": 34.5742362733,
			"0.005": 29.8794869839,
			"0.006": 5.37489628995,
			"0.007": 0.0,
			"0.008": 0.0,
			"0.009": 0.0,
			"0.01": 0.0,
			"0.011": 0.0,
			"0.012": 0.0,
			"0.013": 0.0,
			"0.014": 0.0,
			"0.015": 0.0,
			"0.016": 0.0,
			"0.017": 0.0,
			"0.018": 0.0,
			"0.019": 0.0,
			"0.02": 0.0,
			"0.021": 0.0,
			"0.022": 0.0,
			"0.023": 0.0,
			"0.024": 0.0,
			"0.025": 0.0
		}
	}
}
