{
	 "smiles": "CN1C2=C(C=CC=C2)N=C1C(=NNC1=C(Cl)C=CC(Cl)=C1)C#N", 
	 "Tm": 518.15, 
	 "num_atms": 34, 
	 "gaussian": { 
		 "optdone": 1, 
		 "sigma_profile": "yes", 
		 "theory": "DFT", 
		 "functional": "B3LYP", 
		 "basiset": "6-31G**", 
		 "properties": { 
			 "R2extent": 12150.7173, 
			 "electric_dipole_moment_norm": 1.98927242227, 
			 "electric_quadrupole_moment_norm": 18.1072480264, 
			 "total_energy": -1810.41794371, 
			 "HOMO_LUMO_gap": 0.13388, 
			 "cosmo_polarized_energy": -19.86, 
			 "cosmo_cavitation_energy": 44.25, 
			 "cosmo_dispersion_energy": -30.98, 
			 "cosmo_repulsion_energy": 2.35, 
			 "cosmo_total_nonelectrostatic_energy": 15.62, 
			 "SMD_solvation_energy": 5.24 
		},
		"coords": [
			{
				"x": 1.1775142783,
				"y": -0.4372613415,
				"z": -3.8325981323,
				"element": "C" 
			},
			{
				"x": 1.7966061,
				"y": -0.5662898637,
				"z": -2.5220370951,
				"element": "N" 
			},
			{
				"x": 2.9490596839,
				"y": -1.2857282048,
				"z": -2.2520926559,
				"element": "C" 
			},
			{
				"x": 3.1141115477,
				"y": -1.2152390591,
				"z": -0.8472303381,
				"element": "C" 
			},
			{
				"x": 4.2020700839,
				"y": -1.8571798484,
				"z": -0.2377527714,
				"element": "C" 
			},
			{
				"x": 5.0886326784,
				"y": -2.5516830098,
				"z": -1.0515496766,
				"element": "C" 
			},
			{
				"x": 4.9086988142,
				"y": -2.6126354224,
				"z": -2.4500047467,
				"element": "C" 
			},
			{
				"x": 3.8386945491,
				"y": -1.9803417442,
				"z": -3.077016609,
				"element": "C" 
			},
			{
				"x": 2.1043838972,
				"y": -0.4636378376,
				"z": -0.2816180992,
				"element": "N" 
			},
			{
				"x": 1.3446792759,
				"y": -0.1001067456,
				"z": -1.2927035747,
				"element": "C" 
			},
			{
				"x": 0.1471378598,
				"y": 0.7394659002,
				"z": -1.1471854225,
				"element": "C" 
			},
			{
				"x": -0.5726721816,
				"y": 0.6244716703,
				"z": -0.0625940787,
				"element": "N" 
			},
			{
				"x": -1.5992678344,
				"y": 1.4363918264,
				"z": 0.1304109307,
				"element": "N" 
			},
			{
				"x": -2.3593850477,
				"y": 1.4115848198,
				"z": 1.3131672075,
				"element": "C" 
			},
			{
				"x": -2.7408392352,
				"y": 0.2357895446,
				"z": 1.9876693318,
				"element": "C" 
			},
			{
				"x": -2.3431397459,
				"y": -1.3566031424,
				"z": 1.3914144776,
				"element": "Cl" 
			},
			{
				"x": -3.5131721099,
				"y": 0.3246828664,
				"z": 3.1471097812,
				"element": "C" 
			},
			{
				"x": -3.9475243225,
				"y": 1.5540630718,
				"z": 3.6357311567,
				"element": "C" 
			},
			{
				"x": -3.5946718141,
				"y": 2.7115229105,
				"z": 2.9440236554,
				"element": "C" 
			},
			{
				"x": -4.1331479744,
				"y": 4.2741905755,
				"z": 3.5275909528,
				"element": "Cl" 
			},
			{
				"x": -2.8023480852,
				"y": 2.6492160386,
				"z": 1.8040697055,
				"element": "C" 
			},
			{
				"x": -0.1727503497,
				"y": 1.737469649,
				"z": -2.1304419981,
				"element": "C" 
			},
			{
				"x": -0.5189689358,
				"y": 2.5807397803,
				"z": -2.8574471691,
				"element": "N" 
			},
			{
				"x": 1.4052656276,
				"y": -1.3305900815,
				"z": -4.4184359094,
				"element": "H" 
			},
			{
				"x": 1.5402401953,
				"y": 0.4447441614,
				"z": -4.3702508267,
				"element": "H" 
			},
			{
				"x": 0.0937941866,
				"y": -0.366329593,
				"z": -3.7318561892,
				"element": "H" 
			},
			{
				"x": 4.3322730189,
				"y": -1.8045794613,
				"z": 0.8381687589,
				"element": "H" 
			},
			{
				"x": 5.939982083,
				"y": -3.0587622962,
				"z": -0.6074339621,
				"element": "H" 
			},
			{
				"x": 5.6251010563,
				"y": -3.162771116,
				"z": -3.052890966,
				"element": "H" 
			},
			{
				"x": 3.7145317011,
				"y": -2.0248202974,
				"z": -4.1545730509,
				"element": "H" 
			},
			{
				"x": -1.7455835798,
				"y": 2.2269209212,
				"z": -0.4982745213,
				"element": "H" 
			},
			{
				"x": -3.7927196041,
				"y": -0.5904325287,
				"z": 3.6569635821,
				"element": "H" 
			},
			{
				"x": -4.556080789,
				"y": 1.6098638089,
				"z": 4.5305064089,
				"element": "H" 
			},
			{
				"x": -2.5058050274,
				"y": 3.5617740488,
				"z": 1.297661844,
				"element": "H" 
			}
		],
		 "valence_orbital": [ 
			{
				"type": "occ",
				"energy": -0.27283,
				"method": "rhf"
			},
			{
				"type": "occ",
				"energy": -0.26345,
				"method": "rhf"
			},
			{
				"type": "occ",
				"energy": -0.24742,
				"method": "rhf"
			},
			{
				"type": "occ",
				"energy": -0.2268,
				"method": "rhf"
			},
			{
				"type": "occ",
				"energy": -0.21604,
				"method": "rhf"
			},
			{
				"type": "unocc",
				"energy": -0.08216,
				"method": "rhf"
			},
			{
				"type": "unocc",
				"energy": -0.03619,
				"method": "rhf"
			},
			{
				"type": "unocc",
				"energy": -0.02639,
				"method": "rhf"
			},
			{
				"type": "unocc",
				"energy": -0.01495,
				"method": "rhf"
			},
			{
				"type": "unocc",
				"energy": 0.00473,
				"method": "rhf"
			}
		],
		"cosmo_sigma_profile": { 
			"-0.025": 0.0,
			"-0.024": 0.0,
			"-0.023": 0.0,
			"-0.022": 0.0,
			"-0.021": 0.0,
			"-0.02": 0.0,
			"-0.019": 0.0,
			"-0.018": 0.0,
			"-0.017": 0.0,
			"-0.016": 0.431225994241,
			"-0.015": 1.26752523999,
			"-0.014": 1.12264440631,
			"-0.013": 1.43511103804,
			"-0.012": 1.36005118555,
			"-0.011": 1.38364665843,
			"-0.01": 2.14643063677,
			"-0.009": 2.51315011037,
			"-0.008": 7.33211943485,
			"-0.007": 13.3771382258,
			"-0.006": 17.0655429992,
			"-0.005": 22.2957452805,
			"-0.004": 25.7745705595,
			"-0.003": 22.9654536419,
			"-0.002": 19.5973657132,
			"-0.001": 23.5805602558,
			"0.0": 31.0759093095,
			"0.001": 29.7415230459,
			"0.002": 27.0842441394,
			"0.003": 23.4095366579,
			"0.004": 30.3556289519,
			"0.005": 16.3316893162,
			"0.006": 9.65568332508,
			"0.007": 4.49053964512,
			"0.008": 4.62642904161,
			"0.009": 4.8747474335,
			"0.01": 3.99240228096,
			"0.011": 3.93422411687,
			"0.012": 2.60327607037,
			"0.013": 1.43104719913,
			"0.014": 1.26098108596,
			"0.015": 1.45077171491,
			"0.016": 1.06379717045,
			"0.017": 0.794997821564,
			"0.018": 0.103880998338,
			"0.019": 0.0,
			"0.02": 0.0,
			"0.021": 0.0,
			"0.022": 0.0,
			"0.023": 0.0,
			"0.024": 0.0,
			"0.025": 0.0
		}
	}
}
