{
	 "smiles": "[O-][N+](=O)C1=CC=C(C=C1)C1=NC(CCl)=CO1", 
	 "Tm": 393.15, 
	 "num_atms": 23, 
	 "gaussian": { 
		 "optdone": 1, 
		 "sigma_profile": "yes", 
		 "theory": "DFT", 
		 "functional": "B3LYP", 
		 "basiset": "6-31G**", 
		 "properties": { 
			 "R2extent": 6359.6494, 
			 "electric_dipole_moment_norm": 5.14446673816, 
			 "electric_quadrupole_moment_norm": 24.7559489689, 
			 "total_energy": -1180.54333225, 
			 "HOMO_LUMO_gap": 0.1495, 
			 "cosmo_polarized_energy": -13.37, 
			 "cosmo_cavitation_energy": 31.29, 
			 "cosmo_dispersion_energy": -22.95, 
			 "cosmo_repulsion_energy": 1.79, 
			 "cosmo_total_nonelectrostatic_energy": 10.12, 
			 "SMD_solvation_energy": 6.56 
		},
		"coords": [
			{
				"x": -2.228311111,
				"y": -4.5089654398,
				"z": -0.3645472657,
				"element": "O" 
			},
			{
				"x": -1.0178632257,
				"y": -4.3319136444,
				"z": -0.232193161,
				"element": "N" 
			},
			{
				"x": -0.1814603323,
				"y": -5.2304073606,
				"z": -0.1436260404,
				"element": "O" 
			},
			{
				"x": -0.5348762236,
				"y": -2.9434556848,
				"z": -0.1749833347,
				"element": "C" 
			},
			{
				"x": -1.4579819186,
				"y": -1.9018608521,
				"z": -0.2729691064,
				"element": "C" 
			},
			{
				"x": -0.9980390723,
				"y": -0.5929995669,
				"z": -0.2177486222,
				"element": "C" 
			},
			{
				"x": 0.3752458622,
				"y": -0.3312864571,
				"z": -0.0650925046,
				"element": "C" 
			},
			{
				"x": 1.2850176033,
				"y": -1.3980806344,
				"z": 0.030321696,
				"element": "C" 
			},
			{
				"x": 0.8311193762,
				"y": -2.7107143076,
				"z": -0.0245154286,
				"element": "C" 
			},
			{
				"x": 0.8276941434,
				"y": 1.0542243846,
				"z": -0.0096827968,
				"element": "C" 
			},
			{
				"x": 0.1082151052,
				"y": 2.138313862,
				"z": -0.0690219465,
				"element": "N" 
			},
			{
				"x": 1.0163182092,
				"y": 3.1803860827,
				"z": 0.0311750855,
				"element": "C" 
			},
			{
				"x": 0.5952267328,
				"y": 4.6034330139,
				"z": 0.0059790679,
				"element": "C" 
			},
			{
				"x": 0.3222347218,
				"y": 5.221034479,
				"z": -1.6954649227,
				"element": "Cl" 
			},
			{
				"x": 2.2697234852,
				"y": 2.658514129,
				"z": 0.1500729955,
				"element": "C" 
			},
			{
				"x": 2.1662440235,
				"y": 1.2992139153,
				"z": 0.1267342268,
				"element": "O" 
			},
			{
				"x": -2.5093893774,
				"y": -2.1317171644,
				"z": -0.3902618235,
				"element": "H" 
			},
			{
				"x": -1.6872934891,
				"y": 0.240474471,
				"z": -0.2924314899,
				"element": "H" 
			},
			{
				"x": 2.3434285349,
				"y": -1.1948754246,
				"z": 0.1469412659,
				"element": "H" 
			},
			{
				"x": 1.5094936164,
				"y": -3.5513817846,
				"z": 0.0466224189,
				"element": "H" 
			},
			{
				"x": -0.3545346883,
				"y": 4.7334963275,
				"z": 0.5237414909,
				"element": "H" 
			},
			{
				"x": 1.3502592333,
				"y": 5.2544945907,
				"z": 0.4457800045,
				"element": "H" 
			},
			{
				"x": 3.2602287907,
				"y": 3.0725730656,
				"z": 0.249270191,
				"element": "H" 
			}
		],
		 "valence_orbital": [ 
			{
				"type": "occ",
				"energy": -0.30302,
				"method": "rhf"
			},
			{
				"type": "occ",
				"energy": -0.30222,
				"method": "rhf"
			},
			{
				"type": "occ",
				"energy": -0.29474,
				"method": "rhf"
			},
			{
				"type": "occ",
				"energy": -0.2868,
				"method": "rhf"
			},
			{
				"type": "occ",
				"energy": -0.25179,
				"method": "rhf"
			},
			{
				"type": "unocc",
				"energy": -0.10229,
				"method": "rhf"
			},
			{
				"type": "unocc",
				"energy": -0.04386,
				"method": "rhf"
			},
			{
				"type": "unocc",
				"energy": -0.03515,
				"method": "rhf"
			},
			{
				"type": "unocc",
				"energy": -0.02244,
				"method": "rhf"
			},
			{
				"type": "unocc",
				"energy": 0.03823,
				"method": "rhf"
			}
		],
		"cosmo_sigma_profile": { 
			"-0.025": 0.0,
			"-0.024": 0.0,
			"-0.023": 0.0,
			"-0.022": 0.0,
			"-0.021": 0.0,
			"-0.02": 0.0,
			"-0.019": 0.0,
			"-0.018": 0.0,
			"-0.017": 0.0,
			"-0.016": 0.0,
			"-0.015": 0.0,
			"-0.014": 0.0,
			"-0.013": 0.0,
			"-0.012": 0.078741614211,
			"-0.011": 1.68554903149,
			"-0.01": 2.25712448835,
			"-0.009": 4.62590699134,
			"-0.008": 8.21344937989,
			"-0.007": 11.6006618599,
			"-0.006": 12.757066796,
			"-0.005": 11.5741475866,
			"-0.004": 12.0179303136,
			"-0.003": 14.2018560081,
			"-0.002": 20.0533600842,
			"-0.001": 21.0432136675,
			"0.0": 26.5328719285,
			"0.001": 19.8072253245,
			"0.002": 11.0546802797,
			"0.003": 9.98927105197,
			"0.004": 8.42255057249,
			"0.005": 10.7204279037,
			"0.006": 16.3647098597,
			"0.007": 13.1627468672,
			"0.008": 8.45061512246,
			"0.009": 5.20052959274,
			"0.01": 3.02777498608,
			"0.011": 0.921242763914,
			"0.012": 0.829627365354,
			"0.013": 0.103672450742,
			"0.014": 0.0,
			"0.015": 0.0,
			"0.016": 0.0,
			"0.017": 0.0,
			"0.018": 0.0,
			"0.019": 0.0,
			"0.02": 0.0,
			"0.021": 0.0,
			"0.022": 0.0,
			"0.023": 0.0,
			"0.024": 0.0,
			"0.025": 0.0
		}
	}
}
