{
	 "smiles": "COC1=CC(OC)=NC(NC(=O)NS(=O)(=O)C2=CC(NC=O)=CC=C2C(=O)N(C)C)=N1", 
	 "Tm": 467.15, 
	 "num_atms": 51, 
	 "gaussian": { 
		 "optdone": 1, 
		 "sigma_profile": "yes", 
		 "theory": "DFT", 
		 "functional": "B3LYP", 
		 "basiset": "6-31G**", 
		 "properties": { 
			 "R2extent": 13571.1601, 
			 "electric_dipole_moment_norm": 5.56882028979, 
			 "electric_quadrupole_moment_norm": 29.7715207007, 
			 "total_energy": -1913.08963283, 
			 "HOMO_LUMO_gap": 0.17914, 
			 "cosmo_polarized_energy": -34.98, 
			 "cosmo_cavitation_energy": 57.55, 
			 "cosmo_dispersion_energy": -36.31, 
			 "cosmo_repulsion_energy": 2.66, 
			 "cosmo_total_nonelectrostatic_energy": 23.9, 
			 "SMD_solvation_energy": 12.06 
		},
		"coords": [
			{
				"x": -4.4691840617,
				"y": -0.3165309758,
				"z": 1.7783894809,
				"element": "C" 
			},
			{
				"x": -4.5384789417,
				"y": 0.4800392172,
				"z": 0.5896775118,
				"element": "O" 
			},
			{
				"x": -3.4215086168,
				"y": 1.113225966,
				"z": 0.1966252264,
				"element": "C" 
			},
			{
				"x": -3.4992690018,
				"y": 1.9185748686,
				"z": -0.9396159404,
				"element": "C" 
			},
			{
				"x": -2.3071853104,
				"y": 2.5451158169,
				"z": -1.3119588517,
				"element": "C" 
			},
			{
				"x": -2.3321555378,
				"y": 3.3388458856,
				"z": -2.3866782759,
				"element": "O" 
			},
			{
				"x": -1.1245510493,
				"y": 4.0312674821,
				"z": -2.7608110601,
				"element": "C" 
			},
			{
				"x": -1.1579913815,
				"y": 2.3836220397,
				"z": -0.6395032973,
				"element": "N" 
			},
			{
				"x": -1.2322721654,
				"y": 1.615757462,
				"z": 0.4419887883,
				"element": "C" 
			},
			{
				"x": -0.0745456297,
				"y": 1.4034893948,
				"z": 1.2010533989,
				"element": "N" 
			},
			{
				"x": 1.1008371946,
				"y": 2.1145940344,
				"z": 1.1372270132,
				"element": "C" 
			},
			{
				"x": 1.3039113535,
				"y": 3.1636186062,
				"z": 0.5609260972,
				"element": "O" 
			},
			{
				"x": 2.1629578567,
				"y": 1.4995668066,
				"z": 1.8575350738,
				"element": "N" 
			},
			{
				"x": 2.4592236298,
				"y": -0.1519207262,
				"z": 2.1062358672,
				"element": "S" 
			},
			{
				"x": 1.2640140459,
				"y": -0.7131601286,
				"z": 2.7513110115,
				"element": "O" 
			},
			{
				"x": 3.766538496,
				"y": -0.1927065039,
				"z": 2.746297176,
				"element": "O" 
			},
			{
				"x": 2.5078153651,
				"y": -0.8673575891,
				"z": 0.4431562195,
				"element": "C" 
			},
			{
				"x": 2.5793655411,
				"y": -0.0200404928,
				"z": -0.6616605959,
				"element": "C" 
			},
			{
				"x": 2.5086286228,
				"y": -0.5521120609,
				"z": -1.9558205203,
				"element": "C" 
			},
			{
				"x": 2.4550897246,
				"y": 0.2982443852,
				"z": -3.0739776683,
				"element": "N" 
			},
			{
				"x": 1.7641500031,
				"y": 1.4926365921,
				"z": -3.1359282408,
				"element": "C" 
			},
			{
				"x": 1.6452910559,
				"y": 2.136481529,
				"z": -4.1614112144,
				"element": "O" 
			},
			{
				"x": 2.4686754005,
				"y": -1.9426903546,
				"z": -2.1177640144,
				"element": "C" 
			},
			{
				"x": 2.4493386301,
				"y": -2.7760006853,
				"z": -1.0038000682,
				"element": "C" 
			},
			{
				"x": 2.4333262364,
				"y": -2.2614326825,
				"z": 0.2989638073,
				"element": "C" 
			},
			{
				"x": 2.4936166998,
				"y": -3.2302017611,
				"z": 1.4672315009,
				"element": "C" 
			},
			{
				"x": 3.5829717361,
				"y": -3.4606584291,
				"z": 1.9800459073,
				"element": "O" 
			},
			{
				"x": 1.3357647396,
				"y": -3.8640662667,
				"z": 1.8226846815,
				"element": "N" 
			},
			{
				"x": 1.3824387368,
				"y": -4.7982463571,
				"z": 2.9415295838,
				"element": "C" 
			},
			{
				"x": 0.0066848725,
				"y": -3.4305690234,
				"z": 1.4183670406,
				"element": "C" 
			},
			{
				"x": -2.2977494184,
				"y": 0.9544926441,
				"z": 0.9071863008,
				"element": "N" 
			},
			{
				"x": -3.7498834538,
				"y": -1.1322463577,
				"z": 1.6648440251,
				"element": "H" 
			},
			{
				"x": -4.1799845068,
				"y": 0.2887945264,
				"z": 2.6415160842,
				"element": "H" 
			},
			{
				"x": -5.4748853194,
				"y": -0.7153741782,
				"z": 1.9142851021,
				"element": "H" 
			},
			{
				"x": -4.4193266365,
				"y": 2.0531713592,
				"z": -1.4907922859,
				"element": "H" 
			},
			{
				"x": -0.4302252876,
				"y": 3.3587684743,
				"z": -3.2720143045,
				"element": "H" 
			},
			{
				"x": -0.6347767435,
				"y": 4.4622242042,
				"z": -1.8859941571,
				"element": "H" 
			},
			{
				"x": -1.4504268856,
				"y": 4.8129392528,
				"z": -3.4477887432,
				"element": "H" 
			},
			{
				"x": -0.1520615844,
				"y": 0.6762930231,
				"z": 1.9062388197,
				"element": "H" 
			},
			{
				"x": 3.0109401348,
				"y": 2.057849231,
				"z": 1.8552151034,
				"element": "H" 
			},
			{
				"x": 2.6796757276,
				"y": 1.0494069215,
				"z": -0.5331232914,
				"element": "H" 
			},
			{
				"x": 2.7559146461,
				"y": -0.062116298,
				"z": -3.9720347911,
				"element": "H" 
			},
			{
				"x": 1.3162630141,
				"y": 1.7946921962,
				"z": -2.1750834523,
				"element": "H" 
			},
			{
				"x": 2.4275756426,
				"y": -2.3694254282,
				"z": -3.1158573889,
				"element": "H" 
			},
			{
				"x": 2.4174086766,
				"y": -3.8523120075,
				"z": -1.1424997987,
				"element": "H" 
			},
			{
				"x": 2.419030213,
				"y": -5.0796545022,
				"z": 3.1186477306,
				"element": "H" 
			},
			{
				"x": 0.7873872507,
				"y": -5.6869188852,
				"z": 2.7053229744,
				"element": "H" 
			},
			{
				"x": 0.978427134,
				"y": -4.3357096029,
				"z": 3.8511970165,
				"element": "H" 
			},
			{
				"x": 0.0640559124,
				"y": -2.7670946176,
				"z": 0.5569254557,
				"element": "H" 
			},
			{
				"x": -0.4910819649,
				"y": -2.8925520268,
				"z": 2.2344480081,
				"element": "H" 
			},
			{
				"x": -0.6005747962,
				"y": -4.3017139778,
				"z": 1.1473459542,
				"element": "H" 
			}
		],
		 "valence_orbital": [ 
			{
				"type": "occ",
				"energy": -0.26994,
				"method": "rhf"
			},
			{
				"type": "occ",
				"energy": -0.26847,
				"method": "rhf"
			},
			{
				"type": "occ",
				"energy": -0.25093,
				"method": "rhf"
			},
			{
				"type": "occ",
				"energy": -0.24453,
				"method": "rhf"
			},
			{
				"type": "occ",
				"energy": -0.23831,
				"method": "rhf"
			},
			{
				"type": "unocc",
				"energy": -0.05917,
				"method": "rhf"
			},
			{
				"type": "unocc",
				"energy": -0.0483,
				"method": "rhf"
			},
			{
				"type": "unocc",
				"energy": -0.03336,
				"method": "rhf"
			},
			{
				"type": "unocc",
				"energy": -0.01029,
				"method": "rhf"
			},
			{
				"type": "unocc",
				"energy": 0.00458,
				"method": "rhf"
			}
		],
		"cosmo_sigma_profile": { 
			"-0.025": 0.0,
			"-0.024": 0.0,
			"-0.023": 0.0,
			"-0.022": 0.0,
			"-0.021": 0.0,
			"-0.02": 0.0,
			"-0.019": 0.0,
			"-0.018": 0.0,
			"-0.017": 0.506473055113,
			"-0.016": 1.27999609479,
			"-0.015": 2.81943109786,
			"-0.014": 2.28205368593,
			"-0.013": 2.47509016302,
			"-0.012": 2.87069175206,
			"-0.011": 1.68334544783,
			"-0.01": 2.61712388506,
			"-0.009": 4.24477931525,
			"-0.008": 7.62836864344,
			"-0.007": 10.0723616956,
			"-0.006": 16.1386420572,
			"-0.005": 29.370414069,
			"-0.004": 37.2909407276,
			"-0.003": 44.1702085965,
			"-0.002": 46.6918727359,
			"-0.001": 38.6098586609,
			"0.0": 33.128018768,
			"0.001": 26.9623569367,
			"0.002": 21.3050685352,
			"0.003": 14.2381173746,
			"0.004": 13.622967327,
			"0.005": 10.1796086213,
			"0.006": 11.4885481908,
			"0.007": 11.5443834423,
			"0.008": 11.2998515408,
			"0.009": 13.8527630425,
			"0.01": 13.0986769264,
			"0.011": 10.2410629293,
			"0.012": 9.97699494389,
			"0.013": 5.84213663214,
			"0.014": 1.26409869002,
			"0.015": 0.0,
			"0.016": 0.0,
			"0.017": 0.0,
			"0.018": 0.0,
			"0.019": 0.0,
			"0.02": 0.0,
			"0.021": 0.0,
			"0.022": 0.0,
			"0.023": 0.0,
			"0.024": 0.0,
			"0.025": 0.0
		}
	}
}
