{
	 "smiles": "CC1=C(F)C(F)=C(CBr)C(F)=C1F", 
	 "Tm": 315.15, 
	 "num_atms": 18, 
	 "gaussian": { 
		 "optdone": 1, 
		 "sigma_profile": "yes", 
		 "theory": "DFT", 
		 "functional": "B3LYP", 
		 "basiset": "6-31G**", 
		 "properties": { 
			 "R2extent": 4407.3723, 
			 "electric_dipole_moment_norm": 2.34263248078, 
			 "electric_quadrupole_moment_norm": 8.79737577292, 
			 "total_energy": -3278.60103581, 
			 "HOMO_LUMO_gap": 0.19743, 
			 "cosmo_polarized_energy": -5.2, 
			 "cosmo_cavitation_energy": 26.64, 
			 "cosmo_dispersion_energy": -18.95, 
			 "cosmo_repulsion_energy": 1.44, 
			 "cosmo_total_nonelectrostatic_energy": 9.13, 
			 "SMD_solvation_energy": 5.22 
		},
		"coords": [
			{
				"x": -3.2865964403,
				"y": -0.5685728829,
				"z": -2.5063088953,
				"element": "C" 
			},
			{
				"x": -1.9895982924,
				"y": -0.0137842806,
				"z": -1.9817331732,
				"element": "C" 
			},
			{
				"x": -1.1553151823,
				"y": 0.7752221855,
				"z": -2.7758089158,
				"element": "C" 
			},
			{
				"x": -1.5198947834,
				"y": 1.0629362226,
				"z": -4.0382723323,
				"element": "F" 
			},
			{
				"x": 0.0479402724,
				"y": 1.281684632,
				"z": -2.2963370831,
				"element": "C" 
			},
			{
				"x": 0.8047782475,
				"y": 2.0404581775,
				"z": -3.1054346862,
				"element": "F" 
			},
			{
				"x": 0.4774625972,
				"y": 1.0263455578,
				"z": -0.9914895389,
				"element": "C" 
			},
			{
				"x": 1.7651025627,
				"y": 1.5657660855,
				"z": -0.4763527606,
				"element": "C" 
			},
			{
				"x": 3.2888661138,
				"y": 0.3125982435,
				"z": -0.8096741421,
				"element": "Br" 
			},
			{
				"x": -0.3544611854,
				"y": 0.235432667,
				"z": -0.1948303971,
				"element": "C" 
			},
			{
				"x": 0.0052942419,
				"y": -0.0381193289,
				"z": 1.0696681543,
				"element": "F" 
			},
			{
				"x": -1.5567992382,
				"y": -0.2686508619,
				"z": -0.6791086035,
				"element": "C" 
			},
			{
				"x": -2.3196516258,
				"y": -1.0165217937,
				"z": 0.1383560219,
				"element": "F" 
			},
			{
				"x": -3.1318777739,
				"y": -1.5516450582,
				"z": -2.9657473408,
				"element": "H" 
			},
			{
				"x": -4.0080575695,
				"y": -0.6913131856,
				"z": -1.6965855162,
				"element": "H" 
			},
			{
				"x": -3.7068910597,
				"y": 0.0904896475,
				"z": -3.2680194839,
				"element": "H" 
			},
			{
				"x": 2.0502928013,
				"y": 2.4857677973,
				"z": -0.9791302815,
				"element": "H" 
			},
			{
				"x": 1.7478063141,
				"y": 1.6975061757,
				"z": 0.6020089743,
				"element": "H" 
			}
		],
		 "valence_orbital": [ 
			{
				"type": "occ",
				"energy": -0.34634,
				"method": "rhf"
			},
			{
				"type": "occ",
				"energy": -0.28288,
				"method": "rhf"
			},
			{
				"type": "occ",
				"energy": -0.2769,
				"method": "rhf"
			},
			{
				"type": "occ",
				"energy": -0.26254,
				"method": "rhf"
			},
			{
				"type": "occ",
				"energy": -0.2521,
				"method": "rhf"
			},
			{
				"type": "unocc",
				"energy": -0.05467,
				"method": "rhf"
			},
			{
				"type": "unocc",
				"energy": -0.0115,
				"method": "rhf"
			},
			{
				"type": "unocc",
				"energy": 0.01234,
				"method": "rhf"
			},
			{
				"type": "unocc",
				"energy": 0.041,
				"method": "rhf"
			},
			{
				"type": "unocc",
				"energy": 0.10272,
				"method": "rhf"
			}
		],
		"cosmo_sigma_profile": { 
			"-0.025": 0.0,
			"-0.024": 0.0,
			"-0.023": 0.0,
			"-0.022": 0.0,
			"-0.021": 0.0,
			"-0.02": 0.0,
			"-0.019": 0.0,
			"-0.018": 0.0,
			"-0.017": 0.0,
			"-0.016": 0.0,
			"-0.015": 0.0,
			"-0.014": 0.0,
			"-0.013": 0.0,
			"-0.012": 0.0,
			"-0.011": 0.0,
			"-0.01": 0.0,
			"-0.009": 0.764917381331,
			"-0.008": 2.92109908752,
			"-0.007": 3.82486146735,
			"-0.006": 6.04998470928,
			"-0.005": 10.1142036766,
			"-0.004": 10.3559157617,
			"-0.003": 14.037384435,
			"-0.002": 31.8811906491,
			"-0.001": 22.4366799573,
			"0.0": 13.881154699,
			"0.001": 14.2788109381,
			"0.002": 18.8292645468,
			"0.003": 36.9879499285,
			"0.004": 14.6837185547,
			"0.005": 8.93057695494,
			"0.006": 7.49736649274,
			"0.007": 0.0,
			"0.008": 0.0,
			"0.009": 0.0,
			"0.01": 0.0,
			"0.011": 0.0,
			"0.012": 0.0,
			"0.013": 0.0,
			"0.014": 0.0,
			"0.015": 0.0,
			"0.016": 0.0,
			"0.017": 0.0,
			"0.018": 0.0,
			"0.019": 0.0,
			"0.02": 0.0,
			"0.021": 0.0,
			"0.022": 0.0,
			"0.023": 0.0,
			"0.024": 0.0,
			"0.025": 0.0
		}
	}
}
