{
	 "smiles": "CCN(CC)CCN1C(CC2=CC=C(Cl)C=C2)=NC2=CC(=CC=C12)N(=O)=O", 
	 "Tm": 348.65, 
	 "num_atms": 50, 
	 "gaussian": { 
		 "optdone": 1, 
		 "sigma_profile": "yes", 
		 "theory": "DFT", 
		 "functional": "B3LYP", 
		 "basiset": "6-31G**", 
		 "properties": { 
			 "R2extent": 15649.5945, 
			 "electric_dipole_moment_norm": 8.32786707207, 
			 "electric_quadrupole_moment_norm": 31.2517583549, 
			 "total_energy": -1605.558201, 
			 "HOMO_LUMO_gap": 0.14945, 
			 "cosmo_polarized_energy": -18.62, 
			 "cosmo_cavitation_energy": 55.15, 
			 "cosmo_dispersion_energy": -36.6, 
			 "cosmo_repulsion_energy": 2.79, 
			 "cosmo_total_nonelectrostatic_energy": 21.34, 
			 "SMD_solvation_energy": 6.91 
		},
		"coords": [
			{
				"x": -0.3079671167,
				"y": -4.0996735328,
				"z": 2.541887181,
				"element": "C" 
			},
			{
				"x": -0.9233985467,
				"y": -3.5538951725,
				"z": 1.241552339,
				"element": "C" 
			},
			{
				"x": -1.8853093662,
				"y": -2.4501630001,
				"z": 1.3754118433,
				"element": "N" 
			},
			{
				"x": -3.0608788823,
				"y": -2.7508747461,
				"z": 2.2016047849,
				"element": "C" 
			},
			{
				"x": -3.8881475797,
				"y": -3.9198677964,
				"z": 1.6655056151,
				"element": "C" 
			},
			{
				"x": -1.2604885081,
				"y": -1.1678833762,
				"z": 1.6841425496,
				"element": "C" 
			},
			{
				"x": -0.7846889496,
				"y": -0.4696808485,
				"z": 0.3948395869,
				"element": "C" 
			},
			{
				"x": -0.1281733723,
				"y": 0.8083461243,
				"z": 0.6560423529,
				"element": "N" 
			},
			{
				"x": -0.7086193627,
				"y": 2.0716324951,
				"z": 0.6794497204,
				"element": "C" 
			},
			{
				"x": -2.145994467,
				"y": 2.3214789222,
				"z": 0.3245506665,
				"element": "C" 
			},
			{
				"x": -2.4240383825,
				"y": 2.2847013563,
				"z": -1.1735485634,
				"element": "C" 
			},
			{
				"x": -3.4774442627,
				"y": 1.5235576332,
				"z": -1.6911839852,
				"element": "C" 
			},
			{
				"x": -3.7524216191,
				"y": 1.5072318116,
				"z": -3.0601493413,
				"element": "C" 
			},
			{
				"x": -2.9581477634,
				"y": 2.2641395644,
				"z": -3.9181400621,
				"element": "C" 
			},
			{
				"x": -3.2906614135,
				"y": 2.2503266236,
				"z": -5.6438547568,
				"element": "Cl" 
			},
			{
				"x": -1.9014881903,
				"y": 3.033126568,
				"z": -3.4278793806,
				"element": "C" 
			},
			{
				"x": -1.6411233366,
				"y": 3.0381291061,
				"z": -2.0591946984,
				"element": "C" 
			},
			{
				"x": 0.1375428639,
				"y": 3.0251601658,
				"z": 0.9945260031,
				"element": "N" 
			},
			{
				"x": 1.345894008,
				"y": 2.3815068683,
				"z": 1.2037218504,
				"element": "C" 
			},
			{
				"x": 2.5856780117,
				"y": 2.9111427639,
				"z": 1.5610458342,
				"element": "C" 
			},
			{
				"x": 3.6350875651,
				"y": 2.0077005711,
				"z": 1.7001104209,
				"element": "C" 
			},
			{
				"x": 3.4952216185,
				"y": 0.6213493603,
				"z": 1.4994793922,
				"element": "C" 
			},
			{
				"x": 2.2630704503,
				"y": 0.089162135,
				"z": 1.1454882565,
				"element": "C" 
			},
			{
				"x": 1.1974776484,
				"y": 0.9853469021,
				"z": 1.0006644003,
				"element": "C" 
			},
			{
				"x": 4.95663727,
				"y": 2.5238525559,
				"z": 2.0757328585,
				"element": "N" 
			},
			{
				"x": 5.0724613987,
				"y": 3.7380800356,
				"z": 2.2465812559,
				"element": "O" 
			},
			{
				"x": 5.8770064449,
				"y": 1.7131577398,
				"z": 2.199414631,
				"element": "O" 
			},
			{
				"x": 0.2051600625,
				"y": -3.320273282,
				"z": 3.1147439605,
				"element": "H" 
			},
			{
				"x": 0.4281520885,
				"y": -4.8758536577,
				"z": 2.308177658,
				"element": "H" 
			},
			{
				"x": -1.0639163297,
				"y": -4.5492895234,
				"z": 3.1929841073,
				"element": "H" 
			},
			{
				"x": -0.1193545705,
				"y": -3.2121205455,
				"z": 0.5796042226,
				"element": "H" 
			},
			{
				"x": -1.414422725,
				"y": -4.3718918769,
				"z": 0.7039888583,
				"element": "H" 
			},
			{
				"x": -2.8009880973,
				"y": -2.9410304259,
				"z": 3.2591594866,
				"element": "H" 
			},
			{
				"x": -3.6890246706,
				"y": -1.8526293193,
				"z": 2.1993214063,
				"element": "H" 
			},
			{
				"x": -4.8197705013,
				"y": -4.0065134287,
				"z": 2.2333503055,
				"element": "H" 
			},
			{
				"x": -3.3644376047,
				"y": -4.876587908,
				"z": 1.7530774606,
				"element": "H" 
			},
			{
				"x": -4.1376194585,
				"y": -3.7622812769,
				"z": 0.6116297348,
				"element": "H" 
			},
			{
				"x": -1.9971391464,
				"y": -0.5204565141,
				"z": 2.1714956954,
				"element": "H" 
			},
			{
				"x": -0.4148668562,
				"y": -1.2465771195,
				"z": 2.3878567341,
				"element": "H" 
			},
			{
				"x": -0.0787797525,
				"y": -1.1026212508,
				"z": -0.1507083422,
				"element": "H" 
			},
			{
				"x": -1.6334102988,
				"y": -0.3015000071,
				"z": -0.2700353807,
				"element": "H" 
			},
			{
				"x": -2.8000514761,
				"y": 1.6067349601,
				"z": 0.8359198734,
				"element": "H" 
			},
			{
				"x": -2.3832164194,
				"y": 3.3129075572,
				"z": 0.7227541648,
				"element": "H" 
			},
			{
				"x": -4.1009077348,
				"y": 0.9371256921,
				"z": -1.0206648622,
				"element": "H" 
			},
			{
				"x": -4.5705171939,
				"y": 0.9148514562,
				"z": -3.4546546823,
				"element": "H" 
			},
			{
				"x": -1.2939190745,
				"y": 3.6185461019,
				"z": -4.1091386169,
				"element": "H" 
			},
			{
				"x": -0.8197665519,
				"y": 3.6337800155,
				"z": -1.6708427052,
				"element": "H" 
			},
			{
				"x": 2.7372963951,
				"y": 3.9700687749,
				"z": 1.7243511216,
				"element": "H" 
			},
			{
				"x": 4.3648002863,
				"y": -0.0097023119,
				"z": 1.6284565731,
				"element": "H" 
			},
			{
				"x": 2.1461134693,
				"y": -0.9783769398,
				"z": 0.9912724723,
				"element": "H" 
			}
		],
		 "valence_orbital": [ 
			{
				"type": "occ",
				"energy": -0.27316,
				"method": "rhf"
			},
			{
				"type": "occ",
				"energy": -0.2544,
				"method": "rhf"
			},
			{
				"type": "occ",
				"energy": -0.24871,
				"method": "rhf"
			},
			{
				"type": "occ",
				"energy": -0.24336,
				"method": "rhf"
			},
			{
				"type": "occ",
				"energy": -0.22487,
				"method": "rhf"
			},
			{
				"type": "unocc",
				"energy": -0.07542,
				"method": "rhf"
			},
			{
				"type": "unocc",
				"energy": -0.03629,
				"method": "rhf"
			},
			{
				"type": "unocc",
				"energy": -0.02625,
				"method": "rhf"
			},
			{
				"type": "unocc",
				"energy": -0.02103,
				"method": "rhf"
			},
			{
				"type": "unocc",
				"energy": 0.01851,
				"method": "rhf"
			}
		],
		"cosmo_sigma_profile": { 
			"-0.025": 0.0,
			"-0.024": 0.0,
			"-0.023": 0.0,
			"-0.022": 0.0,
			"-0.021": 0.0,
			"-0.02": 0.0,
			"-0.019": 0.0,
			"-0.018": 0.0,
			"-0.017": 0.0,
			"-0.016": 0.0,
			"-0.015": 0.0,
			"-0.014": 0.0,
			"-0.013": 0.0,
			"-0.012": 0.0,
			"-0.011": 0.0,
			"-0.01": 0.0,
			"-0.009": 0.122281699764,
			"-0.008": 3.90874532516,
			"-0.007": 14.8221426678,
			"-0.006": 20.6646718885,
			"-0.005": 21.5307992741,
			"-0.004": 22.3031577963,
			"-0.003": 39.5474461577,
			"-0.002": 44.9372406323,
			"-0.001": 48.4032281524,
			"0.0": 45.7035868297,
			"0.001": 41.7064181526,
			"0.002": 34.4926731589,
			"0.003": 25.8182922133,
			"0.004": 18.8094868087,
			"0.005": 12.3503193227,
			"0.006": 5.74402375906,
			"0.007": 6.9782542662,
			"0.008": 12.2101600516,
			"0.009": 6.53142713628,
			"0.01": 5.40082763829,
			"0.011": 2.44509985469,
			"0.012": 0.837440835307,
			"0.013": 1.45590576684,
			"0.014": 0.708653605665,
			"0.015": 0.88211636277,
			"0.016": 0.548502779592,
			"0.017": 0.228440289669,
			"0.018": 0.0,
			"0.019": 0.0,
			"0.02": 0.0,
			"0.021": 0.0,
			"0.022": 0.0,
			"0.023": 0.0,
			"0.024": 0.0,
			"0.025": 0.0
		}
	}
}
