{
	 "smiles": "CC1=CC(C)=C(N)C(=C1)C(O)=O", 
	 "Tm": 464.65, 
	 "num_atms": 23, 
	 "gaussian": { 
		 "optdone": 1, 
		 "sigma_profile": "yes", 
		 "theory": "DFT", 
		 "functional": "B3LYP", 
		 "basiset": "6-31G**", 
		 "properties": { 
			 "R2extent": 2902.0268, 
			 "electric_dipole_moment_norm": 7.08570913741, 
			 "electric_quadrupole_moment_norm": 24.935460554, 
			 "total_energy": -554.818447575, 
			 "HOMO_LUMO_gap": 0.21077, 
			 "cosmo_polarized_energy": -17.54, 
			 "cosmo_cavitation_energy": 26.14, 
			 "cosmo_dispersion_energy": -19.34, 
			 "cosmo_repulsion_energy": 1.54, 
			 "cosmo_total_nonelectrostatic_energy": 8.34, 
			 "SMD_solvation_energy": 6.1 
		},
		"coords": [
			{
				"x": 2.8518042668,
				"y": 1.0864380509,
				"z": 0.0286973923,
				"element": "C" 
			},
			{
				"x": 1.3641495096,
				"y": 1.0348174827,
				"z": 0.2854753098,
				"element": "C" 
			},
			{
				"x": 0.8416203114,
				"y": 0.2570475862,
				"z": 1.3269224138,
				"element": "C" 
			},
			{
				"x": -0.5270532818,
				"y": 0.210197158,
				"z": 1.6036092866,
				"element": "C" 
			},
			{
				"x": -1.0528886299,
				"y": -0.6442720755,
				"z": 2.7334195994,
				"element": "C" 
			},
			{
				"x": -1.4040708872,
				"y": 0.9702284254,
				"z": 0.8071740167,
				"element": "C" 
			},
			{
				"x": -2.836911707,
				"y": 0.9518705107,
				"z": 1.0538458769,
				"element": "N" 
			},
			{
				"x": -0.9058898962,
				"y": 1.7585046574,
				"z": -0.2458500202,
				"element": "C" 
			},
			{
				"x": 0.472967876,
				"y": 1.7749117321,
				"z": -0.4900104672,
				"element": "C" 
			},
			{
				"x": -1.7529960962,
				"y": 2.6190176343,
				"z": -1.1691972187,
				"element": "C" 
			},
			{
				"x": -3.0700013733,
				"y": 2.6428607288,
				"z": -0.9455982167,
				"element": "O" 
			},
			{
				"x": -1.2465142056,
				"y": 3.2586988445,
				"z": -2.0688040564,
				"element": "O" 
			},
			{
				"x": 3.3281691495,
				"y": 0.1225811538,
				"z": 0.2334236076,
				"element": "H" 
			},
			{
				"x": 3.3370148933,
				"y": 1.8318766166,
				"z": 0.6709363632,
				"element": "H" 
			},
			{
				"x": 3.0665268352,
				"y": 1.3599314798,
				"z": -1.007812717,
				"element": "H" 
			},
			{
				"x": 1.5190293853,
				"y": -0.3334165982,
				"z": 1.940452424,
				"element": "H" 
			},
			{
				"x": -1.7682055368,
				"y": -1.3978308352,
				"z": 2.3810740419,
				"element": "H" 
			},
			{
				"x": -0.2378074864,
				"y": -1.1737620487,
				"z": 3.232222803,
				"element": "H" 
			},
			{
				"x": -1.5701309838,
				"y": -0.0471265612,
				"z": 3.4950862737,
				"element": "H" 
			},
			{
				"x": -3.2168481814,
				"y": 0.0149546903,
				"z": 0.9289346501,
				"element": "H" 
			},
			{
				"x": -3.0456406498,
				"y": 1.2251568641,
				"z": 2.0122751322,
				"element": "H" 
			},
			{
				"x": 0.822452835,
				"y": 2.3899828106,
				"z": -1.3127077427,
				"element": "H" 
			},
			{
				"x": -3.2615761469,
				"y": 2.0466316927,
				"z": -0.1679687524,
				"element": "H" 
			}
		],
		 "valence_orbital": [ 
			{
				"type": "occ",
				"energy": -0.28697,
				"method": "rhf"
			},
			{
				"type": "occ",
				"energy": -0.28529,
				"method": "rhf"
			},
			{
				"type": "occ",
				"energy": -0.25571,
				"method": "rhf"
			},
			{
				"type": "occ",
				"energy": -0.25005,
				"method": "rhf"
			},
			{
				"type": "occ",
				"energy": -0.24885,
				"method": "rhf"
			},
			{
				"type": "unocc",
				"energy": -0.03808,
				"method": "rhf"
			},
			{
				"type": "unocc",
				"energy": -0.01343,
				"method": "rhf"
			},
			{
				"type": "unocc",
				"energy": 0.04459,
				"method": "rhf"
			},
			{
				"type": "unocc",
				"energy": 0.06585,
				"method": "rhf"
			},
			{
				"type": "unocc",
				"energy": 0.09697,
				"method": "rhf"
			}
		],
		"cosmo_sigma_profile": { 
			"-0.025": 0.0,
			"-0.024": 0.0,
			"-0.023": 0.0,
			"-0.022": 0.0,
			"-0.021": 0.0,
			"-0.02": 0.0,
			"-0.019": 0.0,
			"-0.018": 0.0,
			"-0.017": 0.0,
			"-0.016": 0.0,
			"-0.015": 0.0,
			"-0.014": 0.0,
			"-0.013": 0.616698196515,
			"-0.012": 3.21328097159,
			"-0.011": 2.84724793829,
			"-0.01": 4.162223747,
			"-0.009": 3.73668083688,
			"-0.008": 3.0827371283,
			"-0.007": 3.56217025259,
			"-0.006": 3.88076684186,
			"-0.005": 9.69035676066,
			"-0.004": 18.1881866215,
			"-0.003": 17.8470808055,
			"-0.002": 18.1700547678,
			"-0.001": 20.6771413389,
			"0.0": 20.4552932807,
			"0.001": 10.3188067473,
			"0.002": 9.23517838953,
			"0.003": 10.0330721034,
			"0.004": 11.5726891596,
			"0.005": 4.06438876348,
			"0.006": 2.31843973889,
			"0.007": 3.09621604756,
			"0.008": 2.36088563295,
			"0.009": 2.22897888347,
			"0.01": 2.92313568193,
			"0.011": 3.53408762125,
			"0.012": 6.05860657687,
			"0.013": 6.02888460095,
			"0.014": 2.29142977535,
			"0.015": 0.29501761152,
			"0.016": 0.0,
			"0.017": 0.0,
			"0.018": 0.0,
			"0.019": 0.0,
			"0.02": 0.0,
			"0.021": 0.0,
			"0.022": 0.0,
			"0.023": 0.0,
			"0.024": 0.0,
			"0.025": 0.0
		}
	}
}
