{
	 "smiles": "CC(C)C1=CC(C(C)C)=C(C=C1)C(O)=O", 
	 "Tm": 373.15, 
	 "num_atms": 33, 
	 "gaussian": { 
		 "optdone": 1, 
		 "sigma_profile": "yes", 
		 "theory": "DFT", 
		 "functional": "B3LYP", 
		 "basiset": "6-31G**", 
		 "properties": { 
			 "R2extent": 4313.9242, 
			 "electric_dipole_moment_norm": 1.9238777456, 
			 "electric_quadrupole_moment_norm": 7.40548587265, 
			 "total_energy": -656.723448197, 
			 "HOMO_LUMO_gap": 0.20098, 
			 "cosmo_polarized_energy": -8.13, 
			 "cosmo_cavitation_energy": 34.48, 
			 "cosmo_dispersion_energy": -24.11, 
			 "cosmo_repulsion_energy": 1.92, 
			 "cosmo_total_nonelectrostatic_energy": 12.3, 
			 "SMD_solvation_energy": 7.07 
		},
		"coords": [
			{
				"x": 1.1480679977,
				"y": 1.1144433083,
				"z": 4.0654147923,
				"element": "C" 
			},
			{
				"x": 1.5773847565,
				"y": 1.3345870284,
				"z": 2.6021516229,
				"element": "C" 
			},
			{
				"x": 2.9628266758,
				"y": 0.7170866357,
				"z": 2.3320737625,
				"element": "C" 
			},
			{
				"x": 0.5309796974,
				"y": 0.8186047283,
				"z": 1.6249434281,
				"element": "C" 
			},
			{
				"x": -0.1197613154,
				"y": 1.6958143477,
				"z": 0.7519104045,
				"element": "C" 
			},
			{
				"x": -1.0875416888,
				"y": 1.2896393437,
				"z": -0.1780713368,
				"element": "C" 
			},
			{
				"x": -1.7257450858,
				"y": 2.3299872179,
				"z": -1.0980762792,
				"element": "C" 
			},
			{
				"x": -1.902798155,
				"y": 3.7101199056,
				"z": -0.4410771565,
				"element": "C" 
			},
			{
				"x": -0.9216482697,
				"y": 2.4500208718,
				"z": -2.4094779741,
				"element": "C" 
			},
			{
				"x": -1.4086133011,
				"y": -0.0915628995,
				"z": -0.2184861595,
				"element": "C" 
			},
			{
				"x": -0.7712331627,
				"y": -0.9788656264,
				"z": 0.6690862238,
				"element": "C" 
			},
			{
				"x": 0.1846661295,
				"y": -0.5384404851,
				"z": 1.5722220073,
				"element": "C" 
			},
			{
				"x": -2.393077542,
				"y": -0.6562990905,
				"z": -1.1806189163,
				"element": "C" 
			},
			{
				"x": -2.7587202842,
				"y": -1.9312367252,
				"z": -0.8721903335,
				"element": "O" 
			},
			{
				"x": -2.8573401882,
				"y": -0.1062862805,
				"z": -2.164152378,
				"element": "O" 
			},
			{
				"x": 1.0600166518,
				"y": 0.0476392654,
				"z": 4.2981606038,
				"element": "H" 
			},
			{
				"x": 0.1797461029,
				"y": 1.5816013239,
				"z": 4.2696802956,
				"element": "H" 
			},
			{
				"x": 1.885998795,
				"y": 1.544277399,
				"z": 4.7513876585,
				"element": "H" 
			},
			{
				"x": 1.6617273719,
				"y": 2.4173404413,
				"z": 2.4422768661,
				"element": "H" 
			},
			{
				"x": 3.7124438683,
				"y": 1.1449729558,
				"z": 3.0064896768,
				"element": "H" 
			},
			{
				"x": 3.2856596783,
				"y": 0.9008091561,
				"z": 1.3026894294,
				"element": "H" 
			},
			{
				"x": 2.9533701355,
				"y": -0.3667477824,
				"z": 2.4907826053,
				"element": "H" 
			},
			{
				"x": 0.1412101093,
				"y": 2.7481395592,
				"z": 0.8032991433,
				"element": "H" 
			},
			{
				"x": -2.7174196667,
				"y": 1.9645810724,
				"z": -1.3691742038,
				"element": "H" 
			},
			{
				"x": -0.9501605013,
				"y": 4.2274470545,
				"z": -0.2829101134,
				"element": "H" 
			},
			{
				"x": -2.506399687,
				"y": 4.3486992091,
				"z": -1.0943183549,
				"element": "H" 
			},
			{
				"x": -2.4134442343,
				"y": 3.6384206759,
				"z": 0.5247508298,
				"element": "H" 
			},
			{
				"x": 0.1028763742,
				"y": 2.7863095086,
				"z": -2.2120123213,
				"element": "H" 
			},
			{
				"x": -0.880403077,
				"y": 1.4903157813,
				"z": -2.929164266,
				"element": "H" 
			},
			{
				"x": -1.3936239565,
				"y": 3.1770978714,
				"z": -3.0794791144,
				"element": "H" 
			},
			{
				"x": -1.0346661752,
				"y": -2.0290531403,
				"z": 0.6340594301,
				"element": "H" 
			},
			{
				"x": 0.6607576914,
				"y": -1.2541683768,
				"z": 2.2362845312,
				"element": "H" 
			},
			{
				"x": -3.3707357443,
				"y": -2.1949942546,
				"z": -1.5784544037,
				"element": "H" 
			}
		],
		 "valence_orbital": [ 
			{
				"type": "occ",
				"energy": -0.31817,
				"method": "rhf"
			},
			{
				"type": "occ",
				"energy": -0.30927,
				"method": "rhf"
			},
			{
				"type": "occ",
				"energy": -0.26687,
				"method": "rhf"
			},
			{
				"type": "occ",
				"energy": -0.25002,
				"method": "rhf"
			},
			{
				"type": "occ",
				"energy": -0.24306,
				"method": "rhf"
			},
			{
				"type": "unocc",
				"energy": -0.04208,
				"method": "rhf"
			},
			{
				"type": "unocc",
				"energy": -0.00322,
				"method": "rhf"
			},
			{
				"type": "unocc",
				"energy": 0.05746,
				"method": "rhf"
			},
			{
				"type": "unocc",
				"energy": 0.08206,
				"method": "rhf"
			},
			{
				"type": "unocc",
				"energy": 0.0877,
				"method": "rhf"
			}
		],
		"cosmo_sigma_profile": { 
			"-0.025": 0.0,
			"-0.024": 0.0,
			"-0.023": 0.0,
			"-0.022": 0.0,
			"-0.021": 0.0,
			"-0.02": 0.0,
			"-0.019": 0.0,
			"-0.018": 0.147056016081,
			"-0.017": 1.13653469531,
			"-0.016": 0.597387017642,
			"-0.015": 1.03513185134,
			"-0.014": 0.72943646625,
			"-0.013": 0.675114221837,
			"-0.012": 0.401162852454,
			"-0.011": 0.577594211017,
			"-0.01": 1.26645620294,
			"-0.009": 0.652283088262,
			"-0.008": 0.0763057435562,
			"-0.007": 0.63770350146,
			"-0.006": 2.0653163494,
			"-0.005": 8.09409846566,
			"-0.004": 10.7437376663,
			"-0.003": 23.2496126469,
			"-0.002": 31.97839128,
			"-0.001": 39.1277459997,
			"0.0": 35.5512111626,
			"0.001": 39.4441523461,
			"0.002": 20.8060589557,
			"0.003": 12.1231758514,
			"0.004": 11.7802049037,
			"0.005": 7.83926576117,
			"0.006": 3.90883530648,
			"0.007": 3.31063854179,
			"0.008": 2.20973818103,
			"0.009": 1.95825373808,
			"0.01": 1.68381802995,
			"0.011": 2.27859146925,
			"0.012": 3.00039146885,
			"0.013": 0.39762778271,
			"0.014": 0.0,
			"0.015": 0.0,
			"0.016": 0.0,
			"0.017": 0.0,
			"0.018": 0.0,
			"0.019": 0.0,
			"0.02": 0.0,
			"0.021": 0.0,
			"0.022": 0.0,
			"0.023": 0.0,
			"0.024": 0.0,
			"0.025": 0.0
		}
	}
}
