{
	 "smiles": "O=C1C2=CC=CC=C2NC1(OC1(NC2=CC=CC=C2C1=O)C1=NC=CC=C1)C1=NC=CC=C1", 
	 "Tm": 513.15, 
	 "num_atms": 51, 
	 "gaussian": { 
		 "optdone": 1, 
		 "sigma_profile": "yes", 
		 "theory": "DFT", 
		 "functional": "B3LYP", 
		 "basiset": "6-31G**", 
		 "properties": { 
			 "R2extent": 12330.9276, 
			 "electric_dipole_moment_norm": 5.69942635798, 
			 "electric_quadrupole_moment_norm": 20.5538003459, 
			 "total_energy": -1446.26998107, 
			 "HOMO_LUMO_gap": 0.14868, 
			 "cosmo_polarized_energy": -26.58, 
			 "cosmo_cavitation_energy": 55.34, 
			 "cosmo_dispersion_energy": -35.31, 
			 "cosmo_repulsion_energy": 2.67, 
			 "cosmo_total_nonelectrostatic_energy": 22.7, 
			 "SMD_solvation_energy": 8.39 
		},
		"coords": [
			{
				"x": -0.8782724813,
				"y": -2.871542811,
				"z": -1.7494401346,
				"element": "O" 
			},
			{
				"x": -1.2206529966,
				"y": -2.3588184121,
				"z": -0.7057380572,
				"element": "C" 
			},
			{
				"x": -1.999260045,
				"y": -2.924316601,
				"z": 0.4058953528,
				"element": "C" 
			},
			{
				"x": -2.5274200232,
				"y": -4.2033543022,
				"z": 0.582832137,
				"element": "C" 
			},
			{
				"x": -3.2970373829,
				"y": -4.4526457981,
				"z": 1.7173882072,
				"element": "C" 
			},
			{
				"x": -3.5301081554,
				"y": -3.4252552785,
				"z": 2.6464600798,
				"element": "C" 
			},
			{
				"x": -2.9997003752,
				"y": -2.144524814,
				"z": 2.4760607588,
				"element": "C" 
			},
			{
				"x": -2.2217011503,
				"y": -1.9066924887,
				"z": 1.3422348915,
				"element": "C" 
			},
			{
				"x": -1.5786948062,
				"y": -0.6958560912,
				"z": 0.9940841339,
				"element": "N" 
			},
			{
				"x": -0.9960058208,
				"y": -0.8425332978,
				"z": -0.3331020646,
				"element": "C" 
			},
			{
				"x": 0.3999083633,
				"y": -0.5130242966,
				"z": -0.4391689679,
				"element": "O" 
			},
			{
				"x": 1.2318820523,
				"y": -0.3651389458,
				"z": 0.7003453336,
				"element": "C" 
			},
			{
				"x": 0.8987584384,
				"y": 0.7873565324,
				"z": 1.5281345115,
				"element": "N" 
			},
			{
				"x": 1.6393631443,
				"y": 1.8985960955,
				"z": 1.1612186977,
				"element": "C" 
			},
			{
				"x": 1.4851788645,
				"y": 3.2271108748,
				"z": 1.5730734468,
				"element": "C" 
			},
			{
				"x": 2.4124486003,
				"y": 4.1636818361,
				"z": 1.1136525987,
				"element": "C" 
			},
			{
				"x": 3.4778758284,
				"y": 3.8096291248,
				"z": 0.2681204422,
				"element": "C" 
			},
			{
				"x": 3.6242330312,
				"y": 2.4859211906,
				"z": -0.1409962097,
				"element": "C" 
			},
			{
				"x": 2.6977920484,
				"y": 1.5424519307,
				"z": 0.3033927523,
				"element": "C" 
			},
			{
				"x": 2.5963560338,
				"y": 0.1072919622,
				"z": 0.0212135143,
				"element": "C" 
			},
			{
				"x": 3.3373362158,
				"y": -0.6164921153,
				"z": -0.6044444968,
				"element": "O" 
			},
			{
				"x": 1.4265746808,
				"y": -1.6299680555,
				"z": 1.5243852141,
				"element": "C" 
			},
			{
				"x": 1.0728899098,
				"y": -2.7840327281,
				"z": 0.9557021788,
				"element": "N" 
			},
			{
				"x": 1.3139719206,
				"y": -3.9197399508,
				"z": 1.6212005267,
				"element": "C" 
			},
			{
				"x": 1.9267537475,
				"y": -3.9612049948,
				"z": 2.8715435805,
				"element": "C" 
			},
			{
				"x": 2.2895027511,
				"y": -2.7509755756,
				"z": 3.46518712,
				"element": "C" 
			},
			{
				"x": 2.0338969269,
				"y": -1.5636653205,
				"z": 2.786461036,
				"element": "C" 
			},
			{
				"x": -1.6876173777,
				"y": 0.071567825,
				"z": -1.3490822364,
				"element": "C" 
			},
			{
				"x": -2.6451894924,
				"y": 0.8780008133,
				"z": -0.8804093718,
				"element": "N" 
			},
			{
				"x": -3.2474480634,
				"y": 1.7118452755,
				"z": -1.7403270483,
				"element": "C" 
			},
			{
				"x": -2.9242501887,
				"y": 1.7708234797,
				"z": -3.093230956,
				"element": "C" 
			},
			{
				"x": -1.9240446291,
				"y": 0.9219692667,
				"z": -3.5742682153,
				"element": "C" 
			},
			{
				"x": -1.2879855258,
				"y": 0.0560667866,
				"z": -2.6906028729,
				"element": "C" 
			},
			{
				"x": -2.3425767955,
				"y": -4.9703877226,
				"z": -0.1633632945,
				"element": "H" 
			},
			{
				"x": -3.7241840983,
				"y": -5.4364458886,
				"z": 1.8848194862,
				"element": "H" 
			},
			{
				"x": -4.1375690939,
				"y": -3.6308552492,
				"z": 3.5236415853,
				"element": "H" 
			},
			{
				"x": -3.1827419104,
				"y": -1.3615837009,
				"z": 3.2059284766,
				"element": "H" 
			},
			{
				"x": -2.2104982804,
				"y": 0.1082457536,
				"z": 0.9996023171,
				"element": "H" 
			},
			{
				"x": -0.0521181237,
				"y": 0.8577077076,
				"z": 1.85926463,
				"element": "H" 
			},
			{
				"x": 0.6732528202,
				"y": 3.5215751815,
				"z": 2.2313160985,
				"element": "H" 
			},
			{
				"x": 2.3054359987,
				"y": 5.1999704259,
				"z": 1.4233724377,
				"element": "H" 
			},
			{
				"x": 4.1782517457,
				"y": 4.5688283711,
				"z": -0.0644901575,
				"element": "H" 
			},
			{
				"x": 4.4304321423,
				"y": 2.1769419242,
				"z": -0.7996828087,
				"element": "H" 
			},
			{
				"x": 0.9973842287,
				"y": -4.8361994406,
				"z": 1.1270910562,
				"element": "H" 
			},
			{
				"x": 2.1082315432,
				"y": -4.9107139763,
				"z": 3.3649213389,
				"element": "H" 
			},
			{
				"x": 2.7628312995,
				"y": -2.7329395035,
				"z": 4.4428558645,
				"element": "H" 
			},
			{
				"x": 2.2903478932,
				"y": -0.6016646536,
				"z": 3.2154122424,
				"element": "H" 
			},
			{
				"x": -4.0192434373,
				"y": 2.3556176895,
				"z": -1.3235265573,
				"element": "H" 
			},
			{
				"x": -3.4433276759,
				"y": 2.4611575044,
				"z": -3.7503218871,
				"element": "H" 
			},
			{
				"x": -1.6454659273,
				"y": 0.9356101219,
				"z": -4.6239176955,
				"element": "H" 
			},
			{
				"x": -0.512976372,
				"y": -0.6297956608,
				"z": -3.0098990153,
				"element": "H" 
			}
		],
		 "valence_orbital": [ 
			{
				"type": "occ",
				"energy": -0.25074,
				"method": "rhf"
			},
			{
				"type": "occ",
				"energy": -0.23607,
				"method": "rhf"
			},
			{
				"type": "occ",
				"energy": -0.23128,
				"method": "rhf"
			},
			{
				"type": "occ",
				"energy": -0.22335,
				"method": "rhf"
			},
			{
				"type": "occ",
				"energy": -0.20851,
				"method": "rhf"
			},
			{
				"type": "unocc",
				"energy": -0.05983,
				"method": "rhf"
			},
			{
				"type": "unocc",
				"energy": -0.05275,
				"method": "rhf"
			},
			{
				"type": "unocc",
				"energy": -0.02958,
				"method": "rhf"
			},
			{
				"type": "unocc",
				"energy": -0.02031,
				"method": "rhf"
			},
			{
				"type": "unocc",
				"energy": -0.01594,
				"method": "rhf"
			}
		],
		"cosmo_sigma_profile": { 
			"-0.025": 0.0,
			"-0.024": 0.0,
			"-0.023": 0.0,
			"-0.022": 0.0,
			"-0.021": 0.0,
			"-0.02": 0.0,
			"-0.019": 0.0,
			"-0.018": 0.0,
			"-0.017": 0.0,
			"-0.016": 0.0,
			"-0.015": 0.0,
			"-0.014": 0.0,
			"-0.013": 0.130117080023,
			"-0.012": 0.857401139708,
			"-0.011": 1.41865684135,
			"-0.01": 1.48915860999,
			"-0.009": 2.33958741574,
			"-0.008": 3.90079294519,
			"-0.007": 20.3730285283,
			"-0.006": 33.2930918886,
			"-0.005": 35.7447266316,
			"-0.004": 32.4610521532,
			"-0.003": 25.3714356304,
			"-0.002": 24.2040329564,
			"-0.001": 23.2081818397,
			"0.0": 27.2503127475,
			"0.001": 36.9616031225,
			"0.002": 48.0615992648,
			"0.003": 42.4075198463,
			"0.004": 26.9979874757,
			"0.005": 9.40862876271,
			"0.006": 5.73580880665,
			"0.007": 5.6564600986,
			"0.008": 4.20585627239,
			"0.009": 4.37610141192,
			"0.01": 6.33151379602,
			"0.011": 12.3613066415,
			"0.012": 7.88766994391,
			"0.013": 1.765698454,
			"0.014": 1.06025966191,
			"0.015": 0.107958143332,
			"0.016": 0.0,
			"0.017": 0.0,
			"0.018": 0.0,
			"0.019": 0.0,
			"0.02": 0.0,
			"0.021": 0.0,
			"0.022": 0.0,
			"0.023": 0.0,
			"0.024": 0.0,
			"0.025": 0.0
		}
	}
}
