{
	 "smiles": "NC1=C(SC2=C1C=CC=C2)C#N", 
	 "Tm": 429.15, 
	 "num_atms": 18, 
	 "gaussian": { 
		 "optdone": 1, 
		 "sigma_profile": "yes", 
		 "theory": "DFT", 
		 "functional": "B3LYP", 
		 "basiset": "6-31G**", 
		 "properties": { 
			 "R2extent": 3367.4125, 
			 "electric_dipole_moment_norm": 5.45015138597, 
			 "electric_quadrupole_moment_norm": 24.5192125938, 
			 "total_energy": -854.251625292, 
			 "HOMO_LUMO_gap": 0.15532, 
			 "cosmo_polarized_energy": -13.66, 
			 "cosmo_cavitation_energy": 24.76, 
			 "cosmo_dispersion_energy": -18.46, 
			 "cosmo_repulsion_energy": 1.41, 
			 "cosmo_total_nonelectrostatic_energy": 7.7, 
			 "SMD_solvation_energy": 4.84 
		},
		"coords": [
			{
				"x": 0.3618793083,
				"y": 1.2382278317,
				"z": -2.3307750392,
				"element": "N" 
			},
			{
				"x": -0.4414353101,
				"y": 0.1701958325,
				"z": -1.9939318247,
				"element": "C" 
			},
			{
				"x": -1.6115244872,
				"y": -0.1779991727,
				"z": -2.6422707283,
				"element": "C" 
			},
			{
				"x": -2.3512076596,
				"y": -1.6574612845,
				"z": -2.0034391331,
				"element": "S" 
			},
			{
				"x": -1.0671324564,
				"y": -1.7971868104,
				"z": -0.8196630525,
				"element": "C" 
			},
			{
				"x": -0.1105887398,
				"y": -0.7613842139,
				"z": -0.9378699886,
				"element": "C" 
			},
			{
				"x": 1.0018438153,
				"y": -0.7488142712,
				"z": -0.0770653855,
				"element": "C" 
			},
			{
				"x": 1.1329160894,
				"y": -1.7404904136,
				"z": 0.8841332273,
				"element": "C" 
			},
			{
				"x": 0.1678193082,
				"y": -2.7583170845,
				"z": 0.9971620666,
				"element": "C" 
			},
			{
				"x": -0.9323126739,
				"y": -2.7987718931,
				"z": 0.1484071818,
				"element": "C" 
			},
			{
				"x": -2.1962160425,
				"y": 0.5561020615,
				"z": -3.6930927728,
				"element": "C" 
			},
			{
				"x": -2.647949221,
				"y": 1.2006938694,
				"z": -4.5554333934,
				"element": "N" 
			},
			{
				"x": 0.8630505812,
				"y": 1.6746122332,
				"z": -1.5699040585,
				"element": "H" 
			},
			{
				"x": -0.0435472762,
				"y": 1.9059930884,
				"z": -2.973718617,
				"element": "H" 
			},
			{
				"x": 1.761908449,
				"y": 0.0215398882,
				"z": -0.1729737716,
				"element": "H" 
			},
			{
				"x": 1.9896467845,
				"y": -1.7364234114,
				"z": 1.5506679635,
				"element": "H" 
			},
			{
				"x": 0.2854409611,
				"y": -3.5274133185,
				"z": 1.7545622932,
				"element": "H" 
			},
			{
				"x": -1.6699914303,
				"y": -3.5904029311,
				"z": 0.2337050327,
				"element": "H" 
			}
		],
		 "valence_orbital": [ 
			{
				"type": "occ",
				"energy": -0.32731,
				"method": "rhf"
			},
			{
				"type": "occ",
				"energy": -0.32072,
				"method": "rhf"
			},
			{
				"type": "occ",
				"energy": -0.27566,
				"method": "rhf"
			},
			{
				"type": "occ",
				"energy": -0.24828,
				"method": "rhf"
			},
			{
				"type": "occ",
				"energy": -0.21167,
				"method": "rhf"
			},
			{
				"type": "unocc",
				"energy": -0.05635,
				"method": "rhf"
			},
			{
				"type": "unocc",
				"energy": -0.01896,
				"method": "rhf"
			},
			{
				"type": "unocc",
				"energy": -0.00459,
				"method": "rhf"
			},
			{
				"type": "unocc",
				"energy": 0.01973,
				"method": "rhf"
			},
			{
				"type": "unocc",
				"energy": 0.02465,
				"method": "rhf"
			}
		],
		"cosmo_sigma_profile": { 
			"-0.025": 0.0,
			"-0.024": 0.0,
			"-0.023": 0.0,
			"-0.022": 0.0,
			"-0.021": 0.0,
			"-0.02": 0.0,
			"-0.019": 0.0,
			"-0.018": 0.0,
			"-0.017": 0.0,
			"-0.016": 0.0,
			"-0.015": 0.118430465145,
			"-0.014": 1.52816257921,
			"-0.013": 2.30927473145,
			"-0.012": 3.14839836557,
			"-0.011": 2.5418241913,
			"-0.01": 2.64148734633,
			"-0.009": 2.64724440299,
			"-0.008": 3.15131916999,
			"-0.007": 7.80144775711,
			"-0.006": 10.3759065338,
			"-0.005": 9.94487586385,
			"-0.004": 10.5212829395,
			"-0.003": 9.18536770724,
			"-0.002": 9.17100231712,
			"-0.001": 10.1217053444,
			"0.0": 13.485028238,
			"0.001": 17.8064314426,
			"0.002": 20.9506037716,
			"0.003": 17.1635695647,
			"0.004": 15.5053020945,
			"0.005": 5.97709851258,
			"0.006": 3.22346569488,
			"0.007": 2.81835509308,
			"0.008": 3.61549119018,
			"0.009": 3.54108888043,
			"0.01": 4.44681385079,
			"0.011": 3.30684043871,
			"0.012": 2.73581843819,
			"0.013": 2.20060587126,
			"0.014": 0.49815776952,
			"0.015": 0.0,
			"0.016": 0.0,
			"0.017": 0.0,
			"0.018": 0.0,
			"0.019": 0.0,
			"0.02": 0.0,
			"0.021": 0.0,
			"0.022": 0.0,
			"0.023": 0.0,
			"0.024": 0.0,
			"0.025": 0.0
		}
	}
}
