{
	 "smiles": "OC(=O)CCC(=O)C1=CC2=C(CC3=C2C=CC=C3)C=C1", 
	 "Tm": 463.15, 
	 "num_atms": 34, 
	 "gaussian": { 
		 "optdone": 1, 
		 "sigma_profile": "yes", 
		 "theory": "DFT", 
		 "functional": "B3LYP", 
		 "basiset": "6-31G**", 
		 "properties": { 
			 "R2extent": 8834.9184, 
			 "electric_dipole_moment_norm": 8.47810656574, 
			 "electric_quadrupole_moment_norm": 32.81564835, 
			 "total_energy": -881.957894735, 
			 "HOMO_LUMO_gap": 0.15514, 
			 "cosmo_polarized_energy": -17.63, 
			 "cosmo_cavitation_energy": 37.89, 
			 "cosmo_dispersion_energy": -27.59, 
			 "cosmo_repulsion_energy": 2.08, 
			 "cosmo_total_nonelectrostatic_energy": 12.39, 
			 "SMD_solvation_energy": 6.89 
		},
		"coords": [
			{
				"x": -3.490034848,
				"y": -5.0123608736,
				"z": 0.5392249389,
				"element": "O" 
			},
			{
				"x": -2.372115152,
				"y": -5.1852559171,
				"z": 1.2650421268,
				"element": "C" 
			},
			{
				"x": -2.4079096397,
				"y": -5.6388685902,
				"z": 2.3858800833,
				"element": "O" 
			},
			{
				"x": -1.0612806444,
				"y": -4.7818892967,
				"z": 0.5814984952,
				"element": "C" 
			},
			{
				"x": -0.8964487006,
				"y": -3.2727209087,
				"z": 0.3180354744,
				"element": "C" 
			},
			{
				"x": -1.6715709593,
				"y": -2.7393554999,
				"z": -0.880603553,
				"element": "C" 
			},
			{
				"x": -2.51787045,
				"y": -3.4394415749,
				"z": -1.4404700414,
				"element": "O" 
			},
			{
				"x": -1.3938397081,
				"y": -1.3636181617,
				"z": -1.3771252587,
				"element": "C" 
			},
			{
				"x": -0.4713652787,
				"y": -0.5078205566,
				"z": -0.7493016129,
				"element": "C" 
			},
			{
				"x": -0.2721626856,
				"y": 0.7723219963,
				"z": -1.2619254929,
				"element": "C" 
			},
			{
				"x": -0.9850019193,
				"y": 1.2039826298,
				"z": -2.4017656172,
				"element": "C" 
			},
			{
				"x": -0.5864859393,
				"y": 2.6206874692,
				"z": -2.754115406,
				"element": "C" 
			},
			{
				"x": 0.436518724,
				"y": 2.9582125342,
				"z": -1.6881349734,
				"element": "C" 
			},
			{
				"x": 0.6095332118,
				"y": 1.8613627465,
				"z": -0.818521718,
				"element": "C" 
			},
			{
				"x": 1.5065280711,
				"y": 1.9365239626,
				"z": 0.2495087081,
				"element": "C" 
			},
			{
				"x": 2.2279452262,
				"y": 3.1164773814,
				"z": 0.4393957638,
				"element": "C" 
			},
			{
				"x": 2.0561989344,
				"y": 4.2046674418,
				"z": -0.4241186168,
				"element": "C" 
			},
			{
				"x": 1.1579134893,
				"y": 4.131173678,
				"z": -1.4943212253,
				"element": "C" 
			},
			{
				"x": -1.8994203316,
				"y": 0.3599319528,
				"z": -3.0261252958,
				"element": "C" 
			},
			{
				"x": -2.1022970258,
				"y": -0.9183407996,
				"z": -2.5102345014,
				"element": "C" 
			},
			{
				"x": -3.2570706496,
				"y": -4.5962551325,
				"z": -0.3203417082,
				"element": "H" 
			},
			{
				"x": -0.9677957001,
				"y": -5.3242841722,
				"z": -0.3666762406,
				"element": "H" 
			},
			{
				"x": -0.2601162513,
				"y": -5.1148574668,
				"z": 1.2429264662,
				"element": "H" 
			},
			{
				"x": -1.1826152497,
				"y": -2.6903343543,
				"z": 1.2045936116,
				"element": "H" 
			},
			{
				"x": 0.1657954051,
				"y": -3.056413514,
				"z": 0.1562150768,
				"element": "H" 
			},
			{
				"x": 0.0781122625,
				"y": -0.8304133058,
				"z": 0.1288011341,
				"element": "H" 
			},
			{
				"x": -0.1673710549,
				"y": 2.6841649467,
				"z": -3.7672353439,
				"element": "H" 
			},
			{
				"x": -1.448157627,
				"y": 3.3012310691,
				"z": -2.7330741102,
				"element": "H" 
			},
			{
				"x": 1.6445698645,
				"y": 1.0961015987,
				"z": 0.924268723,
				"element": "H" 
			},
			{
				"x": 2.9291610049,
				"y": 3.1914031693,
				"z": 1.2653464246,
				"element": "H" 
			},
			{
				"x": 2.6257017466,
				"y": 5.1149766168,
				"z": -0.2612895574,
				"element": "H" 
			},
			{
				"x": 1.0295776341,
				"y": 4.9803558386,
				"z": -2.1604387821,
				"element": "H" 
			},
			{
				"x": -2.4519527411,
				"y": 0.6880549967,
				"z": -3.9023146984,
				"element": "H" 
			},
			{
				"x": -2.8103730182,
				"y": -1.5989999039,
				"z": -2.9695032731,
				"element": "H" 
			}
		],
		 "valence_orbital": [ 
			{
				"type": "occ",
				"energy": -0.28033,
				"method": "rhf"
			},
			{
				"type": "occ",
				"energy": -0.27429,
				"method": "rhf"
			},
			{
				"type": "occ",
				"energy": -0.25936,
				"method": "rhf"
			},
			{
				"type": "occ",
				"energy": -0.24802,
				"method": "rhf"
			},
			{
				"type": "occ",
				"energy": -0.23416,
				"method": "rhf"
			},
			{
				"type": "unocc",
				"energy": -0.07902,
				"method": "rhf"
			},
			{
				"type": "unocc",
				"energy": -0.04845,
				"method": "rhf"
			},
			{
				"type": "unocc",
				"energy": -0.01725,
				"method": "rhf"
			},
			{
				"type": "unocc",
				"energy": 0.00875,
				"method": "rhf"
			},
			{
				"type": "unocc",
				"energy": 0.02562,
				"method": "rhf"
			}
		],
		"cosmo_sigma_profile": { 
			"-0.025": 0.0,
			"-0.024": 0.0,
			"-0.023": 0.0,
			"-0.022": 0.0,
			"-0.021": 0.0,
			"-0.02": 0.0,
			"-0.019": 0.0,
			"-0.018": 0.0,
			"-0.017": 0.0,
			"-0.016": 0.0,
			"-0.015": 0.0,
			"-0.014": 0.0,
			"-0.013": 0.0,
			"-0.012": 0.0,
			"-0.011": 0.0,
			"-0.01": 0.0,
			"-0.009": 0.0,
			"-0.008": 2.46815594983,
			"-0.007": 13.7455751438,
			"-0.006": 24.1246866472,
			"-0.005": 29.3792349195,
			"-0.004": 28.6526418774,
			"-0.003": 26.1992616359,
			"-0.002": 19.8643683008,
			"-0.001": 14.2526196977,
			"0.0": 14.6680203604,
			"0.001": 16.1978982486,
			"0.002": 19.5207350935,
			"0.003": 24.7191894855,
			"0.004": 15.1015808465,
			"0.005": 12.3110332258,
			"0.006": 8.27100033257,
			"0.007": 2.93733326812,
			"0.008": 4.02972236435,
			"0.009": 4.59082857526,
			"0.01": 3.86543976994,
			"0.011": 4.65004342936,
			"0.012": 7.16412578228,
			"0.013": 4.67475014057,
			"0.014": 1.39025350801,
			"0.015": 0.00235271322626,
			"0.016": 0.0,
			"0.017": 0.0,
			"0.018": 0.0,
			"0.019": 0.0,
			"0.02": 0.0,
			"0.021": 0.0,
			"0.022": 0.0,
			"0.023": 0.0,
			"0.024": 0.0,
			"0.025": 0.0
		}
	}
}
