{
	 "smiles": "C1CN2CCO[Si](OC3=CC=CC=C3)(O1)OCC2", 
	 "Tm": 490.65, 
	 "num_atms": 35, 
	 "gaussian": { 
		 "optdone": 1, 
		 "sigma_profile": "yes", 
		 "theory": "DFT", 
		 "functional": "B3LYP", 
		 "basiset": "6-31G**", 
		 "properties": { 
			 "R2extent": 5235.7176, 
			 "electric_dipole_moment_norm": 6.72898664659, 
			 "electric_quadrupole_moment_norm": 6.44345572733, 
			 "total_energy": -1112.80610551, 
			 "HOMO_LUMO_gap": 0.22242, 
			 "cosmo_polarized_energy": -17.8, 
			 "cosmo_cavitation_energy": 35.95, 
			 "cosmo_dispersion_energy": -25.52, 
			 "cosmo_repulsion_energy": 2.03, 
			 "cosmo_total_nonelectrostatic_energy": 12.47, 
			 "SMD_solvation_energy": 5.9 
		},
		"coords": [
			{
				"x": 2.4597641046,
				"y": 2.033251354,
				"z": -0.3079475482,
				"element": "C" 
			},
			{
				"x": 2.0173707425,
				"y": 1.906413355,
				"z": -1.7787859716,
				"element": "C" 
			},
			{
				"x": 0.6302940279,
				"y": 1.4433598489,
				"z": -1.8471857274,
				"element": "N" 
			},
			{
				"x": 0.38794066,
				"y": 0.2716767258,
				"z": -2.6950056615,
				"element": "C" 
			},
			{
				"x": 0.7687437217,
				"y": -0.9852612006,
				"z": -1.9044586468,
				"element": "C" 
			},
			{
				"x": 0.1974362569,
				"y": -0.930172754,
				"z": -0.6125568871,
				"element": "O" 
			},
			{
				"x": 0.4251498225,
				"y": 0.3786478862,
				"z": 0.3981809173,
				"element": "Si" 
			},
			{
				"x": 0.3157054828,
				"y": -0.3086155399,
				"z": 1.9091870967,
				"element": "O" 
			},
			{
				"x": -0.7217167122,
				"y": -0.9204410004,
				"z": 2.5512132483,
				"element": "C" 
			},
			{
				"x": -0.7329430679,
				"y": -0.8620855061,
				"z": 3.9504940688,
				"element": "C" 
			},
			{
				"x": -1.7512114591,
				"y": -1.4881723247,
				"z": 4.6668223731,
				"element": "C" 
			},
			{
				"x": -2.7671537393,
				"y": -2.1777254045,
				"z": 4.000217592,
				"element": "C" 
			},
			{
				"x": -2.7479290902,
				"y": -2.2376909808,
				"z": 2.6057633076,
				"element": "C" 
			},
			{
				"x": -1.7315442621,
				"y": -1.6189596335,
				"z": 1.8762867895,
				"element": "C" 
			},
			{
				"x": 1.9903284398,
				"y": 0.9386953183,
				"z": 0.4500004818,
				"element": "O" 
			},
			{
				"x": -0.7750549385,
				"y": 1.5328530111,
				"z": 0.4558332351,
				"element": "O" 
			},
			{
				"x": -0.7718172415,
				"y": 2.7309668555,
				"z": -0.2900185999,
				"element": "C" 
			},
			{
				"x": -0.4208250494,
				"y": 2.4573546091,
				"z": -1.7665489164,
				"element": "C" 
			},
			{
				"x": 2.1017526171,
				"y": 2.9783901259,
				"z": 0.1230305125,
				"element": "H" 
			},
			{
				"x": 3.5539689977,
				"y": 2.048078296,
				"z": -0.2497297325,
				"element": "H" 
			},
			{
				"x": 2.1593849886,
				"y": 2.8600341292,
				"z": -2.3092554349,
				"element": "H" 
			},
			{
				"x": 2.6475544338,
				"y": 1.1600232946,
				"z": -2.2713972977,
				"element": "H" 
			},
			{
				"x": -0.6802667148,
				"y": 0.2313323182,
				"z": -2.9220644312,
				"element": "H" 
			},
			{
				"x": 0.9331863481,
				"y": 0.3181726667,
				"z": -3.6496619877,
				"element": "H" 
			},
			{
				"x": 0.3958364106,
				"y": -1.8815802608,
				"z": -2.412052097,
				"element": "H" 
			},
			{
				"x": 1.8620919147,
				"y": -1.0781066263,
				"z": -1.8302619287,
				"element": "H" 
			},
			{
				"x": 0.0625165939,
				"y": -0.3212837672,
				"z": 4.453006858,
				"element": "H" 
			},
			{
				"x": -1.7503490384,
				"y": -1.4347972984,
				"z": 5.7523210376,
				"element": "H" 
			},
			{
				"x": -3.5607013167,
				"y": -2.6635051514,
				"z": 4.5602373463,
				"element": "H" 
			},
			{
				"x": -3.5283291381,
				"y": -2.7764531634,
				"z": 2.0745361872,
				"element": "H" 
			},
			{
				"x": -1.7041014456,
				"y": -1.686302067,
				"z": 0.7941723494,
				"element": "H" 
			},
			{
				"x": -1.768930744,
				"y": 3.1808796162,
				"z": -0.2246969513,
				"element": "H" 
			},
			{
				"x": -0.0662626279,
				"y": 3.448773634,
				"z": 0.1510152155,
				"element": "H" 
			},
			{
				"x": -1.3077677199,
				"y": 2.066743204,
				"z": -2.2715557196,
				"element": "H" 
			},
			{
				"x": -0.1362212574,
				"y": 3.3917064303,
				"z": -2.2732350775,
				"element": "H" 
			}
		],
		 "valence_orbital": [ 
			{
				"type": "occ",
				"energy": -0.28035,
				"method": "rhf"
			},
			{
				"type": "occ",
				"energy": -0.26931,
				"method": "rhf"
			},
			{
				"type": "occ",
				"energy": -0.25411,
				"method": "rhf"
			},
			{
				"type": "occ",
				"energy": -0.22832,
				"method": "rhf"
			},
			{
				"type": "occ",
				"energy": -0.20156,
				"method": "rhf"
			},
			{
				"type": "unocc",
				"energy": 0.02086,
				"method": "rhf"
			},
			{
				"type": "unocc",
				"energy": 0.03217,
				"method": "rhf"
			},
			{
				"type": "unocc",
				"energy": 0.05859,
				"method": "rhf"
			},
			{
				"type": "unocc",
				"energy": 0.07711,
				"method": "rhf"
			},
			{
				"type": "unocc",
				"energy": 0.08538,
				"method": "rhf"
			}
		],
		"cosmo_sigma_profile": { 
			"-0.025": 0.0,
			"-0.024": 0.0,
			"-0.023": 0.0,
			"-0.022": 0.0,
			"-0.021": 0.0,
			"-0.02": 0.0,
			"-0.019": 0.0,
			"-0.018": 0.0,
			"-0.017": 0.0,
			"-0.016": 0.0,
			"-0.015": 0.0,
			"-0.014": 0.0,
			"-0.013": 0.0,
			"-0.012": 0.0,
			"-0.011": 0.0,
			"-0.01": 0.0,
			"-0.009": 0.0,
			"-0.008": 0.0,
			"-0.007": 1.48802243423,
			"-0.006": 12.2582679596,
			"-0.005": 40.346187135,
			"-0.004": 40.7581480731,
			"-0.003": 32.2106504627,
			"-0.002": 22.704677933,
			"-0.001": 14.2450960759,
			"0.0": 8.95447118032,
			"0.001": 9.99118090062,
			"0.002": 9.1320467508,
			"0.003": 9.69678988037,
			"0.004": 13.5366004538,
			"0.005": 14.3618104212,
			"0.006": 16.7542011007,
			"0.007": 8.31257770885,
			"0.008": 6.0800150735,
			"0.009": 4.66730232242,
			"0.01": 3.75631337831,
			"0.011": 3.99694406996,
			"0.012": 3.52941827423,
			"0.013": 2.13290032815,
			"0.014": 1.38190463097,
			"0.015": 0.0785131963062,
			"0.016": 0.0,
			"0.017": 0.0,
			"0.018": 0.0,
			"0.019": 0.0,
			"0.02": 0.0,
			"0.021": 0.0,
			"0.022": 0.0,
			"0.023": 0.0,
			"0.024": 0.0,
			"0.025": 0.0
		}
	}
}
