{
	 "smiles": "O=C1CC2=CC3=C(OCO3)C=C12", 
	 "Tm": 399.15, 
	 "num_atms": 18, 
	 "gaussian": { 
		 "optdone": 1, 
		 "sigma_profile": "yes", 
		 "theory": "DFT", 
		 "functional": "B3LYP", 
		 "basiset": "6-31G**", 
		 "properties": { 
			 "R2extent": 2386.5788, 
			 "electric_dipole_moment_norm": 4.38224987193, 
			 "electric_quadrupole_moment_norm": 14.8866921877, 
			 "total_energy": -572.177069451, 
			 "HOMO_LUMO_gap": 0.16771, 
			 "cosmo_polarized_energy": -9.91, 
			 "cosmo_cavitation_energy": 22.68, 
			 "cosmo_dispersion_energy": -17.39, 
			 "cosmo_repulsion_energy": 1.39, 
			 "cosmo_total_nonelectrostatic_energy": 6.68, 
			 "SMD_solvation_energy": 5.02 
		},
		"coords": [
			{
				"x": 4.0345576415,
				"y": 0.2105341837,
				"z": -1.8243870399,
				"element": "O" 
			},
			{
				"x": 2.9174902338,
				"y": -0.1580734752,
				"z": -1.5575303711,
				"element": "C" 
			},
			{
				"x": 2.2263759344,
				"y": -1.5728466148,
				"z": -1.4782978768,
				"element": "C" 
			},
			{
				"x": 0.9915741827,
				"y": -0.7633786726,
				"z": -1.0949854064,
				"element": "C" 
			},
			{
				"x": -0.3546977218,
				"y": -0.9061020311,
				"z": -0.7512844604,
				"element": "C" 
			},
			{
				"x": -0.9836232827,
				"y": 0.306100177,
				"z": -0.4978755631,
				"element": "C" 
			},
			{
				"x": -0.3410040133,
				"y": 1.5584577396,
				"z": -0.5759588542,
				"element": "C" 
			},
			{
				"x": -1.2419050304,
				"y": 2.5481549334,
				"z": -0.2671067487,
				"element": "O" 
			},
			{
				"x": -2.4839934481,
				"y": 1.9006524753,
				"z": 0.0126356842,
				"element": "C" 
			},
			{
				"x": -2.2892025574,
				"y": 0.4877814878,
				"z": -0.1412588607,
				"element": "O" 
			},
			{
				"x": 0.9893136912,
				"y": 1.708583538,
				"z": -0.9149647125,
				"element": "C" 
			},
			{
				"x": 1.6278585665,
				"y": 0.4823131656,
				"z": -1.1719429478,
				"element": "C" 
			},
			{
				"x": 2.1845137282,
				"y": -2.1131958399,
				"z": -2.4308071635,
				"element": "H" 
			},
			{
				"x": 2.6369378007,
				"y": -2.2378581182,
				"z": -0.7100457346,
				"element": "H" 
			},
			{
				"x": -0.8830768347,
				"y": -1.8499013088,
				"z": -0.6807903224,
				"element": "H" 
			},
			{
				"x": -3.2473347194,
				"y": 2.2409565233,
				"z": -0.6974133628,
				"element": "H" 
			},
			{
				"x": -2.7891610156,
				"y": 2.1144351614,
				"z": 1.0440578288,
				"element": "H" 
			},
			{
				"x": 1.4734768444,
				"y": 2.6762866754,
				"z": -0.9720440881,
				"element": "H" 
			}
		],
		 "valence_orbital": [ 
			{
				"type": "occ",
				"energy": -0.34755,
				"method": "rhf"
			},
			{
				"type": "occ",
				"energy": -0.31952,
				"method": "rhf"
			},
			{
				"type": "occ",
				"energy": -0.2638,
				"method": "rhf"
			},
			{
				"type": "occ",
				"energy": -0.24355,
				"method": "rhf"
			},
			{
				"type": "occ",
				"energy": -0.2198,
				"method": "rhf"
			},
			{
				"type": "unocc",
				"energy": -0.05209,
				"method": "rhf"
			},
			{
				"type": "unocc",
				"energy": -0.00928,
				"method": "rhf"
			},
			{
				"type": "unocc",
				"energy": 0.05285,
				"method": "rhf"
			},
			{
				"type": "unocc",
				"energy": 0.0863,
				"method": "rhf"
			},
			{
				"type": "unocc",
				"energy": 0.09728,
				"method": "rhf"
			}
		],
		"cosmo_sigma_profile": { 
			"-0.025": 0.0,
			"-0.024": 0.0,
			"-0.023": 0.0,
			"-0.022": 0.0,
			"-0.021": 0.0,
			"-0.02": 0.0,
			"-0.019": 0.0,
			"-0.018": 0.0,
			"-0.017": 0.0,
			"-0.016": 0.0,
			"-0.015": 0.0,
			"-0.014": 0.0,
			"-0.013": 0.0,
			"-0.012": 0.0,
			"-0.011": 0.0,
			"-0.01": 0.0,
			"-0.009": 0.270664833165,
			"-0.008": 9.20482127092,
			"-0.007": 10.5811701536,
			"-0.006": 10.810634773,
			"-0.005": 11.8994755729,
			"-0.004": 10.3088959776,
			"-0.003": 11.6911350394,
			"-0.002": 12.8317017678,
			"-0.001": 14.3997091072,
			"0.0": 11.8466855295,
			"0.001": 17.2784969337,
			"0.002": 15.7145947131,
			"0.003": 8.11790376917,
			"0.004": 3.54873647367,
			"0.005": 3.40968677341,
			"0.006": 4.33343798,
			"0.007": 4.1122412365,
			"0.008": 4.48997405222,
			"0.009": 4.10874404238,
			"0.01": 2.74316788505,
			"0.011": 4.62157215834,
			"0.012": 4.74853959107,
			"0.013": 1.68390859325,
			"0.014": 0.0,
			"0.015": 0.0,
			"0.016": 0.0,
			"0.017": 0.0,
			"0.018": 0.0,
			"0.019": 0.0,
			"0.02": 0.0,
			"0.021": 0.0,
			"0.022": 0.0,
			"0.023": 0.0,
			"0.024": 0.0,
			"0.025": 0.0
		}
	}
}
