{
	 "smiles": "CCC(N)CC1=CNC2=CC=CC=C12", 
	 "Tm": 370.15, 
	 "num_atms": 30, 
	 "gaussian": { 
		 "optdone": 1, 
		 "sigma_profile": "yes", 
		 "theory": "DFT", 
		 "functional": "B3LYP", 
		 "basiset": "6-31G**", 
		 "properties": { 
			 "R2extent": 3701.2534, 
			 "electric_dipole_moment_norm": 2.94040305741, 
			 "electric_quadrupole_moment_norm": 12.1104670092, 
			 "total_energy": -576.437813039, 
			 "HOMO_LUMO_gap": 0.19127, 
			 "cosmo_polarized_energy": -11.66, 
			 "cosmo_cavitation_energy": 32.66, 
			 "cosmo_dispersion_energy": -22.79, 
			 "cosmo_repulsion_energy": 1.81, 
			 "cosmo_total_nonelectrostatic_energy": 11.69, 
			 "SMD_solvation_energy": 4.07 
		},
		"coords": [
			{
				"x": 2.5097421511,
				"y": 1.5477895081,
				"z": -3.8929294963,
				"element": "C" 
			},
			{
				"x": 1.2232147372,
				"y": 1.6967225281,
				"z": -3.0759422028,
				"element": "C" 
			},
			{
				"x": 1.0788161336,
				"y": 0.6598887854,
				"z": -1.9507641434,
				"element": "C" 
			},
			{
				"x": 1.060022707,
				"y": -0.6900782964,
				"z": -2.5251185972,
				"element": "N" 
			},
			{
				"x": -0.1523269163,
				"y": 0.9825535871,
				"z": -1.056223917,
				"element": "C" 
			},
			{
				"x": -0.3052355511,
				"y": 0.0693777923,
				"z": 0.1253206152,
				"element": "C" 
			},
			{
				"x": -1.1532188752,
				"y": -1.0060380065,
				"z": 0.2376779753,
				"element": "C" 
			},
			{
				"x": -0.9841150638,
				"y": -1.6231921876,
				"z": 1.4656122869,
				"element": "N" 
			},
			{
				"x": -0.0126197628,
				"y": -0.9518188497,
				"z": 2.178908893,
				"element": "C" 
			},
			{
				"x": 0.5013252265,
				"y": -1.1880418849,
				"z": 3.4586746105,
				"element": "C" 
			},
			{
				"x": 1.4890358829,
				"y": -0.3266886101,
				"z": 3.9225477423,
				"element": "C" 
			},
			{
				"x": 1.9534919116,
				"y": 0.7454470848,
				"z": 3.1328102684,
				"element": "C" 
			},
			{
				"x": 1.4403684366,
				"y": 0.9750946896,
				"z": 1.8623683053,
				"element": "C" 
			},
			{
				"x": 0.441067189,
				"y": 0.1211268636,
				"z": 1.3622737633,
				"element": "C" 
			},
			{
				"x": 3.3932096235,
				"y": 1.7037945868,
				"z": -3.2631867257,
				"element": "H" 
			},
			{
				"x": 2.5482770543,
				"y": 2.2786203854,
				"z": -4.7076995946,
				"element": "H" 
			},
			{
				"x": 2.5814236933,
				"y": 0.5438404915,
				"z": -4.3180040096,
				"element": "H" 
			},
			{
				"x": 1.1737446089,
				"y": 2.7015029835,
				"z": -2.6367998392,
				"element": "H" 
			},
			{
				"x": 0.3495699202,
				"y": 1.6147169678,
				"z": -3.7406025144,
				"element": "H" 
			},
			{
				"x": 1.9749113795,
				"y": 0.7150821109,
				"z": -1.3162901948,
				"element": "H" 
			},
			{
				"x": 0.9580543046,
				"y": -1.3713561695,
				"z": -1.7754480606,
				"element": "H" 
			},
			{
				"x": 0.2311752753,
				"y": -0.7915043307,
				"z": -3.1112265219,
				"element": "H" 
			},
			{
				"x": -1.0544900554,
				"y": 0.933597176,
				"z": -1.6818403238,
				"element": "H" 
			},
			{
				"x": -0.0759982206,
				"y": 2.0219854524,
				"z": -0.7086349723,
				"element": "H" 
			},
			{
				"x": -1.8884934999,
				"y": -1.3760266502,
				"z": -0.4637997291,
				"element": "H" 
			},
			{
				"x": -1.5033977198,
				"y": -2.4207714068,
				"z": 1.7929921878,
				"element": "H" 
			},
			{
				"x": 0.1428294295,
				"y": -2.0128107908,
				"z": 4.0685257821,
				"element": "H" 
			},
			{
				"x": 1.9095820601,
				"y": -0.4819368717,
				"z": 4.9118426738,
				"element": "H" 
			},
			{
				"x": 2.7253215852,
				"y": 1.3997613454,
				"z": 3.5274767372,
				"element": "H" 
			},
			{
				"x": 1.8059123549,
				"y": 1.8052617162,
				"z": 1.2641790018,
				"element": "H" 
			}
		],
		 "valence_orbital": [ 
			{
				"type": "occ",
				"energy": -0.31244,
				"method": "rhf"
			},
			{
				"type": "occ",
				"energy": -0.26868,
				"method": "rhf"
			},
			{
				"type": "occ",
				"energy": -0.22699,
				"method": "rhf"
			},
			{
				"type": "occ",
				"energy": -0.21763,
				"method": "rhf"
			},
			{
				"type": "occ",
				"energy": -0.19804,
				"method": "rhf"
			},
			{
				"type": "unocc",
				"energy": -0.00677,
				"method": "rhf"
			},
			{
				"type": "unocc",
				"energy": 0.02972,
				"method": "rhf"
			},
			{
				"type": "unocc",
				"energy": 0.06507,
				"method": "rhf"
			},
			{
				"type": "unocc",
				"energy": 0.08006,
				"method": "rhf"
			},
			{
				"type": "unocc",
				"energy": 0.08899,
				"method": "rhf"
			}
		],
		"cosmo_sigma_profile": { 
			"-0.025": 0.0,
			"-0.024": 0.0,
			"-0.023": 0.0,
			"-0.022": 0.0,
			"-0.021": 0.0,
			"-0.02": 0.0,
			"-0.019": 0.0,
			"-0.018": 0.0,
			"-0.017": 0.0,
			"-0.016": 0.0957798912137,
			"-0.015": 1.51718344362,
			"-0.014": 1.15667507977,
			"-0.013": 1.11381504723,
			"-0.012": 1.62289969845,
			"-0.011": 0.958476412706,
			"-0.01": 1.22108241275,
			"-0.009": 1.76302236449,
			"-0.008": 2.76851431759,
			"-0.007": 5.83499944444,
			"-0.006": 7.36170855632,
			"-0.005": 8.94932749045,
			"-0.004": 12.7686958144,
			"-0.003": 19.5285723325,
			"-0.002": 28.4129443725,
			"-0.001": 29.1318117477,
			"0.0": 25.156394855,
			"0.001": 23.7623359655,
			"0.002": 15.6637539074,
			"0.003": 11.4737209399,
			"0.004": 10.7749878927,
			"0.005": 13.3034626262,
			"0.006": 12.3862293281,
			"0.007": 9.0653242538,
			"0.008": 3.01197223636,
			"0.009": 0.675553562128,
			"0.01": 1.20123640639,
			"0.011": 0.871278131687,
			"0.012": 0.885394644718,
			"0.013": 0.789399231914,
			"0.014": 0.753748017758,
			"0.015": 0.393726205321,
			"0.016": 0.451946701866,
			"0.017": 0.910500274737,
			"0.018": 0.383416484151,
			"0.019": 0.102878196188,
			"0.02": 0.0,
			"0.021": 0.0,
			"0.022": 0.0,
			"0.023": 0.0,
			"0.024": 0.0,
			"0.025": 0.0
		}
	}
}
