{
	 "smiles": "COCC1=C(OC)C=C(C=C1)C(O)=O", 
	 "Tm": 438.15, 
	 "num_atms": 26, 
	 "gaussian": { 
		 "optdone": 1, 
		 "sigma_profile": "yes", 
		 "theory": "DFT", 
		 "functional": "B3LYP", 
		 "basiset": "6-31G**", 
		 "properties": { 
			 "R2extent": 3621.793, 
			 "electric_dipole_moment_norm": 3.3542042484, 
			 "electric_quadrupole_moment_norm": 26.753218888, 
			 "total_energy": -689.170674136, 
			 "HOMO_LUMO_gap": 0.18417, 
			 "cosmo_polarized_energy": -17.36, 
			 "cosmo_cavitation_energy": 30.03, 
			 "cosmo_dispersion_energy": -21.36, 
			 "cosmo_repulsion_energy": 1.7, 
			 "cosmo_total_nonelectrostatic_energy": 10.37, 
			 "SMD_solvation_energy": 7.62 
		},
		"coords": [
			{
				"x": -0.4979569393,
				"y": -4.007153521,
				"z": -1.1482989926,
				"element": "C" 
			},
			{
				"x": -1.015385195,
				"y": -3.6984878706,
				"z": 0.1300815823,
				"element": "O" 
			},
			{
				"x": -2.0816738177,
				"y": -2.7592307733,
				"z": 0.1067807116,
				"element": "C" 
			},
			{
				"x": -1.6481868303,
				"y": -1.3500423567,
				"z": -0.2429570338,
				"element": "C" 
			},
			{
				"x": -0.9162697685,
				"y": -0.5776520983,
				"z": 0.6913283179,
				"element": "C" 
			},
			{
				"x": -0.6801513673,
				"y": -1.1711753665,
				"z": 1.8896730781,
				"element": "O" 
			},
			{
				"x": 0.0277443598,
				"y": -0.4409881684,
				"z": 2.8835792864,
				"element": "C" 
			},
			{
				"x": -0.5022966198,
				"y": 0.7145044754,
				"z": 0.3660672736,
				"element": "C" 
			},
			{
				"x": -0.7933634679,
				"y": 1.2524570728,
				"z": -0.89554969,
				"element": "C" 
			},
			{
				"x": -1.529806309,
				"y": 0.5064068029,
				"z": -1.8197768928,
				"element": "C" 
			},
			{
				"x": -1.9466549953,
				"y": -0.7834084909,
				"z": -1.4804613538,
				"element": "C" 
			},
			{
				"x": -0.3119577639,
				"y": 2.6475598912,
				"z": -1.1654042734,
				"element": "C" 
			},
			{
				"x": -0.2335459526,
				"y": 3.0244191329,
				"z": -2.4694048988,
				"element": "O" 
			},
			{
				"x": 0.0027146038,
				"y": 3.4235868428,
				"z": -0.2931751844,
				"element": "O" 
			},
			{
				"x": -1.277433482,
				"y": -4.4079497018,
				"z": -1.81698867,
				"element": "H" 
			},
			{
				"x": 0.2679663064,
				"y": -4.7729019772,
				"z": -1.0036778706,
				"element": "H" 
			},
			{
				"x": -0.0387125364,
				"y": -3.1364758912,
				"z": -1.6381051407,
				"element": "H" 
			},
			{
				"x": -2.8611140064,
				"y": -3.0822322045,
				"z": -0.6022473007,
				"element": "H" 
			},
			{
				"x": -2.5031338495,
				"y": -2.7791064244,
				"z": 1.1150611203,
				"element": "H" 
			},
			{
				"x": 0.0958273688,
				"y": -1.1035681603,
				"z": 3.7470397564,
				"element": "H" 
			},
			{
				"x": -0.5051647514,
				"y": 0.4748041354,
				"z": 3.1671767197,
				"element": "H" 
			},
			{
				"x": 1.0379875474,
				"y": -0.1802767889,
				"z": 2.5457170758,
				"element": "H" 
			},
			{
				"x": 0.0430641249,
				"y": 1.3367636188,
				"z": 1.0637894917,
				"element": "H" 
			},
			{
				"x": -1.8248774548,
				"y": 0.9237467188,
				"z": -2.7788532764,
				"element": "H" 
			},
			{
				"x": -2.5305118925,
				"y": -1.3620123991,
				"z": -2.1918264176,
				"element": "H" 
			},
			{
				"x": -0.3625073115,
				"y": 2.2566135022,
				"z": -3.0433674181,
				"element": "H" 
			}
		],
		 "valence_orbital": [ 
			{
				"type": "occ",
				"energy": -0.31425,
				"method": "rhf"
			},
			{
				"type": "occ",
				"energy": -0.2762,
				"method": "rhf"
			},
			{
				"type": "occ",
				"energy": -0.26427,
				"method": "rhf"
			},
			{
				"type": "occ",
				"energy": -0.25797,
				"method": "rhf"
			},
			{
				"type": "occ",
				"energy": -0.2366,
				"method": "rhf"
			},
			{
				"type": "unocc",
				"energy": -0.05243,
				"method": "rhf"
			},
			{
				"type": "unocc",
				"energy": -0.01057,
				"method": "rhf"
			},
			{
				"type": "unocc",
				"energy": 0.04702,
				"method": "rhf"
			},
			{
				"type": "unocc",
				"energy": 0.06306,
				"method": "rhf"
			},
			{
				"type": "unocc",
				"energy": 0.09306,
				"method": "rhf"
			}
		],
		"cosmo_sigma_profile": { 
			"-0.025": 0.0,
			"-0.024": 0.0,
			"-0.023": 0.0,
			"-0.022": 0.0,
			"-0.021": 0.0,
			"-0.02": 0.0,
			"-0.019": 0.138032289511,
			"-0.018": 0.552884925854,
			"-0.017": 1.01570271494,
			"-0.016": 0.855604146437,
			"-0.015": 1.41075335803,
			"-0.014": 0.744475574628,
			"-0.013": 0.414648703944,
			"-0.012": 1.44527065673,
			"-0.011": 1.51662668248,
			"-0.01": 0.739390548123,
			"-0.009": 1.24852626339,
			"-0.008": 1.57426848196,
			"-0.007": 3.32067688741,
			"-0.006": 13.9721730166,
			"-0.005": 19.1366697243,
			"-0.004": 21.9667381879,
			"-0.003": 23.9668387191,
			"-0.002": 21.1144896818,
			"-0.001": 15.033346829,
			"0.0": 11.7985420191,
			"0.001": 12.5363376145,
			"0.002": 12.7300469831,
			"0.003": 15.1193873929,
			"0.004": 6.34899679502,
			"0.005": 4.73935965901,
			"0.006": 5.10270639418,
			"0.007": 4.40580505775,
			"0.008": 4.69129918454,
			"0.009": 5.81580375243,
			"0.01": 5.50507924675,
			"0.011": 6.56072905698,
			"0.012": 7.25612138217,
			"0.013": 3.74755656506,
			"0.014": 1.16190759998,
			"0.015": 0.0109106365114,
			"0.016": 0.0,
			"0.017": 0.0,
			"0.018": 0.0,
			"0.019": 0.0,
			"0.02": 0.0,
			"0.021": 0.0,
			"0.022": 0.0,
			"0.023": 0.0,
			"0.024": 0.0,
			"0.025": 0.0
		}
	}
}
