{
	 "smiles": "FC(F)C(F)(F)C(F)(F)C(F)(F)C(F)(F)C(F)(F)C(F)(F)C(F)(F)C(F)(F)C(F)F", 
	 "Tm": 315.65, 
	 "num_atms": 32, 
	 "gaussian": { 
		 "optdone": 1, 
		 "sigma_profile": "yes", 
		 "theory": "DFT", 
		 "functional": "B3LYP", 
		 "basiset": "6-31G**", 
		 "properties": { 
			 "R2extent": 12047.1921, 
			 "electric_dipole_moment_norm": 2.33102099948, 
			 "electric_quadrupole_moment_norm": 14.0092362993, 
			 "total_energy": -2378.97083206, 
			 "HOMO_LUMO_gap": 0.34053, 
			 "cosmo_polarized_energy": -5.72, 
			 "cosmo_cavitation_energy": 41.88, 
			 "cosmo_dispersion_energy": -26.97, 
			 "cosmo_repulsion_energy": 1.68, 
			 "cosmo_total_nonelectrostatic_energy": 16.59, 
			 "SMD_solvation_energy": 13.18 
		},
		"coords": [
			{
				"x": -2.776694698,
				"y": -4.9886257907,
				"z": -0.8854252818,
				"element": "F" 
			},
			{
				"x": -1.4653636686,
				"y": -5.2527683177,
				"z": -1.1029948469,
				"element": "C" 
			},
			{
				"x": -1.3355029605,
				"y": -5.9697079426,
				"z": -2.2409776311,
				"element": "F" 
			},
			{
				"x": -0.6888025217,
				"y": -3.9268359798,
				"z": -1.2244616213,
				"element": "C" 
			},
			{
				"x": 0.5758856394,
				"y": -4.2262421551,
				"z": -1.6091271275,
				"element": "F" 
			},
			{
				"x": -0.6499240181,
				"y": -3.3728569163,
				"z": 0.0176381048,
				"element": "F" 
			},
			{
				"x": -1.2916410464,
				"y": -2.8888437563,
				"z": -2.2033074827,
				"element": "C" 
			},
			{
				"x": -1.6131505607,
				"y": -3.5358159713,
				"z": -3.3512809867,
				"element": "F" 
			},
			{
				"x": -2.4230872717,
				"y": -2.3848771327,
				"z": -1.6667801442,
				"element": "F" 
			},
			{
				"x": -0.3709262225,
				"y": -1.7048619666,
				"z": -2.6471186422,
				"element": "C" 
			},
			{
				"x": 0.5844821492,
				"y": -2.2257320729,
				"z": -3.4498977099,
				"element": "F" 
			},
			{
				"x": -1.1535128717,
				"y": -0.8745559411,
				"z": -3.3761615273,
				"element": "F" 
			},
			{
				"x": 0.3972353663,
				"y": -0.8254451111,
				"z": -1.6071565706,
				"element": "C" 
			},
			{
				"x": 1.1593573876,
				"y": 0.010654905,
				"z": -2.3482597071,
				"element": "F" 
			},
			{
				"x": 1.2075457556,
				"y": -1.6238121297,
				"z": -0.8725041858,
				"element": "F" 
			},
			{
				"x": -0.451815164,
				"y": 0.0522442709,
				"z": -0.6442858852,
				"element": "C" 
			},
			{
				"x": -1.3521866608,
				"y": -0.7414853434,
				"z": -0.0050332478,
				"element": "F" 
			},
			{
				"x": -1.112595816,
				"y": 0.9691953993,
				"z": -1.3776663096,
				"element": "F" 
			},
			{
				"x": 0.3892910279,
				"y": 0.7629481431,
				"z": 0.4597472237,
				"element": "C" 
			},
			{
				"x": 1.5164746998,
				"y": 1.2633878837,
				"z": -0.0896649917,
				"element": "F" 
			},
			{
				"x": 0.7313398097,
				"y": -0.1722281385,
				"z": 1.3853237005,
				"element": "F" 
			},
			{
				"x": -0.2935289936,
				"y": 1.944043368,
				"z": 1.2142252365,
				"element": "C" 
			},
			{
				"x": 0.6140220684,
				"y": 2.3720650002,
				"z": 2.1217983333,
				"element": "F" 
			},
			{
				"x": -0.5194362378,
				"y": 2.93683928,
				"z": 0.3246898267,
				"element": "F" 
			},
			{
				"x": -1.6258504574,
				"y": 1.6668371717,
				"z": 1.9588690888,
				"element": "C" 
			},
			{
				"x": -1.943848713,
				"y": 2.8102075993,
				"z": 2.607759295,
				"element": "F" 
			},
			{
				"x": -2.5834868216,
				"y": 1.4152610666,
				"z": 1.0267007633,
				"element": "F" 
			},
			{
				"x": -1.6312090091,
				"y": 0.5049574131,
				"z": 2.9697918027,
				"element": "C" 
			},
			{
				"x": -0.6516789234,
				"y": 0.709075591,
				"z": 3.8844727159,
				"element": "F" 
			},
			{
				"x": -2.8323884805,
				"y": 0.5212818685,
				"z": 3.5961766574,
				"element": "F" 
			},
			{
				"x": -1.0603579176,
				"y": -5.8234369093,
				"z": -0.2584829013,
				"element": "H" 
			},
			{
				"x": -1.4884448691,
				"y": -0.4612673853,
				"z": 2.4809940523,
				"element": "H" 
			}
		],
		 "valence_orbital": [ 
			{
				"type": "occ",
				"energy": -0.3973,
				"method": "rhf"
			},
			{
				"type": "occ",
				"energy": -0.3873,
				"method": "rhf"
			},
			{
				"type": "occ",
				"energy": -0.3616,
				"method": "rhf"
			},
			{
				"type": "occ",
				"energy": -0.34939,
				"method": "rhf"
			},
			{
				"type": "occ",
				"energy": -0.34494,
				"method": "rhf"
			},
			{
				"type": "unocc",
				"energy": -0.00441,
				"method": "rhf"
			},
			{
				"type": "unocc",
				"energy": 0.00861,
				"method": "rhf"
			},
			{
				"type": "unocc",
				"energy": 0.02595,
				"method": "rhf"
			},
			{
				"type": "unocc",
				"energy": 0.02841,
				"method": "rhf"
			},
			{
				"type": "unocc",
				"energy": 0.05189,
				"method": "rhf"
			}
		],
		"cosmo_sigma_profile": { 
			"-0.025": 0.0,
			"-0.024": 0.0,
			"-0.023": 0.0,
			"-0.022": 0.0,
			"-0.021": 0.0,
			"-0.02": 0.0,
			"-0.019": 0.0,
			"-0.018": 0.0,
			"-0.017": 0.0,
			"-0.016": 0.0,
			"-0.015": 0.0,
			"-0.014": 0.0,
			"-0.013": 0.00966342426571,
			"-0.012": 2.08772438721,
			"-0.011": 4.09966203743,
			"-0.01": 3.21604596711,
			"-0.009": 2.98457701375,
			"-0.008": 2.84333554446,
			"-0.007": 2.30684456984,
			"-0.006": 3.48829188546,
			"-0.005": 3.63229724706,
			"-0.004": 4.30548698604,
			"-0.003": 5.87134249388,
			"-0.002": 10.3857352314,
			"-0.001": 29.6394427458,
			"0.0": 64.3304974268,
			"0.001": 120.86608029,
			"0.002": 51.5177029709,
			"0.003": 24.6556749755,
			"0.004": 0.0284408162413,
			"0.005": 0.0,
			"0.006": 0.0,
			"0.007": 0.0,
			"0.008": 0.0,
			"0.009": 0.0,
			"0.01": 0.0,
			"0.011": 0.0,
			"0.012": 0.0,
			"0.013": 0.0,
			"0.014": 0.0,
			"0.015": 0.0,
			"0.016": 0.0,
			"0.017": 0.0,
			"0.018": 0.0,
			"0.019": 0.0,
			"0.02": 0.0,
			"0.021": 0.0,
			"0.022": 0.0,
			"0.023": 0.0,
			"0.024": 0.0,
			"0.025": 0.0
		}
	}
}
