{
	 "smiles": "O=C(OC1=CC=C2C=CC=CC2=C1C1=C(OC(=O)C2=CC=CC=C2)C=CC2=C1C=CC=C2)C1=CC=CC=C1", 
	 "Tm": 437.15, 
	 "num_atms": 60, 
	 "gaussian": { 
		 "optdone": 1, 
		 "sigma_profile": "yes", 
		 "theory": "DFT", 
		 "functional": "B3LYP", 
		 "basiset": "6-31G**", 
		 "properties": { 
			 "R2extent": 17833.6525, 
			 "electric_dipole_moment_norm": 2.44648797463, 
			 "electric_quadrupole_moment_norm": 14.9147218851, 
			 "total_energy": -1609.82451807, 
			 "HOMO_LUMO_gap": 0.16112, 
			 "cosmo_polarized_energy": -16.73, 
			 "cosmo_cavitation_energy": 65.64, 
			 "cosmo_dispersion_energy": -40.69, 
			 "cosmo_repulsion_energy": 3.04, 
			 "cosmo_total_nonelectrostatic_energy": 27.99, 
			 "SMD_solvation_energy": 11.85 
		},
		"coords": [
			{
				"x": -3.329437119,
				"y": 1.7544021052,
				"z": -0.6490550584,
				"element": "O" 
			},
			{
				"x": -2.4398599199,
				"y": 1.7687517465,
				"z": 0.1732162426,
				"element": "C" 
			},
			{
				"x": -1.2500182114,
				"y": 1.1040513711,
				"z": 0.0063718751,
				"element": "O" 
			},
			{
				"x": -1.0199342473,
				"y": 0.3711465497,
				"z": -1.1545711439,
				"element": "C" 
			},
			{
				"x": -1.8977298921,
				"y": -0.6751957047,
				"z": -1.5218319512,
				"element": "C" 
			},
			{
				"x": -1.6032410124,
				"y": -1.4475653242,
				"z": -2.6174664145,
				"element": "C" 
			},
			{
				"x": -0.4294766997,
				"y": -1.2158704832,
				"z": -3.3834013574,
				"element": "C" 
			},
			{
				"x": -0.1083372062,
				"y": -2.0113455667,
				"z": -4.5154960053,
				"element": "C" 
			},
			{
				"x": 1.0362222071,
				"y": -1.7778059252,
				"z": -5.2435364927,
				"element": "C" 
			},
			{
				"x": 1.912462197,
				"y": -0.7327578266,
				"z": -4.8656276729,
				"element": "C" 
			},
			{
				"x": 1.6310347613,
				"y": 0.0574904536,
				"z": -3.7729239605,
				"element": "C" 
			},
			{
				"x": 0.4562970206,
				"y": -0.1552746091,
				"z": -3.0000778095,
				"element": "C" 
			},
			{
				"x": 0.1345603533,
				"y": 0.6519278203,
				"z": -1.8599332677,
				"element": "C" 
			},
			{
				"x": 1.021866885,
				"y": 1.7754964993,
				"z": -1.4275637729,
				"element": "C" 
			},
			{
				"x": 1.9963472575,
				"y": 1.5691391085,
				"z": -0.4718031196,
				"element": "C" 
			},
			{
				"x": 2.176164058,
				"y": 0.2676073184,
				"z": 0.0029201353,
				"element": "O" 
			},
			{
				"x": 2.0115552621,
				"y": 0.0105001891,
				"z": 1.3358902503,
				"element": "C" 
			},
			{
				"x": 1.7069351058,
				"y": 0.8568800762,
				"z": 2.1500114168,
				"element": "O" 
			},
			{
				"x": 2.2557393041,
				"y": -1.4223232142,
				"z": 1.6510020873,
				"element": "C" 
			},
			{
				"x": 2.1537154609,
				"y": -1.8193574555,
				"z": 2.9920431702,
				"element": "C" 
			},
			{
				"x": 2.3724515422,
				"y": -3.1483567457,
				"z": 3.3441587838,
				"element": "C" 
			},
			{
				"x": 2.6922805403,
				"y": -4.0873283101,
				"z": 2.3593680183,
				"element": "C" 
			},
			{
				"x": 2.7920591695,
				"y": -3.6953683744,
				"z": 1.0220592796,
				"element": "C" 
			},
			{
				"x": 2.5753317957,
				"y": -2.3659811594,
				"z": 0.6637847978,
				"element": "C" 
			},
			{
				"x": 2.8612722977,
				"y": 2.5952881134,
				"z": -0.0298644173,
				"element": "C" 
			},
			{
				"x": 2.7376055741,
				"y": 3.8546652937,
				"z": -0.5616419393,
				"element": "C" 
			},
			{
				"x": 1.7530227877,
				"y": 4.1388290271,
				"z": -1.5452811021,
				"element": "C" 
			},
			{
				"x": 0.8809074449,
				"y": 3.0889538746,
				"z": -1.986015532,
				"element": "C" 
			},
			{
				"x": -0.1062585818,
				"y": 3.3937127076,
				"z": -2.963297089,
				"element": "C" 
			},
			{
				"x": -0.2199671145,
				"y": 4.6654291045,
				"z": -3.4800366277,
				"element": "C" 
			},
			{
				"x": 0.6461896483,
				"y": 5.6984447291,
				"z": -3.0497057838,
				"element": "C" 
			},
			{
				"x": 1.6097091343,
				"y": 5.4375900004,
				"z": -2.1022508361,
				"element": "C" 
			},
			{
				"x": -2.4825319577,
				"y": 2.4896049168,
				"z": 1.472304982,
				"element": "C" 
			},
			{
				"x": -3.6691093438,
				"y": 3.1652456132,
				"z": 1.794624276,
				"element": "C" 
			},
			{
				"x": -3.772110591,
				"y": 3.8584552274,
				"z": 2.9970343858,
				"element": "C" 
			},
			{
				"x": -2.6898722394,
				"y": 3.8824553157,
				"z": 3.8818598083,
				"element": "C" 
			},
			{
				"x": -1.506379196,
				"y": 3.2136881044,
				"z": 3.5607548566,
				"element": "C" 
			},
			{
				"x": -1.3950541249,
				"y": 2.5152398343,
				"z": 2.3588326461,
				"element": "C" 
			},
			{
				"x": -2.7915991394,
				"y": -0.8474459303,
				"z": -0.935388938,
				"element": "H" 
			},
			{
				"x": -2.2713874156,
				"y": -2.2528065941,
				"z": -2.9104559568,
				"element": "H" 
			},
			{
				"x": -0.7876770501,
				"y": -2.8119581035,
				"z": -4.7970448978,
				"element": "H" 
			},
			{
				"x": 1.2698235484,
				"y": -2.392806792,
				"z": -6.1077224068,
				"element": "H" 
			},
			{
				"x": 2.8144761442,
				"y": -0.5525936251,
				"z": -5.4434206993,
				"element": "H" 
			},
			{
				"x": 2.3072114857,
				"y": 0.8571450363,
				"z": -3.4901602147,
				"element": "H" 
			},
			{
				"x": 1.9029130531,
				"y": -1.0722646435,
				"z": 3.7373679261,
				"element": "H" 
			},
			{
				"x": 2.2936615126,
				"y": -3.453740802,
				"z": 4.3832747692,
				"element": "H" 
			},
			{
				"x": 2.8623112326,
				"y": -5.1245595864,
				"z": 2.6340815053,
				"element": "H" 
			},
			{
				"x": 3.0375359687,
				"y": -4.4264407178,
				"z": 0.2575499573,
				"element": "H" 
			},
			{
				"x": 2.6454559224,
				"y": -2.0549803964,
				"z": -0.3719390936,
				"element": "H" 
			},
			{
				"x": 3.6076344105,
				"y": 2.3713666441,
				"z": 0.7232028329,
				"element": "H" 
			},
			{
				"x": 3.3965004591,
				"y": 4.6528713007,
				"z": -0.231027651,
				"element": "H" 
			},
			{
				"x": -0.7793309053,
				"y": 2.6097185861,
				"z": -3.2927518389,
				"element": "H" 
			},
			{
				"x": -0.9833967316,
				"y": 4.8786361739,
				"z": -4.2225250281,
				"element": "H" 
			},
			{
				"x": 0.5452911827,
				"y": 6.6963286078,
				"z": -3.466379698,
				"element": "H" 
			},
			{
				"x": 2.2767699436,
				"y": 6.2254208929,
				"z": -1.7616527478,
				"element": "H" 
			},
			{
				"x": -4.4933070421,
				"y": 3.1326652869,
				"z": 1.0900331584,
				"element": "H" 
			},
			{
				"x": -4.6918874794,
				"y": 4.3797536156,
				"z": 3.2455871394,
				"element": "H" 
			},
			{
				"x": -2.7693787075,
				"y": 4.4241256043,
				"z": 4.8204550456,
				"element": "H" 
			},
			{
				"x": -0.6643669108,
				"y": 3.2352177657,
				"z": 4.2461189335,
				"element": "H" 
			},
			{
				"x": -0.4718658318,
				"y": 2.0035832756,
				"z": 2.1106422446,
				"element": "H" 
			}
		],
		 "valence_orbital": [ 
			{
				"type": "occ",
				"energy": -0.25052,
				"method": "rhf"
			},
			{
				"type": "occ",
				"energy": -0.24033,
				"method": "rhf"
			},
			{
				"type": "occ",
				"energy": -0.23889,
				"method": "rhf"
			},
			{
				"type": "occ",
				"energy": -0.21485,
				"method": "rhf"
			},
			{
				"type": "occ",
				"energy": -0.21381,
				"method": "rhf"
			},
			{
				"type": "unocc",
				"energy": -0.05269,
				"method": "rhf"
			},
			{
				"type": "unocc",
				"energy": -0.04542,
				"method": "rhf"
			},
			{
				"type": "unocc",
				"energy": -0.03934,
				"method": "rhf"
			},
			{
				"type": "unocc",
				"energy": -0.03713,
				"method": "rhf"
			},
			{
				"type": "unocc",
				"energy": -0.01192,
				"method": "rhf"
			}
		],
		"cosmo_sigma_profile": { 
			"-0.025": 0.0,
			"-0.024": 0.0,
			"-0.023": 0.0,
			"-0.022": 0.0,
			"-0.021": 0.0,
			"-0.02": 0.0,
			"-0.019": 0.0,
			"-0.018": 0.0,
			"-0.017": 0.0,
			"-0.016": 0.0,
			"-0.015": 0.0,
			"-0.014": 0.0,
			"-0.013": 0.0,
			"-0.012": 0.0,
			"-0.011": 0.0,
			"-0.01": 0.0,
			"-0.009": 0.0,
			"-0.008": 0.0959924867417,
			"-0.007": 9.51716587422,
			"-0.006": 38.6823151318,
			"-0.005": 41.3924636269,
			"-0.004": 43.5923055638,
			"-0.003": 31.8408023509,
			"-0.002": 32.0230842424,
			"-0.001": 35.7967241872,
			"0.0": 36.1478971663,
			"0.001": 47.6168396599,
			"0.002": 52.3978571011,
			"0.003": 63.1997289443,
			"0.004": 53.4660030156,
			"0.005": 17.8283568635,
			"0.006": 4.1853185235,
			"0.007": 3.43692474517,
			"0.008": 3.81257907413,
			"0.009": 3.92564517806,
			"0.01": 4.06879618129,
			"0.011": 5.43797240979,
			"0.012": 1.2404642224,
			"0.013": 0.0,
			"0.014": 0.0,
			"0.015": 0.0,
			"0.016": 0.0,
			"0.017": 0.0,
			"0.018": 0.0,
			"0.019": 0.0,
			"0.02": 0.0,
			"0.021": 0.0,
			"0.022": 0.0,
			"0.023": 0.0,
			"0.024": 0.0,
			"0.025": 0.0
		}
	}
}
