{
	 "smiles": "O=C1CSC(NC2CCCC2)=N1", 
	 "Tm": 384.15, 
	 "num_atms": 24, 
	 "gaussian": { 
		 "optdone": 1, 
		 "sigma_profile": "yes", 
		 "theory": "DFT", 
		 "functional": "B3LYP", 
		 "basiset": "6-31G**", 
		 "properties": { 
			 "R2extent": 3251.8835, 
			 "electric_dipole_moment_norm": 5.23591987811, 
			 "electric_quadrupole_moment_norm": 12.6905839621, 
			 "total_energy": -895.016230296, 
			 "HOMO_LUMO_gap": 0.22204, 
			 "cosmo_polarized_energy": -15.95, 
			 "cosmo_cavitation_energy": 28.14, 
			 "cosmo_dispersion_energy": -21.35, 
			 "cosmo_repulsion_energy": 1.7, 
			 "cosmo_total_nonelectrostatic_energy": 8.49, 
			 "SMD_solvation_energy": 2.81 
		},
		"coords": [
			{
				"x": -0.1121111987,
				"y": -3.7585109108,
				"z": -2.0565628128,
				"element": "O" 
			},
			{
				"x": 0.083251865,
				"y": -3.1183638021,
				"z": -1.0458000197,
				"element": "C" 
			},
			{
				"x": 0.2635337278,
				"y": -3.8392584079,
				"z": 0.323639723,
				"element": "C" 
			},
			{
				"x": 0.540594356,
				"y": -2.5387071295,
				"z": 1.5678038642,
				"element": "S" 
			},
			{
				"x": 0.3894438899,
				"y": -1.3174142265,
				"z": 0.2473664632,
				"element": "C" 
			},
			{
				"x": 0.5293649184,
				"y": -0.0252827772,
				"z": 0.5785439841,
				"element": "N" 
			},
			{
				"x": 0.3872316114,
				"y": 1.078969975,
				"z": -0.3679691706,
				"element": "C" 
			},
			{
				"x": -1.0016777219,
				"y": 1.7439406435,
				"z": -0.386864254,
				"element": "C" 
			},
			{
				"x": -0.7394438908,
				"y": 3.0518302536,
				"z": -1.151758842,
				"element": "C" 
			},
			{
				"x": 0.7016447716,
				"y": 3.4837878821,
				"z": -0.7447380869,
				"element": "C" 
			},
			{
				"x": 1.3447282323,
				"y": 2.2470106832,
				"z": -0.0608836279,
				"element": "C" 
			},
			{
				"x": 0.165915314,
				"y": -1.7358138334,
				"z": -0.9637099862,
				"element": "N" 
			},
			{
				"x": 1.1188094987,
				"y": -4.5156260038,
				"z": 0.2710373149,
				"element": "H" 
			},
			{
				"x": -0.6334200935,
				"y": -4.4167829967,
				"z": 0.5556601996,
				"element": "H" 
			},
			{
				"x": 0.6424905112,
				"y": 0.2037035211,
				"z": 1.5565191379,
				"element": "H" 
			},
			{
				"x": 0.5967110076,
				"y": 0.6590428939,
				"z": -1.354984884,
				"element": "H" 
			},
			{
				"x": -1.7625702276,
				"y": 1.107897535,
				"z": -0.8471630542,
				"element": "H" 
			},
			{
				"x": -1.3172705802,
				"y": 1.9531309996,
				"z": 0.6443309243,
				"element": "H" 
			},
			{
				"x": -1.4857393027,
				"y": 3.8214752007,
				"z": -0.9361148598,
				"element": "H" 
			},
			{
				"x": -0.7826717482,
				"y": 2.8602553114,
				"z": -2.2296108157,
				"element": "H" 
			},
			{
				"x": 1.2770304894,
				"y": 3.799002668,
				"z": -1.6198263923,
				"element": "H" 
			},
			{
				"x": 0.6834668894,
				"y": 4.3363236105,
				"z": -0.0594547548,
				"element": "H" 
			},
			{
				"x": 1.3913428363,
				"y": 2.3968212263,
				"z": 1.0264162387,
				"element": "H" 
			},
			{
				"x": 2.3650448444,
				"y": 2.045367684,
				"z": -0.3982762889,
				"element": "H" 
			}
		],
		 "valence_orbital": [ 
			{
				"type": "occ",
				"energy": -0.33016,
				"method": "rhf"
			},
			{
				"type": "occ",
				"energy": -0.27846,
				"method": "rhf"
			},
			{
				"type": "occ",
				"energy": -0.25644,
				"method": "rhf"
			},
			{
				"type": "occ",
				"energy": -0.24614,
				"method": "rhf"
			},
			{
				"type": "occ",
				"energy": -0.24535,
				"method": "rhf"
			},
			{
				"type": "unocc",
				"energy": -0.02331,
				"method": "rhf"
			},
			{
				"type": "unocc",
				"energy": -0.00386,
				"method": "rhf"
			},
			{
				"type": "unocc",
				"energy": 0.06121,
				"method": "rhf"
			},
			{
				"type": "unocc",
				"energy": 0.06449,
				"method": "rhf"
			},
			{
				"type": "unocc",
				"energy": 0.07273,
				"method": "rhf"
			}
		],
		"cosmo_sigma_profile": { 
			"-0.025": 0.0,
			"-0.024": 0.0,
			"-0.023": 0.0,
			"-0.022": 0.0,
			"-0.021": 0.0,
			"-0.02": 0.0,
			"-0.019": 0.0,
			"-0.018": 0.0,
			"-0.017": 0.0,
			"-0.016": 0.375437307017,
			"-0.015": 1.01474312991,
			"-0.014": 0.967954951841,
			"-0.013": 1.57774100205,
			"-0.012": 1.03993503495,
			"-0.011": 1.56591157357,
			"-0.01": 1.54451973527,
			"-0.009": 1.10877034224,
			"-0.008": 4.48305114268,
			"-0.007": 5.50152155236,
			"-0.006": 6.27000682617,
			"-0.005": 7.23867354738,
			"-0.004": 12.772778459,
			"-0.003": 23.4109665797,
			"-0.002": 26.0851058453,
			"-0.001": 26.0900702916,
			"0.0": 23.3639958889,
			"0.001": 21.4984466301,
			"0.002": 7.9521716325,
			"0.003": 4.67449394078,
			"0.004": 5.72027185462,
			"0.005": 4.68433123938,
			"0.006": 4.02801587432,
			"0.007": 3.88748920996,
			"0.008": 2.11374132317,
			"0.009": 1.88608051869,
			"0.01": 2.83423667763,
			"0.011": 3.23468652032,
			"0.012": 5.00088991274,
			"0.013": 6.82674790767,
			"0.014": 3.93027553193,
			"0.015": 0.42798855838,
			"0.016": 0.0,
			"0.017": 0.0,
			"0.018": 0.0,
			"0.019": 0.0,
			"0.02": 0.0,
			"0.021": 0.0,
			"0.022": 0.0,
			"0.023": 0.0,
			"0.024": 0.0,
			"0.025": 0.0
		}
	}
}
