{
	 "smiles": "CC1=C(C=O)C2=C(N1)C=CC(F)=C2", 
	 "Tm": 489.15, 
	 "num_atms": 21, 
	 "gaussian": { 
		 "optdone": 1, 
		 "sigma_profile": "yes", 
		 "theory": "DFT", 
		 "functional": "B3LYP", 
		 "basiset": "6-31G**", 
		 "properties": { 
			 "R2extent": 2708.0133, 
			 "electric_dipole_moment_norm": 6.97748354996, 
			 "electric_quadrupole_moment_norm": 6.92118494768, 
			 "total_energy": -615.702618547, 
			 "HOMO_LUMO_gap": 0.17745, 
			 "cosmo_polarized_energy": -16.74, 
			 "cosmo_cavitation_energy": 25.91, 
			 "cosmo_dispersion_energy": -18.81, 
			 "cosmo_repulsion_energy": 1.45, 
			 "cosmo_total_nonelectrostatic_energy": 8.55, 
			 "SMD_solvation_energy": 5.6 
		},
		"coords": [
			{
				"x": 3.181466127,
				"y": 0.0022668679,
				"z": -0.6970606749,
				"element": "C" 
			},
			{
				"x": 1.6885466751,
				"y": -0.0046793832,
				"z": -0.8193221805,
				"element": "C" 
			},
			{
				"x": 0.7182807031,
				"y": -0.6427566821,
				"z": -0.0487688388,
				"element": "C" 
			},
			{
				"x": 0.967452002,
				"y": -1.4853329997,
				"z": 1.1035393685,
				"element": "C" 
			},
			{
				"x": 0.098765814,
				"y": -2.0363733689,
				"z": 1.7670724001,
				"element": "O" 
			},
			{
				"x": -0.5679041688,
				"y": -0.3041040237,
				"z": -0.6163949976,
				"element": "C" 
			},
			{
				"x": -0.3175024155,
				"y": 0.5394862846,
				"z": -1.7260764338,
				"element": "C" 
			},
			{
				"x": 1.0628178077,
				"y": 0.6960587091,
				"z": -1.8145684277,
				"element": "N" 
			},
			{
				"x": -1.3413066848,
				"y": 1.0622425042,
				"z": -2.5175047121,
				"element": "C" 
			},
			{
				"x": -2.6480793465,
				"y": 0.7243189364,
				"z": -2.1791992385,
				"element": "C" 
			},
			{
				"x": -2.8907108688,
				"y": -0.1119249773,
				"z": -1.0787120725,
				"element": "C" 
			},
			{
				"x": -4.1784463587,
				"y": -0.4104080852,
				"z": -0.7916482923,
				"element": "F" 
			},
			{
				"x": -1.8883407584,
				"y": -0.639589585,
				"z": -0.2825767009,
				"element": "C" 
			},
			{
				"x": 3.6374459618,
				"y": 0.6157032206,
				"z": -1.4797472038,
				"element": "H" 
			},
			{
				"x": 3.5006637298,
				"y": 0.4045681872,
				"z": 0.2695651551,
				"element": "H" 
			},
			{
				"x": 3.59348481,
				"y": -1.0081083645,
				"z": -0.7835362291,
				"element": "H" 
			},
			{
				"x": 2.0408882371,
				"y": -1.6139391652,
				"z": 1.3712656761,
				"element": "H" 
			},
			{
				"x": 1.5415740944,
				"y": 1.2464612804,
				"z": -2.5108182643,
				"element": "H" 
			},
			{
				"x": -1.1363950904,
				"y": 1.7082111381,
				"z": -3.3660447633,
				"element": "H" 
			},
			{
				"x": -3.4917663305,
				"y": 1.0948041976,
				"z": -2.750448955,
				"element": "H" 
			},
			{
				"x": -2.1103339396,
				"y": -1.2821046913,
				"z": 0.5598853852,
				"element": "H" 
			}
		],
		 "valence_orbital": [ 
			{
				"type": "occ",
				"energy": -0.33134,
				"method": "rhf"
			},
			{
				"type": "occ",
				"energy": -0.28311,
				"method": "rhf"
			},
			{
				"type": "occ",
				"energy": -0.23886,
				"method": "rhf"
			},
			{
				"type": "occ",
				"energy": -0.22567,
				"method": "rhf"
			},
			{
				"type": "occ",
				"energy": -0.21864,
				"method": "rhf"
			},
			{
				"type": "unocc",
				"energy": -0.04119,
				"method": "rhf"
			},
			{
				"type": "unocc",
				"energy": -0.01121,
				"method": "rhf"
			},
			{
				"type": "unocc",
				"energy": 0.02501,
				"method": "rhf"
			},
			{
				"type": "unocc",
				"energy": 0.0579,
				"method": "rhf"
			},
			{
				"type": "unocc",
				"energy": 0.09088,
				"method": "rhf"
			}
		],
		"cosmo_sigma_profile": { 
			"-0.025": 0.0,
			"-0.024": 0.0,
			"-0.023": 0.0,
			"-0.022": 0.0,
			"-0.021": 0.0,
			"-0.02": 0.0,
			"-0.019": 0.0,
			"-0.018": 0.0,
			"-0.017": 0.127086193733,
			"-0.016": 1.47899343486,
			"-0.015": 1.64197601881,
			"-0.014": 1.34771266299,
			"-0.013": 1.58800756004,
			"-0.012": 1.41430406924,
			"-0.011": 1.76011635427,
			"-0.01": 1.24144382874,
			"-0.009": 1.3666625525,
			"-0.008": 2.46836913976,
			"-0.007": 4.87929826423,
			"-0.006": 9.98637090131,
			"-0.005": 15.4305346372,
			"-0.004": 13.7923038916,
			"-0.003": 12.4084173242,
			"-0.002": 14.7570913027,
			"-0.001": 9.85744003446,
			"0.0": 7.91686154552,
			"0.001": 11.7946776535,
			"0.002": 16.8287623771,
			"0.003": 16.779957523,
			"0.004": 24.6297638913,
			"0.005": 13.9005274725,
			"0.006": 2.20788133871,
			"0.007": 1.97876097813,
			"0.008": 1.595112485,
			"0.009": 2.27305958471,
			"0.01": 1.99176871019,
			"0.011": 1.79642275709,
			"0.012": 3.38518283159,
			"0.013": 3.17995348603,
			"0.014": 1.52925455261,
			"0.015": 0.303586906314,
			"0.016": 0.0,
			"0.017": 0.0,
			"0.018": 0.0,
			"0.019": 0.0,
			"0.02": 0.0,
			"0.021": 0.0,
			"0.022": 0.0,
			"0.023": 0.0,
			"0.024": 0.0,
			"0.025": 0.0
		}
	}
}
