{
	 "smiles": "CC1=NC2=C(S1)C=C(C=C2)C#N", 
	 "Tm": 403.15, 
	 "num_atms": 18, 
	 "gaussian": { 
		 "optdone": 1, 
		 "sigma_profile": "yes", 
		 "theory": "DFT", 
		 "functional": "B3LYP", 
		 "basiset": "6-31G**", 
		 "properties": { 
			 "R2extent": 2748.4758, 
			 "electric_dipole_moment_norm": 5.02582601072, 
			 "electric_quadrupole_moment_norm": 15.0205967847, 
			 "total_energy": -854.261682238, 
			 "HOMO_LUMO_gap": 0.18634, 
			 "cosmo_polarized_energy": -10.46, 
			 "cosmo_cavitation_energy": 25.28, 
			 "cosmo_dispersion_energy": -18.71, 
			 "cosmo_repulsion_energy": 1.43, 
			 "cosmo_total_nonelectrostatic_energy": 8.0, 
			 "SMD_solvation_energy": 3.63 
		},
		"coords": [
			{
				"x": 3.7612942528,
				"y": -0.8234434443,
				"z": -0.9735264404,
				"element": "C" 
			},
			{
				"x": 2.4141785987,
				"y": -0.3026505828,
				"z": -0.5833103646,
				"element": "C" 
			},
			{
				"x": 1.3281167389,
				"y": -1.0066762725,
				"z": -0.5942356768,
				"element": "N" 
			},
			{
				"x": 0.2358443696,
				"y": -0.2615979552,
				"z": -0.1843377731,
				"element": "C" 
			},
			{
				"x": 0.5124703609,
				"y": 1.0867757513,
				"z": 0.1570857865,
				"element": "C" 
			},
			{
				"x": 2.2230596875,
				"y": 1.3930560221,
				"z": -0.0581894789,
				"element": "S" 
			},
			{
				"x": -0.4909378505,
				"y": 1.9508854024,
				"z": 0.5857906923,
				"element": "C" 
			},
			{
				"x": -1.7977368734,
				"y": 1.4485759984,
				"z": 0.6725740979,
				"element": "C" 
			},
			{
				"x": -2.0853299673,
				"y": 0.1053608824,
				"z": 0.3345430024,
				"element": "C" 
			},
			{
				"x": -1.0775675266,
				"y": -0.7455304151,
				"z": -0.0910971933,
				"element": "C" 
			},
			{
				"x": -2.8559436497,
				"y": 2.3107140714,
				"z": 1.1105121741,
				"element": "C" 
			},
			{
				"x": -3.7167646002,
				"y": 3.0083006693,
				"z": 1.465705158,
				"element": "N" 
			},
			{
				"x": 3.6618748281,
				"y": -1.8717764525,
				"z": -1.2591954695,
				"element": "H" 
			},
			{
				"x": 4.4714536677,
				"y": -0.7447519649,
				"z": -0.1436163046,
				"element": "H" 
			},
			{
				"x": 4.1738632881,
				"y": -0.2604436185,
				"z": -1.8173826328,
				"element": "H" 
			},
			{
				"x": -0.2852190646,
				"y": 2.9825162885,
				"z": 0.8481003234,
				"element": "H" 
			},
			{
				"x": -3.10696524,
				"y": -0.2495150629,
				"z": 0.4133626365,
				"element": "H" 
			},
			{
				"x": -1.2827910201,
				"y": -1.7775993171,
				"z": -0.3535825371,
				"element": "H" 
			}
		],
		 "valence_orbital": [ 
			{
				"type": "occ",
				"energy": -0.32982,
				"method": "rhf"
			},
			{
				"type": "occ",
				"energy": -0.32209,
				"method": "rhf"
			},
			{
				"type": "occ",
				"energy": -0.29222,
				"method": "rhf"
			},
			{
				"type": "occ",
				"energy": -0.25733,
				"method": "rhf"
			},
			{
				"type": "occ",
				"energy": -0.25321,
				"method": "rhf"
			},
			{
				"type": "unocc",
				"energy": -0.06687,
				"method": "rhf"
			},
			{
				"type": "unocc",
				"energy": -0.02852,
				"method": "rhf"
			},
			{
				"type": "unocc",
				"energy": -0.00709,
				"method": "rhf"
			},
			{
				"type": "unocc",
				"energy": -0.00252,
				"method": "rhf"
			},
			{
				"type": "unocc",
				"energy": 0.0343,
				"method": "rhf"
			}
		],
		"cosmo_sigma_profile": { 
			"-0.025": 0.0,
			"-0.024": 0.0,
			"-0.023": 0.0,
			"-0.022": 0.0,
			"-0.021": 0.0,
			"-0.02": 0.0,
			"-0.019": 0.0,
			"-0.018": 0.0,
			"-0.017": 0.0,
			"-0.016": 0.0,
			"-0.015": 0.0,
			"-0.014": 0.0,
			"-0.013": 0.0,
			"-0.012": 0.0,
			"-0.011": 0.0,
			"-0.01": 0.144391387223,
			"-0.009": 2.43806589922,
			"-0.008": 4.63474981628,
			"-0.007": 8.46516443311,
			"-0.006": 12.8267833884,
			"-0.005": 13.6223102676,
			"-0.004": 13.1271180851,
			"-0.003": 12.6505232858,
			"-0.002": 17.3733409496,
			"-0.001": 18.5134315973,
			"0.0": 17.1079201336,
			"0.001": 23.4406559397,
			"0.002": 15.3401345281,
			"0.003": 8.25280778444,
			"0.004": 4.52534718952,
			"0.005": 3.97267130935,
			"0.006": 3.45296420706,
			"0.007": 3.84349877015,
			"0.008": 4.71710362798,
			"0.009": 4.47946085536,
			"0.01": 4.10787601096,
			"0.011": 3.65905741867,
			"0.012": 3.03784164373,
			"0.013": 2.66699420309,
			"0.014": 0.615078842997,
			"0.015": 0.0232833096258,
			"0.016": 0.0,
			"0.017": 0.0,
			"0.018": 0.0,
			"0.019": 0.0,
			"0.02": 0.0,
			"0.021": 0.0,
			"0.022": 0.0,
			"0.023": 0.0,
			"0.024": 0.0,
			"0.025": 0.0
		}
	}
}
