{
	 "smiles": "CC1=C(C)C(Br)=C(Br)C(C)=C1C", 
	 "Tm": 345.15, 
	 "num_atms": 24, 
	 "gaussian": { 
		 "optdone": 1, 
		 "sigma_profile": "yes", 
		 "theory": "DFT", 
		 "functional": "B3LYP", 
		 "basiset": "6-31G**", 
		 "properties": { 
			 "R2extent": 5563.4261, 
			 "electric_dipole_moment_norm": 3.38319104693, 
			 "electric_quadrupole_moment_norm": 6.60301411705, 
			 "total_energy": -5531.11923948, 
			 "HOMO_LUMO_gap": 0.21584, 
			 "cosmo_polarized_energy": -4.76, 
			 "cosmo_cavitation_energy": 29.21, 
			 "cosmo_dispersion_energy": -22.45, 
			 "cosmo_repulsion_energy": 1.75, 
			 "cosmo_total_nonelectrostatic_energy": 8.5, 
			 "SMD_solvation_energy": 3.0 
		},
		"coords": [
			{
				"x": -1.5561564247,
				"y": 1.6754270166,
				"z": 0.004813377,
				"element": "C" 
			},
			{
				"x": -0.1796064892,
				"y": 1.0448668642,
				"z": -0.0772350419,
				"element": "C" 
			},
			{
				"x": -0.0519870166,
				"y": -0.272869644,
				"z": -0.5673545605,
				"element": "C" 
			},
			{
				"x": -1.2914314221,
				"y": -1.0595259047,
				"z": -0.9319366107,
				"element": "C" 
			},
			{
				"x": 1.2365753266,
				"y": -0.8131968972,
				"z": -0.691983472,
				"element": "C" 
			},
			{
				"x": 1.4493812886,
				"y": -2.5867826618,
				"z": -1.3869330457,
				"element": "Br" 
			},
			{
				"x": 2.3698795623,
				"y": -0.0692965318,
				"z": -0.3334963785,
				"element": "C" 
			},
			{
				"x": 4.1111572834,
				"y": -0.8486822506,
				"z": -0.5187366679,
				"element": "Br" 
			},
			{
				"x": 2.2488167694,
				"y": 1.231825196,
				"z": 0.1767178784,
				"element": "C" 
			},
			{
				"x": 3.455337618,
				"y": 2.0611193516,
				"z": 0.5568160888,
				"element": "C" 
			},
			{
				"x": 0.9536435985,
				"y": 1.7730915036,
				"z": 0.326647242,
				"element": "C" 
			},
			{
				"x": 0.7923814628,
				"y": 3.1521445952,
				"z": 0.9361351021,
				"element": "C" 
			},
			{
				"x": -2.2278305226,
				"y": 1.2762817942,
				"z": -0.7567256145,
				"element": "H" 
			},
			{
				"x": -2.0310690561,
				"y": 1.4975444601,
				"z": 0.9793382046,
				"element": "H" 
			},
			{
				"x": -1.5126393097,
				"y": 2.7562195451,
				"z": -0.1416058033,
				"element": "H" 
			},
			{
				"x": -2.0731769773,
				"y": -0.9309414818,
				"z": -0.1783205702,
				"element": "H" 
			},
			{
				"x": -1.0793120488,
				"y": -2.1232660101,
				"z": -1.0196764797,
				"element": "H" 
			},
			{
				"x": -1.7056579315,
				"y": -0.7277478504,
				"z": -1.8925434155,
				"element": "H" 
			},
			{
				"x": 3.5823618653,
				"y": 2.1035254864,
				"z": 1.6460676184,
				"element": "H" 
			},
			{
				"x": 3.3519727914,
				"y": 3.0897837069,
				"z": 0.2007157718,
				"element": "H" 
			},
			{
				"x": 4.3719791759,
				"y": 1.6499487813,
				"z": 0.1386100078,
				"element": "H" 
			},
			{
				"x": -0.1473652277,
				"y": 3.2422956726,
				"z": 1.4840089667,
				"element": "H" 
			},
			{
				"x": 0.8010262007,
				"y": 3.9414000335,
				"z": 0.1720078404,
				"element": "H" 
			},
			{
				"x": 1.5955194836,
				"y": 3.378035225,
				"z": 1.6392695624,
				"element": "H" 
			}
		],
		 "valence_orbital": [ 
			{
				"type": "occ",
				"energy": -0.29905,
				"method": "rhf"
			},
			{
				"type": "occ",
				"energy": -0.29743,
				"method": "rhf"
			},
			{
				"type": "occ",
				"energy": -0.26011,
				"method": "rhf"
			},
			{
				"type": "occ",
				"energy": -0.23337,
				"method": "rhf"
			},
			{
				"type": "occ",
				"energy": -0.22949,
				"method": "rhf"
			},
			{
				"type": "unocc",
				"energy": -0.01365,
				"method": "rhf"
			},
			{
				"type": "unocc",
				"energy": -0.01256,
				"method": "rhf"
			},
			{
				"type": "unocc",
				"energy": -0.0102,
				"method": "rhf"
			},
			{
				"type": "unocc",
				"energy": 0.04629,
				"method": "rhf"
			},
			{
				"type": "unocc",
				"energy": 0.08525,
				"method": "rhf"
			}
		],
		"cosmo_sigma_profile": { 
			"-0.025": 0.0,
			"-0.024": 0.0,
			"-0.023": 0.0,
			"-0.022": 0.0,
			"-0.021": 0.0,
			"-0.02": 0.0,
			"-0.019": 0.0,
			"-0.018": 0.0,
			"-0.017": 0.0,
			"-0.016": 0.0,
			"-0.015": 0.0,
			"-0.014": 0.0,
			"-0.013": 0.0,
			"-0.012": 0.0,
			"-0.011": 0.0,
			"-0.01": 0.0,
			"-0.009": 0.0,
			"-0.008": 0.0,
			"-0.007": 0.0,
			"-0.006": 0.0,
			"-0.005": 4.78362496061,
			"-0.004": 22.5908342515,
			"-0.003": 30.3004735483,
			"-0.002": 25.3085898923,
			"-0.001": 26.9360003555,
			"0.0": 29.708692156,
			"0.001": 20.8668488929,
			"0.002": 21.5560289249,
			"0.003": 21.0124296122,
			"0.004": 17.5791054055,
			"0.005": 12.4273283066,
			"0.006": 3.82365993283,
			"0.007": 0.0741008069472,
			"0.008": 0.0,
			"0.009": 0.0,
			"0.01": 0.0,
			"0.011": 0.0,
			"0.012": 0.0,
			"0.013": 0.0,
			"0.014": 0.0,
			"0.015": 0.0,
			"0.016": 0.0,
			"0.017": 0.0,
			"0.018": 0.0,
			"0.019": 0.0,
			"0.02": 0.0,
			"0.021": 0.0,
			"0.022": 0.0,
			"0.023": 0.0,
			"0.024": 0.0,
			"0.025": 0.0
		}
	}
}
