{
	 "smiles": "CC1=C(C)C=C(NC(=S)NN)C=C1", 
	 "Tm": 450.15, 
	 "num_atms": 26, 
	 "gaussian": { 
		 "optdone": 1, 
		 "sigma_profile": "yes", 
		 "theory": "DFT", 
		 "functional": "B3LYP", 
		 "basiset": "6-31G**", 
		 "properties": { 
			 "R2extent": 4305.6154, 
			 "electric_dipole_moment_norm": 5.21642952028, 
			 "electric_quadrupole_moment_norm": 30.5833692936, 
			 "total_energy": -913.231403428, 
			 "HOMO_LUMO_gap": 0.1861, 
			 "cosmo_polarized_energy": -18.88, 
			 "cosmo_cavitation_energy": 30.63, 
			 "cosmo_dispersion_energy": -22.88, 
			 "cosmo_repulsion_energy": 1.8, 
			 "cosmo_total_nonelectrostatic_energy": 9.54, 
			 "SMD_solvation_energy": 5.06 
		},
		"coords": [
			{
				"x": -1.3679984995,
				"y": 2.810754997,
				"z": -0.3946351927,
				"element": "C" 
			},
			{
				"x": -0.5764928884,
				"y": 1.5870374332,
				"z": -0.0005448451,
				"element": "C" 
			},
			{
				"x": -0.5094833386,
				"y": 0.4562063268,
				"z": -0.840711037,
				"element": "C" 
			},
			{
				"x": -1.233898085,
				"y": 0.4403946874,
				"z": -2.1666925125,
				"element": "C" 
			},
			{
				"x": 0.2302862521,
				"y": -0.6666547737,
				"z": -0.4547089229,
				"element": "C" 
			},
			{
				"x": 0.9151523118,
				"y": -0.689718514,
				"z": 0.7670268379,
				"element": "C" 
			},
			{
				"x": 1.6852803275,
				"y": -1.7726799155,
				"z": 1.2424696422,
				"element": "N" 
			},
			{
				"x": 1.9830076187,
				"y": -2.9945916686,
				"z": 0.7405980357,
				"element": "C" 
			},
			{
				"x": 1.5171578279,
				"y": -3.7038239648,
				"z": -0.7124384503,
				"element": "S" 
			},
			{
				"x": 2.7907926376,
				"y": -3.7338966294,
				"z": 1.579801708,
				"element": "N" 
			},
			{
				"x": 3.2357806939,
				"y": -3.2402898889,
				"z": 2.8105962508,
				"element": "N" 
			},
			{
				"x": 0.849107045,
				"y": 0.4340638649,
				"z": 1.6029747039,
				"element": "C" 
			},
			{
				"x": 0.1128312845,
				"y": 1.5484206277,
				"z": 1.2159991167,
				"element": "C" 
			},
			{
				"x": -2.429176351,
				"y": 2.5781301548,
				"z": -0.547703167,
				"element": "H" 
			},
			{
				"x": -1.3060594848,
				"y": 3.5844695766,
				"z": 0.3756218962,
				"element": "H" 
			},
			{
				"x": -1.0046119446,
				"y": 3.2464658635,
				"z": -1.3336455002,
				"element": "H" 
			},
			{
				"x": -0.8897353579,
				"y": 1.248476743,
				"z": -2.8238842735,
				"element": "H" 
			},
			{
				"x": -1.077896794,
				"y": -0.5059625039,
				"z": -2.6896436579,
				"element": "H" 
			},
			{
				"x": -2.3143666854,
				"y": 0.5791799795,
				"z": -2.0376151511,
				"element": "H" 
			},
			{
				"x": 0.278962196,
				"y": -1.5316876671,
				"z": -1.102136148,
				"element": "H" 
			},
			{
				"x": 2.1176289703,
				"y": -1.6268807022,
				"z": 2.1528013705,
				"element": "H" 
			},
			{
				"x": 3.0397735876,
				"y": -4.6559909577,
				"z": 1.2449087376,
				"element": "H" 
			},
			{
				"x": 4.2518578236,
				"y": -3.1944811271,
				"z": 2.8347051203,
				"element": "H" 
			},
			{
				"x": 2.9056131326,
				"y": -3.8255652118,
				"z": 3.5745030509,
				"element": "H" 
			},
			{
				"x": 1.3742019247,
				"y": 0.4351143514,
				"z": 2.5556160396,
				"element": "H" 
			},
			{
				"x": 0.0731857954,
				"y": 2.4105089189,
				"z": 1.8772363479,
				"element": "H" 
			}
		],
		 "valence_orbital": [ 
			{
				"type": "occ",
				"energy": -0.28993,
				"method": "rhf"
			},
			{
				"type": "occ",
				"energy": -0.23617,
				"method": "rhf"
			},
			{
				"type": "occ",
				"energy": -0.2201,
				"method": "rhf"
			},
			{
				"type": "occ",
				"energy": -0.20055,
				"method": "rhf"
			},
			{
				"type": "occ",
				"energy": -0.19954,
				"method": "rhf"
			},
			{
				"type": "unocc",
				"energy": -0.01344,
				"method": "rhf"
			},
			{
				"type": "unocc",
				"energy": 0.00903,
				"method": "rhf"
			},
			{
				"type": "unocc",
				"energy": 0.04259,
				"method": "rhf"
			},
			{
				"type": "unocc",
				"energy": 0.04924,
				"method": "rhf"
			},
			{
				"type": "unocc",
				"energy": 0.08509,
				"method": "rhf"
			}
		],
		"cosmo_sigma_profile": { 
			"-0.025": 0.0,
			"-0.024": 0.0,
			"-0.023": 0.0,
			"-0.022": 0.0,
			"-0.021": 0.0,
			"-0.02": 0.0,
			"-0.019": 0.0,
			"-0.018": 0.0,
			"-0.017": 0.0,
			"-0.016": 0.0,
			"-0.015": 0.00908437569377,
			"-0.014": 0.762986010666,
			"-0.013": 3.59737530505,
			"-0.012": 4.67037704973,
			"-0.011": 5.3359480912,
			"-0.01": 6.76748065277,
			"-0.009": 3.61399318416,
			"-0.008": 4.80968616822,
			"-0.007": 2.81686924481,
			"-0.006": 3.98118103863,
			"-0.005": 5.65934160713,
			"-0.004": 15.834019341,
			"-0.003": 19.1160701422,
			"-0.002": 19.1833220798,
			"-0.001": 15.6800182154,
			"0.0": 22.1069389861,
			"0.001": 17.0028500421,
			"0.002": 12.2041738188,
			"0.003": 12.2537370313,
			"0.004": 12.7035667086,
			"0.005": 14.8422456908,
			"0.006": 12.6840023945,
			"0.007": 4.98525691661,
			"0.008": 3.90293305514,
			"0.009": 4.349363786,
			"0.01": 4.63763322733,
			"0.011": 7.01742927159,
			"0.012": 3.73099765583,
			"0.013": 0.00570854370384,
			"0.014": 0.0,
			"0.015": 0.0,
			"0.016": 0.0,
			"0.017": 0.0,
			"0.018": 0.0,
			"0.019": 0.0,
			"0.02": 0.0,
			"0.021": 0.0,
			"0.022": 0.0,
			"0.023": 0.0,
			"0.024": 0.0,
			"0.025": 0.0
		}
	}
}
