{
	 "smiles": "BrC1=NN2C=C(N=C2S1)C1=CC=CC=C1", 
	 "Tm": 460.15, 
	 "num_atms": 21, 
	 "gaussian": { 
		 "optdone": 1, 
		 "sigma_profile": "yes", 
		 "theory": "DFT", 
		 "functional": "B3LYP", 
		 "basiset": "6-31G**", 
		 "properties": { 
			 "R2extent": 10642.4647, 
			 "electric_dipole_moment_norm": 1.21157306837, 
			 "electric_quadrupole_moment_norm": 11.2261556514, 
			 "total_energy": -3518.47472147, 
			 "HOMO_LUMO_gap": 0.1613, 
			 "cosmo_polarized_energy": -8.23, 
			 "cosmo_cavitation_energy": 30.21, 
			 "cosmo_dispersion_energy": -23.64, 
			 "cosmo_repulsion_energy": 1.77, 
			 "cosmo_total_nonelectrostatic_energy": 8.34, 
			 "SMD_solvation_energy": 1.33 
		},
		"coords": [
			{
				"x": -2.7631291096,
				"y": 4.6317464806,
				"z": -4.5993249763,
				"element": "Br" 
			},
			{
				"x": -1.8236948665,
				"y": 3.4012236783,
				"z": -3.5419400333,
				"element": "C" 
			},
			{
				"x": -2.4065966654,
				"y": 2.6896245725,
				"z": -2.6349868106,
				"element": "N" 
			},
			{
				"x": -1.4637883148,
				"y": 1.9020688795,
				"z": -2.0479280632,
				"element": "N" 
			},
			{
				"x": -1.4943125359,
				"y": 0.9590973585,
				"z": -1.0411053585,
				"element": "C" 
			},
			{
				"x": -0.1818805584,
				"y": 0.527865584,
				"z": -0.9288706469,
				"element": "C" 
			},
			{
				"x": 0.6436772954,
				"y": 1.185533169,
				"z": -1.8419227667,
				"element": "N" 
			},
			{
				"x": -0.1582576789,
				"y": 1.988561229,
				"z": -2.4820940404,
				"element": "C" 
			},
			{
				"x": -0.0771205074,
				"y": 3.1825968586,
				"z": -3.7681588454,
				"element": "S" 
			},
			{
				"x": 0.3718686834,
				"y": -0.4766682502,
				"z": -0.01040214,
				"element": "C" 
			},
			{
				"x": -0.4412183195,
				"y": -1.1505213468,
				"z": 0.9167090835,
				"element": "C" 
			},
			{
				"x": 0.1014292984,
				"y": -2.0996119886,
				"z": 1.7795482812,
				"element": "C" 
			},
			{
				"x": 1.4662822103,
				"y": -2.3942995492,
				"z": 1.7334385744,
				"element": "C" 
			},
			{
				"x": 2.2820924311,
				"y": -1.7298231054,
				"z": 0.8154464428,
				"element": "C" 
			},
			{
				"x": 1.7426234564,
				"y": -0.7797145267,
				"z": -0.0492879906,
				"element": "C" 
			},
			{
				"x": -2.4075038365,
				"y": 0.7036865939,
				"z": -0.5309660469,
				"element": "H" 
			},
			{
				"x": -1.5046195052,
				"y": -0.9338693197,
				"z": 0.9662951617,
				"element": "H" 
			},
			{
				"x": -0.5428209177,
				"y": -2.6104101319,
				"z": 2.4896423584,
				"element": "H" 
			},
			{
				"x": 1.8884766895,
				"y": -3.1346020887,
				"z": 2.4067383717,
				"element": "H" 
			},
			{
				"x": 3.3446823281,
				"y": -1.9521070209,
				"z": 0.7719468905,
				"element": "H" 
			},
			{
				"x": 2.3699104233,
				"y": -0.2596770758,
				"z": -0.7647774453,
				"element": "H" 
			}
		],
		 "valence_orbital": [ 
			{
				"type": "occ",
				"energy": -0.28886,
				"method": "rhf"
			},
			{
				"type": "occ",
				"energy": -0.28022,
				"method": "rhf"
			},
			{
				"type": "occ",
				"energy": -0.2544,
				"method": "rhf"
			},
			{
				"type": "occ",
				"energy": -0.24699,
				"method": "rhf"
			},
			{
				"type": "occ",
				"energy": -0.21372,
				"method": "rhf"
			},
			{
				"type": "unocc",
				"energy": -0.05242,
				"method": "rhf"
			},
			{
				"type": "unocc",
				"energy": -0.0389,
				"method": "rhf"
			},
			{
				"type": "unocc",
				"energy": -0.01586,
				"method": "rhf"
			},
			{
				"type": "unocc",
				"energy": -0.00928,
				"method": "rhf"
			},
			{
				"type": "unocc",
				"energy": 0.00099,
				"method": "rhf"
			}
		],
		"cosmo_sigma_profile": { 
			"-0.025": 0.0,
			"-0.024": 0.0,
			"-0.023": 0.0,
			"-0.022": 0.0,
			"-0.021": 0.0,
			"-0.02": 0.0,
			"-0.019": 0.0,
			"-0.018": 0.0,
			"-0.017": 0.0,
			"-0.016": 0.0,
			"-0.015": 0.0,
			"-0.014": 0.0,
			"-0.013": 0.0,
			"-0.012": 0.0,
			"-0.011": 0.020268752845,
			"-0.01": 1.50234599547,
			"-0.009": 2.29491985987,
			"-0.008": 3.14534201172,
			"-0.007": 3.33128356356,
			"-0.006": 7.79635246423,
			"-0.005": 15.6276907348,
			"-0.004": 20.4571835233,
			"-0.003": 21.562904696,
			"-0.002": 20.5698714569,
			"-0.001": 22.634031582,
			"0.0": 20.9533256207,
			"0.001": 22.6748354819,
			"0.002": 20.3185582203,
			"0.003": 17.3186774738,
			"0.004": 14.9342782561,
			"0.005": 13.8399395493,
			"0.006": 9.27717128689,
			"0.007": 2.85179198685,
			"0.008": 2.19923565816,
			"0.009": 2.46247610068,
			"0.01": 1.68389515429,
			"0.011": 1.43089198305,
			"0.012": 1.23078403494,
			"0.013": 0.656801037381,
			"0.014": 0.0,
			"0.015": 0.0,
			"0.016": 0.0,
			"0.017": 0.0,
			"0.018": 0.0,
			"0.019": 0.0,
			"0.02": 0.0,
			"0.021": 0.0,
			"0.022": 0.0,
			"0.023": 0.0,
			"0.024": 0.0,
			"0.025": 0.0
		}
	}
}
