{
	 "smiles": "OC(C(O)C(=O)NC1=CC=C(Cl)C=C1)C(O)=O", 
	 "Tm": 467.15, 
	 "num_atms": 27, 
	 "gaussian": { 
		 "optdone": 1, 
		 "sigma_profile": "yes", 
		 "theory": "DFT", 
		 "functional": "B3LYP", 
		 "basiset": "6-31G**", 
		 "properties": { 
			 "R2extent": 8021.2204, 
			 "electric_dipole_moment_norm": 2.14463374962, 
			 "electric_quadrupole_moment_norm": 14.4591379366, 
			 "total_energy": -1278.18155544, 
			 "HOMO_LUMO_gap": 0.19676, 
			 "cosmo_polarized_energy": -17.22, 
			 "cosmo_cavitation_energy": 33.35, 
			 "cosmo_dispersion_energy": -24.54, 
			 "cosmo_repulsion_energy": 1.92, 
			 "cosmo_total_nonelectrostatic_energy": 10.72, 
			 "SMD_solvation_energy": 6.52 
		},
		"coords": [
			{
				"x": -0.1303222324,
				"y": -3.2817192642,
				"z": -1.1489480262,
				"element": "O" 
			},
			{
				"x": 0.5550841896,
				"y": -2.074909983,
				"z": -1.2967432286,
				"element": "C" 
			},
			{
				"x": 0.5745695771,
				"y": -1.2393347895,
				"z": 0.0136422447,
				"element": "C" 
			},
			{
				"x": 1.46592198,
				"y": -0.141904007,
				"z": -0.0376371541,
				"element": "O" 
			},
			{
				"x": -0.8614788081,
				"y": -0.8195944158,
				"z": 0.3947828794,
				"element": "C" 
			},
			{
				"x": -1.8233644465,
				"y": -1.5590188953,
				"z": 0.1587996306,
				"element": "O" 
			},
			{
				"x": -0.921357337,
				"y": 0.3885247602,
				"z": 1.0080415098,
				"element": "N" 
			},
			{
				"x": -2.0365511206,
				"y": 1.0762380708,
				"z": 1.5283607613,
				"element": "C" 
			},
			{
				"x": -1.8068327954,
				"y": 2.3333424397,
				"z": 2.1071063444,
				"element": "C" 
			},
			{
				"x": -2.8571567407,
				"y": 3.0706955878,
				"z": 2.6443066766,
				"element": "C" 
			},
			{
				"x": -4.1487682673,
				"y": 2.5466005293,
				"z": 2.6031817337,
				"element": "C" 
			},
			{
				"x": -5.4819283912,
				"y": 3.4710325644,
				"z": 3.2789488439,
				"element": "Cl" 
			},
			{
				"x": -4.3914988929,
				"y": 1.2988056678,
				"z": 2.0319566986,
				"element": "C" 
			},
			{
				"x": -3.340133491,
				"y": 0.5589847543,
				"z": 1.492811525,
				"element": "C" 
			},
			{
				"x": 0.0614635217,
				"y": -1.1923729287,
				"z": -2.4490794897,
				"element": "C" 
			},
			{
				"x": -0.7077705506,
				"y": -1.8218768985,
				"z": -3.3373234934,
				"element": "O" 
			},
			{
				"x": 0.3670222929,
				"y": -0.0117527826,
				"z": -2.552369593,
				"element": "O" 
			},
			{
				"x": -1.0056687271,
				"y": -3.0416275101,
				"z": -0.7895260992,
				"element": "H" 
			},
			{
				"x": 1.6009523822,
				"y": -2.3109242853,
				"z": -1.5342475064,
				"element": "H" 
			},
			{
				"x": 0.9294328773,
				"y": -1.914250939,
				"z": 0.8014515949,
				"element": "H" 
			},
			{
				"x": 1.3077450765,
				"y": 0.278429377,
				"z": -0.9063257235,
				"element": "H" 
			},
			{
				"x": -0.0183559916,
				"y": 0.8501513371,
				"z": 1.0589504866,
				"element": "H" 
			},
			{
				"x": -0.7985947898,
				"y": 2.7384112711,
				"z": 2.138746235,
				"element": "H" 
			},
			{
				"x": -2.6749561384,
				"y": 4.0418126465,
				"z": 3.0905487147,
				"element": "H" 
			},
			{
				"x": -5.4004138592,
				"y": 0.9021179161,
				"z": 2.006324693,
				"element": "H" 
			},
			{
				"x": -3.5192905811,
				"y": -0.4090718459,
				"z": 1.0464053037,
				"element": "H" 
			},
			{
				"x": -0.9449487365,
				"y": -1.1659883774,
				"z": -4.0163655618,
				"element": "H" 
			}
		],
		 "valence_orbital": [ 
			{
				"type": "occ",
				"energy": -0.30623,
				"method": "rhf"
			},
			{
				"type": "occ",
				"energy": -0.27484,
				"method": "rhf"
			},
			{
				"type": "occ",
				"energy": -0.27074,
				"method": "rhf"
			},
			{
				"type": "occ",
				"energy": -0.26194,
				"method": "rhf"
			},
			{
				"type": "occ",
				"energy": -0.23169,
				"method": "rhf"
			},
			{
				"type": "unocc",
				"energy": -0.03493,
				"method": "rhf"
			},
			{
				"type": "unocc",
				"energy": -0.02064,
				"method": "rhf"
			},
			{
				"type": "unocc",
				"energy": -0.01949,
				"method": "rhf"
			},
			{
				"type": "unocc",
				"energy": 0.02361,
				"method": "rhf"
			},
			{
				"type": "unocc",
				"energy": 0.02699,
				"method": "rhf"
			}
		],
		"cosmo_sigma_profile": { 
			"-0.025": 0.0,
			"-0.024": 0.0,
			"-0.023": 0.0,
			"-0.022": 0.0,
			"-0.021": 0.0,
			"-0.02": 0.00311764622351,
			"-0.019": 1.0824554629,
			"-0.018": 0.853442826667,
			"-0.017": 0.477603398695,
			"-0.016": 1.12267917095,
			"-0.015": 1.05131881826,
			"-0.014": 1.15979574996,
			"-0.013": 1.67370550912,
			"-0.012": 1.88422916239,
			"-0.011": 1.82287302636,
			"-0.01": 1.25800764746,
			"-0.009": 3.83785137254,
			"-0.008": 9.9200419672,
			"-0.007": 12.418280677,
			"-0.006": 12.6255755907,
			"-0.005": 12.9600758661,
			"-0.004": 11.9934653049,
			"-0.003": 11.0856982729,
			"-0.002": 13.5931804422,
			"-0.001": 16.1324173497,
			"0.0": 16.3216020425,
			"0.001": 17.2249068455,
			"0.002": 22.0443164555,
			"0.003": 26.14076428,
			"0.004": 17.1592998228,
			"0.005": 12.3527211996,
			"0.006": 6.31040015537,
			"0.007": 4.64757091032,
			"0.008": 4.92163976471,
			"0.009": 6.24633541143,
			"0.01": 6.56715382569,
			"0.011": 4.36499418207,
			"0.012": 3.34444767142,
			"0.013": 3.03438515954,
			"0.014": 0.178977412274,
			"0.015": 0.0,
			"0.016": 0.0,
			"0.017": 0.0,
			"0.018": 0.0,
			"0.019": 0.0,
			"0.02": 0.0,
			"0.021": 0.0,
			"0.022": 0.0,
			"0.023": 0.0,
			"0.024": 0.0,
			"0.025": 0.0
		}
	}
}
