{
	 "smiles": "CC(O)C(NC(=O)C(C)(C)C)C(O)=O", 
	 "Tm": 430.15, 
	 "num_atms": 31, 
	 "gaussian": { 
		 "optdone": 1, 
		 "sigma_profile": "yes", 
		 "theory": "DFT", 
		 "functional": "B3LYP", 
		 "basiset": "6-31G**", 
		 "properties": { 
			 "R2extent": 3482.0186, 
			 "electric_dipole_moment_norm": 2.57722910507, 
			 "electric_quadrupole_moment_norm": 17.7322624273, 
			 "total_energy": -708.879186171, 
			 "HOMO_LUMO_gap": 0.24588, 
			 "cosmo_polarized_energy": -18.13, 
			 "cosmo_cavitation_energy": 31.83, 
			 "cosmo_dispersion_energy": -21.83, 
			 "cosmo_repulsion_energy": 1.69, 
			 "cosmo_total_nonelectrostatic_energy": 11.69, 
			 "SMD_solvation_energy": 7.24 
		},
		"coords": [
			{
				"x": 1.6121964083,
				"y": -1.1144124996,
				"z": 1.508098036,
				"element": "C" 
			},
			{
				"x": 2.130515074,
				"y": -1.4863168715,
				"z": 0.1234373528,
				"element": "C" 
			},
			{
				"x": 2.1813978948,
				"y": -2.8932688987,
				"z": 0.0595212901,
				"element": "O" 
			},
			{
				"x": 1.2260473537,
				"y": -0.9408707097,
				"z": -1.0263887338,
				"element": "C" 
			},
			{
				"x": 0.9973308754,
				"y": 0.5056095754,
				"z": -0.9478798276,
				"element": "N" 
			},
			{
				"x": -0.1519997035,
				"y": 1.2062709449,
				"z": -0.5331353016,
				"element": "C" 
			},
			{
				"x": 0.0191250734,
				"y": 2.2701320538,
				"z": 0.0396302801,
				"element": "O" 
			},
			{
				"x": -1.5697627725,
				"y": 0.6931652758,
				"z": -0.8843815981,
				"element": "C" 
			},
			{
				"x": -2.0162992005,
				"y": -0.376432833,
				"z": 0.1432981251,
				"element": "C" 
			},
			{
				"x": -1.6525241452,
				"y": 0.1408072711,
				"z": -2.3236839246,
				"element": "C" 
			},
			{
				"x": -2.5260011407,
				"y": 1.8981166501,
				"z": -0.7664216827,
				"element": "C" 
			},
			{
				"x": 1.8310728886,
				"y": -1.3105389345,
				"z": -2.3989919232,
				"element": "C" 
			},
			{
				"x": 1.7528099068,
				"y": -0.3619728575,
				"z": -3.3368353653,
				"element": "O" 
			},
			{
				"x": 2.340758799,
				"y": -2.3907601034,
				"z": -2.6235889666,
				"element": "O" 
			},
			{
				"x": 1.5836799204,
				"y": -0.03315215,
				"z": 1.6664805491,
				"element": "H" 
			},
			{
				"x": 0.6082376727,
				"y": -1.5225160728,
				"z": 1.660503081,
				"element": "H" 
			},
			{
				"x": 2.2712007424,
				"y": -1.5575840437,
				"z": 2.2589787228,
				"element": "H" 
			},
			{
				"x": 3.1362211446,
				"y": -1.0454721881,
				"z": -0.0131282139,
				"element": "H" 
			},
			{
				"x": 2.4261080304,
				"y": -3.1223919009,
				"z": -0.8553147125,
				"element": "H" 
			},
			{
				"x": 0.2769668904,
				"y": -1.4733255372,
				"z": -0.9513426091,
				"element": "H" 
			},
			{
				"x": 1.8046436223,
				"y": 1.0170917064,
				"z": -0.5974999391,
				"element": "H" 
			},
			{
				"x": -1.9301502825,
				"y": 0.0057539793,
				"z": 1.1650491044,
				"element": "H" 
			},
			{
				"x": -1.4447784738,
				"y": -1.3061306391,
				"z": 0.0798131445,
				"element": "H" 
			},
			{
				"x": -3.0669811109,
				"y": -0.6285678647,
				"z": -0.0334665978,
				"element": "H" 
			},
			{
				"x": -2.6907744064,
				"y": -0.1224834674,
				"z": -2.5495272442,
				"element": "H" 
			},
			{
				"x": -1.3405353899,
				"y": 0.8939757759,
				"z": -3.0550904015,
				"element": "H" 
			},
			{
				"x": -1.0532278935,
				"y": -0.7574159661,
				"z": -2.4873760597,
				"element": "H" 
			},
			{
				"x": -3.5487148972,
				"y": 1.5749491371,
				"z": -0.9853626617,
				"element": "H" 
			},
			{
				"x": -2.4974393374,
				"y": 2.3274314942,
				"z": 0.2363061096,
				"element": "H" 
			},
			{
				"x": -2.2556719507,
				"y": 2.6892392217,
				"z": -1.4713204946,
				"element": "H" 
			},
			{
				"x": 1.3510484076,
				"y": 0.4193704521,
				"z": -2.9040795376,
				"element": "H" 
			}
		],
		 "valence_orbital": [ 
			{
				"type": "occ",
				"energy": -0.33177,
				"method": "rhf"
			},
			{
				"type": "occ",
				"energy": -0.31402,
				"method": "rhf"
			},
			{
				"type": "occ",
				"energy": -0.2862,
				"method": "rhf"
			},
			{
				"type": "occ",
				"energy": -0.27006,
				"method": "rhf"
			},
			{
				"type": "occ",
				"energy": -0.25961,
				"method": "rhf"
			},
			{
				"type": "unocc",
				"energy": -0.01373,
				"method": "rhf"
			},
			{
				"type": "unocc",
				"energy": -0.01007,
				"method": "rhf"
			},
			{
				"type": "unocc",
				"energy": 0.05065,
				"method": "rhf"
			},
			{
				"type": "unocc",
				"energy": 0.06906,
				"method": "rhf"
			},
			{
				"type": "unocc",
				"energy": 0.09199,
				"method": "rhf"
			}
		],
		"cosmo_sigma_profile": { 
			"-0.025": 0.0,
			"-0.024": 0.0,
			"-0.023": 0.0,
			"-0.022": 0.0,
			"-0.021": 0.0,
			"-0.02": 0.0,
			"-0.019": 0.0,
			"-0.018": 0.0,
			"-0.017": 0.0,
			"-0.016": 0.0,
			"-0.015": 0.0110838809568,
			"-0.014": 1.81461271271,
			"-0.013": 1.85671060312,
			"-0.012": 2.38845923582,
			"-0.011": 3.13137657979,
			"-0.01": 3.79219951665,
			"-0.009": 3.82520660556,
			"-0.008": 4.59206296017,
			"-0.007": 5.60775709441,
			"-0.006": 6.07195787192,
			"-0.005": 7.02820634406,
			"-0.004": 18.304211185,
			"-0.003": 27.0863420736,
			"-0.002": 26.7199201504,
			"-0.001": 24.7465744909,
			"0.0": 26.4426501572,
			"0.001": 15.5190729755,
			"0.002": 5.38407458457,
			"0.003": 4.47486728357,
			"0.004": 4.67916692397,
			"0.005": 4.74034504791,
			"0.006": 4.26607392692,
			"0.007": 5.01567461305,
			"0.008": 6.36239670564,
			"0.009": 7.5612795983,
			"0.01": 6.18626130716,
			"0.011": 5.1720545841,
			"0.012": 6.81074476831,
			"0.013": 5.45021395385,
			"0.014": 1.98048700806,
			"0.015": 0.130244440866,
			"0.016": 0.0,
			"0.017": 0.0,
			"0.018": 0.0,
			"0.019": 0.0,
			"0.02": 0.0,
			"0.021": 0.0,
			"0.022": 0.0,
			"0.023": 0.0,
			"0.024": 0.0,
			"0.025": 0.0
		}
	}
}
