{
	 "smiles": "FC1=CC(F)=CC=C1", 
	 "Tm": 214.15, 
	 "num_atms": 12, 
	 "gaussian": { 
		 "optdone": 1, 
		 "sigma_profile": "yes", 
		 "theory": "DFT", 
		 "functional": "B3LYP", 
		 "basiset": "6-31G**", 
		 "properties": { 
			 "R2extent": 1398.4276, 
			 "electric_dipole_moment_norm": 1.33088004719, 
			 "electric_quadrupole_moment_norm": 4.14045842873, 
			 "total_energy": -430.714978357, 
			 "HOMO_LUMO_gap": 0.23384, 
			 "cosmo_polarized_energy": -3.1, 
			 "cosmo_cavitation_energy": 17.13, 
			 "cosmo_dispersion_energy": -12.57, 
			 "cosmo_repulsion_energy": 1.0, 
			 "cosmo_total_nonelectrostatic_energy": 5.56, 
			 "SMD_solvation_energy": 4.1 
		},
		"coords": [
			{
				"x": -2.7523379478,
				"y": -2.4387187427,
				"z": 1.5892844589,
				"element": "F" 
			},
			{
				"x": -1.6938391959,
				"y": -1.6313619792,
				"z": 1.3814835968,
				"element": "C" 
			},
			{
				"x": -1.8911530867,
				"y": -0.4502110001,
				"z": 0.6743507348,
				"element": "C" 
			},
			{
				"x": -0.7823741627,
				"y": 0.3649338777,
				"z": 0.4737719743,
				"element": "C" 
			},
			{
				"x": -0.9471234359,
				"y": 1.515039717,
				"z": -0.2085344646,
				"element": "F" 
			},
			{
				"x": 0.4831433546,
				"y": 0.0369250207,
				"z": 0.9497147362,
				"element": "C" 
			},
			{
				"x": 0.6361425308,
				"y": -1.1584145699,
				"z": 1.6545726982,
				"element": "C" 
			},
			{
				"x": -0.4498612677,
				"y": -2.0065581896,
				"z": 1.8788703243,
				"element": "C" 
			},
			{
				"x": -2.8681218903,
				"y": -0.1764359627,
				"z": 0.2954446633,
				"element": "H" 
			},
			{
				"x": 1.3155198545,
				"y": 0.7065746787,
				"z": 0.7668269731,
				"element": "H" 
			},
			{
				"x": 1.6153506905,
				"y": -1.4328002374,
				"z": 2.0343753464,
				"element": "H" 
			},
			{
				"x": -0.3484454434,
				"y": -2.9378726126,
				"z": 2.4239389584,
				"element": "H" 
			}
		],
		 "valence_orbital": [ 
			{
				"type": "occ",
				"energy": -0.37144,
				"method": "rhf"
			},
			{
				"type": "occ",
				"energy": -0.36291,
				"method": "rhf"
			},
			{
				"type": "occ",
				"energy": -0.35608,
				"method": "rhf"
			},
			{
				"type": "occ",
				"energy": -0.26264,
				"method": "rhf"
			},
			{
				"type": "occ",
				"energy": -0.249,
				"method": "rhf"
			},
			{
				"type": "unocc",
				"energy": -0.01516,
				"method": "rhf"
			},
			{
				"type": "unocc",
				"energy": -0.00228,
				"method": "rhf"
			},
			{
				"type": "unocc",
				"energy": 0.07526,
				"method": "rhf"
			},
			{
				"type": "unocc",
				"energy": 0.13597,
				"method": "rhf"
			},
			{
				"type": "unocc",
				"energy": 0.13979,
				"method": "rhf"
			}
		],
		"cosmo_sigma_profile": { 
			"-0.025": 0.0,
			"-0.024": 0.0,
			"-0.023": 0.0,
			"-0.022": 0.0,
			"-0.021": 0.0,
			"-0.02": 0.0,
			"-0.019": 0.0,
			"-0.018": 0.0,
			"-0.017": 0.0,
			"-0.016": 0.0,
			"-0.015": 0.0,
			"-0.014": 0.0,
			"-0.013": 0.0,
			"-0.012": 0.0,
			"-0.011": 0.0,
			"-0.01": 0.0,
			"-0.009": 0.342180165585,
			"-0.008": 2.04320913879,
			"-0.007": 6.20086712738,
			"-0.006": 7.24272659764,
			"-0.005": 8.00795209943,
			"-0.004": 6.13173401109,
			"-0.003": 5.97813169334,
			"-0.002": 5.53915786536,
			"-0.001": 7.08759375604,
			"0.0": 13.4570259038,
			"0.001": 17.6947698942,
			"0.002": 16.5638608568,
			"0.003": 15.6425834551,
			"0.004": 23.2488792452,
			"0.005": 3.08105835323,
			"0.006": 0.0,
			"0.007": 0.0,
			"0.008": 0.0,
			"0.009": 0.0,
			"0.01": 0.0,
			"0.011": 0.0,
			"0.012": 0.0,
			"0.013": 0.0,
			"0.014": 0.0,
			"0.015": 0.0,
			"0.016": 0.0,
			"0.017": 0.0,
			"0.018": 0.0,
			"0.019": 0.0,
			"0.02": 0.0,
			"0.021": 0.0,
			"0.022": 0.0,
			"0.023": 0.0,
			"0.024": 0.0,
			"0.025": 0.0
		}
	}
}
