{
	 "smiles": "CC1CN=C(N1)C(C1=NCC(C)N1)C1=NC(C)CN1", 
	 "Tm": 515.15, 
	 "num_atms": 41, 
	 "gaussian": { 
		 "optdone": 1, 
		 "sigma_profile": "yes", 
		 "theory": "DFT", 
		 "functional": "B3LYP", 
		 "basiset": "6-31G**", 
		 "properties": { 
			 "R2extent": 6276.3938, 
			 "electric_dipole_moment_norm": 0.678539121938, 
			 "electric_quadrupole_moment_norm": 6.8746711885, 
			 "total_energy": -837.160073002, 
			 "HOMO_LUMO_gap": 0.23563, 
			 "cosmo_polarized_energy": -8.94, 
			 "cosmo_cavitation_energy": 40.51, 
			 "cosmo_dispersion_energy": -29.17, 
			 "cosmo_repulsion_energy": 2.34, 
			 "cosmo_total_nonelectrostatic_energy": 13.67, 
			 "SMD_solvation_energy": -2.98 
		},
		"coords": [
			{
				"x": 0.1501270583,
				"y": 4.0273729986,
				"z": 1.0945156452,
				"element": "C" 
			},
			{
				"x": 0.947282595,
				"y": 3.210900613,
				"z": 2.1171445422,
				"element": "C" 
			},
			{
				"x": 0.0488638829,
				"y": 2.3948476749,
				"z": 3.0917169106,
				"element": "C" 
			},
			{
				"x": 0.0442344871,
				"y": 1.0177778206,
				"z": 2.5724554658,
				"element": "N" 
			},
			{
				"x": 0.9848746237,
				"y": 0.9626186948,
				"z": 1.6889315809,
				"element": "C" 
			},
			{
				"x": 1.7079414947,
				"y": 2.1171456358,
				"z": 1.4865305509,
				"element": "N" 
			},
			{
				"x": 1.4142460025,
				"y": -0.3228411704,
				"z": 0.9791867054,
				"element": "C" 
			},
			{
				"x": 1.8482591755,
				"y": -0.1128016954,
				"z": -0.4722629566,
				"element": "C" 
			},
			{
				"x": 2.0781185217,
				"y": 1.0442802543,
				"z": -0.9975188284,
				"element": "N" 
			},
			{
				"x": 2.5976710897,
				"y": 0.7845362442,
				"z": -2.3498013307,
				"element": "C" 
			},
			{
				"x": 2.3345311404,
				"y": -0.7225785695,
				"z": -2.6246824133,
				"element": "C" 
			},
			{
				"x": 3.4575088631,
				"y": -1.4459753903,
				"z": -3.3620521899,
				"element": "C" 
			},
			{
				"x": 2.138861823,
				"y": -1.2129955765,
				"z": -1.2493648736,
				"element": "N" 
			},
			{
				"x": 0.4340029272,
				"y": -1.4826349942,
				"z": 1.1652743155,
				"element": "C" 
			},
			{
				"x": 0.168423948,
				"y": -2.3584524924,
				"z": 0.254758605,
				"element": "N" 
			},
			{
				"x": -0.7187360057,
				"y": -3.3642305618,
				"z": 0.8753752192,
				"element": "C" 
			},
			{
				"x": -1.8797350065,
				"y": -3.7447276116,
				"z": -0.0391513373,
				"element": "C" 
			},
			{
				"x": -1.1456153827,
				"y": -2.7279634367,
				"z": 2.2285791869,
				"element": "C" 
			},
			{
				"x": -0.1157110189,
				"y": -1.6991404396,
				"z": 2.4102236203,
				"element": "N" 
			},
			{
				"x": -0.5582934375,
				"y": 3.3874238119,
				"z": 0.5582506299,
				"element": "H" 
			},
			{
				"x": 0.8112868031,
				"y": 4.4952186561,
				"z": 0.3574525699,
				"element": "H" 
			},
			{
				"x": -0.413389463,
				"y": 4.8229448055,
				"z": 1.5946441666,
				"element": "H" 
			},
			{
				"x": 1.6285890442,
				"y": 3.8728881016,
				"z": 2.6630066473,
				"element": "H" 
			},
			{
				"x": -0.9710622224,
				"y": 2.7909765301,
				"z": 3.1534778831,
				"element": "H" 
			},
			{
				"x": 0.4618648149,
				"y": 2.3936023458,
				"z": 4.1095066582,
				"element": "H" 
			},
			{
				"x": 2.0615274721,
				"y": 2.220717499,
				"z": 0.5305317694,
				"element": "H" 
			},
			{
				"x": 2.3304688579,
				"y": -0.6418793487,
				"z": 1.5038892559,
				"element": "H" 
			},
			{
				"x": 2.1221152598,
				"y": 1.4424957652,
				"z": -3.0838380516,
				"element": "H" 
			},
			{
				"x": 3.6766859345,
				"y": 1.000029488,
				"z": -2.3684998617,
				"element": "H" 
			},
			{
				"x": 1.3969052406,
				"y": -0.839818909,
				"z": -3.1912548671,
				"element": "H" 
			},
			{
				"x": 3.2354528649,
				"y": -2.511870516,
				"z": -3.4777778881,
				"element": "H" 
			},
			{
				"x": 4.3988306574,
				"y": -1.3524534324,
				"z": -2.8114551973,
				"element": "H" 
			},
			{
				"x": 3.5960132129,
				"y": -1.0229790248,
				"z": -4.3632906434,
				"element": "H" 
			},
			{
				"x": 1.5223780581,
				"y": -2.011245947,
				"z": -1.071822539,
				"element": "H" 
			},
			{
				"x": -0.1130246542,
				"y": -4.2627183916,
				"z": 1.0691975536,
				"element": "H" 
			},
			{
				"x": -1.5088871869,
				"y": -4.1495987746,
				"z": -0.9853435634,
				"element": "H" 
			},
			{
				"x": -2.4954065218,
				"y": -2.8672592428,
				"z": -0.2628849141,
				"element": "H" 
			},
			{
				"x": -2.5166353268,
				"y": -4.50229175,
				"z": 0.4310056965,
				"element": "H" 
			},
			{
				"x": -1.1516094094,
				"y": -3.4442197589,
				"z": 3.0552764204,
				"element": "H" 
			},
			{
				"x": -2.1476228347,
				"y": -2.2773106493,
				"z": 2.1570542702,
				"element": "H" 
			},
			{
				"x": -0.3303373828,
				"y": -0.8356892557,
				"z": 2.9173155866,
				"element": "H" 
			}
		],
		 "valence_orbital": [ 
			{
				"type": "occ",
				"energy": -0.26666,
				"method": "rhf"
			},
			{
				"type": "occ",
				"energy": -0.26043,
				"method": "rhf"
			},
			{
				"type": "occ",
				"energy": -0.21252,
				"method": "rhf"
			},
			{
				"type": "occ",
				"energy": -0.2123,
				"method": "rhf"
			},
			{
				"type": "occ",
				"energy": -0.2112,
				"method": "rhf"
			},
			{
				"type": "unocc",
				"energy": 0.02443,
				"method": "rhf"
			},
			{
				"type": "unocc",
				"energy": 0.02727,
				"method": "rhf"
			},
			{
				"type": "unocc",
				"energy": 0.02902,
				"method": "rhf"
			},
			{
				"type": "unocc",
				"energy": 0.09669,
				"method": "rhf"
			},
			{
				"type": "unocc",
				"energy": 0.10185,
				"method": "rhf"
			}
		],
		"cosmo_sigma_profile": { 
			"-0.025": 0.0,
			"-0.024": 0.0,
			"-0.023": 0.0,
			"-0.022": 0.0,
			"-0.021": 0.0,
			"-0.02": 0.0,
			"-0.019": 0.0,
			"-0.018": 0.0,
			"-0.017": 0.0,
			"-0.016": 0.0,
			"-0.015": 0.0,
			"-0.014": 0.0,
			"-0.013": 0.0,
			"-0.012": 0.0,
			"-0.011": 0.0,
			"-0.01": 0.0,
			"-0.009": 0.857279113038,
			"-0.008": 1.9890937073,
			"-0.007": 1.08685039459,
			"-0.006": 2.27749589178,
			"-0.005": 4.73181049303,
			"-0.004": 23.4433834768,
			"-0.003": 55.7178289413,
			"-0.002": 46.4569019014,
			"-0.001": 39.2724694674,
			"0.0": 31.3024453021,
			"0.001": 27.4653595881,
			"0.002": 14.7893707225,
			"0.003": 11.6336262896,
			"0.004": 10.7629299121,
			"0.005": 9.64394559559,
			"0.006": 9.11624585027,
			"0.007": 7.62694972358,
			"0.008": 5.53939915789,
			"0.009": 3.93221898125,
			"0.01": 3.80695931077,
			"0.011": 3.75131555577,
			"0.012": 0.971560471986,
			"0.013": 0.0,
			"0.014": 0.0,
			"0.015": 0.0,
			"0.016": 0.0,
			"0.017": 0.0,
			"0.018": 0.0,
			"0.019": 0.0,
			"0.02": 0.0,
			"0.021": 0.0,
			"0.022": 0.0,
			"0.023": 0.0,
			"0.024": 0.0,
			"0.025": 0.0
		}
	}
}
