{
	 "smiles": "O=C1NC2=C(C=CC=C2)N2C=NC=C12", 
	 "Tm": 623.15, 
	 "num_atms": 21, 
	 "gaussian": { 
		 "optdone": 1, 
		 "sigma_profile": "yes", 
		 "theory": "DFT", 
		 "functional": "B3LYP", 
		 "basiset": "6-31G**", 
		 "properties": { 
			 "R2extent": 3039.9708, 
			 "electric_dipole_moment_norm": 5.54949388323, 
			 "electric_quadrupole_moment_norm": 9.09962740611, 
			 "total_energy": -624.780585439, 
			 "HOMO_LUMO_gap": 0.17938, 
			 "cosmo_polarized_energy": -16.46, 
			 "cosmo_cavitation_energy": 25.38, 
			 "cosmo_dispersion_energy": -19.17, 
			 "cosmo_repulsion_energy": 1.44, 
			 "cosmo_total_nonelectrostatic_energy": 7.65, 
			 "SMD_solvation_energy": 3.58 
		},
		"coords": [
			{
				"x": -1.7515372747,
				"y": 3.3539945116,
				"z": 0.8245930433,
				"element": "O" 
			},
			{
				"x": -1.4488358484,
				"y": 2.1695034032,
				"z": 0.8358222536,
				"element": "C" 
			},
			{
				"x": -1.3993274095,
				"y": 1.4164755128,
				"z": -0.3354445091,
				"element": "N" 
			},
			{
				"x": -1.0676416024,
				"y": 0.0670112957,
				"z": -0.4310888074,
				"element": "C" 
			},
			{
				"x": -0.7419010081,
				"y": -0.6585946468,
				"z": 0.7343000234,
				"element": "C" 
			},
			{
				"x": -0.4078260046,
				"y": -2.0121287779,
				"z": 0.6495411561,
				"element": "C" 
			},
			{
				"x": -0.3946386063,
				"y": -2.6524037656,
				"z": -0.5867128748,
				"element": "C" 
			},
			{
				"x": -0.716435976,
				"y": -1.938826345,
				"z": -1.7448751303,
				"element": "C" 
			},
			{
				"x": -1.0501672175,
				"y": -0.5906133509,
				"z": -1.6682361327,
				"element": "C" 
			},
			{
				"x": -0.7745203117,
				"y": 0.0496246339,
				"z": 1.9524752884,
				"element": "N" 
			},
			{
				"x": -0.5177195345,
				"y": -0.3485528302,
				"z": 3.2366851536,
				"element": "C" 
			},
			{
				"x": -0.6639960231,
				"y": 0.6384275367,
				"z": 4.1021525844,
				"element": "N" 
			},
			{
				"x": -1.030867753,
				"y": 1.7300548501,
				"z": 3.3651516734,
				"element": "C" 
			},
			{
				"x": -1.1096502858,
				"y": 1.4034955888,
				"z": 2.0282475499,
				"element": "C" 
			},
			{
				"x": -1.6313676357,
				"y": 1.9277689756,
				"z": -1.1772974354,
				"element": "H" 
			},
			{
				"x": -0.1585824178,
				"y": -2.5637227748,
				"z": 1.5493122858,
				"element": "H" 
			},
			{
				"x": -0.134042808,
				"y": -3.7039050948,
				"z": -0.6435934533,
				"element": "H" 
			},
			{
				"x": -0.7077167714,
				"y": -2.4330109688,
				"z": -2.7110856045,
				"element": "H" 
			},
			{
				"x": -1.3008330226,
				"y": -0.0325617253,
				"z": -2.5660635664,
				"element": "H" 
			},
			{
				"x": -0.2304130828,
				"y": -1.3590828,
				"z": 3.4866448632,
				"element": "H" 
			},
			{
				"x": -1.2216794062,
				"y": 2.6939467716,
				"z": 3.8139716389,
				"element": "H" 
			}
		],
		 "valence_orbital": [ 
			{
				"type": "occ",
				"energy": -0.28235,
				"method": "rhf"
			},
			{
				"type": "occ",
				"energy": -0.26685,
				"method": "rhf"
			},
			{
				"type": "occ",
				"energy": -0.26185,
				"method": "rhf"
			},
			{
				"type": "occ",
				"energy": -0.24738,
				"method": "rhf"
			},
			{
				"type": "occ",
				"energy": -0.22694,
				"method": "rhf"
			},
			{
				"type": "unocc",
				"energy": -0.04756,
				"method": "rhf"
			},
			{
				"type": "unocc",
				"energy": -0.0244,
				"method": "rhf"
			},
			{
				"type": "unocc",
				"energy": -0.00778,
				"method": "rhf"
			},
			{
				"type": "unocc",
				"energy": 0.04342,
				"method": "rhf"
			},
			{
				"type": "unocc",
				"energy": 0.07061,
				"method": "rhf"
			}
		],
		"cosmo_sigma_profile": { 
			"-0.025": 0.0,
			"-0.024": 0.0,
			"-0.023": 0.0,
			"-0.022": 0.0,
			"-0.021": 0.0,
			"-0.02": 0.0,
			"-0.019": 0.0,
			"-0.018": 0.0,
			"-0.017": 0.0,
			"-0.016": 0.424077923049,
			"-0.015": 1.42611386922,
			"-0.014": 1.28212473891,
			"-0.013": 1.00961211083,
			"-0.012": 1.99555489276,
			"-0.011": 2.21552241001,
			"-0.01": 3.39052920397,
			"-0.009": 3.38646924174,
			"-0.008": 4.67552841933,
			"-0.007": 7.66454332651,
			"-0.006": 10.5452679609,
			"-0.005": 12.6541609905,
			"-0.004": 10.4321254754,
			"-0.003": 12.3071366456,
			"-0.002": 12.8896875421,
			"-0.001": 14.6511473572,
			"0.0": 14.2510093436,
			"0.001": 12.9747174337,
			"0.002": 14.9603867998,
			"0.003": 13.2497706425,
			"0.004": 12.0919079069,
			"0.005": 4.45379666882,
			"0.006": 2.21171728151,
			"0.007": 3.26151786357,
			"0.008": 2.60041834743,
			"0.009": 2.44199100912,
			"0.01": 2.31644219362,
			"0.011": 2.9572836206,
			"0.012": 4.98748358874,
			"0.013": 6.58637064025,
			"0.014": 2.43913657223,
			"0.015": 0.796671695628,
			"0.016": 1.28503315858,
			"0.017": 0.30163960639,
			"0.018": 0.0,
			"0.019": 0.0,
			"0.02": 0.0,
			"0.021": 0.0,
			"0.022": 0.0,
			"0.023": 0.0,
			"0.024": 0.0,
			"0.025": 0.0
		}
	}
}
