{
	 "smiles": "OCC(=O)NCC1=CC=C(F)C=C1", 
	 "Tm": 376.15, 
	 "num_atms": 23, 
	 "gaussian": { 
		 "optdone": 1, 
		 "sigma_profile": "yes", 
		 "theory": "DFT", 
		 "functional": "B3LYP", 
		 "basiset": "6-31G**", 
		 "properties": { 
			 "R2extent": 3286.7733, 
			 "electric_dipole_moment_norm": 2.44129012, 
			 "electric_quadrupole_moment_norm": 11.5483369322, 
			 "total_energy": -654.014397268, 
			 "HOMO_LUMO_gap": 0.22323, 
			 "cosmo_polarized_energy": -14.67, 
			 "cosmo_cavitation_energy": 27.8, 
			 "cosmo_dispersion_energy": -19.71, 
			 "cosmo_repulsion_energy": 1.56, 
			 "cosmo_total_nonelectrostatic_energy": 9.65, 
			 "SMD_solvation_energy": 5.67 
		},
		"coords": [
			{
				"x": -2.7102243976,
				"y": -2.0513035467,
				"z": 0.8810314401,
				"element": "O" 
			},
			{
				"x": -2.5718301349,
				"y": -0.7312464018,
				"z": 1.3929732502,
				"element": "C" 
			},
			{
				"x": -1.2298030812,
				"y": -0.4326469317,
				"z": 2.0801754803,
				"element": "C" 
			},
			{
				"x": -1.2054242352,
				"y": 0.1015886801,
				"z": 3.1831051566,
				"element": "O" 
			},
			{
				"x": -0.0758478196,
				"y": -0.7866792696,
				"z": 1.4308676126,
				"element": "N" 
			},
			{
				"x": 0.0923585116,
				"y": -1.2033356683,
				"z": 0.0467127316,
				"element": "C" 
			},
			{
				"x": 0.549557741,
				"y": -0.1035194785,
				"z": -0.9042404506,
				"element": "C" 
			},
			{
				"x": 0.3957071626,
				"y": 1.2545256892,
				"z": -0.6056714972,
				"element": "C" 
			},
			{
				"x": 0.7920003976,
				"y": 2.2402549702,
				"z": -1.5123154547,
				"element": "C" 
			},
			{
				"x": 1.3440956085,
				"y": 1.8505766899,
				"z": -2.7252861794,
				"element": "C" 
			},
			{
				"x": 1.7316454481,
				"y": 2.7964254879,
				"z": -3.6068051391,
				"element": "F" 
			},
			{
				"x": 1.5154920524,
				"y": 0.5098937065,
				"z": -3.0547894087,
				"element": "C" 
			},
			{
				"x": 1.1181769392,
				"y": -0.4589505623,
				"z": -2.1356016701,
				"element": "C" 
			},
			{
				"x": -2.6550191904,
				"y": -2.6652053162,
				"z": 1.6250109068,
				"element": "H" 
			},
			{
				"x": -2.6988929823,
				"y": -0.0613061035,
				"z": 0.5349615487,
				"element": "H" 
			},
			{
				"x": -3.3433806414,
				"y": -0.4865089454,
				"z": 2.1314515981,
				"element": "H" 
			},
			{
				"x": 0.7555083212,
				"y": -0.5138828993,
				"z": 1.9420553739,
				"element": "H" 
			},
			{
				"x": 0.8205039907,
				"y": -2.023883429,
				"z": 0.0182309699,
				"element": "H" 
			},
			{
				"x": -0.854961374,
				"y": -1.6339331876,
				"z": -0.2859133177,
				"element": "H" 
			},
			{
				"x": -0.0282243053,
				"y": 1.552564531,
				"z": 0.3481926456,
				"element": "H" 
			},
			{
				"x": 0.6801737714,
				"y": 3.2956387296,
				"z": -1.2881727208,
				"element": "H" 
			},
			{
				"x": 1.9573772836,
				"y": 0.2440919969,
				"z": -4.009063099,
				"element": "H" 
			},
			{
				"x": 1.2535109338,
				"y": -1.5095587414,
				"z": -2.3819097773,
				"element": "H" 
			}
		],
		 "valence_orbital": [ 
			{
				"type": "occ",
				"energy": -0.29949,
				"method": "rhf"
			},
			{
				"type": "occ",
				"energy": -0.26531,
				"method": "rhf"
			},
			{
				"type": "occ",
				"energy": -0.2607,
				"method": "rhf"
			},
			{
				"type": "occ",
				"energy": -0.24681,
				"method": "rhf"
			},
			{
				"type": "occ",
				"energy": -0.24075,
				"method": "rhf"
			},
			{
				"type": "unocc",
				"energy": -0.01752,
				"method": "rhf"
			},
			{
				"type": "unocc",
				"energy": -0.00454,
				"method": "rhf"
			},
			{
				"type": "unocc",
				"energy": 0.00838,
				"method": "rhf"
			},
			{
				"type": "unocc",
				"energy": 0.07577,
				"method": "rhf"
			},
			{
				"type": "unocc",
				"energy": 0.08462,
				"method": "rhf"
			}
		],
		"cosmo_sigma_profile": { 
			"-0.025": 0.0,
			"-0.024": 0.0,
			"-0.023": 0.0,
			"-0.022": 0.0,
			"-0.021": 0.0,
			"-0.02": 0.0,
			"-0.019": 0.0,
			"-0.018": 0.0,
			"-0.017": 0.311211069743,
			"-0.016": 1.13492456748,
			"-0.015": 0.872802221642,
			"-0.014": 1.53171598193,
			"-0.013": 1.73636671709,
			"-0.012": 2.12940953187,
			"-0.011": 1.46800912624,
			"-0.01": 1.69025454352,
			"-0.009": 1.88722251712,
			"-0.008": 1.97673850726,
			"-0.007": 5.51064377202,
			"-0.006": 14.6978196148,
			"-0.005": 18.7852845633,
			"-0.004": 18.2094039538,
			"-0.003": 14.510996335,
			"-0.002": 10.9089024106,
			"-0.001": 9.66590073301,
			"0.0": 9.3407419437,
			"0.001": 14.6711557794,
			"0.002": 14.0413102357,
			"0.003": 14.3356049272,
			"0.004": 21.9822539887,
			"0.005": 11.1454371089,
			"0.006": 1.965584494,
			"0.007": 2.35411990049,
			"0.008": 2.28760116256,
			"0.009": 2.36311419583,
			"0.01": 1.47747468894,
			"0.011": 3.13061181009,
			"0.012": 2.75077316242,
			"0.013": 5.01534929873,
			"0.014": 5.52981467586,
			"0.015": 1.00361426699,
			"0.016": 0.0,
			"0.017": 0.0,
			"0.018": 0.0,
			"0.019": 0.0,
			"0.02": 0.0,
			"0.021": 0.0,
			"0.022": 0.0,
			"0.023": 0.0,
			"0.024": 0.0,
			"0.025": 0.0
		}
	}
}
