{
	 "smiles": "C[C@H]1C[C@H]2[C@@H]3CCC4=CC(=O)C=C[C@]4(C)[C@@]3(Cl)[C@@H](O)C[C@]2(C)[C@@]1(O)C(=O)CO", 
	 "Tm": 391.65, 
	 "num_atms": 57, 
	 "gaussian": { 
		 "optdone": 1, 
		 "sigma_profile": "yes", 
		 "theory": "DFT", 
		 "functional": "B3LYP", 
		 "basiset": "6-31G**", 
		 "properties": { 
			 "R2extent": 13456.8438, 
			 "electric_dipole_moment_norm": 3.30982024436, 
			 "electric_quadrupole_moment_norm": 54.0584950892, 
			 "total_energy": -1692.06571188, 
			 "HOMO_LUMO_gap": 0.17499, 
			 "cosmo_polarized_energy": -27.07, 
			 "cosmo_cavitation_energy": 51.39, 
			 "cosmo_dispersion_energy": -35.17, 
			 "cosmo_repulsion_energy": 2.55, 
			 "cosmo_total_nonelectrostatic_energy": 18.77, 
			 "SMD_solvation_energy": 8.67 
		},
		"coords": [
			{
				"x": 3.3621886068,
				"y": -0.6352535993,
				"z": -1.4983117633,
				"element": "C" 
			},
			{
				"x": 2.2561208349,
				"y": 0.262880888,
				"z": -0.9374779575,
				"element": "C" 
			},
			{
				"x": 0.9574796203,
				"y": 0.2545041608,
				"z": -1.8058833098,
				"element": "C" 
			},
			{
				"x": -0.1336119092,
				"y": 0.489530119,
				"z": -0.7631456179,
				"element": "C" 
			},
			{
				"x": -1.6363625144,
				"y": 0.3525055204,
				"z": -1.0200136727,
				"element": "C" 
			},
			{
				"x": -2.1799122452,
				"y": 0.6715334539,
				"z": -2.4123023623,
				"element": "C" 
			},
			{
				"x": -3.6595542945,
				"y": 0.2464413625,
				"z": -2.4641988191,
				"element": "C" 
			},
			{
				"x": -4.4634450369,
				"y": 0.8385560201,
				"z": -1.3287941274,
				"element": "C" 
			},
			{
				"x": -5.5981757811,
				"y": 1.5138745257,
				"z": -1.5898060441,
				"element": "C" 
			},
			{
				"x": -6.4237193297,
				"y": 2.1698147498,
				"z": -0.5620848577,
				"element": "C" 
			},
			{
				"x": -7.4631805952,
				"y": 2.7638628325,
				"z": -0.8384751555,
				"element": "O" 
			},
			{
				"x": -5.921172016,
				"y": 2.0589083994,
				"z": 0.8191914016,
				"element": "C" 
			},
			{
				"x": -4.7917289338,
				"y": 1.4013955066,
				"z": 1.111338698,
				"element": "C" 
			},
			{
				"x": -3.9399353226,
				"y": 0.651820321,
				"z": 0.1040191723,
				"element": "C" 
			},
			{
				"x": -4.084292923,
				"y": -0.8476572478,
				"z": 0.5234089257,
				"element": "C" 
			},
			{
				"x": -2.4101050744,
				"y": 1.0891031438,
				"z": 0.118148345,
				"element": "C" 
			},
			{
				"x": -2.4241430311,
				"y": 2.9331843455,
				"z": -0.2520298642,
				"element": "Cl" 
			},
			{
				"x": -1.5685351043,
				"y": 1.0058261336,
				"z": 1.4628226472,
				"element": "C" 
			},
			{
				"x": -2.3282466836,
				"y": 1.1039311279,
				"z": 2.6577925137,
				"element": "O" 
			},
			{
				"x": -0.678892335,
				"y": -0.2427958309,
				"z": 1.6038399105,
				"element": "C" 
			},
			{
				"x": 0.2836313076,
				"y": -0.4613001183,
				"z": 0.3992865429,
				"element": "C" 
			},
			{
				"x": 0.2169186028,
				"y": -1.9553320631,
				"z": 0.0075201178,
				"element": "C" 
			},
			{
				"x": 1.7787325162,
				"y": 0.0109256591,
				"z": 0.5632324314,
				"element": "C" 
			},
			{
				"x": 1.8248085758,
				"y": 1.3091089224,
				"z": 1.1776736783,
				"element": "O" 
			},
			{
				"x": 2.7071129237,
				"y": -0.9272006799,
				"z": 1.3386481038,
				"element": "C" 
			},
			{
				"x": 2.8589253612,
				"y": -2.1068268634,
				"z": 1.0576370058,
				"element": "O" 
			},
			{
				"x": 3.5208253015,
				"y": -0.3610601557,
				"z": 2.5014820215,
				"element": "C" 
			},
			{
				"x": 4.354697228,
				"y": -1.338044188,
				"z": 3.0493144327,
				"element": "O" 
			},
			{
				"x": 3.0854205967,
				"y": -1.6923599823,
				"z": -1.4896009351,
				"element": "H" 
			},
			{
				"x": 4.2978471719,
				"y": -0.5349534115,
				"z": -0.9394829029,
				"element": "H" 
			},
			{
				"x": 3.5662513658,
				"y": -0.3445335275,
				"z": -2.5342768158,
				"element": "H" 
			},
			{
				"x": 2.6392682778,
				"y": 1.2876502768,
				"z": -0.9039517388,
				"element": "H" 
			},
			{
				"x": 0.8438717624,
				"y": -0.7014116972,
				"z": -2.3288408094,
				"element": "H" 
			},
			{
				"x": 0.9929908466,
				"y": 1.038818659,
				"z": -2.5677848197,
				"element": "H" 
			},
			{
				"x": 0.0437517603,
				"y": 1.5123181629,
				"z": -0.4165056156,
				"element": "H" 
			},
			{
				"x": -1.8804388708,
				"y": -0.7040434316,
				"z": -0.8650114086,
				"element": "H" 
			},
			{
				"x": -1.609549521,
				"y": 0.1143146651,
				"z": -3.1634589757,
				"element": "H" 
			},
			{
				"x": -2.0758298709,
				"y": 1.7354107146,
				"z": -2.6439856636,
				"element": "H" 
			},
			{
				"x": -4.1157595334,
				"y": 0.5309243095,
				"z": -3.4167916014,
				"element": "H" 
			},
			{
				"x": -3.7025621577,
				"y": -0.8517646852,
				"z": -2.4122807508,
				"element": "H" 
			},
			{
				"x": -5.9544315102,
				"y": 1.623277996,
				"z": -2.6112116245,
				"element": "H" 
			},
			{
				"x": -6.5249021619,
				"y": 2.5241736579,
				"z": 1.593334022,
				"element": "H" 
			},
			{
				"x": -4.4852780843,
				"y": 1.290579315,
				"z": 2.1436217368,
				"element": "H" 
			},
			{
				"x": -3.5458580546,
				"y": -1.5304904908,
				"z": -0.1370216281,
				"element": "H" 
			},
			{
				"x": -3.7238561153,
				"y": -0.9902727146,
				"z": 1.5451418631,
				"element": "H" 
			},
			{
				"x": -5.1417636024,
				"y": -1.121914578,
				"z": 0.4939995901,
				"element": "H" 
			},
			{
				"x": -0.8888458072,
				"y": 1.8605920737,
				"z": 1.4085471472,
				"element": "H" 
			},
			{
				"x": -2.6042063743,
				"y": 2.0257096093,
				"z": 2.7530564525,
				"element": "H" 
			},
			{
				"x": -1.3108098104,
				"y": -1.1264091871,
				"z": 1.7348505478,
				"element": "H" 
			},
			{
				"x": -0.1467479102,
				"y": -0.1360168041,
				"z": 2.5583839881,
				"element": "H" 
			},
			{
				"x": -0.7885000041,
				"y": -2.2174446628,
				"z": -0.3365450568,
				"element": "H" 
			},
			{
				"x": 0.9242747088,
				"y": -2.2364854605,
				"z": -0.7717546568,
				"element": "H" 
			},
			{
				"x": 0.4374367035,
				"y": -2.5835258977,
				"z": 0.8726279502,
				"element": "H" 
			},
			{
				"x": 1.3854135254,
				"y": 1.2631224146,
				"z": 2.0380222571,
				"element": "H" 
			},
			{
				"x": 2.824254455,
				"y": 0.035261381,
				"z": 3.2617753558,
				"element": "H" 
			},
			{
				"x": 4.0895153183,
				"y": 0.5078152422,
				"z": 2.1373773626,
				"element": "H" 
			},
			{
				"x": 4.1684151478,
				"y": -2.1474783922,
				"z": 2.5396343337,
				"element": "H" 
			}
		],
		 "valence_orbital": [ 
			{
				"type": "occ",
				"energy": -0.27364,
				"method": "rhf"
			},
			{
				"type": "occ",
				"energy": -0.26928,
				"method": "rhf"
			},
			{
				"type": "occ",
				"energy": -0.26508,
				"method": "rhf"
			},
			{
				"type": "occ",
				"energy": -0.2595,
				"method": "rhf"
			},
			{
				"type": "occ",
				"energy": -0.23509,
				"method": "rhf"
			},
			{
				"type": "unocc",
				"energy": -0.0601,
				"method": "rhf"
			},
			{
				"type": "unocc",
				"energy": -0.04475,
				"method": "rhf"
			},
			{
				"type": "unocc",
				"energy": -0.00969,
				"method": "rhf"
			},
			{
				"type": "unocc",
				"energy": -0.00201,
				"method": "rhf"
			},
			{
				"type": "unocc",
				"energy": 0.03366,
				"method": "rhf"
			}
		],
		"cosmo_sigma_profile": { 
			"-0.025": 0.0,
			"-0.024": 0.0,
			"-0.023": 0.0,
			"-0.022": 0.0,
			"-0.021": 0.0,
			"-0.02": 0.0,
			"-0.019": 0.0,
			"-0.018": 0.0,
			"-0.017": 0.0,
			"-0.016": 0.230535573653,
			"-0.015": 2.31143863947,
			"-0.014": 2.23824785201,
			"-0.013": 1.70354911025,
			"-0.012": 2.17803147924,
			"-0.011": 1.93343102734,
			"-0.01": 3.60996746963,
			"-0.009": 3.50295099221,
			"-0.008": 5.74507967882,
			"-0.007": 6.42787954166,
			"-0.006": 11.3331902436,
			"-0.005": 19.6761214676,
			"-0.004": 29.3866731171,
			"-0.003": 41.2948099269,
			"-0.002": 45.1922308948,
			"-0.001": 43.0916071486,
			"0.0": 30.6044640231,
			"0.001": 25.6821115451,
			"0.002": 20.6348723525,
			"0.003": 13.8348221276,
			"0.004": 14.04970722,
			"0.005": 14.2919275043,
			"0.006": 10.4961921807,
			"0.007": 7.58692108677,
			"0.008": 6.39316526851,
			"0.009": 5.64327324724,
			"0.01": 5.85139042728,
			"0.011": 4.91030452066,
			"0.012": 6.845462355,
			"0.013": 7.65605520925,
			"0.014": 5.45326359669,
			"0.015": 1.08605827531,
			"0.016": 0.0,
			"0.017": 0.0,
			"0.018": 0.0,
			"0.019": 0.0,
			"0.02": 0.0,
			"0.021": 0.0,
			"0.022": 0.0,
			"0.023": 0.0,
			"0.024": 0.0,
			"0.025": 0.0
		}
	}
}
