{
	 "smiles": "OC(=O)C1=C(CC#N)C=CC=C1", 
	 "Tm": 380.15, 
	 "num_atms": 19, 
	 "gaussian": { 
		 "optdone": 1, 
		 "sigma_profile": "yes", 
		 "theory": "DFT", 
		 "functional": "B3LYP", 
		 "basiset": "6-31G**", 
		 "properties": { 
			 "R2extent": 2258.7006, 
			 "electric_dipole_moment_norm": 5.04733136618, 
			 "electric_quadrupole_moment_norm": 23.2327663387, 
			 "total_energy": -552.37417331, 
			 "HOMO_LUMO_gap": 0.20812, 
			 "cosmo_polarized_energy": -14.88, 
			 "cosmo_cavitation_energy": 24.42, 
			 "cosmo_dispersion_energy": -17.32, 
			 "cosmo_repulsion_energy": 1.38, 
			 "cosmo_total_nonelectrostatic_energy": 8.49, 
			 "SMD_solvation_energy": 6.65 
		},
		"coords": [
			{
				"x": 2.1738458986,
				"y": 0.0988322978,
				"z": 1.7790974451,
				"element": "O" 
			},
			{
				"x": 1.8293327979,
				"y": 0.8442852399,
				"z": 0.7008542666,
				"element": "C" 
			},
			{
				"x": 2.4261141637,
				"y": 1.8689572497,
				"z": 0.4265308178,
				"element": "O" 
			},
			{
				"x": 0.6917345008,
				"y": 0.2606238983,
				"z": -0.0658415049,
				"element": "C" 
			},
			{
				"x": 0.1031391541,
				"y": 0.9517862993,
				"z": -1.1501936696,
				"element": "C" 
			},
			{
				"x": 0.5390984127,
				"y": 2.3428087731,
				"z": -1.5998581208,
				"element": "C" 
			},
			{
				"x": 0.0252009525,
				"y": 3.4035736419,
				"z": -0.7234965975,
				"element": "C" 
			},
			{
				"x": -0.4050644988,
				"y": 4.2393171425,
				"z": -0.0430542242,
				"element": "N" 
			},
			{
				"x": -0.9457580428,
				"y": 0.338756807,
				"z": -1.8417296394,
				"element": "C" 
			},
			{
				"x": -1.4135926055,
				"y": -0.9260447073,
				"z": -1.485815643,
				"element": "C" 
			},
			{
				"x": -0.8327157911,
				"y": -1.604709511,
				"z": -0.415595471,
				"element": "C" 
			},
			{
				"x": 0.2118908339,
				"y": -1.0113019578,
				"z": 0.2867649453,
				"element": "C" 
			},
			{
				"x": 2.9169629558,
				"y": 0.5675369892,
				"z": 2.1934286776,
				"element": "H" 
			},
			{
				"x": 0.1580197148,
				"y": 2.5283274975,
				"z": -2.6098475026,
				"element": "H" 
			},
			{
				"x": 1.6274834547,
				"y": 2.4253502248,
				"z": -1.6197008909,
				"element": "H" 
			},
			{
				"x": -1.4061576518,
				"y": 0.8656348109,
				"z": -2.6728943222,
				"element": "H" 
			},
			{
				"x": -2.2296989733,
				"y": -1.3757585315,
				"z": -2.0435780155,
				"element": "H" 
			},
			{
				"x": -1.1891711951,
				"y": -2.589058408,
				"z": -0.1286573617,
				"element": "H" 
			},
			{
				"x": 0.671735919,
				"y": -1.5299177563,
				"z": 1.1190868111,
				"element": "H" 
			}
		],
		 "valence_orbital": [ 
			{
				"type": "occ",
				"energy": -0.31783,
				"method": "rhf"
			},
			{
				"type": "occ",
				"energy": -0.31363,
				"method": "rhf"
			},
			{
				"type": "occ",
				"energy": -0.28604,
				"method": "rhf"
			},
			{
				"type": "occ",
				"energy": -0.27627,
				"method": "rhf"
			},
			{
				"type": "occ",
				"energy": -0.27128,
				"method": "rhf"
			},
			{
				"type": "unocc",
				"energy": -0.06316,
				"method": "rhf"
			},
			{
				"type": "unocc",
				"energy": -0.02615,
				"method": "rhf"
			},
			{
				"type": "unocc",
				"energy": 0.03666,
				"method": "rhf"
			},
			{
				"type": "unocc",
				"energy": 0.0444,
				"method": "rhf"
			},
			{
				"type": "unocc",
				"energy": 0.05591,
				"method": "rhf"
			}
		],
		"cosmo_sigma_profile": { 
			"-0.025": 0.0,
			"-0.024": 0.0,
			"-0.023": 0.0,
			"-0.022": 0.0,
			"-0.021": 0.0,
			"-0.02": 0.0,
			"-0.019": 0.106925915172,
			"-0.018": 0.785244383672,
			"-0.017": 0.890893811398,
			"-0.016": 1.1322630372,
			"-0.015": 0.619010213573,
			"-0.014": 0.305386329025,
			"-0.013": 0.901880596862,
			"-0.012": 0.824694251524,
			"-0.011": 0.783096367457,
			"-0.01": 0.703352386558,
			"-0.009": 3.28720180408,
			"-0.008": 4.33991641272,
			"-0.007": 8.97007587253,
			"-0.006": 12.5277913586,
			"-0.005": 15.0197017203,
			"-0.004": 10.5000065767,
			"-0.003": 9.83428648674,
			"-0.002": 11.2035325413,
			"-0.001": 11.3471106156,
			"0.0": 12.351185182,
			"0.001": 12.9741465356,
			"0.002": 13.0970750909,
			"0.003": 14.9461004261,
			"0.004": 6.6519293181,
			"0.005": 2.98205371059,
			"0.006": 6.0657673251,
			"0.007": 6.13766576082,
			"0.008": 5.59359728454,
			"0.009": 5.48144903584,
			"0.01": 5.12887999937,
			"0.011": 5.22130123528,
			"0.012": 3.56478881963,
			"0.013": 1.93680996548,
			"0.014": 0.37167050267,
			"0.015": 0.0,
			"0.016": 0.0,
			"0.017": 0.0,
			"0.018": 0.0,
			"0.019": 0.0,
			"0.02": 0.0,
			"0.021": 0.0,
			"0.022": 0.0,
			"0.023": 0.0,
			"0.024": 0.0,
			"0.025": 0.0
		}
	}
}
