{
	 "smiles": "OC(=O)CC1=CC=C(S)C=C1", 
	 "Tm": 380.15, 
	 "num_atms": 19, 
	 "gaussian": { 
		 "optdone": 1, 
		 "sigma_profile": "yes", 
		 "theory": "DFT", 
		 "functional": "B3LYP", 
		 "basiset": "6-31G**", 
		 "properties": { 
			 "R2extent": 3790.6059, 
			 "electric_dipole_moment_norm": 4.24588300004, 
			 "electric_quadrupole_moment_norm": 23.0315636718, 
			 "total_energy": -858.315188594, 
			 "HOMO_LUMO_gap": 0.202, 
			 "cosmo_polarized_energy": -15.13, 
			 "cosmo_cavitation_energy": 25.15, 
			 "cosmo_dispersion_energy": -18.7, 
			 "cosmo_repulsion_energy": 1.46, 
			 "cosmo_total_nonelectrostatic_energy": 7.92, 
			 "SMD_solvation_energy": 4.91 
		},
		"coords": [
			{
				"x": 3.6849087915,
				"y": 1.2132297763,
				"z": 1.2107163004,
				"element": "O" 
			},
			{
				"x": 2.6317928575,
				"y": 2.0557481211,
				"z": 1.3113472896,
				"element": "C" 
			},
			{
				"x": 2.7604042008,
				"y": 3.1584877032,
				"z": 1.7803137519,
				"element": "O" 
			},
			{
				"x": 1.286711134,
				"y": 1.5484887289,
				"z": 0.7586726822,
				"element": "C" 
			},
			{
				"x": 1.1633684551,
				"y": 0.0534203736,
				"z": 0.576392102,
				"element": "C" 
			},
			{
				"x": 1.5054095844,
				"y": -0.5614369644,
				"z": -0.6382183611,
				"element": "C" 
			},
			{
				"x": 1.4232708848,
				"y": -1.943478419,
				"z": -0.8000651932,
				"element": "C" 
			},
			{
				"x": 0.9901963659,
				"y": -2.7522037682,
				"z": 0.2589442016,
				"element": "C" 
			},
			{
				"x": 0.9033766915,
				"y": -4.5128266203,
				"z": -0.0156814841,
				"element": "S" 
			},
			{
				"x": 0.6436468344,
				"y": -2.1508311367,
				"z": 1.4770319726,
				"element": "C" 
			},
			{
				"x": 0.7327211771,
				"y": -0.7693112077,
				"z": 1.627824471,
				"element": "C" 
			},
			{
				"x": 3.3866349599,
				"y": 0.3629714727,
				"z": 0.8486949096,
				"element": "H" 
			},
			{
				"x": 0.5182623598,
				"y": 1.9359240606,
				"z": 1.4326506822,
				"element": "H" 
			},
			{
				"x": 1.1431521842,
				"y": 2.0641970503,
				"z": -0.19858407,
				"element": "H" 
			},
			{
				"x": 1.829380457,
				"y": 0.0501844396,
				"z": -1.4771006523,
				"element": "H" 
			},
			{
				"x": 1.6889347801,
				"y": -2.3902616788,
				"z": -1.753632382,
				"element": "H" 
			},
			{
				"x": 0.4611091245,
				"y": -4.8460768301,
				"z": 1.2115633359,
				"element": "H" 
			},
			{
				"x": 0.3020026782,
				"y": -2.7578144982,
				"z": 2.310295167,
				"element": "H" 
			},
			{
				"x": 0.4586164793,
				"y": -0.3222106028,
				"z": 2.5800352767,
				"element": "H" 
			}
		],
		 "valence_orbital": [ 
			{
				"type": "occ",
				"energy": -0.31725,
				"method": "rhf"
			},
			{
				"type": "occ",
				"energy": -0.30991,
				"method": "rhf"
			},
			{
				"type": "occ",
				"energy": -0.27777,
				"method": "rhf"
			},
			{
				"type": "occ",
				"energy": -0.26876,
				"method": "rhf"
			},
			{
				"type": "occ",
				"energy": -0.23274,
				"method": "rhf"
			},
			{
				"type": "unocc",
				"energy": -0.03074,
				"method": "rhf"
			},
			{
				"type": "unocc",
				"energy": -0.02894,
				"method": "rhf"
			},
			{
				"type": "unocc",
				"energy": 0.00093,
				"method": "rhf"
			},
			{
				"type": "unocc",
				"energy": 0.01544,
				"method": "rhf"
			},
			{
				"type": "unocc",
				"energy": 0.0554,
				"method": "rhf"
			}
		],
		"cosmo_sigma_profile": { 
			"-0.025": 0.0,
			"-0.024": 0.0,
			"-0.023": 0.0,
			"-0.022": 0.0,
			"-0.021": 0.0,
			"-0.02": 0.0,
			"-0.019": 0.0,
			"-0.018": 0.0,
			"-0.017": 0.0,
			"-0.016": 0.0,
			"-0.015": 0.0,
			"-0.014": 0.467463239679,
			"-0.013": 0.442003495925,
			"-0.012": 0.501322167371,
			"-0.011": 1.77300318409,
			"-0.01": 4.41025277067,
			"-0.009": 3.71250178862,
			"-0.008": 5.51479405859,
			"-0.007": 14.3171377555,
			"-0.006": 14.9094285037,
			"-0.005": 14.7476255368,
			"-0.004": 11.2788494674,
			"-0.003": 10.9580886497,
			"-0.002": 9.11568418704,
			"-0.001": 9.25154027453,
			"0.0": 8.2446968594,
			"0.001": 9.87162305544,
			"0.002": 10.5921492693,
			"0.003": 12.2252170356,
			"0.004": 15.217231243,
			"0.005": 7.65758706183,
			"0.006": 4.84521127451,
			"0.007": 4.73370556072,
			"0.008": 5.45847522367,
			"0.009": 4.12051689478,
			"0.01": 4.75960012304,
			"0.011": 4.68453409649,
			"0.012": 5.90724324313,
			"0.013": 3.03562156946,
			"0.014": 0.197546407169,
			"0.015": 0.0,
			"0.016": 0.0,
			"0.017": 0.0,
			"0.018": 0.0,
			"0.019": 0.0,
			"0.02": 0.0,
			"0.021": 0.0,
			"0.022": 0.0,
			"0.023": 0.0,
			"0.024": 0.0,
			"0.025": 0.0
		}
	}
}
