{
	 "smiles": "NC1=CC2=C(C=C1)C(=O)N(CC1CC1)C2=O", 
	 "Tm": 437.15, 
	 "num_atms": 28, 
	 "gaussian": { 
		 "optdone": 1, 
		 "sigma_profile": "yes", 
		 "theory": "DFT", 
		 "functional": "B3LYP", 
		 "basiset": "6-31G**", 
		 "properties": { 
			 "R2extent": 4617.2212, 
			 "electric_dipole_moment_norm": 4.49909655375, 
			 "electric_quadrupole_moment_norm": 26.5709276383, 
			 "total_energy": -724.471655226, 
			 "HOMO_LUMO_gap": 0.1544, 
			 "cosmo_polarized_energy": -16.03, 
			 "cosmo_cavitation_energy": 32.39, 
			 "cosmo_dispersion_energy": -23.01, 
			 "cosmo_repulsion_energy": 1.79, 
			 "cosmo_total_nonelectrostatic_energy": 11.16, 
			 "SMD_solvation_energy": 5.96 
		},
		"coords": [
			{
				"x": -5.37105844,
				"y": -0.8139867531,
				"z": 1.1357632963,
				"element": "N" 
			},
			{
				"x": -4.1102427208,
				"y": -0.245441657,
				"z": 1.1717603567,
				"element": "C" 
			},
			{
				"x": -3.3205811353,
				"y": -0.1910427226,
				"z": -0.0002852878,
				"element": "C" 
			},
			{
				"x": -2.0904904314,
				"y": 0.4304484198,
				"z": 0.0781583882,
				"element": "C" 
			},
			{
				"x": -1.6110884078,
				"y": 0.9995893685,
				"z": 1.2610504986,
				"element": "C" 
			},
			{
				"x": -2.3762185902,
				"y": 0.9553358682,
				"z": 2.4205887237,
				"element": "C" 
			},
			{
				"x": -3.6215931179,
				"y": 0.3311478475,
				"z": 2.3670996882,
				"element": "C" 
			},
			{
				"x": -0.2709776097,
				"y": 1.5756246312,
				"z": 0.9947415215,
				"element": "C" 
			},
			{
				"x": 0.4896974291,
				"y": 2.1580193211,
				"z": 1.7451320061,
				"element": "O" 
			},
			{
				"x": -0.0109899439,
				"y": 1.3206860158,
				"z": -0.3692226237,
				"element": "N" 
			},
			{
				"x": 1.2224113828,
				"y": 1.7121577122,
				"z": -1.0449740368,
				"element": "C" 
			},
			{
				"x": 2.3410713654,
				"y": 0.7029527351,
				"z": -0.8853367415,
				"element": "C" 
			},
			{
				"x": 2.3626717279,
				"y": -0.5339002504,
				"z": -1.7498845277,
				"element": "C" 
			},
			{
				"x": 3.3689405672,
				"y": 0.5668751726,
				"z": -1.9827454172,
				"element": "C" 
			},
			{
				"x": -1.0570804673,
				"y": 0.6278805311,
				"z": -0.9863938416,
				"element": "C" 
			},
			{
				"x": -1.0903175387,
				"y": 0.2794356397,
				"z": -2.152749189,
				"element": "O" 
			},
			{
				"x": -5.7732035696,
				"y": -1.0963014837,
				"z": 2.0172139985,
				"element": "H" 
			},
			{
				"x": -5.5630836028,
				"y": -1.4530548254,
				"z": 0.3786643787,
				"element": "H" 
			},
			{
				"x": -3.6693395422,
				"y": -0.6215125353,
				"z": -0.9345963605,
				"element": "H" 
			},
			{
				"x": -2.0122956291,
				"y": 1.3935276689,
				"z": 3.3446096175,
				"element": "H" 
			},
			{
				"x": -4.2400471594,
				"y": 0.285651813,
				"z": 3.2598114721,
				"element": "H" 
			},
			{
				"x": 1.5197681714,
				"y": 2.6818134914,
				"z": -0.6347269226,
				"element": "H" 
			},
			{
				"x": 0.9738050382,
				"y": 1.8392206879,
				"z": -2.10259663,
				"element": "H" 
			},
			{
				"x": 2.6995905496,
				"y": 0.5979704102,
				"z": 0.135915189,
				"element": "H" 
			},
			{
				"x": 1.5584203117,
				"y": -0.6525724439,
				"z": -2.4697253208,
				"element": "H" 
			},
			{
				"x": 2.7097566099,
				"y": -1.4620991362,
				"z": -1.3059318142,
				"element": "H" 
			},
			{
				"x": 4.4026034387,
				"y": 0.3960811364,
				"z": -1.6980928486,
				"element": "H" 
			},
			{
				"x": 3.2514713141,
				"y": 1.183593337,
				"z": -2.8699475732,
				"element": "H" 
			}
		],
		 "valence_orbital": [ 
			{
				"type": "occ",
				"energy": -0.27452,
				"method": "rhf"
			},
			{
				"type": "occ",
				"energy": -0.27197,
				"method": "rhf"
			},
			{
				"type": "occ",
				"energy": -0.26104,
				"method": "rhf"
			},
			{
				"type": "occ",
				"energy": -0.25632,
				"method": "rhf"
			},
			{
				"type": "occ",
				"energy": -0.22158,
				"method": "rhf"
			},
			{
				"type": "unocc",
				"energy": -0.06718,
				"method": "rhf"
			},
			{
				"type": "unocc",
				"energy": -0.02797,
				"method": "rhf"
			},
			{
				"type": "unocc",
				"energy": 0.0442,
				"method": "rhf"
			},
			{
				"type": "unocc",
				"energy": 0.06744,
				"method": "rhf"
			},
			{
				"type": "unocc",
				"energy": 0.08309,
				"method": "rhf"
			}
		],
		"cosmo_sigma_profile": { 
			"-0.025": 0.0,
			"-0.024": 0.0,
			"-0.023": 0.0,
			"-0.022": 0.0,
			"-0.021": 0.0,
			"-0.02": 0.0,
			"-0.019": 0.0,
			"-0.018": 0.0,
			"-0.017": 0.0,
			"-0.016": 0.0,
			"-0.015": 0.0,
			"-0.014": 0.82599120728,
			"-0.013": 3.15297111467,
			"-0.012": 2.45179000328,
			"-0.011": 3.81622533737,
			"-0.01": 3.72069806003,
			"-0.009": 2.82661733298,
			"-0.008": 3.09191576305,
			"-0.007": 5.65597107782,
			"-0.006": 7.34119494372,
			"-0.005": 11.8299990263,
			"-0.004": 16.9432311373,
			"-0.003": 19.947771894,
			"-0.002": 23.4503338947,
			"-0.001": 18.559997181,
			"0.0": 19.5262283048,
			"0.001": 18.9982105494,
			"0.002": 21.5080118729,
			"0.003": 20.6487399797,
			"0.004": 11.1893483154,
			"0.005": 5.17952998002,
			"0.006": 5.04533494506,
			"0.007": 3.28337377022,
			"0.008": 3.59160046283,
			"0.009": 4.24128818088,
			"0.01": 4.33680260182,
			"0.011": 6.88332104779,
			"0.012": 8.33052294231,
			"0.013": 0.925812029216,
			"0.014": 0.0,
			"0.015": 0.0,
			"0.016": 0.0,
			"0.017": 0.0,
			"0.018": 0.0,
			"0.019": 0.0,
			"0.02": 0.0,
			"0.021": 0.0,
			"0.022": 0.0,
			"0.023": 0.0,
			"0.024": 0.0,
			"0.025": 0.0
		}
	}
}
