{
	 "smiles": "FC(F)C(=O)CC(=O)C1=CC=CC=C1", 
	 "Tm": 314.15, 
	 "num_atms": 22, 
	 "gaussian": { 
		 "optdone": 1, 
		 "sigma_profile": "yes", 
		 "theory": "DFT", 
		 "functional": "B3LYP", 
		 "basiset": "6-31G**", 
		 "properties": { 
			 "R2extent": 3871.2109, 
			 "electric_dipole_moment_norm": 4.78633087239, 
			 "electric_quadrupole_moment_norm": 15.7624921107, 
			 "total_energy": -735.988796469, 
			 "HOMO_LUMO_gap": 0.19358, 
			 "cosmo_polarized_energy": -13.55, 
			 "cosmo_cavitation_energy": 27.88, 
			 "cosmo_dispersion_energy": -19.61, 
			 "cosmo_repulsion_energy": 1.51, 
			 "cosmo_total_nonelectrostatic_energy": 9.78, 
			 "SMD_solvation_energy": 6.61 
		},
		"coords": [
			{
				"x": 2.8168195303,
				"y": 0.5568804116,
				"z": 0.3082879208,
				"element": "F" 
			},
			{
				"x": 2.8251274096,
				"y": 1.8184668045,
				"z": -0.2216349447,
				"element": "C" 
			},
			{
				"x": 3.1947355212,
				"y": 2.6954456045,
				"z": 0.7422686378,
				"element": "F" 
			},
			{
				"x": 1.4242726154,
				"y": 2.1882289815,
				"z": -0.7546772844,
				"element": "C" 
			},
			{
				"x": 1.3061102765,
				"y": 3.197964329,
				"z": -1.4105964837,
				"element": "O" 
			},
			{
				"x": 0.2812678146,
				"y": 1.2260292576,
				"z": -0.4818382457,
				"element": "C" 
			},
			{
				"x": -0.0777775047,
				"y": 1.199826138,
				"z": 1.0078764918,
				"element": "C" 
			},
			{
				"x": 0.4569061534,
				"y": 1.9902258414,
				"z": 1.7695669611,
				"element": "O" 
			},
			{
				"x": -1.0955313871,
				"y": 0.216950552,
				"z": 1.4853556595,
				"element": "C" 
			},
			{
				"x": -1.7552894604,
				"y": -0.6751709976,
				"z": 0.6261983774,
				"element": "C" 
			},
			{
				"x": -2.7015244835,
				"y": -1.5667831417,
				"z": 1.130346939,
				"element": "C" 
			},
			{
				"x": -2.9947369438,
				"y": -1.5754165182,
				"z": 2.4954525546,
				"element": "C" 
			},
			{
				"x": -2.3420905443,
				"y": -0.6891329775,
				"z": 3.3582785892,
				"element": "C" 
			},
			{
				"x": -1.3996717793,
				"y": 0.2024809497,
				"z": 2.8566667949,
				"element": "C" 
			},
			{
				"x": 3.5623298486,
				"y": 1.8534719174,
				"z": -1.0337720033,
				"element": "H" 
			},
			{
				"x": 0.5596636513,
				"y": 0.2185803018,
				"z": -0.8122058372,
				"element": "H" 
			},
			{
				"x": -0.5822111184,
				"y": 1.5537132839,
				"z": -1.0696844364,
				"element": "H" 
			},
			{
				"x": -1.5388233348,
				"y": -0.6780962354,
				"z": -0.4373476807,
				"element": "H" 
			},
			{
				"x": -3.2089410655,
				"y": -2.253439223,
				"z": 0.4594650774,
				"element": "H" 
			},
			{
				"x": -3.7310981795,
				"y": -2.2714252767,
				"z": 2.8869494538,
				"element": "H" 
			},
			{
				"x": -2.5706798016,
				"y": -0.6960620367,
				"z": 4.4198712845,
				"element": "H" 
			},
			{
				"x": -0.880857218,
				"y": 0.900962034,
				"z": 3.5044721744,
				"element": "H" 
			}
		],
		 "valence_orbital": [ 
			{
				"type": "occ",
				"energy": -0.35601,
				"method": "rhf"
			},
			{
				"type": "occ",
				"energy": -0.27169,
				"method": "rhf"
			},
			{
				"type": "occ",
				"energy": -0.2712,
				"method": "rhf"
			},
			{
				"type": "occ",
				"energy": -0.26783,
				"method": "rhf"
			},
			{
				"type": "occ",
				"energy": -0.26202,
				"method": "rhf"
			},
			{
				"type": "unocc",
				"energy": -0.06844,
				"method": "rhf"
			},
			{
				"type": "unocc",
				"energy": -0.04807,
				"method": "rhf"
			},
			{
				"type": "unocc",
				"energy": -0.01876,
				"method": "rhf"
			},
			{
				"type": "unocc",
				"energy": 0.02839,
				"method": "rhf"
			},
			{
				"type": "unocc",
				"energy": 0.07828,
				"method": "rhf"
			}
		],
		"cosmo_sigma_profile": { 
			"-0.025": 0.0,
			"-0.024": 0.0,
			"-0.023": 0.0,
			"-0.022": 0.0,
			"-0.021": 0.0,
			"-0.02": 0.0,
			"-0.019": 0.0,
			"-0.018": 0.0,
			"-0.017": 0.0,
			"-0.016": 0.0,
			"-0.015": 0.0,
			"-0.014": 0.0,
			"-0.013": 0.0,
			"-0.012": 0.0,
			"-0.011": 0.805594368905,
			"-0.01": 3.67591638179,
			"-0.009": 4.99863054095,
			"-0.008": 8.57484830321,
			"-0.007": 10.6270219223,
			"-0.006": 13.4776737119,
			"-0.005": 14.9857100376,
			"-0.004": 13.6313768137,
			"-0.003": 10.2820589505,
			"-0.002": 9.25094955118,
			"-0.001": 9.94689804848,
			"0.0": 10.2284357574,
			"0.001": 12.8502954148,
			"0.002": 15.3316936049,
			"0.003": 23.3107526273,
			"0.004": 25.6724585801,
			"0.005": 5.28418098265,
			"0.006": 4.61349936784,
			"0.007": 4.18588875253,
			"0.008": 4.87119123432,
			"0.009": 5.70087233999,
			"0.01": 7.06162163223,
			"0.011": 3.66879241102,
			"0.012": 0.119596542426,
			"0.013": 0.0,
			"0.014": 0.0,
			"0.015": 0.0,
			"0.016": 0.0,
			"0.017": 0.0,
			"0.018": 0.0,
			"0.019": 0.0,
			"0.02": 0.0,
			"0.021": 0.0,
			"0.022": 0.0,
			"0.023": 0.0,
			"0.024": 0.0,
			"0.025": 0.0
		}
	}
}
