{
	 "smiles": "CS(=O)(=O)CC1(CBr)CC1", 
	 "Tm": 324.15, 
	 "num_atms": 21, 
	 "gaussian": { 
		 "optdone": 1, 
		 "sigma_profile": "yes", 
		 "theory": "DFT", 
		 "functional": "B3LYP", 
		 "basiset": "6-31G**", 
		 "properties": { 
			 "R2extent": 2883.0921, 
			 "electric_dipole_moment_norm": 2.88608546478, 
			 "electric_quadrupole_moment_norm": 17.2690602935, 
			 "total_energy": -3355.2230325, 
			 "HOMO_LUMO_gap": 0.26533, 
			 "cosmo_polarized_energy": -15.65, 
			 "cosmo_cavitation_energy": 26.6, 
			 "cosmo_dispersion_energy": -19.54, 
			 "cosmo_repulsion_energy": 1.52, 
			 "cosmo_total_nonelectrostatic_energy": 8.58, 
			 "SMD_solvation_energy": 2.93 
		},
		"coords": [
			{
				"x": -2.4829792642,
				"y": -1.691371773,
				"z": -0.2394072099,
				"element": "C" 
			},
			{
				"x": -1.3784519805,
				"y": -0.97050523,
				"z": -1.4775443681,
				"element": "S" 
			},
			{
				"x": -1.660911965,
				"y": -1.6287564886,
				"z": -2.7634197187,
				"element": "O" 
			},
			{
				"x": -1.4668479881,
				"y": 0.4959451692,
				"z": -1.3528305145,
				"element": "O" 
			},
			{
				"x": 0.3028142017,
				"y": -1.5207182301,
				"z": -0.9514926111,
				"element": "C" 
			},
			{
				"x": 1.1438739417,
				"y": -0.4680517583,
				"z": -0.2624496414,
				"element": "C" 
			},
			{
				"x": 0.6290902166,
				"y": 0.1002711022,
				"z": 1.0313477664,
				"element": "C" 
			},
			{
				"x": 0.4095506796,
				"y": -1.2921210057,
				"z": 2.4539197338,
				"element": "Br" 
			},
			{
				"x": 1.9180846012,
				"y": 0.5050391996,
				"z": -1.1351189662,
				"element": "C" 
			},
			{
				"x": 2.646406409,
				"y": -0.6020889089,
				"z": -0.4240082076,
				"element": "C" 
			},
			{
				"x": -2.1651431216,
				"y": -1.3905172256,
				"z": 0.7603937074,
				"element": "H" 
			},
			{
				"x": -2.4695020248,
				"y": -2.7775926799,
				"z": -0.3406182574,
				"element": "H" 
			},
			{
				"x": -3.4780656661,
				"y": -1.3016956039,
				"z": -0.4613949423,
				"element": "H" 
			},
			{
				"x": 0.16108907,
				"y": -2.4022955262,
				"z": -0.3179023517,
				"element": "H" 
			},
			{
				"x": 0.7614893326,
				"y": -1.8406383219,
				"z": -1.8900049883,
				"element": "H" 
			},
			{
				"x": -0.3534530401,
				"y": 0.5552607993,
				"z": 0.922550222,
				"element": "H" 
			},
			{
				"x": 1.3243083568,
				"y": 0.8204242199,
				"z": 1.4594763224,
				"element": "H" 
			},
			{
				"x": 2.0379866368,
				"y": 1.5220220188,
				"z": -0.7752675552,
				"element": "H" 
			},
			{
				"x": 1.77246007,
				"y": 0.434015,
				"z": -2.2082912306,
				"element": "H" 
			},
			{
				"x": 3.022769041,
				"y": -1.4360563794,
				"z": -1.008512731,
				"element": "H" 
			},
			{
				"x": 3.2617324934,
				"y": -0.3509683773,
				"z": 0.4348755421,
				"element": "H" 
			}
		],
		 "valence_orbital": [ 
			{
				"type": "occ",
				"energy": -0.30394,
				"method": "rhf"
			},
			{
				"type": "occ",
				"energy": -0.29673,
				"method": "rhf"
			},
			{
				"type": "occ",
				"energy": -0.28513,
				"method": "rhf"
			},
			{
				"type": "occ",
				"energy": -0.28337,
				"method": "rhf"
			},
			{
				"type": "occ",
				"energy": -0.27718,
				"method": "rhf"
			},
			{
				"type": "unocc",
				"energy": -0.01185,
				"method": "rhf"
			},
			{
				"type": "unocc",
				"energy": 0.05198,
				"method": "rhf"
			},
			{
				"type": "unocc",
				"energy": 0.05932,
				"method": "rhf"
			},
			{
				"type": "unocc",
				"energy": 0.06557,
				"method": "rhf"
			},
			{
				"type": "unocc",
				"energy": 0.07742,
				"method": "rhf"
			}
		],
		"cosmo_sigma_profile": { 
			"-0.025": 0.0,
			"-0.024": 0.0,
			"-0.023": 0.0,
			"-0.022": 0.0,
			"-0.021": 0.0,
			"-0.02": 0.0,
			"-0.019": 0.0,
			"-0.018": 0.0,
			"-0.017": 0.0,
			"-0.016": 0.0,
			"-0.015": 0.0,
			"-0.014": 0.0,
			"-0.013": 0.0,
			"-0.012": 0.0,
			"-0.011": 0.0878756295257,
			"-0.01": 1.0741227363,
			"-0.009": 3.81775992276,
			"-0.008": 11.1221928475,
			"-0.007": 11.5988988257,
			"-0.006": 16.1151616947,
			"-0.005": 15.9735549251,
			"-0.004": 16.2434857232,
			"-0.003": 15.9906716803,
			"-0.002": 11.2741678826,
			"-0.001": 12.665678338,
			"0.0": 8.67443356576,
			"0.001": 9.52312161993,
			"0.002": 8.11503477763,
			"0.003": 9.95294401092,
			"0.004": 9.76014184461,
			"0.005": 7.51837372749,
			"0.006": 8.92450840588,
			"0.007": 3.5719257772,
			"0.008": 2.36900928834,
			"0.009": 2.91013665284,
			"0.01": 4.59864213578,
			"0.011": 7.65557234071,
			"0.012": 9.91162812862,
			"0.013": 2.78423519358,
			"0.014": 0.0,
			"0.015": 0.0,
			"0.016": 0.0,
			"0.017": 0.0,
			"0.018": 0.0,
			"0.019": 0.0,
			"0.02": 0.0,
			"0.021": 0.0,
			"0.022": 0.0,
			"0.023": 0.0,
			"0.024": 0.0,
			"0.025": 0.0
		}
	}
}
