{
	 "smiles": "CC(=C)CCC=C", 
	 "Tm": 144.15, 
	 "num_atms": 19, 
	 "gaussian": { 
		 "optdone": 1, 
		 "sigma_profile": "yes", 
		 "theory": "DFT", 
		 "functional": "B3LYP", 
		 "basiset": "6-31G**", 
		 "properties": { 
			 "R2extent": 1107.756, 
			 "electric_dipole_moment_norm": 0.788153912634, 
			 "electric_quadrupole_moment_norm": 1.78242409656, 
			 "total_energy": -273.93970274, 
			 "HOMO_LUMO_gap": 0.26386, 
			 "cosmo_polarized_energy": -2.61, 
			 "cosmo_cavitation_energy": 21.31, 
			 "cosmo_dispersion_energy": -14.87, 
			 "cosmo_repulsion_energy": 1.25, 
			 "cosmo_total_nonelectrostatic_energy": 7.69, 
			 "SMD_solvation_energy": 4.8 
		},
		"coords": [
			{
				"x": -0.4201406436,
				"y": -0.5627721916,
				"z": -1.1505839358,
				"element": "C" 
			},
			{
				"x": 1.039026694,
				"y": -0.212392155,
				"z": -0.9941191706,
				"element": "C" 
			},
			{
				"x": 2.0037183789,
				"y": -1.1081024216,
				"z": -1.2309212866,
				"element": "C" 
			},
			{
				"x": 1.3684845649,
				"y": 1.2207189757,
				"z": -0.6155460946,
				"element": "C" 
			},
			{
				"x": 0.5566923954,
				"y": 1.8359080958,
				"z": 0.5396362155,
				"element": "C" 
			},
			{
				"x": 0.7489445983,
				"y": 1.254932852,
				"z": 1.9176701098,
				"element": "C" 
			},
			{
				"x": 1.5616840032,
				"y": 0.2584269306,
				"z": 2.2721344755,
				"element": "C" 
			},
			{
				"x": -0.9272088742,
				"y": 0.1348914765,
				"z": -1.8301030118,
				"element": "H" 
			},
			{
				"x": -0.5474015582,
				"y": -1.5745305294,
				"z": -1.5443524817,
				"element": "H" 
			},
			{
				"x": -0.9453708638,
				"y": -0.5072489944,
				"z": -0.1893876992,
				"element": "H" 
			},
			{
				"x": 1.7762231555,
				"y": -2.1218724046,
				"z": -1.5491058458,
				"element": "H" 
			},
			{
				"x": 3.055536713,
				"y": -0.857813461,
				"z": -1.1182354605,
				"element": "H" 
			},
			{
				"x": 2.4393041845,
				"y": 1.3023058201,
				"z": -0.3972709469,
				"element": "H" 
			},
			{
				"x": 1.1870207808,
				"y": 1.8504945111,
				"z": -1.4995353025,
				"element": "H" 
			},
			{
				"x": -0.5149094512,
				"y": 1.8068763684,
				"z": 0.2947078064,
				"element": "H" 
			},
			{
				"x": 0.7967612208,
				"y": 2.9082746883,
				"z": 0.5886429673,
				"element": "H" 
			},
			{
				"x": 0.1499087468,
				"y": 1.7354816954,
				"z": 2.6931298554,
				"element": "H" 
			},
			{
				"x": 1.626649989,
				"y": -0.0674512548,
				"z": 3.3063543168,
				"element": "H" 
			},
			{
				"x": 2.1750759661,
				"y": -0.2749280015,
				"z": 1.5539854891,
				"element": "H" 
			}
		],
		 "valence_orbital": [ 
			{
				"type": "occ",
				"energy": -0.33656,
				"method": "rhf"
			},
			{
				"type": "occ",
				"energy": -0.33542,
				"method": "rhf"
			},
			{
				"type": "occ",
				"energy": -0.32546,
				"method": "rhf"
			},
			{
				"type": "occ",
				"energy": -0.24952,
				"method": "rhf"
			},
			{
				"type": "occ",
				"energy": -0.23733,
				"method": "rhf"
			},
			{
				"type": "unocc",
				"energy": 0.02653,
				"method": "rhf"
			},
			{
				"type": "unocc",
				"energy": 0.02954,
				"method": "rhf"
			},
			{
				"type": "unocc",
				"energy": 0.08929,
				"method": "rhf"
			},
			{
				"type": "unocc",
				"energy": 0.11957,
				"method": "rhf"
			},
			{
				"type": "unocc",
				"energy": 0.13208,
				"method": "rhf"
			}
		],
		"cosmo_sigma_profile": { 
			"-0.025": 0.0,
			"-0.024": 0.0,
			"-0.023": 0.0,
			"-0.022": 0.0,
			"-0.021": 0.0,
			"-0.02": 0.0,
			"-0.019": 0.0,
			"-0.018": 0.0,
			"-0.017": 0.0,
			"-0.016": 0.0,
			"-0.015": 0.0,
			"-0.014": 0.0,
			"-0.013": 0.0,
			"-0.012": 0.0,
			"-0.011": 0.0,
			"-0.01": 0.0,
			"-0.009": 0.0,
			"-0.008": 0.0,
			"-0.007": 0.0,
			"-0.006": 0.0,
			"-0.005": 0.705767991818,
			"-0.004": 8.94472582814,
			"-0.003": 25.360942478,
			"-0.002": 27.8224976955,
			"-0.001": 24.635222501,
			"0.0": 21.2029791696,
			"0.001": 15.1406678557,
			"0.002": 9.18883741952,
			"0.003": 8.11808520159,
			"0.004": 7.26319966491,
			"0.005": 6.68596225379,
			"0.006": 6.31199349495,
			"0.007": 4.08922963958,
			"0.008": 1.03119066698,
			"0.009": 0.0,
			"0.01": 0.0,
			"0.011": 0.0,
			"0.012": 0.0,
			"0.013": 0.0,
			"0.014": 0.0,
			"0.015": 0.0,
			"0.016": 0.0,
			"0.017": 0.0,
			"0.018": 0.0,
			"0.019": 0.0,
			"0.02": 0.0,
			"0.021": 0.0,
			"0.022": 0.0,
			"0.023": 0.0,
			"0.024": 0.0,
			"0.025": 0.0
		}
	}
}
