{
	 "smiles": "O=C1CCCCCN1", 
	 "Tm": 342.65, 
	 "num_atms": 19, 
	 "gaussian": { 
		 "optdone": 1, 
		 "sigma_profile": "yes", 
		 "theory": "DFT", 
		 "functional": "B3LYP", 
		 "basiset": "6-31G**", 
		 "properties": { 
			 "R2extent": 1833.511, 
			 "electric_dipole_moment_norm": 3.95634607561, 
			 "electric_quadrupole_moment_norm": 21.9319449211, 
			 "total_energy": -365.267000753, 
			 "HOMO_LUMO_gap": 0.26855, 
			 "cosmo_polarized_energy": -10.56, 
			 "cosmo_cavitation_energy": 20.32, 
			 "cosmo_dispersion_energy": -15.55, 
			 "cosmo_repulsion_energy": 1.31, 
			 "cosmo_total_nonelectrostatic_energy": 6.08, 
			 "SMD_solvation_energy": 2.97 
		},
		"coords": [
			{
				"x": -0.814864315,
				"y": -4.2159503915,
				"z": -0.0684147111,
				"element": "O" 
			},
			{
				"x": -1.1570696879,
				"y": -3.0389092577,
				"z": -0.0598475216,
				"element": "C" 
			},
			{
				"x": -1.0399851335,
				"y": -2.1525375113,
				"z": -1.2957758714,
				"element": "C" 
			},
			{
				"x": -0.0628674659,
				"y": -0.9672669329,
				"z": -1.1441348428,
				"element": "C" 
			},
			{
				"x": -0.6245231093,
				"y": 0.242718319,
				"z": -0.3827553771,
				"element": "C" 
			},
			{
				"x": -1.0185598852,
				"y": -0.0164069847,
				"z": 1.0782813573,
				"element": "C" 
			},
			{
				"x": -2.1093604725,
				"y": -1.0832738879,
				"z": 1.2599878529,
				"element": "C" 
			},
			{
				"x": -1.6518713028,
				"y": -2.4563020969,
				"z": 1.0778449501,
				"element": "N" 
			},
			{
				"x": -0.7045225191,
				"y": -2.818988978,
				"z": -2.0927312502,
				"element": "H" 
			},
			{
				"x": -2.0333278484,
				"y": -1.7763628032,
				"z": -1.5789773299,
				"element": "H" 
			},
			{
				"x": 0.2242231693,
				"y": -0.6348480506,
				"z": -2.1486346622,
				"element": "H" 
			},
			{
				"x": 0.8596817515,
				"y": -1.3195842732,
				"z": -0.6646323932,
				"element": "H" 
			},
			{
				"x": 0.1156101681,
				"y": 1.0519148283,
				"z": -0.4099892191,
				"element": "H" 
			},
			{
				"x": -1.5059136743,
				"y": 0.6189047833,
				"z": -0.9226080083,
				"element": "H" 
			},
			{
				"x": -1.3864561071,
				"y": 0.9222483671,
				"z": 1.5123200266,
				"element": "H" 
			},
			{
				"x": -0.1392296554,
				"y": -0.3132450138,
				"z": 1.6641223057,
				"element": "H" 
			},
			{
				"x": -2.9523109009,
				"y": -0.866645184,
				"z": 0.5872296345,
				"element": "H" 
			},
			{
				"x": -2.5069229718,
				"y": -1.0251555787,
				"z": 2.2772199016,
				"element": "H" 
			},
			{
				"x": -1.69113004,
				"y": -3.0876093533,
				"z": 1.8661951582,
				"element": "H" 
			}
		],
		 "valence_orbital": [ 
			{
				"type": "occ",
				"energy": -0.33579,
				"method": "rhf"
			},
			{
				"type": "occ",
				"energy": -0.32802,
				"method": "rhf"
			},
			{
				"type": "occ",
				"energy": -0.32568,
				"method": "rhf"
			},
			{
				"type": "occ",
				"energy": -0.2418,
				"method": "rhf"
			},
			{
				"type": "occ",
				"energy": -0.2342,
				"method": "rhf"
			},
			{
				"type": "unocc",
				"energy": 0.03435,
				"method": "rhf"
			},
			{
				"type": "unocc",
				"energy": 0.07013,
				"method": "rhf"
			},
			{
				"type": "unocc",
				"energy": 0.09741,
				"method": "rhf"
			},
			{
				"type": "unocc",
				"energy": 0.10893,
				"method": "rhf"
			},
			{
				"type": "unocc",
				"energy": 0.1325,
				"method": "rhf"
			}
		],
		"cosmo_sigma_profile": { 
			"-0.025": 0.0,
			"-0.024": 0.0,
			"-0.023": 0.0,
			"-0.022": 0.0,
			"-0.021": 0.0,
			"-0.02": 0.0,
			"-0.019": 0.0,
			"-0.018": 0.0,
			"-0.017": 0.0,
			"-0.016": 0.0,
			"-0.015": 0.0,
			"-0.014": 0.0,
			"-0.013": 0.732099605633,
			"-0.012": 1.13787659329,
			"-0.011": 1.0423707276,
			"-0.01": 1.31849043965,
			"-0.009": 0.976434043401,
			"-0.008": 0.849890087712,
			"-0.007": 1.47408621429,
			"-0.006": 1.79123811455,
			"-0.005": 5.80211440237,
			"-0.004": 11.4012264638,
			"-0.003": 21.025246141,
			"-0.002": 27.157283492,
			"-0.001": 25.9194484761,
			"0.0": 17.9743199534,
			"0.001": 6.63250335631,
			"0.002": 3.22585757463,
			"0.003": 3.10699527123,
			"0.004": 2.2299753592,
			"0.005": 0.988599531615,
			"0.006": 1.57828123465,
			"0.007": 1.30151288706,
			"0.008": 1.23856147515,
			"0.009": 1.26396837825,
			"0.01": 0.848642495302,
			"0.011": 1.78673344579,
			"0.012": 1.57738901282,
			"0.013": 1.90458116087,
			"0.014": 5.35587816423,
			"0.015": 4.55296026819,
			"0.016": 0.702405774015,
			"0.017": 0.0,
			"0.018": 0.0,
			"0.019": 0.0,
			"0.02": 0.0,
			"0.021": 0.0,
			"0.022": 0.0,
			"0.023": 0.0,
			"0.024": 0.0,
			"0.025": 0.0
		}
	}
}
