{
	 "smiles": "CCOC(=O)C(C#N)=C(N)C1=CC2=C(OC1=O)C(OC)=CC(Br)=C2", 
	 "Tm": 548.15, 
	 "num_atms": 37, 
	 "gaussian": { 
		 "optdone": 1, 
		 "sigma_profile": "yes", 
		 "theory": "DFT", 
		 "functional": "B3LYP", 
		 "basiset": "6-31G**", 
		 "properties": { 
			 "R2extent": 14942.1227, 
			 "electric_dipole_moment_norm": 3.36828655699, 
			 "electric_quadrupole_moment_norm": 31.4358499634, 
			 "total_energy": -3674.54098937, 
			 "HOMO_LUMO_gap": 0.14835, 
			 "cosmo_polarized_energy": -26.03, 
			 "cosmo_cavitation_energy": 46.22, 
			 "cosmo_dispersion_energy": -31.66, 
			 "cosmo_repulsion_energy": 2.47, 
			 "cosmo_total_nonelectrostatic_energy": 17.04, 
			 "SMD_solvation_energy": 10.52 
		},
		"coords": [
			{
				"x": 2.8011556069,
				"y": -2.6708722057,
				"z": 3.640862528,
				"element": "C" 
			},
			{
				"x": 2.3062215128,
				"y": -1.6388517066,
				"z": 2.6457758602,
				"element": "C" 
			},
			{
				"x": 0.8686373171,
				"y": -1.7715340469,
				"z": 2.5670794224,
				"element": "O" 
			},
			{
				"x": 0.2411578891,
				"y": -0.9246413462,
				"z": 1.7279233456,
				"element": "C" 
			},
			{
				"x": 0.8214096412,
				"y": -0.0927523764,
				"z": 1.0497456828,
				"element": "O" 
			},
			{
				"x": -1.215133445,
				"y": -1.1544424759,
				"z": 1.7353610382,
				"element": "C" 
			},
			{
				"x": -1.7693333368,
				"y": -2.2340597471,
				"z": 2.4799016797,
				"element": "C" 
			},
			{
				"x": -2.3244036394,
				"y": -3.0925307354,
				"z": 3.0412302746,
				"element": "N" 
			},
			{
				"x": -2.0844134815,
				"y": -0.3716320018,
				"z": 0.9998728591,
				"element": "C" 
			},
			{
				"x": -3.4026502958,
				"y": -0.6741897136,
				"z": 0.8902027534,
				"element": "N" 
			},
			{
				"x": -1.6513257835,
				"y": 0.8171968675,
				"z": 0.2192515878,
				"element": "C" 
			},
			{
				"x": -1.8188431095,
				"y": 0.8747491716,
				"z": -1.1256056008,
				"element": "C" 
			},
			{
				"x": -1.3733627318,
				"y": 2.0106552665,
				"z": -1.8906787046,
				"element": "C" 
			},
			{
				"x": -0.7622314679,
				"y": 3.0606453675,
				"z": -1.1827083591,
				"element": "C" 
			},
			{
				"x": -0.6689083119,
				"y": 3.0304479509,
				"z": 0.1787604364,
				"element": "O" 
			},
			{
				"x": -1.1078112509,
				"y": 1.9688310556,
				"z": 0.9596838319,
				"element": "C" 
			},
			{
				"x": -1.0561166721,
				"y": 2.0898362605,
				"z": 2.1573901868,
				"element": "O" 
			},
			{
				"x": -0.2587621834,
				"y": 4.1897150642,
				"z": -1.8605894386,
				"element": "C" 
			},
			{
				"x": 0.3182826605,
				"y": 5.2622553576,
				"z": -1.2638975263,
				"element": "O" 
			},
			{
				"x": 1.2543442723,
				"y": 5.0678425856,
				"z": -0.1895166477,
				"element": "C" 
			},
			{
				"x": -0.418442807,
				"y": 4.2526000618,
				"z": -3.2479862296,
				"element": "C" 
			},
			{
				"x": -1.0498802042,
				"y": 3.2181700194,
				"z": -3.9424847791,
				"element": "C" 
			},
			{
				"x": -1.2446539327,
				"y": 3.3571660071,
				"z": -5.835869158,
				"element": "Br" 
			},
			{
				"x": -1.5200637019,
				"y": 2.0920519141,
				"z": -3.2871527306,
				"element": "C" 
			},
			{
				"x": 3.8898841802,
				"y": -2.6046805972,
				"z": 3.7315834163,
				"element": "H" 
			},
			{
				"x": 2.5419934072,
				"y": -3.682510712,
				"z": 3.3163052515,
				"element": "H" 
			},
			{
				"x": 2.3611142823,
				"y": -2.503354248,
				"z": 4.627787691,
				"element": "H" 
			},
			{
				"x": 2.5479790743,
				"y": -0.6172056812,
				"z": 2.9550191522,
				"element": "H" 
			},
			{
				"x": 2.7296265641,
				"y": -1.7910157617,
				"z": 1.6477435416,
				"element": "H" 
			},
			{
				"x": -3.7795066903,
				"y": -1.4350650695,
				"z": 1.4416978025,
				"element": "H" 
			},
			{
				"x": -4.0443711472,
				"y": 0.0368001057,
				"z": 0.5771681926,
				"element": "H" 
			},
			{
				"x": -2.255756993,
				"y": 0.0320092515,
				"z": -1.6552360988,
				"element": "H" 
			},
			{
				"x": 1.9362735214,
				"y": 4.2398491475,
				"z": -0.4100441214,
				"element": "H" 
			},
			{
				"x": 1.8206999285,
				"y": 5.9988231173,
				"z": -0.1313962148,
				"element": "H" 
			},
			{
				"x": 0.7459417635,
				"y": 4.8778549131,
				"z": 0.7566752599,
				"element": "H" 
			},
			{
				"x": -0.0381866865,
				"y": 5.1252036381,
				"z": -3.7647893008,
				"element": "H" 
			},
			{
				"x": -1.9941637488,
				"y": 1.2842353018,
				"z": -3.8322668842,
				"element": "H" 
			}
		],
		 "valence_orbital": [ 
			{
				"type": "occ",
				"energy": -0.2893,
				"method": "rhf"
			},
			{
				"type": "occ",
				"energy": -0.27594,
				"method": "rhf"
			},
			{
				"type": "occ",
				"energy": -0.25331,
				"method": "rhf"
			},
			{
				"type": "occ",
				"energy": -0.2409,
				"method": "rhf"
			},
			{
				"type": "occ",
				"energy": -0.23729,
				"method": "rhf"
			},
			{
				"type": "unocc",
				"energy": -0.08894,
				"method": "rhf"
			},
			{
				"type": "unocc",
				"energy": -0.04888,
				"method": "rhf"
			},
			{
				"type": "unocc",
				"energy": -0.02668,
				"method": "rhf"
			},
			{
				"type": "unocc",
				"energy": -0.01067,
				"method": "rhf"
			},
			{
				"type": "unocc",
				"energy": -0.00708,
				"method": "rhf"
			}
		],
		"cosmo_sigma_profile": { 
			"-0.025": 0.0,
			"-0.024": 0.0,
			"-0.023": 0.0,
			"-0.022": 0.0,
			"-0.021": 0.0,
			"-0.02": 0.0,
			"-0.019": 0.0,
			"-0.018": 0.0,
			"-0.017": 0.0795785526243,
			"-0.016": 1.09126462531,
			"-0.015": 1.77926271909,
			"-0.014": 1.97717335213,
			"-0.013": 2.56433988483,
			"-0.012": 2.4812543542,
			"-0.011": 2.46966337159,
			"-0.01": 4.20548111283,
			"-0.009": 4.91027339473,
			"-0.008": 6.77661144278,
			"-0.007": 7.72563058651,
			"-0.006": 13.6342873443,
			"-0.005": 19.6507390968,
			"-0.004": 28.6599580776,
			"-0.003": 27.8791577406,
			"-0.002": 29.9778860684,
			"-0.001": 30.9520082824,
			"0.0": 30.5208090786,
			"0.001": 28.5212401704,
			"0.002": 17.1126979892,
			"0.003": 18.0949101541,
			"0.004": 17.9018522515,
			"0.005": 10.2518007045,
			"0.006": 8.40085489396,
			"0.007": 9.09127073539,
			"0.008": 9.92349360585,
			"0.009": 8.47808818848,
			"0.01": 8.88399823502,
			"0.011": 9.62196302108,
			"0.012": 6.60101673042,
			"0.013": 2.7353526797,
			"0.014": 0.457594366101,
			"0.015": 0.0,
			"0.016": 0.0,
			"0.017": 0.0,
			"0.018": 0.0,
			"0.019": 0.0,
			"0.02": 0.0,
			"0.021": 0.0,
			"0.022": 0.0,
			"0.023": 0.0,
			"0.024": 0.0,
			"0.025": 0.0
		}
	}
}
