{
	 "smiles": "CC1=C(C)C(O)=C(C=C1)C(O)=O", 
	 "Tm": 471.15, 
	 "num_atms": 22, 
	 "gaussian": { 
		 "optdone": 1, 
		 "sigma_profile": "yes", 
		 "theory": "DFT", 
		 "functional": "B3LYP", 
		 "basiset": "6-31G**", 
		 "properties": { 
			 "R2extent": 3718.0106, 
			 "electric_dipole_moment_norm": 7.36764657879, 
			 "electric_quadrupole_moment_norm": 33.5369294347, 
			 "total_energy": -574.680258844, 
			 "HOMO_LUMO_gap": 0.20093, 
			 "cosmo_polarized_energy": -16.57, 
			 "cosmo_cavitation_energy": 25.04, 
			 "cosmo_dispersion_energy": -18.91, 
			 "cosmo_repulsion_energy": 1.48, 
			 "cosmo_total_nonelectrostatic_energy": 7.62, 
			 "SMD_solvation_energy": 5.64 
		},
		"coords": [
			{
				"x": 1.0491279063,
				"y": -1.0997300347,
				"z": 0.7596333829,
				"element": "C" 
			},
			{
				"x": 0.1300274552,
				"y": 0.1003619387,
				"z": 0.7321424856,
				"element": "C" 
			},
			{
				"x": -1.1449721562,
				"y": 0.0640184957,
				"z": 1.327937627,
				"element": "C" 
			},
			{
				"x": -1.6833407229,
				"y": -1.1636661044,
				"z": 2.0316271052,
				"element": "C" 
			},
			{
				"x": -1.9517608287,
				"y": 1.2131033392,
				"z": 1.2680285643,
				"element": "C" 
			},
			{
				"x": -3.2051230868,
				"y": 1.2068892585,
				"z": 1.8430351866,
				"element": "O" 
			},
			{
				"x": -1.5331117163,
				"y": 2.3970189837,
				"z": 0.6355591372,
				"element": "C" 
			},
			{
				"x": -0.2602171373,
				"y": 2.399920893,
				"z": 0.0533539836,
				"element": "C" 
			},
			{
				"x": 0.5540935494,
				"y": 1.2778536128,
				"z": 0.0996498288,
				"element": "C" 
			},
			{
				"x": -2.3306845835,
				"y": 3.6707831994,
				"z": 0.5246983085,
				"element": "C" 
			},
			{
				"x": -3.5614140393,
				"y": 3.7016882816,
				"z": 1.0733610941,
				"element": "O" 
			},
			{
				"x": -1.8891728561,
				"y": 4.6485116984,
				"z": -0.0402316864,
				"element": "O" 
			},
			{
				"x": 1.296603326,
				"y": -1.4020037796,
				"z": 1.7838105879,
				"element": "H" 
			},
			{
				"x": 0.6015296507,
				"y": -1.9692650029,
				"z": 0.264566155,
				"element": "H" 
			},
			{
				"x": 1.9875537738,
				"y": -0.8763585469,
				"z": 0.2468864719,
				"element": "H" 
			},
			{
				"x": -1.9047018633,
				"y": -0.9666689104,
				"z": 3.0901540344,
				"element": "H" 
			},
			{
				"x": -0.9708663386,
				"y": -1.9877310083,
				"z": 2.012710965,
				"element": "H" 
			},
			{
				"x": -2.6040876868,
				"y": -1.5366453934,
				"z": 1.5609787992,
				"element": "H" 
			},
			{
				"x": -3.395181292,
				"y": 0.3512676159,
				"z": 2.2458817477,
				"element": "H" 
			},
			{
				"x": 0.0605948655,
				"y": 3.3139862555,
				"z": -0.4337720703,
				"element": "H" 
			},
			{
				"x": 1.5372862308,
				"y": 1.3074809718,
				"z": -0.360485762,
				"element": "H" 
			},
			{
				"x": -3.76748245,
				"y": 2.8444842364,
				"z": 1.4865740535,
				"element": "H" 
			}
		],
		 "valence_orbital": [ 
			{
				"type": "occ",
				"energy": -0.33927,
				"method": "rhf"
			},
			{
				"type": "occ",
				"energy": -0.29426,
				"method": "rhf"
			},
			{
				"type": "occ",
				"energy": -0.2576,
				"method": "rhf"
			},
			{
				"type": "occ",
				"energy": -0.25245,
				"method": "rhf"
			},
			{
				"type": "occ",
				"energy": -0.24064,
				"method": "rhf"
			},
			{
				"type": "unocc",
				"energy": -0.03971,
				"method": "rhf"
			},
			{
				"type": "unocc",
				"energy": -0.00646,
				"method": "rhf"
			},
			{
				"type": "unocc",
				"energy": 0.0397,
				"method": "rhf"
			},
			{
				"type": "unocc",
				"energy": 0.06113,
				"method": "rhf"
			},
			{
				"type": "unocc",
				"energy": 0.09541,
				"method": "rhf"
			}
		],
		"cosmo_sigma_profile": { 
			"-0.025": 0.0,
			"-0.024": 0.0,
			"-0.023": 0.0,
			"-0.022": 0.0,
			"-0.021": 0.0,
			"-0.02": 0.0,
			"-0.019": 0.0,
			"-0.018": 0.233322189936,
			"-0.017": 0.511634414497,
			"-0.016": 0.705364150408,
			"-0.015": 1.19158715805,
			"-0.014": 0.854163677367,
			"-0.013": 0.978645331038,
			"-0.012": 1.24829781813,
			"-0.011": 1.43170134937,
			"-0.01": 0.873954429747,
			"-0.009": 1.33706076975,
			"-0.008": 2.94521990541,
			"-0.007": 2.70913423707,
			"-0.006": 4.1432200357,
			"-0.005": 13.5525467076,
			"-0.004": 19.2036705197,
			"-0.003": 16.9663733501,
			"-0.002": 17.8447341146,
			"-0.001": 19.3437153487,
			"0.0": 14.5322061976,
			"0.001": 10.6035727439,
			"0.002": 12.8597512833,
			"0.003": 11.4381015897,
			"0.004": 9.36575118511,
			"0.005": 4.31625091284,
			"0.006": 2.60632906825,
			"0.007": 2.78905586919,
			"0.008": 2.28662442946,
			"0.009": 2.34088324722,
			"0.01": 3.96870087722,
			"0.011": 4.36473023522,
			"0.012": 5.92876499649,
			"0.013": 3.91245208246,
			"0.014": 1.27395008143,
			"0.015": 0.0251225993708,
			"0.016": 0.0,
			"0.017": 0.0,
			"0.018": 0.0,
			"0.019": 0.0,
			"0.02": 0.0,
			"0.021": 0.0,
			"0.022": 0.0,
			"0.023": 0.0,
			"0.024": 0.0,
			"0.025": 0.0
		}
	}
}
