{
	 "smiles": "CCCCCCC(C1=CC=CC=C1)C1=CC=CC=C1", 
	 "Tm": 287.15, 
	 "num_atms": 43, 
	 "gaussian": { 
		 "optdone": 1, 
		 "sigma_profile": "yes", 
		 "theory": "DFT", 
		 "functional": "B3LYP", 
		 "basiset": "6-31G**", 
		 "properties": { 
			 "R2extent": 6420.7026, 
			 "electric_dipole_moment_norm": 0.0736795086846, 
			 "electric_quadrupole_moment_norm": 4.88920235008, 
			 "total_energy": -738.508395349, 
			 "HOMO_LUMO_gap": 0.22253, 
			 "cosmo_polarized_energy": -5.91, 
			 "cosmo_cavitation_energy": 43.37, 
			 "cosmo_dispersion_energy": -28.8, 
			 "cosmo_repulsion_energy": 2.27, 
			 "cosmo_total_nonelectrostatic_energy": 16.85, 
			 "SMD_solvation_energy": 6.52 
		},
		"coords": [
			{
				"x": -4.3645109085,
				"y": -2.6737113776,
				"z": -0.6119319564,
				"element": "C" 
			},
			{
				"x": -2.8463017366,
				"y": -2.7013848932,
				"z": -0.8262498419,
				"element": "C" 
			},
			{
				"x": -2.0182650675,
				"y": -2.2350769732,
				"z": 0.383527011,
				"element": "C" 
			},
			{
				"x": -2.2060908553,
				"y": -0.75459934,
				"z": 0.7454506897,
				"element": "C" 
			},
			{
				"x": -1.37833783,
				"y": -0.2861774591,
				"z": 1.957599385,
				"element": "C" 
			},
			{
				"x": 0.1591636643,
				"y": -0.3136839608,
				"z": 1.8379755819,
				"element": "C" 
			},
			{
				"x": 0.7925830698,
				"y": 0.8171464878,
				"z": 0.9881560447,
				"element": "C" 
			},
			{
				"x": 2.2829761643,
				"y": 1.0188253911,
				"z": 1.2820471454,
				"element": "C" 
			},
			{
				"x": 3.1284605743,
				"y": -0.0283404829,
				"z": 1.6725808859,
				"element": "C" 
			},
			{
				"x": 4.4884732151,
				"y": 0.1943068256,
				"z": 1.9030543725,
				"element": "C" 
			},
			{
				"x": 5.0294772178,
				"y": 1.4703355334,
				"z": 1.7494880598,
				"element": "C" 
			},
			{
				"x": 4.1981932876,
				"y": 2.5239855976,
				"z": 1.3627180201,
				"element": "C" 
			},
			{
				"x": 2.8424547883,
				"y": 2.2964464197,
				"z": 1.1319033721,
				"element": "C" 
			},
			{
				"x": 0.5727748286,
				"y": 0.663304119,
				"z": -0.5185880777,
				"element": "C" 
			},
			{
				"x": -0.1191849781,
				"y": 1.6438341569,
				"z": -1.2412844827,
				"element": "C" 
			},
			{
				"x": -0.3192039346,
				"y": 1.5194797934,
				"z": -2.6182223607,
				"element": "C" 
			},
			{
				"x": 0.1755961186,
				"y": 0.4072942988,
				"z": -3.2991719848,
				"element": "C" 
			},
			{
				"x": 0.8771382535,
				"y": -0.5731760199,
				"z": -2.5928655386,
				"element": "C" 
			},
			{
				"x": 1.0767376076,
				"y": -0.4427340052,
				"z": -1.2188694235,
				"element": "C" 
			},
			{
				"x": -4.892558314,
				"y": -3.0699453745,
				"z": -1.4857869041,
				"element": "H" 
			},
			{
				"x": -4.7359710592,
				"y": -1.6585259224,
				"z": -0.4390442286,
				"element": "H" 
			},
			{
				"x": -4.6520481085,
				"y": -3.2829851213,
				"z": 0.2532898623,
				"element": "H" 
			},
			{
				"x": -2.544179413,
				"y": -3.7251874743,
				"z": -1.0825558903,
				"element": "H" 
			},
			{
				"x": -2.5862871015,
				"y": -2.0827423792,
				"z": -1.6957870237,
				"element": "H" 
			},
			{
				"x": -2.267324771,
				"y": -2.8575600226,
				"z": 1.2560999672,
				"element": "H" 
			},
			{
				"x": -0.9602777209,
				"y": -2.4241873447,
				"z": 0.1644389066,
				"element": "H" 
			},
			{
				"x": -1.9785049334,
				"y": -0.1383849544,
				"z": -0.1311679755,
				"element": "H" 
			},
			{
				"x": -3.2623045633,
				"y": -0.5719603031,
				"z": 0.9808213762,
				"element": "H" 
			},
			{
				"x": -1.6868193462,
				"y": 0.7340565541,
				"z": 2.2251850508,
				"element": "H" 
			},
			{
				"x": -1.6532114877,
				"y": -0.9124117089,
				"z": 2.8176688206,
				"element": "H" 
			},
			{
				"x": 0.5713174291,
				"y": -0.2240759674,
				"z": 2.8502844283,
				"element": "H" 
			},
			{
				"x": 0.4863154517,
				"y": -1.2922541598,
				"z": 1.4677941943,
				"element": "H" 
			},
			{
				"x": 0.2923468754,
				"y": 1.748924702,
				"z": 1.2837603882,
				"element": "H" 
			},
			{
				"x": 2.7288139102,
				"y": -1.0285139138,
				"z": 1.8083122049,
				"element": "H" 
			},
			{
				"x": 5.1234785309,
				"y": -0.6334780633,
				"z": 2.2069901303,
				"element": "H" 
			},
			{
				"x": 6.0861082376,
				"y": 1.6438473557,
				"z": 1.931969511,
				"element": "H" 
			},
			{
				"x": 4.60521104,
				"y": 3.5244022425,
				"z": 1.2435883664,
				"element": "H" 
			},
			{
				"x": 2.2039413586,
				"y": 3.1224344844,
				"z": 0.8273497666,
				"element": "H" 
			},
			{
				"x": -0.5133262924,
				"y": 2.512008389,
				"z": -0.7181911974,
				"element": "H" 
			},
			{
				"x": -0.8622168851,
				"y": 2.2918630074,
				"z": -3.156012419,
				"element": "H" 
			},
			{
				"x": 0.0215905618,
				"y": 0.3062588786,
				"z": -4.3696269855,
				"element": "H" 
			},
			{
				"x": 1.2748763986,
				"y": -1.4393288996,
				"z": -3.1146349226,
				"element": "H" 
			},
			{
				"x": 1.641496723,
				"y": -1.2038281157,
				"z": -0.6874623288,
				"element": "H" 
			}
		],
		 "valence_orbital": [ 
			{
				"type": "occ",
				"energy": -0.29909,
				"method": "rhf"
			},
			{
				"type": "occ",
				"energy": -0.24817,
				"method": "rhf"
			},
			{
				"type": "occ",
				"energy": -0.24554,
				"method": "rhf"
			},
			{
				"type": "occ",
				"energy": -0.24355,
				"method": "rhf"
			},
			{
				"type": "occ",
				"energy": -0.22924,
				"method": "rhf"
			},
			{
				"type": "unocc",
				"energy": -0.00671,
				"method": "rhf"
			},
			{
				"type": "unocc",
				"energy": -0.00363,
				"method": "rhf"
			},
			{
				"type": "unocc",
				"energy": 0.00591,
				"method": "rhf"
			},
			{
				"type": "unocc",
				"energy": 0.01543,
				"method": "rhf"
			},
			{
				"type": "unocc",
				"energy": 0.08558,
				"method": "rhf"
			}
		],
		"cosmo_sigma_profile": { 
			"-0.025": 0.0,
			"-0.024": 0.0,
			"-0.023": 0.0,
			"-0.022": 0.0,
			"-0.021": 0.0,
			"-0.02": 0.0,
			"-0.019": 0.0,
			"-0.018": 0.0,
			"-0.017": 0.0,
			"-0.016": 0.0,
			"-0.015": 0.0,
			"-0.014": 0.0,
			"-0.013": 0.0,
			"-0.012": 0.0,
			"-0.011": 0.0,
			"-0.01": 0.0,
			"-0.009": 0.0,
			"-0.008": 0.0,
			"-0.007": 0.00941681060494,
			"-0.006": 3.14935864183,
			"-0.005": 19.9845327598,
			"-0.004": 24.8978040453,
			"-0.003": 29.1668215114,
			"-0.002": 34.3742871029,
			"-0.001": 41.4866296499,
			"0.0": 45.2665066757,
			"0.001": 45.1691268424,
			"0.002": 28.7131519772,
			"0.003": 15.1950513623,
			"0.004": 17.1057603052,
			"0.005": 16.0123898548,
			"0.006": 15.1307400079,
			"0.007": 4.2721675716,
			"0.008": 0.0,
			"0.009": 0.0,
			"0.01": 0.0,
			"0.011": 0.0,
			"0.012": 0.0,
			"0.013": 0.0,
			"0.014": 0.0,
			"0.015": 0.0,
			"0.016": 0.0,
			"0.017": 0.0,
			"0.018": 0.0,
			"0.019": 0.0,
			"0.02": 0.0,
			"0.021": 0.0,
			"0.022": 0.0,
			"0.023": 0.0,
			"0.024": 0.0,
			"0.025": 0.0
		}
	}
}
