{
	 "smiles": "OC(=O)C1=CC=C(C=C1)C1=NN=CO1", 
	 "Tm": 535.15, 
	 "num_atms": 20, 
	 "gaussian": { 
		 "optdone": 1, 
		 "sigma_profile": "yes", 
		 "theory": "DFT", 
		 "functional": "B3LYP", 
		 "basiset": "6-31G**", 
		 "properties": { 
			 "R2extent": 3935.7305, 
			 "electric_dipole_moment_norm": 5.37782877191, 
			 "electric_quadrupole_moment_norm": 20.4182391014, 
			 "total_energy": -681.720475211, 
			 "HOMO_LUMO_gap": 0.17796, 
			 "cosmo_polarized_energy": -20.33, 
			 "cosmo_cavitation_energy": 26.07, 
			 "cosmo_dispersion_energy": -19.35, 
			 "cosmo_repulsion_energy": 1.48, 
			 "cosmo_total_nonelectrostatic_energy": 8.2, 
			 "SMD_solvation_energy": 4.93 
		},
		"coords": [
			{
				"x": 4.568597913,
				"y": -2.1517404131,
				"z": -0.2050244309,
				"element": "O" 
			},
			{
				"x": 3.2661774023,
				"y": -2.4187503969,
				"z": 0.078989974,
				"element": "C" 
			},
			{
				"x": 2.9230786653,
				"y": -3.54492476,
				"z": 0.349097614,
				"element": "O" 
			},
			{
				"x": 2.3130136826,
				"y": -1.2600924904,
				"z": 0.038130429,
				"element": "C" 
			},
			{
				"x": 0.9470388684,
				"y": -1.5456115633,
				"z": -0.1080539395,
				"element": "C" 
			},
			{
				"x": 0.0128482757,
				"y": -0.5204331984,
				"z": -0.1481891389,
				"element": "C" 
			},
			{
				"x": 0.4309396135,
				"y": 0.816005603,
				"z": -0.0218066916,
				"element": "C" 
			},
			{
				"x": 1.7919529875,
				"y": 1.1066432533,
				"z": 0.1498293913,
				"element": "C" 
			},
			{
				"x": 2.7237641013,
				"y": 0.0729432472,
				"z": 0.1775408664,
				"element": "C" 
			},
			{
				"x": -0.5662929163,
				"y": 1.8792802729,
				"z": -0.0640968057,
				"element": "C" 
			},
			{
				"x": -1.8539602492,
				"y": 1.774063134,
				"z": -0.2194571562,
				"element": "N" 
			},
			{
				"x": -2.3670759857,
				"y": 3.0701144519,
				"z": -0.19060593,
				"element": "N" 
			},
			{
				"x": -1.3510303259,
				"y": 3.8497693608,
				"z": -0.021149017,
				"element": "C" 
			},
			{
				"x": -0.1711164935,
				"y": 3.182424221,
				"z": 0.0689011354,
				"element": "O" 
			},
			{
				"x": 4.6591502699,
				"y": -1.2584593272,
				"z": -0.5643081804,
				"element": "H" 
			},
			{
				"x": 0.6421249088,
				"y": -2.5830586603,
				"z": -0.189513308,
				"element": "H" 
			},
			{
				"x": -1.043335188,
				"y": -0.7328044477,
				"z": -0.2725855983,
				"element": "H" 
			},
			{
				"x": 2.1145882973,
				"y": 2.1352204362,
				"z": 0.2675203154,
				"element": "H" 
			},
			{
				"x": 3.768618165,
				"y": 0.3188821468,
				"z": 0.3493439583,
				"element": "H" 
			},
			{
				"x": -1.332281992,
				"y": 4.9260291303,
				"z": 0.0540365127,
				"element": "H" 
			}
		],
		 "valence_orbital": [ 
			{
				"type": "occ",
				"energy": -0.31986,
				"method": "rhf"
			},
			{
				"type": "occ",
				"energy": -0.2931,
				"method": "rhf"
			},
			{
				"type": "occ",
				"energy": -0.28717,
				"method": "rhf"
			},
			{
				"type": "occ",
				"energy": -0.28201,
				"method": "rhf"
			},
			{
				"type": "occ",
				"energy": -0.26236,
				"method": "rhf"
			},
			{
				"type": "unocc",
				"energy": -0.0844,
				"method": "rhf"
			},
			{
				"type": "unocc",
				"energy": -0.0368,
				"method": "rhf"
			},
			{
				"type": "unocc",
				"energy": -0.01372,
				"method": "rhf"
			},
			{
				"type": "unocc",
				"energy": 0.0107,
				"method": "rhf"
			},
			{
				"type": "unocc",
				"energy": 0.05083,
				"method": "rhf"
			}
		],
		"cosmo_sigma_profile": { 
			"-0.025": 0.0,
			"-0.024": 0.0,
			"-0.023": 0.0,
			"-0.022": 0.0,
			"-0.021": 0.0,
			"-0.02": 0.0,
			"-0.019": 0.540562930218,
			"-0.018": 1.02753954157,
			"-0.017": 0.862954911202,
			"-0.016": 1.24252776136,
			"-0.015": 0.89546538046,
			"-0.014": 0.95468894139,
			"-0.013": 2.25258337296,
			"-0.012": 2.76059954772,
			"-0.011": 3.91267237901,
			"-0.01": 2.31852007349,
			"-0.009": 2.72434140037,
			"-0.008": 4.57050235376,
			"-0.007": 8.0513691745,
			"-0.006": 7.48674602021,
			"-0.005": 10.5354520703,
			"-0.004": 13.5730021138,
			"-0.003": 13.9101445207,
			"-0.002": 12.9279040878,
			"-0.001": 14.304975395,
			"0.0": 12.0913486104,
			"0.001": 19.9583596643,
			"0.002": 12.7841363326,
			"0.003": 5.78939914986,
			"0.004": 3.89049848811,
			"0.005": 3.96172938188,
			"0.006": 4.55381956199,
			"0.007": 4.62405089376,
			"0.008": 4.52572327828,
			"0.009": 5.74679469324,
			"0.01": 8.35137851217,
			"0.011": 8.88855277377,
			"0.012": 6.32647580825,
			"0.013": 3.24960715315,
			"0.014": 1.29214495834,
			"0.015": 0.178098907133,
			"0.016": 0.0,
			"0.017": 0.0,
			"0.018": 0.0,
			"0.019": 0.0,
			"0.02": 0.0,
			"0.021": 0.0,
			"0.022": 0.0,
			"0.023": 0.0,
			"0.024": 0.0,
			"0.025": 0.0
		}
	}
}
