{
	 "smiles": "CC(C)(C)N1N=CC(C(O)=O)=C1C(F)(F)F", 
	 "Tm": 384.15, 
	 "num_atms": 27, 
	 "gaussian": { 
		 "optdone": 1, 
		 "sigma_profile": "yes", 
		 "theory": "DFT", 
		 "functional": "B3LYP", 
		 "basiset": "6-31G**", 
		 "properties": { 
			 "R2extent": 3480.3589, 
			 "electric_dipole_moment_norm": 5.77184935181, 
			 "electric_quadrupole_moment_norm": 12.8517267388, 
			 "total_energy": -909.052667167, 
			 "HOMO_LUMO_gap": 0.22029, 
			 "cosmo_polarized_energy": -12.46, 
			 "cosmo_cavitation_energy": 30.21, 
			 "cosmo_dispersion_energy": -21.48, 
			 "cosmo_repulsion_energy": 1.58, 
			 "cosmo_total_nonelectrostatic_energy": 10.31, 
			 "SMD_solvation_energy": 6.87 
		},
		"coords": [
			{
				"x": -2.5964573633,
				"y": 0.4863687905,
				"z": 0.7231643483,
				"element": "C" 
			},
			{
				"x": -2.2416568662,
				"y": 0.3014322407,
				"z": -0.7631703687,
				"element": "C" 
			},
			{
				"x": -2.9519289582,
				"y": 1.4113471638,
				"z": -1.5604995244,
				"element": "C" 
			},
			{
				"x": -2.6844010942,
				"y": -1.0725004474,
				"z": -1.2988560662,
				"element": "C" 
			},
			{
				"x": -0.7505566804,
				"y": 0.4499573202,
				"z": -0.9931854856,
				"element": "N" 
			},
			{
				"x": -0.3835563099,
				"y": 1.1205495281,
				"z": -2.1062602488,
				"element": "N" 
			},
			{
				"x": 0.9357132836,
				"y": 1.0800751295,
				"z": -2.1511682636,
				"element": "C" 
			},
			{
				"x": 1.4847148305,
				"y": 0.3746139252,
				"z": -1.0606187917,
				"element": "C" 
			},
			{
				"x": 2.9773486562,
				"y": 0.2939984641,
				"z": -0.9521684864,
				"element": "C" 
			},
			{
				"x": 3.5605353395,
				"y": -0.0960573808,
				"z": 0.1979287047,
				"element": "O" 
			},
			{
				"x": 3.6646920821,
				"y": 0.6360074195,
				"z": -1.888810685,
				"element": "O" 
			},
			{
				"x": 0.3555982255,
				"y": -0.041310356,
				"z": -0.3360576064,
				"element": "C" 
			},
			{
				"x": 0.3006147036,
				"y": -0.8456348953,
				"z": 0.926283949,
				"element": "C" 
			},
			{
				"x": -0.6342782651,
				"y": -1.8173133975,
				"z": 0.9094496633,
				"element": "F" 
			},
			{
				"x": 0.0781203187,
				"y": -0.0890844445,
				"z": 2.0205708172,
				"element": "F" 
			},
			{
				"x": 1.4848802629,
				"y": -1.4869950452,
				"z": 1.1412987834,
				"element": "F" 
			},
			{
				"x": -3.6838620849,
				"y": 0.5662248849,
				"z": 0.8040041201,
				"element": "H" 
			},
			{
				"x": -2.2877047421,
				"y": -0.3459418075,
				"z": 1.3514549725,
				"element": "H" 
			},
			{
				"x": -2.1630047777,
				"y": 1.4097836372,
				"z": 1.1170829877,
				"element": "H" 
			},
			{
				"x": -4.0259175566,
				"y": 1.3218405419,
				"z": -1.3731256313,
				"element": "H" 
			},
			{
				"x": -2.6252387797,
				"y": 2.4034461583,
				"z": -1.239001181,
				"element": "H" 
			},
			{
				"x": -2.771476544,
				"y": 1.3256897687,
				"z": -2.6309201024,
				"element": "H" 
			},
			{
				"x": -2.2022077402,
				"y": -1.892263274,
				"z": -0.7657551398,
				"element": "H" 
			},
			{
				"x": -3.7673231222,
				"y": -1.1776301402,
				"z": -1.1816990269,
				"element": "H" 
			},
			{
				"x": -2.4459181204,
				"y": -1.1569309479,
				"z": -2.3628622271,
				"element": "H" 
			},
			{
				"x": 1.486999211,
				"y": 1.5570706471,
				"z": -2.9479587117,
				"element": "H" 
			},
			{
				"x": 2.9083720916,
				"y": -0.4124434832,
				"z": 0.8366792008,
				"element": "H" 
			}
		],
		 "valence_orbital": [ 
			{
				"type": "occ",
				"energy": -0.31526,
				"method": "rhf"
			},
			{
				"type": "occ",
				"energy": -0.30577,
				"method": "rhf"
			},
			{
				"type": "occ",
				"energy": -0.28371,
				"method": "rhf"
			},
			{
				"type": "occ",
				"energy": -0.2778,
				"method": "rhf"
			},
			{
				"type": "occ",
				"energy": -0.2706,
				"method": "rhf"
			},
			{
				"type": "unocc",
				"energy": -0.05031,
				"method": "rhf"
			},
			{
				"type": "unocc",
				"energy": 0.00134,
				"method": "rhf"
			},
			{
				"type": "unocc",
				"energy": 0.06235,
				"method": "rhf"
			},
			{
				"type": "unocc",
				"energy": 0.07737,
				"method": "rhf"
			},
			{
				"type": "unocc",
				"energy": 0.09033,
				"method": "rhf"
			}
		],
		"cosmo_sigma_profile": { 
			"-0.025": 0.0,
			"-0.024": 0.0,
			"-0.023": 0.0,
			"-0.022": 0.0,
			"-0.021": 0.0,
			"-0.02": 0.0,
			"-0.019": 0.0,
			"-0.018": 0.0,
			"-0.017": 0.0460211999338,
			"-0.016": 0.343293852173,
			"-0.015": 0.373252256911,
			"-0.014": 0.955331626728,
			"-0.013": 0.790801478198,
			"-0.012": 0.833312981087,
			"-0.011": 0.901683061848,
			"-0.01": 0.937806847381,
			"-0.009": 0.73317712245,
			"-0.008": 1.77489213948,
			"-0.007": 2.72207310235,
			"-0.006": 3.83905948128,
			"-0.005": 10.9763968848,
			"-0.004": 18.2285713321,
			"-0.003": 23.1697014168,
			"-0.002": 28.5229103656,
			"-0.001": 31.7345908317,
			"0.0": 31.2658865813,
			"0.001": 22.9323940743,
			"0.002": 12.7155443543,
			"0.003": 4.58277697707,
			"0.004": 2.98104867529,
			"0.005": 3.9118950288,
			"0.006": 4.62650183195,
			"0.007": 3.70324994021,
			"0.008": 3.75829925607,
			"0.009": 4.49468269021,
			"0.01": 5.90765076282,
			"0.011": 6.10200025462,
			"0.012": 3.97545216693,
			"0.013": 1.59261023344,
			"0.014": 0.0849408818626,
			"0.015": 0.0,
			"0.016": 0.0,
			"0.017": 0.0,
			"0.018": 0.0,
			"0.019": 0.0,
			"0.02": 0.0,
			"0.021": 0.0,
			"0.022": 0.0,
			"0.023": 0.0,
			"0.024": 0.0,
			"0.025": 0.0
		}
	}
}
