{
	 "smiles": "CC(Cl)C(=O)NC1=C(F)C(F)=C(F)C(F)=C1F", 
	 "Tm": 397.15, 
	 "num_atms": 22, 
	 "gaussian": { 
		 "optdone": 1, 
		 "sigma_profile": "yes", 
		 "theory": "DFT", 
		 "functional": "B3LYP", 
		 "basiset": "6-31G**", 
		 "properties": { 
			 "R2extent": 6484.2508, 
			 "electric_dipole_moment_norm": 2.08044057353, 
			 "electric_quadrupole_moment_norm": 9.8128067524, 
			 "total_energy": -1435.28994122, 
			 "HOMO_LUMO_gap": 0.21507, 
			 "cosmo_polarized_energy": -9.25, 
			 "cosmo_cavitation_energy": 31.6, 
			 "cosmo_dispersion_energy": -21.68, 
			 "cosmo_repulsion_energy": 1.59, 
			 "cosmo_total_nonelectrostatic_energy": 11.51, 
			 "SMD_solvation_energy": 7.96 
		},
		"coords": [
			{
				"x": 0.1802600808,
				"y": -3.4582721581,
				"z": 0.8796579793,
				"element": "C" 
			},
			{
				"x": 0.4551477584,
				"y": -2.2364255617,
				"z": 0.0064420062,
				"element": "C" 
			},
			{
				"x": -0.42806889,
				"y": -2.3930832559,
				"z": -1.5947384463,
				"element": "Cl" 
			},
			{
				"x": 0.1418062166,
				"y": -0.940771889,
				"z": 0.7704617289,
				"element": "C" 
			},
			{
				"x": 0.8440031735,
				"y": -0.6498400247,
				"z": 1.7220089856,
				"element": "O" 
			},
			{
				"x": -0.947958712,
				"y": -0.2107177489,
				"z": 0.3600111099,
				"element": "N" 
			},
			{
				"x": -1.3263315558,
				"y": 1.0050743429,
				"z": 0.9563630835,
				"element": "C" 
			},
			{
				"x": -1.5492222721,
				"y": 2.1282712333,
				"z": 0.1520391849,
				"element": "C" 
			},
			{
				"x": -1.3844058017,
				"y": 2.0195571656,
				"z": -1.1761884507,
				"element": "F" 
			},
			{
				"x": -1.9473370871,
				"y": 3.3467196096,
				"z": 0.6901378694,
				"element": "C" 
			},
			{
				"x": -2.1554245881,
				"y": 4.4016709774,
				"z": -0.1040093136,
				"element": "F" 
			},
			{
				"x": -2.1132409663,
				"y": 3.4644550357,
				"z": 2.0688779079,
				"element": "C" 
			},
			{
				"x": -2.4845396525,
				"y": 4.63144901,
				"z": 2.6007832143,
				"element": "F" 
			},
			{
				"x": -1.9008076251,
				"y": 2.3587519666,
				"z": 2.8890406137,
				"element": "C" 
			},
			{
				"x": -2.0848199929,
				"y": 2.4662183238,
				"z": 4.2083584692,
				"element": "F" 
			},
			{
				"x": -1.532522276,
				"y": 1.1339907208,
				"z": 2.3350722461,
				"element": "C" 
			},
			{
				"x": -1.4081447799,
				"y": 0.0805655065,
				"z": 3.1431993316,
				"element": "F" 
			},
			{
				"x": 0.7374563072,
				"y": -3.3455837475,
				"z": 1.8135192125,
				"element": "H" 
			},
			{
				"x": 0.5045620471,
				"y": -4.3705860429,
				"z": 0.3749304028,
				"element": "H" 
			},
			{
				"x": -0.8848580323,
				"y": -3.541412949,
				"z": 1.1111174726,
				"element": "H" 
			},
			{
				"x": 1.5110168743,
				"y": -2.1852160077,
				"z": -0.2624372268,
				"element": "H" 
			},
			{
				"x": -1.3367702259,
				"y": -0.4251145068,
				"z": -0.5497473811,
				"element": "H" 
			}
		],
		 "valence_orbital": [ 
			{
				"type": "occ",
				"energy": -0.32194,
				"method": "rhf"
			},
			{
				"type": "occ",
				"energy": -0.31125,
				"method": "rhf"
			},
			{
				"type": "occ",
				"energy": -0.27773,
				"method": "rhf"
			},
			{
				"type": "occ",
				"energy": -0.2624,
				"method": "rhf"
			},
			{
				"type": "occ",
				"energy": -0.25575,
				"method": "rhf"
			},
			{
				"type": "unocc",
				"energy": -0.04068,
				"method": "rhf"
			},
			{
				"type": "unocc",
				"energy": -0.02245,
				"method": "rhf"
			},
			{
				"type": "unocc",
				"energy": -0.00249,
				"method": "rhf"
			},
			{
				"type": "unocc",
				"energy": 0.00258,
				"method": "rhf"
			},
			{
				"type": "unocc",
				"energy": 0.01022,
				"method": "rhf"
			}
		],
		"cosmo_sigma_profile": { 
			"-0.025": 0.0,
			"-0.024": 0.0,
			"-0.023": 0.0,
			"-0.022": 0.0,
			"-0.021": 0.0,
			"-0.02": 0.0,
			"-0.019": 0.0,
			"-0.018": 0.0,
			"-0.017": 0.0,
			"-0.016": 0.0,
			"-0.015": 0.0,
			"-0.014": 0.18819238599,
			"-0.013": 0.54502912558,
			"-0.012": 0.619774446418,
			"-0.011": 0.499693837611,
			"-0.01": 0.932529131662,
			"-0.009": 2.34238463026,
			"-0.008": 3.36618920833,
			"-0.007": 3.24862796261,
			"-0.006": 5.94705605235,
			"-0.005": 12.5913980362,
			"-0.004": 23.5945668793,
			"-0.003": 26.0702085554,
			"-0.002": 19.3484554479,
			"-0.001": 18.0765157905,
			"0.0": 14.6690144215,
			"0.001": 17.6156827441,
			"0.002": 43.9902860249,
			"0.003": 30.2167941844,
			"0.004": 6.33678603627,
			"0.005": 8.88342813147,
			"0.006": 3.11014589808,
			"0.007": 1.4767678974,
			"0.008": 2.05742017491,
			"0.009": 1.47689845533,
			"0.01": 2.02872971245,
			"0.011": 3.28400929098,
			"0.012": 3.54941253983,
			"0.013": 0.360234539366,
			"0.014": 0.0,
			"0.015": 0.0,
			"0.016": 0.0,
			"0.017": 0.0,
			"0.018": 0.0,
			"0.019": 0.0,
			"0.02": 0.0,
			"0.021": 0.0,
			"0.022": 0.0,
			"0.023": 0.0,
			"0.024": 0.0,
			"0.025": 0.0
		}
	}
}
