{
	 "smiles": "COC(=O)C1=C(C=CC(OC)=C1)S(Cl)(=O)=O", 
	 "Tm": 323.15, 
	 "num_atms": 25, 
	 "gaussian": { 
		 "optdone": 1, 
		 "sigma_profile": "yes", 
		 "theory": "DFT", 
		 "functional": "B3LYP", 
		 "basiset": "6-31G**", 
		 "properties": { 
			 "R2extent": 5322.3247, 
			 "electric_dipole_moment_norm": 7.85940100135, 
			 "electric_quadrupole_moment_norm": 14.9640632413, 
			 "total_energy": -1582.79769321, 
			 "HOMO_LUMO_gap": 0.17713, 
			 "cosmo_polarized_energy": -15.99, 
			 "cosmo_cavitation_energy": 32.97, 
			 "cosmo_dispersion_energy": -24.07, 
			 "cosmo_repulsion_energy": 1.85, 
			 "cosmo_total_nonelectrostatic_energy": 10.75, 
			 "SMD_solvation_energy": 6.65 
		},
		"coords": [
			{
				"x": 4.3322928648,
				"y": -1.1476690335,
				"z": 0.770405215,
				"element": "C" 
			},
			{
				"x": 2.9408746924,
				"y": -1.0655043838,
				"z": 0.4056168313,
				"element": "O" 
			},
			{
				"x": 2.4511530947,
				"y": 0.1884717504,
				"z": 0.3222888477,
				"element": "C" 
			},
			{
				"x": 3.094932996,
				"y": 1.1859011241,
				"z": 0.5503292067,
				"element": "O" 
			},
			{
				"x": 0.9869510885,
				"y": 0.1770956099,
				"z": -0.0197253554,
				"element": "C" 
			},
			{
				"x": 0.3820663747,
				"y": 1.1186737423,
				"z": -0.8693852499,
				"element": "C" 
			},
			{
				"x": -1.0059269061,
				"y": 1.1190169085,
				"z": -1.0563738097,
				"element": "C" 
			},
			{
				"x": -1.8001752681,
				"y": 0.1933299177,
				"z": -0.3992857313,
				"element": "C" 
			},
			{
				"x": -1.2109682432,
				"y": -0.7656112319,
				"z": 0.4386262771,
				"element": "C" 
			},
			{
				"x": -2.0602058764,
				"y": -1.6387798434,
				"z": 1.0260464442,
				"element": "O" 
			},
			{
				"x": -1.5288317847,
				"y": -2.6454310669,
				"z": 1.8832232454,
				"element": "C" 
			},
			{
				"x": 0.1793514574,
				"y": -0.7718147778,
				"z": 0.6166335393,
				"element": "C" 
			},
			{
				"x": 1.3010050341,
				"y": 2.2649898703,
				"z": -1.9010655176,
				"element": "S" 
			},
			{
				"x": 1.6793554244,
				"y": 3.8983509304,
				"z": -0.6041006146,
				"element": "Cl" 
			},
			{
				"x": 0.3831306832,
				"y": 2.7885689174,
				"z": -2.9084747471,
				"element": "O" 
			},
			{
				"x": 2.5823900608,
				"y": 1.6852151945,
				"z": -2.2798914029,
				"element": "O" 
			},
			{
				"x": 4.9454616603,
				"y": -0.6137127932,
				"z": 0.0413525332,
				"element": "H" 
			},
			{
				"x": 4.4957392026,
				"y": -0.7121626588,
				"z": 1.7591561841,
				"element": "H" 
			},
			{
				"x": 4.570993376,
				"y": -2.2107000947,
				"z": 0.7718743232,
				"element": "H" 
			},
			{
				"x": -1.448584052,
				"y": 1.8392056574,
				"z": -1.7338449953,
				"element": "H" 
			},
			{
				"x": -2.8763687003,
				"y": 0.1825430086,
				"z": -0.5317362664,
				"element": "H" 
			},
			{
				"x": -2.3867244122,
				"y": -3.221208721,
				"z": 2.2309269751,
				"element": "H" 
			},
			{
				"x": -1.013338995,
				"y": -2.205321837,
				"z": 2.7450101053,
				"element": "H" 
			},
			{
				"x": -0.8408678437,
				"y": -3.3072197655,
				"z": 1.3440981425,
				"element": "H" 
			},
			{
				"x": 0.6585940719,
				"y": -1.5039264238,
				"z": 1.2520958201,
				"element": "H" 
			}
		],
		 "valence_orbital": [ 
			{
				"type": "occ",
				"energy": -0.31351,
				"method": "rhf"
			},
			{
				"type": "occ",
				"energy": -0.3006,
				"method": "rhf"
			},
			{
				"type": "occ",
				"energy": -0.29397,
				"method": "rhf"
			},
			{
				"type": "occ",
				"energy": -0.28197,
				"method": "rhf"
			},
			{
				"type": "occ",
				"energy": -0.25867,
				"method": "rhf"
			},
			{
				"type": "unocc",
				"energy": -0.08154,
				"method": "rhf"
			},
			{
				"type": "unocc",
				"energy": -0.0566,
				"method": "rhf"
			},
			{
				"type": "unocc",
				"energy": -0.03342,
				"method": "rhf"
			},
			{
				"type": "unocc",
				"energy": 0.02133,
				"method": "rhf"
			},
			{
				"type": "unocc",
				"energy": 0.06141,
				"method": "rhf"
			}
		],
		"cosmo_sigma_profile": { 
			"-0.025": 0.0,
			"-0.024": 0.0,
			"-0.023": 0.0,
			"-0.022": 0.0,
			"-0.021": 0.0,
			"-0.02": 0.0,
			"-0.019": 0.0,
			"-0.018": 0.0,
			"-0.017": 0.0,
			"-0.016": 0.0,
			"-0.015": 0.0,
			"-0.014": 0.0,
			"-0.013": 0.0,
			"-0.012": 0.0,
			"-0.011": 0.0,
			"-0.01": 0.0,
			"-0.009": 0.427095985443,
			"-0.008": 5.60405814109,
			"-0.007": 12.0031960954,
			"-0.006": 20.0836843071,
			"-0.005": 19.7384549357,
			"-0.004": 23.9601002084,
			"-0.003": 16.5444684173,
			"-0.002": 14.9066584924,
			"-0.001": 20.4976330793,
			"0.0": 23.1076082198,
			"0.001": 15.6606271382,
			"0.002": 12.0647867123,
			"0.003": 15.9115837108,
			"0.004": 12.2788281471,
			"0.005": 7.6529422724,
			"0.006": 6.25478004232,
			"0.007": 10.0221725532,
			"0.008": 11.8124933688,
			"0.009": 9.90538123419,
			"0.01": 4.35093459418,
			"0.011": 3.14296447888,
			"0.012": 0.221014857702,
			"0.013": 0.0,
			"0.014": 0.0,
			"0.015": 0.0,
			"0.016": 0.0,
			"0.017": 0.0,
			"0.018": 0.0,
			"0.019": 0.0,
			"0.02": 0.0,
			"0.021": 0.0,
			"0.022": 0.0,
			"0.023": 0.0,
			"0.024": 0.0,
			"0.025": 0.0
		}
	}
}
