{
	 "smiles": "CCC(C)=CC", 
	 "Tm": 136.15, 
	 "num_atms": 18, 
	 "gaussian": { 
		 "optdone": 1, 
		 "sigma_profile": "yes", 
		 "theory": "DFT", 
		 "functional": "B3LYP", 
		 "basiset": "6-31G**", 
		 "properties": { 
			 "R2extent": 932.2377, 
			 "electric_dipole_moment_norm": 0.17760548978, 
			 "electric_quadrupole_moment_norm": 1.45384537004, 
			 "total_energy": -235.867874557, 
			 "HOMO_LUMO_gap": 0.26061, 
			 "cosmo_polarized_energy": -1.44, 
			 "cosmo_cavitation_energy": 19.89, 
			 "cosmo_dispersion_energy": -14.39, 
			 "cosmo_repulsion_energy": 1.25, 
			 "cosmo_total_nonelectrostatic_energy": 6.75, 
			 "SMD_solvation_energy": 3.96 
		},
		"coords": [
			{
				"x": 0.2492779826,
				"y": 0.8551687238,
				"z": -1.9948829805,
				"element": "C" 
			},
			{
				"x": -0.1067913394,
				"y": 0.3924270705,
				"z": -0.5692167537,
				"element": "C" 
			},
			{
				"x": 1.0429075836,
				"y": 0.5208052104,
				"z": 0.4112811877,
				"element": "C" 
			},
			{
				"x": 1.3031674879,
				"y": 1.920097594,
				"z": 0.920210871,
				"element": "C" 
			},
			{
				"x": 1.8063987687,
				"y": -0.5053815383,
				"z": 0.8188432924,
				"element": "C" 
			},
			{
				"x": 1.7105090304,
				"y": -1.953471759,
				"z": 0.4271605063,
				"element": "C" 
			},
			{
				"x": 0.5826497398,
				"y": 1.8979239684,
				"z": -2.0099660321,
				"element": "H" 
			},
			{
				"x": 1.0551915398,
				"y": 0.2436192699,
				"z": -2.4130268003,
				"element": "H" 
			},
			{
				"x": -0.6175126757,
				"y": 0.7754737746,
				"z": -2.6595651598,
				"element": "H" 
			},
			{
				"x": -0.4657100237,
				"y": -0.6404059521,
				"z": -0.610935643,
				"element": "H" 
			},
			{
				"x": -0.951210906,
				"y": 0.9932472076,
				"z": -0.2038204376,
				"element": "H" 
			},
			{
				"x": 1.4980611588,
				"y": 2.6205491472,
				"z": 0.0979440426,
				"element": "H" 
			},
			{
				"x": 0.4299825567,
				"y": 2.3114469263,
				"z": 1.4595429683,
				"element": "H" 
			},
			{
				"x": 2.1617135495,
				"y": 1.9531602454,
				"z": 1.5968499575,
				"element": "H" 
			},
			{
				"x": 2.6087541107,
				"y": -0.2801815711,
				"z": 1.5230786243,
				"element": "H" 
			},
			{
				"x": 1.5715786195,
				"y": -2.5903362827,
				"z": 1.3105373234,
				"element": "H" 
			},
			{
				"x": 0.8905448614,
				"y": -2.1593826037,
				"z": -0.2648080101,
				"element": "H" 
			},
			{
				"x": 2.6390879553,
				"y": -2.2892594312,
				"z": -0.0529269566,
				"element": "H" 
			}
		],
		 "valence_orbital": [ 
			{
				"type": "occ",
				"energy": -0.36141,
				"method": "rhf"
			},
			{
				"type": "occ",
				"energy": -0.35214,
				"method": "rhf"
			},
			{
				"type": "occ",
				"energy": -0.33159,
				"method": "rhf"
			},
			{
				"type": "occ",
				"energy": -0.3122,
				"method": "rhf"
			},
			{
				"type": "occ",
				"energy": -0.22515,
				"method": "rhf"
			},
			{
				"type": "unocc",
				"energy": 0.03546,
				"method": "rhf"
			},
			{
				"type": "unocc",
				"energy": 0.0928,
				"method": "rhf"
			},
			{
				"type": "unocc",
				"energy": 0.11534,
				"method": "rhf"
			},
			{
				"type": "unocc",
				"energy": 0.12884,
				"method": "rhf"
			},
			{
				"type": "unocc",
				"energy": 0.14162,
				"method": "rhf"
			}
		],
		"cosmo_sigma_profile": { 
			"-0.025": 0.0,
			"-0.024": 0.0,
			"-0.023": 0.0,
			"-0.022": 0.0,
			"-0.021": 0.0,
			"-0.02": 0.0,
			"-0.019": 0.0,
			"-0.018": 0.0,
			"-0.017": 0.0,
			"-0.016": 0.0,
			"-0.015": 0.0,
			"-0.014": 0.0,
			"-0.013": 0.0,
			"-0.012": 0.0,
			"-0.011": 0.0,
			"-0.01": 0.0,
			"-0.009": 0.0,
			"-0.008": 0.0,
			"-0.007": 0.0,
			"-0.006": 0.0,
			"-0.005": 0.0773227981764,
			"-0.004": 2.81053419181,
			"-0.003": 17.8110769643,
			"-0.002": 23.1551785608,
			"-0.001": 23.4543180024,
			"0.0": 29.1934089552,
			"0.001": 28.1660773547,
			"0.002": 12.9663363009,
			"0.003": 4.04462759963,
			"0.004": 4.17845490549,
			"0.005": 3.3333490451,
			"0.006": 2.95053109251,
			"0.007": 1.86280293191,
			"0.008": 0.35203537003,
			"0.009": 0.0,
			"0.01": 0.0,
			"0.011": 0.0,
			"0.012": 0.0,
			"0.013": 0.0,
			"0.014": 0.0,
			"0.015": 0.0,
			"0.016": 0.0,
			"0.017": 0.0,
			"0.018": 0.0,
			"0.019": 0.0,
			"0.02": 0.0,
			"0.021": 0.0,
			"0.022": 0.0,
			"0.023": 0.0,
			"0.024": 0.0,
			"0.025": 0.0
		}
	}
}
