{
	 "smiles": "CC1=C(F)C=C(Cl)C(=C1)S(Cl)(=O)=O", 
	 "Tm": 318.15, 
	 "num_atms": 18, 
	 "gaussian": { 
		 "optdone": 1, 
		 "sigma_profile": "yes", 
		 "theory": "DFT", 
		 "functional": "B3LYP", 
		 "basiset": "6-31G**", 
		 "properties": { 
			 "R2extent": 5405.3329, 
			 "electric_dipole_moment_norm": 4.97896795431, 
			 "electric_quadrupole_moment_norm": 18.165324377, 
			 "total_energy": -1838.5403745, 
			 "HOMO_LUMO_gap": 0.18282, 
			 "cosmo_polarized_energy": -8.72, 
			 "cosmo_cavitation_energy": 27.86, 
			 "cosmo_dispersion_energy": -20.79, 
			 "cosmo_repulsion_energy": 1.58, 
			 "cosmo_total_nonelectrostatic_energy": 8.64, 
			 "SMD_solvation_energy": 3.82 
		},
		"coords": [
			{
				"x": -1.3012837037,
				"y": -0.1472944661,
				"z": 1.6018653242,
				"element": "C" 
			},
			{
				"x": -0.2599179289,
				"y": 0.3416862126,
				"z": 0.6305995777,
				"element": "C" 
			},
			{
				"x": -0.5769328628,
				"y": 1.3043342523,
				"z": -0.3321358934,
				"element": "C" 
			},
			{
				"x": -1.8326771946,
				"y": 1.7812793084,
				"z": -0.365553765,
				"element": "F" 
			},
			{
				"x": 0.3350199554,
				"y": 1.7990214504,
				"z": -1.2545111787,
				"element": "C" 
			},
			{
				"x": 1.6441305578,
				"y": 1.3193514609,
				"z": -1.2413356918,
				"element": "C" 
			},
			{
				"x": 2.7640302002,
				"y": 1.9797891867,
				"z": -2.3969725809,
				"element": "Cl" 
			},
			{
				"x": 1.9990940334,
				"y": 0.3471812025,
				"z": -0.2926518406,
				"element": "C" 
			},
			{
				"x": 1.0541858137,
				"y": -0.1233370605,
				"z": 0.6283235623,
				"element": "C" 
			},
			{
				"x": 3.6262533871,
				"y": -0.4046986154,
				"z": -0.1885298911,
				"element": "S" 
			},
			{
				"x": 4.7939758147,
				"y": 1.2011032268,
				"z": 0.5680450119,
				"element": "Cl" 
			},
			{
				"x": 4.1375826463,
				"y": -0.7154005827,
				"z": -1.5144750256,
				"element": "O" 
			},
			{
				"x": 3.5909009686,
				"y": -1.4067050595,
				"z": 0.8700079859,
				"element": "O" 
			},
			{
				"x": -0.8795199452,
				"y": -0.8876132106,
				"z": 2.284644513,
				"element": "H" 
			},
			{
				"x": -2.1458147069,
				"y": -0.604992677,
				"z": 1.0762936439,
				"element": "H" 
			},
			{
				"x": -1.7043185768,
				"y": 0.6795010463,
				"z": 2.1957884727,
				"element": "H" 
			},
			{
				"x": 0.0257201697,
				"y": 2.5494952098,
				"z": -1.9716631038,
				"element": "H" 
			},
			{
				"x": 1.363871372,
				"y": -0.8704008849,
				"z": 1.3501608791,
				"element": "H" 
			}
		],
		 "valence_orbital": [ 
			{
				"type": "occ",
				"energy": -0.33642,
				"method": "rhf"
			},
			{
				"type": "occ",
				"energy": -0.3268,
				"method": "rhf"
			},
			{
				"type": "occ",
				"energy": -0.31592,
				"method": "rhf"
			},
			{
				"type": "occ",
				"energy": -0.29292,
				"method": "rhf"
			},
			{
				"type": "occ",
				"energy": -0.27489,
				"method": "rhf"
			},
			{
				"type": "unocc",
				"energy": -0.09207,
				"method": "rhf"
			},
			{
				"type": "unocc",
				"energy": -0.05285,
				"method": "rhf"
			},
			{
				"type": "unocc",
				"energy": -0.0488,
				"method": "rhf"
			},
			{
				"type": "unocc",
				"energy": 0.0008,
				"method": "rhf"
			},
			{
				"type": "unocc",
				"energy": 0.05334,
				"method": "rhf"
			}
		],
		"cosmo_sigma_profile": { 
			"-0.025": 0.0,
			"-0.024": 0.0,
			"-0.023": 0.0,
			"-0.022": 0.0,
			"-0.021": 0.0,
			"-0.02": 0.0,
			"-0.019": 0.0,
			"-0.018": 0.0,
			"-0.017": 0.0,
			"-0.016": 0.0,
			"-0.015": 0.0,
			"-0.014": 0.0,
			"-0.013": 0.0,
			"-0.012": 0.0,
			"-0.011": 0.0,
			"-0.01": 0.854613785719,
			"-0.009": 2.27146854051,
			"-0.008": 2.74890260741,
			"-0.007": 4.30534530944,
			"-0.006": 6.46205979398,
			"-0.005": 10.683651816,
			"-0.004": 13.2105735736,
			"-0.003": 17.7664125081,
			"-0.002": 31.2827621328,
			"-0.001": 27.544264881,
			"0.0": 15.4066046714,
			"0.001": 12.6946876897,
			"0.002": 18.2204111406,
			"0.003": 29.9425256272,
			"0.004": 7.30081548314,
			"0.005": 3.8088090636,
			"0.006": 3.3685332389,
			"0.007": 7.60905112929,
			"0.008": 10.376153416,
			"0.009": 2.64989131176,
			"0.01": 0.0,
			"0.011": 0.0,
			"0.012": 0.0,
			"0.013": 0.0,
			"0.014": 0.0,
			"0.015": 0.0,
			"0.016": 0.0,
			"0.017": 0.0,
			"0.018": 0.0,
			"0.019": 0.0,
			"0.02": 0.0,
			"0.021": 0.0,
			"0.022": 0.0,
			"0.023": 0.0,
			"0.024": 0.0,
			"0.025": 0.0
		}
	}
}
