{
	 "smiles": "OC(=O)CNS(=O)(=O)C1=C(F)C=CC=C1", 
	 "Tm": 444.15, 
	 "num_atms": 23, 
	 "gaussian": { 
		 "optdone": 1, 
		 "sigma_profile": "yes", 
		 "theory": "DFT", 
		 "functional": "B3LYP", 
		 "basiset": "6-31G**", 
		 "properties": { 
			 "R2extent": 3739.497, 
			 "electric_dipole_moment_norm": 7.96695610506, 
			 "electric_quadrupole_moment_norm": 6.44261959687, 
			 "total_energy": -1163.27430674, 
			 "HOMO_LUMO_gap": 0.19878, 
			 "cosmo_polarized_energy": -18.19, 
			 "cosmo_cavitation_energy": 28.88, 
			 "cosmo_dispersion_energy": -21.65, 
			 "cosmo_repulsion_energy": 1.62, 
			 "cosmo_total_nonelectrostatic_energy": 8.85, 
			 "SMD_solvation_energy": 5.52 
		},
		"coords": [
			{
				"x": 0.9744649057,
				"y": 2.7382287034,
				"z": 2.2216713843,
				"element": "O" 
			},
			{
				"x": -0.1123321538,
				"y": 3.0467811536,
				"z": 1.4984541587,
				"element": "C" 
			},
			{
				"x": -0.7690198081,
				"y": 4.0368796143,
				"z": 1.7197636079,
				"element": "O" 
			},
			{
				"x": -0.4834031345,
				"y": 2.0804525881,
				"z": 0.3567990919,
				"element": "C" 
			},
			{
				"x": -0.763619944,
				"y": 0.694832741,
				"z": 0.761746263,
				"element": "N" 
			},
			{
				"x": 0.4599404559,
				"y": -0.4047218464,
				"z": 1.0572376823,
				"element": "S" 
			},
			{
				"x": 1.7362377372,
				"y": 0.3378868133,
				"z": 1.04584969,
				"element": "O" 
			},
			{
				"x": 0.0496282346,
				"y": -1.1989359072,
				"z": 2.2148023265,
				"element": "O" 
			},
			{
				"x": 0.4750841011,
				"y": -1.5059307779,
				"z": -0.354121585,
				"element": "C" 
			},
			{
				"x": 0.7086776469,
				"y": -1.037280374,
				"z": -1.6480225126,
				"element": "C" 
			},
			{
				"x": 0.8769270938,
				"y": 0.2820990996,
				"z": -1.859638137,
				"element": "F" 
			},
			{
				"x": 0.7574162755,
				"y": -1.9026055925,
				"z": -2.7311905136,
				"element": "C" 
			},
			{
				"x": 0.5719088995,
				"y": -3.2687845398,
				"z": -2.5104180317,
				"element": "C" 
			},
			{
				"x": 0.337665893,
				"y": -3.7550492027,
				"z": -1.2225160234,
				"element": "C" 
			},
			{
				"x": 0.2891225608,
				"y": -2.8743150471,
				"z": -0.1422552777,
				"element": "C" 
			},
			{
				"x": 1.4198516293,
				"y": 1.9361597122,
				"z": 1.873601744,
				"element": "H" 
			},
			{
				"x": -1.3837096447,
				"y": 2.4755187978,
				"z": -0.1163032369,
				"element": "H" 
			},
			{
				"x": 0.3133694515,
				"y": 2.0602325168,
				"z": -0.3896717292,
				"element": "H" 
			},
			{
				"x": -1.5104110211,
				"y": 0.5656440196,
				"z": 1.4378712529,
				"element": "H" 
			},
			{
				"x": 0.9376842699,
				"y": -1.4982491124,
				"z": -3.7210625115,
				"element": "H" 
			},
			{
				"x": 0.6098505016,
				"y": -3.9529721008,
				"z": -3.3522802088,
				"element": "H" 
			},
			{
				"x": 0.1942759644,
				"y": -4.817489101,
				"z": -1.0568280403,
				"element": "H" 
			},
			{
				"x": 0.1106900855,
				"y": -3.225082158,
				"z": 0.8679106061,
				"element": "H" 
			}
		],
		 "valence_orbital": [ 
			{
				"type": "occ",
				"energy": -0.31439,
				"method": "rhf"
			},
			{
				"type": "occ",
				"energy": -0.30729,
				"method": "rhf"
			},
			{
				"type": "occ",
				"energy": -0.29183,
				"method": "rhf"
			},
			{
				"type": "occ",
				"energy": -0.28115,
				"method": "rhf"
			},
			{
				"type": "occ",
				"energy": -0.25872,
				"method": "rhf"
			},
			{
				"type": "unocc",
				"energy": -0.05994,
				"method": "rhf"
			},
			{
				"type": "unocc",
				"energy": -0.03611,
				"method": "rhf"
			},
			{
				"type": "unocc",
				"energy": 0.002,
				"method": "rhf"
			},
			{
				"type": "unocc",
				"energy": 0.03182,
				"method": "rhf"
			},
			{
				"type": "unocc",
				"energy": 0.04762,
				"method": "rhf"
			}
		],
		"cosmo_sigma_profile": { 
			"-0.025": 0.0,
			"-0.024": 0.0,
			"-0.023": 0.0,
			"-0.022": 0.0,
			"-0.021": 0.0,
			"-0.02": 0.0,
			"-0.019": 0.0,
			"-0.018": 0.0,
			"-0.017": 0.0895090992434,
			"-0.016": 1.10842982799,
			"-0.015": 1.32021190689,
			"-0.014": 1.29120202008,
			"-0.013": 1.21918232231,
			"-0.012": 1.14058886592,
			"-0.011": 0.829919388501,
			"-0.01": 1.57780888333,
			"-0.009": 3.7998738431,
			"-0.008": 8.59509588028,
			"-0.007": 13.7431843357,
			"-0.006": 15.5621163882,
			"-0.005": 12.0323835115,
			"-0.004": 10.4874277056,
			"-0.003": 10.8083549111,
			"-0.002": 11.6722540771,
			"-0.001": 16.6052045402,
			"0.0": 17.5941065082,
			"0.001": 17.8458626607,
			"0.002": 15.4608959659,
			"0.003": 9.29381951043,
			"0.004": 5.66507933482,
			"0.005": 5.39189257554,
			"0.006": 5.59211628975,
			"0.007": 4.86582125463,
			"0.008": 6.48508463375,
			"0.009": 8.46942687,
			"0.01": 9.88774875295,
			"0.011": 6.40543503304,
			"0.012": 5.2125876245,
			"0.013": 1.57050327355,
			"0.014": 0.0304678292976,
			"0.015": 0.0,
			"0.016": 0.0,
			"0.017": 0.0,
			"0.018": 0.0,
			"0.019": 0.0,
			"0.02": 0.0,
			"0.021": 0.0,
			"0.022": 0.0,
			"0.023": 0.0,
			"0.024": 0.0,
			"0.025": 0.0
		}
	}
}
