{
	 "smiles": "NC1=CC=C(C=C1)C(=O)N1CCCC1C1=CC=CC=C1", 
	 "Tm": 394.15, 
	 "num_atms": 38, 
	 "gaussian": { 
		 "optdone": 1, 
		 "sigma_profile": "yes", 
		 "theory": "DFT", 
		 "functional": "B3LYP", 
		 "basiset": "6-31G**", 
		 "properties": { 
			 "R2extent": 6300.4729, 
			 "electric_dipole_moment_norm": 4.68961589045, 
			 "electric_quadrupole_moment_norm": 24.7835159891, 
			 "total_energy": -843.40489656, 
			 "HOMO_LUMO_gap": 0.18944, 
			 "cosmo_polarized_energy": -16.38, 
			 "cosmo_cavitation_energy": 39.75, 
			 "cosmo_dispersion_energy": -27.64, 
			 "cosmo_repulsion_energy": 2.13, 
			 "cosmo_total_nonelectrostatic_energy": 14.24, 
			 "SMD_solvation_energy": 6.78 
		},
		"coords": [
			{
				"x": -5.331381754,
				"y": -1.0521869077,
				"z": 0.2257277886,
				"element": "N" 
			},
			{
				"x": -4.0236490686,
				"y": -1.0919660863,
				"z": 0.6939795175,
				"element": "C" 
			},
			{
				"x": -3.7328345912,
				"y": -1.598529325,
				"z": 1.9757576218,
				"element": "C" 
			},
			{
				"x": -2.4210697832,
				"y": -1.6917024123,
				"z": 2.4146127389,
				"element": "C" 
			},
			{
				"x": -1.3486627939,
				"y": -1.2584172099,
				"z": 1.6156070815,
				"element": "C" 
			},
			{
				"x": -1.6411305028,
				"y": -0.7676151804,
				"z": 0.3340516928,
				"element": "C" 
			},
			{
				"x": -2.9526532284,
				"y": -0.687535569,
				"z": -0.1222198583,
				"element": "C" 
			},
			{
				"x": 0.0275904632,
				"y": -1.4598813926,
				"z": 2.170877326,
				"element": "C" 
			},
			{
				"x": 0.24218551,
				"y": -2.3946988495,
				"z": 2.9430444696,
				"element": "O" 
			},
			{
				"x": 1.0516393104,
				"y": -0.5931822847,
				"z": 1.7977563046,
				"element": "N" 
			},
			{
				"x": 2.3323021435,
				"y": -0.7180673013,
				"z": 2.5142085297,
				"element": "C" 
			},
			{
				"x": 2.4123368396,
				"y": 0.5850593625,
				"z": 3.3156999813,
				"element": "C" 
			},
			{
				"x": 1.8347449823,
				"y": 1.6237196716,
				"z": 2.33824401,
				"element": "C" 
			},
			{
				"x": 0.8543481572,
				"y": 0.8199149184,
				"z": 1.4087324625,
				"element": "C" 
			},
			{
				"x": 1.1332954863,
				"y": 1.1112287479,
				"z": -0.0629285853,
				"element": "C" 
			},
			{
				"x": 0.7578995887,
				"y": 2.3538073157,
				"z": -0.5944423662,
				"element": "C" 
			},
			{
				"x": 1.0354268381,
				"y": 2.6770207738,
				"z": -1.9221760482,
				"element": "C" 
			},
			{
				"x": 1.6934106429,
				"y": 1.7588854352,
				"z": -2.7444595619,
				"element": "C" 
			},
			{
				"x": 2.0642517113,
				"y": 0.5175285603,
				"z": -2.2271460206,
				"element": "C" 
			},
			{
				"x": 1.7852902751,
				"y": 0.1956964645,
				"z": -0.8962934384,
				"element": "C" 
			},
			{
				"x": -5.5137235409,
				"y": -0.4071351152,
				"z": -0.5295435179,
				"element": "H" 
			},
			{
				"x": -6.0549230405,
				"y": -1.0461319768,
				"z": 0.9301803963,
				"element": "H" 
			},
			{
				"x": -4.5458271056,
				"y": -1.9309714968,
				"z": 2.6168363313,
				"element": "H" 
			},
			{
				"x": -2.1984712204,
				"y": -2.109709972,
				"z": 3.3905405661,
				"element": "H" 
			},
			{
				"x": -0.8410101834,
				"y": -0.4662509518,
				"z": -0.3318104614,
				"element": "H" 
			},
			{
				"x": -3.1528824654,
				"y": -0.3201300411,
				"z": -1.1257689596,
				"element": "H" 
			},
			{
				"x": 3.155604378,
				"y": -0.7837444423,
				"z": 1.7910198938,
				"element": "H" 
			},
			{
				"x": 2.3122856105,
				"y": -1.6231147056,
				"z": 3.1183037865,
				"element": "H" 
			},
			{
				"x": 3.4286744662,
				"y": 0.829907623,
				"z": 3.6383993913,
				"element": "H" 
			},
			{
				"x": 1.7851255827,
				"y": 0.4975889423,
				"z": 4.2096780655,
				"element": "H" 
			},
			{
				"x": 1.3187662941,
				"y": 2.4443861362,
				"z": 2.8445231932,
				"element": "H" 
			},
			{
				"x": 2.6322302591,
				"y": 2.0642799159,
				"z": 1.7330266827,
				"element": "H" 
			},
			{
				"x": -0.1802845898,
				"y": 1.0999051273,
				"z": 1.6249663118,
				"element": "H" 
			},
			{
				"x": 0.2405077596,
				"y": 3.0729410375,
				"z": 0.0369850033,
				"element": "H" 
			},
			{
				"x": 0.7335728858,
				"y": 3.6433802507,
				"z": -2.3167527863,
				"element": "H" 
			},
			{
				"x": 1.9085527156,
				"y": 2.0077122798,
				"z": -3.7796330266,
				"element": "H" 
			},
			{
				"x": 2.5696377134,
				"y": -0.2069209866,
				"z": -2.8598812345,
				"element": "H" 
			},
			{
				"x": 2.0573242544,
				"y": -0.7779703554,
				"z": -0.5009032812,
				"element": "H" 
			}
		],
		 "valence_orbital": [ 
			{
				"type": "occ",
				"energy": -0.24825,
				"method": "rhf"
			},
			{
				"type": "occ",
				"energy": -0.24349,
				"method": "rhf"
			},
			{
				"type": "occ",
				"energy": -0.23975,
				"method": "rhf"
			},
			{
				"type": "occ",
				"energy": -0.22912,
				"method": "rhf"
			},
			{
				"type": "occ",
				"energy": -0.20302,
				"method": "rhf"
			},
			{
				"type": "unocc",
				"energy": -0.01358,
				"method": "rhf"
			},
			{
				"type": "unocc",
				"energy": -0.00523,
				"method": "rhf"
			},
			{
				"type": "unocc",
				"energy": -0.00134,
				"method": "rhf"
			},
			{
				"type": "unocc",
				"energy": 0.00531,
				"method": "rhf"
			},
			{
				"type": "unocc",
				"energy": 0.06621,
				"method": "rhf"
			}
		],
		"cosmo_sigma_profile": { 
			"-0.025": 0.0,
			"-0.024": 0.0,
			"-0.023": 0.0,
			"-0.022": 0.0,
			"-0.021": 0.0,
			"-0.02": 0.0,
			"-0.019": 0.0,
			"-0.018": 0.0,
			"-0.017": 0.0,
			"-0.016": 0.0,
			"-0.015": 0.0,
			"-0.014": 0.0,
			"-0.013": 1.33687660626,
			"-0.012": 2.7078747824,
			"-0.011": 3.13848991923,
			"-0.01": 2.75209607774,
			"-0.009": 3.49957323742,
			"-0.008": 2.27315456178,
			"-0.007": 3.61798261394,
			"-0.006": 7.31563595958,
			"-0.005": 16.5655739883,
			"-0.004": 25.2357121205,
			"-0.003": 35.6758769061,
			"-0.002": 32.0184897637,
			"-0.001": 28.0790207814,
			"0.0": 24.8061694913,
			"0.001": 19.2386566139,
			"0.002": 16.6685307206,
			"0.003": 15.5276078842,
			"0.004": 16.0205956213,
			"0.005": 20.062274337,
			"0.006": 14.2705204824,
			"0.007": 3.38245686932,
			"0.008": 2.33937728548,
			"0.009": 2.28006791402,
			"0.01": 2.48566222089,
			"0.011": 2.44682770911,
			"0.012": 2.50327838188,
			"0.013": 2.9009985505,
			"0.014": 4.77739176939,
			"0.015": 0.91732461534,
			"0.016": 0.0,
			"0.017": 0.0,
			"0.018": 0.0,
			"0.019": 0.0,
			"0.02": 0.0,
			"0.021": 0.0,
			"0.022": 0.0,
			"0.023": 0.0,
			"0.024": 0.0,
			"0.025": 0.0
		}
	}
}
