{
	 "smiles": "CC(C)(C)C1CCC2=C(C1)C=C(S2)C(O)=O", 
	 "Tm": 443.15, 
	 "num_atms": 34, 
	 "gaussian": { 
		 "optdone": 1, 
		 "sigma_profile": "yes", 
		 "theory": "DFT", 
		 "functional": "B3LYP", 
		 "basiset": "6-31G**", 
		 "properties": { 
			 "R2extent": 6283.3627, 
			 "electric_dipole_moment_norm": 6.32002128952, 
			 "electric_quadrupole_moment_norm": 35.282114246, 
			 "total_energy": -1054.88501692, 
			 "HOMO_LUMO_gap": 0.18204, 
			 "cosmo_polarized_energy": -15.46, 
			 "cosmo_cavitation_energy": 35.09, 
			 "cosmo_dispersion_energy": -25.46, 
			 "cosmo_repulsion_energy": 1.9, 
			 "cosmo_total_nonelectrostatic_energy": 11.53, 
			 "SMD_solvation_energy": 6.21 
		},
		"coords": [
			{
				"x": 1.9213876288,
				"y": 1.4187774262,
				"z": 1.1392465002,
				"element": "C" 
			},
			{
				"x": 0.515958256,
				"y": 1.315503579,
				"z": 0.5109928706,
				"element": "C" 
			},
			{
				"x": -0.4925630553,
				"y": 0.9278641444,
				"z": 1.6134189599,
				"element": "C" 
			},
			{
				"x": 0.1366507435,
				"y": 2.7210719971,
				"z": -0.010695155,
				"element": "C" 
			},
			{
				"x": 0.5428847385,
				"y": 0.3293091005,
				"z": -0.715829509,
				"element": "C" 
			},
			{
				"x": 1.3423500809,
				"y": -0.9877453396,
				"z": -0.5518409805,
				"element": "C" 
			},
			{
				"x": 0.6922865499,
				"y": -2.0430477454,
				"z": 0.3625384127,
				"element": "C" 
			},
			{
				"x": -0.7741115932,
				"y": -2.1545467075,
				"z": 0.0592362481,
				"element": "C" 
			},
			{
				"x": -1.4905805134,
				"y": -1.2316246048,
				"z": -0.6705684737,
				"element": "C" 
			},
			{
				"x": -0.8559338434,
				"y": -0.0101843558,
				"z": -1.2958433366,
				"element": "C" 
			},
			{
				"x": -2.8650740071,
				"y": -1.5916136337,
				"z": -0.7789706381,
				"element": "C" 
			},
			{
				"x": -3.1811019339,
				"y": -2.7662106751,
				"z": -0.1336321031,
				"element": "C" 
			},
			{
				"x": -1.7691645037,
				"y": -3.4642469135,
				"z": 0.6151940069,
				"element": "S" 
			},
			{
				"x": -4.4608928235,
				"y": -3.4915332502,
				"z": -0.0161724565,
				"element": "C" 
			},
			{
				"x": -5.5669719046,
				"y": -2.8563053915,
				"z": -0.4926301044,
				"element": "O" 
			},
			{
				"x": -4.5581101037,
				"y": -4.5953719666,
				"z": 0.4713722779,
				"element": "O" 
			},
			{
				"x": 2.2191336669,
				"y": 0.4932836321,
				"z": 1.6420639385,
				"element": "H" 
			},
			{
				"x": 2.6823433837,
				"y": 1.6540801409,
				"z": 0.3858418305,
				"element": "H" 
			},
			{
				"x": 1.9428729343,
				"y": 2.2165913477,
				"z": 1.8895247744,
				"element": "H" 
			},
			{
				"x": -0.2618709336,
				"y": -0.0361502659,
				"z": 2.0735096875,
				"element": "H" 
			},
			{
				"x": -1.5176060506,
				"y": 0.8785056708,
				"z": 1.2347468123,
				"element": "H" 
			},
			{
				"x": -0.474915046,
				"y": 1.6805557501,
				"z": 2.4098402509,
				"element": "H" 
			},
			{
				"x": 0.1174900304,
				"y": 3.4433852908,
				"z": 0.8125655846,
				"element": "H" 
			},
			{
				"x": -0.8532678176,
				"y": 2.7371918447,
				"z": -0.4783227007,
				"element": "H" 
			},
			{
				"x": 0.8615093288,
				"y": 3.0788085496,
				"z": -0.7508005219,
				"element": "H" 
			},
			{
				"x": 1.0753050848,
				"y": 0.8872689985,
				"z": -1.497866685,
				"element": "H" 
			},
			{
				"x": 1.442220639,
				"y": -1.4266138801,
				"z": -1.5529484948,
				"element": "H" 
			},
			{
				"x": 2.3600398553,
				"y": -0.7842473128,
				"z": -0.2083846986,
				"element": "H" 
			},
			{
				"x": 1.1907383028,
				"y": -3.0096044776,
				"z": 0.2203314375,
				"element": "H" 
			},
			{
				"x": 0.8380672642,
				"y": -1.7840439665,
				"z": 1.4195279659,
				"element": "H" 
			},
			{
				"x": -1.5343475847,
				"y": 0.8450469055,
				"z": -1.2046472788,
				"element": "H" 
			},
			{
				"x": -0.7516064709,
				"y": -0.1856512039,
				"z": -2.3758662179,
				"element": "H" 
			},
			{
				"x": -3.5787247536,
				"y": -0.9933255051,
				"z": -1.3402436208,
				"element": "H" 
			},
			{
				"x": -5.3511955492,
				"y": -1.9528771823,
				"z": -0.7609885829,
				"element": "H" 
			}
		],
		 "valence_orbital": [ 
			{
				"type": "occ",
				"energy": -0.31091,
				"method": "rhf"
			},
			{
				"type": "occ",
				"energy": -0.30937,
				"method": "rhf"
			},
			{
				"type": "occ",
				"energy": -0.2713,
				"method": "rhf"
			},
			{
				"type": "occ",
				"energy": -0.25784,
				"method": "rhf"
			},
			{
				"type": "occ",
				"energy": -0.23615,
				"method": "rhf"
			},
			{
				"type": "unocc",
				"energy": -0.05411,
				"method": "rhf"
			},
			{
				"type": "unocc",
				"energy": 0.02291,
				"method": "rhf"
			},
			{
				"type": "unocc",
				"energy": 0.02971,
				"method": "rhf"
			},
			{
				"type": "unocc",
				"energy": 0.05548,
				"method": "rhf"
			},
			{
				"type": "unocc",
				"energy": 0.06106,
				"method": "rhf"
			}
		],
		"cosmo_sigma_profile": { 
			"-0.025": 0.0,
			"-0.024": 0.0,
			"-0.023": 0.0,
			"-0.022": 0.0,
			"-0.021": 0.0,
			"-0.02": 0.0,
			"-0.019": 0.374598175062,
			"-0.018": 0.952542619337,
			"-0.017": 1.06932879401,
			"-0.016": 1.40439354584,
			"-0.015": 0.724027501621,
			"-0.014": 0.417082925079,
			"-0.013": 0.589080496866,
			"-0.012": 1.53360829533,
			"-0.011": 1.7213455745,
			"-0.01": 0.915906625373,
			"-0.009": 1.4003747789,
			"-0.008": 1.95765596886,
			"-0.007": 1.86384226952,
			"-0.006": 1.53360838246,
			"-0.005": 4.61512779023,
			"-0.004": 14.0146150138,
			"-0.003": 25.7056035308,
			"-0.002": 45.7580292939,
			"-0.001": 34.467163426,
			"0.0": 25.0887458379,
			"0.001": 26.5889906698,
			"0.002": 26.2952245235,
			"0.003": 16.5956913019,
			"0.004": 7.30219269383,
			"0.005": 3.4921454328,
			"0.006": 2.84206178099,
			"0.007": 2.68097139269,
			"0.008": 2.76093370417,
			"0.009": 2.92088947508,
			"0.01": 4.8671208224,
			"0.011": 4.98974010636,
			"0.012": 5.7955406231,
			"0.013": 2.18606893889,
			"0.014": 0.217734428189,
			"0.015": 0.0,
			"0.016": 0.0,
			"0.017": 0.0,
			"0.018": 0.0,
			"0.019": 0.0,
			"0.02": 0.0,
			"0.021": 0.0,
			"0.022": 0.0,
			"0.023": 0.0,
			"0.024": 0.0,
			"0.025": 0.0
		}
	}
}
