{
	 "smiles": "CCCCC(=O)C1=CC=C(N)C=C1", 
	 "Tm": 347.65, 
	 "num_atms": 28, 
	 "gaussian": { 
		 "optdone": 1, 
		 "sigma_profile": "yes", 
		 "theory": "DFT", 
		 "functional": "B3LYP", 
		 "basiset": "6-31G**", 
		 "properties": { 
			 "R2extent": 3348.7399, 
			 "electric_dipole_moment_norm": 4.84172133337, 
			 "electric_quadrupole_moment_norm": 12.9820822475, 
			 "total_energy": -558.204029269, 
			 "HOMO_LUMO_gap": 0.17302, 
			 "cosmo_polarized_energy": -13.54, 
			 "cosmo_cavitation_energy": 30.32, 
			 "cosmo_dispersion_energy": -21.71, 
			 "cosmo_repulsion_energy": 1.74, 
			 "cosmo_total_nonelectrostatic_energy": 10.35, 
			 "SMD_solvation_energy": 5.28 
		},
		"coords": [
			{
				"x": 1.3696172084,
				"y": 2.2275755606,
				"z": 2.5030686125,
				"element": "C" 
			},
			{
				"x": 0.0777723421,
				"y": 2.1403838461,
				"z": 3.324013972,
				"element": "C" 
			},
			{
				"x": -0.9463288595,
				"y": 1.0985580002,
				"z": 2.8403823748,
				"element": "C" 
			},
			{
				"x": -1.6188538414,
				"y": 1.4037585118,
				"z": 1.4761954285,
				"element": "C" 
			},
			{
				"x": -0.804795616,
				"y": 1.0305909736,
				"z": 0.2385770307,
				"element": "C" 
			},
			{
				"x": -0.2632601692,
				"y": 1.9046365857,
				"z": -0.431523693,
				"element": "O" 
			},
			{
				"x": -0.6799855131,
				"y": -0.4028955468,
				"z": -0.1485629522,
				"element": "C" 
			},
			{
				"x": -1.3385128464,
				"y": -1.45581798,
				"z": 0.5101054754,
				"element": "C" 
			},
			{
				"x": -1.1849321088,
				"y": -2.7730065186,
				"z": 0.097568036,
				"element": "C" 
			},
			{
				"x": -0.3599934932,
				"y": -3.0870829722,
				"z": -0.999439593,
				"element": "C" 
			},
			{
				"x": -0.2409733411,
				"y": -4.3921358071,
				"z": -1.4461349306,
				"element": "N" 
			},
			{
				"x": 0.3019155919,
				"y": -2.0349515458,
				"z": -1.6665161225,
				"element": "C" 
			},
			{
				"x": 0.1398817088,
				"y": -0.7263408019,
				"z": -1.2460200967,
				"element": "C" 
			},
			{
				"x": 1.8675439217,
				"y": 1.2519860276,
				"z": 2.4474891773,
				"element": "H" 
			},
			{
				"x": 1.177585439,
				"y": 2.5630403873,
				"z": 1.4813365818,
				"element": "H" 
			},
			{
				"x": 2.0723283632,
				"y": 2.9303814918,
				"z": 2.9635030785,
				"element": "H" 
			},
			{
				"x": 0.33024045,
				"y": 1.9016615565,
				"z": 4.3657403817,
				"element": "H" 
			},
			{
				"x": -0.4064096626,
				"y": 3.1261629493,
				"z": 3.3494960722,
				"element": "H" 
			},
			{
				"x": -1.7418481843,
				"y": 1.0306354578,
				"z": 3.5929260044,
				"element": "H" 
			},
			{
				"x": -0.4730652923,
				"y": 0.1088339961,
				"z": 2.808733369,
				"element": "H" 
			},
			{
				"x": -2.5811485228,
				"y": 0.8797915052,
				"z": 1.4313412384,
				"element": "H" 
			},
			{
				"x": -1.8291969887,
				"y": 2.4747085406,
				"z": 1.3982956067,
				"element": "H" 
			},
			{
				"x": -1.9840471879,
				"y": -1.2532990195,
				"z": 1.3585188949,
				"element": "H" 
			},
			{
				"x": -1.7084985669,
				"y": -3.5707983363,
				"z": 0.6184549771,
				"element": "H" 
			},
			{
				"x": -0.4692081188,
				"y": -5.1217618574,
				"z": -0.7870472902,
				"element": "H" 
			},
			{
				"x": 0.5626791825,
				"y": -4.6039884066,
				"z": -2.0190117527,
				"element": "H" 
			},
			{
				"x": 0.9391747209,
				"y": -2.2608281672,
				"z": -2.5181834626,
				"element": "H" 
			},
			{
				"x": 0.6460193847,
				"y": 0.0867015692,
				"z": -1.7560064185,
				"element": "H" 
			}
		],
		 "valence_orbital": [ 
			{
				"type": "occ",
				"energy": -0.3142,
				"method": "rhf"
			},
			{
				"type": "occ",
				"energy": -0.30194,
				"method": "rhf"
			},
			{
				"type": "occ",
				"energy": -0.25502,
				"method": "rhf"
			},
			{
				"type": "occ",
				"energy": -0.23103,
				"method": "rhf"
			},
			{
				"type": "occ",
				"energy": -0.21147,
				"method": "rhf"
			},
			{
				"type": "unocc",
				"energy": -0.03845,
				"method": "rhf"
			},
			{
				"type": "unocc",
				"energy": -0.00359,
				"method": "rhf"
			},
			{
				"type": "unocc",
				"energy": 0.05204,
				"method": "rhf"
			},
			{
				"type": "unocc",
				"energy": 0.07328,
				"method": "rhf"
			},
			{
				"type": "unocc",
				"energy": 0.09268,
				"method": "rhf"
			}
		],
		"cosmo_sigma_profile": { 
			"-0.025": 0.0,
			"-0.024": 0.0,
			"-0.023": 0.0,
			"-0.022": 0.0,
			"-0.021": 0.0,
			"-0.02": 0.0,
			"-0.019": 0.0,
			"-0.018": 0.0,
			"-0.017": 0.0,
			"-0.016": 0.0,
			"-0.015": 0.0,
			"-0.014": 0.221353709611,
			"-0.013": 2.41756145316,
			"-0.012": 2.75875103973,
			"-0.011": 2.60501861371,
			"-0.01": 3.30768298273,
			"-0.009": 3.00770516341,
			"-0.008": 2.80709025624,
			"-0.007": 3.68840447896,
			"-0.006": 6.71328697237,
			"-0.005": 8.75436406183,
			"-0.004": 10.6947874688,
			"-0.003": 15.7217813184,
			"-0.002": 25.8464659257,
			"-0.001": 24.4454196301,
			"0.0": 24.8628553609,
			"0.001": 20.4613577354,
			"0.002": 14.9897899436,
			"0.003": 11.4279656799,
			"0.004": 12.9844143882,
			"0.005": 14.636911522,
			"0.006": 5.06984277147,
			"0.007": 2.63775252017,
			"0.008": 2.43567000415,
			"0.009": 2.4112108588,
			"0.01": 2.4525246148,
			"0.011": 2.60080626703,
			"0.012": 3.11542545071,
			"0.013": 3.53580397947,
			"0.014": 1.07633551658,
			"0.015": 0.0912650162186,
			"0.016": 0.0,
			"0.017": 0.0,
			"0.018": 0.0,
			"0.019": 0.0,
			"0.02": 0.0,
			"0.021": 0.0,
			"0.022": 0.0,
			"0.023": 0.0,
			"0.024": 0.0,
			"0.025": 0.0
		}
	}
}
