{
	 "smiles": "[O-][N+](=O)C1=C(C=CC=C1)N1CSC2=NN=C(N2C1)C1=CC=CC=C1", 
	 "Tm": 573.15, 
	 "num_atms": 37, 
	 "gaussian": { 
		 "optdone": 1, 
		 "sigma_profile": "yes", 
		 "theory": "DFT", 
		 "functional": "B3LYP", 
		 "basiset": "6-31G**", 
		 "properties": { 
			 "R2extent": 8648.9568, 
			 "electric_dipole_moment_norm": 10.1244794958, 
			 "electric_quadrupole_moment_norm": 21.9155319075, 
			 "total_energy": -1439.77571995, 
			 "HOMO_LUMO_gap": 0.11545, 
			 "cosmo_polarized_energy": -27.25, 
			 "cosmo_cavitation_energy": 42.28, 
			 "cosmo_dispersion_energy": -30.22, 
			 "cosmo_repulsion_energy": 2.2, 
			 "cosmo_total_nonelectrostatic_energy": 14.26, 
			 "SMD_solvation_energy": 5.34 
		},
		"coords": [
			{
				"x": 1.0465792252,
				"y": -4.0535576802,
				"z": -1.0100092627,
				"element": "O" 
			},
			{
				"x": 0.8396880129,
				"y": -2.8462085573,
				"z": -1.1258217387,
				"element": "N" 
			},
			{
				"x": 0.246963227,
				"y": -2.1627416639,
				"z": -0.2890475397,
				"element": "O" 
			},
			{
				"x": 1.3357706041,
				"y": -2.1945175104,
				"z": -2.3442700272,
				"element": "C" 
			},
			{
				"x": 1.6705255728,
				"y": -0.8173800556,
				"z": -2.3995289639,
				"element": "C" 
			},
			{
				"x": 2.2186334659,
				"y": -0.3550957185,
				"z": -3.6108796697,
				"element": "C" 
			},
			{
				"x": 2.4047855403,
				"y": -1.192281589,
				"z": -4.7067492774,
				"element": "C" 
			},
			{
				"x": 2.0450342585,
				"y": -2.5390224721,
				"z": -4.6321154692,
				"element": "C" 
			},
			{
				"x": 1.5219380303,
				"y": -3.0349849142,
				"z": -3.4451680441,
				"element": "C" 
			},
			{
				"x": 1.5457930216,
				"y": 0.0619896762,
				"z": -1.2980087111,
				"element": "N" 
			},
			{
				"x": 2.5760679532,
				"y": 1.0688364095,
				"z": -1.1170967355,
				"element": "C" 
			},
			{
				"x": 2.8624008916,
				"y": 1.4009519952,
				"z": 0.6786757499,
				"element": "S" 
			},
			{
				"x": 1.1649505703,
				"y": 1.5260153795,
				"z": 1.1343983317,
				"element": "C" 
			},
			{
				"x": 0.7265716496,
				"y": 2.0630119423,
				"z": 2.2465457832,
				"element": "N" 
			},
			{
				"x": -0.6419804706,
				"y": 1.8875661956,
				"z": 2.2639630738,
				"element": "N" 
			},
			{
				"x": -0.9913766562,
				"y": 1.250944445,
				"z": 1.1658495758,
				"element": "C" 
			},
			{
				"x": 0.1356463322,
				"y": 0.9747411473,
				"z": 0.4067157105,
				"element": "N" 
			},
			{
				"x": 0.213268322,
				"y": 0.5641005608,
				"z": -0.9954913678,
				"element": "C" 
			},
			{
				"x": -2.3764601018,
				"y": 0.9064615017,
				"z": 0.8063871087,
				"element": "C" 
			},
			{
				"x": -3.385376196,
				"y": 1.8570139685,
				"z": 1.0316043502,
				"element": "C" 
			},
			{
				"x": -4.7130427179,
				"y": 1.5573906616,
				"z": 0.7340234202,
				"element": "C" 
			},
			{
				"x": -5.0507698663,
				"y": 0.3082191612,
				"z": 0.2075386367,
				"element": "C" 
			},
			{
				"x": -4.0549791272,
				"y": -0.6473374814,
				"z": -0.0033150714,
				"element": "C" 
			},
			{
				"x": -2.7245423698,
				"y": -0.3567967298,
				"z": 0.2993235552,
				"element": "C" 
			},
			{
				"x": 2.4862319325,
				"y": 0.6930344378,
				"z": -3.6922574746,
				"element": "H" 
			},
			{
				"x": 2.8182206981,
				"y": -0.7857130011,
				"z": -5.6247690309,
				"element": "H" 
			},
			{
				"x": 2.1770672887,
				"y": -3.1971940105,
				"z": -5.4841633088,
				"element": "H" 
			},
			{
				"x": 1.2633984304,
				"y": -4.0807003613,
				"z": -3.3348589685,
				"element": "H" 
			},
			{
				"x": 3.5291439656,
				"y": 0.7007977864,
				"z": -1.4968639134,
				"element": "H" 
			},
			{
				"x": 2.3344217619,
				"y": 2.0210635614,
				"z": -1.6111881385,
				"element": "H" 
			},
			{
				"x": -0.517847235,
				"y": -0.2143080147,
				"z": -1.1810829189,
				"element": "H" 
			},
			{
				"x": -0.0244706141,
				"y": 1.4379143923,
				"z": -1.6267570257,
				"element": "H" 
			},
			{
				"x": -3.1119860771,
				"y": 2.8217391698,
				"z": 1.4455889547,
				"element": "H" 
			},
			{
				"x": -5.4849410711,
				"y": 2.3006184472,
				"z": 0.9114908437,
				"element": "H" 
			},
			{
				"x": -6.0858663863,
				"y": 0.0772008835,
				"z": -0.0270356704,
				"element": "H" 
			},
			{
				"x": -4.3150724711,
				"y": -1.6293448979,
				"z": -0.3878550739,
				"element": "H" 
			},
			{
				"x": -1.9658893944,
				"y": -1.1249270649,
				"z": 0.1843283075,
				"element": "H" 
			}
		],
		 "valence_orbital": [ 
			{
				"type": "occ",
				"energy": -0.26138,
				"method": "rhf"
			},
			{
				"type": "occ",
				"energy": -0.25593,
				"method": "rhf"
			},
			{
				"type": "occ",
				"energy": -0.25103,
				"method": "rhf"
			},
			{
				"type": "occ",
				"energy": -0.247,
				"method": "rhf"
			},
			{
				"type": "occ",
				"energy": -0.21634,
				"method": "rhf"
			},
			{
				"type": "unocc",
				"energy": -0.10089,
				"method": "rhf"
			},
			{
				"type": "unocc",
				"energy": -0.04528,
				"method": "rhf"
			},
			{
				"type": "unocc",
				"energy": -0.02968,
				"method": "rhf"
			},
			{
				"type": "unocc",
				"energy": -0.02357,
				"method": "rhf"
			},
			{
				"type": "unocc",
				"energy": -0.00726,
				"method": "rhf"
			}
		],
		"cosmo_sigma_profile": { 
			"-0.025": 0.0,
			"-0.024": 0.0,
			"-0.023": 0.0,
			"-0.022": 0.0,
			"-0.021": 0.0,
			"-0.02": 0.0,
			"-0.019": 0.0,
			"-0.018": 0.0,
			"-0.017": 0.0,
			"-0.016": 0.0,
			"-0.015": 0.0,
			"-0.014": 0.0,
			"-0.013": 0.0,
			"-0.012": 0.0,
			"-0.011": 0.0,
			"-0.01": 1.57061160435,
			"-0.009": 6.5654303887,
			"-0.008": 12.7920858303,
			"-0.007": 19.1542765235,
			"-0.006": 26.2608955725,
			"-0.005": 23.4237144926,
			"-0.004": 21.2761293692,
			"-0.003": 18.6833621255,
			"-0.002": 18.0474979067,
			"-0.001": 19.3455879287,
			"0.0": 22.0826318993,
			"0.001": 22.1876844902,
			"0.002": 25.5943208299,
			"0.003": 17.9222295551,
			"0.004": 20.0732561838,
			"0.005": 13.3766355836,
			"0.006": 9.0352210228,
			"0.007": 10.5672988385,
			"0.008": 8.10465148416,
			"0.009": 5.36027976787,
			"0.01": 4.47060189903,
			"0.011": 2.37067322296,
			"0.012": 2.76238938484,
			"0.013": 3.67154819574,
			"0.014": 2.97817874244,
			"0.015": 2.21854222612,
			"0.016": 2.01816209445,
			"0.017": 0.464658490179,
			"0.018": 0.0,
			"0.019": 0.0,
			"0.02": 0.0,
			"0.021": 0.0,
			"0.022": 0.0,
			"0.023": 0.0,
			"0.024": 0.0,
			"0.025": 0.0
		}
	}
}
