{
	 "smiles": "COC1=CC(COC2=C(C=O)C(Cl)=CC=C2)=CC=C1", 
	 "Tm": 338.15, 
	 "num_atms": 32, 
	 "gaussian": { 
		 "optdone": 1, 
		 "sigma_profile": "yes", 
		 "theory": "DFT", 
		 "functional": "B3LYP", 
		 "basiset": "6-31G**", 
		 "properties": { 
			 "R2extent": 7974.1117, 
			 "electric_dipole_moment_norm": 4.70670786113, 
			 "electric_quadrupole_moment_norm": 4.71118871093, 
			 "total_energy": -1265.25402431, 
			 "HOMO_LUMO_gap": 0.15504, 
			 "cosmo_polarized_energy": -11.46, 
			 "cosmo_cavitation_energy": 38.18, 
			 "cosmo_dispersion_energy": -26.68, 
			 "cosmo_repulsion_energy": 2.06, 
			 "cosmo_total_nonelectrostatic_energy": 13.56, 
			 "SMD_solvation_energy": 7.9 
		},
		"coords": [
			{
				"x": 1.8500231188,
				"y": -1.1214390206,
				"z": 4.2339393185,
				"element": "C" 
			},
			{
				"x": 1.0404715548,
				"y": -1.3547497417,
				"z": 3.0929259297,
				"element": "O" 
			},
			{
				"x": 0.6591060356,
				"y": -0.2818200224,
				"z": 2.3390326919,
				"element": "C" 
			},
			{
				"x": -0.1569700883,
				"y": -0.5740539612,
				"z": 1.2390461513,
				"element": "C" 
			},
			{
				"x": -0.6062121429,
				"y": 0.4436753343,
				"z": 0.3957836001,
				"element": "C" 
			},
			{
				"x": -1.5021207567,
				"y": 0.1152432343,
				"z": -0.7775057568,
				"element": "C" 
			},
			{
				"x": -0.911243007,
				"y": -0.8576534578,
				"z": -1.6727461953,
				"element": "O" 
			},
			{
				"x": 0.067133413,
				"y": -0.4244374274,
				"z": -2.5182525534,
				"element": "C" 
			},
			{
				"x": -0.2405125674,
				"y": 0.2397252027,
				"z": -3.737836825,
				"element": "C" 
			},
			{
				"x": -1.639476189,
				"y": 0.4774754601,
				"z": -4.180876729,
				"element": "C" 
			},
			{
				"x": -2.6266390097,
				"y": 0.4497236952,
				"z": -3.4689809273,
				"element": "O" 
			},
			{
				"x": 0.8435020038,
				"y": 0.5745717193,
				"z": -4.5769034965,
				"element": "C" 
			},
			{
				"x": 0.5777987259,
				"y": 1.429789533,
				"z": -6.0992945751,
				"element": "Cl" 
			},
			{
				"x": 2.1621405769,
				"y": 0.2773837473,
				"z": -4.2520308539,
				"element": "C" 
			},
			{
				"x": 2.4259826907,
				"y": -0.3962013672,
				"z": -3.0592260655,
				"element": "C" 
			},
			{
				"x": 1.3895677069,
				"y": -0.7464660791,
				"z": -2.199815987,
				"element": "C" 
			},
			{
				"x": -0.2331563735,
				"y": 1.7689762023,
				"z": 0.6575137933,
				"element": "C" 
			},
			{
				"x": 0.5723007765,
				"y": 2.0593686233,
				"z": 1.7569749533,
				"element": "C" 
			},
			{
				"x": 1.0258353288,
				"y": 1.0451650226,
				"z": 2.6033773925,
				"element": "C" 
			},
			{
				"x": 1.3467211609,
				"y": -0.4738555411,
				"z": 4.9635520303,
				"element": "H" 
			},
			{
				"x": 2.0249480487,
				"y": -2.0996547982,
				"z": 4.6845486957,
				"element": "H" 
			},
			{
				"x": 2.8146498478,
				"y": -0.6724369966,
				"z": 3.963326818,
				"element": "H" 
			},
			{
				"x": -0.4296304514,
				"y": -1.6088192769,
				"z": 1.0555490409,
				"element": "H" 
			},
			{
				"x": -1.7784804488,
				"y": 1.01307798,
				"z": -1.3337014342,
				"element": "H" 
			},
			{
				"x": -2.4254849197,
				"y": -0.3662994051,
				"z": -0.4456245207,
				"element": "H" 
			},
			{
				"x": -1.7413179793,
				"y": 0.6769291823,
				"z": -5.2632184431,
				"element": "H" 
			},
			{
				"x": 2.962086685,
				"y": 0.565530225,
				"z": -4.9238457976,
				"element": "H" 
			},
			{
				"x": 3.451363565,
				"y": -0.6413492297,
				"z": -2.7990738685,
				"element": "H" 
			},
			{
				"x": 1.5775344877,
				"y": -1.2682608716,
				"z": -1.2689453974,
				"element": "H" 
			},
			{
				"x": -0.5753314428,
				"y": 2.5663458358,
				"z": 0.0039387434,
				"element": "H" 
			},
			{
				"x": 0.8597125307,
				"y": 3.0869263274,
				"z": 1.961376708,
				"element": "H" 
			},
			{
				"x": 1.653097119,
				"y": 1.2938898717,
				"z": 3.4510935593,
				"element": "H" 
			}
		],
		 "valence_orbital": [ 
			{
				"type": "occ",
				"energy": -0.26641,
				"method": "rhf"
			},
			{
				"type": "occ",
				"energy": -0.25252,
				"method": "rhf"
			},
			{
				"type": "occ",
				"energy": -0.25105,
				"method": "rhf"
			},
			{
				"type": "occ",
				"energy": -0.24611,
				"method": "rhf"
			},
			{
				"type": "occ",
				"energy": -0.22312,
				"method": "rhf"
			},
			{
				"type": "unocc",
				"energy": -0.06808,
				"method": "rhf"
			},
			{
				"type": "unocc",
				"energy": -0.0199,
				"method": "rhf"
			},
			{
				"type": "unocc",
				"energy": -0.0114,
				"method": "rhf"
			},
			{
				"type": "unocc",
				"energy": 0.00945,
				"method": "rhf"
			},
			{
				"type": "unocc",
				"energy": 0.01691,
				"method": "rhf"
			}
		],
		"cosmo_sigma_profile": { 
			"-0.025": 0.0,
			"-0.024": 0.0,
			"-0.023": 0.0,
			"-0.022": 0.0,
			"-0.021": 0.0,
			"-0.02": 0.0,
			"-0.019": 0.0,
			"-0.018": 0.0,
			"-0.017": 0.0,
			"-0.016": 0.0,
			"-0.015": 0.0,
			"-0.014": 0.0,
			"-0.013": 0.0,
			"-0.012": 0.0,
			"-0.011": 0.0,
			"-0.01": 0.0,
			"-0.009": 0.0,
			"-0.008": 2.03667011414,
			"-0.007": 5.08520726694,
			"-0.006": 18.2868449968,
			"-0.005": 26.4141397932,
			"-0.004": 27.7825951787,
			"-0.003": 27.8740857095,
			"-0.002": 22.3658304733,
			"-0.001": 21.3329677842,
			"0.0": 20.831787883,
			"0.001": 27.1311698859,
			"0.002": 23.5205242882,
			"0.003": 21.2578640889,
			"0.004": 19.2746596583,
			"0.005": 11.9416879547,
			"0.006": 7.80958916315,
			"0.007": 3.52821738375,
			"0.008": 3.49212286359,
			"0.009": 4.78297925289,
			"0.01": 6.6676849241,
			"0.011": 4.07455310895,
			"0.012": 1.75434227073,
			"0.013": 0.30293925408,
			"0.014": 0.0,
			"0.015": 0.0,
			"0.016": 0.0,
			"0.017": 0.0,
			"0.018": 0.0,
			"0.019": 0.0,
			"0.02": 0.0,
			"0.021": 0.0,
			"0.022": 0.0,
			"0.023": 0.0,
			"0.024": 0.0,
			"0.025": 0.0
		}
	}
}
