{
	 "smiles": "CN1N=C(C)C(C=NOCC2=CC=C(C=C2)C(=O)OC(C)(C)C)=C1OC1=CC=CC=C1", 
	 "Tm": 375.15, 
	 "num_atms": 58, 
	 "gaussian": { 
		 "optdone": 1, 
		 "sigma_profile": "yes", 
		 "theory": "DFT", 
		 "functional": "B3LYP", 
		 "basiset": "6-31G**", 
		 "properties": { 
			 "R2extent": 24225.5569, 
			 "electric_dipole_moment_norm": 4.58695181248, 
			 "electric_quadrupole_moment_norm": 18.4354244448, 
			 "total_energy": -1395.92707059, 
			 "HOMO_LUMO_gap": 0.17755, 
			 "cosmo_polarized_energy": -16.57, 
			 "cosmo_cavitation_energy": 63.14, 
			 "cosmo_dispersion_energy": -41.79, 
			 "cosmo_repulsion_energy": 3.2, 
			 "cosmo_total_nonelectrostatic_energy": 24.55, 
			 "SMD_solvation_energy": 11.18 
		},
		"coords": [
			{
				"x": -2.594626945,
				"y": 3.0627238133,
				"z": 4.9116939681,
				"element": "C" 
			},
			{
				"x": -1.5935196201,
				"y": 2.6327243757,
				"z": 3.9559631203,
				"element": "N" 
			},
			{
				"x": -0.5839504853,
				"y": 1.8045117302,
				"z": 4.3398494206,
				"element": "N" 
			},
			{
				"x": 0.1620640369,
				"y": 1.6138263381,
				"z": 3.2541720858,
				"element": "C" 
			},
			{
				"x": 1.368204104,
				"y": 0.7324602817,
				"z": 3.3036273368,
				"element": "C" 
			},
			{
				"x": -0.3609803709,
				"y": 2.3306211933,
				"z": 2.1329344639,
				"element": "C" 
			},
			{
				"x": 0.0879977755,
				"y": 2.405537276,
				"z": 0.7603471596,
				"element": "C" 
			},
			{
				"x": 1.1572310526,
				"y": 1.8100607751,
				"z": 0.3674378567,
				"element": "N" 
			},
			{
				"x": 1.3697182452,
				"y": 2.0522433645,
				"z": -1.0046530555,
				"element": "O" 
			},
			{
				"x": 2.5260817911,
				"y": 1.3408427981,
				"z": -1.4316908793,
				"element": "C" 
			},
			{
				"x": 2.3063274105,
				"y": -0.1473015349,
				"z": -1.6146363581,
				"element": "C" 
			},
			{
				"x": 3.39158502,
				"y": -1.0294633714,
				"z": -1.535830604,
				"element": "C" 
			},
			{
				"x": 3.2156213733,
				"y": -2.391657124,
				"z": -1.7565717372,
				"element": "C" 
			},
			{
				"x": 1.9434048568,
				"y": -2.8993654614,
				"z": -2.0525398547,
				"element": "C" 
			},
			{
				"x": 0.8533321853,
				"y": -2.0208399816,
				"z": -2.1251394246,
				"element": "C" 
			},
			{
				"x": 1.0368396741,
				"y": -0.6572612887,
				"z": -1.9106753037,
				"element": "C" 
			},
			{
				"x": 1.8133491537,
				"y": -4.370954677,
				"z": -2.2732391239,
				"element": "C" 
			},
			{
				"x": 2.7561122176,
				"y": -5.1412216707,
				"z": -2.2136434849,
				"element": "O" 
			},
			{
				"x": 0.5404388926,
				"y": -4.7266405782,
				"z": -2.5426739071,
				"element": "O" 
			},
			{
				"x": 0.1640317824,
				"y": -6.1285585193,
				"z": -2.7961892507,
				"element": "C" 
			},
			{
				"x": 0.8871638888,
				"y": -6.6473813376,
				"z": -4.0439189931,
				"element": "C" 
			},
			{
				"x": -1.3434308373,
				"y": -6.0295002145,
				"z": -3.0439778846,
				"element": "C" 
			},
			{
				"x": 0.4561642852,
				"y": -6.9816054346,
				"z": -1.5568910676,
				"element": "C" 
			},
			{
				"x": -1.4856093833,
				"y": 2.9686364157,
				"z": 2.6473211764,
				"element": "C" 
			},
			{
				"x": -2.4260122565,
				"y": 3.7290119701,
				"z": 2.025142438,
				"element": "O" 
			},
			{
				"x": -2.27674865,
				"y": 5.1164702064,
				"z": 1.9900996376,
				"element": "C" 
			},
			{
				"x": -3.325502571,
				"y": 5.8151986334,
				"z": 1.3902482579,
				"element": "C" 
			},
			{
				"x": -3.2591708759,
				"y": 7.2046462829,
				"z": 1.3112508679,
				"element": "C" 
			},
			{
				"x": -2.157140021,
				"y": 7.8922404261,
				"z": 1.8274856447,
				"element": "C" 
			},
			{
				"x": -1.1182725479,
				"y": 7.1765220724,
				"z": 2.4223675381,
				"element": "C" 
			},
			{
				"x": -1.1675416932,
				"y": 5.7825781319,
				"z": 2.5095271963,
				"element": "C" 
			},
			{
				"x": -2.8805181403,
				"y": 2.2075389309,
				"z": 5.526084501,
				"element": "H" 
			},
			{
				"x": -3.463817578,
				"y": 3.4342674241,
				"z": 4.3676292655,
				"element": "H" 
			},
			{
				"x": -2.2049074542,
				"y": 3.8551042179,
				"z": 5.5586940849,
				"element": "H" 
			},
			{
				"x": 1.4749265852,
				"y": 0.312718219,
				"z": 4.306384471,
				"element": "H" 
			},
			{
				"x": 1.2901744126,
				"y": -0.0808845679,
				"z": 2.575328508,
				"element": "H" 
			},
			{
				"x": 2.2746468397,
				"y": 1.290393342,
				"z": 3.0472406198,
				"element": "H" 
			},
			{
				"x": -0.5114158061,
				"y": 2.9858725392,
				"z": 0.0544943391,
				"element": "H" 
			},
			{
				"x": 2.7820678937,
				"y": 1.8038924822,
				"z": -2.392611448,
				"element": "H" 
			},
			{
				"x": 3.3536960364,
				"y": 1.5227240983,
				"z": -0.7358211258,
				"element": "H" 
			},
			{
				"x": 4.380578638,
				"y": -0.6465576564,
				"z": -1.2949633047,
				"element": "H" 
			},
			{
				"x": 4.048741006,
				"y": -3.0836815853,
				"z": -1.6961642096,
				"element": "H" 
			},
			{
				"x": -0.132039043,
				"y": -2.4123448979,
				"z": -2.3498134019,
				"element": "H" 
			},
			{
				"x": 0.1935889387,
				"y": 0.0234888624,
				"z": -1.9611741339,
				"element": "H" 
			},
			{
				"x": 1.9627446598,
				"y": -6.7093137485,
				"z": -3.8779704765,
				"element": "H" 
			},
			{
				"x": 0.6965396926,
				"y": -5.9868797241,
				"z": -4.8956822674,
				"element": "H" 
			},
			{
				"x": 0.5105123618,
				"y": -7.6440337369,
				"z": -4.2963949125,
				"element": "H" 
			},
			{
				"x": -1.7570117247,
				"y": -7.0214929797,
				"z": -3.2489840477,
				"element": "H" 
			},
			{
				"x": -1.8524111891,
				"y": -5.6162786575,
				"z": -2.168265759,
				"element": "H" 
			},
			{
				"x": -1.5523214351,
				"y": -5.3832326397,
				"z": -3.9015524688,
				"element": "H" 
			},
			{
				"x": 1.5277262226,
				"y": -7.0471225589,
				"z": -1.3680057884,
				"element": "H" 
			},
			{
				"x": -0.0341581717,
				"y": -6.5535461747,
				"z": -0.6768913034,
				"element": "H" 
			},
			{
				"x": 0.0614132022,
				"y": -7.9917419563,
				"z": -1.7076444075,
				"element": "H" 
			},
			{
				"x": -4.1707917067,
				"y": 5.2612284527,
				"z": 0.9955088122,
				"element": "H" 
			},
			{
				"x": -4.0733012571,
				"y": 7.750918226,
				"z": 0.844036159,
				"element": "H" 
			},
			{
				"x": -2.1092246855,
				"y": 8.9747621979,
				"z": 1.7642179662,
				"element": "H" 
			},
			{
				"x": -0.2555504678,
				"y": 7.7002340561,
				"z": 2.8236821841,
				"element": "H" 
			},
			{
				"x": -0.3544493181,
				"y": 5.2261629446,
				"z": 2.9626409049,
				"element": "H" 
			}
		],
		 "valence_orbital": [ 
			{
				"type": "occ",
				"energy": -0.25035,
				"method": "rhf"
			},
			{
				"type": "occ",
				"energy": -0.244,
				"method": "rhf"
			},
			{
				"type": "occ",
				"energy": -0.24355,
				"method": "rhf"
			},
			{
				"type": "occ",
				"energy": -0.23984,
				"method": "rhf"
			},
			{
				"type": "occ",
				"energy": -0.21472,
				"method": "rhf"
			},
			{
				"type": "unocc",
				"energy": -0.03717,
				"method": "rhf"
			},
			{
				"type": "unocc",
				"energy": -0.02078,
				"method": "rhf"
			},
			{
				"type": "unocc",
				"energy": -0.0135,
				"method": "rhf"
			},
			{
				"type": "unocc",
				"energy": -0.00253,
				"method": "rhf"
			},
			{
				"type": "unocc",
				"energy": 0.0004,
				"method": "rhf"
			}
		],
		"cosmo_sigma_profile": { 
			"-0.025": 0.0,
			"-0.024": 0.0,
			"-0.023": 0.0,
			"-0.022": 0.0,
			"-0.021": 0.0,
			"-0.02": 0.0,
			"-0.019": 0.0,
			"-0.018": 0.0,
			"-0.017": 0.0,
			"-0.016": 0.0,
			"-0.015": 0.0,
			"-0.014": 0.0,
			"-0.013": 0.0,
			"-0.012": 0.0,
			"-0.011": 0.0,
			"-0.01": 0.0,
			"-0.009": 0.0,
			"-0.008": 0.0,
			"-0.007": 5.6541964929,
			"-0.006": 22.9747857117,
			"-0.005": 30.594561545,
			"-0.004": 48.0826969637,
			"-0.003": 47.8896788391,
			"-0.002": 42.656775028,
			"-0.001": 45.4295179392,
			"0.0": 53.7385948539,
			"0.001": 44.692518341,
			"0.002": 33.1650959662,
			"0.003": 30.7504344507,
			"0.004": 30.8475211723,
			"0.005": 21.6945200542,
			"0.006": 10.9512069512,
			"0.007": 7.78540437105,
			"0.008": 4.93129227949,
			"0.009": 4.92929666398,
			"0.01": 4.13382925834,
			"0.011": 2.80569554518,
			"0.012": 3.62998045725,
			"0.013": 1.49266509808,
			"0.014": 1.02390579452,
			"0.015": 0.60489693363,
			"0.016": 0.188483267312,
			"0.017": 0.0,
			"0.018": 0.0,
			"0.019": 0.0,
			"0.02": 0.0,
			"0.021": 0.0,
			"0.022": 0.0,
			"0.023": 0.0,
			"0.024": 0.0,
			"0.025": 0.0
		}
	}
}
