{
	 "smiles": "CC1=C(CCl)N=C(O1)C1=CC=CS1", 
	 "Tm": 339.15, 
	 "num_atms": 21, 
	 "gaussian": { 
		 "optdone": 1, 
		 "sigma_profile": "yes", 
		 "theory": "DFT", 
		 "functional": "B3LYP", 
		 "basiset": "6-31G**", 
		 "properties": { 
			 "R2extent": 4437.9423, 
			 "electric_dipole_moment_norm": 3.68740983483, 
			 "electric_quadrupole_moment_norm": 16.2142949023, 
			 "total_energy": -1336.12368008, 
			 "HOMO_LUMO_gap": 0.16383, 
			 "cosmo_polarized_energy": -10.48, 
			 "cosmo_cavitation_energy": 29.41, 
			 "cosmo_dispersion_energy": -21.88, 
			 "cosmo_repulsion_energy": 1.72, 
			 "cosmo_total_nonelectrostatic_energy": 9.25, 
			 "SMD_solvation_energy": 3.47 
		},
		"coords": [
			{
				"x": 2.9955748044,
				"y": -0.980663866,
				"z": 1.8264630559,
				"element": "C" 
			},
			{
				"x": 1.7401013892,
				"y": -0.3335817126,
				"z": 1.3695947291,
				"element": "C" 
			},
			{
				"x": 0.4473914786,
				"y": -0.3032390862,
				"z": 1.810717305,
				"element": "C" 
			},
			{
				"x": -0.1531619803,
				"y": -0.9825771008,
				"z": 2.9826615891,
				"element": "C" 
			},
			{
				"x": -0.1273061884,
				"y": 0.0547575543,
				"z": 4.5025308298,
				"element": "Cl" 
			},
			{
				"x": -0.3098593554,
				"y": 0.5034824336,
				"z": 0.970448688,
				"element": "N" 
			},
			{
				"x": 0.5288639998,
				"y": 0.9225287857,
				"z": 0.0681440008,
				"element": "C" 
			},
			{
				"x": 1.8028103558,
				"y": 0.4522350452,
				"z": 0.2449005013,
				"element": "O" 
			},
			{
				"x": 0.278799341,
				"y": 1.7870492128,
				"z": -1.0590388489,
				"element": "C" 
			},
			{
				"x": 1.1686232679,
				"y": 2.2240715047,
				"z": -2.0158145653,
				"element": "C" 
			},
			{
				"x": 0.5631676485,
				"y": 3.0724001517,
				"z": -2.983781122,
				"element": "C" 
			},
			{
				"x": -0.7729285422,
				"y": 3.2681139512,
				"z": -2.7511213137,
				"element": "C" 
			},
			{
				"x": -1.3222867152,
				"y": 2.4215653625,
				"z": -1.3435936225,
				"element": "S" 
			},
			{
				"x": 3.751550147,
				"y": -0.2329997926,
				"z": 2.091992366,
				"element": "H" 
			},
			{
				"x": 3.4216430692,
				"y": -1.6211770098,
				"z": 1.0460736955,
				"element": "H" 
			},
			{
				"x": 2.8032277429,
				"y": -1.592827041,
				"z": 2.7101763598,
				"element": "H" 
			},
			{
				"x": 0.3775491307,
				"y": -1.8965786666,
				"z": 3.2473878479,
				"element": "H" 
			},
			{
				"x": -1.2038371325,
				"y": -1.2024800116,
				"z": 2.799395369,
				"element": "H" 
			},
			{
				"x": 2.2145373637,
				"y": 1.9419683296,
				"z": -2.0151217022,
				"element": "H" 
			},
			{
				"x": 1.0974302571,
				"y": 3.5171327122,
				"z": -3.8152760877,
				"element": "H" 
			},
			{
				"x": -1.4705900821,
				"y": 3.8628192438,
				"z": -3.3246390749,
				"element": "H" 
			}
		],
		 "valence_orbital": [ 
			{
				"type": "occ",
				"energy": -0.29195,
				"method": "rhf"
			},
			{
				"type": "occ",
				"energy": -0.28997,
				"method": "rhf"
			},
			{
				"type": "occ",
				"energy": -0.27518,
				"method": "rhf"
			},
			{
				"type": "occ",
				"energy": -0.25906,
				"method": "rhf"
			},
			{
				"type": "occ",
				"energy": -0.21474,
				"method": "rhf"
			},
			{
				"type": "unocc",
				"energy": -0.05091,
				"method": "rhf"
			},
			{
				"type": "unocc",
				"energy": -0.01141,
				"method": "rhf"
			},
			{
				"type": "unocc",
				"energy": 0.02767,
				"method": "rhf"
			},
			{
				"type": "unocc",
				"energy": 0.0325,
				"method": "rhf"
			},
			{
				"type": "unocc",
				"energy": 0.06515,
				"method": "rhf"
			}
		],
		"cosmo_sigma_profile": { 
			"-0.025": 0.0,
			"-0.024": 0.0,
			"-0.023": 0.0,
			"-0.022": 0.0,
			"-0.021": 0.0,
			"-0.02": 0.0,
			"-0.019": 0.0,
			"-0.018": 0.0,
			"-0.017": 0.0,
			"-0.016": 0.0,
			"-0.015": 0.0,
			"-0.014": 0.0,
			"-0.013": 0.0,
			"-0.012": 0.0,
			"-0.011": 0.0,
			"-0.01": 0.0,
			"-0.009": 1.95748388698,
			"-0.008": 7.02847583713,
			"-0.007": 10.0573000993,
			"-0.006": 13.9700519391,
			"-0.005": 13.3927704663,
			"-0.004": 15.7991950981,
			"-0.003": 14.3955065762,
			"-0.002": 17.364933198,
			"-0.001": 16.6595002999,
			"0.0": 14.731791871,
			"0.001": 17.2012119158,
			"0.002": 19.0588687227,
			"0.003": 23.6592003945,
			"0.004": 17.1086860759,
			"0.005": 10.5298830029,
			"0.006": 11.3194812436,
			"0.007": 9.17593885386,
			"0.008": 1.2717834835,
			"0.009": 1.30500237177,
			"0.01": 1.32210555859,
			"0.011": 0.825468096829,
			"0.012": 1.02921420416,
			"0.013": 0.763167178367,
			"0.014": 0.31079189647,
			"0.015": 0.0,
			"0.016": 0.0,
			"0.017": 0.0,
			"0.018": 0.0,
			"0.019": 0.0,
			"0.02": 0.0,
			"0.021": 0.0,
			"0.022": 0.0,
			"0.023": 0.0,
			"0.024": 0.0,
			"0.025": 0.0
		}
	}
}
