{
	 "smiles": "[O-][N+](=NC1=CC=CC(NC(=O)C2=CC=CC=C2)=C1)C1=CC=CC(NC(=O)C2=CC=CC=C2)=C1", 
	 "Tm": 520.15, 
	 "num_atms": 53, 
	 "gaussian": { 
		 "optdone": 1, 
		 "sigma_profile": "yes", 
		 "theory": "DFT", 
		 "functional": "B3LYP", 
		 "basiset": "6-31G**", 
		 "properties": { 
			 "R2extent": 24270.7691, 
			 "electric_dipole_moment_norm": 1.52443071669, 
			 "electric_quadrupole_moment_norm": 42.9448517131, 
			 "total_energy": -1447.4514999, 
			 "HOMO_LUMO_gap": 0.1324, 
			 "cosmo_polarized_energy": -23.62, 
			 "cosmo_cavitation_energy": 59.38, 
			 "cosmo_dispersion_energy": -41.26, 
			 "cosmo_repulsion_energy": 3.06, 
			 "cosmo_total_nonelectrostatic_energy": 21.18, 
			 "SMD_solvation_energy": 11.01 
		},
		"coords": [
			{
				"x": 0.1808950409,
				"y": 1.1753909731,
				"z": -1.6293405176,
				"element": "O" 
			},
			{
				"x": 0.6582426641,
				"y": 2.2584504752,
				"z": -2.0617562842,
				"element": "N" 
			},
			{
				"x": 0.0752874296,
				"y": 3.3933737268,
				"z": -2.1618923399,
				"element": "N" 
			},
			{
				"x": -1.2578465041,
				"y": 3.5700077482,
				"z": -1.7766483805,
				"element": "C" 
			},
			{
				"x": -1.7061859846,
				"y": 4.8971741362,
				"z": -1.9544310569,
				"element": "C" 
			},
			{
				"x": -3.0071579711,
				"y": 5.2434832601,
				"z": -1.6213828931,
				"element": "C" 
			},
			{
				"x": -3.9009226667,
				"y": 4.2998938706,
				"z": -1.1086845296,
				"element": "C" 
			},
			{
				"x": -3.463318373,
				"y": 2.9785070153,
				"z": -0.9298354797,
				"element": "C" 
			},
			{
				"x": -4.2850916101,
				"y": 1.9561380047,
				"z": -0.4118065829,
				"element": "N" 
			},
			{
				"x": -5.6149130952,
				"y": 2.012520037,
				"z": -0.0524260818,
				"element": "C" 
			},
			{
				"x": -6.3118657769,
				"y": 3.0147181416,
				"z": -0.1755557985,
				"element": "O" 
			},
			{
				"x": -6.1795211715,
				"y": 0.7303121456,
				"z": 0.4962002696,
				"element": "C" 
			},
			{
				"x": -7.5680520833,
				"y": 0.5583437134,
				"z": 0.4091077432,
				"element": "C" 
			},
			{
				"x": -8.1669938818,
				"y": -0.6006715246,
				"z": 0.896052141,
				"element": "C" 
			},
			{
				"x": -7.3871167883,
				"y": -1.5957413664,
				"z": 1.491398567,
				"element": "C" 
			},
			{
				"x": -6.0065255277,
				"y": -1.4228125012,
				"z": 1.6032685844,
				"element": "C" 
			},
			{
				"x": -5.4042759926,
				"y": -0.2657302553,
				"z": 1.108433441,
				"element": "C" 
			},
			{
				"x": -2.1500537656,
				"y": 2.6121001901,
				"z": -1.2590567777,
				"element": "C" 
			},
			{
				"x": 2.0556804604,
				"y": 2.2364328275,
				"z": -2.509035324,
				"element": "C" 
			},
			{
				"x": 2.6508613653,
				"y": 3.3747854729,
				"z": -3.0554551848,
				"element": "C" 
			},
			{
				"x": 3.9731188474,
				"y": 3.2820947773,
				"z": -3.4832163859,
				"element": "C" 
			},
			{
				"x": 4.6866018652,
				"y": 2.0916269139,
				"z": -3.3488460305,
				"element": "C" 
			},
			{
				"x": 4.0743188551,
				"y": 0.9573868088,
				"z": -2.7953892517,
				"element": "C" 
			},
			{
				"x": 4.8218021523,
				"y": -0.2403588221,
				"z": -2.7238591684,
				"element": "N" 
			},
			{
				"x": 4.6947359654,
				"y": -1.3514527399,
				"z": -1.8966716106,
				"element": "C" 
			},
			{
				"x": 5.1095934418,
				"y": -2.4358802586,
				"z": -2.2868920816,
				"element": "O" 
			},
			{
				"x": 4.1342653472,
				"y": -1.1818673444,
				"z": -0.5181378759,
				"element": "C" 
			},
			{
				"x": 3.4822323795,
				"y": -2.2839310479,
				"z": 0.0525825742,
				"element": "C" 
			},
			{
				"x": 3.0007719854,
				"y": -2.2163683895,
				"z": 1.3578611008,
				"element": "C" 
			},
			{
				"x": 3.1915205157,
				"y": -1.0569586269,
				"z": 2.1138484674,
				"element": "C" 
			},
			{
				"x": 3.8652146756,
				"y": 0.034028246,
				"z": 1.5604941061,
				"element": "C" 
			},
			{
				"x": 4.3312212138,
				"y": -0.0235751809,
				"z": 0.2476076023,
				"element": "C" 
			},
			{
				"x": 2.7365531458,
				"y": 1.0285679945,
				"z": -2.3867185812,
				"element": "C" 
			},
			{
				"x": -1.0097068153,
				"y": 5.6257278622,
				"z": -2.3543494289,
				"element": "H" 
			},
			{
				"x": -3.3443159466,
				"y": 6.2661868197,
				"z": -1.7614496997,
				"element": "H" 
			},
			{
				"x": -4.9172793928,
				"y": 4.5633415864,
				"z": -0.8546894457,
				"element": "H" 
			},
			{
				"x": -3.85291668,
				"y": 1.044549153,
				"z": -0.3817770049,
				"element": "H" 
			},
			{
				"x": -8.1558311519,
				"y": 1.3495775248,
				"z": -0.0434959674,
				"element": "H" 
			},
			{
				"x": -9.2424395463,
				"y": -0.7283739854,
				"z": 0.814410015,
				"element": "H" 
			},
			{
				"x": -7.854345246,
				"y": -2.49833367,
				"z": 1.8745227134,
				"element": "H" 
			},
			{
				"x": -5.3983391798,
				"y": -2.1834210164,
				"z": 2.0838517177,
				"element": "H" 
			},
			{
				"x": -4.333893478,
				"y": -0.1328452464,
				"z": 1.2417911621,
				"element": "H" 
			},
			{
				"x": -1.8150260149,
				"y": 1.5954734689,
				"z": -1.117896671,
				"element": "H" 
			},
			{
				"x": 2.0843156773,
				"y": 4.2915252278,
				"z": -3.1406193823,
				"element": "H" 
			},
			{
				"x": 4.4580477796,
				"y": 4.1514867439,
				"z": -3.9160867388,
				"element": "H" 
			},
			{
				"x": 5.7239168193,
				"y": 2.0348744616,
				"z": -3.6660565495,
				"element": "H" 
			},
			{
				"x": 5.3740429881,
				"y": -0.4654418533,
				"z": -3.5432345559,
				"element": "H" 
			},
			{
				"x": 3.3697465543,
				"y": -3.1854278997,
				"z": -0.5403038247,
				"element": "H" 
			},
			{
				"x": 2.4852310574,
				"y": -3.0694520574,
				"z": 1.7890164477,
				"element": "H" 
			},
			{
				"x": 2.8226001114,
				"y": -1.0061040748,
				"z": 3.1342769088,
				"element": "H" 
			},
			{
				"x": 4.0300028959,
				"y": 0.9297129656,
				"z": 2.1520584695,
				"element": "H" 
			},
			{
				"x": 4.8622447577,
				"y": 0.823213256,
				"z": -0.1738705677,
				"element": "H" 
			},
			{
				"x": 2.2145686524,
				"y": 0.1719423124,
				"z": -1.985013978,
				"element": "H" 
			}
		],
		 "valence_orbital": [ 
			{
				"type": "occ",
				"energy": -0.25274,
				"method": "rhf"
			},
			{
				"type": "occ",
				"energy": -0.25169,
				"method": "rhf"
			},
			{
				"type": "occ",
				"energy": -0.24192,
				"method": "rhf"
			},
			{
				"type": "occ",
				"energy": -0.23378,
				"method": "rhf"
			},
			{
				"type": "occ",
				"energy": -0.21747,
				"method": "rhf"
			},
			{
				"type": "unocc",
				"energy": -0.08507,
				"method": "rhf"
			},
			{
				"type": "unocc",
				"energy": -0.04672,
				"method": "rhf"
			},
			{
				"type": "unocc",
				"energy": -0.0451,
				"method": "rhf"
			},
			{
				"type": "unocc",
				"energy": -0.01761,
				"method": "rhf"
			},
			{
				"type": "unocc",
				"energy": -0.01347,
				"method": "rhf"
			}
		],
		"cosmo_sigma_profile": { 
			"-0.025": 0.0,
			"-0.024": 0.0,
			"-0.023": 0.0,
			"-0.022": 0.0,
			"-0.021": 0.0,
			"-0.02": 0.0,
			"-0.019": 0.0,
			"-0.018": 0.0,
			"-0.017": 0.0,
			"-0.016": 0.0,
			"-0.015": 1.13360585829,
			"-0.014": 2.21457018461,
			"-0.013": 2.74744232356,
			"-0.012": 1.7971095043,
			"-0.011": 2.90857690014,
			"-0.01": 2.70016449801,
			"-0.009": 2.55648054988,
			"-0.008": 3.54880597994,
			"-0.007": 9.91936347228,
			"-0.006": 28.1979248046,
			"-0.005": 33.4041150637,
			"-0.004": 34.4605094539,
			"-0.003": 27.4153061173,
			"-0.002": 29.67429694,
			"-0.001": 31.2570716608,
			"0.0": 34.2644574105,
			"0.001": 40.4482370647,
			"0.002": 44.7647840253,
			"0.003": 47.4505891419,
			"0.004": 38.981834908,
			"0.005": 12.632280906,
			"0.006": 5.70365494588,
			"0.007": 5.99975433117,
			"0.008": 5.34032951201,
			"0.009": 5.63213708385,
			"0.01": 4.87344378867,
			"0.011": 4.09423413865,
			"0.012": 6.62140509147,
			"0.013": 6.59855020249,
			"0.014": 0.727395214064,
			"0.015": 0.0,
			"0.016": 0.0,
			"0.017": 0.0,
			"0.018": 0.0,
			"0.019": 0.0,
			"0.02": 0.0,
			"0.021": 0.0,
			"0.022": 0.0,
			"0.023": 0.0,
			"0.024": 0.0,
			"0.025": 0.0
		}
	}
}
