{
	 "smiles": "CC1=C(N=C(N)S1)C1=CC=C(Cl)C=C1", 
	 "Tm": 420.15, 
	 "num_atms": 23, 
	 "gaussian": { 
		 "optdone": 1, 
		 "sigma_profile": "yes", 
		 "theory": "DFT", 
		 "functional": "B3LYP", 
		 "basiset": "6-31G**", 
		 "properties": { 
			 "R2extent": 5131.1477, 
			 "electric_dipole_moment_norm": 3.59939146107, 
			 "electric_quadrupole_moment_norm": 12.2081330702, 
			 "total_energy": -1354.37961786, 
			 "HOMO_LUMO_gap": 0.17174, 
			 "cosmo_polarized_energy": -11.17, 
			 "cosmo_cavitation_energy": 30.42, 
			 "cosmo_dispersion_energy": -23.06, 
			 "cosmo_repulsion_energy": 1.78, 
			 "cosmo_total_nonelectrostatic_energy": 9.14, 
			 "SMD_solvation_energy": 3.19 
		},
		"coords": [
			{
				"x": 1.7731908745,
				"y": -0.0248344174,
				"z": 2.8383029414,
				"element": "C" 
			},
			{
				"x": 0.6242064151,
				"y": 0.7868897977,
				"z": 2.3176366752,
				"element": "C" 
			},
			{
				"x": -0.3308065101,
				"y": 0.5041365686,
				"z": 1.3705550161,
				"element": "C" 
			},
			{
				"x": -1.1903386398,
				"y": 1.5485560779,
				"z": 1.0419684681,
				"element": "N" 
			},
			{
				"x": -0.9383534446,
				"y": 2.6104615235,
				"z": 1.7424847792,
				"element": "C" 
			},
			{
				"x": -1.6909352899,
				"y": 3.7638959438,
				"z": 1.6963571239,
				"element": "N" 
			},
			{
				"x": 0.4013480023,
				"y": 2.4417469725,
				"z": 2.8808972593,
				"element": "S" 
			},
			{
				"x": -0.5010717873,
				"y": -0.7680274816,
				"z": 0.6385155989,
				"element": "C" 
			},
			{
				"x": -1.0030940856,
				"y": -0.7433541587,
				"z": -0.6750036586,
				"element": "C" 
			},
			{
				"x": -1.1733373143,
				"y": -1.9152013083,
				"z": -1.4058225917,
				"element": "C" 
			},
			{
				"x": -0.8477742602,
				"y": -3.1383450261,
				"z": -0.8186264292,
				"element": "C" 
			},
			{
				"x": -1.0579796355,
				"y": -4.6248595475,
				"z": -1.7358098475,
				"element": "Cl" 
			},
			{
				"x": -0.3715533249,
				"y": -3.1993204191,
				"z": 0.4890788595,
				"element": "C" 
			},
			{
				"x": -0.207095447,
				"y": -2.0171006383,
				"z": 1.2102889426,
				"element": "C" 
			},
			{
				"x": 2.6559265021,
				"y": 0.601772454,
				"z": 3.0023091462,
				"element": "H" 
			},
			{
				"x": 1.5426521923,
				"y": -0.5160324197,
				"z": 3.7924436505,
				"element": "H" 
			},
			{
				"x": 2.0467455495,
				"y": -0.8013346935,
				"z": 2.1196372336,
				"element": "H" 
			},
			{
				"x": -1.1996500303,
				"y": 4.633030525,
				"z": 1.8516870592,
				"element": "H" 
			},
			{
				"x": -2.3174069911,
				"y": 3.786989509,
				"z": 0.901786852,
				"element": "H" 
			},
			{
				"x": -1.2631241701,
				"y": 0.2127553179,
				"z": -1.1151627081,
				"element": "H" 
			},
			{
				"x": -1.5546462267,
				"y": -1.8841709389,
				"z": -2.420650701,
				"element": "H" 
			},
			{
				"x": -0.147359713,
				"y": -4.1584864093,
				"z": 0.9426716879,
				"element": "H" 
			},
			{
				"x": 0.1210573348,
				"y": -2.0782672316,
				"z": 2.2417546424,
				"element": "H" 
			}
		],
		 "valence_orbital": [ 
			{
				"type": "occ",
				"energy": -0.27794,
				"method": "rhf"
			},
			{
				"type": "occ",
				"energy": -0.27334,
				"method": "rhf"
			},
			{
				"type": "occ",
				"energy": -0.25802,
				"method": "rhf"
			},
			{
				"type": "occ",
				"energy": -0.24353,
				"method": "rhf"
			},
			{
				"type": "occ",
				"energy": -0.20195,
				"method": "rhf"
			},
			{
				"type": "unocc",
				"energy": -0.03021,
				"method": "rhf"
			},
			{
				"type": "unocc",
				"energy": -0.00965,
				"method": "rhf"
			},
			{
				"type": "unocc",
				"energy": 0.00448,
				"method": "rhf"
			},
			{
				"type": "unocc",
				"energy": 0.01162,
				"method": "rhf"
			},
			{
				"type": "unocc",
				"energy": 0.0356,
				"method": "rhf"
			}
		],
		"cosmo_sigma_profile": { 
			"-0.025": 0.0,
			"-0.024": 0.0,
			"-0.023": 0.0,
			"-0.022": 0.0,
			"-0.021": 0.0,
			"-0.02": 0.0,
			"-0.019": 0.0,
			"-0.018": 0.0,
			"-0.017": 0.0,
			"-0.016": 0.0,
			"-0.015": 0.181414681348,
			"-0.014": 1.52463864315,
			"-0.013": 2.91229080244,
			"-0.012": 2.69115652475,
			"-0.011": 2.27113151453,
			"-0.01": 2.54467338021,
			"-0.009": 1.87347176909,
			"-0.008": 1.58666698647,
			"-0.007": 5.77567515811,
			"-0.006": 6.75756751437,
			"-0.005": 14.3605429162,
			"-0.004": 13.9696221938,
			"-0.003": 15.3468598814,
			"-0.002": 15.9874269012,
			"-0.001": 16.6996299685,
			"0.0": 14.9479574924,
			"0.001": 15.7501736239,
			"0.002": 26.1061454812,
			"0.003": 29.2499021981,
			"0.004": 27.2001599253,
			"0.005": 13.7064701314,
			"0.006": 3.67731399536,
			"0.007": 2.98312363243,
			"0.008": 2.15439865401,
			"0.009": 2.02311134051,
			"0.01": 1.38097003809,
			"0.011": 1.86099649348,
			"0.012": 1.23266313858,
			"0.013": 0.545798439871,
			"0.014": 0.350820555262,
			"0.015": 0.0240359683595,
			"0.016": 0.0,
			"0.017": 0.0,
			"0.018": 0.0,
			"0.019": 0.0,
			"0.02": 0.0,
			"0.021": 0.0,
			"0.022": 0.0,
			"0.023": 0.0,
			"0.024": 0.0,
			"0.025": 0.0
		}
	}
}
