{
	 "smiles": "NC1=CC=CC=C1C=CC1=CC(C=CC2=CC=CC=C2)=C(C=C1[N+]([O-])=O)[N+]([O-])=O", 
	 "Tm": 466.15, 
	 "num_atms": 46, 
	 "gaussian": { 
		 "optdone": 1, 
		 "sigma_profile": "yes", 
		 "theory": "DFT", 
		 "functional": "B3LYP", 
		 "basiset": "6-31G**", 
		 "properties": { 
			 "R2extent": 17708.4976, 
			 "electric_dipole_moment_norm": 8.68437882062, 
			 "electric_quadrupole_moment_norm": 18.1450978766, 
			 "total_energy": -1313.51451684, 
			 "HOMO_LUMO_gap": 0.10502, 
			 "cosmo_polarized_energy": -21.53, 
			 "cosmo_cavitation_energy": 52.72, 
			 "cosmo_dispersion_energy": -36.31, 
			 "cosmo_repulsion_energy": 2.69, 
			 "cosmo_total_nonelectrostatic_energy": 19.1, 
			 "SMD_solvation_energy": 12.67 
		},
		"coords": [
			{
				"x": 3.0586017948,
				"y": -2.0322034425,
				"z": 0.894913683,
				"element": "N" 
			},
			{
				"x": 3.1101701248,
				"y": -2.2914360989,
				"z": 2.2695999772,
				"element": "C" 
			},
			{
				"x": 4.0560228511,
				"y": -3.1904290168,
				"z": 2.7866236262,
				"element": "C" 
			},
			{
				"x": 4.1275345726,
				"y": -3.4428335897,
				"z": 4.1524613318,
				"element": "C" 
			},
			{
				"x": 3.2486756403,
				"y": -2.8064427174,
				"z": 5.035468175,
				"element": "C" 
			},
			{
				"x": 2.3170197988,
				"y": -1.9052285115,
				"z": 4.5355613836,
				"element": "C" 
			},
			{
				"x": 2.2289472687,
				"y": -1.6199683668,
				"z": 3.1592226478,
				"element": "C" 
			},
			{
				"x": 1.3021373517,
				"y": -0.6149376171,
				"z": 2.6409924995,
				"element": "C" 
			},
			{
				"x": 0.1399293787,
				"y": -0.2443493761,
				"z": 3.2243729555,
				"element": "C" 
			},
			{
				"x": -0.7465707433,
				"y": 0.8037508144,
				"z": 2.7167691482,
				"element": "C" 
			},
			{
				"x": -0.7578701653,
				"y": 1.1215835219,
				"z": 1.3471213795,
				"element": "C" 
			},
			{
				"x": -1.5767980852,
				"y": 2.0903426726,
				"z": 0.746348874,
				"element": "C" 
			},
			{
				"x": -1.4830673231,
				"y": 2.3180054736,
				"z": -0.6990777054,
				"element": "C" 
			},
			{
				"x": -0.3380301451,
				"y": 2.1790618732,
				"z": -1.4014516755,
				"element": "C" 
			},
			{
				"x": -0.1648327014,
				"y": 2.3514392337,
				"z": -2.8450464062,
				"element": "C" 
			},
			{
				"x": -1.2325392389,
				"y": 2.6100631598,
				"z": -3.7277112439,
				"element": "C" 
			},
			{
				"x": -1.0056318213,
				"y": 2.7642043137,
				"z": -5.091078813,
				"element": "C" 
			},
			{
				"x": 0.2896574241,
				"y": 2.662457637,
				"z": -5.6096829391,
				"element": "C" 
			},
			{
				"x": 1.3584037888,
				"y": 2.4047240411,
				"z": -4.7501975758,
				"element": "C" 
			},
			{
				"x": 1.1315664492,
				"y": 2.2509390497,
				"z": -3.3841545079,
				"element": "C" 
			},
			{
				"x": -2.507405073,
				"y": 2.7311409812,
				"z": 1.6067916493,
				"element": "C" 
			},
			{
				"x": -2.573450022,
				"y": 2.4206338482,
				"z": 2.9580305275,
				"element": "C" 
			},
			{
				"x": -1.6993877703,
				"y": 1.4945920371,
				"z": 3.5110082366,
				"element": "C" 
			},
			{
				"x": -1.8115613221,
				"y": 1.30828874,
				"z": 4.966363874,
				"element": "N" 
			},
			{
				"x": -2.8575789405,
				"y": 1.6691377954,
				"z": 5.5047232184,
				"element": "O" 
			},
			{
				"x": -0.852331707,
				"y": 0.8252873193,
				"z": 5.5721770225,
				"element": "O" 
			},
			{
				"x": -3.4309432614,
				"y": 3.7785702682,
				"z": 1.146696557,
				"element": "N" 
			},
			{
				"x": -3.2313685711,
				"y": 4.2945659906,
				"z": 0.0446967401,
				"element": "O" 
			},
			{
				"x": -4.3513723966,
				"y": 4.0960425273,
				"z": 1.8997315989,
				"element": "O" 
			},
			{
				"x": 2.1277451941,
				"y": -1.9435141045,
				"z": 0.5104955646,
				"element": "H" 
			},
			{
				"x": 3.6199096328,
				"y": -2.6618315159,
				"z": 0.336688515,
				"element": "H" 
			},
			{
				"x": 4.729357236,
				"y": -3.7014084014,
				"z": 2.10234613,
				"element": "H" 
			},
			{
				"x": 4.8682164539,
				"y": -4.1428484064,
				"z": 4.5283267007,
				"element": "H" 
			},
			{
				"x": 3.3060959517,
				"y": -2.9962659124,
				"z": 6.1023473326,
				"element": "H" 
			},
			{
				"x": 1.6680293171,
				"y": -1.3681515043,
				"z": 5.2204503993,
				"element": "H" 
			},
			{
				"x": 1.6275967006,
				"y": -0.1096758949,
				"z": 1.7326594604,
				"element": "H" 
			},
			{
				"x": -0.1608912127,
				"y": -0.7272566604,
				"z": 4.1443685762,
				"element": "H" 
			},
			{
				"x": -0.1268684633,
				"y": 0.5351375997,
				"z": 0.6918994569,
				"element": "H" 
			},
			{
				"x": -2.3846588797,
				"y": 2.647912139,
				"z": -1.1969440041,
				"element": "H" 
			},
			{
				"x": 0.5789223534,
				"y": 1.9477465931,
				"z": -0.8610273235,
				"element": "H" 
			},
			{
				"x": -2.2453008859,
				"y": 2.6906458643,
				"z": -3.3460611326,
				"element": "H" 
			},
			{
				"x": -1.8416881894,
				"y": 2.9643905117,
				"z": -5.754819032,
				"element": "H" 
			},
			{
				"x": 0.4615132766,
				"y": 2.7837454383,
				"z": -6.6750923959,
				"element": "H" 
			},
			{
				"x": 2.3679953548,
				"y": 2.3248912468,
				"z": -5.142555388,
				"element": "H" 
			},
			{
				"x": 1.967590273,
				"y": 2.0536712564,
				"z": -2.7176049917,
				"element": "H" 
			},
			{
				"x": -3.295291269,
				"y": 2.9208091898,
				"z": 3.5880478934,
				"element": "H" 
			}
		],
		 "valence_orbital": [ 
			{
				"type": "occ",
				"energy": -0.28281,
				"method": "rhf"
			},
			{
				"type": "occ",
				"energy": -0.26463,
				"method": "rhf"
			},
			{
				"type": "occ",
				"energy": -0.24014,
				"method": "rhf"
			},
			{
				"type": "occ",
				"energy": -0.23193,
				"method": "rhf"
			},
			{
				"type": "occ",
				"energy": -0.21386,
				"method": "rhf"
			},
			{
				"type": "unocc",
				"energy": -0.10884,
				"method": "rhf"
			},
			{
				"type": "unocc",
				"energy": -0.09174,
				"method": "rhf"
			},
			{
				"type": "unocc",
				"energy": -0.06184,
				"method": "rhf"
			},
			{
				"type": "unocc",
				"energy": -0.04279,
				"method": "rhf"
			},
			{
				"type": "unocc",
				"energy": -0.01498,
				"method": "rhf"
			}
		],
		"cosmo_sigma_profile": { 
			"-0.025": 0.0,
			"-0.024": 0.0,
			"-0.023": 0.0,
			"-0.022": 0.0,
			"-0.021": 0.0,
			"-0.02": 0.0,
			"-0.019": 0.0,
			"-0.018": 0.0,
			"-0.017": 0.0,
			"-0.016": 0.0,
			"-0.015": 0.0,
			"-0.014": 0.0,
			"-0.013": 0.89312040944,
			"-0.012": 2.73215580086,
			"-0.011": 3.71010858411,
			"-0.01": 3.02452892345,
			"-0.009": 4.47845280513,
			"-0.008": 7.76939448435,
			"-0.007": 12.4690347802,
			"-0.006": 21.4705015143,
			"-0.005": 28.2256598797,
			"-0.004": 32.6512129541,
			"-0.003": 26.0778831203,
			"-0.002": 30.5714462092,
			"-0.001": 29.5453856173,
			"0.0": 28.3949588358,
			"0.001": 22.7453650672,
			"0.002": 26.4057410144,
			"0.003": 28.3688569034,
			"0.004": 27.3407673982,
			"0.005": 26.1586570821,
			"0.006": 15.9844810145,
			"0.007": 15.4361919777,
			"0.008": 12.9896424331,
			"0.009": 9.0755834439,
			"0.01": 5.44524717977,
			"0.011": 0.651655238432,
			"0.012": 0.617325587499,
			"0.013": 0.367110756998,
			"0.014": 0.278807775589,
			"0.015": 0.0,
			"0.016": 0.0,
			"0.017": 0.0,
			"0.018": 0.0,
			"0.019": 0.0,
			"0.02": 0.0,
			"0.021": 0.0,
			"0.022": 0.0,
			"0.023": 0.0,
			"0.024": 0.0,
			"0.025": 0.0
		}
	}
}
