{
	 "smiles": "CC(C)(C)OC(=O)C1=CC(C=O)=CC=C1", 
	 "Tm": 305.15, 
	 "num_atms": 29, 
	 "gaussian": { 
		 "optdone": 1, 
		 "sigma_profile": "yes", 
		 "theory": "DFT", 
		 "functional": "B3LYP", 
		 "basiset": "6-31G**", 
		 "properties": { 
			 "R2extent": 6279.8848, 
			 "electric_dipole_moment_norm": 4.95843819161, 
			 "electric_quadrupole_moment_norm": 27.7173879669, 
			 "total_energy": -691.40931648, 
			 "HOMO_LUMO_gap": 0.18878, 
			 "cosmo_polarized_energy": -11.35, 
			 "cosmo_cavitation_energy": 32.83, 
			 "cosmo_dispersion_energy": -22.87, 
			 "cosmo_repulsion_energy": 1.78, 
			 "cosmo_total_nonelectrostatic_energy": 11.74, 
			 "SMD_solvation_energy": 7.7 
		},
		"coords": [
			{
				"x": 0.0865282143,
				"y": -1.7180278533,
				"z": -1.1639599551,
				"element": "C" 
			},
			{
				"x": -1.1640210048,
				"y": -1.3109291955,
				"z": -0.3812595641,
				"element": "C" 
			},
			{
				"x": -2.4134671114,
				"y": -1.4010034459,
				"z": -1.2633649533,
				"element": "C" 
			},
			{
				"x": -1.2956759055,
				"y": -2.1341041302,
				"z": 0.9041083992,
				"element": "C" 
			},
			{
				"x": -0.8871561953,
				"y": 0.1013934553,
				"z": -0.0465708614,
				"element": "O" 
			},
			{
				"x": -1.7606592321,
				"y": 0.8468016864,
				"z": 0.6554222259,
				"element": "C" 
			},
			{
				"x": -2.8343555295,
				"y": 0.4633806266,
				"z": 1.0803604553,
				"element": "O" 
			},
			{
				"x": -1.2533510107,
				"y": 2.2423358868,
				"z": 0.8636394194,
				"element": "C" 
			},
			{
				"x": -2.0591934616,
				"y": 3.1295652893,
				"z": 1.5788888911,
				"element": "C" 
			},
			{
				"x": -1.6308274323,
				"y": 4.4441288699,
				"z": 1.8001941468,
				"element": "C" 
			},
			{
				"x": -2.482442864,
				"y": 5.3912700227,
				"z": 2.5592658742,
				"element": "C" 
			},
			{
				"x": -3.5694373065,
				"y": 5.1194703989,
				"z": 3.0295863915,
				"element": "O" 
			},
			{
				"x": -0.3911574534,
				"y": 4.8675090671,
				"z": 1.3020671788,
				"element": "C" 
			},
			{
				"x": 0.4163978089,
				"y": 3.9835260542,
				"z": 0.587071899,
				"element": "C" 
			},
			{
				"x": -0.0120026565,
				"y": 2.674724165,
				"z": 0.3677318396,
				"element": "C" 
			},
			{
				"x": 0.0088464866,
				"y": -2.7632448571,
				"z": -1.4774282565,
				"element": "H" 
			},
			{
				"x": 0.9826707476,
				"y": -1.6082333291,
				"z": -0.5462272221,
				"element": "H" 
			},
			{
				"x": 0.2033936705,
				"y": -1.0972147722,
				"z": -2.0570725147,
				"element": "H" 
			},
			{
				"x": -3.3065962864,
				"y": -1.1010841717,
				"z": -0.714985431,
				"element": "H" 
			},
			{
				"x": -2.5416150409,
				"y": -2.4321950494,
				"z": -1.608044356,
				"element": "H" 
			},
			{
				"x": -2.3048764163,
				"y": -0.7603960605,
				"z": -2.1441510523,
				"element": "H" 
			},
			{
				"x": -1.3777109323,
				"y": -3.1956126777,
				"z": 0.6490958662,
				"element": "H" 
			},
			{
				"x": -0.4088521431,
				"y": -2.0040671392,
				"z": 1.5322714821,
				"element": "H" 
			},
			{
				"x": -2.178544666,
				"y": -1.8407329142,
				"z": 1.4722618481,
				"element": "H" 
			},
			{
				"x": -3.018605159,
				"y": 2.8022120617,
				"z": 1.9644373299,
				"element": "H" 
			},
			{
				"x": -2.0470195854,
				"y": 6.4092106399,
				"z": 2.6769628333,
				"element": "H" 
			},
			{
				"x": -0.0643855793,
				"y": 5.8900833492,
				"z": 1.477492475,
				"element": "H" 
			},
			{
				"x": 1.3768065584,
				"y": 4.3110693512,
				"z": 0.2009929916,
				"element": "H" 
			},
			{
				"x": 0.6073094861,
				"y": 1.9792646716,
				"z": -0.1865873804,
				"element": "H" 
			}
		],
		 "valence_orbital": [ 
			{
				"type": "occ",
				"energy": -0.29995,
				"method": "rhf"
			},
			{
				"type": "occ",
				"energy": -0.27211,
				"method": "rhf"
			},
			{
				"type": "occ",
				"energy": -0.27091,
				"method": "rhf"
			},
			{
				"type": "occ",
				"energy": -0.2691,
				"method": "rhf"
			},
			{
				"type": "occ",
				"energy": -0.25728,
				"method": "rhf"
			},
			{
				"type": "unocc",
				"energy": -0.0685,
				"method": "rhf"
			},
			{
				"type": "unocc",
				"energy": -0.04899,
				"method": "rhf"
			},
			{
				"type": "unocc",
				"energy": 0.01945,
				"method": "rhf"
			},
			{
				"type": "unocc",
				"energy": 0.0676,
				"method": "rhf"
			},
			{
				"type": "unocc",
				"energy": 0.07842,
				"method": "rhf"
			}
		],
		"cosmo_sigma_profile": { 
			"-0.025": 0.0,
			"-0.024": 0.0,
			"-0.023": 0.0,
			"-0.022": 0.0,
			"-0.021": 0.0,
			"-0.02": 0.0,
			"-0.019": 0.0,
			"-0.018": 0.0,
			"-0.017": 0.0,
			"-0.016": 0.0,
			"-0.015": 0.0,
			"-0.014": 0.0,
			"-0.013": 0.0,
			"-0.012": 0.0,
			"-0.011": 0.0,
			"-0.01": 0.0,
			"-0.009": 0.226271189504,
			"-0.008": 3.16193939813,
			"-0.007": 7.58510840184,
			"-0.006": 8.98428598414,
			"-0.005": 10.2695950728,
			"-0.004": 19.2974884528,
			"-0.003": 23.2291798726,
			"-0.002": 25.6330637886,
			"-0.001": 28.4492929211,
			"0.0": 37.6267416769,
			"0.001": 28.4393087624,
			"0.002": 18.6544438881,
			"0.003": 7.92651716121,
			"0.004": 7.28740506681,
			"0.005": 4.08087806875,
			"0.006": 2.45287563724,
			"0.007": 3.95926660535,
			"0.008": 3.10815761265,
			"0.009": 3.09818882171,
			"0.01": 4.79593889549,
			"0.011": 6.82446183812,
			"0.012": 4.17554856661,
			"0.013": 0.499144671067,
			"0.014": 0.0,
			"0.015": 0.0,
			"0.016": 0.0,
			"0.017": 0.0,
			"0.018": 0.0,
			"0.019": 0.0,
			"0.02": 0.0,
			"0.021": 0.0,
			"0.022": 0.0,
			"0.023": 0.0,
			"0.024": 0.0,
			"0.025": 0.0
		}
	}
}
