{
	 "smiles": "CCCCCCCCCCCC(=O)CCCC", 
	 "Tm": 310.15, 
	 "num_atms": 49, 
	 "gaussian": { 
		 "optdone": 1, 
		 "sigma_profile": "yes", 
		 "theory": "DFT", 
		 "functional": "B3LYP", 
		 "basiset": "6-31G**", 
		 "properties": { 
			 "R2extent": 10824.0537, 
			 "electric_dipole_moment_norm": 2.26674087182, 
			 "electric_quadrupole_moment_norm": 8.43108710132, 
			 "total_energy": -704.256754531, 
			 "HOMO_LUMO_gap": 0.23229, 
			 "cosmo_polarized_energy": -6.65, 
			 "cosmo_cavitation_energy": 47.96, 
			 "cosmo_dispersion_energy": -32.77, 
			 "cosmo_repulsion_energy": 2.67, 
			 "cosmo_total_nonelectrostatic_energy": 17.86, 
			 "SMD_solvation_energy": 7.0 
		},
		"coords": [
			{
				"x": -2.6464482306,
				"y": -4.7603980277,
				"z": 2.9171577005,
				"element": "C" 
			},
			{
				"x": -3.6649166901,
				"y": -4.2325944865,
				"z": 1.8997236812,
				"element": "C" 
			},
			{
				"x": -3.4299523166,
				"y": -4.7142514102,
				"z": 0.4571953412,
				"element": "C" 
			},
			{
				"x": -2.0944361248,
				"y": -4.2888199821,
				"z": -0.1821706743,
				"element": "C" 
			},
			{
				"x": -1.8568923414,
				"y": -2.7722651825,
				"z": -0.3072462423,
				"element": "C" 
			},
			{
				"x": -2.8469997533,
				"y": -2.0513807148,
				"z": -1.2332568942,
				"element": "C" 
			},
			{
				"x": -2.6438784128,
				"y": -0.5307517878,
				"z": -1.3685077372,
				"element": "C" 
			},
			{
				"x": -1.3028922548,
				"y": -0.0935197424,
				"z": -2.0054957917,
				"element": "C" 
			},
			{
				"x": -0.1790996259,
				"y": 0.2812477591,
				"z": -1.0204555264,
				"element": "C" 
			},
			{
				"x": -0.4136500439,
				"y": 1.6163339707,
				"z": -0.297792907,
				"element": "C" 
			},
			{
				"x": 0.6994760992,
				"y": 1.9786809961,
				"z": 0.6906475697,
				"element": "C" 
			},
			{
				"x": 2.0157392334,
				"y": 2.3936153077,
				"z": 0.0383209584,
				"element": "C" 
			},
			{
				"x": 2.0862716552,
				"y": 2.6775093234,
				"z": -1.1443188911,
				"element": "O" 
			},
			{
				"x": 3.2387756197,
				"y": 2.4345468465,
				"z": 0.9508865484,
				"element": "C" 
			},
			{
				"x": 4.4456519416,
				"y": 3.1706001401,
				"z": 0.3611268651,
				"element": "C" 
			},
			{
				"x": 4.2674469708,
				"y": 4.693507792,
				"z": 0.2950549324,
				"element": "C" 
			},
			{
				"x": 5.4894344736,
				"y": 5.4098590322,
				"z": -0.2877586038,
				"element": "C" 
			},
			{
				"x": -2.9006101012,
				"y": -4.4392550422,
				"z": 3.9327994608,
				"element": "H" 
			},
			{
				"x": -2.6165849773,
				"y": -5.8564205328,
				"z": 2.9133904783,
				"element": "H" 
			},
			{
				"x": -1.6333491232,
				"y": -4.4030217302,
				"z": 2.7050708069,
				"element": "H" 
			},
			{
				"x": -3.6746832313,
				"y": -3.1352797795,
				"z": 1.9296137502,
				"element": "H" 
			},
			{
				"x": -4.6707766935,
				"y": -4.5464940735,
				"z": 2.2070959906,
				"element": "H" 
			},
			{
				"x": -3.4825234073,
				"y": -5.8117160288,
				"z": 0.4412275898,
				"element": "H" 
			},
			{
				"x": -4.2620896413,
				"y": -4.3686804453,
				"z": -0.1690429555,
				"element": "H" 
			},
			{
				"x": -1.2655415607,
				"y": -4.7269366873,
				"z": 0.3882051194,
				"element": "H" 
			},
			{
				"x": -2.0339267726,
				"y": -4.7373554325,
				"z": -1.1833334553,
				"element": "H" 
			},
			{
				"x": -0.8365863603,
				"y": -2.6213492421,
				"z": -0.6806450593,
				"element": "H" 
			},
			{
				"x": -1.8840343821,
				"y": -2.3058618583,
				"z": 0.6874365015,
				"element": "H" 
			},
			{
				"x": -2.7930899454,
				"y": -2.5068080034,
				"z": -2.2331293265,
				"element": "H" 
			},
			{
				"x": -3.8706223797,
				"y": -2.2269340829,
				"z": -0.8782369826,
				"element": "H" 
			},
			{
				"x": -3.4703150778,
				"y": -0.1410165963,
				"z": -1.9755071396,
				"element": "H" 
			},
			{
				"x": -2.7604005651,
				"y": -0.0630406714,
				"z": -0.3812257511,
				"element": "H" 
			},
			{
				"x": -0.9473138026,
				"y": -0.8940443714,
				"z": -2.6679530473,
				"element": "H" 
			},
			{
				"x": -1.476730003,
				"y": 0.7715257033,
				"z": -2.6585693131,
				"element": "H" 
			},
			{
				"x": 0.7649230367,
				"y": 0.3497884461,
				"z": -1.5730195469,
				"element": "H" 
			},
			{
				"x": -0.0504230069,
				"y": -0.5157246703,
				"z": -0.2760509497,
				"element": "H" 
			},
			{
				"x": -0.4937152963,
				"y": 2.4173536965,
				"z": -1.0415224688,
				"element": "H" 
			},
			{
				"x": -1.3659396882,
				"y": 1.5881131256,
				"z": 0.2452663823,
				"element": "H" 
			},
			{
				"x": 0.8934623416,
				"y": 1.1576921498,
				"z": 1.3950313177,
				"element": "H" 
			},
			{
				"x": 0.3931229652,
				"y": 2.8283827425,
				"z": 1.3197869919,
				"element": "H" 
			},
			{
				"x": 2.9454767547,
				"y": 2.8583208195,
				"z": 1.9216194232,
				"element": "H" 
			},
			{
				"x": 3.4941613383,
				"y": 1.3851130616,
				"z": 1.162900184,
				"element": "H" 
			},
			{
				"x": 5.3331417003,
				"y": 2.9343710931,
				"z": 0.9622752459,
				"element": "H" 
			},
			{
				"x": 4.6309728964,
				"y": 2.7844745787,
				"z": -0.6476085192,
				"element": "H" 
			},
			{
				"x": 4.0639540172,
				"y": 5.0787811197,
				"z": 1.3043185394,
				"element": "H" 
			},
			{
				"x": 3.3847973904,
				"y": 4.9238300265,
				"z": -0.3124535283,
				"element": "H" 
			},
			{
				"x": 5.3393555664,
				"y": 6.4939451898,
				"z": -0.3209752899,
				"element": "H" 
			},
			{
				"x": 6.387543798,
				"y": 5.216675556,
				"z": 0.3106540231,
				"element": "H" 
			},
			{
				"x": 5.6940140114,
				"y": 5.0713521058,
				"z": -1.3096288008,
				"element": "H" 
			}
		],
		 "valence_orbital": [ 
			{
				"type": "occ",
				"energy": -0.30931,
				"method": "rhf"
			},
			{
				"type": "occ",
				"energy": -0.30616,
				"method": "rhf"
			},
			{
				"type": "occ",
				"energy": -0.29727,
				"method": "rhf"
			},
			{
				"type": "occ",
				"energy": -0.29448,
				"method": "rhf"
			},
			{
				"type": "occ",
				"energy": -0.2417,
				"method": "rhf"
			},
			{
				"type": "unocc",
				"energy": -0.00941,
				"method": "rhf"
			},
			{
				"type": "unocc",
				"energy": 0.07703,
				"method": "rhf"
			},
			{
				"type": "unocc",
				"energy": 0.08228,
				"method": "rhf"
			},
			{
				"type": "unocc",
				"energy": 0.10097,
				"method": "rhf"
			},
			{
				"type": "unocc",
				"energy": 0.10495,
				"method": "rhf"
			}
		],
		"cosmo_sigma_profile": { 
			"-0.025": 0.0,
			"-0.024": 0.0,
			"-0.023": 0.0,
			"-0.022": 0.0,
			"-0.021": 0.0,
			"-0.02": 0.0,
			"-0.019": 0.0,
			"-0.018": 0.0,
			"-0.017": 0.0,
			"-0.016": 0.0,
			"-0.015": 0.0,
			"-0.014": 0.0,
			"-0.013": 0.0,
			"-0.012": 0.0,
			"-0.011": 0.0,
			"-0.01": 0.0,
			"-0.009": 0.0,
			"-0.008": 0.0,
			"-0.007": 0.0,
			"-0.006": 2.09881909233,
			"-0.005": 9.17415501591,
			"-0.004": 9.90610932936,
			"-0.003": 16.1773552159,
			"-0.002": 48.5836625691,
			"-0.001": 79.0577612601,
			"0.0": 79.6379787985,
			"0.001": 68.0884366878,
			"0.002": 30.2788804822,
			"0.003": 2.99565734113,
			"0.004": 1.82992645186,
			"0.005": 2.19806263994,
			"0.006": 2.29752223269,
			"0.007": 1.75180794841,
			"0.008": 2.21265567904,
			"0.009": 1.8129704473,
			"0.01": 2.08056864727,
			"0.011": 1.65234174279,
			"0.012": 3.45988599664,
			"0.013": 2.13807501608,
			"0.014": 0.0133496216908,
			"0.015": 0.0,
			"0.016": 0.0,
			"0.017": 0.0,
			"0.018": 0.0,
			"0.019": 0.0,
			"0.02": 0.0,
			"0.021": 0.0,
			"0.022": 0.0,
			"0.023": 0.0,
			"0.024": 0.0,
			"0.025": 0.0
		}
	}
}
