{
	 "smiles": "CC1=C2N=C(CCl)NC2=NC=C1", 
	 "Tm": 548.15, 
	 "num_atms": 20, 
	 "gaussian": { 
		 "optdone": 1, 
		 "sigma_profile": "yes", 
		 "theory": "DFT", 
		 "functional": "B3LYP", 
		 "basiset": "6-31G**", 
		 "properties": { 
			 "R2extent": 3568.1631, 
			 "electric_dipole_moment_norm": 1.46909749506, 
			 "electric_quadrupole_moment_norm": 8.48090662253, 
			 "total_energy": -934.143843654, 
			 "HOMO_LUMO_gap": 0.19442, 
			 "cosmo_polarized_energy": -11.56, 
			 "cosmo_cavitation_energy": 25.92, 
			 "cosmo_dispersion_energy": -19.5, 
			 "cosmo_repulsion_energy": 1.57, 
			 "cosmo_total_nonelectrostatic_energy": 7.99, 
			 "SMD_solvation_energy": 0.58 
		},
		"coords": [
			{
				"x": 1.3780824264,
				"y": -1.2190726502,
				"z": 0.6347809289,
				"element": "C" 
			},
			{
				"x": -0.0810023159,
				"y": -0.988190897,
				"z": 0.347888923,
				"element": "C" 
			},
			{
				"x": -0.5668440114,
				"y": 0.254143588,
				"z": -0.0824234856,
				"element": "C" 
			},
			{
				"x": 0.0832138157,
				"y": 1.4559575665,
				"z": -0.3183210426,
				"element": "N" 
			},
			{
				"x": -0.8657825403,
				"y": 2.2793741236,
				"z": -0.7018584855,
				"element": "C" 
			},
			{
				"x": -0.6139544145,
				"y": 3.6853350218,
				"z": -1.1195622688,
				"element": "C" 
			},
			{
				"x": -1.6841868825,
				"y": 4.8745566146,
				"z": -0.2396764369,
				"element": "Cl" 
			},
			{
				"x": -2.1140302483,
				"y": 1.6974696888,
				"z": -0.7407514846,
				"element": "N" 
			},
			{
				"x": -1.954444288,
				"y": 0.3876151059,
				"z": -0.3305487831,
				"element": "C" 
			},
			{
				"x": -2.895673971,
				"y": -0.5393566482,
				"z": -0.1992752805,
				"element": "N" 
			},
			{
				"x": -2.4115287318,
				"y": -1.7201783496,
				"z": 0.2145863382,
				"element": "C" 
			},
			{
				"x": -1.0584686569,
				"y": -1.9807261216,
				"z": 0.4892057218,
				"element": "C" 
			},
			{
				"x": 1.5283003619,
				"y": -1.5206947094,
				"z": 1.6773485813,
				"element": "H" 
			},
			{
				"x": 1.7788074269,
				"y": -2.02120528,
				"z": 0.0051332571,
				"element": "H" 
			},
			{
				"x": 1.9559583803,
				"y": -0.3116594566,
				"z": 0.4506792873,
				"element": "H" 
			},
			{
				"x": 0.4206255011,
				"y": 3.9380897343,
				"z": -0.8961544946,
				"element": "H" 
			},
			{
				"x": -0.8154300486,
				"y": 3.843442479,
				"z": -2.1810839461,
				"element": "H" 
			},
			{
				"x": -2.9930058106,
				"y": 2.1589791672,
				"z": -0.9234664091,
				"element": "H" 
			},
			{
				"x": -3.1444270792,
				"y": -2.5148231798,
				"z": 0.3367980586,
				"element": "H" 
			},
			{
				"x": -0.7747089133,
				"y": -2.9762557977,
				"z": 0.8189010211,
				"element": "H" 
			}
		],
		 "valence_orbital": [ 
			{
				"type": "occ",
				"energy": -0.31139,
				"method": "rhf"
			},
			{
				"type": "occ",
				"energy": -0.30594,
				"method": "rhf"
			},
			{
				"type": "occ",
				"energy": -0.25728,
				"method": "rhf"
			},
			{
				"type": "occ",
				"energy": -0.24846,
				"method": "rhf"
			},
			{
				"type": "occ",
				"energy": -0.23798,
				"method": "rhf"
			},
			{
				"type": "unocc",
				"energy": -0.04356,
				"method": "rhf"
			},
			{
				"type": "unocc",
				"energy": -0.00096,
				"method": "rhf"
			},
			{
				"type": "unocc",
				"energy": 0.01493,
				"method": "rhf"
			},
			{
				"type": "unocc",
				"energy": 0.04999,
				"method": "rhf"
			},
			{
				"type": "unocc",
				"energy": 0.08166,
				"method": "rhf"
			}
		],
		"cosmo_sigma_profile": { 
			"-0.025": 0.0,
			"-0.024": 0.0,
			"-0.023": 0.0,
			"-0.022": 0.0,
			"-0.021": 0.0,
			"-0.02": 0.0,
			"-0.019": 0.0,
			"-0.018": 0.0,
			"-0.017": 0.285377853491,
			"-0.016": 0.919789768421,
			"-0.015": 1.0603020345,
			"-0.014": 0.555700489248,
			"-0.013": 0.885179074091,
			"-0.012": 1.25364999339,
			"-0.011": 1.09425798675,
			"-0.01": 1.64702183588,
			"-0.009": 4.27628959184,
			"-0.008": 5.31463152478,
			"-0.007": 4.14680648761,
			"-0.006": 8.41837326394,
			"-0.005": 11.3309514096,
			"-0.004": 12.9331123859,
			"-0.003": 11.9361281335,
			"-0.002": 12.3657197396,
			"-0.001": 15.945399444,
			"0.0": 19.0429188988,
			"0.001": 15.8311319514,
			"0.002": 15.4959715733,
			"0.003": 14.2682399321,
			"0.004": 13.1897369934,
			"0.005": 10.5304991492,
			"0.006": 8.31926433517,
			"0.007": 2.45329554493,
			"0.008": 2.77983130075,
			"0.009": 2.06728288913,
			"0.01": 1.67767298906,
			"0.011": 2.06382521189,
			"0.012": 1.97700581767,
			"0.013": 1.48850665981,
			"0.014": 2.28389480209,
			"0.015": 1.10261924093,
			"0.016": 0.443899331817,
			"0.017": 0.0,
			"0.018": 0.0,
			"0.019": 0.0,
			"0.02": 0.0,
			"0.021": 0.0,
			"0.022": 0.0,
			"0.023": 0.0,
			"0.024": 0.0,
			"0.025": 0.0
		}
	}
}
