{
	 "smiles": "OC(N1C=CN=C1)C(O)=O", 
	 "Tm": 548.15, 
	 "num_atms": 16, 
	 "gaussian": { 
		 "optdone": 1, 
		 "sigma_profile": "yes", 
		 "theory": "DFT", 
		 "functional": "B3LYP", 
		 "basiset": "6-31G**", 
		 "properties": { 
			 "R2extent": 1487.164, 
			 "electric_dipole_moment_norm": 4.02764412281, 
			 "electric_quadrupole_moment_norm": 9.71630390992, 
			 "total_energy": -529.30353261, 
			 "HOMO_LUMO_gap": 0.19719, 
			 "cosmo_polarized_energy": -16.62, 
			 "cosmo_cavitation_energy": 20.83, 
			 "cosmo_dispersion_energy": -15.29, 
			 "cosmo_repulsion_energy": 1.24, 
			 "cosmo_total_nonelectrostatic_energy": 6.78, 
			 "SMD_solvation_energy": 3.88 
		},
		"coords": [
			{
				"x": 0.3175678638,
				"y": -0.8533419911,
				"z": 2.5741995024,
				"element": "O" 
			},
			{
				"x": -0.5643167974,
				"y": -0.3894874068,
				"z": 1.601721052,
				"element": "C" 
			},
			{
				"x": 0.1355873475,
				"y": 0.3930973807,
				"z": 0.5707565007,
				"element": "N" 
			},
			{
				"x": 1.3270637252,
				"y": 1.0733120234,
				"z": 0.7645875037,
				"element": "C" 
			},
			{
				"x": 1.5579924272,
				"y": 1.7396964431,
				"z": -0.4116984995,
				"element": "C" 
			},
			{
				"x": 0.5466359641,
				"y": 1.50639319,
				"z": -1.3170384101,
				"element": "N" 
			},
			{
				"x": -0.2924955827,
				"y": 0.7050737081,
				"z": -0.6991562757,
				"element": "C" 
			},
			{
				"x": -1.3367596511,
				"y": -1.5231110611,
				"z": 0.9041456309,
				"element": "C" 
			},
			{
				"x": -0.6073737421,
				"y": -2.6580209848,
				"z": 0.8728670991,
				"element": "O" 
			},
			{
				"x": -2.4412577028,
				"y": -1.4105303021,
				"z": 0.4310207247,
				"element": "O" 
			},
			{
				"x": 0.825911901,
				"y": -1.5851237021,
				"z": 2.1926454678,
				"element": "H" 
			},
			{
				"x": -1.2968635797,
				"y": 0.2419731292,
				"z": 2.113271013,
				"element": "H" 
			},
			{
				"x": 1.8692118175,
				"y": 1.0053123468,
				"z": 1.6932279188,
				"element": "H" 
			},
			{
				"x": 2.3998775466,
				"y": 2.3723055089,
				"z": -0.6575700045,
				"element": "H" 
			},
			{
				"x": -1.2205827747,
				"y": 0.3242243989,
				"z": -1.1008132039,
				"element": "H" 
			},
			{
				"x": -1.1313987625,
				"y": -3.3279726811,
				"z": 0.4020339808,
				"element": "H" 
			}
		],
		 "valence_orbital": [ 
			{
				"type": "occ",
				"energy": -0.34702,
				"method": "rhf"
			},
			{
				"type": "occ",
				"energy": -0.30331,
				"method": "rhf"
			},
			{
				"type": "occ",
				"energy": -0.27284,
				"method": "rhf"
			},
			{
				"type": "occ",
				"energy": -0.2623,
				"method": "rhf"
			},
			{
				"type": "occ",
				"energy": -0.22821,
				"method": "rhf"
			},
			{
				"type": "unocc",
				"energy": -0.03102,
				"method": "rhf"
			},
			{
				"type": "unocc",
				"energy": 0.0201,
				"method": "rhf"
			},
			{
				"type": "unocc",
				"energy": 0.03823,
				"method": "rhf"
			},
			{
				"type": "unocc",
				"energy": 0.06906,
				"method": "rhf"
			},
			{
				"type": "unocc",
				"energy": 0.08942,
				"method": "rhf"
			}
		],
		"cosmo_sigma_profile": { 
			"-0.025": 0.0,
			"-0.024": 0.0,
			"-0.023": 0.0,
			"-0.022": 0.0,
			"-0.021": 0.0,
			"-0.02": 0.455145114065,
			"-0.019": 1.15373478084,
			"-0.018": 1.07843310487,
			"-0.017": 0.576754550259,
			"-0.016": 1.02099407827,
			"-0.015": 0.987500703966,
			"-0.014": 1.95202013282,
			"-0.013": 1.56294521672,
			"-0.012": 1.34368286667,
			"-0.011": 1.18595602987,
			"-0.01": 1.57149877705,
			"-0.009": 4.16121298702,
			"-0.008": 5.53291893737,
			"-0.007": 6.29079184822,
			"-0.006": 7.61434688159,
			"-0.005": 8.38128334323,
			"-0.004": 8.42982382387,
			"-0.003": 11.5937720695,
			"-0.002": 8.5406536654,
			"-0.001": 8.26785087315,
			"0.0": 7.42974428249,
			"0.001": 7.9034369769,
			"0.002": 8.01707095328,
			"0.003": 7.92451896562,
			"0.004": 7.2910272362,
			"0.005": 7.7807255693,
			"0.006": 5.7411154773,
			"0.007": 4.22996615987,
			"0.008": 3.35061999526,
			"0.009": 5.69038214135,
			"0.01": 7.26480816271,
			"0.011": 3.87337503451,
			"0.012": 1.31113410965,
			"0.013": 1.5901504385,
			"0.014": 0.877655870331,
			"0.015": 1.31443286574,
			"0.016": 1.13946836042,
			"0.017": 1.04061373133,
			"0.018": 0.599571302605,
			"0.019": 0.00271561887922,
			"0.02": 0.0,
			"0.021": 0.0,
			"0.022": 0.0,
			"0.023": 0.0,
			"0.024": 0.0,
			"0.025": 0.0
		}
	}
}
