{
	 "smiles": "OC(=O)CCCCCNC(=O)NC1CCCCC1", 
	 "Tm": 412.15, 
	 "num_atms": 42, 
	 "gaussian": { 
		 "optdone": 1, 
		 "sigma_profile": "yes", 
		 "theory": "DFT", 
		 "functional": "B3LYP", 
		 "basiset": "6-31G**", 
		 "properties": { 
			 "R2extent": 8714.6611, 
			 "electric_dipole_moment_norm": 5.3734992035, 
			 "electric_quadrupole_moment_norm": 28.221106327, 
			 "total_energy": -845.067708784, 
			 "HOMO_LUMO_gap": 0.23737, 
			 "cosmo_polarized_energy": -24.01, 
			 "cosmo_cavitation_energy": 43.13, 
			 "cosmo_dispersion_energy": -28.9, 
			 "cosmo_repulsion_energy": 2.32, 
			 "cosmo_total_nonelectrostatic_energy": 16.55, 
			 "SMD_solvation_energy": 6.5 
		},
		"coords": [
			{
				"x": 0.5001047983,
				"y": -4.5057800632,
				"z": 4.3382767723,
				"element": "O" 
			},
			{
				"x": -0.3912772346,
				"y": -4.2750300306,
				"z": 3.331765121,
				"element": "C" 
			},
			{
				"x": -1.5590367053,
				"y": -4.1260490169,
				"z": 3.5877228805,
				"element": "O" 
			},
			{
				"x": 0.2021821328,
				"y": -4.213218335,
				"z": 1.9296808286,
				"element": "C" 
			},
			{
				"x": 1.2303176546,
				"y": -3.0789040489,
				"z": 1.7415765357,
				"element": "C" 
			},
			{
				"x": 0.6529440972,
				"y": -1.6786845414,
				"z": 1.9861015761,
				"element": "C" 
			},
			{
				"x": 1.6731610046,
				"y": -0.5601302506,
				"z": 1.7436880167,
				"element": "C" 
			},
			{
				"x": 1.0956338368,
				"y": 0.8351122396,
				"z": 2.0059556988,
				"element": "C" 
			},
			{
				"x": 2.0896131147,
				"y": 1.8931001017,
				"z": 1.7983241289,
				"element": "N" 
			},
			{
				"x": 1.7935596173,
				"y": 3.1512288868,
				"z": 1.2799817708,
				"element": "C" 
			},
			{
				"x": 2.2779107448,
				"y": 4.1716306247,
				"z": 1.7562613364,
				"element": "O" 
			},
			{
				"x": 0.9157949085,
				"y": 3.1848723717,
				"z": 0.1965717198,
				"element": "N" 
			},
			{
				"x": 1.0443750274,
				"y": 2.3006171677,
				"z": -0.9730897113,
				"element": "C" 
			},
			{
				"x": 2.2438759956,
				"y": 2.6897457319,
				"z": -1.8769481438,
				"element": "C" 
			},
			{
				"x": 2.0831152809,
				"y": 2.1907792605,
				"z": -3.3341404748,
				"element": "C" 
			},
			{
				"x": 1.2159003399,
				"y": 0.9265433723,
				"z": -3.3990525513,
				"element": "C" 
			},
			{
				"x": -0.2188487789,
				"y": 1.2090240641,
				"z": -2.8931277286,
				"element": "C" 
			},
			{
				"x": -0.2567651931,
				"y": 2.2913756904,
				"z": -1.7858527745,
				"element": "C" 
			},
			{
				"x": 1.3904089503,
				"y": -4.6225205866,
				"z": 3.9777147596,
				"element": "H" 
			},
			{
				"x": 0.6723403662,
				"y": -5.1798258642,
				"z": 1.7038889323,
				"element": "H" 
			},
			{
				"x": -0.6355556941,
				"y": -4.0867722555,
				"z": 1.2402022545,
				"element": "H" 
			},
			{
				"x": 2.0958509448,
				"y": -3.2357427672,
				"z": 2.4020412793,
				"element": "H" 
			},
			{
				"x": 1.6252650484,
				"y": -3.1418149653,
				"z": 0.7202812635,
				"element": "H" 
			},
			{
				"x": 0.2730838696,
				"y": -1.6123029388,
				"z": 3.0143073832,
				"element": "H" 
			},
			{
				"x": -0.2181354499,
				"y": -1.5320066178,
				"z": 1.3328324575,
				"element": "H" 
			},
			{
				"x": 2.5481530682,
				"y": -0.7122798628,
				"z": 2.3910460795,
				"element": "H" 
			},
			{
				"x": 2.0471194232,
				"y": -0.6045141957,
				"z": 0.7124540398,
				"element": "H" 
			},
			{
				"x": 0.7047044439,
				"y": 0.8814255731,
				"z": 3.0336473462,
				"element": "H" 
			},
			{
				"x": 0.244952784,
				"y": 1.0278738019,
				"z": 1.3485214964,
				"element": "H" 
			},
			{
				"x": 2.7278163632,
				"y": 2.0139687366,
				"z": 2.5756493002,
				"element": "H" 
			},
			{
				"x": 0.790065843,
				"y": 4.1572104828,
				"z": -0.0660619486,
				"element": "H" 
			},
			{
				"x": 1.2113673486,
				"y": 1.2898737417,
				"z": -0.5917375738,
				"element": "H" 
			},
			{
				"x": 3.1624928798,
				"y": 2.2927871505,
				"z": -1.4297429401,
				"element": "H" 
			},
			{
				"x": 2.3477774749,
				"y": 3.7817990318,
				"z": -1.8701473181,
				"element": "H" 
			},
			{
				"x": 1.6116270263,
				"y": 2.9721254355,
				"z": -3.9441225842,
				"element": "H" 
			},
			{
				"x": 3.0668559721,
				"y": 2.0097262758,
				"z": -3.7807449776,
				"element": "H" 
			},
			{
				"x": 1.1828153186,
				"y": 0.5318100378,
				"z": -4.4204910292,
				"element": "H" 
			},
			{
				"x": 1.6816584744,
				"y": 0.1430424197,
				"z": -2.7863285356,
				"element": "H" 
			},
			{
				"x": -0.8500449977,
				"y": 1.5314295315,
				"z": -3.7290339808,
				"element": "H" 
			},
			{
				"x": -0.6619312755,
				"y": 0.2788242128,
				"z": -2.5182067687,
				"element": "H" 
			},
			{
				"x": -1.1101480274,
				"y": 2.135558208,
				"z": -1.1180657215,
				"element": "H" 
			},
			{
				"x": -0.3938007966,
				"y": 3.2852921894,
				"z": -2.234098215,
				"element": "H" 
			}
		],
		 "valence_orbital": [ 
			{
				"type": "occ",
				"energy": -0.30834,
				"method": "rhf"
			},
			{
				"type": "occ",
				"energy": -0.27012,
				"method": "rhf"
			},
			{
				"type": "occ",
				"energy": -0.26519,
				"method": "rhf"
			},
			{
				"type": "occ",
				"energy": -0.24589,
				"method": "rhf"
			},
			{
				"type": "occ",
				"energy": -0.23216,
				"method": "rhf"
			},
			{
				"type": "unocc",
				"energy": 0.00521,
				"method": "rhf"
			},
			{
				"type": "unocc",
				"energy": 0.03966,
				"method": "rhf"
			},
			{
				"type": "unocc",
				"energy": 0.04351,
				"method": "rhf"
			},
			{
				"type": "unocc",
				"energy": 0.0548,
				"method": "rhf"
			},
			{
				"type": "unocc",
				"energy": 0.08111,
				"method": "rhf"
			}
		],
		"cosmo_sigma_profile": { 
			"-0.025": 0.0,
			"-0.024": 0.0,
			"-0.023": 0.0,
			"-0.022": 0.0,
			"-0.021": 0.0,
			"-0.02": 0.0,
			"-0.019": 0.0340367811849,
			"-0.018": 0.617619230085,
			"-0.017": 1.23198333964,
			"-0.016": 0.865925332186,
			"-0.015": 1.23110131706,
			"-0.014": 0.750380092029,
			"-0.013": 1.00187591929,
			"-0.012": 1.74531184367,
			"-0.011": 3.38005795284,
			"-0.01": 3.2949864077,
			"-0.009": 2.39000138613,
			"-0.008": 4.02494772001,
			"-0.007": 4.90514210596,
			"-0.006": 5.19617149791,
			"-0.005": 8.66910601747,
			"-0.004": 19.564046918,
			"-0.003": 40.1189837007,
			"-0.002": 51.183856728,
			"-0.001": 45.2253288333,
			"0.0": 31.2848350722,
			"0.001": 26.6478727289,
			"0.002": 8.88630461333,
			"0.003": 6.18041394152,
			"0.004": 6.02023134588,
			"0.005": 5.05427486011,
			"0.006": 4.19167116238,
			"0.007": 3.99263765309,
			"0.008": 5.17206371091,
			"0.009": 4.43795915289,
			"0.01": 5.62348257176,
			"0.011": 6.60001986979,
			"0.012": 7.49006066621,
			"0.013": 5.72057383181,
			"0.014": 5.90963094319,
			"0.015": 3.95161600812,
			"0.016": 0.122947703758,
			"0.017": 0.0,
			"0.018": 0.0,
			"0.019": 0.0,
			"0.02": 0.0,
			"0.021": 0.0,
			"0.022": 0.0,
			"0.023": 0.0,
			"0.024": 0.0,
			"0.025": 0.0
		}
	}
}
