{
	 "smiles": "[O-][N+](=O)C1=CC=C(C=C1)[N+]([O-])=O", 
	 "Tm": 447.15, 
	 "num_atms": 16, 
	 "gaussian": { 
		 "optdone": 1, 
		 "sigma_profile": "yes", 
		 "theory": "DFT", 
		 "functional": "B3LYP", 
		 "basiset": "6-31G**", 
		 "properties": { 
			 "R2extent": 2681.9614, 
			 "electric_dipole_moment_norm": 0.00137477270849, 
			 "electric_quadrupole_moment_norm": 18.2106713811, 
			 "total_energy": -641.240098598, 
			 "HOMO_LUMO_gap": 0.17861, 
			 "cosmo_polarized_energy": -10.46, 
			 "cosmo_cavitation_energy": 22.39, 
			 "cosmo_dispersion_energy": -16.53, 
			 "cosmo_repulsion_energy": 1.3, 
			 "cosmo_total_nonelectrostatic_energy": 7.16, 
			 "SMD_solvation_energy": 8.53 
		},
		"coords": [
			{
				"x": 2.6841112955,
				"y": 1.1916838789,
				"z": -1.5945056846,
				"element": "O" 
			},
			{
				"x": 2.0649053705,
				"y": 1.5034172151,
				"z": -0.5801843974,
				"element": "N" 
			},
			{
				"x": 2.0572980977,
				"y": 2.6206492614,
				"z": -0.0691297706,
				"element": "O" 
			},
			{
				"x": 1.2641475405,
				"y": 0.4498315962,
				"z": 0.0777578652,
				"element": "C" 
			},
			{
				"x": 0.5505903247,
				"y": 0.7738679723,
				"z": 1.2303552564,
				"element": "C" 
			},
			{
				"x": -0.2033783438,
				"y": -0.2181504668,
				"z": 1.8498436943,
				"element": "C" 
			},
			{
				"x": -0.2145198313,
				"y": -1.4956850645,
				"z": 1.2926905527,
				"element": "C" 
			},
			{
				"x": 0.4990308948,
				"y": -1.8197201151,
				"z": 0.1400924967,
				"element": "C" 
			},
			{
				"x": 1.2530004233,
				"y": -0.8277052313,
				"z": -0.4793997131,
				"element": "C" 
			},
			{
				"x": -1.0152747288,
				"y": -2.5492690404,
				"z": 1.9506322557,
				"element": "N" 
			},
			{
				"x": -1.0081078236,
				"y": -3.6663476587,
				"z": 1.4392307418,
				"element": "O" 
			},
			{
				"x": -1.6349380091,
				"y": -2.2373601743,
				"z": 2.9646228194,
				"element": "O" 
			},
			{
				"x": 0.5945330787,
				"y": 1.7825178814,
				"z": 1.6206498327,
				"element": "H" 
			},
			{
				"x": -0.7761781462,
				"y": -0.0209449679,
				"z": 2.7468689579,
				"element": "H" 
			},
			{
				"x": 0.4550841975,
				"y": -2.8283730587,
				"z": -0.2502007908,
				"element": "H" 
			},
			{
				"x": 1.8257956597,
				"y": -1.0249120277,
				"z": -1.3764241163,
				"element": "H" 
			}
		],
		 "valence_orbital": [ 
			{
				"type": "occ",
				"energy": -0.32619,
				"method": "rhf"
			},
			{
				"type": "occ",
				"energy": -0.31532,
				"method": "rhf"
			},
			{
				"type": "occ",
				"energy": -0.31519,
				"method": "rhf"
			},
			{
				"type": "occ",
				"energy": -0.31009,
				"method": "rhf"
			},
			{
				"type": "occ",
				"energy": -0.30669,
				"method": "rhf"
			},
			{
				"type": "unocc",
				"energy": -0.12808,
				"method": "rhf"
			},
			{
				"type": "unocc",
				"energy": -0.08271,
				"method": "rhf"
			},
			{
				"type": "unocc",
				"energy": -0.05591,
				"method": "rhf"
			},
			{
				"type": "unocc",
				"energy": -0.0062,
				"method": "rhf"
			},
			{
				"type": "unocc",
				"energy": 0.05913,
				"method": "rhf"
			}
		],
		"cosmo_sigma_profile": { 
			"-0.025": 0.0,
			"-0.024": 0.0,
			"-0.023": 0.0,
			"-0.022": 0.0,
			"-0.021": 0.0,
			"-0.02": 0.0,
			"-0.019": 0.0,
			"-0.018": 0.0,
			"-0.017": 0.0,
			"-0.016": 0.0,
			"-0.015": 0.0,
			"-0.014": 0.0,
			"-0.013": 0.0,
			"-0.012": 0.0,
			"-0.011": 0.0,
			"-0.01": 0.11336076436,
			"-0.009": 4.17711698833,
			"-0.008": 9.68185915525,
			"-0.007": 8.57464096706,
			"-0.006": 8.65222539535,
			"-0.005": 8.79457991318,
			"-0.004": 10.3104504371,
			"-0.003": 16.3788375586,
			"-0.002": 20.5742510576,
			"-0.001": 15.2765170615,
			"0.0": 6.63858413314,
			"0.001": 2.67267944136,
			"0.002": 5.40581316849,
			"0.003": 5.56990665073,
			"0.004": 6.32611196417,
			"0.005": 5.92339737083,
			"0.006": 11.9813015431,
			"0.007": 17.2836074233,
			"0.008": 9.58118277668,
			"0.009": 6.01288030631,
			"0.01": 0.987386785479,
			"0.011": 0.0,
			"0.012": 0.0,
			"0.013": 0.0,
			"0.014": 0.0,
			"0.015": 0.0,
			"0.016": 0.0,
			"0.017": 0.0,
			"0.018": 0.0,
			"0.019": 0.0,
			"0.02": 0.0,
			"0.021": 0.0,
			"0.022": 0.0,
			"0.023": 0.0,
			"0.024": 0.0,
			"0.025": 0.0
		}
	}
}
