{
	 "smiles": "ClC1=C(NC(=O)C2=CC=CC=C2)C=CC=N1", 
	 "Tm": 364.65, 
	 "num_atms": 25, 
	 "gaussian": { 
		 "optdone": 1, 
		 "sigma_profile": "yes", 
		 "theory": "DFT", 
		 "functional": "B3LYP", 
		 "basiset": "6-31G**", 
		 "properties": { 
			 "R2extent": 5055.5652, 
			 "electric_dipole_moment_norm": 4.52177074386, 
			 "electric_quadrupole_moment_norm": 7.59331884422, 
			 "total_energy": -1107.62769105, 
			 "HOMO_LUMO_gap": 0.18427, 
			 "cosmo_polarized_energy": -12.88, 
			 "cosmo_cavitation_energy": 31.47, 
			 "cosmo_dispersion_energy": -22.49, 
			 "cosmo_repulsion_energy": 1.76, 
			 "cosmo_total_nonelectrostatic_energy": 10.74, 
			 "SMD_solvation_energy": 4.42 
		},
		"coords": [
			{
				"x": -2.6926395997,
				"y": 2.4776960567,
				"z": 3.1318152837,
				"element": "Cl" 
			},
			{
				"x": -2.8986265767,
				"y": 1.375270905,
				"z": 1.7643208577,
				"element": "C" 
			},
			{
				"x": -1.9897455971,
				"y": 1.4597475128,
				"z": 0.6857734719,
				"element": "C" 
			},
			{
				"x": -0.9529666857,
				"y": 2.4000432992,
				"z": 0.7058451394,
				"element": "N" 
			},
			{
				"x": 0.2369173351,
				"y": 2.4708389057,
				"z": -0.0172630977,
				"element": "C" 
			},
			{
				"x": 0.7575870223,
				"y": 3.5623750959,
				"z": -0.1997960033,
				"element": "O" 
			},
			{
				"x": 0.8927664873,
				"y": 1.2065464415,
				"z": -0.4804209521,
				"element": "C" 
			},
			{
				"x": 0.8713219172,
				"y": 0.0231852377,
				"z": 0.2721923059,
				"element": "C" 
			},
			{
				"x": 1.5830093514,
				"y": -1.0941772752,
				"z": -0.1630928434,
				"element": "C" 
			},
			{
				"x": 2.309509896,
				"y": -1.0420367781,
				"z": -1.3549506646,
				"element": "C" 
			},
			{
				"x": 2.3413435659,
				"y": 0.1378217377,
				"z": -2.1029415851,
				"element": "C" 
			},
			{
				"x": 1.6483698727,
				"y": 1.2623960214,
				"z": -1.6600419743,
				"element": "C" 
			},
			{
				"x": -2.2411716191,
				"y": 0.5979246194,
				"z": -0.3910827306,
				"element": "C" 
			},
			{
				"x": -3.3043456848,
				"y": -0.2986194074,
				"z": -0.3239974283,
				"element": "C" 
			},
			{
				"x": -4.1176398781,
				"y": -0.294771482,
				"z": 0.8063431439,
				"element": "C" 
			},
			{
				"x": -3.9165208007,
				"y": 0.5463971249,
				"z": 1.8292940917,
				"element": "N" 
			},
			{
				"x": -1.162415111,
				"y": 3.2775918888,
				"z": 1.168863745,
				"element": "H" 
			},
			{
				"x": 0.3177052496,
				"y": -0.0177809295,
				"z": 1.2044152361,
				"element": "H" 
			},
			{
				"x": 1.5740296941,
				"y": -2.0035992431,
				"z": 0.4303391964,
				"element": "H" 
			},
			{
				"x": 2.8572330164,
				"y": -1.9161708251,
				"z": -1.6951911421,
				"element": "H" 
			},
			{
				"x": 2.9145623315,
				"y": 0.1837094559,
				"z": -3.0241508117,
				"element": "H" 
			},
			{
				"x": 1.6868354687,
				"y": 2.1965178886,
				"z": -2.2105836656,
				"element": "H" 
			},
			{
				"x": -1.6077328461,
				"y": 0.6377503024,
				"z": -1.2690005867,
				"element": "H" 
			},
			{
				"x": -3.5065439848,
				"y": -0.975448337,
				"z": -1.1474821391,
				"element": "H" 
			},
			{
				"x": -4.9600428245,
				"y": -0.9748082162,
				"z": 0.9015931527,
				"element": "H" 
			}
		],
		 "valence_orbital": [ 
			{
				"type": "occ",
				"energy": -0.28622,
				"method": "rhf"
			},
			{
				"type": "occ",
				"energy": -0.27272,
				"method": "rhf"
			},
			{
				"type": "occ",
				"energy": -0.26678,
				"method": "rhf"
			},
			{
				"type": "occ",
				"energy": -0.25822,
				"method": "rhf"
			},
			{
				"type": "occ",
				"energy": -0.24025,
				"method": "rhf"
			},
			{
				"type": "unocc",
				"energy": -0.05598,
				"method": "rhf"
			},
			{
				"type": "unocc",
				"energy": -0.03992,
				"method": "rhf"
			},
			{
				"type": "unocc",
				"energy": -0.02366,
				"method": "rhf"
			},
			{
				"type": "unocc",
				"energy": -0.01351,
				"method": "rhf"
			},
			{
				"type": "unocc",
				"energy": 0.02529,
				"method": "rhf"
			}
		],
		"cosmo_sigma_profile": { 
			"-0.025": 0.0,
			"-0.024": 0.0,
			"-0.023": 0.0,
			"-0.022": 0.0,
			"-0.021": 0.0,
			"-0.02": 0.0,
			"-0.019": 0.0,
			"-0.018": 0.0,
			"-0.017": 0.0,
			"-0.016": 0.0,
			"-0.015": 0.0,
			"-0.014": 0.0,
			"-0.013": 0.281068476348,
			"-0.012": 0.860901064407,
			"-0.011": 0.803709282786,
			"-0.01": 0.91985761975,
			"-0.009": 0.955256301046,
			"-0.008": 3.41960713136,
			"-0.007": 10.8393271678,
			"-0.006": 17.6597747391,
			"-0.005": 18.7099951205,
			"-0.004": 17.1338475047,
			"-0.003": 15.1461425854,
			"-0.002": 16.3428638276,
			"-0.001": 20.185358758,
			"0.0": 19.0014344033,
			"0.001": 22.8821268043,
			"0.002": 18.4370387362,
			"0.003": 17.1377151136,
			"0.004": 18.5411771392,
			"0.005": 7.33282558721,
			"0.006": 3.74536380331,
			"0.007": 3.20506121979,
			"0.008": 3.16670706355,
			"0.009": 2.64488583316,
			"0.01": 2.38129945303,
			"0.011": 3.48499657234,
			"0.012": 5.48943349324,
			"0.013": 4.04334387669,
			"0.014": 0.808708981976,
			"0.015": 0.0204812522333,
			"0.016": 0.0,
			"0.017": 0.0,
			"0.018": 0.0,
			"0.019": 0.0,
			"0.02": 0.0,
			"0.021": 0.0,
			"0.022": 0.0,
			"0.023": 0.0,
			"0.024": 0.0,
			"0.025": 0.0
		}
	}
}
