{
	 "smiles": "OC(=O)CCC(=O)C1=CC(Cl)=C(C=C1)C1CCCCC1", 
	 "Tm": 436.15, 
	 "num_atms": 39, 
	 "gaussian": { 
		 "optdone": 1, 
		 "sigma_profile": "yes", 
		 "theory": "DFT", 
		 "functional": "B3LYP", 
		 "basiset": "6-31G**", 
		 "properties": { 
			 "R2extent": 11065.695, 
			 "electric_dipole_moment_norm": 5.64719579615, 
			 "electric_quadrupole_moment_norm": 30.186865752, 
			 "total_energy": -1307.05242301, 
			 "HOMO_LUMO_gap": 0.18813, 
			 "cosmo_polarized_energy": -15.75, 
			 "cosmo_cavitation_energy": 42.44, 
			 "cosmo_dispersion_energy": -30.14, 
			 "cosmo_repulsion_energy": 2.34, 
			 "cosmo_total_nonelectrostatic_energy": 14.64, 
			 "SMD_solvation_energy": 7.33 
		},
		"coords": [
			{
				"x": 2.5842113989,
				"y": -1.4841535874,
				"z": 5.0695614146,
				"element": "O" 
			},
			{
				"x": 3.1215652306,
				"y": -0.4004865838,
				"z": 5.6871530998,
				"element": "C" 
			},
			{
				"x": 3.1059541267,
				"y": -0.2641101889,
				"z": 6.8884025561,
				"element": "O" 
			},
			{
				"x": 3.7927106062,
				"y": 0.5486949698,
				"z": 4.713795133,
				"element": "C" 
			},
			{
				"x": 3.2256412092,
				"y": 0.5494538371,
				"z": 3.2938210016,
				"element": "C" 
			},
			{
				"x": 1.7753861706,
				"y": 1.0202952988,
				"z": 3.2476226013,
				"element": "C" 
			},
			{
				"x": 1.1911058945,
				"y": 1.3246858613,
				"z": 4.2770839787,
				"element": "O" 
			},
			{
				"x": 1.0859403938,
				"y": 1.1053377256,
				"z": 1.921305134,
				"element": "C" 
			},
			{
				"x": -0.2430817154,
				"y": 1.5490025631,
				"z": 1.9025098059,
				"element": "C" 
			},
			{
				"x": -0.928933712,
				"y": 1.6465112693,
				"z": 0.6990538037,
				"element": "C" 
			},
			{
				"x": -2.5978056614,
				"y": 2.2213432444,
				"z": 0.7673115701,
				"element": "Cl" 
			},
			{
				"x": -0.3411210809,
				"y": 1.3059432611,
				"z": -0.5352502009,
				"element": "C" 
			},
			{
				"x": 0.99163158,
				"y": 0.8662889802,
				"z": -0.4865690193,
				"element": "C" 
			},
			{
				"x": 1.6984455248,
				"y": 0.7650201133,
				"z": 0.7082364411,
				"element": "C" 
			},
			{
				"x": -1.0817582919,
				"y": 1.4358662955,
				"z": -1.8526904124,
				"element": "C" 
			},
			{
				"x": -0.671908717,
				"y": 0.4143741359,
				"z": -2.9299452314,
				"element": "C" 
			},
			{
				"x": -1.6781455644,
				"y": 0.4411596598,
				"z": -4.1055199861,
				"element": "C" 
			},
			{
				"x": -2.2605259391,
				"y": 1.8544094197,
				"z": -4.3524669481,
				"element": "C" 
			},
			{
				"x": -1.2579755894,
				"y": 2.9407835796,
				"z": -3.9428092076,
				"element": "C" 
			},
			{
				"x": -0.9449549585,
				"y": 2.8797119963,
				"z": -2.4277706982,
				"element": "C" 
			},
			{
				"x": 2.1944618731,
				"y": -2.0249202028,
				"z": 5.7766935983,
				"element": "H" 
			},
			{
				"x": 3.7382944014,
				"y": 1.5415197577,
				"z": 5.1640706615,
				"element": "H" 
			},
			{
				"x": 4.8525815407,
				"y": 0.266558753,
				"z": 4.6794749376,
				"element": "H" 
			},
			{
				"x": 3.2852350254,
				"y": -0.4525169213,
				"z": 2.8541640192,
				"element": "H" 
			},
			{
				"x": 3.8305461149,
				"y": 1.2037911637,
				"z": 2.6532214912,
				"element": "H" 
			},
			{
				"x": -0.7195010036,
				"y": 1.8115299066,
				"z": 2.839864585,
				"element": "H" 
			},
			{
				"x": 1.4853910678,
				"y": 0.5928256382,
				"z": -1.412988741,
				"element": "H" 
			},
			{
				"x": 2.7251545526,
				"y": 0.4154685133,
				"z": 0.6850248578,
				"element": "H" 
			},
			{
				"x": -2.1422890631,
				"y": 1.2647760718,
				"z": -1.6381122844,
				"element": "H" 
			},
			{
				"x": 0.3317391657,
				"y": 0.6554985455,
				"z": -3.3028667076,
				"element": "H" 
			},
			{
				"x": -0.6110478617,
				"y": -0.5941726568,
				"z": -2.5065956654,
				"element": "H" 
			},
			{
				"x": -1.1765922015,
				"y": 0.07980807,
				"z": -5.0108417454,
				"element": "H" 
			},
			{
				"x": -2.4961848028,
				"y": -0.2609791177,
				"z": -3.9065144332,
				"element": "H" 
			},
			{
				"x": -2.5438845751,
				"y": 1.9667371226,
				"z": -5.4046448976,
				"element": "H" 
			},
			{
				"x": -3.1835790868,
				"y": 1.9857228333,
				"z": -3.7734585073,
				"element": "H" 
			},
			{
				"x": -1.6357288894,
				"y": 3.9356754441,
				"z": -4.203062808,
				"element": "H" 
			},
			{
				"x": -0.3338792738,
				"y": 2.8059498827,
				"z": -4.5197425185,
				"element": "H" 
			},
			{
				"x": -1.6153373866,
				"y": 3.5431406514,
				"z": -1.8711990252,
				"element": "H" 
			},
			{
				"x": 0.0731394976,
				"y": 3.244454694,
				"z": -2.2478216533,
				"element": "H" 
			}
		],
		 "valence_orbital": [ 
			{
				"type": "occ",
				"energy": -0.30343,
				"method": "rhf"
			},
			{
				"type": "occ",
				"energy": -0.26734,
				"method": "rhf"
			},
			{
				"type": "occ",
				"energy": -0.26246,
				"method": "rhf"
			},
			{
				"type": "occ",
				"energy": -0.25897,
				"method": "rhf"
			},
			{
				"type": "occ",
				"energy": -0.25239,
				"method": "rhf"
			},
			{
				"type": "unocc",
				"energy": -0.06426,
				"method": "rhf"
			},
			{
				"type": "unocc",
				"energy": -0.02096,
				"method": "rhf"
			},
			{
				"type": "unocc",
				"energy": 0.01797,
				"method": "rhf"
			},
			{
				"type": "unocc",
				"energy": 0.02758,
				"method": "rhf"
			},
			{
				"type": "unocc",
				"energy": 0.02945,
				"method": "rhf"
			}
		],
		"cosmo_sigma_profile": { 
			"-0.025": 0.0,
			"-0.024": 0.0,
			"-0.023": 0.0,
			"-0.022": 0.0,
			"-0.021": 0.0,
			"-0.02": 0.0,
			"-0.019": 0.0,
			"-0.018": 0.539438154323,
			"-0.017": 0.885011055315,
			"-0.016": 0.927943047144,
			"-0.015": 0.791907152327,
			"-0.014": 0.510279174643,
			"-0.013": 1.00619574919,
			"-0.012": 0.327910162954,
			"-0.011": 0.984509513888,
			"-0.01": 0.896029475177,
			"-0.009": 0.431545081348,
			"-0.008": 0.783109625199,
			"-0.007": 8.53609322984,
			"-0.006": 14.5393901081,
			"-0.005": 16.0791435392,
			"-0.004": 14.5602367392,
			"-0.003": 19.6930104648,
			"-0.002": 38.5571509196,
			"-0.001": 41.7669163522,
			"0.0": 37.4597988151,
			"0.001": 37.5331590793,
			"0.002": 24.9496690393,
			"0.003": 16.7579928082,
			"0.004": 10.1582285198,
			"0.005": 9.77660520047,
			"0.006": 4.92202242602,
			"0.007": 5.00119977257,
			"0.008": 4.32425568989,
			"0.009": 3.42064984134,
			"0.01": 3.9368110013,
			"0.011": 6.59689144487,
			"0.012": 6.54790079431,
			"0.013": 1.56075711199,
			"0.014": 0.0214881241495,
			"0.015": 0.0,
			"0.016": 0.0,
			"0.017": 0.0,
			"0.018": 0.0,
			"0.019": 0.0,
			"0.02": 0.0,
			"0.021": 0.0,
			"0.022": 0.0,
			"0.023": 0.0,
			"0.024": 0.0,
			"0.025": 0.0
		}
	}
}
