{
	 "smiles": "CC1=CC(C(O)=O)=C(C)N1C1=C(Br)C=CC=C1", 
	 "Tm": 438.15, 
	 "num_atms": 29, 
	 "gaussian": { 
		 "optdone": 1, 
		 "sigma_profile": "yes", 
		 "theory": "DFT", 
		 "functional": "B3LYP", 
		 "basiset": "6-31G**", 
		 "properties": { 
			 "R2extent": 5449.2074, 
			 "electric_dipole_moment_norm": 7.36380878215, 
			 "electric_quadrupole_moment_norm": 21.7454653717, 
			 "total_energy": -3279.23307024, 
			 "HOMO_LUMO_gap": 0.17332, 
			 "cosmo_polarized_energy": -16.77, 
			 "cosmo_cavitation_energy": 35.18, 
			 "cosmo_dispersion_energy": -24.22, 
			 "cosmo_repulsion_energy": 1.88, 
			 "cosmo_total_nonelectrostatic_energy": 12.83, 
			 "SMD_solvation_energy": 6.41 
		},
		"coords": [
			{
				"x": -1.161769614,
				"y": 2.3857066067,
				"z": -0.635243982,
				"element": "C" 
			},
			{
				"x": -1.5424942432,
				"y": 0.9941852924,
				"z": -0.2475198013,
				"element": "C" 
			},
			{
				"x": -2.7724492971,
				"y": 0.4038950434,
				"z": -0.1235598875,
				"element": "C" 
			},
			{
				"x": -2.5817622462,
				"y": -0.9520989897,
				"z": 0.310528706,
				"element": "C" 
			},
			{
				"x": -3.6135355528,
				"y": -1.9711122042,
				"z": 0.5719598175,
				"element": "C" 
			},
			{
				"x": -4.8808497793,
				"y": -1.6483130646,
				"z": 0.176778789,
				"element": "O" 
			},
			{
				"x": -3.4239174776,
				"y": -3.0481827619,
				"z": 1.0993843592,
				"element": "O" 
			},
			{
				"x": -1.2126144833,
				"y": -1.1553992151,
				"z": 0.4444677832,
				"element": "C" 
			},
			{
				"x": -0.439583773,
				"y": -2.3605506615,
				"z": 0.8691928532,
				"element": "C" 
			},
			{
				"x": -0.5919038355,
				"y": 0.0293738658,
				"z": 0.0959512191,
				"element": "N" 
			},
			{
				"x": 0.8197064822,
				"y": 0.2331623287,
				"z": 0.0681531106,
				"element": "C" 
			},
			{
				"x": 1.5168231888,
				"y": 0.733402064,
				"z": 1.1778571013,
				"element": "C" 
			},
			{
				"x": 0.5907405481,
				"y": 1.1599481782,
				"z": 2.7862685014,
				"element": "Br" 
			},
			{
				"x": 2.8975778726,
				"y": 0.9251858986,
				"z": 1.1225543578,
				"element": "C" 
			},
			{
				"x": 3.5934734876,
				"y": 0.6165846404,
				"z": -0.0458946169,
				"element": "C" 
			},
			{
				"x": 2.9135622207,
				"y": 0.1180274665,
				"z": -1.1579115208,
				"element": "C" 
			},
			{
				"x": 1.5341922492,
				"y": -0.0702517471,
				"z": -1.0964951932,
				"element": "C" 
			},
			{
				"x": -2.0623090632,
				"y": 2.9541999643,
				"z": -0.8787472561,
				"element": "H" 
			},
			{
				"x": -0.6434239007,
				"y": 2.9093486915,
				"z": 0.176681154,
				"element": "H" 
			},
			{
				"x": -0.5034428837,
				"y": 2.4081335918,
				"z": -1.5117306558,
				"element": "H" 
			},
			{
				"x": -3.7094163927,
				"y": 0.9212545679,
				"z": -0.2890941297,
				"element": "H" 
			},
			{
				"x": -4.8695429274,
				"y": -0.8165740872,
				"z": -0.3154404186,
				"element": "H" 
			},
			{
				"x": -1.1404953853,
				"y": -3.1645787853,
				"z": 1.0893607626,
				"element": "H" 
			},
			{
				"x": 0.1491959619,
				"y": -2.1538195288,
				"z": 1.7707379628,
				"element": "H" 
			},
			{
				"x": 0.2587061399,
				"y": -2.6912783672,
				"z": 0.091356315,
				"element": "H" 
			},
			{
				"x": 3.4178198148,
				"y": 1.3120483056,
				"z": 1.9911661887,
				"element": "H" 
			},
			{
				"x": 4.6680642833,
				"y": 0.7671272697,
				"z": -0.0821237049,
				"element": "H" 
			},
			{
				"x": 3.4526978429,
				"y": -0.1234668867,
				"z": -2.0683318235,
				"element": "H" 
			},
			{
				"x": 0.9861507629,
				"y": -0.4569574762,
				"z": -1.9499059911,
				"element": "H" 
			}
		],
		 "valence_orbital": [ 
			{
				"type": "occ",
				"energy": -0.28267,
				"method": "rhf"
			},
			{
				"type": "occ",
				"energy": -0.26165,
				"method": "rhf"
			},
			{
				"type": "occ",
				"energy": -0.25435,
				"method": "rhf"
			},
			{
				"type": "occ",
				"energy": -0.25055,
				"method": "rhf"
			},
			{
				"type": "occ",
				"energy": -0.21128,
				"method": "rhf"
			},
			{
				"type": "unocc",
				"energy": -0.03796,
				"method": "rhf"
			},
			{
				"type": "unocc",
				"energy": -0.03506,
				"method": "rhf"
			},
			{
				"type": "unocc",
				"energy": -0.00873,
				"method": "rhf"
			},
			{
				"type": "unocc",
				"energy": -0.00595,
				"method": "rhf"
			},
			{
				"type": "unocc",
				"energy": 0.03223,
				"method": "rhf"
			}
		],
		"cosmo_sigma_profile": { 
			"-0.025": 0.0,
			"-0.024": 0.0,
			"-0.023": 0.0,
			"-0.022": 0.0,
			"-0.021": 0.0,
			"-0.02": 0.0,
			"-0.019": 0.0,
			"-0.018": 0.10899384435,
			"-0.017": 1.15557591602,
			"-0.016": 0.761418653077,
			"-0.015": 0.668596218251,
			"-0.014": 1.14262803975,
			"-0.013": 0.225497420062,
			"-0.012": 1.31358520444,
			"-0.011": 1.08277150088,
			"-0.01": 1.06945404034,
			"-0.009": 1.18963629898,
			"-0.008": 2.17553020743,
			"-0.007": 9.45537045636,
			"-0.006": 10.5092232256,
			"-0.005": 15.359069412,
			"-0.004": 18.5424618418,
			"-0.003": 22.1193760199,
			"-0.002": 22.4892725572,
			"-0.001": 28.366577528,
			"0.0": 26.7622749509,
			"0.001": 21.3823471349,
			"0.002": 20.5022300494,
			"0.003": 21.9412829624,
			"0.004": 14.4305531657,
			"0.005": 8.86873536846,
			"0.006": 5.39760524165,
			"0.007": 2.82276025529,
			"0.008": 2.39770655627,
			"0.009": 2.96237479618,
			"0.01": 3.42180672598,
			"0.011": 4.6915338235,
			"0.012": 4.86266498948,
			"0.013": 3.67745484207,
			"0.014": 1.71293391186,
			"0.015": 0.14074989652,
			"0.016": 0.0,
			"0.017": 0.0,
			"0.018": 0.0,
			"0.019": 0.0,
			"0.02": 0.0,
			"0.021": 0.0,
			"0.022": 0.0,
			"0.023": 0.0,
			"0.024": 0.0,
			"0.025": 0.0
		}
	}
}
