{
	 "smiles": "CC(C)(C)C1=CC=C(C=C1)C1CCCC(O)C1", 
	 "Tm": 349.15, 
	 "num_atms": 41, 
	 "gaussian": { 
		 "optdone": 1, 
		 "sigma_profile": "yes", 
		 "theory": "DFT", 
		 "functional": "B3LYP", 
		 "basiset": "6-31G**", 
		 "properties": { 
			 "R2extent": 6823.6822, 
			 "electric_dipole_moment_norm": 1.73560168241, 
			 "electric_quadrupole_moment_norm": 15.2595919031, 
			 "total_energy": -699.409017295, 
			 "HOMO_LUMO_gap": 0.2312, 
			 "cosmo_polarized_energy": -8.9, 
			 "cosmo_cavitation_energy": 40.09, 
			 "cosmo_dispersion_energy": -27.92, 
			 "cosmo_repulsion_energy": 2.17, 
			 "cosmo_total_nonelectrostatic_energy": 14.33, 
			 "SMD_solvation_energy": 5.87 
		},
		"coords": [
			{
				"x": -1.5402939842,
				"y": -2.8473543664,
				"z": 3.1678662105,
				"element": "C" 
			},
			{
				"x": -0.3031008858,
				"y": -2.6066792476,
				"z": 2.2821604405,
				"element": "C" 
			},
			{
				"x": 0.8592459787,
				"y": -2.1452453547,
				"z": 3.1934728362,
				"element": "C" 
			},
			{
				"x": 0.0760059991,
				"y": -3.9476657527,
				"z": 1.6095717564,
				"element": "C" 
			},
			{
				"x": -0.558353413,
				"y": -1.5435814189,
				"z": 1.1984801339,
				"element": "C" 
			},
			{
				"x": -1.7825139554,
				"y": -0.8812986723,
				"z": 1.0488291181,
				"element": "C" 
			},
			{
				"x": -1.9743582639,
				"y": 0.0792470754,
				"z": 0.0514892115,
				"element": "C" 
			},
			{
				"x": -0.9561518688,
				"y": 0.4210022613,
				"z": -0.8418302383,
				"element": "C" 
			},
			{
				"x": 0.2728171858,
				"y": -0.2412887796,
				"z": -0.6962612625,
				"element": "C" 
			},
			{
				"x": 0.4643230349,
				"y": -1.1959774933,
				"z": 0.2977688243,
				"element": "C" 
			},
			{
				"x": -1.1753398432,
				"y": 1.4692749119,
				"z": -1.9184059603,
				"element": "C" 
			},
			{
				"x": -1.0873685665,
				"y": 0.8782343904,
				"z": -3.3554831427,
				"element": "C" 
			},
			{
				"x": -0.7952439023,
				"y": 1.9560582191,
				"z": -4.427973498,
				"element": "C" 
			},
			{
				"x": -1.3365434091,
				"y": 3.3271812935,
				"z": -4.0047919601,
				"element": "C" 
			},
			{
				"x": -0.6263972515,
				"y": 3.8399284371,
				"z": -2.7338559795,
				"element": "C" 
			},
			{
				"x": -1.411840528,
				"y": 4.8262379511,
				"z": -2.0638782238,
				"element": "O" 
			},
			{
				"x": -0.2198544496,
				"y": 2.6749797439,
				"z": -1.7963161229,
				"element": "C" 
			},
			{
				"x": -2.3953154189,
				"y": -3.2056483243,
				"z": 2.5850882635,
				"element": "H" 
			},
			{
				"x": -1.3125457099,
				"y": -3.6087129781,
				"z": 3.9210532272,
				"element": "H" 
			},
			{
				"x": -1.8444487358,
				"y": -1.9391831916,
				"z": 3.6986722109,
				"element": "H" 
			},
			{
				"x": 0.6156067609,
				"y": -1.2002091067,
				"z": 3.6899650942,
				"element": "H" 
			},
			{
				"x": 1.7845576376,
				"y": -1.9960765123,
				"z": 2.629099785,
				"element": "H" 
			},
			{
				"x": 1.0586509312,
				"y": -2.8948672169,
				"z": 3.9678170498,
				"element": "H" 
			},
			{
				"x": -0.7333390111,
				"y": -4.3040606982,
				"z": 0.9638374821,
				"element": "H" 
			},
			{
				"x": 0.2688086708,
				"y": -4.7148622208,
				"z": 2.3682252701,
				"element": "H" 
			},
			{
				"x": 0.9761763405,
				"y": -3.8544141324,
				"z": 0.9947727545,
				"element": "H" 
			},
			{
				"x": -2.6102637073,
				"y": -1.105637675,
				"z": 1.712194645,
				"element": "H" 
			},
			{
				"x": -2.941541634,
				"y": 0.5709699898,
				"z": -0.0291727754,
				"element": "H" 
			},
			{
				"x": 1.0957697138,
				"y": -0.0087172469,
				"z": -1.3677342368,
				"element": "H" 
			},
			{
				"x": 1.4345001256,
				"y": -1.6795214415,
				"z": 0.3709310829,
				"element": "H" 
			},
			{
				"x": -2.196649329,
				"y": 1.8508882986,
				"z": -1.7777541983,
				"element": "H" 
			},
			{
				"x": -2.0291893355,
				"y": 0.3639191103,
				"z": -3.5805056696,
				"element": "H" 
			},
			{
				"x": -0.3076744158,
				"y": 0.1092331514,
				"z": -3.3862694063,
				"element": "H" 
			},
			{
				"x": 0.2874454705,
				"y": 2.038809721,
				"z": -4.5901517582,
				"element": "H" 
			},
			{
				"x": -1.2212658705,
				"y": 1.6535897203,
				"z": -5.3906717114,
				"element": "H" 
			},
			{
				"x": -2.4129400052,
				"y": 3.2413220086,
				"z": -3.7946882267,
				"element": "H" 
			},
			{
				"x": -1.2423611517,
				"y": 4.0653357981,
				"z": -4.8077672623,
				"element": "H" 
			},
			{
				"x": 0.2819027377,
				"y": 4.3803463883,
				"z": -3.0236774786,
				"element": "H" 
			},
			{
				"x": -2.2545611785,
				"y": 4.4166425039,
				"z": -1.8252616029,
				"element": "H" 
			},
			{
				"x": 0.8007193755,
				"y": 2.3496543057,
				"z": -2.0348761328,
				"element": "H" 
			},
			{
				"x": -0.1940741382,
				"y": 3.0566465503,
				"z": -0.770668549,
				"element": "H" 
			}
		],
		 "valence_orbital": [ 
			{
				"type": "occ",
				"energy": -0.30579,
				"method": "rhf"
			},
			{
				"type": "occ",
				"energy": -0.29435,
				"method": "rhf"
			},
			{
				"type": "occ",
				"energy": -0.25656,
				"method": "rhf"
			},
			{
				"type": "occ",
				"energy": -0.24345,
				"method": "rhf"
			},
			{
				"type": "occ",
				"energy": -0.22829,
				"method": "rhf"
			},
			{
				"type": "unocc",
				"energy": 0.00291,
				"method": "rhf"
			},
			{
				"type": "unocc",
				"energy": 0.00479,
				"method": "rhf"
			},
			{
				"type": "unocc",
				"energy": 0.06758,
				"method": "rhf"
			},
			{
				"type": "unocc",
				"energy": 0.08266,
				"method": "rhf"
			},
			{
				"type": "unocc",
				"energy": 0.08635,
				"method": "rhf"
			}
		],
		"cosmo_sigma_profile": { 
			"-0.025": 0.0,
			"-0.024": 0.0,
			"-0.023": 0.0,
			"-0.022": 0.0,
			"-0.021": 0.0,
			"-0.02": 0.0,
			"-0.019": 0.0,
			"-0.018": 0.0,
			"-0.017": 0.0,
			"-0.016": 0.0,
			"-0.015": 0.0,
			"-0.014": 0.0,
			"-0.013": 0.430942961058,
			"-0.012": 0.617057454476,
			"-0.011": 0.755560532205,
			"-0.01": 1.38834422087,
			"-0.009": 0.900711135977,
			"-0.008": 2.80843310995,
			"-0.007": 3.15620406865,
			"-0.006": 1.2725298764,
			"-0.005": 5.59277606328,
			"-0.004": 15.4807456832,
			"-0.003": 34.185035684,
			"-0.002": 50.5728882663,
			"-0.001": 41.1846821795,
			"0.0": 37.5246023639,
			"0.001": 38.9028859768,
			"0.002": 21.5485191205,
			"0.003": 9.08035430229,
			"0.004": 8.81572085565,
			"0.005": 7.93841201453,
			"0.006": 7.86487597502,
			"0.007": 7.33275886351,
			"0.008": 1.26248703571,
			"0.009": 1.40512789607,
			"0.01": 1.17941930042,
			"0.011": 1.69891553713,
			"0.012": 1.20196140793,
			"0.013": 1.07689526927,
			"0.014": 2.31111255094,
			"0.015": 1.89591422046,
			"0.016": 0.0341961321059,
			"0.017": 0.0,
			"0.018": 0.0,
			"0.019": 0.0,
			"0.02": 0.0,
			"0.021": 0.0,
			"0.022": 0.0,
			"0.023": 0.0,
			"0.024": 0.0,
			"0.025": 0.0
		}
	}
}
