{
	 "smiles": "O=CN(C=O)C=O", 
	 "Tm": 373.15, 
	 "num_atms": 10, 
	 "gaussian": { 
		 "optdone": 1, 
		 "sigma_profile": "yes", 
		 "theory": "DFT", 
		 "functional": "B3LYP", 
		 "basiset": "6-31G**", 
		 "properties": { 
			 "R2extent": 808.4329, 
			 "electric_dipole_moment_norm": 0.000412310562562, 
			 "electric_quadrupole_moment_norm": 6.39927583794, 
			 "total_energy": -396.54196121, 
			 "HOMO_LUMO_gap": 0.22784, 
			 "cosmo_polarized_energy": -9.58, 
			 "cosmo_cavitation_energy": 15.72, 
			 "cosmo_dispersion_energy": -11.24, 
			 "cosmo_repulsion_energy": 0.95, 
			 "cosmo_total_nonelectrostatic_energy": 5.42, 
			 "SMD_solvation_energy": 7.75 
		},
		"coords": [
			{
				"x": -1.4832639552,
				"y": 1.4427833951,
				"z": 0.2472786348,
				"element": "O" 
			},
			{
				"x": -0.4366830135,
				"y": 0.8507248213,
				"z": 0.1324808417,
				"element": "C" 
			},
			{
				"x": -0.3576970085,
				"y": -0.5571643558,
				"z": -0.0095672536,
				"element": "N" 
			},
			{
				"x": -1.5418648777,
				"y": -1.335734942,
				"z": -0.0215078167,
				"element": "C" 
			},
			{
				"x": -1.5377610282,
				"y": -2.5378873458,
				"z": -0.1392319465,
				"element": "O" 
			},
			{
				"x": 0.905469853,
				"y": -1.1864912018,
				"z": -0.1396332356,
				"element": "C" 
			},
			{
				"x": 1.9479808356,
				"y": -0.5764034477,
				"z": -0.1364707024,
				"element": "O" 
			},
			{
				"x": 0.5582265698,
				"y": 1.3167556171,
				"z": 0.1239974481,
				"element": "H" 
			},
			{
				"x": -2.4397171055,
				"y": -0.7120971524,
				"z": 0.0882102126,
				"element": "H" 
			},
			{
				"x": 0.8084097302,
				"y": -2.2761853881,
				"z": -0.2408561825,
				"element": "H" 
			}
		],
		 "valence_orbital": [ 
			{
				"type": "occ",
				"energy": -0.41975,
				"method": "rhf"
			},
			{
				"type": "occ",
				"energy": -0.34927,
				"method": "rhf"
			},
			{
				"type": "occ",
				"energy": -0.32221,
				"method": "rhf"
			},
			{
				"type": "occ",
				"energy": -0.29242,
				"method": "rhf"
			},
			{
				"type": "occ",
				"energy": -0.29242,
				"method": "rhf"
			},
			{
				"type": "unocc",
				"energy": -0.06458,
				"method": "rhf"
			},
			{
				"type": "unocc",
				"energy": -0.06457,
				"method": "rhf"
			},
			{
				"type": "unocc",
				"energy": 0.03654,
				"method": "rhf"
			},
			{
				"type": "unocc",
				"energy": 0.1136,
				"method": "rhf"
			},
			{
				"type": "unocc",
				"energy": 0.11361,
				"method": "rhf"
			}
		],
		"cosmo_sigma_profile": { 
			"-0.025": 0.0,
			"-0.024": 0.0,
			"-0.023": 0.0,
			"-0.022": 0.0,
			"-0.021": 0.0,
			"-0.02": 0.0,
			"-0.019": 0.0,
			"-0.018": 0.0,
			"-0.017": 0.0,
			"-0.016": 0.0,
			"-0.015": 0.0,
			"-0.014": 0.0,
			"-0.013": 0.0,
			"-0.012": 0.0,
			"-0.011": 0.0124322841412,
			"-0.01": 2.01464673711,
			"-0.009": 5.35542666077,
			"-0.008": 8.07328930453,
			"-0.007": 16.4112230231,
			"-0.006": 8.92537026932,
			"-0.005": 6.87763956388,
			"-0.004": 4.76448134126,
			"-0.003": 5.26107145686,
			"-0.002": 4.38039787924,
			"-0.001": 4.47128698727,
			"0.0": 3.52805222262,
			"0.001": 4.00433225767,
			"0.002": 4.07199823681,
			"0.003": 2.88747561847,
			"0.004": 4.02949157675,
			"0.005": 4.47479510105,
			"0.006": 4.11704524451,
			"0.007": 4.92229774924,
			"0.008": 6.5890721275,
			"0.009": 10.0290969091,
			"0.01": 8.81429312779,
			"0.011": 3.06188588616,
			"0.012": 0.0333416668189,
			"0.013": 0.0,
			"0.014": 0.0,
			"0.015": 0.0,
			"0.016": 0.0,
			"0.017": 0.0,
			"0.018": 0.0,
			"0.019": 0.0,
			"0.02": 0.0,
			"0.021": 0.0,
			"0.022": 0.0,
			"0.023": 0.0,
			"0.024": 0.0,
			"0.025": 0.0
		}
	}
}
