{
	 "smiles": "CNC1=NC=CN=C1", 
	 "Tm": 318.15, 
	 "num_atms": 15, 
	 "gaussian": { 
		 "optdone": 1, 
		 "sigma_profile": "yes", 
		 "theory": "DFT", 
		 "functional": "B3LYP", 
		 "basiset": "6-31G**", 
		 "properties": { 
			 "R2extent": 1471.3377, 
			 "electric_dipole_moment_norm": 2.36569721858, 
			 "electric_quadrupole_moment_norm": 9.002042556, 
			 "total_energy": -358.994084678, 
			 "HOMO_LUMO_gap": 0.18028, 
			 "cosmo_polarized_energy": -9.31, 
			 "cosmo_cavitation_energy": 18.81, 
			 "cosmo_dispersion_energy": -14.29, 
			 "cosmo_repulsion_energy": 1.19, 
			 "cosmo_total_nonelectrostatic_energy": 5.71, 
			 "SMD_solvation_energy": 0.53 
		},
		"coords": [
			{
				"x": -0.4177883245,
				"y": -1.8680393447,
				"z": -1.2176155369,
				"element": "C" 
			},
			{
				"x": -0.5724215554,
				"y": -1.0637185021,
				"z": -0.0179757414,
				"element": "N" 
			},
			{
				"x": 0.4763785363,
				"y": -0.8156441399,
				"z": 0.8286864377,
				"element": "C" 
			},
			{
				"x": 1.7089042603,
				"y": -1.1646708807,
				"z": 0.4329736129,
				"element": "N" 
			},
			{
				"x": 2.7094085726,
				"y": -0.8679210436,
				"z": 1.274706508,
				"element": "C" 
			},
			{
				"x": 2.5037963336,
				"y": -0.2453677696,
				"z": 2.499081356,
				"element": "C" 
			},
			{
				"x": 1.2652832819,
				"y": 0.0973661939,
				"z": 2.9045783516,
				"element": "N" 
			},
			{
				"x": 0.2674108487,
				"y": -0.1809232006,
				"z": 2.0827222083,
				"element": "C" 
			},
			{
				"x": 0.38304549,
				"y": -1.4594577748,
				"z": -1.8375329376,
				"element": "H" 
			},
			{
				"x": -0.16689823,
				"y": -2.9148100954,
				"z": -0.9976585392,
				"element": "H" 
			},
			{
				"x": -1.3530123323,
				"y": -1.837143131,
				"z": -1.7811687629,
				"element": "H" 
			},
			{
				"x": -1.495771711,
				"y": -0.9980855196,
				"z": 0.3812894823,
				"element": "H" 
			},
			{
				"x": 3.7113543392,
				"y": -1.1471826004,
				"z": 0.9529780239,
				"element": "H" 
			},
			{
				"x": 3.3291747686,
				"y": -0.0184482257,
				"z": 3.1681663609,
				"element": "H" 
			},
			{
				"x": -0.7383642781,
				"y": 0.0961460341,
				"z": 2.4002691763,
				"element": "H" 
			}
		],
		 "valence_orbital": [ 
			{
				"type": "occ",
				"energy": -0.32712,
				"method": "rhf"
			},
			{
				"type": "occ",
				"energy": -0.29831,
				"method": "rhf"
			},
			{
				"type": "occ",
				"energy": -0.29539,
				"method": "rhf"
			},
			{
				"type": "occ",
				"energy": -0.23982,
				"method": "rhf"
			},
			{
				"type": "occ",
				"energy": -0.21243,
				"method": "rhf"
			},
			{
				"type": "unocc",
				"energy": -0.03215,
				"method": "rhf"
			},
			{
				"type": "unocc",
				"energy": 0.00374,
				"method": "rhf"
			},
			{
				"type": "unocc",
				"energy": 0.07745,
				"method": "rhf"
			},
			{
				"type": "unocc",
				"energy": 0.12179,
				"method": "rhf"
			},
			{
				"type": "unocc",
				"energy": 0.13229,
				"method": "rhf"
			}
		],
		"cosmo_sigma_profile": { 
			"-0.025": 0.0,
			"-0.024": 0.0,
			"-0.023": 0.0,
			"-0.022": 0.0,
			"-0.021": 0.0,
			"-0.02": 0.0,
			"-0.019": 0.0,
			"-0.018": 0.0,
			"-0.017": 0.0,
			"-0.016": 0.0,
			"-0.015": 0.0222221205574,
			"-0.014": 1.00863121413,
			"-0.013": 1.64388073912,
			"-0.012": 1.78874643983,
			"-0.011": 0.96812946358,
			"-0.01": 1.27687511874,
			"-0.009": 2.05402324333,
			"-0.008": 1.5896531763,
			"-0.007": 3.78082068812,
			"-0.006": 7.88928726412,
			"-0.005": 8.2855565291,
			"-0.004": 9.50799963347,
			"-0.003": 9.96614213736,
			"-0.002": 12.098645189,
			"-0.001": 11.4358967673,
			"0.0": 11.7694319156,
			"0.001": 10.5885500795,
			"0.002": 11.139123762,
			"0.003": 9.13192295159,
			"0.004": 5.7842502005,
			"0.005": 4.79527639494,
			"0.006": 3.53820491948,
			"0.007": 3.56469192776,
			"0.008": 3.65884154596,
			"0.009": 2.75364953447,
			"0.01": 1.68133304465,
			"0.011": 1.01810313309,
			"0.012": 2.23920583168,
			"0.013": 2.0375151378,
			"0.014": 1.51288316368,
			"0.015": 0.635983079166,
			"0.016": 0.615042435508,
			"0.017": 0.0366767066548,
			"0.018": 0.0,
			"0.019": 0.0,
			"0.02": 0.0,
			"0.021": 0.0,
			"0.022": 0.0,
			"0.023": 0.0,
			"0.024": 0.0,
			"0.025": 0.0
		}
	}
}
