{
	 "smiles": "BrC1=CC=C(C=C1)C1=CC=C(O1)C=O", 
	 "Tm": 425.15, 
	 "num_atms": 21, 
	 "gaussian": { 
		 "optdone": 1, 
		 "sigma_profile": "yes", 
		 "theory": "DFT", 
		 "functional": "B3LYP", 
		 "basiset": "6-31G**", 
		 "properties": { 
			 "R2extent": 6379.6176, 
			 "electric_dipole_moment_norm": 4.04218527408, 
			 "electric_quadrupole_moment_norm": 17.2512572495, 
			 "total_energy": -3145.2147621, 
			 "HOMO_LUMO_gap": 0.14865, 
			 "cosmo_polarized_energy": -11.56, 
			 "cosmo_cavitation_energy": 29.16, 
			 "cosmo_dispersion_energy": -21.53, 
			 "cosmo_repulsion_energy": 1.67, 
			 "cosmo_total_nonelectrostatic_energy": 9.31, 
			 "SMD_solvation_energy": 5.35 
		},
		"coords": [
			{
				"x": -4.0485956143,
				"y": -0.7135884686,
				"z": -2.8866710154,
				"element": "Br" 
			},
			{
				"x": -2.309241713,
				"y": -0.416399739,
				"z": -2.1611925783,
				"element": "C" 
			},
			{
				"x": -2.1621015218,
				"y": 0.3894105181,
				"z": -1.0324927813,
				"element": "C" 
			},
			{
				"x": -0.8916236166,
				"y": 0.6039294108,
				"z": -0.5064520175,
				"element": "C" 
			},
			{
				"x": 0.240396339,
				"y": 0.0178788942,
				"z": -1.1003635016,
				"element": "C" 
			},
			{
				"x": 0.0646408433,
				"y": -0.7904072157,
				"z": -2.2376114435,
				"element": "C" 
			},
			{
				"x": -1.2017005304,
				"y": -1.0093911224,
				"z": -2.7689871222,
				"element": "C" 
			},
			{
				"x": 1.5690969467,
				"y": 0.2435328488,
				"z": -0.5486258945,
				"element": "C" 
			},
			{
				"x": 2.8295859329,
				"y": -0.1901407615,
				"z": -0.910776522,
				"element": "C" 
			},
			{
				"x": 3.7318368651,
				"y": 0.3727214612,
				"z": 0.0238846837,
				"element": "C" 
			},
			{
				"x": 2.9771367408,
				"y": 1.1166898727,
				"z": 0.9026784786,
				"element": "C" 
			},
			{
				"x": 1.6575398266,
				"y": 1.036753897,
				"z": 0.5518753647,
				"element": "O" 
			},
			{
				"x": 3.3574206967,
				"y": 1.9114119514,
				"z": 2.0586665977,
				"element": "C" 
			},
			{
				"x": 2.5867994891,
				"y": 2.5335419553,
				"z": 2.7684694459,
				"element": "O" 
			},
			{
				"x": -3.0308354771,
				"y": 0.8439084689,
				"z": -0.5703222515,
				"element": "H" 
			},
			{
				"x": -0.7705002605,
				"y": 1.2294377912,
				"z": 0.3708919321,
				"element": "H" 
			},
			{
				"x": 0.9225217171,
				"y": -1.254037014,
				"z": -2.714333451,
				"element": "H" 
			},
			{
				"x": -1.3301159341,
				"y": -1.6334694161,
				"z": -3.6457803279,
				"element": "H" 
			},
			{
				"x": 3.0739454428,
				"y": -0.8323004563,
				"z": -1.7438670453,
				"element": "H" 
			},
			{
				"x": 4.8057359171,
				"y": 0.2512699572,
				"z": 0.054479183,
				"element": "H" 
			},
			{
				"x": 4.4531579106,
				"y": 1.9014471668,
				"z": 2.2458302665,
				"element": "H" 
			}
		],
		 "valence_orbital": [ 
			{
				"type": "occ",
				"energy": -0.29443,
				"method": "rhf"
			},
			{
				"type": "occ",
				"energy": -0.27598,
				"method": "rhf"
			},
			{
				"type": "occ",
				"energy": -0.2754,
				"method": "rhf"
			},
			{
				"type": "occ",
				"energy": -0.25685,
				"method": "rhf"
			},
			{
				"type": "occ",
				"energy": -0.22511,
				"method": "rhf"
			},
			{
				"type": "unocc",
				"energy": -0.07646,
				"method": "rhf"
			},
			{
				"type": "unocc",
				"energy": -0.0284,
				"method": "rhf"
			},
			{
				"type": "unocc",
				"energy": -0.02229,
				"method": "rhf"
			},
			{
				"type": "unocc",
				"energy": 0.00033,
				"method": "rhf"
			},
			{
				"type": "unocc",
				"energy": 0.05116,
				"method": "rhf"
			}
		],
		"cosmo_sigma_profile": { 
			"-0.025": 0.0,
			"-0.024": 0.0,
			"-0.023": 0.0,
			"-0.022": 0.0,
			"-0.021": 0.0,
			"-0.02": 0.0,
			"-0.019": 0.0,
			"-0.018": 0.0,
			"-0.017": 0.0,
			"-0.016": 0.0,
			"-0.015": 0.0,
			"-0.014": 0.0,
			"-0.013": 0.0,
			"-0.012": 0.0,
			"-0.011": 0.0,
			"-0.01": 0.12403376351,
			"-0.009": 3.76934567449,
			"-0.008": 7.39574421428,
			"-0.007": 12.2733390558,
			"-0.006": 13.8591549211,
			"-0.005": 11.5293987032,
			"-0.004": 11.7060021076,
			"-0.003": 12.3950068758,
			"-0.002": 11.9809099477,
			"-0.001": 16.5791106554,
			"0.0": 25.0875107964,
			"0.001": 23.5813051621,
			"0.002": 28.2800539291,
			"0.003": 19.6853855942,
			"0.004": 13.3215396889,
			"0.005": 5.26845806043,
			"0.006": 1.82053261199,
			"0.007": 1.73558484111,
			"0.008": 2.18238552633,
			"0.009": 2.41819365631,
			"0.01": 2.43502267253,
			"0.011": 3.92404801508,
			"0.012": 5.06568787102,
			"0.013": 2.38044416099,
			"0.014": 0.171217559415,
			"0.015": 0.0,
			"0.016": 0.0,
			"0.017": 0.0,
			"0.018": 0.0,
			"0.019": 0.0,
			"0.02": 0.0,
			"0.021": 0.0,
			"0.022": 0.0,
			"0.023": 0.0,
			"0.024": 0.0,
			"0.025": 0.0
		}
	}
}
