{
	 "smiles": "CN1N=C(C2=C1NC=CC2=O)[N+]([O-])=O", 
	 "Tm": 496.15, 
	 "num_atms": 20, 
	 "gaussian": { 
		 "optdone": 1, 
		 "sigma_profile": "yes", 
		 "theory": "DFT", 
		 "functional": "B3LYP", 
		 "basiset": "6-31G**", 
		 "properties": { 
			 "R2extent": 4008.4044, 
			 "electric_dipole_moment_norm": 11.4741237439, 
			 "electric_quadrupole_moment_norm": 24.3287292669, 
			 "total_energy": -714.893214551, 
			 "HOMO_LUMO_gap": 0.16264, 
			 "cosmo_polarized_energy": -33.5, 
			 "cosmo_cavitation_energy": 25.84, 
			 "cosmo_dispersion_energy": -18.97, 
			 "cosmo_repulsion_energy": 1.49, 
			 "cosmo_total_nonelectrostatic_energy": 8.35, 
			 "SMD_solvation_energy": 6.65 
		},
		"coords": [
			{
				"x": 1.0454273504,
				"y": -0.3780662067,
				"z": 1.8172321346,
				"element": "C" 
			},
			{
				"x": -0.0625492957,
				"y": 0.4291201552,
				"z": 1.3406517783,
				"element": "N" 
			},
			{
				"x": -0.3477174013,
				"y": 1.6178109488,
				"z": 1.9330387095,
				"element": "N" 
			},
			{
				"x": -1.3734050842,
				"y": 2.0973188098,
				"z": 1.253753222,
				"element": "C" 
			},
			{
				"x": -1.8044359378,
				"y": 1.2488233269,
				"z": 0.1968405385,
				"element": "C" 
			},
			{
				"x": -0.9126980445,
				"y": 0.1810927187,
				"z": 0.3089532136,
				"element": "C" 
			},
			{
				"x": -0.926577193,
				"y": -0.9178529964,
				"z": -0.502948728,
				"element": "N" 
			},
			{
				"x": -1.8973157955,
				"y": -0.9713895963,
				"z": -1.4910337631,
				"element": "C" 
			},
			{
				"x": -2.8147747566,
				"y": 0.0108566449,
				"z": -1.6534106216,
				"element": "C" 
			},
			{
				"x": -2.8936286046,
				"y": 1.2143562788,
				"z": -0.7974000524,
				"element": "C" 
			},
			{
				"x": -3.7825666953,
				"y": 2.049763619,
				"z": -0.9113779405,
				"element": "O" 
			},
			{
				"x": -1.880322076,
				"y": 3.4142665294,
				"z": 1.6211228452,
				"element": "N" 
			},
			{
				"x": -2.3464250567,
				"y": 4.0903086144,
				"z": 0.7101382648,
				"element": "O" 
			},
			{
				"x": -1.7841717049,
				"y": 3.7465782947,
				"z": 2.7996532954,
				"element": "O" 
			},
			{
				"x": 1.4711262088,
				"y": 0.141273064,
				"z": 2.6744885484,
				"element": "H" 
			},
			{
				"x": 0.6982053274,
				"y": -1.3671692453,
				"z": 2.1345369829,
				"element": "H" 
			},
			{
				"x": 1.8135819598,
				"y": -0.48647762,
				"z": 1.0440398061,
				"element": "H" 
			},
			{
				"x": -0.2730390012,
				"y": -1.6751788143,
				"z": -0.3815855407,
				"element": "H" 
			},
			{
				"x": -1.8642990812,
				"y": -1.8571973503,
				"z": -2.1149815579,
				"element": "H" 
			},
			{
				"x": -3.5600151179,
				"y": -0.0780371752,
				"z": -2.4350111351,
				"element": "H" 
			}
		],
		 "valence_orbital": [ 
			{
				"type": "occ",
				"energy": -0.29562,
				"method": "rhf"
			},
			{
				"type": "occ",
				"energy": -0.28603,
				"method": "rhf"
			},
			{
				"type": "occ",
				"energy": -0.2727,
				"method": "rhf"
			},
			{
				"type": "occ",
				"energy": -0.23784,
				"method": "rhf"
			},
			{
				"type": "occ",
				"energy": -0.23653,
				"method": "rhf"
			},
			{
				"type": "unocc",
				"energy": -0.07389,
				"method": "rhf"
			},
			{
				"type": "unocc",
				"energy": -0.03757,
				"method": "rhf"
			},
			{
				"type": "unocc",
				"energy": -0.00798,
				"method": "rhf"
			},
			{
				"type": "unocc",
				"energy": 0.02148,
				"method": "rhf"
			},
			{
				"type": "unocc",
				"energy": 0.03475,
				"method": "rhf"
			}
		],
		"cosmo_sigma_profile": { 
			"-0.025": 0.0,
			"-0.024": 0.0,
			"-0.023": 0.0,
			"-0.022": 0.0,
			"-0.021": 0.0,
			"-0.02": 0.0,
			"-0.019": 0.0670178865092,
			"-0.018": 1.38167022699,
			"-0.017": 1.61431302117,
			"-0.016": 1.58181544443,
			"-0.015": 1.66162855054,
			"-0.014": 1.99701659747,
			"-0.013": 1.82996481233,
			"-0.012": 1.94119889436,
			"-0.011": 2.06650196781,
			"-0.01": 3.91415267642,
			"-0.009": 4.04776728367,
			"-0.008": 7.67434230787,
			"-0.007": 9.65987768483,
			"-0.006": 11.5498094901,
			"-0.005": 10.6350787082,
			"-0.004": 12.1903474199,
			"-0.003": 11.0468513638,
			"-0.002": 12.02367741,
			"-0.001": 11.95323334,
			"0.0": 9.06955542918,
			"0.001": 8.01323082233,
			"0.002": 7.51496507259,
			"0.003": 7.00235560088,
			"0.004": 4.3465982078,
			"0.005": 4.18011666068,
			"0.006": 5.53697886985,
			"0.007": 8.66244996835,
			"0.008": 11.7515195674,
			"0.009": 8.16872082956,
			"0.01": 4.98101947412,
			"0.011": 3.43940286474,
			"0.012": 4.01440187079,
			"0.013": 4.02894459045,
			"0.014": 6.22815666455,
			"0.015": 1.78836128145,
			"0.016": 0.0182892908475,
			"0.017": 0.0,
			"0.018": 0.0,
			"0.019": 0.0,
			"0.02": 0.0,
			"0.021": 0.0,
			"0.022": 0.0,
			"0.023": 0.0,
			"0.024": 0.0,
			"0.025": 0.0
		}
	}
}
