{
	 "smiles": "NNC(=O)C1=NNC2=C1CCCC2", 
	 "Tm": 450.15, 
	 "num_atms": 25, 
	 "gaussian": { 
		 "optdone": 1, 
		 "sigma_profile": "yes", 
		 "theory": "DFT", 
		 "functional": "B3LYP", 
		 "basiset": "6-31G**", 
		 "properties": { 
			 "R2extent": 2973.5781, 
			 "electric_dipole_moment_norm": 5.02396984465, 
			 "electric_quadrupole_moment_norm": 4.62969677193, 
			 "total_energy": -606.290113828, 
			 "HOMO_LUMO_gap": 0.21836, 
			 "cosmo_polarized_energy": -15.89, 
			 "cosmo_cavitation_energy": 27.26, 
			 "cosmo_dispersion_energy": -20.73, 
			 "cosmo_repulsion_energy": 1.67, 
			 "cosmo_total_nonelectrostatic_energy": 8.2, 
			 "SMD_solvation_energy": 4.31 
		},
		"coords": [
			{
				"x": -3.5028619739,
				"y": -0.6066278881,
				"z": 1.4661088299,
				"element": "N" 
			},
			{
				"x": -3.1732341152,
				"y": 0.7606281256,
				"z": 1.5372056398,
				"element": "N" 
			},
			{
				"x": -2.0053002577,
				"y": 1.3989426774,
				"z": 1.2117779025,
				"element": "C" 
			},
			{
				"x": -1.9019145399,
				"y": 2.6161991186,
				"z": 1.3727225108,
				"element": "O" 
			},
			{
				"x": -0.8644748624,
				"y": 0.6202574022,
				"z": 0.657387882,
				"element": "C" 
			},
			{
				"x": -0.909488362,
				"y": -0.6874211417,
				"z": 0.3513545359,
				"element": "N" 
			},
			{
				"x": 0.3169223449,
				"y": -0.9593665577,
				"z": -0.1319555771,
				"element": "N" 
			},
			{
				"x": 1.1443753246,
				"y": 0.1241524986,
				"z": -0.1451806836,
				"element": "C" 
			},
			{
				"x": 0.4120687773,
				"y": 1.1785406342,
				"z": 0.3648820209,
				"element": "C" 
			},
			{
				"x": 0.9781180919,
				"y": 2.5623243151,
				"z": 0.5095816194,
				"element": "C" 
			},
			{
				"x": 2.5144142104,
				"y": 2.5241873144,
				"z": 0.3734652746,
				"element": "C" 
			},
			{
				"x": 2.978390764,
				"y": 1.6448331286,
				"z": -0.8019398147,
				"element": "C" 
			},
			{
				"x": 2.5670584235,
				"y": 0.1687227915,
				"z": -0.6095860395,
				"element": "C" 
			},
			{
				"x": -2.8507831167,
				"y": -1.1267521076,
				"z": 2.051066485,
				"element": "H" 
			},
			{
				"x": -3.3183019362,
				"y": -0.9299102619,
				"z": 0.5190850297,
				"element": "H" 
			},
			{
				"x": -3.8979589565,
				"y": 1.367994175,
				"z": 1.8953406652,
				"element": "H" 
			},
			{
				"x": 0.5211964126,
				"y": -1.89814175,
				"z": -0.4396799142,
				"element": "H" 
			},
			{
				"x": 0.6763563869,
				"y": 2.9993633444,
				"z": 1.4649472605,
				"element": "H" 
			},
			{
				"x": 0.5451837511,
				"y": 3.2185777186,
				"z": -0.2568952998,
				"element": "H" 
			},
			{
				"x": 2.8994461993,
				"y": 3.5422086867,
				"z": 0.2496141907,
				"element": "H" 
			},
			{
				"x": 2.9522144414,
				"y": 2.1349245313,
				"z": 1.3028760532,
				"element": "H" 
			},
			{
				"x": 2.5340820642,
				"y": 2.0213091137,
				"z": -1.7323276374,
				"element": "H" 
			},
			{
				"x": 4.0653233835,
				"y": 1.7072709169,
				"z": -0.9213654909,
				"element": "H" 
			},
			{
				"x": 3.223058642,
				"y": -0.3069374835,
				"z": 0.1336121058,
				"element": "H" 
			},
			{
				"x": 2.6981089029,
				"y": -0.3923793021,
				"z": -1.5436975486,
				"element": "H" 
			}
		],
		 "valence_orbital": [ 
			{
				"type": "occ",
				"energy": -0.26864,
				"method": "rhf"
			},
			{
				"type": "occ",
				"energy": -0.25712,
				"method": "rhf"
			},
			{
				"type": "occ",
				"energy": -0.24204,
				"method": "rhf"
			},
			{
				"type": "occ",
				"energy": -0.23639,
				"method": "rhf"
			},
			{
				"type": "occ",
				"energy": -0.23412,
				"method": "rhf"
			},
			{
				"type": "unocc",
				"energy": -0.01576,
				"method": "rhf"
			},
			{
				"type": "unocc",
				"energy": 0.03262,
				"method": "rhf"
			},
			{
				"type": "unocc",
				"energy": 0.07401,
				"method": "rhf"
			},
			{
				"type": "unocc",
				"energy": 0.08739,
				"method": "rhf"
			},
			{
				"type": "unocc",
				"energy": 0.10392,
				"method": "rhf"
			}
		],
		"cosmo_sigma_profile": { 
			"-0.025": 0.0,
			"-0.024": 0.0,
			"-0.023": 0.0,
			"-0.022": 0.0,
			"-0.021": 0.0,
			"-0.02": 0.0,
			"-0.019": 0.0,
			"-0.018": 0.0,
			"-0.017": 0.379388903062,
			"-0.016": 1.63599053638,
			"-0.015": 1.17013603665,
			"-0.014": 1.37562022054,
			"-0.013": 1.61475169767,
			"-0.012": 1.61662465938,
			"-0.011": 2.13429406389,
			"-0.01": 3.05526775357,
			"-0.009": 2.88279692395,
			"-0.008": 3.23732397457,
			"-0.007": 4.18289455361,
			"-0.006": 4.80879866025,
			"-0.005": 6.39319618786,
			"-0.004": 8.93253676263,
			"-0.003": 17.4329577722,
			"-0.002": 24.7201947439,
			"-0.001": 25.0428558285,
			"0.0": 19.8862072582,
			"0.001": 14.6494759637,
			"0.002": 10.1735065096,
			"0.003": 10.6027497475,
			"0.004": 10.2003563705,
			"0.005": 5.10888902823,
			"0.006": 4.00864231869,
			"0.007": 3.20598825076,
			"0.008": 3.95248545587,
			"0.009": 3.23042266971,
			"0.01": 2.04342578326,
			"0.011": 1.99803821292,
			"0.012": 2.80230659277,
			"0.013": 2.8518948119,
			"0.014": 4.95812433524,
			"0.015": 2.14481833461,
			"0.016": 0.651328944266,
			"0.017": 0.133453600704,
			"0.018": 0.0,
			"0.019": 0.0,
			"0.02": 0.0,
			"0.021": 0.0,
			"0.022": 0.0,
			"0.023": 0.0,
			"0.024": 0.0,
			"0.025": 0.0
		}
	}
}
