{
	 "smiles": "O=C(CCC(=O)OCC1=CC=CC=C1)OCC1=CC=CC=C1", 
	 "Tm": 320.35, 
	 "num_atms": 40, 
	 "gaussian": { 
		 "optdone": 1, 
		 "sigma_profile": "yes", 
		 "theory": "DFT", 
		 "functional": "B3LYP", 
		 "basiset": "6-31G**", 
		 "properties": { 
			 "R2extent": 7162.8628, 
			 "electric_dipole_moment_norm": 2.93235163819, 
			 "electric_quadrupole_moment_norm": 9.94662650852, 
			 "total_energy": -997.686141615, 
			 "HOMO_LUMO_gap": 0.22801, 
			 "cosmo_polarized_energy": -13.97, 
			 "cosmo_cavitation_energy": 44.55, 
			 "cosmo_dispersion_energy": -28.5, 
			 "cosmo_repulsion_energy": 2.18, 
			 "cosmo_total_nonelectrostatic_energy": 18.23, 
			 "SMD_solvation_energy": 8.61 
		},
		"coords": [
			{
				"x": 2.5043104718,
				"y": 0.8480824939,
				"z": -2.0861091306,
				"element": "O" 
			},
			{
				"x": 2.5724985341,
				"y": 0.1062468729,
				"z": -1.1291092307,
				"element": "C" 
			},
			{
				"x": 3.0993217458,
				"y": 0.5096063273,
				"z": 0.237473731,
				"element": "C" 
			},
			{
				"x": 2.143541017,
				"y": 0.211002481,
				"z": 1.4135758722,
				"element": "C" 
			},
			{
				"x": 0.9080061494,
				"y": 1.0914674496,
				"z": 1.3765195551,
				"element": "C" 
			},
			{
				"x": 0.7590863494,
				"y": 2.0997561505,
				"z": 2.034948558,
				"element": "O" 
			},
			{
				"x": 0.0160022874,
				"y": 0.6224305051,
				"z": 0.4802625738,
				"element": "O" 
			},
			{
				"x": -1.2015433822,
				"y": 1.4013338007,
				"z": 0.288083944,
				"element": "C" 
			},
			{
				"x": -2.2935032381,
				"y": 0.9761937251,
				"z": 1.2380494534,
				"element": "C" 
			},
			{
				"x": -3.1507847562,
				"y": -0.0786983997,
				"z": 0.8986285325,
				"element": "C" 
			},
			{
				"x": -4.1587778427,
				"y": -0.4822972095,
				"z": 1.7748532368,
				"element": "C" 
			},
			{
				"x": -4.3203164341,
				"y": 0.1669625321,
				"z": 3.0006521011,
				"element": "C" 
			},
			{
				"x": -3.468776435,
				"y": 1.218217708,
				"z": 3.3472849671,
				"element": "C" 
			},
			{
				"x": -2.4595540825,
				"y": 1.620380945,
				"z": 2.4717568617,
				"element": "C" 
			},
			{
				"x": 2.2424202825,
				"y": -1.2034834154,
				"z": -1.155952382,
				"element": "O" 
			},
			{
				"x": 1.7863732811,
				"y": -1.7363296372,
				"z": -2.4310975372,
				"element": "C" 
			},
			{
				"x": 0.2949818756,
				"y": -1.6045621849,
				"z": -2.6211685369,
				"element": "C" 
			},
			{
				"x": -0.2495587258,
				"y": -0.4683063314,
				"z": -3.2368271604,
				"element": "C" 
			},
			{
				"x": -1.6275670861,
				"y": -0.3623409276,
				"z": -3.4297193227,
				"element": "C" 
			},
			{
				"x": -2.4771566797,
				"y": -1.3891496688,
				"z": -3.0077907957,
				"element": "C" 
			},
			{
				"x": -1.942814688,
				"y": -2.5217162635,
				"z": -2.3892266232,
				"element": "C" 
			},
			{
				"x": -0.563964254,
				"y": -2.6264438681,
				"z": -2.1991243289,
				"element": "C" 
			},
			{
				"x": 4.0327281612,
				"y": -0.0405866918,
				"z": 0.404638997,
				"element": "H" 
			},
			{
				"x": 3.3397362698,
				"y": 1.5739934743,
				"z": 0.1922787741,
				"element": "H" 
			},
			{
				"x": 1.8471269732,
				"y": -0.8403323071,
				"z": 1.385046873,
				"element": "H" 
			},
			{
				"x": 2.6582346034,
				"y": 0.4153443528,
				"z": 2.3546344486,
				"element": "H" 
			},
			{
				"x": -0.9572445733,
				"y": 2.458197957,
				"z": 0.4099568416,
				"element": "H" 
			},
			{
				"x": -1.4773958465,
				"y": 1.1984319461,
				"z": -0.7478118599,
				"element": "H" 
			},
			{
				"x": -3.0243041235,
				"y": -0.5830414696,
				"z": -0.0560596946,
				"element": "H" 
			},
			{
				"x": -4.8198925334,
				"y": -1.2996638695,
				"z": 1.5003762237,
				"element": "H" 
			},
			{
				"x": -5.1073807117,
				"y": -0.1439580054,
				"z": 3.6820425173,
				"element": "H" 
			},
			{
				"x": -3.5908805804,
				"y": 1.7259839993,
				"z": 4.2999211711,
				"element": "H" 
			},
			{
				"x": -1.7845821117,
				"y": 2.4263935091,
				"z": 2.742204285,
				"element": "H" 
			},
			{
				"x": 2.3302212816,
				"y": -1.2279681931,
				"z": -3.2296771314,
				"element": "H" 
			},
			{
				"x": 2.0813612478,
				"y": -2.7871857811,
				"z": -2.3971954661,
				"element": "H" 
			},
			{
				"x": 0.4148541353,
				"y": 0.3291315972,
				"z": -3.5540717783,
				"element": "H" 
			},
			{
				"x": -2.03823513,
				"y": 0.5170981303,
				"z": -3.9179043919,
				"element": "H" 
			},
			{
				"x": -3.5488073969,
				"y": -1.3101746712,
				"z": -3.1680348837,
				"element": "H" 
			},
			{
				"x": -2.5969245046,
				"y": -3.3258065595,
				"z": -2.0642456978,
				"element": "H" 
			},
			{
				"x": -0.1496395499,
				"y": -3.5124105028,
				"z": -1.724163566,
				"element": "H" 
			}
		],
		 "valence_orbital": [ 
			{
				"type": "occ",
				"energy": -0.2697,
				"method": "rhf"
			},
			{
				"type": "occ",
				"energy": -0.25643,
				"method": "rhf"
			},
			{
				"type": "occ",
				"energy": -0.25317,
				"method": "rhf"
			},
			{
				"type": "occ",
				"energy": -0.2475,
				"method": "rhf"
			},
			{
				"type": "occ",
				"energy": -0.24497,
				"method": "rhf"
			},
			{
				"type": "unocc",
				"energy": -0.01696,
				"method": "rhf"
			},
			{
				"type": "unocc",
				"energy": -0.00851,
				"method": "rhf"
			},
			{
				"type": "unocc",
				"energy": -0.00779,
				"method": "rhf"
			},
			{
				"type": "unocc",
				"energy": 0.00139,
				"method": "rhf"
			},
			{
				"type": "unocc",
				"energy": 0.00367,
				"method": "rhf"
			}
		],
		"cosmo_sigma_profile": { 
			"-0.025": 0.0,
			"-0.024": 0.0,
			"-0.023": 0.0,
			"-0.022": 0.0,
			"-0.021": 0.0,
			"-0.02": 0.0,
			"-0.019": 0.0,
			"-0.018": 0.0,
			"-0.017": 0.0,
			"-0.016": 0.0,
			"-0.015": 0.0,
			"-0.014": 0.0,
			"-0.013": 0.0,
			"-0.012": 0.0,
			"-0.011": 0.0,
			"-0.01": 0.0,
			"-0.009": 0.0,
			"-0.008": 0.193846467705,
			"-0.007": 4.15694288847,
			"-0.006": 21.1222558568,
			"-0.005": 30.9601081074,
			"-0.004": 38.1471426564,
			"-0.003": 38.9496992814,
			"-0.002": 26.9146471105,
			"-0.001": 25.2415286012,
			"0.0": 23.6152820601,
			"0.001": 19.6054611046,
			"0.002": 19.4507469965,
			"0.003": 21.2258139284,
			"0.004": 22.9383015136,
			"0.005": 23.5479367027,
			"0.006": 11.0153627342,
			"0.007": 6.28452606209,
			"0.008": 3.43475588875,
			"0.009": 2.09445574713,
			"0.01": 3.92501843273,
			"0.011": 5.23372051025,
			"0.012": 4.84794859879,
			"0.013": 1.51206532521,
			"0.014": 0.0,
			"0.015": 0.0,
			"0.016": 0.0,
			"0.017": 0.0,
			"0.018": 0.0,
			"0.019": 0.0,
			"0.02": 0.0,
			"0.021": 0.0,
			"0.022": 0.0,
			"0.023": 0.0,
			"0.024": 0.0,
			"0.025": 0.0
		}
	}
}
