{
	 "smiles": "CCCCN1C(=O)NC(=O)C(NCC)=C1N", 
	 "Tm": 559.15, 
	 "num_atms": 34, 
	 "gaussian": { 
		 "optdone": 1, 
		 "sigma_profile": "yes", 
		 "theory": "DFT", 
		 "functional": "B3LYP", 
		 "basiset": "6-31G**", 
		 "properties": { 
			 "R2extent": 4126.0066, 
			 "electric_dipole_moment_norm": 4.51954019011, 
			 "electric_quadrupole_moment_norm": 11.3939861058, 
			 "total_energy": -761.420032502, 
			 "HOMO_LUMO_gap": 0.18963, 
			 "cosmo_polarized_energy": -17.91, 
			 "cosmo_cavitation_energy": 35.06, 
			 "cosmo_dispersion_energy": -24.42, 
			 "cosmo_repulsion_energy": 1.93, 
			 "cosmo_total_nonelectrostatic_energy": 12.57, 
			 "SMD_solvation_energy": 6.26 
		},
		"coords": [
			{
				"x": 2.2373036749,
				"y": -0.4915994497,
				"z": -2.9740136987,
				"element": "C" 
			},
			{
				"x": 1.0888931701,
				"y": -1.2201498634,
				"z": -2.2662480152,
				"element": "C" 
			},
			{
				"x": -0.3112707035,
				"y": -0.8894466686,
				"z": -2.8059402768,
				"element": "C" 
			},
			{
				"x": -0.8227782485,
				"y": 0.5369145119,
				"z": -2.5469450554,
				"element": "C" 
			},
			{
				"x": -1.0264306701,
				"y": 0.8410931629,
				"z": -1.1136524222,
				"element": "N" 
			},
			{
				"x": -2.162559864,
				"y": 0.2510582291,
				"z": -0.5366530297,
				"element": "C" 
			},
			{
				"x": -2.9747267269,
				"y": -0.3804599963,
				"z": -1.1979289437,
				"element": "O" 
			},
			{
				"x": -2.2870417607,
				"y": 0.4357969453,
				"z": 0.8227075682,
				"element": "N" 
			},
			{
				"x": -1.3990789905,
				"y": 1.1008753601,
				"z": 1.6900998658,
				"element": "C" 
			},
			{
				"x": -1.6529456337,
				"y": 1.191138896,
				"z": 2.8889363837,
				"element": "O" 
			},
			{
				"x": -0.2596054075,
				"y": 1.6783366279,
				"z": 1.0222479307,
				"element": "C" 
			},
			{
				"x": 0.675807639,
				"y": 2.4763868227,
				"z": 1.7418512324,
				"element": "N" 
			},
			{
				"x": 1.87790338,
				"y": 1.774909852,
				"z": 2.2495265303,
				"element": "C" 
			},
			{
				"x": 1.6274414045,
				"y": 0.6868040497,
				"z": 3.2973035457,
				"element": "C" 
			},
			{
				"x": -0.1436482697,
				"y": 1.5950350747,
				"z": -0.3482516889,
				"element": "C" 
			},
			{
				"x": 0.9008885012,
				"y": 2.2404648362,
				"z": -0.9792982311,
				"element": "N" 
			},
			{
				"x": 2.2142488027,
				"y": -0.6722499333,
				"z": -4.0552746085,
				"element": "H" 
			},
			{
				"x": 2.1970996498,
				"y": 0.5888012597,
				"z": -2.8055553466,
				"element": "H" 
			},
			{
				"x": 3.2068592943,
				"y": -0.8379983738,
				"z": -2.6016696626,
				"element": "H" 
			},
			{
				"x": 1.2375425235,
				"y": -2.3023851357,
				"z": -2.366631442,
				"element": "H" 
			},
			{
				"x": 1.1287108489,
				"y": -1.0123871234,
				"z": -1.1893884681,
				"element": "H" 
			},
			{
				"x": -1.0480718493,
				"y": -1.5829556803,
				"z": -2.3901132902,
				"element": "H" 
			},
			{
				"x": -0.326775555,
				"y": -1.0392548789,
				"z": -3.8943430416,
				"element": "H" 
			},
			{
				"x": -0.1405049271,
				"y": 1.2740567757,
				"z": -2.9696608067,
				"element": "H" 
			},
			{
				"x": -1.7920600006,
				"y": 0.6632072454,
				"z": -3.0321332351,
				"element": "H" 
			},
			{
				"x": -3.1099098037,
				"y": 0.0228638469,
				"z": 1.2436898632,
				"element": "H" 
			},
			{
				"x": 0.1871943187,
				"y": 2.9015208086,
				"z": 2.5273328053,
				"element": "H" 
			},
			{
				"x": 2.3981056074,
				"y": 1.3485744005,
				"z": 1.3837328747,
				"element": "H" 
			},
			{
				"x": 2.5393369629,
				"y": 2.5458545231,
				"z": 2.6634886623,
				"element": "H" 
			},
			{
				"x": 1.0113729865,
				"y": -0.1211132358,
				"z": 2.8931094584,
				"element": "H" 
			},
			{
				"x": 1.1070846621,
				"y": 1.0912983296,
				"z": 4.1706958722,
				"element": "H" 
			},
			{
				"x": 2.578209995,
				"y": 0.2556844049,
				"z": 3.6311394896,
				"element": "H" 
			},
			{
				"x": 1.3085966288,
				"y": 2.9124827549,
				"z": -0.3310081983,
				"element": "H" 
			},
			{
				"x": 0.6950083602,
				"y": 2.6372416216,
				"z": -1.8861526213,
				"element": "H" 
			}
		],
		 "valence_orbital": [ 
			{
				"type": "occ",
				"energy": -0.2807,
				"method": "rhf"
			},
			{
				"type": "occ",
				"energy": -0.27338,
				"method": "rhf"
			},
			{
				"type": "occ",
				"energy": -0.25964,
				"method": "rhf"
			},
			{
				"type": "occ",
				"energy": -0.25096,
				"method": "rhf"
			},
			{
				"type": "occ",
				"energy": -0.20274,
				"method": "rhf"
			},
			{
				"type": "unocc",
				"energy": -0.01311,
				"method": "rhf"
			},
			{
				"type": "unocc",
				"energy": 0.01941,
				"method": "rhf"
			},
			{
				"type": "unocc",
				"energy": 0.05317,
				"method": "rhf"
			},
			{
				"type": "unocc",
				"energy": 0.08988,
				"method": "rhf"
			},
			{
				"type": "unocc",
				"energy": 0.09787,
				"method": "rhf"
			}
		],
		"cosmo_sigma_profile": { 
			"-0.025": 0.0,
			"-0.024": 0.0,
			"-0.023": 0.0,
			"-0.022": 0.0,
			"-0.021": 0.0,
			"-0.02": 0.0,
			"-0.019": 0.0,
			"-0.018": 0.0,
			"-0.017": 0.0,
			"-0.016": 0.0,
			"-0.015": 1.35463163368,
			"-0.014": 2.20696637291,
			"-0.013": 1.65483315396,
			"-0.012": 2.34057756178,
			"-0.011": 3.20249075782,
			"-0.01": 3.00284944123,
			"-0.009": 4.46305405468,
			"-0.008": 3.50362117283,
			"-0.007": 3.44482870537,
			"-0.006": 3.52038149357,
			"-0.005": 6.0123958964,
			"-0.004": 10.396417552,
			"-0.003": 27.2945283637,
			"-0.002": 34.6322229751,
			"-0.001": 36.4054504631,
			"0.0": 34.1202130572,
			"0.001": 25.4509844705,
			"0.002": 13.0527741561,
			"0.003": 5.8655295077,
			"0.004": 4.98930696001,
			"0.005": 6.05396746782,
			"0.006": 5.06820487021,
			"0.007": 4.0952649827,
			"0.008": 3.63129265795,
			"0.009": 2.86367412586,
			"0.01": 3.25376988033,
			"0.011": 3.36946070254,
			"0.012": 4.49608725996,
			"0.013": 7.37649561936,
			"0.014": 5.39650356003,
			"0.015": 0.747683832669,
			"0.016": 0.0,
			"0.017": 0.0,
			"0.018": 0.0,
			"0.019": 0.0,
			"0.02": 0.0,
			"0.021": 0.0,
			"0.022": 0.0,
			"0.023": 0.0,
			"0.024": 0.0,
			"0.025": 0.0
		}
	}
}
