{
	 "smiles": "COC1=CC=C2NC=NC2=C1", 
	 "Tm": 395.15, 
	 "num_atms": 19, 
	 "gaussian": { 
		 "optdone": 1, 
		 "sigma_profile": "yes", 
		 "theory": "DFT", 
		 "functional": "B3LYP", 
		 "basiset": "6-31G**", 
		 "properties": { 
			 "R2extent": 2206.6472, 
			 "electric_dipole_moment_norm": 2.34818657266, 
			 "electric_quadrupole_moment_norm": 17.6004335197, 
			 "total_energy": -494.391299553, 
			 "HOMO_LUMO_gap": 0.19082, 
			 "cosmo_polarized_energy": -14.16, 
			 "cosmo_cavitation_energy": 22.83, 
			 "cosmo_dispersion_energy": -17.43, 
			 "cosmo_repulsion_energy": 1.38, 
			 "cosmo_total_nonelectrostatic_energy": 6.78, 
			 "SMD_solvation_energy": 2.92 
		},
		"coords": [
			{
				"x": -2.4003709976,
				"y": -1.948721787,
				"z": -2.0576691524,
				"element": "C" 
			},
			{
				"x": -2.4170707386,
				"y": -0.8366285588,
				"z": -1.1802567967,
				"element": "O" 
			},
			{
				"x": -1.2658651201,
				"y": -0.1049380329,
				"z": -1.0522482515,
				"element": "C" 
			},
			{
				"x": -1.3651710926,
				"y": 0.9887832287,
				"z": -0.156977108,
				"element": "C" 
			},
			{
				"x": -0.2887913891,
				"y": 1.8292814096,
				"z": 0.0853337076,
				"element": "C" 
			},
			{
				"x": 0.901777428,
				"y": 1.5516332541,
				"z": -0.5925117415,
				"element": "C" 
			},
			{
				"x": 2.153418871,
				"y": 2.1496316249,
				"z": -0.6079052736,
				"element": "N" 
			},
			{
				"x": 2.9275004731,
				"y": 1.420173937,
				"z": -1.4786049727,
				"element": "C" 
			},
			{
				"x": 2.2959642302,
				"y": 0.4110404978,
				"z": -2.0252002434,
				"element": "N" 
			},
			{
				"x": 1.0166354989,
				"y": 0.4654236148,
				"z": -1.4879598643,
				"element": "C" 
			},
			{
				"x": -0.0789042745,
				"y": -0.3804715508,
				"z": -1.7271138804,
				"element": "C" 
			},
			{
				"x": -1.663261548,
				"y": -2.7008204316,
				"z": -1.7462038629,
				"element": "H" 
			},
			{
				"x": -2.183645962,
				"y": -1.6474689605,
				"z": -3.0912424921,
				"element": "H" 
			},
			{
				"x": -3.3995126016,
				"y": -2.3855176254,
				"z": -2.0131927359,
				"element": "H" 
			},
			{
				"x": -2.3176343488,
				"y": 1.1489172016,
				"z": 0.3367582625,
				"element": "H" 
			},
			{
				"x": -0.3808395214,
				"y": 2.663450205,
				"z": 0.7744314586,
				"element": "H" 
			},
			{
				"x": 2.4435574615,
				"y": 2.9605466449,
				"z": -0.0847721146,
				"element": "H" 
			},
			{
				"x": 3.9596542104,
				"y": 1.6852869195,
				"z": -1.6698854359,
				"element": "H" 
			},
			{
				"x": 0.0258594211,
				"y": -1.2085015909,
				"z": -2.416379503,
				"element": "H" 
			}
		],
		 "valence_orbital": [ 
			{
				"type": "occ",
				"energy": -0.30182,
				"method": "rhf"
			},
			{
				"type": "occ",
				"energy": -0.29554,
				"method": "rhf"
			},
			{
				"type": "occ",
				"energy": -0.26661,
				"method": "rhf"
			},
			{
				"type": "occ",
				"energy": -0.22246,
				"method": "rhf"
			},
			{
				"type": "occ",
				"energy": -0.20207,
				"method": "rhf"
			},
			{
				"type": "unocc",
				"energy": -0.01125,
				"method": "rhf"
			},
			{
				"type": "unocc",
				"energy": 0.0363,
				"method": "rhf"
			},
			{
				"type": "unocc",
				"energy": 0.05816,
				"method": "rhf"
			},
			{
				"type": "unocc",
				"energy": 0.07652,
				"method": "rhf"
			},
			{
				"type": "unocc",
				"energy": 0.10491,
				"method": "rhf"
			}
		],
		"cosmo_sigma_profile": { 
			"-0.025": 0.0,
			"-0.024": 0.0,
			"-0.023": 0.0,
			"-0.022": 0.0,
			"-0.021": 0.0,
			"-0.02": 0.0,
			"-0.019": 0.0,
			"-0.018": 0.0,
			"-0.017": 0.425188130885,
			"-0.016": 1.77537684516,
			"-0.015": 1.39394799562,
			"-0.014": 1.27889126021,
			"-0.013": 1.41405936195,
			"-0.012": 0.925225829798,
			"-0.011": 1.51164752129,
			"-0.01": 1.73769935262,
			"-0.009": 3.67092960452,
			"-0.008": 3.18569765106,
			"-0.007": 3.56601706268,
			"-0.006": 7.63724794323,
			"-0.005": 14.9433700328,
			"-0.004": 13.027670788,
			"-0.003": 14.8503675715,
			"-0.002": 10.4517689272,
			"-0.001": 7.23126385617,
			"0.0": 7.51526223819,
			"0.001": 7.4684150276,
			"0.002": 10.7788566289,
			"0.003": 10.5362943805,
			"0.004": 13.0093249044,
			"0.005": 16.4362015309,
			"0.006": 6.55667040445,
			"0.007": 2.8725331862,
			"0.008": 3.33265419306,
			"0.009": 2.65447372597,
			"0.01": 3.39887257611,
			"0.011": 1.61341155048,
			"0.012": 1.34639558133,
			"0.013": 1.38401337667,
			"0.014": 0.910600087436,
			"0.015": 1.22732036998,
			"0.016": 0.818333796622,
			"0.017": 1.11258991402,
			"0.018": 0.601025599369,
			"0.019": 0.0,
			"0.02": 0.0,
			"0.021": 0.0,
			"0.022": 0.0,
			"0.023": 0.0,
			"0.024": 0.0,
			"0.025": 0.0
		}
	}
}
