{
	 "smiles": "OC1CCC(CC1)NC(=O)C(F)(F)F", 
	 "Tm": 460.15, 
	 "num_atms": 26, 
	 "gaussian": { 
		 "optdone": 1, 
		 "sigma_profile": "yes", 
		 "theory": "DFT", 
		 "functional": "B3LYP", 
		 "basiset": "6-31G**", 
		 "properties": { 
			 "R2extent": 3710.2881, 
			 "electric_dipole_moment_norm": 3.19161467756, 
			 "electric_quadrupole_moment_norm": 19.3137361792, 
			 "total_energy": -816.807124756, 
			 "HOMO_LUMO_gap": 0.25575, 
			 "cosmo_polarized_energy": -13.7, 
			 "cosmo_cavitation_energy": 28.86, 
			 "cosmo_dispersion_energy": -20.56, 
			 "cosmo_repulsion_energy": 1.58, 
			 "cosmo_total_nonelectrostatic_energy": 9.89, 
			 "SMD_solvation_energy": 5.95 
		},
		"coords": [
			{
				"x": 1.442239879,
				"y": -2.1392884138,
				"z": 2.5726161373,
				"element": "O" 
			},
			{
				"x": 0.6766650431,
				"y": -1.5606718559,
				"z": 1.5224255343,
				"element": "C" 
			},
			{
				"x": 0.6618661803,
				"y": -0.0140846524,
				"z": 1.5947026531,
				"element": "C" 
			},
			{
				"x": 0.609806149,
				"y": 0.659270729,
				"z": 0.2040579964,
				"element": "C" 
			},
			{
				"x": -0.1970508632,
				"y": -0.1563782132,
				"z": -0.8216542273,
				"element": "C" 
			},
			{
				"x": 0.4227791428,
				"y": -1.5728271032,
				"z": -1.00075881,
				"element": "C" 
			},
			{
				"x": 1.2769912482,
				"y": -2.0309718828,
				"z": 0.2007601382,
				"element": "C" 
			},
			{
				"x": -1.6145588072,
				"y": -0.2686087929,
				"z": -0.4299996936,
				"element": "N" 
			},
			{
				"x": -2.6904354092,
				"y": 0.4808271368,
				"z": -0.7841434501,
				"element": "C" 
			},
			{
				"x": -3.810945803,
				"y": 0.3245672398,
				"z": -0.3290766411,
				"element": "O" 
			},
			{
				"x": -2.453848179,
				"y": 1.581202717,
				"z": -1.8515560826,
				"element": "C" 
			},
			{
				"x": -2.0211856663,
				"y": 1.0463974426,
				"z": -3.0183877597,
				"element": "F" 
			},
			{
				"x": -1.515829053,
				"y": 2.4712035087,
				"z": -1.4441422227,
				"element": "F" 
			},
			{
				"x": -3.5789062437,
				"y": 2.2476503236,
				"z": -2.0919641906,
				"element": "F" 
			},
			{
				"x": 1.0814195762,
				"y": -1.8293445538,
				"z": 3.4136461132,
				"element": "H" 
			},
			{
				"x": -0.3611915158,
				"y": -1.9393046421,
				"z": 1.5810090676,
				"element": "H" 
			},
			{
				"x": 1.5799565411,
				"y": 0.2939474757,
				"z": 2.1069352382,
				"element": "H" 
			},
			{
				"x": -0.1780405182,
				"y": 0.3236144057,
				"z": 2.2133444724,
				"element": "H" 
			},
			{
				"x": 1.6269804281,
				"y": 0.7632971578,
				"z": -0.19249144,
				"element": "H" 
			},
			{
				"x": 0.1970499464,
				"y": 1.6687559667,
				"z": 0.276791782,
				"element": "H" 
			},
			{
				"x": -0.1764417942,
				"y": 0.3572508332,
				"z": -1.7818182839,
				"element": "H" 
			},
			{
				"x": 1.0425897727,
				"y": -1.5769861601,
				"z": -1.9029894455,
				"element": "H" 
			},
			{
				"x": -0.3876777464,
				"y": -2.2859300662,
				"z": -1.1874143904,
				"element": "H" 
			},
			{
				"x": 2.2954804561,
				"y": -1.6305760985,
				"z": 0.1283123366,
				"element": "H" 
			},
			{
				"x": 1.3701123951,
				"y": -3.1210860043,
				"z": 0.2092527825,
				"element": "H" 
			},
			{
				"x": -1.8519251588,
				"y": -0.9572264974,
				"z": 0.2743423859,
				"element": "H" 
			}
		],
		 "valence_orbital": [ 
			{
				"type": "occ",
				"energy": -0.33747,
				"method": "rhf"
			},
			{
				"type": "occ",
				"energy": -0.31758,
				"method": "rhf"
			},
			{
				"type": "occ",
				"energy": -0.27687,
				"method": "rhf"
			},
			{
				"type": "occ",
				"energy": -0.272,
				"method": "rhf"
			},
			{
				"type": "occ",
				"energy": -0.26506,
				"method": "rhf"
			},
			{
				"type": "unocc",
				"energy": -0.00931,
				"method": "rhf"
			},
			{
				"type": "unocc",
				"energy": 0.05225,
				"method": "rhf"
			},
			{
				"type": "unocc",
				"energy": 0.06505,
				"method": "rhf"
			},
			{
				"type": "unocc",
				"energy": 0.0828,
				"method": "rhf"
			},
			{
				"type": "unocc",
				"energy": 0.10499,
				"method": "rhf"
			}
		],
		"cosmo_sigma_profile": { 
			"-0.025": 0.0,
			"-0.024": 0.0,
			"-0.023": 0.0,
			"-0.022": 0.0,
			"-0.021": 0.0,
			"-0.02": 0.0,
			"-0.019": 0.0,
			"-0.018": 0.0,
			"-0.017": 0.0,
			"-0.016": 0.0642593575022,
			"-0.015": 0.857855698987,
			"-0.014": 1.14012032662,
			"-0.013": 1.43992854079,
			"-0.012": 2.33025944891,
			"-0.011": 2.00210461403,
			"-0.01": 2.40566691965,
			"-0.009": 1.78679175818,
			"-0.008": 1.67480157153,
			"-0.007": 2.70204688649,
			"-0.006": 3.0610772295,
			"-0.005": 6.8623456542,
			"-0.004": 17.965166977,
			"-0.003": 24.8174572089,
			"-0.002": 25.2857913693,
			"-0.001": 24.7288668984,
			"0.0": 20.6892040008,
			"0.001": 15.9837703072,
			"0.002": 25.4833085125,
			"0.003": 6.38393183952,
			"0.004": 2.92118593871,
			"0.005": 3.02692611455,
			"0.006": 2.77174525879,
			"0.007": 2.64358140365,
			"0.008": 2.61376954098,
			"0.009": 2.84752604217,
			"0.01": 3.25819631478,
			"0.011": 3.41544973152,
			"0.012": 7.62595920046,
			"0.013": 4.18436616096,
			"0.014": 1.69040515748,
			"0.015": 0.641473045003,
			"0.016": 0.0,
			"0.017": 0.0,
			"0.018": 0.0,
			"0.019": 0.0,
			"0.02": 0.0,
			"0.021": 0.0,
			"0.022": 0.0,
			"0.023": 0.0,
			"0.024": 0.0,
			"0.025": 0.0
		}
	}
}
