{
	 "smiles": "NC1=C(NC(=O)C2=C(I)C=CC=C2)C=CC=C1", 
	 "Tm": 463.15, 
	 "num_atms": 28, 
	 "gaussian": { 
		 "optdone": 1, 
		 "sigma_profile": "yes", 
		 "theory": "DFT", 
		 "functional": "B3LYP", 
		 "basiset": "6-31G**", 
		 "properties": { 
			 "R2extent": 5496.6599, 
			 "electric_dipole_moment_norm": 3.61862051478, 
			 "electric_quadrupole_moment_norm": 16.3556393391, 
			 "total_energy": -698.141473953, 
			 "HOMO_LUMO_gap": 0.15441, 
			 "cosmo_polarized_energy": -14.73, 
			 "cosmo_cavitation_energy": 34.97, 
			 "cosmo_dispersion_energy": -26.23, 
			 "cosmo_repulsion_energy": 1.98, 
			 "cosmo_total_nonelectrostatic_energy": 10.73, 
			 "SMD_solvation_energy": 5.58 
		},
		"coords": [
			{
				"x": -2.2929579391,
				"y": -2.0000750389,
				"z": 1.5140861895,
				"element": "N" 
			},
			{
				"x": -1.2242328252,
				"y": -2.3121554303,
				"z": 0.6346712972,
				"element": "C" 
			},
			{
				"x": -0.519959021,
				"y": -1.2444052099,
				"z": 0.029179626,
				"element": "C" 
			},
			{
				"x": -0.9797676899,
				"y": 0.053023178,
				"z": 0.3427443355,
				"element": "N" 
			},
			{
				"x": -0.3933787096,
				"y": 1.2576583037,
				"z": 0.0662688937,
				"element": "C" 
			},
			{
				"x": 0.6618842336,
				"y": 1.4016381247,
				"z": -0.5401250473,
				"element": "O" 
			},
			{
				"x": -1.1962391157,
				"y": 2.4646843173,
				"z": 0.5045437239,
				"element": "C" 
			},
			{
				"x": -1.6490263054,
				"y": 2.7424035547,
				"z": 1.8027725151,
				"element": "C" 
			},
			{
				"x": -1.176050802,
				"y": 1.5099936497,
				"z": 3.482991758,
				"element": "I" 
			},
			{
				"x": -2.3694801615,
				"y": 3.9082978412,
				"z": 2.0814105097,
				"element": "C" 
			},
			{
				"x": -2.6463629794,
				"y": 4.8137809874,
				"z": 1.0580359787,
				"element": "C" 
			},
			{
				"x": -2.182917251,
				"y": 4.5694398908,
				"z": -0.2354174779,
				"element": "C" 
			},
			{
				"x": -1.4573560705,
				"y": 3.4127749518,
				"z": -0.4990866282,
				"element": "C" 
			},
			{
				"x": 0.5361599437,
				"y": -1.5095402401,
				"z": -0.849487626,
				"element": "C" 
			},
			{
				"x": 0.8676051743,
				"y": -2.8304869962,
				"z": -1.1568066,
				"element": "C" 
			},
			{
				"x": 0.1497051124,
				"y": -3.8873127426,
				"z": -0.5995250328,
				"element": "C" 
			},
			{
				"x": -0.8852758959,
				"y": -3.6244789596,
				"z": 0.2995073297,
				"element": "C" 
			},
			{
				"x": -2.7911621392,
				"y": -2.8280395418,
				"z": 1.8192976279,
				"element": "H" 
			},
			{
				"x": -1.9889602563,
				"y": -1.478404952,
				"z": 2.332559047,
				"element": "H" 
			},
			{
				"x": -1.9034485424,
				"y": 0.0679450511,
				"z": 0.7589045727,
				"element": "H" 
			},
			{
				"x": -2.7019325098,
				"y": 4.1124707967,
				"z": 3.0927535446,
				"element": "H" 
			},
			{
				"x": -3.2108636364,
				"y": 5.7142380683,
				"z": 1.2811999089,
				"element": "H" 
			},
			{
				"x": -2.3802945072,
				"y": 5.2792425699,
				"z": -1.0327249508,
				"element": "H" 
			},
			{
				"x": -1.0703524444,
				"y": 3.2159919858,
				"z": -1.493694239,
				"element": "H" 
			},
			{
				"x": 1.0756994559,
				"y": -0.6786499416,
				"z": -1.2821239899,
				"element": "H" 
			},
			{
				"x": 1.6862547037,
				"y": -3.0263669631,
				"z": -1.8425507232,
				"element": "H" 
			},
			{
				"x": 0.4017921546,
				"y": -4.914613911,
				"z": -0.8450056631,
				"element": "H" 
			},
			{
				"x": -1.4316819766,
				"y": -4.4440533438,
				"z": 0.7607211199,
				"element": "H" 
			}
		],
		 "valence_orbital": [ 
			{
				"type": "occ",
				"energy": -0.27553,
				"method": "rhf"
			},
			{
				"type": "occ",
				"energy": -0.25256,
				"method": "rhf"
			},
			{
				"type": "occ",
				"energy": -0.24874,
				"method": "rhf"
			},
			{
				"type": "occ",
				"energy": -0.23144,
				"method": "rhf"
			},
			{
				"type": "occ",
				"energy": -0.20496,
				"method": "rhf"
			},
			{
				"type": "unocc",
				"energy": -0.05055,
				"method": "rhf"
			},
			{
				"type": "unocc",
				"energy": -0.04092,
				"method": "rhf"
			},
			{
				"type": "unocc",
				"energy": -0.02484,
				"method": "rhf"
			},
			{
				"type": "unocc",
				"energy": 0.00059,
				"method": "rhf"
			},
			{
				"type": "unocc",
				"energy": 0.01078,
				"method": "rhf"
			}
		],
		"cosmo_sigma_profile": { 
			"-0.025": 0.0,
			"-0.024": 0.0,
			"-0.023": 0.0,
			"-0.022": 0.0,
			"-0.021": 0.0,
			"-0.02": 0.0,
			"-0.019": 0.0,
			"-0.018": 0.0,
			"-0.017": 0.0,
			"-0.016": 0.0,
			"-0.015": 0.0,
			"-0.014": 0.0,
			"-0.013": 0.0209196273114,
			"-0.012": 1.36811378804,
			"-0.011": 1.63118005048,
			"-0.01": 2.50198041286,
			"-0.009": 4.5168054777,
			"-0.008": 4.10822503821,
			"-0.007": 10.8169721093,
			"-0.006": 15.4187024094,
			"-0.005": 20.0015443373,
			"-0.004": 18.3445265793,
			"-0.003": 18.3435647026,
			"-0.002": 14.5097221869,
			"-0.001": 18.2933553033,
			"0.0": 15.5998547718,
			"0.001": 21.3741961705,
			"0.002": 24.1073502331,
			"0.003": 28.9957750582,
			"0.004": 21.5144261412,
			"0.005": 12.2081981372,
			"0.006": 11.0993013491,
			"0.007": 3.56123909746,
			"0.008": 3.07023119939,
			"0.009": 1.92442136775,
			"0.01": 1.87164825408,
			"0.011": 2.58850875943,
			"0.012": 3.67012669734,
			"0.013": 2.91525454992,
			"0.014": 0.711867069645,
			"0.015": 0.0,
			"0.016": 0.0,
			"0.017": 0.0,
			"0.018": 0.0,
			"0.019": 0.0,
			"0.02": 0.0,
			"0.021": 0.0,
			"0.022": 0.0,
			"0.023": 0.0,
			"0.024": 0.0,
			"0.025": 0.0
		}
	}
}
