{
	 "smiles": "CC(=O)N1CCN(CC1)C1=C(C=C(C=C1)C(O)=O)[N+]([O-])=O", 
	 "Tm": 536.15, 
	 "num_atms": 36, 
	 "gaussian": { 
		 "optdone": 1, 
		 "sigma_profile": "yes", 
		 "theory": "DFT", 
		 "functional": "B3LYP", 
		 "basiset": "6-31G**", 
		 "properties": { 
			 "R2extent": 9180.8272, 
			 "electric_dipole_moment_norm": 4.82921020872, 
			 "electric_quadrupole_moment_norm": 34.6117568663, 
			 "total_energy": -1044.7045802, 
			 "HOMO_LUMO_gap": 0.13661, 
			 "cosmo_polarized_energy": -27.86, 
			 "cosmo_cavitation_energy": 39.37, 
			 "cosmo_dispersion_energy": -27.89, 
			 "cosmo_repulsion_energy": 2.1, 
			 "cosmo_total_nonelectrostatic_energy": 13.58, 
			 "SMD_solvation_energy": 9.85 
		},
		"coords": [
			{
				"x": 0.264141034,
				"y": -4.9751614546,
				"z": 2.0793248505,
				"element": "C" 
			},
			{
				"x": 0.2451665535,
				"y": -3.62309323,
				"z": 2.7790988021,
				"element": "C" 
			},
			{
				"x": 0.3580675182,
				"y": -3.5383733222,
				"z": 3.9957385116,
				"element": "O" 
			},
			{
				"x": 0.084334747,
				"y": -2.4992749491,
				"z": 1.9905185539,
				"element": "N" 
			},
			{
				"x": 0.033100829,
				"y": -2.4713153985,
				"z": 0.5360395957,
				"element": "C" 
			},
			{
				"x": -1.1451894806,
				"y": -1.6045423272,
				"z": 0.0732043593,
				"element": "C" 
			},
			{
				"x": -1.1081828789,
				"y": -0.2787314479,
				"z": 0.6901503266,
				"element": "N" 
			},
			{
				"x": -1.0686251554,
				"y": -0.3217900505,
				"z": 2.1525247705,
				"element": "C" 
			},
			{
				"x": 0.1184319567,
				"y": -1.1789029192,
				"z": 2.6117398813,
				"element": "C" 
			},
			{
				"x": -1.2636857761,
				"y": 0.876417102,
				"z": -0.0444355385,
				"element": "C" 
			},
			{
				"x": -1.9560318321,
				"y": 2.0315711677,
				"z": 0.4108016483,
				"element": "C" 
			},
			{
				"x": -1.9047441803,
				"y": 3.2456918062,
				"z": -0.2800259474,
				"element": "C" 
			},
			{
				"x": -1.2409931238,
				"y": 3.3469286319,
				"z": -1.4973778093,
				"element": "C" 
			},
			{
				"x": -0.6436249894,
				"y": 2.1839171306,
				"z": -2.0229545906,
				"element": "C" 
			},
			{
				"x": -0.6417168793,
				"y": 0.9993580706,
				"z": -1.3162490072,
				"element": "C" 
			},
			{
				"x": -1.1765593837,
				"y": 4.5983820759,
				"z": -2.3111172649,
				"element": "C" 
			},
			{
				"x": -1.4734674823,
				"y": 5.7655956549,
				"z": -1.6818017855,
				"element": "O" 
			},
			{
				"x": -0.875286584,
				"y": 4.602891884,
				"z": -3.4826455758,
				"element": "O" 
			},
			{
				"x": -2.9023350353,
				"y": 1.993105191,
				"z": 1.5297818285,
				"element": "N" 
			},
			{
				"x": -3.0937039684,
				"y": 3.0400625052,
				"z": 2.1531299085,
				"element": "O" 
			},
			{
				"x": -3.5005640853,
				"y": 0.9370477529,
				"z": 1.745208646,
				"element": "O" 
			},
			{
				"x": 1.0908063627,
				"y": -5.0546250647,
				"z": 1.3655071709,
				"element": "H" 
			},
			{
				"x": 0.3893606419,
				"y": -5.7341871592,
				"z": 2.8505531569,
				"element": "H" 
			},
			{
				"x": -0.6681344223,
				"y": -5.1701002222,
				"z": 1.5390054066,
				"element": "H" 
			},
			{
				"x": 0.9704853021,
				"y": -2.0570162233,
				"z": 0.1328471686,
				"element": "H" 
			},
			{
				"x": -0.0858596664,
				"y": -3.4799424943,
				"z": 0.1400318278,
				"element": "H" 
			},
			{
				"x": -2.0852413041,
				"y": -2.09745328,
				"z": 0.3648228049,
				"element": "H" 
			},
			{
				"x": -1.146567892,
				"y": -1.5130274219,
				"z": -1.0132299412,
				"element": "H" 
			},
			{
				"x": -0.936849803,
				"y": 0.6906371003,
				"z": 2.5397636572,
				"element": "H" 
			},
			{
				"x": -2.0075921169,
				"y": -0.7190284049,
				"z": 2.5564809689,
				"element": "H" 
			},
			{
				"x": 0.0921503673,
				"y": -1.3235792414,
				"z": 3.6921310774,
				"element": "H" 
			},
			{
				"x": 1.0578937378,
				"y": -0.6709392232,
				"z": 2.3479288221,
				"element": "H" 
			},
			{
				"x": -2.4673204433,
				"y": 4.0688140399,
				"z": 0.1473489518,
				"element": "H" 
			},
			{
				"x": -0.1476647216,
				"y": 2.2539659969,
				"z": -2.9851397228,
				"element": "H" 
			},
			{
				"x": -0.0923456868,
				"y": 0.152887641,
				"z": -1.7125103145,
				"element": "H" 
			},
			{
				"x": -1.532352159,
				"y": 5.6355100833,
				"z": -0.7253951981,
				"element": "H" 
			}
		],
		 "valence_orbital": [ 
			{
				"type": "occ",
				"energy": -0.28662,
				"method": "rhf"
			},
			{
				"type": "occ",
				"energy": -0.27955,
				"method": "rhf"
			},
			{
				"type": "occ",
				"energy": -0.26071,
				"method": "rhf"
			},
			{
				"type": "occ",
				"energy": -0.25598,
				"method": "rhf"
			},
			{
				"type": "occ",
				"energy": -0.23127,
				"method": "rhf"
			},
			{
				"type": "unocc",
				"energy": -0.09466,
				"method": "rhf"
			},
			{
				"type": "unocc",
				"energy": -0.06076,
				"method": "rhf"
			},
			{
				"type": "unocc",
				"energy": -0.02666,
				"method": "rhf"
			},
			{
				"type": "unocc",
				"energy": 0.01272,
				"method": "rhf"
			},
			{
				"type": "unocc",
				"energy": 0.03487,
				"method": "rhf"
			}
		],
		"cosmo_sigma_profile": { 
			"-0.025": 0.0,
			"-0.024": 0.0,
			"-0.023": 0.0,
			"-0.022": 0.0,
			"-0.021": 0.0,
			"-0.02": 0.0178014129493,
			"-0.019": 0.779059479389,
			"-0.018": 0.942218094685,
			"-0.017": 0.739127731628,
			"-0.016": 1.30459057347,
			"-0.015": 0.491024380836,
			"-0.014": 1.33876933625,
			"-0.013": 1.20566606021,
			"-0.012": 1.02606194844,
			"-0.011": 0.9109801979,
			"-0.01": 0.917394321025,
			"-0.009": 2.68919904204,
			"-0.008": 5.70270000436,
			"-0.007": 13.1880821104,
			"-0.006": 19.8661175874,
			"-0.005": 28.6661267023,
			"-0.004": 29.1968454726,
			"-0.003": 23.319950255,
			"-0.002": 20.1597461588,
			"-0.001": 20.3831871528,
			"0.0": 20.0015191806,
			"0.001": 15.9293219265,
			"0.002": 11.3136031885,
			"0.003": 6.78668690216,
			"0.004": 6.54757251782,
			"0.005": 6.49328631574,
			"0.006": 7.26138914583,
			"0.007": 9.73612778928,
			"0.008": 12.9727035074,
			"0.009": 8.10572379196,
			"0.01": 9.32616104815,
			"0.011": 7.24753736947,
			"0.012": 6.925884886,
			"0.013": 4.73874138375,
			"0.014": 4.43602924306,
			"0.015": 1.35631080848,
			"0.016": 0.0147215638479,
			"0.017": 0.0,
			"0.018": 0.0,
			"0.019": 0.0,
			"0.02": 0.0,
			"0.021": 0.0,
			"0.022": 0.0,
			"0.023": 0.0,
			"0.024": 0.0,
			"0.025": 0.0
		}
	}
}
