{
	 "smiles": "CC1=CC=CC2=C1C(=O)OC2=O", 
	 "Tm": 389.15, 
	 "num_atms": 18, 
	 "gaussian": { 
		 "optdone": 1, 
		 "sigma_profile": "yes", 
		 "theory": "DFT", 
		 "functional": "B3LYP", 
		 "basiset": "6-31G**", 
		 "properties": { 
			 "R2extent": 2410.2331, 
			 "electric_dipole_moment_norm": 5.70928890669, 
			 "electric_quadrupole_moment_norm": 12.6349879244, 
			 "total_energy": -572.270443502, 
			 "HOMO_LUMO_gap": 0.18698, 
			 "cosmo_polarized_energy": -10.84, 
			 "cosmo_cavitation_energy": 23.1, 
			 "cosmo_dispersion_energy": -16.99, 
			 "cosmo_repulsion_energy": 1.33, 
			 "cosmo_total_nonelectrostatic_energy": 7.44, 
			 "SMD_solvation_energy": 5.81 
		},
		"coords": [
			{
				"x": 0.6444689318,
				"y": -1.8134951667,
				"z": -2.1424995462,
				"element": "C" 
			},
			{
				"x": 0.302574616,
				"y": -1.1670414466,
				"z": -0.8264993061,
				"element": "C" 
			},
			{
				"x": -1.023856201,
				"y": -0.9914202533,
				"z": -0.3976531374,
				"element": "C" 
			},
			{
				"x": -1.3451119835,
				"y": -0.3900118711,
				"z": 0.8269440719,
				"element": "C" 
			},
			{
				"x": -0.3486065824,
				"y": 0.070615912,
				"z": 1.6929641777,
				"element": "C" 
			},
			{
				"x": 0.9641151865,
				"y": -0.1001322181,
				"z": 1.2746013066,
				"element": "C" 
			},
			{
				"x": 1.2815343537,
				"y": -0.6983087648,
				"z": 0.0567723262,
				"element": "C" 
			},
			{
				"x": 2.7586788478,
				"y": -0.7137877567,
				"z": -0.0596579032,
				"element": "C" 
			},
			{
				"x": 3.4714470465,
				"y": -1.1288127219,
				"z": -0.9329722758,
				"element": "O" 
			},
			{
				"x": 3.2763377286,
				"y": -0.1214855373,
				"z": 1.0977352064,
				"element": "O" 
			},
			{
				"x": 2.2345290187,
				"y": 0.2706241584,
				"z": 1.9444336523,
				"element": "C" 
			},
			{
				"x": 2.4339354249,
				"y": 0.8031862834,
				"z": 3.000407752,
				"element": "O" 
			},
			{
				"x": 1.2241866557,
				"y": -1.1338565314,
				"z": -2.7748244651,
				"element": "H" 
			},
			{
				"x": -0.2593699851,
				"y": -2.1080849411,
				"z": -2.6810323888,
				"element": "H" 
			},
			{
				"x": 1.269265193,
				"y": -2.6997037559,
				"z": -1.9938955453,
				"element": "H" 
			},
			{
				"x": -1.8291137934,
				"y": -1.3355249922,
				"z": -1.0411554073,
				"element": "H" 
			},
			{
				"x": -2.3897715976,
				"y": -0.2823897155,
				"z": 1.1032202418,
				"element": "H" 
			},
			{
				"x": -0.5810428602,
				"y": 0.5380293188,
				"z": 2.6437112403,
				"element": "H" 
			}
		],
		 "valence_orbital": [ 
			{
				"type": "occ",
				"energy": -0.3301,
				"method": "rhf"
			},
			{
				"type": "occ",
				"energy": -0.30917,
				"method": "rhf"
			},
			{
				"type": "occ",
				"energy": -0.29033,
				"method": "rhf"
			},
			{
				"type": "occ",
				"energy": -0.28625,
				"method": "rhf"
			},
			{
				"type": "occ",
				"energy": -0.27987,
				"method": "rhf"
			},
			{
				"type": "unocc",
				"energy": -0.09289,
				"method": "rhf"
			},
			{
				"type": "unocc",
				"energy": -0.0542,
				"method": "rhf"
			},
			{
				"type": "unocc",
				"energy": 0.02126,
				"method": "rhf"
			},
			{
				"type": "unocc",
				"energy": 0.05486,
				"method": "rhf"
			},
			{
				"type": "unocc",
				"energy": 0.0788,
				"method": "rhf"
			}
		],
		"cosmo_sigma_profile": { 
			"-0.025": 0.0,
			"-0.024": 0.0,
			"-0.023": 0.0,
			"-0.022": 0.0,
			"-0.021": 0.0,
			"-0.02": 0.0,
			"-0.019": 0.0,
			"-0.018": 0.0,
			"-0.017": 0.0,
			"-0.016": 0.0,
			"-0.015": 0.0,
			"-0.014": 0.0,
			"-0.013": 0.0,
			"-0.012": 0.0,
			"-0.011": 0.0,
			"-0.01": 0.0,
			"-0.009": 0.311405411091,
			"-0.008": 4.63436639664,
			"-0.007": 9.92061023078,
			"-0.006": 10.4807578265,
			"-0.005": 13.1887915547,
			"-0.004": 14.7240535295,
			"-0.003": 14.1236698756,
			"-0.002": 15.323496974,
			"-0.001": 18.3320520823,
			"0.0": 15.1479727271,
			"0.001": 13.2543627217,
			"0.002": 7.71033114602,
			"0.003": 3.89716106546,
			"0.004": 3.43447692617,
			"0.005": 3.88443290902,
			"0.006": 4.76608116859,
			"0.007": 7.79278163673,
			"0.008": 6.42146971521,
			"0.009": 7.71007648888,
			"0.01": 8.99038540798,
			"0.011": 1.92127329515,
			"0.012": 0.0,
			"0.013": 0.0,
			"0.014": 0.0,
			"0.015": 0.0,
			"0.016": 0.0,
			"0.017": 0.0,
			"0.018": 0.0,
			"0.019": 0.0,
			"0.02": 0.0,
			"0.021": 0.0,
			"0.022": 0.0,
			"0.023": 0.0,
			"0.024": 0.0,
			"0.025": 0.0
		}
	}
}
