{
	 "smiles": "OC(=O)C1=CC=C(F)C2=CC=CC=C12", 
	 "Tm": 498.15, 
	 "num_atms": 21, 
	 "gaussian": { 
		 "optdone": 1, 
		 "sigma_profile": "yes", 
		 "theory": "DFT", 
		 "functional": "B3LYP", 
		 "basiset": "6-31G**", 
		 "properties": { 
			 "R2extent": 2692.2011, 
			 "electric_dipole_moment_norm": 3.40633588185, 
			 "electric_quadrupole_moment_norm": 18.6779586144, 
			 "total_energy": -673.688474983, 
			 "HOMO_LUMO_gap": 0.16557, 
			 "cosmo_polarized_energy": -13.01, 
			 "cosmo_cavitation_energy": 25.67, 
			 "cosmo_dispersion_energy": -19.13, 
			 "cosmo_repulsion_energy": 1.44, 
			 "cosmo_total_nonelectrostatic_energy": 7.99, 
			 "SMD_solvation_energy": 5.67 
		},
		"coords": [
			{
				"x": 1.718174256,
				"y": 2.2752233171,
				"z": 2.1203536688,
				"element": "O" 
			},
			{
				"x": 0.5685739917,
				"y": 1.9849551253,
				"z": 1.4478094228,
				"element": "C" 
			},
			{
				"x": -0.4791654041,
				"y": 2.4431133967,
				"z": 1.8418810599,
				"element": "O" 
			},
			{
				"x": 0.7296761817,
				"y": 1.1182202662,
				"z": 0.2342514514,
				"element": "C" 
			},
			{
				"x": 1.8776004197,
				"y": 1.2463828254,
				"z": -0.5335988973,
				"element": "C" 
			},
			{
				"x": 2.0797860282,
				"y": 0.492223118,
				"z": -1.7073960141,
				"element": "C" 
			},
			{
				"x": 1.1090196435,
				"y": -0.3988102877,
				"z": -2.0829802904,
				"element": "C" 
			},
			{
				"x": 1.2873065987,
				"y": -1.1355705699,
				"z": -3.1969692739,
				"element": "F" 
			},
			{
				"x": -0.0923939669,
				"y": -0.5863029283,
				"z": -1.353780705,
				"element": "C" 
			},
			{
				"x": -1.0707640418,
				"y": -1.5224934875,
				"z": -1.7764990365,
				"element": "C" 
			},
			{
				"x": -2.2303657775,
				"y": -1.6815443195,
				"z": -1.0536083235,
				"element": "C" 
			},
			{
				"x": -2.4482883952,
				"y": -0.9107568046,
				"z": 0.1115126263,
				"element": "C" 
			},
			{
				"x": -1.5141055479,
				"y": 0.0056306782,
				"z": 0.5441318178,
				"element": "C" 
			},
			{
				"x": -0.3012890012,
				"y": 0.2011888179,
				"z": -0.1724690187,
				"element": "C" 
			},
			{
				"x": 2.434439137,
				"y": 1.7086472685,
				"z": 1.8012930545,
				"element": "H" 
			},
			{
				"x": 2.6334773612,
				"y": 1.9767829546,
				"z": -0.2588643355,
				"element": "H" 
			},
			{
				"x": 2.9728998218,
				"y": 0.6087977647,
				"z": -2.3102422761,
				"element": "H" 
			},
			{
				"x": -0.8843384414,
				"y": -2.1033898721,
				"z": -2.6725209933,
				"element": "H" 
			},
			{
				"x": -2.9799289648,
				"y": -2.3977897468,
				"z": -1.3764365624,
				"element": "H" 
			},
			{
				"x": -3.3681527129,
				"y": -1.0402061378,
				"z": 0.6742385918,
				"element": "H" 
			},
			{
				"x": -1.7005611859,
				"y": 0.6041986216,
				"z": 1.4255940336,
				"element": "H" 
			}
		],
		 "valence_orbital": [ 
			{
				"type": "occ",
				"energy": -0.31785,
				"method": "rhf"
			},
			{
				"type": "occ",
				"energy": -0.29434,
				"method": "rhf"
			},
			{
				"type": "occ",
				"energy": -0.2723,
				"method": "rhf"
			},
			{
				"type": "occ",
				"energy": -0.26492,
				"method": "rhf"
			},
			{
				"type": "occ",
				"energy": -0.2322,
				"method": "rhf"
			},
			{
				"type": "unocc",
				"energy": -0.06663,
				"method": "rhf"
			},
			{
				"type": "unocc",
				"energy": -0.03206,
				"method": "rhf"
			},
			{
				"type": "unocc",
				"energy": -0.00927,
				"method": "rhf"
			},
			{
				"type": "unocc",
				"energy": 0.04925,
				"method": "rhf"
			},
			{
				"type": "unocc",
				"energy": 0.06601,
				"method": "rhf"
			}
		],
		"cosmo_sigma_profile": { 
			"-0.025": 0.0,
			"-0.024": 0.0,
			"-0.023": 0.0,
			"-0.022": 0.0,
			"-0.021": 0.0,
			"-0.02": 0.0,
			"-0.019": 0.0725398899463,
			"-0.018": 0.668414570151,
			"-0.017": 0.951154591736,
			"-0.016": 0.884808224921,
			"-0.015": 0.832629354861,
			"-0.014": 0.946657212252,
			"-0.013": 1.30356324118,
			"-0.012": 1.2952564847,
			"-0.011": 0.841786794142,
			"-0.01": 1.22049441686,
			"-0.009": 1.74753384328,
			"-0.008": 3.73977294987,
			"-0.007": 5.47833685444,
			"-0.006": 10.4076539739,
			"-0.005": 11.0806954182,
			"-0.004": 11.4773405718,
			"-0.003": 10.4083436785,
			"-0.002": 10.9762530779,
			"-0.001": 13.2492668778,
			"0.0": 19.5946030967,
			"0.001": 18.8745946412,
			"0.002": 18.1328174453,
			"0.003": 19.5970500708,
			"0.004": 14.5826720898,
			"0.005": 2.55064787547,
			"0.006": 2.54715600703,
			"0.007": 2.78578069444,
			"0.008": 2.955060473,
			"0.009": 3.45567008936,
			"0.01": 4.5097502298,
			"0.011": 5.533554577,
			"0.012": 3.21214994737,
			"0.013": 1.2232939277,
			"0.014": 0.00847995866963,
			"0.015": 0.0,
			"0.016": 0.0,
			"0.017": 0.0,
			"0.018": 0.0,
			"0.019": 0.0,
			"0.02": 0.0,
			"0.021": 0.0,
			"0.022": 0.0,
			"0.023": 0.0,
			"0.024": 0.0,
			"0.025": 0.0
		}
	}
}
