{
	 "smiles": "[O-][N+](=O)C1=C2N=CSC2=CC=C1Cl", 
	 "Tm": 406.15, 
	 "num_atms": 16, 
	 "gaussian": { 
		 "optdone": 1, 
		 "sigma_profile": "yes", 
		 "theory": "DFT", 
		 "functional": "B3LYP", 
		 "basiset": "6-31G**", 
		 "properties": { 
			 "R2extent": 4052.3849, 
			 "electric_dipole_moment_norm": 5.67961503449, 
			 "electric_quadrupole_moment_norm": 19.7091721064, 
			 "total_energy": -1386.76184163, 
			 "HOMO_LUMO_gap": 0.18478, 
			 "cosmo_polarized_energy": -11.17, 
			 "cosmo_cavitation_energy": 25.52, 
			 "cosmo_dispersion_energy": -18.97, 
			 "cosmo_repulsion_energy": 1.44, 
			 "cosmo_total_nonelectrostatic_energy": 7.98, 
			 "SMD_solvation_energy": 5.2 
		},
		"coords": [
			{
				"x": 3.681440958,
				"y": 1.445186259,
				"z": -2.3497808796,
				"element": "O" 
			},
			{
				"x": 3.2626662005,
				"y": 0.5943644602,
				"z": -1.575867252,
				"element": "N" 
			},
			{
				"x": 3.9208529978,
				"y": -0.2634652214,
				"z": -1.0021670445,
				"element": "O" 
			},
			{
				"x": 1.812625002,
				"y": 0.6072360683,
				"z": -1.3019955788,
				"element": "C" 
			},
			{
				"x": 1.3391981035,
				"y": 1.3831542864,
				"z": -0.234512117,
				"element": "C" 
			},
			{
				"x": 2.1286839822,
				"y": 2.1516739808,
				"z": 0.5994009328,
				"element": "N" 
			},
			{
				"x": 1.3929115926,
				"y": 2.744529644,
				"z": 1.4813493144,
				"element": "C" 
			},
			{
				"x": -0.3432254948,
				"y": 2.4426421947,
				"z": 1.4070991935,
				"element": "S" 
			},
			{
				"x": -0.0495603361,
				"y": 1.3994992626,
				"z": 0.0327092158,
				"element": "C" 
			},
			{
				"x": -0.9494075775,
				"y": 0.6621724011,
				"z": -0.7421406342,
				"element": "C" 
			},
			{
				"x": -0.4526595647,
				"y": -0.0978663292,
				"z": -1.793605516,
				"element": "C" 
			},
			{
				"x": 0.9250618674,
				"y": -0.1268386841,
				"z": -2.0748314088,
				"element": "C" 
			},
			{
				"x": 1.5039454755,
				"y": -1.0959118383,
				"z": -3.4058300273,
				"element": "Cl" 
			},
			{
				"x": 1.7873385692,
				"y": 3.403595265,
				"z": 2.2466712598,
				"element": "H" 
			},
			{
				"x": -2.0141865506,
				"y": 0.6754204138,
				"z": -0.5364066695,
				"element": "H" 
			},
			{
				"x": -1.1231852249,
				"y": -0.6811921628,
				"z": -2.4139927885,
				"element": "H" 
			}
		],
		 "valence_orbital": [ 
			{
				"type": "occ",
				"energy": -0.3129,
				"method": "rhf"
			},
			{
				"type": "occ",
				"energy": -0.3045,
				"method": "rhf"
			},
			{
				"type": "occ",
				"energy": -0.30341,
				"method": "rhf"
			},
			{
				"type": "occ",
				"energy": -0.27067,
				"method": "rhf"
			},
			{
				"type": "occ",
				"energy": -0.25963,
				"method": "rhf"
			},
			{
				"type": "unocc",
				"energy": -0.07485,
				"method": "rhf"
			},
			{
				"type": "unocc",
				"energy": -0.06883,
				"method": "rhf"
			},
			{
				"type": "unocc",
				"energy": -0.04312,
				"method": "rhf"
			},
			{
				"type": "unocc",
				"energy": -0.01844,
				"method": "rhf"
			},
			{
				"type": "unocc",
				"energy": 0.00033,
				"method": "rhf"
			}
		],
		"cosmo_sigma_profile": { 
			"-0.025": 0.0,
			"-0.024": 0.0,
			"-0.023": 0.0,
			"-0.022": 0.0,
			"-0.021": 0.0,
			"-0.02": 0.0,
			"-0.019": 0.0,
			"-0.018": 0.0,
			"-0.017": 0.0,
			"-0.016": 0.0,
			"-0.015": 0.0,
			"-0.014": 0.0,
			"-0.013": 0.0,
			"-0.012": 0.290293834778,
			"-0.011": 2.71933565379,
			"-0.01": 2.33931379181,
			"-0.009": 5.33384814874,
			"-0.008": 7.51607831299,
			"-0.007": 5.95813471232,
			"-0.006": 4.78378317528,
			"-0.005": 6.0416430965,
			"-0.004": 6.79148101203,
			"-0.003": 9.1778519423,
			"-0.002": 15.4078787613,
			"-0.001": 26.5017942939,
			"0.0": 25.2569308802,
			"0.001": 19.9080579166,
			"0.002": 16.7936017694,
			"0.003": 13.0830586293,
			"0.004": 5.8856041678,
			"0.005": 6.12835369272,
			"0.006": 11.4645888108,
			"0.007": 10.2507688946,
			"0.008": 5.88502979742,
			"0.009": 1.61155192848,
			"0.01": 0.953436896208,
			"0.011": 1.00640111641,
			"0.012": 0.362415800344,
			"0.013": 0.0,
			"0.014": 0.0,
			"0.015": 0.0,
			"0.016": 0.0,
			"0.017": 0.0,
			"0.018": 0.0,
			"0.019": 0.0,
			"0.02": 0.0,
			"0.021": 0.0,
			"0.022": 0.0,
			"0.023": 0.0,
			"0.024": 0.0,
			"0.025": 0.0
		}
	}
}
