{
	 "smiles": "O=C1NC(C2=CC=CC=C2)=C2C=CC=CC2=N1", 
	 "Tm": 528.15, 
	 "num_atms": 27, 
	 "gaussian": { 
		 "optdone": 1, 
		 "sigma_profile": "yes", 
		 "theory": "DFT", 
		 "functional": "B3LYP", 
		 "basiset": "6-31G**", 
		 "properties": { 
			 "R2extent": 4124.6113, 
			 "electric_dipole_moment_norm": 7.91794654756, 
			 "electric_quadrupole_moment_norm": 22.514812725, 
			 "total_energy": -724.253878324, 
			 "HOMO_LUMO_gap": 0.12058, 
			 "cosmo_polarized_energy": -21.48, 
			 "cosmo_cavitation_energy": 31.32, 
			 "cosmo_dispersion_energy": -22.99, 
			 "cosmo_repulsion_energy": 1.76, 
			 "cosmo_total_nonelectrostatic_energy": 10.08, 
			 "SMD_solvation_energy": 4.25 
		},
		"coords": [
			{
				"x": -1.007730796,
				"y": 2.1625063753,
				"z": 3.0626928304,
				"element": "O" 
			},
			{
				"x": -0.4130663214,
				"y": 1.727176616,
				"z": 2.0893656862,
				"element": "C" 
			},
			{
				"x": -0.8205424643,
				"y": 0.4267988869,
				"z": 1.6017925233,
				"element": "N" 
			},
			{
				"x": -0.3107208939,
				"y": -0.2240335843,
				"z": 0.5424479024,
				"element": "C" 
			},
			{
				"x": -0.8778009588,
				"y": -1.5596124208,
				"z": 0.2399661326,
				"element": "C" 
			},
			{
				"x": -2.2718460202,
				"y": -1.7325990929,
				"z": 0.1966591396,
				"element": "C" 
			},
			{
				"x": -2.818268869,
				"y": -2.990524471,
				"z": -0.0515372238,
				"element": "C" 
			},
			{
				"x": -1.981950832,
				"y": -4.091483756,
				"z": -0.2471616476,
				"element": "C" 
			},
			{
				"x": -0.5958251941,
				"y": -3.9299002205,
				"z": -0.1956192865,
				"element": "C" 
			},
			{
				"x": -0.0435740779,
				"y": -2.6725510449,
				"z": 0.0440253345,
				"element": "C" 
			},
			{
				"x": 0.7016915708,
				"y": 0.4247299855,
				"z": -0.1804762343,
				"element": "C" 
			},
			{
				"x": 1.2849515251,
				"y": -0.0903255755,
				"z": -1.3802793567,
				"element": "C" 
			},
			{
				"x": 2.283010331,
				"y": 0.5960536389,
				"z": -2.0168787885,
				"element": "C" 
			},
			{
				"x": 2.7458018651,
				"y": 1.8383059024,
				"z": -1.4859114028,
				"element": "C" 
			},
			{
				"x": 2.1939132739,
				"y": 2.378486753,
				"z": -0.3567283375,
				"element": "C" 
			},
			{
				"x": 1.1308538984,
				"y": 1.7112305351,
				"z": 0.3408731302,
				"element": "C" 
			},
			{
				"x": 0.6087543624,
				"y": 2.3141352767,
				"z": 1.4098090716,
				"element": "N" 
			},
			{
				"x": -1.5265186246,
				"y": -0.020705578,
				"z": 2.175802008,
				"element": "H" 
			},
			{
				"x": -2.9252834303,
				"y": -0.8749415188,
				"z": 0.329782283,
				"element": "H" 
			},
			{
				"x": -3.8965922892,
				"y": -3.1092142884,
				"z": -0.0956934066,
				"element": "H" 
			},
			{
				"x": -2.4087194854,
				"y": -5.0717397408,
				"z": -0.4369259804,
				"element": "H" 
			},
			{
				"x": 0.05810007,
				"y": -4.7854530792,
				"z": -0.3347266775,
				"element": "H" 
			},
			{
				"x": 1.032980093,
				"y": -2.5533093955,
				"z": 0.1059034124,
				"element": "H" 
			},
			{
				"x": 0.9144724657,
				"y": -1.0232340725,
				"z": -1.7905227201,
				"element": "H" 
			},
			{
				"x": 2.7190444825,
				"y": 0.2057076535,
				"z": -2.930813991,
				"element": "H" 
			},
			{
				"x": 3.5432603431,
				"y": 2.3674944245,
				"z": -2.0006353541,
				"element": "H" 
			},
			{
				"x": 2.5219059761,
				"y": 3.3300017913,
				"z": 0.0472909533,
				"element": "H" 
			}
		],
		 "valence_orbital": [ 
			{
				"type": "occ",
				"energy": -0.28067,
				"method": "rhf"
			},
			{
				"type": "occ",
				"energy": -0.26773,
				"method": "rhf"
			},
			{
				"type": "occ",
				"energy": -0.25786,
				"method": "rhf"
			},
			{
				"type": "occ",
				"energy": -0.2443,
				"method": "rhf"
			},
			{
				"type": "occ",
				"energy": -0.20527,
				"method": "rhf"
			},
			{
				"type": "unocc",
				"energy": -0.08469,
				"method": "rhf"
			},
			{
				"type": "unocc",
				"energy": -0.03338,
				"method": "rhf"
			},
			{
				"type": "unocc",
				"energy": -0.0325,
				"method": "rhf"
			},
			{
				"type": "unocc",
				"energy": -0.0058,
				"method": "rhf"
			},
			{
				"type": "unocc",
				"energy": 0.02294,
				"method": "rhf"
			}
		],
		"cosmo_sigma_profile": { 
			"-0.025": 0.0,
			"-0.024": 0.0,
			"-0.023": 0.0,
			"-0.022": 0.0,
			"-0.021": 0.0,
			"-0.02": 0.0,
			"-0.019": 0.0,
			"-0.018": 0.0,
			"-0.017": 0.0,
			"-0.016": 0.190317069454,
			"-0.015": 0.9279657899,
			"-0.014": 0.485661417062,
			"-0.013": 1.37896118231,
			"-0.012": 0.905795855732,
			"-0.011": 1.13132853704,
			"-0.01": 1.23899234914,
			"-0.009": 1.53541079866,
			"-0.008": 2.41389111342,
			"-0.007": 8.73322248547,
			"-0.006": 19.2057352895,
			"-0.005": 22.5996545754,
			"-0.004": 23.3518105349,
			"-0.003": 17.9786751833,
			"-0.002": 16.0975737824,
			"-0.001": 15.699085295,
			"0.0": 13.0186287154,
			"0.001": 16.7496244141,
			"0.002": 18.4391422046,
			"0.003": 21.4563353513,
			"0.004": 13.5723608686,
			"0.005": 2.03630942622,
			"0.006": 1.67079036518,
			"0.007": 1.86194326582,
			"0.008": 1.80908011726,
			"0.009": 1.79422968543,
			"0.01": 2.42038928689,
			"0.011": 2.04886214104,
			"0.012": 2.24409253069,
			"0.013": 3.35589082942,
			"0.014": 7.71924367751,
			"0.015": 3.64805800946,
			"0.016": 3.27798640472,
			"0.017": 1.21312534114,
			"0.018": 0.201680780632,
			"0.019": 0.0,
			"0.02": 0.0,
			"0.021": 0.0,
			"0.022": 0.0,
			"0.023": 0.0,
			"0.024": 0.0,
			"0.025": 0.0
		}
	}
}
