{
	 "smiles": "ClCC1=CC2=C(OCCO2)C(Cl)=C1", 
	 "Tm": 333.15, 
	 "num_atms": 21, 
	 "gaussian": { 
		 "optdone": 1, 
		 "sigma_profile": "yes", 
		 "theory": "DFT", 
		 "functional": "B3LYP", 
		 "basiset": "6-31G**", 
		 "properties": { 
			 "R2extent": 3792.8341, 
			 "electric_dipole_moment_norm": 3.89065375483, 
			 "electric_quadrupole_moment_norm": 12.3970720454, 
			 "total_energy": -1418.59511101, 
			 "HOMO_LUMO_gap": 0.19788, 
			 "cosmo_polarized_energy": -10.6, 
			 "cosmo_cavitation_energy": 28.13, 
			 "cosmo_dispersion_energy": -21.2, 
			 "cosmo_repulsion_energy": 1.71, 
			 "cosmo_total_nonelectrostatic_energy": 8.64, 
			 "SMD_solvation_energy": 4.46 
		},
		"coords": [
			{
				"x": 3.6454026371,
				"y": 0.0663266712,
				"z": 0.4168946663,
				"element": "Cl" 
			},
			{
				"x": 2.3013698796,
				"y": 1.0505481509,
				"z": 1.1996409853,
				"element": "C" 
			},
			{
				"x": 0.9460451948,
				"y": 0.4526825663,
				"z": 0.9796829882,
				"element": "C" 
			},
			{
				"x": 0.1993108545,
				"y": 0.7905958122,
				"z": -0.1524502348,
				"element": "C" 
			},
			{
				"x": -1.0605666582,
				"y": 0.2351501964,
				"z": -0.3595663131,
				"element": "C" 
			},
			{
				"x": -1.5960222171,
				"y": -0.6865730391,
				"z": 0.5608346083,
				"element": "C" 
			},
			{
				"x": -2.818187009,
				"y": -1.2649127907,
				"z": 0.3811484715,
				"element": "O" 
			},
			{
				"x": -3.3325758404,
				"y": -1.1407249986,
				"z": -0.9475182608,
				"element": "C" 
			},
			{
				"x": -3.1464546272,
				"y": 0.2819021989,
				"z": -1.4454320798,
				"element": "C" 
			},
			{
				"x": -1.7562250519,
				"y": 0.6088845485,
				"z": -1.4805573075,
				"element": "O" 
			},
			{
				"x": -0.8441971546,
				"y": -1.004579013,
				"z": 1.699734934,
				"element": "C" 
			},
			{
				"x": -1.5069575136,
				"y": -2.1300207491,
				"z": 2.8643628581,
				"element": "Cl" 
			},
			{
				"x": 0.4112549772,
				"y": -0.4438990314,
				"z": 1.9129926762,
				"element": "C" 
			},
			{
				"x": 2.5600798746,
				"y": 1.0974469727,
				"z": 2.2572370108,
				"element": "H" 
			},
			{
				"x": 2.3854125456,
				"y": 2.0450408449,
				"z": 0.7616898311,
				"element": "H" 
			},
			{
				"x": 0.579476667,
				"y": 1.4895472564,
				"z": -0.8906734895,
				"element": "H" 
			},
			{
				"x": -2.8140362996,
				"y": -1.8442585708,
				"z": -1.6117709336,
				"element": "H" 
			},
			{
				"x": -4.3893508463,
				"y": -1.4115345066,
				"z": -0.8922499733,
				"element": "H" 
			},
			{
				"x": -3.517104112,
				"y": 0.3984536064,
				"z": -2.4665908932,
				"element": "H" 
			},
			{
				"x": -3.6783320032,
				"y": 0.9828284419,
				"z": -0.7881103403,
				"element": "H" 
			},
			{
				"x": 0.9702567028,
				"y": -0.7184045673,
				"z": 2.8008007963,
				"element": "H" 
			}
		],
		 "valence_orbital": [ 
			{
				"type": "occ",
				"energy": -0.30956,
				"method": "rhf"
			},
			{
				"type": "occ",
				"energy": -0.29285,
				"method": "rhf"
			},
			{
				"type": "occ",
				"energy": -0.29181,
				"method": "rhf"
			},
			{
				"type": "occ",
				"energy": -0.23982,
				"method": "rhf"
			},
			{
				"type": "occ",
				"energy": -0.22631,
				"method": "rhf"
			},
			{
				"type": "unocc",
				"energy": -0.02843,
				"method": "rhf"
			},
			{
				"type": "unocc",
				"energy": -0.0117,
				"method": "rhf"
			},
			{
				"type": "unocc",
				"energy": 0.02604,
				"method": "rhf"
			},
			{
				"type": "unocc",
				"energy": 0.04389,
				"method": "rhf"
			},
			{
				"type": "unocc",
				"energy": 0.08089,
				"method": "rhf"
			}
		],
		"cosmo_sigma_profile": { 
			"-0.025": 0.0,
			"-0.024": 0.0,
			"-0.023": 0.0,
			"-0.022": 0.0,
			"-0.021": 0.0,
			"-0.02": 0.0,
			"-0.019": 0.0,
			"-0.018": 0.0,
			"-0.017": 0.0,
			"-0.016": 0.0,
			"-0.015": 0.0,
			"-0.014": 0.0,
			"-0.013": 0.0,
			"-0.012": 0.0,
			"-0.011": 0.0,
			"-0.01": 0.0,
			"-0.009": 0.0398012635851,
			"-0.008": 7.08018814412,
			"-0.007": 17.5201858886,
			"-0.006": 19.453923696,
			"-0.005": 15.4394141256,
			"-0.004": 12.5343343785,
			"-0.003": 9.49592599444,
			"-0.002": 9.19020834962,
			"-0.001": 9.0103859664,
			"0.0": 11.0224985667,
			"0.001": 16.7938781119,
			"0.002": 19.7307307646,
			"0.003": 18.4909428696,
			"0.004": 17.2771805182,
			"0.005": 14.0559299548,
			"0.006": 11.6138636409,
			"0.007": 10.8675966833,
			"0.008": 3.59764524195,
			"0.009": 3.00850012057,
			"0.01": 2.37954077899,
			"0.011": 0.0660362055072,
			"0.012": 0.0,
			"0.013": 0.0,
			"0.014": 0.0,
			"0.015": 0.0,
			"0.016": 0.0,
			"0.017": 0.0,
			"0.018": 0.0,
			"0.019": 0.0,
			"0.02": 0.0,
			"0.021": 0.0,
			"0.022": 0.0,
			"0.023": 0.0,
			"0.024": 0.0,
			"0.025": 0.0
		}
	}
}
