{
	 "smiles": "ClCC(=O)N=C1SC=CN1CC1=C(Cl)C=C(Cl)C=C1", 
	 "Tm": 402.15, 
	 "num_atms": 28, 
	 "gaussian": { 
		 "optdone": 1, 
		 "sigma_profile": "yes", 
		 "theory": "DFT", 
		 "functional": "B3LYP", 
		 "basiset": "6-31G**", 
		 "properties": { 
			 "R2extent": 8399.9946, 
			 "electric_dipole_moment_norm": 5.99257803454, 
			 "electric_quadrupole_moment_norm": 23.8200833256, 
			 "total_energy": -2426.17226342, 
			 "HOMO_LUMO_gap": 0.17766, 
			 "cosmo_polarized_energy": -16.75, 
			 "cosmo_cavitation_energy": 40.04, 
			 "cosmo_dispersion_energy": -28.03, 
			 "cosmo_repulsion_energy": 2.17, 
			 "cosmo_total_nonelectrostatic_energy": 14.19, 
			 "SMD_solvation_energy": 5.22 
		},
		"coords": [
			{
				"x": 3.5316605245,
				"y": 3.5161197261,
				"z": -2.3842341157,
				"element": "Cl" 
			},
			{
				"x": 1.8882664352,
				"y": 2.9232587593,
				"z": -1.8954596863,
				"element": "C" 
			},
			{
				"x": 1.8969591349,
				"y": 2.3214333281,
				"z": -0.4913206319,
				"element": "C" 
			},
			{
				"x": 1.3696597644,
				"y": 2.9389333169,
				"z": 0.4355670705,
				"element": "O" 
			},
			{
				"x": 2.5621021571,
				"y": 1.1319087364,
				"z": -0.4209662058,
				"element": "N" 
			},
			{
				"x": 2.5891058143,
				"y": 0.2735253139,
				"z": 0.5515502965,
				"element": "C" 
			},
			{
				"x": 4.0269714324,
				"y": -0.7537626244,
				"z": 0.7447432724,
				"element": "S" 
			},
			{
				"x": 3.2825404955,
				"y": -1.6359466437,
				"z": 2.058069293,
				"element": "C" 
			},
			{
				"x": 2.0466288585,
				"y": -1.1679397692,
				"z": 2.3058506084,
				"element": "C" 
			},
			{
				"x": 1.6502334652,
				"y": -0.1087353116,
				"z": 1.4861085041,
				"element": "N" 
			},
			{
				"x": 0.291324597,
				"y": 0.43726287,
				"z": 1.5728944997,
				"element": "C" 
			},
			{
				"x": -0.7025972778,
				"y": -0.2179323158,
				"z": 0.6293025933,
				"element": "C" 
			},
			{
				"x": -2.0596979642,
				"y": 0.1357225905,
				"z": 0.6862384341,
				"element": "C" 
			},
			{
				"x": -2.6067863177,
				"y": 1.3215712799,
				"z": 1.8639338398,
				"element": "Cl" 
			},
			{
				"x": -3.0124144697,
				"y": -0.4268769206,
				"z": -0.160359189,
				"element": "C" 
			},
			{
				"x": -2.5981741319,
				"y": -1.372433984,
				"z": -1.0965685326,
				"element": "C" 
			},
			{
				"x": -3.7846282305,
				"y": -2.0895387827,
				"z": -2.1699443326,
				"element": "Cl" 
			},
			{
				"x": -1.2616017059,
				"y": -1.7523147059,
				"z": -1.1872037205,
				"element": "C" 
			},
			{
				"x": -0.3323232228,
				"y": -1.1721533352,
				"z": -0.3246250376,
				"element": "C" 
			},
			{
				"x": 1.219666173,
				"y": 3.7817727411,
				"z": -1.9103241756,
				"element": "H" 
			},
			{
				"x": 1.592963607,
				"y": 2.1809342471,
				"z": -2.6384277178,
				"element": "H" 
			},
			{
				"x": 3.7943518914,
				"y": -2.4381834143,
				"z": 2.5679356744,
				"element": "H" 
			},
			{
				"x": 1.3518008842,
				"y": -1.5216020668,
				"z": 3.0552241908,
				"element": "H" 
			},
			{
				"x": 0.3543649151,
				"y": 1.5143252548,
				"z": 1.3897788707,
				"element": "H" 
			},
			{
				"x": -0.0371679154,
				"y": 0.3062091628,
				"z": 2.6081914825,
				"element": "H" 
			},
			{
				"x": -4.0521067336,
				"y": -0.1323741018,
				"z": -0.0886202677,
				"element": "H" 
			},
			{
				"x": -0.9506229579,
				"y": -2.4881493019,
				"z": -1.9197214568,
				"element": "H" 
			},
			{
				"x": 0.7069207778,
				"y": -1.472134049,
				"z": -0.4009135603,
				"element": "H" 
			}
		],
		 "valence_orbital": [ 
			{
				"type": "occ",
				"energy": -0.2793,
				"method": "rhf"
			},
			{
				"type": "occ",
				"energy": -0.27437,
				"method": "rhf"
			},
			{
				"type": "occ",
				"energy": -0.26129,
				"method": "rhf"
			},
			{
				"type": "occ",
				"energy": -0.24454,
				"method": "rhf"
			},
			{
				"type": "occ",
				"energy": -0.23111,
				"method": "rhf"
			},
			{
				"type": "unocc",
				"energy": -0.05345,
				"method": "rhf"
			},
			{
				"type": "unocc",
				"energy": -0.03771,
				"method": "rhf"
			},
			{
				"type": "unocc",
				"energy": -0.03396,
				"method": "rhf"
			},
			{
				"type": "unocc",
				"energy": -0.00889,
				"method": "rhf"
			},
			{
				"type": "unocc",
				"energy": -0.00682,
				"method": "rhf"
			}
		],
		"cosmo_sigma_profile": { 
			"-0.025": 0.0,
			"-0.024": 0.0,
			"-0.023": 0.0,
			"-0.022": 0.0,
			"-0.021": 0.0,
			"-0.02": 0.0,
			"-0.019": 0.0,
			"-0.018": 0.0,
			"-0.017": 0.0,
			"-0.016": 0.0,
			"-0.015": 0.0,
			"-0.014": 0.0,
			"-0.013": 0.0,
			"-0.012": 0.239165862518,
			"-0.011": 2.20846064939,
			"-0.01": 5.36678634762,
			"-0.009": 5.31673057476,
			"-0.008": 8.44959672786,
			"-0.007": 14.9537112936,
			"-0.006": 13.7388957275,
			"-0.005": 12.5739576692,
			"-0.004": 13.8349676401,
			"-0.003": 15.4405356749,
			"-0.002": 20.1239564539,
			"-0.001": 23.4548808985,
			"0.0": 29.9625098849,
			"0.001": 38.3068312726,
			"0.002": 34.6014302092,
			"0.003": 24.4223073461,
			"0.004": 24.61538009,
			"0.005": 10.905628427,
			"0.006": 10.9321557994,
			"0.007": 4.3353463464,
			"0.008": 2.88851640186,
			"0.009": 2.85660124072,
			"0.01": 3.16840765656,
			"0.011": 3.2388053509,
			"0.012": 2.57593335512,
			"0.013": 2.03637259652,
			"0.014": 0.41423060191,
			"0.015": 0.0,
			"0.016": 0.0,
			"0.017": 0.0,
			"0.018": 0.0,
			"0.019": 0.0,
			"0.02": 0.0,
			"0.021": 0.0,
			"0.022": 0.0,
			"0.023": 0.0,
			"0.024": 0.0,
			"0.025": 0.0
		}
	}
}
