{
	 "smiles": "NC1=CC2=C(C=C1)N=C1CCCN1C2=O", 
	 "Tm": 495.15, 
	 "num_atms": 26, 
	 "gaussian": { 
		 "optdone": 1, 
		 "sigma_profile": "yes", 
		 "theory": "DFT", 
		 "functional": "B3LYP", 
		 "basiset": "6-31G**", 
		 "properties": { 
			 "R2extent": 3554.9594, 
			 "electric_dipole_moment_norm": 1.52480139035, 
			 "electric_quadrupole_moment_norm": 23.2268984806, 
			 "total_energy": -665.322620127, 
			 "HOMO_LUMO_gap": 0.16222, 
			 "cosmo_polarized_energy": -16.45, 
			 "cosmo_cavitation_energy": 29.01, 
			 "cosmo_dispersion_energy": -22.0, 
			 "cosmo_repulsion_energy": 1.7, 
			 "cosmo_total_nonelectrostatic_energy": 8.71, 
			 "SMD_solvation_energy": 2.96 
		},
		"coords": [
			{
				"x": -3.1406079958,
				"y": -1.9717108263,
				"z": 3.595532481,
				"element": "N" 
			},
			{
				"x": -2.100548316,
				"y": -1.3523109428,
				"z": 2.9020025014,
				"element": "C" 
			},
			{
				"x": -1.9373051179,
				"y": -1.5291101283,
				"z": 1.5275841372,
				"element": "C" 
			},
			{
				"x": -0.8523978783,
				"y": -0.9478352811,
				"z": 0.8598284485,
				"element": "C" 
			},
			{
				"x": 0.1025131619,
				"y": -0.1668256353,
				"z": 1.5562534641,
				"element": "C" 
			},
			{
				"x": -0.0748595451,
				"y": 0.0051247492,
				"z": 2.9434962154,
				"element": "C" 
			},
			{
				"x": -1.1458190519,
				"y": -0.5725962835,
				"z": 3.5996435064,
				"element": "C" 
			},
			{
				"x": 1.1937212328,
				"y": 0.4326991239,
				"z": 0.9342029123,
				"element": "N" 
			},
			{
				"x": 1.2964249225,
				"y": 0.2429077107,
				"z": -0.3371300404,
				"element": "C" 
			},
			{
				"x": 2.3950409732,
				"y": 0.7558290411,
				"z": -1.2384119683,
				"element": "C" 
			},
			{
				"x": 1.7879760126,
				"y": 0.6237375551,
				"z": -2.6518894449,
				"element": "C" 
			},
			{
				"x": 0.7797051769,
				"y": -0.5366390134,
				"z": -2.5254864193,
				"element": "C" 
			},
			{
				"x": 0.4106130903,
				"y": -0.4920060297,
				"z": -1.1066392536,
				"element": "N" 
			},
			{
				"x": -0.7073605459,
				"y": -1.1477326596,
				"z": -0.5903413362,
				"element": "C" 
			},
			{
				"x": -1.4541947477,
				"y": -1.7997068905,
				"z": -1.3144515325,
				"element": "O" 
			},
			{
				"x": -3.933832248,
				"y": -2.2403903495,
				"z": 3.0299104509,
				"element": "H" 
			},
			{
				"x": -3.4224898088,
				"y": -1.5154123068,
				"z": 4.4520253083,
				"element": "H" 
			},
			{
				"x": -2.6397206263,
				"y": -2.1190972148,
				"z": 0.9462179275,
				"element": "H" 
			},
			{
				"x": 0.6530875429,
				"y": 0.6035893916,
				"z": 3.481665964,
				"element": "H" 
			},
			{
				"x": -1.2597063622,
				"y": -0.4335793792,
				"z": 4.6722709295,
				"element": "H" 
			},
			{
				"x": 3.2810595513,
				"y": 0.1182290643,
				"z": -1.1220143729,
				"element": "H" 
			},
			{
				"x": 2.6882437329,
				"y": 1.7726687108,
				"z": -0.9697846482,
				"element": "H" 
			},
			{
				"x": 2.5360683415,
				"y": 0.4363662129,
				"z": -3.4251452592,
				"element": "H" 
			},
			{
				"x": 1.2570512919,
				"y": 1.5440016233,
				"z": -2.9158653801,
				"element": "H" 
			},
			{
				"x": 1.22872338,
				"y": -1.5095777555,
				"z": -2.7591688897,
				"element": "H" 
			},
			{
				"x": -0.1136861665,
				"y": -0.4268224866,
				"z": -3.1429057012,
				"element": "H" 
			}
		],
		 "valence_orbital": [ 
			{
				"type": "occ",
				"energy": -0.26294,
				"method": "rhf"
			},
			{
				"type": "occ",
				"energy": -0.25423,
				"method": "rhf"
			},
			{
				"type": "occ",
				"energy": -0.25097,
				"method": "rhf"
			},
			{
				"type": "occ",
				"energy": -0.2503,
				"method": "rhf"
			},
			{
				"type": "occ",
				"energy": -0.19273,
				"method": "rhf"
			},
			{
				"type": "unocc",
				"energy": -0.03051,
				"method": "rhf"
			},
			{
				"type": "unocc",
				"energy": -0.01428,
				"method": "rhf"
			},
			{
				"type": "unocc",
				"energy": 0.03881,
				"method": "rhf"
			},
			{
				"type": "unocc",
				"energy": 0.07614,
				"method": "rhf"
			},
			{
				"type": "unocc",
				"energy": 0.08482,
				"method": "rhf"
			}
		],
		"cosmo_sigma_profile": { 
			"-0.025": 0.0,
			"-0.024": 0.0,
			"-0.023": 0.0,
			"-0.022": 0.0,
			"-0.021": 0.0,
			"-0.02": 0.0,
			"-0.019": 0.0,
			"-0.018": 0.0,
			"-0.017": 0.0,
			"-0.016": 0.0,
			"-0.015": 0.0,
			"-0.014": 0.0,
			"-0.013": 0.836749448416,
			"-0.012": 2.97067785655,
			"-0.011": 2.95400291738,
			"-0.01": 2.9360958712,
			"-0.009": 2.91451436005,
			"-0.008": 3.90552586183,
			"-0.007": 3.84510479165,
			"-0.006": 9.71498507626,
			"-0.005": 22.0406441701,
			"-0.004": 25.1102890741,
			"-0.003": 19.0535873391,
			"-0.002": 17.4758207453,
			"-0.001": 13.2521423357,
			"0.0": 9.05805013421,
			"0.001": 7.87109927355,
			"0.002": 8.97698282646,
			"0.003": 13.6316217473,
			"0.004": 18.2401093364,
			"0.005": 8.55168990049,
			"0.006": 3.41595731082,
			"0.007": 4.42129942188,
			"0.008": 4.52785081,
			"0.009": 2.88614576393,
			"0.01": 2.76678383762,
			"0.011": 3.31550044577,
			"0.012": 3.59172504889,
			"0.013": 6.95512826027,
			"0.014": 3.81707258137,
			"0.015": 0.530034989718,
			"0.016": 0.63492900723,
			"0.017": 0.0389224474646,
			"0.018": 0.0,
			"0.019": 0.0,
			"0.02": 0.0,
			"0.021": 0.0,
			"0.022": 0.0,
			"0.023": 0.0,
			"0.024": 0.0,
			"0.025": 0.0
		}
	}
}
