{
	 "smiles": "CCN1N=C(C)CC1=O", 
	 "Tm": 381.15, 
	 "num_atms": 19, 
	 "gaussian": { 
		 "optdone": 1, 
		 "sigma_profile": "yes", 
		 "theory": "DFT", 
		 "functional": "B3LYP", 
		 "basiset": "6-31G**", 
		 "properties": { 
			 "R2extent": 1876.8793, 
			 "electric_dipole_moment_norm": 2.66096686751, 
			 "electric_quadrupole_moment_norm": 16.0953968274, 
			 "total_energy": -419.385077427, 
			 "HOMO_LUMO_gap": 0.20225, 
			 "cosmo_polarized_energy": -10.33, 
			 "cosmo_cavitation_energy": 22.44, 
			 "cosmo_dispersion_energy": -16.36, 
			 "cosmo_repulsion_energy": 1.39, 
			 "cosmo_total_nonelectrostatic_energy": 7.46, 
			 "SMD_solvation_energy": 3.91 
		},
		"coords": [
			{
				"x": -0.773833025,
				"y": -0.0531037869,
				"z": 1.6766049696,
				"element": "C" 
			},
			{
				"x": -1.674784821,
				"y": 0.1603369366,
				"z": 0.4587867403,
				"element": "C" 
			},
			{
				"x": -0.9860313381,
				"y": 0.7968645209,
				"z": -0.6494086096,
				"element": "N" 
			},
			{
				"x": 0.0217212171,
				"y": 0.1147030919,
				"z": -1.3290177427,
				"element": "N" 
			},
			{
				"x": 0.4843478192,
				"y": 0.8923136996,
				"z": -2.2489908132,
				"element": "C" 
			},
			{
				"x": 1.5788517785,
				"y": 0.4619623203,
				"z": -3.1686852391,
				"element": "C" 
			},
			{
				"x": -0.2054445866,
				"y": 2.2306994667,
				"z": -2.2646711997,
				"element": "C" 
			},
			{
				"x": -1.2085287939,
				"y": 2.0763843305,
				"z": -1.1171752375,
				"element": "C" 
			},
			{
				"x": -2.02771018,
				"y": 2.8724619241,
				"z": -0.6910641216,
				"element": "O" 
			},
			{
				"x": -1.329518616,
				"y": -0.5577403182,
				"z": 2.4735105141,
				"element": "H" 
			},
			{
				"x": -0.4094426633,
				"y": 0.9031444394,
				"z": 2.0639246587,
				"element": "H" 
			},
			{
				"x": 0.0885862017,
				"y": -0.6718346679,
				"z": 1.4132219649,
				"element": "H" 
			},
			{
				"x": -2.5114017974,
				"y": 0.8222009872,
				"z": 0.6977076985,
				"element": "H" 
			},
			{
				"x": -2.0827067181,
				"y": -0.7955881821,
				"z": 0.1110137865,
				"element": "H" 
			},
			{
				"x": 1.2516453197,
				"y": 0.4940975907,
				"z": -4.215179302,
				"element": "H" 
			},
			{
				"x": 2.4484624172,
				"y": 1.1254134657,
				"z": -3.0859506152,
				"element": "H" 
			},
			{
				"x": 1.8891977025,
				"y": -0.5570520824,
				"z": -2.9280752949,
				"element": "H" 
			},
			{
				"x": -0.723514292,
				"y": 2.4403886765,
				"z": -3.2075032587,
				"element": "H" 
			},
			{
				"x": 0.4730043755,
				"y": 3.0710475875,
				"z": -2.0782488983,
				"element": "H" 
			}
		],
		 "valence_orbital": [ 
			{
				"type": "occ",
				"energy": -0.35415,
				"method": "rhf"
			},
			{
				"type": "occ",
				"energy": -0.34059,
				"method": "rhf"
			},
			{
				"type": "occ",
				"energy": -0.30733,
				"method": "rhf"
			},
			{
				"type": "occ",
				"energy": -0.24696,
				"method": "rhf"
			},
			{
				"type": "occ",
				"energy": -0.2233,
				"method": "rhf"
			},
			{
				"type": "unocc",
				"energy": -0.02105,
				"method": "rhf"
			},
			{
				"type": "unocc",
				"energy": 0.04601,
				"method": "rhf"
			},
			{
				"type": "unocc",
				"energy": 0.0929,
				"method": "rhf"
			},
			{
				"type": "unocc",
				"energy": 0.11278,
				"method": "rhf"
			},
			{
				"type": "unocc",
				"energy": 0.12625,
				"method": "rhf"
			}
		],
		"cosmo_sigma_profile": { 
			"-0.025": 0.0,
			"-0.024": 0.0,
			"-0.023": 0.0,
			"-0.022": 0.0,
			"-0.021": 0.0,
			"-0.02": 0.0,
			"-0.019": 0.0,
			"-0.018": 0.0,
			"-0.017": 0.0,
			"-0.016": 0.0,
			"-0.015": 0.0,
			"-0.014": 0.0,
			"-0.013": 0.0,
			"-0.012": 0.0,
			"-0.011": 0.0,
			"-0.01": 0.0,
			"-0.009": 0.0776374392409,
			"-0.008": 3.63558757847,
			"-0.007": 4.46153499669,
			"-0.006": 7.05033947135,
			"-0.005": 14.4552065373,
			"-0.004": 17.2942831395,
			"-0.003": 20.7559977428,
			"-0.002": 19.9365194526,
			"-0.001": 19.478846544,
			"0.0": 15.6703453951,
			"0.001": 8.51092387779,
			"0.002": 5.09187806828,
			"0.003": 4.23366698062,
			"0.004": 3.75343165816,
			"0.005": 3.66935315744,
			"0.006": 2.8462782755,
			"0.007": 2.68696182947,
			"0.008": 2.53142109319,
			"0.009": 1.82325773381,
			"0.01": 2.6735502169,
			"0.011": 2.69693652094,
			"0.012": 2.66786784921,
			"0.013": 6.72955582312,
			"0.014": 3.40156604491,
			"0.015": 0.356655249705,
			"0.016": 0.0,
			"0.017": 0.0,
			"0.018": 0.0,
			"0.019": 0.0,
			"0.02": 0.0,
			"0.021": 0.0,
			"0.022": 0.0,
			"0.023": 0.0,
			"0.024": 0.0,
			"0.025": 0.0
		}
	}
}
