{
	 "smiles": "ClCC1=CC(=CC=C1)C(=O)NCC1=CC=CO1", 
	 "Tm": 348.15, 
	 "num_atms": 29, 
	 "gaussian": { 
		 "optdone": 1, 
		 "sigma_profile": "yes", 
		 "theory": "DFT", 
		 "functional": "B3LYP", 
		 "basiset": "6-31G**", 
		 "properties": { 
			 "R2extent": 7062.9758, 
			 "electric_dipole_moment_norm": 3.60015401198, 
			 "electric_quadrupole_moment_norm": 15.9550823953, 
			 "total_energy": -1167.99618656, 
			 "HOMO_LUMO_gap": 0.18494, 
			 "cosmo_polarized_energy": -15.09, 
			 "cosmo_cavitation_energy": 35.61, 
			 "cosmo_dispersion_energy": -25.08, 
			 "cosmo_repulsion_energy": 1.98, 
			 "cosmo_total_nonelectrostatic_energy": 12.51, 
			 "SMD_solvation_energy": 7.02 
		},
		"coords": [
			{
				"x": 1.2894093013,
				"y": 3.8504003538,
				"z": -4.2033808164,
				"element": "Cl" 
			},
			{
				"x": 0.2953542928,
				"y": 3.9179686249,
				"z": -2.6595310398,
				"element": "C" 
			},
			{
				"x": 0.5909810822,
				"y": 2.7685511845,
				"z": -1.7425939214,
				"element": "C" 
			},
			{
				"x": -0.2037469198,
				"y": 1.6207932329,
				"z": -1.7705391877,
				"element": "C" 
			},
			{
				"x": 0.0683324732,
				"y": 0.5348909971,
				"z": -0.9289127249,
				"element": "C" 
			},
			{
				"x": 1.1330680826,
				"y": 0.6194114271,
				"z": -0.0211966354,
				"element": "C" 
			},
			{
				"x": 1.9222722817,
				"y": 1.7705898492,
				"z": 0.0229508586,
				"element": "C" 
			},
			{
				"x": 1.6601498099,
				"y": 2.8344655202,
				"z": -0.8371151112,
				"element": "C" 
			},
			{
				"x": -0.8873850859,
				"y": -0.6249352987,
				"z": -0.9828159861,
				"element": "C" 
			},
			{
				"x": -2.0820747374,
				"y": -0.4425498989,
				"z": -1.1926958632,
				"element": "O" 
			},
			{
				"x": -0.407555704,
				"y": -1.8974411842,
				"z": -0.7563401725,
				"element": "N" 
			},
			{
				"x": 0.9440978374,
				"y": -2.4019963156,
				"z": -0.9458904485,
				"element": "C" 
			},
			{
				"x": 1.5057627674,
				"y": -2.9945561483,
				"z": 0.3124258304,
				"element": "C" 
			},
			{
				"x": 1.1033108449,
				"y": -3.0036316049,
				"z": 1.6155809751,
				"element": "C" 
			},
			{
				"x": 2.093377705,
				"y": -3.7538578218,
				"z": 2.3376157731,
				"element": "C" 
			},
			{
				"x": 3.0179606617,
				"y": -4.1430083847,
				"z": 1.4205455597,
				"element": "C" 
			},
			{
				"x": 2.6742203292,
				"y": -3.6895735723,
				"z": 0.1767832844,
				"element": "O" 
			},
			{
				"x": -0.7451384671,
				"y": 3.9225719664,
				"z": -2.9834608003,
				"element": "H" 
			},
			{
				"x": 0.5385952295,
				"y": 4.8785106102,
				"z": -2.2047914707,
				"element": "H" 
			},
			{
				"x": -1.055136772,
				"y": 1.5538189834,
				"z": -2.4408005574,
				"element": "H" 
			},
			{
				"x": 1.3315261938,
				"y": -0.1961884063,
				"z": 0.6672489954,
				"element": "H" 
			},
			{
				"x": 2.7384575419,
				"y": 1.8377667883,
				"z": 0.7360023791,
				"element": "H" 
			},
			{
				"x": 2.2826116237,
				"y": 3.724875866,
				"z": -0.8057119114,
				"element": "H" 
			},
			{
				"x": -1.1525541407,
				"y": -2.5823384968,
				"z": -0.7962072763,
				"element": "H" 
			},
			{
				"x": 1.5803989244,
				"y": -1.5879102823,
				"z": -1.3057858297,
				"element": "H" 
			},
			{
				"x": 0.9504980318,
				"y": -3.1641438843,
				"z": -1.7374944057,
				"element": "H" 
			},
			{
				"x": 0.2096108418,
				"y": -2.5416439366,
				"z": 2.008076353,
				"element": "H" 
			},
			{
				"x": 2.1049764731,
				"y": -3.9719751774,
				"z": 3.3957866459,
				"element": "H" 
			},
			{
				"x": 3.9304194979,
				"y": -4.7159649908,
				"z": 1.4749475039,
				"element": "H" 
			}
		],
		 "valence_orbital": [ 
			{
				"type": "occ",
				"energy": -0.27125,
				"method": "rhf"
			},
			{
				"type": "occ",
				"energy": -0.2654,
				"method": "rhf"
			},
			{
				"type": "occ",
				"energy": -0.26146,
				"method": "rhf"
			},
			{
				"type": "occ",
				"energy": -0.24864,
				"method": "rhf"
			},
			{
				"type": "occ",
				"energy": -0.22925,
				"method": "rhf"
			},
			{
				"type": "unocc",
				"energy": -0.04431,
				"method": "rhf"
			},
			{
				"type": "unocc",
				"energy": -0.0285,
				"method": "rhf"
			},
			{
				"type": "unocc",
				"energy": 0.00596,
				"method": "rhf"
			},
			{
				"type": "unocc",
				"energy": 0.02811,
				"method": "rhf"
			},
			{
				"type": "unocc",
				"energy": 0.05443,
				"method": "rhf"
			}
		],
		"cosmo_sigma_profile": { 
			"-0.025": 0.0,
			"-0.024": 0.0,
			"-0.023": 0.0,
			"-0.022": 0.0,
			"-0.021": 0.0,
			"-0.02": 0.0,
			"-0.019": 0.0,
			"-0.018": 0.0,
			"-0.017": 0.0,
			"-0.016": 0.0,
			"-0.015": 0.0,
			"-0.014": 0.520604461867,
			"-0.013": 1.05581173817,
			"-0.012": 1.46464993102,
			"-0.011": 0.71685652996,
			"-0.01": 1.12274909429,
			"-0.009": 1.4762347164,
			"-0.008": 6.89903465346,
			"-0.007": 14.4530843286,
			"-0.006": 19.3713583216,
			"-0.005": 18.7265976684,
			"-0.004": 20.5429374955,
			"-0.003": 19.3008455158,
			"-0.002": 17.3621648045,
			"-0.001": 17.6285688603,
			"0.0": 15.2338352331,
			"0.001": 15.1962373577,
			"0.002": 17.6171207828,
			"0.003": 23.8090000728,
			"0.004": 17.1116489882,
			"0.005": 14.743128473,
			"0.006": 14.5489149414,
			"0.007": 10.1940977261,
			"0.008": 2.52177227092,
			"0.009": 1.28774446218,
			"0.01": 1.81675994838,
			"0.011": 1.90220403538,
			"0.012": 1.72124936585,
			"0.013": 5.01059092787,
			"0.014": 3.42837585485,
			"0.015": 0.0650539424878,
			"0.016": 0.0,
			"0.017": 0.0,
			"0.018": 0.0,
			"0.019": 0.0,
			"0.02": 0.0,
			"0.021": 0.0,
			"0.022": 0.0,
			"0.023": 0.0,
			"0.024": 0.0,
			"0.025": 0.0
		}
	}
}
