{
	 "smiles": "NC(=S)C1=NC=C(C=C1Cl)C(F)(F)F", 
	 "Tm": 409.15, 
	 "num_atms": 18, 
	 "gaussian": { 
		 "optdone": 1, 
		 "sigma_profile": "yes", 
		 "theory": "DFT", 
		 "functional": "B3LYP", 
		 "basiset": "6-31G**", 
		 "properties": { 
			 "R2extent": 4756.3266, 
			 "electric_dipole_moment_norm": 3.28639387323, 
			 "electric_quadrupole_moment_norm": 14.5902093189, 
			 "total_energy": -1536.55765032, 
			 "HOMO_LUMO_gap": 0.12523, 
			 "cosmo_polarized_energy": -12.83, 
			 "cosmo_cavitation_energy": 27.93, 
			 "cosmo_dispersion_energy": -20.58, 
			 "cosmo_repulsion_energy": 1.53, 
			 "cosmo_total_nonelectrostatic_energy": 8.88, 
			 "SMD_solvation_energy": 4.05 
		},
		"coords": [
			{
				"x": -2.2606428532,
				"y": 0.0860934855,
				"z": -0.7989610032,
				"element": "N" 
			},
			{
				"x": -0.9459712715,
				"y": 0.2140950968,
				"z": -1.0609905809,
				"element": "C" 
			},
			{
				"x": -0.3520811169,
				"y": 0.5609128454,
				"z": -2.5732832437,
				"element": "S" 
			},
			{
				"x": -0.1028127526,
				"y": 0.0923871282,
				"z": 0.1837651445,
				"element": "C" 
			},
			{
				"x": -0.7296613492,
				"y": 0.5234176961,
				"z": 1.2966484862,
				"element": "N" 
			},
			{
				"x": -0.1003676953,
				"y": 0.5470240491,
				"z": 2.4667962647,
				"element": "C" 
			},
			{
				"x": 1.2193529685,
				"y": 0.1163443797,
				"z": 2.6123960664,
				"element": "C" 
			},
			{
				"x": 1.8737119239,
				"y": -0.3828542949,
				"z": 1.492417762,
				"element": "C" 
			},
			{
				"x": 1.2149671791,
				"y": -0.4079347048,
				"z": 0.2617949462,
				"element": "C" 
			},
			{
				"x": 2.0751816363,
				"y": -1.1361717827,
				"z": -1.0634625607,
				"element": "Cl" 
			},
			{
				"x": 1.8875736751,
				"y": 0.1177187345,
				"z": 3.9619075465,
				"element": "C" 
			},
			{
				"x": 1.6374828871,
				"y": -1.0272392679,
				"z": 4.6332215933,
				"element": "F" 
			},
			{
				"x": 3.2264682982,
				"y": 0.2328884321,
				"z": 3.8513543028,
				"element": "F" 
			},
			{
				"x": 1.4429248209,
				"y": 1.1348934735,
				"z": 4.7278272537,
				"element": "F" 
			},
			{
				"x": -2.9133635338,
				"y": 0.2947016414,
				"z": -1.5401677794,
				"element": "H" 
			},
			{
				"x": -2.5634780007,
				"y": 0.1210725709,
				"z": 0.1666262286,
				"element": "H" 
			},
			{
				"x": -0.6613625458,
				"y": 0.9233611241,
				"z": 3.3177445963,
				"element": "H" 
			},
			{
				"x": 2.8892777299,
				"y": -0.754410607,
				"z": 1.5634649769,
				"element": "H" 
			}
		],
		 "valence_orbital": [ 
			{
				"type": "occ",
				"energy": -0.32065,
				"method": "rhf"
			},
			{
				"type": "occ",
				"energy": -0.30066,
				"method": "rhf"
			},
			{
				"type": "occ",
				"energy": -0.28194,
				"method": "rhf"
			},
			{
				"type": "occ",
				"energy": -0.23922,
				"method": "rhf"
			},
			{
				"type": "occ",
				"energy": -0.21579,
				"method": "rhf"
			},
			{
				"type": "unocc",
				"energy": -0.09056,
				"method": "rhf"
			},
			{
				"type": "unocc",
				"energy": -0.06058,
				"method": "rhf"
			},
			{
				"type": "unocc",
				"energy": -0.0139,
				"method": "rhf"
			},
			{
				"type": "unocc",
				"energy": 0.01443,
				"method": "rhf"
			},
			{
				"type": "unocc",
				"energy": 0.07914,
				"method": "rhf"
			}
		],
		"cosmo_sigma_profile": { 
			"-0.025": 0.0,
			"-0.024": 0.0,
			"-0.023": 0.0,
			"-0.022": 0.0,
			"-0.021": 0.0,
			"-0.02": 0.0,
			"-0.019": 0.0,
			"-0.018": 0.0,
			"-0.017": 0.0,
			"-0.016": 0.0824460613792,
			"-0.015": 1.05417117219,
			"-0.014": 1.4835885459,
			"-0.013": 1.8723376748,
			"-0.012": 2.1334381571,
			"-0.011": 2.02013360924,
			"-0.01": 2.41613974563,
			"-0.009": 3.70535156901,
			"-0.008": 5.22549762226,
			"-0.007": 4.45215940665,
			"-0.006": 5.91691071426,
			"-0.005": 6.0650472782,
			"-0.004": 11.1509480169,
			"-0.003": 18.1472118653,
			"-0.002": 17.9889477342,
			"-0.001": 14.4731740028,
			"0.0": 13.398672994,
			"0.001": 18.4312998232,
			"0.002": 34.7091938373,
			"0.003": 20.4041573104,
			"0.004": 8.06970987419,
			"0.005": 5.74620023683,
			"0.006": 5.68465301284,
			"0.007": 7.82152002792,
			"0.008": 7.47591955677,
			"0.009": 4.96031224294,
			"0.01": 3.06338515837,
			"0.011": 1.75105113221,
			"0.012": 0.0674748752666,
			"0.013": 0.0,
			"0.014": 0.0,
			"0.015": 0.0,
			"0.016": 0.0,
			"0.017": 0.0,
			"0.018": 0.0,
			"0.019": 0.0,
			"0.02": 0.0,
			"0.021": 0.0,
			"0.022": 0.0,
			"0.023": 0.0,
			"0.024": 0.0,
			"0.025": 0.0
		}
	}
}
