{
	 "smiles": "OC(=O)C1=CC=C(C=C1)N1C=CC=N1", 
	 "Tm": 543.15, 
	 "num_atms": 22, 
	 "gaussian": { 
		 "optdone": 1, 
		 "sigma_profile": "yes", 
		 "theory": "DFT", 
		 "functional": "B3LYP", 
		 "basiset": "6-31G**", 
		 "properties": { 
			 "R2extent": 3931.3714, 
			 "electric_dipole_moment_norm": 4.39096022528, 
			 "electric_quadrupole_moment_norm": 13.7202568103, 
			 "total_energy": -645.819776031, 
			 "HOMO_LUMO_gap": 0.17916, 
			 "cosmo_polarized_energy": -16.91, 
			 "cosmo_cavitation_energy": 27.01, 
			 "cosmo_dispersion_energy": -20.13, 
			 "cosmo_repulsion_energy": 1.54, 
			 "cosmo_total_nonelectrostatic_energy": 8.42, 
			 "SMD_solvation_energy": 5.68 
		},
		"coords": [
			{
				"x": 0.5584007733,
				"y": 3.7285975893,
				"z": 1.1707364408,
				"element": "O" 
			},
			{
				"x": -0.0771596074,
				"y": 2.8996965084,
				"z": 0.2985505244,
				"element": "C" 
			},
			{
				"x": -0.728178785,
				"y": 3.3648321943,
				"z": -0.6080492655,
				"element": "O" 
			},
			{
				"x": 0.0786173713,
				"y": 1.4288299253,
				"z": 0.5265655587,
				"element": "C" 
			},
			{
				"x": -0.2229429593,
				"y": 0.5693737836,
				"z": -0.538162638,
				"element": "C" 
			},
			{
				"x": -0.1014786331,
				"y": -0.807149519,
				"z": -0.4004852681,
				"element": "C" 
			},
			{
				"x": 0.3008512067,
				"y": -1.3530005188,
				"z": 0.8272894585,
				"element": "C" 
			},
			{
				"x": 0.5874590129,
				"y": -0.5072965619,
				"z": 1.9069336931,
				"element": "C" 
			},
			{
				"x": 0.4775493713,
				"y": 0.8693515357,
				"z": 1.7495192518,
				"element": "C" 
			},
			{
				"x": 0.4174567416,
				"y": -2.7516333151,
				"z": 0.9949847412,
				"element": "N" 
			},
			{
				"x": -0.0459662117,
				"y": -3.7511245956,
				"z": 0.1786288995,
				"element": "C" 
			},
			{
				"x": 0.3019235333,
				"y": -4.9440079926,
				"z": 0.7680047052,
				"element": "C" 
			},
			{
				"x": 0.9799054947,
				"y": -4.5692993933,
				"z": 1.9538328297,
				"element": "C" 
			},
			{
				"x": 1.0484944809,
				"y": -3.252175027,
				"z": 2.0926068923,
				"element": "N" 
			},
			{
				"x": 1.1666765239,
				"y": 3.2255526736,
				"z": 1.7292412276,
				"element": "H" 
			},
			{
				"x": -0.5438372553,
				"y": 1.0050822748,
				"z": -1.4779432174,
				"element": "H" 
			},
			{
				"x": -0.3061413082,
				"y": -1.4473191397,
				"z": -1.2509135012,
				"element": "H" 
			},
			{
				"x": 0.8853727698,
				"y": -0.9455717544,
				"z": 2.8505084329,
				"element": "H" 
			},
			{
				"x": 0.6680769446,
				"y": 1.499112456,
				"z": 2.6153422321,
				"element": "H" 
			},
			{
				"x": -0.5942721997,
				"y": -3.5443410364,
				"z": -0.7264832874,
				"element": "H" 
			},
			{
				"x": 0.0927273269,
				"y": -5.937826875,
				"z": 0.4021199611,
				"element": "H" 
			},
			{
				"x": 1.4206654085,
				"y": -5.2078832122,
				"z": 2.7077723287,
				"element": "H" 
			}
		],
		 "valence_orbital": [ 
			{
				"type": "occ",
				"energy": -0.30297,
				"method": "rhf"
			},
			{
				"type": "occ",
				"energy": -0.27885,
				"method": "rhf"
			},
			{
				"type": "occ",
				"energy": -0.27349,
				"method": "rhf"
			},
			{
				"type": "occ",
				"energy": -0.26383,
				"method": "rhf"
			},
			{
				"type": "occ",
				"energy": -0.24036,
				"method": "rhf"
			},
			{
				"type": "unocc",
				"energy": -0.0612,
				"method": "rhf"
			},
			{
				"type": "unocc",
				"energy": -0.02798,
				"method": "rhf"
			},
			{
				"type": "unocc",
				"energy": 0.00274,
				"method": "rhf"
			},
			{
				"type": "unocc",
				"energy": 0.05574,
				"method": "rhf"
			},
			{
				"type": "unocc",
				"energy": 0.05748,
				"method": "rhf"
			}
		],
		"cosmo_sigma_profile": { 
			"-0.025": 0.0,
			"-0.024": 0.0,
			"-0.023": 0.0,
			"-0.022": 0.0,
			"-0.021": 0.0,
			"-0.02": 0.0,
			"-0.019": 0.227741563312,
			"-0.018": 0.982190757147,
			"-0.017": 0.994778770894,
			"-0.016": 1.22551978898,
			"-0.015": 0.302453918533,
			"-0.014": 0.676470876905,
			"-0.013": 1.75185656325,
			"-0.012": 1.60579548228,
			"-0.011": 2.01693527273,
			"-0.01": 3.24308859314,
			"-0.009": 3.58064810152,
			"-0.008": 4.93372594496,
			"-0.007": 8.99573212214,
			"-0.006": 10.4585837991,
			"-0.005": 11.7471539284,
			"-0.004": 11.3193719191,
			"-0.003": 10.5694326901,
			"-0.002": 12.1315259316,
			"-0.001": 10.8791952354,
			"0.0": 13.9279763454,
			"0.001": 15.9813847927,
			"0.002": 20.6629225765,
			"0.003": 16.2400039155,
			"0.004": 9.96975082108,
			"0.005": 6.11005996588,
			"0.006": 4.09489514061,
			"0.007": 4.2372527583,
			"0.008": 4.74414929657,
			"0.009": 3.68164916189,
			"0.01": 5.88878187243,
			"0.011": 6.53303709385,
			"0.012": 6.06991171161,
			"0.013": 2.10552355554,
			"0.014": 0.0812433257654,
			"0.015": 0.0,
			"0.016": 0.0,
			"0.017": 0.0,
			"0.018": 0.0,
			"0.019": 0.0,
			"0.02": 0.0,
			"0.021": 0.0,
			"0.022": 0.0,
			"0.023": 0.0,
			"0.024": 0.0,
			"0.025": 0.0
		}
	}
}
