{
	 "smiles": "OC(=O)C1=C(SC2CCCC2)C=CC(=C1)[N+]([O-])=O", 
	 "Tm": 477.15, 
	 "num_atms": 31, 
	 "gaussian": { 
		 "optdone": 1, 
		 "sigma_profile": "yes", 
		 "theory": "DFT", 
		 "functional": "B3LYP", 
		 "basiset": "6-31G**", 
		 "properties": { 
			 "R2extent": 6474.197, 
			 "electric_dipole_moment_norm": 7.07698619541, 
			 "electric_quadrupole_moment_norm": 14.4923860472, 
			 "total_energy": -1218.85985133, 
			 "HOMO_LUMO_gap": 0.16349, 
			 "cosmo_polarized_energy": -14.9, 
			 "cosmo_cavitation_energy": 36.04, 
			 "cosmo_dispersion_energy": -25.84, 
			 "cosmo_repulsion_energy": 1.96, 
			 "cosmo_total_nonelectrostatic_energy": 12.15, 
			 "SMD_solvation_energy": 8.41 
		},
		"coords": [
			{
				"x": -2.4587457756,
				"y": 1.1329502644,
				"z": 1.5735842305,
				"element": "O" 
			},
			{
				"x": -1.2566334176,
				"y": 0.8119503842,
				"z": 2.0746588059,
				"element": "C" 
			},
			{
				"x": -1.1655783835,
				"y": 0.1371159864,
				"z": 3.0754201567,
				"element": "O" 
			},
			{
				"x": -0.0090001858,
				"y": 1.3324831102,
				"z": 1.3749494166,
				"element": "C" 
			},
			{
				"x": 0.084508645,
				"y": 1.8846155191,
				"z": 0.0751729304,
				"element": "C" 
			},
			{
				"x": -1.3233515418,
				"y": 2.1068499013,
				"z": -1.0303527795,
				"element": "S" 
			},
			{
				"x": -1.6488153351,
				"y": 0.3755380583,
				"z": -1.6099013872,
				"element": "C" 
			},
			{
				"x": -0.5834013296,
				"y": -0.2262150726,
				"z": -2.5335766815,
				"element": "C" 
			},
			{
				"x": -1.329276463,
				"y": -1.4219377305,
				"z": -3.1564720824,
				"element": "C" 
			},
			{
				"x": -2.8002073937,
				"y": -0.9426196588,
				"z": -3.3231347885,
				"element": "C" 
			},
			{
				"x": -2.9402971727,
				"y": 0.3392737464,
				"z": -2.451786343,
				"element": "C" 
			},
			{
				"x": 1.3250790301,
				"y": 2.3365274897,
				"z": -0.4028100269,
				"element": "C" 
			},
			{
				"x": 2.4742829969,
				"y": 2.2475790452,
				"z": 0.3743290363,
				"element": "C" 
			},
			{
				"x": 2.3670266907,
				"y": 1.6833410484,
				"z": 1.6423501763,
				"element": "C" 
			},
			{
				"x": 1.1576967924,
				"y": 1.2250896075,
				"z": 2.1436541888,
				"element": "C" 
			},
			{
				"x": 3.5786929434,
				"y": 1.5696470261,
				"z": 2.4771608253,
				"element": "N" 
			},
			{
				"x": 3.4568334577,
				"y": 1.0706202706,
				"z": 3.5923950871,
				"element": "O" 
			},
			{
				"x": 4.6332563195,
				"y": 1.9836638262,
				"z": 1.9974437903,
				"element": "O" 
			},
			{
				"x": -2.3680138281,
				"y": 1.6931864458,
				"z": 0.7696524716,
				"element": "H" 
			},
			{
				"x": -1.7702358886,
				"y": -0.2433667024,
				"z": -0.715259376,
				"element": "H" 
			},
			{
				"x": -0.3151296507,
				"y": 0.5055477948,
				"z": -3.3053074221,
				"element": "H" 
			},
			{
				"x": 0.331817431,
				"y": -0.5106396383,
				"z": -2.0069297499,
				"element": "H" 
			},
			{
				"x": -1.2861465369,
				"y": -2.2782106972,
				"z": -2.4744589643,
				"element": "H" 
			},
			{
				"x": -0.8804336822,
				"y": -1.7433499655,
				"z": -4.1005299998,
				"element": "H" 
			},
			{
				"x": -3.0291601552,
				"y": -0.7181686629,
				"z": -4.3688280011,
				"element": "H" 
			},
			{
				"x": -3.5037208748,
				"y": -1.7171426184,
				"z": -3.0055181644,
				"element": "H" 
			},
			{
				"x": -2.9880629376,
				"y": 1.2286078695,
				"z": -3.0912377086,
				"element": "H" 
			},
			{
				"x": -3.8367025473,
				"y": 0.3405258175,
				"z": -1.8263246538,
				"element": "H" 
			},
			{
				"x": 1.3787429558,
				"y": 2.7596670009,
				"z": -1.3997892351,
				"element": "H" 
			},
			{
				"x": 3.4357871543,
				"y": 2.5946920368,
				"z": 0.0173961976,
				"element": "H" 
			},
			{
				"x": 1.0991886831,
				"y": 0.7856784971,
				"z": 3.1311500506,
				"element": "H" 
			}
		],
		 "valence_orbital": [ 
			{
				"type": "occ",
				"energy": -0.30184,
				"method": "rhf"
			},
			{
				"type": "occ",
				"energy": -0.29752,
				"method": "rhf"
			},
			{
				"type": "occ",
				"energy": -0.29441,
				"method": "rhf"
			},
			{
				"type": "occ",
				"energy": -0.28205,
				"method": "rhf"
			},
			{
				"type": "occ",
				"energy": -0.26864,
				"method": "rhf"
			},
			{
				"type": "unocc",
				"energy": -0.10515,
				"method": "rhf"
			},
			{
				"type": "unocc",
				"energy": -0.06932,
				"method": "rhf"
			},
			{
				"type": "unocc",
				"energy": -0.03075,
				"method": "rhf"
			},
			{
				"type": "unocc",
				"energy": 0.00943,
				"method": "rhf"
			},
			{
				"type": "unocc",
				"energy": 0.03117,
				"method": "rhf"
			}
		],
		"cosmo_sigma_profile": { 
			"-0.025": 0.0,
			"-0.024": 0.0,
			"-0.023": 0.0,
			"-0.022": 0.0,
			"-0.021": 0.0,
			"-0.02": 0.0,
			"-0.019": 0.0,
			"-0.018": 0.0,
			"-0.017": 0.0,
			"-0.016": 0.0,
			"-0.015": 0.0,
			"-0.014": 0.0,
			"-0.013": 0.0,
			"-0.012": 0.0,
			"-0.011": 0.103369590984,
			"-0.01": 0.383498010609,
			"-0.009": 1.66220615799,
			"-0.008": 5.13779899272,
			"-0.007": 8.15106388585,
			"-0.006": 7.97398640619,
			"-0.005": 9.17675962733,
			"-0.004": 20.353948183,
			"-0.003": 39.2974936342,
			"-0.002": 42.6143041771,
			"-0.001": 38.3017322143,
			"0.0": 22.951866778,
			"0.001": 14.5536279437,
			"0.002": 6.67685814215,
			"0.003": 7.34401736623,
			"0.004": 5.9180965219,
			"0.005": 6.42345884803,
			"0.006": 7.78181698436,
			"0.007": 12.4249156615,
			"0.008": 8.1729928016,
			"0.009": 6.47244512767,
			"0.01": 6.32711428234,
			"0.011": 5.39977087069,
			"0.012": 2.93987463203,
			"0.013": 0.928605967571,
			"0.014": 0.0,
			"0.015": 0.0,
			"0.016": 0.0,
			"0.017": 0.0,
			"0.018": 0.0,
			"0.019": 0.0,
			"0.02": 0.0,
			"0.021": 0.0,
			"0.022": 0.0,
			"0.023": 0.0,
			"0.024": 0.0,
			"0.025": 0.0
		}
	}
}
