{
	 "smiles": "NC1=CC=C(C=C1)N1CCOC1=O", 
	 "Tm": 423.15, 
	 "num_atms": 23, 
	 "gaussian": { 
		 "optdone": 1, 
		 "sigma_profile": "yes", 
		 "theory": "DFT", 
		 "functional": "B3LYP", 
		 "basiset": "6-31G**", 
		 "properties": { 
			 "R2extent": 3436.7336, 
			 "electric_dipole_moment_norm": 4.7490583593, 
			 "electric_quadrupole_moment_norm": 19.9444918371, 
			 "total_energy": -608.948787147, 
			 "HOMO_LUMO_gap": 0.18963, 
			 "cosmo_polarized_energy": -17.38, 
			 "cosmo_cavitation_energy": 26.31, 
			 "cosmo_dispersion_energy": -20.05, 
			 "cosmo_repulsion_energy": 1.58, 
			 "cosmo_total_nonelectrostatic_energy": 7.84, 
			 "SMD_solvation_energy": 5.19 
		},
		"coords": [
			{
				"x": 1.3493213626,
				"y": 3.6496411077,
				"z": 3.2169543817,
				"element": "N" 
			},
			{
				"x": 0.6142429104,
				"y": 2.6952575182,
				"z": 2.5035424942,
				"element": "C" 
			},
			{
				"x": 0.7222748641,
				"y": 2.5945607203,
				"z": 1.106384079,
				"element": "C" 
			},
			{
				"x": 0.0471424658,
				"y": 1.6124963528,
				"z": 0.3916500499,
				"element": "C" 
			},
			{
				"x": -0.7762191115,
				"y": 0.6899561789,
				"z": 1.0587009215,
				"element": "C" 
			},
			{
				"x": -0.8889526685,
				"y": 0.7836516282,
				"z": 2.452904272,
				"element": "C" 
			},
			{
				"x": -0.2048987051,
				"y": 1.7685832429,
				"z": 3.1626052012,
				"element": "C" 
			},
			{
				"x": -1.4652815614,
				"y": -0.3393956941,
				"z": 0.3644671024,
				"element": "N" 
			},
			{
				"x": -2.2288784569,
				"y": -1.3694257267,
				"z": 1.0538237701,
				"element": "C" 
			},
			{
				"x": -2.6158813363,
				"y": -2.2822698358,
				"z": -0.117761987,
				"element": "C" 
			},
			{
				"x": -2.5125200868,
				"y": -1.4488069566,
				"z": -1.2784598904,
				"element": "O" 
			},
			{
				"x": -1.7383845468,
				"y": -0.3527586891,
				"z": -0.9944878505,
				"element": "C" 
			},
			{
				"x": -1.3886733302,
				"y": 0.428899203,
				"z": -1.8472545654,
				"element": "O" 
			},
			{
				"x": 0.9533190881,
				"y": 3.9046809758,
				"z": 4.1118052037,
				"element": "H" 
			},
			{
				"x": 1.6034363585,
				"y": 4.4694202748,
				"z": 2.6821585,
				"element": "H" 
			},
			{
				"x": 1.3540503425,
				"y": 3.2967575317,
				"z": 0.5676609918,
				"element": "H" 
			},
			{
				"x": 0.1379716347,
				"y": 1.5650558927,
				"z": -0.6844695831,
				"element": "H" 
			},
			{
				"x": -1.5170803301,
				"y": 0.0933478051,
				"z": 3.0050596001,
				"element": "H" 
			},
			{
				"x": -0.3085932159,
				"y": 1.8135779443,
				"z": 4.243909652,
				"element": "H" 
			},
			{
				"x": -3.107605442,
				"y": -0.9439850231,
				"z": 1.559215536,
				"element": "H" 
			},
			{
				"x": -1.6208464894,
				"y": -1.8889396196,
				"z": 1.8006238085,
				"element": "H" 
			},
			{
				"x": -3.6362122316,
				"y": -2.6646081869,
				"z": -0.0503974104,
				"element": "H" 
			},
			{
				"x": -1.9218315144,
				"y": -3.1240966446,
				"z": -0.2227342772,
				"element": "H" 
			}
		],
		 "valence_orbital": [ 
			{
				"type": "occ",
				"energy": -0.29202,
				"method": "rhf"
			},
			{
				"type": "occ",
				"energy": -0.2711,
				"method": "rhf"
			},
			{
				"type": "occ",
				"energy": -0.26633,
				"method": "rhf"
			},
			{
				"type": "occ",
				"energy": -0.24728,
				"method": "rhf"
			},
			{
				"type": "occ",
				"energy": -0.18857,
				"method": "rhf"
			},
			{
				"type": "unocc",
				"energy": 0.00106,
				"method": "rhf"
			},
			{
				"type": "unocc",
				"energy": 0.01193,
				"method": "rhf"
			},
			{
				"type": "unocc",
				"energy": 0.06045,
				"method": "rhf"
			},
			{
				"type": "unocc",
				"energy": 0.07988,
				"method": "rhf"
			},
			{
				"type": "unocc",
				"energy": 0.08151,
				"method": "rhf"
			}
		],
		"cosmo_sigma_profile": { 
			"-0.025": 0.0,
			"-0.024": 0.0,
			"-0.023": 0.0,
			"-0.022": 0.0,
			"-0.021": 0.0,
			"-0.02": 0.0,
			"-0.019": 0.0,
			"-0.018": 0.0,
			"-0.017": 0.0,
			"-0.016": 0.0,
			"-0.015": 0.0,
			"-0.014": 0.0,
			"-0.013": 0.0821264964185,
			"-0.012": 2.0937240773,
			"-0.011": 2.94530934599,
			"-0.01": 2.56297500024,
			"-0.009": 3.00516536692,
			"-0.008": 3.80333760926,
			"-0.007": 12.2434682943,
			"-0.006": 23.8614778529,
			"-0.005": 17.4549905527,
			"-0.004": 13.6112094123,
			"-0.003": 10.3817780948,
			"-0.002": 7.45727785816,
			"-0.001": 8.71481540798,
			"0.0": 7.9377004888,
			"0.001": 8.14154088996,
			"0.002": 8.51113239972,
			"0.003": 8.93084516431,
			"0.004": 8.95704729667,
			"0.005": 11.1394023963,
			"0.006": 13.4363493915,
			"0.007": 6.41172596452,
			"0.008": 3.50783045763,
			"0.009": 3.96468216219,
			"0.01": 5.10912868173,
			"0.011": 4.58125128525,
			"0.012": 4.78517896827,
			"0.013": 3.64978694971,
			"0.014": 1.08384638426,
			"0.015": 0.586171254292,
			"0.016": 0.0260997435414,
			"0.017": 0.0,
			"0.018": 0.0,
			"0.019": 0.0,
			"0.02": 0.0,
			"0.021": 0.0,
			"0.022": 0.0,
			"0.023": 0.0,
			"0.024": 0.0,
			"0.025": 0.0
		}
	}
}
