{
	 "smiles": "BrC1=CC=C(CC#N)C=C1", 
	 "Tm": 320.65, 
	 "num_atms": 16, 
	 "gaussian": { 
		 "optdone": 1, 
		 "sigma_profile": "yes", 
		 "theory": "DFT", 
		 "functional": "B3LYP", 
		 "basiset": "6-31G**", 
		 "properties": { 
			 "R2extent": 4773.2183, 
			 "electric_dipole_moment_norm": 3.41787063681, 
			 "electric_quadrupole_moment_norm": 13.4562869407, 
			 "total_energy": -2934.60484944, 
			 "HOMO_LUMO_gap": 0.22066, 
			 "cosmo_polarized_energy": -11.23, 
			 "cosmo_cavitation_energy": 23.85, 
			 "cosmo_dispersion_energy": -17.16, 
			 "cosmo_repulsion_energy": 1.4, 
			 "cosmo_total_nonelectrostatic_energy": 8.09, 
			 "SMD_solvation_energy": 4.39 
		},
		"coords": [
			{
				"x": 5.1630510213,
				"y": -0.263257392,
				"z": -0.4935617061,
				"element": "Br" 
			},
			{
				"x": 3.2956657832,
				"y": -0.139740684,
				"z": -0.1161352067,
				"element": "C" 
			},
			{
				"x": 2.8460465091,
				"y": 0.7815922441,
				"z": 0.8283204706,
				"element": "C" 
			},
			{
				"x": 1.4809587922,
				"y": 0.862603264,
				"z": 1.10153868,
				"element": "C" 
			},
			{
				"x": 0.5669154053,
				"y": 0.0340462012,
				"z": 0.4427484932,
				"element": "C" 
			},
			{
				"x": -0.922862115,
				"y": 0.1351615974,
				"z": 0.7410842049,
				"element": "C" 
			},
			{
				"x": -1.6126842559,
				"y": 1.1032871319,
				"z": -0.123083692,
				"element": "C" 
			},
			{
				"x": -2.1509566235,
				"y": 1.86929465,
				"z": -0.8089374142,
				"element": "N" 
			},
			{
				"x": 1.0414356837,
				"y": -0.881380317,
				"z": -0.5021359542,
				"element": "C" 
			},
			{
				"x": 2.4034148499,
				"y": -0.9747496805,
				"z": -0.7867000903,
				"element": "C" 
			},
			{
				"x": 3.5505534274,
				"y": 1.4242308506,
				"z": 1.3435550706,
				"element": "H" 
			},
			{
				"x": 1.1293145053,
				"y": 1.5815083382,
				"z": 1.8367559107,
				"element": "H" 
			},
			{
				"x": -1.4067513017,
				"y": -0.8396515797,
				"z": 0.6125316342,
				"element": "H" 
			},
			{
				"x": -1.0859644085,
				"y": 0.4335455951,
				"z": 1.7828574809,
				"element": "H" 
			},
			{
				"x": 0.3448860442,
				"y": -1.5310397208,
				"z": -1.0253744421,
				"element": "H" 
			},
			{
				"x": 2.7662766829,
				"y": -1.6877504985,
				"z": -1.5179634393,
				"element": "H" 
			}
		],
		 "valence_orbital": [ 
			{
				"type": "occ",
				"energy": -0.32816,
				"method": "rhf"
			},
			{
				"type": "occ",
				"energy": -0.32024,
				"method": "rhf"
			},
			{
				"type": "occ",
				"energy": -0.29517,
				"method": "rhf"
			},
			{
				"type": "occ",
				"energy": -0.27711,
				"method": "rhf"
			},
			{
				"type": "occ",
				"energy": -0.2529,
				"method": "rhf"
			},
			{
				"type": "unocc",
				"energy": -0.03224,
				"method": "rhf"
			},
			{
				"type": "unocc",
				"energy": -0.02984,
				"method": "rhf"
			},
			{
				"type": "unocc",
				"energy": -0.00208,
				"method": "rhf"
			},
			{
				"type": "unocc",
				"energy": 0.03472,
				"method": "rhf"
			},
			{
				"type": "unocc",
				"energy": 0.03671,
				"method": "rhf"
			}
		],
		"cosmo_sigma_profile": { 
			"-0.025": 0.0,
			"-0.024": 0.0,
			"-0.023": 0.0,
			"-0.022": 0.0,
			"-0.021": 0.0,
			"-0.02": 0.0,
			"-0.019": 0.0,
			"-0.018": 0.0,
			"-0.017": 0.0,
			"-0.016": 0.0,
			"-0.015": 0.0,
			"-0.014": 0.0,
			"-0.013": 0.0,
			"-0.012": 0.0,
			"-0.011": 0.0,
			"-0.01": 0.0108232711018,
			"-0.009": 5.98004908092,
			"-0.008": 7.94575777268,
			"-0.007": 12.6830707985,
			"-0.006": 13.1364840293,
			"-0.005": 10.8705662282,
			"-0.004": 8.71047962236,
			"-0.003": 9.34002112475,
			"-0.002": 8.20364096056,
			"-0.001": 9.50653300742,
			"0.0": 10.6269454389,
			"0.001": 14.3051562903,
			"0.002": 18.3397821861,
			"0.003": 21.9205708676,
			"0.004": 13.8278391212,
			"0.005": 6.95552970184,
			"0.006": 2.82647070899,
			"0.007": 2.63845791247,
			"0.008": 3.34060481939,
			"0.009": 3.67317748231,
			"0.01": 3.37844423984,
			"0.011": 2.82855348767,
			"0.012": 2.37455286747,
			"0.013": 1.93274487884,
			"0.014": 0.272550026232,
			"0.015": 0.0,
			"0.016": 0.0,
			"0.017": 0.0,
			"0.018": 0.0,
			"0.019": 0.0,
			"0.02": 0.0,
			"0.021": 0.0,
			"0.022": 0.0,
			"0.023": 0.0,
			"0.024": 0.0,
			"0.025": 0.0
		}
	}
}
