{
	 "smiles": "CSC(SC)=NC1=NN=C(S1)C1=CC=CC=C1", 
	 "Tm": 385.15, 
	 "num_atms": 28, 
	 "gaussian": { 
		 "optdone": 1, 
		 "sigma_profile": "yes", 
		 "theory": "DFT", 
		 "functional": "B3LYP", 
		 "basiset": "6-31G**", 
		 "properties": { 
			 "R2extent": 7846.2986, 
			 "electric_dipole_moment_norm": 2.64393230813, 
			 "electric_quadrupole_moment_norm": 12.7376159795, 
			 "total_energy": -1784.58012652, 
			 "HOMO_LUMO_gap": 0.14899, 
			 "cosmo_polarized_energy": -11.12, 
			 "cosmo_cavitation_energy": 37.32, 
			 "cosmo_dispersion_energy": -28.08, 
			 "cosmo_repulsion_energy": 2.05, 
			 "cosmo_total_nonelectrostatic_energy": 11.29, 
			 "SMD_solvation_energy": 4.01 
		},
		"coords": [
			{
				"x": -0.6961698941,
				"y": 0.919650024,
				"z": -3.7524728093,
				"element": "C" 
			},
			{
				"x": -1.826576398,
				"y": 2.2963407138,
				"z": -3.349112023,
				"element": "S" 
			},
			{
				"x": -1.2740989903,
				"y": 2.8924271319,
				"z": -1.7648643959,
				"element": "C" 
			},
			{
				"x": -1.6276377918,
				"y": 4.6311180078,
				"z": -1.6816839701,
				"element": "S" 
			},
			{
				"x": -1.4874689774,
				"y": 4.9396134108,
				"z": 0.1108726657,
				"element": "C" 
			},
			{
				"x": -0.702358616,
				"y": 2.3210568301,
				"z": -0.7668805807,
				"element": "N" 
			},
			{
				"x": -0.5709591319,
				"y": 0.9919744439,
				"z": -0.499884467,
				"element": "C" 
			},
			{
				"x": -1.3118572857,
				"y": -0.0098928579,
				"z": -0.9217400829,
				"element": "N" 
			},
			{
				"x": -0.9687802092,
				"y": -1.2002269237,
				"z": -0.3682343113,
				"element": "N" 
			},
			{
				"x": 0.0283837908,
				"y": -1.1364612158,
				"z": 0.4807535244,
				"element": "C" 
			},
			{
				"x": 0.646663486,
				"y": 0.4979667446,
				"z": 0.6831594873,
				"element": "S" 
			},
			{
				"x": 0.5681921326,
				"y": -2.3114459592,
				"z": 1.1750342303,
				"element": "C" 
			},
			{
				"x": 1.6505519899,
				"y": -2.2143886581,
				"z": 2.0640398385,
				"element": "C" 
			},
			{
				"x": 2.1403799054,
				"y": -3.3491001773,
				"z": 2.7078469874,
				"element": "C" 
			},
			{
				"x": 1.5568953434,
				"y": -4.595484308,
				"z": 2.4741226338,
				"element": "C" 
			},
			{
				"x": 0.4783222449,
				"y": -4.7003173255,
				"z": 1.5907818147,
				"element": "C" 
			},
			{
				"x": -0.0148547034,
				"y": -3.5712096057,
				"z": 0.9447828882,
				"element": "C" 
			},
			{
				"x": -0.8132772109,
				"y": 0.7658044041,
				"z": -4.8273287602,
				"element": "H" 
			},
			{
				"x": -0.975114846,
				"y": 0.025329165,
				"z": -3.1966894201,
				"element": "H" 
			},
			{
				"x": 0.3373602254,
				"y": 1.1995883866,
				"z": -3.5416066276,
				"element": "H" 
			},
			{
				"x": -0.4794367806,
				"y": 4.7088902537,
				"z": 0.4545503968,
				"element": "H" 
			},
			{
				"x": -2.2136999876,
				"y": 4.3394510169,
				"z": 0.6607182995,
				"element": "H" 
			},
			{
				"x": -1.7004925487,
				"y": 6.0019163951,
				"z": 0.2481520712,
				"element": "H" 
			},
			{
				"x": 2.1142887444,
				"y": -1.2504653133,
				"z": 2.2546651979,
				"element": "H" 
			},
			{
				"x": 2.9783918953,
				"y": -3.2582928579,
				"z": 3.3925367861,
				"element": "H" 
			},
			{
				"x": 1.9390333703,
				"y": -5.4791455873,
				"z": 2.9767285991,
				"element": "H" 
			},
			{
				"x": 0.0194648286,
				"y": -5.6671194076,
				"z": 1.4052490604,
				"element": "H" 
			},
			{
				"x": -0.8514445857,
				"y": -3.6397767309,
				"z": 0.2586029671,
				"element": "H" 
			}
		],
		 "valence_orbital": [ 
			{
				"type": "occ",
				"energy": -0.26154,
				"method": "rhf"
			},
			{
				"type": "occ",
				"energy": -0.2591,
				"method": "rhf"
			},
			{
				"type": "occ",
				"energy": -0.25331,
				"method": "rhf"
			},
			{
				"type": "occ",
				"energy": -0.24769,
				"method": "rhf"
			},
			{
				"type": "occ",
				"energy": -0.22064,
				"method": "rhf"
			},
			{
				"type": "unocc",
				"energy": -0.07165,
				"method": "rhf"
			},
			{
				"type": "unocc",
				"energy": -0.0348,
				"method": "rhf"
			},
			{
				"type": "unocc",
				"energy": -0.00843,
				"method": "rhf"
			},
			{
				"type": "unocc",
				"energy": 0.00575,
				"method": "rhf"
			},
			{
				"type": "unocc",
				"energy": 0.01146,
				"method": "rhf"
			}
		],
		"cosmo_sigma_profile": { 
			"-0.025": 0.0,
			"-0.024": 0.0,
			"-0.023": 0.0,
			"-0.022": 0.0,
			"-0.021": 0.0,
			"-0.02": 0.0,
			"-0.019": 0.0,
			"-0.018": 0.0,
			"-0.017": 0.0,
			"-0.016": 0.0,
			"-0.015": 0.0,
			"-0.014": 0.0,
			"-0.013": 0.0,
			"-0.012": 0.0,
			"-0.011": 0.0,
			"-0.01": 0.0,
			"-0.009": 0.0,
			"-0.008": 1.96842242596,
			"-0.007": 9.19132487108,
			"-0.006": 17.6193018421,
			"-0.005": 21.0861509242,
			"-0.004": 20.7253663801,
			"-0.003": 23.2837374891,
			"-0.002": 28.8165510266,
			"-0.001": 22.24505655,
			"0.0": 23.1749716632,
			"0.001": 23.389145298,
			"0.002": 27.6875509483,
			"0.003": 25.8639248241,
			"0.004": 23.1620822024,
			"0.005": 14.3288162588,
			"0.006": 6.4272583348,
			"0.007": 2.57798850192,
			"0.008": 2.60512407991,
			"0.009": 2.21459188909,
			"0.01": 2.51033089142,
			"0.011": 2.76985356708,
			"0.012": 2.38008587222,
			"0.013": 1.46737964549,
			"0.014": 0.0727886860807,
			"0.015": 0.0,
			"0.016": 0.0,
			"0.017": 0.0,
			"0.018": 0.0,
			"0.019": 0.0,
			"0.02": 0.0,
			"0.021": 0.0,
			"0.022": 0.0,
			"0.023": 0.0,
			"0.024": 0.0,
			"0.025": 0.0
		}
	}
}
