{
	 "smiles": "OC(=O)C1=CC(OCC(F)(F)F)=CC=C1", 
	 "Tm": 378.15, 
	 "num_atms": 22, 
	 "gaussian": { 
		 "optdone": 1, 
		 "sigma_profile": "yes", 
		 "theory": "DFT", 
		 "functional": "B3LYP", 
		 "basiset": "6-31G**", 
		 "properties": { 
			 "R2extent": 4418.1663, 
			 "electric_dipole_moment_norm": 4.19000887947, 
			 "electric_quadrupole_moment_norm": 27.0420016138, 
			 "total_energy": -872.368369844, 
			 "HOMO_LUMO_gap": 0.19408, 
			 "cosmo_polarized_energy": -15.72, 
			 "cosmo_cavitation_energy": 28.38, 
			 "cosmo_dispersion_energy": -20.34, 
			 "cosmo_repulsion_energy": 1.53, 
			 "cosmo_total_nonelectrostatic_energy": 9.58, 
			 "SMD_solvation_energy": 7.42 
		},
		"coords": [
			{
				"x": -2.7701687828,
				"y": 3.6624143833,
				"z": 0.6730557695,
				"element": "O" 
			},
			{
				"x": -3.221665768,
				"y": 2.5299369725,
				"z": 0.0715390567,
				"element": "C" 
			},
			{
				"x": -4.3959526306,
				"y": 2.4058795211,
				"z": -0.1836266038,
				"element": "O" 
			},
			{
				"x": -2.1963632316,
				"y": 1.4799888277,
				"z": -0.245409653,
				"element": "C" 
			},
			{
				"x": -0.978005337,
				"y": 1.3964491719,
				"z": 0.43430612,
				"element": "C" 
			},
			{
				"x": -0.0600620053,
				"y": 0.3908364119,
				"z": 0.1124448162,
				"element": "C" 
			},
			{
				"x": 1.0984421474,
				"y": 0.4084679057,
				"z": 0.8536824765,
				"element": "O" 
			},
			{
				"x": 1.8970556131,
				"y": -0.7512923707,
				"z": 0.9559475671,
				"element": "C" 
			},
			{
				"x": 3.0807711637,
				"y": -0.7228638261,
				"z": -0.0030814483,
				"element": "C" 
			},
			{
				"x": 3.8324753452,
				"y": 0.3748156038,
				"z": 0.1729898305,
				"element": "F" 
			},
			{
				"x": 3.8540864,
				"y": -1.8066673973,
				"z": 0.2223195404,
				"element": "F" 
			},
			{
				"x": 2.6960076959,
				"y": -0.7532055563,
				"z": -1.297131195,
				"element": "F" 
			},
			{
				"x": -0.35387253,
				"y": -0.5283409247,
				"z": -0.8985710224,
				"element": "C" 
			},
			{
				"x": -1.5858540296,
				"y": -0.4500570506,
				"z": -1.5563537546,
				"element": "C" 
			},
			{
				"x": -2.5107407602,
				"y": 0.536184635,
				"z": -1.2332663746,
				"element": "C" 
			},
			{
				"x": -1.8031687237,
				"y": 3.6847527327,
				"z": 0.6587367111,
				"element": "H" 
			},
			{
				"x": -0.7230016709,
				"y": 2.0639612077,
				"z": 1.2522731995,
				"element": "H" 
			},
			{
				"x": 1.3272812949,
				"y": -1.6709959328,
				"z": 0.7897928232,
				"element": "H" 
			},
			{
				"x": 2.3063823331,
				"y": -0.7696390389,
				"z": 1.9697798231,
				"element": "H" 
			},
			{
				"x": 0.367902065,
				"y": -1.2778327057,
				"z": -1.1966602667,
				"element": "H" 
			},
			{
				"x": -1.81166733,
				"y": -1.1690926066,
				"z": -2.3379852078,
				"element": "H" 
			},
			{
				"x": -3.4708812589,
				"y": 0.6020000364,
				"z": -1.7316822076,
				"element": "H" 
			}
		],
		 "valence_orbital": [ 
			{
				"type": "occ",
				"energy": -0.34206,
				"method": "rhf"
			},
			{
				"type": "occ",
				"energy": -0.31746,
				"method": "rhf"
			},
			{
				"type": "occ",
				"energy": -0.28131,
				"method": "rhf"
			},
			{
				"type": "occ",
				"energy": -0.27243,
				"method": "rhf"
			},
			{
				"type": "occ",
				"energy": -0.24929,
				"method": "rhf"
			},
			{
				"type": "unocc",
				"energy": -0.05521,
				"method": "rhf"
			},
			{
				"type": "unocc",
				"energy": -0.01954,
				"method": "rhf"
			},
			{
				"type": "unocc",
				"energy": 0.04452,
				"method": "rhf"
			},
			{
				"type": "unocc",
				"energy": 0.06059,
				"method": "rhf"
			},
			{
				"type": "unocc",
				"energy": 0.0739,
				"method": "rhf"
			}
		],
		"cosmo_sigma_profile": { 
			"-0.025": 0.0,
			"-0.024": 0.0,
			"-0.023": 0.0,
			"-0.022": 0.0,
			"-0.021": 0.0,
			"-0.02": 0.0,
			"-0.019": 0.319829590238,
			"-0.018": 0.724345469102,
			"-0.017": 1.18423797468,
			"-0.016": 0.990707435451,
			"-0.015": 0.862783103025,
			"-0.014": 0.833671196757,
			"-0.013": 1.07960141873,
			"-0.012": 1.1029963724,
			"-0.011": 1.51947930019,
			"-0.01": 2.7089659245,
			"-0.009": 5.89286236713,
			"-0.008": 5.82791600613,
			"-0.007": 7.96106097502,
			"-0.006": 11.2955558447,
			"-0.005": 10.0413141685,
			"-0.004": 8.50056929609,
			"-0.003": 8.9941717753,
			"-0.002": 9.18030532088,
			"-0.001": 10.0187727666,
			"0.0": 13.7142077936,
			"0.001": 18.0334778409,
			"0.002": 37.6094149874,
			"0.003": 28.4981071316,
			"0.004": 6.41128562399,
			"0.005": 3.44680224226,
			"0.006": 4.11618896638,
			"0.007": 3.27984907329,
			"0.008": 3.75816604441,
			"0.009": 3.33089903338,
			"0.01": 5.31790632741,
			"0.011": 5.10411590791,
			"0.012": 4.58076096261,
			"0.013": 1.25516079732,
			"0.014": 0.0,
			"0.015": 0.0,
			"0.016": 0.0,
			"0.017": 0.0,
			"0.018": 0.0,
			"0.019": 0.0,
			"0.02": 0.0,
			"0.021": 0.0,
			"0.022": 0.0,
			"0.023": 0.0,
			"0.024": 0.0,
			"0.025": 0.0
		}
	}
}
