{
	 "smiles": "OC(=O)C1=C(NC2=C(F)C=CC(F)=C2)N=CC=C1", 
	 "Tm": 522.15, 
	 "num_atms": 26, 
	 "gaussian": { 
		 "optdone": 1, 
		 "sigma_profile": "yes", 
		 "theory": "DFT", 
		 "functional": "B3LYP", 
		 "basiset": "6-31G**", 
		 "properties": { 
			 "R2extent": 5176.4856, 
			 "electric_dipole_moment_norm": 3.03121909799, 
			 "electric_quadrupole_moment_norm": 11.4926094282, 
			 "total_energy": -921.746816829, 
			 "HOMO_LUMO_gap": 0.14207, 
			 "cosmo_polarized_energy": -10.13, 
			 "cosmo_cavitation_energy": 31.96, 
			 "cosmo_dispersion_energy": -23.33, 
			 "cosmo_repulsion_energy": 1.72, 
			 "cosmo_total_nonelectrostatic_energy": 10.34, 
			 "SMD_solvation_energy": 6.72 
		},
		"coords": [
			{
				"x": 0.8756215817,
				"y": -3.8879851569,
				"z": 0.9410814643,
				"element": "O" 
			},
			{
				"x": 0.7361671819,
				"y": -2.6263667312,
				"z": 0.4710951129,
				"element": "C" 
			},
			{
				"x": 1.6930752632,
				"y": -2.0283212513,
				"z": -0.0087070705,
				"element": "O" 
			},
			{
				"x": -0.6290795578,
				"y": -2.0943752396,
				"z": 0.6011315137,
				"element": "C" 
			},
			{
				"x": -0.9706550364,
				"y": -0.7711366522,
				"z": 0.1586234174,
				"element": "C" 
			},
			{
				"x": -0.012203392,
				"y": 0.0277394668,
				"z": -0.4013475323,
				"element": "N" 
			},
			{
				"x": -0.0902533778,
				"y": 1.3305409603,
				"z": -0.9008000227,
				"element": "C" 
			},
			{
				"x": 1.1083313723,
				"y": 1.8637046204,
				"z": -1.4151674714,
				"element": "C" 
			},
			{
				"x": 2.2123300643,
				"y": 1.0744782861,
				"z": -1.3789191053,
				"element": "F" 
			},
			{
				"x": 1.1991152373,
				"y": 3.136624001,
				"z": -1.9450643955,
				"element": "C" 
			},
			{
				"x": 0.0617384844,
				"y": 3.9482057578,
				"z": -1.9817608511,
				"element": "C" 
			},
			{
				"x": -1.1215192947,
				"y": 3.4275015759,
				"z": -1.4762249748,
				"element": "C" 
			},
			{
				"x": -2.232940712,
				"y": 4.1960527194,
				"z": -1.5022924185,
				"element": "F" 
			},
			{
				"x": -1.229284509,
				"y": 2.1488457795,
				"z": -0.9397853857,
				"element": "C" 
			},
			{
				"x": -2.2232656155,
				"y": -0.2954692511,
				"z": 0.2840425136,
				"element": "N" 
			},
			{
				"x": -3.1575306351,
				"y": -1.0729199211,
				"z": 0.8290517735,
				"element": "C" 
			},
			{
				"x": -2.9320182316,
				"y": -2.3705353807,
				"z": 1.2900297199,
				"element": "C" 
			},
			{
				"x": -1.6432143899,
				"y": -2.8745094403,
				"z": 1.167362784,
				"element": "C" 
			},
			{
				"x": 1.8081396272,
				"y": -4.1197266761,
				"z": 0.7996925562,
				"element": "H" 
			},
			{
				"x": 0.9082330905,
				"y": -0.4091708775,
				"z": -0.4582100857,
				"element": "H" 
			},
			{
				"x": 2.1555743785,
				"y": 3.4803258473,
				"z": -2.3229564894,
				"element": "H" 
			},
			{
				"x": 0.0885442041,
				"y": 4.9521350497,
				"z": -2.3883824725,
				"element": "H" 
			},
			{
				"x": -2.1721546817,
				"y": 1.7888984454,
				"z": -0.5587824277,
				"element": "H" 
			},
			{
				"x": -4.1499317942,
				"y": -0.6301361737,
				"z": 0.9022834081,
				"element": "H" 
			},
			{
				"x": -3.7340325633,
				"y": -2.9556567164,
				"z": 1.7249262015,
				"element": "H" 
			},
			{
				"x": -1.4020866943,
				"y": -3.8754430414,
				"z": 1.506380238,
				"element": "H" 
			}
		],
		 "valence_orbital": [ 
			{
				"type": "occ",
				"energy": -0.2957,
				"method": "rhf"
			},
			{
				"type": "occ",
				"energy": -0.27197,
				"method": "rhf"
			},
			{
				"type": "occ",
				"energy": -0.2697,
				"method": "rhf"
			},
			{
				"type": "occ",
				"energy": -0.24099,
				"method": "rhf"
			},
			{
				"type": "occ",
				"energy": -0.20738,
				"method": "rhf"
			},
			{
				"type": "unocc",
				"energy": -0.06531,
				"method": "rhf"
			},
			{
				"type": "unocc",
				"energy": -0.02981,
				"method": "rhf"
			},
			{
				"type": "unocc",
				"energy": 0.0049,
				"method": "rhf"
			},
			{
				"type": "unocc",
				"energy": 0.02552,
				"method": "rhf"
			},
			{
				"type": "unocc",
				"energy": 0.03948,
				"method": "rhf"
			}
		],
		"cosmo_sigma_profile": { 
			"-0.025": 0.0,
			"-0.024": 0.0,
			"-0.023": 0.0,
			"-0.022": 0.0,
			"-0.021": 0.0,
			"-0.02": 0.0,
			"-0.019": 0.341240348861,
			"-0.018": 0.825127751322,
			"-0.017": 0.833294537735,
			"-0.016": 1.47268800705,
			"-0.015": 0.243598834656,
			"-0.014": 0.351013072327,
			"-0.013": 0.134798481729,
			"-0.012": 1.29736157722,
			"-0.011": 0.969123353329,
			"-0.01": 0.548593698107,
			"-0.009": 0.613727399236,
			"-0.008": 2.55417775381,
			"-0.007": 9.70006878793,
			"-0.006": 10.3818324605,
			"-0.005": 10.9033821293,
			"-0.004": 8.86512802523,
			"-0.003": 13.516850056,
			"-0.002": 16.558934675,
			"-0.001": 17.9638558427,
			"0.0": 24.0027450672,
			"0.001": 31.2439725344,
			"0.002": 30.4622484569,
			"0.003": 23.483366146,
			"0.004": 24.3959221224,
			"0.005": 11.0232335831,
			"0.006": 5.24505237459,
			"0.007": 3.63473427409,
			"0.008": 1.65529040931,
			"0.009": 1.27612612949,
			"0.01": 2.12233930678,
			"0.011": 1.71053184629,
			"0.012": 0.156583313349,
			"0.013": 0.0,
			"0.014": 0.0,
			"0.015": 0.0,
			"0.016": 0.0,
			"0.017": 0.0,
			"0.018": 0.0,
			"0.019": 0.0,
			"0.02": 0.0,
			"0.021": 0.0,
			"0.022": 0.0,
			"0.023": 0.0,
			"0.024": 0.0,
			"0.025": 0.0
		}
	}
}
