{
	 "smiles": "OS(=O)(=O)C1=CC=C(C=C1)N=NC1=CC=C(C=C1)N=NC1=CC=C(C=C1)S(O)(=O)=O", 
	 "Tm": 430.15, 
	 "num_atms": 44, 
	 "gaussian": { 
		 "optdone": 1, 
		 "sigma_profile": "yes", 
		 "theory": "DFT", 
		 "functional": "B3LYP", 
		 "basiset": "6-31G**", 
		 "properties": { 
			 "R2extent": 28483.2438, 
			 "electric_dipole_moment_norm": 2.15474087073, 
			 "electric_quadrupole_moment_norm": 49.2507083977, 
			 "total_energy": -2160.82683866, 
			 "HOMO_LUMO_gap": 0.11476, 
			 "cosmo_polarized_energy": -29.91, 
			 "cosmo_cavitation_energy": 55.04, 
			 "cosmo_dispersion_energy": -39.73, 
			 "cosmo_repulsion_energy": 2.9, 
			 "cosmo_total_nonelectrostatic_energy": 18.21, 
			 "SMD_solvation_energy": 4.15 
		},
		"coords": [
			{
				"x": -3.5550931301,
				"y": -8.1577259614,
				"z": -0.9879819875,
				"element": "O" 
			},
			{
				"x": -4.4822078856,
				"y": -7.2622263548,
				"z": -2.0130585776,
				"element": "S" 
			},
			{
				"x": -5.8426689592,
				"y": -7.2628912285,
				"z": -1.4953513645,
				"element": "O" 
			},
			{
				"x": -4.1710969961,
				"y": -7.7311407507,
				"z": -3.3640454668,
				"element": "O" 
			},
			{
				"x": -3.7762603828,
				"y": -5.6419053314,
				"z": -1.7609547794,
				"element": "C" 
			},
			{
				"x": -4.2916536435,
				"y": -4.8276782688,
				"z": -0.7518786207,
				"element": "C" 
			},
			{
				"x": -3.729650332,
				"y": -3.5687715779,
				"z": -0.5590013,
				"element": "C" 
			},
			{
				"x": -2.6712960278,
				"y": -3.1330257758,
				"z": -1.3686067857,
				"element": "C" 
			},
			{
				"x": -2.1723509739,
				"y": -3.963519263,
				"z": -2.3884573121,
				"element": "C" 
			},
			{
				"x": -2.7256121492,
				"y": -5.2209666263,
				"z": -2.5856407237,
				"element": "C" 
			},
			{
				"x": -2.1835565942,
				"y": -1.8336475984,
				"z": -1.0781655527,
				"element": "N" 
			},
			{
				"x": -1.2288475426,
				"y": -1.4567874124,
				"z": -1.8117980303,
				"element": "N" 
			},
			{
				"x": -0.7341144062,
				"y": -0.1645867317,
				"z": -1.5267290661,
				"element": "C" 
			},
			{
				"x": 0.3120727233,
				"y": 0.2772128463,
				"z": -2.3511076758,
				"element": "C" 
			},
			{
				"x": 0.8597601115,
				"y": 1.5411075096,
				"z": -2.172587579,
				"element": "C" 
			},
			{
				"x": 0.4071582585,
				"y": 2.3536873845,
				"z": -1.1231714509,
				"element": "C" 
			},
			{
				"x": -0.6553043812,
				"y": 1.9219387415,
				"z": -0.3042607953,
				"element": "C" 
			},
			{
				"x": -1.225709187,
				"y": 0.6763457138,
				"z": -0.510028522,
				"element": "C" 
			},
			{
				"x": 0.9411739898,
				"y": 3.677821383,
				"z": -1.0699608515,
				"element": "N" 
			},
			{
				"x": 1.2676181464,
				"y": 4.2614156797,
				"z": -0.016084355,
				"element": "N" 
			},
			{
				"x": 1.359859262,
				"y": 3.616915315,
				"z": 1.2591934443,
				"element": "C" 
			},
			{
				"x": 0.8317098485,
				"y": 4.3129213809,
				"z": 2.3565153724,
				"element": "C" 
			},
			{
				"x": 0.9885675948,
				"y": 3.8077761519,
				"z": 3.6426169765,
				"element": "C" 
			},
			{
				"x": 1.7195329455,
				"y": 2.6305964877,
				"z": 3.822185497,
				"element": "C" 
			},
			{
				"x": 2.302643073,
				"y": 1.9591803112,
				"z": 2.7450380486,
				"element": "C" 
			},
			{
				"x": 2.1163239626,
				"y": 2.4507390619,
				"z": 1.4571662087,
				"element": "C" 
			},
			{
				"x": 1.9411150905,
				"y": 1.9871803241,
				"z": 5.4700521316,
				"element": "S" 
			},
			{
				"x": 0.6135055451,
				"y": 1.0178045728,
				"z": 5.5830551137,
				"element": "O" 
			},
			{
				"x": 3.1033708051,
				"y": 1.0986538455,
				"z": 5.5043522426,
				"element": "O" 
			},
			{
				"x": 1.784795771,
				"y": 3.0775531808,
				"z": 6.4222583849,
				"element": "O" 
			},
			{
				"x": -3.2069016354,
				"y": -8.8981581413,
				"z": -1.513558888,
				"element": "H" 
			},
			{
				"x": -5.1204774485,
				"y": -5.1735459603,
				"z": -0.1448035219,
				"element": "H" 
			},
			{
				"x": -4.098099093,
				"y": -2.9008292077,
				"z": 0.2123014848,
				"element": "H" 
			},
			{
				"x": -1.3619288055,
				"y": -3.602134156,
				"z": -3.0101001116,
				"element": "H" 
			},
			{
				"x": -2.367884988,
				"y": -5.8712919445,
				"z": -3.3764352516,
				"element": "H" 
			},
			{
				"x": 0.6621928144,
				"y": -0.3829599266,
				"z": -3.1377715733,
				"element": "H" 
			},
			{
				"x": 1.6414607973,
				"y": 1.9138523812,
				"z": -2.8263226693,
				"element": "H" 
			},
			{
				"x": -1.0360887055,
				"y": 2.5737541699,
				"z": 0.4742803418,
				"element": "H" 
			},
			{
				"x": -2.0489082452,
				"y": 0.328935769,
				"z": 0.1033068235,
				"element": "H" 
			},
			{
				"x": 0.303526208,
				"y": 5.2449467119,
				"z": 2.1843328809,
				"element": "H" 
			},
			{
				"x": 0.5799704131,
				"y": 4.3279855644,
				"z": 4.5016535178,
				"element": "H" 
			},
			{
				"x": 2.9013051428,
				"y": 1.0720870458,
				"z": 2.9202375312,
				"element": "H" 
			},
			{
				"x": 2.567985354,
				"y": 1.9463872931,
				"z": 0.6102986551,
				"element": "H" 
			},
			{
				"x": 0.9265636554,
				"y": 0.1695933921,
				"z": 5.9417181568,
				"element": "H" 
			}
		],
		 "valence_orbital": [ 
			{
				"type": "occ",
				"energy": -0.28694,
				"method": "rhf"
			},
			{
				"type": "occ",
				"energy": -0.28288,
				"method": "rhf"
			},
			{
				"type": "occ",
				"energy": -0.2655,
				"method": "rhf"
			},
			{
				"type": "occ",
				"energy": -0.25317,
				"method": "rhf"
			},
			{
				"type": "occ",
				"energy": -0.23619,
				"method": "rhf"
			},
			{
				"type": "unocc",
				"energy": -0.12143,
				"method": "rhf"
			},
			{
				"type": "unocc",
				"energy": -0.09121,
				"method": "rhf"
			},
			{
				"type": "unocc",
				"energy": -0.04508,
				"method": "rhf"
			},
			{
				"type": "unocc",
				"energy": -0.04344,
				"method": "rhf"
			},
			{
				"type": "unocc",
				"energy": -0.03611,
				"method": "rhf"
			}
		],
		"cosmo_sigma_profile": { 
			"-0.025": 0.0,
			"-0.024": 0.0,
			"-0.023": 0.0,
			"-0.022": 0.0,
			"-0.021": 0.0,
			"-0.02": 1.20673699051,
			"-0.019": 1.81657246186,
			"-0.018": 1.81712165968,
			"-0.017": 1.59476688587,
			"-0.016": 1.95714044185,
			"-0.015": 1.36605983821,
			"-0.014": 0.842743904264,
			"-0.013": 1.27560596151,
			"-0.012": 2.15357967071,
			"-0.011": 1.68248708973,
			"-0.01": 1.06429435636,
			"-0.009": 2.24536330446,
			"-0.008": 13.0992739174,
			"-0.007": 24.3580546367,
			"-0.006": 23.0339001404,
			"-0.005": 23.2904684087,
			"-0.004": 20.4183381138,
			"-0.003": 19.3592419765,
			"-0.002": 20.9781089668,
			"-0.001": 28.0045638056,
			"0.0": 46.5230319068,
			"0.001": 54.1546705741,
			"0.002": 27.7802680209,
			"0.003": 10.9595650289,
			"0.004": 11.470108722,
			"0.005": 12.7186870218,
			"0.006": 12.4441543887,
			"0.007": 12.1738449376,
			"0.008": 13.2283996218,
			"0.009": 21.5951799971,
			"0.01": 20.6804708823,
			"0.011": 6.22706639059,
			"0.012": 1.63637673838,
			"0.013": 0.394508400861,
			"0.014": 0.0,
			"0.015": 0.0,
			"0.016": 0.0,
			"0.017": 0.0,
			"0.018": 0.0,
			"0.019": 0.0,
			"0.02": 0.0,
			"0.021": 0.0,
			"0.022": 0.0,
			"0.023": 0.0,
			"0.024": 0.0,
			"0.025": 0.0
		}
	}
}
