{
	 "smiles": "COC1CC2C3(C)CCCC2(COC3)C2C(CC3C(O)C12C(=O)C3=C)OC(C)=O", 
	 "Tm": 456.15, 
	 "num_atms": 61, 
	 "gaussian": { 
		 "optdone": 1, 
		 "sigma_profile": "yes", 
		 "theory": "DFT", 
		 "functional": "B3LYP", 
		 "basiset": "6-31G**", 
		 "properties": { 
			 "R2extent": 9724.4571, 
			 "electric_dipole_moment_norm": 3.78063005067, 
			 "electric_quadrupole_moment_norm": 11.4492418657, 
			 "total_energy": -1347.04633935, 
			 "HOMO_LUMO_gap": 0.17296, 
			 "cosmo_polarized_energy": -16.27, 
			 "cosmo_cavitation_energy": 52.5, 
			 "cosmo_dispersion_energy": -34.46, 
			 "cosmo_repulsion_energy": 2.5, 
			 "cosmo_total_nonelectrostatic_energy": 20.54, 
			 "SMD_solvation_energy": 10.05 
		},
		"coords": [
			{
				"x": -3.0836537107,
				"y": -0.4841876504,
				"z": 1.8180580185,
				"element": "C" 
			},
			{
				"x": -2.0762181003,
				"y": -0.5627244308,
				"z": 0.8220424786,
				"element": "O" 
			},
			{
				"x": -1.1538522972,
				"y": 0.5534102711,
				"z": 0.8209018904,
				"element": "C" 
			},
			{
				"x": -0.1063405667,
				"y": 0.4510834179,
				"z": 1.9478300957,
				"element": "C" 
			},
			{
				"x": 1.3024141512,
				"y": -0.0114188497,
				"z": 1.5103351918,
				"element": "C" 
			},
			{
				"x": 2.1553851986,
				"y": -0.5636817703,
				"z": 2.6955183842,
				"element": "C" 
			},
			{
				"x": 2.2764799072,
				"y": 0.4637422404,
				"z": 3.8338839205,
				"element": "C" 
			},
			{
				"x": 1.5415920789,
				"y": -1.8794296105,
				"z": 3.23645268,
				"element": "C" 
			},
			{
				"x": 1.3060674534,
				"y": -2.9576465043,
				"z": 2.1608074067,
				"element": "C" 
			},
			{
				"x": 0.6822418702,
				"y": -2.3907471537,
				"z": 0.8706165708,
				"element": "C" 
			},
			{
				"x": 1.307346901,
				"y": -1.0575947194,
				"z": 0.3595203476,
				"element": "C" 
			},
			{
				"x": 2.7933307516,
				"y": -1.2860816403,
				"z": -0.0259809393,
				"element": "C" 
			},
			{
				"x": 3.5957193219,
				"y": -1.7289957371,
				"z": 1.0600770864,
				"element": "O" 
			},
			{
				"x": 3.5742785511,
				"y": -0.8202576987,
				"z": 2.1479802435,
				"element": "C" 
			},
			{
				"x": 0.4500525432,
				"y": -0.5663717065,
				"z": -0.8807377401,
				"element": "C" 
			},
			{
				"x": 1.1653996654,
				"y": -0.3249383195,
				"z": -2.2296001256,
				"element": "C" 
			},
			{
				"x": 0.1716636634,
				"y": 0.0447230649,
				"z": -3.3472603224,
				"element": "C" 
			},
			{
				"x": -0.851061174,
				"y": 1.1232983771,
				"z": -2.9178326749,
				"element": "C" 
			},
			{
				"x": -1.6415412485,
				"y": 0.5958843102,
				"z": -1.7036505317,
				"element": "C" 
			},
			{
				"x": -2.2227848997,
				"y": -0.6601450285,
				"z": -1.961119943,
				"element": "O" 
			},
			{
				"x": -0.5468562836,
				"y": 0.6179969525,
				"z": -0.5836440713,
				"element": "C" 
			},
			{
				"x": 0.0524897115,
				"y": 2.0203665386,
				"z": -0.8522728848,
				"element": "C" 
			},
			{
				"x": 0.5358215252,
				"y": 2.7719378536,
				"z": -0.0256643621,
				"element": "O" 
			},
			{
				"x": -0.1983690793,
				"y": 2.3417650259,
				"z": -2.3012475524,
				"element": "C" 
			},
			{
				"x": 0.0422781361,
				"y": 3.5457866671,
				"z": -2.8256026302,
				"element": "C" 
			},
			{
				"x": 2.1288180599,
				"y": 0.7581157006,
				"z": -2.0671682696,
				"element": "O" 
			},
			{
				"x": 3.1331240097,
				"y": 0.8467828176,
				"z": -2.9759096353,
				"element": "C" 
			},
			{
				"x": 4.0077598122,
				"y": 2.0410126527,
				"z": -2.6830891204,
				"element": "C" 
			},
			{
				"x": 3.2893544582,
				"y": 0.0610536773,
				"z": -3.8849287092,
				"element": "O" 
			},
			{
				"x": -3.730168995,
				"y": -1.3552141408,
				"z": 1.6894163545,
				"element": "H" 
			},
			{
				"x": -2.665230627,
				"y": -0.5058986967,
				"z": 2.8327194756,
				"element": "H" 
			},
			{
				"x": -3.6839363096,
				"y": 0.4308324362,
				"z": 1.7076246351,
				"element": "H" 
			},
			{
				"x": -1.7534972166,
				"y": 1.4641387176,
				"z": 0.9691551742,
				"element": "H" 
			},
			{
				"x": -0.0076968042,
				"y": 1.435581813,
				"z": 2.4112979966,
				"element": "H" 
			},
			{
				"x": -0.5136639635,
				"y": -0.2152198332,
				"z": 2.7139002309,
				"element": "H" 
			},
			{
				"x": 1.8150415005,
				"y": 0.8832137496,
				"z": 1.1331442969,
				"element": "H" 
			},
			{
				"x": 1.3121951679,
				"y": 0.6522385957,
				"z": 4.3148189649,
				"element": "H" 
			},
			{
				"x": 2.6605865802,
				"y": 1.4228636534,
				"z": 3.4677411344,
				"element": "H" 
			},
			{
				"x": 2.9616016624,
				"y": 0.1022660562,
				"z": 4.6099258578,
				"element": "H" 
			},
			{
				"x": 2.1935152873,
				"y": -2.2795256181,
				"z": 4.0241897944,
				"element": "H" 
			},
			{
				"x": 0.5920262333,
				"y": -1.6437321099,
				"z": 3.734095098,
				"element": "H" 
			},
			{
				"x": 0.6428118538,
				"y": -3.7328084928,
				"z": 2.5659918713,
				"element": "H" 
			},
			{
				"x": 2.2537197851,
				"y": -3.4438036715,
				"z": 1.9249735415,
				"element": "H" 
			},
			{
				"x": -0.3872773303,
				"y": -2.2185368296,
				"z": 1.0282725992,
				"element": "H" 
			},
			{
				"x": 0.7557754243,
				"y": -3.1420249735,
				"z": 0.0724142412,
				"element": "H" 
			},
			{
				"x": 3.21435292,
				"y": -0.3546547492,
				"z": -0.4227572047,
				"element": "H" 
			},
			{
				"x": 2.8859571404,
				"y": -2.0639202185,
				"z": -0.7906664913,
				"element": "H" 
			},
			{
				"x": 4.024551015,
				"y": 0.142694073,
				"z": 1.8448126048,
				"element": "H" 
			},
			{
				"x": 4.2120578614,
				"y": -1.2604881796,
				"z": 2.9226132447,
				"element": "H" 
			},
			{
				"x": -0.2160602447,
				"y": -1.4014341179,
				"z": -1.1206123777,
				"element": "H" 
			},
			{
				"x": 1.7231187867,
				"y": -1.212070347,
				"z": -2.5378879242,
				"element": "H" 
			},
			{
				"x": 0.7366478393,
				"y": 0.369931392,
				"z": -4.2240612625,
				"element": "H" 
			},
			{
				"x": -0.382466104,
				"y": -0.8560598218,
				"z": -3.6278847491,
				"element": "H" 
			},
			{
				"x": -1.502119698,
				"y": 1.3724309126,
				"z": -3.7610562951,
				"element": "H" 
			},
			{
				"x": -2.4208944038,
				"y": 1.3298117414,
				"z": -1.4356289972,
				"element": "H" 
			},
			{
				"x": -2.5132492041,
				"y": -0.9815551971,
				"z": -1.0910556166,
				"element": "H" 
			},
			{
				"x": 0.4771617261,
				"y": 4.3256196682,
				"z": -2.2064769887,
				"element": "H" 
			},
			{
				"x": -0.1866230586,
				"y": 3.7858714528,
				"z": -3.8598823553,
				"element": "H" 
			},
			{
				"x": 3.3980441854,
				"y": 2.9486605671,
				"z": -2.6518288089,
				"element": "H" 
			},
			{
				"x": 4.4763783045,
				"y": 1.9307773687,
				"z": -1.700317446,
				"element": "H" 
			},
			{
				"x": 4.7758002757,
				"y": 2.1262760517,
				"z": -3.4512054012,
				"element": "H" 
			}
		],
		 "valence_orbital": [ 
			{
				"type": "occ",
				"energy": -0.26843,
				"method": "rhf"
			},
			{
				"type": "occ",
				"energy": -0.26454,
				"method": "rhf"
			},
			{
				"type": "occ",
				"energy": -0.26155,
				"method": "rhf"
			},
			{
				"type": "occ",
				"energy": -0.24506,
				"method": "rhf"
			},
			{
				"type": "occ",
				"energy": -0.23319,
				"method": "rhf"
			},
			{
				"type": "unocc",
				"energy": -0.06023,
				"method": "rhf"
			},
			{
				"type": "unocc",
				"energy": 0.01131,
				"method": "rhf"
			},
			{
				"type": "unocc",
				"energy": 0.05999,
				"method": "rhf"
			},
			{
				"type": "unocc",
				"energy": 0.06691,
				"method": "rhf"
			},
			{
				"type": "unocc",
				"energy": 0.07478,
				"method": "rhf"
			}
		],
		"cosmo_sigma_profile": { 
			"-0.025": 0.0,
			"-0.024": 0.0,
			"-0.023": 0.0,
			"-0.022": 0.0,
			"-0.021": 0.0,
			"-0.02": 0.0,
			"-0.019": 0.0,
			"-0.018": 0.0,
			"-0.017": 0.0,
			"-0.016": 0.0,
			"-0.015": 0.0,
			"-0.014": 0.0,
			"-0.013": 0.0,
			"-0.012": 0.0,
			"-0.011": 0.0,
			"-0.01": 0.0,
			"-0.009": 0.149908946902,
			"-0.008": 0.478303523883,
			"-0.007": 1.8494719646,
			"-0.006": 10.6413662192,
			"-0.005": 23.2813393054,
			"-0.004": 37.896895004,
			"-0.003": 52.7246474429,
			"-0.002": 62.966173094,
			"-0.001": 45.6556244455,
			"0.0": 37.4293058369,
			"0.001": 31.6160361576,
			"0.002": 21.1377330872,
			"0.003": 10.7021607632,
			"0.004": 9.36132413674,
			"0.005": 8.3011235147,
			"0.006": 6.48250668253,
			"0.007": 6.2074884903,
			"0.008": 6.22476982224,
			"0.009": 4.84752352795,
			"0.01": 6.50020968334,
			"0.011": 7.47184000285,
			"0.012": 8.8644585457,
			"0.013": 3.47598800868,
			"0.014": 1.5049015936,
			"0.015": 0.000472797151305,
			"0.016": 0.0,
			"0.017": 0.0,
			"0.018": 0.0,
			"0.019": 0.0,
			"0.02": 0.0,
			"0.021": 0.0,
			"0.022": 0.0,
			"0.023": 0.0,
			"0.024": 0.0,
			"0.025": 0.0
		}
	}
}
