{
	 "smiles": "[O-][N+](=O)C=CC1=CC=CC=C1[N+]([O-])=O", 
	 "Tm": 378.65, 
	 "num_atms": 20, 
	 "gaussian": { 
		 "optdone": 1, 
		 "sigma_profile": "yes", 
		 "theory": "DFT", 
		 "functional": "B3LYP", 
		 "basiset": "6-31G**", 
		 "properties": { 
			 "R2extent": 3589.7216, 
			 "electric_dipole_moment_norm": 7.27696866422, 
			 "electric_quadrupole_moment_norm": 15.4903990442, 
			 "total_energy": -718.637376134, 
			 "HOMO_LUMO_gap": 0.16685, 
			 "cosmo_polarized_energy": -14.84, 
			 "cosmo_cavitation_energy": 26.62, 
			 "cosmo_dispersion_energy": -19.08, 
			 "cosmo_repulsion_energy": 1.5, 
			 "cosmo_total_nonelectrostatic_energy": 9.03, 
			 "SMD_solvation_energy": 9.39 
		},
		"coords": [
			{
				"x": -1.5431946686,
				"y": -0.0902892506,
				"z": -3.7815126273,
				"element": "O" 
			},
			{
				"x": -0.8443538466,
				"y": 0.6513043913,
				"z": -3.0873079274,
				"element": "N" 
			},
			{
				"x": -0.7113058621,
				"y": 1.863518874,
				"z": -3.2503340097,
				"element": "O" 
			},
			{
				"x": -0.1276862555,
				"y": -0.0003432711,
				"z": -1.9990924712,
				"element": "C" 
			},
			{
				"x": 0.6353761669,
				"y": 0.7121123238,
				"z": -1.1642388134,
				"element": "C" 
			},
			{
				"x": 1.4438602385,
				"y": 0.0936398913,
				"z": -0.1014634952,
				"element": "C" 
			},
			{
				"x": 2.0989111077,
				"y": -1.1253064811,
				"z": -0.3542106449,
				"element": "C" 
			},
			{
				"x": 2.911233467,
				"y": -1.7333615266,
				"z": 0.5997859588,
				"element": "C" 
			},
			{
				"x": 3.1131438087,
				"y": -1.126275337,
				"z": 1.8404646352,
				"element": "C" 
			},
			{
				"x": 2.4929772449,
				"y": 0.0878843002,
				"z": 2.1194835353,
				"element": "C" 
			},
			{
				"x": 1.6685049507,
				"y": 0.6777089406,
				"z": 1.1632239924,
				"element": "C" 
			},
			{
				"x": 0.9996551716,
				"y": 1.9322765082,
				"z": 1.5547946192,
				"element": "N" 
			},
			{
				"x": 1.4379680744,
				"y": 2.5269489735,
				"z": 2.5369843574,
				"element": "O" 
			},
			{
				"x": 0.0347692575,
				"y": 2.3046295111,
				"z": 0.8857714659,
				"element": "O" 
			},
			{
				"x": -0.3206833313,
				"y": -1.063477032,
				"z": -1.963218016,
				"element": "H" 
			},
			{
				"x": 0.6608696295,
				"y": 1.7868338895,
				"z": -1.3006530009,
				"element": "H" 
			},
			{
				"x": 1.98693762,
				"y": -1.579076926,
				"z": -1.3330726599,
				"element": "H" 
			},
			{
				"x": 3.3973517482,
				"y": -2.6756391401,
				"z": 0.3669199376,
				"element": "H" 
			},
			{
				"x": 3.7493776669,
				"y": -1.591689511,
				"z": 2.5859930081,
				"element": "H" 
			},
			{
				"x": 2.6233878116,
				"y": 0.5894008719,
				"z": 3.069982156,
				"element": "H" 
			}
		],
		 "valence_orbital": [ 
			{
				"type": "occ",
				"energy": -0.30901,
				"method": "rhf"
			},
			{
				"type": "occ",
				"energy": -0.30593,
				"method": "rhf"
			},
			{
				"type": "occ",
				"energy": -0.29785,
				"method": "rhf"
			},
			{
				"type": "occ",
				"energy": -0.29185,
				"method": "rhf"
			},
			{
				"type": "occ",
				"energy": -0.28117,
				"method": "rhf"
			},
			{
				"type": "unocc",
				"energy": -0.11432,
				"method": "rhf"
			},
			{
				"type": "unocc",
				"energy": -0.09214,
				"method": "rhf"
			},
			{
				"type": "unocc",
				"energy": -0.04412,
				"method": "rhf"
			},
			{
				"type": "unocc",
				"energy": -0.02314,
				"method": "rhf"
			},
			{
				"type": "unocc",
				"energy": 0.02183,
				"method": "rhf"
			}
		],
		"cosmo_sigma_profile": { 
			"-0.025": 0.0,
			"-0.024": 0.0,
			"-0.023": 0.0,
			"-0.022": 0.0,
			"-0.021": 0.0,
			"-0.02": 0.0,
			"-0.019": 0.0,
			"-0.018": 0.0,
			"-0.017": 0.0,
			"-0.016": 0.0,
			"-0.015": 0.0,
			"-0.014": 0.0,
			"-0.013": 0.0,
			"-0.012": 0.0,
			"-0.011": 0.0238850213639,
			"-0.01": 1.71018706323,
			"-0.009": 3.96963010307,
			"-0.008": 9.87005688467,
			"-0.007": 12.430841105,
			"-0.006": 13.0722001058,
			"-0.005": 12.1658222877,
			"-0.004": 13.5447827046,
			"-0.003": 12.1233102544,
			"-0.002": 15.671565589,
			"-0.001": 14.5471975894,
			"0.0": 16.1816781857,
			"0.001": 14.7054854746,
			"0.002": 7.30670782698,
			"0.003": 4.93321227961,
			"0.004": 4.05275145426,
			"0.005": 6.87685476754,
			"0.006": 8.08803376169,
			"0.007": 14.5060792515,
			"0.008": 14.877736182,
			"0.009": 9.50801739678,
			"0.01": 3.95080635828,
			"0.011": 0.3255476328,
			"0.012": 0.0,
			"0.013": 0.0,
			"0.014": 0.0,
			"0.015": 0.0,
			"0.016": 0.0,
			"0.017": 0.0,
			"0.018": 0.0,
			"0.019": 0.0,
			"0.02": 0.0,
			"0.021": 0.0,
			"0.022": 0.0,
			"0.023": 0.0,
			"0.024": 0.0,
			"0.025": 0.0
		}
	}
}
