{
	 "smiles": "NC1=NN=C(CC2=CC=C(F)C=C2)O1", 
	 "Tm": 443.15, 
	 "num_atms": 22, 
	 "gaussian": { 
		 "optdone": 1, 
		 "sigma_profile": "yes", 
		 "theory": "DFT", 
		 "functional": "B3LYP", 
		 "basiset": "6-31G**", 
		 "properties": { 
			 "R2extent": 3845.9367, 
			 "electric_dipole_moment_norm": 3.32425154584, 
			 "electric_quadrupole_moment_norm": 19.5738792149, 
			 "total_energy": -687.066373375, 
			 "HOMO_LUMO_gap": 0.21466, 
			 "cosmo_polarized_energy": -16.73, 
			 "cosmo_cavitation_energy": 28.04, 
			 "cosmo_dispersion_energy": -20.05, 
			 "cosmo_repulsion_energy": 1.58, 
			 "cosmo_total_nonelectrostatic_energy": 9.56, 
			 "SMD_solvation_energy": 3.54 
		},
		"coords": [
			{
				"x": -0.0659169278,
				"y": 3.7209395453,
				"z": -1.8663455035,
				"element": "N" 
			},
			{
				"x": -1.0127047277,
				"y": 2.7369559988,
				"z": -1.7711080587,
				"element": "C" 
			},
			{
				"x": -2.3038130307,
				"y": 2.8579819785,
				"z": -1.6916413536,
				"element": "N" 
			},
			{
				"x": -2.8000029057,
				"y": 1.5435611648,
				"z": -1.7143378668,
				"element": "N" 
			},
			{
				"x": -1.7827188886,
				"y": 0.7542351223,
				"z": -1.7918144267,
				"element": "C" 
			},
			{
				"x": -1.749643923,
				"y": -0.7359870667,
				"z": -1.7963801739,
				"element": "C" 
			},
			{
				"x": -1.2006779749,
				"y": -1.3342073619,
				"z": -0.507960205,
				"element": "C" 
			},
			{
				"x": -1.8261179267,
				"y": -1.0652560103,
				"z": 0.7178229328,
				"element": "C" 
			},
			{
				"x": -1.3449352544,
				"y": -1.6156803854,
				"z": 1.9039048225,
				"element": "C" 
			},
			{
				"x": -0.2259867995,
				"y": -2.441219709,
				"z": 1.8517160881,
				"element": "C" 
			},
			{
				"x": 0.2458272827,
				"y": -2.977355043,
				"z": 2.9970154598,
				"element": "F" 
			},
			{
				"x": 0.4192297084,
				"y": -2.7278807708,
				"z": 0.6557509723,
				"element": "C" 
			},
			{
				"x": -0.0769142219,
				"y": -2.1663331153,
				"z": -0.522548774,
				"element": "C" 
			},
			{
				"x": -0.5888400132,
				"y": 1.4470935478,
				"z": -1.8351842527,
				"element": "O" 
			},
			{
				"x": 0.829367452,
				"y": 3.5025125371,
				"z": -1.4509813712,
				"element": "H" 
			},
			{
				"x": -0.4218007218,
				"y": 4.6347831547,
				"z": -1.6217426964,
				"element": "H" 
			},
			{
				"x": -1.1560814137,
				"y": -1.0851620631,
				"z": -2.6483880975,
				"element": "H" 
			},
			{
				"x": -2.7813318762,
				"y": -1.0619861673,
				"z": -1.9625125008,
				"element": "H" 
			},
			{
				"x": -2.6960293062,
				"y": -0.4142981735,
				"z": 0.7420835506,
				"element": "H" 
			},
			{
				"x": -1.8205218877,
				"y": -1.4170575804,
				"z": 2.8582995691,
				"element": "H" 
			},
			{
				"x": 1.2894221046,
				"y": -3.3752854028,
				"z": 0.6564416069,
				"element": "H" 
			},
			{
				"x": 0.4201912521,
				"y": -2.3831541999,
				"z": -1.4643897213,
				"element": "H" 
			}
		],
		 "valence_orbital": [ 
			{
				"type": "occ",
				"energy": -0.31087,
				"method": "rhf"
			},
			{
				"type": "occ",
				"energy": -0.27049,
				"method": "rhf"
			},
			{
				"type": "occ",
				"energy": -0.26512,
				"method": "rhf"
			},
			{
				"type": "occ",
				"energy": -0.24658,
				"method": "rhf"
			},
			{
				"type": "occ",
				"energy": -0.23214,
				"method": "rhf"
			},
			{
				"type": "unocc",
				"energy": -0.01748,
				"method": "rhf"
			},
			{
				"type": "unocc",
				"energy": -0.00819,
				"method": "rhf"
			},
			{
				"type": "unocc",
				"energy": 0.01178,
				"method": "rhf"
			},
			{
				"type": "unocc",
				"energy": 0.0517,
				"method": "rhf"
			},
			{
				"type": "unocc",
				"energy": 0.06897,
				"method": "rhf"
			}
		],
		"cosmo_sigma_profile": { 
			"-0.025": 0.0,
			"-0.024": 0.0,
			"-0.023": 0.0,
			"-0.022": 0.0,
			"-0.021": 0.0,
			"-0.02": 0.0,
			"-0.019": 0.0,
			"-0.018": 0.0,
			"-0.017": 0.0,
			"-0.016": 0.0293439512233,
			"-0.015": 1.56041471562,
			"-0.014": 3.17457876363,
			"-0.013": 2.20319694773,
			"-0.012": 2.77990269437,
			"-0.011": 2.28241907001,
			"-0.01": 2.66989043051,
			"-0.009": 1.24634692405,
			"-0.008": 2.73455306667,
			"-0.007": 9.59630086838,
			"-0.006": 12.0089021835,
			"-0.005": 13.5615734024,
			"-0.004": 14.0790005981,
			"-0.003": 13.4896630394,
			"-0.002": 11.5207277321,
			"-0.001": 10.9542561281,
			"0.0": 11.5929364226,
			"0.001": 16.8615470421,
			"0.002": 15.9784503695,
			"0.003": 16.1433229311,
			"0.004": 22.821701669,
			"0.005": 8.24960877347,
			"0.006": 2.84898393112,
			"0.007": 1.97747024659,
			"0.008": 2.66467958581,
			"0.009": 2.32561051873,
			"0.01": 2.2038846796,
			"0.011": 2.86085886706,
			"0.012": 3.97018968217,
			"0.013": 3.2699218773,
			"0.014": 2.20774437004,
			"0.015": 2.77364998037,
			"0.016": 1.58923205651,
			"0.017": 0.195784587021,
			"0.018": 0.0,
			"0.019": 0.0,
			"0.02": 0.0,
			"0.021": 0.0,
			"0.022": 0.0,
			"0.023": 0.0,
			"0.024": 0.0,
			"0.025": 0.0
		}
	}
}
