{
	 "smiles": "CCC(CC)NC1=C(C=C(C)C(C)=C1[N+]([O-])=O)[N+]([O-])=O", 
	 "Tm": 331.15, 
	 "num_atms": 39, 
	 "gaussian": { 
		 "optdone": 1, 
		 "sigma_profile": "yes", 
		 "theory": "DFT", 
		 "functional": "B3LYP", 
		 "basiset": "6-31G**", 
		 "properties": { 
			 "R2extent": 6204.7998, 
			 "electric_dipole_moment_norm": 2.68743825045, 
			 "electric_quadrupole_moment_norm": 24.9965343352, 
			 "total_energy": -971.802409912, 
			 "HOMO_LUMO_gap": 0.13061, 
			 "cosmo_polarized_energy": -11.33, 
			 "cosmo_cavitation_energy": 40.81, 
			 "cosmo_dispersion_energy": -27.39, 
			 "cosmo_repulsion_energy": 2.09, 
			 "cosmo_total_nonelectrostatic_energy": 15.51, 
			 "SMD_solvation_energy": 10.48 
		},
		"coords": [
			{
				"x": 4.5566895609,
				"y": -0.9800025584,
				"z": -0.0960658402,
				"element": "C" 
			},
			{
				"x": 3.3404566786,
				"y": -0.411294932,
				"z": 0.6404383811,
				"element": "C" 
			},
			{
				"x": 2.1573594124,
				"y": -0.0685772509,
				"z": -0.2844405532,
				"element": "C" 
			},
			{
				"x": 1.5908941231,
				"y": -1.2719151918,
				"z": -1.0746394362,
				"element": "C" 
			},
			{
				"x": 1.11280441,
				"y": -2.4468629007,
				"z": -0.2146352517,
				"element": "C" 
			},
			{
				"x": 1.1229251332,
				"y": 0.5488723612,
				"z": 0.5704468058,
				"element": "N" 
			},
			{
				"x": -0.0525565782,
				"y": 1.1403635292,
				"z": 0.2282733469,
				"element": "C" 
			},
			{
				"x": -1.1893352769,
				"y": 1.1319550798,
				"z": 1.1011962869,
				"element": "C" 
			},
			{
				"x": -2.400099201,
				"y": 1.7346920116,
				"z": 0.7389893755,
				"element": "C" 
			},
			{
				"x": -2.5867840225,
				"y": 2.3603046893,
				"z": -0.4795450104,
				"element": "C" 
			},
			{
				"x": -3.9172945424,
				"y": 2.9845149854,
				"z": -0.823248735,
				"element": "C" 
			},
			{
				"x": -1.4941064186,
				"y": 2.4094297978,
				"z": -1.3823936309,
				"element": "C" 
			},
			{
				"x": -1.6682108042,
				"y": 3.1280273052,
				"z": -2.698514959,
				"element": "C" 
			},
			{
				"x": -0.2860475703,
				"y": 1.8276712689,
				"z": -1.0012526511,
				"element": "C" 
			},
			{
				"x": 0.858408947,
				"y": 2.0267890264,
				"z": -1.9082129175,
				"element": "N" 
			},
			{
				"x": 1.7562027745,
				"y": 2.7689041936,
				"z": -1.5165564209,
				"element": "O" 
			},
			{
				"x": 0.8383820925,
				"y": 1.4585275639,
				"z": -3.0000949304,
				"element": "O" 
			},
			{
				"x": -1.1790299659,
				"y": 0.4728138319,
				"z": 2.3942024478,
				"element": "N" 
			},
			{
				"x": -2.2203517977,
				"y": 0.4475090066,
				"z": 3.0505745965,
				"element": "O" 
			},
			{
				"x": -0.1239559912,
				"y": -0.0533266887,
				"z": 2.8061562772,
				"element": "O" 
			},
			{
				"x": 4.3442570953,
				"y": -1.951741791,
				"z": -0.5525073085,
				"element": "H" 
			},
			{
				"x": 4.892652292,
				"y": -0.3037442268,
				"z": -0.8899256775,
				"element": "H" 
			},
			{
				"x": 5.3922802993,
				"y": -1.1185694035,
				"z": 0.5965495409,
				"element": "H" 
			},
			{
				"x": 3.626825199,
				"y": 0.5085120259,
				"z": 1.1632139336,
				"element": "H" 
			},
			{
				"x": 3.0126929584,
				"y": -1.1177348089,
				"z": 1.4141988814,
				"element": "H" 
			},
			{
				"x": 2.5297614536,
				"y": 0.6663177242,
				"z": -1.0000340579,
				"element": "H" 
			},
			{
				"x": 2.3620610985,
				"y": -1.610144942,
				"z": -1.7766108991,
				"element": "H" 
			},
			{
				"x": 0.7664485163,
				"y": -0.9087923815,
				"z": -1.6984885997,
				"element": "H" 
			},
			{
				"x": 0.6288154867,
				"y": -3.2053495108,
				"z": -0.8373334463,
				"element": "H" 
			},
			{
				"x": 0.3870664923,
				"y": -2.1262594515,
				"z": 0.5402274966,
				"element": "H" 
			},
			{
				"x": 1.9406949202,
				"y": -2.9350212351,
				"z": 0.3096778419,
				"element": "H" 
			},
			{
				"x": 1.0703148682,
				"y": 0.1630713523,
				"z": 1.5098496294,
				"element": "H" 
			},
			{
				"x": -3.2087090577,
				"y": 1.6795876371,
				"z": 1.4567451311,
				"element": "H" 
			},
			{
				"x": -3.8358638477,
				"y": 4.0676810463,
				"z": -0.9741133217,
				"element": "H" 
			},
			{
				"x": -4.6387996499,
				"y": 2.8160115706,
				"z": -0.0204560954,
				"element": "H" 
			},
			{
				"x": -4.3391619344,
				"y": 2.5658796855,
				"z": -1.7443728914,
				"element": "H" 
			},
			{
				"x": -0.7588968352,
				"y": 3.1816919336,
				"z": -3.2930250859,
				"element": "H" 
			},
			{
				"x": -2.0330609161,
				"y": 4.1459299503,
				"z": -2.5269296516,
				"element": "H" 
			},
			{
				"x": -2.4249294021,
				"y": 2.6172796973,
				"z": -3.304842601,
				"element": "H" 
			}
		],
		 "valence_orbital": [ 
			{
				"type": "occ",
				"energy": -0.30889,
				"method": "rhf"
			},
			{
				"type": "occ",
				"energy": -0.30307,
				"method": "rhf"
			},
			{
				"type": "occ",
				"energy": -0.29064,
				"method": "rhf"
			},
			{
				"type": "occ",
				"energy": -0.27481,
				"method": "rhf"
			},
			{
				"type": "occ",
				"energy": -0.22417,
				"method": "rhf"
			},
			{
				"type": "unocc",
				"energy": -0.09356,
				"method": "rhf"
			},
			{
				"type": "unocc",
				"energy": -0.08661,
				"method": "rhf"
			},
			{
				"type": "unocc",
				"energy": -0.01772,
				"method": "rhf"
			},
			{
				"type": "unocc",
				"energy": -0.00634,
				"method": "rhf"
			},
			{
				"type": "unocc",
				"energy": 0.07484,
				"method": "rhf"
			}
		],
		"cosmo_sigma_profile": { 
			"-0.025": 0.0,
			"-0.024": 0.0,
			"-0.023": 0.0,
			"-0.022": 0.0,
			"-0.021": 0.0,
			"-0.02": 0.0,
			"-0.019": 0.0,
			"-0.018": 0.0,
			"-0.017": 0.0,
			"-0.016": 0.0,
			"-0.015": 0.0,
			"-0.014": 0.0,
			"-0.013": 0.0,
			"-0.012": 0.0,
			"-0.011": 0.0,
			"-0.01": 0.0,
			"-0.009": 0.0,
			"-0.008": 0.0273105441132,
			"-0.007": 2.13683014409,
			"-0.006": 10.6049912695,
			"-0.005": 16.0344998429,
			"-0.004": 21.6605316961,
			"-0.003": 39.8188220191,
			"-0.002": 44.4779174235,
			"-0.001": 43.8491488233,
			"0.0": 37.8988654583,
			"0.001": 26.2078900518,
			"0.002": 10.8077085529,
			"0.003": 6.36621753606,
			"0.004": 6.11879234248,
			"0.005": 7.46520075416,
			"0.006": 9.73157380616,
			"0.007": 12.9183027628,
			"0.008": 12.0832139732,
			"0.009": 6.64301115064,
			"0.01": 4.51266000665,
			"0.011": 1.40530779628,
			"0.012": 0.0,
			"0.013": 0.0,
			"0.014": 0.0,
			"0.015": 0.0,
			"0.016": 0.0,
			"0.017": 0.0,
			"0.018": 0.0,
			"0.019": 0.0,
			"0.02": 0.0,
			"0.021": 0.0,
			"0.022": 0.0,
			"0.023": 0.0,
			"0.024": 0.0,
			"0.025": 0.0
		}
	}
}
