{
	 "smiles": "CC1=C(C(=CC=C1)C1=NC(N)=NN1)[N+]([O-])=O", 
	 "Tm": 516.15, 
	 "num_atms": 25, 
	 "gaussian": { 
		 "optdone": 1, 
		 "sigma_profile": "yes", 
		 "theory": "DFT", 
		 "functional": "B3LYP", 
		 "basiset": "6-31G**", 
		 "properties": { 
			 "R2extent": 4362.1166, 
			 "electric_dipole_moment_norm": 4.08342925248, 
			 "electric_quadrupole_moment_norm": 12.9124431461, 
			 "total_energy": -772.484374364, 
			 "HOMO_LUMO_gap": 0.11491, 
			 "cosmo_polarized_energy": -14.94, 
			 "cosmo_cavitation_energy": 29.82, 
			 "cosmo_dispersion_energy": -22.03, 
			 "cosmo_repulsion_energy": 1.7, 
			 "cosmo_total_nonelectrostatic_energy": 9.49, 
			 "SMD_solvation_energy": 4.47 
		},
		"coords": [
			{
				"x": -2.1684741919,
				"y": 1.7704264174,
				"z": 0.4396964627,
				"element": "C" 
			},
			{
				"x": -0.9744136599,
				"y": 1.057255823,
				"z": -0.151373656,
				"element": "C" 
			},
			{
				"x": -0.5009024916,
				"y": -0.1720255862,
				"z": 0.3409405463,
				"element": "C" 
			},
			{
				"x": 0.6109733002,
				"y": -0.8480773873,
				"z": -0.2024963256,
				"element": "C" 
			},
			{
				"x": 1.2396217952,
				"y": -0.2466403598,
				"z": -1.3079599063,
				"element": "C" 
			},
			{
				"x": 0.8044884963,
				"y": 0.9732119351,
				"z": -1.8063802935,
				"element": "C" 
			},
			{
				"x": -0.2837192093,
				"y": 1.6237528953,
				"z": -1.2259670519,
				"element": "C" 
			},
			{
				"x": 1.1514558823,
				"y": -2.1576442919,
				"z": 0.2033339458,
				"element": "C" 
			},
			{
				"x": 1.8894224552,
				"y": -2.914258606,
				"z": -0.6148416322,
				"element": "N" 
			},
			{
				"x": 2.1979829006,
				"y": -3.9922227136,
				"z": 0.152702085,
				"element": "C" 
			},
			{
				"x": 2.9100774753,
				"y": -5.0669388134,
				"z": -0.3407103342,
				"element": "N" 
			},
			{
				"x": 1.7150622987,
				"y": -3.9593178425,
				"z": 1.3958216349,
				"element": "N" 
			},
			{
				"x": 1.0421222162,
				"y": -2.7790291335,
				"z": 1.3979048592,
				"element": "N" 
			},
			{
				"x": -1.2488970108,
				"y": -0.7491512829,
				"z": 1.4717697771,
				"element": "N" 
			},
			{
				"x": -0.6359609672,
				"y": -0.9560800363,
				"z": 2.5269332283,
				"element": "O" 
			},
			{
				"x": -2.4461951007,
				"y": -0.9541641855,
				"z": 1.3186750005,
				"element": "O" 
			},
			{
				"x": -3.1026205678,
				"y": 1.278131977,
				"z": 0.1553139098,
				"element": "H" 
			},
			{
				"x": -2.1987962087,
				"y": 2.802163997,
				"z": 0.0824382706,
				"element": "H" 
			},
			{
				"x": -2.1373550757,
				"y": 1.7931407995,
				"z": 1.5333674947,
				"element": "H" 
			},
			{
				"x": 2.072413684,
				"y": -0.7733159995,
				"z": -1.7574848584,
				"element": "H" 
			},
			{
				"x": 1.3175651503,
				"y": 1.4231287718,
				"z": -2.6507853113,
				"element": "H" 
			},
			{
				"x": -0.6138568418,
				"y": 2.5837293816,
				"z": -1.611451712,
				"element": "H" 
			},
			{
				"x": 3.5299120058,
				"y": -4.8255982979,
				"z": -1.1007820283,
				"element": "H" 
			},
			{
				"x": 3.344863058,
				"y": -5.6339103837,
				"z": 0.3737029942,
				"element": "H" 
			},
			{
				"x": 0.5929306073,
				"y": -2.4369670776,
				"z": 2.2363329005,
				"element": "H" 
			}
		],
		 "valence_orbital": [ 
			{
				"type": "occ",
				"energy": -0.30337,
				"method": "rhf"
			},
			{
				"type": "occ",
				"energy": -0.27448,
				"method": "rhf"
			},
			{
				"type": "occ",
				"energy": -0.27147,
				"method": "rhf"
			},
			{
				"type": "occ",
				"energy": -0.25852,
				"method": "rhf"
			},
			{
				"type": "occ",
				"energy": -0.21309,
				"method": "rhf"
			},
			{
				"type": "unocc",
				"energy": -0.09818,
				"method": "rhf"
			},
			{
				"type": "unocc",
				"energy": -0.04961,
				"method": "rhf"
			},
			{
				"type": "unocc",
				"energy": -0.025,
				"method": "rhf"
			},
			{
				"type": "unocc",
				"energy": 0.04021,
				"method": "rhf"
			},
			{
				"type": "unocc",
				"energy": 0.07294,
				"method": "rhf"
			}
		],
		"cosmo_sigma_profile": { 
			"-0.025": 0.0,
			"-0.024": 0.0,
			"-0.023": 0.0,
			"-0.022": 0.0,
			"-0.021": 0.0,
			"-0.02": 0.0,
			"-0.019": 0.0,
			"-0.018": 0.0,
			"-0.017": 0.0,
			"-0.016": 0.0,
			"-0.015": 0.0,
			"-0.014": 0.0137248934697,
			"-0.013": 2.06433513562,
			"-0.012": 2.65600203823,
			"-0.011": 3.31274226951,
			"-0.01": 3.00095424313,
			"-0.009": 3.32690317087,
			"-0.008": 4.85036122731,
			"-0.007": 9.78821159921,
			"-0.006": 12.7313167975,
			"-0.005": 13.6519857078,
			"-0.004": 12.7316207296,
			"-0.003": 13.5103723807,
			"-0.002": 14.8754336641,
			"-0.001": 19.7934435304,
			"0.0": 18.0293430764,
			"0.001": 17.8268739727,
			"0.002": 17.2250978449,
			"0.003": 8.33647241578,
			"0.004": 7.0055224067,
			"0.005": 8.528067448,
			"0.006": 9.86153411956,
			"0.007": 9.95892125842,
			"0.008": 7.52848597166,
			"0.009": 3.90114205067,
			"0.01": 2.73380423194,
			"0.011": 3.15150134677,
			"0.012": 2.28428460937,
			"0.013": 2.52792773286,
			"0.014": 1.9190096368,
			"0.015": 1.11613611067,
			"0.016": 0.260666176279,
			"0.017": 0.0,
			"0.018": 0.0,
			"0.019": 0.0,
			"0.02": 0.0,
			"0.021": 0.0,
			"0.022": 0.0,
			"0.023": 0.0,
			"0.024": 0.0,
			"0.025": 0.0
		}
	}
}
