{
	 "smiles": "CC(C)CCOC1=CC=C(NC(=S)NC2=CC=C(OCCC(C)C)C=C2)C=C1", 
	 "Tm": 419.15, 
	 "num_atms": 60, 
	 "gaussian": { 
		 "optdone": 1, 
		 "sigma_profile": "yes", 
		 "theory": "DFT", 
		 "functional": "B3LYP", 
		 "basiset": "6-31G**", 
		 "properties": { 
			 "R2extent": 21843.6311, 
			 "electric_dipole_moment_norm": 7.82118039301, 
			 "electric_quadrupole_moment_norm": 38.55893291, 
			 "total_energy": -1553.89578242, 
			 "HOMO_LUMO_gap": 0.17118, 
			 "cosmo_polarized_energy": -21.01, 
			 "cosmo_cavitation_energy": 62.96, 
			 "cosmo_dispersion_energy": -43.17, 
			 "cosmo_repulsion_energy": 3.3, 
			 "cosmo_total_nonelectrostatic_energy": 23.08, 
			 "SMD_solvation_energy": 9.76 
		},
		"coords": [
			{
				"x": -0.2023218996,
				"y": 2.1877624478,
				"z": -5.6000545351,
				"element": "C" 
			},
			{
				"x": 0.9769833715,
				"y": 1.2843479952,
				"z": -5.9923178681,
				"element": "C" 
			},
			{
				"x": 2.3074366233,
				"y": 2.0387509353,
				"z": -5.8452864002,
				"element": "C" 
			},
			{
				"x": 1.0233463555,
				"y": -0.0325985875,
				"z": -5.1902304684,
				"element": "C" 
			},
			{
				"x": -0.1249595615,
				"y": -1.0155189977,
				"z": -5.4475359333,
				"element": "C" 
			},
			{
				"x": -1.3815159515,
				"y": -0.6196340978,
				"z": -4.8916647801,
				"element": "O" 
			},
			{
				"x": -1.643119481,
				"y": -0.8502123394,
				"z": -3.5694222137,
				"element": "C" 
			},
			{
				"x": -0.7674397622,
				"y": -1.4571523006,
				"z": -2.6620374895,
				"element": "C" 
			},
			{
				"x": -1.1732697227,
				"y": -1.6597765308,
				"z": -1.3412754571,
				"element": "C" 
			},
			{
				"x": -2.4351944761,
				"y": -1.2550629248,
				"z": -0.8986177833,
				"element": "C" 
			},
			{
				"x": -2.7358626641,
				"y": -1.430568423,
				"z": 0.4766366126,
				"element": "N" 
			},
			{
				"x": -3.9164975054,
				"y": -1.7316106841,
				"z": 1.0880585431,
				"element": "C" 
			},
			{
				"x": -5.39108906,
				"y": -2.0257496671,
				"z": 0.3330473315,
				"element": "S" 
			},
			{
				"x": -3.84064024,
				"y": -1.8141558547,
				"z": 2.4604422094,
				"element": "N" 
			},
			{
				"x": -2.7250828505,
				"y": -1.5942685244,
				"z": 3.3141533157,
				"element": "C" 
			},
			{
				"x": -2.009286006,
				"y": -0.3909984143,
				"z": 3.2957290768,
				"element": "C" 
			},
			{
				"x": -0.9330580074,
				"y": -0.181595823,
				"z": 4.1614813838,
				"element": "C" 
			},
			{
				"x": -0.5804704549,
				"y": -1.1676474865,
				"z": 5.0922411205,
				"element": "C" 
			},
			{
				"x": 0.4255157748,
				"y": -1.0701908218,
				"z": 6.0052952195,
				"element": "O" 
			},
			{
				"x": 1.221865781,
				"y": 0.1183825751,
				"z": 6.075732979,
				"element": "C" 
			},
			{
				"x": 2.3569752575,
				"y": 0.1178033604,
				"z": 5.0497979569,
				"element": "C" 
			},
			{
				"x": 3.3540040558,
				"y": 1.2824713389,
				"z": 5.2149387607,
				"element": "C" 
			},
			{
				"x": 4.5704599294,
				"y": 1.0741742119,
				"z": 4.300653692,
				"element": "C" 
			},
			{
				"x": 2.709189309,
				"y": 2.6530732831,
				"z": 4.9509333037,
				"element": "C" 
			},
			{
				"x": -1.3111657533,
				"y": -2.3671283673,
				"z": 5.1279511275,
				"element": "C" 
			},
			{
				"x": -2.359052599,
				"y": -2.5813863528,
				"z": 4.2443084187,
				"element": "C" 
			},
			{
				"x": -3.3030191287,
				"y": -0.6287360731,
				"z": -1.8063531608,
				"element": "C" 
			},
			{
				"x": -2.9083448609,
				"y": -0.4389415469,
				"z": -3.1234177268,
				"element": "C" 
			},
			{
				"x": -0.1345782713,
				"y": 2.4756203143,
				"z": -4.5436047406,
				"element": "H" 
			},
			{
				"x": -1.162432114,
				"y": 1.6879779034,
				"z": -5.7434466619,
				"element": "H" 
			},
			{
				"x": -0.1978859241,
				"y": 3.1077535329,
				"z": -6.1951745375,
				"element": "H" 
			},
			{
				"x": 0.8604867395,
				"y": 1.0159643976,
				"z": -7.0538763972,
				"element": "H" 
			},
			{
				"x": 2.4835267423,
				"y": 2.3203891329,
				"z": -4.7997587403,
				"element": "H" 
			},
			{
				"x": 3.1568350808,
				"y": 1.4291220195,
				"z": -6.1734598827,
				"element": "H" 
			},
			{
				"x": 2.306186909,
				"y": 2.9593437628,
				"z": -6.4385888033,
				"element": "H" 
			},
			{
				"x": 1.0825525705,
				"y": 0.1913132147,
				"z": -4.117195828,
				"element": "H" 
			},
			{
				"x": 1.9525017848,
				"y": -0.5620581008,
				"z": -5.4443335064,
				"element": "H" 
			},
			{
				"x": 0.137160335,
				"y": -2.0193615964,
				"z": -5.0894865385,
				"element": "H" 
			},
			{
				"x": -0.3149400244,
				"y": -1.094632421,
				"z": -6.523093253,
				"element": "H" 
			},
			{
				"x": 0.2218729848,
				"y": -1.780996889,
				"z": -2.9608495115,
				"element": "H" 
			},
			{
				"x": -0.4914541436,
				"y": -2.1470189803,
				"z": -0.6481285612,
				"element": "H" 
			},
			{
				"x": -1.9206439544,
				"y": -1.4621780941,
				"z": 1.0772293739,
				"element": "H" 
			},
			{
				"x": -4.6922948208,
				"y": -2.1710451886,
				"z": 2.8714148762,
				"element": "H" 
			},
			{
				"x": -2.3030005532,
				"y": 0.3967255805,
				"z": 2.6091153353,
				"element": "H" 
			},
			{
				"x": -0.3962091901,
				"y": 0.7576292875,
				"z": 4.1094207561,
				"element": "H" 
			},
			{
				"x": 0.5817321976,
				"y": 1.0041307332,
				"z": 5.9919400371,
				"element": "H" 
			},
			{
				"x": 1.6357115736,
				"y": 0.1089141005,
				"z": 7.0890046663,
				"element": "H" 
			},
			{
				"x": 1.9436234429,
				"y": 0.1326935892,
				"z": 4.0329092492,
				"element": "H" 
			},
			{
				"x": 2.8895434166,
				"y": -0.8352811511,
				"z": 5.1541113043,
				"element": "H" 
			},
			{
				"x": 3.7118903698,
				"y": 1.2716009435,
				"z": 6.2557708135,
				"element": "H" 
			},
			{
				"x": 5.0689859078,
				"y": 0.1213955762,
				"z": 4.5082955944,
				"element": "H" 
			},
			{
				"x": 4.2709729037,
				"y": 1.0709818438,
				"z": 3.2455587397,
				"element": "H" 
			},
			{
				"x": 5.3058955245,
				"y": 1.8746029884,
				"z": 4.4337056492,
				"element": "H" 
			},
			{
				"x": 3.4449015518,
				"y": 3.4567475865,
				"z": 5.0602303543,
				"element": "H" 
			},
			{
				"x": 2.3123142369,
				"y": 2.7066691421,
				"z": 3.9294464475,
				"element": "H" 
			},
			{
				"x": 1.8874073184,
				"y": 2.8689441476,
				"z": 5.6412781259,
				"element": "H" 
			},
			{
				"x": -1.0288469511,
				"y": -3.1214180205,
				"z": 5.8548511258,
				"element": "H" 
			},
			{
				"x": -2.9051820826,
				"y": -3.5200296572,
				"z": 4.2674994461,
				"element": "H" 
			},
			{
				"x": -4.2827828917,
				"y": -0.3079904246,
				"z": -1.4795468756,
				"element": "H" 
			},
			{
				"x": -3.5762371418,
				"y": 0.0353583966,
				"z": -3.8349252918,
				"element": "H" 
			}
		],
		 "valence_orbital": [ 
			{
				"type": "occ",
				"energy": -0.25004,
				"method": "rhf"
			},
			{
				"type": "occ",
				"energy": -0.23734,
				"method": "rhf"
			},
			{
				"type": "occ",
				"energy": -0.20458,
				"method": "rhf"
			},
			{
				"type": "occ",
				"energy": -0.19715,
				"method": "rhf"
			},
			{
				"type": "occ",
				"energy": -0.19386,
				"method": "rhf"
			},
			{
				"type": "unocc",
				"energy": -0.02268,
				"method": "rhf"
			},
			{
				"type": "unocc",
				"energy": -0.02146,
				"method": "rhf"
			},
			{
				"type": "unocc",
				"energy": -0.00059,
				"method": "rhf"
			},
			{
				"type": "unocc",
				"energy": 0.00735,
				"method": "rhf"
			},
			{
				"type": "unocc",
				"energy": 0.03891,
				"method": "rhf"
			}
		],
		"cosmo_sigma_profile": { 
			"-0.025": 0.0,
			"-0.024": 0.0,
			"-0.023": 0.0,
			"-0.022": 0.0,
			"-0.021": 0.0,
			"-0.02": 0.0,
			"-0.019": 0.0,
			"-0.018": 0.0,
			"-0.017": 0.0,
			"-0.016": 0.0,
			"-0.015": 0.0306849109917,
			"-0.014": 0.624217674479,
			"-0.013": 1.16371499573,
			"-0.012": 1.8267541863,
			"-0.011": 2.14345775287,
			"-0.01": 1.73446568762,
			"-0.009": 2.72584971093,
			"-0.008": 2.58981999435,
			"-0.007": 7.52574235373,
			"-0.006": 16.6150535001,
			"-0.005": 24.061408637,
			"-0.004": 28.7872907259,
			"-0.003": 39.1003146489,
			"-0.002": 61.8050378563,
			"-0.001": 52.390592331,
			"0.0": 49.3143215854,
			"0.001": 49.021149236,
			"0.002": 39.9321764063,
			"0.003": 24.7827343461,
			"0.004": 25.0834694276,
			"0.005": 17.7594070315,
			"0.006": 7.63113601067,
			"0.007": 7.46927668454,
			"0.008": 7.10758567157,
			"0.009": 6.27551545123,
			"0.01": 7.17417291558,
			"0.011": 7.33773595634,
			"0.012": 4.11304460804,
			"0.013": 0.276797327008,
			"0.014": 0.0,
			"0.015": 0.0,
			"0.016": 0.0,
			"0.017": 0.0,
			"0.018": 0.0,
			"0.019": 0.0,
			"0.02": 0.0,
			"0.021": 0.0,
			"0.022": 0.0,
			"0.023": 0.0,
			"0.024": 0.0,
			"0.025": 0.0
		}
	}
}
