{
	 "smiles": "CCOC(=O)C1=C(CCCO)C=NC2=CC(C)=NN12", 
	 "Tm": 350.15, 
	 "num_atms": 36, 
	 "gaussian": { 
		 "optdone": 1, 
		 "sigma_profile": "yes", 
		 "theory": "DFT", 
		 "functional": "B3LYP", 
		 "basiset": "6-31G**", 
		 "properties": { 
			 "R2extent": 6587.1269, 
			 "electric_dipole_moment_norm": 2.85257737143, 
			 "electric_quadrupole_moment_norm": 9.26725486377, 
			 "total_energy": -895.534980623, 
			 "HOMO_LUMO_gap": 0.15744, 
			 "cosmo_polarized_energy": -15.39, 
			 "cosmo_cavitation_energy": 39.56, 
			 "cosmo_dispersion_energy": -27.2, 
			 "cosmo_repulsion_energy": 2.16, 
			 "cosmo_total_nonelectrostatic_energy": 14.51, 
			 "SMD_solvation_energy": 5.02 
		},
		"coords": [
			{
				"x": 1.6983279985,
				"y": -1.9734761034,
				"z": 1.1889728361,
				"element": "C" 
			},
			{
				"x": 1.7116677979,
				"y": -1.8577352851,
				"z": -0.3269897391,
				"element": "C" 
			},
			{
				"x": 0.5676778815,
				"y": -1.0953513119,
				"z": -0.7975475797,
				"element": "O" 
			},
			{
				"x": 0.6815452697,
				"y": 0.2350111186,
				"z": -0.7839431944,
				"element": "C" 
			},
			{
				"x": 1.6903954614,
				"y": 0.85481688,
				"z": -0.5148130411,
				"element": "O" 
			},
			{
				"x": -0.6019459541,
				"y": 0.8992986368,
				"z": -1.2080365402,
				"element": "C" 
			},
			{
				"x": -0.7032567215,
				"y": 1.7647459335,
				"z": -2.2776077986,
				"element": "C" 
			},
			{
				"x": 0.4623529923,
				"y": 2.15565103,
				"z": -3.1622054223,
				"element": "C" 
			},
			{
				"x": 0.8984843692,
				"y": 3.6281773835,
				"z": -3.0123902633,
				"element": "C" 
			},
			{
				"x": 1.5080355059,
				"y": 3.964739674,
				"z": -1.6563381499,
				"element": "C" 
			},
			{
				"x": 1.8620946599,
				"y": 5.3438921774,
				"z": -1.6907374071,
				"element": "O" 
			},
			{
				"x": -2.0040673682,
				"y": 2.2851104313,
				"z": -2.5695115832,
				"element": "C" 
			},
			{
				"x": -3.0981509956,
				"y": 2.0260271111,
				"z": -1.8873961399,
				"element": "N" 
			},
			{
				"x": -2.9723098573,
				"y": 1.2097684158,
				"z": -0.8216073325,
				"element": "C" 
			},
			{
				"x": -3.8646975676,
				"y": 0.7493999888,
				"z": 0.1430351193,
				"element": "C" 
			},
			{
				"x": -3.1003432234,
				"y": -0.0569571383,
				"z": 1.0005460125,
				"element": "C" 
			},
			{
				"x": -3.5585704517,
				"y": -0.7967345676,
				"z": 2.2206304679,
				"element": "C" 
			},
			{
				"x": -1.8054110924,
				"y": -0.1271336613,
				"z": 0.6290467014,
				"element": "N" 
			},
			{
				"x": -1.7328543128,
				"y": 0.6356766755,
				"z": -0.4806499117,
				"element": "N" 
			},
			{
				"x": 0.7457681637,
				"y": -2.3825013197,
				"z": 1.5347279801,
				"element": "H" 
			},
			{
				"x": 1.8474271697,
				"y": -0.9955081464,
				"z": 1.6526283343,
				"element": "H" 
			},
			{
				"x": 2.5064943275,
				"y": -2.6368455593,
				"z": 1.5144726069,
				"element": "H" 
			},
			{
				"x": 1.5947854527,
				"y": -2.830580992,
				"z": -0.8086750707,
				"element": "H" 
			},
			{
				"x": 2.6253782947,
				"y": -1.3793088622,
				"z": -0.6874207461,
				"element": "H" 
			},
			{
				"x": 0.1679142224,
				"y": 1.9898036069,
				"z": -4.205922985,
				"element": "H" 
			},
			{
				"x": 1.3191025803,
				"y": 1.5040737072,
				"z": -2.9723143396,
				"element": "H" 
			},
			{
				"x": 0.0461215966,
				"y": 4.2964038859,
				"z": -3.1855542567,
				"element": "H" 
			},
			{
				"x": 1.6369149944,
				"y": 3.8589227497,
				"z": -3.7888962807,
				"element": "H" 
			},
			{
				"x": 2.3823786921,
				"y": 3.3242971405,
				"z": -1.4694699262,
				"element": "H" 
			},
			{
				"x": 0.7844813311,
				"y": 3.7563959682,
				"z": -0.8534396514,
				"element": "H" 
			},
			{
				"x": 2.2544837507,
				"y": 5.5702502738,
				"z": -0.8388045892,
				"element": "H" 
			},
			{
				"x": -2.1154734675,
				"y": 2.9444818509,
				"z": -3.4294581022,
				"element": "H" 
			},
			{
				"x": -4.9153901464,
				"y": 0.9854406351,
				"z": 0.2055463246,
				"element": "H" 
			},
			{
				"x": -4.6294107139,
				"y": -0.6534289972,
				"z": 2.3817293197,
				"element": "H" 
			},
			{
				"x": -3.3643704895,
				"y": -1.8697567404,
				"z": 2.1229207404,
				"element": "H" 
			},
			{
				"x": -3.0261801502,
				"y": -0.4487665898,
				"z": 3.1119736076,
				"element": "H" 
			}
		],
		 "valence_orbital": [ 
			{
				"type": "occ",
				"energy": -0.29213,
				"method": "rhf"
			},
			{
				"type": "occ",
				"energy": -0.26289,
				"method": "rhf"
			},
			{
				"type": "occ",
				"energy": -0.25867,
				"method": "rhf"
			},
			{
				"type": "occ",
				"energy": -0.24606,
				"method": "rhf"
			},
			{
				"type": "occ",
				"energy": -0.22114,
				"method": "rhf"
			},
			{
				"type": "unocc",
				"energy": -0.0637,
				"method": "rhf"
			},
			{
				"type": "unocc",
				"energy": -0.01276,
				"method": "rhf"
			},
			{
				"type": "unocc",
				"energy": 0.00249,
				"method": "rhf"
			},
			{
				"type": "unocc",
				"energy": 0.06361,
				"method": "rhf"
			},
			{
				"type": "unocc",
				"energy": 0.08329,
				"method": "rhf"
			}
		],
		"cosmo_sigma_profile": { 
			"-0.025": 0.0,
			"-0.024": 0.0,
			"-0.023": 0.0,
			"-0.022": 0.0,
			"-0.021": 0.0,
			"-0.02": 0.0,
			"-0.019": 0.0,
			"-0.018": 0.0,
			"-0.017": 0.0,
			"-0.016": 0.205958619552,
			"-0.015": 1.0741824744,
			"-0.014": 1.03650778591,
			"-0.013": 0.73343826563,
			"-0.012": 1.06530683703,
			"-0.011": 0.764327012908,
			"-0.01": 0.805067508132,
			"-0.009": 1.010982916,
			"-0.008": 0.919079410639,
			"-0.007": 5.10080274686,
			"-0.006": 11.1147154934,
			"-0.005": 20.4914185223,
			"-0.004": 28.4606147616,
			"-0.003": 33.5201943502,
			"-0.002": 37.541229371,
			"-0.001": 33.4565570522,
			"0.0": 23.6672108443,
			"0.001": 15.2280101039,
			"0.002": 13.5409592947,
			"0.003": 13.6058642139,
			"0.004": 12.2097324548,
			"0.005": 7.90281400898,
			"0.006": 7.1521964757,
			"0.007": 8.10988008949,
			"0.008": 6.37300670819,
			"0.009": 5.75026279003,
			"0.01": 6.46961716742,
			"0.011": 5.38406480541,
			"0.012": 2.38234955517,
			"0.013": 2.31605496442,
			"0.014": 3.16143240895,
			"0.015": 1.25751196887,
			"0.016": 0.0,
			"0.017": 0.0,
			"0.018": 0.0,
			"0.019": 0.0,
			"0.02": 0.0,
			"0.021": 0.0,
			"0.022": 0.0,
			"0.023": 0.0,
			"0.024": 0.0,
			"0.025": 0.0
		}
	}
}
