{
	 "smiles": "CN1N=C(C=C1CN)C1=CC=CC=C1", 
	 "Tm": 321.65, 
	 "num_atms": 27, 
	 "gaussian": { 
		 "optdone": 1, 
		 "sigma_profile": "yes", 
		 "theory": "DFT", 
		 "functional": "B3LYP", 
		 "basiset": "6-31G**", 
		 "properties": { 
			 "R2extent": 4299.0641, 
			 "electric_dipole_moment_norm": 1.65379399261, 
			 "electric_quadrupole_moment_norm": 7.70618588084, 
			 "total_energy": -591.244021441, 
			 "HOMO_LUMO_gap": 0.19385, 
			 "cosmo_polarized_energy": -13.15, 
			 "cosmo_cavitation_energy": 30.46, 
			 "cosmo_dispersion_energy": -22.17, 
			 "cosmo_repulsion_energy": 1.74, 
			 "cosmo_total_nonelectrostatic_energy": 10.03, 
			 "SMD_solvation_energy": 2.68 
		},
		"coords": [
			{
				"x": -0.9139125267,
				"y": 0.9741643202,
				"z": -3.2211246325,
				"element": "C" 
			},
			{
				"x": 0.0341186921,
				"y": 0.2386817358,
				"z": -2.407408198,
				"element": "N" 
			},
			{
				"x": 0.0349112525,
				"y": 0.4367852021,
				"z": -1.0719970365,
				"element": "N" 
			},
			{
				"x": 1.0412947061,
				"y": -0.3109986371,
				"z": -0.6002795518,
				"element": "C" 
			},
			{
				"x": 1.6952743457,
				"y": -0.987135832,
				"z": -1.6624576479,
				"element": "C" 
			},
			{
				"x": 1.0271475858,
				"y": -0.6114714865,
				"z": -2.8143716328,
				"element": "C" 
			},
			{
				"x": 1.2937031369,
				"y": -0.9637464746,
				"z": -4.2533510836,
				"element": "C" 
			},
			{
				"x": 1.9576199039,
				"y": 0.0635068862,
				"z": -5.0722260906,
				"element": "N" 
			},
			{
				"x": 1.3314407482,
				"y": -0.3543102548,
				"z": 0.84290169,
				"element": "C" 
			},
			{
				"x": 2.3961616711,
				"y": -1.1184372753,
				"z": 1.3460327603,
				"element": "C" 
			},
			{
				"x": 2.6657272712,
				"y": -1.1537865625,
				"z": 2.7137051154,
				"element": "C" 
			},
			{
				"x": 1.8765576968,
				"y": -0.4255380569,
				"z": 3.6052758135,
				"element": "C" 
			},
			{
				"x": 0.8142600479,
				"y": 0.3389302379,
				"z": 3.1150119029,
				"element": "C" 
			},
			{
				"x": 0.5432383772,
				"y": 0.3751961942,
				"z": 1.7497827162,
				"element": "C" 
			},
			{
				"x": -0.4853595802,
				"y": 1.9137130898,
				"z": -3.5902082107,
				"element": "H" 
			},
			{
				"x": -1.7792085794,
				"y": 1.2037997152,
				"z": -2.5993183097,
				"element": "H" 
			},
			{
				"x": -1.2329965409,
				"y": 0.3677477859,
				"z": -4.0721923727,
				"element": "H" 
			},
			{
				"x": 2.5292158053,
				"y": -1.6713516081,
				"z": -1.6085616523,
				"element": "H" 
			},
			{
				"x": 0.3610596476,
				"y": -1.2401407816,
				"z": -4.7601062891,
				"element": "H" 
			},
			{
				"x": 1.9209621407,
				"y": -1.8605167486,
				"z": -4.2654503122,
				"element": "H" 
			},
			{
				"x": 1.3688697098,
				"y": 0.8903697382,
				"z": -5.1418302173,
				"element": "H" 
			},
			{
				"x": 2.8093546492,
				"y": 0.3655397221,
				"z": -4.6038813159,
				"element": "H" 
			},
			{
				"x": 3.020540034,
				"y": -1.6897133162,
				"z": 0.6655351721,
				"element": "H" 
			},
			{
				"x": 3.4946054895,
				"y": -1.7517627461,
				"z": 3.0824053953,
				"element": "H" 
			},
			{
				"x": 2.0864387425,
				"y": -0.4530648237,
				"z": 4.670699376,
				"element": "H" 
			},
			{
				"x": 0.1935765245,
				"y": 0.9093719168,
				"z": 3.8006749066,
				"element": "H" 
			},
			{
				"x": -0.2807009513,
				"y": 0.9665680596,
				"z": 1.3652397053,
				"element": "H" 
			}
		],
		 "valence_orbital": [ 
			{
				"type": "occ",
				"energy": -0.27835,
				"method": "rhf"
			},
			{
				"type": "occ",
				"energy": -0.25656,
				"method": "rhf"
			},
			{
				"type": "occ",
				"energy": -0.24193,
				"method": "rhf"
			},
			{
				"type": "occ",
				"energy": -0.23336,
				"method": "rhf"
			},
			{
				"type": "occ",
				"energy": -0.20916,
				"method": "rhf"
			},
			{
				"type": "unocc",
				"energy": -0.01531,
				"method": "rhf"
			},
			{
				"type": "unocc",
				"energy": 0.00711,
				"method": "rhf"
			},
			{
				"type": "unocc",
				"energy": 0.02477,
				"method": "rhf"
			},
			{
				"type": "unocc",
				"energy": 0.06793,
				"method": "rhf"
			},
			{
				"type": "unocc",
				"energy": 0.09306,
				"method": "rhf"
			}
		],
		"cosmo_sigma_profile": { 
			"-0.025": 0.0,
			"-0.024": 0.0,
			"-0.023": 0.0,
			"-0.022": 0.0,
			"-0.021": 0.0,
			"-0.02": 0.0,
			"-0.019": 0.0,
			"-0.018": 0.0,
			"-0.017": 0.0,
			"-0.016": 0.0,
			"-0.015": 0.0,
			"-0.014": 0.0,
			"-0.013": 0.0,
			"-0.012": 0.0,
			"-0.011": 0.0,
			"-0.01": 0.781061503681,
			"-0.009": 2.8301631314,
			"-0.008": 5.12542550062,
			"-0.007": 10.0989987792,
			"-0.006": 14.2963480047,
			"-0.005": 20.0280767115,
			"-0.004": 23.721569472,
			"-0.003": 22.9153080739,
			"-0.002": 15.0513406778,
			"-0.001": 12.4219764204,
			"0.0": 10.3758054826,
			"0.001": 9.67409583012,
			"0.002": 10.8564393858,
			"0.003": 13.1288791201,
			"0.004": 18.2628263835,
			"0.005": 18.7791860585,
			"0.006": 13.8434112252,
			"0.007": 3.16332534392,
			"0.008": 2.70624694111,
			"0.009": 2.05905277432,
			"0.01": 1.81687714122,
			"0.011": 2.01497942993,
			"0.012": 2.59144290579,
			"0.013": 1.3229521939,
			"0.014": 0.517285074488,
			"0.015": 0.84529029369,
			"0.016": 0.519866060882,
			"0.017": 0.571005649304,
			"0.018": 0.823666618086,
			"0.019": 0.487030950636,
			"0.02": 0.0426314106856,
			"0.021": 0.0,
			"0.022": 0.0,
			"0.023": 0.0,
			"0.024": 0.0,
			"0.025": 0.0
		}
	}
}
