{
	 "smiles": "NNC(=O)C1CCN(CC1)C1=NC=CC=N1", 
	 "Tm": 511.15, 
	 "num_atms": 31, 
	 "gaussian": { 
		 "optdone": 1, 
		 "sigma_profile": "yes", 
		 "theory": "DFT", 
		 "functional": "B3LYP", 
		 "basiset": "6-31G**", 
		 "properties": { 
			 "R2extent": 5352.6397, 
			 "electric_dipole_moment_norm": 1.95526031771, 
			 "electric_quadrupole_moment_norm": 6.69717377705, 
			 "total_energy": -739.073642402, 
			 "HOMO_LUMO_gap": 0.18014, 
			 "cosmo_polarized_energy": -16.34, 
			 "cosmo_cavitation_energy": 33.5, 
			 "cosmo_dispersion_energy": -24.46, 
			 "cosmo_repulsion_energy": 1.93, 
			 "cosmo_total_nonelectrostatic_energy": 10.97, 
			 "SMD_solvation_energy": 3.85 
		},
		"coords": [
			{
				"x": 3.8267298251,
				"y": -4.3783439894,
				"z": -1.3248593216,
				"element": "N" 
			},
			{
				"x": 2.9070410151,
				"y": -3.3172996138,
				"z": -1.2156773751,
				"element": "N" 
			},
			{
				"x": 3.0277948101,
				"y": -2.3490680879,
				"z": -0.2579983043,
				"element": "C" 
			},
			{
				"x": 3.9995168148,
				"y": -2.3024037651,
				"z": 0.4895704932,
				"element": "O" 
			},
			{
				"x": 1.861311469,
				"y": -1.3680644536,
				"z": -0.1686225472,
				"element": "C" 
			},
			{
				"x": 2.3731011197,
				"y": 0.0963585487,
				"z": -0.1000905395,
				"element": "C" 
			},
			{
				"x": 1.5384280681,
				"y": 0.957992935,
				"z": 0.8640045545,
				"element": "C" 
			},
			{
				"x": 0.123169185,
				"y": 0.6004826467,
				"z": 0.8045522624,
				"element": "N" 
			},
			{
				"x": -0.2320853619,
				"y": -0.7843044892,
				"z": 1.1287829258,
				"element": "C" 
			},
			{
				"x": 1.0088281556,
				"y": -1.6857989386,
				"z": 1.0777585567,
				"element": "C" 
			},
			{
				"x": -0.8605211337,
				"y": 1.5228349787,
				"z": 0.5891172976,
				"element": "C" 
			},
			{
				"x": -0.4892226411,
				"y": 2.7983236769,
				"z": 0.3243453805,
				"element": "N" 
			},
			{
				"x": -1.4753645162,
				"y": 3.6638291165,
				"z": 0.1055039664,
				"element": "C" 
			},
			{
				"x": -2.8257118858,
				"y": 3.3123725628,
				"z": 0.1388076099,
				"element": "C" 
			},
			{
				"x": -3.0898353854,
				"y": 1.9741069607,
				"z": 0.4244150722,
				"element": "C" 
			},
			{
				"x": -2.1363825885,
				"y": 1.0720673821,
				"z": 0.6542932174,
				"element": "N" 
			},
			{
				"x": 4.0401470593,
				"y": -4.6855687341,
				"z": -0.3753449124,
				"element": "H" 
			},
			{
				"x": 4.7005291666,
				"y": -3.9892298121,
				"z": -1.6791103438,
				"element": "H" 
			},
			{
				"x": 2.0555733693,
				"y": -3.4307548233,
				"z": -1.7448158402,
				"element": "H" 
			},
			{
				"x": 1.2185201033,
				"y": -1.4861123094,
				"z": -1.051436014,
				"element": "H" 
			},
			{
				"x": 2.3541183006,
				"y": 0.5352192508,
				"z": -1.1030164915,
				"element": "H" 
			},
			{
				"x": 3.4118228965,
				"y": 0.0934614188,
				"z": 0.2439936247,
				"element": "H" 
			},
			{
				"x": 1.6255679613,
				"y": 2.0153187652,
				"z": 0.621366331,
				"element": "H" 
			},
			{
				"x": 1.9006585173,
				"y": 0.8260352051,
				"z": 1.8932780568,
				"element": "H" 
			},
			{
				"x": -0.7092383005,
				"y": -0.8419797992,
				"z": 2.1173627161,
				"element": "H" 
			},
			{
				"x": -0.9800659046,
				"y": -1.128955414,
				"z": 0.4076653246,
				"element": "H" 
			},
			{
				"x": 0.6782820366,
				"y": -2.7302992526,
				"z": 1.0688220856,
				"element": "H" 
			},
			{
				"x": 1.6316330853,
				"y": -1.5628188338,
				"z": 1.9700088036,
				"element": "H" 
			},
			{
				"x": -1.1708861868,
				"y": 4.688661522,
				"z": -0.1064882003,
				"element": "H" 
			},
			{
				"x": -3.6148245832,
				"y": 4.03272882,
				"z": -0.0398478153,
				"element": "H" 
			},
			{
				"x": -4.1145344707,
				"y": 1.6062085262,
				"z": 0.4756594261,
				"element": "H" 
			}
		],
		 "valence_orbital": [ 
			{
				"type": "occ",
				"energy": -0.28498,
				"method": "rhf"
			},
			{
				"type": "occ",
				"energy": -0.25945,
				"method": "rhf"
			},
			{
				"type": "occ",
				"energy": -0.2534,
				"method": "rhf"
			},
			{
				"type": "occ",
				"energy": -0.23748,
				"method": "rhf"
			},
			{
				"type": "occ",
				"energy": -0.20657,
				"method": "rhf"
			},
			{
				"type": "unocc",
				"energy": -0.02643,
				"method": "rhf"
			},
			{
				"type": "unocc",
				"energy": 0.00662,
				"method": "rhf"
			},
			{
				"type": "unocc",
				"energy": 0.02273,
				"method": "rhf"
			},
			{
				"type": "unocc",
				"energy": 0.06874,
				"method": "rhf"
			},
			{
				"type": "unocc",
				"energy": 0.08634,
				"method": "rhf"
			}
		],
		"cosmo_sigma_profile": { 
			"-0.025": 0.0,
			"-0.024": 0.0,
			"-0.023": 0.0,
			"-0.022": 0.0,
			"-0.021": 0.0,
			"-0.02": 0.0,
			"-0.019": 0.0,
			"-0.018": 0.0,
			"-0.017": 0.0,
			"-0.016": 0.0,
			"-0.015": 0.195752007668,
			"-0.014": 0.972221135202,
			"-0.013": 1.26085287037,
			"-0.012": 1.28551329104,
			"-0.011": 2.61688524285,
			"-0.01": 3.49717540368,
			"-0.009": 4.09824864276,
			"-0.008": 3.46239372305,
			"-0.007": 6.19945159191,
			"-0.006": 10.1732068585,
			"-0.005": 12.3237151677,
			"-0.004": 23.9291924588,
			"-0.003": 27.0704277081,
			"-0.002": 24.8449561818,
			"-0.001": 19.3383764158,
			"0.0": 17.6720095805,
			"0.001": 17.017985769,
			"0.002": 18.2158732216,
			"0.003": 11.285890588,
			"0.004": 8.3228214999,
			"0.005": 5.87654118174,
			"0.006": 4.905376152,
			"0.007": 5.68957144044,
			"0.008": 5.17120278664,
			"0.009": 4.25324453957,
			"0.01": 3.86397574667,
			"0.011": 4.21921020686,
			"0.012": 3.58659851885,
			"0.013": 4.11723304807,
			"0.014": 5.7319367338,
			"0.015": 0.977035965665,
			"0.016": 0.625161771557,
			"0.017": 0.234433150898,
			"0.018": 0.0,
			"0.019": 0.0,
			"0.02": 0.0,
			"0.021": 0.0,
			"0.022": 0.0,
			"0.023": 0.0,
			"0.024": 0.0,
			"0.025": 0.0
		}
	}
}
