{
	 "smiles": "OC(CC1COCCN1)C1=CC=CC=C1", 
	 "Tm": 348.15, 
	 "num_atms": 32, 
	 "gaussian": { 
		 "optdone": 1, 
		 "sigma_profile": "yes", 
		 "theory": "DFT", 
		 "functional": "B3LYP", 
		 "basiset": "6-31G**", 
		 "properties": { 
			 "R2extent": 4705.5965, 
			 "electric_dipole_moment_norm": 1.41860459255, 
			 "electric_quadrupole_moment_norm": 11.7564245768, 
			 "total_energy": -672.693971043, 
			 "HOMO_LUMO_gap": 0.22686, 
			 "cosmo_polarized_energy": -13.47, 
			 "cosmo_cavitation_energy": 32.99, 
			 "cosmo_dispersion_energy": -23.86, 
			 "cosmo_repulsion_energy": 1.86, 
			 "cosmo_total_nonelectrostatic_energy": 10.99, 
			 "SMD_solvation_energy": 2.87 
		},
		"coords": [
			{
				"x": 0.9353496358,
				"y": 1.6551603321,
				"z": 0.1424652369,
				"element": "O" 
			},
			{
				"x": 0.7689299588,
				"y": 0.680129411,
				"z": -0.8862547645,
				"element": "C" 
			},
			{
				"x": -0.2036142018,
				"y": -0.4358369761,
				"z": -0.4591185914,
				"element": "C" 
			},
			{
				"x": -1.6475697989,
				"y": 0.0357160118,
				"z": -0.1641612503,
				"element": "C" 
			},
			{
				"x": -2.5425070367,
				"y": -1.1489645494,
				"z": 0.2334585805,
				"element": "C" 
			},
			{
				"x": -2.801052561,
				"y": -1.9997294853,
				"z": -0.8762152375,
				"element": "O" 
			},
			{
				"x": -3.4854983574,
				"y": -1.2953712809,
				"z": -1.9072602275,
				"element": "C" 
			},
			{
				"x": -2.6524100327,
				"y": -0.1157405248,
				"z": -2.4021386209,
				"element": "C" 
			},
			{
				"x": -2.3371271832,
				"y": 0.7429987975,
				"z": -1.2563373481,
				"element": "N" 
			},
			{
				"x": 2.1358576734,
				"y": 0.114269702,
				"z": -1.2255491263,
				"element": "C" 
			},
			{
				"x": 2.3652729105,
				"y": -0.4478645352,
				"z": -2.4874801603,
				"element": "C" 
			},
			{
				"x": 3.5997783577,
				"y": -1.0166660174,
				"z": -2.8005362564,
				"element": "C" 
			},
			{
				"x": 4.6263098207,
				"y": -1.0231621982,
				"z": -1.8537355955,
				"element": "C" 
			},
			{
				"x": 4.407272005,
				"y": -0.4571602963,
				"z": -0.5967760905,
				"element": "C" 
			},
			{
				"x": 3.1696142116,
				"y": 0.1072458961,
				"z": -0.2825155191,
				"element": "C" 
			},
			{
				"x": 0.0615196582,
				"y": 1.9413303236,
				"z": 0.4346499171,
				"element": "H" 
			},
			{
				"x": 0.3711637716,
				"y": 1.1621566663,
				"z": -1.796529909,
				"element": "H" 
			},
			{
				"x": -0.225087896,
				"y": -1.2095743731,
				"z": -1.2329646772,
				"element": "H" 
			},
			{
				"x": 0.2055253077,
				"y": -0.9080983199,
				"z": 0.4429803192,
				"element": "H" 
			},
			{
				"x": -1.6291408945,
				"y": 0.7175875067,
				"z": 0.7001104646,
				"element": "H" 
			},
			{
				"x": -3.4898037656,
				"y": -0.7618688186,
				"z": 0.6407361611,
				"element": "H" 
			},
			{
				"x": -2.0565420218,
				"y": -1.7676005155,
				"z": 0.9934114386,
				"element": "H" 
			},
			{
				"x": -4.4551440564,
				"y": -0.9287149396,
				"z": -1.5332809318,
				"element": "H" 
			},
			{
				"x": -3.6653516339,
				"y": -2.0147327856,
				"z": -2.7113649425,
				"element": "H" 
			},
			{
				"x": -1.7631710959,
				"y": -0.5063574948,
				"z": -2.9267946214,
				"element": "H" 
			},
			{
				"x": -3.2321913711,
				"y": 0.4670142091,
				"z": -3.1274054092,
				"element": "H" 
			},
			{
				"x": -1.8117882836,
				"y": 1.5580921078,
				"z": -1.5574156136,
				"element": "H" 
			},
			{
				"x": 1.5731271154,
				"y": -0.436707527,
				"z": -3.2333651833,
				"element": "H" 
			},
			{
				"x": 3.7622732769,
				"y": -1.4470449204,
				"z": -3.7848189152,
				"element": "H" 
			},
			{
				"x": 5.59054802,
				"y": -1.4605816869,
				"z": -2.0966438229,
				"element": "H" 
			},
			{
				"x": 5.2034209824,
				"y": -0.4519567313,
				"z": 0.1427696136,
				"element": "H" 
			},
			{
				"x": 2.9985374851,
				"y": 0.5589330122,
				"z": 0.6881810827,
				"element": "H" 
			}
		],
		 "valence_orbital": [ 
			{
				"type": "occ",
				"energy": -0.27516,
				"method": "rhf"
			},
			{
				"type": "occ",
				"energy": -0.25712,
				"method": "rhf"
			},
			{
				"type": "occ",
				"energy": -0.24362,
				"method": "rhf"
			},
			{
				"type": "occ",
				"energy": -0.23926,
				"method": "rhf"
			},
			{
				"type": "occ",
				"energy": -0.22426,
				"method": "rhf"
			},
			{
				"type": "unocc",
				"energy": 0.0026,
				"method": "rhf"
			},
			{
				"type": "unocc",
				"energy": 0.00572,
				"method": "rhf"
			},
			{
				"type": "unocc",
				"energy": 0.04707,
				"method": "rhf"
			},
			{
				"type": "unocc",
				"energy": 0.08233,
				"method": "rhf"
			},
			{
				"type": "unocc",
				"energy": 0.10007,
				"method": "rhf"
			}
		],
		"cosmo_sigma_profile": { 
			"-0.025": 0.0,
			"-0.024": 0.0,
			"-0.023": 0.0,
			"-0.022": 0.0,
			"-0.021": 0.0,
			"-0.02": 0.0,
			"-0.019": 0.0,
			"-0.018": 0.0,
			"-0.017": 0.0,
			"-0.016": 0.0,
			"-0.015": 0.333752314371,
			"-0.014": 1.3370336859,
			"-0.013": 1.4867769121,
			"-0.012": 1.56592378117,
			"-0.011": 1.7203706603,
			"-0.01": 2.02824645327,
			"-0.009": 1.72177555463,
			"-0.008": 2.19695373078,
			"-0.007": 2.30606737425,
			"-0.006": 4.43636750985,
			"-0.005": 15.2655241162,
			"-0.004": 26.8773812092,
			"-0.003": 35.6928044057,
			"-0.002": 27.0170097304,
			"-0.001": 21.279772476,
			"0.0": 12.3951932568,
			"0.001": 12.6652112485,
			"0.002": 11.7402351936,
			"0.003": 10.8064482071,
			"0.004": 11.0816949916,
			"0.005": 12.3410152251,
			"0.006": 12.8859173487,
			"0.007": 6.50560218213,
			"0.008": 3.71745566009,
			"0.009": 2.93697580224,
			"0.01": 3.35205243233,
			"0.011": 2.4731345197,
			"0.012": 3.22814058021,
			"0.013": 3.00545412559,
			"0.014": 1.67682199172,
			"0.015": 0.775372277641,
			"0.016": 0.256728800712,
			"0.017": 0.455913530103,
			"0.018": 0.0628491981691,
			"0.019": 0.0,
			"0.02": 0.0,
			"0.021": 0.0,
			"0.022": 0.0,
			"0.023": 0.0,
			"0.024": 0.0,
			"0.025": 0.0
		}
	}
}
