{
	 "smiles": "COC(=O)C1=CC2=C(N1)C=C(Cl)C=C2", 
	 "Tm": 455.15, 
	 "num_atms": 22, 
	 "gaussian": { 
		 "optdone": 1, 
		 "sigma_profile": "yes", 
		 "theory": "DFT", 
		 "functional": "B3LYP", 
		 "basiset": "6-31G**", 
		 "properties": { 
			 "R2extent": 5097.803, 
			 "electric_dipole_moment_norm": 2.65197787698, 
			 "electric_quadrupole_moment_norm": 3.05013685922, 
			 "total_energy": -1051.29718448, 
			 "HOMO_LUMO_gap": 0.16443, 
			 "cosmo_polarized_energy": -9.73, 
			 "cosmo_cavitation_energy": 28.9, 
			 "cosmo_dispersion_energy": -21.54, 
			 "cosmo_repulsion_energy": 1.69, 
			 "cosmo_total_nonelectrostatic_energy": 9.05, 
			 "SMD_solvation_energy": 5.85 
		},
		"coords": [
			{
				"x": 3.2897208655,
				"y": 0.6394586155,
				"z": -2.8828180669,
				"element": "C" 
			},
			{
				"x": 2.1726000246,
				"y": 0.3130193797,
				"z": -2.0400532013,
				"element": "O" 
			},
			{
				"x": 2.3219450383,
				"y": 0.637752504,
				"z": -0.7407603766,
				"element": "C" 
			},
			{
				"x": 3.3159536375,
				"y": 1.1705150248,
				"z": -0.2748978054,
				"element": "O" 
			},
			{
				"x": 1.1517376488,
				"y": 0.2810378153,
				"z": 0.0648037352,
				"element": "C" 
			},
			{
				"x": -0.0523701834,
				"y": -0.3134669944,
				"z": -0.2469972986,
				"element": "C" 
			},
			{
				"x": -0.7983315866,
				"y": -0.4007090779,
				"z": 0.9682784459,
				"element": "C" 
			},
			{
				"x": 0.0146044171,
				"y": 0.1641913793,
				"z": 1.9980161813,
				"element": "C" 
			},
			{
				"x": 1.188431606,
				"y": 0.5675213099,
				"z": 1.4189213167,
				"element": "N" 
			},
			{
				"x": -0.4094126425,
				"y": 0.2430065593,
				"z": 3.3317125299,
				"element": "C" 
			},
			{
				"x": -1.6706313954,
				"y": -0.2590628099,
				"z": 3.6090894334,
				"element": "C" 
			},
			{
				"x": -2.2653554959,
				"y": -0.1914913001,
				"z": 5.2642852656,
				"element": "Cl" 
			},
			{
				"x": -2.5047103816,
				"y": -0.8252384806,
				"z": 2.6196802138,
				"element": "C" 
			},
			{
				"x": -2.0725469531,
				"y": -0.8965228847,
				"z": 1.305937957,
				"element": "C" 
			},
			{
				"x": 3.4816190524,
				"y": 1.7152792309,
				"z": -2.8681002614,
				"element": "H" 
			},
			{
				"x": 3.0057474401,
				"y": 0.3145769655,
				"z": -3.8833632239,
				"element": "H" 
			},
			{
				"x": 4.189285572,
				"y": 0.1158410368,
				"z": -2.5495957949,
				"element": "H" 
			},
			{
				"x": -0.3528271978,
				"y": -0.6425701432,
				"z": -1.2305685897,
				"element": "H" 
			},
			{
				"x": 1.9837030728,
				"y": 1.0068613345,
				"z": 1.8579094502,
				"element": "H" 
			},
			{
				"x": 0.2092476802,
				"y": 0.672154567,
				"z": 4.1115638796,
				"element": "H" 
			},
			{
				"x": -3.4810881199,
				"y": -1.1999994117,
				"z": 2.9041566765,
				"element": "H" 
			},
			{
				"x": -2.7135220993,
				"y": -1.33175462,
				"z": 0.5449995336,
				"element": "H" 
			}
		],
		 "valence_orbital": [ 
			{
				"type": "occ",
				"energy": -0.30883,
				"method": "rhf"
			},
			{
				"type": "occ",
				"energy": -0.28738,
				"method": "rhf"
			},
			{
				"type": "occ",
				"energy": -0.28613,
				"method": "rhf"
			},
			{
				"type": "occ",
				"energy": -0.23574,
				"method": "rhf"
			},
			{
				"type": "occ",
				"energy": -0.21931,
				"method": "rhf"
			},
			{
				"type": "unocc",
				"energy": -0.05488,
				"method": "rhf"
			},
			{
				"type": "unocc",
				"energy": 0.00462,
				"method": "rhf"
			},
			{
				"type": "unocc",
				"energy": 0.01703,
				"method": "rhf"
			},
			{
				"type": "unocc",
				"energy": 0.03061,
				"method": "rhf"
			},
			{
				"type": "unocc",
				"energy": 0.09011,
				"method": "rhf"
			}
		],
		"cosmo_sigma_profile": { 
			"-0.025": 0.0,
			"-0.024": 0.0,
			"-0.023": 0.0,
			"-0.022": 0.0,
			"-0.021": 0.0,
			"-0.02": 0.0,
			"-0.019": 0.0,
			"-0.018": 0.0,
			"-0.017": 0.0,
			"-0.016": 0.132618602041,
			"-0.015": 1.36615506311,
			"-0.014": 0.584537463842,
			"-0.013": 1.09532378539,
			"-0.012": 1.14315994872,
			"-0.011": 0.898991780542,
			"-0.01": 0.9332728175,
			"-0.009": 1.28347059385,
			"-0.008": 2.81252214825,
			"-0.007": 5.75539426458,
			"-0.006": 12.9705040493,
			"-0.005": 14.2340413412,
			"-0.004": 16.0938000639,
			"-0.003": 15.5946297149,
			"-0.002": 12.7507925942,
			"-0.001": 14.3851681364,
			"0.0": 13.5334945328,
			"0.001": 14.6866568932,
			"0.002": 26.0987003362,
			"0.003": 24.8525447487,
			"0.004": 23.9056994904,
			"0.005": 11.4598038899,
			"0.006": 3.54937182586,
			"0.007": 3.0970442648,
			"0.008": 1.41526994373,
			"0.009": 0.960002257829,
			"0.01": 2.28947690214,
			"0.011": 3.16101894791,
			"0.012": 2.91440418913,
			"0.013": 0.105713098706,
			"0.014": 0.0,
			"0.015": 0.0,
			"0.016": 0.0,
			"0.017": 0.0,
			"0.018": 0.0,
			"0.019": 0.0,
			"0.02": 0.0,
			"0.021": 0.0,
			"0.022": 0.0,
			"0.023": 0.0,
			"0.024": 0.0,
			"0.025": 0.0
		}
	}
}
