{
	 "smiles": "CCC12COP(OC1)OC2", 
	 "Tm": 326.85, 
	 "num_atms": 21, 
	 "gaussian": { 
		 "optdone": 1, 
		 "sigma_profile": "yes", 
		 "theory": "DFT", 
		 "functional": "B3LYP", 
		 "basiset": "6-31G**", 
		 "properties": { 
			 "R2extent": 1836.6155, 
			 "electric_dipole_moment_norm": 4.5399928403, 
			 "electric_quadrupole_moment_norm": 6.56079027557, 
			 "total_energy": -802.323297896, 
			 "HOMO_LUMO_gap": 0.30558, 
			 "cosmo_polarized_energy": -9.55, 
			 "cosmo_cavitation_energy": 22.62, 
			 "cosmo_dispersion_energy": -19.0, 
			 "cosmo_repulsion_energy": 1.79, 
			 "cosmo_total_nonelectrostatic_energy": 5.41, 
			 "SMD_solvation_energy": 4.73 
		},
		"coords": [
			{
				"x": -0.3759418992,
				"y": -0.7190639332,
				"z": 2.5033408358,
				"element": "C" 
			},
			{
				"x": -1.1876490121,
				"y": -1.0571372733,
				"z": 1.2446790755,
				"element": "C" 
			},
			{
				"x": -0.9821573776,
				"y": -0.1442514884,
				"z": 0.0180830297,
				"element": "C" 
			},
			{
				"x": -1.883887771,
				"y": -0.6507811811,
				"z": -1.1291464176,
				"element": "C" 
			},
			{
				"x": -1.7513104122,
				"y": 0.1511408453,
				"z": -2.3184427793,
				"element": "O" 
			},
			{
				"x": -0.6931599838,
				"y": 1.4283844515,
				"z": -2.2448094076,
				"element": "P" 
			},
			{
				"x": -1.2281627116,
				"y": 2.1535070611,
				"z": -0.850576375,
				"element": "O" 
			},
			{
				"x": -1.370599919,
				"y": 1.3181664924,
				"z": 0.3175208271,
				"element": "C" 
			},
			{
				"x": 0.6483556538,
				"y": 0.6454232146,
				"z": -1.6590211829,
				"element": "O" 
			},
			{
				"x": 0.4777859656,
				"y": -0.1679312204,
				"z": -0.4792115643,
				"element": "C" 
			},
			{
				"x": -0.6078557204,
				"y": -1.4341892673,
				"z": 3.2983430473,
				"element": "H" 
			},
			{
				"x": 0.7026783993,
				"y": -0.7690421753,
				"z": 2.3259586774,
				"element": "H" 
			},
			{
				"x": -0.6051287489,
				"y": 0.2794991709,
				"z": 2.8876977593,
				"element": "H" 
			},
			{
				"x": -0.9606309924,
				"y": -2.08770139,
				"z": 0.9409250665,
				"element": "H" 
			},
			{
				"x": -2.256258822,
				"y": -1.0481693495,
				"z": 1.4973978588,
				"element": "H" 
			},
			{
				"x": -1.6230598879,
				"y": -1.6853889544,
				"z": -1.3866960398,
				"element": "H" 
			},
			{
				"x": -2.9370048415,
				"y": -0.6284948069,
				"z": -0.8205462579,
				"element": "H" 
			},
			{
				"x": -0.7353938161,
				"y": 1.7400363055,
				"z": 1.1044167262,
				"element": "H" 
			},
			{
				"x": -2.4152933247,
				"y": 1.3741323027,
				"z": 0.6500987902,
				"element": "H" 
			},
			{
				"x": 0.7788873286,
				"y": -1.1940625893,
				"z": -0.7272446827,
				"element": "H" 
			},
			{
				"x": 1.160187893,
				"y": 0.2156237847,
				"z": 0.2875330133,
				"element": "H" 
			}
		],
		 "valence_orbital": [ 
			{
				"type": "occ",
				"energy": -0.3369,
				"method": "rhf"
			},
			{
				"type": "occ",
				"energy": -0.28444,
				"method": "rhf"
			},
			{
				"type": "occ",
				"energy": -0.28336,
				"method": "rhf"
			},
			{
				"type": "occ",
				"energy": -0.27647,
				"method": "rhf"
			},
			{
				"type": "occ",
				"energy": -0.26574,
				"method": "rhf"
			},
			{
				"type": "unocc",
				"energy": 0.03984,
				"method": "rhf"
			},
			{
				"type": "unocc",
				"energy": 0.04028,
				"method": "rhf"
			},
			{
				"type": "unocc",
				"energy": 0.06199,
				"method": "rhf"
			},
			{
				"type": "unocc",
				"energy": 0.08972,
				"method": "rhf"
			},
			{
				"type": "unocc",
				"energy": 0.09799,
				"method": "rhf"
			}
		],
		"cosmo_sigma_profile": { 
			"-0.025": 0.0,
			"-0.024": 0.0,
			"-0.023": 0.0,
			"-0.022": 0.0,
			"-0.021": 0.0,
			"-0.02": 0.0,
			"-0.019": 0.0,
			"-0.018": 0.0,
			"-0.017": 0.0,
			"-0.016": 0.0,
			"-0.015": 0.0,
			"-0.014": 0.0,
			"-0.013": 0.0,
			"-0.012": 0.0,
			"-0.011": 0.0,
			"-0.01": 0.0,
			"-0.009": 0.0,
			"-0.008": 0.0,
			"-0.007": 0.32857302341,
			"-0.006": 7.69192374168,
			"-0.005": 22.6666191288,
			"-0.004": 20.3874029387,
			"-0.003": 20.2507159634,
			"-0.002": 14.7088266783,
			"-0.001": 15.1749390749,
			"0.0": 13.268449291,
			"0.001": 10.1256689872,
			"0.002": 8.02922263918,
			"0.003": 7.04844261432,
			"0.004": 6.31358876123,
			"0.005": 5.13517983205,
			"0.006": 5.07306403593,
			"0.007": 4.17297483497,
			"0.008": 3.37209735243,
			"0.009": 3.27620863305,
			"0.01": 3.35400820198,
			"0.011": 3.97609869165,
			"0.012": 3.87194289199,
			"0.013": 0.657729975958,
			"0.014": 0.0,
			"0.015": 0.0,
			"0.016": 0.0,
			"0.017": 0.0,
			"0.018": 0.0,
			"0.019": 0.0,
			"0.02": 0.0,
			"0.021": 0.0,
			"0.022": 0.0,
			"0.023": 0.0,
			"0.024": 0.0,
			"0.025": 0.0
		}
	}
}
