{
	 "smiles": "CC1=C(C)C(C)=C(C)C2=C1CC2(C)O", 
	 "Tm": 363.15, 
	 "num_atms": 32, 
	 "gaussian": { 
		 "optdone": 1, 
		 "sigma_profile": "yes", 
		 "theory": "DFT", 
		 "functional": "B3LYP", 
		 "basiset": "6-31G**", 
		 "properties": { 
			 "R2extent": 3232.5254, 
			 "electric_dipole_moment_norm": 1.84199842019, 
			 "electric_quadrupole_moment_norm": 5.53715489128, 
			 "total_energy": -581.443279252, 
			 "HOMO_LUMO_gap": 0.22192, 
			 "cosmo_polarized_energy": -6.89, 
			 "cosmo_cavitation_energy": 32.79, 
			 "cosmo_dispersion_energy": -22.86, 
			 "cosmo_repulsion_energy": 1.8, 
			 "cosmo_total_nonelectrostatic_energy": 11.73, 
			 "SMD_solvation_energy": 5.33 
		},
		"coords": [
			{
				"x": 2.4277493744,
				"y": -0.3989183675,
				"z": -0.0277164698,
				"element": "C" 
			},
			{
				"x": 0.9763709912,
				"y": -0.0568446204,
				"z": 0.2206432617,
				"element": "C" 
			},
			{
				"x": 0.339481699,
				"y": -0.2091421524,
				"z": 1.4786576811,
				"element": "C" 
			},
			{
				"x": 1.1253257799,
				"y": -0.7357198222,
				"z": 2.6619104023,
				"element": "C" 
			},
			{
				"x": -1.0317875852,
				"y": 0.1135055481,
				"z": 1.6690831405,
				"element": "C" 
			},
			{
				"x": -1.6363980126,
				"y": -0.080677786,
				"z": 3.0444114337,
				"element": "C" 
			},
			{
				"x": -1.8306463233,
				"y": 0.6107393131,
				"z": 0.6095997087,
				"element": "C" 
			},
			{
				"x": -3.2972380993,
				"y": 0.9531340309,
				"z": 0.7475135027,
				"element": "C" 
			},
			{
				"x": -1.1690466608,
				"y": 0.7628302985,
				"z": -0.603062279,
				"element": "C" 
			},
			{
				"x": 0.1643923585,
				"y": 0.4293966175,
				"z": -0.7963949178,
				"element": "C" 
			},
			{
				"x": 0.156290843,
				"y": 0.7923638874,
				"z": -2.2753271299,
				"element": "C" 
			},
			{
				"x": -1.3592107098,
				"y": 1.2382021325,
				"z": -2.0477360746,
				"element": "C" 
			},
			{
				"x": -1.6180142134,
				"y": 2.7252095356,
				"z": -2.2533170264,
				"element": "C" 
			},
			{
				"x": -2.3371854672,
				"y": 0.5540340129,
				"z": -2.8186425083,
				"element": "O" 
			},
			{
				"x": 2.645039174,
				"y": -1.4551196139,
				"z": 0.1708668512,
				"element": "H" 
			},
			{
				"x": 2.6900497284,
				"y": -0.2005835387,
				"z": -1.0704343612,
				"element": "H" 
			},
			{
				"x": 3.1053133692,
				"y": 0.1918275172,
				"z": 0.5999379828,
				"element": "H" 
			},
			{
				"x": 1.1598892026,
				"y": -0.0057434161,
				"z": 3.4803239655,
				"element": "H" 
			},
			{
				"x": 0.6723937122,
				"y": -1.644537464,
				"z": 3.076624368,
				"element": "H" 
			},
			{
				"x": 2.155460055,
				"y": -0.9764793144,
				"z": 2.3980647081,
				"element": "H" 
			},
			{
				"x": -2.6789555643,
				"y": 0.2365613719,
				"z": 3.0824864802,
				"element": "H" 
			},
			{
				"x": -1.0941872359,
				"y": 0.4902179233,
				"z": 3.8078822156,
				"element": "H" 
			},
			{
				"x": -1.6016429585,
				"y": -1.1312286885,
				"z": 3.3597793317,
				"element": "H" 
			},
			{
				"x": -3.7188382664,
				"y": 1.1968705951,
				"z": -0.230772443,
				"element": "H" 
			},
			{
				"x": -3.8781575369,
				"y": 0.1191880938,
				"z": 1.1572046596,
				"element": "H" 
			},
			{
				"x": -3.4607623253,
				"y": 1.813210721,
				"z": 1.408276099,
				"element": "H" 
			},
			{
				"x": 0.8389397364,
				"y": 1.5872249261,
				"z": -2.5988620643,
				"element": "H" 
			},
			{
				"x": 0.24774008,
				"y": -0.0487220286,
				"z": -2.9723348941,
				"element": "H" 
			},
			{
				"x": -0.8797747621,
				"y": 3.326480219,
				"z": -1.7159357644,
				"element": "H" 
			},
			{
				"x": -1.5637383556,
				"y": 2.9670396639,
				"z": -3.319770707,
				"element": "H" 
			},
			{
				"x": -2.6160377296,
				"y": 2.9937191735,
				"z": -1.8943360382,
				"element": "H" 
			},
			{
				"x": -2.2709142974,
				"y": -0.3859387684,
				"z": -2.6029231146,
				"element": "H" 
			}
		],
		 "valence_orbital": [ 
			{
				"type": "occ",
				"energy": -0.30674,
				"method": "rhf"
			},
			{
				"type": "occ",
				"energy": -0.28856,
				"method": "rhf"
			},
			{
				"type": "occ",
				"energy": -0.25513,
				"method": "rhf"
			},
			{
				"type": "occ",
				"energy": -0.22249,
				"method": "rhf"
			},
			{
				"type": "occ",
				"energy": -0.21841,
				"method": "rhf"
			},
			{
				"type": "unocc",
				"energy": 0.00351,
				"method": "rhf"
			},
			{
				"type": "unocc",
				"energy": 0.01015,
				"method": "rhf"
			},
			{
				"type": "unocc",
				"energy": 0.08076,
				"method": "rhf"
			},
			{
				"type": "unocc",
				"energy": 0.09353,
				"method": "rhf"
			},
			{
				"type": "unocc",
				"energy": 0.10932,
				"method": "rhf"
			}
		],
		"cosmo_sigma_profile": { 
			"-0.025": 0.0,
			"-0.024": 0.0,
			"-0.023": 0.0,
			"-0.022": 0.0,
			"-0.021": 0.0,
			"-0.02": 0.0,
			"-0.019": 0.0,
			"-0.018": 0.0,
			"-0.017": 0.0,
			"-0.016": 0.0182087659284,
			"-0.015": 0.389322808063,
			"-0.014": 1.05774598472,
			"-0.013": 0.645261718004,
			"-0.012": 0.277117077595,
			"-0.011": 0.94944887615,
			"-0.01": 0.91858276983,
			"-0.009": 1.18034575216,
			"-0.008": 0.653013923577,
			"-0.007": 1.00809844065,
			"-0.006": 0.572364059813,
			"-0.005": 1.51772224062,
			"-0.004": 11.9448706419,
			"-0.003": 33.6158773453,
			"-0.002": 32.9966969024,
			"-0.001": 35.5434096695,
			"0.0": 41.6742193642,
			"0.001": 34.3634833813,
			"0.002": 13.0984895009,
			"0.003": 8.74449866484,
			"0.004": 5.74230227741,
			"0.005": 6.69704161215,
			"0.006": 5.8221888838,
			"0.007": 5.57380433177,
			"0.008": 2.13766262964,
			"0.009": 0.857103140905,
			"0.01": 1.75967660413,
			"0.011": 1.12820826812,
			"0.012": 0.60436915683,
			"0.013": 2.04426005278,
			"0.014": 1.79046319297,
			"0.015": 0.210608865895,
			"0.016": 0.0,
			"0.017": 0.0,
			"0.018": 0.0,
			"0.019": 0.0,
			"0.02": 0.0,
			"0.021": 0.0,
			"0.022": 0.0,
			"0.023": 0.0,
			"0.024": 0.0,
			"0.025": 0.0
		}
	}
}
