{
	 "smiles": "COC(=O)C1=C(O)C=CC=N1", 
	 "Tm": 350.15, 
	 "num_atms": 18, 
	 "gaussian": { 
		 "optdone": 1, 
		 "sigma_profile": "yes", 
		 "theory": "DFT", 
		 "functional": "B3LYP", 
		 "basiset": "6-31G**", 
		 "properties": { 
			 "R2extent": 2031.0954, 
			 "electric_dipole_moment_norm": 0.826985713299, 
			 "electric_quadrupole_moment_norm": 15.2976526918, 
			 "total_energy": -551.393958126, 
			 "HOMO_LUMO_gap": 0.17869, 
			 "cosmo_polarized_energy": -9.44, 
			 "cosmo_cavitation_energy": 22.52, 
			 "cosmo_dispersion_energy": -17.15, 
			 "cosmo_repulsion_energy": 1.38, 
			 "cosmo_total_nonelectrostatic_energy": 6.74, 
			 "SMD_solvation_energy": 4.71 
		},
		"coords": [
			{
				"x": 0.3803887214,
				"y": 2.8567153599,
				"z": 1.0326570217,
				"element": "C" 
			},
			{
				"x": 0.3692798093,
				"y": 1.5188681111,
				"z": 0.5045137994,
				"element": "O" 
			},
			{
				"x": -0.8152863572,
				"y": 0.91132479,
				"z": 0.4979561748,
				"element": "C" 
			},
			{
				"x": -1.843352908,
				"y": 1.4534244209,
				"z": 0.9161720016,
				"element": "O" 
			},
			{
				"x": -0.805244133,
				"y": -0.4663032118,
				"z": -0.0502784802,
				"element": "C" 
			},
			{
				"x": -2.0287544933,
				"y": -1.1820788337,
				"z": -0.0922843329,
				"element": "C" 
			},
			{
				"x": -3.1957764446,
				"y": -0.6835852028,
				"z": 0.3359705209,
				"element": "O" 
			},
			{
				"x": -2.0014258114,
				"y": -2.4869650949,
				"z": -0.6150455729,
				"element": "C" 
			},
			{
				"x": -0.7971202282,
				"y": -3.0042774452,
				"z": -1.0581241749,
				"element": "C" 
			},
			{
				"x": 0.3623825801,
				"y": -2.2136434851,
				"z": -0.9737854405,
				"element": "C" 
			},
			{
				"x": 0.3584938439,
				"y": -0.9808128716,
				"z": -0.4842392248,
				"element": "N" 
			},
			{
				"x": 0.0470487721,
				"y": 2.8618560471,
				"z": 2.0732167751,
				"element": "H" 
			},
			{
				"x": -0.2747193313,
				"y": 3.506376619,
				"z": 0.4472738008,
				"element": "H" 
			},
			{
				"x": 1.4158589804,
				"y": 3.1866990467,
				"z": 0.9585615833,
				"element": "H" 
			},
			{
				"x": -3.0086065466,
				"y": 0.2316748026,
				"z": 0.6618757146,
				"element": "H" 
			},
			{
				"x": -2.9269894488,
				"y": -3.0516141476,
				"z": -0.6560216062,
				"element": "H" 
			},
			{
				"x": -0.743023171,
				"y": -4.0088316098,
				"z": -1.4670847146,
				"element": "H" 
			},
			{
				"x": 1.3204461661,
				"y": -2.5989272948,
				"z": -1.3158338453,
				"element": "H" 
			}
		],
		 "valence_orbital": [ 
			{
				"type": "occ",
				"energy": -0.31404,
				"method": "rhf"
			},
			{
				"type": "occ",
				"energy": -0.29947,
				"method": "rhf"
			},
			{
				"type": "occ",
				"energy": -0.28837,
				"method": "rhf"
			},
			{
				"type": "occ",
				"energy": -0.25777,
				"method": "rhf"
			},
			{
				"type": "occ",
				"energy": -0.2393,
				"method": "rhf"
			},
			{
				"type": "unocc",
				"energy": -0.06061,
				"method": "rhf"
			},
			{
				"type": "unocc",
				"energy": -0.01115,
				"method": "rhf"
			},
			{
				"type": "unocc",
				"energy": 0.04409,
				"method": "rhf"
			},
			{
				"type": "unocc",
				"energy": 0.09722,
				"method": "rhf"
			},
			{
				"type": "unocc",
				"energy": 0.10817,
				"method": "rhf"
			}
		],
		"cosmo_sigma_profile": { 
			"-0.025": 0.0,
			"-0.024": 0.0,
			"-0.023": 0.0,
			"-0.022": 0.0,
			"-0.021": 0.0,
			"-0.02": 0.0,
			"-0.019": 0.0,
			"-0.018": 0.0,
			"-0.017": 0.0,
			"-0.016": 0.0,
			"-0.015": 0.0,
			"-0.014": 0.0,
			"-0.013": 0.0,
			"-0.012": 0.0,
			"-0.011": 0.0,
			"-0.01": 0.0,
			"-0.009": 0.0,
			"-0.008": 2.15586053091,
			"-0.007": 8.18336102845,
			"-0.006": 14.7834770091,
			"-0.005": 13.4849234545,
			"-0.004": 18.8507659498,
			"-0.003": 16.301211236,
			"-0.002": 9.34177365795,
			"-0.001": 11.5346751805,
			"0.0": 15.3753695679,
			"0.001": 13.6128552268,
			"0.002": 10.5152256923,
			"0.003": 5.68943220596,
			"0.004": 5.42326328978,
			"0.005": 4.95084002368,
			"0.006": 3.89151519472,
			"0.007": 4.61625962239,
			"0.008": 3.90291356267,
			"0.009": 4.50229215938,
			"0.01": 5.19432162833,
			"0.011": 2.80495064658,
			"0.012": 0.995446710249,
			"0.013": 1.02759993926,
			"0.014": 1.28826935062,
			"0.015": 0.951357677692,
			"0.016": 1.01580169685,
			"0.017": 0.159033917687,
			"0.018": 0.0,
			"0.019": 0.0,
			"0.02": 0.0,
			"0.021": 0.0,
			"0.022": 0.0,
			"0.023": 0.0,
			"0.024": 0.0,
			"0.025": 0.0
		}
	}
}
