{
	 "smiles": "OC(=O)C12CC3CC(C1)CC(C3)(C2)C1=CC=C(C=C1)[N+]([O-])=O", 
	 "Tm": 471.15, 
	 "num_atms": 41, 
	 "gaussian": { 
		 "optdone": 1, 
		 "sigma_profile": "yes", 
		 "theory": "DFT", 
		 "functional": "B3LYP", 
		 "basiset": "6-31G**", 
		 "properties": { 
			 "R2extent": 8879.17, 
			 "electric_dipole_moment_norm": 4.81505390001, 
			 "electric_quadrupole_moment_norm": 41.8397069272, 
			 "total_energy": -1014.85460068, 
			 "HOMO_LUMO_gap": 0.18229, 
			 "cosmo_polarized_energy": -15.1, 
			 "cosmo_cavitation_energy": 40.3, 
			 "cosmo_dispersion_energy": -29.06, 
			 "cosmo_repulsion_energy": 2.16, 
			 "cosmo_total_nonelectrostatic_energy": 13.4, 
			 "SMD_solvation_energy": 8.93 
		},
		"coords": [
			{
				"x": 2.6520457879,
				"y": -0.6164565373,
				"z": -3.4256721351,
				"element": "O" 
			},
			{
				"x": 2.7100506025,
				"y": -1.313477456,
				"z": -2.2607722559,
				"element": "C" 
			},
			{
				"x": 3.2875627243,
				"y": -2.3762039666,
				"z": -2.1811294,
				"element": "O" 
			},
			{
				"x": 1.9914400574,
				"y": -0.6005889794,
				"z": -1.1229964666,
				"element": "C" 
			},
			{
				"x": 2.6740384003,
				"y": 0.7670557204,
				"z": -0.846296777,
				"element": "C" 
			},
			{
				"x": 1.9375338011,
				"y": 1.481378196,
				"z": 0.3018490583,
				"element": "C" 
			},
			{
				"x": 1.9905775347,
				"y": 0.613429501,
				"z": 1.5743645355,
				"element": "C" 
			},
			{
				"x": 1.3110285592,
				"y": -0.7420252329,
				"z": 1.295898136,
				"element": "C" 
			},
			{
				"x": 2.0461118139,
				"y": -1.4650764287,
				"z": 0.1531400755,
				"element": "C" 
			},
			{
				"x": -0.1612345632,
				"y": -0.5100008298,
				"z": 0.9027800205,
				"element": "C" 
			},
			{
				"x": -0.2553428475,
				"y": 0.3732451157,
				"z": -0.375872332,
				"element": "C" 
			},
			{
				"x": 0.4689853126,
				"y": 1.7236406098,
				"z": -0.0986407803,
				"element": "C" 
			},
			{
				"x": 0.5089605004,
				"y": -0.349550106,
				"z": -1.5130381512,
				"element": "C" 
			},
			{
				"x": -1.723816277,
				"y": 0.6301395148,
				"z": -0.7309836425,
				"element": "C" 
			},
			{
				"x": -2.2881145664,
				"y": 0.2494329026,
				"z": -1.959418836,
				"element": "C" 
			},
			{
				"x": -3.6277509427,
				"y": 0.4957912265,
				"z": -2.2551444083,
				"element": "C" 
			},
			{
				"x": -4.4193603705,
				"y": 1.1346293329,
				"z": -1.3070236365,
				"element": "C" 
			},
			{
				"x": -3.9008064593,
				"y": 1.5304923134,
				"z": -0.0751209011,
				"element": "C" 
			},
			{
				"x": -2.5629455963,
				"y": 1.2749317566,
				"z": 0.1988972388,
				"element": "C" 
			},
			{
				"x": -5.8322699766,
				"y": 1.3985574937,
				"z": -1.6095185157,
				"element": "N" 
			},
			{
				"x": -6.5046099662,
				"y": 1.9663581653,
				"z": -0.7483143488,
				"element": "O" 
			},
			{
				"x": -6.2602900751,
				"y": 1.0366937059,
				"z": -2.7056856134,
				"element": "O" 
			},
			{
				"x": 3.1423369691,
				"y": -1.1451493196,
				"z": -4.0775221094,
				"element": "H" 
			},
			{
				"x": 3.7263947381,
				"y": 0.6062533089,
				"z": -0.580311428,
				"element": "H" 
			},
			{
				"x": 2.6587591234,
				"y": 1.3800663322,
				"z": -1.7538012291,
				"element": "H" 
			},
			{
				"x": 2.4204842903,
				"y": 2.4481641999,
				"z": 0.4908271907,
				"element": "H" 
			},
			{
				"x": 1.4867570181,
				"y": 1.1275799653,
				"z": 2.403099211,
				"element": "H" 
			},
			{
				"x": 3.0322850729,
				"y": 0.4573610881,
				"z": 1.8819391261,
				"element": "H" 
			},
			{
				"x": 1.3451365318,
				"y": -1.364943143,
				"z": 2.1980515443,
				"element": "H" 
			},
			{
				"x": 1.5910230973,
				"y": -2.44236076,
				"z": -0.0430755783,
				"element": "H" 
			},
			{
				"x": 3.0899258179,
				"y": -1.6578278437,
				"z": 0.4232490002,
				"element": "H" 
			},
			{
				"x": -0.6626562792,
				"y": -1.4687069834,
				"z": 0.7194266691,
				"element": "H" 
			},
			{
				"x": -0.6934506963,
				"y": -0.0295692459,
				"z": 1.7317657597,
				"element": "H" 
			},
			{
				"x": -0.0454490219,
				"y": 2.2684997541,
				"z": 0.7011874039,
				"element": "H" 
			},
			{
				"x": 0.4166500588,
				"y": 2.3546967023,
				"z": -0.9948390895,
				"element": "H" 
			},
			{
				"x": 0.0300499651,
				"y": -1.3126315779,
				"z": -1.7310147806,
				"element": "H" 
			},
			{
				"x": 0.4765195415,
				"y": 0.2456532385,
				"z": -2.4312980501,
				"element": "H" 
			},
			{
				"x": -1.684532917,
				"y": -0.2483405302,
				"z": -2.7082389299,
				"element": "H" 
			},
			{
				"x": -4.0628021837,
				"y": 0.2019048949,
				"z": -3.2022667325,
				"element": "H" 
			},
			{
				"x": -4.5450811978,
				"y": 2.0259619466,
				"z": 0.6403893674,
				"element": "H" 
			},
			{
				"x": -2.1660433818,
				"y": 1.585691955,
				"z": 1.1597317907,
				"element": "H" 
			}
		],
		 "valence_orbital": [ 
			{
				"type": "occ",
				"energy": -0.29944,
				"method": "rhf"
			},
			{
				"type": "occ",
				"energy": -0.28692,
				"method": "rhf"
			},
			{
				"type": "occ",
				"energy": -0.27515,
				"method": "rhf"
			},
			{
				"type": "occ",
				"energy": -0.27345,
				"method": "rhf"
			},
			{
				"type": "occ",
				"energy": -0.2677,
				"method": "rhf"
			},
			{
				"type": "unocc",
				"energy": -0.08541,
				"method": "rhf"
			},
			{
				"type": "unocc",
				"energy": -0.02536,
				"method": "rhf"
			},
			{
				"type": "unocc",
				"energy": 0.00104,
				"method": "rhf"
			},
			{
				"type": "unocc",
				"energy": 0.00332,
				"method": "rhf"
			},
			{
				"type": "unocc",
				"energy": 0.05367,
				"method": "rhf"
			}
		],
		"cosmo_sigma_profile": { 
			"-0.025": 0.0,
			"-0.024": 0.0,
			"-0.023": 0.0,
			"-0.022": 0.0,
			"-0.021": 0.0,
			"-0.02": 0.0,
			"-0.019": 0.0,
			"-0.018": 0.433042724077,
			"-0.017": 1.25826600499,
			"-0.016": 0.663724383722,
			"-0.015": 0.494101971659,
			"-0.014": 0.744415744985,
			"-0.013": 0.742004486379,
			"-0.012": 0.557164932656,
			"-0.011": 1.08586711612,
			"-0.01": 0.832039255755,
			"-0.009": 0.294912419205,
			"-0.008": 1.06953760963,
			"-0.007": 4.5643633929,
			"-0.006": 10.7898924671,
			"-0.005": 12.8379452205,
			"-0.004": 16.3530272773,
			"-0.003": 37.3383638724,
			"-0.002": 39.6274748511,
			"-0.001": 40.7593095108,
			"0.0": 33.3962532034,
			"0.001": 20.7347439795,
			"0.002": 18.4110023421,
			"0.003": 11.7748209958,
			"0.004": 5.373400321,
			"0.005": 5.83422942804,
			"0.006": 6.1799389042,
			"0.007": 9.03972226742,
			"0.008": 12.32473359,
			"0.009": 6.68858285695,
			"0.01": 5.32517365297,
			"0.011": 3.72785885994,
			"0.012": 4.79826163219,
			"0.013": 0.777417266087,
			"0.014": 0.0,
			"0.015": 0.0,
			"0.016": 0.0,
			"0.017": 0.0,
			"0.018": 0.0,
			"0.019": 0.0,
			"0.02": 0.0,
			"0.021": 0.0,
			"0.022": 0.0,
			"0.023": 0.0,
			"0.024": 0.0,
			"0.025": 0.0
		}
	}
}
