{
	 "smiles": "COC1=C(CNC(=O)CCl)C=CC=C1", 
	 "Tm": 368.15, 
	 "num_atms": 26, 
	 "gaussian": { 
		 "optdone": 1, 
		 "sigma_profile": "yes", 
		 "theory": "DFT", 
		 "functional": "B3LYP", 
		 "basiset": "6-31G**", 
		 "properties": { 
			 "R2extent": 3975.143, 
			 "electric_dipole_moment_norm": 3.6435181542, 
			 "electric_quadrupole_moment_norm": 4.9646671117, 
			 "total_energy": -1053.69779435, 
			 "HOMO_LUMO_gap": 0.21784, 
			 "cosmo_polarized_energy": -11.49, 
			 "cosmo_cavitation_energy": 31.58, 
			 "cosmo_dispersion_energy": -22.2, 
			 "cosmo_repulsion_energy": 1.78, 
			 "cosmo_total_nonelectrostatic_energy": 11.16, 
			 "SMD_solvation_energy": 5.82 
		},
		"coords": [
			{
				"x": -0.1753928147,
				"y": -0.5987482637,
				"z": -2.5256605115,
				"element": "C" 
			},
			{
				"x": 0.4475236663,
				"y": -0.1781588841,
				"z": -1.3198659889,
				"element": "O" 
			},
			{
				"x": 1.0206623221,
				"y": -1.1294856735,
				"z": -0.5127407086,
				"element": "C" 
			},
			{
				"x": 1.6409705272,
				"y": -0.6303668744,
				"z": 0.6510531168,
				"element": "C" 
			},
			{
				"x": 1.6600844676,
				"y": 0.8612125101,
				"z": 0.9143906895,
				"element": "C" 
			},
			{
				"x": 0.3286390392,
				"y": 1.4265281539,
				"z": 1.1177830006,
				"element": "N" 
			},
			{
				"x": -0.0881800896,
				"y": 1.861975497,
				"z": 2.3256130571,
				"element": "C" 
			},
			{
				"x": 0.5972338977,
				"y": 1.8998580189,
				"z": 3.3424765927,
				"element": "O" 
			},
			{
				"x": -1.5264796995,
				"y": 2.3729787213,
				"z": 2.4511960801,
				"element": "C" 
			},
			{
				"x": -2.5619884672,
				"y": 2.310764134,
				"z": 0.956468083,
				"element": "Cl" 
			},
			{
				"x": 2.2351959333,
				"y": -1.535433596,
				"z": 1.52865926,
				"element": "C" 
			},
			{
				"x": 2.2306607974,
				"y": -2.9098885473,
				"z": 1.2694884031,
				"element": "C" 
			},
			{
				"x": 1.6174305391,
				"y": -3.38393578,
				"z": 0.1137937787,
				"element": "C" 
			},
			{
				"x": 1.0084949445,
				"y": -2.4996861433,
				"z": -0.7833117642,
				"element": "C" 
			},
			{
				"x": -1.0201077133,
				"y": -1.2706753081,
				"z": -2.3295281574,
				"element": "H" 
			},
			{
				"x": -0.5419280018,
				"y": 0.3082893403,
				"z": -3.0083759546,
				"element": "H" 
			},
			{
				"x": 0.5376208617,
				"y": -1.1005467525,
				"z": -3.1913070536,
				"element": "H" 
			},
			{
				"x": 2.2303152012,
				"y": 1.0777678992,
				"z": 1.8189591744,
				"element": "H" 
			},
			{
				"x": 2.131640267,
				"y": 1.3840342986,
				"z": 0.0742247766,
				"element": "H" 
			},
			{
				"x": -0.3248298159,
				"y": 1.3795313644,
				"z": 0.3485998775,
				"element": "H" 
			},
			{
				"x": -1.4946396136,
				"y": 3.4137863096,
				"z": 2.7735329986,
				"element": "H" 
			},
			{
				"x": -2.0332959834,
				"y": 1.7824474833,
				"z": 3.2143578826,
				"element": "H" 
			},
			{
				"x": 2.7075269791,
				"y": -1.1544153042,
				"z": 2.4302453154,
				"element": "H" 
			},
			{
				"x": 2.6997464008,
				"y": -3.5977779895,
				"z": 1.9658251138,
				"element": "H" 
			},
			{
				"x": 1.6040539098,
				"y": -4.4485024865,
				"z": -0.10169673,
				"element": "H" 
			},
			{
				"x": 0.5327424449,
				"y": -2.8863521275,
				"z": -1.6766803318,
				"element": "H" 
			}
		],
		 "valence_orbital": [ 
			{
				"type": "occ",
				"energy": -0.30493,
				"method": "rhf"
			},
			{
				"type": "occ",
				"energy": -0.25764,
				"method": "rhf"
			},
			{
				"type": "occ",
				"energy": -0.25135,
				"method": "rhf"
			},
			{
				"type": "occ",
				"energy": -0.2496,
				"method": "rhf"
			},
			{
				"type": "occ",
				"energy": -0.22594,
				"method": "rhf"
			},
			{
				"type": "unocc",
				"energy": -0.0081,
				"method": "rhf"
			},
			{
				"type": "unocc",
				"energy": 0.00566,
				"method": "rhf"
			},
			{
				"type": "unocc",
				"energy": 0.01964,
				"method": "rhf"
			},
			{
				"type": "unocc",
				"energy": 0.02854,
				"method": "rhf"
			},
			{
				"type": "unocc",
				"energy": 0.08607,
				"method": "rhf"
			}
		],
		"cosmo_sigma_profile": { 
			"-0.025": 0.0,
			"-0.024": 0.0,
			"-0.023": 0.0,
			"-0.022": 0.0,
			"-0.021": 0.0,
			"-0.02": 0.0,
			"-0.019": 0.0,
			"-0.018": 0.0,
			"-0.017": 0.0,
			"-0.016": 0.0,
			"-0.015": 0.0,
			"-0.014": 0.0,
			"-0.013": 0.0,
			"-0.012": 0.0,
			"-0.011": 0.0,
			"-0.01": 0.0,
			"-0.009": 2.23453373396,
			"-0.008": 4.22883226179,
			"-0.007": 4.12928114378,
			"-0.006": 13.6239310173,
			"-0.005": 23.9166509426,
			"-0.004": 23.9563210266,
			"-0.003": 24.7304327657,
			"-0.002": 17.2361839037,
			"-0.001": 16.8801992639,
			"0.0": 15.1045412999,
			"0.001": 15.2925405738,
			"0.002": 15.3494290465,
			"0.003": 16.1283375195,
			"0.004": 13.03980068,
			"0.005": 17.7151043585,
			"0.006": 12.202854236,
			"0.007": 2.28984182285,
			"0.008": 1.22947952078,
			"0.009": 0.886592979347,
			"0.01": 1.25888914206,
			"0.011": 1.30632472478,
			"0.012": 2.09651736792,
			"0.013": 4.97393155394,
			"0.014": 3.00024419353,
			"0.015": 0.109130428326,
			"0.016": 0.0,
			"0.017": 0.0,
			"0.018": 0.0,
			"0.019": 0.0,
			"0.02": 0.0,
			"0.021": 0.0,
			"0.022": 0.0,
			"0.023": 0.0,
			"0.024": 0.0,
			"0.025": 0.0
		}
	}
}
