{
	 "smiles": "CC(Cl)C(=O)NC1=NC=C(Cl)C=C1", 
	 "Tm": 362.15, 
	 "num_atms": 21, 
	 "gaussian": { 
		 "optdone": 1, 
		 "sigma_profile": "yes", 
		 "theory": "DFT", 
		 "functional": "B3LYP", 
		 "basiset": "6-31G**", 
		 "properties": { 
			 "R2extent": 5040.3832, 
			 "electric_dipole_moment_norm": 2.54857885497, 
			 "electric_quadrupole_moment_norm": 9.41112415124, 
			 "total_energy": -1414.7935754, 
			 "HOMO_LUMO_gap": 0.19072, 
			 "cosmo_polarized_energy": -10.24, 
			 "cosmo_cavitation_energy": 28.48, 
			 "cosmo_dispersion_energy": -20.99, 
			 "cosmo_repulsion_energy": 1.68, 
			 "cosmo_total_nonelectrostatic_energy": 9.17, 
			 "SMD_solvation_energy": 3.72 
		},
		"coords": [
			{
				"x": -1.4180096588,
				"y": -0.7052369427,
				"z": -0.6668908448,
				"element": "C" 
			},
			{
				"x": -0.2350254064,
				"y": -1.4433527098,
				"z": -1.2830750243,
				"element": "C" 
			},
			{
				"x": 0.9706244884,
				"y": -1.9908702905,
				"z": -0.0109436167,
				"element": "Cl" 
			},
			{
				"x": 0.4603351653,
				"y": -0.7305780263,
				"z": -2.4507361004,
				"element": "C" 
			},
			{
				"x": 0.4825753315,
				"y": -1.2991949794,
				"z": -3.5324678453,
				"element": "O" 
			},
			{
				"x": 0.9892699308,
				"y": 0.5468194554,
				"z": -2.3693228145,
				"element": "N" 
			},
			{
				"x": 1.1248175779,
				"y": 1.5794153734,
				"z": -1.4246082206,
				"element": "C" 
			},
			{
				"x": 1.2721557472,
				"y": 2.7767478544,
				"z": -2.013900066,
				"element": "N" 
			},
			{
				"x": 1.4350462401,
				"y": 3.857038853,
				"z": -1.251599238,
				"element": "C" 
			},
			{
				"x": 1.4498112373,
				"y": 3.7958925826,
				"z": 0.1418871159,
				"element": "C" 
			},
			{
				"x": 1.6465088296,
				"y": 5.2555636225,
				"z": 1.0867182866,
				"element": "Cl" 
			},
			{
				"x": 1.3241070121,
				"y": 2.5531121148,
				"z": 0.7585938077,
				"element": "C" 
			},
			{
				"x": 1.171276051,
				"y": 1.4182632601,
				"z": -0.0319238124,
				"element": "C" 
			},
			{
				"x": -1.1335357444,
				"y": 0.2325028871,
				"z": -0.1886300268,
				"element": "H" 
			},
			{
				"x": -1.9073206766,
				"y": -1.3411643158,
				"z": 0.0744496729,
				"element": "H" 
			},
			{
				"x": -2.1412690462,
				"y": -0.483544825,
				"z": -1.4595442597,
				"element": "H" 
			},
			{
				"x": -0.5689889404,
				"y": -2.3774048361,
				"z": -1.7307617729,
				"element": "H" 
			},
			{
				"x": 1.2392040981,
				"y": 0.8744865955,
				"z": -3.2974096169,
				"element": "H" 
			},
			{
				"x": 1.5575804183,
				"y": 4.8078230492,
				"z": -1.7642809207,
				"element": "H" 
			},
			{
				"x": 1.3637755478,
				"y": 2.4680706191,
				"z": 1.839202514,
				"element": "H" 
			},
			{
				"x": 1.1255617974,
				"y": 0.4398106583,
				"z": 0.4241427831,
				"element": "H" 
			}
		],
		 "valence_orbital": [ 
			{
				"type": "occ",
				"energy": -0.31201,
				"method": "rhf"
			},
			{
				"type": "occ",
				"energy": -0.30597,
				"method": "rhf"
			},
			{
				"type": "occ",
				"energy": -0.2878,
				"method": "rhf"
			},
			{
				"type": "occ",
				"energy": -0.27309,
				"method": "rhf"
			},
			{
				"type": "occ",
				"energy": -0.24281,
				"method": "rhf"
			},
			{
				"type": "unocc",
				"energy": -0.05209,
				"method": "rhf"
			},
			{
				"type": "unocc",
				"energy": -0.04596,
				"method": "rhf"
			},
			{
				"type": "unocc",
				"energy": -0.01283,
				"method": "rhf"
			},
			{
				"type": "unocc",
				"energy": 0.01877,
				"method": "rhf"
			},
			{
				"type": "unocc",
				"energy": 0.04286,
				"method": "rhf"
			}
		],
		"cosmo_sigma_profile": { 
			"-0.025": 0.0,
			"-0.024": 0.0,
			"-0.023": 0.0,
			"-0.022": 0.0,
			"-0.021": 0.0,
			"-0.02": 0.0,
			"-0.019": 0.0,
			"-0.018": 0.0,
			"-0.017": 0.0,
			"-0.016": 0.0,
			"-0.015": 0.0,
			"-0.014": 0.0918521743231,
			"-0.013": 0.590782417828,
			"-0.012": 0.629923226774,
			"-0.011": 0.886192362274,
			"-0.01": 0.47004849443,
			"-0.009": 1.68101494725,
			"-0.008": 5.24858810011,
			"-0.007": 7.55677969189,
			"-0.006": 10.5995096583,
			"-0.005": 12.4889127475,
			"-0.004": 15.5586983907,
			"-0.003": 13.8291419429,
			"-0.002": 18.5743292524,
			"-0.001": 22.0413434664,
			"0.0": 27.0657142667,
			"0.001": 18.8874023377,
			"0.002": 11.8269877847,
			"0.003": 13.8934882171,
			"0.004": 16.8395317829,
			"0.005": 10.360844896,
			"0.006": 2.74837449423,
			"0.007": 3.13709520598,
			"0.008": 1.4825701718,
			"0.009": 1.99983521325,
			"0.01": 2.80496299438,
			"0.011": 4.47955359953,
			"0.012": 5.40098329281,
			"0.013": 0.988270649933,
			"0.014": 0.0,
			"0.015": 0.0,
			"0.016": 0.0,
			"0.017": 0.0,
			"0.018": 0.0,
			"0.019": 0.0,
			"0.02": 0.0,
			"0.021": 0.0,
			"0.022": 0.0,
			"0.023": 0.0,
			"0.024": 0.0,
			"0.025": 0.0
		}
	}
}
