{
	 "smiles": "CCOC(=O)C1=CC2=CC=CN=C2S1", 
	 "Tm": 332.65, 
	 "num_atms": 23, 
	 "gaussian": { 
		 "optdone": 1, 
		 "sigma_profile": "yes", 
		 "theory": "DFT", 
		 "functional": "B3LYP", 
		 "basiset": "6-31G**", 
		 "properties": { 
			 "R2extent": 4292.3126, 
			 "electric_dipole_moment_norm": 4.47213294637, 
			 "electric_quadrupole_moment_norm": 15.1511877307, 
			 "total_energy": -989.887692273, 
			 "HOMO_LUMO_gap": 0.17004, 
			 "cosmo_polarized_energy": -10.57, 
			 "cosmo_cavitation_energy": 29.32, 
			 "cosmo_dispersion_energy": -22.07, 
			 "cosmo_repulsion_energy": 1.69, 
			 "cosmo_total_nonelectrostatic_energy": 8.94, 
			 "SMD_solvation_energy": 4.12 
		},
		"coords": [
			{
				"x": -1.5448443015,
				"y": 0.1991971896,
				"z": 3.7224664091,
				"element": "C" 
			},
			{
				"x": -1.7000637684,
				"y": 1.1236959764,
				"z": 2.5246356022,
				"element": "C" 
			},
			{
				"x": -1.0580209128,
				"y": 0.5738868434,
				"z": 1.3471849404,
				"element": "O" 
			},
			{
				"x": 0.262931117,
				"y": 0.8244006387,
				"z": 1.2145341286,
				"element": "C" 
			},
			{
				"x": 0.9251535688,
				"y": 1.4741358987,
				"z": 2.0017204294,
				"element": "O" 
			},
			{
				"x": 0.8117094347,
				"y": 0.215519529,
				"z": -0.0119785665,
				"element": "C" 
			},
			{
				"x": 0.1564009899,
				"y": -0.5277115633,
				"z": -0.9542815733,
				"element": "C" 
			},
			{
				"x": 1.0189585376,
				"y": -0.955593998,
				"z": -2.0127429354,
				"element": "C" 
			},
			{
				"x": 0.7629108121,
				"y": -1.723465017,
				"z": -3.1618622907,
				"element": "C" 
			},
			{
				"x": 1.8184694228,
				"y": -1.9819893885,
				"z": -4.0237643699,
				"element": "C" 
			},
			{
				"x": 3.0966380143,
				"y": -1.4738729574,
				"z": -3.7248362052,
				"element": "C" 
			},
			{
				"x": 3.3770315834,
				"y": -0.741857183,
				"z": -2.6446208588,
				"element": "N" 
			},
			{
				"x": 2.3536623864,
				"y": -0.5019451514,
				"z": -1.8262245857,
				"element": "C" 
			},
			{
				"x": 2.520844653,
				"y": 0.4419197518,
				"z": -0.3524277873,
				"element": "S" 
			},
			{
				"x": -0.494038592,
				"y": 0.1158003063,
				"z": 4.0099382837,
				"element": "H" 
			},
			{
				"x": -2.1027517848,
				"y": 0.6014706597,
				"z": 4.5746050915,
				"element": "H" 
			},
			{
				"x": -1.9325189408,
				"y": -0.7988846579,
				"z": 3.4982625381,
				"element": "H" 
			},
			{
				"x": -1.2746028599,
				"y": 2.1090681794,
				"z": 2.72808644,
				"element": "H" 
			},
			{
				"x": -2.7473283333,
				"y": 1.2323479472,
				"z": 2.2331314695,
				"element": "H" 
			},
			{
				"x": -0.9002149488,
				"y": -0.7565659638,
				"z": -0.8882588304,
				"element": "H" 
			},
			{
				"x": -0.235383601,
				"y": -2.101298839,
				"z": -3.3646033368,
				"element": "H" 
			},
			{
				"x": 1.672854698,
				"y": -2.569626348,
				"z": -4.9241725839,
				"element": "H" 
			},
			{
				"x": 3.930402825,
				"y": -1.6717318531,
				"z": -4.3953914086,
				"element": "H" 
			}
		],
		 "valence_orbital": [ 
			{
				"type": "occ",
				"energy": -0.30386,
				"method": "rhf"
			},
			{
				"type": "occ",
				"energy": -0.28171,
				"method": "rhf"
			},
			{
				"type": "occ",
				"energy": -0.26868,
				"method": "rhf"
			},
			{
				"type": "occ",
				"energy": -0.2526,
				"method": "rhf"
			},
			{
				"type": "occ",
				"energy": -0.24019,
				"method": "rhf"
			},
			{
				"type": "unocc",
				"energy": -0.07015,
				"method": "rhf"
			},
			{
				"type": "unocc",
				"energy": -0.02522,
				"method": "rhf"
			},
			{
				"type": "unocc",
				"energy": 0.00699,
				"method": "rhf"
			},
			{
				"type": "unocc",
				"energy": 0.02226,
				"method": "rhf"
			},
			{
				"type": "unocc",
				"energy": 0.08185,
				"method": "rhf"
			}
		],
		"cosmo_sigma_profile": { 
			"-0.025": 0.0,
			"-0.024": 0.0,
			"-0.023": 0.0,
			"-0.022": 0.0,
			"-0.021": 0.0,
			"-0.02": 0.0,
			"-0.019": 0.0,
			"-0.018": 0.0,
			"-0.017": 0.0,
			"-0.016": 0.0,
			"-0.015": 0.0,
			"-0.014": 0.0,
			"-0.013": 0.0,
			"-0.012": 0.0,
			"-0.011": 0.0,
			"-0.01": 0.0,
			"-0.009": 0.16026156289,
			"-0.008": 4.14675367831,
			"-0.007": 9.20056655766,
			"-0.006": 10.4620450322,
			"-0.005": 12.2517415735,
			"-0.004": 16.7086857606,
			"-0.003": 17.9943784366,
			"-0.002": 17.1610449942,
			"-0.001": 19.1217285483,
			"0.0": 29.5764571834,
			"0.001": 29.758338877,
			"0.002": 19.562564854,
			"0.003": 12.5285903697,
			"0.004": 8.27326219433,
			"0.005": 5.23017576473,
			"0.006": 4.52729320414,
			"0.007": 3.23536400499,
			"0.008": 1.9416599503,
			"0.009": 3.06784331484,
			"0.01": 3.19109507613,
			"0.011": 4.2353356994,
			"0.012": 2.7890963765,
			"0.013": 1.19895974323,
			"0.014": 0.501826815268,
			"0.015": 0.271997662732,
			"0.016": 0.0,
			"0.017": 0.0,
			"0.018": 0.0,
			"0.019": 0.0,
			"0.02": 0.0,
			"0.021": 0.0,
			"0.022": 0.0,
			"0.023": 0.0,
			"0.024": 0.0,
			"0.025": 0.0
		}
	}
}
