{
	 "smiles": "CC(C)(C)OC(=O)N1CCC(CC1)C(=O)NN", 
	 "Tm": 372.15, 
	 "num_atms": 38, 
	 "gaussian": { 
		 "optdone": 1, 
		 "sigma_profile": "yes", 
		 "theory": "DFT", 
		 "functional": "B3LYP", 
		 "basiset": "6-31G**", 
		 "properties": { 
			 "R2extent": 6401.6031, 
			 "electric_dipole_moment_norm": 2.61955035264, 
			 "electric_quadrupole_moment_norm": 23.7262939125, 
			 "total_energy": -821.769663076, 
			 "HOMO_LUMO_gap": 0.24578, 
			 "cosmo_polarized_energy": -19.19, 
			 "cosmo_cavitation_energy": 38.42, 
			 "cosmo_dispersion_energy": -26.95, 
			 "cosmo_repulsion_energy": 2.12, 
			 "cosmo_total_nonelectrostatic_energy": 13.59, 
			 "SMD_solvation_energy": 7.47 
		},
		"coords": [
			{
				"x": 2.4827521345,
				"y": -2.5654571854,
				"z": -2.708308914,
				"element": "C" 
			},
			{
				"x": 1.9458510751,
				"y": -2.8262117836,
				"z": -1.2965077607,
				"element": "C" 
			},
			{
				"x": 3.0685414649,
				"y": -2.9225574755,
				"z": -0.2574156738,
				"element": "C" 
			},
			{
				"x": 1.0760510694,
				"y": -4.0863280234,
				"z": -1.2726949643,
				"element": "C" 
			},
			{
				"x": 0.9925073111,
				"y": -1.7740982729,
				"z": -0.9177761894,
				"element": "O" 
			},
			{
				"x": 1.3903313539,
				"y": -0.4809079663,
				"z": -0.809300891,
				"element": "C" 
			},
			{
				"x": 2.521108455,
				"y": -0.062864331,
				"z": -1.0290447529,
				"element": "O" 
			},
			{
				"x": 0.3505374347,
				"y": 0.3161498152,
				"z": -0.415215089,
				"element": "N" 
			},
			{
				"x": -1.0125429775,
				"y": -0.1831238927,
				"z": -0.1785920509,
				"element": "C" 
			},
			{
				"x": -1.7622082402,
				"y": 0.7663694722,
				"z": 0.758367836,
				"element": "C" 
			},
			{
				"x": -1.8715350849,
				"y": 2.2049480836,
				"z": 0.195542508,
				"element": "C" 
			},
			{
				"x": -0.6797117726,
				"y": 2.5150024017,
				"z": -0.758243773,
				"element": "C" 
			},
			{
				"x": 0.5841010319,
				"y": 1.7598348345,
				"z": -0.342687689,
				"element": "C" 
			},
			{
				"x": -3.1849987723,
				"y": 2.3930722066,
				"z": -0.5642748071,
				"element": "C" 
			},
			{
				"x": -3.7734478002,
				"y": 1.4626817096,
				"z": -1.1035979891,
				"element": "O" 
			},
			{
				"x": -3.6789938423,
				"y": 3.6710161697,
				"z": -0.6661826393,
				"element": "N" 
			},
			{
				"x": -3.1783489987,
				"y": 4.8537842909,
				"z": -0.1057448756,
				"element": "N" 
			},
			{
				"x": 3.08221746,
				"y": -1.6554500532,
				"z": -2.7337715514,
				"element": "H" 
			},
			{
				"x": 3.1024684762,
				"y": -3.4096285803,
				"z": -3.0283098083,
				"element": "H" 
			},
			{
				"x": 1.6536823826,
				"y": -2.4654151786,
				"z": -3.4161712505,
				"element": "H" 
			},
			{
				"x": 2.6478725851,
				"y": -3.0678870715,
				"z": 0.7428951741,
				"element": "H" 
			},
			{
				"x": 3.707266075,
				"y": -3.7824464442,
				"z": -0.4846969421,
				"element": "H" 
			},
			{
				"x": 3.6778926147,
				"y": -2.0187442686,
				"z": -0.2575660883,
				"element": "H" 
			},
			{
				"x": 1.6729237612,
				"y": -4.9608362695,
				"z": -1.5485449614,
				"element": "H" 
			},
			{
				"x": 0.2461424029,
				"y": -3.995629564,
				"z": -1.9794920965,
				"element": "H" 
			},
			{
				"x": 0.6614666027,
				"y": -4.2513396445,
				"z": -0.2737643448,
				"element": "H" 
			},
			{
				"x": -0.9459595058,
				"y": -1.1771432387,
				"z": 0.2653763042,
				"element": "H" 
			},
			{
				"x": -1.5673387893,
				"y": -0.279868513,
				"z": -1.1202674197,
				"element": "H" 
			},
			{
				"x": -1.2403741081,
				"y": 0.7971357155,
				"z": 1.7214242683,
				"element": "H" 
			},
			{
				"x": -2.7611387087,
				"y": 0.360738222,
				"z": 0.93533507,
				"element": "H" 
			},
			{
				"x": -1.8334366692,
				"y": 2.9123267212,
				"z": 1.0319720746,
				"element": "H" 
			},
			{
				"x": -0.9402588247,
				"y": 2.2202885434,
				"z": -1.7811718078,
				"element": "H" 
			},
			{
				"x": -0.4681405492,
				"y": 3.5900092662,
				"z": -0.7796736828,
				"element": "H" 
			},
			{
				"x": 0.8850980391,
				"y": 2.0565533089,
				"z": 0.673785028,
				"element": "H" 
			},
			{
				"x": 1.4204832154,
				"y": 1.9957301798,
				"z": -1.0027931079,
				"element": "H" 
			},
			{
				"x": -4.5340430786,
				"y": 3.7680160083,
				"z": -1.1986091036,
				"element": "H" 
			},
			{
				"x": -2.2417378009,
				"y": 5.0481115235,
				"z": -0.4483839652,
				"element": "H" 
			},
			{
				"x": -3.1582794226,
				"y": 4.7947692838,
				"z": 0.9089059261,
				"element": "H" 
			}
		],
		 "valence_orbital": [ 
			{
				"type": "occ",
				"energy": -0.27976,
				"method": "rhf"
			},
			{
				"type": "occ",
				"energy": -0.26234,
				"method": "rhf"
			},
			{
				"type": "occ",
				"energy": -0.25331,
				"method": "rhf"
			},
			{
				"type": "occ",
				"energy": -0.24825,
				"method": "rhf"
			},
			{
				"type": "occ",
				"energy": -0.22769,
				"method": "rhf"
			},
			{
				"type": "unocc",
				"energy": 0.01809,
				"method": "rhf"
			},
			{
				"type": "unocc",
				"energy": 0.04431,
				"method": "rhf"
			},
			{
				"type": "unocc",
				"energy": 0.06328,
				"method": "rhf"
			},
			{
				"type": "unocc",
				"energy": 0.08558,
				"method": "rhf"
			},
			{
				"type": "unocc",
				"energy": 0.09358,
				"method": "rhf"
			}
		],
		"cosmo_sigma_profile": { 
			"-0.025": 0.0,
			"-0.024": 0.0,
			"-0.023": 0.0,
			"-0.022": 0.0,
			"-0.021": 0.0,
			"-0.02": 0.0,
			"-0.019": 0.0,
			"-0.018": 0.0,
			"-0.017": 0.0,
			"-0.016": 0.0,
			"-0.015": 0.0,
			"-0.014": 0.0590316989713,
			"-0.013": 0.796601849454,
			"-0.012": 2.15583555124,
			"-0.011": 3.99629466547,
			"-0.01": 5.50498384255,
			"-0.009": 4.39421412697,
			"-0.008": 4.19062149526,
			"-0.007": 3.3904382969,
			"-0.006": 4.54952500019,
			"-0.005": 4.98989422423,
			"-0.004": 26.5451058985,
			"-0.003": 35.2840376821,
			"-0.002": 34.5001613133,
			"-0.001": 28.9954844074,
			"0.0": 31.5212404131,
			"0.001": 27.9915005449,
			"0.002": 12.8609604695,
			"0.003": 8.32886545684,
			"0.004": 7.49594757398,
			"0.005": 6.65902746295,
			"0.006": 5.01584408505,
			"0.007": 4.5691823465,
			"0.008": 3.79995405716,
			"0.009": 3.960851602,
			"0.01": 3.395399813,
			"0.011": 3.44189761159,
			"0.012": 3.85601788447,
			"0.013": 6.18552522346,
			"0.014": 7.30041323288,
			"0.015": 1.37264332328,
			"0.016": 0.361220208454,
			"0.017": 0.00205496024495,
			"0.018": 0.0,
			"0.019": 0.0,
			"0.02": 0.0,
			"0.021": 0.0,
			"0.022": 0.0,
			"0.023": 0.0,
			"0.024": 0.0,
			"0.025": 0.0
		}
	}
}
