{
	 "smiles": "NC1=CC=C(CC(=O)C2=CC=C(N)C=C2)C=C1", 
	 "Tm": 418.15, 
	 "num_atms": 31, 
	 "gaussian": { 
		 "optdone": 1, 
		 "sigma_profile": "yes", 
		 "theory": "DFT", 
		 "functional": "B3LYP", 
		 "basiset": "6-31G**", 
		 "properties": { 
			 "R2extent": 5666.0066, 
			 "electric_dipole_moment_norm": 4.0603994434, 
			 "electric_quadrupole_moment_norm": 34.4442501531, 
			 "total_energy": -726.668092097, 
			 "HOMO_LUMO_gap": 0.15689, 
			 "cosmo_polarized_energy": -20.3, 
			 "cosmo_cavitation_energy": 35.07, 
			 "cosmo_dispersion_energy": -25.01, 
			 "cosmo_repulsion_energy": 1.95, 
			 "cosmo_total_nonelectrostatic_energy": 12.01, 
			 "SMD_solvation_energy": 6.05 
		},
		"coords": [
			{
				"x": 2.1256468206,
				"y": 0.635533386,
				"z": 4.5520949046,
				"element": "N" 
			},
			{
				"x": 1.6669851551,
				"y": -0.2210335883,
				"z": 3.5464672112,
				"element": "C" 
			},
			{
				"x": 0.2929277417,
				"y": -0.4187369878,
				"z": 3.3377764173,
				"element": "C" 
			},
			{
				"x": -0.1553644445,
				"y": -1.2277174479,
				"z": 2.2953613463,
				"element": "C" 
			},
			{
				"x": 0.7379430649,
				"y": -1.8692332562,
				"z": 1.4300693116,
				"element": "C" 
			},
			{
				"x": 0.2499583598,
				"y": -2.7728671237,
				"z": 0.3083134475,
				"element": "C" 
			},
			{
				"x": 0.8696788925,
				"y": -2.4088033461,
				"z": -1.0458169923,
				"element": "C" 
			},
			{
				"x": 1.8605056654,
				"y": -3.0213274639,
				"z": -1.4314848282,
				"element": "O" 
			},
			{
				"x": 0.2829479155,
				"y": -1.3122017133,
				"z": -1.8591495711,
				"element": "C" 
			},
			{
				"x": -0.7983909156,
				"y": -0.5194770582,
				"z": -1.4388113151,
				"element": "C" 
			},
			{
				"x": -1.3073207822,
				"y": 0.4888324498,
				"z": -2.2461999317,
				"element": "C" 
			},
			{
				"x": -0.7499873208,
				"y": 0.7393290591,
				"z": -3.5148529318,
				"element": "C" 
			},
			{
				"x": -1.2247277615,
				"y": 1.7722724643,
				"z": -4.3059380953,
				"element": "N" 
			},
			{
				"x": 0.3376611243,
				"y": -0.0513078854,
				"z": -3.941004166,
				"element": "C" 
			},
			{
				"x": 0.8398986099,
				"y": -1.0498932482,
				"z": -3.1246776338,
				"element": "C" 
			},
			{
				"x": 2.1095727402,
				"y": -1.6693521623,
				"z": 1.6443491592,
				"element": "C" 
			},
			{
				"x": 2.5692476755,
				"y": -0.8625969576,
				"z": 2.6797668536,
				"element": "C" 
			},
			{
				"x": 1.4912061633,
				"y": 0.7570128636,
				"z": 5.3297738313,
				"element": "H" 
			},
			{
				"x": 3.0688172151,
				"y": 0.4533410738,
				"z": 4.8672478338,
				"element": "H" 
			},
			{
				"x": -0.4253248991,
				"y": 0.0677805852,
				"z": 3.9936894876,
				"element": "H" 
			},
			{
				"x": -1.2259713298,
				"y": -1.3699832674,
				"z": 2.1634708758,
				"element": "H" 
			},
			{
				"x": 0.5477100123,
				"y": -3.8095186484,
				"z": 0.4976562978,
				"element": "H" 
			},
			{
				"x": -0.8431703446,
				"y": -2.7456255738,
				"z": 0.2597083134,
				"element": "H" 
			},
			{
				"x": -1.2426056395,
				"y": -0.6753281603,
				"z": -0.4617445612,
				"element": "H" 
			},
			{
				"x": -2.1383375538,
				"y": 1.0972084324,
				"z": -1.8980485791,
				"element": "H" 
			},
			{
				"x": -2.1593711501,
				"y": 2.1005092719,
				"z": -4.1122085126,
				"element": "H" 
			},
			{
				"x": -1.011866977,
				"y": 1.7228565974,
				"z": -5.2914130826,
				"element": "H" 
			},
			{
				"x": 0.7821399875,
				"y": 0.1337928935,
				"z": -4.9160246421,
				"element": "H" 
			},
			{
				"x": 1.6771698019,
				"y": -1.6604561101,
				"z": -3.4464162944,
				"element": "H" 
			},
			{
				"x": 2.825043136,
				"y": -2.1560687445,
				"z": 0.9872573745,
				"element": "H" 
			},
			{
				"x": 3.6383790369,
				"y": -0.7214403336,
				"z": 2.8208884718,
				"element": "H" 
			}
		],
		 "valence_orbital": [ 
			{
				"type": "occ",
				"energy": -0.25102,
				"method": "rhf"
			},
			{
				"type": "occ",
				"energy": -0.24066,
				"method": "rhf"
			},
			{
				"type": "occ",
				"energy": -0.23183,
				"method": "rhf"
			},
			{
				"type": "occ",
				"energy": -0.20842,
				"method": "rhf"
			},
			{
				"type": "occ",
				"energy": -0.19252,
				"method": "rhf"
			},
			{
				"type": "unocc",
				"energy": -0.03563,
				"method": "rhf"
			},
			{
				"type": "unocc",
				"energy": 0.00063,
				"method": "rhf"
			},
			{
				"type": "unocc",
				"energy": 0.00707,
				"method": "rhf"
			},
			{
				"type": "unocc",
				"energy": 0.02333,
				"method": "rhf"
			},
			{
				"type": "unocc",
				"energy": 0.05829,
				"method": "rhf"
			}
		],
		"cosmo_sigma_profile": { 
			"-0.025": 0.0,
			"-0.024": 0.0,
			"-0.023": 0.0,
			"-0.022": 0.0,
			"-0.021": 0.0,
			"-0.02": 0.0,
			"-0.019": 0.0,
			"-0.018": 0.0,
			"-0.017": 0.0,
			"-0.016": 0.0,
			"-0.015": 0.0,
			"-0.014": 0.216839680092,
			"-0.013": 2.40037272909,
			"-0.012": 4.98921559039,
			"-0.011": 5.69510046706,
			"-0.01": 5.87283388113,
			"-0.009": 6.8593501315,
			"-0.008": 5.80082937781,
			"-0.007": 7.92015301782,
			"-0.006": 10.9248520992,
			"-0.005": 15.7408826584,
			"-0.004": 17.7811992223,
			"-0.003": 16.9524804991,
			"-0.002": 15.1858355702,
			"-0.001": 14.9705404506,
			"0.0": 12.1919953243,
			"0.001": 13.935692777,
			"0.002": 15.2897682145,
			"0.003": 18.5219274939,
			"0.004": 20.337196658,
			"0.005": 21.2965329975,
			"0.006": 13.072524529,
			"0.007": 8.88279535679,
			"0.008": 3.10931099784,
			"0.009": 3.66293794137,
			"0.01": 2.96208461621,
			"0.011": 3.27812355355,
			"0.012": 3.6530204592,
			"0.013": 4.79347412751,
			"0.014": 1.63599966483,
			"0.015": 0.313325562659,
			"0.016": 0.0,
			"0.017": 0.0,
			"0.018": 0.0,
			"0.019": 0.0,
			"0.02": 0.0,
			"0.021": 0.0,
			"0.022": 0.0,
			"0.023": 0.0,
			"0.024": 0.0,
			"0.025": 0.0
		}
	}
}
