{
	 "smiles": "CCN(CC)S(=O)(=O)C1=C(C)C=CC(NC(=O)CCl)=C1", 
	 "Tm": 344.15, 
	 "num_atms": 39, 
	 "gaussian": { 
		 "optdone": 1, 
		 "sigma_profile": "yes", 
		 "theory": "DFT", 
		 "functional": "B3LYP", 
		 "basiset": "6-31G**", 
		 "properties": { 
			 "R2extent": 7347.4626, 
			 "electric_dipole_moment_norm": 4.63368299088, 
			 "electric_quadrupole_moment_norm": 32.7315103037, 
			 "total_energy": -1700.33155639, 
			 "HOMO_LUMO_gap": 0.19141, 
			 "cosmo_polarized_energy": -23.03, 
			 "cosmo_cavitation_energy": 44.28, 
			 "cosmo_dispersion_energy": -28.98, 
			 "cosmo_repulsion_energy": 2.18, 
			 "cosmo_total_nonelectrostatic_energy": 17.49, 
			 "SMD_solvation_energy": 6.98 
		},
		"coords": [
			{
				"x": 1.7664997529,
				"y": -0.8407828009,
				"z": -2.4605710313,
				"element": "C" 
			},
			{
				"x": 2.191564848,
				"y": -0.3692816485,
				"z": -1.0705947069,
				"element": "C" 
			},
			{
				"x": 1.6002665136,
				"y": -1.2058489216,
				"z": -0.0059420306,
				"element": "N" 
			},
			{
				"x": 2.1332284038,
				"y": -2.593209773,
				"z": 0.1055423136,
				"element": "C" 
			},
			{
				"x": 1.0399356738,
				"y": -3.6468078989,
				"z": -0.0489044251,
				"element": "C" 
			},
			{
				"x": 1.4277572872,
				"y": -0.4153727485,
				"z": 1.4885460139,
				"element": "S" 
			},
			{
				"x": 0.9591430796,
				"y": -1.4417544935,
				"z": 2.4267798894,
				"element": "O" 
			},
			{
				"x": 2.6158089431,
				"y": 0.3836525114,
				"z": 1.8195777426,
				"element": "O" 
			},
			{
				"x": 0.0428963162,
				"y": 0.7002991316,
				"z": 1.1410588831,
				"element": "C" 
			},
			{
				"x": 0.1548652608,
				"y": 2.1021372917,
				"z": 1.0827030296,
				"element": "C" 
			},
			{
				"x": 1.4285740493,
				"y": 2.8933667783,
				"z": 1.2743088395,
				"element": "C" 
			},
			{
				"x": -1.0423699455,
				"y": 2.8017754873,
				"z": 0.84295915,
				"element": "C" 
			},
			{
				"x": -2.2605821846,
				"y": 2.1642225734,
				"z": 0.6520240057,
				"element": "C" 
			},
			{
				"x": -2.3464168703,
				"y": 0.7656783779,
				"z": 0.7192495057,
				"element": "C" 
			},
			{
				"x": -3.6058651293,
				"y": 0.1434124038,
				"z": 0.5601567635,
				"element": "N" 
			},
			{
				"x": -3.9978163375,
				"y": -0.9715146542,
				"z": -0.1636385368,
				"element": "C" 
			},
			{
				"x": -5.1672381199,
				"y": -1.3020272102,
				"z": -0.1942680934,
				"element": "O" 
			},
			{
				"x": -2.8897893668,
				"y": -1.7377156942,
				"z": -0.893557503,
				"element": "C" 
			},
			{
				"x": -3.5267930376,
				"y": -2.6295640127,
				"z": -2.3132157706,
				"element": "Cl" 
			},
			{
				"x": -1.1848879918,
				"y": 0.0448858729,
				"z": 0.9967101426,
				"element": "C" 
			},
			{
				"x": 0.6778142333,
				"y": -0.8156965164,
				"z": -2.5632132023,
				"element": "H" 
			},
			{
				"x": 2.2020695945,
				"y": -0.1868310941,
				"z": -3.2227329953,
				"element": "H" 
			},
			{
				"x": 2.1038384478,
				"y": -1.8603168024,
				"z": -2.6694144247,
				"element": "H" 
			},
			{
				"x": 3.2871136704,
				"y": -0.3451641668,
				"z": -0.9830225757,
				"element": "H" 
			},
			{
				"x": 1.8397294293,
				"y": 0.6561658614,
				"z": -0.9247971793,
				"element": "H" 
			},
			{
				"x": 2.8908398367,
				"y": -2.7070782388,
				"z": -0.6761840853,
				"element": "H" 
			},
			{
				"x": 2.6482757951,
				"y": -2.7286237449,
				"z": 1.0611273408,
				"element": "H" 
			},
			{
				"x": 0.3148500424,
				"y": -3.5599252301,
				"z": 0.7642564709,
				"element": "H" 
			},
			{
				"x": 0.5157022759,
				"y": -3.535754887,
				"z": -1.0030781579,
				"element": "H" 
			},
			{
				"x": 1.473975626,
				"y": -4.6518746665,
				"z": -0.0102009435,
				"element": "H" 
			},
			{
				"x": 1.2245212474,
				"y": 3.9574593259,
				"z": 1.1308112517,
				"element": "H" 
			},
			{
				"x": 2.2131944339,
				"y": 2.5928482547,
				"z": 0.5757575712,
				"element": "H" 
			},
			{
				"x": 1.8438717855,
				"y": 2.7465337868,
				"z": 2.2740078032,
				"element": "H" 
			},
			{
				"x": -1.0045090495,
				"y": 3.8861491389,
				"z": 0.7931845732,
				"element": "H" 
			},
			{
				"x": -3.1531636779,
				"y": 2.7474650012,
				"z": 0.4436817728,
				"element": "H" 
			},
			{
				"x": -4.4085664863,
				"y": 0.6313405171,
				"z": 0.9402819464,
				"element": "H" 
			},
			{
				"x": -2.0970585915,
				"y": -1.0763960764,
				"z": -1.2424790743,
				"element": "H" 
			},
			{
				"x": -2.4512187701,
				"y": -2.478824171,
				"z": -0.2213884066,
				"element": "H" 
			},
			{
				"x": -1.2220609877,
				"y": -1.0281268637,
				"z": 1.1357781335,
				"element": "H" 
			}
		],
		 "valence_orbital": [ 
			{
				"type": "occ",
				"energy": -0.29924,
				"method": "rhf"
			},
			{
				"type": "occ",
				"energy": -0.28736,
				"method": "rhf"
			},
			{
				"type": "occ",
				"energy": -0.2742,
				"method": "rhf"
			},
			{
				"type": "occ",
				"energy": -0.25462,
				"method": "rhf"
			},
			{
				"type": "occ",
				"energy": -0.24709,
				"method": "rhf"
			},
			{
				"type": "unocc",
				"energy": -0.05568,
				"method": "rhf"
			},
			{
				"type": "unocc",
				"energy": -0.03513,
				"method": "rhf"
			},
			{
				"type": "unocc",
				"energy": -0.00142,
				"method": "rhf"
			},
			{
				"type": "unocc",
				"energy": 0.02921,
				"method": "rhf"
			},
			{
				"type": "unocc",
				"energy": 0.05103,
				"method": "rhf"
			}
		],
		"cosmo_sigma_profile": { 
			"-0.025": 0.0,
			"-0.024": 0.0,
			"-0.023": 0.0,
			"-0.022": 0.0,
			"-0.021": 0.0,
			"-0.02": 0.0,
			"-0.019": 0.0,
			"-0.018": 0.0,
			"-0.017": 0.0,
			"-0.016": 0.0671390644504,
			"-0.015": 0.885859663486,
			"-0.014": 1.33053700915,
			"-0.013": 0.82537561758,
			"-0.012": 1.39592069053,
			"-0.011": 2.10282147821,
			"-0.01": 3.31718253837,
			"-0.009": 2.54976788331,
			"-0.008": 5.0380940115,
			"-0.007": 8.73473659523,
			"-0.006": 12.6927125252,
			"-0.005": 17.7676888811,
			"-0.004": 27.7365177076,
			"-0.003": 34.5000889372,
			"-0.002": 36.3007899279,
			"-0.001": 34.3031085466,
			"0.0": 32.8538340855,
			"0.001": 23.0136089369,
			"0.002": 17.0379983854,
			"0.003": 11.5178565513,
			"0.004": 9.79607204168,
			"0.005": 10.9489812141,
			"0.006": 10.2151045532,
			"0.007": 5.3041269631,
			"0.008": 4.60900970827,
			"0.009": 5.56420941111,
			"0.01": 6.56874983437,
			"0.011": 9.71988751923,
			"0.012": 9.93581180115,
			"0.013": 3.83022344413,
			"0.014": 0.797372057052,
			"0.015": 0.0,
			"0.016": 0.0,
			"0.017": 0.0,
			"0.018": 0.0,
			"0.019": 0.0,
			"0.02": 0.0,
			"0.021": 0.0,
			"0.022": 0.0,
			"0.023": 0.0,
			"0.024": 0.0,
			"0.025": 0.0
		}
	}
}
