{
	 "smiles": "CCN1CCN(CC1)S(=O)(=O)C1=CC(N)=CC=C1", 
	 "Tm": 368.15, 
	 "num_atms": 37, 
	 "gaussian": { 
		 "optdone": 1, 
		 "sigma_profile": "yes", 
		 "theory": "DFT", 
		 "functional": "B3LYP", 
		 "basiset": "6-31G**", 
		 "properties": { 
			 "R2extent": 6585.2372, 
			 "electric_dipole_moment_norm": 7.08552555919, 
			 "electric_quadrupole_moment_norm": 31.0313904755, 
			 "total_energy": -1181.53436358, 
			 "HOMO_LUMO_gap": 0.18258, 
			 "cosmo_polarized_energy": -19.83, 
			 "cosmo_cavitation_energy": 39.03, 
			 "cosmo_dispersion_energy": -27.5, 
			 "cosmo_repulsion_energy": 2.11, 
			 "cosmo_total_nonelectrostatic_energy": 13.65, 
			 "SMD_solvation_energy": 1.91 
		},
		"coords": [
			{
				"x": 1.6587205863,
				"y": -0.9485245896,
				"z": 3.2503347769,
				"element": "C" 
			},
			{
				"x": 0.7185240202,
				"y": 0.2205323815,
				"z": 2.9503309613,
				"element": "C" 
			},
			{
				"x": 1.3929964516,
				"y": 1.3259803515,
				"z": 2.2697571024,
				"element": "N" 
			},
			{
				"x": 0.6384206405,
				"y": 2.5891168287,
				"z": 2.2768997418,
				"element": "C" 
			},
			{
				"x": -0.151675254,
				"y": 2.8510110817,
				"z": 0.9894652253,
				"element": "C" 
			},
			{
				"x": 0.8138395983,
				"y": 2.9417172246,
				"z": -0.1219160758,
				"element": "N" 
			},
			{
				"x": 2.0725790764,
				"y": 2.1891769826,
				"z": 0.0528939935,
				"element": "C" 
			},
			{
				"x": 1.8610551583,
				"y": 0.9538990776,
				"z": 0.9259154504,
				"element": "C" 
			},
			{
				"x": 0.1951146758,
				"y": 3.1692052203,
				"z": -1.6638834847,
				"element": "S" 
			},
			{
				"x": -0.8398432842,
				"y": 4.1978948305,
				"z": -1.5304186951,
				"element": "O" 
			},
			{
				"x": 1.3493781354,
				"y": 3.3265486233,
				"z": -2.5523097758,
				"element": "O" 
			},
			{
				"x": -0.6363939056,
				"y": 1.6398844007,
				"z": -2.1296540095,
				"element": "C" 
			},
			{
				"x": -1.9935922747,
				"y": 1.504145421,
				"z": -1.8432737295,
				"element": "C" 
			},
			{
				"x": -2.6544659439,
				"y": 0.3019474006,
				"z": -2.1534703219,
				"element": "C" 
			},
			{
				"x": -4.021389313,
				"y": 0.1717261771,
				"z": -1.9383626988,
				"element": "N" 
			},
			{
				"x": -1.914080514,
				"y": -0.7396063315,
				"z": -2.7427730603,
				"element": "C" 
			},
			{
				"x": -0.5609379388,
				"y": -0.5769358497,
				"z": -3.029249144,
				"element": "C" 
			},
			{
				"x": 0.1008787447,
				"y": 0.6146191148,
				"z": -2.7286687138,
				"element": "C" 
			},
			{
				"x": 2.5271755699,
				"y": -0.6021770379,
				"z": 3.8189604632,
				"element": "H" 
			},
			{
				"x": 2.0193748362,
				"y": -1.4317592469,
				"z": 2.3371862217,
				"element": "H" 
			},
			{
				"x": 1.1372154597,
				"y": -1.7098642836,
				"z": 3.8393264302,
				"element": "H" 
			},
			{
				"x": -0.1517739536,
				"y": -0.1546238959,
				"z": 2.3730107505,
				"element": "H" 
			},
			{
				"x": 0.3264523533,
				"y": 0.6051079738,
				"z": 3.8984903122,
				"element": "H" 
			},
			{
				"x": -0.0531747688,
				"y": 2.5852199418,
				"z": 3.124182484,
				"element": "H" 
			},
			{
				"x": 1.3258757065,
				"y": 3.4301820945,
				"z": 2.4362355492,
				"element": "H" 
			},
			{
				"x": -0.8784020005,
				"y": 2.039474027,
				"z": 0.8269358388,
				"element": "H" 
			},
			{
				"x": -0.7036321824,
				"y": 3.7916776356,
				"z": 1.055825074,
				"element": "H" 
			},
			{
				"x": 2.8192849404,
				"y": 2.8488256471,
				"z": 0.5111481699,
				"element": "H" 
			},
			{
				"x": 2.4597682715,
				"y": 1.9084684388,
				"z": -0.9272696094,
				"element": "H" 
			},
			{
				"x": 2.807777591,
				"y": 0.4051238572,
				"z": 0.9994581709,
				"element": "H" 
			},
			{
				"x": 1.1415692755,
				"y": 0.2851107593,
				"z": 0.4164678691,
				"element": "H" 
			},
			{
				"x": -2.5380870656,
				"y": 2.342529022,
				"z": -1.4210798935,
				"element": "H" 
			},
			{
				"x": -4.3738775853,
				"y": -0.771425552,
				"z": -1.8634458645,
				"element": "H" 
			},
			{
				"x": -4.4284126107,
				"y": 0.7994725352,
				"z": -1.2603945368,
				"element": "H" 
			},
			{
				"x": -2.4133584848,
				"y": -1.6721696831,
				"z": -2.9933644917,
				"element": "H" 
			},
			{
				"x": -0.016915984,
				"y": -1.3895172444,
				"z": -3.5021296038,
				"element": "H" 
			},
			{
				"x": 1.1434119725,
				"y": 0.7639066655,
				"z": -2.9821608763,
				"element": "H" 
			}
		],
		 "valence_orbital": [ 
			{
				"type": "occ",
				"energy": -0.29226,
				"method": "rhf"
			},
			{
				"type": "occ",
				"energy": -0.26866,
				"method": "rhf"
			},
			{
				"type": "occ",
				"energy": -0.24273,
				"method": "rhf"
			},
			{
				"type": "occ",
				"energy": -0.21803,
				"method": "rhf"
			},
			{
				"type": "occ",
				"energy": -0.21117,
				"method": "rhf"
			},
			{
				"type": "unocc",
				"energy": -0.02859,
				"method": "rhf"
			},
			{
				"type": "unocc",
				"energy": -0.00306,
				"method": "rhf"
			},
			{
				"type": "unocc",
				"energy": 0.06141,
				"method": "rhf"
			},
			{
				"type": "unocc",
				"energy": 0.06981,
				"method": "rhf"
			},
			{
				"type": "unocc",
				"energy": 0.0787,
				"method": "rhf"
			}
		],
		"cosmo_sigma_profile": { 
			"-0.025": 0.0,
			"-0.024": 0.0,
			"-0.023": 0.0,
			"-0.022": 0.0,
			"-0.021": 0.0,
			"-0.02": 0.0,
			"-0.019": 0.0,
			"-0.018": 0.0,
			"-0.017": 0.0,
			"-0.016": 0.0,
			"-0.015": 0.0,
			"-0.014": 0.0333757490885,
			"-0.013": 1.57431288186,
			"-0.012": 3.2819571668,
			"-0.011": 2.91978097589,
			"-0.01": 3.52365884656,
			"-0.009": 2.63606940165,
			"-0.008": 3.38323094251,
			"-0.007": 4.20764859652,
			"-0.006": 8.45329749531,
			"-0.005": 17.175534955,
			"-0.004": 26.7034991601,
			"-0.003": 33.6949606938,
			"-0.002": 31.5575951268,
			"-0.001": 27.6786649713,
			"0.0": 21.7660912926,
			"0.001": 18.3548736968,
			"0.002": 12.7936418833,
			"0.003": 13.0056429386,
			"0.004": 16.3889143446,
			"0.005": 9.1006262795,
			"0.006": 5.22262799952,
			"0.007": 6.49105012281,
			"0.008": 5.29606320128,
			"0.009": 4.7807622119,
			"0.01": 7.35013452762,
			"0.011": 9.18942065588,
			"0.012": 6.91014668413,
			"0.013": 1.31258793955,
			"0.014": 0.283508818287,
			"0.015": 0.350354337119,
			"0.016": 0.166499069366,
			"0.017": 0.0,
			"0.018": 0.0,
			"0.019": 0.0,
			"0.02": 0.0,
			"0.021": 0.0,
			"0.022": 0.0,
			"0.023": 0.0,
			"0.024": 0.0,
			"0.025": 0.0
		}
	}
}
