{
	 "smiles": "COC(=O)CC[C@H](C)[C@H]1CCC2C3[C@@H](O)[C@@H](O)[C@@H]4CC(CC[C@]4(C)C3C[C@H](OC(C)=O)[C@]12C)OC(C)=O", 
	 "Tm": 449.15, 
	 "num_atms": 83, 
	 "gaussian": { 
		 "optdone": 1, 
		 "sigma_profile": "yes", 
		 "theory": "DFT", 
		 "functional": "B3LYP", 
		 "basiset": "6-31G**", 
		 "properties": { 
			 "R2extent": 23864.2054, 
			 "electric_dipole_moment_norm": 3.01219101818, 
			 "electric_quadrupole_moment_norm": 37.0731428042, 
			 "total_energy": -1734.62859286, 
			 "HOMO_LUMO_gap": 0.26281, 
			 "cosmo_polarized_energy": -24.97, 
			 "cosmo_cavitation_energy": 72.42, 
			 "cosmo_dispersion_energy": -47.14, 
			 "cosmo_repulsion_energy": 3.51, 
			 "cosmo_total_nonelectrostatic_energy": 28.78, 
			 "SMD_solvation_energy": 14.07 
		},
		"coords": [
			{
				"x": 5.6472071494,
				"y": -3.590922951,
				"z": 4.203924609,
				"element": "C" 
			},
			{
				"x": 4.5473585373,
				"y": -2.8861697702,
				"z": 3.6081753458,
				"element": "O" 
			},
			{
				"x": 3.9112624831,
				"y": -2.0118057911,
				"z": 4.4235463476,
				"element": "C" 
			},
			{
				"x": 4.2221324179,
				"y": -1.8452965112,
				"z": 5.5844857396,
				"element": "O" 
			},
			{
				"x": 2.8136178654,
				"y": -1.2758786906,
				"z": 3.6805406008,
				"element": "C" 
			},
			{
				"x": 1.7413062032,
				"y": -0.7210492427,
				"z": 4.6269581009,
				"element": "C" 
			},
			{
				"x": 0.8249319569,
				"y": 0.388440479,
				"z": 4.0499356203,
				"element": "C" 
			},
			{
				"x": -0.11273801,
				"y": 0.8536753901,
				"z": 5.1805694506,
				"element": "C" 
			},
			{
				"x": 0.1635869305,
				"y": -0.0722679847,
				"z": 2.7201887952,
				"element": "C" 
			},
			{
				"x": -0.8114842707,
				"y": -1.2906792008,
				"z": 2.871615702,
				"element": "C" 
			},
			{
				"x": -1.8172426021,
				"y": -1.2196015878,
				"z": 1.6837603486,
				"element": "C" 
			},
			{
				"x": -1.187453116,
				"y": -0.1544857354,
				"z": 0.7784296545,
				"element": "C" 
			},
			{
				"x": -1.9285009405,
				"y": 0.4965919053,
				"z": -0.3931855757,
				"element": "C" 
			},
			{
				"x": -2.8489994691,
				"y": -0.431683509,
				"z": -1.189229306,
				"element": "C" 
			},
			{
				"x": -4.0655801745,
				"y": -0.5445588209,
				"z": -0.428599149,
				"element": "O" 
			},
			{
				"x": -3.1703256819,
				"y": 0.170702738,
				"z": -2.5599950947,
				"element": "C" 
			},
			{
				"x": -3.7517264441,
				"y": 1.4595327734,
				"z": -2.3945854916,
				"element": "O" 
			},
			{
				"x": -1.9257749854,
				"y": 0.2818835503,
				"z": -3.4586197071,
				"element": "C" 
			},
			{
				"x": -1.8289911603,
				"y": -1.0167535913,
				"z": -4.3005577203,
				"element": "C" 
			},
			{
				"x": -0.478951711,
				"y": -1.1859564885,
				"z": -4.9780987729,
				"element": "C" 
			},
			{
				"x": 0.6567609101,
				"y": -1.2761075381,
				"z": -3.9417679082,
				"element": "C" 
			},
			{
				"x": 0.2701201159,
				"y": -0.663592253,
				"z": -2.5763023897,
				"element": "C" 
			},
			{
				"x": -0.5849262095,
				"y": 0.6276105024,
				"z": -2.6916457717,
				"element": "C" 
			},
			{
				"x": 0.1943948174,
				"y": 1.6762891296,
				"z": -3.5228429617,
				"element": "C" 
			},
			{
				"x": -0.9037433067,
				"y": 1.2791140499,
				"z": -1.2952214302,
				"element": "C" 
			},
			{
				"x": 0.3870779638,
				"y": 1.6255720804,
				"z": -0.4966873504,
				"element": "C" 
			},
			{
				"x": 0.0721641923,
				"y": 2.0143379361,
				"z": 0.954191304,
				"element": "C" 
			},
			{
				"x": 1.1942507578,
				"y": 2.6731698186,
				"z": 1.6257233513,
				"element": "O" 
			},
			{
				"x": 2.4426690872,
				"y": 2.169368553,
				"z": 1.6115269247,
				"element": "C" 
			},
			{
				"x": 3.4042892491,
				"y": 3.144162149,
				"z": 2.2566229567,
				"element": "C" 
			},
			{
				"x": 2.7647827401,
				"y": 1.0894871637,
				"z": 1.156160835,
				"element": "O" 
			},
			{
				"x": -0.6463043692,
				"y": 0.9045756255,
				"z": 1.7937648005,
				"element": "C" 
			},
			{
				"x": -1.7923919734,
				"y": 1.604341336,
				"z": 2.5627948671,
				"element": "C" 
			},
			{
				"x": -0.5576878717,
				"y": -2.4062676557,
				"z": -5.7666036201,
				"element": "O" 
			},
			{
				"x": 0.2944646334,
				"y": -2.5082014629,
				"z": -6.8131690821,
				"element": "C" 
			},
			{
				"x": 0.0889137987,
				"y": -3.8145487714,
				"z": -7.544910074,
				"element": "C" 
			},
			{
				"x": 1.1069689021,
				"y": -1.6594083494,
				"z": -7.1118430833,
				"element": "O" 
			},
			{
				"x": 6.0425534714,
				"y": -4.2380399318,
				"z": 3.4206721572,
				"element": "H" 
			},
			{
				"x": 5.3095111564,
				"y": -4.1847352826,
				"z": 5.0573222705,
				"element": "H" 
			},
			{
				"x": 6.4150739854,
				"y": -2.8924318956,
				"z": 4.5468331534,
				"element": "H" 
			},
			{
				"x": 2.4033543066,
				"y": -1.9505541221,
				"z": 2.9237581421,
				"element": "H" 
			},
			{
				"x": 3.2951788922,
				"y": -0.4654357285,
				"z": 3.1166384011,
				"element": "H" 
			},
			{
				"x": 2.2513286231,
				"y": -0.321655193,
				"z": 5.5095834461,
				"element": "H" 
			},
			{
				"x": 1.1223324026,
				"y": -1.5506997049,
				"z": 4.99360809,
				"element": "H" 
			},
			{
				"x": 1.4732261971,
				"y": 1.2400978402,
				"z": 3.8099188443,
				"element": "H" 
			},
			{
				"x": -0.8523511425,
				"y": 0.0898754122,
				"z": 5.4440495577,
				"element": "H" 
			},
			{
				"x": -0.650835397,
				"y": 1.7698317936,
				"z": 4.935908972,
				"element": "H" 
			},
			{
				"x": 0.4746834881,
				"y": 1.0528520332,
				"z": 6.0835804744,
				"element": "H" 
			},
			{
				"x": 0.9968890783,
				"y": -0.402133203,
				"z": 2.0939379898,
				"element": "H" 
			},
			{
				"x": -0.2492967187,
				"y": -2.2299569472,
				"z": 2.8614587318,
				"element": "H" 
			},
			{
				"x": -1.3413340232,
				"y": -1.2622876179,
				"z": 3.8283874255,
				"element": "H" 
			},
			{
				"x": -1.9267574609,
				"y": -2.1828580322,
				"z": 1.1753470488,
				"element": "H" 
			},
			{
				"x": -2.8168422247,
				"y": -0.9240551375,
				"z": 2.0128908984,
				"element": "H" 
			},
			{
				"x": -0.2967403929,
				"y": -0.6355430491,
				"z": 0.352387026,
				"element": "H" 
			},
			{
				"x": -2.6178886554,
				"y": 1.244623931,
				"z": 0.0118063474,
				"element": "H" 
			},
			{
				"x": -2.3990762267,
				"y": -1.4264053404,
				"z": -1.3200367143,
				"element": "H" 
			},
			{
				"x": -4.580530938,
				"y": -1.2768526582,
				"z": -0.7936181391,
				"element": "H" 
			},
			{
				"x": -3.8981189511,
				"y": -0.492543772,
				"z": -3.0631461198,
				"element": "H" 
			},
			{
				"x": -4.4066691865,
				"y": 1.3595284052,
				"z": -1.6863609371,
				"element": "H" 
			},
			{
				"x": -2.1398743562,
				"y": 1.1114526264,
				"z": -4.1424224187,
				"element": "H" 
			},
			{
				"x": -2.0019364947,
				"y": -1.895538736,
				"z": -3.6645318698,
				"element": "H" 
			},
			{
				"x": -2.6247021365,
				"y": -1.0202557011,
				"z": -5.0531730532,
				"element": "H" 
			},
			{
				"x": -0.2948164708,
				"y": -0.3680868023,
				"z": -5.6792827122,
				"element": "H" 
			},
			{
				"x": 1.5555092539,
				"y": -0.8022855056,
				"z": -4.345333139,
				"element": "H" 
			},
			{
				"x": 0.8996916564,
				"y": -2.3345320368,
				"z": -3.7973544627,
				"element": "H" 
			},
			{
				"x": -0.2764404136,
				"y": -1.4116106672,
				"z": -1.9909133587,
				"element": "H" 
			},
			{
				"x": 1.1907774052,
				"y": -0.464574833,
				"z": -2.0217920702,
				"element": "H" 
			},
			{
				"x": 1.1954627035,
				"y": 1.8523961859,
				"z": -3.1175363873,
				"element": "H" 
			},
			{
				"x": -0.3408845173,
				"y": 2.6320437088,
				"z": -3.5316031491,
				"element": "H" 
			},
			{
				"x": 0.3194202008,
				"y": 1.3675386872,
				"z": -4.5636812748,
				"element": "H" 
			},
			{
				"x": -1.3988815693,
				"y": 2.2244582898,
				"z": -1.5433652057,
				"element": "H" 
			},
			{
				"x": 0.8875605271,
				"y": 2.4787595698,
				"z": -0.9651473493,
				"element": "H" 
			},
			{
				"x": 1.100559309,
				"y": 0.8040694334,
				"z": -0.5050026041,
				"element": "H" 
			},
			{
				"x": -0.6307644282,
				"y": 2.8519791706,
				"z": 0.8996895877,
				"element": "H" 
			},
			{
				"x": 4.4072540706,
				"y": 2.718381198,
				"z": 2.2578522765,
				"element": "H" 
			},
			{
				"x": 3.4012842191,
				"y": 4.0902725637,
				"z": 1.7073692368,
				"element": "H" 
			},
			{
				"x": 3.0897131866,
				"y": 3.3632724381,
				"z": 3.2811860834,
				"element": "H" 
			},
			{
				"x": -2.2886038537,
				"y": 0.9491531582,
				"z": 3.2811132183,
				"element": "H" 
			},
			{
				"x": -2.5597805627,
				"y": 1.9827368077,
				"z": 1.8794824775,
				"element": "H" 
			},
			{
				"x": -1.402603311,
				"y": 2.4655850974,
				"z": 3.1121669367,
				"element": "H" 
			},
			{
				"x": -0.9490741379,
				"y": -3.9012270388,
				"z": -7.8788878733,
				"element": "H" 
			},
			{
				"x": 0.2851805664,
				"y": -4.6544031842,
				"z": -6.8715101304,
				"element": "H" 
			},
			{
				"x": 0.7623204545,
				"y": -3.861125504,
				"z": -8.40010069,
				"element": "H" 
			}
		],
		 "valence_orbital": [ 
			{
				"type": "occ",
				"energy": -0.27887,
				"method": "rhf"
			},
			{
				"type": "occ",
				"energy": -0.26664,
				"method": "rhf"
			},
			{
				"type": "occ",
				"energy": -0.26456,
				"method": "rhf"
			},
			{
				"type": "occ",
				"energy": -0.26198,
				"method": "rhf"
			},
			{
				"type": "occ",
				"energy": -0.25542,
				"method": "rhf"
			},
			{
				"type": "unocc",
				"energy": 0.00739,
				"method": "rhf"
			},
			{
				"type": "unocc",
				"energy": 0.015,
				"method": "rhf"
			},
			{
				"type": "unocc",
				"energy": 0.02278,
				"method": "rhf"
			},
			{
				"type": "unocc",
				"energy": 0.05475,
				"method": "rhf"
			},
			{
				"type": "unocc",
				"energy": 0.06745,
				"method": "rhf"
			}
		],
		"cosmo_sigma_profile": { 
			"-0.025": 0.0,
			"-0.024": 0.0,
			"-0.023": 0.0,
			"-0.022": 0.0,
			"-0.021": 0.0,
			"-0.02": 0.0,
			"-0.019": 0.0,
			"-0.018": 0.0,
			"-0.017": 0.0,
			"-0.016": 0.213523553723,
			"-0.015": 1.07483583555,
			"-0.014": 1.12044683567,
			"-0.013": 0.870126626202,
			"-0.012": 0.831403345058,
			"-0.011": 1.45974068553,
			"-0.01": 2.05091994591,
			"-0.009": 1.83921465001,
			"-0.008": 1.57817586132,
			"-0.007": 2.72827358427,
			"-0.006": 14.2936222065,
			"-0.005": 27.4853076851,
			"-0.004": 41.9118395823,
			"-0.003": 68.7672369137,
			"-0.002": 89.6295954036,
			"-0.001": 69.4755264751,
			"0.0": 47.3591636494,
			"0.001": 38.2857685068,
			"0.002": 28.8648054535,
			"0.003": 14.0107889396,
			"0.004": 12.9015422713,
			"0.005": 12.8159850049,
			"0.006": 10.8077876425,
			"0.007": 10.844226942,
			"0.008": 9.67702036368,
			"0.009": 10.2784228787,
			"0.01": 7.66111301392,
			"0.011": 8.04629958893,
			"0.012": 13.0510359431,
			"0.013": 5.97147918676,
			"0.014": 1.45840918803,
			"0.015": 0.408197242335,
			"0.016": 0.0,
			"0.017": 0.0,
			"0.018": 0.0,
			"0.019": 0.0,
			"0.02": 0.0,
			"0.021": 0.0,
			"0.022": 0.0,
			"0.023": 0.0,
			"0.024": 0.0,
			"0.025": 0.0
		}
	}
}
