{
	 "smiles": "COC1=CC2=C(OCC(C2)C(O)=O)C=C1", 
	 "Tm": 394.15, 
	 "num_atms": 27, 
	 "gaussian": { 
		 "optdone": 1, 
		 "sigma_profile": "yes", 
		 "theory": "DFT", 
		 "functional": "B3LYP", 
		 "basiset": "6-31G**", 
		 "properties": { 
			 "R2extent": 3734.3087, 
			 "electric_dipole_moment_norm": 3.42636263989, 
			 "electric_quadrupole_moment_norm": 6.85049034595, 
			 "total_energy": -727.294713093, 
			 "HOMO_LUMO_gap": 0.18943, 
			 "cosmo_polarized_energy": -14.44, 
			 "cosmo_cavitation_energy": 30.11, 
			 "cosmo_dispersion_energy": -22.08, 
			 "cosmo_repulsion_energy": 1.74, 
			 "cosmo_total_nonelectrostatic_energy": 9.77, 
			 "SMD_solvation_energy": 6.86 
		},
		"coords": [
			{
				"x": 2.9002891308,
				"y": -0.223322083,
				"z": 2.9848642944,
				"element": "C" 
			},
			{
				"x": 2.0350669377,
				"y": 0.8938633941,
				"z": 3.0718559523,
				"element": "O" 
			},
			{
				"x": 0.9917758729,
				"y": 0.9703611589,
				"z": 2.1873464543,
				"element": "C" 
			},
			{
				"x": 0.7121568589,
				"y": 0.0247541921,
				"z": 1.2006906887,
				"element": "C" 
			},
			{
				"x": -0.3830001306,
				"y": 0.1856232024,
				"z": 0.3356627481,
				"element": "C" 
			},
			{
				"x": -1.1979103862,
				"y": 1.3126852527,
				"z": 0.4805999222,
				"element": "C" 
			},
			{
				"x": -2.2782388479,
				"y": 1.5709641658,
				"z": -0.3332737369,
				"element": "O" 
			},
			{
				"x": -2.7772811919,
				"y": 0.4715693982,
				"z": -1.0888165689,
				"element": "C" 
			},
			{
				"x": -1.6490230477,
				"y": -0.2918242838,
				"z": -1.7933456457,
				"element": "C" 
			},
			{
				"x": -0.6768596013,
				"y": -0.8429702499,
				"z": -0.7379517381,
				"element": "C" 
			},
			{
				"x": -1.0328464089,
				"y": 0.5985673608,
				"z": -2.8701511109,
				"element": "C" 
			},
			{
				"x": 0.3144073451,
				"y": 0.5088138547,
				"z": -2.9425052905,
				"element": "O" 
			},
			{
				"x": -1.6791620387,
				"y": 1.2925425711,
				"z": -3.6237848306,
				"element": "O" 
			},
			{
				"x": -0.9149362166,
				"y": 2.2683969076,
				"z": 1.4659935315,
				"element": "C" 
			},
			{
				"x": 0.169286214,
				"y": 2.1016782784,
				"z": 2.3123413577,
				"element": "C" 
			},
			{
				"x": 2.365433863,
				"y": -1.1675449876,
				"z": 3.1555304859,
				"element": "H" 
			},
			{
				"x": 3.4054851415,
				"y": -0.2730426907,
				"z": 2.0107456767,
				"element": "H" 
			},
			{
				"x": 3.6483195148,
				"y": -0.0902901369,
				"z": 3.7684086018,
				"element": "H" 
			},
			{
				"x": 1.3408241635,
				"y": -0.8505206055,
				"z": 1.0764314821,
				"element": "H" 
			},
			{
				"x": -3.4675380754,
				"y": 0.9006691761,
				"z": -1.8157564669,
				"element": "H" 
			},
			{
				"x": -3.323571833,
				"y": -0.2174221294,
				"z": -0.4286424358,
				"element": "H" 
			},
			{
				"x": -2.1047087369,
				"y": -1.1252128089,
				"z": -2.3448905496,
				"element": "H" 
			},
			{
				"x": -1.1340417047,
				"y": -1.7323327904,
				"z": -0.2837098542,
				"element": "H" 
			},
			{
				"x": 0.2525701664,
				"y": -1.1754369838,
				"z": -1.2075070999,
				"element": "H" 
			},
			{
				"x": 0.5824978598,
				"y": 1.1007545266,
				"z": -3.6658145843,
				"element": "H" 
			},
			{
				"x": -1.5620377949,
				"y": 3.1356414584,
				"z": 1.5476015676,
				"element": "H" 
			},
			{
				"x": 0.4005429463,
				"y": 2.8320348519,
				"z": 3.080577149,
				"element": "H" 
			}
		],
		 "valence_orbital": [ 
			{
				"type": "occ",
				"energy": -0.30774,
				"method": "rhf"
			},
			{
				"type": "occ",
				"energy": -0.28268,
				"method": "rhf"
			},
			{
				"type": "occ",
				"energy": -0.27646,
				"method": "rhf"
			},
			{
				"type": "occ",
				"energy": -0.24238,
				"method": "rhf"
			},
			{
				"type": "occ",
				"energy": -0.19565,
				"method": "rhf"
			},
			{
				"type": "unocc",
				"energy": -0.00622,
				"method": "rhf"
			},
			{
				"type": "unocc",
				"energy": 0.00893,
				"method": "rhf"
			},
			{
				"type": "unocc",
				"energy": 0.02676,
				"method": "rhf"
			},
			{
				"type": "unocc",
				"energy": 0.07287,
				"method": "rhf"
			},
			{
				"type": "unocc",
				"energy": 0.09663,
				"method": "rhf"
			}
		],
		"cosmo_sigma_profile": { 
			"-0.025": 0.0,
			"-0.024": 0.0,
			"-0.023": 0.0,
			"-0.022": 0.0,
			"-0.021": 0.0,
			"-0.02": 0.0,
			"-0.019": 0.0107682854728,
			"-0.018": 0.854797058345,
			"-0.017": 0.996168407833,
			"-0.016": 0.609088048909,
			"-0.015": 0.940865552968,
			"-0.014": 0.925075902026,
			"-0.013": 0.497838259274,
			"-0.012": 0.503937408607,
			"-0.011": 1.02301636739,
			"-0.01": 0.473012659672,
			"-0.009": 0.489202054998,
			"-0.008": 1.87168538812,
			"-0.007": 4.955792811,
			"-0.006": 13.3433025481,
			"-0.005": 25.887627502,
			"-0.004": 21.2814272307,
			"-0.003": 22.6500463005,
			"-0.002": 16.6790579356,
			"-0.001": 11.3402362682,
			"0.0": 9.01144538165,
			"0.001": 8.22945451497,
			"0.002": 10.7159546649,
			"0.003": 11.2448155952,
			"0.004": 15.4242565652,
			"0.005": 15.8976530905,
			"0.006": 10.858272517,
			"0.007": 7.6597786087,
			"0.008": 4.34893230428,
			"0.009": 3.90549092864,
			"0.01": 5.67743911794,
			"0.011": 5.65584253648,
			"0.012": 3.76612472918,
			"0.013": 0.0295580727028,
			"0.014": 0.0,
			"0.015": 0.0,
			"0.016": 0.0,
			"0.017": 0.0,
			"0.018": 0.0,
			"0.019": 0.0,
			"0.02": 0.0,
			"0.021": 0.0,
			"0.022": 0.0,
			"0.023": 0.0,
			"0.024": 0.0,
			"0.025": 0.0
		}
	}
}
