{
	 "smiles": "CN(C)C(=O)C1=CC(=CC=C1)S(N)(=O)=O", 
	 "Tm": 395.15, 
	 "num_atms": 27, 
	 "gaussian": { 
		 "optdone": 1, 
		 "sigma_profile": "yes", 
		 "theory": "DFT", 
		 "functional": "B3LYP", 
		 "basiset": "6-31G**", 
		 "properties": { 
			 "R2extent": 4755.9438, 
			 "electric_dipole_moment_norm": 4.15860998893, 
			 "electric_quadrupole_moment_norm": 19.0231658333, 
			 "total_energy": -1083.49110733, 
			 "HOMO_LUMO_gap": 0.19591, 
			 "cosmo_polarized_energy": -21.06, 
			 "cosmo_cavitation_energy": 32.3, 
			 "cosmo_dispersion_energy": -23.64, 
			 "cosmo_repulsion_energy": 1.83, 
			 "cosmo_total_nonelectrostatic_energy": 10.48, 
			 "SMD_solvation_energy": 5.76 
		},
		"coords": [
			{
				"x": 2.8716025089,
				"y": -0.0772209641,
				"z": -1.6496745124,
				"element": "C" 
			},
			{
				"x": 2.91163971,
				"y": -0.7938179041,
				"z": -0.3814388729,
				"element": "N" 
			},
			{
				"x": 3.8703144272,
				"y": -1.8910586772,
				"z": -0.3238503192,
				"element": "C" 
			},
			{
				"x": 1.9261886888,
				"y": -0.7541614376,
				"z": 0.5781079672,
				"element": "C" 
			},
			{
				"x": 1.8029570377,
				"y": -1.6309464608,
				"z": 1.4302328237,
				"element": "O" 
			},
			{
				"x": 1.0045796889,
				"y": 0.4402006238,
				"z": 0.6166645748,
				"element": "C" 
			},
			{
				"x": -0.3489564485,
				"y": 0.2014535356,
				"z": 0.8852831712,
				"element": "C" 
			},
			{
				"x": -1.2185419704,
				"y": 1.2795708836,
				"z": 1.0196512636,
				"element": "C" 
			},
			{
				"x": -0.774036206,
				"y": 2.5996417124,
				"z": 0.9127613126,
				"element": "C" 
			},
			{
				"x": 0.5790389349,
				"y": 2.8331388651,
				"z": 0.6754889191,
				"element": "C" 
			},
			{
				"x": 1.4624342513,
				"y": 1.7614382233,
				"z": 0.5266591231,
				"element": "C" 
			},
			{
				"x": -2.9570958324,
				"y": 0.968518187,
				"z": 1.3384779565,
				"element": "S" 
			},
			{
				"x": -3.0482415688,
				"y": 1.0117885804,
				"z": 3.0297837636,
				"element": "N" 
			},
			{
				"x": -3.7186977667,
				"y": 2.1292907146,
				"z": 0.8677385031,
				"element": "O" 
			},
			{
				"x": -3.2507061131,
				"y": -0.3942936413,
				"z": 0.8856532943,
				"element": "O" 
			},
			{
				"x": 2.012828514,
				"y": 0.5895139094,
				"z": -1.6939623105,
				"element": "H" 
			},
			{
				"x": 2.7924573947,
				"y": -0.7906095432,
				"z": -2.4808321838,
				"element": "H" 
			},
			{
				"x": 3.7850205967,
				"y": 0.5124975355,
				"z": -1.797551701,
				"element": "H" 
			},
			{
				"x": 4.8646455116,
				"y": -1.5211292353,
				"z": -0.596498385,
				"element": "H" 
			},
			{
				"x": 3.5969272505,
				"y": -2.6966258347,
				"z": -1.0188572912,
				"element": "H" 
			},
			{
				"x": 3.8860496019,
				"y": -2.2944453641,
				"z": 0.6869653896,
				"element": "H" 
			},
			{
				"x": -0.7091351703,
				"y": -0.8164135312,
				"z": 0.9801575383,
				"element": "H" 
			},
			{
				"x": -1.4800980852,
				"y": 3.4172554286,
				"z": 1.0061650599,
				"element": "H" 
			},
			{
				"x": 0.94706553,
				"y": 3.8520768739,
				"z": 0.604383969,
				"element": "H" 
			},
			{
				"x": 2.5168759648,
				"y": 1.9538466633,
				"z": 0.3535665967,
				"element": "H" 
			},
			{
				"x": -3.1476022971,
				"y": 0.0700245602,
				"z": 3.4003402651,
				"element": "H" 
			},
			{
				"x": -3.8335141534,
				"y": 1.600366297,
				"z": 3.2961840845,
				"element": "H" 
			}
		],
		 "valence_orbital": [ 
			{
				"type": "occ",
				"energy": -0.30086,
				"method": "rhf"
			},
			{
				"type": "occ",
				"energy": -0.27899,
				"method": "rhf"
			},
			{
				"type": "occ",
				"energy": -0.26981,
				"method": "rhf"
			},
			{
				"type": "occ",
				"energy": -0.25432,
				"method": "rhf"
			},
			{
				"type": "occ",
				"energy": -0.24357,
				"method": "rhf"
			},
			{
				"type": "unocc",
				"energy": -0.04766,
				"method": "rhf"
			},
			{
				"type": "unocc",
				"energy": -0.03409,
				"method": "rhf"
			},
			{
				"type": "unocc",
				"energy": 0.03231,
				"method": "rhf"
			},
			{
				"type": "unocc",
				"energy": 0.0546,
				"method": "rhf"
			},
			{
				"type": "unocc",
				"energy": 0.08074,
				"method": "rhf"
			}
		],
		"cosmo_sigma_profile": { 
			"-0.025": 0.0,
			"-0.024": 0.0,
			"-0.023": 0.0,
			"-0.022": 0.0,
			"-0.021": 0.0,
			"-0.02": 0.0,
			"-0.019": 0.0,
			"-0.018": 0.0,
			"-0.017": 0.0,
			"-0.016": 0.0234661176556,
			"-0.015": 1.43232238226,
			"-0.014": 2.46366601271,
			"-0.013": 2.87130678551,
			"-0.012": 2.59587567281,
			"-0.011": 1.64675334205,
			"-0.01": 1.59116272631,
			"-0.009": 2.4530484245,
			"-0.008": 2.34557659249,
			"-0.007": 7.43444382061,
			"-0.006": 9.21482515045,
			"-0.005": 20.0571193198,
			"-0.004": 25.4596124314,
			"-0.003": 24.7985917828,
			"-0.002": 24.5854611175,
			"-0.001": 13.8156805942,
			"0.0": 12.8381903605,
			"0.001": 14.970649252,
			"0.002": 14.4981108664,
			"0.003": 7.10122016399,
			"0.004": 4.96456216695,
			"0.005": 4.99481051687,
			"0.006": 5.17199562225,
			"0.007": 5.32326630989,
			"0.008": 4.92691226654,
			"0.009": 5.57691939429,
			"0.01": 9.83776366681,
			"0.011": 11.255002929,
			"0.012": 4.32019579702,
			"0.013": 4.48277632223,
			"0.014": 3.02272946076,
			"0.015": 0.235580992486,
			"0.016": 0.0,
			"0.017": 0.0,
			"0.018": 0.0,
			"0.019": 0.0,
			"0.02": 0.0,
			"0.021": 0.0,
			"0.022": 0.0,
			"0.023": 0.0,
			"0.024": 0.0,
			"0.025": 0.0
		}
	}
}
