{
	 "smiles": "CC1=NN(CC(O)=O)C(=O)C=C1", 
	 "Tm": 523.15, 
	 "num_atms": 20, 
	 "gaussian": { 
		 "optdone": 1, 
		 "sigma_profile": "yes", 
		 "theory": "DFT", 
		 "functional": "B3LYP", 
		 "basiset": "6-31G**", 
		 "properties": { 
			 "R2extent": 2132.6976, 
			 "electric_dipole_moment_norm": 4.8409257689, 
			 "electric_quadrupole_moment_norm": 8.16218945994, 
			 "total_energy": -606.733352189, 
			 "HOMO_LUMO_gap": 0.17042, 
			 "cosmo_polarized_energy": -16.59, 
			 "cosmo_cavitation_energy": 25.08, 
			 "cosmo_dispersion_energy": -18.03, 
			 "cosmo_repulsion_energy": 1.47, 
			 "cosmo_total_nonelectrostatic_energy": 8.53, 
			 "SMD_solvation_energy": 5.63 
		},
		"coords": [
			{
				"x": -1.8330730811,
				"y": -1.8954314916,
				"z": -1.9955432366,
				"element": "C" 
			},
			{
				"x": -1.3882113679,
				"y": -0.986807227,
				"z": -0.8811107103,
				"element": "C" 
			},
			{
				"x": -0.1365201861,
				"y": -1.0676038164,
				"z": -0.5068456861,
				"element": "N" 
			},
			{
				"x": 0.2812518993,
				"y": -0.264765041,
				"z": 0.4927392617,
				"element": "N" 
			},
			{
				"x": 1.6833714492,
				"y": -0.3814013196,
				"z": 0.8609311727,
				"element": "C" 
			},
			{
				"x": 2.5617951678,
				"y": 0.7889229039,
				"z": 0.4330470545,
				"element": "C" 
			},
			{
				"x": 2.0153367082,
				"y": 1.5300657563,
				"z": -0.5513180162,
				"element": "O" 
			},
			{
				"x": 3.6578769499,
				"y": 0.9917972317,
				"z": 0.8995282407,
				"element": "O" 
			},
			{
				"x": -0.4838764169,
				"y": 0.6948794614,
				"z": 1.1816703528,
				"element": "C" 
			},
			{
				"x": 0.0319579317,
				"y": 1.3901210029,
				"z": 2.0535622655,
				"element": "O" 
			},
			{
				"x": -1.8692513232,
				"y": 0.7372183518,
				"z": 0.7465119585,
				"element": "C" 
			},
			{
				"x": -2.3008637553,
				"y": -0.0720176992,
				"z": -0.253836714,
				"element": "C" 
			},
			{
				"x": -2.2074296295,
				"y": -1.3183959542,
				"z": -2.84897733,
				"element": "H" 
			},
			{
				"x": -2.6447273534,
				"y": -2.5551274912,
				"z": -1.6676369742,
				"element": "H" 
			},
			{
				"x": -0.9962467681,
				"y": -2.5103321765,
				"z": -2.3301976592,
				"element": "H" 
			},
			{
				"x": 1.7788295262,
				"y": -0.4635489952,
				"z": 1.9448878196,
				"element": "H" 
			},
			{
				"x": 2.0655053768,
				"y": -1.2890557009,
				"z": 0.3896141954,
				"element": "H" 
			},
			{
				"x": 2.6530162226,
				"y": 2.2393378589,
				"z": -0.7387993085,
				"element": "H" 
			},
			{
				"x": -2.5152118687,
				"y": 1.4464069289,
				"z": 1.2519485848,
				"element": "H" 
			},
			{
				"x": -3.3333294815,
				"y": -0.0411625832,
				"z": -0.592175271,
				"element": "H" 
			}
		],
		 "valence_orbital": [ 
			{
				"type": "occ",
				"energy": -0.31651,
				"method": "rhf"
			},
			{
				"type": "occ",
				"energy": -0.31568,
				"method": "rhf"
			},
			{
				"type": "occ",
				"energy": -0.2811,
				"method": "rhf"
			},
			{
				"type": "occ",
				"energy": -0.25182,
				"method": "rhf"
			},
			{
				"type": "occ",
				"energy": -0.23483,
				"method": "rhf"
			},
			{
				"type": "unocc",
				"energy": -0.06441,
				"method": "rhf"
			},
			{
				"type": "unocc",
				"energy": -0.00129,
				"method": "rhf"
			},
			{
				"type": "unocc",
				"energy": 0.00849,
				"method": "rhf"
			},
			{
				"type": "unocc",
				"energy": 0.07513,
				"method": "rhf"
			},
			{
				"type": "unocc",
				"energy": 0.09343,
				"method": "rhf"
			}
		],
		"cosmo_sigma_profile": { 
			"-0.025": 0.0,
			"-0.024": 0.0,
			"-0.023": 0.0,
			"-0.022": 0.0,
			"-0.021": 0.0,
			"-0.02": 0.0,
			"-0.019": 0.337708795008,
			"-0.018": 1.07721046693,
			"-0.017": 0.834229378345,
			"-0.016": 0.884126319456,
			"-0.015": 0.42673809994,
			"-0.014": 1.06717735774,
			"-0.013": 0.857323975275,
			"-0.012": 0.607636705729,
			"-0.011": 0.7976779658,
			"-0.01": 0.857557588538,
			"-0.009": 2.21895058219,
			"-0.008": 6.92588333575,
			"-0.007": 8.34509518403,
			"-0.006": 9.7576607537,
			"-0.005": 15.3257665616,
			"-0.004": 12.2823453902,
			"-0.003": 14.0893100684,
			"-0.002": 14.7669860859,
			"-0.001": 17.9102290598,
			"0.0": 13.3972071415,
			"0.001": 7.90690183599,
			"0.002": 6.33050777099,
			"0.003": 6.0455574605,
			"0.004": 6.03124825694,
			"0.005": 7.38237329903,
			"0.006": 5.35801807253,
			"0.007": 5.92163441068,
			"0.008": 4.45795223527,
			"0.009": 3.25272024488,
			"0.01": 5.33563279407,
			"0.011": 7.06932257965,
			"0.012": 4.27697400725,
			"0.013": 4.04666876035,
			"0.014": 2.84805853067,
			"0.015": 0.353117102293,
			"0.016": 0.0,
			"0.017": 0.0,
			"0.018": 0.0,
			"0.019": 0.0,
			"0.02": 0.0,
			"0.021": 0.0,
			"0.022": 0.0,
			"0.023": 0.0,
			"0.024": 0.0,
			"0.025": 0.0
		}
	}
}
