{
	 "smiles": "COC1=C(C(C)=O)C(O)=CC=C1", 
	 "Tm": 332.15, 
	 "num_atms": 22, 
	 "gaussian": { 
		 "optdone": 1, 
		 "sigma_profile": "yes", 
		 "theory": "DFT", 
		 "functional": "B3LYP", 
		 "basiset": "6-31G**", 
		 "properties": { 
			 "R2extent": 2851.9926, 
			 "electric_dipole_moment_norm": 3.54719875958, 
			 "electric_quadrupole_moment_norm": 12.8933307012, 
			 "total_energy": -574.631073328, 
			 "HOMO_LUMO_gap": 0.19756, 
			 "cosmo_polarized_energy": -12.79, 
			 "cosmo_cavitation_energy": 25.71, 
			 "cosmo_dispersion_energy": -18.63, 
			 "cosmo_repulsion_energy": 1.5, 
			 "cosmo_total_nonelectrostatic_energy": 8.58, 
			 "SMD_solvation_energy": 6.26 
		},
		"coords": [
			{
				"x": -1.7070760086,
				"y": 0.5345846177,
				"z": 0.5188176148,
				"element": "C" 
			},
			{
				"x": -1.6855638097,
				"y": 0.0505960412,
				"z": -0.829930094,
				"element": "O" 
			},
			{
				"x": -0.9752234681,
				"y": -1.1089495113,
				"z": -1.0231696644,
				"element": "C" 
			},
			{
				"x": 0.3377499547,
				"y": -1.0392853086,
				"z": -1.5237364788,
				"element": "C" 
			},
			{
				"x": 0.9920638948,
				"y": 0.3083947389,
				"z": -1.7288802589,
				"element": "C" 
			},
			{
				"x": 1.4732998637,
				"y": 0.6504590274,
				"z": -3.123060389,
				"element": "C" 
			},
			{
				"x": 1.0785281229,
				"y": 1.1028039096,
				"z": -0.8091001557,
				"element": "O" 
			},
			{
				"x": 1.008340622,
				"y": -2.2457655041,
				"z": -1.795726203,
				"element": "C" 
			},
			{
				"x": 2.2921407334,
				"y": -2.1631163721,
				"z": -2.2656358102,
				"element": "O" 
			},
			{
				"x": 0.392759209,
				"y": -3.4789075631,
				"z": -1.5624652839,
				"element": "C" 
			},
			{
				"x": -0.9107450426,
				"y": -3.5187326161,
				"z": -1.0700361744,
				"element": "C" 
			},
			{
				"x": -1.6012037275,
				"y": -2.3393520526,
				"z": -0.8024023437,
				"element": "C" 
			},
			{
				"x": -0.6995022175,
				"y": 0.8206749487,
				"z": 0.8339278156,
				"element": "H" 
			},
			{
				"x": -2.1174903058,
				"y": -0.2193790439,
				"z": 1.2030451241,
				"element": "H" 
			},
			{
				"x": -2.3582081526,
				"y": 1.4109404185,
				"z": 0.5168219197,
				"element": "H" 
			},
			{
				"x": 0.6047683067,
				"y": 0.7192009529,
				"z": -3.7898402292,
				"element": "H" 
			},
			{
				"x": 1.9925434585,
				"y": 1.6101354785,
				"z": -3.1037882772,
				"element": "H" 
			},
			{
				"x": 2.1259110738,
				"y": -0.1331657093,
				"z": -3.5147626309,
				"element": "H" 
			},
			{
				"x": 2.6399167626,
				"y": -3.0550296575,
				"z": -2.3930452289,
				"element": "H" 
			},
			{
				"x": 0.9336979472,
				"y": -4.4000311632,
				"z": -1.7676983653,
				"element": "H" 
			},
			{
				"x": -1.3895572581,
				"y": -4.4786052144,
				"z": -0.900659815,
				"element": "H" 
			},
			{
				"x": -2.6249499586,
				"y": -2.3508704169,
				"z": -0.4440750719,
				"element": "H" 
			}
		],
		 "valence_orbital": [ 
			{
				"type": "occ",
				"energy": -0.32601,
				"method": "rhf"
			},
			{
				"type": "occ",
				"energy": -0.26867,
				"method": "rhf"
			},
			{
				"type": "occ",
				"energy": -0.2517,
				"method": "rhf"
			},
			{
				"type": "occ",
				"energy": -0.23844,
				"method": "rhf"
			},
			{
				"type": "occ",
				"energy": -0.22965,
				"method": "rhf"
			},
			{
				"type": "unocc",
				"energy": -0.03209,
				"method": "rhf"
			},
			{
				"type": "unocc",
				"energy": 0.00352,
				"method": "rhf"
			},
			{
				"type": "unocc",
				"energy": 0.01735,
				"method": "rhf"
			},
			{
				"type": "unocc",
				"energy": 0.05939,
				"method": "rhf"
			},
			{
				"type": "unocc",
				"energy": 0.09057,
				"method": "rhf"
			}
		],
		"cosmo_sigma_profile": { 
			"-0.025": 0.0,
			"-0.024": 0.0,
			"-0.023": 0.0,
			"-0.022": 0.0,
			"-0.021": 0.0,
			"-0.02": 0.0,
			"-0.019": 0.063546191605,
			"-0.018": 0.756551233472,
			"-0.017": 1.30135754654,
			"-0.016": 0.951257162229,
			"-0.015": 1.08940278751,
			"-0.014": 1.10718757624,
			"-0.013": 1.18035355496,
			"-0.012": 0.520690176221,
			"-0.011": 0.8684038324,
			"-0.01": 1.15032839125,
			"-0.009": 1.54836330049,
			"-0.008": 1.03783094443,
			"-0.007": 2.60226997288,
			"-0.006": 7.74410561408,
			"-0.005": 12.0686572203,
			"-0.004": 15.6316177884,
			"-0.003": 16.7358600821,
			"-0.002": 19.8301117018,
			"-0.001": 15.260516865,
			"0.0": 11.5046666824,
			"0.001": 11.9380022621,
			"0.002": 13.2118905024,
			"0.003": 13.8602996743,
			"0.004": 13.9703410002,
			"0.005": 8.36569778681,
			"0.006": 4.4156542593,
			"0.007": 5.60116302944,
			"0.008": 4.37703493317,
			"0.009": 3.96318761973,
			"0.01": 3.15828006992,
			"0.011": 4.77516828614,
			"0.012": 2.46002188688,
			"0.013": 0.923990952,
			"0.014": 0.0207162224329,
			"0.015": 0.0,
			"0.016": 0.0,
			"0.017": 0.0,
			"0.018": 0.0,
			"0.019": 0.0,
			"0.02": 0.0,
			"0.021": 0.0,
			"0.022": 0.0,
			"0.023": 0.0,
			"0.024": 0.0,
			"0.025": 0.0
		}
	}
}
