{
	 "smiles": "CC1=CC=C(OC2=CC=C(NC(=O)CCl)C=C2)C=C1", 
	 "Tm": 429.15, 
	 "num_atms": 33, 
	 "gaussian": { 
		 "optdone": 1, 
		 "sigma_profile": "yes", 
		 "theory": "DFT", 
		 "functional": "B3LYP", 
		 "basiset": "6-31G**", 
		 "properties": { 
			 "R2extent": 10554.8967, 
			 "electric_dipole_moment_norm": 0.917191419498, 
			 "electric_quadrupole_moment_norm": 12.4219546022, 
			 "total_energy": -1245.44330383, 
			 "HOMO_LUMO_gap": 0.18795, 
			 "cosmo_polarized_energy": -12.45, 
			 "cosmo_cavitation_energy": 39.35, 
			 "cosmo_dispersion_energy": -28.58, 
			 "cosmo_repulsion_energy": 2.22, 
			 "cosmo_total_nonelectrostatic_energy": 12.98, 
			 "SMD_solvation_energy": 7.1 
		},
		"coords": [
			{
				"x": 5.7488859543,
				"y": -3.1676095377,
				"z": -0.8131903297,
				"element": "C" 
			},
			{
				"x": 4.3183063091,
				"y": -2.9829627968,
				"z": -0.3634224151,
				"element": "C" 
			},
			{
				"x": 3.2850550638,
				"y": -2.8047625135,
				"z": -1.2934355959,
				"element": "C" 
			},
			{
				"x": 1.964687136,
				"y": -2.6067916245,
				"z": -0.8912459093,
				"element": "C" 
			},
			{
				"x": 1.6622186399,
				"y": -2.5762075369,
				"z": 0.4725250899,
				"element": "C" 
			},
			{
				"x": 0.3676647152,
				"y": -2.4632727405,
				"z": 0.9487379755,
				"element": "O" 
			},
			{
				"x": -0.5178909162,
				"y": -1.5732500883,
				"z": 0.3778236025,
				"element": "C" 
			},
			{
				"x": -1.8639849614,
				"y": -1.9463780817,
				"z": 0.3711713351,
				"element": "C" 
			},
			{
				"x": -2.8229089064,
				"y": -1.0670627455,
				"z": -0.1183724853,
				"element": "C" 
			},
			{
				"x": -2.4530079473,
				"y": 0.1915930373,
				"z": -0.6147373425,
				"element": "C" 
			},
			{
				"x": -3.4854623927,
				"y": 1.0271677603,
				"z": -1.1026987018,
				"element": "N" 
			},
			{
				"x": -3.3821885104,
				"y": 2.2747799319,
				"z": -1.6306284953,
				"element": "C" 
			},
			{
				"x": -2.3519606419,
				"y": 2.9191448469,
				"z": -1.7826677225,
				"element": "O" 
			},
			{
				"x": -4.6811462816,
				"y": 2.9531399202,
				"z": -2.0836514259,
				"element": "C" 
			},
			{
				"x": -6.2263047469,
				"y": 2.0172774268,
				"z": -1.8805535804,
				"element": "Cl" 
			},
			{
				"x": -1.1006515276,
				"y": 0.5629253445,
				"z": -0.6055238482,
				"element": "C" 
			},
			{
				"x": -0.1420556591,
				"y": -0.3173158696,
				"z": -0.1056773349,
				"element": "C" 
			},
			{
				"x": 2.6710085888,
				"y": -2.7557253167,
				"z": 1.4192322671,
				"element": "C" 
			},
			{
				"x": 3.9835294382,
				"y": -2.9617813751,
				"z": 0.9970546773,
				"element": "C" 
			},
			{
				"x": 5.8014874106,
				"y": -3.6632477535,
				"z": -1.7874497062,
				"element": "H" 
			},
			{
				"x": 6.3188122383,
				"y": -3.768846275,
				"z": -0.0982753267,
				"element": "H" 
			},
			{
				"x": 6.2651608336,
				"y": -2.2041235008,
				"z": -0.9112649993,
				"element": "H" 
			},
			{
				"x": 3.5131226862,
				"y": -2.8305376703,
				"z": -2.3562717063,
				"element": "H" 
			},
			{
				"x": 1.1761109885,
				"y": -2.4839071353,
				"z": -1.6259992216,
				"element": "H" 
			},
			{
				"x": -2.1430666479,
				"y": -2.921688889,
				"z": 0.755103322,
				"element": "H" 
			},
			{
				"x": -3.8690358379,
				"y": -1.3640756992,
				"z": -0.1197239101,
				"element": "H" 
			},
			{
				"x": -4.4217611272,
				"y": 0.6463686187,
				"z": -1.0534935928,
				"element": "H" 
			},
			{
				"x": -4.5884558452,
				"y": 3.1909280648,
				"z": -3.1434635842,
				"element": "H" 
			},
			{
				"x": -4.7939201402,
				"y": 3.8810175789,
				"z": -1.5225590119,
				"element": "H" 
			},
			{
				"x": -0.8130263303,
				"y": 1.5351426883,
				"z": -0.9802670695,
				"element": "H" 
			},
			{
				"x": 0.9012285362,
				"y": -0.0219431261,
				"z": -0.0914638884,
				"element": "H" 
			},
			{
				"x": 2.4120397421,
				"y": -2.7406444818,
				"z": 2.4728708141,
				"element": "H" 
			},
			{
				"x": 4.7623101394,
				"y": -3.1052504607,
				"z": 1.7420181202,
				"element": "H" 
			}
		],
		 "valence_orbital": [ 
			{
				"type": "occ",
				"energy": -0.26575,
				"method": "rhf"
			},
			{
				"type": "occ",
				"energy": -0.25998,
				"method": "rhf"
			},
			{
				"type": "occ",
				"energy": -0.25179,
				"method": "rhf"
			},
			{
				"type": "occ",
				"energy": -0.23499,
				"method": "rhf"
			},
			{
				"type": "occ",
				"energy": -0.20706,
				"method": "rhf"
			},
			{
				"type": "unocc",
				"energy": -0.01911,
				"method": "rhf"
			},
			{
				"type": "unocc",
				"energy": -0.01312,
				"method": "rhf"
			},
			{
				"type": "unocc",
				"energy": 6e-05,
				"method": "rhf"
			},
			{
				"type": "unocc",
				"energy": 0.00643,
				"method": "rhf"
			},
			{
				"type": "unocc",
				"energy": 0.00748,
				"method": "rhf"
			}
		],
		"cosmo_sigma_profile": { 
			"-0.025": 0.0,
			"-0.024": 0.0,
			"-0.023": 0.0,
			"-0.022": 0.0,
			"-0.021": 0.0,
			"-0.02": 0.0,
			"-0.019": 0.0,
			"-0.018": 0.0,
			"-0.017": 0.0,
			"-0.016": 0.0,
			"-0.015": 0.0,
			"-0.014": 0.0574467361916,
			"-0.013": 1.15691819792,
			"-0.012": 0.633973143471,
			"-0.011": 0.967146287934,
			"-0.01": 1.64223197387,
			"-0.009": 5.06358852574,
			"-0.008": 4.94290375081,
			"-0.007": 7.77999528451,
			"-0.006": 12.3953919491,
			"-0.005": 18.3000857474,
			"-0.004": 26.6187527811,
			"-0.003": 21.1350807809,
			"-0.002": 19.9697691013,
			"-0.001": 23.8488996903,
			"0.0": 26.0533922514,
			"0.001": 23.1505756415,
			"0.002": 22.5296133622,
			"0.003": 25.9661497603,
			"0.004": 27.660667839,
			"0.005": 21.438011258,
			"0.006": 8.37983261983,
			"0.007": 2.44627835608,
			"0.008": 1.98709625697,
			"0.009": 2.96963372109,
			"0.01": 2.03965902564,
			"0.011": 1.83267938297,
			"0.012": 3.41157480399,
			"0.013": 2.01363150946,
			"0.014": 0.190961159061,
			"0.015": 0.0,
			"0.016": 0.0,
			"0.017": 0.0,
			"0.018": 0.0,
			"0.019": 0.0,
			"0.02": 0.0,
			"0.021": 0.0,
			"0.022": 0.0,
			"0.023": 0.0,
			"0.024": 0.0,
			"0.025": 0.0
		}
	}
}
