{
	 "smiles": "CCOC(=O)C=CC1=CC=CC(=C1)[N+]([O-])=O", 
	 "Tm": 348.15, 
	 "num_atms": 27, 
	 "gaussian": { 
		 "optdone": 1, 
		 "sigma_profile": "yes", 
		 "theory": "DFT", 
		 "functional": "B3LYP", 
		 "basiset": "6-31G**", 
		 "properties": { 
			 "R2extent": 6512.6561, 
			 "electric_dipole_moment_norm": 2.87051042674, 
			 "electric_quadrupole_moment_norm": 31.3392603919, 
			 "total_energy": -781.351334283, 
			 "HOMO_LUMO_gap": 0.16067, 
			 "cosmo_polarized_energy": -12.5, 
			 "cosmo_cavitation_energy": 33.18, 
			 "cosmo_dispersion_energy": -23.81, 
			 "cosmo_repulsion_energy": 1.86, 
			 "cosmo_total_nonelectrostatic_energy": 11.23, 
			 "SMD_solvation_energy": 9.18 
		},
		"coords": [
			{
				"x": 3.8155580705,
				"y": -3.57019959,
				"z": 0.5656029866,
				"element": "C" 
			},
			{
				"x": 3.7649271813,
				"y": -2.3959535381,
				"z": 1.5319479927,
				"element": "C" 
			},
			{
				"x": 3.0664352799,
				"y": -1.2679586991,
				"z": 0.9536153627,
				"element": "O" 
			},
			{
				"x": 1.7190376299,
				"y": -1.2658091737,
				"z": 1.0760704364,
				"element": "C" 
			},
			{
				"x": 1.081723276,
				"y": -2.1377755664,
				"z": 1.6381787543,
				"element": "O" 
			},
			{
				"x": 1.1438193768,
				"y": -0.0592864063,
				"z": 0.4384734697,
				"element": "C" 
			},
			{
				"x": -0.1855874618,
				"y": 0.1355200208,
				"z": 0.4531070971,
				"element": "C" 
			},
			{
				"x": -0.9277317963,
				"y": 1.26065647,
				"z": -0.1211988656,
				"element": "C" 
			},
			{
				"x": -2.3302462539,
				"y": 1.2836642347,
				"z": -0.0014833318,
				"element": "C" 
			},
			{
				"x": -3.0887151558,
				"y": 2.3289163732,
				"z": -0.5286776491,
				"element": "C" 
			},
			{
				"x": -2.4653095017,
				"y": 3.3827634263,
				"z": -1.1916574028,
				"element": "C" 
			},
			{
				"x": -1.0748869403,
				"y": 3.3545597572,
				"z": -1.3073329186,
				"element": "C" 
			},
			{
				"x": -0.3004830864,
				"y": 2.3251292825,
				"z": -0.7907665287,
				"element": "C" 
			},
			{
				"x": -0.398936245,
				"y": 4.4637889447,
				"z": -2.0072038989,
				"element": "N" 
			},
			{
				"x": -1.1041372248,
				"y": 5.3664506359,
				"z": -2.4548424573,
				"element": "O" 
			},
			{
				"x": 0.8266284827,
				"y": 4.418158128,
				"z": -2.1001032922,
				"element": "O" 
			},
			{
				"x": 2.8102184582,
				"y": -3.9526233871,
				"z": 0.3734077635,
				"element": "H" 
			},
			{
				"x": 4.2710026219,
				"y": -3.2741104041,
				"z": -0.3839535039,
				"element": "H" 
			},
			{
				"x": 4.4142649891,
				"y": -4.3795575201,
				"z": 0.9965476785,
				"element": "H" 
			},
			{
				"x": 3.2702885436,
				"y": -2.675134532,
				"z": 2.4653871204,
				"element": "H" 
			},
			{
				"x": 4.764633329,
				"y": -2.0127162246,
				"z": 1.7498296104,
				"element": "H" 
			},
			{
				"x": 1.8441646212,
				"y": 0.6290258717,
				"z": -0.0231181188,
				"element": "H" 
			},
			{
				"x": -0.7814558206,
				"y": -0.6292990028,
				"z": 0.9483595886,
				"element": "H" 
			},
			{
				"x": -2.8267029949,
				"y": 0.4663574925,
				"z": 0.5140862376,
				"element": "H" 
			},
			{
				"x": -4.1687065776,
				"y": 2.3222727692,
				"z": -0.4225567867,
				"element": "H" 
			},
			{
				"x": -3.0205216867,
				"y": 4.2107309469,
				"z": -1.6134179569,
				"element": "H" 
			},
			{
				"x": 0.7735188858,
				"y": 2.3689296906,
				"z": -0.9177013874,
				"element": "H" 
			}
		],
		 "valence_orbital": [ 
			{
				"type": "occ",
				"energy": -0.30024,
				"method": "rhf"
			},
			{
				"type": "occ",
				"energy": -0.29682,
				"method": "rhf"
			},
			{
				"type": "occ",
				"energy": -0.28994,
				"method": "rhf"
			},
			{
				"type": "occ",
				"energy": -0.27773,
				"method": "rhf"
			},
			{
				"type": "occ",
				"energy": -0.25572,
				"method": "rhf"
			},
			{
				"type": "unocc",
				"energy": -0.09505,
				"method": "rhf"
			},
			{
				"type": "unocc",
				"energy": -0.0808,
				"method": "rhf"
			},
			{
				"type": "unocc",
				"energy": -0.01516,
				"method": "rhf"
			},
			{
				"type": "unocc",
				"energy": 0.01135,
				"method": "rhf"
			},
			{
				"type": "unocc",
				"energy": 0.07552,
				"method": "rhf"
			}
		],
		"cosmo_sigma_profile": { 
			"-0.025": 0.0,
			"-0.024": 0.0,
			"-0.023": 0.0,
			"-0.022": 0.0,
			"-0.021": 0.0,
			"-0.02": 0.0,
			"-0.019": 0.0,
			"-0.018": 0.0,
			"-0.017": 0.0,
			"-0.016": 0.0,
			"-0.015": 0.0,
			"-0.014": 0.0,
			"-0.013": 0.0,
			"-0.012": 0.0,
			"-0.011": 0.00413318256422,
			"-0.01": 0.678333523425,
			"-0.009": 2.25276416127,
			"-0.008": 7.02348524786,
			"-0.007": 9.87776963822,
			"-0.006": 11.3252267787,
			"-0.005": 12.9913855641,
			"-0.004": 19.1880872611,
			"-0.003": 20.3622775128,
			"-0.002": 24.8281167214,
			"-0.001": 25.4908034667,
			"0.0": 30.8732979763,
			"0.001": 24.6230629566,
			"0.002": 12.7094343745,
			"0.003": 6.2993851592,
			"0.004": 5.40141220873,
			"0.005": 6.70863674187,
			"0.006": 7.01338973354,
			"0.007": 11.286587519,
			"0.008": 8.11909892841,
			"0.009": 6.95785424027,
			"0.01": 3.85360993441,
			"0.011": 2.17168786864,
			"0.012": 4.13412748683,
			"0.013": 0.842673767611,
			"0.014": 0.0,
			"0.015": 0.0,
			"0.016": 0.0,
			"0.017": 0.0,
			"0.018": 0.0,
			"0.019": 0.0,
			"0.02": 0.0,
			"0.021": 0.0,
			"0.022": 0.0,
			"0.023": 0.0,
			"0.024": 0.0,
			"0.025": 0.0
		}
	}
}
