{
	 "smiles": "CCOC(=O)C1=CC(=CC(Br)=C1)S(N)(=O)=O", 
	 "Tm": 393.15, 
	 "num_atms": 26, 
	 "gaussian": { 
		 "optdone": 1, 
		 "sigma_profile": "yes", 
		 "theory": "DFT", 
		 "functional": "B3LYP", 
		 "basiset": "6-31G**", 
		 "properties": { 
			 "R2extent": 7977.465, 
			 "electric_dipole_moment_norm": 6.35888724385, 
			 "electric_quadrupole_moment_norm": 19.9212219663, 
			 "total_energy": -3674.16885024, 
			 "HOMO_LUMO_gap": 0.19247, 
			 "cosmo_polarized_energy": -20.46, 
			 "cosmo_cavitation_energy": 35.0, 
			 "cosmo_dispersion_energy": -25.86, 
			 "cosmo_repulsion_energy": 2.02, 
			 "cosmo_total_nonelectrostatic_energy": 11.16, 
			 "SMD_solvation_energy": 5.62 
		},
		"coords": [
			{
				"x": -1.5548119252,
				"y": 2.8910279075,
				"z": -2.7005496704,
				"element": "C" 
			},
			{
				"x": -1.1516425315,
				"y": 3.0932261004,
				"z": -1.2483528495,
				"element": "C" 
			},
			{
				"x": -1.2310260165,
				"y": 1.8509598565,
				"z": -0.5018854978,
				"element": "O" 
			},
			{
				"x": -0.1521176015,
				"y": 1.0461119006,
				"z": -0.553747645,
				"element": "C" 
			},
			{
				"x": 0.8623151401,
				"y": 1.2964714177,
				"z": -1.1737816293,
				"element": "O" 
			},
			{
				"x": -0.3418117708,
				"y": -0.2045381103,
				"z": 0.247172067,
				"element": "C" 
			},
			{
				"x": 0.7317995168,
				"y": -1.0984678215,
				"z": 0.3185265581,
				"element": "C" 
			},
			{
				"x": 0.5844666303,
				"y": -2.2735116243,
				"z": 1.0512390574,
				"element": "C" 
			},
			{
				"x": -0.5998164766,
				"y": -2.5715392198,
				"z": 1.728994466,
				"element": "C" 
			},
			{
				"x": -1.655720724,
				"y": -1.6652136531,
				"z": 1.6451255959,
				"element": "C" 
			},
			{
				"x": -3.2851604907,
				"y": -2.0451750625,
				"z": 2.5610666823,
				"element": "Br" 
			},
			{
				"x": -1.5427589256,
				"y": -0.4867076412,
				"z": 0.9110007509,
				"element": "C" 
			},
			{
				"x": 1.9517977627,
				"y": -3.4512512805,
				"z": 1.1305765432,
				"element": "S" 
			},
			{
				"x": 1.8468306819,
				"y": -4.4019283629,
				"z": -0.2457132925,
				"element": "N" 
			},
			{
				"x": 1.6785325476,
				"y": -4.3441081217,
				"z": 2.2541724305,
				"element": "O" 
			},
			{
				"x": 3.1872367087,
				"y": -2.6859982534,
				"z": 0.9925686472,
				"element": "O" 
			},
			{
				"x": -2.5571966233,
				"y": 2.4588436481,
				"z": -2.7715679634,
				"element": "H" 
			},
			{
				"x": -1.5593112744,
				"y": 3.8554319995,
				"z": -3.218958536,
				"element": "H" 
			},
			{
				"x": -0.8462713651,
				"y": 2.2330832211,
				"z": -3.2094418632,
				"element": "H" 
			},
			{
				"x": -1.8404366532,
				"y": 3.7620509658,
				"z": -0.7277733931,
				"element": "H" 
			},
			{
				"x": -0.1342957595,
				"y": 3.4824909873,
				"z": -1.1688960942,
				"element": "H" 
			},
			{
				"x": 1.6641566015,
				"y": -0.8537291856,
				"z": -0.1777605257,
				"element": "H" 
			},
			{
				"x": -0.678063334,
				"y": -3.4769524603,
				"z": 2.3189891948,
				"element": "H" 
			},
			{
				"x": -2.3689928799,
				"y": 0.2099659624,
				"z": 0.8556047884,
				"element": "H" 
			},
			{
				"x": 2.0223564872,
				"y": -3.8927851312,
				"z": -1.1055796093,
				"element": "H" 
			},
			{
				"x": 1.0179422747,
				"y": -4.9862580387,
				"z": -0.2745282123,
				"element": "H" 
			}
		],
		 "valence_orbital": [ 
			{
				"type": "occ",
				"energy": -0.31297,
				"method": "rhf"
			},
			{
				"type": "occ",
				"energy": -0.30498,
				"method": "rhf"
			},
			{
				"type": "occ",
				"energy": -0.29153,
				"method": "rhf"
			},
			{
				"type": "occ",
				"energy": -0.28742,
				"method": "rhf"
			},
			{
				"type": "occ",
				"energy": -0.26745,
				"method": "rhf"
			},
			{
				"type": "unocc",
				"energy": -0.07498,
				"method": "rhf"
			},
			{
				"type": "unocc",
				"energy": -0.05306,
				"method": "rhf"
			},
			{
				"type": "unocc",
				"energy": -0.01369,
				"method": "rhf"
			},
			{
				"type": "unocc",
				"energy": 0.02274,
				"method": "rhf"
			},
			{
				"type": "unocc",
				"energy": 0.04666,
				"method": "rhf"
			}
		],
		"cosmo_sigma_profile": { 
			"-0.025": 0.0,
			"-0.024": 0.0,
			"-0.023": 0.0,
			"-0.022": 0.0,
			"-0.021": 0.0,
			"-0.02": 0.0,
			"-0.019": 0.0,
			"-0.018": 0.0,
			"-0.017": 0.0,
			"-0.016": 0.702004611702,
			"-0.015": 2.69839461884,
			"-0.014": 3.00574596184,
			"-0.013": 3.45457698252,
			"-0.012": 2.58567933569,
			"-0.011": 2.81540910108,
			"-0.01": 2.12695923899,
			"-0.009": 2.50766613363,
			"-0.008": 2.20360041952,
			"-0.007": 4.87358858414,
			"-0.006": 7.630688488,
			"-0.005": 12.121181528,
			"-0.004": 20.0751330448,
			"-0.003": 22.1946307591,
			"-0.002": 23.6959302028,
			"-0.001": 32.4235605927,
			"0.0": 27.2755386938,
			"0.001": 13.8656354853,
			"0.002": 11.6528410396,
			"0.003": 15.4714770726,
			"0.004": 14.048099363,
			"0.005": 4.76342601747,
			"0.006": 5.44269426929,
			"0.007": 6.30761178711,
			"0.008": 4.68881905722,
			"0.009": 6.6152253205,
			"0.01": 11.0164707209,
			"0.011": 13.5254838679,
			"0.012": 2.49580034595,
			"0.013": 0.0,
			"0.014": 0.0,
			"0.015": 0.0,
			"0.016": 0.0,
			"0.017": 0.0,
			"0.018": 0.0,
			"0.019": 0.0,
			"0.02": 0.0,
			"0.021": 0.0,
			"0.022": 0.0,
			"0.023": 0.0,
			"0.024": 0.0,
			"0.025": 0.0
		}
	}
}
