{
	 "smiles": "CC1=NC2=CC(C)=CC=C2S1", 
	 "Tm": 312.15, 
	 "num_atms": 20, 
	 "gaussian": { 
		 "optdone": 1, 
		 "sigma_profile": "yes", 
		 "theory": "DFT", 
		 "functional": "B3LYP", 
		 "basiset": "6-31G**", 
		 "properties": { 
			 "R2extent": 2442.7471, 
			 "electric_dipole_moment_norm": 0.616096299291, 
			 "electric_quadrupole_moment_norm": 9.37703445605, 
			 "total_energy": -801.342705293, 
			 "HOMO_LUMO_gap": 0.19697, 
			 "cosmo_polarized_energy": -6.07, 
			 "cosmo_cavitation_energy": 25.1, 
			 "cosmo_dispersion_energy": -19.24, 
			 "cosmo_repulsion_energy": 1.49, 
			 "cosmo_total_nonelectrostatic_energy": 7.35, 
			 "SMD_solvation_energy": 2.23 
		},
		"coords": [
			{
				"x": -0.0072281971,
				"y": 2.8589676772,
				"z": -2.8066099041,
				"element": "C" 
			},
			{
				"x": 0.3214622295,
				"y": 1.694653733,
				"z": -1.9247998765,
				"element": "C" 
			},
			{
				"x": 0.4036466086,
				"y": 1.7554639364,
				"z": -0.6360775096,
				"element": "N" 
			},
			{
				"x": 0.7236557797,
				"y": 0.5208594888,
				"z": -0.0866575514,
				"element": "C" 
			},
			{
				"x": 0.8824905593,
				"y": 0.2701076263,
				"z": 1.2839569535,
				"element": "C" 
			},
			{
				"x": 1.2051446408,
				"y": -1.0108888686,
				"z": 1.7264391119,
				"element": "C" 
			},
			{
				"x": 1.3803829906,
				"y": -1.304958173,
				"z": 3.1986232523,
				"element": "C" 
			},
			{
				"x": 1.3679693225,
				"y": -2.0432121458,
				"z": 0.7767026442,
				"element": "C" 
			},
			{
				"x": 1.2160879156,
				"y": -1.8212280699,
				"z": -0.5879462164,
				"element": "C" 
			},
			{
				"x": 0.8924142384,
				"y": -0.5313456737,
				"z": -1.0155891468,
				"element": "C" 
			},
			{
				"x": 0.6322783244,
				"y": 0.0854054538,
				"z": -2.6356484169,
				"element": "S" 
			},
			{
				"x": 0.8034564391,
				"y": 3.0634238725,
				"z": -3.5142197329,
				"element": "H" 
			},
			{
				"x": -0.1614887267,
				"y": 3.739045496,
				"z": -2.1799430041,
				"element": "H" 
			},
			{
				"x": -0.915877942,
				"y": 2.6728818166,
				"z": -3.3892010236,
				"element": "H" 
			},
			{
				"x": 0.7496714759,
				"y": 1.0886957572,
				"z": 1.9848635821,
				"element": "H" 
			},
			{
				"x": 1.2247680956,
				"y": -0.4088719699,
				"z": 3.8052218319,
				"element": "H" 
			},
			{
				"x": 2.3865123624,
				"y": -1.6834836971,
				"z": 3.4132133638,
				"element": "H" 
			},
			{
				"x": 0.6707796281,
				"y": -2.0673834117,
				"z": 3.5405562008,
				"element": "H" 
			},
			{
				"x": 1.6199805639,
				"y": -3.0425395678,
				"z": 1.1227987204,
				"element": "H" 
			},
			{
				"x": 1.3469936916,
				"y": -2.6327932802,
				"z": -1.2966832787,
				"element": "H" 
			}
		],
		 "valence_orbital": [ 
			{
				"type": "occ",
				"energy": -0.32502,
				"method": "rhf"
			},
			{
				"type": "occ",
				"energy": -0.29522,
				"method": "rhf"
			},
			{
				"type": "occ",
				"energy": -0.27049,
				"method": "rhf"
			},
			{
				"type": "occ",
				"energy": -0.23164,
				"method": "rhf"
			},
			{
				"type": "occ",
				"energy": -0.22611,
				"method": "rhf"
			},
			{
				"type": "unocc",
				"energy": -0.02914,
				"method": "rhf"
			},
			{
				"type": "unocc",
				"energy": 0.00052,
				"method": "rhf"
			},
			{
				"type": "unocc",
				"energy": 0.01392,
				"method": "rhf"
			},
			{
				"type": "unocc",
				"energy": 0.037,
				"method": "rhf"
			},
			{
				"type": "unocc",
				"energy": 0.09227,
				"method": "rhf"
			}
		],
		"cosmo_sigma_profile": { 
			"-0.025": 0.0,
			"-0.024": 0.0,
			"-0.023": 0.0,
			"-0.022": 0.0,
			"-0.021": 0.0,
			"-0.02": 0.0,
			"-0.019": 0.0,
			"-0.018": 0.0,
			"-0.017": 0.0,
			"-0.016": 0.0,
			"-0.015": 0.0,
			"-0.014": 0.0,
			"-0.013": 0.0,
			"-0.012": 0.0,
			"-0.011": 0.0,
			"-0.01": 0.0,
			"-0.009": 0.0,
			"-0.008": 0.0,
			"-0.007": 1.71596931535,
			"-0.006": 8.31490662217,
			"-0.005": 14.1938694202,
			"-0.004": 20.0558126214,
			"-0.003": 18.4838231146,
			"-0.002": 19.8334043072,
			"-0.001": 17.6018501081,
			"0.0": 17.6608936203,
			"0.001": 15.3636145466,
			"0.002": 14.6139917763,
			"0.003": 15.54491146,
			"0.004": 16.1067822588,
			"0.005": 11.3999335246,
			"0.006": 2.80803849407,
			"0.007": 0.964570235443,
			"0.008": 0.588364598833,
			"0.009": 1.81565676785,
			"0.01": 1.19012385311,
			"0.011": 0.837646774968,
			"0.012": 1.27443899323,
			"0.013": 0.513901773357,
			"0.014": 0.868231941032,
			"0.015": 0.605682570631,
			"0.016": 0.052771122926,
			"0.017": 0.0,
			"0.018": 0.0,
			"0.019": 0.0,
			"0.02": 0.0,
			"0.021": 0.0,
			"0.022": 0.0,
			"0.023": 0.0,
			"0.024": 0.0,
			"0.025": 0.0
		}
	}
}
