{
	 "smiles": "NC1=CC=CC=C1C(F)(F)F", 
	 "Tm": 241.65, 
	 "num_atms": 17, 
	 "gaussian": { 
		 "optdone": 1, 
		 "sigma_profile": "yes", 
		 "theory": "DFT", 
		 "functional": "B3LYP", 
		 "basiset": "6-31G**", 
		 "properties": { 
			 "R2extent": 1767.1727, 
			 "electric_dipole_moment_norm": 2.50628964807, 
			 "electric_quadrupole_moment_norm": 8.75889701104, 
			 "total_energy": -624.645505506, 
			 "HOMO_LUMO_gap": 0.1959, 
			 "cosmo_polarized_energy": -6.85, 
			 "cosmo_cavitation_energy": 21.8, 
			 "cosmo_dispersion_energy": -16.04, 
			 "cosmo_repulsion_energy": 1.23, 
			 "cosmo_total_nonelectrostatic_energy": 6.99, 
			 "SMD_solvation_energy": 4.77 
		},
		"coords": [
			{
				"x": -1.415248878,
				"y": -1.768358217,
				"z": 0.0629799945,
				"element": "N" 
			},
			{
				"x": -0.3264727283,
				"y": -0.9177163369,
				"z": 0.1731793552,
				"element": "C" 
			},
			{
				"x": 0.9792723423,
				"y": -1.4217569761,
				"z": 0.0239390285,
				"element": "C" 
			},
			{
				"x": 2.0892189283,
				"y": -0.5998910905,
				"z": 0.1781801781,
				"element": "C" 
			},
			{
				"x": 1.9371931032,
				"y": 0.755393262,
				"z": 0.4826127062,
				"element": "C" 
			},
			{
				"x": 0.6531035858,
				"y": 1.2694199045,
				"z": 0.6353381303,
				"element": "C" 
			},
			{
				"x": -0.4737214066,
				"y": 0.45573335,
				"z": 0.4862843995,
				"element": "C" 
			},
			{
				"x": -1.8400708753,
				"y": 1.0355263123,
				"z": 0.6991107218,
				"element": "C" 
			},
			{
				"x": -2.4568494791,
				"y": 0.5186529185,
				"z": 1.7880423801,
				"element": "F" 
			},
			{
				"x": -1.8205615668,
				"y": 2.374107434,
				"z": 0.8502343615,
				"element": "F" 
			},
			{
				"x": -2.6747271021,
				"y": 0.7734790646,
				"z": -0.354757551,
				"element": "F" 
			},
			{
				"x": -2.2977125118,
				"y": -1.3471870504,
				"z": -0.1861072781,
				"element": "H" 
			},
			{
				"x": -1.2386559623,
				"y": -2.640924965,
				"z": -0.4125635591,
				"element": "H" 
			},
			{
				"x": 1.1098053568,
				"y": -2.4743646455,
				"z": -0.2144353008,
				"element": "H" 
			},
			{
				"x": 3.0825152071,
				"y": -1.0222354925,
				"z": 0.0541920177,
				"element": "H" 
			},
			{
				"x": 2.8025446576,
				"y": 1.3989496863,
				"z": 0.5992950052,
				"element": "H" 
			},
			{
				"x": 0.5087673294,
				"y": 2.3174728416,
				"z": 0.8719754104,
				"element": "H" 
			}
		],
		 "valence_orbital": [ 
			{
				"type": "occ",
				"energy": -0.36325,
				"method": "rhf"
			},
			{
				"type": "occ",
				"energy": -0.34898,
				"method": "rhf"
			},
			{
				"type": "occ",
				"energy": -0.31817,
				"method": "rhf"
			},
			{
				"type": "occ",
				"energy": -0.26113,
				"method": "rhf"
			},
			{
				"type": "occ",
				"energy": -0.21321,
				"method": "rhf"
			},
			{
				"type": "unocc",
				"energy": -0.01731,
				"method": "rhf"
			},
			{
				"type": "unocc",
				"energy": 0.0053,
				"method": "rhf"
			},
			{
				"type": "unocc",
				"energy": 0.0835,
				"method": "rhf"
			},
			{
				"type": "unocc",
				"energy": 0.09726,
				"method": "rhf"
			},
			{
				"type": "unocc",
				"energy": 0.12727,
				"method": "rhf"
			}
		],
		"cosmo_sigma_profile": { 
			"-0.025": 0.0,
			"-0.024": 0.0,
			"-0.023": 0.0,
			"-0.022": 0.0,
			"-0.021": 0.0,
			"-0.02": 0.0,
			"-0.019": 0.0,
			"-0.018": 0.0,
			"-0.017": 0.0,
			"-0.016": 0.0,
			"-0.015": 0.0,
			"-0.014": 0.0561648239912,
			"-0.013": 0.989338511165,
			"-0.012": 1.79136241646,
			"-0.011": 2.003420444,
			"-0.01": 3.17299059604,
			"-0.009": 1.81197091596,
			"-0.008": 3.08148642064,
			"-0.007": 2.63163847557,
			"-0.006": 6.01046778848,
			"-0.005": 9.23977950684,
			"-0.004": 9.9121868043,
			"-0.003": 7.98048598074,
			"-0.002": 8.26639370647,
			"-0.001": 10.4337379807,
			"0.0": 9.51542242715,
			"0.001": 13.8082796603,
			"0.002": 20.3825640156,
			"0.003": 31.1267779015,
			"0.004": 13.5986487014,
			"0.005": 10.0742504163,
			"0.006": 4.12514728775,
			"0.007": 1.03970246867,
			"0.008": 0.825558027691,
			"0.009": 0.527906844531,
			"0.01": 0.775187365373,
			"0.011": 0.614522829977,
			"0.012": 0.488579130786,
			"0.013": 0.137543609549,
			"0.014": 0.0,
			"0.015": 0.0,
			"0.016": 0.0,
			"0.017": 0.0,
			"0.018": 0.0,
			"0.019": 0.0,
			"0.02": 0.0,
			"0.021": 0.0,
			"0.022": 0.0,
			"0.023": 0.0,
			"0.024": 0.0,
			"0.025": 0.0
		}
	}
}
