{
	 "smiles": "C1CN2CCN1CC2", 
	 "Tm": 431.15, 
	 "num_atms": 20, 
	 "gaussian": { 
		 "optdone": 1, 
		 "sigma_profile": "yes", 
		 "theory": "DFT", 
		 "functional": "B3LYP", 
		 "basiset": "6-31G**", 
		 "properties": { 
			 "R2extent": 1099.1799, 
			 "electric_dipole_moment_norm": 0.000141421356237, 
			 "electric_quadrupole_moment_norm": 6.75744950333, 
			 "total_energy": -345.338913126, 
			 "HOMO_LUMO_gap": 0.251, 
			 "cosmo_polarized_energy": -5.49, 
			 "cosmo_cavitation_energy": 19.67, 
			 "cosmo_dispersion_energy": -15.63, 
			 "cosmo_repulsion_energy": 1.26, 
			 "cosmo_total_nonelectrostatic_energy": 5.31, 
			 "SMD_solvation_energy": -4.18 
		},
		"coords": [
			{
				"x": 2.5666107833,
				"y": -0.5861998706,
				"z": -0.0383297298,
				"element": "C" 
			},
			{
				"x": 2.0161199504,
				"y": 0.6742542542,
				"z": -0.7844432737,
				"element": "C" 
			},
			{
				"x": 0.7076711853,
				"y": 1.0620043803,
				"z": -0.2276336364,
				"element": "N" 
			},
			{
				"x": -0.2275422109,
				"y": -0.0668059855,
				"z": -0.3815039938,
				"element": "C" 
			},
			{
				"x": 0.3228454265,
				"y": -1.3275413499,
				"z": 0.3642699353,
				"element": "C" 
			},
			{
				"x": 1.6147133175,
				"y": -1.0159313227,
				"z": 1.0017834396,
				"element": "N" 
			},
			{
				"x": 1.419590085,
				"y": 0.0919235971,
				"z": 1.9542050609,
				"element": "C" 
			},
			{
				"x": 0.8694995258,
				"y": 1.3526963107,
				"z": 1.2082590212,
				"element": "C" 
			},
			{
				"x": 2.7206152939,
				"y": -1.4260473417,
				"z": -0.725735194,
				"element": "H" 
			},
			{
				"x": 3.5282140208,
				"y": -0.3798544827,
				"z": 0.4457415546,
				"element": "H" 
			},
			{
				"x": 1.8861642604,
				"y": 0.4833273804,
				"z": -1.8560009395,
				"element": "H" 
			},
			{
				"x": 2.6945188405,
				"y": 1.5295246689,
				"z": -0.6850710179,
				"element": "H" 
			},
			{
				"x": -0.3567582078,
				"y": -0.2571666287,
				"z": -1.4532549257,
				"element": "H" 
			},
			{
				"x": -1.2015445995,
				"y": 0.2425803617,
				"z": 0.0149581804,
				"element": "H" 
			},
			{
				"x": 0.4771704969,
				"y": -2.1670852448,
				"z": -0.3234277848,
				"element": "H" 
			},
			{
				"x": -0.3677915569,
				"y": -1.6674045254,
				"z": 1.1447134445,
				"element": "H" 
			},
			{
				"x": 2.3816245546,
				"y": 0.2976903111,
				"z": 2.4376522551,
				"element": "H" 
			},
			{
				"x": 0.7283936589,
				"y": -0.2482976411,
				"z": 2.7339977619,
				"element": "H" 
			},
			{
				"x": 1.5484145416,
				"y": 2.2075875398,
				"z": 1.3073135061,
				"element": "H" 
			},
			{
				"x": -0.1048293662,
				"y": 1.661845589,
				"z": 1.6041063361,
				"element": "H" 
			}
		],
		 "valence_orbital": [ 
			{
				"type": "occ",
				"energy": -0.32413,
				"method": "rhf"
			},
			{
				"type": "occ",
				"energy": -0.31751,
				"method": "rhf"
			},
			{
				"type": "occ",
				"energy": -0.31751,
				"method": "rhf"
			},
			{
				"type": "occ",
				"energy": -0.25385,
				"method": "rhf"
			},
			{
				"type": "occ",
				"energy": -0.18187,
				"method": "rhf"
			},
			{
				"type": "unocc",
				"energy": 0.06913,
				"method": "rhf"
			},
			{
				"type": "unocc",
				"energy": 0.10352,
				"method": "rhf"
			},
			{
				"type": "unocc",
				"energy": 0.10352,
				"method": "rhf"
			},
			{
				"type": "unocc",
				"energy": 0.12683,
				"method": "rhf"
			},
			{
				"type": "unocc",
				"energy": 0.14074,
				"method": "rhf"
			}
		],
		"cosmo_sigma_profile": { 
			"-0.025": 0.0,
			"-0.024": 0.0,
			"-0.023": 0.0,
			"-0.022": 0.0,
			"-0.021": 0.0,
			"-0.02": 0.0,
			"-0.019": 0.0,
			"-0.018": 0.0,
			"-0.017": 0.0,
			"-0.016": 0.0,
			"-0.015": 0.0,
			"-0.014": 0.0,
			"-0.013": 0.0,
			"-0.012": 0.0,
			"-0.011": 0.0,
			"-0.01": 0.0,
			"-0.009": 0.0,
			"-0.008": 0.0,
			"-0.007": 0.0,
			"-0.006": 0.0,
			"-0.005": 0.0,
			"-0.004": 6.93424446169,
			"-0.003": 46.5714321041,
			"-0.002": 25.4734023,
			"-0.001": 22.4593864602,
			"0.0": 15.4692875197,
			"0.001": 5.02986646397,
			"0.002": 4.30260717736,
			"0.003": 3.20617741778,
			"0.004": 2.34922365638,
			"0.005": 1.83850046457,
			"0.006": 2.170610679,
			"0.007": 1.2610018604,
			"0.008": 1.62547987194,
			"0.009": 2.47583621626,
			"0.01": 1.05381646757,
			"0.011": 1.24421203689,
			"0.012": 1.61143545319,
			"0.013": 1.09638424227,
			"0.014": 1.12530389761,
			"0.015": 0.769897983739,
			"0.016": 1.58554286081,
			"0.017": 0.953763718921,
			"0.018": 0.78706819351,
			"0.019": 0.0,
			"0.02": 0.0,
			"0.021": 0.0,
			"0.022": 0.0,
			"0.023": 0.0,
			"0.024": 0.0,
			"0.025": 0.0
		}
	}
}
