{
	 "smiles": "CN(C)C(=O)CO", 
	 "Tm": 306.15, 
	 "num_atms": 16, 
	 "gaussian": { 
		 "optdone": 1, 
		 "sigma_profile": "yes", 
		 "theory": "DFT", 
		 "functional": "B3LYP", 
		 "basiset": "6-31G**", 
		 "properties": { 
			 "R2extent": 1114.4732, 
			 "electric_dipole_moment_norm": 2.41857350726, 
			 "electric_quadrupole_moment_norm": 7.28777516462, 
			 "total_energy": -363.041597419, 
			 "HOMO_LUMO_gap": 0.24818, 
			 "cosmo_polarized_energy": -11.19, 
			 "cosmo_cavitation_energy": 18.87, 
			 "cosmo_dispersion_energy": -13.99, 
			 "cosmo_repulsion_energy": 1.2, 
			 "cosmo_total_nonelectrostatic_energy": 6.08, 
			 "SMD_solvation_energy": 4.32 
		},
		"coords": [
			{
				"x": -1.1250014144,
				"y": -2.2405470252,
				"z": -1.7572285362,
				"element": "C" 
			},
			{
				"x": -1.2634829548,
				"y": -0.9214833426,
				"z": -1.1554133685,
				"element": "N" 
			},
			{
				"x": -2.6288316544,
				"y": -0.4482353342,
				"z": -0.9707834471,
				"element": "C" 
			},
			{
				"x": -0.1476628696,
				"y": -0.3179459022,
				"z": -0.6346134326,
				"element": "C" 
			},
			{
				"x": 0.9708387411,
				"y": -0.8255447782,
				"z": -0.6930010625,
				"element": "O" 
			},
			{
				"x": -0.3068655169,
				"y": 1.0533992838,
				"z": 0.0466818767,
				"element": "C" 
			},
			{
				"x": -0.9592378294,
				"y": 2.0511483434,
				"z": -0.7309339501,
				"element": "O" 
			},
			{
				"x": -1.601495425,
				"y": -3.0082158436,
				"z": -1.1327097363,
				"element": "H" 
			},
			{
				"x": -1.6020375749,
				"y": -2.2566523692,
				"z": -2.744274516,
				"element": "H" 
			},
			{
				"x": -0.0643794387,
				"y": -2.4668914207,
				"z": -1.8529201722,
				"element": "H" 
			},
			{
				"x": -3.1822440729,
				"y": -0.5649229137,
				"z": -1.9100204304,
				"element": "H" 
			},
			{
				"x": -3.1524209104,
				"y": -1.0318573248,
				"z": -0.2001824518,
				"element": "H" 
			},
			{
				"x": -2.6382817315,
				"y": 0.6070421891,
				"z": -0.7082927579,
				"element": "H" 
			},
			{
				"x": -0.9003077993,
				"y": 0.950122718,
				"z": 0.9620585421,
				"element": "H" 
			},
			{
				"x": 0.7078254671,
				"y": 1.351437388,
				"z": 0.3322905254,
				"element": "H" 
			},
			{
				"x": -0.4331150158,
				"y": 2.1935463322,
				"z": -1.5285570825,
				"element": "H" 
			}
		],
		 "valence_orbital": [ 
			{
				"type": "occ",
				"energy": -0.36078,
				"method": "rhf"
			},
			{
				"type": "occ",
				"energy": -0.35609,
				"method": "rhf"
			},
			{
				"type": "occ",
				"energy": -0.29186,
				"method": "rhf"
			},
			{
				"type": "occ",
				"energy": -0.24229,
				"method": "rhf"
			},
			{
				"type": "occ",
				"energy": -0.23543,
				"method": "rhf"
			},
			{
				"type": "unocc",
				"energy": 0.01275,
				"method": "rhf"
			},
			{
				"type": "unocc",
				"energy": 0.08126,
				"method": "rhf"
			},
			{
				"type": "unocc",
				"energy": 0.09836,
				"method": "rhf"
			},
			{
				"type": "unocc",
				"energy": 0.13297,
				"method": "rhf"
			},
			{
				"type": "unocc",
				"energy": 0.14331,
				"method": "rhf"
			}
		],
		"cosmo_sigma_profile": { 
			"-0.025": 0.0,
			"-0.024": 0.0,
			"-0.023": 0.0,
			"-0.022": 0.0,
			"-0.021": 0.0,
			"-0.02": 0.0,
			"-0.019": 0.0,
			"-0.018": 0.0,
			"-0.017": 0.261803198256,
			"-0.016": 1.18045127045,
			"-0.015": 0.771261589411,
			"-0.014": 0.945922811609,
			"-0.013": 0.685932038502,
			"-0.012": 1.03231438157,
			"-0.011": 1.19985345101,
			"-0.01": 0.919450236645,
			"-0.009": 0.414548359314,
			"-0.008": 0.409387825911,
			"-0.007": 1.80026702734,
			"-0.006": 4.06158142804,
			"-0.005": 10.1866619844,
			"-0.004": 17.2195049637,
			"-0.003": 18.8077613327,
			"-0.002": 19.6062062467,
			"-0.001": 12.9657698336,
			"0.0": 5.97581249454,
			"0.001": 5.1889918997,
			"0.002": 5.81948176472,
			"0.003": 3.67032490129,
			"0.004": 2.77368303352,
			"0.005": 2.52211233119,
			"0.006": 3.08436290021,
			"0.007": 2.33682757429,
			"0.008": 3.04813891992,
			"0.009": 2.3753488537,
			"0.01": 1.57984313345,
			"0.011": 2.16420088471,
			"0.012": 3.43210835963,
			"0.013": 3.90517533537,
			"0.014": 5.39673408103,
			"0.015": 1.54405024444,
			"0.016": 0.0533437661698,
			"0.017": 0.0,
			"0.018": 0.0,
			"0.019": 0.0,
			"0.02": 0.0,
			"0.021": 0.0,
			"0.022": 0.0,
			"0.023": 0.0,
			"0.024": 0.0,
			"0.025": 0.0
		}
	}
}
