{
	 "smiles": "OC(=O)C1=NNC2=C1C=C(Cl)C=C2", 
	 "Tm": 545.15, 
	 "num_atms": 18, 
	 "gaussian": { 
		 "optdone": 1, 
		 "sigma_profile": "yes", 
		 "theory": "DFT", 
		 "functional": "B3LYP", 
		 "basiset": "6-31G**", 
		 "properties": { 
			 "R2extent": 4616.8542, 
			 "electric_dipole_moment_norm": 6.69983380764, 
			 "electric_quadrupole_moment_norm": 10.3135980371, 
			 "total_energy": -1028.00876483, 
			 "HOMO_LUMO_gap": 0.17652, 
			 "cosmo_polarized_energy": -16.66, 
			 "cosmo_cavitation_energy": 25.08, 
			 "cosmo_dispersion_energy": -19.05, 
			 "cosmo_repulsion_energy": 1.5, 
			 "cosmo_total_nonelectrostatic_energy": 7.53, 
			 "SMD_solvation_energy": 4.3 
		},
		"coords": [
			{
				"x": 0.2642994994,
				"y": 2.5327931964,
				"z": -2.6900984726,
				"element": "O" 
			},
			{
				"x": 1.2603028776,
				"y": 2.110033257,
				"z": -1.8831026891,
				"element": "C" 
			},
			{
				"x": 2.2667786305,
				"y": 2.7594902599,
				"z": -1.7059609024,
				"element": "O" 
			},
			{
				"x": 1.0267377397,
				"y": 0.7965243791,
				"z": -1.236808085,
				"element": "C" 
			},
			{
				"x": -0.0955427364,
				"y": 0.1243339412,
				"z": -1.4661504308,
				"element": "N" 
			},
			{
				"x": -0.0104769641,
				"y": -1.0109893341,
				"z": -0.7470893572,
				"element": "N" 
			},
			{
				"x": 1.1638701941,
				"y": -1.0979228019,
				"z": -0.0396659405,
				"element": "C" 
			},
			{
				"x": 1.881352655,
				"y": 0.0844167216,
				"z": -0.3382590025,
				"element": "C" 
			},
			{
				"x": 3.1457555117,
				"y": 0.3156424237,
				"z": 0.2312856697,
				"element": "C" 
			},
			{
				"x": 3.6362388659,
				"y": -0.6586872443,
				"z": 1.0816853573,
				"element": "C" 
			},
			{
				"x": 5.2103581585,
				"y": -0.4390193164,
				"z": 1.8312088875,
				"element": "Cl" 
			},
			{
				"x": 2.9179833516,
				"y": -1.8419335388,
				"z": 1.3803838608,
				"element": "C" 
			},
			{
				"x": 1.6719909594,
				"y": -2.0794824514,
				"z": 0.824818028,
				"element": "C" 
			},
			{
				"x": -0.4401740868,
				"y": 1.8610227515,
				"z": -2.6859909638,
				"element": "H" 
			},
			{
				"x": -0.7713609432,
				"y": -1.6716812255,
				"z": -0.7813316685,
				"element": "H" 
			},
			{
				"x": 3.6969048091,
				"y": 1.2196274428,
				"z": 0.0043890583,
				"element": "H" 
			},
			{
				"x": 3.3597163411,
				"y": -2.5660862384,
				"z": 2.0555379258,
				"element": "H" 
			},
			{
				"x": 1.1225651369,
				"y": -2.9865822223,
				"z": 1.054448725,
				"element": "H" 
			}
		],
		 "valence_orbital": [ 
			{
				"type": "occ",
				"energy": -0.31789,
				"method": "rhf"
			},
			{
				"type": "occ",
				"energy": -0.30737,
				"method": "rhf"
			},
			{
				"type": "occ",
				"energy": -0.27722,
				"method": "rhf"
			},
			{
				"type": "occ",
				"energy": -0.26565,
				"method": "rhf"
			},
			{
				"type": "occ",
				"energy": -0.24425,
				"method": "rhf"
			},
			{
				"type": "unocc",
				"energy": -0.06773,
				"method": "rhf"
			},
			{
				"type": "unocc",
				"energy": -0.01949,
				"method": "rhf"
			},
			{
				"type": "unocc",
				"energy": -0.0087,
				"method": "rhf"
			},
			{
				"type": "unocc",
				"energy": 0.02328,
				"method": "rhf"
			},
			{
				"type": "unocc",
				"energy": 0.05757,
				"method": "rhf"
			}
		],
		"cosmo_sigma_profile": { 
			"-0.025": 0.0,
			"-0.024": 0.0,
			"-0.023": 0.0,
			"-0.022": 0.0,
			"-0.021": 0.0,
			"-0.02": 0.0,
			"-0.019": 0.0,
			"-0.018": 0.914733827245,
			"-0.017": 2.00410609958,
			"-0.016": 1.75823746816,
			"-0.015": 1.82136676925,
			"-0.014": 0.918336085452,
			"-0.013": 1.15946879432,
			"-0.012": 2.49519326111,
			"-0.011": 2.02761065367,
			"-0.01": 1.48317562966,
			"-0.009": 2.42934669376,
			"-0.008": 4.71805628308,
			"-0.007": 6.40818669489,
			"-0.006": 6.2329698317,
			"-0.005": 5.83303230841,
			"-0.004": 7.58643280084,
			"-0.003": 8.23089384425,
			"-0.002": 9.61077458021,
			"-0.001": 16.0046135358,
			"0.0": 17.3805289989,
			"0.001": 20.9031347912,
			"0.002": 22.436788426,
			"0.003": 12.2362128524,
			"0.004": 12.6648206228,
			"0.005": 9.15845692867,
			"0.006": 3.76412531869,
			"0.007": 2.79770929138,
			"0.008": 3.71387188041,
			"0.009": 4.14995875854,
			"0.01": 5.18445040542,
			"0.011": 4.15025157325,
			"0.012": 2.9520595195,
			"0.013": 1.37530939713,
			"0.014": 0.0141717681555,
			"0.015": 0.0,
			"0.016": 0.0,
			"0.017": 0.0,
			"0.018": 0.0,
			"0.019": 0.0,
			"0.02": 0.0,
			"0.021": 0.0,
			"0.022": 0.0,
			"0.023": 0.0,
			"0.024": 0.0,
			"0.025": 0.0
		}
	}
}
