{
	 "smiles": "COC1=CC(OC)=CC(NS(=O)(=O)C2=CC=C(N)C=C2)=C1", 
	 "Tm": 427.15, 
	 "num_atms": 37, 
	 "gaussian": { 
		 "optdone": 1, 
		 "sigma_profile": "yes", 
		 "theory": "DFT", 
		 "functional": "B3LYP", 
		 "basiset": "6-31G**", 
		 "properties": { 
			 "R2extent": 7851.1171, 
			 "electric_dipole_moment_norm": 7.3066570393, 
			 "electric_quadrupole_moment_norm": 14.4117679783, 
			 "total_energy": -1351.63221642, 
			 "HOMO_LUMO_gap": 0.18894, 
			 "cosmo_polarized_energy": -23.92, 
			 "cosmo_cavitation_energy": 42.46, 
			 "cosmo_dispersion_energy": -29.71, 
			 "cosmo_repulsion_energy": 2.26, 
			 "cosmo_total_nonelectrostatic_energy": 15.01, 
			 "SMD_solvation_energy": 7.84 
		},
		"coords": [
			{
				"x": -4.9784351668,
				"y": 1.0141677036,
				"z": -2.4211940723,
				"element": "C" 
			},
			{
				"x": -3.566216508,
				"y": 1.1348261261,
				"z": -2.485812061,
				"element": "O" 
			},
			{
				"x": -2.9074020902,
				"y": 1.588325373,
				"z": -1.3801350724,
				"element": "C" 
			},
			{
				"x": -3.5298405371,
				"y": 1.9312900847,
				"z": -0.1823325209,
				"element": "C" 
			},
			{
				"x": -2.743111728,
				"y": 2.3891507543,
				"z": 0.8889014451,
				"element": "C" 
			},
			{
				"x": -3.4421674504,
				"y": 2.7073583968,
				"z": 2.0157392897,
				"element": "O" 
			},
			{
				"x": -2.7212764457,
				"y": 3.2028634451,
				"z": 3.1355402378,
				"element": "C" 
			},
			{
				"x": -1.3591899392,
				"y": 2.5160297162,
				"z": 0.7717667396,
				"element": "C" 
			},
			{
				"x": -0.7533941669,
				"y": 2.1465523188,
				"z": -0.4421541757,
				"element": "C" 
			},
			{
				"x": 0.6490722586,
				"y": 2.3076610275,
				"z": -0.6091755479,
				"element": "N" 
			},
			{
				"x": 1.8071114378,
				"y": 1.6362859541,
				"z": 0.447927781,
				"element": "S" 
			},
			{
				"x": 1.4930307103,
				"y": 2.1258239739,
				"z": 1.7913384926,
				"element": "O" 
			},
			{
				"x": 3.0786607969,
				"y": 1.9314972563,
				"z": -0.2158196119,
				"element": "O" 
			},
			{
				"x": 1.57144017,
				"y": -0.1296567991,
				"z": 0.4392696709,
				"element": "C" 
			},
			{
				"x": 2.3010711759,
				"y": -0.9178417076,
				"z": -0.457470863,
				"element": "C" 
			},
			{
				"x": 2.1008260747,
				"y": -2.2907607685,
				"z": -0.492101667,
				"element": "C" 
			},
			{
				"x": 1.1641021062,
				"y": -2.9015360994,
				"z": 0.3661551338,
				"element": "C" 
			},
			{
				"x": 0.9986781043,
				"y": -4.2753545588,
				"z": 0.3648543892,
				"element": "N" 
			},
			{
				"x": 0.4416217696,
				"y": -2.092822537,
				"z": 1.2663941366,
				"element": "C" 
			},
			{
				"x": 0.6438169151,
				"y": -0.7202005862,
				"z": 1.3047439782,
				"element": "C" 
			},
			{
				"x": -1.5121932243,
				"y": 1.6784124442,
				"z": -1.5115337687,
				"element": "C" 
			},
			{
				"x": -5.2942428856,
				"y": 0.6444872374,
				"z": -3.3980638195,
				"element": "H" 
			},
			{
				"x": -5.288902529,
				"y": 0.3008725791,
				"z": -1.6468879222,
				"element": "H" 
			},
			{
				"x": -5.4587035492,
				"y": 1.9818309265,
				"z": -2.2282810534,
				"element": "H" 
			},
			{
				"x": -4.6003757078,
				"y": 1.8684599232,
				"z": -0.0394531774,
				"element": "H" 
			},
			{
				"x": -1.9812834529,
				"y": 2.4767929255,
				"z": 3.494242656,
				"element": "H" 
			},
			{
				"x": -3.4635580672,
				"y": 3.3785952857,
				"z": 3.9157102272,
				"element": "H" 
			},
			{
				"x": -2.2104162926,
				"y": 4.1450511948,
				"z": 2.9019704523,
				"element": "H" 
			},
			{
				"x": -0.7425766534,
				"y": 2.9010729998,
				"z": 1.5703364282,
				"element": "H" 
			},
			{
				"x": 0.9746880935,
				"y": 2.1939373724,
				"z": -1.5638539725,
				"element": "H" 
			},
			{
				"x": 3.0344315214,
				"y": -0.4517734478,
				"z": -1.1068512355,
				"element": "H" 
			},
			{
				"x": 2.678454289,
				"y": -2.904663367,
				"z": -1.178115461,
				"element": "H" 
			},
			{
				"x": 0.14201552,
				"y": -4.6324285165,
				"z": 0.7612507428,
				"element": "H" 
			},
			{
				"x": 1.2987730828,
				"y": -4.7708071212,
				"z": -0.4615554809,
				"element": "H" 
			},
			{
				"x": -0.2728507488,
				"y": -2.5527225553,
				"z": 1.9439255127,
				"element": "H" 
			},
			{
				"x": 0.095310136,
				"y": -0.1050587427,
				"z": 2.0087260366,
				"element": "H" 
			},
			{
				"x": -1.0534670189,
				"y": 1.3799817882,
				"z": -2.4483018671,
				"element": "H" 
			}
		],
		 "valence_orbital": [ 
			{
				"type": "occ",
				"energy": -0.27148,
				"method": "rhf"
			},
			{
				"type": "occ",
				"energy": -0.2658,
				"method": "rhf"
			},
			{
				"type": "occ",
				"energy": -0.2257,
				"method": "rhf"
			},
			{
				"type": "occ",
				"energy": -0.21464,
				"method": "rhf"
			},
			{
				"type": "occ",
				"energy": -0.21211,
				"method": "rhf"
			},
			{
				"type": "unocc",
				"energy": -0.02317,
				"method": "rhf"
			},
			{
				"type": "unocc",
				"energy": -0.01521,
				"method": "rhf"
			},
			{
				"type": "unocc",
				"energy": 0.00622,
				"method": "rhf"
			},
			{
				"type": "unocc",
				"energy": 0.01763,
				"method": "rhf"
			},
			{
				"type": "unocc",
				"energy": 0.0621,
				"method": "rhf"
			}
		],
		"cosmo_sigma_profile": { 
			"-0.025": 0.0,
			"-0.024": 0.0,
			"-0.023": 0.0,
			"-0.022": 0.0,
			"-0.021": 0.0,
			"-0.02": 0.0,
			"-0.019": 0.0,
			"-0.018": 0.0,
			"-0.017": 0.0,
			"-0.016": 0.105966538154,
			"-0.015": 0.838547575364,
			"-0.014": 1.11154979448,
			"-0.013": 4.21889716125,
			"-0.012": 3.46265632037,
			"-0.011": 4.67408419221,
			"-0.01": 5.03917443935,
			"-0.009": 4.22657360763,
			"-0.008": 4.32898449086,
			"-0.007": 7.03752731855,
			"-0.006": 17.9983923617,
			"-0.005": 26.7756852622,
			"-0.004": 26.0101942328,
			"-0.003": 26.6675725412,
			"-0.002": 16.4721002219,
			"-0.001": 13.3637348842,
			"0.0": 15.4307759486,
			"0.001": 14.3028850004,
			"0.002": 16.8573211249,
			"0.003": 23.8228106286,
			"0.004": 35.0095160426,
			"0.005": 15.1352010154,
			"0.006": 8.62333018535,
			"0.007": 7.90200801929,
			"0.008": 8.20309998592,
			"0.009": 6.93196352517,
			"0.01": 9.29955554596,
			"0.011": 9.61943563869,
			"0.012": 3.98052172172,
			"0.013": 0.0,
			"0.014": 0.0,
			"0.015": 0.0,
			"0.016": 0.0,
			"0.017": 0.0,
			"0.018": 0.0,
			"0.019": 0.0,
			"0.02": 0.0,
			"0.021": 0.0,
			"0.022": 0.0,
			"0.023": 0.0,
			"0.024": 0.0,
			"0.025": 0.0
		}
	}
}
