{
	 "smiles": "OCC[N+]([O-])=O", 
	 "Tm": 193.15, 
	 "num_atms": 11, 
	 "gaussian": { 
		 "optdone": 1, 
		 "sigma_profile": "yes", 
		 "theory": "DFT", 
		 "functional": "B3LYP", 
		 "basiset": "6-31G**", 
		 "properties": { 
			 "R2extent": 1814.1832, 
			 "electric_dipole_moment_norm": 2.38767661336, 
			 "electric_quadrupole_moment_norm": 11.5567035265, 
			 "total_energy": -359.539073174, 
			 "HOMO_LUMO_gap": 0.20201, 
			 "cosmo_polarized_energy": -9.94, 
			 "cosmo_cavitation_energy": 15.04, 
			 "cosmo_dispersion_energy": -11.4, 
			 "cosmo_repulsion_energy": 1.02, 
			 "cosmo_total_nonelectrostatic_energy": 4.66, 
			 "SMD_solvation_energy": 4.58 
		},
		"coords": [
			{
				"x": -0.6859184714,
				"y": -0.5664074309,
				"z": -1.6807553163,
				"element": "O" 
			},
			{
				"x": -0.6607198259,
				"y": -0.9195740688,
				"z": -0.3183997318,
				"element": "C" 
			},
			{
				"x": -0.2126834427,
				"y": -2.3591937332,
				"z": -0.0807946759,
				"element": "C" 
			},
			{
				"x": -1.2466060102,
				"y": -3.36684354,
				"z": -0.5274398089,
				"element": "N" 
			},
			{
				"x": -1.2084227457,
				"y": -4.4740362317,
				"z": -0.012061575,
				"element": "O" 
			},
			{
				"x": -2.0481899105,
				"y": -3.0174218168,
				"z": -1.3985073079,
				"element": "O" 
			},
			{
				"x": -1.3530776831,
				"y": -1.1386564762,
				"z": -2.0885588885,
				"element": "H" 
			},
			{
				"x": 0.0708955549,
				"y": -0.2670423599,
				"z": 0.1697146889,
				"element": "H" 
			},
			{
				"x": -1.6294632008,
				"y": -0.753762041,
				"z": 0.177524261,
				"element": "H" 
			},
			{
				"x": -0.0206997731,
				"y": -2.5857511436,
				"z": 0.9691453575,
				"element": "H" 
			},
			{
				"x": 0.6811855085,
				"y": -2.5890111579,
				"z": -0.6682670031,
				"element": "H" 
			}
		],
		 "valence_orbital": [ 
			{
				"type": "occ",
				"energy": -0.35729,
				"method": "rhf"
			},
			{
				"type": "occ",
				"energy": -0.32822,
				"method": "rhf"
			},
			{
				"type": "occ",
				"energy": -0.31256,
				"method": "rhf"
			},
			{
				"type": "occ",
				"energy": -0.31071,
				"method": "rhf"
			},
			{
				"type": "occ",
				"energy": -0.28374,
				"method": "rhf"
			},
			{
				"type": "unocc",
				"energy": -0.08173,
				"method": "rhf"
			},
			{
				"type": "unocc",
				"energy": 0.08247,
				"method": "rhf"
			},
			{
				"type": "unocc",
				"energy": 0.09613,
				"method": "rhf"
			},
			{
				"type": "unocc",
				"energy": 0.10702,
				"method": "rhf"
			},
			{
				"type": "unocc",
				"energy": 0.12777,
				"method": "rhf"
			}
		],
		"cosmo_sigma_profile": { 
			"-0.025": 0.0,
			"-0.024": 0.0,
			"-0.023": 0.0,
			"-0.022": 0.0,
			"-0.021": 0.0,
			"-0.02": 0.0,
			"-0.019": 0.0,
			"-0.018": 0.0,
			"-0.017": 0.0,
			"-0.016": 0.0,
			"-0.015": 0.0,
			"-0.014": 0.0,
			"-0.013": 0.0,
			"-0.012": 0.0,
			"-0.011": 0.560553939394,
			"-0.01": 2.31323979617,
			"-0.009": 5.52428802752,
			"-0.008": 7.20916320675,
			"-0.007": 8.50869529711,
			"-0.006": 10.7349134961,
			"-0.005": 7.73295282563,
			"-0.004": 6.19124323964,
			"-0.003": 6.53107584202,
			"-0.002": 4.57023116849,
			"-0.001": 3.63700617802,
			"0.0": 2.81963647131,
			"0.001": 3.19716182511,
			"0.002": 3.09392129901,
			"0.003": 3.09620902452,
			"0.004": 3.1691776876,
			"0.005": 4.69121720353,
			"0.006": 5.21892359063,
			"0.007": 8.15072108056,
			"0.008": 7.39111891798,
			"0.009": 5.21270064091,
			"0.01": 2.08192201112,
			"0.011": 1.39259933361,
			"0.012": 1.01545668242,
			"0.013": 2.18019908794,
			"0.014": 1.92414051034,
			"0.015": 0.0534276555782,
			"0.016": 0.0,
			"0.017": 0.0,
			"0.018": 0.0,
			"0.019": 0.0,
			"0.02": 0.0,
			"0.021": 0.0,
			"0.022": 0.0,
			"0.023": 0.0,
			"0.024": 0.0,
			"0.025": 0.0
		}
	}
}
