{
	 "smiles": "O=C1OC=CC=C1", 
	 "Tm": 281.65, 
	 "num_atms": 11, 
	 "gaussian": { 
		 "optdone": 1, 
		 "sigma_profile": "yes", 
		 "theory": "DFT", 
		 "functional": "B3LYP", 
		 "basiset": "6-31G**", 
		 "properties": { 
			 "R2extent": 1125.7106, 
			 "electric_dipole_moment_norm": 4.56444722393, 
			 "electric_quadrupole_moment_norm": 14.4274490562, 
			 "total_energy": -343.366356991, 
			 "HOMO_LUMO_gap": 0.1777, 
			 "cosmo_polarized_energy": -10.39, 
			 "cosmo_cavitation_energy": 15.49, 
			 "cosmo_dispersion_energy": -11.78, 
			 "cosmo_repulsion_energy": 1.0, 
			 "cosmo_total_nonelectrostatic_energy": 4.7, 
			 "SMD_solvation_energy": 4.62 
		},
		"coords": [
			{
				"x": 0.1225380733,
				"y": -3.2674630413,
				"z": 1.3335260929,
				"element": "O" 
			},
			{
				"x": 0.5312665469,
				"y": -2.3291669918,
				"z": 0.6942731393,
				"element": "C" 
			},
			{
				"x": -0.3751196815,
				"y": -1.7065019711,
				"z": -0.2020889949,
				"element": "O" 
			},
			{
				"x": -0.0261942683,
				"y": -0.6540027782,
				"z": -0.9629686386,
				"element": "C" 
			},
			{
				"x": 1.2082936278,
				"y": -0.1010604528,
				"z": -0.9409910708,
				"element": "C" 
			},
			{
				"x": 2.1801108834,
				"y": -0.6757599661,
				"z": -0.0591285431,
				"element": "C" 
			},
			{
				"x": 1.8576385558,
				"y": -1.7403052911,
				"z": 0.722587194,
				"element": "C" 
			},
			{
				"x": -0.8475872201,
				"y": -0.3129801057,
				"z": -1.5843988318,
				"element": "H" 
			},
			{
				"x": 1.4385551088,
				"y": 0.7464461212,
				"z": -1.5740280078,
				"element": "H" 
			},
			{
				"x": 3.1810599833,
				"y": -0.254887399,
				"z": -0.0176919859,
				"element": "H" 
			},
			{
				"x": 2.5648383907,
				"y": -2.2017181241,
				"z": 1.4013096467,
				"element": "H" 
			}
		],
		 "valence_orbital": [ 
			{
				"type": "occ",
				"energy": -0.36563,
				"method": "rhf"
			},
			{
				"type": "occ",
				"energy": -0.36138,
				"method": "rhf"
			},
			{
				"type": "occ",
				"energy": -0.33426,
				"method": "rhf"
			},
			{
				"type": "occ",
				"energy": -0.27401,
				"method": "rhf"
			},
			{
				"type": "occ",
				"energy": -0.23964,
				"method": "rhf"
			},
			{
				"type": "unocc",
				"energy": -0.06194,
				"method": "rhf"
			},
			{
				"type": "unocc",
				"energy": 0.00584,
				"method": "rhf"
			},
			{
				"type": "unocc",
				"energy": 0.08129,
				"method": "rhf"
			},
			{
				"type": "unocc",
				"energy": 0.11613,
				"method": "rhf"
			},
			{
				"type": "unocc",
				"energy": 0.1193,
				"method": "rhf"
			}
		],
		"cosmo_sigma_profile": { 
			"-0.025": 0.0,
			"-0.024": 0.0,
			"-0.023": 0.0,
			"-0.022": 0.0,
			"-0.021": 0.0,
			"-0.02": 0.0,
			"-0.019": 0.0,
			"-0.018": 0.0,
			"-0.017": 0.0,
			"-0.016": 0.0,
			"-0.015": 0.0,
			"-0.014": 0.0,
			"-0.013": 0.0,
			"-0.012": 0.0,
			"-0.011": 0.0,
			"-0.01": 1.25949395278,
			"-0.009": 2.4213513774,
			"-0.008": 7.09916311536,
			"-0.007": 8.97974061343,
			"-0.006": 8.30042450608,
			"-0.005": 6.38499600057,
			"-0.004": 4.82672655737,
			"-0.003": 8.07720643879,
			"-0.002": 9.07832857077,
			"-0.001": 9.57752656822,
			"0.0": 9.61663774073,
			"0.001": 10.5627453405,
			"0.002": 7.4141040448,
			"0.003": 2.13125425435,
			"0.004": 2.59716937614,
			"0.005": 1.79253330326,
			"0.006": 1.78988414207,
			"0.007": 2.24738218601,
			"0.008": 2.43521910239,
			"0.009": 2.35058084859,
			"0.01": 2.83769072699,
			"0.011": 2.6379935804,
			"0.012": 6.63837908783,
			"0.013": 3.80683120069,
			"0.014": 0.149094215549,
			"0.015": 0.0,
			"0.016": 0.0,
			"0.017": 0.0,
			"0.018": 0.0,
			"0.019": 0.0,
			"0.02": 0.0,
			"0.021": 0.0,
			"0.022": 0.0,
			"0.023": 0.0,
			"0.024": 0.0,
			"0.025": 0.0
		}
	}
}
