{
	 "smiles": "OC(=O)C(F)(F)C(F)(F)C(F)(F)C(F)(F)C(F)(F)C(F)(F)C(F)(F)C(F)(F)C(O)=O", 
	 "Tm": 430.15, 
	 "num_atms": 32, 
	 "gaussian": { 
		 "optdone": 1, 
		 "sigma_profile": "yes", 
		 "theory": "DFT", 
		 "functional": "B3LYP", 
		 "basiset": "6-31G**", 
		 "properties": { 
			 "R2extent": 11511.3933, 
			 "electric_dipole_moment_norm": 1.51471797045, 
			 "electric_quadrupole_moment_norm": 27.6537487122, 
			 "total_energy": -2280.52924127, 
			 "HOMO_LUMO_gap": 0.26728, 
			 "cosmo_polarized_energy": -15.0, 
			 "cosmo_cavitation_energy": 41.45, 
			 "cosmo_dispersion_energy": -27.46, 
			 "cosmo_repulsion_energy": 1.79, 
			 "cosmo_total_nonelectrostatic_energy": 15.78, 
			 "SMD_solvation_energy": 13.94 
		},
		"coords": [
			{
				"x": -2.3325939259,
				"y": 3.8385664042,
				"z": -3.7743105843,
				"element": "O" 
			},
			{
				"x": -3.0865734902,
				"y": 2.7477570228,
				"z": -3.5840496823,
				"element": "C" 
			},
			{
				"x": -4.251608597,
				"y": 2.7366239231,
				"z": -3.2882371757,
				"element": "O" 
			},
			{
				"x": -2.2712850165,
				"y": 1.4617597955,
				"z": -3.8585254981,
				"element": "C" 
			},
			{
				"x": -3.09504681,
				"y": 0.4015631607,
				"z": -3.7373535055,
				"element": "F" 
			},
			{
				"x": -1.8112801273,
				"y": 1.5218651091,
				"z": -5.1365637624,
				"element": "F" 
			},
			{
				"x": -1.0233687226,
				"y": 1.2027117513,
				"z": -2.9615599579,
				"element": "C" 
			},
			{
				"x": -0.4320585731,
				"y": 0.0786197321,
				"z": -3.4266037719,
				"element": "F" 
			},
			{
				"x": -0.1658840375,
				"y": 2.2378148624,
				"z": -3.0966370425,
				"element": "F" 
			},
			{
				"x": -1.3607408467,
				"y": 1.0035034221,
				"z": -1.4603679859,
				"element": "C" 
			},
			{
				"x": -2.0017480022,
				"y": -0.1721529791,
				"z": -1.3026075641,
				"element": "F" 
			},
			{
				"x": -2.2082456859,
				"y": 2.0121625557,
				"z": -1.1067854682,
				"element": "F" 
			},
			{
				"x": -0.1933600599,
				"y": 1.0788977385,
				"z": -0.4286261387,
				"element": "C" 
			},
			{
				"x": -0.7552947259,
				"y": 0.9166574548,
				"z": 0.7912290019,
				"element": "F" 
			},
			{
				"x": 0.333366691,
				"y": 2.3228349772,
				"z": -0.4949685473,
				"element": "F" 
			},
			{
				"x": 1.0115960875,
				"y": 0.1007765894,
				"z": -0.5446792509,
				"element": "C" 
			},
			{
				"x": 1.6191264518,
				"y": 0.3496643415,
				"z": -1.7312008812,
				"element": "F" 
			},
			{
				"x": 1.8643040505,
				"y": 0.4308737448,
				"z": 0.450847274,
				"element": "F" 
			},
			{
				"x": 0.8012787453,
				"y": -1.4418491882,
				"z": -0.4875853167,
				"element": "C" 
			},
			{
				"x": 2.0512175238,
				"y": -1.9764254493,
				"z": -0.5801137401,
				"element": "F" 
			},
			{
				"x": 0.0957286762,
				"y": -1.8113655142,
				"z": -1.5781981342,
				"element": "F" 
			},
			{
				"x": 0.1243337816,
				"y": -2.1210904307,
				"z": 0.7365878422,
				"element": "C" 
			},
			{
				"x": 0.1100889598,
				"y": -3.4444222785,
				"z": 0.4516242687,
				"element": "F" 
			},
			{
				"x": -1.1526983797,
				"y": -1.687598303,
				"z": 0.8301022436,
				"element": "F" 
			},
			{
				"x": 0.7929777316,
				"y": -1.9511392305,
				"z": 2.1302480805,
				"element": "C" 
			},
			{
				"x": 0.6476647819,
				"y": -0.6704896769,
				"z": 2.525403733,
				"element": "F" 
			},
			{
				"x": 0.0963190733,
				"y": -2.7499598599,
				"z": 2.9798901293,
				"element": "F" 
			},
			{
				"x": 2.2918074548,
				"y": -2.3284897254,
				"z": 2.2078794471,
				"element": "C" 
			},
			{
				"x": 2.4497545591,
				"y": -3.6532194943,
				"z": 2.0974630812,
				"element": "O" 
			},
			{
				"x": 3.1667351946,
				"y": -1.5198544294,
				"z": 2.3696475118,
				"element": "O" 
			},
			{
				"x": -2.903299693,
				"y": 4.61043271,
				"z": -3.6162301987,
				"element": "H" 
			},
			{
				"x": 3.4039869308,
				"y": -3.8335287354,
				"z": 2.1554815932,
				"element": "H" 
			}
		],
		 "valence_orbital": [ 
			{
				"type": "occ",
				"energy": -0.3562,
				"method": "rhf"
			},
			{
				"type": "occ",
				"energy": -0.35559,
				"method": "rhf"
			},
			{
				"type": "occ",
				"energy": -0.3513,
				"method": "rhf"
			},
			{
				"type": "occ",
				"energy": -0.313,
				"method": "rhf"
			},
			{
				"type": "occ",
				"energy": -0.31115,
				"method": "rhf"
			},
			{
				"type": "unocc",
				"energy": -0.04387,
				"method": "rhf"
			},
			{
				"type": "unocc",
				"energy": -0.04006,
				"method": "rhf"
			},
			{
				"type": "unocc",
				"energy": 0.00957,
				"method": "rhf"
			},
			{
				"type": "unocc",
				"energy": 0.01096,
				"method": "rhf"
			},
			{
				"type": "unocc",
				"energy": 0.03859,
				"method": "rhf"
			}
		],
		"cosmo_sigma_profile": { 
			"-0.025": 0.0,
			"-0.024": 0.0,
			"-0.023": 0.0,
			"-0.022": 0.0,
			"-0.021": 0.42316230582,
			"-0.02": 1.77548269521,
			"-0.019": 2.58930510224,
			"-0.018": 1.85295280019,
			"-0.017": 1.35861403889,
			"-0.016": 1.99085214099,
			"-0.015": 1.1849915695,
			"-0.014": 1.51902703544,
			"-0.013": 2.10478573806,
			"-0.012": 0.975295380309,
			"-0.011": 0.91257586627,
			"-0.01": 1.9061304927,
			"-0.009": 2.32650432599,
			"-0.008": 2.55590929408,
			"-0.007": 2.14903942525,
			"-0.006": 3.72067926701,
			"-0.005": 3.97849618403,
			"-0.004": 4.55224493414,
			"-0.003": 5.65731495757,
			"-0.002": 14.5329151533,
			"-0.001": 28.6400211918,
			"0.0": 66.7257869079,
			"0.001": 94.3763740195,
			"0.002": 29.1629474314,
			"0.003": 9.55813912403,
			"0.004": 9.00065342471,
			"0.005": 7.090127554,
			"0.006": 6.93869235518,
			"0.007": 5.2698360758,
			"0.008": 4.96130779989,
			"0.009": 9.13701142249,
			"0.01": 3.19870110435,
			"0.011": 0.0,
			"0.012": 0.0,
			"0.013": 0.0,
			"0.014": 0.0,
			"0.015": 0.0,
			"0.016": 0.0,
			"0.017": 0.0,
			"0.018": 0.0,
			"0.019": 0.0,
			"0.02": 0.0,
			"0.021": 0.0,
			"0.022": 0.0,
			"0.023": 0.0,
			"0.024": 0.0,
			"0.025": 0.0
		}
	}
}
