{
	 "smiles": "ClC1=CC=C(CC(=O)C2=CC=CC=C2)C=C1", 
	 "Tm": 406.15, 
	 "num_atms": 27, 
	 "gaussian": { 
		 "optdone": 1, 
		 "sigma_profile": "yes", 
		 "theory": "DFT", 
		 "functional": "B3LYP", 
		 "basiset": "6-31G**", 
		 "properties": { 
			 "R2extent": 5950.3037, 
			 "electric_dipole_moment_norm": 3.15617866731, 
			 "electric_quadrupole_moment_norm": 13.5706286266, 
			 "total_energy": -1075.541007, 
			 "HOMO_LUMO_gap": 0.17534, 
			 "cosmo_polarized_energy": -9.7, 
			 "cosmo_cavitation_energy": 33.2, 
			 "cosmo_dispersion_energy": -23.69, 
			 "cosmo_repulsion_energy": 1.84, 
			 "cosmo_total_nonelectrostatic_energy": 11.36, 
			 "SMD_solvation_energy": 5.58 
		},
		"coords": [
			{
				"x": -0.2038899362,
				"y": -4.8195106398,
				"z": -2.7833329764,
				"element": "Cl" 
			},
			{
				"x": -0.0589637157,
				"y": -3.4203720791,
				"z": -1.7273609039,
				"element": "C" 
			},
			{
				"x": 1.0757457793,
				"y": -3.2752532201,
				"z": -0.9325266186,
				"element": "C" 
			},
			{
				"x": 1.1812371839,
				"y": -2.160398275,
				"z": -0.0993278232,
				"element": "C" 
			},
			{
				"x": 0.1700105582,
				"y": -1.1942993948,
				"z": -0.0480015887,
				"element": "C" 
			},
			{
				"x": 0.2774151139,
				"y": 0.0094220049,
				"z": 0.8758432674,
				"element": "C" 
			},
			{
				"x": 0.0499210568,
				"y": 1.3306077952,
				"z": 0.1320479927,
				"element": "C" 
			},
			{
				"x": -1.07431929,
				"y": 1.8119511587,
				"z": 0.1026798335,
				"element": "O" 
			},
			{
				"x": 1.1895966895,
				"y": 2.0031377452,
				"z": -0.5671309781,
				"element": "C" 
			},
			{
				"x": 0.9472675876,
				"y": 3.2532633577,
				"z": -1.16100941,
				"element": "C" 
			},
			{
				"x": 1.9665379095,
				"y": 3.9303008502,
				"z": -1.8222461523,
				"element": "C" 
			},
			{
				"x": 3.2422139624,
				"y": 3.3631338249,
				"z": -1.9061571379,
				"element": "C" 
			},
			{
				"x": 3.4921824734,
				"y": 2.1179231646,
				"z": -1.3266593544,
				"element": "C" 
			},
			{
				"x": 2.4725096002,
				"y": 1.4416142907,
				"z": -0.6572172322,
				"element": "C" 
			},
			{
				"x": -0.9617879421,
				"y": -1.3672053902,
				"z": -0.857666246,
				"element": "C" 
			},
			{
				"x": -1.0827061842,
				"y": -2.4731987568,
				"z": -1.6968212648,
				"element": "C" 
			},
			{
				"x": 1.8626238096,
				"y": -4.0207537199,
				"z": -0.9639620191,
				"element": "H" 
			},
			{
				"x": 2.063778938,
				"y": -2.0518798885,
				"z": 0.5262601372,
				"element": "H" 
			},
			{
				"x": 1.2439255066,
				"y": 0.0035066281,
				"z": 1.3873611939,
				"element": "H" 
			},
			{
				"x": -0.5054958072,
				"y": -0.0371718475,
				"z": 1.6393075677,
				"element": "H" 
			},
			{
				"x": -0.0515969873,
				"y": 3.6696417034,
				"z": -1.0860537693,
				"element": "H" 
			},
			{
				"x": 1.7709518972,
				"y": 4.8982606315,
				"z": -2.2743460045,
				"element": "H" 
			},
			{
				"x": 4.038682882,
				"y": 3.8902924344,
				"z": -2.423701429,
				"element": "H" 
			},
			{
				"x": 4.4804287437,
				"y": 1.6731498487,
				"z": -1.3964233622,
				"element": "H" 
			},
			{
				"x": 2.6783233164,
				"y": 0.4696549398,
				"z": -0.2226602696,
				"element": "H" 
			},
			{
				"x": -1.7547293598,
				"y": -0.6255649987,
				"z": -0.8305026038,
				"element": "H" 
			},
			{
				"x": -1.9605637857,
				"y": -2.6012521676,
				"z": -2.3204928485,
				"element": "H" 
			}
		],
		 "valence_orbital": [ 
			{
				"type": "occ",
				"energy": -0.26651,
				"method": "rhf"
			},
			{
				"type": "occ",
				"energy": -0.26499,
				"method": "rhf"
			},
			{
				"type": "occ",
				"energy": -0.26236,
				"method": "rhf"
			},
			{
				"type": "occ",
				"energy": -0.25839,
				"method": "rhf"
			},
			{
				"type": "occ",
				"energy": -0.2385,
				"method": "rhf"
			},
			{
				"type": "unocc",
				"energy": -0.06316,
				"method": "rhf"
			},
			{
				"type": "unocc",
				"energy": -0.01902,
				"method": "rhf"
			},
			{
				"type": "unocc",
				"energy": -0.01469,
				"method": "rhf"
			},
			{
				"type": "unocc",
				"energy": -0.01112,
				"method": "rhf"
			},
			{
				"type": "unocc",
				"energy": 0.0277,
				"method": "rhf"
			}
		],
		"cosmo_sigma_profile": { 
			"-0.025": 0.0,
			"-0.024": 0.0,
			"-0.023": 0.0,
			"-0.022": 0.0,
			"-0.021": 0.0,
			"-0.02": 0.0,
			"-0.019": 0.0,
			"-0.018": 0.0,
			"-0.017": 0.0,
			"-0.016": 0.0,
			"-0.015": 0.0,
			"-0.014": 0.0,
			"-0.013": 0.0,
			"-0.012": 0.0,
			"-0.011": 0.0,
			"-0.01": 0.0393699950834,
			"-0.009": 0.642750669546,
			"-0.008": 2.03419306202,
			"-0.007": 7.84342039976,
			"-0.006": 17.6975967619,
			"-0.005": 21.0933783791,
			"-0.004": 20.3500486489,
			"-0.003": 17.2248768503,
			"-0.002": 16.5252962705,
			"-0.001": 15.1428356423,
			"0.0": 19.7736826852,
			"0.001": 21.9759091583,
			"0.002": 25.7192200199,
			"0.003": 28.1479259867,
			"0.004": 29.472876425,
			"0.005": 10.5473967923,
			"0.006": 1.48874776529,
			"0.007": 1.44574607632,
			"0.008": 1.09340450928,
			"0.009": 2.14109692395,
			"0.01": 1.68213163937,
			"0.011": 2.96164345867,
			"0.012": 3.00112847012,
			"0.013": 0.616756377215,
			"0.014": 0.0,
			"0.015": 0.0,
			"0.016": 0.0,
			"0.017": 0.0,
			"0.018": 0.0,
			"0.019": 0.0,
			"0.02": 0.0,
			"0.021": 0.0,
			"0.022": 0.0,
			"0.023": 0.0,
			"0.024": 0.0,
			"0.025": 0.0
		}
	}
}
