{
	 "smiles": "NC(=NO)C1=C(OC(F)(F)F)C=CC=C1", 
	 "Tm": 373.15, 
	 "num_atms": 22, 
	 "gaussian": { 
		 "optdone": 1, 
		 "sigma_profile": "yes", 
		 "theory": "DFT", 
		 "functional": "B3LYP", 
		 "basiset": "6-31G**", 
		 "properties": { 
			 "R2extent": 3567.564, 
			 "electric_dipole_moment_norm": 1.75309736752, 
			 "electric_quadrupole_moment_norm": 8.38278801951, 
			 "total_energy": -868.482722338, 
			 "HOMO_LUMO_gap": 0.18301, 
			 "cosmo_polarized_energy": -12.39, 
			 "cosmo_cavitation_energy": 28.26, 
			 "cosmo_dispersion_energy": -19.47, 
			 "cosmo_repulsion_energy": 1.51, 
			 "cosmo_total_nonelectrostatic_energy": 10.3, 
			 "SMD_solvation_energy": 6.14 
		},
		"coords": [
			{
				"x": -0.8609924701,
				"y": 2.2981327469,
				"z": -0.6489818963,
				"element": "N" 
			},
			{
				"x": 0.3204285083,
				"y": 1.5859809075,
				"z": -0.8722994287,
				"element": "C" 
			},
			{
				"x": 1.2041717571,
				"y": 2.1122566989,
				"z": -1.6445687649,
				"element": "N" 
			},
			{
				"x": 2.235667977,
				"y": 1.1999358635,
				"z": -1.9578942659,
				"element": "O" 
			},
			{
				"x": 0.3713424047,
				"y": 0.2252304736,
				"z": -0.2672480829,
				"element": "C" 
			},
			{
				"x": 1.3926327925,
				"y": -0.1665608437,
				"z": 0.6063998135,
				"element": "C" 
			},
			{
				"x": 2.4202624807,
				"y": 0.7391163891,
				"z": 0.913876828,
				"element": "O" 
			},
			{
				"x": 2.2810735032,
				"y": 1.4589159516,
				"z": 2.0507041271,
				"element": "C" 
			},
			{
				"x": 3.3057627328,
				"y": 2.3050596369,
				"z": 2.1291551448,
				"element": "F" 
			},
			{
				"x": 1.1312577166,
				"y": 2.1719077029,
				"z": 2.0744234512,
				"element": "F" 
			},
			{
				"x": 2.2782530691,
				"y": 0.6872850595,
				"z": 3.1582569293,
				"element": "F" 
			},
			{
				"x": 1.4367741082,
				"y": -1.4417160471,
				"z": 1.1600691784,
				"element": "C" 
			},
			{
				"x": 0.431259727,
				"y": -2.3570872847,
				"z": 0.8479235877,
				"element": "C" 
			},
			{
				"x": -0.6107056364,
				"y": -1.985216496,
				"z": -0.0030596284,
				"element": "C" 
			},
			{
				"x": -0.6405607868,
				"y": -0.7029719835,
				"z": -0.550101655,
				"element": "C" 
			},
			{
				"x": -0.8156155767,
				"y": 3.2309908849,
				"z": -1.0459325896,
				"element": "H" 
			},
			{
				"x": -1.1357702772,
				"y": 2.3189789877,
				"z": 0.3270646745,
				"element": "H" 
			},
			{
				"x": 2.8589913405,
				"y": 1.7655144085,
				"z": -2.4309915933,
				"element": "H" 
			},
			{
				"x": 2.2508492128,
				"y": -1.6994223614,
				"z": 1.8277497386,
				"element": "H" 
			},
			{
				"x": 0.4616563072,
				"y": -3.3547524754,
				"z": 1.2750698081,
				"element": "H" 
			},
			{
				"x": -1.3975862086,
				"y": -2.6933756522,
				"z": -0.2439670636,
				"element": "H" 
			},
			{
				"x": -1.446252682,
				"y": -0.4034025674,
				"z": -1.2121483124,
				"element": "H" 
			}
		],
		 "valence_orbital": [ 
			{
				"type": "occ",
				"energy": -0.31904,
				"method": "rhf"
			},
			{
				"type": "occ",
				"energy": -0.27233,
				"method": "rhf"
			},
			{
				"type": "occ",
				"energy": -0.26388,
				"method": "rhf"
			},
			{
				"type": "occ",
				"energy": -0.26067,
				"method": "rhf"
			},
			{
				"type": "occ",
				"energy": -0.21267,
				"method": "rhf"
			},
			{
				"type": "unocc",
				"energy": -0.02966,
				"method": "rhf"
			},
			{
				"type": "unocc",
				"energy": -0.015,
				"method": "rhf"
			},
			{
				"type": "unocc",
				"energy": 0.03695,
				"method": "rhf"
			},
			{
				"type": "unocc",
				"energy": 0.07964,
				"method": "rhf"
			},
			{
				"type": "unocc",
				"energy": 0.08311,
				"method": "rhf"
			}
		],
		"cosmo_sigma_profile": { 
			"-0.025": 0.0,
			"-0.024": 0.0,
			"-0.023": 0.0,
			"-0.022": 0.0,
			"-0.021": 0.0,
			"-0.02": 0.0,
			"-0.019": 0.0,
			"-0.018": 0.0,
			"-0.017": 0.416980846688,
			"-0.016": 0.906571395885,
			"-0.015": 0.944421965145,
			"-0.014": 1.16796603077,
			"-0.013": 1.06362670292,
			"-0.012": 2.26895474227,
			"-0.011": 1.99441423349,
			"-0.01": 3.96478525858,
			"-0.009": 3.28595903655,
			"-0.008": 2.41702234914,
			"-0.007": 7.34905654808,
			"-0.006": 10.9798558873,
			"-0.005": 11.547815035,
			"-0.004": 8.97835256362,
			"-0.003": 8.59923977933,
			"-0.002": 10.9036989539,
			"-0.001": 12.6905860754,
			"0.0": 14.8517356575,
			"0.001": 23.0100335206,
			"0.002": 36.2748909687,
			"0.003": 17.3393735076,
			"0.004": 8.89523418464,
			"0.005": 4.93968350966,
			"0.006": 4.79423683313,
			"0.007": 5.23440059692,
			"0.008": 4.77109147148,
			"0.009": 4.5048863223,
			"0.01": 4.63105026802,
			"0.011": 3.07634420087,
			"0.012": 2.17383875242,
			"0.013": 0.89992683927,
			"0.014": 0.347271554626,
			"0.015": 0.0,
			"0.016": 0.0,
			"0.017": 0.0,
			"0.018": 0.0,
			"0.019": 0.0,
			"0.02": 0.0,
			"0.021": 0.0,
			"0.022": 0.0,
			"0.023": 0.0,
			"0.024": 0.0,
			"0.025": 0.0
		}
	}
}
