{
	 "smiles": "COC1=NC=C(C=C1)C(N)=S", 
	 "Tm": 424.15, 
	 "num_atms": 19, 
	 "gaussian": { 
		 "optdone": 1, 
		 "sigma_profile": "yes", 
		 "theory": "DFT", 
		 "functional": "B3LYP", 
		 "basiset": "6-31G**", 
		 "properties": { 
			 "R2extent": 3652.4554, 
			 "electric_dipole_moment_norm": 4.63345830563, 
			 "electric_quadrupole_moment_norm": 23.6410823117, 
			 "total_energy": -854.481888482, 
			 "HOMO_LUMO_gap": 0.14742, 
			 "cosmo_polarized_energy": -16.67, 
			 "cosmo_cavitation_energy": 25.08, 
			 "cosmo_dispersion_energy": -19.14, 
			 "cosmo_repulsion_energy": 1.5, 
			 "cosmo_total_nonelectrostatic_energy": 7.43, 
			 "SMD_solvation_energy": 3.48 
		},
		"coords": [
			{
				"x": -2.1428714456,
				"y": 2.9837553947,
				"z": -0.1708284644,
				"element": "C" 
			},
			{
				"x": -2.0159630044,
				"y": 2.5237895641,
				"z": -1.522561187,
				"element": "O" 
			},
			{
				"x": -1.3429242343,
				"y": 1.3765326683,
				"z": -1.7239368146,
				"element": "C" 
			},
			{
				"x": -0.8187690591,
				"y": 0.7303830247,
				"z": -0.684077793,
				"element": "N" 
			},
			{
				"x": -0.1652290232,
				"y": -0.4113558986,
				"z": -0.9220280209,
				"element": "C" 
			},
			{
				"x": 0.0159144764,
				"y": -0.9609064176,
				"z": -2.197574632,
				"element": "C" 
			},
			{
				"x": -0.5511527594,
				"y": -0.2528239836,
				"z": -3.2796966204,
				"element": "C" 
			},
			{
				"x": -1.2408193257,
				"y": 0.9227077611,
				"z": -3.0531194688,
				"element": "C" 
			},
			{
				"x": 0.7663911675,
				"y": -2.2250359522,
				"z": -2.3786809522,
				"element": "C" 
			},
			{
				"x": 1.3616968404,
				"y": -2.3736437762,
				"z": -3.5886036529,
				"element": "N" 
			},
			{
				"x": 0.8630651938,
				"y": -3.4195932942,
				"z": -1.2155673657,
				"element": "S" 
			},
			{
				"x": -2.7159488568,
				"y": 3.9092043174,
				"z": -0.2361270373,
				"element": "H" 
			},
			{
				"x": -1.1617561646,
				"y": 3.171682874,
				"z": 0.2733027895,
				"element": "H" 
			},
			{
				"x": -2.6697247848,
				"y": 2.2501398918,
				"z": 0.4450708444,
				"element": "H" 
			},
			{
				"x": 0.249723599,
				"y": -0.926104158,
				"z": -0.0599604121,
				"element": "H" 
			},
			{
				"x": -0.486492,
				"y": -0.647997572,
				"z": -4.2894761616,
				"element": "H" 
			},
			{
				"x": -1.7087100405,
				"y": 1.4852568601,
				"z": -3.8526076721,
				"element": "H" 
			},
			{
				"x": 1.5264207588,
				"y": -1.5802665684,
				"z": -4.1906288142,
				"element": "H" 
			},
			{
				"x": 1.9159486626,
				"y": -3.2046247354,
				"z": -3.7367985647,
				"element": "H" 
			}
		],
		 "valence_orbital": [ 
			{
				"type": "occ",
				"energy": -0.29899,
				"method": "rhf"
			},
			{
				"type": "occ",
				"energy": -0.27474,
				"method": "rhf"
			},
			{
				"type": "occ",
				"energy": -0.2508,
				"method": "rhf"
			},
			{
				"type": "occ",
				"energy": -0.22705,
				"method": "rhf"
			},
			{
				"type": "occ",
				"energy": -0.20721,
				"method": "rhf"
			},
			{
				"type": "unocc",
				"energy": -0.05979,
				"method": "rhf"
			},
			{
				"type": "unocc",
				"energy": -0.03274,
				"method": "rhf"
			},
			{
				"type": "unocc",
				"energy": 0.0223,
				"method": "rhf"
			},
			{
				"type": "unocc",
				"energy": 0.06859,
				"method": "rhf"
			},
			{
				"type": "unocc",
				"energy": 0.09023,
				"method": "rhf"
			}
		],
		"cosmo_sigma_profile": { 
			"-0.025": 0.0,
			"-0.024": 0.0,
			"-0.023": 0.0,
			"-0.022": 0.0,
			"-0.021": 0.0,
			"-0.02": 0.0,
			"-0.019": 0.0,
			"-0.018": 0.0,
			"-0.017": 0.0,
			"-0.016": 0.229331943338,
			"-0.015": 2.03642207478,
			"-0.014": 2.55474613779,
			"-0.013": 2.66703339642,
			"-0.012": 2.67828852983,
			"-0.011": 2.21640636139,
			"-0.01": 2.26110507273,
			"-0.009": 2.12406337116,
			"-0.008": 3.89996403634,
			"-0.007": 5.06063268695,
			"-0.006": 8.27762494985,
			"-0.005": 10.5103024275,
			"-0.004": 11.8335692815,
			"-0.003": 14.1870063043,
			"-0.002": 10.2415411693,
			"-0.001": 13.1260446387,
			"0.0": 16.1687051128,
			"0.001": 15.6687072964,
			"0.002": 11.7809637922,
			"0.003": 7.1923032197,
			"0.004": 8.17786179648,
			"0.005": 6.96978952006,
			"0.006": 6.28236413479,
			"0.007": 8.38204050661,
			"0.008": 8.17083670821,
			"0.009": 8.03526150979,
			"0.01": 5.64579482697,
			"0.011": 4.43165830312,
			"0.012": 1.78056470412,
			"0.013": 0.289474880943,
			"0.014": 0.0,
			"0.015": 0.0,
			"0.016": 0.0,
			"0.017": 0.0,
			"0.018": 0.0,
			"0.019": 0.0,
			"0.02": 0.0,
			"0.021": 0.0,
			"0.022": 0.0,
			"0.023": 0.0,
			"0.024": 0.0,
			"0.025": 0.0
		}
	}
}
