{
	 "smiles": "OC(=O)C1CCCN1C1=C2C=CC=CC2=NC=N1", 
	 "Tm": 413.15, 
	 "num_atms": 31, 
	 "gaussian": { 
		 "optdone": 1, 
		 "sigma_profile": "yes", 
		 "theory": "DFT", 
		 "functional": "B3LYP", 
		 "basiset": "6-31G**", 
		 "properties": { 
			 "R2extent": 4516.0951, 
			 "electric_dipole_moment_norm": 5.08179603684, 
			 "electric_quadrupole_moment_norm": 5.24338705609, 
			 "total_energy": -817.945041187, 
			 "HOMO_LUMO_gap": 0.16807, 
			 "cosmo_polarized_energy": -16.93, 
			 "cosmo_cavitation_energy": 33.36, 
			 "cosmo_dispersion_energy": -24.33, 
			 "cosmo_repulsion_energy": 1.86, 
			 "cosmo_total_nonelectrostatic_energy": 10.89, 
			 "SMD_solvation_energy": 3.67 
		},
		"coords": [
			{
				"x": -2.1182229759,
				"y": -0.9797889513,
				"z": -0.9594114452,
				"element": "O" 
			},
			{
				"x": -2.4172131907,
				"y": 0.340750858,
				"z": -0.9106041523,
				"element": "C" 
			},
			{
				"x": -3.550899688,
				"y": 0.7583313038,
				"z": -0.8580969511,
				"element": "O" 
			},
			{
				"x": -1.1886563927,
				"y": 1.2410992381,
				"z": -1.0534678546,
				"element": "C" 
			},
			{
				"x": -0.8702069636,
				"y": 1.501953029,
				"z": -2.5413504617,
				"element": "C" 
			},
			{
				"x": 0.0921017504,
				"y": 0.3608391285,
				"z": -2.8968368478,
				"element": "C" 
			},
			{
				"x": 0.9495989732,
				"y": 0.2209775658,
				"z": -1.6300372608,
				"element": "C" 
			},
			{
				"x": 0.0589535155,
				"y": 0.6582737011,
				"z": -0.5439854904,
				"element": "N" 
			},
			{
				"x": 0.1550365988,
				"y": 0.3715086992,
				"z": 0.7920364691,
				"element": "C" 
			},
			{
				"x": 1.3419360085,
				"y": -0.1283908496,
				"z": 1.4594127684,
				"element": "C" 
			},
			{
				"x": 2.6347984714,
				"y": -0.2903941743,
				"z": 0.8960863863,
				"element": "C" 
			},
			{
				"x": 3.6820702134,
				"y": -0.7864378911,
				"z": 1.6466476844,
				"element": "C" 
			},
			{
				"x": 3.4873203664,
				"y": -1.1442157876,
				"z": 2.9975875968,
				"element": "C" 
			},
			{
				"x": 2.2534538956,
				"y": -0.9725241432,
				"z": 3.5840694509,
				"element": "C" 
			},
			{
				"x": 1.1637163728,
				"y": -0.4465941341,
				"z": 2.8447262954,
				"element": "C" 
			},
			{
				"x": -0.0140735406,
				"y": -0.2407356657,
				"z": 3.510854553,
				"element": "N" 
			},
			{
				"x": -0.9778317047,
				"y": 0.2934422807,
				"z": 2.796873357,
				"element": "C" 
			},
			{
				"x": -0.9617424605,
				"y": 0.6038633554,
				"z": 1.485475638,
				"element": "N" 
			},
			{
				"x": -2.9674791721,
				"y": -1.446335611,
				"z": -0.8827693575,
				"element": "H" 
			},
			{
				"x": -1.4390616647,
				"y": 2.1551845638,
				"z": -0.5128619564,
				"element": "H" 
			},
			{
				"x": -0.3713557973,
				"y": 2.4724962768,
				"z": -2.6351485166,
				"element": "H" 
			},
			{
				"x": -1.7725972898,
				"y": 1.5279526603,
				"z": -3.1564686972,
				"element": "H" 
			},
			{
				"x": 0.6994244796,
				"y": 0.5675954506,
				"z": -3.7818392468,
				"element": "H" 
			},
			{
				"x": -0.4663260302,
				"y": -0.5629251567,
				"z": -3.0721906228,
				"element": "H" 
			},
			{
				"x": 1.8333200787,
				"y": 0.8701608419,
				"z": -1.6951453718,
				"element": "H" 
			},
			{
				"x": 1.289067393,
				"y": -0.8058752577,
				"z": -1.4684446369,
				"element": "H" 
			},
			{
				"x": 2.8288516296,
				"y": -0.0067634543,
				"z": -0.1278617407,
				"element": "H" 
			},
			{
				"x": 4.662458159,
				"y": -0.8966786789,
				"z": 1.1929643644,
				"element": "H" 
			},
			{
				"x": 4.3165330014,
				"y": -1.5413448431,
				"z": 3.5761882247,
				"element": "H" 
			},
			{
				"x": 2.0724897947,
				"y": -1.2132553052,
				"z": 4.6262813453,
				"element": "H" 
			},
			{
				"x": -1.9156638315,
				"y": 0.5036309506,
				"z": 3.309816477,
				"element": "H" 
			}
		],
		 "valence_orbital": [ 
			{
				"type": "occ",
				"energy": -0.2797,
				"method": "rhf"
			},
			{
				"type": "occ",
				"energy": -0.26554,
				"method": "rhf"
			},
			{
				"type": "occ",
				"energy": -0.25429,
				"method": "rhf"
			},
			{
				"type": "occ",
				"energy": -0.24131,
				"method": "rhf"
			},
			{
				"type": "occ",
				"energy": -0.21243,
				"method": "rhf"
			},
			{
				"type": "unocc",
				"energy": -0.04436,
				"method": "rhf"
			},
			{
				"type": "unocc",
				"energy": -0.01975,
				"method": "rhf"
			},
			{
				"type": "unocc",
				"energy": 0.01214,
				"method": "rhf"
			},
			{
				"type": "unocc",
				"energy": 0.02408,
				"method": "rhf"
			},
			{
				"type": "unocc",
				"energy": 0.06743,
				"method": "rhf"
			}
		],
		"cosmo_sigma_profile": { 
			"-0.025": 0.0,
			"-0.024": 0.0,
			"-0.023": 0.0,
			"-0.022": 0.0,
			"-0.021": 0.0,
			"-0.02": 0.0,
			"-0.019": 0.0255151467839,
			"-0.018": 0.843613374586,
			"-0.017": 0.958988718312,
			"-0.016": 0.549883832711,
			"-0.015": 1.23679082242,
			"-0.014": 0.614337466829,
			"-0.013": 0.174258972539,
			"-0.012": 0.551925407708,
			"-0.011": 0.996452847642,
			"-0.01": 1.08093640041,
			"-0.009": 0.468515465889,
			"-0.008": 0.924832630849,
			"-0.007": 4.07170236318,
			"-0.006": 14.376935046,
			"-0.005": 23.7884617753,
			"-0.004": 27.4046766548,
			"-0.003": 23.144394382,
			"-0.002": 18.950831869,
			"-0.001": 18.9458209871,
			"0.0": 15.5685107041,
			"0.001": 14.677265145,
			"0.002": 15.1983693365,
			"0.003": 17.3826572928,
			"0.004": 15.2134695262,
			"0.005": 8.50579817535,
			"0.006": 5.54119661833,
			"0.007": 4.56905436896,
			"0.008": 4.95234940878,
			"0.009": 4.81870532838,
			"0.01": 3.95518239811,
			"0.011": 4.80820035709,
			"0.012": 5.87720255034,
			"0.013": 1.81205883469,
			"0.014": 1.11475605685,
			"0.015": 0.880686630871,
			"0.016": 0.685925923706,
			"0.017": 0.364011258936,
			"0.018": 0.0,
			"0.019": 0.0,
			"0.02": 0.0,
			"0.021": 0.0,
			"0.022": 0.0,
			"0.023": 0.0,
			"0.024": 0.0,
			"0.025": 0.0
		}
	}
}
