{
	 "smiles": "CNC(C)C1=CC=C(C=C1)S(C)=O", 
	 "Tm": 326.15, 
	 "num_atms": 28, 
	 "gaussian": { 
		 "optdone": 1, 
		 "sigma_profile": "yes", 
		 "theory": "DFT", 
		 "functional": "B3LYP", 
		 "basiset": "6-31G**", 
		 "properties": { 
			 "R2extent": 3868.1049, 
			 "electric_dipole_moment_norm": 5.11592015673, 
			 "electric_quadrupole_moment_norm": 14.4693784908, 
			 "total_energy": -918.211193408, 
			 "HOMO_LUMO_gap": 0.19823, 
			 "cosmo_polarized_energy": -13.97, 
			 "cosmo_cavitation_energy": 31.58, 
			 "cosmo_dispersion_energy": -22.88, 
			 "cosmo_repulsion_energy": 1.77, 
			 "cosmo_total_nonelectrostatic_energy": 10.47, 
			 "SMD_solvation_energy": 4.17 
		},
		"coords": [
			{
				"x": -0.357280174,
				"y": 4.0973474998,
				"z": -0.278211798,
				"element": "C" 
			},
			{
				"x": 0.9617265292,
				"y": 3.7805888754,
				"z": -0.822032457,
				"element": "N" 
			},
			{
				"x": 1.021987805,
				"y": 2.6423515906,
				"z": -1.7548039516,
				"element": "C" 
			},
			{
				"x": 0.1262844166,
				"y": 2.7858296484,
				"z": -2.9995535942,
				"element": "C" 
			},
			{
				"x": 0.8248556247,
				"y": 1.3326605395,
				"z": -0.9851055332,
				"element": "C" 
			},
			{
				"x": 0.0496164663,
				"y": 0.2724041617,
				"z": -1.4735205996,
				"element": "C" 
			},
			{
				"x": -0.0633648112,
				"y": -0.9240790625,
				"z": -0.7611618167,
				"element": "C" 
			},
			{
				"x": 0.5906428419,
				"y": -1.0562445931,
				"z": 0.4620202988,
				"element": "C" 
			},
			{
				"x": 1.3789398639,
				"y": -0.0217265404,
				"z": 0.9638637951,
				"element": "C" 
			},
			{
				"x": 1.4865578501,
				"y": 1.1648219896,
				"z": 0.2425184769,
				"element": "C" 
			},
			{
				"x": 0.5123331857,
				"y": -2.6153443907,
				"z": 1.4036857384,
				"element": "S" 
			},
			{
				"x": -1.1743969558,
				"y": -2.354990468,
				"z": 2.088555992,
				"element": "C" 
			},
			{
				"x": 1.4789936601,
				"y": -2.4890425483,
				"z": 2.5609258754,
				"element": "O" 
			},
			{
				"x": -0.2596962966,
				"y": 4.9340116419,
				"z": 0.4202957719,
				"element": "H" 
			},
			{
				"x": -1.1220308955,
				"y": 4.3685598658,
				"z": -1.0248990786,
				"element": "H" 
			},
			{
				"x": -0.732363541,
				"y": 3.2383005349,
				"z": 0.2865258766,
				"element": "H" 
			},
			{
				"x": 1.3468819224,
				"y": 4.6003232442,
				"z": -1.2827386759,
				"element": "H" 
			},
			{
				"x": 2.0615369041,
				"y": 2.6323531593,
				"z": -2.1143868275,
				"element": "H" 
			},
			{
				"x": 0.3436426118,
				"y": 2.0112480196,
				"z": -3.7417166738,
				"element": "H" 
			},
			{
				"x": 0.3110234597,
				"y": 3.7549357327,
				"z": -3.4750025451,
				"element": "H" 
			},
			{
				"x": -0.9387496487,
				"y": 2.7285057945,
				"z": -2.7543965698,
				"element": "H" 
			},
			{
				"x": -0.4698585396,
				"y": 0.364242164,
				"z": -2.4211469245,
				"element": "H" 
			},
			{
				"x": -0.6576896082,
				"y": -1.7404909777,
				"z": -1.1651934697,
				"element": "H" 
			},
			{
				"x": 1.8989466791,
				"y": -0.1710795973,
				"z": 1.9058743264,
				"element": "H" 
			},
			{
				"x": 2.079617574,
				"y": 1.9886146928,
				"z": 0.6264228918,
				"element": "H" 
			},
			{
				"x": -1.1739891134,
				"y": -1.4398251096,
				"z": 2.6845824657,
				"element": "H" 
			},
			{
				"x": -1.8973674061,
				"y": -2.2878204404,
				"z": 1.271993445,
				"element": "H" 
			},
			{
				"x": -1.3987004044,
				"y": -3.2164554269,
				"z": 2.7215055612,
				"element": "H" 
			}
		],
		 "valence_orbital": [ 
			{
				"type": "occ",
				"energy": -0.26082,
				"method": "rhf"
			},
			{
				"type": "occ",
				"energy": -0.25612,
				"method": "rhf"
			},
			{
				"type": "occ",
				"energy": -0.25602,
				"method": "rhf"
			},
			{
				"type": "occ",
				"energy": -0.22395,
				"method": "rhf"
			},
			{
				"type": "occ",
				"energy": -0.21877,
				"method": "rhf"
			},
			{
				"type": "unocc",
				"energy": -0.02054,
				"method": "rhf"
			},
			{
				"type": "unocc",
				"energy": -0.00789,
				"method": "rhf"
			},
			{
				"type": "unocc",
				"energy": 0.04669,
				"method": "rhf"
			},
			{
				"type": "unocc",
				"energy": 0.05366,
				"method": "rhf"
			},
			{
				"type": "unocc",
				"energy": 0.07875,
				"method": "rhf"
			}
		],
		"cosmo_sigma_profile": { 
			"-0.025": 0.0,
			"-0.024": 0.0,
			"-0.023": 0.0,
			"-0.022": 0.0,
			"-0.021": 0.0,
			"-0.02": 0.0,
			"-0.019": 0.0,
			"-0.018": 0.0,
			"-0.017": 0.0,
			"-0.016": 0.0,
			"-0.015": 0.0,
			"-0.014": 0.0,
			"-0.013": 0.0,
			"-0.012": 0.0,
			"-0.011": 0.0,
			"-0.01": 0.7952914293,
			"-0.009": 1.8011791535,
			"-0.008": 3.05393519991,
			"-0.007": 7.92212365378,
			"-0.006": 9.59162534884,
			"-0.005": 13.0199956589,
			"-0.004": 19.6247370039,
			"-0.003": 26.1737516977,
			"-0.002": 28.9173368196,
			"-0.001": 25.2436355788,
			"0.0": 24.9993407539,
			"0.001": 17.0110263776,
			"0.002": 12.6945687098,
			"0.003": 13.2448802266,
			"0.004": 12.1914189252,
			"0.005": 6.77149193172,
			"0.006": 2.03236550743,
			"0.007": 1.85680920603,
			"0.008": 2.64483598378,
			"0.009": 1.6863825801,
			"0.01": 1.98026005212,
			"0.011": 2.09220556702,
			"0.012": 1.11607723862,
			"0.013": 2.54193793125,
			"0.014": 4.71907290614,
			"0.015": 4.19512813568,
			"0.016": 1.33039804384,
			"0.017": 0.0,
			"0.018": 0.0,
			"0.019": 0.0,
			"0.02": 0.0,
			"0.021": 0.0,
			"0.022": 0.0,
			"0.023": 0.0,
			"0.024": 0.0,
			"0.025": 0.0
		}
	}
}
