{
	 "smiles": "FC(F)(F)C1=NC2=C(C=C(CBr)C=C2)C(Cl)=C1", 
	 "Tm": 394.15, 
	 "num_atms": 23, 
	 "gaussian": { 
		 "optdone": 1, 
		 "sigma_profile": "yes", 
		 "theory": "DFT", 
		 "functional": "B3LYP", 
		 "basiset": "6-31G**", 
		 "properties": { 
			 "R2extent": 8326.1755, 
			 "electric_dipole_moment_norm": 2.76533896295, 
			 "electric_quadrupole_moment_norm": 15.6774521135, 
			 "total_energy": -3808.67222907, 
			 "HOMO_LUMO_gap": 0.1683, 
			 "cosmo_polarized_energy": -8.65, 
			 "cosmo_cavitation_energy": 33.44, 
			 "cosmo_dispersion_energy": -24.21, 
			 "cosmo_repulsion_energy": 1.82, 
			 "cosmo_total_nonelectrostatic_energy": 11.05, 
			 "SMD_solvation_energy": 3.79 
		},
		"coords": [
			{
				"x": -0.9188254098,
				"y": -2.7871605686,
				"z": -3.4069119366,
				"element": "F" 
			},
			{
				"x": -1.2983066049,
				"y": -1.4929501218,
				"z": -3.2995606932,
				"element": "C" 
			},
			{
				"x": -0.9390781928,
				"y": -0.8680770637,
				"z": -4.4350210282,
				"element": "F" 
			},
			{
				"x": -2.6403125784,
				"y": -1.4667357925,
				"z": -3.2241736668,
				"element": "F" 
			},
			{
				"x": -0.6655890702,
				"y": -0.8324201827,
				"z": -2.0853114717,
				"element": "C" 
			},
			{
				"x": -0.9896432483,
				"y": 0.429249573,
				"z": -1.902846809,
				"element": "N" 
			},
			{
				"x": -0.453169492,
				"y": 1.0723883036,
				"z": -0.8336520142,
				"element": "C" 
			},
			{
				"x": 0.4431484672,
				"y": 0.4409224334,
				"z": 0.0931159865,
				"element": "C" 
			},
			{
				"x": 0.9562863763,
				"y": 1.1929395455,
				"z": 1.1802210377,
				"element": "C" 
			},
			{
				"x": 0.6076795492,
				"y": 2.5172770748,
				"z": 1.3535629119,
				"element": "C" 
			},
			{
				"x": 1.1775161678,
				"y": 3.3073424686,
				"z": 2.4878159741,
				"element": "C" 
			},
			{
				"x": -0.1758048478,
				"y": 3.6303562933,
				"z": 3.9247090882,
				"element": "Br" 
			},
			{
				"x": -0.2855403443,
				"y": 3.1362614261,
				"z": 0.4330443029,
				"element": "C" 
			},
			{
				"x": -0.7990767598,
				"y": 2.4366577581,
				"z": -0.6286107209,
				"element": "C" 
			},
			{
				"x": 0.7500664427,
				"y": -0.9222334998,
				"z": -0.1661347908,
				"element": "C" 
			},
			{
				"x": 1.8320979736,
				"y": -1.8022520765,
				"z": 0.8903383653,
				"element": "Cl" 
			},
			{
				"x": 0.2027146972,
				"y": -1.5699771056,
				"z": -1.2496314752,
				"element": "C" 
			},
			{
				"x": 1.6313476618,
				"y": 0.7113368851,
				"z": 1.8793573487,
				"element": "H" 
			},
			{
				"x": 1.4888192787,
				"y": 4.3070513038,
				"z": 2.1877029894,
				"element": "H" 
			},
			{
				"x": 1.9992667094,
				"y": 2.7940508654,
				"z": 2.9829020405,
				"element": "H" 
			},
			{
				"x": -0.5634448629,
				"y": 4.1749270306,
				"z": 0.5871102544,
				"element": "H" 
			},
			{
				"x": -1.4782362129,
				"y": 2.8914400733,
				"z": -1.3414571285,
				"element": "H" 
			},
			{
				"x": 0.4260843003,
				"y": -2.6071946234,
				"z": -1.4595685646,
				"element": "H" 
			}
		],
		 "valence_orbital": [ 
			{
				"type": "occ",
				"energy": -0.28877,
				"method": "rhf"
			},
			{
				"type": "occ",
				"energy": -0.28757,
				"method": "rhf"
			},
			{
				"type": "occ",
				"energy": -0.28182,
				"method": "rhf"
			},
			{
				"type": "occ",
				"energy": -0.27295,
				"method": "rhf"
			},
			{
				"type": "occ",
				"energy": -0.25532,
				"method": "rhf"
			},
			{
				"type": "unocc",
				"energy": -0.08702,
				"method": "rhf"
			},
			{
				"type": "unocc",
				"energy": -0.05722,
				"method": "rhf"
			},
			{
				"type": "unocc",
				"energy": -0.01686,
				"method": "rhf"
			},
			{
				"type": "unocc",
				"energy": 0.00449,
				"method": "rhf"
			},
			{
				"type": "unocc",
				"energy": 0.00929,
				"method": "rhf"
			}
		],
		"cosmo_sigma_profile": { 
			"-0.025": 0.0,
			"-0.024": 0.0,
			"-0.023": 0.0,
			"-0.022": 0.0,
			"-0.021": 0.0,
			"-0.02": 0.0,
			"-0.019": 0.0,
			"-0.018": 0.0,
			"-0.017": 0.0,
			"-0.016": 0.0,
			"-0.015": 0.0,
			"-0.014": 0.0,
			"-0.013": 0.0,
			"-0.012": 0.0,
			"-0.011": 0.0,
			"-0.01": 0.0209370413141,
			"-0.009": 1.84470016781,
			"-0.008": 8.10839947955,
			"-0.007": 10.0819766901,
			"-0.006": 10.0776159841,
			"-0.005": 11.5474685906,
			"-0.004": 12.2534460234,
			"-0.003": 14.5087024728,
			"-0.002": 20.7302870746,
			"-0.001": 26.4247303029,
			"0.0": 21.2270417172,
			"0.001": 26.4714102096,
			"0.002": 40.1398007618,
			"0.003": 31.695709001,
			"0.004": 10.8048062151,
			"0.005": 10.2630265922,
			"0.006": 12.0227399389,
			"0.007": 2.1950215205,
			"0.008": 1.32331012189,
			"0.009": 0.963864734849,
			"0.01": 1.08111245852,
			"0.011": 0.4531345508,
			"0.012": 0.737961909118,
			"0.013": 3.96484779316e-05,
			"0.014": 0.0,
			"0.015": 0.0,
			"0.016": 0.0,
			"0.017": 0.0,
			"0.018": 0.0,
			"0.019": 0.0,
			"0.02": 0.0,
			"0.021": 0.0,
			"0.022": 0.0,
			"0.023": 0.0,
			"0.024": 0.0,
			"0.025": 0.0
		}
	}
}
