{
	 "smiles": "CCNC(=O)C1=CN=C(Cl)C=C1", 
	 "Tm": 410.15, 
	 "num_atms": 21, 
	 "gaussian": { 
		 "optdone": 1, 
		 "sigma_profile": "yes", 
		 "theory": "DFT", 
		 "functional": "B3LYP", 
		 "basiset": "6-31G**", 
		 "properties": { 
			 "R2extent": 3988.3152, 
			 "electric_dipole_moment_norm": 5.54956583347, 
			 "electric_quadrupole_moment_norm": 13.4851245322, 
			 "total_energy": -955.205081167, 
			 "HOMO_LUMO_gap": 0.19837, 
			 "cosmo_polarized_energy": -14.17, 
			 "cosmo_cavitation_energy": 27.13, 
			 "cosmo_dispersion_energy": -19.78, 
			 "cosmo_repulsion_energy": 1.61, 
			 "cosmo_total_nonelectrostatic_energy": 8.95, 
			 "SMD_solvation_energy": 3.34 
		},
		"coords": [
			{
				"x": 4.2257486357,
				"y": 0.8918275274,
				"z": 0.575313826,
				"element": "C" 
			},
			{
				"x": 2.7699841176,
				"y": 0.6959146403,
				"z": 1.0018564957,
				"element": "C" 
			},
			{
				"x": 2.537432503,
				"y": -0.6119394342,
				"z": 1.6159839931,
				"element": "N" 
			},
			{
				"x": 1.524574278,
				"y": -1.5087067938,
				"z": 1.3707915638,
				"element": "C" 
			},
			{
				"x": 1.1701471662,
				"y": -2.3163943517,
				"z": 2.2236147354,
				"element": "O" 
			},
			{
				"x": 0.8849813493,
				"y": -1.5201882912,
				"z": 0.0110600671,
				"element": "C" 
			},
			{
				"x": -0.4805404647,
				"y": -1.8199332135,
				"z": -0.0672706757,
				"element": "C" 
			},
			{
				"x": -1.1549107146,
				"y": -1.9176062455,
				"z": -1.2185454941,
				"element": "N" 
			},
			{
				"x": -0.47174179,
				"y": -1.747810919,
				"z": -2.3373385227,
				"element": "C" 
			},
			{
				"x": -1.3724306346,
				"y": -1.8848308212,
				"z": -3.8431013338,
				"element": "Cl" 
			},
			{
				"x": 0.8981954551,
				"y": -1.479049526,
				"z": -2.4010776015,
				"element": "C" 
			},
			{
				"x": 1.5806913737,
				"y": -1.3607945259,
				"z": -1.1946761129,
				"element": "C" 
			},
			{
				"x": 4.3687338382,
				"y": 1.8913041295,
				"z": 0.1522343274,
				"element": "H" 
			},
			{
				"x": 4.5227235021,
				"y": 0.1522320774,
				"z": -0.1748115157,
				"element": "H" 
			},
			{
				"x": 4.9032410296,
				"y": 0.7894814466,
				"z": 1.4295444634,
				"element": "H" 
			},
			{
				"x": 2.4841558751,
				"y": 1.4829053709,
				"z": 1.7130884156,
				"element": "H" 
			},
			{
				"x": 2.1016510043,
				"y": 0.79882744,
				"z": 0.1452600402,
				"element": "H" 
			},
			{
				"x": 2.8949205938,
				"y": -0.7271599616,
				"z": 2.5577515559,
				"element": "H" 
			},
			{
				"x": -1.0447384617,
				"y": -1.9886563048,
				"z": 0.8457175003,
				"element": "H" 
			},
			{
				"x": 1.4003668481,
				"y": -1.3760554477,
				"z": -3.3554181272,
				"element": "H" 
			},
			{
				"x": 2.6497144957,
				"y": -1.1721667961,
				"z": -1.1947776005,
				"element": "H" 
			}
		],
		 "valence_orbital": [ 
			{
				"type": "occ",
				"energy": -0.30688,
				"method": "rhf"
			},
			{
				"type": "occ",
				"energy": -0.28409,
				"method": "rhf"
			},
			{
				"type": "occ",
				"energy": -0.27159,
				"method": "rhf"
			},
			{
				"type": "occ",
				"energy": -0.2644,
				"method": "rhf"
			},
			{
				"type": "occ",
				"energy": -0.25134,
				"method": "rhf"
			},
			{
				"type": "unocc",
				"energy": -0.05297,
				"method": "rhf"
			},
			{
				"type": "unocc",
				"energy": -0.04153,
				"method": "rhf"
			},
			{
				"type": "unocc",
				"energy": 0.02796,
				"method": "rhf"
			},
			{
				"type": "unocc",
				"energy": 0.03405,
				"method": "rhf"
			},
			{
				"type": "unocc",
				"energy": 0.06732,
				"method": "rhf"
			}
		],
		"cosmo_sigma_profile": { 
			"-0.025": 0.0,
			"-0.024": 0.0,
			"-0.023": 0.0,
			"-0.022": 0.0,
			"-0.021": 0.0,
			"-0.02": 0.0,
			"-0.019": 0.0,
			"-0.018": 0.0,
			"-0.017": 0.0,
			"-0.016": 0.0,
			"-0.015": 0.0,
			"-0.014": 0.163286204753,
			"-0.013": 1.13162230374,
			"-0.012": 1.01343547105,
			"-0.011": 0.883478047296,
			"-0.01": 0.90601040385,
			"-0.009": 2.17700327922,
			"-0.008": 4.23494054947,
			"-0.007": 7.60599971788,
			"-0.006": 7.60061635257,
			"-0.005": 12.0897733379,
			"-0.004": 16.4475279156,
			"-0.003": 19.8023267834,
			"-0.002": 19.8213847497,
			"-0.001": 22.3366335094,
			"0.0": 21.0917099322,
			"0.001": 13.8786024777,
			"0.002": 9.9045556016,
			"0.003": 9.69627204515,
			"0.004": 12.2141233848,
			"0.005": 5.79282142996,
			"0.006": 3.66590277076,
			"0.007": 2.82327704402,
			"0.008": 2.68923520998,
			"0.009": 2.73888126763,
			"0.01": 2.42008461082,
			"0.011": 2.72064232313,
			"0.012": 2.75418703188,
			"0.013": 6.13437009622,
			"0.014": 3.55258563534,
			"0.015": 0.0,
			"0.016": 0.0,
			"0.017": 0.0,
			"0.018": 0.0,
			"0.019": 0.0,
			"0.02": 0.0,
			"0.021": 0.0,
			"0.022": 0.0,
			"0.023": 0.0,
			"0.024": 0.0,
			"0.025": 0.0
		}
	}
}
