{
	 "smiles": "CC1=CC=C(N)C(C)=N1", 
	 "Tm": 395.15, 
	 "num_atms": 19, 
	 "gaussian": { 
		 "optdone": 1, 
		 "sigma_profile": "yes", 
		 "theory": "DFT", 
		 "functional": "B3LYP", 
		 "basiset": "6-31G**", 
		 "properties": { 
			 "R2extent": 1367.4129, 
			 "electric_dipole_moment_norm": 2.66495322473, 
			 "electric_quadrupole_moment_norm": 7.93209853759, 
			 "total_energy": -382.289003064, 
			 "HOMO_LUMO_gap": 0.19359, 
			 "cosmo_polarized_energy": -9.99, 
			 "cosmo_cavitation_energy": 21.99, 
			 "cosmo_dispersion_energy": -16.48, 
			 "cosmo_repulsion_energy": 1.36, 
			 "cosmo_total_nonelectrostatic_energy": 6.88, 
			 "SMD_solvation_energy": 2.58 
		},
		"coords": [
			{
				"x": 0.893598174,
				"y": -1.7100208741,
				"z": -1.4316476387,
				"element": "C" 
			},
			{
				"x": 0.2693064563,
				"y": -0.9037672836,
				"z": -0.3188262221,
				"element": "C" 
			},
			{
				"x": -0.3025219059,
				"y": -1.5036839866,
				"z": 0.8059316578,
				"element": "C" 
			},
			{
				"x": -0.8653341712,
				"y": -0.7026540595,
				"z": 1.7959149593,
				"element": "C" 
			},
			{
				"x": -0.8446593282,
				"y": 0.6877377128,
				"z": 1.6525889895,
				"element": "C" 
			},
			{
				"x": -1.3400570784,
				"y": 1.5363054271,
				"z": 2.648219967,
				"element": "N" 
			},
			{
				"x": -0.2411625811,
				"y": 1.2141281198,
				"z": 0.4845615286,
				"element": "C" 
			},
			{
				"x": -0.1705711925,
				"y": 2.704952154,
				"z": 0.2665866838,
				"element": "C" 
			},
			{
				"x": 0.2891660536,
				"y": 0.4329295416,
				"z": -0.4595219521,
				"element": "N" 
			},
			{
				"x": 0.8316426562,
				"y": -2.7839554753,
				"z": -1.2344475198,
				"element": "H" 
			},
			{
				"x": 0.3956973536,
				"y": -1.5046631619,
				"z": -2.3855079264,
				"element": "H" 
			},
			{
				"x": 1.9481964295,
				"y": -1.4426147173,
				"z": -1.5588265762,
				"element": "H" 
			},
			{
				"x": -0.3122600943,
				"y": -2.5850275724,
				"z": 0.9065359828,
				"element": "H" 
			},
			{
				"x": -1.3165138809,
				"y": -1.1507675771,
				"z": 2.6786716792,
				"element": "H" 
			},
			{
				"x": -1.6845270536,
				"y": 2.4282497124,
				"z": 2.3202819281,
				"element": "H" 
			},
			{
				"x": -1.9935464565,
				"y": 1.0997278437,
				"z": 3.2849242168,
				"element": "H" 
			},
			{
				"x": -1.16991296,
				"y": 3.1558834932,
				"z": 0.1812602493,
				"element": "H" 
			},
			{
				"x": 0.3408867262,
				"y": 3.2081031406,
				"z": 1.0967239027,
				"element": "H" 
			},
			{
				"x": 0.3708728532,
				"y": 2.9062375626,
				"z": -0.6585239096,
				"element": "H" 
			}
		],
		 "valence_orbital": [ 
			{
				"type": "occ",
				"energy": -0.34882,
				"method": "rhf"
			},
			{
				"type": "occ",
				"energy": -0.31371,
				"method": "rhf"
			},
			{
				"type": "occ",
				"energy": -0.26029,
				"method": "rhf"
			},
			{
				"type": "occ",
				"energy": -0.23775,
				"method": "rhf"
			},
			{
				"type": "occ",
				"energy": -0.20028,
				"method": "rhf"
			},
			{
				"type": "unocc",
				"energy": -0.00669,
				"method": "rhf"
			},
			{
				"type": "unocc",
				"energy": 0.01714,
				"method": "rhf"
			},
			{
				"type": "unocc",
				"energy": 0.07573,
				"method": "rhf"
			},
			{
				"type": "unocc",
				"energy": 0.10446,
				"method": "rhf"
			},
			{
				"type": "unocc",
				"energy": 0.12089,
				"method": "rhf"
			}
		],
		"cosmo_sigma_profile": { 
			"-0.025": 0.0,
			"-0.024": 0.0,
			"-0.023": 0.0,
			"-0.022": 0.0,
			"-0.021": 0.0,
			"-0.02": 0.0,
			"-0.019": 0.0,
			"-0.018": 0.0,
			"-0.017": 0.0,
			"-0.016": 0.0,
			"-0.015": 0.0,
			"-0.014": 0.0,
			"-0.013": 0.304870233041,
			"-0.012": 1.75248755031,
			"-0.011": 2.48283270288,
			"-0.01": 2.76225632587,
			"-0.009": 3.52395924658,
			"-0.008": 3.40291230882,
			"-0.007": 3.35856675169,
			"-0.006": 4.23282359881,
			"-0.005": 7.36025414915,
			"-0.004": 12.9279041983,
			"-0.003": 14.1031203561,
			"-0.002": 12.3603082456,
			"-0.001": 13.0702283453,
			"0.0": 18.6544906722,
			"0.001": 14.9828681153,
			"0.002": 8.24513453146,
			"0.003": 7.9877652903,
			"0.004": 10.7420979678,
			"0.005": 10.0884959647,
			"0.006": 4.23674676519,
			"0.007": 2.2878811507,
			"0.008": 2.22830390688,
			"0.009": 2.36093783503,
			"0.01": 1.7178083562,
			"0.011": 1.65137490425,
			"0.012": 1.46561039762,
			"0.013": 1.28179299,
			"0.014": 1.28829280182,
			"0.015": 1.40654329746,
			"0.016": 0.713751048301,
			"0.017": 0.233525511322,
			"0.018": 0.0,
			"0.019": 0.0,
			"0.02": 0.0,
			"0.021": 0.0,
			"0.022": 0.0,
			"0.023": 0.0,
			"0.024": 0.0,
			"0.025": 0.0
		}
	}
}
