{
	 "smiles": "CC(=O)NC1=CC=C(C=C1Br)C(C)=O", 
	 "Tm": 413.15, 
	 "num_atms": 24, 
	 "gaussian": { 
		 "optdone": 1, 
		 "sigma_profile": "yes", 
		 "theory": "DFT", 
		 "functional": "B3LYP", 
		 "basiset": "6-31G**", 
		 "properties": { 
			 "R2extent": 5244.1776, 
			 "electric_dipole_moment_norm": 2.5782665669, 
			 "electric_quadrupole_moment_norm": 19.6736127572, 
			 "total_energy": -3163.7233879, 
			 "HOMO_LUMO_gap": 0.175, 
			 "cosmo_polarized_energy": -13.33, 
			 "cosmo_cavitation_energy": 30.66, 
			 "cosmo_dispersion_energy": -22.58, 
			 "cosmo_repulsion_energy": 1.77, 
			 "cosmo_total_nonelectrostatic_energy": 9.85, 
			 "SMD_solvation_energy": 5.6 
		},
		"coords": [
			{
				"x": 3.4883674538,
				"y": 0.9411802049,
				"z": 3.8749499677,
				"element": "C" 
			},
			{
				"x": 2.7032481381,
				"y": -0.1246896463,
				"z": 3.126990366,
				"element": "C" 
			},
			{
				"x": 2.5331440084,
				"y": -1.2456438661,
				"z": 3.5792341176,
				"element": "O" 
			},
			{
				"x": 2.2383816541,
				"y": 0.2925044185,
				"z": 1.8896907345,
				"element": "N" 
			},
			{
				"x": 1.5328680138,
				"y": -0.4339246449,
				"z": 0.928192946,
				"element": "C" 
			},
			{
				"x": 1.1616757006,
				"y": -1.7801313718,
				"z": 1.1009797138,
				"element": "C" 
			},
			{
				"x": 0.458337213,
				"y": -2.4510683893,
				"z": 0.1068931858,
				"element": "C" 
			},
			{
				"x": 0.0983757614,
				"y": -1.8161797081,
				"z": -1.0891705353,
				"element": "C" 
			},
			{
				"x": 0.4645516597,
				"y": -0.4740880976,
				"z": -1.2692571789,
				"element": "C" 
			},
			{
				"x": 1.1637863164,
				"y": 0.1958850695,
				"z": -0.2828426222,
				"element": "C" 
			},
			{
				"x": 1.6356680069,
				"y": 2.0342926835,
				"z": -0.5906728635,
				"element": "Br" 
			},
			{
				"x": -0.6576934853,
				"y": -2.4876048942,
				"z": -2.1922500429,
				"element": "C" 
			},
			{
				"x": -1.0655171145,
				"y": -3.9405728058,
				"z": -2.0176007584,
				"element": "C" 
			},
			{
				"x": -0.9409407708,
				"y": -1.8779379377,
				"z": -3.2131796538,
				"element": "O" 
			},
			{
				"x": 4.5526735442,
				"y": 0.8415937848,
				"z": 3.6346198697,
				"element": "H" 
			},
			{
				"x": 3.1751840632,
				"y": 1.9600115399,
				"z": 3.6294785817,
				"element": "H" 
			},
			{
				"x": 3.367909035,
				"y": 0.77029447,
				"z": 4.9452788802,
				"element": "H" 
			},
			{
				"x": 2.4399920159,
				"y": 1.2487600543,
				"z": 1.6264063509,
				"element": "H" 
			},
			{
				"x": 1.4375956411,
				"y": -2.2721612637,
				"z": 2.0225295351,
				"element": "H" 
			},
			{
				"x": 0.1907782538,
				"y": -3.4884364833,
				"z": 0.2784198369,
				"element": "H" 
			},
			{
				"x": 0.1874119717,
				"y": 0.0192692332,
				"z": -2.1933599167,
				"element": "H" 
			},
			{
				"x": -0.1881525922,
				"y": -4.5804473193,
				"z": -1.8720990218,
				"element": "H" 
			},
			{
				"x": -1.6030478387,
				"y": -4.2611737472,
				"z": -2.9102608791,
				"element": "H" 
			},
			{
				"x": -1.7099966497,
				"y": -4.0655312834,
				"z": -1.1404706134,
				"element": "H" 
			}
		],
		 "valence_orbital": [ 
			{
				"type": "occ",
				"energy": -0.3096,
				"method": "rhf"
			},
			{
				"type": "occ",
				"energy": -0.26826,
				"method": "rhf"
			},
			{
				"type": "occ",
				"energy": -0.26034,
				"method": "rhf"
			},
			{
				"type": "occ",
				"energy": -0.25101,
				"method": "rhf"
			},
			{
				"type": "occ",
				"energy": -0.23741,
				"method": "rhf"
			},
			{
				"type": "unocc",
				"energy": -0.06241,
				"method": "rhf"
			},
			{
				"type": "unocc",
				"energy": -0.0219,
				"method": "rhf"
			},
			{
				"type": "unocc",
				"energy": -0.00946,
				"method": "rhf"
			},
			{
				"type": "unocc",
				"energy": 0.00188,
				"method": "rhf"
			},
			{
				"type": "unocc",
				"energy": 0.05069,
				"method": "rhf"
			}
		],
		"cosmo_sigma_profile": { 
			"-0.025": 0.0,
			"-0.024": 0.0,
			"-0.023": 0.0,
			"-0.022": 0.0,
			"-0.021": 0.0,
			"-0.02": 0.0,
			"-0.019": 0.0,
			"-0.018": 0.0,
			"-0.017": 0.0,
			"-0.016": 0.0,
			"-0.015": 0.0,
			"-0.014": 0.0,
			"-0.013": 0.398741143162,
			"-0.012": 1.24119147972,
			"-0.011": 1.03292719581,
			"-0.01": 1.36262333831,
			"-0.009": 1.26728949812,
			"-0.008": 1.3879295015,
			"-0.007": 6.42380487652,
			"-0.006": 15.2438464706,
			"-0.005": 18.3733060423,
			"-0.004": 16.9807993232,
			"-0.003": 19.7399525071,
			"-0.002": 20.9357696506,
			"-0.001": 21.2734564002,
			"0.0": 19.9742442854,
			"0.001": 21.8463008823,
			"0.002": 20.8830565835,
			"0.003": 16.5152632034,
			"0.004": 7.7949141142,
			"0.005": 3.18908932282,
			"0.006": 3.02943470803,
			"0.007": 3.74121312201,
			"0.008": 2.83203279774,
			"0.009": 2.69683682409,
			"0.01": 4.15562238494,
			"0.011": 4.94722781675,
			"0.012": 6.88863147887,
			"0.013": 3.37152724903,
			"0.014": 0.606512736795,
			"0.015": 0.0,
			"0.016": 0.0,
			"0.017": 0.0,
			"0.018": 0.0,
			"0.019": 0.0,
			"0.02": 0.0,
			"0.021": 0.0,
			"0.022": 0.0,
			"0.023": 0.0,
			"0.024": 0.0,
			"0.025": 0.0
		}
	}
}
