{
	 "smiles": "CC1=CC=C(C=C1)C(=O)CC#N", 
	 "Tm": 374.65, 
	 "num_atms": 21, 
	 "gaussian": { 
		 "optdone": 1, 
		 "sigma_profile": "yes", 
		 "theory": "DFT", 
		 "functional": "B3LYP", 
		 "basiset": "6-31G**", 
		 "properties": { 
			 "R2extent": 2616.5769, 
			 "electric_dipole_moment_norm": 4.26726409893, 
			 "electric_quadrupole_moment_norm": 14.8797661285, 
			 "total_energy": -516.449507258, 
			 "HOMO_LUMO_gap": 0.1894, 
			 "cosmo_polarized_energy": -12.5, 
			 "cosmo_cavitation_energy": 26.28, 
			 "cosmo_dispersion_energy": -18.34, 
			 "cosmo_repulsion_energy": 1.47, 
			 "cosmo_total_nonelectrostatic_energy": 9.41, 
			 "SMD_solvation_energy": 6.47 
		},
		"coords": [
			{
				"x": 1.6200773761,
				"y": -2.8165899783,
				"z": -1.3653499206,
				"element": "C" 
			},
			{
				"x": 1.0039877532,
				"y": -1.7243077776,
				"z": -0.5269126025,
				"element": "C" 
			},
			{
				"x": -0.3861762059,
				"y": -1.6725352385,
				"z": -0.3266056209,
				"element": "C" 
			},
			{
				"x": -0.962820407,
				"y": -0.6562392345,
				"z": 0.4216373893,
				"element": "C" 
			},
			{
				"x": -0.1641958258,
				"y": 0.3472445609,
				"z": 0.9985948498,
				"element": "C" 
			},
			{
				"x": 1.2247520818,
				"y": 0.2998201917,
				"z": 0.8052751798,
				"element": "C" 
			},
			{
				"x": 1.7955624701,
				"y": -0.7245217092,
				"z": 0.0533118268,
				"element": "C" 
			},
			{
				"x": -0.8425226227,
				"y": 1.3973865474,
				"z": 1.8015820303,
				"element": "C" 
			},
			{
				"x": -2.0447037998,
				"y": 1.3970692039,
				"z": 1.997334859,
				"element": "O" 
			},
			{
				"x": 0.0032938527,
				"y": 2.5202965103,
				"z": 2.4602309045,
				"element": "C" 
			},
			{
				"x": 0.6852239974,
				"y": 3.3923772196,
				"z": 1.5049934549,
				"element": "C" 
			},
			{
				"x": 1.2219422348,
				"y": 4.080978158,
				"z": 0.739754195,
				"element": "N" 
			},
			{
				"x": 2.6924940992,
				"y": -2.9127959624,
				"z": -1.1759897567,
				"element": "H" 
			},
			{
				"x": 1.1486642348,
				"y": -3.7846228101,
				"z": -1.1685781825,
				"element": "H" 
			},
			{
				"x": 1.4912948966,
				"y": -2.6064211732,
				"z": -2.4343558479,
				"element": "H" 
			},
			{
				"x": -1.0171941534,
				"y": -2.4418353363,
				"z": -0.7644080291,
				"element": "H" 
			},
			{
				"x": -2.0352058651,
				"y": -0.6151214172,
				"z": 0.5799327319,
				"element": "H" 
			},
			{
				"x": 1.871788165,
				"y": 1.060929945,
				"z": 1.228292934,
				"element": "H" 
			},
			{
				"x": 2.8727310329,
				"y": -0.7468134152,
				"z": -0.0873580895,
				"element": "H" 
			},
			{
				"x": -0.6890970152,
				"y": 3.1126218208,
				"z": 3.0636676006,
				"element": "H" 
			},
			{
				"x": 0.7493037003,
				"y": 2.0778798949,
				"z": 3.1316500938,
				"element": "H" 
			}
		],
		 "valence_orbital": [ 
			{
				"type": "occ",
				"energy": -0.33955,
				"method": "rhf"
			},
			{
				"type": "occ",
				"energy": -0.32959,
				"method": "rhf"
			},
			{
				"type": "occ",
				"energy": -0.2689,
				"method": "rhf"
			},
			{
				"type": "occ",
				"energy": -0.26778,
				"method": "rhf"
			},
			{
				"type": "occ",
				"energy": -0.26101,
				"method": "rhf"
			},
			{
				"type": "unocc",
				"energy": -0.07161,
				"method": "rhf"
			},
			{
				"type": "unocc",
				"energy": -0.01896,
				"method": "rhf"
			},
			{
				"type": "unocc",
				"energy": 0.01746,
				"method": "rhf"
			},
			{
				"type": "unocc",
				"energy": 0.03085,
				"method": "rhf"
			},
			{
				"type": "unocc",
				"energy": 0.04165,
				"method": "rhf"
			}
		],
		"cosmo_sigma_profile": { 
			"-0.025": 0.0,
			"-0.024": 0.0,
			"-0.023": 0.0,
			"-0.022": 0.0,
			"-0.021": 0.0,
			"-0.02": 0.0,
			"-0.019": 0.0,
			"-0.018": 0.0,
			"-0.017": 0.0,
			"-0.016": 0.0,
			"-0.015": 0.0,
			"-0.014": 0.0,
			"-0.013": 0.0,
			"-0.012": 0.0,
			"-0.011": 0.612080775942,
			"-0.01": 3.81920726498,
			"-0.009": 4.89931420994,
			"-0.008": 4.75491359859,
			"-0.007": 5.50004362885,
			"-0.006": 10.9592884627,
			"-0.005": 16.0035163163,
			"-0.004": 16.8891355399,
			"-0.003": 13.5551402869,
			"-0.002": 14.8459481688,
			"-0.001": 16.5746774725,
			"0.0": 14.0905820349,
			"0.001": 12.0059030558,
			"0.002": 12.7897216301,
			"0.003": 14.9365620283,
			"0.004": 9.51522644708,
			"0.005": 3.91677726232,
			"0.006": 3.81140230904,
			"0.007": 4.07349535983,
			"0.008": 4.94716548724,
			"0.009": 5.36286715701,
			"0.01": 6.03710934438,
			"0.011": 6.3940268201,
			"0.012": 3.01240864626,
			"0.013": 1.34362340119,
			"0.014": 0.014024927101,
			"0.015": 0.0,
			"0.016": 0.0,
			"0.017": 0.0,
			"0.018": 0.0,
			"0.019": 0.0,
			"0.02": 0.0,
			"0.021": 0.0,
			"0.022": 0.0,
			"0.023": 0.0,
			"0.024": 0.0,
			"0.025": 0.0
		}
	}
}
