{
	 "smiles": "COC1=CC(C=C2N(C)C(=N)NC2=O)=CC=C1O", 
	 "Tm": 545.15, 
	 "num_atms": 31, 
	 "gaussian": { 
		 "optdone": 1, 
		 "sigma_profile": "yes", 
		 "theory": "DFT", 
		 "functional": "B3LYP", 
		 "basiset": "6-31G**", 
		 "properties": { 
			 "R2extent": 6098.6295, 
			 "electric_dipole_moment_norm": 1.32893826042, 
			 "electric_quadrupole_moment_norm": 21.7952774791, 
			 "total_energy": -855.025999851, 
			 "HOMO_LUMO_gap": 0.12576, 
			 "cosmo_polarized_energy": -21.86, 
			 "cosmo_cavitation_energy": 35.24, 
			 "cosmo_dispersion_energy": -25.53, 
			 "cosmo_repulsion_energy": 1.95, 
			 "cosmo_total_nonelectrostatic_energy": 11.66, 
			 "SMD_solvation_energy": 7.0 
		},
		"coords": [
			{
				"x": -4.3439286056,
				"y": -1.0152858714,
				"z": 0.8060676381,
				"element": "C" 
			},
			{
				"x": -4.2312948115,
				"y": -0.1212957355,
				"z": -0.2924851704,
				"element": "O" 
			},
			{
				"x": -2.9830477116,
				"y": 0.291860631,
				"z": -0.64460039,
				"element": "C" 
			},
			{
				"x": -1.8110396498,
				"y": -0.0975563387,
				"z": -0.008239883,
				"element": "C" 
			},
			{
				"x": -0.5501103488,
				"y": 0.379961148,
				"z": -0.4387437588,
				"element": "C" 
			},
			{
				"x": 0.7305634119,
				"y": 0.0323811319,
				"z": 0.1595019709,
				"element": "C" 
			},
			{
				"x": 1.1129405175,
				"y": -0.7627774925,
				"z": 1.1969439667,
				"element": "C" 
			},
			{
				"x": 2.4604359521,
				"y": -0.9255740897,
				"z": 1.5745210084,
				"element": "N" 
			},
			{
				"x": 3.5938439213,
				"y": -0.2927807154,
				"z": 0.9372278278,
				"element": "C" 
			},
			{
				"x": 2.6045365069,
				"y": -1.7807766999,
				"z": 2.6549779056,
				"element": "C" 
			},
			{
				"x": 3.725959062,
				"y": -2.0901151026,
				"z": 3.1851449582,
				"element": "N" 
			},
			{
				"x": 1.299961351,
				"y": -2.17489373,
				"z": 2.9741380073,
				"element": "N" 
			},
			{
				"x": 0.3376669207,
				"y": -1.6111146935,
				"z": 2.1490272479,
				"element": "C" 
			},
			{
				"x": -0.8619776841,
				"y": -1.8216925482,
				"z": 2.2541732438,
				"element": "O" 
			},
			{
				"x": -0.5174044417,
				"y": 1.2635551111,
				"z": -1.5334153533,
				"element": "C" 
			},
			{
				"x": -1.6901384468,
				"y": 1.6561597739,
				"z": -2.1739230083,
				"element": "C" 
			},
			{
				"x": -2.9277574593,
				"y": 1.1821411499,
				"z": -1.7449315583,
				"element": "C" 
			},
			{
				"x": -4.1078849242,
				"y": 1.5285232559,
				"z": -2.3289427182,
				"element": "O" 
			},
			{
				"x": -3.8116279563,
				"y": -1.9559166985,
				"z": 0.6187771251,
				"element": "H" 
			},
			{
				"x": -5.4105424488,
				"y": -1.2160988479,
				"z": 0.918028976,
				"element": "H" 
			},
			{
				"x": -3.9556711683,
				"y": -0.5711316904,
				"z": 1.7308337247,
				"element": "H" 
			},
			{
				"x": -1.8467429413,
				"y": -0.776580568,
				"z": 0.8316009318,
				"element": "H" 
			},
			{
				"x": 1.5633741207,
				"y": 0.5223687275,
				"z": -0.3406798361,
				"element": "H" 
			},
			{
				"x": 3.6625504299,
				"y": -0.5837537767,
				"z": -0.1176887015,
				"element": "H" 
			},
			{
				"x": 3.5177925835,
				"y": 0.7993523056,
				"z": 0.9981682492,
				"element": "H" 
			},
			{
				"x": 4.4896102728,
				"y": -0.622890616,
				"z": 1.4625908181,
				"element": "H" 
			},
			{
				"x": 3.6063900542,
				"y": -2.7318479768,
				"z": 3.9661838269,
				"element": "H" 
			},
			{
				"x": 1.0616497991,
				"y": -2.8046338652,
				"z": 3.7247949577,
				"element": "H" 
			},
			{
				"x": 0.4346079768,
				"y": 1.6480005393,
				"z": -1.8880656259,
				"element": "H" 
			},
			{
				"x": -1.646669287,
				"y": 2.3402185427,
				"z": -3.019163897,
				"element": "H" 
			},
			{
				"x": -3.9245449953,
				"y": 2.13449474,
				"z": -3.0588224832,
				"element": "H" 
			}
		],
		 "valence_orbital": [ 
			{
				"type": "occ",
				"energy": -0.26914,
				"method": "rhf"
			},
			{
				"type": "occ",
				"energy": -0.2627,
				"method": "rhf"
			},
			{
				"type": "occ",
				"energy": -0.24859,
				"method": "rhf"
			},
			{
				"type": "occ",
				"energy": -0.21997,
				"method": "rhf"
			},
			{
				"type": "occ",
				"energy": -0.18536,
				"method": "rhf"
			},
			{
				"type": "unocc",
				"energy": -0.0596,
				"method": "rhf"
			},
			{
				"type": "unocc",
				"energy": 0.01233,
				"method": "rhf"
			},
			{
				"type": "unocc",
				"energy": 0.02699,
				"method": "rhf"
			},
			{
				"type": "unocc",
				"energy": 0.06687,
				"method": "rhf"
			},
			{
				"type": "unocc",
				"energy": 0.06967,
				"method": "rhf"
			}
		],
		"cosmo_sigma_profile": { 
			"-0.025": 0.0,
			"-0.024": 0.0,
			"-0.023": 0.0,
			"-0.022": 0.0,
			"-0.021": 0.0,
			"-0.02": 0.0,
			"-0.019": 0.0,
			"-0.018": 0.598359621737,
			"-0.017": 1.50902159615,
			"-0.016": 3.019744853,
			"-0.015": 2.92281772801,
			"-0.014": 2.60519624524,
			"-0.013": 2.01241785124,
			"-0.012": 1.82785265969,
			"-0.011": 2.96121531518,
			"-0.01": 3.28190510333,
			"-0.009": 2.49805977314,
			"-0.008": 2.63764749224,
			"-0.007": 5.09993370594,
			"-0.006": 11.5660162065,
			"-0.005": 18.0407301615,
			"-0.004": 18.4566476332,
			"-0.003": 21.6163353604,
			"-0.002": 19.6034045148,
			"-0.001": 15.8762026933,
			"0.0": 17.3168293932,
			"0.001": 13.3178895968,
			"0.002": 14.6861151044,
			"0.003": 18.3353112412,
			"0.004": 18.0978554039,
			"0.005": 15.7517848957,
			"0.006": 8.13489260581,
			"0.007": 4.63709776479,
			"0.008": 4.96949937323,
			"0.009": 4.4552615217,
			"0.01": 5.83035435753,
			"0.011": 4.86230683321,
			"0.012": 4.6772763269,
			"0.013": 4.34312779905,
			"0.014": 2.99196637072,
			"0.015": 1.37280737323,
			"0.016": 0.764929271013,
			"0.017": 0.0,
			"0.018": 0.0,
			"0.019": 0.0,
			"0.02": 0.0,
			"0.021": 0.0,
			"0.022": 0.0,
			"0.023": 0.0,
			"0.024": 0.0,
			"0.025": 0.0
		}
	}
}
