{
	 "smiles": "CC(C)(Br)C(=O)NC1=CC=CC=C1", 
	 "Tm": 356.15, 
	 "num_atms": 25, 
	 "gaussian": { 
		 "optdone": 1, 
		 "sigma_profile": "yes", 
		 "theory": "DFT", 
		 "functional": "B3LYP", 
		 "basiset": "6-31G**", 
		 "properties": { 
			 "R2extent": 5229.7603, 
			 "electric_dipole_moment_norm": 0.960173869672, 
			 "electric_quadrupole_moment_norm": 9.05061766953, 
			 "total_energy": -3089.70923685, 
			 "HOMO_LUMO_gap": 0.20354, 
			 "cosmo_polarized_energy": -8.58, 
			 "cosmo_cavitation_energy": 30.14, 
			 "cosmo_dispersion_energy": -21.99, 
			 "cosmo_repulsion_energy": 1.72, 
			 "cosmo_total_nonelectrostatic_energy": 9.88, 
			 "SMD_solvation_energy": 4.51 
		},
		"coords": [
			{
				"x": 3.6930613382,
				"y": -1.3131340249,
				"z": -0.8689776749,
				"element": "C" 
			},
			{
				"x": 3.0218015645,
				"y": -0.1377200333,
				"z": -1.58244295,
				"element": "C" 
			},
			{
				"x": 4.0269910277,
				"y": 0.9292924403,
				"z": -2.0204671075,
				"element": "C" 
			},
			{
				"x": 2.1862147754,
				"y": -0.8855932423,
				"z": -3.2817650962,
				"element": "Br" 
			},
			{
				"x": 1.9801460478,
				"y": 0.5058087001,
				"z": -0.629728808,
				"element": "C" 
			},
			{
				"x": 2.4262254689,
				"y": 0.9816206209,
				"z": 0.4099179793,
				"element": "O" 
			},
			{
				"x": 0.6712664733,
				"y": 0.5004313522,
				"z": -0.9957790168,
				"element": "N" 
			},
			{
				"x": -0.4418741913,
				"y": 1.0199166271,
				"z": -0.2956430011,
				"element": "C" 
			},
			{
				"x": -1.6971936463,
				"y": 0.8795325182,
				"z": -0.9083732318,
				"element": "C" 
			},
			{
				"x": -2.8427520892,
				"y": 1.3642948746,
				"z": -0.2839303185,
				"element": "C" 
			},
			{
				"x": -2.7530716365,
				"y": 1.9951132798,
				"z": 0.9586501857,
				"element": "C" 
			},
			{
				"x": -1.5037554816,
				"y": 2.1327341481,
				"z": 1.5644229171,
				"element": "C" 
			},
			{
				"x": -0.3449951572,
				"y": 1.6526657707,
				"z": 0.9527403781,
				"element": "C" 
			},
			{
				"x": 2.9718468103,
				"y": -2.0968745956,
				"z": -0.6252989751,
				"element": "H" 
			},
			{
				"x": 4.1322668421,
				"y": -0.9421535443,
				"z": 0.0614952997,
				"element": "H" 
			},
			{
				"x": 4.4795952056,
				"y": -1.7425443498,
				"z": -1.4936129905,
				"element": "H" 
			},
			{
				"x": 4.4752457914,
				"y": 1.3651826519,
				"z": -1.1231147593,
				"element": "H" 
			},
			{
				"x": 3.5413635747,
				"y": 1.7258993774,
				"z": -2.5890892629,
				"element": "H" 
			},
			{
				"x": 4.8118512798,
				"y": 0.4864284617,
				"z": -2.6377782675,
				"element": "H" 
			},
			{
				"x": 0.4703142151,
				"y": 0.0672071587,
				"z": -1.8887503556,
				"element": "H" 
			},
			{
				"x": -1.7720346883,
				"y": 0.3889152629,
				"z": -1.8761460801,
				"element": "H" 
			},
			{
				"x": -3.8062427426,
				"y": 1.2475563347,
				"z": -0.7714912868,
				"element": "H" 
			},
			{
				"x": -3.6456968114,
				"y": 2.373812237,
				"z": 1.4470538417,
				"element": "H" 
			},
			{
				"x": -1.4213742786,
				"y": 2.6216728574,
				"z": 2.5310309518,
				"element": "H" 
			},
			{
				"x": 0.6224003081,
				"y": 1.7593351165,
				"z": 1.4220776295,
				"element": "H" 
			}
		],
		 "valence_orbital": [ 
			{
				"type": "occ",
				"energy": -0.2995,
				"method": "rhf"
			},
			{
				"type": "occ",
				"energy": -0.28473,
				"method": "rhf"
			},
			{
				"type": "occ",
				"energy": -0.2587,
				"method": "rhf"
			},
			{
				"type": "occ",
				"energy": -0.25264,
				"method": "rhf"
			},
			{
				"type": "occ",
				"energy": -0.22488,
				"method": "rhf"
			},
			{
				"type": "unocc",
				"energy": -0.02134,
				"method": "rhf"
			},
			{
				"type": "unocc",
				"energy": -0.01899,
				"method": "rhf"
			},
			{
				"type": "unocc",
				"energy": -0.00291,
				"method": "rhf"
			},
			{
				"type": "unocc",
				"energy": 0.03994,
				"method": "rhf"
			},
			{
				"type": "unocc",
				"energy": 0.08589,
				"method": "rhf"
			}
		],
		"cosmo_sigma_profile": { 
			"-0.025": 0.0,
			"-0.024": 0.0,
			"-0.023": 0.0,
			"-0.022": 0.0,
			"-0.021": 0.0,
			"-0.02": 0.0,
			"-0.019": 0.0,
			"-0.018": 0.0,
			"-0.017": 0.0,
			"-0.016": 0.0,
			"-0.015": 0.0,
			"-0.014": 0.0,
			"-0.013": 0.0186099072658,
			"-0.012": 0.53108036716,
			"-0.011": 1.39862616963,
			"-0.01": 0.770246902979,
			"-0.009": 0.95950862482,
			"-0.008": 1.87795581358,
			"-0.007": 1.75622375932,
			"-0.006": 6.02348231377,
			"-0.005": 20.1970111506,
			"-0.004": 20.9236223753,
			"-0.003": 23.8142086586,
			"-0.002": 20.5462901563,
			"-0.001": 24.5909216455,
			"0.0": 16.9203260469,
			"0.001": 14.0896217126,
			"0.002": 15.5773523732,
			"0.003": 16.9639913543,
			"0.004": 15.9999143077,
			"0.005": 19.6390910416,
			"0.006": 8.40244055642,
			"0.007": 1.31854902938,
			"0.008": 1.5917232946,
			"0.009": 1.40998812988,
			"0.01": 1.36424132353,
			"0.011": 2.36465842853,
			"0.012": 2.20950718323,
			"0.013": 0.886860022329,
			"0.014": 0.0,
			"0.015": 0.0,
			"0.016": 0.0,
			"0.017": 0.0,
			"0.018": 0.0,
			"0.019": 0.0,
			"0.02": 0.0,
			"0.021": 0.0,
			"0.022": 0.0,
			"0.023": 0.0,
			"0.024": 0.0,
			"0.025": 0.0
		}
	}
}
