{
	 "smiles": "NC(=O)NC1=C(C=C(Br)C=C1)C(O)=O", 
	 "Tm": 445.15, 
	 "num_atms": 21, 
	 "gaussian": { 
		 "optdone": 1, 
		 "sigma_profile": "yes", 
		 "theory": "DFT", 
		 "functional": "B3LYP", 
		 "basiset": "6-31G**", 
		 "properties": { 
			 "R2extent": 6444.8985, 
			 "electric_dipole_moment_norm": 4.96240346808, 
			 "electric_quadrupole_moment_norm": 11.8649530644, 
			 "total_energy": -3215.69608317, 
			 "HOMO_LUMO_gap": 0.1635, 
			 "cosmo_polarized_energy": -18.25, 
			 "cosmo_cavitation_energy": 28.41, 
			 "cosmo_dispersion_energy": -21.53, 
			 "cosmo_repulsion_energy": 1.7, 
			 "cosmo_total_nonelectrostatic_energy": 8.58, 
			 "SMD_solvation_energy": 5.54 
		},
		"coords": [
			{
				"x": 1.9412629971,
				"y": -1.3744818525,
				"z": 1.9289752008,
				"element": "N" 
			},
			{
				"x": 0.9844783516,
				"y": -0.3702921249,
				"z": 1.9140915135,
				"element": "C" 
			},
			{
				"x": 0.6913551143,
				"y": 0.2634056475,
				"z": 2.917072934,
				"element": "O" 
			},
			{
				"x": 0.4630133805,
				"y": -0.1620278588,
				"z": 0.6401558005,
				"element": "N" 
			},
			{
				"x": -0.5250842023,
				"y": 0.7426667793,
				"z": 0.2485909967,
				"element": "C" 
			},
			{
				"x": -0.9088384751,
				"y": 0.8514629589,
				"z": -1.1194733993,
				"element": "C" 
			},
			{
				"x": -1.919179369,
				"y": 1.7606545961,
				"z": -1.4866751981,
				"element": "C" 
			},
			{
				"x": -2.5438480173,
				"y": 2.5483610866,
				"z": -0.5390879765,
				"element": "C" 
			},
			{
				"x": -3.9123550755,
				"y": 3.7728347697,
				"z": -1.0624583736,
				"element": "Br" 
			},
			{
				"x": -2.172733079,
				"y": 2.4502353997,
				"z": 0.8036793409,
				"element": "C" 
			},
			{
				"x": -1.1793647003,
				"y": 1.5627290559,
				"z": 1.1909245041,
				"element": "C" 
			},
			{
				"x": -0.3482963114,
				"y": 0.091641373,
				"z": -2.266251627,
				"element": "C" 
			},
			{
				"x": 0.6409673768,
				"y": -0.8034804216,
				"z": -1.9465892017,
				"element": "O" 
			},
			{
				"x": -0.6991071858,
				"y": 0.2133578422,
				"z": -3.4216051198,
				"element": "O" 
			},
			{
				"x": 1.8667055482,
				"y": -2.1372417098,
				"z": 1.2707729166,
				"element": "H" 
			},
			{
				"x": 2.2107813721,
				"y": -1.6444339585,
				"z": 2.863833569,
				"element": "H" 
			},
			{
				"x": 0.9002912137,
				"y": -0.6659767839,
				"z": -0.1195705629,
				"element": "H" 
			},
			{
				"x": -2.1882127757,
				"y": 1.8207246583,
				"z": -2.5336574866,
				"element": "H" 
			},
			{
				"x": -2.6587382735,
				"y": 3.069293676,
				"z": 1.5497244124,
				"element": "H" 
			},
			{
				"x": -0.8831123908,
				"y": 1.4914731573,
				"z": 2.2273267998,
				"element": "H" 
			},
			{
				"x": 0.9095145014,
				"y": -1.2047062905,
				"z": -2.7899790428,
				"element": "H" 
			}
		],
		 "valence_orbital": [ 
			{
				"type": "occ",
				"energy": -0.28862,
				"method": "rhf"
			},
			{
				"type": "occ",
				"energy": -0.28654,
				"method": "rhf"
			},
			{
				"type": "occ",
				"energy": -0.27253,
				"method": "rhf"
			},
			{
				"type": "occ",
				"energy": -0.26968,
				"method": "rhf"
			},
			{
				"type": "occ",
				"energy": -0.22506,
				"method": "rhf"
			},
			{
				"type": "unocc",
				"energy": -0.06156,
				"method": "rhf"
			},
			{
				"type": "unocc",
				"energy": -0.01775,
				"method": "rhf"
			},
			{
				"type": "unocc",
				"energy": 0.0077,
				"method": "rhf"
			},
			{
				"type": "unocc",
				"energy": 0.04286,
				"method": "rhf"
			},
			{
				"type": "unocc",
				"energy": 0.04584,
				"method": "rhf"
			}
		],
		"cosmo_sigma_profile": { 
			"-0.025": 0.0,
			"-0.024": 0.0,
			"-0.023": 0.0,
			"-0.022": 0.0,
			"-0.021": 0.0,
			"-0.02": 0.0,
			"-0.019": 0.610112662652,
			"-0.018": 0.788572025442,
			"-0.017": 0.832041634045,
			"-0.016": 1.1542520156,
			"-0.015": 2.13874032296,
			"-0.014": 2.63887711378,
			"-0.013": 2.7053248933,
			"-0.012": 3.79303713499,
			"-0.011": 3.86821775782,
			"-0.01": 2.32853943524,
			"-0.009": 2.21964745615,
			"-0.008": 3.62650921069,
			"-0.007": 5.48292833686,
			"-0.006": 5.05298203547,
			"-0.005": 6.92935739799,
			"-0.004": 9.61522926256,
			"-0.003": 12.4582015441,
			"-0.002": 14.4917763836,
			"-0.001": 13.4642356119,
			"0.0": 18.6704765786,
			"0.001": 23.679956928,
			"0.002": 24.4293640138,
			"0.003": 13.6644209207,
			"0.004": 14.6075186174,
			"0.005": 8.27432250308,
			"0.006": 4.22596712621,
			"0.007": 3.53803245311,
			"0.008": 2.70468295385,
			"0.009": 3.53067326336,
			"0.01": 4.74468429398,
			"0.011": 6.86666877488,
			"0.012": 3.38060624338,
			"0.013": 3.34902701992,
			"0.014": 1.07623149666,
			"0.015": 0.0,
			"0.016": 0.0,
			"0.017": 0.0,
			"0.018": 0.0,
			"0.019": 0.0,
			"0.02": 0.0,
			"0.021": 0.0,
			"0.022": 0.0,
			"0.023": 0.0,
			"0.024": 0.0,
			"0.025": 0.0
		}
	}
}
