{
	 "smiles": "CCSC(=O)N(CC)C1CCCCC1", 
	 "Tm": 284.65, 
	 "num_atms": 35, 
	 "gaussian": { 
		 "optdone": 1, 
		 "sigma_profile": "yes", 
		 "theory": "DFT", 
		 "functional": "B3LYP", 
		 "basiset": "6-31G**", 
		 "properties": { 
			 "R2extent": 5105.6415, 
			 "electric_dipole_moment_norm": 2.18892988924, 
			 "electric_quadrupole_moment_norm": 7.32956213563, 
			 "total_energy": -960.020959185, 
			 "HOMO_LUMO_gap": 0.26087, 
			 "cosmo_polarized_energy": -7.12, 
			 "cosmo_cavitation_energy": 35.51, 
			 "cosmo_dispersion_energy": -25.2, 
			 "cosmo_repulsion_energy": 1.98, 
			 "cosmo_total_nonelectrostatic_energy": 12.28, 
			 "SMD_solvation_energy": 5.73 
		},
		"coords": [
			{
				"x": 0.4985652499,
				"y": 3.1120738701,
				"z": -4.938903342,
				"element": "C" 
			},
			{
				"x": 0.0090766252,
				"y": 1.6696053162,
				"z": -5.0326959701,
				"element": "C" 
			},
			{
				"x": -0.5267404002,
				"y": 0.9564166667,
				"z": -3.4273019633,
				"element": "S" 
			},
			{
				"x": 1.120690632,
				"y": 0.5175180037,
				"z": -2.7663185741,
				"element": "C" 
			},
			{
				"x": 2.1185351891,
				"y": 0.7143128073,
				"z": -3.449294182,
				"element": "O" 
			},
			{
				"x": 1.1714038547,
				"y": -0.0490078816,
				"z": -1.5214320942,
				"element": "N" 
			},
			{
				"x": 2.5157598077,
				"y": -0.4503092959,
				"z": -1.0632379299,
				"element": "C" 
			},
			{
				"x": 3.2304306893,
				"y": 0.6402092048,
				"z": -0.2623684497,
				"element": "C" 
			},
			{
				"x": 0.0545535334,
				"y": -0.259169056,
				"z": -0.571776786,
				"element": "C" 
			},
			{
				"x": -0.9231913576,
				"y": -1.3808437856,
				"z": -1.0173992986,
				"element": "C" 
			},
			{
				"x": -2.2909202624,
				"y": -1.2645118493,
				"z": -0.3090728418,
				"element": "C" 
			},
			{
				"x": -2.13381437,
				"y": -0.7323429452,
				"z": 1.1220138987,
				"element": "C" 
			},
			{
				"x": -1.5457765308,
				"y": 0.7031328282,
				"z": 1.1291135524,
				"element": "C" 
			},
			{
				"x": -0.6998238191,
				"y": 1.0097452842,
				"z": -0.1307108147,
				"element": "C" 
			},
			{
				"x": 0.7690920243,
				"y": 3.4798617249,
				"z": -5.935769051,
				"element": "H" 
			},
			{
				"x": -0.2723298782,
				"y": 3.7712388482,
				"z": -4.5289508134,
				"element": "H" 
			},
			{
				"x": 1.3850149555,
				"y": 3.1685725052,
				"z": -4.3036180103,
				"element": "H" 
			},
			{
				"x": -0.8758579559,
				"y": 1.5825124157,
				"z": -5.6703682411,
				"element": "H" 
			},
			{
				"x": 0.789087309,
				"y": 1.0137026363,
				"z": -5.4223019932,
				"element": "H" 
			},
			{
				"x": 3.102111164,
				"y": -0.7052228241,
				"z": -1.9465047518,
				"element": "H" 
			},
			{
				"x": 2.3998734523,
				"y": -1.3584248325,
				"z": -0.4619276403,
				"element": "H" 
			},
			{
				"x": 3.371841796,
				"y": 1.5301104503,
				"z": -0.8814033853,
				"element": "H" 
			},
			{
				"x": 4.2155968714,
				"y": 0.2883510921,
				"z": 0.0625993918,
				"element": "H" 
			},
			{
				"x": 2.6631803978,
				"y": 0.9239299088,
				"z": 0.6305986189,
				"element": "H" 
			},
			{
				"x": 0.5624894709,
				"y": -0.6151287898,
				"z": 0.3305082404,
				"element": "H" 
			},
			{
				"x": -0.4618775597,
				"y": -2.3509412928,
				"z": -0.7955022355,
				"element": "H" 
			},
			{
				"x": -1.0643175874,
				"y": -1.3435744325,
				"z": -2.1006157576,
				"element": "H" 
			},
			{
				"x": -2.9418548891,
				"y": -0.5858584041,
				"z": -0.8747056899,
				"element": "H" 
			},
			{
				"x": -2.7925091854,
				"y": -2.2385613001,
				"z": -0.3080307772,
				"element": "H" 
			},
			{
				"x": -1.4745559222,
				"y": -1.4103242355,
				"z": 1.6804843328,
				"element": "H" 
			},
			{
				"x": -3.0951883787,
				"y": -0.7474355129,
				"z": 1.6468732441,
				"element": "H" 
			},
			{
				"x": -2.3556678401,
				"y": 1.4383427914,
				"z": 1.193525837,
				"element": "H" 
			},
			{
				"x": -0.9349138871,
				"y": 0.8415961224,
				"z": 2.02942998,
				"element": "H" 
			},
			{
				"x": -1.3458532825,
				"y": 1.3685037004,
				"z": -0.935314658,
				"element": "H" 
			},
			{
				"x": 0.0155900842,
				"y": 1.8130202612,
				"z": 0.0741781549,
				"element": "H" 
			}
		],
		 "valence_orbital": [ 
			{
				"type": "occ",
				"energy": -0.30838,
				"method": "rhf"
			},
			{
				"type": "occ",
				"energy": -0.29785,
				"method": "rhf"
			},
			{
				"type": "occ",
				"energy": -0.25006,
				"method": "rhf"
			},
			{
				"type": "occ",
				"energy": -0.24229,
				"method": "rhf"
			},
			{
				"type": "occ",
				"energy": -0.22913,
				"method": "rhf"
			},
			{
				"type": "unocc",
				"energy": 0.03174,
				"method": "rhf"
			},
			{
				"type": "unocc",
				"energy": 0.03717,
				"method": "rhf"
			},
			{
				"type": "unocc",
				"energy": 0.06801,
				"method": "rhf"
			},
			{
				"type": "unocc",
				"energy": 0.07832,
				"method": "rhf"
			},
			{
				"type": "unocc",
				"energy": 0.09183,
				"method": "rhf"
			}
		],
		"cosmo_sigma_profile": { 
			"-0.025": 0.0,
			"-0.024": 0.0,
			"-0.023": 0.0,
			"-0.022": 0.0,
			"-0.021": 0.0,
			"-0.02": 0.0,
			"-0.019": 0.0,
			"-0.018": 0.0,
			"-0.017": 0.0,
			"-0.016": 0.0,
			"-0.015": 0.0,
			"-0.014": 0.0,
			"-0.013": 0.0,
			"-0.012": 0.0,
			"-0.011": 0.0,
			"-0.01": 0.0,
			"-0.009": 0.0,
			"-0.008": 0.0,
			"-0.007": 0.0,
			"-0.006": 2.2195894256,
			"-0.005": 7.4440522266,
			"-0.004": 12.7582009229,
			"-0.003": 28.3366947182,
			"-0.002": 45.803032106,
			"-0.001": 44.5406531037,
			"0.0": 40.8326634274,
			"0.001": 40.3806312423,
			"0.002": 14.1820697715,
			"0.003": 6.91121924172,
			"0.004": 7.65227699393,
			"0.005": 5.58806990692,
			"0.006": 4.77807425272,
			"0.007": 3.51509424921,
			"0.008": 1.61817067196,
			"0.009": 1.63847902118,
			"0.01": 1.30165202455,
			"0.011": 1.74705794891,
			"0.012": 1.83658331171,
			"0.013": 2.9627686339,
			"0.014": 0.188401095179,
			"0.015": 0.0,
			"0.016": 0.0,
			"0.017": 0.0,
			"0.018": 0.0,
			"0.019": 0.0,
			"0.02": 0.0,
			"0.021": 0.0,
			"0.022": 0.0,
			"0.023": 0.0,
			"0.024": 0.0,
			"0.025": 0.0
		}
	}
}
