{
	 "smiles": "CC1=CC=C(C=C1)S(=O)(=O)OCC1CCOCO1", 
	 "Tm": 337.15, 
	 "num_atms": 34, 
	 "gaussian": { 
		 "optdone": 1, 
		 "sigma_profile": "yes", 
		 "theory": "DFT", 
		 "functional": "B3LYP", 
		 "basiset": "6-31G**", 
		 "properties": { 
			 "R2extent": 6726.0002, 
			 "electric_dipole_moment_norm": 4.77939015984, 
			 "electric_quadrupole_moment_norm": 22.3423329876, 
			 "total_energy": -1241.13445238, 
			 "HOMO_LUMO_gap": 0.2108, 
			 "cosmo_polarized_energy": -16.02, 
			 "cosmo_cavitation_energy": 38.17, 
			 "cosmo_dispersion_energy": -27.6, 
			 "cosmo_repulsion_energy": 2.13, 
			 "cosmo_total_nonelectrostatic_energy": 12.7, 
			 "SMD_solvation_energy": 5.46 
		},
		"coords": [
			{
				"x": -0.9592674635,
				"y": -2.0578103987,
				"z": -4.37201503,
				"element": "C" 
			},
			{
				"x": -0.2039566799,
				"y": -1.7706750378,
				"z": -3.0970934507,
				"element": "C" 
			},
			{
				"x": 0.5763971789,
				"y": -0.6084566094,
				"z": -2.9784536688,
				"element": "C" 
			},
			{
				"x": 1.2974476396,
				"y": -0.3396111165,
				"z": -1.820148548,
				"element": "C" 
			},
			{
				"x": 1.2346422973,
				"y": -1.2466338638,
				"z": -0.7579263876,
				"element": "C" 
			},
			{
				"x": 0.4707427662,
				"y": -2.4100444102,
				"z": -0.8462351277,
				"element": "C" 
			},
			{
				"x": -0.2440238169,
				"y": -2.6621317373,
				"z": -2.0176780405,
				"element": "C" 
			},
			{
				"x": 2.1492803572,
				"y": -0.9018470912,
				"z": 0.7352146875,
				"element": "S" 
			},
			{
				"x": 2.1349459428,
				"y": -2.0974687958,
				"z": 1.5782232985,
				"element": "O" 
			},
			{
				"x": 3.3846490681,
				"y": -0.213182555,
				"z": 0.3926192246,
				"element": "O" 
			},
			{
				"x": 1.2377653968,
				"y": 0.2578088915,
				"z": 1.4565823803,
				"element": "O" 
			},
			{
				"x": 0.0669724643,
				"y": -0.1729680543,
				"z": 2.1887224632,
				"element": "C" 
			},
			{
				"x": -0.5109184431,
				"y": 1.0203567718,
				"z": 2.9281329342,
				"element": "C" 
			},
			{
				"x": 0.4906509041,
				"y": 1.7472421465,
				"z": 3.8524803125,
				"element": "C" 
			},
			{
				"x": 0.0662854814,
				"y": 3.2245811413,
				"z": 3.9338157272,
				"element": "C" 
			},
			{
				"x": -1.3570267229,
				"y": 3.3134388127,
				"z": 3.8334802336,
				"element": "O" 
			},
			{
				"x": -1.7980423888,
				"y": 2.9592799977,
				"z": 2.5444440235,
				"element": "C" 
			},
			{
				"x": -1.013284614,
				"y": 1.9391446478,
				"z": 1.9566506344,
				"element": "O" 
			},
			{
				"x": -1.4694088976,
				"y": -1.1630934168,
				"z": -4.7428886497,
				"element": "H" 
			},
			{
				"x": -0.2777721137,
				"y": -2.392219613,
				"z": -5.1635774391,
				"element": "H" 
			},
			{
				"x": -1.7075002847,
				"y": -2.8415110244,
				"z": -4.2275270199,
				"element": "H" 
			},
			{
				"x": 0.6206132771,
				"y": 0.0926004556,
				"z": -3.8077248824,
				"element": "H" 
			},
			{
				"x": 1.9090198182,
				"y": 0.5521700965,
				"z": -1.7369311232,
				"element": "H" 
			},
			{
				"x": 0.4527871944,
				"y": -3.1078470219,
				"z": -0.0163869646,
				"element": "H" 
			},
			{
				"x": -0.838566003,
				"y": -3.5684204865,
				"z": -2.0938353038,
				"element": "H" 
			},
			{
				"x": -0.6776352906,
				"y": -0.5652035432,
				"z": 1.4870484149,
				"element": "H" 
			},
			{
				"x": 0.3511102802,
				"y": -0.9552729709,
				"z": 2.8984825724,
				"element": "H" 
			},
			{
				"x": -1.3482277916,
				"y": 0.629509223,
				"z": 3.5295076808,
				"element": "H" 
			},
			{
				"x": 1.5067256404,
				"y": 1.6696335711,
				"z": 3.4552852742,
				"element": "H" 
			},
			{
				"x": 0.4759766254,
				"y": 1.2795456917,
				"z": 4.8429143703,
				"element": "H" 
			},
			{
				"x": 0.3357127153,
				"y": 3.6766893174,
				"z": 4.8908245053,
				"element": "H" 
			},
			{
				"x": 0.5410189359,
				"y": 3.8080466792,
				"z": 3.1323488069,
				"element": "H" 
			},
			{
				"x": -1.7399208523,
				"y": 3.8082901596,
				"z": 1.8459834274,
				"element": "H" 
			},
			{
				"x": -2.845492621,
				"y": 2.6419601432,
				"z": 2.6641606642,
				"element": "H" 
			}
		],
		 "valence_orbital": [ 
			{
				"type": "occ",
				"energy": -0.30042,
				"method": "rhf"
			},
			{
				"type": "occ",
				"energy": -0.28243,
				"method": "rhf"
			},
			{
				"type": "occ",
				"energy": -0.2727,
				"method": "rhf"
			},
			{
				"type": "occ",
				"energy": -0.26523,
				"method": "rhf"
			},
			{
				"type": "occ",
				"energy": -0.25226,
				"method": "rhf"
			},
			{
				"type": "unocc",
				"energy": -0.04146,
				"method": "rhf"
			},
			{
				"type": "unocc",
				"energy": -0.02349,
				"method": "rhf"
			},
			{
				"type": "unocc",
				"energy": 0.04659,
				"method": "rhf"
			},
			{
				"type": "unocc",
				"energy": 0.07581,
				"method": "rhf"
			},
			{
				"type": "unocc",
				"energy": 0.08696,
				"method": "rhf"
			}
		],
		"cosmo_sigma_profile": { 
			"-0.025": 0.0,
			"-0.024": 0.0,
			"-0.023": 0.0,
			"-0.022": 0.0,
			"-0.021": 0.0,
			"-0.02": 0.0,
			"-0.019": 0.0,
			"-0.018": 0.0,
			"-0.017": 0.0,
			"-0.016": 0.0,
			"-0.015": 0.0,
			"-0.014": 0.0,
			"-0.013": 0.0,
			"-0.012": 0.0,
			"-0.011": 0.0,
			"-0.01": 0.0,
			"-0.009": 0.0,
			"-0.008": 0.390277838025,
			"-0.007": 7.41829533287,
			"-0.006": 17.7439560939,
			"-0.005": 30.0084012722,
			"-0.004": 35.292245967,
			"-0.003": 30.5289644699,
			"-0.002": 25.2309251985,
			"-0.001": 24.51014468,
			"0.0": 18.5236754844,
			"0.001": 15.7099280888,
			"0.002": 16.8098819899,
			"0.003": 15.1702503409,
			"0.004": 5.87661601211,
			"0.005": 5.54730335583,
			"0.006": 6.22945327663,
			"0.007": 6.36698564331,
			"0.008": 6.67719420942,
			"0.009": 9.68868746551,
			"0.01": 12.0556193018,
			"0.011": 7.48046186891,
			"0.012": 3.17487751873,
			"0.013": 0.74585992731,
			"0.014": 0.0,
			"0.015": 0.0,
			"0.016": 0.0,
			"0.017": 0.0,
			"0.018": 0.0,
			"0.019": 0.0,
			"0.02": 0.0,
			"0.021": 0.0,
			"0.022": 0.0,
			"0.023": 0.0,
			"0.024": 0.0,
			"0.025": 0.0
		}
	}
}
