{
	 "smiles": "ClC1=C(Cl)C(Cl)=C2C(=O)C3=CC(C=O)=CC=C3C(=O)C2=C1Cl", 
	 "Tm": 456.15, 
	 "num_atms": 26, 
	 "gaussian": { 
		 "optdone": 1, 
		 "sigma_profile": "yes", 
		 "theory": "DFT", 
		 "functional": "B3LYP", 
		 "basiset": "6-31G**", 
		 "properties": { 
			 "R2extent": 10303.5113, 
			 "electric_dipole_moment_norm": 1.1418857167, 
			 "electric_quadrupole_moment_norm": 9.31070192037, 
			 "total_energy": -2640.41045484, 
			 "HOMO_LUMO_gap": 0.1399, 
			 "cosmo_polarized_energy": -12.69, 
			 "cosmo_cavitation_energy": 38.54, 
			 "cosmo_dispersion_energy": -28.67, 
			 "cosmo_repulsion_energy": 2.1, 
			 "cosmo_total_nonelectrostatic_energy": 11.98, 
			 "SMD_solvation_energy": 7.15 
		},
		"coords": [
			{
				"x": -4.6281317756,
				"y": -0.43895486,
				"z": -2.4003118355,
				"element": "Cl" 
			},
			{
				"x": -3.3406115626,
				"y": -0.2332769245,
				"z": -1.2598617737,
				"element": "C" 
			},
			{
				"x": -3.6025669575,
				"y": 0.3804841397,
				"z": -0.0266214744,
				"element": "C" 
			},
			{
				"x": -5.2093280633,
				"y": 0.9189868427,
				"z": 0.3326181964,
				"element": "Cl" 
			},
			{
				"x": -2.565158308,
				"y": 0.5640400099,
				"z": 0.908428072,
				"element": "C" 
			},
			{
				"x": -2.9645647286,
				"y": 1.3811555846,
				"z": 2.3874513509,
				"element": "Cl" 
			},
			{
				"x": -1.2599201693,
				"y": 0.1240874365,
				"z": 0.6111751377,
				"element": "C" 
			},
			{
				"x": -0.1334222331,
				"y": 0.3127451815,
				"z": 1.6004625896,
				"element": "C" 
			},
			{
				"x": -0.3236954705,
				"y": 0.5656934395,
				"z": 2.7792329168,
				"element": "O" 
			},
			{
				"x": 1.2583196257,
				"y": 0.1947309448,
				"z": 1.0896388158,
				"element": "C" 
			},
			{
				"x": 2.3198729017,
				"y": 0.6512770649,
				"z": 1.8789222451,
				"element": "C" 
			},
			{
				"x": 3.6314362079,
				"y": 0.517805472,
				"z": 1.423812055,
				"element": "C" 
			},
			{
				"x": 4.7581183339,
				"y": 1.0237944518,
				"z": 2.2513655666,
				"element": "C" 
			},
			{
				"x": 5.925749664,
				"y": 0.9482972223,
				"z": 1.9258012812,
				"element": "O" 
			},
			{
				"x": 3.8899587187,
				"y": -0.1036366301,
				"z": 0.1874935102,
				"element": "C" 
			},
			{
				"x": 2.8416977306,
				"y": -0.5862404835,
				"z": -0.5816672723,
				"element": "C" 
			},
			{
				"x": 1.5200467976,
				"y": -0.42303071,
				"z": -0.1374018771,
				"element": "C" 
			},
			{
				"x": 0.4039806153,
				"y": -0.9799720404,
				"z": -0.9498860221,
				"element": "C" 
			},
			{
				"x": 0.6451181065,
				"y": -1.7883503524,
				"z": -1.8314760912,
				"element": "O" 
			},
			{
				"x": -0.9952184397,
				"y": -0.5025190759,
				"z": -0.6389310916,
				"element": "C" 
			},
			{
				"x": -2.0389537547,
				"y": -0.6727725841,
				"z": -1.5699695628,
				"element": "C" 
			},
			{
				"x": -1.7882263347,
				"y": -1.3717339427,
				"z": -3.1395273583,
				"element": "Cl" 
			},
			{
				"x": 2.100130392,
				"y": 1.1041693345,
				"z": 2.8413480524,
				"element": "H" 
			},
			{
				"x": 4.4563555975,
				"y": 1.4887781176,
				"z": 3.2144515915,
				"element": "H" 
			},
			{
				"x": 4.9214678449,
				"y": -0.1990886406,
				"z": -0.1362512613,
				"element": "H" 
			},
			{
				"x": 3.0137452614,
				"y": -1.0924689981,
				"z": -1.5249957607,
				"element": "H" 
			}
		],
		 "valence_orbital": [ 
			{
				"type": "occ",
				"energy": -0.28616,
				"method": "rhf"
			},
			{
				"type": "occ",
				"energy": -0.28183,
				"method": "rhf"
			},
			{
				"type": "occ",
				"energy": -0.27556,
				"method": "rhf"
			},
			{
				"type": "occ",
				"energy": -0.27328,
				"method": "rhf"
			},
			{
				"type": "occ",
				"energy": -0.26958,
				"method": "rhf"
			},
			{
				"type": "unocc",
				"energy": -0.12968,
				"method": "rhf"
			},
			{
				"type": "unocc",
				"energy": -0.09465,
				"method": "rhf"
			},
			{
				"type": "unocc",
				"energy": -0.07539,
				"method": "rhf"
			},
			{
				"type": "unocc",
				"energy": -0.04842,
				"method": "rhf"
			},
			{
				"type": "unocc",
				"energy": -0.04293,
				"method": "rhf"
			}
		],
		"cosmo_sigma_profile": { 
			"-0.025": 0.0,
			"-0.024": 0.0,
			"-0.023": 0.0,
			"-0.022": 0.0,
			"-0.021": 0.0,
			"-0.02": 0.0,
			"-0.019": 0.0,
			"-0.018": 0.0,
			"-0.017": 0.0,
			"-0.016": 0.0,
			"-0.015": 0.0,
			"-0.014": 0.0,
			"-0.013": 0.0,
			"-0.012": 0.0,
			"-0.011": 0.0319177201997,
			"-0.01": 0.672444583064,
			"-0.009": 2.79067919897,
			"-0.008": 5.14539812631,
			"-0.007": 10.1865503599,
			"-0.006": 11.5253659469,
			"-0.005": 15.1723932836,
			"-0.004": 28.1595088751,
			"-0.003": 32.3129485241,
			"-0.002": 23.6766141909,
			"-0.001": 29.5615325084,
			"0.0": 28.2071656428,
			"0.001": 20.8986169773,
			"0.002": 29.2704757343,
			"0.003": 29.4038997256,
			"0.004": 8.41103608933,
			"0.005": 5.53708283396,
			"0.006": 4.98889381291,
			"0.007": 5.61270631917,
			"0.008": 6.19064585869,
			"0.009": 8.1581661301,
			"0.01": 10.0792283599,
			"0.011": 4.37971780463,
			"0.012": 1.02909385407,
			"0.013": 0.00293680570811,
			"0.014": 0.0,
			"0.015": 0.0,
			"0.016": 0.0,
			"0.017": 0.0,
			"0.018": 0.0,
			"0.019": 0.0,
			"0.02": 0.0,
			"0.021": 0.0,
			"0.022": 0.0,
			"0.023": 0.0,
			"0.024": 0.0,
			"0.025": 0.0
		}
	}
}
