{
	 "smiles": "OC(=O)C=CC(=O)C=CC(O)=O", 
	 "Tm": 573.15, 
	 "num_atms": 18, 
	 "gaussian": { 
		 "optdone": 1, 
		 "sigma_profile": "yes", 
		 "theory": "DFT", 
		 "functional": "B3LYP", 
		 "basiset": "6-31G**", 
		 "properties": { 
			 "R2extent": 3643.9707, 
			 "electric_dipole_moment_norm": 2.36341520686, 
			 "electric_quadrupole_moment_norm": 23.3208738957, 
			 "total_energy": -646.439945271, 
			 "HOMO_LUMO_gap": 0.15771, 
			 "cosmo_polarized_energy": -27.89, 
			 "cosmo_cavitation_energy": 25.56, 
			 "cosmo_dispersion_energy": -18.04, 
			 "cosmo_repulsion_energy": 1.47, 
			 "cosmo_total_nonelectrostatic_energy": 8.98, 
			 "SMD_solvation_energy": 8.14 
		},
		"coords": [
			{
				"x": -0.9246907363,
				"y": -4.8214181537,
				"z": -1.5887865514,
				"element": "O" 
			},
			{
				"x": -0.4264326213,
				"y": -3.5625961298,
				"z": -1.5227690802,
				"element": "C" 
			},
			{
				"x": 0.6349130962,
				"y": -3.2952008698,
				"z": -2.0363605395,
				"element": "O" 
			},
			{
				"x": -1.2664012382,
				"y": -2.5680281658,
				"z": -0.7894152532,
				"element": "C" 
			},
			{
				"x": -0.8598838013,
				"y": -1.2985818606,
				"z": -0.66907639,
				"element": "C" 
			},
			{
				"x": -1.6882590272,
				"y": -0.2938114303,
				"z": 0.0607528858,
				"element": "C" 
			},
			{
				"x": -2.7596355298,
				"y": -0.6063632286,
				"z": 0.5678762403,
				"element": "O" 
			},
			{
				"x": -1.213931357,
				"y": 1.1097863854,
				"z": 0.1790475483,
				"element": "C" 
			},
			{
				"x": -0.0743978734,
				"y": 1.6146748249,
				"z": -0.3158805951,
				"element": "C" 
			},
			{
				"x": 0.2544467392,
				"y": 3.0613584577,
				"z": -0.1056862199,
				"element": "C" 
			},
			{
				"x": 1.4268613365,
				"y": 3.4839973113,
				"z": -0.6415996118,
				"element": "O" 
			},
			{
				"x": -0.4557144079,
				"y": 3.8292738059,
				"z": 0.4968842532,
				"element": "O" 
			},
			{
				"x": -1.7767117777,
				"y": -4.8791362287,
				"z": -1.1337093179,
				"element": "H" 
			},
			{
				"x": -2.2159632419,
				"y": -2.8614208842,
				"z": -0.3452010069,
				"element": "H" 
			},
			{
				"x": 0.0887252085,
				"y": -1.0198948749,
				"z": -1.1166418812,
				"element": "H" 
			},
			{
				"x": -1.8814839543,
				"y": 1.7692071494,
				"z": 0.7280484232,
				"element": "H" 
			},
			{
				"x": 0.628342307,
				"y": 0.9991593193,
				"z": -0.8727260217,
				"element": "H" 
			},
			{
				"x": 1.8865168788,
				"y": 2.7620945725,
				"z": -1.092656882,
				"element": "H" 
			}
		],
		 "valence_orbital": [ 
			{
				"type": "occ",
				"energy": -0.31179,
				"method": "rhf"
			},
			{
				"type": "occ",
				"energy": -0.30885,
				"method": "rhf"
			},
			{
				"type": "occ",
				"energy": -0.29667,
				"method": "rhf"
			},
			{
				"type": "occ",
				"energy": -0.29509,
				"method": "rhf"
			},
			{
				"type": "occ",
				"energy": -0.28476,
				"method": "rhf"
			},
			{
				"type": "unocc",
				"energy": -0.12705,
				"method": "rhf"
			},
			{
				"type": "unocc",
				"energy": -0.0745,
				"method": "rhf"
			},
			{
				"type": "unocc",
				"energy": 0.01881,
				"method": "rhf"
			},
			{
				"type": "unocc",
				"energy": 0.03613,
				"method": "rhf"
			},
			{
				"type": "unocc",
				"energy": 0.04333,
				"method": "rhf"
			}
		],
		"cosmo_sigma_profile": { 
			"-0.025": 0.0,
			"-0.024": 0.0,
			"-0.023": 0.0,
			"-0.022": 0.0,
			"-0.021": 0.00639087028069,
			"-0.02": 1.94856969314,
			"-0.019": 3.04294534185,
			"-0.018": 2.64991507975,
			"-0.017": 2.67232534163,
			"-0.016": 1.22518038241,
			"-0.015": 2.23841883082,
			"-0.014": 2.01194169143,
			"-0.013": 2.61752949274,
			"-0.012": 3.91530282014,
			"-0.011": 3.56954710157,
			"-0.01": 3.00273116321,
			"-0.009": 2.64170015917,
			"-0.008": 3.75417276024,
			"-0.007": 4.37387269165,
			"-0.006": 6.37499296111,
			"-0.005": 8.77531375017,
			"-0.004": 10.1886428002,
			"-0.003": 11.2958531545,
			"-0.002": 10.3136473356,
			"-0.001": 14.471122014,
			"0.0": 10.2242736844,
			"0.001": 6.33978980807,
			"0.002": 4.74018163452,
			"0.003": 6.29623678572,
			"0.004": 5.77272073968,
			"0.005": 6.05629087183,
			"0.006": 5.56033949874,
			"0.007": 6.25185779769,
			"0.008": 7.94599180004,
			"0.009": 9.98052000072,
			"0.01": 13.8006555589,
			"0.011": 13.7646793012,
			"0.012": 6.0819031186,
			"0.013": 0.917604475313,
			"0.014": 0.0,
			"0.015": 0.0,
			"0.016": 0.0,
			"0.017": 0.0,
			"0.018": 0.0,
			"0.019": 0.0,
			"0.02": 0.0,
			"0.021": 0.0,
			"0.022": 0.0,
			"0.023": 0.0,
			"0.024": 0.0,
			"0.025": 0.0
		}
	}
}
