{
	 "smiles": "CC(C)(C)OC(=O)NC1CCCCCC1=O", 
	 "Tm": 341.15, 
	 "num_atms": 37, 
	 "gaussian": { 
		 "optdone": 1, 
		 "sigma_profile": "yes", 
		 "theory": "DFT", 
		 "functional": "B3LYP", 
		 "basiset": "6-31G**", 
		 "properties": { 
			 "R2extent": 5448.4329, 
			 "electric_dipole_moment_norm": 4.62337831677, 
			 "electric_quadrupole_moment_norm": 11.4249395552, 
			 "total_energy": -750.399197459, 
			 "HOMO_LUMO_gap": 0.21853, 
			 "cosmo_polarized_energy": -11.75, 
			 "cosmo_cavitation_energy": 36.76, 
			 "cosmo_dispersion_energy": -25.39, 
			 "cosmo_repulsion_energy": 1.99, 
			 "cosmo_total_nonelectrostatic_energy": 13.37, 
			 "SMD_solvation_energy": 6.67 
		},
		"coords": [
			{
				"x": 1.9097492488,
				"y": 2.6408299385,
				"z": 1.4981572963,
				"element": "C" 
			},
			{
				"x": 0.7843569688,
				"y": 1.6320908424,
				"z": 1.7529519372,
				"element": "C" 
			},
			{
				"x": 1.2841242207,
				"y": 0.3738997883,
				"z": 2.4710496344,
				"element": "C" 
			},
			{
				"x": -0.3601130882,
				"y": 2.2841840948,
				"z": 2.5334361771,
				"element": "C" 
			},
			{
				"x": 0.1391716174,
				"y": 1.2646295909,
				"z": 0.4823097221,
				"element": "O" 
			},
			{
				"x": 0.8452686211,
				"y": 0.647247972,
				"z": -0.5011102961,
				"element": "C" 
			},
			{
				"x": 2.0259323238,
				"y": 0.3448377448,
				"z": -0.4534737909,
				"element": "O" 
			},
			{
				"x": 0.0426543862,
				"y": 0.376815154,
				"z": -1.579255909,
				"element": "N" 
			},
			{
				"x": -1.2816517831,
				"y": 0.9251375845,
				"z": -1.8073620346,
				"element": "C" 
			},
			{
				"x": -2.4066372304,
				"y": 0.209698445,
				"z": -1.0268815583,
				"element": "C" 
			},
			{
				"x": -2.7147139413,
				"y": -1.2310316896,
				"z": -1.463476203,
				"element": "C" 
			},
			{
				"x": -2.9664614837,
				"y": -1.4196091547,
				"z": -2.9758064049,
				"element": "C" 
			},
			{
				"x": -3.7504500044,
				"y": -0.2825175811,
				"z": -3.6591256758,
				"element": "C" 
			},
			{
				"x": -2.9743428118,
				"y": 1.0769976686,
				"z": -3.7801829494,
				"element": "C" 
			},
			{
				"x": -1.5346480139,
				"y": 0.9315759064,
				"z": -3.3240739654,
				"element": "C" 
			},
			{
				"x": -0.6164257033,
				"y": 0.7819798712,
				"z": -4.1110001297,
				"element": "O" 
			},
			{
				"x": 2.7164835549,
				"y": 2.1868896976,
				"z": 0.922751126,
				"element": "H" 
			},
			{
				"x": 2.3097072221,
				"y": 2.994206794,
				"z": 2.4541936167,
				"element": "H" 
			},
			{
				"x": 1.5260590174,
				"y": 3.5074118964,
				"z": 0.9500369027,
				"element": "H" 
			},
			{
				"x": 2.0835602859,
				"y": -0.1048727208,
				"z": 1.9055638932,
				"element": "H" 
			},
			{
				"x": 1.661474412,
				"y": 0.642531534,
				"z": 3.4631878706,
				"element": "H" 
			},
			{
				"x": 0.4643652587,
				"y": -0.3398903668,
				"z": 2.6018400798,
				"element": "H" 
			},
			{
				"x": -0.7508608798,
				"y": 3.1521958705,
				"z": 1.99415452,
				"element": "H" 
			},
			{
				"x": -0.0045857301,
				"y": 2.6173226238,
				"z": 3.5130136409,
				"element": "H" 
			},
			{
				"x": -1.1790412682,
				"y": 1.5749721446,
				"z": 2.6868288905,
				"element": "H" 
			},
			{
				"x": 0.5559469941,
				"y": 0.147176462,
				"z": -2.422960901,
				"element": "H" 
			},
			{
				"x": -1.3071911917,
				"y": 1.9842582726,
				"z": -1.5017083334,
				"element": "H" 
			},
			{
				"x": -3.3135738361,
				"y": 0.8206482276,
				"z": -1.1114480627,
				"element": "H" 
			},
			{
				"x": -2.1300634414,
				"y": 0.2261480426,
				"z": 0.0303758381,
				"element": "H" 
			},
			{
				"x": -3.5987088553,
				"y": -1.5611940717,
				"z": -0.9034959404,
				"element": "H" 
			},
			{
				"x": -1.8941562083,
				"y": -1.890000576,
				"z": -1.1580595346,
				"element": "H" 
			},
			{
				"x": -3.5089030406,
				"y": -2.3598700564,
				"z": -3.1276826841,
				"element": "H" 
			},
			{
				"x": -2.0099424362,
				"y": -1.5468039897,
				"z": -3.4971058449,
				"element": "H" 
			},
			{
				"x": -4.0163726499,
				"y": -0.6097857609,
				"z": -4.6687239503,
				"element": "H" 
			},
			{
				"x": -4.6954577767,
				"y": -0.1147611714,
				"z": -3.1300730391,
				"element": "H" 
			},
			{
				"x": -2.9503860277,
				"y": 1.4119535002,
				"z": -4.8193394922,
				"element": "H" 
			},
			{
				"x": -3.4704667296,
				"y": 1.8518974719,
				"z": -3.1862044456,
				"element": "H" 
			}
		],
		 "valence_orbital": [ 
			{
				"type": "occ",
				"energy": -0.32383,
				"method": "rhf"
			},
			{
				"type": "occ",
				"energy": -0.28623,
				"method": "rhf"
			},
			{
				"type": "occ",
				"energy": -0.2622,
				"method": "rhf"
			},
			{
				"type": "occ",
				"energy": -0.25512,
				"method": "rhf"
			},
			{
				"type": "occ",
				"energy": -0.24615,
				"method": "rhf"
			},
			{
				"type": "unocc",
				"energy": -0.02762,
				"method": "rhf"
			},
			{
				"type": "unocc",
				"energy": 0.05341,
				"method": "rhf"
			},
			{
				"type": "unocc",
				"energy": 0.07171,
				"method": "rhf"
			},
			{
				"type": "unocc",
				"energy": 0.08423,
				"method": "rhf"
			},
			{
				"type": "unocc",
				"energy": 0.09607,
				"method": "rhf"
			}
		],
		"cosmo_sigma_profile": { 
			"-0.025": 0.0,
			"-0.024": 0.0,
			"-0.023": 0.0,
			"-0.022": 0.0,
			"-0.021": 0.0,
			"-0.02": 0.0,
			"-0.019": 0.0,
			"-0.018": 0.0,
			"-0.017": 0.0,
			"-0.016": 0.0,
			"-0.015": 0.0,
			"-0.014": 0.0,
			"-0.013": 0.0,
			"-0.012": 0.0,
			"-0.011": 0.0,
			"-0.01": 0.0,
			"-0.009": 0.387869520513,
			"-0.008": 1.49896440497,
			"-0.007": 3.92102303866,
			"-0.006": 4.97420878836,
			"-0.005": 7.07652382034,
			"-0.004": 21.5400321234,
			"-0.003": 33.7818448561,
			"-0.002": 39.9770363927,
			"-0.001": 43.4280455622,
			"0.0": 41.7742459676,
			"0.001": 27.7923547836,
			"0.002": 9.36763324088,
			"0.003": 6.84723069245,
			"0.004": 6.20700771102,
			"0.005": 5.71715321121,
			"0.006": 3.56538319999,
			"0.007": 2.38155760524,
			"0.008": 3.60102181201,
			"0.009": 3.5260328566,
			"0.01": 3.00516402121,
			"0.011": 4.47661741439,
			"0.012": 3.82917078229,
			"0.013": 3.26706036076,
			"0.014": 2.46784117648,
			"0.015": 0.0495104058608,
			"0.016": 0.0,
			"0.017": 0.0,
			"0.018": 0.0,
			"0.019": 0.0,
			"0.02": 0.0,
			"0.021": 0.0,
			"0.022": 0.0,
			"0.023": 0.0,
			"0.024": 0.0,
			"0.025": 0.0
		}
	}
}
