{
	 "smiles": "CC(=O)NC1=CC=CC=C1C(=O)CCl", 
	 "Tm": 385.15, 
	 "num_atms": 24, 
	 "gaussian": { 
		 "optdone": 1, 
		 "sigma_profile": "yes", 
		 "theory": "DFT", 
		 "functional": "B3LYP", 
		 "basiset": "6-31G**", 
		 "properties": { 
			 "R2extent": 5500.0826, 
			 "electric_dipole_moment_norm": 5.76429410596, 
			 "electric_quadrupole_moment_norm": 20.0647822493, 
			 "total_energy": -1052.48739909, 
			 "HOMO_LUMO_gap": 0.18568, 
			 "cosmo_polarized_energy": -17.56, 
			 "cosmo_cavitation_energy": 30.02, 
			 "cosmo_dispersion_energy": -20.8, 
			 "cosmo_repulsion_energy": 1.66, 
			 "cosmo_total_nonelectrostatic_energy": 10.88, 
			 "SMD_solvation_energy": 6.64 
		},
		"coords": [
			{
				"x": 0.1511543007,
				"y": -0.8027359566,
				"z": -1.1574614921,
				"element": "C" 
			},
			{
				"x": -0.2273119274,
				"y": 0.5192887126,
				"z": -1.7939775765,
				"element": "C" 
			},
			{
				"x": -1.0356687453,
				"y": 0.6154608726,
				"z": -2.7009484749,
				"element": "O" 
			},
			{
				"x": 0.4046720166,
				"y": 1.6739217156,
				"z": -1.3177770333,
				"element": "N" 
			},
			{
				"x": 1.1488663684,
				"y": 1.8219386677,
				"z": -0.1111631776,
				"element": "C" 
			},
			{
				"x": 0.564292601,
				"y": 2.5142906909,
				"z": 0.9587567299,
				"element": "C" 
			},
			{
				"x": 1.2378134377,
				"y": 2.6609356073,
				"z": 2.1687228495,
				"element": "C" 
			},
			{
				"x": 2.4960063098,
				"y": 2.0786881698,
				"z": 2.3410724032,
				"element": "C" 
			},
			{
				"x": 3.0809621996,
				"y": 1.384671833,
				"z": 1.2871983556,
				"element": "C" 
			},
			{
				"x": 2.4422738262,
				"y": 1.2818741198,
				"z": 0.0398355042,
				"element": "C" 
			},
			{
				"x": 3.2384624377,
				"y": 0.5968193104,
				"z": -1.0443704156,
				"element": "C" 
			},
			{
				"x": 3.8786914761,
				"y": -0.4054031634,
				"z": -0.8015726654,
				"element": "O" 
			},
			{
				"x": 3.3101356132,
				"y": 1.3141713308,
				"z": -2.3938118142,
				"element": "C" 
			},
			{
				"x": 4.2408736487,
				"y": 0.4084698887,
				"z": -3.6270229612,
				"element": "Cl" 
			},
			{
				"x": 1.1478637834,
				"y": -1.125359025,
				"z": -1.4742688338,
				"element": "H" 
			},
			{
				"x": 0.157297289,
				"y": -0.7445827531,
				"z": -0.0655570173,
				"element": "H" 
			},
			{
				"x": -0.5744318369,
				"y": -1.5455777863,
				"z": -1.4876958337,
				"element": "H" 
			},
			{
				"x": -0.0535551139,
				"y": 2.5066942318,
				"z": -1.671158051,
				"element": "H" 
			},
			{
				"x": -0.4369457392,
				"y": 2.9172070986,
				"z": 0.8349643143,
				"element": "H" 
			},
			{
				"x": 0.769996514,
				"y": 3.2070786286,
				"z": 2.9823699593,
				"element": "H" 
			},
			{
				"x": 3.0168397229,
				"y": 2.1672914101,
				"z": 3.28929442,
				"element": "H" 
			},
			{
				"x": 4.0578408379,
				"y": 0.9260978386,
				"z": 1.4003876145,
				"element": "H" 
			},
			{
				"x": 2.3130536764,
				"y": 1.5102029479,
				"z": -2.7856408914,
				"element": "H" 
			},
			{
				"x": 3.8061173034,
				"y": 2.2776556096,
				"z": -2.2378759125,
				"element": "H" 
			}
		],
		 "valence_orbital": [ 
			{
				"type": "occ",
				"energy": -0.29734,
				"method": "rhf"
			},
			{
				"type": "occ",
				"energy": -0.28294,
				"method": "rhf"
			},
			{
				"type": "occ",
				"energy": -0.27117,
				"method": "rhf"
			},
			{
				"type": "occ",
				"energy": -0.26586,
				"method": "rhf"
			},
			{
				"type": "occ",
				"energy": -0.25219,
				"method": "rhf"
			},
			{
				"type": "unocc",
				"energy": -0.06651,
				"method": "rhf"
			},
			{
				"type": "unocc",
				"energy": -0.0353,
				"method": "rhf"
			},
			{
				"type": "unocc",
				"energy": -0.00308,
				"method": "rhf"
			},
			{
				"type": "unocc",
				"energy": 0.01162,
				"method": "rhf"
			},
			{
				"type": "unocc",
				"energy": 0.03161,
				"method": "rhf"
			}
		],
		"cosmo_sigma_profile": { 
			"-0.025": 0.0,
			"-0.024": 0.0,
			"-0.023": 0.0,
			"-0.022": 0.0,
			"-0.021": 0.0,
			"-0.02": 0.0,
			"-0.019": 0.0,
			"-0.018": 0.0,
			"-0.017": 0.0,
			"-0.016": 0.0,
			"-0.015": 0.0921790127668,
			"-0.014": 0.763472606567,
			"-0.013": 1.04782954464,
			"-0.012": 1.36412111504,
			"-0.011": 1.13540595006,
			"-0.01": 2.1560804888,
			"-0.009": 3.91983192278,
			"-0.008": 4.90185978397,
			"-0.007": 10.8148616812,
			"-0.006": 15.1101601891,
			"-0.005": 20.9580922085,
			"-0.004": 17.812083254,
			"-0.003": 15.6131575148,
			"-0.002": 17.0796616684,
			"-0.001": 14.9345009524,
			"0.0": 11.750606684,
			"0.001": 12.1796242973,
			"0.002": 12.5229908876,
			"0.003": 15.2395919154,
			"0.004": 8.56944094731,
			"0.005": 8.83102061876,
			"0.006": 9.97463838825,
			"0.007": 4.03903297553,
			"0.008": 2.84102693206,
			"0.009": 3.91532787311,
			"0.01": 4.85206450641,
			"0.011": 5.91835904899,
			"0.012": 5.14560254294,
			"0.013": 5.98940397853,
			"0.014": 1.8033055328,
			"0.015": 0.0490774821156,
			"0.016": 0.0,
			"0.017": 0.0,
			"0.018": 0.0,
			"0.019": 0.0,
			"0.02": 0.0,
			"0.021": 0.0,
			"0.022": 0.0,
			"0.023": 0.0,
			"0.024": 0.0,
			"0.025": 0.0
		}
	}
}
