{
	 "smiles": "ClC1=CC2=C(NC(=O)CC2)C=C1", 
	 "Tm": 436.15, 
	 "num_atms": 20, 
	 "gaussian": { 
		 "optdone": 1, 
		 "sigma_profile": "yes", 
		 "theory": "DFT", 
		 "functional": "B3LYP", 
		 "basiset": "6-31G**", 
		 "properties": { 
			 "R2extent": 4093.8036, 
			 "electric_dipole_moment_norm": 0.853818599001, 
			 "electric_quadrupole_moment_norm": 20.4800028618, 
			 "total_energy": -937.978094927, 
			 "HOMO_LUMO_gap": 0.19824, 
			 "cosmo_polarized_energy": -11.71, 
			 "cosmo_cavitation_energy": 25.31, 
			 "cosmo_dispersion_energy": -19.17, 
			 "cosmo_repulsion_energy": 1.53, 
			 "cosmo_total_nonelectrostatic_energy": 7.67, 
			 "SMD_solvation_energy": 4.23 
		},
		"coords": [
			{
				"x": -4.8629410213,
				"y": 0.5019397484,
				"z": 2.8714540725,
				"element": "Cl" 
			},
			{
				"x": -3.5319343555,
				"y": 0.7063422342,
				"z": 1.7404115375,
				"element": "C" 
			},
			{
				"x": -2.7164158224,
				"y": -0.3841575332,
				"z": 1.4362629016,
				"element": "C" 
			},
			{
				"x": -1.6545461508,
				"y": -0.2404732684,
				"z": 0.5446890094,
				"element": "C" 
			},
			{
				"x": -1.4323543605,
				"y": 1.0131141118,
				"z": -0.0559984785,
				"element": "C" 
			},
			{
				"x": -0.3658693329,
				"y": 1.1548206102,
				"z": -0.9584249895,
				"element": "N" 
			},
			{
				"x": 0.2938360648,
				"y": 0.1197673211,
				"z": -1.5976711387,
				"element": "C" 
			},
			{
				"x": 1.1825387261,
				"y": 0.3363744719,
				"z": -2.404321327,
				"element": "O" 
			},
			{
				"x": -0.2152763993,
				"y": -1.268404327,
				"z": -1.2370895735,
				"element": "C" 
			},
			{
				"x": -0.6945862703,
				"y": -1.3615124469,
				"z": 0.2190964282,
				"element": "C" 
			},
			{
				"x": -2.2547915635,
				"y": 2.1005955889,
				"z": 0.255862686,
				"element": "C" 
			},
			{
				"x": -3.305028675,
				"y": 1.9523342539,
				"z": 1.1599612241,
				"element": "C" 
			},
			{
				"x": -2.9040382131,
				"y": -1.3458420438,
				"z": 1.9030491452,
				"element": "H" 
			},
			{
				"x": -0.0979288525,
				"y": 2.081531726,
				"z": -1.264638746,
				"element": "H" 
			},
			{
				"x": 0.5847698651,
				"y": -1.9785358264,
				"z": -1.4546884422,
				"element": "H" 
			},
			{
				"x": -1.0460905102,
				"y": -1.4929123455,
				"z": -1.9200042905,
				"element": "H" 
			},
			{
				"x": 0.1755930052,
				"y": -1.2948314279,
				"z": 0.8881911119,
				"element": "H" 
			},
			{
				"x": -1.1583077867,
				"y": -2.3344493665,
				"z": 0.4082344683,
				"element": "H" 
			},
			{
				"x": -2.0785973121,
				"y": 3.0648036234,
				"z": -0.213198323,
				"element": "H" 
			},
			{
				"x": -3.9448310351,
				"y": 2.7931948958,
				"z": 1.4025227242,
				"element": "H" 
			}
		],
		 "valence_orbital": [ 
			{
				"type": "occ",
				"energy": -0.31466,
				"method": "rhf"
			},
			{
				"type": "occ",
				"energy": -0.29844,
				"method": "rhf"
			},
			{
				"type": "occ",
				"energy": -0.26652,
				"method": "rhf"
			},
			{
				"type": "occ",
				"energy": -0.25913,
				"method": "rhf"
			},
			{
				"type": "occ",
				"energy": -0.22287,
				"method": "rhf"
			},
			{
				"type": "unocc",
				"energy": -0.02463,
				"method": "rhf"
			},
			{
				"type": "unocc",
				"energy": -0.02141,
				"method": "rhf"
			},
			{
				"type": "unocc",
				"energy": 0.02638,
				"method": "rhf"
			},
			{
				"type": "unocc",
				"energy": 0.02754,
				"method": "rhf"
			},
			{
				"type": "unocc",
				"energy": 0.08269,
				"method": "rhf"
			}
		],
		"cosmo_sigma_profile": { 
			"-0.025": 0.0,
			"-0.024": 0.0,
			"-0.023": 0.0,
			"-0.022": 0.0,
			"-0.021": 0.0,
			"-0.02": 0.0,
			"-0.019": 0.0,
			"-0.018": 0.0,
			"-0.017": 0.0,
			"-0.016": 0.0,
			"-0.015": 0.736989630391,
			"-0.014": 0.862461522153,
			"-0.013": 1.44935872651,
			"-0.012": 0.833897166365,
			"-0.011": 1.44819621847,
			"-0.01": 1.69891432181,
			"-0.009": 0.971017867241,
			"-0.008": 1.71319195848,
			"-0.007": 5.47865102347,
			"-0.006": 11.1807668668,
			"-0.005": 15.9455347232,
			"-0.004": 15.705824028,
			"-0.003": 14.8913218997,
			"-0.002": 15.412211827,
			"-0.001": 10.7208959893,
			"0.0": 11.5081249985,
			"0.001": 12.6202910627,
			"0.002": 16.6894517199,
			"0.003": 16.950654297,
			"0.004": 16.46659935,
			"0.005": 10.2036136565,
			"0.006": 1.68829985009,
			"0.007": 1.81957209248,
			"0.008": 0.890782070799,
			"0.009": 1.11261189388,
			"0.01": 1.49244960323,
			"0.011": 1.68660859086,
			"0.012": 3.11877600463,
			"0.013": 5.37712367523,
			"0.014": 2.94230878044,
			"0.015": 0.157779291918,
			"0.016": 0.0,
			"0.017": 0.0,
			"0.018": 0.0,
			"0.019": 0.0,
			"0.02": 0.0,
			"0.021": 0.0,
			"0.022": 0.0,
			"0.023": 0.0,
			"0.024": 0.0,
			"0.025": 0.0
		}
	}
}
