{
	 "smiles": "OC(=O)C1=C(F)C=C(C=C1F)C#N", 
	 "Tm": 463.15, 
	 "num_atms": 16, 
	 "gaussian": { 
		 "optdone": 1, 
		 "sigma_profile": "yes", 
		 "theory": "DFT", 
		 "functional": "B3LYP", 
		 "basiset": "6-31G**", 
		 "properties": { 
			 "R2extent": 2599.5851, 
			 "electric_dipole_moment_norm": 2.49215195965, 
			 "electric_quadrupole_moment_norm": 27.7896556281, 
			 "total_energy": -711.504785437, 
			 "HOMO_LUMO_gap": 0.18639, 
			 "cosmo_polarized_energy": -16.26, 
			 "cosmo_cavitation_energy": 23.46, 
			 "cosmo_dispersion_energy": -16.71, 
			 "cosmo_repulsion_energy": 1.27, 
			 "cosmo_total_nonelectrostatic_energy": 8.01, 
			 "SMD_solvation_energy": 7.53 
		},
		"coords": [
			{
				"x": 2.8882424528,
				"y": -1.2076860366,
				"z": -0.9779358315,
				"element": "O" 
			},
			{
				"x": 2.2230501463,
				"y": -0.0518066142,
				"z": -1.1741149478,
				"element": "C" 
			},
			{
				"x": 2.800558485,
				"y": 0.9227744872,
				"z": -1.5860328061,
				"element": "O" 
			},
			{
				"x": 0.739889762,
				"y": -0.0395323488,
				"z": -0.8576739987,
				"element": "C" 
			},
			{
				"x": -0.0161999139,
				"y": 1.1378633322,
				"z": -1.0415378988,
				"element": "C" 
			},
			{
				"x": 0.5630841684,
				"y": 2.2459264393,
				"z": -1.4930542401,
				"element": "F" 
			},
			{
				"x": -1.377820277,
				"y": 1.2142234706,
				"z": -0.770355315,
				"element": "C" 
			},
			{
				"x": -2.0462036446,
				"y": 0.081615388,
				"z": -0.2924469707,
				"element": "C" 
			},
			{
				"x": -1.3468392938,
				"y": -1.1164438364,
				"z": -0.0902361323,
				"element": "C" 
			},
			{
				"x": 0.0059947851,
				"y": -1.1361392989,
				"z": -0.3762285763,
				"element": "C" 
			},
			{
				"x": 0.6426330521,
				"y": -2.3215442658,
				"z": -0.1642929834,
				"element": "F" 
			},
			{
				"x": -3.4505502793,
				"y": 0.1435683483,
				"z": -0.0078388422,
				"element": "C" 
			},
			{
				"x": -4.588707098,
				"y": 0.192364531,
				"z": 0.2232273032,
				"element": "N" 
			},
			{
				"x": 2.3042506619,
				"y": -1.9061056928,
				"z": -0.646469255,
				"element": "H" 
			},
			{
				"x": -1.8957300634,
				"y": 2.1510252884,
				"z": -0.93472925,
				"element": "H" 
			},
			{
				"x": -1.8351529433,
				"y": -2.0098031916,
				"z": 0.2783197446,
				"element": "H" 
			}
		],
		 "valence_orbital": [ 
			{
				"type": "occ",
				"energy": -0.36082,
				"method": "rhf"
			},
			{
				"type": "occ",
				"energy": -0.32973,
				"method": "rhf"
			},
			{
				"type": "occ",
				"energy": -0.30167,
				"method": "rhf"
			},
			{
				"type": "occ",
				"energy": -0.29535,
				"method": "rhf"
			},
			{
				"type": "occ",
				"energy": -0.2899,
				"method": "rhf"
			},
			{
				"type": "unocc",
				"energy": -0.10351,
				"method": "rhf"
			},
			{
				"type": "unocc",
				"energy": -0.05004,
				"method": "rhf"
			},
			{
				"type": "unocc",
				"energy": -0.00133,
				"method": "rhf"
			},
			{
				"type": "unocc",
				"energy": 0.00738,
				"method": "rhf"
			},
			{
				"type": "unocc",
				"energy": 0.03475,
				"method": "rhf"
			}
		],
		"cosmo_sigma_profile": { 
			"-0.025": 0.0,
			"-0.024": 0.0,
			"-0.023": 0.0,
			"-0.022": 0.0,
			"-0.021": 0.0,
			"-0.02": 0.0,
			"-0.019": 0.0,
			"-0.018": 0.0,
			"-0.017": 0.0,
			"-0.016": 0.0,
			"-0.015": 0.0,
			"-0.014": 0.152169124739,
			"-0.013": 0.760294697722,
			"-0.012": 1.24376012427,
			"-0.011": 3.17453968149,
			"-0.01": 5.65199947262,
			"-0.009": 5.19417513712,
			"-0.008": 6.46450972978,
			"-0.007": 5.6457139373,
			"-0.006": 6.43267631588,
			"-0.005": 8.85019498217,
			"-0.004": 18.9947794763,
			"-0.003": 19.4888390805,
			"-0.002": 15.2647590875,
			"-0.001": 7.07684230202,
			"0.0": 6.9019368213,
			"0.001": 7.90563263204,
			"0.002": 8.81219005286,
			"0.003": 6.9707793119,
			"0.004": 5.27261427787,
			"0.005": 6.19541143617,
			"0.006": 4.70161617781,
			"0.007": 6.54137113254,
			"0.008": 5.70975191856,
			"0.009": 7.68692971136,
			"0.01": 8.02661644171,
			"0.011": 8.71783450434,
			"0.012": 3.51561476105,
			"0.013": 0.220130114076,
			"0.014": 0.0,
			"0.015": 0.0,
			"0.016": 0.0,
			"0.017": 0.0,
			"0.018": 0.0,
			"0.019": 0.0,
			"0.02": 0.0,
			"0.021": 0.0,
			"0.022": 0.0,
			"0.023": 0.0,
			"0.024": 0.0,
			"0.025": 0.0
		}
	}
}
