{
	 "smiles": "CS(=O)(=O)CC1=NC(CCl)=CS1", 
	 "Tm": 354.15, 
	 "num_atms": 20, 
	 "gaussian": { 
		 "optdone": 1, 
		 "sigma_profile": "yes", 
		 "theory": "DFT", 
		 "functional": "B3LYP", 
		 "basiset": "6-31G**", 
		 "properties": { 
			 "R2extent": 4117.3724, 
			 "electric_dipole_moment_norm": 5.39305104185, 
			 "electric_quadrupole_moment_norm": 25.5491150295, 
			 "total_energy": -1695.15497656, 
			 "HOMO_LUMO_gap": 0.20456, 
			 "cosmo_polarized_energy": -22.35, 
			 "cosmo_cavitation_energy": 29.28, 
			 "cosmo_dispersion_energy": -21.87, 
			 "cosmo_repulsion_energy": 1.69, 
			 "cosmo_total_nonelectrostatic_energy": 9.1, 
			 "SMD_solvation_energy": 2.62 
		},
		"coords": [
			{
				"x": -4.0683740128,
				"y": -0.8103674386,
				"z": -0.0632430929,
				"element": "C" 
			},
			{
				"x": -2.4785184312,
				"y": -0.2170111876,
				"z": -0.6877529698,
				"element": "S" 
			},
			{
				"x": -2.4563302875,
				"y": 1.2483766247,
				"z": -0.5483991069,
				"element": "O" 
			},
			{
				"x": -2.2288265638,
				"y": -0.8552497866,
				"z": -1.9846418701,
				"element": "O" 
			},
			{
				"x": -1.2953497457,
				"y": -0.889674013,
				"z": 0.5523198114,
				"element": "C" 
			},
			{
				"x": 0.1246733945,
				"y": -0.5662260855,
				"z": 0.2176505555,
				"element": "C" 
			},
			{
				"x": 1.0165850662,
				"y": -1.4896561717,
				"z": -0.0026866704,
				"element": "N" 
			},
			{
				"x": 2.2559353398,
				"y": -0.9416432499,
				"z": -0.2480425103,
				"element": "C" 
			},
			{
				"x": 3.4153750257,
				"y": -1.8396111858,
				"z": -0.5186241806,
				"element": "C" 
			},
			{
				"x": 3.4830321725,
				"y": -2.394706627,
				"z": -2.2622957964,
				"element": "Cl" 
			},
			{
				"x": 2.3030580065,
				"y": 0.4275756283,
				"z": -0.2083909003,
				"element": "C" 
			},
			{
				"x": 0.7423759111,
				"y": 1.0783780278,
				"z": 0.1354067963,
				"element": "S" 
			},
			{
				"x": -4.0829820586,
				"y": -1.901140524,
				"z": -0.0823551986,
				"element": "H" 
			},
			{
				"x": -4.2350473332,
				"y": -0.4233483123,
				"z": 0.9431330111,
				"element": "H" 
			},
			{
				"x": -4.8211131039,
				"y": -0.4128992145,
				"z": -0.7467905708,
				"element": "H" 
			},
			{
				"x": -1.4022154771,
				"y": -1.9761989656,
				"z": 0.5647718557,
				"element": "H" 
			},
			{
				"x": -1.6044095991,
				"y": -0.4663978727,
				"z": 1.5129045624,
				"element": "H" 
			},
			{
				"x": 4.3644373202,
				"y": -1.3405535228,
				"z": -0.3261732658,
				"element": "H" 
			},
			{
				"x": 3.344278092,
				"y": -2.7494554466,
				"z": 0.0765425575,
				"element": "H" 
			},
			{
				"x": 3.1530162843,
				"y": 1.0721093237,
				"z": -0.3845330168,
				"element": "H" 
			}
		],
		 "valence_orbital": [ 
			{
				"type": "occ",
				"energy": -0.29777,
				"method": "rhf"
			},
			{
				"type": "occ",
				"energy": -0.29519,
				"method": "rhf"
			},
			{
				"type": "occ",
				"energy": -0.29026,
				"method": "rhf"
			},
			{
				"type": "occ",
				"energy": -0.2883,
				"method": "rhf"
			},
			{
				"type": "occ",
				"energy": -0.25504,
				"method": "rhf"
			},
			{
				"type": "unocc",
				"energy": -0.05048,
				"method": "rhf"
			},
			{
				"type": "unocc",
				"energy": -0.00971,
				"method": "rhf"
			},
			{
				"type": "unocc",
				"energy": 0.00899,
				"method": "rhf"
			},
			{
				"type": "unocc",
				"energy": 0.055,
				"method": "rhf"
			},
			{
				"type": "unocc",
				"energy": 0.06146,
				"method": "rhf"
			}
		],
		"cosmo_sigma_profile": { 
			"-0.025": 0.0,
			"-0.024": 0.0,
			"-0.023": 0.0,
			"-0.022": 0.0,
			"-0.021": 0.0,
			"-0.02": 0.0,
			"-0.019": 0.0,
			"-0.018": 0.0,
			"-0.017": 0.0,
			"-0.016": 0.0,
			"-0.015": 0.0,
			"-0.014": 0.0,
			"-0.013": 0.0563244305593,
			"-0.012": 1.01848022396,
			"-0.011": 2.57263221785,
			"-0.01": 7.95109990223,
			"-0.009": 11.5233265216,
			"-0.008": 13.8087304369,
			"-0.007": 13.2998452522,
			"-0.006": 11.8775989165,
			"-0.005": 12.5795260905,
			"-0.004": 13.0129890829,
			"-0.003": 8.78245837,
			"-0.002": 5.86848372755,
			"-0.001": 10.3071819316,
			"0.0": 11.9746001745,
			"0.001": 15.5021514356,
			"0.002": 12.065843714,
			"0.003": 9.18670185317,
			"0.004": 8.33438411395,
			"0.005": 10.2391546186,
			"0.006": 14.7529939015,
			"0.007": 7.7333169083,
			"0.008": 4.76226719367,
			"0.009": 4.58011718758,
			"0.01": 6.54255861516,
			"0.011": 11.758106634,
			"0.012": 6.5423394334,
			"0.013": 0.811756579436,
			"0.014": 0.0809868408021,
			"0.015": 0.0,
			"0.016": 0.0,
			"0.017": 0.0,
			"0.018": 0.0,
			"0.019": 0.0,
			"0.02": 0.0,
			"0.021": 0.0,
			"0.022": 0.0,
			"0.023": 0.0,
			"0.024": 0.0,
			"0.025": 0.0
		}
	}
}
