{
	 "smiles": "CCCCCCCCCCCC(C)=O", 
	 "Tm": 303.65, 
	 "num_atms": 40, 
	 "gaussian": { 
		 "optdone": 1, 
		 "sigma_profile": "yes", 
		 "theory": "DFT", 
		 "functional": "B3LYP", 
		 "basiset": "6-31G**", 
		 "properties": { 
			 "R2extent": 6867.5554, 
			 "electric_dipole_moment_norm": 2.48285788156, 
			 "electric_quadrupole_moment_norm": 14.4982577702, 
			 "total_energy": -586.311239411, 
			 "HOMO_LUMO_gap": 0.23277, 
			 "cosmo_polarized_energy": -6.92, 
			 "cosmo_cavitation_energy": 40.31, 
			 "cosmo_dispersion_energy": -27.59, 
			 "cosmo_repulsion_energy": 2.27, 
			 "cosmo_total_nonelectrostatic_energy": 15.0, 
			 "SMD_solvation_energy": 6.34 
		},
		"coords": [
			{
				"x": 1.8406929802,
				"y": -0.5968979852,
				"z": 4.4790289025,
				"element": "C" 
			},
			{
				"x": 2.0249879154,
				"y": -2.108559036,
				"z": 4.2981008338,
				"element": "C" 
			},
			{
				"x": 1.1863435026,
				"y": -2.7218889473,
				"z": 3.1643687987,
				"element": "C" 
			},
			{
				"x": 1.5677936298,
				"y": -2.2496607077,
				"z": 1.7544167112,
				"element": "C" 
			},
			{
				"x": 0.7674939866,
				"y": -2.9570651682,
				"z": 0.6490537149,
				"element": "C" 
			},
			{
				"x": 1.1123759373,
				"y": -2.5230974636,
				"z": -0.7939521781,
				"element": "C" 
			},
			{
				"x": 0.2334194649,
				"y": -1.4105175413,
				"z": -1.3949817747,
				"element": "C" 
			},
			{
				"x": 0.2999798915,
				"y": -0.0498252278,
				"z": -0.6861381256,
				"element": "C" 
			},
			{
				"x": -0.5463049576,
				"y": 1.0514716671,
				"z": -1.3485960157,
				"element": "C" 
			},
			{
				"x": -0.0400986237,
				"y": 1.500613703,
				"z": -2.7276119671,
				"element": "C" 
			},
			{
				"x": -0.8448557912,
				"y": 2.6609952518,
				"z": -3.3214742116,
				"element": "C" 
			},
			{
				"x": -2.239168607,
				"y": 2.2779956747,
				"z": -3.8106297315,
				"element": "C" 
			},
			{
				"x": -3.1700602077,
				"y": 3.4259291737,
				"z": -4.1649143813,
				"element": "C" 
			},
			{
				"x": -2.5889872175,
				"y": 1.1178742874,
				"z": -3.9247993961,
				"element": "O" 
			},
			{
				"x": 2.1640333805,
				"y": -0.0366938909,
				"z": 3.5957057612,
				"element": "H" 
			},
			{
				"x": 2.4213377633,
				"y": -0.2279731646,
				"z": 5.3311253137,
				"element": "H" 
			},
			{
				"x": 0.788681454,
				"y": -0.3476105375,
				"z": 4.6618171086,
				"element": "H" 
			},
			{
				"x": 3.0868810185,
				"y": -2.3281607754,
				"z": 4.1202443995,
				"element": "H" 
			},
			{
				"x": 1.7659462763,
				"y": -2.6124521607,
				"z": 5.2382211785,
				"element": "H" 
			},
			{
				"x": 1.2815902672,
				"y": -3.8157589387,
				"z": 3.2070371705,
				"element": "H" 
			},
			{
				"x": 0.1232256316,
				"y": -2.504720797,
				"z": 3.3442258711,
				"element": "H" 
			},
			{
				"x": 2.6393938832,
				"y": -2.4355997696,
				"z": 1.5903153067,
				"element": "H" 
			},
			{
				"x": 1.4350406739,
				"y": -1.1648442888,
				"z": 1.6758370367,
				"element": "H" 
			},
			{
				"x": -0.3084370822,
				"y": -2.8146893486,
				"z": 0.8259423514,
				"element": "H" 
			},
			{
				"x": 0.9413114246,
				"y": -4.0368426575,
				"z": 0.7482825703,
				"element": "H" 
			},
			{
				"x": 1.0274856866,
				"y": -3.3956967584,
				"z": -1.4535216125,
				"element": "H" 
			},
			{
				"x": 2.1682050888,
				"y": -2.2196799411,
				"z": -0.839311936,
				"element": "H" 
			},
			{
				"x": 0.5201065683,
				"y": -1.2860393918,
				"z": -2.4467027966,
				"element": "H" 
			},
			{
				"x": -0.8118839756,
				"y": -1.7507326868,
				"z": -1.4087719536,
				"element": "H" 
			},
			{
				"x": 1.3472260619,
				"y": 0.2822843848,
				"z": -0.6277295461,
				"element": "H" 
			},
			{
				"x": -0.0405582663,
				"y": -0.1651583874,
				"z": 0.3500162651,
				"element": "H" 
			},
			{
				"x": -1.5829599451,
				"y": 0.7057693393,
				"z": -1.4431079479,
				"element": "H" 
			},
			{
				"x": -0.5676810596,
				"y": 1.9250831293,
				"z": -0.681623589,
				"element": "H" 
			},
			{
				"x": 1.0110483454,
				"y": 1.8063174188,
				"z": -2.6446869132,
				"element": "H" 
			},
			{
				"x": -0.0761466711,
				"y": 0.6635876372,
				"z": -3.4318784059,
				"element": "H" 
			},
			{
				"x": -0.32158988,
				"y": 3.0881833281,
				"z": -4.1905033595,
				"element": "H" 
			},
			{
				"x": -0.9358876459,
				"y": 3.4920023574,
				"z": -2.6075843716,
				"element": "H" 
			},
			{
				"x": -2.6686135107,
				"y": 4.1612273343,
				"z": -4.8038626364,
				"element": "H" 
			},
			{
				"x": -4.0603116901,
				"y": 3.0411223894,
				"z": -4.6644572021,
				"element": "H" 
			},
			{
				"x": -3.470555701,
				"y": 3.9515084963,
				"z": -3.2501992422,
				"element": "H" 
			}
		],
		 "valence_orbital": [ 
			{
				"type": "occ",
				"energy": -0.31385,
				"method": "rhf"
			},
			{
				"type": "occ",
				"energy": -0.30946,
				"method": "rhf"
			},
			{
				"type": "occ",
				"energy": -0.2964,
				"method": "rhf"
			},
			{
				"type": "occ",
				"energy": -0.29039,
				"method": "rhf"
			},
			{
				"type": "occ",
				"energy": -0.24298,
				"method": "rhf"
			},
			{
				"type": "unocc",
				"energy": -0.01021,
				"method": "rhf"
			},
			{
				"type": "unocc",
				"energy": 0.0855,
				"method": "rhf"
			},
			{
				"type": "unocc",
				"energy": 0.08737,
				"method": "rhf"
			},
			{
				"type": "unocc",
				"energy": 0.10084,
				"method": "rhf"
			},
			{
				"type": "unocc",
				"energy": 0.11143,
				"method": "rhf"
			}
		],
		"cosmo_sigma_profile": { 
			"-0.025": 0.0,
			"-0.024": 0.0,
			"-0.023": 0.0,
			"-0.022": 0.0,
			"-0.021": 0.0,
			"-0.02": 0.0,
			"-0.019": 0.0,
			"-0.018": 0.0,
			"-0.017": 0.0,
			"-0.016": 0.0,
			"-0.015": 0.0,
			"-0.014": 0.0,
			"-0.013": 0.0,
			"-0.012": 0.0,
			"-0.011": 0.0,
			"-0.01": 0.0,
			"-0.009": 0.0,
			"-0.008": 0.0,
			"-0.007": 0.037452097916,
			"-0.006": 5.48223017352,
			"-0.005": 10.3865125284,
			"-0.004": 10.9989936124,
			"-0.003": 12.8827432183,
			"-0.002": 36.5383459895,
			"-0.001": 66.7603427583,
			"0.0": 66.2496852165,
			"0.001": 52.7599065461,
			"0.002": 22.2164704632,
			"0.003": 3.06116348403,
			"0.004": 1.4321062652,
			"0.005": 1.97897513677,
			"0.006": 1.82134766633,
			"0.007": 2.03142504639,
			"0.008": 1.46739081151,
			"0.009": 2.19547143788,
			"0.01": 1.72829326232,
			"0.011": 2.50675334369,
			"0.012": 3.78502055228,
			"0.013": 2.635373717,
			"0.014": 0.384654315408,
			"0.015": 0.0,
			"0.016": 0.0,
			"0.017": 0.0,
			"0.018": 0.0,
			"0.019": 0.0,
			"0.02": 0.0,
			"0.021": 0.0,
			"0.022": 0.0,
			"0.023": 0.0,
			"0.024": 0.0,
			"0.025": 0.0
		}
	}
}
