{
	 "smiles": "CC1=CC=C(C=NC2=NC(N=N2)C(F)(F)F)C=C1", 
	 "Tm": 481.15, 
	 "num_atms": 27, 
	 "gaussian": { 
		 "optdone": 1, 
		 "sigma_profile": "yes", 
		 "theory": "DFT", 
		 "functional": "B3LYP", 
		 "basiset": "6-31G**", 
		 "properties": { 
			 "R2extent": 6081.8163, 
			 "electric_dipole_moment_norm": 4.32296426772, 
			 "electric_quadrupole_moment_norm": 11.5046808278, 
			 "total_energy": -943.056780997, 
			 "HOMO_LUMO_gap": 0.1702, 
			 "cosmo_polarized_energy": -11.68, 
			 "cosmo_cavitation_energy": 33.67, 
			 "cosmo_dispersion_energy": -23.21, 
			 "cosmo_repulsion_energy": 1.71, 
			 "cosmo_total_nonelectrostatic_energy": 12.17, 
			 "SMD_solvation_energy": -1.36 
		},
		"coords": [
			{
				"x": 3.3159781242,
				"y": -1.6251393701,
				"z": 2.1934792799,
				"element": "C" 
			},
			{
				"x": 1.9845747294,
				"y": -1.0780450526,
				"z": 1.7430597174,
				"element": "C" 
			},
			{
				"x": 1.7937366671,
				"y": -0.6646195674,
				"z": 0.413724237,
				"element": "C" 
			},
			{
				"x": 0.5688374235,
				"y": -0.1804362564,
				"z": -0.0262935617,
				"element": "C" 
			},
			{
				"x": -0.5193262346,
				"y": -0.092549248,
				"z": 0.8636337941,
				"element": "C" 
			},
			{
				"x": -1.8544004163,
				"y": 0.3957490122,
				"z": 0.4991819432,
				"element": "C" 
			},
			{
				"x": -2.3552845268,
				"y": 0.7160940687,
				"z": -0.6334438829,
				"element": "N" 
			},
			{
				"x": -1.8173178834,
				"y": 0.5896558755,
				"z": -1.8743451338,
				"element": "C" 
			},
			{
				"x": -1.3766359067,
				"y": 1.5105999929,
				"z": -2.6560932765,
				"element": "N" 
			},
			{
				"x": -1.1224888475,
				"y": 0.83030669,
				"z": -3.890082129,
				"element": "C" 
			},
			{
				"x": -1.4695320037,
				"y": -0.6109435507,
				"z": -3.6906508443,
				"element": "N" 
			},
			{
				"x": -1.8889788989,
				"y": -0.7487295782,
				"z": -2.5268446779,
				"element": "N" 
			},
			{
				"x": 0.3347497539,
				"y": 0.946996866,
				"z": -4.3454271069,
				"element": "C" 
			},
			{
				"x": 0.6698077769,
				"y": 2.2310627144,
				"z": -4.5420677047,
				"element": "F" 
			},
			{
				"x": 0.5239211661,
				"y": 0.28205359,
				"z": -5.4971014259,
				"element": "F" 
			},
			{
				"x": 1.1784534466,
				"y": 0.4320016577,
				"z": -3.4244366062,
				"element": "F" 
			},
			{
				"x": -0.3258010879,
				"y": -0.4896603474,
				"z": 2.1982333917,
				"element": "C" 
			},
			{
				"x": 0.9033466357,
				"y": -0.9783300746,
				"z": 2.6285529755,
				"element": "C" 
			},
			{
				"x": 3.4621156643,
				"y": -2.6478827085,
				"z": 1.8248187515,
				"element": "H" 
			},
			{
				"x": 4.144986959,
				"y": -1.0232757818,
				"z": 1.8076945706,
				"element": "H" 
			},
			{
				"x": 3.3915205437,
				"y": -1.652659362,
				"z": 3.2836746103,
				"element": "H" 
			},
			{
				"x": 2.6233833421,
				"y": -0.7192644896,
				"z": -0.2860761624,
				"element": "H" 
			},
			{
				"x": 0.4731883645,
				"y": 0.1440513075,
				"z": -1.0543419624,
				"element": "H" 
			},
			{
				"x": -2.5345246102,
				"y": 0.5086113221,
				"z": 1.3489459621,
				"element": "H" 
			},
			{
				"x": -1.7470786204,
				"y": 1.2088224705,
				"z": -4.7105370914,
				"element": "H" 
			},
			{
				"x": -1.1524686476,
				"y": -0.4166028863,
				"z": 2.9004368317,
				"element": "H" 
			},
			{
				"x": 1.0284370869,
				"y": -1.2833672943,
				"z": 3.663905501,
				"element": "H" 
			}
		],
		 "valence_orbital": [ 
			{
				"type": "occ",
				"energy": -0.30292,
				"method": "rhf"
			},
			{
				"type": "occ",
				"energy": -0.2778,
				"method": "rhf"
			},
			{
				"type": "occ",
				"energy": -0.27238,
				"method": "rhf"
			},
			{
				"type": "occ",
				"energy": -0.26254,
				"method": "rhf"
			},
			{
				"type": "occ",
				"energy": -0.25531,
				"method": "rhf"
			},
			{
				"type": "unocc",
				"energy": -0.08511,
				"method": "rhf"
			},
			{
				"type": "unocc",
				"energy": -0.07292,
				"method": "rhf"
			},
			{
				"type": "unocc",
				"energy": -0.02162,
				"method": "rhf"
			},
			{
				"type": "unocc",
				"energy": 0.02092,
				"method": "rhf"
			},
			{
				"type": "unocc",
				"energy": 0.03313,
				"method": "rhf"
			}
		],
		"cosmo_sigma_profile": { 
			"-0.025": 0.0,
			"-0.024": 0.0,
			"-0.023": 0.0,
			"-0.022": 0.0,
			"-0.021": 0.0,
			"-0.02": 0.0,
			"-0.019": 0.0,
			"-0.018": 0.0,
			"-0.017": 0.0,
			"-0.016": 0.0,
			"-0.015": 0.0,
			"-0.014": 0.0,
			"-0.013": 0.0,
			"-0.012": 0.999033513498,
			"-0.011": 2.34933453487,
			"-0.01": 2.23861975057,
			"-0.009": 3.92789559964,
			"-0.008": 5.52637799501,
			"-0.007": 5.81504289935,
			"-0.006": 8.93501939194,
			"-0.005": 15.5587276577,
			"-0.004": 16.1420657591,
			"-0.003": 16.2745244804,
			"-0.002": 20.1271767997,
			"-0.001": 23.8547237332,
			"0.0": 21.9517004272,
			"0.001": 24.0721395567,
			"0.002": 36.3579855999,
			"0.003": 21.8537591732,
			"0.004": 9.54862112433,
			"0.005": 5.29434013009,
			"0.006": 4.90788735161,
			"0.007": 5.63134540951,
			"0.008": 4.7028527746,
			"0.009": 4.82713655524,
			"0.01": 3.92230034999,
			"0.011": 3.1586160913,
			"0.012": 1.71514153819,
			"0.013": 0.895271908837,
			"0.014": 0.3006988733,
			"0.015": 0.0,
			"0.016": 0.0,
			"0.017": 0.0,
			"0.018": 0.0,
			"0.019": 0.0,
			"0.02": 0.0,
			"0.021": 0.0,
			"0.022": 0.0,
			"0.023": 0.0,
			"0.024": 0.0,
			"0.025": 0.0
		}
	}
}
