{
	 "smiles": "CSC1=CC=C(C=C1)C1=NN=NN1", 
	 "Tm": 488.15, 
	 "num_atms": 21, 
	 "gaussian": { 
		 "optdone": 1, 
		 "sigma_profile": "yes", 
		 "theory": "DFT", 
		 "functional": "B3LYP", 
		 "basiset": "6-31G**", 
		 "properties": { 
			 "R2extent": 4563.364, 
			 "electric_dipole_moment_norm": 7.1546118574, 
			 "electric_quadrupole_moment_norm": 21.6111088052, 
			 "total_energy": -926.815358743, 
			 "HOMO_LUMO_gap": 0.1688, 
			 "cosmo_polarized_energy": -20.19, 
			 "cosmo_cavitation_energy": 27.34, 
			 "cosmo_dispersion_energy": -20.85, 
			 "cosmo_repulsion_energy": 1.57, 
			 "cosmo_total_nonelectrostatic_energy": 8.06, 
			 "SMD_solvation_energy": 2.81 
		},
		"coords": [
			{
				"x": 1.7075500235,
				"y": -3.0875363847,
				"z": -1.5953813837,
				"element": "C" 
			},
			{
				"x": 2.949323001,
				"y": -1.8121912818,
				"z": -1.2102577216,
				"element": "S" 
			},
			{
				"x": 2.0355075222,
				"y": -0.5971863668,
				"z": -0.2928145173,
				"element": "C" 
			},
			{
				"x": 2.7535027797,
				"y": 0.5310787505,
				"z": 0.1474067493,
				"element": "C" 
			},
			{
				"x": 2.1254503603,
				"y": 1.5323479633,
				"z": 0.8706484199,
				"element": "C" 
			},
			{
				"x": 0.7561034803,
				"y": 1.4413283362,
				"z": 1.1797644217,
				"element": "C" 
			},
			{
				"x": 0.0438861329,
				"y": 0.3180017295,
				"z": 0.7408981985,
				"element": "C" 
			},
			{
				"x": 0.6708995632,
				"y": -0.6914823846,
				"z": 0.0133776267,
				"element": "C" 
			},
			{
				"x": 0.131731652,
				"y": 2.5181302263,
				"z": 1.9440925354,
				"element": "C" 
			},
			{
				"x": 0.7369964425,
				"y": 3.6091509832,
				"z": 2.397176977,
				"element": "N" 
			},
			{
				"x": -0.2061063052,
				"y": 4.3354781465,
				"z": 3.0480430542,
				"element": "N" 
			},
			{
				"x": -1.3568889243,
				"y": 3.7481804504,
				"z": 3.0182189615,
				"element": "N" 
			},
			{
				"x": -1.1656938767,
				"y": 2.5991719751,
				"z": 2.3260764983,
				"element": "N" 
			},
			{
				"x": 2.2424036139,
				"y": -3.8521860777,
				"z": -2.1622042799,
				"element": "H" 
			},
			{
				"x": 1.3020159444,
				"y": -3.540576733,
				"z": -0.6877957313,
				"element": "H" 
			},
			{
				"x": 0.9010178799,
				"y": -2.688929558,
				"z": -2.2150935143,
				"element": "H" 
			},
			{
				"x": 3.8115498256,
				"y": 0.6188262109,
				"z": -0.0818523549,
				"element": "H" 
			},
			{
				"x": 2.6810238569,
				"y": 2.4002898712,
				"z": 1.2084611906,
				"element": "H" 
			},
			{
				"x": -1.0154251809,
				"y": 0.2115554233,
				"z": 0.9603901221,
				"element": "H" 
			},
			{
				"x": 0.0859502036,
				"y": -1.544797407,
				"z": -0.3083004594,
				"element": "H" 
			},
			{
				"x": -1.9404979946,
				"y": 1.9711461272,
				"z": 2.1754452074,
				"element": "H" 
			}
		],
		 "valence_orbital": [ 
			{
				"type": "occ",
				"energy": -0.2955,
				"method": "rhf"
			},
			{
				"type": "occ",
				"energy": -0.28296,
				"method": "rhf"
			},
			{
				"type": "occ",
				"energy": -0.2807,
				"method": "rhf"
			},
			{
				"type": "occ",
				"energy": -0.27361,
				"method": "rhf"
			},
			{
				"type": "occ",
				"energy": -0.22332,
				"method": "rhf"
			},
			{
				"type": "unocc",
				"energy": -0.05452,
				"method": "rhf"
			},
			{
				"type": "unocc",
				"energy": -0.02429,
				"method": "rhf"
			},
			{
				"type": "unocc",
				"energy": 0.00266,
				"method": "rhf"
			},
			{
				"type": "unocc",
				"energy": 0.02054,
				"method": "rhf"
			},
			{
				"type": "unocc",
				"energy": 0.04369,
				"method": "rhf"
			}
		],
		"cosmo_sigma_profile": { 
			"-0.025": 0.0,
			"-0.024": 0.0,
			"-0.023": 0.0,
			"-0.022": 0.0,
			"-0.021": 0.0,
			"-0.02": 0.0,
			"-0.019": 0.697537104563,
			"-0.018": 1.81604520372,
			"-0.017": 1.77716513859,
			"-0.016": 1.36184171937,
			"-0.015": 1.23612316991,
			"-0.014": 1.1893885534,
			"-0.013": 1.12287196578,
			"-0.012": 1.01907349814,
			"-0.011": 1.46797218447,
			"-0.01": 1.10040039528,
			"-0.009": 0.93969745653,
			"-0.008": 2.20995118822,
			"-0.007": 8.45497406066,
			"-0.006": 15.4542980215,
			"-0.005": 14.2446651396,
			"-0.004": 12.2525280892,
			"-0.003": 15.1204583535,
			"-0.002": 12.9965922761,
			"-0.001": 11.2841263011,
			"0.0": 11.6701259715,
			"0.001": 10.4918225116,
			"0.002": 12.9982967745,
			"0.003": 20.3181746709,
			"0.004": 12.2993815812,
			"0.005": 5.683406426,
			"0.006": 6.47614628142,
			"0.007": 6.20740950119,
			"0.008": 7.22774356074,
			"0.009": 5.00694107264,
			"0.01": 5.13676723664,
			"0.011": 4.39735656791,
			"0.012": 3.73614049828,
			"0.013": 2.44458209993,
			"0.014": 1.68332157369,
			"0.015": 0.110213840187,
			"0.016": 0.0,
			"0.017": 0.0,
			"0.018": 0.0,
			"0.019": 0.0,
			"0.02": 0.0,
			"0.021": 0.0,
			"0.022": 0.0,
			"0.023": 0.0,
			"0.024": 0.0,
			"0.025": 0.0
		}
	}
}
