{
	 "smiles": "CN1CCCC1C(O)(C1=CC=CC=C1)C1=CC=CC=C1", 
	 "Tm": 340.65, 
	 "num_atms": 41, 
	 "gaussian": { 
		 "optdone": 1, 
		 "sigma_profile": "yes", 
		 "theory": "DFT", 
		 "functional": "B3LYP", 
		 "basiset": "6-31G**", 
		 "properties": { 
			 "R2extent": 5297.1128, 
			 "electric_dipole_moment_norm": 2.16971559657, 
			 "electric_quadrupole_moment_norm": 2.04253464842, 
			 "total_energy": -828.527098556, 
			 "HOMO_LUMO_gap": 0.18911, 
			 "cosmo_polarized_energy": -11.15, 
			 "cosmo_cavitation_energy": 40.39, 
			 "cosmo_dispersion_energy": -27.65, 
			 "cosmo_repulsion_energy": 2.12, 
			 "cosmo_total_nonelectrostatic_energy": 14.87, 
			 "SMD_solvation_energy": 5.74 
		},
		"coords": [
			{
				"x": 0.2451243743,
				"y": 3.0547052359,
				"z": 0.9637585418,
				"element": "C" 
			},
			{
				"x": 0.7297389554,
				"y": 2.1906150256,
				"z": -0.1060684682,
				"element": "N" 
			},
			{
				"x": 1.8525457008,
				"y": 2.749172393,
				"z": -0.8727242754,
				"element": "C" 
			},
			{
				"x": 3.1179626441,
				"y": 2.140030474,
				"z": -0.249780858,
				"element": "C" 
			},
			{
				"x": 2.6560571374,
				"y": 0.7052691641,
				"z": 0.0513364303,
				"element": "C" 
			},
			{
				"x": 1.1295424804,
				"y": 0.8417099068,
				"z": 0.3471753038,
				"element": "C" 
			},
			{
				"x": 0.250835072,
				"y": -0.2567751008,
				"z": -0.348314121,
				"element": "C" 
			},
			{
				"x": 0.3941671996,
				"y": -0.1316633487,
				"z": -1.7690088599,
				"element": "O" 
			},
			{
				"x": 0.6369416665,
				"y": -1.6864670135,
				"z": 0.0725514284,
				"element": "C" 
			},
			{
				"x": 0.3479065433,
				"y": -2.7434205924,
				"z": -0.8055588753,
				"element": "C" 
			},
			{
				"x": 0.6555202897,
				"y": -4.0614102223,
				"z": -0.4717768747,
				"element": "C" 
			},
			{
				"x": 1.2578924744,
				"y": -4.3547479834,
				"z": 0.7533904025,
				"element": "C" 
			},
			{
				"x": 1.5447149564,
				"y": -3.3166168246,
				"z": 1.6388177817,
				"element": "C" 
			},
			{
				"x": 1.2366684893,
				"y": -1.9959182847,
				"z": 1.3019926937,
				"element": "C" 
			},
			{
				"x": -1.2293653762,
				"y": 0.0151017545,
				"z": -0.0417706128,
				"element": "C" 
			},
			{
				"x": -2.0299663594,
				"y": 0.6959686814,
				"z": -0.9675046191,
				"element": "C" 
			},
			{
				"x": -3.3644286774,
				"y": 0.9815185421,
				"z": -0.6755361313,
				"element": "C" 
			},
			{
				"x": -3.9190429219,
				"y": 0.600854897,
				"z": 0.5474741619,
				"element": "C" 
			},
			{
				"x": -3.126516436,
				"y": -0.0725159612,
				"z": 1.4778450997,
				"element": "C" 
			},
			{
				"x": -1.7936780975,
				"y": -0.3650312075,
				"z": 1.1830223782,
				"element": "C" 
			},
			{
				"x": 0.9955839968,
				"y": 3.2817581557,
				"z": 1.7460352503,
				"element": "H" 
			},
			{
				"x": -0.0975484016,
				"y": 4.0040311293,
				"z": 0.5401645245,
				"element": "H" 
			},
			{
				"x": -0.6148686359,
				"y": 2.5846551383,
				"z": 1.4486460852,
				"element": "H" 
			},
			{
				"x": 1.7637074289,
				"y": 2.4386142372,
				"z": -1.9222165422,
				"element": "H" 
			},
			{
				"x": 1.829925388,
				"y": 3.8426520383,
				"z": -0.8467439776,
				"element": "H" 
			},
			{
				"x": 3.3721849092,
				"y": 2.6640518688,
				"z": 0.6792657342,
				"element": "H" 
			},
			{
				"x": 3.9946509381,
				"y": 2.1811992132,
				"z": -0.9044052472,
				"element": "H" 
			},
			{
				"x": 2.8326121387,
				"y": 0.067266037,
				"z": -0.8229721479,
				"element": "H" 
			},
			{
				"x": 3.1957961379,
				"y": 0.2442566258,
				"z": 0.8818955649,
				"element": "H" 
			},
			{
				"x": 0.9570571476,
				"y": 0.7690874736,
				"z": 1.4274455682,
				"element": "H" 
			},
			{
				"x": 1.2593210595,
				"y": -0.4896981925,
				"z": -2.0051202123,
				"element": "H" 
			},
			{
				"x": -0.1267565934,
				"y": -2.51805719,
				"z": -1.7548067563,
				"element": "H" 
			},
			{
				"x": 0.420937504,
				"y": -4.8611055928,
				"z": -1.1689831097,
				"element": "H" 
			},
			{
				"x": 1.4993247575,
				"y": -5.3809420811,
				"z": 1.0150515935,
				"element": "H" 
			},
			{
				"x": 2.0130890935,
				"y": -3.5296418295,
				"z": 2.5957771283,
				"element": "H" 
			},
			{
				"x": 1.4737798062,
				"y": -1.2099420566,
				"z": 2.0111249383,
				"element": "H" 
			},
			{
				"x": -1.5978146919,
				"y": 0.9989142268,
				"z": -1.9122903662,
				"element": "H" 
			},
			{
				"x": -3.9717840955,
				"y": 1.5069296342,
				"z": -1.4077718558,
				"element": "H" 
			},
			{
				"x": -4.9583377914,
				"y": 0.8239028792,
				"z": 0.7723375489,
				"element": "H" 
			},
			{
				"x": -3.5456312372,
				"y": -0.3808605416,
				"z": 2.4317988795,
				"element": "H" 
			},
			{
				"x": -1.1970489743,
				"y": -0.9089507087,
				"z": 1.9091468727,
				"element": "H" 
			}
		],
		 "valence_orbital": [ 
			{
				"type": "occ",
				"energy": -0.25038,
				"method": "rhf"
			},
			{
				"type": "occ",
				"energy": -0.24486,
				"method": "rhf"
			},
			{
				"type": "occ",
				"energy": -0.23596,
				"method": "rhf"
			},
			{
				"type": "occ",
				"energy": -0.22891,
				"method": "rhf"
			},
			{
				"type": "occ",
				"energy": -0.19704,
				"method": "rhf"
			},
			{
				"type": "unocc",
				"energy": -0.00793,
				"method": "rhf"
			},
			{
				"type": "unocc",
				"energy": -0.0038,
				"method": "rhf"
			},
			{
				"type": "unocc",
				"energy": 0.01004,
				"method": "rhf"
			},
			{
				"type": "unocc",
				"energy": 0.01574,
				"method": "rhf"
			},
			{
				"type": "unocc",
				"energy": 0.06806,
				"method": "rhf"
			}
		],
		"cosmo_sigma_profile": { 
			"-0.025": 0.0,
			"-0.024": 0.0,
			"-0.023": 0.0,
			"-0.022": 0.0,
			"-0.021": 0.0,
			"-0.02": 0.0,
			"-0.019": 0.0,
			"-0.018": 0.0,
			"-0.017": 0.0,
			"-0.016": 0.0,
			"-0.015": 0.115333955227,
			"-0.014": 0.591487030502,
			"-0.013": 0.926724462557,
			"-0.012": 0.777566097805,
			"-0.011": 0.603313813159,
			"-0.01": 0.75175273166,
			"-0.009": 1.17676388887,
			"-0.008": 0.846026071371,
			"-0.007": 1.19343607299,
			"-0.006": 7.26925322895,
			"-0.005": 17.3399106595,
			"-0.004": 23.7263237118,
			"-0.003": 33.894634488,
			"-0.002": 36.4410755854,
			"-0.001": 37.9920362414,
			"0.0": 32.1713211744,
			"0.001": 22.296630056,
			"0.002": 16.0401241176,
			"0.003": 15.989241634,
			"0.004": 16.3457058073,
			"0.005": 19.8183741642,
			"0.006": 15.6013834784,
			"0.007": 3.99033252541,
			"0.008": 2.75273956446,
			"0.009": 2.14234250183,
			"0.01": 2.04334171161,
			"0.011": 2.2269877499,
			"0.012": 0.8635234072,
			"0.013": 0.884838117703,
			"0.014": 0.663061382708,
			"0.015": 0.36924006941,
			"0.016": 0.0100988975551,
			"0.017": 0.0,
			"0.018": 0.0,
			"0.019": 0.0,
			"0.02": 0.0,
			"0.021": 0.0,
			"0.022": 0.0,
			"0.023": 0.0,
			"0.024": 0.0,
			"0.025": 0.0
		}
	}
}
