{
	 "smiles": "CC1(C)CC(N)CC(C)(CN)C1", 
	 "Tm": 283.15, 
	 "num_atms": 34, 
	 "gaussian": { 
		 "optdone": 1, 
		 "sigma_profile": "yes", 
		 "theory": "DFT", 
		 "functional": "B3LYP", 
		 "basiset": "6-31G**", 
		 "properties": { 
			 "R2extent": 2874.5455, 
			 "electric_dipole_moment_norm": 1.94582637715, 
			 "electric_quadrupole_moment_norm": 8.34716020752, 
			 "total_energy": -503.832177874, 
			 "HOMO_LUMO_gap": 0.28503, 
			 "cosmo_polarized_energy": -8.6, 
			 "cosmo_cavitation_energy": 30.53, 
			 "cosmo_dispersion_energy": -21.99, 
			 "cosmo_repulsion_energy": 1.73, 
			 "cosmo_total_nonelectrostatic_energy": 10.27, 
			 "SMD_solvation_energy": 2.97 
		},
		"coords": [
			{
				"x": -0.5481503941,
				"y": 1.2051332692,
				"z": -3.3128336764,
				"element": "C" 
			},
			{
				"x": -0.1975764621,
				"y": 2.0088578016,
				"z": -2.0411671265,
				"element": "C" 
			},
			{
				"x": -0.8261425543,
				"y": 3.4082644747,
				"z": -2.2226134911,
				"element": "C" 
			},
			{
				"x": 1.331938049,
				"y": 2.1820754238,
				"z": -1.8613359252,
				"element": "C" 
			},
			{
				"x": 2.117820237,
				"y": 0.9635247756,
				"z": -1.315092316,
				"element": "C" 
			},
			{
				"x": 2.4482267608,
				"y": -0.1069726732,
				"z": -2.2727927508,
				"element": "N" 
			},
			{
				"x": 1.4399187595,
				"y": 0.4028447709,
				"z": -0.0507367506,
				"element": "C" 
			},
			{
				"x": -0.0882435921,
				"y": 0.1565607942,
				"z": -0.1226993997,
				"element": "C" 
			},
			{
				"x": -0.4473383028,
				"y": -1.1607395024,
				"z": -0.8423740685,
				"element": "C" 
			},
			{
				"x": -0.6135308715,
				"y": -0.0266073692,
				"z": 1.3346328346,
				"element": "C" 
			},
			{
				"x": -0.4080194514,
				"y": 1.1434779217,
				"z": 2.1967400591,
				"element": "N" 
			},
			{
				"x": -0.7910981807,
				"y": 1.3920310862,
				"z": -0.7439749252,
				"element": "C" 
			},
			{
				"x": -1.6334757329,
				"y": 1.0802246372,
				"z": -3.4040677837,
				"element": "H" 
			},
			{
				"x": -0.1006516776,
				"y": 0.2117946928,
				"z": -3.3432301154,
				"element": "H" 
			},
			{
				"x": -0.2014902027,
				"y": 1.7399973094,
				"z": -4.204924431,
				"element": "H" 
			},
			{
				"x": -0.6276789348,
				"y": 4.0501438612,
				"z": -1.3572058603,
				"element": "H" 
			},
			{
				"x": -0.4221415863,
				"y": 3.908726551,
				"z": -3.1103622836,
				"element": "H" 
			},
			{
				"x": -1.9135482542,
				"y": 3.3388919529,
				"z": -2.3468085852,
				"element": "H" 
			},
			{
				"x": 1.7808388132,
				"y": 2.5132624624,
				"z": -2.8086797877,
				"element": "H" 
			},
			{
				"x": 1.4881861824,
				"y": 3.0054833272,
				"z": -1.1496679529,
				"element": "H" 
			},
			{
				"x": 3.0933986497,
				"y": 1.3544364254,
				"z": -0.994232943,
				"element": "H" 
			},
			{
				"x": 1.6129862797,
				"y": -0.5766561267,
				"z": -2.6047124971,
				"element": "H" 
			},
			{
				"x": 2.8910414511,
				"y": 0.2970956876,
				"z": -3.0956630107,
				"element": "H" 
			},
			{
				"x": 1.5964722229,
				"y": 1.1241038516,
				"z": 0.7592803641,
				"element": "H" 
			},
			{
				"x": 1.9529207437,
				"y": -0.5231605109,
				"z": 0.2367907984,
				"element": "H" 
			},
			{
				"x": -0.1427783309,
				"y": -1.1894174033,
				"z": -1.8887914656,
				"element": "H" 
			},
			{
				"x": 0.0309774105,
				"y": -2.0122832605,
				"z": -0.3445737255,
				"element": "H" 
			},
			{
				"x": -1.5310226602,
				"y": -1.329231259,
				"z": -0.8233813109,
				"element": "H" 
			},
			{
				"x": -1.6711621303,
				"y": -0.3367450199,
				"z": 1.281738628,
				"element": "H" 
			},
			{
				"x": -0.0672347552,
				"y": -0.8685881364,
				"z": 1.7771166271,
				"element": "H" 
			},
			{
				"x": -0.3220136085,
				"y": 0.8554730063,
				"z": 3.1661383209,
				"element": "H" 
			},
			{
				"x": -1.2066375742,
				"y": 1.768729284,
				"z": 2.1530999618,
				"element": "H" 
			},
			{
				"x": -1.856538798,
				"y": 1.168497175,
				"z": -0.9020430219,
				"element": "H" 
			},
			{
				"x": -0.7484515046,
				"y": 2.1861707194,
				"z": 0.0118276103,
				"element": "H" 
			}
		],
		 "valence_orbital": [ 
			{
				"type": "occ",
				"energy": -0.30099,
				"method": "rhf"
			},
			{
				"type": "occ",
				"energy": -0.28661,
				"method": "rhf"
			},
			{
				"type": "occ",
				"energy": -0.28298,
				"method": "rhf"
			},
			{
				"type": "occ",
				"energy": -0.23175,
				"method": "rhf"
			},
			{
				"type": "occ",
				"energy": -0.21839,
				"method": "rhf"
			},
			{
				"type": "unocc",
				"energy": 0.06664,
				"method": "rhf"
			},
			{
				"type": "unocc",
				"energy": 0.08008,
				"method": "rhf"
			},
			{
				"type": "unocc",
				"energy": 0.10179,
				"method": "rhf"
			},
			{
				"type": "unocc",
				"energy": 0.11042,
				"method": "rhf"
			},
			{
				"type": "unocc",
				"energy": 0.11531,
				"method": "rhf"
			}
		],
		"cosmo_sigma_profile": { 
			"-0.025": 0.0,
			"-0.024": 0.0,
			"-0.023": 0.0,
			"-0.022": 0.0,
			"-0.021": 0.0,
			"-0.02": 0.0,
			"-0.019": 0.0,
			"-0.018": 0.0,
			"-0.017": 0.0,
			"-0.016": 0.0,
			"-0.015": 0.0,
			"-0.014": 0.0,
			"-0.013": 0.0,
			"-0.012": 0.0,
			"-0.011": 0.0,
			"-0.01": 0.719959223601,
			"-0.009": 4.0693917275,
			"-0.008": 4.5085741125,
			"-0.007": 5.08395297836,
			"-0.006": 5.09397337597,
			"-0.005": 5.58027806504,
			"-0.004": 5.92899098326,
			"-0.003": 8.46192907116,
			"-0.002": 31.9432495799,
			"-0.001": 44.8214838412,
			"0.0": 33.3956606902,
			"0.001": 29.6049004572,
			"0.002": 24.1964171176,
			"0.003": 4.6400839289,
			"0.004": 2.59321463082,
			"0.005": 1.50425181859,
			"0.006": 2.12402920247,
			"0.007": 2.0116823097,
			"0.008": 2.55416440379,
			"0.009": 2.20171672865,
			"0.01": 1.33167816627,
			"0.011": 0.898760490546,
			"0.012": 1.49024537908,
			"0.013": 1.07703950983,
			"0.014": 1.44538320229,
			"0.015": 1.30805313792,
			"0.016": 1.30268421602,
			"0.017": 0.567989366713,
			"0.018": 0.313906362286,
			"0.019": 0.793946400931,
			"0.02": 0.502327159636,
			"0.021": 0.0,
			"0.022": 0.0,
			"0.023": 0.0,
			"0.024": 0.0,
			"0.025": 0.0
		}
	}
}
