{
	 "smiles": "O=CC1=C(OCC(=O)N2CCCC2)C=CC=C1", 
	 "Tm": 386.15, 
	 "num_atms": 32, 
	 "gaussian": { 
		 "optdone": 1, 
		 "sigma_profile": "yes", 
		 "theory": "DFT", 
		 "functional": "B3LYP", 
		 "basiset": "6-31G**", 
		 "properties": { 
			 "R2extent": 5227.4472, 
			 "electric_dipole_moment_norm": 3.90148129048, 
			 "electric_quadrupole_moment_norm": 27.5283275887, 
			 "total_energy": -784.838283618, 
			 "HOMO_LUMO_gap": 0.17697, 
			 "cosmo_polarized_energy": -16.08, 
			 "cosmo_cavitation_energy": 35.45, 
			 "cosmo_dispersion_energy": -24.85, 
			 "cosmo_repulsion_energy": 1.94, 
			 "cosmo_total_nonelectrostatic_energy": 12.54, 
			 "SMD_solvation_energy": 6.66 
		},
		"coords": [
			{
				"x": 1.3688799988,
				"y": 0.6564926761,
				"z": -3.9623935172,
				"element": "O" 
			},
			{
				"x": 1.0375172398,
				"y": 0.6391567856,
				"z": -2.7886325896,
				"element": "C" 
			},
			{
				"x": 1.8317934842,
				"y": -0.0140794627,
				"z": -1.7238005994,
				"element": "C" 
			},
			{
				"x": 1.3890149046,
				"y": -0.0502131423,
				"z": -0.3807412731,
				"element": "C" 
			},
			{
				"x": 0.1783720016,
				"y": 0.5240306576,
				"z": -0.1249687103,
				"element": "O" 
			},
			{
				"x": -0.3116718134,
				"y": 0.5355060553,
				"z": 1.2144891837,
				"element": "C" 
			},
			{
				"x": -1.6727261206,
				"y": 1.2349461897,
				"z": 1.266096597,
				"element": "C" 
			},
			{
				"x": -1.8706658447,
				"y": 2.1157451365,
				"z": 2.0996386424,
				"element": "O" 
			},
			{
				"x": -2.6344380657,
				"y": 0.8174468039,
				"z": 0.4033988389,
				"element": "N" 
			},
			{
				"x": -2.5833132646,
				"y": -0.3080998405,
				"z": -0.5444083096,
				"element": "C" 
			},
			{
				"x": -4.0667845895,
				"y": -0.6080939087,
				"z": -0.8050313927,
				"element": "C" 
			},
			{
				"x": -4.7231230056,
				"y": 0.7793815591,
				"z": -0.7047278402,
				"element": "C" 
			},
			{
				"x": -3.9644200954,
				"y": 1.4496949742,
				"z": 0.4495598661,
				"element": "C" 
			},
			{
				"x": 2.1844581283,
				"y": -0.6584273958,
				"z": 0.5984076214,
				"element": "C" 
			},
			{
				"x": 3.4043777163,
				"y": -1.2335093251,
				"z": 0.2378146636,
				"element": "C" 
			},
			{
				"x": 3.8491359564,
				"y": -1.2133716644,
				"z": -1.0865526847,
				"element": "C" 
			},
			{
				"x": 3.059726233,
				"y": -0.6031274361,
				"z": -2.0545572317,
				"element": "C" 
			},
			{
				"x": 0.104111124,
				"y": 1.1313991398,
				"z": -2.4568698454,
				"element": "H" 
			},
			{
				"x": -0.402214103,
				"y": -0.4927368194,
				"z": 1.5960825617,
				"element": "H" 
			},
			{
				"x": 0.3541612283,
				"y": 1.1005940179,
				"z": 1.8728663217,
				"element": "H" 
			},
			{
				"x": -2.0452820146,
				"y": -1.1616052567,
				"z": -0.1214804554,
				"element": "H" 
			},
			{
				"x": -2.0703900357,
				"y": -0.0174262891,
				"z": -1.4686505135,
				"element": "H" 
			},
			{
				"x": -4.4582133254,
				"y": -1.2686248414,
				"z": -0.0228180581,
				"element": "H" 
			},
			{
				"x": -4.2267479894,
				"y": -1.0967655314,
				"z": -1.7697191902,
				"element": "H" 
			},
			{
				"x": -4.5651420429,
				"y": 1.3367608571,
				"z": -1.6349465,
				"element": "H" 
			},
			{
				"x": -5.7998267298,
				"y": 0.7343860049,
				"z": -0.5224674112,
				"element": "H" 
			},
			{
				"x": -3.8729738782,
				"y": 2.5343710496,
				"z": 0.3467275827,
				"element": "H" 
			},
			{
				"x": -4.4330089094,
				"y": 1.2556398572,
				"z": 1.4224525457,
				"element": "H" 
			},
			{
				"x": 1.867486363,
				"y": -0.6859240371,
				"z": 1.6336408648,
				"element": "H" 
			},
			{
				"x": 4.0115609898,
				"y": -1.7014076845,
				"z": 1.0076793803,
				"element": "H" 
			},
			{
				"x": 4.7993889187,
				"y": -1.664428999,
				"z": -1.3533549616,
				"element": "H" 
			},
			{
				"x": 3.366457541,
				"y": -0.5581101301,
				"z": -3.0949335863,
				"element": "H" 
			}
		],
		 "valence_orbital": [ 
			{
				"type": "occ",
				"energy": -0.26509,
				"method": "rhf"
			},
			{
				"type": "occ",
				"energy": -0.25252,
				"method": "rhf"
			},
			{
				"type": "occ",
				"energy": -0.2488,
				"method": "rhf"
			},
			{
				"type": "occ",
				"energy": -0.24178,
				"method": "rhf"
			},
			{
				"type": "occ",
				"energy": -0.23896,
				"method": "rhf"
			},
			{
				"type": "unocc",
				"energy": -0.06199,
				"method": "rhf"
			},
			{
				"type": "unocc",
				"energy": -0.00453,
				"method": "rhf"
			},
			{
				"type": "unocc",
				"energy": 0.00947,
				"method": "rhf"
			},
			{
				"type": "unocc",
				"energy": 0.03792,
				"method": "rhf"
			},
			{
				"type": "unocc",
				"energy": 0.06931,
				"method": "rhf"
			}
		],
		"cosmo_sigma_profile": { 
			"-0.025": 0.0,
			"-0.024": 0.0,
			"-0.023": 0.0,
			"-0.022": 0.0,
			"-0.021": 0.0,
			"-0.02": 0.0,
			"-0.019": 0.0,
			"-0.018": 0.0,
			"-0.017": 0.0,
			"-0.016": 0.0,
			"-0.015": 0.0,
			"-0.014": 0.0,
			"-0.013": 0.0,
			"-0.012": 0.0,
			"-0.011": 0.0,
			"-0.01": 0.0,
			"-0.009": 0.00175996045338,
			"-0.008": 3.76065140799,
			"-0.007": 10.3571139555,
			"-0.006": 12.4930755811,
			"-0.005": 15.4189436856,
			"-0.004": 28.4138835767,
			"-0.003": 35.4154056152,
			"-0.002": 30.6162892607,
			"-0.001": 24.7263563751,
			"0.0": 19.8375502715,
			"0.001": 16.443038934,
			"0.002": 14.6556302053,
			"0.003": 15.6951296481,
			"0.004": 11.1023909249,
			"0.005": 4.28052874928,
			"0.006": 1.85330671362,
			"0.007": 3.71539940264,
			"0.008": 3.34305039629,
			"0.009": 2.8489394572,
			"0.01": 3.35711392555,
			"0.011": 5.62954994907,
			"0.012": 4.85585189984,
			"0.013": 4.78276294427,
			"0.014": 5.57930361581,
			"0.015": 1.15420837343,
			"0.016": 0.0,
			"0.017": 0.0,
			"0.018": 0.0,
			"0.019": 0.0,
			"0.02": 0.0,
			"0.021": 0.0,
			"0.022": 0.0,
			"0.023": 0.0,
			"0.024": 0.0,
			"0.025": 0.0
		}
	}
}
