{
	 "smiles": "NCC1=NC(=NO1)C1=CC=CS1", 
	 "Tm": 415.15, 
	 "num_atms": 19, 
	 "gaussian": { 
		 "optdone": 1, 
		 "sigma_profile": "yes", 
		 "theory": "DFT", 
		 "functional": "B3LYP", 
		 "basiset": "6-31G**", 
		 "properties": { 
			 "R2extent": 2970.7506, 
			 "electric_dipole_moment_norm": 1.46575681817, 
			 "electric_quadrupole_moment_norm": 5.84470215665, 
			 "total_energy": -908.571587306, 
			 "HOMO_LUMO_gap": 0.18036, 
			 "cosmo_polarized_energy": -11.27, 
			 "cosmo_cavitation_energy": 25.74, 
			 "cosmo_dispersion_energy": -19.61, 
			 "cosmo_repulsion_energy": 1.53, 
			 "cosmo_total_nonelectrostatic_energy": 7.66, 
			 "SMD_solvation_energy": 1.64 
		},
		"coords": [
			{
				"x": 0.3479348377,
				"y": 1.9776366297,
				"z": 4.3858682167,
				"element": "N" 
			},
			{
				"x": -0.9220111799,
				"y": 1.542686217,
				"z": 3.8313847532,
				"element": "C" 
			},
			{
				"x": -0.844065904,
				"y": 0.9136621718,
				"z": 2.4634958352,
				"element": "C" 
			},
			{
				"x": 0.2137160255,
				"y": 0.7186708833,
				"z": 1.7341400604,
				"element": "N" 
			},
			{
				"x": -0.3119484431,
				"y": 0.1170484152,
				"z": 0.6031416376,
				"element": "C" 
			},
			{
				"x": -1.6172783014,
				"y": -0.0505145906,
				"z": 0.630869983,
				"element": "N" 
			},
			{
				"x": -1.977455862,
				"y": 0.485912057,
				"z": 1.8839115677,
				"element": "O" 
			},
			{
				"x": 0.5140420421,
				"y": -0.2931769764,
				"z": -0.5176802829,
				"element": "C" 
			},
			{
				"x": 0.1239050153,
				"y": -0.896603419,
				"z": -1.6916495568,
				"element": "C" 
			},
			{
				"x": 1.2137617698,
				"y": -1.1555010899,
				"z": -2.5669828095,
				"element": "C" 
			},
			{
				"x": 2.4154210829,
				"y": -0.7465638321,
				"z": -2.0484539136,
				"element": "C" 
			},
			{
				"x": 2.2402636266,
				"y": -0.0370669623,
				"z": -0.4807183345,
				"element": "S" 
			},
			{
				"x": 0.9865296142,
				"y": 1.1872943025,
				"z": 4.4324355872,
				"element": "H" 
			},
			{
				"x": 0.7853220769,
				"y": 2.6421538533,
				"z": 3.7520516663,
				"element": "H" 
			},
			{
				"x": -1.3932527716,
				"y": 0.8237120154,
				"z": 4.5127197592,
				"element": "H" 
			},
			{
				"x": -1.6105123787,
				"y": 2.3949198141,
				"z": 3.7778223429,
				"element": "H" 
			},
			{
				"x": -0.9100603841,
				"y": -1.1397473711,
				"z": -1.9054800961,
				"element": "H" 
			},
			{
				"x": 1.1102293046,
				"y": -1.6245266648,
				"z": -3.5385343251,
				"element": "H" 
			},
			{
				"x": 3.396259829,
				"y": -0.821095453,
				"z": -2.4976420909,
				"element": "H" 
			}
		],
		 "valence_orbital": [ 
			{
				"type": "occ",
				"energy": -0.30344,
				"method": "rhf"
			},
			{
				"type": "occ",
				"energy": -0.29815,
				"method": "rhf"
			},
			{
				"type": "occ",
				"energy": -0.2599,
				"method": "rhf"
			},
			{
				"type": "occ",
				"energy": -0.25773,
				"method": "rhf"
			},
			{
				"type": "occ",
				"energy": -0.23259,
				"method": "rhf"
			},
			{
				"type": "unocc",
				"energy": -0.05223,
				"method": "rhf"
			},
			{
				"type": "unocc",
				"energy": -0.00981,
				"method": "rhf"
			},
			{
				"type": "unocc",
				"energy": 0.02596,
				"method": "rhf"
			},
			{
				"type": "unocc",
				"energy": 0.04228,
				"method": "rhf"
			},
			{
				"type": "unocc",
				"energy": 0.07542,
				"method": "rhf"
			}
		],
		"cosmo_sigma_profile": { 
			"-0.025": 0.0,
			"-0.024": 0.0,
			"-0.023": 0.0,
			"-0.022": 0.0,
			"-0.021": 0.0,
			"-0.02": 0.0,
			"-0.019": 0.0,
			"-0.018": 0.0,
			"-0.017": 0.0,
			"-0.016": 0.0,
			"-0.015": 0.0,
			"-0.014": 0.0,
			"-0.013": 0.0,
			"-0.012": 0.0,
			"-0.011": 0.350106831539,
			"-0.01": 2.96226092017,
			"-0.009": 4.11503981881,
			"-0.008": 7.3861199882,
			"-0.007": 14.7938243733,
			"-0.006": 12.740612806,
			"-0.005": 11.0257946534,
			"-0.004": 11.7114714427,
			"-0.003": 10.5917291371,
			"-0.002": 9.16444108702,
			"-0.001": 11.0252239098,
			"0.0": 12.0552610722,
			"0.001": 12.643486123,
			"0.002": 17.5158384535,
			"0.003": 21.4293476064,
			"0.004": 12.9412082661,
			"0.005": 5.31491073943,
			"0.006": 6.28309470247,
			"0.007": 5.72513682603,
			"0.008": 3.72858108929,
			"0.009": 3.21418227745,
			"0.01": 2.46120578758,
			"0.011": 2.62703899569,
			"0.012": 1.92809630215,
			"0.013": 1.26825643207,
			"0.014": 0.792776412677,
			"0.015": 0.363752021053,
			"0.016": 0.661891249971,
			"0.017": 0.824120891927,
			"0.018": 0.477529527189,
			"0.019": 0.0729393707433,
			"0.02": 0.0,
			"0.021": 0.0,
			"0.022": 0.0,
			"0.023": 0.0,
			"0.024": 0.0,
			"0.025": 0.0
		}
	}
}
