{
	 "smiles": "CC(CC#N)SC1=C(NC(=O)CCl)C=CC=C1", 
	 "Tm": 363.15, 
	 "num_atms": 30, 
	 "gaussian": { 
		 "optdone": 1, 
		 "sigma_profile": "yes", 
		 "theory": "DFT", 
		 "functional": "B3LYP", 
		 "basiset": "6-31G**", 
		 "properties": { 
			 "R2extent": 5983.0763, 
			 "electric_dipole_moment_norm": 4.68731594945, 
			 "electric_quadrupole_moment_norm": 22.4357147564, 
			 "total_energy": -1508.20853612, 
			 "HOMO_LUMO_gap": 0.20128, 
			 "cosmo_polarized_energy": -20.94, 
			 "cosmo_cavitation_energy": 37.38, 
			 "cosmo_dispersion_energy": -24.69, 
			 "cosmo_repulsion_energy": 1.91, 
			 "cosmo_total_nonelectrostatic_energy": 14.6, 
			 "SMD_solvation_energy": 7.75 
		},
		"coords": [
			{
				"x": 2.7610605039,
				"y": -0.4983581663,
				"z": 1.1159030618,
				"element": "C" 
			},
			{
				"x": 3.1301955968,
				"y": -0.2317854058,
				"z": -0.3445060319,
				"element": "C" 
			},
			{
				"x": 3.3353233149,
				"y": 1.2801200113,
				"z": -0.583812025,
				"element": "C" 
			},
			{
				"x": 3.8401097503,
				"y": 1.6233693541,
				"z": -1.9148916031,
				"element": "C" 
			},
			{
				"x": 4.2425805428,
				"y": 1.9105530764,
				"z": -2.9648865809,
				"element": "N" 
			},
			{
				"x": 1.9657971507,
				"y": -1.010033927,
				"z": -1.566263978,
				"element": "S" 
			},
			{
				"x": 0.4263180122,
				"y": -0.111696868,
				"z": -1.3300801085,
				"element": "C" 
			},
			{
				"x": -0.5745929358,
				"y": -0.5424554359,
				"z": -0.4274147473,
				"element": "C" 
			},
			{
				"x": -0.3928009834,
				"y": -1.6650117399,
				"z": 0.4324609379,
				"element": "N" 
			},
			{
				"x": -0.2850134956,
				"y": -2.9998260337,
				"z": 0.1142148321,
				"element": "C" 
			},
			{
				"x": 0.0628198199,
				"y": -3.8231604413,
				"z": 0.944796884,
				"element": "O" 
			},
			{
				"x": -0.6797393804,
				"y": -3.4199489074,
				"z": -1.2990312963,
				"element": "C" 
			},
			{
				"x": -2.4874108391,
				"y": -3.442594759,
				"z": -1.4761276689,
				"element": "Cl" 
			},
			{
				"x": -1.7688547723,
				"y": 0.1810738047,
				"z": -0.3273977861,
				"element": "C" 
			},
			{
				"x": -1.9861704777,
				"y": 1.3157816181,
				"z": -1.1069033725,
				"element": "C" 
			},
			{
				"x": -1.0129969267,
				"y": 1.7303180535,
				"z": -2.0161586777,
				"element": "C" 
			},
			{
				"x": 0.1782072418,
				"y": 1.0139773211,
				"z": -2.1319260025,
				"element": "C" 
			},
			{
				"x": 1.8433880977,
				"y": 0.0323213398,
				"z": 1.3900589471,
				"element": "H" 
			},
			{
				"x": 2.6106999426,
				"y": -1.5652520943,
				"z": 1.2923842443,
				"element": "H" 
			},
			{
				"x": 3.5595305732,
				"y": -0.1453609003,
				"z": 1.779118326,
				"element": "H" 
			},
			{
				"x": 4.0613184549,
				"y": -0.7553716063,
				"z": -0.5872481434,
				"element": "H" 
			},
			{
				"x": 4.0433173847,
				"y": 1.6645438143,
				"z": 0.1612879709,
				"element": "H" 
			},
			{
				"x": 2.3894824151,
				"y": 1.8110729262,
				"z": -0.4244106061,
				"element": "H" 
			},
			{
				"x": -0.2114344105,
				"y": -1.4854666058,
				"z": 1.4124142714,
				"element": "H" 
			},
			{
				"x": -0.2956773947,
				"y": -2.7581728254,
				"z": -2.0730351654,
				"element": "H" 
			},
			{
				"x": -0.3270967742,
				"y": -4.4370986546,
				"z": -1.4530806351,
				"element": "H" 
			},
			{
				"x": -2.5286601453,
				"y": -0.1711216678,
				"z": 0.3628511385,
				"element": "H" 
			},
			{
				"x": -2.920224496,
				"y": 1.8616931542,
				"z": -1.0155018762,
				"element": "H" 
			},
			{
				"x": -1.1800897402,
				"y": 2.6028450054,
				"z": -2.640338618,
				"element": "H" 
			},
			{
				"x": 0.9342139705,
				"y": 1.3217465597,
				"z": -2.847275691,
				"element": "H" 
			}
		],
		 "valence_orbital": [ 
			{
				"type": "occ",
				"energy": -0.29127,
				"method": "rhf"
			},
			{
				"type": "occ",
				"energy": -0.27546,
				"method": "rhf"
			},
			{
				"type": "occ",
				"energy": -0.26444,
				"method": "rhf"
			},
			{
				"type": "occ",
				"energy": -0.25937,
				"method": "rhf"
			},
			{
				"type": "occ",
				"energy": -0.24946,
				"method": "rhf"
			},
			{
				"type": "unocc",
				"energy": -0.04818,
				"method": "rhf"
			},
			{
				"type": "unocc",
				"energy": -0.03559,
				"method": "rhf"
			},
			{
				"type": "unocc",
				"energy": -0.02127,
				"method": "rhf"
			},
			{
				"type": "unocc",
				"energy": 0.02061,
				"method": "rhf"
			},
			{
				"type": "unocc",
				"energy": 0.02936,
				"method": "rhf"
			}
		],
		"cosmo_sigma_profile": { 
			"-0.025": 0.0,
			"-0.024": 0.0,
			"-0.023": 0.0,
			"-0.022": 0.0,
			"-0.021": 0.0,
			"-0.02": 0.0,
			"-0.019": 0.0,
			"-0.018": 0.0,
			"-0.017": 0.0,
			"-0.016": 0.0,
			"-0.015": 0.0,
			"-0.014": 0.624359101175,
			"-0.013": 0.809384543227,
			"-0.012": 1.02913680665,
			"-0.011": 0.691732782459,
			"-0.01": 1.53884461693,
			"-0.009": 2.98085341443,
			"-0.008": 8.9996101368,
			"-0.007": 17.6152022886,
			"-0.006": 21.5158420442,
			"-0.005": 24.5744109049,
			"-0.004": 19.8152188847,
			"-0.003": 16.9550649633,
			"-0.002": 17.1012612895,
			"-0.001": 16.377629162,
			"0.0": 16.4014871407,
			"0.001": 17.1687337012,
			"0.002": 18.6037988677,
			"0.003": 17.4553096885,
			"0.004": 18.4685971007,
			"0.005": 14.3819424103,
			"0.006": 9.03335673058,
			"0.007": 4.63697298543,
			"0.008": 5.71013648424,
			"0.009": 4.77751869794,
			"0.01": 4.95850369158,
			"0.011": 4.73627479111,
			"0.012": 6.94967461798,
			"0.013": 6.11298692123,
			"0.014": 0.949897209869,
			"0.015": 0.0,
			"0.016": 0.0,
			"0.017": 0.0,
			"0.018": 0.0,
			"0.019": 0.0,
			"0.02": 0.0,
			"0.021": 0.0,
			"0.022": 0.0,
			"0.023": 0.0,
			"0.024": 0.0,
			"0.025": 0.0
		}
	}
}
