{
	 "smiles": "O=C(C1=CC=CC=C1)C1=CC=C(OCC2=CC=CC=C2)C=C1", 
	 "Tm": 355.15, 
	 "num_atms": 38, 
	 "gaussian": { 
		 "optdone": 1, 
		 "sigma_profile": "yes", 
		 "theory": "DFT", 
		 "functional": "B3LYP", 
		 "basiset": "6-31G**", 
		 "properties": { 
			 "R2extent": 10039.8778, 
			 "electric_dipole_moment_norm": 4.58123285263, 
			 "electric_quadrupole_moment_norm": 15.3151333119, 
			 "total_energy": -922.215019254, 
			 "HOMO_LUMO_gap": 0.172, 
			 "cosmo_polarized_energy": -12.68, 
			 "cosmo_cavitation_energy": 42.45, 
			 "cosmo_dispersion_energy": -29.94, 
			 "cosmo_repulsion_energy": 2.29, 
			 "cosmo_total_nonelectrostatic_energy": 14.8, 
			 "SMD_solvation_energy": 7.61 
		},
		"coords": [
			{
				"x": -1.9570594878,
				"y": -3.3751804044,
				"z": -3.0410427047,
				"element": "O" 
			},
			{
				"x": -2.1209848486,
				"y": -2.4877396235,
				"z": -2.2079488334,
				"element": "C" 
			},
			{
				"x": -3.3825149722,
				"y": -1.671216987,
				"z": -2.2430039222,
				"element": "C" 
			},
			{
				"x": -4.5383420482,
				"y": -2.2789548021,
				"z": -2.7588853696,
				"element": "C" 
			},
			{
				"x": -5.7269967644,
				"y": -1.5626824991,
				"z": -2.8643633297,
				"element": "C" 
			},
			{
				"x": -5.770168918,
				"y": -0.218446989,
				"z": -2.4814161101,
				"element": "C" 
			},
			{
				"x": -4.6196679549,
				"y": 0.403479317,
				"z": -1.9942230242,
				"element": "C" 
			},
			{
				"x": -3.43211942,
				"y": -0.3193473212,
				"z": -1.8692607575,
				"element": "C" 
			},
			{
				"x": -1.0741249459,
				"y": -2.2304122243,
				"z": -1.174239001,
				"element": "C" 
			},
			{
				"x": 0.2394830433,
				"y": -2.6600930865,
				"z": -1.4453462437,
				"element": "C" 
			},
			{
				"x": 1.2495452056,
				"y": -2.4984575866,
				"z": -0.5135856628,
				"element": "C" 
			},
			{
				"x": 0.9677976101,
				"y": -1.9223755231,
				"z": 0.7377385294,
				"element": "C" 
			},
			{
				"x": 2.0311157255,
				"y": -1.8266949627,
				"z": 1.586695127,
				"element": "O" 
			},
			{
				"x": 1.8251245787,
				"y": -1.3766495882,
				"z": 2.9266793747,
				"element": "C" 
			},
			{
				"x": 1.6621363671,
				"y": 0.1251362177,
				"z": 3.0600300271,
				"element": "C" 
			},
			{
				"x": 0.886074819,
				"y": 0.6556646038,
				"z": 4.0970160809,
				"element": "C" 
			},
			{
				"x": 0.7788089038,
				"y": 2.0370300022,
				"z": 4.2678698918,
				"element": "C" 
			},
			{
				"x": 1.4410528139,
				"y": 2.9020914268,
				"z": 3.3954297519,
				"element": "C" 
			},
			{
				"x": 2.2122896316,
				"y": 2.3785481067,
				"z": 2.3551980159,
				"element": "C" 
			},
			{
				"x": 2.3262245642,
				"y": 0.9980806705,
				"z": 2.1903458054,
				"element": "C" 
			},
			{
				"x": -0.3363341227,
				"y": -1.5079322631,
				"z": 1.0353010598,
				"element": "C" 
			},
			{
				"x": -1.3409216146,
				"y": -1.6627244597,
				"z": 0.0791166174,
				"element": "C" 
			},
			{
				"x": -4.4782376388,
				"y": -3.3152879137,
				"z": -3.0744816,
				"element": "H" 
			},
			{
				"x": -6.6190605175,
				"y": -2.0469158666,
				"z": -3.2512752335,
				"element": "H" 
			},
			{
				"x": -6.6958419521,
				"y": 0.3432660342,
				"z": -2.5702150981,
				"element": "H" 
			},
			{
				"x": -4.644137938,
				"y": 1.4528946196,
				"z": -1.7148619034,
				"element": "H" 
			},
			{
				"x": -2.5367461469,
				"y": 0.1750520628,
				"z": -1.5073634,
				"element": "H" 
			},
			{
				"x": 0.4400009033,
				"y": -3.1259160979,
				"z": -2.4043497536,
				"element": "H" 
			},
			{
				"x": 2.2659827224,
				"y": -2.8188393185,
				"z": -0.7178531837,
				"element": "H" 
			},
			{
				"x": 0.973917557,
				"y": -1.9015003011,
				"z": 3.3792562709,
				"element": "H" 
			},
			{
				"x": 2.7282098371,
				"y": -1.7044398382,
				"z": 3.4527553851,
				"element": "H" 
			},
			{
				"x": 0.3618728315,
				"y": -0.0142525593,
				"z": 4.7753602314,
				"element": "H" 
			},
			{
				"x": 0.1723275047,
				"y": 2.4357158121,
				"z": 5.0761126333,
				"element": "H" 
			},
			{
				"x": 1.3541303298,
				"y": 3.9772181791,
				"z": 3.5228250147,
				"element": "H" 
			},
			{
				"x": 2.7275247856,
				"y": 3.0467493766,
				"z": 1.6709717023,
				"element": "H" 
			},
			{
				"x": 2.922901542,
				"y": 0.5893027841,
				"z": 1.3807980763,
				"element": "H" 
			},
			{
				"x": -0.5740135163,
				"y": -1.0531007053,
				"z": 1.9886865303,
				"element": "H" 
			},
			{
				"x": -2.3498484692,
				"y": -1.3532682922,
				"z": 0.3297290053,
				"element": "H" 
			}
		],
		 "valence_orbital": [ 
			{
				"type": "occ",
				"energy": -0.25592,
				"method": "rhf"
			},
			{
				"type": "occ",
				"energy": -0.25484,
				"method": "rhf"
			},
			{
				"type": "occ",
				"energy": -0.2511,
				"method": "rhf"
			},
			{
				"type": "occ",
				"energy": -0.23963,
				"method": "rhf"
			},
			{
				"type": "occ",
				"energy": -0.2266,
				"method": "rhf"
			},
			{
				"type": "unocc",
				"energy": -0.0546,
				"method": "rhf"
			},
			{
				"type": "unocc",
				"energy": -0.01552,
				"method": "rhf"
			},
			{
				"type": "unocc",
				"energy": -0.01133,
				"method": "rhf"
			},
			{
				"type": "unocc",
				"energy": -0.00765,
				"method": "rhf"
			},
			{
				"type": "unocc",
				"energy": -0.0019,
				"method": "rhf"
			}
		],
		"cosmo_sigma_profile": { 
			"-0.025": 0.0,
			"-0.024": 0.0,
			"-0.023": 0.0,
			"-0.022": 0.0,
			"-0.021": 0.0,
			"-0.02": 0.0,
			"-0.019": 0.0,
			"-0.018": 0.0,
			"-0.017": 0.0,
			"-0.016": 0.0,
			"-0.015": 0.0,
			"-0.014": 0.0,
			"-0.013": 0.0,
			"-0.012": 0.0,
			"-0.011": 0.0,
			"-0.01": 0.0,
			"-0.009": 0.0,
			"-0.008": 0.0813462872397,
			"-0.007": 5.07101303128,
			"-0.006": 21.9256130091,
			"-0.005": 31.6510271216,
			"-0.004": 32.3971947532,
			"-0.003": 28.8441312899,
			"-0.002": 24.3181244527,
			"-0.001": 21.4227760053,
			"0.0": 21.8531334195,
			"0.001": 21.4742038388,
			"0.002": 25.9022439817,
			"0.003": 30.8734078575,
			"0.004": 31.414872489,
			"0.005": 16.1562276971,
			"0.006": 7.89669731646,
			"0.007": 2.86697263279,
			"0.008": 2.80525350651,
			"0.009": 3.01247500158,
			"0.01": 1.7126063156,
			"0.011": 2.45834893015,
			"0.012": 4.2542838921,
			"0.013": 2.12113995152,
			"0.014": 0.0133652365197,
			"0.015": 0.0,
			"0.016": 0.0,
			"0.017": 0.0,
			"0.018": 0.0,
			"0.019": 0.0,
			"0.02": 0.0,
			"0.021": 0.0,
			"0.022": 0.0,
			"0.023": 0.0,
			"0.024": 0.0,
			"0.025": 0.0
		}
	}
}
