{
	 "smiles": "CC1=C(F)C=C(F)C(=C1)S(N)(=O)=O", 
	 "Tm": 371.15, 
	 "num_atms": 20, 
	 "gaussian": { 
		 "optdone": 1, 
		 "sigma_profile": "yes", 
		 "theory": "DFT", 
		 "functional": "B3LYP", 
		 "basiset": "6-31G**", 
		 "properties": { 
			 "R2extent": 2954.1412, 
			 "electric_dipole_moment_norm": 5.25288046409, 
			 "electric_quadrupole_moment_norm": 19.8409627778, 
			 "total_energy": -1073.95242477, 
			 "HOMO_LUMO_gap": 0.21967, 
			 "cosmo_polarized_energy": -16.47, 
			 "cosmo_cavitation_energy": 26.42, 
			 "cosmo_dispersion_energy": -19.7, 
			 "cosmo_repulsion_energy": 1.47, 
			 "cosmo_total_nonelectrostatic_energy": 8.19, 
			 "SMD_solvation_energy": 5.03 
		},
		"coords": [
			{
				"x": 3.002997303,
				"y": 0.7493236837,
				"z": 0.2373310297,
				"element": "C" 
			},
			{
				"x": 1.5906129431,
				"y": 0.3773374848,
				"z": -0.1333827487,
				"element": "C" 
			},
			{
				"x": 1.047566242,
				"y": 0.7851235938,
				"z": -1.3562954141,
				"element": "C" 
			},
			{
				"x": 1.8174268897,
				"y": 1.5178549657,
				"z": -2.1826085081,
				"element": "F" 
			},
			{
				"x": -0.2465616795,
				"y": 0.4824646804,
				"z": -1.7645845118,
				"element": "C" 
			},
			{
				"x": -1.0273252412,
				"y": -0.2759719359,
				"z": -0.905556713,
				"element": "C" 
			},
			{
				"x": -2.2947205118,
				"y": -0.5704737604,
				"z": -1.2677021604,
				"element": "F" 
			},
			{
				"x": -0.5438685901,
				"y": -0.7118148212,
				"z": 0.3267809924,
				"element": "C" 
			},
			{
				"x": 0.7618195166,
				"y": -0.3794192343,
				"z": 0.6988934335,
				"element": "C" 
			},
			{
				"x": -1.5382074054,
				"y": -1.7520396161,
				"z": 1.4075017897,
				"element": "S" 
			},
			{
				"x": -2.9795748857,
				"y": -0.9353051034,
				"z": 1.6483904189,
				"element": "N" 
			},
			{
				"x": -0.8561320054,
				"y": -1.7724858885,
				"z": 2.7003053969,
				"element": "O" 
			},
			{
				"x": -1.8699644479,
				"y": -2.9697258675,
				"z": 0.6763796489,
				"element": "O" 
			},
			{
				"x": 3.2593066551,
				"y": 0.3601699955,
				"z": 1.2249693851,
				"element": "H" 
			},
			{
				"x": 3.7205505133,
				"y": 0.3479851642,
				"z": -0.4859743037,
				"element": "H" 
			},
			{
				"x": 3.1368249348,
				"y": 1.8360645468,
				"z": 0.2504220333,
				"element": "H" 
			},
			{
				"x": -0.6294469956,
				"y": 0.8239549917,
				"z": -2.718503426,
				"element": "H" 
			},
			{
				"x": 1.1223258982,
				"y": -0.7247752721,
				"z": 1.662298991,
				"element": "H" 
			},
			{
				"x": -3.4894724921,
				"y": -0.7949506999,
				"z": 0.7812944365,
				"element": "H" 
			},
			{
				"x": -2.8593566411,
				"y": -0.0846169073,
				"z": 2.1892402298,
				"element": "H" 
			}
		],
		 "valence_orbital": [ 
			{
				"type": "occ",
				"energy": -0.32112,
				"method": "rhf"
			},
			{
				"type": "occ",
				"energy": -0.31067,
				"method": "rhf"
			},
			{
				"type": "occ",
				"energy": -0.30656,
				"method": "rhf"
			},
			{
				"type": "occ",
				"energy": -0.28121,
				"method": "rhf"
			},
			{
				"type": "occ",
				"energy": -0.26316,
				"method": "rhf"
			},
			{
				"type": "unocc",
				"energy": -0.04349,
				"method": "rhf"
			},
			{
				"type": "unocc",
				"energy": -0.0309,
				"method": "rhf"
			},
			{
				"type": "unocc",
				"energy": 0.04387,
				"method": "rhf"
			},
			{
				"type": "unocc",
				"energy": 0.05808,
				"method": "rhf"
			},
			{
				"type": "unocc",
				"energy": 0.0794,
				"method": "rhf"
			}
		],
		"cosmo_sigma_profile": { 
			"-0.025": 0.0,
			"-0.024": 0.0,
			"-0.023": 0.0,
			"-0.022": 0.0,
			"-0.021": 0.0,
			"-0.02": 0.0,
			"-0.019": 0.0,
			"-0.018": 0.0,
			"-0.017": 0.0,
			"-0.016": 0.620420687158,
			"-0.015": 1.67795847328,
			"-0.014": 1.63332193275,
			"-0.013": 2.6666610271,
			"-0.012": 2.3281431286,
			"-0.011": 2.0830352103,
			"-0.01": 2.83971970253,
			"-0.009": 3.29968934924,
			"-0.008": 3.63754113462,
			"-0.007": 5.60847065328,
			"-0.006": 5.78993213061,
			"-0.005": 9.77804828854,
			"-0.004": 10.0175360209,
			"-0.003": 12.1974639757,
			"-0.002": 17.0238201788,
			"-0.001": 25.5640862607,
			"0.0": 19.2695593419,
			"0.001": 11.3076653162,
			"0.002": 9.3234662067,
			"0.003": 13.8049546508,
			"0.004": 7.03708952326,
			"0.005": 3.68063466242,
			"0.006": 4.00692912348,
			"0.007": 4.88511552123,
			"0.008": 4.41117597317,
			"0.009": 4.60788671058,
			"0.01": 10.7056982583,
			"0.011": 9.7865109994,
			"0.012": 1.58169667956,
			"0.013": 0.0687448828528,
			"0.014": 0.0,
			"0.015": 0.0,
			"0.016": 0.0,
			"0.017": 0.0,
			"0.018": 0.0,
			"0.019": 0.0,
			"0.02": 0.0,
			"0.021": 0.0,
			"0.022": 0.0,
			"0.023": 0.0,
			"0.024": 0.0,
			"0.025": 0.0
		}
	}
}
