{
	 "smiles": "OC(=O)C1=C(O)C=CC(OCC2=CC=CC=C2)=C1", 
	 "Tm": 439.15, 
	 "num_atms": 30, 
	 "gaussian": { 
		 "optdone": 1, 
		 "sigma_profile": "yes", 
		 "theory": "DFT", 
		 "functional": "B3LYP", 
		 "basiset": "6-31G**", 
		 "properties": { 
			 "R2extent": 5463.025, 
			 "electric_dipole_moment_norm": 3.13647264455, 
			 "electric_quadrupole_moment_norm": 11.2489890461, 
			 "total_energy": -841.633853173, 
			 "HOMO_LUMO_gap": 0.15539, 
			 "cosmo_polarized_energy": -12.07, 
			 "cosmo_cavitation_energy": 34.52, 
			 "cosmo_dispersion_energy": -24.56, 
			 "cosmo_repulsion_energy": 1.9, 
			 "cosmo_total_nonelectrostatic_energy": 11.87, 
			 "SMD_solvation_energy": 7.37 
		},
		"coords": [
			{
				"x": 1.3093161694,
				"y": -0.3615144018,
				"z": -1.9908105018,
				"element": "O" 
			},
			{
				"x": 0.6933847902,
				"y": 0.7416456305,
				"z": -2.4629618868,
				"element": "C" 
			},
			{
				"x": 0.9929363572,
				"y": 1.200436891,
				"z": -3.5684914921,
				"element": "O" 
			},
			{
				"x": -0.3211381161,
				"y": 1.3124603041,
				"z": -1.575897524,
				"element": "C" 
			},
			{
				"x": -1.0163886046,
				"y": 2.4674565976,
				"z": -2.0050151654,
				"element": "C" 
			},
			{
				"x": -0.793863246,
				"y": 3.06602845,
				"z": -3.188120985,
				"element": "O" 
			},
			{
				"x": -1.9896261067,
				"y": 3.0222603729,
				"z": -1.1541631164,
				"element": "C" 
			},
			{
				"x": -2.2607588729,
				"y": 2.4453776521,
				"z": 0.072262383,
				"element": "C" 
			},
			{
				"x": -1.5715746046,
				"y": 1.2936379546,
				"z": 0.5029894443,
				"element": "C" 
			},
			{
				"x": -1.9456913536,
				"y": 0.8186525992,
				"z": 1.7357361347,
				"element": "O" 
			},
			{
				"x": -1.4152147664,
				"y": -0.4255443713,
				"z": 2.1831253226,
				"element": "C" 
			},
			{
				"x": 0.0020141942,
				"y": -0.3434350984,
				"z": 2.7193086734,
				"element": "C" 
			},
			{
				"x": 0.8494690967,
				"y": -1.4541297933,
				"z": 2.6348340351,
				"element": "C" 
			},
			{
				"x": 2.13311491,
				"y": -1.4108393226,
				"z": 3.1818290476,
				"element": "C" 
			},
			{
				"x": 2.5852017882,
				"y": -0.2502797656,
				"z": 3.8117263406,
				"element": "C" 
			},
			{
				"x": 1.7463590267,
				"y": 0.863554961,
				"z": 3.8935968162,
				"element": "C" 
			},
			{
				"x": 0.4606445628,
				"y": 0.8164282071,
				"z": 3.3545618186,
				"element": "C" 
			},
			{
				"x": -0.6028415683,
				"y": 0.7348629273,
				"z": -0.3163535567,
				"element": "C" 
			},
			{
				"x": 1.9502121895,
				"y": -0.621701994,
				"z": -2.6728234716,
				"element": "H" 
			},
			{
				"x": -0.0863002345,
				"y": 2.5506689268,
				"z": -3.6420358359,
				"element": "H" 
			},
			{
				"x": -2.5196198881,
				"y": 3.9075059664,
				"z": -1.4884941947,
				"element": "H" 
			},
			{
				"x": -3.0149934389,
				"y": 2.8670187974,
				"z": 0.7293109372,
				"element": "H" 
			},
			{
				"x": -1.4830365905,
				"y": -1.1795012272,
				"z": 1.3868893009,
				"element": "H" 
			},
			{
				"x": -2.0987871931,
				"y": -0.7325307233,
				"z": 2.9825875986,
				"element": "H" 
			},
			{
				"x": 0.5051126664,
				"y": -2.3582189308,
				"z": 2.1371184273,
				"element": "H" 
			},
			{
				"x": 2.7812001064,
				"y": -2.2795636172,
				"z": 3.1080257545,
				"element": "H" 
			},
			{
				"x": 3.5858363517,
				"y": -0.2122498294,
				"z": 4.2325110552,
				"element": "H" 
			},
			{
				"x": 2.09386478,
				"y": 1.7711504665,
				"z": 4.3791516733,
				"element": "H" 
			},
			{
				"x": -0.1926496821,
				"y": 1.6813603883,
				"z": 3.4141299741,
				"element": "H" 
			},
			{
				"x": -0.0312827229,
				"y": -0.130498018,
				"z": -0.0100270069,
				"element": "H" 
			}
		],
		 "valence_orbital": [ 
			{
				"type": "occ",
				"energy": -0.28755,
				"method": "rhf"
			},
			{
				"type": "occ",
				"energy": -0.26425,
				"method": "rhf"
			},
			{
				"type": "occ",
				"energy": -0.25435,
				"method": "rhf"
			},
			{
				"type": "occ",
				"energy": -0.24839,
				"method": "rhf"
			},
			{
				"type": "occ",
				"energy": -0.20716,
				"method": "rhf"
			},
			{
				"type": "unocc",
				"energy": -0.05177,
				"method": "rhf"
			},
			{
				"type": "unocc",
				"energy": -0.0082,
				"method": "rhf"
			},
			{
				"type": "unocc",
				"energy": -0.00669,
				"method": "rhf"
			},
			{
				"type": "unocc",
				"energy": 0.0144,
				"method": "rhf"
			},
			{
				"type": "unocc",
				"energy": 0.05595,
				"method": "rhf"
			}
		],
		"cosmo_sigma_profile": { 
			"-0.025": 0.0,
			"-0.024": 0.0,
			"-0.023": 0.0,
			"-0.022": 0.0,
			"-0.021": 0.0,
			"-0.02": 0.0,
			"-0.019": 0.194731049821,
			"-0.018": 1.26371549823,
			"-0.017": 0.460007568851,
			"-0.016": 0.841212298823,
			"-0.015": 0.719949714708,
			"-0.014": 1.22073417541,
			"-0.013": 0.747936167891,
			"-0.012": 0.411221213249,
			"-0.011": 0.615464948754,
			"-0.01": 0.63802126752,
			"-0.009": 0.453192689685,
			"-0.008": 0.921414477971,
			"-0.007": 5.75373582461,
			"-0.006": 15.660975458,
			"-0.005": 19.0025888506,
			"-0.004": 20.3292018594,
			"-0.003": 20.7355794994,
			"-0.002": 19.2053259429,
			"-0.001": 18.0328275567,
			"0.0": 15.8503415543,
			"0.001": 19.3391618079,
			"0.002": 25.0238143964,
			"0.003": 26.1549978873,
			"0.004": 16.1059185376,
			"0.005": 13.4966722136,
			"0.006": 11.8023658395,
			"0.007": 4.71241447222,
			"0.008": 3.77273166073,
			"0.009": 4.13986641827,
			"0.01": 4.31105084201,
			"0.011": 3.543026695,
			"0.012": 0.596495901677,
			"0.013": 0.0,
			"0.014": 0.0,
			"0.015": 0.0,
			"0.016": 0.0,
			"0.017": 0.0,
			"0.018": 0.0,
			"0.019": 0.0,
			"0.02": 0.0,
			"0.021": 0.0,
			"0.022": 0.0,
			"0.023": 0.0,
			"0.024": 0.0,
			"0.025": 0.0
		}
	}
}
