{
	 "smiles": "BrC1=CNC=N1", 
	 "Tm": 402.15, 
	 "num_atms": 9, 
	 "gaussian": { 
		 "optdone": 1, 
		 "sigma_profile": "yes", 
		 "theory": "DFT", 
		 "functional": "B3LYP", 
		 "basiset": "6-31G**", 
		 "properties": { 
			 "R2extent": 1922.743, 
			 "electric_dipole_moment_norm": 4.85130219838, 
			 "electric_quadrupole_moment_norm": 7.4716919001, 
			 "total_energy": -2797.0172806, 
			 "HOMO_LUMO_gap": 0.24114, 
			 "cosmo_polarized_energy": -13.27, 
			 "cosmo_cavitation_energy": 15.58, 
			 "cosmo_dispersion_energy": -12.45, 
			 "cosmo_repulsion_energy": 1.08, 
			 "cosmo_total_nonelectrostatic_energy": 4.21, 
			 "SMD_solvation_energy": 0.57 
		},
		"coords": [
			{
				"x": 0.8136022874,
				"y": -1.2287156996,
				"z": -3.0512967022,
				"element": "Br" 
			},
			{
				"x": 0.2786403376,
				"y": 0.019011367,
				"z": -1.7389906156,
				"element": "C" 
			},
			{
				"x": -0.4388490269,
				"y": 1.1676252776,
				"z": -1.9632678477,
				"element": "C" 
			},
			{
				"x": -0.5756667913,
				"y": 1.7299035405,
				"z": -0.7101243895,
				"element": "N" 
			},
			{
				"x": 0.0543102573,
				"y": 0.9050868039,
				"z": 0.1780746723,
				"element": "C" 
			},
			{
				"x": 0.5831085512,
				"y": -0.1433033471,
				"z": -0.4190675796,
				"element": "N" 
			},
			{
				"x": -0.841987829,
				"y": 1.608879386,
				"z": -2.85946709,
				"element": "H" 
			},
			{
				"x": -1.0536855655,
				"y": 2.5917002185,
				"z": -0.4946162347,
				"element": "H" 
			},
			{
				"x": 0.0970277793,
				"y": 1.1142124533,
				"z": 1.237755787,
				"element": "H" 
			}
		],
		 "valence_orbital": [ 
			{
				"type": "occ",
				"energy": -0.32425,
				"method": "rhf"
			},
			{
				"type": "occ",
				"energy": -0.28456,
				"method": "rhf"
			},
			{
				"type": "occ",
				"energy": -0.28101,
				"method": "rhf"
			},
			{
				"type": "occ",
				"energy": -0.28067,
				"method": "rhf"
			},
			{
				"type": "occ",
				"energy": -0.22735,
				"method": "rhf"
			},
			{
				"type": "unocc",
				"energy": 0.01379,
				"method": "rhf"
			},
			{
				"type": "unocc",
				"energy": 0.02232,
				"method": "rhf"
			},
			{
				"type": "unocc",
				"energy": 0.0555,
				"method": "rhf"
			},
			{
				"type": "unocc",
				"energy": 0.07171,
				"method": "rhf"
			},
			{
				"type": "unocc",
				"energy": 0.12716,
				"method": "rhf"
			}
		],
		"cosmo_sigma_profile": { 
			"-0.025": 0.0,
			"-0.024": 0.0,
			"-0.023": 0.0,
			"-0.022": 0.0,
			"-0.021": 0.0,
			"-0.02": 0.0,
			"-0.019": 0.0,
			"-0.018": 0.0510468618383,
			"-0.017": 1.58411370201,
			"-0.016": 2.36950814084,
			"-0.015": 0.972934505962,
			"-0.014": 1.25559978158,
			"-0.013": 1.27457454595,
			"-0.012": 1.16478652719,
			"-0.011": 1.57778426969,
			"-0.01": 2.1296117669,
			"-0.009": 6.01525184366,
			"-0.008": 3.93277788088,
			"-0.007": 3.55251424182,
			"-0.006": 3.4449456354,
			"-0.005": 2.89109185562,
			"-0.004": 4.63452660943,
			"-0.003": 3.66381339989,
			"-0.002": 4.63312404991,
			"-0.001": 5.38788050571,
			"0.0": 5.2089488869,
			"0.001": 7.07105067914,
			"0.002": 9.66381955768,
			"0.003": 13.6715895583,
			"0.004": 13.2720277842,
			"0.005": 12.320900692,
			"0.006": 2.69208702784,
			"0.007": 2.41339145752,
			"0.008": 2.33438721394,
			"0.009": 1.05344390366,
			"0.01": 1.70701386055,
			"0.011": 1.42023502794,
			"0.012": 0.85766912983,
			"0.013": 1.09814206683,
			"0.014": 1.17830384214,
			"0.015": 0.938098513238,
			"0.016": 1.10376057094,
			"0.017": 0.368764454021,
			"0.018": 0.0,
			"0.019": 0.0,
			"0.02": 0.0,
			"0.021": 0.0,
			"0.022": 0.0,
			"0.023": 0.0,
			"0.024": 0.0,
			"0.025": 0.0
		}
	}
}
