{
	 "smiles": "CCCCCCCCC(=O)OCCCCC", 
	 "Tm": 246.15, 
	 "num_atms": 44, 
	 "gaussian": { 
		 "optdone": 1, 
		 "sigma_profile": "yes", 
		 "theory": "DFT", 
		 "functional": "B3LYP", 
		 "basiset": "6-31G**", 
		 "properties": { 
			 "R2extent": 6227.4566, 
			 "electric_dipole_moment_norm": 1.911521449, 
			 "electric_quadrupole_moment_norm": 6.32479348912, 
			 "total_energy": -700.862461488, 
			 "HOMO_LUMO_gap": 0.27662, 
			 "cosmo_polarized_energy": -6.13, 
			 "cosmo_cavitation_energy": 43.78, 
			 "cosmo_dispersion_energy": -28.7, 
			 "cosmo_repulsion_energy": 2.33, 
			 "cosmo_total_nonelectrostatic_energy": 17.41, 
			 "SMD_solvation_energy": 6.89 
		},
		"coords": [
			{
				"x": -1.5963424567,
				"y": -4.3167077799,
				"z": -0.9037238502,
				"element": "C" 
			},
			{
				"x": -2.9622690462,
				"y": -3.8774391535,
				"z": -0.360500369,
				"element": "C" 
			},
			{
				"x": -2.9562702367,
				"y": -2.6238146806,
				"z": 0.5338567515,
				"element": "C" 
			},
			{
				"x": -2.1597464062,
				"y": -2.7429982677,
				"z": 1.8535213717,
				"element": "C" 
			},
			{
				"x": -0.6758555213,
				"y": -2.3327526322,
				"z": 1.7779914779,
				"element": "C" 
			},
			{
				"x": -0.4628132597,
				"y": -0.8186676642,
				"z": 1.6323069133,
				"element": "C" 
			},
			{
				"x": 1.0090327438,
				"y": -0.3896298044,
				"z": 1.515442626,
				"element": "C" 
			},
			{
				"x": 1.7440883623,
				"y": -0.8980509854,
				"z": 0.2517770865,
				"element": "C" 
			},
			{
				"x": 1.0745430005,
				"y": -0.4371101104,
				"z": -1.0255836141,
				"element": "C" 
			},
			{
				"x": 0.2797362482,
				"y": -1.0883325459,
				"z": -1.6746139889,
				"element": "O" 
			},
			{
				"x": 1.4535350662,
				"y": 0.8218514102,
				"z": -1.3487914139,
				"element": "O" 
			},
			{
				"x": 0.8603213651,
				"y": 1.3978574783,
				"z": -2.5391972382,
				"element": "C" 
			},
			{
				"x": -0.4685200944,
				"y": 2.087039948,
				"z": -2.2366112349,
				"element": "C" 
			},
			{
				"x": -0.3970628401,
				"y": 3.2195597778,
				"z": -1.1999148563,
				"element": "C" 
			},
			{
				"x": 0.402520138,
				"y": 4.4518897699,
				"z": -1.6456560008,
				"element": "C" 
			},
			{
				"x": 0.3871751958,
				"y": 5.5775776264,
				"z": -0.6061297375,
				"element": "C" 
			},
			{
				"x": -0.9461572005,
				"y": -4.6942514429,
				"z": -0.1072895985,
				"element": "H" 
			},
			{
				"x": -1.0756002152,
				"y": -3.4872675655,
				"z": -1.394347448,
				"element": "H" 
			},
			{
				"x": -1.7119029599,
				"y": -5.1251494422,
				"z": -1.6341679616,
				"element": "H" 
			},
			{
				"x": -3.6321530695,
				"y": -3.6822331903,
				"z": -1.2083560206,
				"element": "H" 
			},
			{
				"x": -3.417054426,
				"y": -4.7093299741,
				"z": 0.1959470239,
				"element": "H" 
			},
			{
				"x": -4.0000505022,
				"y": -2.3859615752,
				"z": 0.7758442138,
				"element": "H" 
			},
			{
				"x": -2.5843256039,
				"y": -1.7728695691,
				"z": -0.0513353569,
				"element": "H" 
			},
			{
				"x": -2.6436342411,
				"y": -2.1258581679,
				"z": 2.6229818735,
				"element": "H" 
			},
			{
				"x": -2.2294242262,
				"y": -3.7770439064,
				"z": 2.217780268,
				"element": "H" 
			},
			{
				"x": -0.1648632046,
				"y": -2.6711670141,
				"z": 2.6904660643,
				"element": "H" 
			},
			{
				"x": -0.1961061869,
				"y": -2.8539188526,
				"z": 0.9442725368,
				"element": "H" 
			},
			{
				"x": -0.8997328458,
				"y": -0.3133642491,
				"z": 2.5043236972,
				"element": "H" 
			},
			{
				"x": -1.0163454561,
				"y": -0.4488145814,
				"z": 0.7607475628,
				"element": "H" 
			},
			{
				"x": 1.0711800996,
				"y": 0.7049007757,
				"z": 1.5338377304,
				"element": "H" 
			},
			{
				"x": 1.5667397453,
				"y": -0.7464682232,
				"z": 2.3907579976,
				"element": "H" 
			},
			{
				"x": 2.7745939303,
				"y": -0.5304929111,
				"z": 0.265745316,
				"element": "H" 
			},
			{
				"x": 1.7658493589,
				"y": -1.9898327878,
				"z": 0.2302051106,
				"element": "H" 
			},
			{
				"x": 1.6117813629,
				"y": 2.1030087216,
				"z": -2.902093861,
				"element": "H" 
			},
			{
				"x": 0.7199750773,
				"y": 0.6062084587,
				"z": -3.2787212775,
				"element": "H" 
			},
			{
				"x": -0.8563706858,
				"y": 2.4781940461,
				"z": -3.1876548634,
				"element": "H" 
			},
			{
				"x": -1.1792723513,
				"y": 1.3219783954,
				"z": -1.9054666475,
				"element": "H" 
			},
			{
				"x": 0.0290796651,
				"y": 2.8279115862,
				"z": -0.2673554739,
				"element": "H" 
			},
			{
				"x": -1.4218133862,
				"y": 3.5317084927,
				"z": -0.958849889,
				"element": "H" 
			},
			{
				"x": -0.0063988346,
				"y": 4.8243706793,
				"z": -2.5952862287,
				"element": "H" 
			},
			{
				"x": 1.4429941323,
				"y": 4.1694850073,
				"z": -1.8513320038,
				"element": "H" 
			},
			{
				"x": 0.8194688858,
				"y": 5.2440026133,
				"z": 0.3441170128,
				"element": "H" 
			},
			{
				"x": -0.6356451273,
				"y": 5.9146418174,
				"z": -0.4023578496,
				"element": "H" 
			},
			{
				"x": 0.9619160072,
				"y": 6.4452404729,
				"z": -0.9460858507,
				"element": "H" 
			}
		],
		 "valence_orbital": [ 
			{
				"type": "occ",
				"energy": -0.30403,
				"method": "rhf"
			},
			{
				"type": "occ",
				"energy": -0.29969,
				"method": "rhf"
			},
			{
				"type": "occ",
				"energy": -0.29542,
				"method": "rhf"
			},
			{
				"type": "occ",
				"energy": -0.29199,
				"method": "rhf"
			},
			{
				"type": "occ",
				"energy": -0.2655,
				"method": "rhf"
			},
			{
				"type": "unocc",
				"energy": 0.01112,
				"method": "rhf"
			},
			{
				"type": "unocc",
				"energy": 0.07541,
				"method": "rhf"
			},
			{
				"type": "unocc",
				"energy": 0.09349,
				"method": "rhf"
			},
			{
				"type": "unocc",
				"energy": 0.10038,
				"method": "rhf"
			},
			{
				"type": "unocc",
				"energy": 0.10249,
				"method": "rhf"
			}
		],
		"cosmo_sigma_profile": { 
			"-0.025": 0.0,
			"-0.024": 0.0,
			"-0.023": 0.0,
			"-0.022": 0.0,
			"-0.021": 0.0,
			"-0.02": 0.0,
			"-0.019": 0.0,
			"-0.018": 0.0,
			"-0.017": 0.0,
			"-0.016": 0.0,
			"-0.015": 0.0,
			"-0.014": 0.0,
			"-0.013": 0.0,
			"-0.012": 0.0,
			"-0.011": 0.0,
			"-0.01": 0.0,
			"-0.009": 0.0,
			"-0.008": 0.0,
			"-0.007": 0.0,
			"-0.006": 0.211049857368,
			"-0.005": 4.90853046497,
			"-0.004": 10.7875563754,
			"-0.003": 24.7837687244,
			"-0.002": 56.0654825405,
			"-0.001": 64.0676481459,
			"0.0": 63.3706237097,
			"0.001": 49.8563085062,
			"0.002": 26.2223349318,
			"0.003": 7.1264467997,
			"0.004": 5.71766359975,
			"0.005": 5.32206936121,
			"0.006": 5.32498451611,
			"0.007": 2.85589750082,
			"0.008": 2.43854669991,
			"0.009": 2.73698852381,
			"0.01": 2.16508714858,
			"0.011": 1.48932554961,
			"0.012": 1.1508716188,
			"0.013": 0.09739138844,
			"0.014": 0.0,
			"0.015": 0.0,
			"0.016": 0.0,
			"0.017": 0.0,
			"0.018": 0.0,
			"0.019": 0.0,
			"0.02": 0.0,
			"0.021": 0.0,
			"0.022": 0.0,
			"0.023": 0.0,
			"0.024": 0.0,
			"0.025": 0.0
		}
	}
}
