{
	 "smiles": "CC(C)(C)C(N)CO", 
	 "Tm": 305.15, 
	 "num_atms": 23, 
	 "gaussian": { 
		 "optdone": 1, 
		 "sigma_profile": "yes", 
		 "theory": "DFT", 
		 "functional": "B3LYP", 
		 "basiset": "6-31G**", 
		 "properties": { 
			 "R2extent": 1331.05, 
			 "electric_dipole_moment_norm": 1.01059104488, 
			 "electric_quadrupole_moment_norm": 5.94112371526, 
			 "total_energy": -367.651728492, 
			 "HOMO_LUMO_gap": 0.29909, 
			 "cosmo_polarized_energy": -7.99, 
			 "cosmo_cavitation_energy": 23.14, 
			 "cosmo_dispersion_energy": -16.91, 
			 "cosmo_repulsion_energy": 1.4, 
			 "cosmo_total_nonelectrostatic_energy": 7.63, 
			 "SMD_solvation_energy": 3.47 
		},
		"coords": [
			{
				"x": 0.409284928,
				"y": 2.2500083627,
				"z": 0.5060942483,
				"element": "C" 
			},
			{
				"x": 0.775042669,
				"y": 0.9138021106,
				"z": 1.1832170046,
				"element": "C" 
			},
			{
				"x": -0.334247072,
				"y": 0.5023187543,
				"z": 2.1705557484,
				"element": "C" 
			},
			{
				"x": 2.0878519928,
				"y": 1.1193603219,
				"z": 1.9686862344,
				"element": "C" 
			},
			{
				"x": 1.0136541796,
				"y": -0.1892904678,
				"z": 0.1023572455,
				"element": "C" 
			},
			{
				"x": 1.5046012998,
				"y": -1.4345915029,
				"z": 0.7094767605,
				"element": "N" 
			},
			{
				"x": -0.2342117978,
				"y": -0.5531529006,
				"z": -0.7043077163,
				"element": "C" 
			},
			{
				"x": 0.1815476532,
				"y": -1.4573320034,
				"z": -1.7319247025,
				"element": "O" 
			},
			{
				"x": -0.5523492255,
				"y": 2.2045365706,
				"z": -0.0148146998,
				"element": "H" 
			},
			{
				"x": 0.3337898446,
				"y": 3.0467777651,
				"z": 1.2542805704,
				"element": "H" 
			},
			{
				"x": 1.1716753748,
				"y": 2.5506988197,
				"z": -0.2222821467,
				"element": "H" 
			},
			{
				"x": -0.1342966672,
				"y": -0.494646194,
				"z": 2.5722415003,
				"element": "H" 
			},
			{
				"x": -1.3208110388,
				"y": 0.4889479325,
				"z": 1.6942821603,
				"element": "H" 
			},
			{
				"x": -0.3874243808,
				"y": 1.2104633322,
				"z": 3.0052978776,
				"element": "H" 
			},
			{
				"x": 2.352130616,
				"y": 0.228870343,
				"z": 2.5468652701,
				"element": "H" 
			},
			{
				"x": 1.9845636872,
				"y": 1.9501930828,
				"z": 2.6750883458,
				"element": "H" 
			},
			{
				"x": 2.9227378591,
				"y": 1.3574777366,
				"z": 1.2977378147,
				"element": "H" 
			},
			{
				"x": 1.732459152,
				"y": 0.2323408422,
				"z": -0.6253005873,
				"element": "H" 
			},
			{
				"x": 1.4723489746,
				"y": -2.1549242122,
				"z": -0.0086328892,
				"element": "H" 
			},
			{
				"x": 2.4809538564,
				"y": -1.3361104303,
				"z": 0.9715662398,
				"element": "H" 
			},
			{
				"x": -0.9701912559,
				"y": -1.0304407178,
				"z": -0.042833467,
				"element": "H" 
			},
			{
				"x": -0.6887058998,
				"y": 0.3456934173,
				"z": -1.141321567,
				"element": "H" 
			},
			{
				"x": -0.6079047494,
				"y": -1.8441009625,
				"z": -2.1287292449,
				"element": "H" 
			}
		],
		 "valence_orbital": [ 
			{
				"type": "occ",
				"energy": -0.31782,
				"method": "rhf"
			},
			{
				"type": "occ",
				"energy": -0.31347,
				"method": "rhf"
			},
			{
				"type": "occ",
				"energy": -0.30253,
				"method": "rhf"
			},
			{
				"type": "occ",
				"energy": -0.26929,
				"method": "rhf"
			},
			{
				"type": "occ",
				"energy": -0.22529,
				"method": "rhf"
			},
			{
				"type": "unocc",
				"energy": 0.0738,
				"method": "rhf"
			},
			{
				"type": "unocc",
				"energy": 0.08019,
				"method": "rhf"
			},
			{
				"type": "unocc",
				"energy": 0.11418,
				"method": "rhf"
			},
			{
				"type": "unocc",
				"energy": 0.13208,
				"method": "rhf"
			},
			{
				"type": "unocc",
				"energy": 0.13795,
				"method": "rhf"
			}
		],
		"cosmo_sigma_profile": { 
			"-0.025": 0.0,
			"-0.024": 0.0,
			"-0.023": 0.0,
			"-0.022": 0.0,
			"-0.021": 0.0,
			"-0.02": 0.0,
			"-0.019": 0.0,
			"-0.018": 0.0,
			"-0.017": 0.0,
			"-0.016": 0.400206711977,
			"-0.015": 1.31606385345,
			"-0.014": 0.667511873265,
			"-0.013": 1.05106290818,
			"-0.012": 0.714878636225,
			"-0.011": 0.534985737404,
			"-0.01": 0.475855034889,
			"-0.009": 1.87591817287,
			"-0.008": 2.49685533562,
			"-0.007": 2.34849125967,
			"-0.006": 2.97478505441,
			"-0.005": 3.96156437999,
			"-0.004": 5.97444293363,
			"-0.003": 13.4090632804,
			"-0.002": 26.3585821256,
			"-0.001": 24.2155358668,
			"0.0": 17.6440517419,
			"0.001": 21.2317483199,
			"0.002": 19.0802572529,
			"0.003": 4.75631555403,
			"0.004": 3.45863105841,
			"0.005": 2.23771015132,
			"0.006": 2.12452233761,
			"0.007": 1.71065166005,
			"0.008": 2.41346775307,
			"0.009": 2.03624283627,
			"0.01": 2.3284785435,
			"0.011": 1.45489323381,
			"0.012": 1.85974840785,
			"0.013": 1.9194849687,
			"0.014": 1.44045510355,
			"0.015": 0.902638184164,
			"0.016": 0.445117289477,
			"0.017": 0.533571576386,
			"0.018": 0.205242684697,
			"0.019": 0.0,
			"0.02": 0.0,
			"0.021": 0.0,
			"0.022": 0.0,
			"0.023": 0.0,
			"0.024": 0.0,
			"0.025": 0.0
		}
	}
}
