{
	 "smiles": "OC1(CCC(=O)CC1)C1=CC(F)=CC=C1", 
	 "Tm": 385.15, 
	 "num_atms": 28, 
	 "gaussian": { 
		 "optdone": 1, 
		 "sigma_profile": "yes", 
		 "theory": "DFT", 
		 "functional": "B3LYP", 
		 "basiset": "6-31G**", 
		 "properties": { 
			 "R2extent": 4186.3364, 
			 "electric_dipole_moment_norm": 1.2270195679, 
			 "electric_quadrupole_moment_norm": 19.3543341668, 
			 "total_energy": -715.388772694, 
			 "HOMO_LUMO_gap": 0.21995, 
			 "cosmo_polarized_energy": -14.21, 
			 "cosmo_cavitation_energy": 30.15, 
			 "cosmo_dispersion_energy": -21.61, 
			 "cosmo_repulsion_energy": 1.65, 
			 "cosmo_total_nonelectrostatic_energy": 10.19, 
			 "SMD_solvation_energy": 5.76 
		},
		"coords": [
			{
				"x": -1.9031305767,
				"y": 1.1644701599,
				"z": 0.1053601898,
				"element": "O" 
			},
			{
				"x": -0.6724881799,
				"y": 0.9419732991,
				"z": -0.6004881612,
				"element": "C" 
			},
			{
				"x": -0.5326270265,
				"y": 2.0032966927,
				"z": -1.7211474303,
				"element": "C" 
			},
			{
				"x": 0.8188647908,
				"y": 1.9420882969,
				"z": -2.4537441285,
				"element": "C" 
			},
			{
				"x": 1.977234405,
				"y": 2.0878694647,
				"z": -1.4783633746,
				"element": "C" 
			},
			{
				"x": 2.8939272146,
				"y": 2.866200532,
				"z": -1.6570197966,
				"element": "O" 
			},
			{
				"x": 1.9111992578,
				"y": 1.1689961463,
				"z": -0.2641759767,
				"element": "C" 
			},
			{
				"x": 0.5099796767,
				"y": 1.1097624874,
				"z": 0.3826003828,
				"element": "C" 
			},
			{
				"x": -0.8302534328,
				"y": -0.4695715011,
				"z": -1.1831096009,
				"element": "C" 
			},
			{
				"x": -1.9289896332,
				"y": -0.7121649106,
				"z": -2.0222553583,
				"element": "C" 
			},
			{
				"x": -2.1215092812,
				"y": -1.9766024185,
				"z": -2.557295498,
				"element": "C" 
			},
			{
				"x": -3.185562208,
				"y": -2.1859743141,
				"z": -3.3615741886,
				"element": "F" 
			},
			{
				"x": -1.2611744823,
				"y": -3.0371718333,
				"z": -2.2919330541,
				"element": "C" 
			},
			{
				"x": -0.1812967768,
				"y": -2.8013285177,
				"z": -1.4453419786,
				"element": "C" 
			},
			{
				"x": 0.0312082534,
				"y": -1.5344062366,
				"z": -0.8923478233,
				"element": "C" 
			},
			{
				"x": -1.8996471561,
				"y": 2.0800443678,
				"z": 0.4186016299,
				"element": "H" 
			},
			{
				"x": -1.3562310859,
				"y": 1.9030724805,
				"z": -2.4333068646,
				"element": "H" 
			},
			{
				"x": -0.6398972099,
				"y": 2.9938142426,
				"z": -1.2553557809,
				"element": "H" 
			},
			{
				"x": 0.914055707,
				"y": 0.968082638,
				"z": -2.9541427737,
				"element": "H" 
			},
			{
				"x": 0.9024694704,
				"y": 2.7202973575,
				"z": -3.2163886138,
				"element": "H" 
			},
			{
				"x": 2.665650777,
				"y": 1.4949733017,
				"z": 0.4566868513,
				"element": "H" 
			},
			{
				"x": 2.2101644733,
				"y": 0.1734098652,
				"z": -0.6172990465,
				"element": "H" 
			},
			{
				"x": 0.3388889002,
				"y": 2.0590429247,
				"z": 0.9076923673,
				"element": "H" 
			},
			{
				"x": 0.4677237052,
				"y": 0.3304905814,
				"z": 1.1498307746,
				"element": "H" 
			},
			{
				"x": -2.6523148287,
				"y": 0.065101188,
				"z": -2.2387155734,
				"element": "H" 
			},
			{
				"x": -1.4493951186,
				"y": -4.0099064254,
				"z": -2.7327442026,
				"element": "H" 
			},
			{
				"x": 0.5008946834,
				"y": -3.6118839077,
				"z": -1.2071399874,
				"element": "H" 
			},
			{
				"x": 0.8680556816,
				"y": -1.3993759614,
				"z": -0.2183829833,
				"element": "H" 
			}
		],
		 "valence_orbital": [ 
			{
				"type": "occ",
				"energy": -0.326,
				"method": "rhf"
			},
			{
				"type": "occ",
				"energy": -0.27785,
				"method": "rhf"
			},
			{
				"type": "occ",
				"energy": -0.25863,
				"method": "rhf"
			},
			{
				"type": "occ",
				"energy": -0.24901,
				"method": "rhf"
			},
			{
				"type": "occ",
				"energy": -0.24235,
				"method": "rhf"
			},
			{
				"type": "unocc",
				"energy": -0.0224,
				"method": "rhf"
			},
			{
				"type": "unocc",
				"energy": -0.01696,
				"method": "rhf"
			},
			{
				"type": "unocc",
				"energy": -0.00389,
				"method": "rhf"
			},
			{
				"type": "unocc",
				"energy": 0.06326,
				"method": "rhf"
			},
			{
				"type": "unocc",
				"energy": 0.08086,
				"method": "rhf"
			}
		],
		"cosmo_sigma_profile": { 
			"-0.025": 0.0,
			"-0.024": 0.0,
			"-0.023": 0.0,
			"-0.022": 0.0,
			"-0.021": 0.0,
			"-0.02": 0.0,
			"-0.019": 0.0,
			"-0.018": 0.0,
			"-0.017": 0.0,
			"-0.016": 0.121005630051,
			"-0.015": 0.727401665682,
			"-0.014": 1.09475386659,
			"-0.013": 1.27257519122,
			"-0.012": 1.51665794774,
			"-0.011": 0.699075237364,
			"-0.01": 1.05773532857,
			"-0.009": 0.948315423791,
			"-0.008": 1.75689854021,
			"-0.007": 6.2473229153,
			"-0.006": 14.1509964505,
			"-0.005": 18.3614936999,
			"-0.004": 20.5327285507,
			"-0.003": 19.3634108213,
			"-0.002": 22.5042853297,
			"-0.001": 16.2289502259,
			"0.0": 11.1781153483,
			"0.001": 14.1917633966,
			"0.002": 11.7519563466,
			"0.003": 13.1455092059,
			"0.004": 18.2311933284,
			"0.005": 10.7259140127,
			"0.006": 3.24628595851,
			"0.007": 3.80837756316,
			"0.008": 2.07890794438,
			"0.009": 2.35721874942,
			"0.01": 3.89733943941,
			"0.011": 4.8424453872,
			"0.012": 5.97403944864,
			"0.013": 3.8428513598,
			"0.014": 1.60940714573,
			"0.015": 0.0361351689586,
			"0.016": 0.0,
			"0.017": 0.0,
			"0.018": 0.0,
			"0.019": 0.0,
			"0.02": 0.0,
			"0.021": 0.0,
			"0.022": 0.0,
			"0.023": 0.0,
			"0.024": 0.0,
			"0.025": 0.0
		}
	}
}
