{
	 "smiles": "CC(=O)C1=CC(=C(Cl)C=C1)S(Cl)(=O)=O", 
	 "Tm": 385.15, 
	 "num_atms": 20, 
	 "gaussian": { 
		 "optdone": 1, 
		 "sigma_profile": "yes", 
		 "theory": "DFT", 
		 "functional": "B3LYP", 
		 "basiset": "6-31G**", 
		 "properties": { 
			 "R2extent": 4206.1118, 
			 "electric_dipole_moment_norm": 2.93877186083, 
			 "electric_quadrupole_moment_norm": 19.7714630781, 
			 "total_energy": -1852.62805809, 
			 "HOMO_LUMO_gap": 0.17681, 
			 "cosmo_polarized_energy": -12.63, 
			 "cosmo_cavitation_energy": 29.9, 
			 "cosmo_dispersion_energy": -21.92, 
			 "cosmo_repulsion_energy": 1.66, 
			 "cosmo_total_nonelectrostatic_energy": 9.64, 
			 "SMD_solvation_energy": 4.36 
		},
		"coords": [
			{
				"x": -1.5739465575,
				"y": -1.321689299,
				"z": 2.9358796849,
				"element": "C" 
			},
			{
				"x": -1.9327910684,
				"y": -1.8719372288,
				"z": 1.5699809656,
				"element": "C" 
			},
			{
				"x": -2.8477987275,
				"y": -2.6651566124,
				"z": 1.424539132,
				"element": "O" 
			},
			{
				"x": -1.1382699267,
				"y": -1.4253836706,
				"z": 0.3713485052,
				"element": "C" 
			},
			{
				"x": -0.0770659164,
				"y": -0.5188757245,
				"z": 0.4664356655,
				"element": "C" 
			},
			{
				"x": 0.6288335276,
				"y": -0.1358871796,
				"z": -0.6729943304,
				"element": "C" 
			},
			{
				"x": 0.2769911901,
				"y": -0.6605193281,
				"z": -1.9299498412,
				"element": "C" 
			},
			{
				"x": 1.1142531178,
				"y": -0.2262764667,
				"z": -3.3919588968,
				"element": "Cl" 
			},
			{
				"x": -0.7838909103,
				"y": -1.5662623847,
				"z": -2.0223466329,
				"element": "C" 
			},
			{
				"x": -1.4825617523,
				"y": -1.9433815288,
				"z": -0.8836792922,
				"element": "C" 
			},
			{
				"x": 2.01285526,
				"y": 1.0381968384,
				"z": -0.5949115861,
				"element": "S" 
			},
			{
				"x": 2.1210478525,
				"y": 1.5093573033,
				"z": 1.492498721,
				"element": "Cl" 
			},
			{
				"x": 3.2507913425,
				"y": 0.3395493416,
				"z": -0.9044067129,
				"element": "O" 
			},
			{
				"x": 1.6286638189,
				"y": 2.2751510588,
				"z": -1.2572728551,
				"element": "O" 
			},
			{
				"x": -2.250017137,
				"y": -1.7532790962,
				"z": 3.6739305095,
				"element": "H" 
			},
			{
				"x": -1.6638984086,
				"y": -0.229819791,
				"z": 2.9569110823,
				"element": "H" 
			},
			{
				"x": -0.5405177447,
				"y": -1.5706180228,
				"z": 3.2018996992,
				"element": "H" 
			},
			{
				"x": 0.2056984834,
				"y": -0.1065981249,
				"z": 1.4250396234,
				"element": "H" 
			},
			{
				"x": -1.0474375751,
				"y": -1.965034367,
				"z": -2.9955313162,
				"element": "H" 
			},
			{
				"x": -2.3075388681,
				"y": -2.6452357172,
				"z": -0.9418121248,
				"element": "H" 
			}
		],
		 "valence_orbital": [ 
			{
				"type": "occ",
				"energy": -0.3307,
				"method": "rhf"
			},
			{
				"type": "occ",
				"energy": -0.32534,
				"method": "rhf"
			},
			{
				"type": "occ",
				"energy": -0.30513,
				"method": "rhf"
			},
			{
				"type": "occ",
				"energy": -0.28583,
				"method": "rhf"
			},
			{
				"type": "occ",
				"energy": -0.27559,
				"method": "rhf"
			},
			{
				"type": "unocc",
				"energy": -0.09878,
				"method": "rhf"
			},
			{
				"type": "unocc",
				"energy": -0.09201,
				"method": "rhf"
			},
			{
				"type": "unocc",
				"energy": -0.06455,
				"method": "rhf"
			},
			{
				"type": "unocc",
				"energy": -0.00955,
				"method": "rhf"
			},
			{
				"type": "unocc",
				"energy": -0.00433,
				"method": "rhf"
			}
		],
		"cosmo_sigma_profile": { 
			"-0.025": 0.0,
			"-0.024": 0.0,
			"-0.023": 0.0,
			"-0.022": 0.0,
			"-0.021": 0.0,
			"-0.02": 0.0,
			"-0.019": 0.0,
			"-0.018": 0.0,
			"-0.017": 0.0,
			"-0.016": 0.0,
			"-0.015": 0.0,
			"-0.014": 0.0,
			"-0.013": 0.0,
			"-0.012": 0.0,
			"-0.011": 0.0,
			"-0.01": 0.0728626569577,
			"-0.009": 2.47790990283,
			"-0.008": 7.46245441179,
			"-0.007": 12.1757932455,
			"-0.006": 9.30156686828,
			"-0.005": 13.1227034948,
			"-0.004": 12.9654299324,
			"-0.003": 16.1622743903,
			"-0.002": 30.3207613371,
			"-0.001": 24.0812311869,
			"0.0": 17.7673013877,
			"0.001": 14.4140756222,
			"0.002": 16.4595871803,
			"0.003": 16.324352364,
			"0.004": 7.02117379498,
			"0.005": 5.20731018327,
			"0.006": 5.49853437493,
			"0.007": 10.8985209363,
			"0.008": 12.2168356101,
			"0.009": 2.75457170328,
			"0.01": 2.63312972611,
			"0.011": 3.79220115898,
			"0.012": 1.58678038351,
			"0.013": 0.265574213416,
			"0.014": 0.0,
			"0.015": 0.0,
			"0.016": 0.0,
			"0.017": 0.0,
			"0.018": 0.0,
			"0.019": 0.0,
			"0.02": 0.0,
			"0.021": 0.0,
			"0.022": 0.0,
			"0.023": 0.0,
			"0.024": 0.0,
			"0.025": 0.0
		}
	}
}
