{
	 "smiles": "CC(Br)C(=O)NC1=C(C)C=CC=C1C", 
	 "Tm": 437.15, 
	 "num_atms": 28, 
	 "gaussian": { 
		 "optdone": 1, 
		 "sigma_profile": "yes", 
		 "theory": "DFT", 
		 "functional": "B3LYP", 
		 "basiset": "6-31G**", 
		 "properties": { 
			 "R2extent": 4439.5109, 
			 "electric_dipole_moment_norm": 3.70745742255, 
			 "electric_quadrupole_moment_norm": 13.0888860699, 
			 "total_energy": -3129.02048817, 
			 "HOMO_LUMO_gap": 0.20995, 
			 "cosmo_polarized_energy": -11.74, 
			 "cosmo_cavitation_energy": 32.48, 
			 "cosmo_dispersion_energy": -22.44, 
			 "cosmo_repulsion_energy": 1.76, 
			 "cosmo_total_nonelectrostatic_energy": 11.79, 
			 "SMD_solvation_energy": 5.56 
		},
		"coords": [
			{
				"x": 1.5178510787,
				"y": -2.6077564804,
				"z": 2.9527301969,
				"element": "C" 
			},
			{
				"x": 0.6552927612,
				"y": -1.5752790822,
				"z": 2.2525989808,
				"element": "C" 
			},
			{
				"x": -0.6882998559,
				"y": -0.8356448149,
				"z": 3.544188973,
				"element": "Br" 
			},
			{
				"x": -0.1370589189,
				"y": -2.1825175484,
				"z": 1.0902125018,
				"element": "C" 
			},
			{
				"x": -0.5163348856,
				"y": -3.34389096,
				"z": 1.1179151193,
				"element": "O" 
			},
			{
				"x": -0.397900647,
				"y": -1.3680593692,
				"z": 0.0144798186,
				"element": "N" 
			},
			{
				"x": -0.0162769612,
				"y": -0.0042921489,
				"z": -0.2101405455,
				"element": "C" 
			},
			{
				"x": -0.9918957979,
				"y": 1.00419796,
				"z": -0.0776478656,
				"element": "C" 
			},
			{
				"x": -2.4065103701,
				"y": 0.6659553393,
				"z": 0.3241938273,
				"element": "C" 
			},
			{
				"x": -0.6162159548,
				"y": 2.3275104165,
				"z": -0.3325119213,
				"element": "C" 
			},
			{
				"x": 0.6881872103,
				"y": 2.6421605411,
				"z": -0.7087743524,
				"element": "C" 
			},
			{
				"x": 1.6349224529,
				"y": 1.6309642179,
				"z": -0.8542919721,
				"element": "C" 
			},
			{
				"x": 1.29910993,
				"y": 0.2915720234,
				"z": -0.6214600305,
				"element": "C" 
			},
			{
				"x": 2.3264853772,
				"y": -0.797284716,
				"z": -0.8250697669,
				"element": "C" 
			},
			{
				"x": 0.9146354387,
				"y": -3.4714787393,
				"z": 3.2352062475,
				"element": "H" 
			},
			{
				"x": 1.9949536947,
				"y": -2.1826578849,
				"z": 3.8379149687,
				"element": "H" 
			},
			{
				"x": 2.2995927512,
				"y": -2.9520072455,
				"z": 2.2646063246,
				"element": "H" 
			},
			{
				"x": 1.2133294718,
				"y": -0.6911794281,
				"z": 1.9517983201,
				"element": "H" 
			},
			{
				"x": -1.0053493546,
				"y": -1.8138016717,
				"z": -0.6643299695,
				"element": "H" 
			},
			{
				"x": -3.0084468498,
				"y": 1.5730907825,
				"z": 0.4195474064,
				"element": "H" 
			},
			{
				"x": -2.8954406997,
				"y": 0.0196441011,
				"z": -0.4148163723,
				"element": "H" 
			},
			{
				"x": -2.4279832792,
				"y": 0.1349669674,
				"z": 1.2807096407,
				"element": "H" 
			},
			{
				"x": -1.3567322413,
				"y": 3.1159419045,
				"z": -0.2299051171,
				"element": "H" 
			},
			{
				"x": 0.9642430878,
				"y": 3.6754060942,
				"z": -0.8987288939,
				"element": "H" 
			},
			{
				"x": 2.6462750861,
				"y": 1.8753909745,
				"z": -1.167741771,
				"element": "H" 
			},
			{
				"x": 2.7229820316,
				"y": -1.1760801938,
				"z": 0.1252144356,
				"element": "H" 
			},
			{
				"x": 1.9021907014,
				"y": -1.6555415539,
				"z": -1.3540341151,
				"element": "H" 
			},
			{
				"x": 3.1757947423,
				"y": -0.4212294853,
				"z": -1.4010640681,
				"element": "H" 
			}
		],
		 "valence_orbital": [ 
			{
				"type": "occ",
				"energy": -0.27699,
				"method": "rhf"
			},
			{
				"type": "occ",
				"energy": -0.2711,
				"method": "rhf"
			},
			{
				"type": "occ",
				"energy": -0.25771,
				"method": "rhf"
			},
			{
				"type": "occ",
				"energy": -0.24802,
				"method": "rhf"
			},
			{
				"type": "occ",
				"energy": -0.24462,
				"method": "rhf"
			},
			{
				"type": "unocc",
				"energy": -0.03467,
				"method": "rhf"
			},
			{
				"type": "unocc",
				"energy": -0.01605,
				"method": "rhf"
			},
			{
				"type": "unocc",
				"energy": -0.0074,
				"method": "rhf"
			},
			{
				"type": "unocc",
				"energy": 0.0522,
				"method": "rhf"
			},
			{
				"type": "unocc",
				"energy": 0.07795,
				"method": "rhf"
			}
		],
		"cosmo_sigma_profile": { 
			"-0.025": 0.0,
			"-0.024": 0.0,
			"-0.023": 0.0,
			"-0.022": 0.0,
			"-0.021": 0.0,
			"-0.02": 0.0,
			"-0.019": 0.0,
			"-0.018": 0.0,
			"-0.017": 0.0,
			"-0.016": 0.0,
			"-0.015": 0.0,
			"-0.014": 0.652568251343,
			"-0.013": 0.965735446416,
			"-0.012": 1.11897349776,
			"-0.011": 0.620009030974,
			"-0.01": 1.15226522849,
			"-0.009": 1.37889900367,
			"-0.008": 1.27469388282,
			"-0.007": 3.72732853796,
			"-0.006": 7.78912566676,
			"-0.005": 18.2254756124,
			"-0.004": 21.7585054997,
			"-0.003": 22.5744339783,
			"-0.002": 23.3692361265,
			"-0.001": 26.0350451061,
			"0.0": 27.5602038585,
			"0.001": 17.1568822034,
			"0.002": 12.8090421995,
			"0.003": 14.8159860228,
			"0.004": 13.7609299832,
			"0.005": 16.7875873089,
			"0.006": 8.43521266791,
			"0.007": 1.52466792421,
			"0.008": 1.32862359511,
			"0.009": 1.47555406052,
			"0.01": 1.99541562533,
			"0.011": 1.26531434738,
			"0.012": 2.95024680984,
			"0.013": 5.55679503435,
			"0.014": 0.973919343785,
			"0.015": 0.0,
			"0.016": 0.0,
			"0.017": 0.0,
			"0.018": 0.0,
			"0.019": 0.0,
			"0.02": 0.0,
			"0.021": 0.0,
			"0.022": 0.0,
			"0.023": 0.0,
			"0.024": 0.0,
			"0.025": 0.0
		}
	}
}
