{
	 "smiles": "CN1C(C(CCC1=O)C(O)=O)C1=CC=C(C=C1)C(F)(F)F", 
	 "Tm": 462.15, 
	 "num_atms": 35, 
	 "gaussian": { 
		 "optdone": 1, 
		 "sigma_profile": "yes", 
		 "theory": "DFT", 
		 "functional": "B3LYP", 
		 "basiset": "6-31G**", 
		 "properties": { 
			 "R2extent": 7109.5209, 
			 "electric_dipole_moment_norm": 3.92804130706, 
			 "electric_quadrupole_moment_norm": 23.2897674323, 
			 "total_energy": -1121.90218657, 
			 "HOMO_LUMO_gap": 0.21184, 
			 "cosmo_polarized_energy": -24.0, 
			 "cosmo_cavitation_energy": 38.64, 
			 "cosmo_dispersion_energy": -26.25, 
			 "cosmo_repulsion_energy": 1.94, 
			 "cosmo_total_nonelectrostatic_energy": 14.33, 
			 "SMD_solvation_energy": 8.82 
		},
		"coords": [
			{
				"x": 1.0316947756,
				"y": -0.4972434545,
				"z": 2.9065273958,
				"element": "C" 
			},
			{
				"x": -0.1249228098,
				"y": 0.0281775376,
				"z": 2.1850526442,
				"element": "N" 
			},
			{
				"x": -0.4598419206,
				"y": -0.6552281217,
				"z": 0.9349936634,
				"element": "C" 
			},
			{
				"x": -1.944039091,
				"y": -0.3649506591,
				"z": 0.5564694528,
				"element": "C" 
			},
			{
				"x": -2.1843814882,
				"y": 1.1411708067,
				"z": 0.501061335,
				"element": "C" 
			},
			{
				"x": -1.9187504982,
				"y": 1.7382238609,
				"z": 1.8843642588,
				"element": "C" 
			},
			{
				"x": -0.6951066198,
				"y": 1.2089914802,
				"z": 2.6283185493,
				"element": "C" 
			},
			{
				"x": -0.2785972803,
				"y": 1.7948881446,
				"z": 3.6203793579,
				"element": "O" 
			},
			{
				"x": -2.3555824265,
				"y": -1.0655991251,
				"z": -0.7375886737,
				"element": "C" 
			},
			{
				"x": -2.3924321202,
				"y": -2.4294416646,
				"z": -0.6799133677,
				"element": "O" 
			},
			{
				"x": -2.6369330915,
				"y": -0.499835662,
				"z": -1.7612110525,
				"element": "O" 
			},
			{
				"x": 0.5322545978,
				"y": -0.349487947,
				"z": -0.1939551752,
				"element": "C" 
			},
			{
				"x": 1.2104193186,
				"y": 0.8736304026,
				"z": -0.2660186027,
				"element": "C" 
			},
			{
				"x": 2.0978436853,
				"y": 1.1363612319,
				"z": -1.3082147011,
				"element": "C" 
			},
			{
				"x": 2.3213688277,
				"y": 0.1734726872,
				"z": -2.2939717476,
				"element": "C" 
			},
			{
				"x": 1.657065054,
				"y": -1.0534152731,
				"z": -2.2307153264,
				"element": "C" 
			},
			{
				"x": 0.7749026774,
				"y": -1.3110455205,
				"z": -1.1846770958,
				"element": "C" 
			},
			{
				"x": 3.3262976848,
				"y": 0.4310326382,
				"z": -3.3845659078,
				"element": "C" 
			},
			{
				"x": 3.0172267895,
				"y": -0.23206156,
				"z": -4.5197216183,
				"element": "F" 
			},
			{
				"x": 3.4128982957,
				"y": 1.7445188096,
				"z": -3.687721019,
				"element": "F" 
			},
			{
				"x": 4.5669700413,
				"y": 0.0293722213,
				"z": -3.020132806,
				"element": "F" 
			},
			{
				"x": 0.865415499,
				"y": -1.5492909126,
				"z": 3.1665546676,
				"element": "H" 
			},
			{
				"x": 1.1570473019,
				"y": 0.0911396601,
				"z": 3.8135888206,
				"element": "H" 
			},
			{
				"x": 1.9419306067,
				"y": -0.4274577404,
				"z": 2.3002217394,
				"element": "H" 
			},
			{
				"x": -0.3743901374,
				"y": -1.7316455909,
				"z": 1.1438896898,
				"element": "H" 
			},
			{
				"x": -2.5547347538,
				"y": -0.7908394116,
				"z": 1.3678516099,
				"element": "H" 
			},
			{
				"x": -1.5283994222,
				"y": 1.5806919814,
				"z": -0.2561377728,
				"element": "H" 
			},
			{
				"x": -3.2075546011,
				"y": 1.3498550236,
				"z": 0.1772417386,
				"element": "H" 
			},
			{
				"x": -1.8132038231,
				"y": 2.8256476274,
				"z": 1.8472926561,
				"element": "H" 
			},
			{
				"x": -2.7699771493,
				"y": 1.5433459634,
				"z": 2.55018848,
				"element": "H" 
			},
			{
				"x": -2.217269619,
				"y": -2.7359356928,
				"z": 0.2213372813,
				"element": "H" 
			},
			{
				"x": 1.0588785353,
				"y": 1.623109399,
				"z": 0.5039147282,
				"element": "H" 
			},
			{
				"x": 2.6131658846,
				"y": 2.0894916395,
				"z": -1.3572401724,
				"element": "H" 
			},
			{
				"x": 1.8271444313,
				"y": -1.8010811931,
				"z": -2.9976482426,
				"element": "H" 
			},
			{
				"x": 0.260392845,
				"y": -2.2670615865,
				"z": -1.1500147872,
				"element": "H" 
			}
		],
		 "valence_orbital": [ 
			{
				"type": "occ",
				"energy": -0.28844,
				"method": "rhf"
			},
			{
				"type": "occ",
				"energy": -0.2757,
				"method": "rhf"
			},
			{
				"type": "occ",
				"energy": -0.27437,
				"method": "rhf"
			},
			{
				"type": "occ",
				"energy": -0.25669,
				"method": "rhf"
			},
			{
				"type": "occ",
				"energy": -0.25303,
				"method": "rhf"
			},
			{
				"type": "unocc",
				"energy": -0.04119,
				"method": "rhf"
			},
			{
				"type": "unocc",
				"energy": -0.03034,
				"method": "rhf"
			},
			{
				"type": "unocc",
				"energy": -0.008,
				"method": "rhf"
			},
			{
				"type": "unocc",
				"energy": 0.01316,
				"method": "rhf"
			},
			{
				"type": "unocc",
				"energy": 0.02464,
				"method": "rhf"
			}
		],
		"cosmo_sigma_profile": { 
			"-0.025": 0.0,
			"-0.024": 0.0,
			"-0.023": 0.0,
			"-0.022": 0.0,
			"-0.021": 0.0,
			"-0.02": 0.0236013043416,
			"-0.019": 0.662873709639,
			"-0.018": 1.45265895372,
			"-0.017": 1.42031488572,
			"-0.016": 1.34484464182,
			"-0.015": 1.54975117674,
			"-0.014": 0.817588015627,
			"-0.013": 0.965855643223,
			"-0.012": 1.80213736312,
			"-0.011": 1.50524227883,
			"-0.01": 1.3558033883,
			"-0.009": 2.55376793298,
			"-0.008": 3.21404672057,
			"-0.007": 9.94104112324,
			"-0.006": 15.9733014875,
			"-0.005": 19.2120609919,
			"-0.004": 20.5807217077,
			"-0.003": 20.9210802916,
			"-0.002": 24.0842628347,
			"-0.001": 18.527010075,
			"0.0": 15.3700712423,
			"0.001": 18.625460873,
			"0.002": 29.1902357079,
			"0.003": 38.3316416704,
			"0.004": 7.35392292179,
			"0.005": 4.07881209309,
			"0.006": 3.60907459928,
			"0.007": 3.91838620432,
			"0.008": 4.31271344984,
			"0.009": 5.1484398549,
			"0.01": 5.95579317467,
			"0.011": 6.72352449865,
			"0.012": 5.70060141055,
			"0.013": 3.8791722219,
			"0.014": 4.22477020343,
			"0.015": 1.3153163256,
			"0.016": 0.0073633202685,
			"0.017": 0.0,
			"0.018": 0.0,
			"0.019": 0.0,
			"0.02": 0.0,
			"0.021": 0.0,
			"0.022": 0.0,
			"0.023": 0.0,
			"0.024": 0.0,
			"0.025": 0.0
		}
	}
}
