{
	 "smiles": "[O-][N+](=O)C1=C(Cl)SC(Cl)=C1[N+]([O-])=O", 
	 "Tm": 360.15, 
	 "num_atms": 13, 
	 "gaussian": { 
		 "optdone": 1, 
		 "sigma_profile": "yes", 
		 "theory": "DFT", 
		 "functional": "B3LYP", 
		 "basiset": "6-31G**", 
		 "properties": { 
			 "R2extent": 3418.8849, 
			 "electric_dipole_moment_norm": 5.4754950315, 
			 "electric_quadrupole_moment_norm": 6.81561573667, 
			 "total_energy": -1881.12350908, 
			 "HOMO_LUMO_gap": 0.17394, 
			 "cosmo_polarized_energy": -10.93, 
			 "cosmo_cavitation_energy": 25.16, 
			 "cosmo_dispersion_energy": -18.79, 
			 "cosmo_repulsion_energy": 1.45, 
			 "cosmo_total_nonelectrostatic_energy": 7.83, 
			 "SMD_solvation_energy": 8.21 
		},
		"coords": [
			{
				"x": 0.9917128571,
				"y": 2.3251344195,
				"z": -2.195449458,
				"element": "O" 
			},
			{
				"x": 0.2744674103,
				"y": 1.335164724,
				"z": -2.0955957395,
				"element": "N" 
			},
			{
				"x": -0.1980220052,
				"y": 0.6782693303,
				"z": -3.0156650577,
				"element": "O" 
			},
			{
				"x": -0.0735143716,
				"y": 0.9294763882,
				"z": -0.7348386923,
				"element": "C" 
			},
			{
				"x": -1.336719066,
				"y": 0.5636447846,
				"z": -0.3546830921,
				"element": "C" 
			},
			{
				"x": -2.7487030259,
				"y": 0.4133064001,
				"z": -1.310210729,
				"element": "Cl" 
			},
			{
				"x": -1.4437623511,
				"y": 0.3318335583,
				"z": 1.3712408283,
				"element": "S" 
			},
			{
				"x": 0.241487206,
				"y": 0.7367137585,
				"z": 1.5713458744,
				"element": "C" 
			},
			{
				"x": 0.9490438913,
				"y": 0.6367111889,
				"z": 3.1265662627,
				"element": "Cl" 
			},
			{
				"x": 0.8333172603,
				"y": 1.0299126713,
				"z": 0.3722467898,
				"element": "C" 
			},
			{
				"x": 2.2687786945,
				"y": 1.257806097,
				"z": 0.2146401229,
				"element": "N" 
			},
			{
				"x": 2.7983612207,
				"y": 0.7107847747,
				"z": -0.7470054548,
				"element": "O" 
			},
			{
				"x": 2.8250522796,
				"y": 1.9440419045,
				"z": 1.0637083451,
				"element": "O" 
			}
		],
		 "valence_orbital": [ 
			{
				"type": "occ",
				"energy": -0.3285,
				"method": "rhf"
			},
			{
				"type": "occ",
				"energy": -0.32348,
				"method": "rhf"
			},
			{
				"type": "occ",
				"energy": -0.32244,
				"method": "rhf"
			},
			{
				"type": "occ",
				"energy": -0.30381,
				"method": "rhf"
			},
			{
				"type": "occ",
				"energy": -0.28315,
				"method": "rhf"
			},
			{
				"type": "unocc",
				"energy": -0.10921,
				"method": "rhf"
			},
			{
				"type": "unocc",
				"energy": -0.10842,
				"method": "rhf"
			},
			{
				"type": "unocc",
				"energy": -0.06638,
				"method": "rhf"
			},
			{
				"type": "unocc",
				"energy": -0.04393,
				"method": "rhf"
			},
			{
				"type": "unocc",
				"energy": -0.04098,
				"method": "rhf"
			}
		],
		"cosmo_sigma_profile": { 
			"-0.025": 0.0,
			"-0.024": 0.0,
			"-0.023": 0.0,
			"-0.022": 0.0,
			"-0.021": 0.0,
			"-0.02": 0.0,
			"-0.019": 0.0,
			"-0.018": 0.0,
			"-0.017": 0.0,
			"-0.016": 0.0,
			"-0.015": 0.0,
			"-0.014": 0.0,
			"-0.013": 0.0,
			"-0.012": 0.0,
			"-0.011": 0.000638618033156,
			"-0.01": 0.626000573139,
			"-0.009": 1.52499696457,
			"-0.008": 1.30578702191,
			"-0.007": 4.97384617514,
			"-0.006": 14.8621096939,
			"-0.005": 17.8404018515,
			"-0.004": 17.7137638951,
			"-0.003": 17.2096642458,
			"-0.002": 16.0155422067,
			"-0.001": 14.5007001996,
			"0.0": 16.7022813827,
			"0.001": 14.8341940679,
			"0.002": 6.52409516545,
			"0.003": 6.71039491646,
			"0.004": 7.08036584144,
			"0.005": 11.3019339602,
			"0.006": 20.7942960836,
			"0.007": 12.0664052804,
			"0.008": 6.81600975158,
			"0.009": 1.2786173948,
			"0.01": 0.0,
			"0.011": 0.0,
			"0.012": 0.0,
			"0.013": 0.0,
			"0.014": 0.0,
			"0.015": 0.0,
			"0.016": 0.0,
			"0.017": 0.0,
			"0.018": 0.0,
			"0.019": 0.0,
			"0.02": 0.0,
			"0.021": 0.0,
			"0.022": 0.0,
			"0.023": 0.0,
			"0.024": 0.0,
			"0.025": 0.0
		}
	}
}
