{
	 "smiles": "CC1=CC(=CC=C1)C(=O)NCC(O)=O", 
	 "Tm": 413.15, 
	 "num_atms": 25, 
	 "gaussian": { 
		 "optdone": 1, 
		 "sigma_profile": "yes", 
		 "theory": "DFT", 
		 "functional": "B3LYP", 
		 "basiset": "6-31G**", 
		 "properties": { 
			 "R2extent": 5880.7078, 
			 "electric_dipole_moment_norm": 4.63352713707, 
			 "electric_quadrupole_moment_norm": 10.1331555707, 
			 "total_energy": -668.153251056, 
			 "HOMO_LUMO_gap": 0.20788, 
			 "cosmo_polarized_energy": -17.18, 
			 "cosmo_cavitation_energy": 30.01, 
			 "cosmo_dispersion_energy": -21.47, 
			 "cosmo_repulsion_energy": 1.72, 
			 "cosmo_total_nonelectrostatic_energy": 10.26, 
			 "SMD_solvation_energy": 6.67 
		},
		"coords": [
			{
				"x": 4.6933000294,
				"y": 2.0585187829,
				"z": 2.2632520369,
				"element": "C" 
			},
			{
				"x": 4.3445167181,
				"y": 1.0603576016,
				"z": 1.1836513153,
				"element": "C" 
			},
			{
				"x": 3.0785394337,
				"y": 1.0513887658,
				"z": 0.5893453024,
				"element": "C" 
			},
			{
				"x": 2.7418657406,
				"y": 0.1116249791,
				"z": -0.3963863168,
				"element": "C" 
			},
			{
				"x": 3.6845304435,
				"y": -0.8481399715,
				"z": -0.7813691254,
				"element": "C" 
			},
			{
				"x": 4.9528723296,
				"y": -0.8437933817,
				"z": -0.2048862637,
				"element": "C" 
			},
			{
				"x": 5.2805908133,
				"y": 0.1034461369,
				"z": 0.7651921114,
				"element": "C" 
			},
			{
				"x": 1.3965726084,
				"y": 0.05922951,
				"z": -1.0603696871,
				"element": "C" 
			},
			{
				"x": 0.9851423367,
				"y": -0.9558744627,
				"z": -1.6133915868,
				"element": "O" 
			},
			{
				"x": 0.6455697177,
				"y": 1.2140948367,
				"z": -0.9995769699,
				"element": "N" 
			},
			{
				"x": -0.6036655079,
				"y": 1.3110151311,
				"z": -1.7175872005,
				"element": "C" 
			},
			{
				"x": -0.5890746756,
				"y": 2.1758723512,
				"z": -2.970505674,
				"element": "C" 
			},
			{
				"x": 0.6335159451,
				"y": 2.6812580457,
				"z": -3.2548949001,
				"element": "O" 
			},
			{
				"x": -1.5721976895,
				"y": 2.4019634196,
				"z": -3.6374000677,
				"element": "O" 
			},
			{
				"x": 4.823879635,
				"y": 1.5651707098,
				"z": 3.2336677017,
				"element": "H" 
			},
			{
				"x": 5.631073042,
				"y": 2.578035569,
				"z": 2.0380974934,
				"element": "H" 
			},
			{
				"x": 3.9110116689,
				"y": 2.813746324,
				"z": 2.3794107247,
				"element": "H" 
			},
			{
				"x": 2.3384338555,
				"y": 1.7690199942,
				"z": 0.9345535048,
				"element": "H" 
			},
			{
				"x": 3.4021416219,
				"y": -1.5809036731,
				"z": -1.5291598854,
				"element": "H" 
			},
			{
				"x": 5.6893624231,
				"y": -1.5812903731,
				"z": -0.5107648768,
				"element": "H" 
			},
			{
				"x": 6.2724205071,
				"y": 0.0974266345,
				"z": 1.2111592144,
				"element": "H" 
			},
			{
				"x": 1.1270696545,
				"y": 2.0741254981,
				"z": -0.7849044205,
				"element": "H" 
			},
			{
				"x": -1.4081895499,
				"y": 1.6937241242,
				"z": -1.078962173,
				"element": "H" 
			},
			{
				"x": -0.8796703542,
				"y": 0.2969918355,
				"z": -2.0210119212,
				"element": "H" 
			},
			{
				"x": 0.524489253,
				"y": 3.2040916123,
				"z": -4.0673583359,
				"element": "H" 
			}
		],
		 "valence_orbital": [ 
			{
				"type": "occ",
				"energy": -0.29579,
				"method": "rhf"
			},
			{
				"type": "occ",
				"energy": -0.26339,
				"method": "rhf"
			},
			{
				"type": "occ",
				"energy": -0.25702,
				"method": "rhf"
			},
			{
				"type": "occ",
				"energy": -0.25351,
				"method": "rhf"
			},
			{
				"type": "occ",
				"energy": -0.24638,
				"method": "rhf"
			},
			{
				"type": "unocc",
				"energy": -0.0385,
				"method": "rhf"
			},
			{
				"type": "unocc",
				"energy": -0.00743,
				"method": "rhf"
			},
			{
				"type": "unocc",
				"energy": 0.00357,
				"method": "rhf"
			},
			{
				"type": "unocc",
				"energy": 0.05469,
				"method": "rhf"
			},
			{
				"type": "unocc",
				"energy": 0.06607,
				"method": "rhf"
			}
		],
		"cosmo_sigma_profile": { 
			"-0.025": 0.0,
			"-0.024": 0.0,
			"-0.023": 0.0,
			"-0.022": 0.0,
			"-0.021": 0.0,
			"-0.02": 0.0,
			"-0.019": 0.155091066345,
			"-0.018": 1.00401851701,
			"-0.017": 0.923248861841,
			"-0.016": 0.841188003634,
			"-0.015": 0.434953943875,
			"-0.014": 1.46844293651,
			"-0.013": 1.05906918387,
			"-0.012": 2.38176636794,
			"-0.011": 2.41306921059,
			"-0.01": 1.78587351458,
			"-0.009": 1.54803038245,
			"-0.008": 3.63170758942,
			"-0.007": 6.54715294385,
			"-0.006": 9.66885474588,
			"-0.005": 13.328654818,
			"-0.004": 20.148979249,
			"-0.003": 16.5988508543,
			"-0.002": 16.4071831258,
			"-0.001": 16.3857596804,
			"0.0": 19.0181837974,
			"0.001": 14.4818451897,
			"0.002": 12.8320086681,
			"0.003": 13.7890114241,
			"0.004": 14.9943111148,
			"0.005": 10.2245818826,
			"0.006": 4.45308376682,
			"0.007": 3.57116747592,
			"0.008": 2.82554163318,
			"0.009": 3.65170584802,
			"0.01": 3.26865004044,
			"0.011": 6.22822751726,
			"0.012": 6.2460597736,
			"0.013": 4.50319797298,
			"0.014": 1.42827803383,
			"0.015": 0.0,
			"0.016": 0.0,
			"0.017": 0.0,
			"0.018": 0.0,
			"0.019": 0.0,
			"0.02": 0.0,
			"0.021": 0.0,
			"0.022": 0.0,
			"0.023": 0.0,
			"0.024": 0.0,
			"0.025": 0.0
		}
	}
}
