{
	 "smiles": "CCCCC=CCC", 
	 "Tm": 163.15, 
	 "num_atms": 24, 
	 "gaussian": { 
		 "optdone": 1, 
		 "sigma_profile": "yes", 
		 "theory": "DFT", 
		 "functional": "B3LYP", 
		 "basiset": "6-31G**", 
		 "properties": { 
			 "R2extent": 2150.0807, 
			 "electric_dipole_moment_norm": 0.158397316896, 
			 "electric_quadrupole_moment_norm": 1.79676351532, 
			 "total_energy": -314.495949036, 
			 "HOMO_LUMO_gap": 0.26665, 
			 "cosmo_polarized_energy": -1.46, 
			 "cosmo_cavitation_energy": 25.67, 
			 "cosmo_dispersion_energy": -18.34, 
			 "cosmo_repulsion_energy": 1.58, 
			 "cosmo_total_nonelectrostatic_energy": 8.91, 
			 "SMD_solvation_energy": 4.23 
		},
		"coords": [
			{
				"x": -1.8185468728,
				"y": -0.5842870142,
				"z": -2.8375986509,
				"element": "C" 
			},
			{
				"x": -1.3923364851,
				"y": -1.1020974461,
				"z": -1.4598609911,
				"element": "C" 
			},
			{
				"x": -0.1493032529,
				"y": -1.9999798592,
				"z": -1.5180984529,
				"element": "C" 
			},
			{
				"x": 0.2781484411,
				"y": -2.5996775022,
				"z": -0.1604710381,
				"element": "C" 
			},
			{
				"x": 0.7163373271,
				"y": -1.5808152455,
				"z": 0.8593986157,
				"element": "C" 
			},
			{
				"x": 1.9587270423,
				"y": -1.4789717514,
				"z": 1.3410275871,
				"element": "C" 
			},
			{
				"x": 2.4615532125,
				"y": -0.4801619833,
				"z": 2.3528964587,
				"element": "C" 
			},
			{
				"x": 1.4316187752,
				"y": 0.5247622446,
				"z": 2.873483524,
				"element": "C" 
			},
			{
				"x": -1.0208907926,
				"y": 0.0066399964,
				"z": -3.30224032,
				"element": "H" 
			},
			{
				"x": -2.0530902877,
				"y": -1.4118161576,
				"z": -3.5171046869,
				"element": "H" 
			},
			{
				"x": -2.7069389304,
				"y": 0.052358488,
				"z": -2.76998818,
				"element": "H" 
			},
			{
				"x": -2.2218570824,
				"y": -1.6626904951,
				"z": -1.0065170916,
				"element": "H" 
			},
			{
				"x": -1.2025578615,
				"y": -0.2487205392,
				"z": -0.7967751426,
				"element": "H" 
			},
			{
				"x": 0.6916267569,
				"y": -1.4309114311,
				"z": -1.9368610844,
				"element": "H" 
			},
			{
				"x": -0.342155854,
				"y": -2.825836249,
				"z": -2.2168350269,
				"element": "H" 
			},
			{
				"x": 1.0934982213,
				"y": -3.3139217921,
				"z": -0.3287264594,
				"element": "H" 
			},
			{
				"x": -0.5655931508,
				"y": -3.1808015326,
				"z": 0.2418401198,
				"element": "H" 
			},
			{
				"x": -0.048002284,
				"y": -0.8885598076,
				"z": 1.2099336101,
				"element": "H" 
			},
			{
				"x": 2.7099196581,
				"y": -2.1856795544,
				"z": 0.9815927478,
				"element": "H" 
			},
			{
				"x": 2.8938526117,
				"y": -1.0316843902,
				"z": 3.2013766695,
				"element": "H" 
			},
			{
				"x": 3.3106770045,
				"y": 0.0634220746,
				"z": 1.9119535475,
				"element": "H" 
			},
			{
				"x": 1.0179566756,
				"y": 1.1296520874,
				"z": 2.0596709068,
				"element": "H" 
			},
			{
				"x": 1.8883699378,
				"y": 1.2064279179,
				"z": 3.5975696447,
				"element": "H" 
			},
			{
				"x": 0.5970871902,
				"y": 0.0193499419,
				"z": 3.3708336928,
				"element": "H" 
			}
		],
		 "valence_orbital": [ 
			{
				"type": "occ",
				"energy": -0.337,
				"method": "rhf"
			},
			{
				"type": "occ",
				"energy": -0.32585,
				"method": "rhf"
			},
			{
				"type": "occ",
				"energy": -0.31444,
				"method": "rhf"
			},
			{
				"type": "occ",
				"energy": -0.3092,
				"method": "rhf"
			},
			{
				"type": "occ",
				"energy": -0.23425,
				"method": "rhf"
			},
			{
				"type": "unocc",
				"energy": 0.0324,
				"method": "rhf"
			},
			{
				"type": "unocc",
				"energy": 0.1015,
				"method": "rhf"
			},
			{
				"type": "unocc",
				"energy": 0.10895,
				"method": "rhf"
			},
			{
				"type": "unocc",
				"energy": 0.11212,
				"method": "rhf"
			},
			{
				"type": "unocc",
				"energy": 0.12499,
				"method": "rhf"
			}
		],
		"cosmo_sigma_profile": { 
			"-0.025": 0.0,
			"-0.024": 0.0,
			"-0.023": 0.0,
			"-0.022": 0.0,
			"-0.021": 0.0,
			"-0.02": 0.0,
			"-0.019": 0.0,
			"-0.018": 0.0,
			"-0.017": 0.0,
			"-0.016": 0.0,
			"-0.015": 0.0,
			"-0.014": 0.0,
			"-0.013": 0.0,
			"-0.012": 0.0,
			"-0.011": 0.0,
			"-0.01": 0.0,
			"-0.009": 0.0,
			"-0.008": 0.0,
			"-0.007": 0.0,
			"-0.006": 0.0,
			"-0.005": 0.0,
			"-0.004": 0.59586644218,
			"-0.003": 12.8880059699,
			"-0.002": 33.4635722791,
			"-0.001": 39.8991230228,
			"0.0": 42.3025810115,
			"0.001": 35.0129838087,
			"0.002": 17.1932141104,
			"0.003": 4.73127239237,
			"0.004": 3.702580086,
			"0.005": 3.24663523778,
			"0.006": 2.09417499001,
			"0.007": 2.19754475061,
			"0.008": 0.650936114638,
			"0.009": 0.0,
			"0.01": 0.0,
			"0.011": 0.0,
			"0.012": 0.0,
			"0.013": 0.0,
			"0.014": 0.0,
			"0.015": 0.0,
			"0.016": 0.0,
			"0.017": 0.0,
			"0.018": 0.0,
			"0.019": 0.0,
			"0.02": 0.0,
			"0.021": 0.0,
			"0.022": 0.0,
			"0.023": 0.0,
			"0.024": 0.0,
			"0.025": 0.0
		}
	}
}
