{
	 "smiles": "COC1=C(S)C=CC(C=O)=C1", 
	 "Tm": 317.15, 
	 "num_atms": 19, 
	 "gaussian": { 
		 "optdone": 1, 
		 "sigma_profile": "yes", 
		 "theory": "DFT", 
		 "functional": "B3LYP", 
		 "basiset": "6-31G**", 
		 "properties": { 
			 "R2extent": 2493.3646, 
			 "electric_dipole_moment_norm": 1.83417074451, 
			 "electric_quadrupole_moment_norm": 15.193225102, 
			 "total_energy": -858.286532079, 
			 "HOMO_LUMO_gap": 0.15963, 
			 "cosmo_polarized_energy": -9.42, 
			 "cosmo_cavitation_energy": 24.97, 
			 "cosmo_dispersion_energy": -18.71, 
			 "cosmo_repulsion_energy": 1.45, 
			 "cosmo_total_nonelectrostatic_energy": 7.72, 
			 "SMD_solvation_energy": 5.57 
		},
		"coords": [
			{
				"x": -1.7384798976,
				"y": 1.8772640815,
				"z": 0.1613760631,
				"element": "C" 
			},
			{
				"x": -0.5883821568,
				"y": 1.8627026307,
				"z": -0.6764585451,
				"element": "O" 
			},
			{
				"x": 0.2275088083,
				"y": 0.7699538547,
				"z": -0.6387928171,
				"element": "C" 
			},
			{
				"x": 1.3591829185,
				"y": 0.8087269677,
				"z": -1.4945354455,
				"element": "C" 
			},
			{
				"x": 1.6919994146,
				"y": 2.1962061698,
				"z": -2.5497828,
				"element": "S" 
			},
			{
				"x": 2.2431159267,
				"y": -0.2747584055,
				"z": -1.5123686849,
				"element": "C" 
			},
			{
				"x": 2.0236329851,
				"y": -1.3855026775,
				"z": -0.7019836802,
				"element": "C" 
			},
			{
				"x": 0.9090956369,
				"y": -1.4224264235,
				"z": 0.1400117603,
				"element": "C" 
			},
			{
				"x": 0.664123936,
				"y": -2.5930227296,
				"z": 1.0040682507,
				"element": "C" 
			},
			{
				"x": -0.2800077543,
				"y": -2.706656441,
				"z": 1.7657195772,
				"element": "O" 
			},
			{
				"x": 0.0129807357,
				"y": -0.3409123841,
				"z": 0.1679709924,
				"element": "C" 
			},
			{
				"x": -1.4615233092,
				"y": 1.8155342231,
				"z": 1.2204416324,
				"element": "H" 
			},
			{
				"x": -2.2350339003,
				"y": 2.8292328459,
				"z": -0.0292386191,
				"element": "H" 
			},
			{
				"x": -2.4205795386,
				"y": 1.0543175339,
				"z": -0.0828273921,
				"element": "H" 
			},
			{
				"x": 0.6168160945,
				"y": 2.9150886758,
				"z": -2.1808070842,
				"element": "H" 
			},
			{
				"x": 3.1076134981,
				"y": -0.2406269352,
				"z": -2.1687930711,
				"element": "H" 
			},
			{
				"x": 2.716700944,
				"y": -2.2223429766,
				"z": -0.7234008703,
				"element": "H" 
			},
			{
				"x": 1.4254552351,
				"y": -3.3998359285,
				"z": 0.9152239847,
				"element": "H" 
			},
			{
				"x": -0.8379195768,
				"y": -0.4106420813,
				"z": 0.8351767489,
				"element": "H" 
			}
		],
		 "valence_orbital": [ 
			{
				"type": "occ",
				"energy": -0.33535,
				"method": "rhf"
			},
			{
				"type": "occ",
				"energy": -0.30326,
				"method": "rhf"
			},
			{
				"type": "occ",
				"energy": -0.25358,
				"method": "rhf"
			},
			{
				"type": "occ",
				"energy": -0.25053,
				"method": "rhf"
			},
			{
				"type": "occ",
				"energy": -0.222,
				"method": "rhf"
			},
			{
				"type": "unocc",
				"energy": -0.06237,
				"method": "rhf"
			},
			{
				"type": "unocc",
				"energy": -0.00662,
				"method": "rhf"
			},
			{
				"type": "unocc",
				"energy": 0.02159,
				"method": "rhf"
			},
			{
				"type": "unocc",
				"energy": 0.03992,
				"method": "rhf"
			},
			{
				"type": "unocc",
				"energy": 0.06278,
				"method": "rhf"
			}
		],
		"cosmo_sigma_profile": { 
			"-0.025": 0.0,
			"-0.024": 0.0,
			"-0.023": 0.0,
			"-0.022": 0.0,
			"-0.021": 0.0,
			"-0.02": 0.0,
			"-0.019": 0.0,
			"-0.018": 0.0,
			"-0.017": 0.0,
			"-0.016": 0.0,
			"-0.015": 0.0,
			"-0.014": 0.0,
			"-0.013": 0.0,
			"-0.012": 0.0,
			"-0.011": 0.00503568677858,
			"-0.01": 0.706243430692,
			"-0.009": 1.07831767551,
			"-0.008": 1.39356917712,
			"-0.007": 8.33651392648,
			"-0.006": 17.6074799374,
			"-0.005": 17.0204119216,
			"-0.004": 15.6761994307,
			"-0.003": 14.5117076916,
			"-0.002": 10.3582506863,
			"-0.001": 9.0831826274,
			"0.0": 11.2099702535,
			"0.001": 15.1182771822,
			"0.002": 19.4431160249,
			"0.003": 20.0234471837,
			"0.004": 9.14263173792,
			"0.005": 5.89585913371,
			"0.006": 4.39956411703,
			"0.007": 4.63647043,
			"0.008": 3.5126479265,
			"0.009": 2.06461844397,
			"0.01": 2.43946043604,
			"0.011": 3.58644704292,
			"0.012": 3.58626992028,
			"0.013": 1.30638623979,
			"0.014": 0.0630773090334,
			"0.015": 0.0,
			"0.016": 0.0,
			"0.017": 0.0,
			"0.018": 0.0,
			"0.019": 0.0,
			"0.02": 0.0,
			"0.021": 0.0,
			"0.022": 0.0,
			"0.023": 0.0,
			"0.024": 0.0,
			"0.025": 0.0
		}
	}
}
