{
	 "smiles": "CCCCCCOC1=CC=C(N)C=C1", 
	 "Tm": 317.15, 
	 "num_atms": 33, 
	 "gaussian": { 
		 "optdone": 1, 
		 "sigma_profile": "yes", 
		 "theory": "DFT", 
		 "functional": "B3LYP", 
		 "basiset": "6-31G**", 
		 "properties": { 
			 "R2extent": 5520.113, 
			 "electric_dipole_moment_norm": 1.65275543563, 
			 "electric_quadrupole_moment_norm": 13.9793591377, 
			 "total_energy": -598.710331656, 
			 "HOMO_LUMO_gap": 0.18749, 
			 "cosmo_polarized_energy": -9.62, 
			 "cosmo_cavitation_energy": 34.85, 
			 "cosmo_dispersion_energy": -24.87, 
			 "cosmo_repulsion_energy": 2.0, 
			 "cosmo_total_nonelectrostatic_energy": 11.98, 
			 "SMD_solvation_energy": 5.47 
		},
		"coords": [
			{
				"x": -1.3605841873,
				"y": -4.5323133345,
				"z": -0.7813225434,
				"element": "C" 
			},
			{
				"x": -2.1608356275,
				"y": -3.9066377525,
				"z": -1.929588136,
				"element": "C" 
			},
			{
				"x": -3.2186958833,
				"y": -2.8667981254,
				"z": -1.5176639571,
				"element": "C" 
			},
			{
				"x": -2.6724827239,
				"y": -1.6061699321,
				"z": -0.811204975,
				"element": "C" 
			},
			{
				"x": -2.67403351,
				"y": -1.6813557333,
				"z": 0.7235414951,
				"element": "C" 
			},
			{
				"x": -2.0523849533,
				"y": -0.4608018268,
				"z": 1.390468136,
				"element": "C" 
			},
			{
				"x": -0.6715828383,
				"y": -0.427157375,
				"z": 1.0442490476,
				"element": "O" 
			},
			{
				"x": 0.0981457732,
				"y": 0.6026570968,
				"z": 1.5225300232,
				"element": "C" 
			},
			{
				"x": 1.4474127342,
				"y": 0.5893540829,
				"z": 1.1437949648,
				"element": "C" 
			},
			{
				"x": 2.3141691611,
				"y": 1.5855879619,
				"z": 1.5735243969,
				"element": "C" 
			},
			{
				"x": 1.862027001,
				"y": 2.6329314734,
				"z": 2.3963359975,
				"element": "C" 
			},
			{
				"x": 2.755722569,
				"y": 3.6049785219,
				"z": 2.8793717728,
				"element": "N" 
			},
			{
				"x": 0.5128617422,
				"y": 2.6381815975,
				"z": 2.7690670339,
				"element": "C" 
			},
			{
				"x": -0.3642364223,
				"y": 1.636963159,
				"z": 2.341382848,
				"element": "C" 
			},
			{
				"x": -2.0221062791,
				"y": -4.9990698013,
				"z": -0.0418964973,
				"element": "H" 
			},
			{
				"x": -0.7475569783,
				"y": -3.7898407471,
				"z": -0.2607354069,
				"element": "H" 
			},
			{
				"x": -0.6845377508,
				"y": -5.3085978944,
				"z": -1.1556573181,
				"element": "H" 
			},
			{
				"x": -1.4638944108,
				"y": -3.4363765398,
				"z": -2.6368956914,
				"element": "H" 
			},
			{
				"x": -2.6641141605,
				"y": -4.705967917,
				"z": -2.4894001123,
				"element": "H" 
			},
			{
				"x": -3.9743126378,
				"y": -3.347296961,
				"z": -0.8793615615,
				"element": "H" 
			},
			{
				"x": -3.7507236176,
				"y": -2.5604609794,
				"z": -2.4269378255,
				"element": "H" 
			},
			{
				"x": -3.2749289994,
				"y": -0.7362183054,
				"z": -1.1053437576,
				"element": "H" 
			},
			{
				"x": -1.6535799333,
				"y": -1.3974184004,
				"z": -1.1584197381,
				"element": "H" 
			},
			{
				"x": -3.7066457084,
				"y": -1.7746645187,
				"z": 1.085779792,
				"element": "H" 
			},
			{
				"x": -2.1404788081,
				"y": -2.572434443,
				"z": 1.0704777267,
				"element": "H" 
			},
			{
				"x": -2.5488930069,
				"y": 0.4617704234,
				"z": 1.0510052879,
				"element": "H" 
			},
			{
				"x": -2.1644208825,
				"y": -0.5184134205,
				"z": 2.4833400647,
				"element": "H" 
			},
			{
				"x": 1.7988200215,
				"y": -0.2160289195,
				"z": 0.5065928898,
				"element": "H" 
			},
			{
				"x": 3.358786862,
				"y": 1.5528571053,
				"z": 1.2729170277,
				"element": "H" 
			},
			{
				"x": 2.3148500033,
				"y": 4.4822620259,
				"z": 3.1240078629,
				"element": "H" 
			},
			{
				"x": 3.5525796347,
				"y": 3.7650393964,
				"z": 2.2766238645,
				"element": "H" 
			},
			{
				"x": 0.1366629152,
				"y": 3.433204659,
				"z": 3.408745595,
				"element": "H" 
			},
			{
				"x": -1.4010090983,
				"y": 1.6810354238,
				"z": 2.6535716932,
				"element": "H" 
			}
		],
		 "valence_orbital": [ 
			{
				"type": "occ",
				"energy": -0.30746,
				"method": "rhf"
			},
			{
				"type": "occ",
				"energy": -0.30106,
				"method": "rhf"
			},
			{
				"type": "occ",
				"energy": -0.26888,
				"method": "rhf"
			},
			{
				"type": "occ",
				"energy": -0.24123,
				"method": "rhf"
			},
			{
				"type": "occ",
				"energy": -0.18064,
				"method": "rhf"
			},
			{
				"type": "unocc",
				"energy": 0.00685,
				"method": "rhf"
			},
			{
				"type": "unocc",
				"energy": 0.03566,
				"method": "rhf"
			},
			{
				"type": "unocc",
				"energy": 0.08602,
				"method": "rhf"
			},
			{
				"type": "unocc",
				"energy": 0.09145,
				"method": "rhf"
			},
			{
				"type": "unocc",
				"energy": 0.10414,
				"method": "rhf"
			}
		],
		"cosmo_sigma_profile": { 
			"-0.025": 0.0,
			"-0.024": 0.0,
			"-0.023": 0.0,
			"-0.022": 0.0,
			"-0.021": 0.0,
			"-0.02": 0.0,
			"-0.019": 0.0,
			"-0.018": 0.0,
			"-0.017": 0.0,
			"-0.016": 0.0,
			"-0.015": 0.0,
			"-0.014": 0.0,
			"-0.013": 0.0,
			"-0.012": 0.943942248498,
			"-0.011": 2.9046290084,
			"-0.01": 3.02218777057,
			"-0.009": 2.65085524798,
			"-0.008": 4.02053459985,
			"-0.007": 2.60324714045,
			"-0.006": 4.65204459124,
			"-0.005": 9.82011726837,
			"-0.004": 13.6267448947,
			"-0.003": 19.1096751446,
			"-0.002": 30.6605811164,
			"-0.001": 35.3401944468,
			"0.0": 36.4596188685,
			"0.001": 28.5579257626,
			"0.002": 15.1056128973,
			"0.003": 8.59692197006,
			"0.004": 8.4246502891,
			"0.005": 11.9615636952,
			"0.006": 11.7858878011,
			"0.007": 11.3175877775,
			"0.008": 2.79209099745,
			"0.009": 1.33294359656,
			"0.01": 1.35468536889,
			"0.011": 1.43577969614,
			"0.012": 0.645324594189,
			"0.013": 0.619491761781,
			"0.014": 0.323095928692,
			"0.015": 0.898691378492,
			"0.016": 0.381575425625,
			"0.017": 0.0,
			"0.018": 0.0,
			"0.019": 0.0,
			"0.02": 0.0,
			"0.021": 0.0,
			"0.022": 0.0,
			"0.023": 0.0,
			"0.024": 0.0,
			"0.025": 0.0
		}
	}
}
