{
	 "smiles": "[N-]=[N+]=NS(=O)(=O)C1=C2N=S=NC2=CC=C1", 
	 "Tm": 392.15, 
	 "num_atms": 18, 
	 "gaussian": { 
		 "optdone": 1, 
		 "sigma_profile": "yes", 
		 "theory": "DFT", 
		 "functional": "B3LYP", 
		 "basiset": "6-31G**", 
		 "properties": { 
			 "R2extent": 5516.2708, 
			 "electric_dipole_moment_norm": 4.70783334242, 
			 "electric_quadrupole_moment_norm": 17.2641578384, 
			 "total_energy": -1450.84511736, 
			 "HOMO_LUMO_gap": 0.15628, 
			 "cosmo_polarized_energy": -13.94, 
			 "cosmo_cavitation_energy": 28.05, 
			 "cosmo_dispersion_energy": -21.11, 
			 "cosmo_repulsion_energy": 1.56, 
			 "cosmo_total_nonelectrostatic_energy": 8.49, 
			 "SMD_solvation_energy": -0.29 
		},
		"coords": [
			{
				"x": 2.803260116,
				"y": -4.0815554944,
				"z": -2.6292096439,
				"element": "N" 
			},
			{
				"x": 1.7198460387,
				"y": -3.7640061475,
				"z": -2.5043342645,
				"element": "N" 
			},
			{
				"x": 0.513395667,
				"y": -3.5217148141,
				"z": -2.3078594919,
				"element": "N" 
			},
			{
				"x": -0.0218335173,
				"y": -2.0335650302,
				"z": -3.086728818,
				"element": "S" 
			},
			{
				"x": 1.0843911119,
				"y": -1.5099728851,
				"z": -3.8904889986,
				"element": "O" 
			},
			{
				"x": -1.3181990684,
				"y": -2.3455705365,
				"z": -3.6632910612,
				"element": "O" 
			},
			{
				"x": -0.2288577576,
				"y": -0.963050399,
				"z": -1.6693794276,
				"element": "C" 
			},
			{
				"x": -1.190827647,
				"y": -1.2389801785,
				"z": -0.6483017849,
				"element": "C" 
			},
			{
				"x": -2.0026862622,
				"y": -2.2943854866,
				"z": -0.556168964,
				"element": "N" 
			},
			{
				"x": -2.8718699896,
				"y": -2.0831654902,
				"z": 0.8194031324,
				"element": "S" 
			},
			{
				"x": -2.25257103,
				"y": -0.6584379776,
				"z": 1.3453735377,
				"element": "N" 
			},
			{
				"x": -1.3295734508,
				"y": -0.2949547805,
				"z": 0.4461063866,
				"element": "C" 
			},
			{
				"x": -0.5281070403,
				"y": 0.8820028554,
				"z": 0.4964288906,
				"element": "C" 
			},
			{
				"x": 0.3790521358,
				"y": 1.0982529992,
				"z": -0.5086788025,
				"element": "C" 
			},
			{
				"x": 0.532163704,
				"y": 0.1774969274,
				"z": -1.5908340274,
				"element": "C" 
			},
			{
				"x": -0.6509930632,
				"y": 1.5747025815,
				"z": 1.3215416453,
				"element": "H" 
			},
			{
				"x": 1.0023211121,
				"y": 1.9863965728,
				"z": -0.4963176366,
				"element": "H" 
			},
			{
				"x": 1.2574889409,
				"y": 0.3789072839,
				"z": -2.3716606714,
				"element": "H" 
			}
		],
		 "valence_orbital": [ 
			{
				"type": "occ",
				"energy": -0.319,
				"method": "rhf"
			},
			{
				"type": "occ",
				"energy": -0.31467,
				"method": "rhf"
			},
			{
				"type": "occ",
				"energy": -0.30266,
				"method": "rhf"
			},
			{
				"type": "occ",
				"energy": -0.29188,
				"method": "rhf"
			},
			{
				"type": "occ",
				"energy": -0.27267,
				"method": "rhf"
			},
			{
				"type": "unocc",
				"energy": -0.11639,
				"method": "rhf"
			},
			{
				"type": "unocc",
				"energy": -0.07441,
				"method": "rhf"
			},
			{
				"type": "unocc",
				"energy": -0.03994,
				"method": "rhf"
			},
			{
				"type": "unocc",
				"energy": -0.02123,
				"method": "rhf"
			},
			{
				"type": "unocc",
				"energy": -0.01353,
				"method": "rhf"
			}
		],
		"cosmo_sigma_profile": { 
			"-0.025": 0.0,
			"-0.024": 0.0,
			"-0.023": 0.0,
			"-0.022": 0.0,
			"-0.021": 0.0,
			"-0.02": 0.0,
			"-0.019": 0.0,
			"-0.018": 0.0,
			"-0.017": 0.0,
			"-0.016": 0.0,
			"-0.015": 0.0,
			"-0.014": 0.0,
			"-0.013": 0.0,
			"-0.012": 0.0,
			"-0.011": 0.0625955747144,
			"-0.01": 0.506487312192,
			"-0.009": 3.39354854608,
			"-0.008": 8.82586692422,
			"-0.007": 10.0197536965,
			"-0.006": 12.3636474532,
			"-0.005": 13.1529147013,
			"-0.004": 17.3675170182,
			"-0.003": 21.6251752602,
			"-0.002": 22.3019437769,
			"-0.001": 17.2024965401,
			"0.0": 15.5142075008,
			"0.001": 9.89318900886,
			"0.002": 9.43443735344,
			"0.003": 7.38358313194,
			"0.004": 7.72659426643,
			"0.005": 7.94693795001,
			"0.006": 6.38010313542,
			"0.007": 6.69578237684,
			"0.008": 10.6865919419,
			"0.009": 13.2502597377,
			"0.01": 6.42788664991,
			"0.011": 2.48314949999,
			"0.012": 0.884704448252,
			"0.013": 0.0,
			"0.014": 0.0,
			"0.015": 0.0,
			"0.016": 0.0,
			"0.017": 0.0,
			"0.018": 0.0,
			"0.019": 0.0,
			"0.02": 0.0,
			"0.021": 0.0,
			"0.022": 0.0,
			"0.023": 0.0,
			"0.024": 0.0,
			"0.025": 0.0
		}
	}
}
