{
	 "smiles": "COC1=CC=C(C=C1)C1=C(N=CO1)C(O)=O", 
	 "Tm": 422.15, 
	 "num_atms": 25, 
	 "gaussian": { 
		 "optdone": 1, 
		 "sigma_profile": "yes", 
		 "theory": "DFT", 
		 "functional": "B3LYP", 
		 "basiset": "6-31G**", 
		 "properties": { 
			 "R2extent": 4644.9384, 
			 "electric_dipole_moment_norm": 8.47923966049, 
			 "electric_quadrupole_moment_norm": 20.0397706469, 
			 "total_energy": -780.217552573, 
			 "HOMO_LUMO_gap": 0.17078, 
			 "cosmo_polarized_energy": -19.79, 
			 "cosmo_cavitation_energy": 30.26, 
			 "cosmo_dispersion_energy": -22.16, 
			 "cosmo_repulsion_energy": 1.7, 
			 "cosmo_total_nonelectrostatic_energy": 9.81, 
			 "SMD_solvation_energy": 6.45 
		},
		"coords": [
			{
				"x": 0.4830799569,
				"y": 1.0182055572,
				"z": -4.8090683563,
				"element": "C" 
			},
			{
				"x": 1.1000583512,
				"y": 0.2364259161,
				"z": -3.793933407,
				"element": "O" 
			},
			{
				"x": 0.7010553334,
				"y": 0.408403744,
				"z": -2.5081047764,
				"element": "C" 
			},
			{
				"x": 1.3398702412,
				"y": -0.4035918262,
				"z": -1.5569174139,
				"element": "C" 
			},
			{
				"x": 1.0041326937,
				"y": -0.3096612793,
				"z": -0.2151315865,
				"element": "C" 
			},
			{
				"x": 0.0297972452,
				"y": 0.61259833,
				"z": 0.2229471459,
				"element": "C" 
			},
			{
				"x": -0.6099080113,
				"y": 1.4096684081,
				"z": -0.7407147861,
				"element": "C" 
			},
			{
				"x": -0.2844648003,
				"y": 1.3152369504,
				"z": -2.0911980968,
				"element": "C" 
			},
			{
				"x": -0.3441991136,
				"y": 0.7277430773,
				"z": 1.6314152591,
				"element": "C" 
			},
			{
				"x": 0.2808746079,
				"y": 0.5971857228,
				"z": 2.8545735387,
				"element": "C" 
			},
			{
				"x": -0.6485320574,
				"y": 0.807659792,
				"z": 3.8697206492,
				"element": "N" 
			},
			{
				"x": -1.7477225308,
				"y": 1.0692927061,
				"z": 3.2520618122,
				"element": "C" 
			},
			{
				"x": -1.6556924163,
				"y": 1.0411552885,
				"z": 1.8930203787,
				"element": "O" 
			},
			{
				"x": 1.6972993383,
				"y": 0.3135680211,
				"z": 3.2166514372,
				"element": "C" 
			},
			{
				"x": 2.6307262131,
				"y": 0.5723760378,
				"z": 2.257852296,
				"element": "O" 
			},
			{
				"x": 2.0326744516,
				"y": -0.1146364638,
				"z": 4.2912314511,
				"element": "O" 
			},
			{
				"x": 0.9510473664,
				"y": 0.7142342349,
				"z": -5.7459536383,
				"element": "H" 
			},
			{
				"x": -0.5956598118,
				"y": 0.8269062491,
				"z": -4.8643811451,
				"element": "H" 
			},
			{
				"x": 0.6534390182,
				"y": 2.0902632814,
				"z": -4.6507405963,
				"element": "H" 
			},
			{
				"x": 2.084733874,
				"y": -1.1141871959,
				"z": -1.8985554761,
				"element": "H" 
			},
			{
				"x": 1.4884279676,
				"y": -0.9687975511,
				"z": 0.4971641979,
				"element": "H" 
			},
			{
				"x": -1.3718897564,
				"y": 2.1148380359,
				"z": -0.4258264748,
				"element": "H" 
			},
			{
				"x": -0.7966160716,
				"y": 1.949554991,
				"z": -2.8044387803,
				"element": "H" 
			},
			{
				"x": -2.7168814489,
				"y": 1.3045846542,
				"z": 3.6666637945,
				"element": "H" 
			},
			{
				"x": 2.2277493594,
				"y": 1.0037733181,
				"z": 1.4893625734,
				"element": "H" 
			}
		],
		 "valence_orbital": [ 
			{
				"type": "occ",
				"energy": -0.30038,
				"method": "rhf"
			},
			{
				"type": "occ",
				"energy": -0.28231,
				"method": "rhf"
			},
			{
				"type": "occ",
				"energy": -0.27664,
				"method": "rhf"
			},
			{
				"type": "occ",
				"energy": -0.26816,
				"method": "rhf"
			},
			{
				"type": "occ",
				"energy": -0.22926,
				"method": "rhf"
			},
			{
				"type": "unocc",
				"energy": -0.05848,
				"method": "rhf"
			},
			{
				"type": "unocc",
				"energy": -0.02912,
				"method": "rhf"
			},
			{
				"type": "unocc",
				"energy": 0.00069,
				"method": "rhf"
			},
			{
				"type": "unocc",
				"energy": 0.00964,
				"method": "rhf"
			},
			{
				"type": "unocc",
				"energy": 0.07547,
				"method": "rhf"
			}
		],
		"cosmo_sigma_profile": { 
			"-0.025": 0.0,
			"-0.024": 0.0,
			"-0.023": 0.0,
			"-0.022": 0.0,
			"-0.021": 0.0,
			"-0.02": 0.0,
			"-0.019": 0.0,
			"-0.018": 0.0,
			"-0.017": 0.0,
			"-0.016": 0.278002311562,
			"-0.015": 0.677617158743,
			"-0.014": 0.348257223216,
			"-0.013": 0.685219750642,
			"-0.012": 1.9505847307,
			"-0.011": 2.95758915714,
			"-0.01": 2.88275772487,
			"-0.009": 2.22262714753,
			"-0.008": 2.93469000043,
			"-0.007": 9.58218749718,
			"-0.006": 18.1359269203,
			"-0.005": 18.3679154994,
			"-0.004": 17.3471431904,
			"-0.003": 20.3547520581,
			"-0.002": 16.7290542119,
			"-0.001": 12.4665408167,
			"0.0": 12.2963126002,
			"0.001": 13.2990866377,
			"0.002": 15.9069184113,
			"0.003": 15.7661133551,
			"0.004": 7.6609944839,
			"0.005": 4.97623114961,
			"0.006": 5.35519292201,
			"0.007": 3.97301875736,
			"0.008": 4.76427242779,
			"0.009": 6.21125359601,
			"0.01": 5.96946886039,
			"0.011": 6.78346293605,
			"0.012": 5.88686303288,
			"0.013": 3.11189980987,
			"0.014": 1.94290133987,
			"0.015": 1.36360428994,
			"0.016": 0.12494302207,
			"0.017": 0.0,
			"0.018": 0.0,
			"0.019": 0.0,
			"0.02": 0.0,
			"0.021": 0.0,
			"0.022": 0.0,
			"0.023": 0.0,
			"0.024": 0.0,
			"0.025": 0.0
		}
	}
}
