{
	 "smiles": "CC(CCC(O)=O)C(O)=O", 
	 "Tm": 349.15, 
	 "num_atms": 20, 
	 "gaussian": { 
		 "optdone": 1, 
		 "sigma_profile": "yes", 
		 "theory": "DFT", 
		 "functional": "B3LYP", 
		 "basiset": "6-31G**", 
		 "properties": { 
			 "R2extent": 2138.4573, 
			 "electric_dipole_moment_norm": 5.11611807037, 
			 "electric_quadrupole_moment_norm": 12.0151310188, 
			 "total_energy": -535.591987939, 
			 "HOMO_LUMO_gap": 0.27958, 
			 "cosmo_polarized_energy": -19.99, 
			 "cosmo_cavitation_energy": 23.53, 
			 "cosmo_dispersion_energy": -16.65, 
			 "cosmo_repulsion_energy": 1.37, 
			 "cosmo_total_nonelectrostatic_energy": 8.26, 
			 "SMD_solvation_energy": 6.01 
		},
		"coords": [
			{
				"x": -2.1848647628,
				"y": -0.3309817435,
				"z": 1.194203252,
				"element": "C" 
			},
			{
				"x": -0.7098500375,
				"y": 0.0779686301,
				"z": 1.124401062,
				"element": "C" 
			},
			{
				"x": -0.0269266656,
				"y": -0.5285252324,
				"z": -0.1294802642,
				"element": "C" 
			},
			{
				"x": 1.417445704,
				"y": -0.080713909,
				"z": -0.3889463692,
				"element": "C" 
			},
			{
				"x": 2.4549885793,
				"y": -0.9004535524,
				"z": 0.3733789624,
				"element": "C" 
			},
			{
				"x": 3.6914443481,
				"y": -0.3442120166,
				"z": 0.4639298177,
				"element": "O" 
			},
			{
				"x": 2.2532534308,
				"y": -1.997640634,
				"z": 0.8310819098,
				"element": "O" 
			},
			{
				"x": 0.004134414,
				"y": -0.3228502876,
				"z": 2.4070319814,
				"element": "C" 
			},
			{
				"x": 1.1459878798,
				"y": 0.3963729085,
				"z": 2.5913256223,
				"element": "O" 
			},
			{
				"x": -0.363927968,
				"y": -1.1625600579,
				"z": 3.1947834609,
				"element": "O" 
			},
			{
				"x": -2.7097141093,
				"y": -0.0243823701,
				"z": 0.284201909,
				"element": "H" 
			},
			{
				"x": -2.2778162777,
				"y": -1.4143702383,
				"z": 1.3050976552,
				"element": "H" 
			},
			{
				"x": -2.6831876578,
				"y": 0.1311304754,
				"z": 2.0505932734,
				"element": "H" 
			},
			{
				"x": -0.6308516846,
				"y": 1.1708020186,
				"z": 1.0499435191,
				"element": "H" 
			},
			{
				"x": -0.0441103307,
				"y": -1.6209638471,
				"z": -0.0598727467,
				"element": "H" 
			},
			{
				"x": -0.6418491157,
				"y": -0.2472603768,
				"z": -0.9910905039,
				"element": "H" 
			},
			{
				"x": 1.5447351061,
				"y": 0.9855595356,
				"z": -0.1645782074,
				"element": "H" 
			},
			{
				"x": 1.6533578164,
				"y": -0.2053555135,
				"z": -1.454877915,
				"element": "H" 
			},
			{
				"x": 3.6836498706,
				"y": 0.547497591,
				"z": 0.0885926956,
				"element": "H" 
			},
			{
				"x": 1.5740014605,
				"y": 0.0234386198,
				"z": 3.3810808855,
				"element": "H" 
			}
		],
		 "valence_orbital": [ 
			{
				"type": "occ",
				"energy": -0.34144,
				"method": "rhf"
			},
			{
				"type": "occ",
				"energy": -0.31902,
				"method": "rhf"
			},
			{
				"type": "occ",
				"energy": -0.31586,
				"method": "rhf"
			},
			{
				"type": "occ",
				"energy": -0.27361,
				"method": "rhf"
			},
			{
				"type": "occ",
				"energy": -0.27238,
				"method": "rhf"
			},
			{
				"type": "unocc",
				"energy": 0.0072,
				"method": "rhf"
			},
			{
				"type": "unocc",
				"energy": 0.0117,
				"method": "rhf"
			},
			{
				"type": "unocc",
				"energy": 0.05212,
				"method": "rhf"
			},
			{
				"type": "unocc",
				"energy": 0.08098,
				"method": "rhf"
			},
			{
				"type": "unocc",
				"energy": 0.09239,
				"method": "rhf"
			}
		],
		"cosmo_sigma_profile": { 
			"-0.025": 0.0,
			"-0.024": 0.0,
			"-0.023": 0.0,
			"-0.022": 0.0,
			"-0.021": 0.0,
			"-0.02": 0.0,
			"-0.019": 0.472674764177,
			"-0.018": 1.4523041435,
			"-0.017": 2.27994459834,
			"-0.016": 1.75585220225,
			"-0.015": 1.54656852479,
			"-0.014": 1.64901627542,
			"-0.013": 1.27195736548,
			"-0.012": 1.75953299876,
			"-0.011": 2.08531749428,
			"-0.01": 1.42333257765,
			"-0.009": 1.85228697427,
			"-0.008": 2.60004720406,
			"-0.007": 4.51033101439,
			"-0.006": 5.05186873348,
			"-0.005": 9.21815776902,
			"-0.004": 16.78496369,
			"-0.003": 18.0948131758,
			"-0.002": 13.5326066226,
			"-0.001": 11.2146208624,
			"0.0": 11.0140600102,
			"0.001": 8.52677100803,
			"0.002": 4.47744319519,
			"0.003": 4.54509985851,
			"0.004": 4.82121559345,
			"0.005": 3.97411366909,
			"0.006": 4.72954929669,
			"0.007": 5.17397950349,
			"0.008": 4.72816858147,
			"0.009": 5.16144266002,
			"0.01": 6.70579043753,
			"0.011": 9.31055413369,
			"0.012": 8.85705172137,
			"0.013": 2.2861022559,
			"0.014": 0.170289052738,
			"0.015": 0.0,
			"0.016": 0.0,
			"0.017": 0.0,
			"0.018": 0.0,
			"0.019": 0.0,
			"0.02": 0.0,
			"0.021": 0.0,
			"0.022": 0.0,
			"0.023": 0.0,
			"0.024": 0.0,
			"0.025": 0.0
		}
	}
}
