{
	 "smiles": "O=CCC=O", 
	 "Tm": 345.15, 
	 "num_atms": 9, 
	 "gaussian": { 
		 "optdone": 1, 
		 "sigma_profile": "yes", 
		 "theory": "DFT", 
		 "functional": "B3LYP", 
		 "basiset": "6-31G**", 
		 "properties": { 
			 "R2extent": 579.2163, 
			 "electric_dipole_moment_norm": 1.13565249967, 
			 "electric_quadrupole_moment_norm": 10.0432564938, 
			 "total_energy": -267.139582087, 
			 "HOMO_LUMO_gap": 0.1982, 
			 "cosmo_polarized_energy": -9.09, 
			 "cosmo_cavitation_energy": 13.83, 
			 "cosmo_dispersion_energy": -9.8, 
			 "cosmo_repulsion_energy": 0.91, 
			 "cosmo_total_nonelectrostatic_energy": 4.94, 
			 "SMD_solvation_energy": 4.84 
		},
		"coords": [
			{
				"x": -2.023420062,
				"y": 0.8706115845,
				"z": -1.4292677173,
				"element": "O" 
			},
			{
				"x": -1.0736204936,
				"y": 1.1820338237,
				"z": -0.7499890843,
				"element": "C" 
			},
			{
				"x": -1.0275274786,
				"y": 1.0280844238,
				"z": 0.767597699,
				"element": "C" 
			},
			{
				"x": -0.1929374446,
				"y": -0.1959563907,
				"z": 1.1337842922,
				"element": "C" 
			},
			{
				"x": 0.9437556795,
				"y": -0.1381434301,
				"z": 1.5401183154,
				"element": "O" 
			},
			{
				"x": -0.1427595815,
				"y": 1.5864071567,
				"z": -1.2013752428,
				"element": "H" 
			},
			{
				"x": -0.5550438015,
				"y": 1.9081694698,
				"z": 1.2140770923,
				"element": "H" 
			},
			{
				"x": -2.0524214193,
				"y": 0.8976887703,
				"z": 1.1277698966,
				"element": "H" 
			},
			{
				"x": -0.7051253985,
				"y": -1.168495408,
				"z": 0.973784749,
				"element": "H" 
			}
		],
		 "valence_orbital": [ 
			{
				"type": "occ",
				"energy": -0.41162,
				"method": "rhf"
			},
			{
				"type": "occ",
				"energy": -0.39498,
				"method": "rhf"
			},
			{
				"type": "occ",
				"energy": -0.39239,
				"method": "rhf"
			},
			{
				"type": "occ",
				"energy": -0.28407,
				"method": "rhf"
			},
			{
				"type": "occ",
				"energy": -0.26538,
				"method": "rhf"
			},
			{
				"type": "unocc",
				"energy": -0.06718,
				"method": "rhf"
			},
			{
				"type": "unocc",
				"energy": -0.01716,
				"method": "rhf"
			},
			{
				"type": "unocc",
				"energy": 0.10609,
				"method": "rhf"
			},
			{
				"type": "unocc",
				"energy": 0.11208,
				"method": "rhf"
			},
			{
				"type": "unocc",
				"energy": 0.1277,
				"method": "rhf"
			}
		],
		"cosmo_sigma_profile": { 
			"-0.025": 0.0,
			"-0.024": 0.0,
			"-0.023": 0.0,
			"-0.022": 0.0,
			"-0.021": 0.0,
			"-0.02": 0.0,
			"-0.019": 0.0,
			"-0.018": 0.0,
			"-0.017": 0.0,
			"-0.016": 0.0,
			"-0.015": 0.0,
			"-0.014": 0.0,
			"-0.013": 0.0,
			"-0.012": 0.0,
			"-0.011": 0.0,
			"-0.01": 0.0,
			"-0.009": 0.151745793767,
			"-0.008": 10.6782540015,
			"-0.007": 14.9029070234,
			"-0.006": 9.15655119336,
			"-0.005": 7.92349235727,
			"-0.004": 7.7659845184,
			"-0.003": 4.89553968858,
			"-0.002": 3.54608319292,
			"-0.001": 2.95690543508,
			"0.0": 2.31097570885,
			"0.001": 2.76204388093,
			"0.002": 2.55864745165,
			"0.003": 3.09435602314,
			"0.004": 2.06270846522,
			"0.005": 2.63788820823,
			"0.006": 2.91985965759,
			"0.007": 3.78107873733,
			"0.008": 3.70810891985,
			"0.009": 5.24189719151,
			"0.01": 8.47003910698,
			"0.011": 7.17464594143,
			"0.012": 1.41722642202,
			"0.013": 0.0,
			"0.014": 0.0,
			"0.015": 0.0,
			"0.016": 0.0,
			"0.017": 0.0,
			"0.018": 0.0,
			"0.019": 0.0,
			"0.02": 0.0,
			"0.021": 0.0,
			"0.022": 0.0,
			"0.023": 0.0,
			"0.024": 0.0,
			"0.025": 0.0
		}
	}
}
