{
	 "smiles": "OC(=O)C1(CCCCC1)C1=CC=C(F)C=C1", 
	 "Tm": 411.15, 
	 "num_atms": 31, 
	 "gaussian": { 
		 "optdone": 1, 
		 "sigma_profile": "yes", 
		 "theory": "DFT", 
		 "functional": "B3LYP", 
		 "basiset": "6-31G**", 
		 "properties": { 
			 "R2extent": 3750.7934, 
			 "electric_dipole_moment_norm": 1.71087603584, 
			 "electric_quadrupole_moment_norm": 8.54780416598, 
			 "total_energy": -754.723926595, 
			 "HOMO_LUMO_gap": 0.22207, 
			 "cosmo_polarized_energy": -9.46, 
			 "cosmo_cavitation_energy": 32.11, 
			 "cosmo_dispersion_energy": -22.82, 
			 "cosmo_repulsion_energy": 1.75, 
			 "cosmo_total_nonelectrostatic_energy": 11.04, 
			 "SMD_solvation_energy": 6.31 
		},
		"coords": [
			{
				"x": -2.2969040266,
				"y": 0.3943165731,
				"z": 1.1786078152,
				"element": "O" 
			},
			{
				"x": -0.9875086626,
				"y": 0.7291326684,
				"z": 1.2750511676,
				"element": "C" 
			},
			{
				"x": -0.6187341055,
				"y": 1.7042646361,
				"z": 1.8952529014,
				"element": "O" 
			},
			{
				"x": -0.0832586318,
				"y": -0.2369583659,
				"z": 0.4999804441,
				"element": "C" 
			},
			{
				"x": 1.3831284308,
				"y": -0.020689683,
				"z": 0.950878761,
				"element": "C" 
			},
			{
				"x": 2.3737137235,
				"y": -0.9055965238,
				"z": 0.1671501668,
				"element": "C" 
			},
			{
				"x": 1.807505578,
				"y": -2.3138871769,
				"z": -0.1396037677,
				"element": "C" 
			},
			{
				"x": 0.7043957624,
				"y": -2.697882927,
				"z": 0.8547520519,
				"element": "C" 
			},
			{
				"x": -0.4856014832,
				"y": -1.7048927863,
				"z": 0.8570828983,
				"element": "C" 
			},
			{
				"x": -0.2531933651,
				"y": 0.1504428929,
				"z": -0.9900175889,
				"element": "C" 
			},
			{
				"x": 0.0393448805,
				"y": 1.4716589722,
				"z": -1.3737730914,
				"element": "C" 
			},
			{
				"x": -0.0894552787,
				"y": 1.8968987251,
				"z": -2.6939890046,
				"element": "C" 
			},
			{
				"x": -0.5185723076,
				"y": 0.9841358525,
				"z": -3.6504600095,
				"element": "C" 
			},
			{
				"x": -0.6446753047,
				"y": 1.3838433047,
				"z": -4.9332989629,
				"element": "F" 
			},
			{
				"x": -0.8231339771,
				"y": -0.3272700415,
				"z": -3.3147966498,
				"element": "C" 
			},
			{
				"x": -0.6916138347,
				"y": -0.7329664572,
				"z": -1.9846378141,
				"element": "C" 
			},
			{
				"x": -2.784145369,
				"y": 1.0749932616,
				"z": 1.6725918196,
				"element": "H" 
			},
			{
				"x": 1.4349633501,
				"y": -0.2530934341,
				"z": 2.0211354319,
				"element": "H" 
			},
			{
				"x": 1.6571769658,
				"y": 1.0328731615,
				"z": 0.8654302838,
				"element": "H" 
			},
			{
				"x": 3.2953914147,
				"y": -0.9883008088,
				"z": 0.7545601175,
				"element": "H" 
			},
			{
				"x": 2.6498813428,
				"y": -0.4103564979,
				"z": -0.7697392888,
				"element": "H" 
			},
			{
				"x": 1.4016400797,
				"y": -2.335885733,
				"z": -1.1566140847,
				"element": "H" 
			},
			{
				"x": 2.609460803,
				"y": -3.0600091555,
				"z": -0.1154294767,
				"element": "H" 
			},
			{
				"x": 1.1398104555,
				"y": -2.7406275594,
				"z": 1.8610363007,
				"element": "H" 
			},
			{
				"x": 0.3329887901,
				"y": -3.7074942552,
				"z": 0.6456141612,
				"element": "H" 
			},
			{
				"x": -0.9292170506,
				"y": -1.7031140833,
				"z": 1.857706467,
				"element": "H" 
			},
			{
				"x": -1.2858226561,
				"y": -2.0461292588,
				"z": 0.1967516378,
				"element": "H" 
			},
			{
				"x": 0.3587586324,
				"y": 2.1888256699,
				"z": -0.6237938805,
				"element": "H" 
			},
			{
				"x": 0.1339085157,
				"y": 2.9175174359,
				"z": -2.9856690612,
				"element": "H" 
			},
			{
				"x": -1.1588987668,
				"y": -1.0145328573,
				"z": -4.0839150216,
				"element": "H" 
			},
			{
				"x": -0.9360339049,
				"y": -1.7599155487,
				"z": -1.7410447232,
				"element": "H" 
			}
		],
		 "valence_orbital": [ 
			{
				"type": "occ",
				"energy": -0.30607,
				"method": "rhf"
			},
			{
				"type": "occ",
				"energy": -0.30314,
				"method": "rhf"
			},
			{
				"type": "occ",
				"energy": -0.27449,
				"method": "rhf"
			},
			{
				"type": "occ",
				"energy": -0.26098,
				"method": "rhf"
			},
			{
				"type": "occ",
				"energy": -0.23839,
				"method": "rhf"
			},
			{
				"type": "unocc",
				"energy": -0.01632,
				"method": "rhf"
			},
			{
				"type": "unocc",
				"energy": -0.00888,
				"method": "rhf"
			},
			{
				"type": "unocc",
				"energy": 0.02182,
				"method": "rhf"
			},
			{
				"type": "unocc",
				"energy": 0.06872,
				"method": "rhf"
			},
			{
				"type": "unocc",
				"energy": 0.0809,
				"method": "rhf"
			}
		],
		"cosmo_sigma_profile": { 
			"-0.025": 0.0,
			"-0.024": 0.0,
			"-0.023": 0.0,
			"-0.022": 0.0,
			"-0.021": 0.0,
			"-0.02": 0.0,
			"-0.019": 0.0,
			"-0.018": 0.558501260398,
			"-0.017": 0.989992273374,
			"-0.016": 1.03014803195,
			"-0.015": 0.788072115595,
			"-0.014": 0.654794532076,
			"-0.013": 0.320366863611,
			"-0.012": 0.418995766402,
			"-0.011": 1.37997079162,
			"-0.01": 0.949069333786,
			"-0.009": 0.368337744383,
			"-0.008": 0.587109178048,
			"-0.007": 4.61529780854,
			"-0.006": 7.10288962934,
			"-0.005": 9.92460253118,
			"-0.004": 12.616144642,
			"-0.003": 17.8014356004,
			"-0.002": 25.9493077554,
			"-0.001": 28.1725262192,
			"0.0": 31.2331775703,
			"0.001": 27.7108329863,
			"0.002": 15.3454570874,
			"0.003": 14.1421901829,
			"0.004": 19.4596905154,
			"0.005": 8.39735419344,
			"0.006": 3.23809447955,
			"0.007": 2.83806830957,
			"0.008": 3.13288433787,
			"0.009": 2.75963666165,
			"0.01": 1.85550326125,
			"0.011": 3.25259362252,
			"0.012": 4.02585096716,
			"0.013": 0.212134789397,
			"0.014": 0.0,
			"0.015": 0.0,
			"0.016": 0.0,
			"0.017": 0.0,
			"0.018": 0.0,
			"0.019": 0.0,
			"0.02": 0.0,
			"0.021": 0.0,
			"0.022": 0.0,
			"0.023": 0.0,
			"0.024": 0.0,
			"0.025": 0.0
		}
	}
}
