{
	 "smiles": "CCCCCCCCCO", 
	 "Tm": 267.65, 
	 "num_atms": 30, 
	 "gaussian": { 
		 "optdone": 1, 
		 "sigma_profile": "yes", 
		 "theory": "DFT", 
		 "functional": "B3LYP", 
		 "basiset": "6-31G**", 
		 "properties": { 
			 "R2extent": 3264.5618, 
			 "electric_dipole_moment_norm": 1.68128084804, 
			 "electric_quadrupole_moment_norm": 11.7480542691, 
			 "total_energy": -430.243485669, 
			 "HOMO_LUMO_gap": 0.3332, 
			 "cosmo_polarized_energy": -5.79, 
			 "cosmo_cavitation_energy": 29.97, 
			 "cosmo_dispersion_energy": -21.28, 
			 "cosmo_repulsion_energy": 1.79, 
			 "cosmo_total_nonelectrostatic_energy": 10.48, 
			 "SMD_solvation_energy": 4.29 
		},
		"coords": [
			{
				"x": -0.1695144175,
				"y": -0.078669997,
				"z": -2.7845864377,
				"element": "C" 
			},
			{
				"x": 0.9010924144,
				"y": -0.999833647,
				"z": -2.1840245029,
				"element": "C" 
			},
			{
				"x": 0.3992953819,
				"y": -1.9715586854,
				"z": -1.0932765904,
				"element": "C" 
			},
			{
				"x": 0.4044773503,
				"y": -1.4767392045,
				"z": 0.3672096936,
				"element": "C" 
			},
			{
				"x": -0.5394176486,
				"y": -0.3032256903,
				"z": 0.7200125034,
				"element": "C" 
			},
			{
				"x": 0.0949108805,
				"y": 1.100266564,
				"z": 0.6711475498,
				"element": "C" 
			},
			{
				"x": 1.0548956938,
				"y": 1.3916662068,
				"z": 1.8337761243,
				"element": "C" 
			},
			{
				"x": 1.6936211476,
				"y": 2.7844900491,
				"z": 1.7595595665,
				"element": "C" 
			},
			{
				"x": 2.6187119543,
				"y": 3.1039923754,
				"z": 2.9372096736,
				"element": "C" 
			},
			{
				"x": 3.7570855891,
				"y": 2.252285755,
				"z": 3.0097949616,
				"element": "O" 
			},
			{
				"x": -0.6170511512,
				"y": 0.5857276966,
				"z": -2.0403482224,
				"element": "H" 
			},
			{
				"x": -0.9805165653,
				"y": -0.6669222681,
				"z": -3.229330074,
				"element": "H" 
			},
			{
				"x": 0.2531334151,
				"y": 0.5507430006,
				"z": -3.5753419678,
				"element": "H" 
			},
			{
				"x": 1.7327508708,
				"y": -0.4013113015,
				"z": -1.7881893971,
				"element": "H" 
			},
			{
				"x": 1.3291974705,
				"y": -1.5923913892,
				"z": -3.0025469068,
				"element": "H" 
			},
			{
				"x": -0.6141321726,
				"y": -2.3092547443,
				"z": -1.354375927,
				"element": "H" 
			},
			{
				"x": 1.0265097821,
				"y": -2.8719226514,
				"z": -1.1229724837,
				"element": "H" 
			},
			{
				"x": 1.4347708917,
				"y": -1.2190183822,
				"z": 0.6487263461,
				"element": "H" 
			},
			{
				"x": 0.1392470344,
				"y": -2.3373268224,
				"z": 0.9942638436,
				"element": "H" 
			},
			{
				"x": -0.9358514921,
				"y": -0.4549621633,
				"z": 1.7330473754,
				"element": "H" 
			},
			{
				"x": -1.4130553034,
				"y": -0.3337419566,
				"z": 0.0569596145,
				"element": "H" 
			},
			{
				"x": -0.704064022,
				"y": 1.8541505276,
				"z": 0.6844908689,
				"element": "H" 
			},
			{
				"x": 0.62889658,
				"y": 1.2423982063,
				"z": -0.2765707589,
				"element": "H" 
			},
			{
				"x": 1.8498630516,
				"y": 0.6334934314,
				"z": 1.8490002019,
				"element": "H" 
			},
			{
				"x": 0.5092065431,
				"y": 1.2889346624,
				"z": 2.7838662772,
				"element": "H" 
			},
			{
				"x": 0.9048196952,
				"y": 3.5491135052,
				"z": 1.7225896905,
				"element": "H" 
			},
			{
				"x": 2.2680737487,
				"y": 2.8767256869,
				"z": 0.8288342824,
				"element": "H" 
			},
			{
				"x": 2.0456089387,
				"y": 3.0794293892,
				"z": 3.8794178106,
				"element": "H" 
			},
			{
				"x": 3.0177597033,
				"y": 4.1180899197,
				"z": 2.8307160267,
				"element": "H" 
			},
			{
				"x": 3.4506746356,
				"y": 1.3699719269,
				"z": 3.252340858,
				"element": "H" 
			}
		],
		 "valence_orbital": [ 
			{
				"type": "occ",
				"energy": -0.31844,
				"method": "rhf"
			},
			{
				"type": "occ",
				"energy": -0.30811,
				"method": "rhf"
			},
			{
				"type": "occ",
				"energy": -0.30285,
				"method": "rhf"
			},
			{
				"type": "occ",
				"energy": -0.30152,
				"method": "rhf"
			},
			{
				"type": "occ",
				"energy": -0.26087,
				"method": "rhf"
			},
			{
				"type": "unocc",
				"energy": 0.07233,
				"method": "rhf"
			},
			{
				"type": "unocc",
				"energy": 0.08159,
				"method": "rhf"
			},
			{
				"type": "unocc",
				"energy": 0.10548,
				"method": "rhf"
			},
			{
				"type": "unocc",
				"energy": 0.10814,
				"method": "rhf"
			},
			{
				"type": "unocc",
				"energy": 0.1138,
				"method": "rhf"
			}
		],
		"cosmo_sigma_profile": { 
			"-0.025": 0.0,
			"-0.024": 0.0,
			"-0.023": 0.0,
			"-0.022": 0.0,
			"-0.021": 0.0,
			"-0.02": 0.0,
			"-0.019": 0.0,
			"-0.018": 0.0,
			"-0.017": 0.0,
			"-0.016": 0.0,
			"-0.015": 0.0567463046544,
			"-0.014": 0.597584312254,
			"-0.013": 0.735818124104,
			"-0.012": 1.00792269866,
			"-0.011": 1.04349498955,
			"-0.01": 0.931563260957,
			"-0.009": 1.15964372062,
			"-0.008": 0.867306233075,
			"-0.007": 0.865874457112,
			"-0.006": 1.25744622645,
			"-0.005": 1.42800392901,
			"-0.004": 2.77604347002,
			"-0.003": 9.64683170293,
			"-0.002": 32.7541366178,
			"-0.001": 52.3374963994,
			"0.0": 48.6349089693,
			"0.001": 37.3579969386,
			"0.002": 17.0559997201,
			"0.003": 1.35889059775,
			"0.004": 1.57263125602,
			"0.005": 1.31163767451,
			"0.006": 1.54698295481,
			"0.007": 1.20316000564,
			"0.008": 1.3795581778,
			"0.009": 0.941106112338,
			"0.01": 0.951795717614,
			"0.011": 1.21338240263,
			"0.012": 1.6995412988,
			"0.013": 1.68516464809,
			"0.014": 1.9400146648,
			"0.015": 1.88598535153,
			"0.016": 0.00452899302162,
			"0.017": 0.0,
			"0.018": 0.0,
			"0.019": 0.0,
			"0.02": 0.0,
			"0.021": 0.0,
			"0.022": 0.0,
			"0.023": 0.0,
			"0.024": 0.0,
			"0.025": 0.0
		}
	}
}
