{
	 "smiles": "COC(=O)C1=C(N)C=C(C=C1)[N+]([O-])=O", 
	 "Tm": 430.15, 
	 "num_atms": 22, 
	 "gaussian": { 
		 "optdone": 1, 
		 "sigma_profile": "yes", 
		 "theory": "DFT", 
		 "functional": "B3LYP", 
		 "basiset": "6-31G**", 
		 "properties": { 
			 "R2extent": 4287.0069, 
			 "electric_dipole_moment_norm": 5.99689863346, 
			 "electric_quadrupole_moment_norm": 16.5093534395, 
			 "total_energy": -719.986492666, 
			 "HOMO_LUMO_gap": 0.13214, 
			 "cosmo_polarized_energy": -13.71, 
			 "cosmo_cavitation_energy": 27.27, 
			 "cosmo_dispersion_energy": -20.2, 
			 "cosmo_repulsion_energy": 1.58, 
			 "cosmo_total_nonelectrostatic_energy": 8.66, 
			 "SMD_solvation_energy": 8.45 
		},
		"coords": [
			{
				"x": -0.3788010978,
				"y": -2.2347366344,
				"z": 2.7240316858,
				"element": "C" 
			},
			{
				"x": 0.048920845,
				"y": -1.1257019025,
				"z": 1.9112827373,
				"element": "O" 
			},
			{
				"x": -0.926623122,
				"y": -0.2229344617,
				"z": 1.6067505699,
				"element": "C" 
			},
			{
				"x": -2.0683586612,
				"y": -0.3655001042,
				"z": 1.997361261,
				"element": "O" 
			},
			{
				"x": -0.4640321801,
				"y": 0.9131295871,
				"z": 0.7648814086,
				"element": "C" 
			},
			{
				"x": 0.8755123164,
				"y": 1.1324570734,
				"z": 0.325786648,
				"element": "C" 
			},
			{
				"x": 1.9317379222,
				"y": 0.3371013151,
				"z": 0.6751878034,
				"element": "N" 
			},
			{
				"x": 1.125060219,
				"y": 2.2605138028,
				"z": -0.4883389162,
				"element": "C" 
			},
			{
				"x": 0.0941605983,
				"y": 3.1142934929,
				"z": -0.8301606467,
				"element": "C" 
			},
			{
				"x": -1.222957221,
				"y": 2.9251842184,
				"z": -0.4049866942,
				"element": "C" 
			},
			{
				"x": -1.4734141055,
				"y": 1.8198487279,
				"z": 0.3895907156,
				"element": "C" 
			},
			{
				"x": 0.4085374752,
				"y": 4.2775015104,
				"z": -1.6852201673,
				"element": "N" 
			},
			{
				"x": 1.5734695181,
				"y": 4.4203591203,
				"z": -2.0552182911,
				"element": "O" 
			},
			{
				"x": -0.5164163592,
				"y": 5.033319463,
				"z": -1.9758668294,
				"element": "O" 
			},
			{
				"x": -0.7731115692,
				"y": -1.8780240421,
				"z": 3.6778233051,
				"element": "H" 
			},
			{
				"x": -1.1550342683,
				"y": -2.8066098808,
				"z": 2.2110222996,
				"element": "H" 
			},
			{
				"x": 0.5108171519,
				"y": -2.8449668528,
				"z": 2.8788611255,
				"element": "H" 
			},
			{
				"x": 1.7427576968,
				"y": -0.5486690318,
				"z": 1.1159120931,
				"element": "H" 
			},
			{
				"x": 2.7991941367,
				"y": 0.4488362468,
				"z": 0.176496361,
				"element": "H" 
			},
			{
				"x": 2.1253846654,
				"y": 2.4701860301,
				"z": -0.847597622,
				"element": "H" 
			},
			{
				"x": -1.9978117904,
				"y": 3.6205981378,
				"z": -0.6964074833,
				"element": "H" 
			},
			{
				"x": -2.4756921706,
				"y": 1.6158141842,
				"z": 0.7487086365,
				"element": "H" 
			}
		],
		 "valence_orbital": [ 
			{
				"type": "occ",
				"energy": -0.30727,
				"method": "rhf"
			},
			{
				"type": "occ",
				"energy": -0.29188,
				"method": "rhf"
			},
			{
				"type": "occ",
				"energy": -0.28853,
				"method": "rhf"
			},
			{
				"type": "occ",
				"energy": -0.2795,
				"method": "rhf"
			},
			{
				"type": "occ",
				"energy": -0.2273,
				"method": "rhf"
			},
			{
				"type": "unocc",
				"energy": -0.09516,
				"method": "rhf"
			},
			{
				"type": "unocc",
				"energy": -0.03056,
				"method": "rhf"
			},
			{
				"type": "unocc",
				"energy": -0.00939,
				"method": "rhf"
			},
			{
				"type": "unocc",
				"energy": 0.05351,
				"method": "rhf"
			},
			{
				"type": "unocc",
				"energy": 0.07224,
				"method": "rhf"
			}
		],
		"cosmo_sigma_profile": { 
			"-0.025": 0.0,
			"-0.024": 0.0,
			"-0.023": 0.0,
			"-0.022": 0.0,
			"-0.021": 0.0,
			"-0.02": 0.0,
			"-0.019": 0.0,
			"-0.018": 0.0,
			"-0.017": 0.0,
			"-0.016": 0.0,
			"-0.015": 0.154801475312,
			"-0.014": 1.27152648985,
			"-0.013": 1.79935780871,
			"-0.012": 1.45783937215,
			"-0.011": 1.73476485252,
			"-0.01": 2.57528667375,
			"-0.009": 2.28954309386,
			"-0.008": 2.73846939538,
			"-0.007": 4.97197218422,
			"-0.006": 11.31638626,
			"-0.005": 14.0334157738,
			"-0.004": 14.9418934672,
			"-0.003": 16.5325979986,
			"-0.002": 14.2832439578,
			"-0.001": 14.358828224,
			"0.0": 16.4206060327,
			"0.001": 22.5434930784,
			"0.002": 13.93327216,
			"0.003": 7.64948628719,
			"0.004": 5.23330111788,
			"0.005": 6.24126712756,
			"0.006": 5.30053592149,
			"0.007": 11.1720072246,
			"0.008": 8.629434134,
			"0.009": 6.48907902056,
			"0.01": 3.5963802844,
			"0.011": 3.52537342296,
			"0.012": 2.93833809014,
			"0.013": 0.0,
			"0.014": 0.0,
			"0.015": 0.0,
			"0.016": 0.0,
			"0.017": 0.0,
			"0.018": 0.0,
			"0.019": 0.0,
			"0.02": 0.0,
			"0.021": 0.0,
			"0.022": 0.0,
			"0.023": 0.0,
			"0.024": 0.0,
			"0.025": 0.0
		}
	}
}
