{
	 "smiles": "COC(=O)C1=C(OS(=O)(=O)C(F)(F)F)C=CC2=C1C=CC=C2", 
	 "Tm": 315.15, 
	 "num_atms": 31, 
	 "gaussian": { 
		 "optdone": 1, 
		 "sigma_profile": "yes", 
		 "theory": "DFT", 
		 "functional": "B3LYP", 
		 "basiset": "6-31G**", 
		 "properties": { 
			 "R2extent": 7542.0356, 
			 "electric_dipole_moment_norm": 4.65047086756, 
			 "electric_quadrupole_moment_norm": 14.7991245059, 
			 "total_energy": -1574.54676247, 
			 "HOMO_LUMO_gap": 0.167, 
			 "cosmo_polarized_energy": -12.43, 
			 "cosmo_cavitation_energy": 39.07, 
			 "cosmo_dispersion_energy": -27.06, 
			 "cosmo_repulsion_energy": 1.94, 
			 "cosmo_total_nonelectrostatic_energy": 13.95, 
			 "SMD_solvation_energy": 7.94 
		},
		"coords": [
			{
				"x": -2.9196833655,
				"y": 1.8673229609,
				"z": 0.3005143479,
				"element": "C" 
			},
			{
				"x": -1.8082092303,
				"y": 1.1482789955,
				"z": 0.867084853,
				"element": "O" 
			},
			{
				"x": -0.8047712695,
				"y": 0.8745921755,
				"z": 0.0033907543,
				"element": "C" 
			},
			{
				"x": -0.8246186809,
				"y": 1.2001689851,
				"z": -1.1630921567,
				"element": "O" 
			},
			{
				"x": 0.306381439,
				"y": 0.1048616425,
				"z": 0.6569474583,
				"element": "C" 
			},
			{
				"x": 0.7702647891,
				"y": -1.0389850713,
				"z": 0.0336376732,
				"element": "C" 
			},
			{
				"x": 0.0994781472,
				"y": -1.4993012626,
				"z": -1.11088444,
				"element": "O" 
			},
			{
				"x": 0.9697912286,
				"y": -1.6454071014,
				"z": -2.5123960976,
				"element": "S" 
			},
			{
				"x": 1.4258323878,
				"y": -3.0219395635,
				"z": -2.6414230279,
				"element": "O" 
			},
			{
				"x": 1.8732331828,
				"y": -0.5197808962,
				"z": -2.6767188622,
				"element": "O" 
			},
			{
				"x": -0.5023880451,
				"y": -1.4427721388,
				"z": -3.6531915123,
				"element": "C" 
			},
			{
				"x": -0.9273779625,
				"y": -0.1908383683,
				"z": -3.6537658297,
				"element": "F" 
			},
			{
				"x": -1.4782033132,
				"y": -2.2622352016,
				"z": -3.2705419298,
				"element": "F" 
			},
			{
				"x": -0.0850050536,
				"y": -1.7809813868,
				"z": -4.8744133136,
				"element": "F" 
			},
			{
				"x": 1.8136445094,
				"y": -1.8282015431,
				"z": 0.5609106411,
				"element": "C" 
			},
			{
				"x": 2.4269298889,
				"y": -1.4315250848,
				"z": 1.7230101049,
				"element": "C" 
			},
			{
				"x": 2.0138625694,
				"y": -0.2583852018,
				"z": 2.4065688699,
				"element": "C" 
			},
			{
				"x": 0.9279355142,
				"y": 0.5216194838,
				"z": 1.8825277546,
				"element": "C" 
			},
			{
				"x": 0.5507657758,
				"y": 1.6987411563,
				"z": 2.5876129382,
				"element": "C" 
			},
			{
				"x": 1.2022796872,
				"y": 2.0726910252,
				"z": 3.7417969594,
				"element": "C" 
			},
			{
				"x": 2.2645124139,
				"y": 1.2960212979,
				"z": 4.2603729983,
				"element": "C" 
			},
			{
				"x": 2.6588675532,
				"y": 0.1546359157,
				"z": 3.6029457456,
				"element": "C" 
			},
			{
				"x": -3.3791784196,
				"y": 1.2861689455,
				"z": -0.502388983,
				"element": "H" 
			},
			{
				"x": -2.592294177,
				"y": 2.828487271,
				"z": -0.1030495003,
				"element": "H" 
			},
			{
				"x": -3.6219415187,
				"y": 2.011420213,
				"z": 1.1210456761,
				"element": "H" 
			},
			{
				"x": 2.1042480812,
				"y": -2.7354349191,
				"z": 0.0431901278,
				"element": "H" 
			},
			{
				"x": 3.2377437897,
				"y": -2.0232273373,
				"z": 2.1382227847,
				"element": "H" 
			},
			{
				"x": -0.2667737892,
				"y": 2.3010525775,
				"z": 2.2137297503,
				"element": "H" 
			},
			{
				"x": 0.8954774274,
				"y": 2.9761209682,
				"z": 4.2605938207,
				"element": "H" 
			},
			{
				"x": 2.765981915,
				"y": 1.6047020272,
				"z": 5.1725942279,
				"element": "H" 
			},
			{
				"x": 3.4767145254,
				"y": -0.4499705641,
				"z": 3.985568167,
				"element": "H" 
			}
		],
		 "valence_orbital": [ 
			{
				"type": "occ",
				"energy": -0.31137,
				"method": "rhf"
			},
			{
				"type": "occ",
				"energy": -0.30238,
				"method": "rhf"
			},
			{
				"type": "occ",
				"energy": -0.28226,
				"method": "rhf"
			},
			{
				"type": "occ",
				"energy": -0.25935,
				"method": "rhf"
			},
			{
				"type": "occ",
				"energy": -0.2337,
				"method": "rhf"
			},
			{
				"type": "unocc",
				"energy": -0.0667,
				"method": "rhf"
			},
			{
				"type": "unocc",
				"energy": -0.03312,
				"method": "rhf"
			},
			{
				"type": "unocc",
				"energy": -0.01321,
				"method": "rhf"
			},
			{
				"type": "unocc",
				"energy": 0.01341,
				"method": "rhf"
			},
			{
				"type": "unocc",
				"energy": 0.02852,
				"method": "rhf"
			}
		],
		"cosmo_sigma_profile": { 
			"-0.025": 0.0,
			"-0.024": 0.0,
			"-0.023": 0.0,
			"-0.022": 0.0,
			"-0.021": 0.0,
			"-0.02": 0.0,
			"-0.019": 0.0,
			"-0.018": 0.0,
			"-0.017": 0.0,
			"-0.016": 0.0,
			"-0.015": 0.0,
			"-0.014": 0.0,
			"-0.013": 0.0,
			"-0.012": 0.0,
			"-0.011": 0.0,
			"-0.01": 0.0,
			"-0.009": 0.0,
			"-0.008": 2.09035345465,
			"-0.007": 9.59217544379,
			"-0.006": 18.3776085852,
			"-0.005": 23.7090128858,
			"-0.004": 23.4952790832,
			"-0.003": 20.9422477957,
			"-0.002": 21.033709654,
			"-0.001": 22.1494012054,
			"0.0": 38.2718473109,
			"0.001": 28.7467805971,
			"0.002": 25.1362282966,
			"0.003": 18.8326719821,
			"0.004": 15.0532007616,
			"0.005": 6.9358280995,
			"0.006": 7.63583882413,
			"0.007": 13.3244988108,
			"0.008": 12.3370217912,
			"0.009": 2.69192622109,
			"0.01": 2.65016741978,
			"0.011": 1.45430080655,
			"0.012": 0.0,
			"0.013": 0.0,
			"0.014": 0.0,
			"0.015": 0.0,
			"0.016": 0.0,
			"0.017": 0.0,
			"0.018": 0.0,
			"0.019": 0.0,
			"0.02": 0.0,
			"0.021": 0.0,
			"0.022": 0.0,
			"0.023": 0.0,
			"0.024": 0.0,
			"0.025": 0.0
		}
	}
}
