{
	 "smiles": "CN1N=CC(Br)=C1NC(=O)CCl", 
	 "Tm": 411.15, 
	 "num_atms": 19, 
	 "gaussian": { 
		 "optdone": 1, 
		 "sigma_profile": "yes", 
		 "theory": "DFT", 
		 "functional": "B3LYP", 
		 "basiset": "6-31G**", 
		 "properties": { 
			 "R2extent": 4266.4304, 
			 "electric_dipole_moment_norm": 2.43183016882, 
			 "electric_quadrupole_moment_norm": 4.79992878176, 
			 "total_energy": -3503.91684231, 
			 "HOMO_LUMO_gap": 0.21631, 
			 "cosmo_polarized_energy": -11.9, 
			 "cosmo_cavitation_energy": 27.65, 
			 "cosmo_dispersion_energy": -20.23, 
			 "cosmo_repulsion_energy": 1.64, 
			 "cosmo_total_nonelectrostatic_energy": 9.06, 
			 "SMD_solvation_energy": 3.31 
		},
		"coords": [
			{
				"x": -0.1984060716,
				"y": 2.2185465489,
				"z": -0.1957829292,
				"element": "C" 
			},
			{
				"x": 0.5235159913,
				"y": 1.3019063416,
				"z": -1.0642633082,
				"element": "N" 
			},
			{
				"x": 1.1511317904,
				"y": 1.7773776984,
				"z": -2.1631850211,
				"element": "N" 
			},
			{
				"x": 1.7290039702,
				"y": 0.721924851,
				"z": -2.7349252306,
				"element": "C" 
			},
			{
				"x": 1.4585739752,
				"y": -0.4502619325,
				"z": -2.009254958,
				"element": "C" 
			},
			{
				"x": 2.0279398325,
				"y": -2.211045031,
				"z": -2.3545479686,
				"element": "Br" 
			},
			{
				"x": 0.6718743189,
				"y": -0.0464562049,
				"z": -0.9401327851,
				"element": "C" 
			},
			{
				"x": 0.1727062664,
				"y": -0.8086920515,
				"z": 0.123313152,
				"element": "N" 
			},
			{
				"x": -1.1544745193,
				"y": -0.8935432721,
				"z": 0.4521397388,
				"element": "C" 
			},
			{
				"x": -2.0390179835,
				"y": -0.2114169855,
				"z": -0.0386592578,
				"element": "O" 
			},
			{
				"x": -1.5479396236,
				"y": -1.8927625258,
				"z": 1.5418796887,
				"element": "C" 
			},
			{
				"x": -0.2260138743,
				"y": -2.9291421688,
				"z": 2.2216986254,
				"element": "Cl" 
			},
			{
				"x": 0.1167665127,
				"y": 2.0749931412,
				"z": 0.841787067,
				"element": "H" 
			},
			{
				"x": -1.2736176612,
				"y": 2.0481345816,
				"z": -0.2715045378,
				"element": "H" 
			},
			{
				"x": 0.0602422638,
				"y": 3.2249417997,
				"z": -0.5218503804,
				"element": "H" 
			},
			{
				"x": 2.3082869445,
				"y": 0.8337990957,
				"z": -3.6400860527,
				"element": "H" 
			},
			{
				"x": 0.7912116443,
				"y": -1.5172722427,
				"z": 0.5009174248,
				"element": "H" 
			},
			{
				"x": -1.9857070503,
				"y": -1.3388213433,
				"z": 2.3730865584,
				"element": "H" 
			},
			{
				"x": -2.3045767265,
				"y": -2.5591102999,
				"z": 1.1271701744,
				"element": "H" 
			}
		],
		 "valence_orbital": [ 
			{
				"type": "occ",
				"energy": -0.30703,
				"method": "rhf"
			},
			{
				"type": "occ",
				"energy": -0.28722,
				"method": "rhf"
			},
			{
				"type": "occ",
				"energy": -0.28322,
				"method": "rhf"
			},
			{
				"type": "occ",
				"energy": -0.25491,
				"method": "rhf"
			},
			{
				"type": "occ",
				"energy": -0.23516,
				"method": "rhf"
			},
			{
				"type": "unocc",
				"energy": -0.01885,
				"method": "rhf"
			},
			{
				"type": "unocc",
				"energy": 0.00012,
				"method": "rhf"
			},
			{
				"type": "unocc",
				"energy": 0.01046,
				"method": "rhf"
			},
			{
				"type": "unocc",
				"energy": 0.01677,
				"method": "rhf"
			},
			{
				"type": "unocc",
				"energy": 0.05397,
				"method": "rhf"
			}
		],
		"cosmo_sigma_profile": { 
			"-0.025": 0.0,
			"-0.024": 0.0,
			"-0.023": 0.0,
			"-0.022": 0.0,
			"-0.021": 0.0,
			"-0.02": 0.0,
			"-0.019": 0.0,
			"-0.018": 0.0,
			"-0.017": 0.0,
			"-0.016": 0.0,
			"-0.015": 0.0,
			"-0.014": 0.0467400821903,
			"-0.013": 0.429287812698,
			"-0.012": 0.685264107432,
			"-0.011": 0.524967643775,
			"-0.01": 2.02420835444,
			"-0.009": 5.99909006166,
			"-0.008": 6.19041267179,
			"-0.007": 8.87672508654,
			"-0.006": 11.783147628,
			"-0.005": 13.2577338949,
			"-0.004": 14.5543178426,
			"-0.003": 16.986216674,
			"-0.002": 11.7709000542,
			"-0.001": 11.6642916012,
			"0.0": 14.0264322733,
			"0.001": 15.6928481926,
			"0.002": 18.0866752491,
			"0.003": 18.7992792537,
			"0.004": 17.8752049954,
			"0.005": 11.5358998974,
			"0.006": 3.87308835962,
			"0.007": 3.64358790477,
			"0.008": 2.47681519321,
			"0.009": 2.54453546116,
			"0.01": 2.64093929014,
			"0.011": 4.03286732364,
			"0.012": 3.91987604673,
			"0.013": 1.60523374799,
			"0.014": 0.713059961844,
			"0.015": 0.411032096772,
			"0.016": 0.0,
			"0.017": 0.0,
			"0.018": 0.0,
			"0.019": 0.0,
			"0.02": 0.0,
			"0.021": 0.0,
			"0.022": 0.0,
			"0.023": 0.0,
			"0.024": 0.0,
			"0.025": 0.0
		}
	}
}
