{
	 "smiles": "BrC1=CC2=C(OC(=O)N2)C=C1", 
	 "Tm": 483.15, 
	 "num_atms": 15, 
	 "gaussian": { 
		 "optdone": 1, 
		 "sigma_profile": "yes", 
		 "theory": "DFT", 
		 "functional": "B3LYP", 
		 "basiset": "6-31G**", 
		 "properties": { 
			 "R2extent": 4538.7156, 
			 "electric_dipole_moment_norm": 2.37579844894, 
			 "electric_quadrupole_moment_norm": 19.9524211919, 
			 "total_energy": -3045.77438586, 
			 "HOMO_LUMO_gap": 0.20244, 
			 "cosmo_polarized_energy": -12.4, 
			 "cosmo_cavitation_energy": 22.37, 
			 "cosmo_dispersion_energy": -17.52, 
			 "cosmo_repulsion_energy": 1.4, 
			 "cosmo_total_nonelectrostatic_energy": 6.26, 
			 "SMD_solvation_energy": 3.94 
		},
		"coords": [
			{
				"x": -2.3301172393,
				"y": 2.3912648822,
				"z": -3.432844636,
				"element": "Br" 
			},
			{
				"x": -1.2845507601,
				"y": 1.6407955701,
				"z": -2.0197135569,
				"element": "C" 
			},
			{
				"x": -0.5553087547,
				"y": 2.5101732721,
				"z": -1.1983088453,
				"element": "C" 
			},
			{
				"x": 0.1879477013,
				"y": 1.9178925922,
				"z": -0.186890247,
				"element": "C" 
			},
			{
				"x": 0.1999911856,
				"y": 0.5293118561,
				"z": -0.0079699123,
				"element": "C" 
			},
			{
				"x": 1.0099520229,
				"y": 0.2066261471,
				"z": 1.0562067055,
				"element": "O" 
			},
			{
				"x": 1.5333267883,
				"y": 1.3877657185,
				"z": 1.5799311161,
				"element": "C" 
			},
			{
				"x": 2.279902317,
				"y": 1.4397972957,
				"z": 2.5197659349,
				"element": "O" 
			},
			{
				"x": 1.0194616602,
				"y": 2.4187853777,
				"z": 0.8075214931,
				"element": "N" 
			},
			{
				"x": -0.5195736855,
				"y": -0.3257098607,
				"z": -0.8187647723,
				"element": "C" 
			},
			{
				"x": -1.2769740346,
				"y": 0.2555556611,
				"z": -1.8468194591,
				"element": "C" 
			},
			{
				"x": -0.5779297178,
				"y": 3.5817974063,
				"z": -1.3532847957,
				"element": "H" 
			},
			{
				"x": 1.2534857435,
				"y": 3.3814018687,
				"z": 0.9906348691,
				"element": "H" 
			},
			{
				"x": -0.499398237,
				"y": -1.3986352988,
				"z": -0.6667214518,
				"element": "H" 
			},
			{
				"x": -1.8593149898,
				"y": -0.3716224882,
				"z": -2.5106424423,
				"element": "H" 
			}
		],
		 "valence_orbital": [ 
			{
				"type": "occ",
				"energy": -0.30364,
				"method": "rhf"
			},
			{
				"type": "occ",
				"energy": -0.30081,
				"method": "rhf"
			},
			{
				"type": "occ",
				"energy": -0.29652,
				"method": "rhf"
			},
			{
				"type": "occ",
				"energy": -0.26317,
				"method": "rhf"
			},
			{
				"type": "occ",
				"energy": -0.23347,
				"method": "rhf"
			},
			{
				"type": "unocc",
				"energy": -0.03103,
				"method": "rhf"
			},
			{
				"type": "unocc",
				"energy": -0.01521,
				"method": "rhf"
			},
			{
				"type": "unocc",
				"energy": -0.00489,
				"method": "rhf"
			},
			{
				"type": "unocc",
				"energy": 0.03783,
				"method": "rhf"
			},
			{
				"type": "unocc",
				"energy": 0.064,
				"method": "rhf"
			}
		],
		"cosmo_sigma_profile": { 
			"-0.025": 0.0,
			"-0.024": 0.0,
			"-0.023": 0.0,
			"-0.022": 0.0,
			"-0.021": 0.0,
			"-0.02": 0.0,
			"-0.019": 0.0,
			"-0.018": 0.497397259152,
			"-0.017": 1.71518002963,
			"-0.016": 1.19265092858,
			"-0.015": 1.44289652805,
			"-0.014": 1.08416836046,
			"-0.013": 0.903616670846,
			"-0.012": 1.08555309955,
			"-0.011": 1.32082761163,
			"-0.01": 1.00251132323,
			"-0.009": 2.10521763913,
			"-0.008": 4.81196387217,
			"-0.007": 5.53043341143,
			"-0.006": 7.06622645174,
			"-0.005": 6.93759616926,
			"-0.004": 8.98077063588,
			"-0.003": 10.1737662837,
			"-0.002": 9.81811511081,
			"-0.001": 11.9638591474,
			"0.0": 13.8762117006,
			"0.001": 15.6972209035,
			"0.002": 18.4646422963,
			"0.003": 14.6908848097,
			"0.004": 12.1825514779,
			"0.005": 7.53006893212,
			"0.006": 2.45269222275,
			"0.007": 3.16784476577,
			"0.008": 3.37124737391,
			"0.009": 1.90935472183,
			"0.01": 2.03819448589,
			"0.011": 5.93066880324,
			"0.012": 4.82281922158,
			"0.013": 0.281974942164,
			"0.014": 0.0,
			"0.015": 0.0,
			"0.016": 0.0,
			"0.017": 0.0,
			"0.018": 0.0,
			"0.019": 0.0,
			"0.02": 0.0,
			"0.021": 0.0,
			"0.022": 0.0,
			"0.023": 0.0,
			"0.024": 0.0,
			"0.025": 0.0
		}
	}
}
