{
	 "smiles": "CC(C)C1=C(O)C(=O)C2=C(C=C[C@H]3C(C)(C)CCC[C@]23C)C1=O", 
	 "Tm": 440.15, 
	 "num_atms": 49, 
	 "gaussian": { 
		 "optdone": 1, 
		 "sigma_profile": "yes", 
		 "theory": "DFT", 
		 "functional": "B3LYP", 
		 "basiset": "6-31G**", 
		 "properties": { 
			 "R2extent": 8334.4473, 
			 "electric_dipole_moment_norm": 3.04685719554, 
			 "electric_quadrupole_moment_norm": 7.50503569479, 
			 "total_energy": -1003.46012511, 
			 "HOMO_LUMO_gap": 0.11012, 
			 "cosmo_polarized_energy": -8.71, 
			 "cosmo_cavitation_energy": 44.99, 
			 "cosmo_dispersion_energy": -31.88, 
			 "cosmo_repulsion_energy": 2.36, 
			 "cosmo_total_nonelectrostatic_energy": 15.47, 
			 "SMD_solvation_energy": 8.43 
		},
		"coords": [
			{
				"x": -3.5523844047,
				"y": 1.7127995871,
				"z": -2.9660597453,
				"element": "C" 
			},
			{
				"x": -3.481473493,
				"y": 0.3787349507,
				"z": -2.1974521444,
				"element": "C" 
			},
			{
				"x": -3.8991407329,
				"y": -0.8074538525,
				"z": -3.0894573591,
				"element": "C" 
			},
			{
				"x": -2.1184555159,
				"y": 0.158388418,
				"z": -1.5680460696,
				"element": "C" 
			},
			{
				"x": -0.9576285524,
				"y": 0.0470998019,
				"z": -2.2598993201,
				"element": "C" 
			},
			{
				"x": -0.87703472,
				"y": 0.1073902179,
				"z": -3.5978351512,
				"element": "O" 
			},
			{
				"x": 0.3798190206,
				"y": -0.1917905271,
				"z": -1.6137549087,
				"element": "C" 
			},
			{
				"x": 1.3226543732,
				"y": -0.3759838699,
				"z": -2.3948169762,
				"element": "O" 
			},
			{
				"x": 0.4907222571,
				"y": -0.2065991514,
				"z": -0.1536897097,
				"element": "C" 
			},
			{
				"x": -0.6758852353,
				"y": -0.1741066665,
				"z": 0.5560126823,
				"element": "C" 
			},
			{
				"x": -0.6821807071,
				"y": -0.3548253579,
				"z": 1.9955450602,
				"element": "C" 
			},
			{
				"x": 0.4713535035,
				"y": -0.2940759463,
				"z": 2.6837800397,
				"element": "C" 
			},
			{
				"x": 1.7679991332,
				"y": 0.0529041451,
				"z": 2.0015954582,
				"element": "C" 
			},
			{
				"x": 3.0438435797,
				"y": -0.2025210809,
				"z": 2.8853921598,
				"element": "C" 
			},
			{
				"x": 3.0196102283,
				"y": -1.5488439674,
				"z": 3.6401964947,
				"element": "C" 
			},
			{
				"x": 3.1201965424,
				"y": 0.9281072718,
				"z": 3.9358628974,
				"element": "C" 
			},
			{
				"x": 4.3118444978,
				"y": -0.1398010165,
				"z": 1.9860525714,
				"element": "C" 
			},
			{
				"x": 4.1145299822,
				"y": 0.7872487293,
				"z": 0.7854046351,
				"element": "C" 
			},
			{
				"x": 3.0192621966,
				"y": 0.2804432728,
				"z": -0.179102036,
				"element": "C" 
			},
			{
				"x": 1.8429475792,
				"y": -0.4786257138,
				"z": 0.5297831494,
				"element": "C" 
			},
			{
				"x": 2.0477669961,
				"y": -2.013835133,
				"z": 0.426604208,
				"element": "C" 
			},
			{
				"x": -2.025847528,
				"y": 0.0194144191,
				"z": -0.1053904716,
				"element": "C" 
			},
			{
				"x": -3.0248923868,
				"y": 0.051664979,
				"z": 0.6115023533,
				"element": "O" 
			},
			{
				"x": -4.5663026179,
				"y": 1.8723944872,
				"z": -3.3489028301,
				"element": "H" 
			},
			{
				"x": -3.3027648169,
				"y": 2.5573880382,
				"z": -2.3156989938,
				"element": "H" 
			},
			{
				"x": -2.8636370132,
				"y": 1.7202284962,
				"z": -3.8155130702,
				"element": "H" 
			},
			{
				"x": -4.1853231844,
				"y": 0.4326285848,
				"z": -1.3614205063,
				"element": "H" 
			},
			{
				"x": -3.9004730523,
				"y": -1.7447091198,
				"z": -2.5238215756,
				"element": "H" 
			},
			{
				"x": -4.9109879259,
				"y": -0.6483063937,
				"z": -3.4779517298,
				"element": "H" 
			},
			{
				"x": -3.222193909,
				"y": -0.921931224,
				"z": -3.9407754473,
				"element": "H" 
			},
			{
				"x": 0.0729542772,
				"y": -0.0570992407,
				"z": -3.7916946965,
				"element": "H" 
			},
			{
				"x": -1.6416704468,
				"y": -0.5033142259,
				"z": 2.4766700638,
				"element": "H" 
			},
			{
				"x": 0.4561144188,
				"y": -0.4061107129,
				"z": 3.7641552469,
				"element": "H" 
			},
			{
				"x": 1.7223424349,
				"y": 1.1500850811,
				"z": 1.8794212185,
				"element": "H" 
			},
			{
				"x": 2.2293715569,
				"y": -1.5852879314,
				"z": 4.3966498541,
				"element": "H" 
			},
			{
				"x": 2.8816358049,
				"y": -2.4018174929,
				"z": 2.9722543603,
				"element": "H" 
			},
			{
				"x": 3.971640789,
				"y": -1.6901027042,
				"z": 4.1644412738,
				"element": "H" 
			},
			{
				"x": 2.2017470307,
				"y": 0.9938202967,
				"z": 4.5299238825,
				"element": "H" 
			},
			{
				"x": 3.2777044219,
				"y": 1.9045811324,
				"z": 3.4645106317,
				"element": "H" 
			},
			{
				"x": 3.9495091872,
				"y": 0.7532076517,
				"z": 4.6298028573,
				"element": "H" 
			},
			{
				"x": 4.5716793338,
				"y": -1.143303479,
				"z": 1.6283890756,
				"element": "H" 
			},
			{
				"x": 5.1639075243,
				"y": 0.1910907455,
				"z": 2.5924557665,
				"element": "H" 
			},
			{
				"x": 5.0534029527,
				"y": 0.9006159315,
				"z": 0.2319501418,
				"element": "H" 
			},
			{
				"x": 3.8618365445,
				"y": 1.79233733,
				"z": 1.1471730112,
				"element": "H" 
			},
			{
				"x": 2.6264413474,
				"y": 1.1344281706,
				"z": -0.7383307057,
				"element": "H" 
			},
			{
				"x": 3.4585948164,
				"y": -0.3826758948,
				"z": -0.9278340003,
				"element": "H" 
			},
			{
				"x": 1.9793211149,
				"y": -2.3185813058,
				"z": -0.6213772676,
				"element": "H" 
			},
			{
				"x": 1.2843852337,
				"y": -2.5556570186,
				"z": 0.9936721465,
				"element": "H" 
			},
			{
				"x": 3.0299375638,
				"y": -2.3226427114,
				"z": 0.7897234756,
				"element": "H" 
			}
		],
		 "valence_orbital": [ 
			{
				"type": "occ",
				"energy": -0.29942,
				"method": "rhf"
			},
			{
				"type": "occ",
				"energy": -0.27839,
				"method": "rhf"
			},
			{
				"type": "occ",
				"energy": -0.25561,
				"method": "rhf"
			},
			{
				"type": "occ",
				"energy": -0.2526,
				"method": "rhf"
			},
			{
				"type": "occ",
				"energy": -0.22746,
				"method": "rhf"
			},
			{
				"type": "unocc",
				"energy": -0.11734,
				"method": "rhf"
			},
			{
				"type": "unocc",
				"energy": -0.0296,
				"method": "rhf"
			},
			{
				"type": "unocc",
				"energy": 0.01614,
				"method": "rhf"
			},
			{
				"type": "unocc",
				"energy": 0.05148,
				"method": "rhf"
			},
			{
				"type": "unocc",
				"energy": 0.07066,
				"method": "rhf"
			}
		],
		"cosmo_sigma_profile": { 
			"-0.025": 0.0,
			"-0.024": 0.0,
			"-0.023": 0.0,
			"-0.022": 0.0,
			"-0.021": 0.0,
			"-0.02": 0.0,
			"-0.019": 0.0,
			"-0.018": 0.0,
			"-0.017": 0.0,
			"-0.016": 0.0,
			"-0.015": 0.0,
			"-0.014": 0.0738015630929,
			"-0.013": 0.349690652956,
			"-0.012": 0.382391536021,
			"-0.011": 0.740731217142,
			"-0.01": 0.948643907722,
			"-0.009": 0.443514748364,
			"-0.008": 0.534429216953,
			"-0.007": 0.89465706613,
			"-0.006": 3.62027870477,
			"-0.005": 7.45059726415,
			"-0.004": 16.0735258398,
			"-0.003": 32.2470265724,
			"-0.002": 52.8071597397,
			"-0.001": 51.6270050883,
			"0.0": 54.3275702179,
			"0.001": 54.5445721281,
			"0.002": 22.9706026647,
			"0.003": 8.45316014573,
			"0.004": 8.00353369912,
			"0.005": 6.46091691981,
			"0.006": 5.76378226206,
			"0.007": 4.04344387736,
			"0.008": 4.53937789967,
			"0.009": 3.17006648749,
			"0.01": 4.19061921525,
			"0.011": 3.95085564335,
			"0.012": 1.61870840594,
			"0.013": 0.0,
			"0.014": 0.0,
			"0.015": 0.0,
			"0.016": 0.0,
			"0.017": 0.0,
			"0.018": 0.0,
			"0.019": 0.0,
			"0.02": 0.0,
			"0.021": 0.0,
			"0.022": 0.0,
			"0.023": 0.0,
			"0.024": 0.0,
			"0.025": 0.0
		}
	}
}
