{
	 "smiles": "OC1=CC=C(C=C1)C1=NOC(=N1)C1CCCO1", 
	 "Tm": 370.15, 
	 "num_atms": 29, 
	 "gaussian": { 
		 "optdone": 1, 
		 "sigma_profile": "yes", 
		 "theory": "DFT", 
		 "functional": "B3LYP", 
		 "basiset": "6-31G**", 
		 "properties": { 
			 "R2extent": 6292.0791, 
			 "electric_dipole_moment_norm": 4.22986437962, 
			 "electric_quadrupole_moment_norm": 13.6524491352, 
			 "total_energy": -799.634728899, 
			 "HOMO_LUMO_gap": 0.18498, 
			 "cosmo_polarized_energy": -14.67, 
			 "cosmo_cavitation_energy": 33.09, 
			 "cosmo_dispersion_energy": -24.5, 
			 "cosmo_repulsion_energy": 1.9, 
			 "cosmo_total_nonelectrostatic_energy": 10.5, 
			 "SMD_solvation_energy": 4.48 
		},
		"coords": [
			{
				"x": -5.2457226933,
				"y": 0.2533173206,
				"z": -3.0990605198,
				"element": "O" 
			},
			{
				"x": -4.3066537706,
				"y": 0.2648547004,
				"z": -2.1115437228,
				"element": "C" 
			},
			{
				"x": -4.6623002573,
				"y": -0.3007742936,
				"z": -0.8787507781,
				"element": "C" 
			},
			{
				"x": -3.7465236977,
				"y": -0.3169723772,
				"z": 0.1629391319,
				"element": "C" 
			},
			{
				"x": -2.4608324325,
				"y": 0.2285133104,
				"z": -0.0019415934,
				"element": "C" 
			},
			{
				"x": -2.1158106515,
				"y": 0.7912904656,
				"z": -1.2375285551,
				"element": "C" 
			},
			{
				"x": -3.0299269294,
				"y": 0.8108357479,
				"z": -2.2870826958,
				"element": "C" 
			},
			{
				"x": -1.4887946711,
				"y": 0.2150110691,
				"z": 1.0946798723,
				"element": "C" 
			},
			{
				"x": -1.7529056942,
				"y": -0.2940791457,
				"z": 2.280523311,
				"element": "N" 
			},
			{
				"x": -0.5597372735,
				"y": -0.0928225352,
				"z": 2.9927580643,
				"element": "O" 
			},
			{
				"x": 0.2938414646,
				"y": 0.5155992582,
				"z": 2.1545944537,
				"element": "C" 
			},
			{
				"x": -0.2107425181,
				"y": 0.7312002336,
				"z": 0.9757803634,
				"element": "N" 
			},
			{
				"x": 1.6581879521,
				"y": 0.8776178674,
				"z": 2.6865778145,
				"element": "C" 
			},
			{
				"x": 2.7921403524,
				"y": 0.5500383404,
				"z": 1.6976013302,
				"element": "C" 
			},
			{
				"x": 2.878553464,
				"y": 1.8426663336,
				"z": 0.8716522024,
				"element": "C" 
			},
			{
				"x": 2.563152325,
				"y": 2.9132752445,
				"z": 1.9220108501,
				"element": "C" 
			},
			{
				"x": 1.7232986576,
				"y": 2.2879057579,
				"z": 2.9093851912,
				"element": "O" 
			},
			{
				"x": -4.881328621,
				"y": 0.6703955227,
				"z": -3.890783647,
				"element": "H" 
			},
			{
				"x": -5.6565100548,
				"y": -0.7186041731,
				"z": -0.7618833294,
				"element": "H" 
			},
			{
				"x": -4.0191521394,
				"y": -0.7535596788,
				"z": 1.1180492667,
				"element": "H" 
			},
			{
				"x": -1.1253735366,
				"y": 1.2135826908,
				"z": -1.3668843871,
				"element": "H" 
			},
			{
				"x": -2.7527329943,
				"y": 1.2505670798,
				"z": -3.2428920302,
				"element": "H" 
			},
			{
				"x": 1.7792458119,
				"y": 0.3709583303,
				"z": 3.6497626652,
				"element": "H" 
			},
			{
				"x": 2.5895051885,
				"y": -0.3386850213,
				"z": 1.0959313108,
				"element": "H" 
			},
			{
				"x": 3.717129477,
				"y": 0.3829692223,
				"z": 2.2594208131,
				"element": "H" 
			},
			{
				"x": 2.1137509316,
				"y": 1.8343881137,
				"z": 0.0909898684,
				"element": "H" 
			},
			{
				"x": 3.8569548884,
				"y": 1.987055848,
				"z": 0.4053154845,
				"element": "H" 
			},
			{
				"x": 2.0319859852,
				"y": 3.7770405787,
				"z": 1.5092454365,
				"element": "H" 
			},
			{
				"x": 3.4752014371,
				"y": 3.273514189,
				"z": 2.4182338287,
				"element": "H" 
			}
		],
		 "valence_orbital": [ 
			{
				"type": "occ",
				"energy": -0.29229,
				"method": "rhf"
			},
			{
				"type": "occ",
				"energy": -0.28899,
				"method": "rhf"
			},
			{
				"type": "occ",
				"energy": -0.26016,
				"method": "rhf"
			},
			{
				"type": "occ",
				"energy": -0.25812,
				"method": "rhf"
			},
			{
				"type": "occ",
				"energy": -0.22158,
				"method": "rhf"
			},
			{
				"type": "unocc",
				"energy": -0.0366,
				"method": "rhf"
			},
			{
				"type": "unocc",
				"energy": -0.01041,
				"method": "rhf"
			},
			{
				"type": "unocc",
				"energy": -0.00093,
				"method": "rhf"
			},
			{
				"type": "unocc",
				"energy": 0.06442,
				"method": "rhf"
			},
			{
				"type": "unocc",
				"energy": 0.07614,
				"method": "rhf"
			}
		],
		"cosmo_sigma_profile": { 
			"-0.025": 0.0,
			"-0.024": 0.0,
			"-0.023": 0.0,
			"-0.022": 0.0,
			"-0.021": 0.0,
			"-0.02": 0.0,
			"-0.019": 0.0455181095543,
			"-0.018": 0.915254209706,
			"-0.017": 1.19159063489,
			"-0.016": 1.05622449971,
			"-0.015": 1.01647489285,
			"-0.014": 0.774615543875,
			"-0.013": 1.1908171027,
			"-0.012": 1.05084102524,
			"-0.011": 0.517024862378,
			"-0.01": 1.52576926083,
			"-0.009": 1.29468113801,
			"-0.008": 1.09797388885,
			"-0.007": 5.09202191985,
			"-0.006": 8.95015466281,
			"-0.005": 17.3680057634,
			"-0.004": 22.8987548716,
			"-0.003": 23.8699028775,
			"-0.002": 20.507513416,
			"-0.001": 19.192788046,
			"0.0": 15.6820579084,
			"0.001": 14.8533549341,
			"0.002": 17.9425061706,
			"0.003": 18.9927289011,
			"0.004": 18.7617601619,
			"0.005": 9.35056619361,
			"0.006": 8.24059357562,
			"0.007": 8.44488029132,
			"0.008": 5.23144085279,
			"0.009": 4.26680713826,
			"0.01": 4.80923887254,
			"0.011": 2.74039241614,
			"0.012": 3.38374659571,
			"0.013": 0.971183123063,
			"0.014": 0.0,
			"0.015": 0.0,
			"0.016": 0.0,
			"0.017": 0.0,
			"0.018": 0.0,
			"0.019": 0.0,
			"0.02": 0.0,
			"0.021": 0.0,
			"0.022": 0.0,
			"0.023": 0.0,
			"0.024": 0.0,
			"0.025": 0.0
		}
	}
}
