{
	 "smiles": "OC(=O)CSCCOC1=CC=CC=C1", 
	 "Tm": 323.65, 
	 "num_atms": 26, 
	 "gaussian": { 
		 "optdone": 1, 
		 "sigma_profile": "yes", 
		 "theory": "DFT", 
		 "functional": "B3LYP", 
		 "basiset": "6-31G**", 
		 "properties": { 
			 "R2extent": 4190.2912, 
			 "electric_dipole_moment_norm": 1.73949222763, 
			 "electric_quadrupole_moment_norm": 8.2923062353, 
			 "total_energy": -1012.15719113, 
			 "HOMO_LUMO_gap": 0.21665, 
			 "cosmo_polarized_energy": -13.81, 
			 "cosmo_cavitation_energy": 31.15, 
			 "cosmo_dispersion_energy": -22.51, 
			 "cosmo_repulsion_energy": 1.73, 
			 "cosmo_total_nonelectrostatic_energy": 10.37, 
			 "SMD_solvation_energy": 5.96 
		},
		"coords": [
			{
				"x": 2.5206247931,
				"y": 0.2525094893,
				"z": 1.7119711617,
				"element": "O" 
			},
			{
				"x": 2.077660098,
				"y": 0.6469694613,
				"z": 0.4988480488,
				"element": "C" 
			},
			{
				"x": 1.360459712,
				"y": 1.6117996637,
				"z": 0.347895864,
				"element": "O" 
			},
			{
				"x": 2.5953765792,
				"y": -0.1919482714,
				"z": -0.6559605989,
				"element": "C" 
			},
			{
				"x": 3.0378880451,
				"y": -1.9432459696,
				"z": -0.3481763415,
				"element": "S" 
			},
			{
				"x": 1.5539860637,
				"y": -2.6280549354,
				"z": 0.4853337246,
				"element": "C" 
			},
			{
				"x": 0.2720599721,
				"y": -2.6611701575,
				"z": -0.3329232844,
				"element": "C" 
			},
			{
				"x": -0.1744266068,
				"y": -1.3189975598,
				"z": -0.4781241193,
				"element": "O" 
			},
			{
				"x": -1.3249575518,
				"y": -1.0645491361,
				"z": -1.1789994935,
				"element": "C" 
			},
			{
				"x": -1.6601736116,
				"y": 0.2911355376,
				"z": -1.3098052622,
				"element": "C" 
			},
			{
				"x": -2.8123775185,
				"y": 0.6504113852,
				"z": -2.00049749,
				"element": "C" 
			},
			{
				"x": -3.6389931031,
				"y": -0.3271495116,
				"z": -2.5666762571,
				"element": "C" 
			},
			{
				"x": -3.2959934175,
				"y": -1.6703910027,
				"z": -2.4331156148,
				"element": "C" 
			},
			{
				"x": -2.1407720107,
				"y": -2.0515165304,
				"z": -1.7415264102,
				"element": "C" 
			},
			{
				"x": 2.142999521,
				"y": 0.8838449202,
				"z": 2.3478542926,
				"element": "H" 
			},
			{
				"x": 3.5339860579,
				"y": 0.2636480322,
				"z": -0.9931121811,
				"element": "H" 
			},
			{
				"x": 1.8685702698,
				"y": -0.1002567011,
				"z": -1.4611700905,
				"element": "H" 
			},
			{
				"x": 1.8477946673,
				"y": -3.6526319344,
				"z": 0.7343316625,
				"element": "H" 
			},
			{
				"x": 1.3893753224,
				"y": -2.0897198277,
				"z": 1.4226180642,
				"element": "H" 
			},
			{
				"x": 0.4441955439,
				"y": -3.1218638872,
				"z": -1.3148534624,
				"element": "H" 
			},
			{
				"x": -0.4850307666,
				"y": -3.2561722989,
				"z": 0.201143501,
				"element": "H" 
			},
			{
				"x": -1.0023496318,
				"y": 1.0319745158,
				"z": -0.8659067554,
				"element": "H" 
			},
			{
				"x": -3.0667776376,
				"y": 1.701991208,
				"z": -2.0991053889,
				"element": "H" 
			},
			{
				"x": -4.5372112792,
				"y": -0.0415582068,
				"z": -3.1053782672,
				"element": "H" 
			},
			{
				"x": -3.9273845816,
				"y": -2.4398426341,
				"z": -2.8687652602,
				"element": "H" 
			},
			{
				"x": -1.8922289287,
				"y": -3.1025156485,
				"z": -1.6507000419,
				"element": "H" 
			}
		],
		 "valence_orbital": [ 
			{
				"type": "occ",
				"energy": -0.31379,
				"method": "rhf"
			},
			{
				"type": "occ",
				"energy": -0.27851,
				"method": "rhf"
			},
			{
				"type": "occ",
				"energy": -0.24766,
				"method": "rhf"
			},
			{
				"type": "occ",
				"energy": -0.22979,
				"method": "rhf"
			},
			{
				"type": "occ",
				"energy": -0.21897,
				"method": "rhf"
			},
			{
				"type": "unocc",
				"energy": -0.00232,
				"method": "rhf"
			},
			{
				"type": "unocc",
				"energy": 0.00134,
				"method": "rhf"
			},
			{
				"type": "unocc",
				"energy": 0.01471,
				"method": "rhf"
			},
			{
				"type": "unocc",
				"energy": 0.03798,
				"method": "rhf"
			},
			{
				"type": "unocc",
				"energy": 0.06946,
				"method": "rhf"
			}
		],
		"cosmo_sigma_profile": { 
			"-0.025": 0.0,
			"-0.024": 0.0,
			"-0.023": 0.0,
			"-0.022": 0.0,
			"-0.021": 0.0,
			"-0.02": 0.0,
			"-0.019": 0.0817812448971,
			"-0.018": 0.976750066654,
			"-0.017": 1.07052717189,
			"-0.016": 0.658840469793,
			"-0.015": 0.766714063751,
			"-0.014": 0.746609034833,
			"-0.013": 0.747778301433,
			"-0.012": 0.99030197078,
			"-0.011": 0.593125660303,
			"-0.01": 0.372895204766,
			"-0.009": 2.36006600285,
			"-0.008": 3.38776104403,
			"-0.007": 6.39089329879,
			"-0.006": 14.0399100531,
			"-0.005": 21.5975915076,
			"-0.004": 20.7005511717,
			"-0.003": 19.5101114336,
			"-0.002": 13.171140389,
			"-0.001": 12.7686263714,
			"0.0": 14.619688573,
			"0.001": 11.245063644,
			"0.002": 13.4634556817,
			"0.003": 13.7691098784,
			"0.004": 15.4859485917,
			"0.005": 16.4861480653,
			"0.006": 16.4499769588,
			"0.007": 6.14533943849,
			"0.008": 3.98800965885,
			"0.009": 4.44082945139,
			"0.01": 4.27752218494,
			"0.011": 5.39340559284,
			"0.012": 2.06426688846,
			"0.013": 0.000728182655784,
			"0.014": 0.0,
			"0.015": 0.0,
			"0.016": 0.0,
			"0.017": 0.0,
			"0.018": 0.0,
			"0.019": 0.0,
			"0.02": 0.0,
			"0.021": 0.0,
			"0.022": 0.0,
			"0.023": 0.0,
			"0.024": 0.0,
			"0.025": 0.0
		}
	}
}
