{
	 "smiles": "CC1=CC(C)=C(O)C(=C1)C(=O)CC1CC(=O)NC(=O)C1", 
	 "Tm": 474.15, 
	 "num_atms": 37, 
	 "gaussian": { 
		 "optdone": 1, 
		 "sigma_profile": "yes", 
		 "theory": "DFT", 
		 "functional": "B3LYP", 
		 "basiset": "6-31G**", 
		 "properties": { 
			 "R2extent": 8380.953, 
			 "electric_dipole_moment_norm": 8.69472218878, 
			 "electric_quadrupole_moment_norm": 14.9531413268, 
			 "total_energy": -937.53948812, 
			 "HOMO_LUMO_gap": 0.17378, 
			 "cosmo_polarized_energy": -20.71, 
			 "cosmo_cavitation_energy": 39.76, 
			 "cosmo_dispersion_energy": -28.75, 
			 "cosmo_repulsion_energy": 2.21, 
			 "cosmo_total_nonelectrostatic_energy": 13.22, 
			 "SMD_solvation_energy": 8.37 
		},
		"coords": [
			{
				"x": -4.4319818061,
				"y": 2.4429588538,
				"z": -0.0108027953,
				"element": "C" 
			},
			{
				"x": -3.0063799118,
				"y": 2.1346790617,
				"z": 0.3832096651,
				"element": "C" 
			},
			{
				"x": -2.3755152432,
				"y": 2.8481713981,
				"z": 1.4148082703,
				"element": "C" 
			},
			{
				"x": -1.0639884714,
				"y": 2.5911225844,
				"z": 1.8045628931,
				"element": "C" 
			},
			{
				"x": -0.409331604,
				"y": 3.3752221138,
				"z": 2.9191623309,
				"element": "C" 
			},
			{
				"x": -0.3445112348,
				"y": 1.5764891809,
				"z": 1.1374300036,
				"element": "C" 
			},
			{
				"x": 0.9454955509,
				"y": 1.3033745898,
				"z": 1.5002896488,
				"element": "O" 
			},
			{
				"x": -0.9411551369,
				"y": 0.8371128347,
				"z": 0.0966364085,
				"element": "C" 
			},
			{
				"x": -2.2712017772,
				"y": 1.1431222104,
				"z": -0.252960814,
				"element": "C" 
			},
			{
				"x": -0.2933964787,
				"y": -0.2651590406,
				"z": -0.6942094421,
				"element": "C" 
			},
			{
				"x": -0.9404489872,
				"y": -0.8228680097,
				"z": -1.5764381593,
				"element": "O" 
			},
			{
				"x": 1.143069432,
				"y": -0.6849280495,
				"z": -0.4069648056,
				"element": "C" 
			},
			{
				"x": 1.715158015,
				"y": -1.8226153045,
				"z": -1.2697067484,
				"element": "C" 
			},
			{
				"x": 0.9736269797,
				"y": -3.158861916,
				"z": -1.0932848599,
				"element": "C" 
			},
			{
				"x": 1.5691064501,
				"y": -4.2790402396,
				"z": -1.9226041985,
				"element": "C" 
			},
			{
				"x": 1.500532967,
				"y": -5.4576752342,
				"z": -1.62732361,
				"element": "O" 
			},
			{
				"x": 2.2086913541,
				"y": -3.8824312577,
				"z": -3.0993544118,
				"element": "N" 
			},
			{
				"x": 2.3976869415,
				"y": -2.5916371759,
				"z": -3.5986668517,
				"element": "C" 
			},
			{
				"x": 2.9929961341,
				"y": -2.4186005919,
				"z": -4.6459148584,
				"element": "O" 
			},
			{
				"x": 1.8001777791,
				"y": -1.4751182887,
				"z": -2.7658964793,
				"element": "C" 
			},
			{
				"x": -5.1210614012,
				"y": 2.2972616992,
				"z": 0.82925907,
				"element": "H" 
			},
			{
				"x": -4.5414959902,
				"y": 3.4827390037,
				"z": -0.3403313642,
				"element": "H" 
			},
			{
				"x": -4.763331691,
				"y": 1.7980152977,
				"z": -0.8286089496,
				"element": "H" 
			},
			{
				"x": -2.9248402193,
				"y": 3.6318082262,
				"z": 1.9331258866,
				"element": "H" 
			},
			{
				"x": -1.0993272223,
				"y": 4.1175110975,
				"z": 3.3260457382,
				"element": "H" 
			},
			{
				"x": 0.4801932971,
				"y": 3.9220131858,
				"z": 2.5764070419,
				"element": "H" 
			},
			{
				"x": -0.1038123956,
				"y": 2.7322191427,
				"z": 3.7563549471,
				"element": "H" 
			},
			{
				"x": 1.2055245564,
				"y": 1.8911897258,
				"z": 2.220747675,
				"element": "H" 
			},
			{
				"x": -2.7083095818,
				"y": 0.5604237493,
				"z": -1.056940346,
				"element": "H" 
			},
			{
				"x": 1.2104495592,
				"y": -0.9530170687,
				"z": 0.6544104703,
				"element": "H" 
			},
			{
				"x": 1.7786448504,
				"y": 0.2045636549,
				"z": -0.4951948293,
				"element": "H" 
			},
			{
				"x": 2.7438038792,
				"y": -1.9709575466,
				"z": -0.9107206253,
				"element": "H" 
			},
			{
				"x": 0.9749254775,
				"y": -3.4978225376,
				"z": -0.0535889385,
				"element": "H" 
			},
			{
				"x": -0.0723484769,
				"y": -3.0391499106,
				"z": -1.3971698243,
				"element": "H" 
			},
			{
				"x": 2.5951136412,
				"y": -4.6325347817,
				"z": -3.663508572,
				"element": "H" 
			},
			{
				"x": 2.4055851842,
				"y": -0.5830337031,
				"z": -2.9490058786,
				"element": "H" 
			},
			{
				"x": 0.7946555807,
				"y": -1.2731469539,
				"z": -3.1517526874,
				"element": "H" 
			}
		],
		 "valence_orbital": [ 
			{
				"type": "occ",
				"energy": -0.27049,
				"method": "rhf"
			},
			{
				"type": "occ",
				"energy": -0.26118,
				"method": "rhf"
			},
			{
				"type": "occ",
				"energy": -0.25319,
				"method": "rhf"
			},
			{
				"type": "occ",
				"energy": -0.24658,
				"method": "rhf"
			},
			{
				"type": "occ",
				"energy": -0.2334,
				"method": "rhf"
			},
			{
				"type": "unocc",
				"energy": -0.05962,
				"method": "rhf"
			},
			{
				"type": "unocc",
				"energy": -0.0139,
				"method": "rhf"
			},
			{
				"type": "unocc",
				"energy": -0.004,
				"method": "rhf"
			},
			{
				"type": "unocc",
				"energy": 0.0281,
				"method": "rhf"
			},
			{
				"type": "unocc",
				"energy": 0.04533,
				"method": "rhf"
			}
		],
		"cosmo_sigma_profile": { 
			"-0.025": 0.0,
			"-0.024": 0.0,
			"-0.023": 0.0,
			"-0.022": 0.0,
			"-0.021": 0.0,
			"-0.02": 0.0,
			"-0.019": 0.0,
			"-0.018": 0.0,
			"-0.017": 0.0869187469464,
			"-0.016": 0.508969935422,
			"-0.015": 1.40753612112,
			"-0.014": 1.68003950571,
			"-0.013": 2.14157670583,
			"-0.012": 1.76239720765,
			"-0.011": 1.70057762673,
			"-0.01": 1.95243758358,
			"-0.009": 2.50800741857,
			"-0.008": 1.69314373401,
			"-0.007": 2.56999640972,
			"-0.006": 13.586053572,
			"-0.005": 28.1175388441,
			"-0.004": 31.1585182986,
			"-0.003": 26.6538343748,
			"-0.002": 26.4265019041,
			"-0.001": 25.784673617,
			"0.0": 22.7935904313,
			"0.001": 15.3895727762,
			"0.002": 13.8218071129,
			"0.003": 16.1146072741,
			"0.004": 15.6283601834,
			"0.005": 10.9576374611,
			"0.006": 6.46537804769,
			"0.007": 3.89473950246,
			"0.008": 3.8889023533,
			"0.009": 3.96412234724,
			"0.01": 5.04894707597,
			"0.011": 7.36486407877,
			"0.012": 11.9202454062,
			"0.013": 5.75875640027,
			"0.014": 0.558348083116,
			"0.015": 0.0,
			"0.016": 0.0,
			"0.017": 0.0,
			"0.018": 0.0,
			"0.019": 0.0,
			"0.02": 0.0,
			"0.021": 0.0,
			"0.022": 0.0,
			"0.023": 0.0,
			"0.024": 0.0,
			"0.025": 0.0
		}
	}
}
