{
	 "smiles": "CC(=O)OO", 
	 "Tm": 273.1, 
	 "num_atms": 9, 
	 "gaussian": { 
		 "optdone": 1, 
		 "sigma_profile": "yes", 
		 "theory": "DFT", 
		 "functional": "B3LYP", 
		 "basiset": "6-31G**", 
		 "properties": { 
			 "R2extent": 538.9718, 
			 "electric_dipole_moment_norm": 2.32691735135, 
			 "electric_quadrupole_moment_norm": 5.81482575663, 
			 "total_energy": -304.212342715, 
			 "HOMO_LUMO_gap": 0.27163, 
			 "cosmo_polarized_energy": -7.05, 
			 "cosmo_cavitation_energy": 13.23, 
			 "cosmo_dispersion_energy": -10.05, 
			 "cosmo_repulsion_energy": 0.92, 
			 "cosmo_total_nonelectrostatic_energy": 4.1, 
			 "SMD_solvation_energy": 3.47 
		},
		"coords": [
			{
				"x": 0.0263259021,
				"y": 1.5275750396,
				"z": 0.2357510369,
				"element": "C" 
			},
			{
				"x": 0.3991572709,
				"y": 0.1411370464,
				"z": 0.6805838593,
				"element": "C" 
			},
			{
				"x": 1.3622602174,
				"y": -0.5086101022,
				"z": 0.321652598,
				"element": "O" 
			},
			{
				"x": -0.4960964428,
				"y": -0.3413518393,
				"z": 1.5732875922,
				"element": "O" 
			},
			{
				"x": -0.1327543571,
				"y": -1.6716959487,
				"z": 1.9963561018,
				"element": "O" 
			},
			{
				"x": -0.1019743573,
				"y": 1.5255122073,
				"z": -0.8499248702,
				"element": "H" 
			},
			{
				"x": -0.8894309319,
				"y": 1.8734523932,
				"z": 0.7161154108,
				"element": "H" 
			},
			{
				"x": 0.8495847205,
				"y": 2.2062165379,
				"z": 0.4742300184,
				"element": "H" 
			},
			{
				"x": 0.6921279782,
				"y": -1.7939353342,
				"z": 1.4655482528,
				"element": "H" 
			}
		],
		 "valence_orbital": [ 
			{
				"type": "occ",
				"energy": -0.41587,
				"method": "rhf"
			},
			{
				"type": "occ",
				"energy": -0.39822,
				"method": "rhf"
			},
			{
				"type": "occ",
				"energy": -0.36608,
				"method": "rhf"
			},
			{
				"type": "occ",
				"energy": -0.30938,
				"method": "rhf"
			},
			{
				"type": "occ",
				"energy": -0.28239,
				"method": "rhf"
			},
			{
				"type": "unocc",
				"energy": -0.01076,
				"method": "rhf"
			},
			{
				"type": "unocc",
				"energy": 0.00321,
				"method": "rhf"
			},
			{
				"type": "unocc",
				"energy": 0.09859,
				"method": "rhf"
			},
			{
				"type": "unocc",
				"energy": 0.13437,
				"method": "rhf"
			},
			{
				"type": "unocc",
				"energy": 0.13663,
				"method": "rhf"
			}
		],
		"cosmo_sigma_profile": { 
			"-0.025": 0.0,
			"-0.024": 0.0,
			"-0.023": 0.0,
			"-0.022": 0.0,
			"-0.021": 0.0,
			"-0.02": 0.0,
			"-0.019": 0.0,
			"-0.018": 0.0,
			"-0.017": 0.0,
			"-0.016": 0.0,
			"-0.015": 0.0,
			"-0.014": 0.302894672367,
			"-0.013": 0.410748061969,
			"-0.012": 0.542560948905,
			"-0.011": 0.599857515639,
			"-0.01": 0.730335556994,
			"-0.009": 0.746793129828,
			"-0.008": 3.3439259909,
			"-0.007": 6.65013321298,
			"-0.006": 7.58074349172,
			"-0.005": 9.28910475272,
			"-0.004": 9.15396972634,
			"-0.003": 9.8282935692,
			"-0.002": 5.90849967596,
			"-0.001": 2.82805498192,
			"0.0": 3.67814954887,
			"0.001": 2.49101389362,
			"0.002": 2.37543367462,
			"0.003": 3.39613940217,
			"0.004": 2.61870444433,
			"0.005": 3.63904350512,
			"0.006": 6.51990128037,
			"0.007": 5.49892731536,
			"0.008": 3.76574424743,
			"0.009": 5.36739545217,
			"0.01": 5.21686165949,
			"0.011": 2.04107051374,
			"0.012": 0.276236037269,
			"0.013": 0.0,
			"0.014": 0.0,
			"0.015": 0.0,
			"0.016": 0.0,
			"0.017": 0.0,
			"0.018": 0.0,
			"0.019": 0.0,
			"0.02": 0.0,
			"0.021": 0.0,
			"0.022": 0.0,
			"0.023": 0.0,
			"0.024": 0.0,
			"0.025": 0.0
		}
	}
}
