{
	 "smiles": "O=CC1=CN(N=C1C1=CC=CS1)C1=CC=CC=C1", 
	 "Tm": 364.15, 
	 "num_atms": 28, 
	 "gaussian": { 
		 "optdone": 1, 
		 "sigma_profile": "yes", 
		 "theory": "DFT", 
		 "functional": "B3LYP", 
		 "basiset": "6-31G**", 
		 "properties": { 
			 "R2extent": 6231.1611, 
			 "electric_dipole_moment_norm": 3.43089100526, 
			 "electric_quadrupole_moment_norm": 21.1637157283, 
			 "total_energy": -1122.38991118, 
			 "HOMO_LUMO_gap": 0.16267, 
			 "cosmo_polarized_energy": -11.8, 
			 "cosmo_cavitation_energy": 34.87, 
			 "cosmo_dispersion_energy": -25.71, 
			 "cosmo_repulsion_energy": 1.9, 
			 "cosmo_total_nonelectrostatic_energy": 11.06, 
			 "SMD_solvation_energy": 6.49 
		},
		"coords": [
			{
				"x": -0.6870201905,
				"y": 1.9172459852,
				"z": -3.8530013045,
				"element": "O" 
			},
			{
				"x": -0.0477021997,
				"y": 1.0966450832,
				"z": -3.212940749,
				"element": "C" 
			},
			{
				"x": -0.3114109501,
				"y": 0.7941315004,
				"z": -1.8063282061,
				"element": "C" 
			},
			{
				"x": -1.2625625888,
				"y": 1.4556248694,
				"z": -1.0425544389,
				"element": "C" 
			},
			{
				"x": -1.1896516219,
				"y": 0.9568731887,
				"z": 0.2118825965,
				"element": "N" 
			},
			{
				"x": -0.2477854138,
				"y": -0.0217982104,
				"z": 0.3202678622,
				"element": "N" 
			},
			{
				"x": 0.2992343371,
				"y": -0.1301600562,
				"z": -0.8927104731,
				"element": "C" 
			},
			{
				"x": 1.3820285154,
				"y": -1.0909264256,
				"z": -1.0825558112,
				"element": "C" 
			},
			{
				"x": 2.1896554068,
				"y": -1.6143782911,
				"z": -0.0977496136,
				"element": "C" 
			},
			{
				"x": 3.1336884479,
				"y": -2.5610235254,
				"z": -0.5845286171,
				"element": "C" 
			},
			{
				"x": 3.0391042897,
				"y": -2.7586128039,
				"z": -1.935699066,
				"element": "C" 
			},
			{
				"x": 1.7858666429,
				"y": -1.7896318894,
				"z": -2.6360079541,
				"element": "S" 
			},
			{
				"x": -1.9734151223,
				"y": 1.31245541,
				"z": 1.3457362833,
				"element": "C" 
			},
			{
				"x": -2.1065609872,
				"y": 0.401287601,
				"z": 2.3982771096,
				"element": "C" 
			},
			{
				"x": -2.8815170078,
				"y": 0.7450869754,
				"z": 3.5040191603,
				"element": "C" 
			},
			{
				"x": -3.5263602759,
				"y": 1.9824607611,
				"z": 3.5637667531,
				"element": "C" 
			},
			{
				"x": -3.382493166,
				"y": 2.8862070255,
				"z": 2.5097470448,
				"element": "C" 
			},
			{
				"x": -2.6011650946,
				"y": 2.561240997,
				"z": 1.4018059749,
				"element": "C" 
			},
			{
				"x": 0.7891028044,
				"y": 0.5424452886,
				"z": -3.6821643632,
				"element": "H" 
			},
			{
				"x": -1.966779915,
				"y": 2.2163051668,
				"z": -1.3394761184,
				"element": "H" 
			},
			{
				"x": 2.0981936713,
				"y": -1.3128531772,
				"z": 0.9383720637,
				"element": "H" 
			},
			{
				"x": 3.8567350834,
				"y": -3.0695229568,
				"z": 0.0428782228,
				"element": "H" 
			},
			{
				"x": 3.6302046908,
				"y": -3.4088661446,
				"z": -2.5654068947,
				"element": "H" 
			},
			{
				"x": -1.60272769,
				"y": -0.5550298709,
				"z": 2.3339454155,
				"element": "H" 
			},
			{
				"x": -2.9854707291,
				"y": 0.036777892,
				"z": 4.3204899644,
				"element": "H" 
			},
			{
				"x": -4.1316184378,
				"y": 2.2426669107,
				"z": 4.4265959494,
				"element": "H" 
			},
			{
				"x": -3.8684144227,
				"y": 3.8562654226,
				"z": 2.5512099128,
				"element": "H" 
			},
			{
				"x": -2.4671580764,
				"y": 3.2824832738,
				"z": 0.6028292967,
				"element": "H" 
			}
		],
		 "valence_orbital": [ 
			{
				"type": "occ",
				"energy": -0.26714,
				"method": "rhf"
			},
			{
				"type": "occ",
				"energy": -0.25942,
				"method": "rhf"
			},
			{
				"type": "occ",
				"energy": -0.25085,
				"method": "rhf"
			},
			{
				"type": "occ",
				"energy": -0.24652,
				"method": "rhf"
			},
			{
				"type": "occ",
				"energy": -0.2186,
				"method": "rhf"
			},
			{
				"type": "unocc",
				"energy": -0.05593,
				"method": "rhf"
			},
			{
				"type": "unocc",
				"energy": -0.04624,
				"method": "rhf"
			},
			{
				"type": "unocc",
				"energy": -0.01746,
				"method": "rhf"
			},
			{
				"type": "unocc",
				"energy": -0.00223,
				"method": "rhf"
			},
			{
				"type": "unocc",
				"energy": 0.02644,
				"method": "rhf"
			}
		],
		"cosmo_sigma_profile": { 
			"-0.025": 0.0,
			"-0.024": 0.0,
			"-0.023": 0.0,
			"-0.022": 0.0,
			"-0.021": 0.0,
			"-0.02": 0.0,
			"-0.019": 0.0,
			"-0.018": 0.0,
			"-0.017": 0.0,
			"-0.016": 0.0,
			"-0.015": 0.0,
			"-0.014": 0.0,
			"-0.013": 0.0,
			"-0.012": 0.0165229024065,
			"-0.011": 1.27636778679,
			"-0.01": 1.7275863928,
			"-0.009": 3.11085359863,
			"-0.008": 4.46529480383,
			"-0.007": 7.69403046931,
			"-0.006": 15.4507390754,
			"-0.005": 20.0151059539,
			"-0.004": 21.7000648781,
			"-0.003": 17.9031979179,
			"-0.002": 18.0731964521,
			"-0.001": 16.7107051446,
			"0.0": 23.13403654,
			"0.001": 23.2218352787,
			"0.002": 22.1456422069,
			"0.003": 25.7034268402,
			"0.004": 25.7451659475,
			"0.005": 10.59596098,
			"0.006": 3.53441831699,
			"0.007": 3.27691954775,
			"0.008": 3.14664619337,
			"0.009": 3.79917002947,
			"0.01": 2.42188919491,
			"0.011": 3.50309180775,
			"0.012": 4.0104997178,
			"0.013": 1.46567911407,
			"0.014": 0.100664521854,
			"0.015": 0.0,
			"0.016": 0.0,
			"0.017": 0.0,
			"0.018": 0.0,
			"0.019": 0.0,
			"0.02": 0.0,
			"0.021": 0.0,
			"0.022": 0.0,
			"0.023": 0.0,
			"0.024": 0.0,
			"0.0": 0.0
		}
	}
}
