{
	 "smiles": "FC1=CC(NC(=O)CCl)=C(F)C=C1", 
	 "Tm": 392.15, 
	 "num_atms": 19, 
	 "gaussian": { 
		 "optdone": 1, 
		 "sigma_profile": "yes", 
		 "theory": "DFT", 
		 "functional": "B3LYP", 
		 "basiset": "6-31G**", 
		 "properties": { 
			 "R2extent": 3135.9494, 
			 "electric_dipole_moment_norm": 3.18533572799, 
			 "electric_quadrupole_moment_norm": 10.3817989525, 
			 "total_energy": -1098.30693306, 
			 "HOMO_LUMO_gap": 0.20536, 
			 "cosmo_polarized_energy": -11.21, 
			 "cosmo_cavitation_energy": 26.39, 
			 "cosmo_dispersion_energy": -18.62, 
			 "cosmo_repulsion_energy": 1.46, 
			 "cosmo_total_nonelectrostatic_energy": 9.23, 
			 "SMD_solvation_energy": 6.0 
		},
		"coords": [
			{
				"x": 1.6032744288,
				"y": -2.4283706549,
				"z": 0.5145784083,
				"element": "F" 
			},
			{
				"x": 1.1788853478,
				"y": -1.1530989076,
				"z": 0.4244554804,
				"element": "C" 
			},
			{
				"x": 0.1047741315,
				"y": -0.8650512637,
				"z": -0.4069714081,
				"element": "C" 
			},
			{
				"x": -0.3509673986,
				"y": 0.4548201604,
				"z": -0.5162165067,
				"element": "C" 
			},
			{
				"x": -1.3980187834,
				"y": 0.7677506247,
				"z": -1.4145261829,
				"element": "N" 
			},
			{
				"x": -2.5870337476,
				"y": 1.4387107325,
				"z": -1.2144185511,
				"element": "C" 
			},
			{
				"x": -3.326551995,
				"y": 1.6839943846,
				"z": -2.1530262586,
				"element": "O" 
			},
			{
				"x": -2.9706627869,
				"y": 1.858718403,
				"z": 0.2016845344,
				"element": "C" 
			},
			{
				"x": -3.1993727388,
				"y": 0.4414924144,
				"z": 1.3116900751,
				"element": "Cl" 
			},
			{
				"x": 0.3160689479,
				"y": 1.4428545883,
				"z": 0.2186031712,
				"element": "C" 
			},
			{
				"x": -0.0795826194,
				"y": 2.7320037194,
				"z": 0.1007445175,
				"element": "F" 
			},
			{
				"x": 1.372584393,
				"y": 1.1434608607,
				"z": 1.0681494668,
				"element": "C" 
			},
			{
				"x": 1.8206624827,
				"y": -0.1722880297,
				"z": 1.173600094,
				"element": "C" 
			},
			{
				"x": -0.387279208,
				"y": -1.6617895018,
				"z": -0.953334604,
				"element": "H" 
			},
			{
				"x": -1.3046312134,
				"y": 0.4355261548,
				"z": -2.3668389479,
				"element": "H" 
			},
			{
				"x": -3.9278137866,
				"y": 2.3696213681,
				"z": 0.1288763603,
				"element": "H" 
			},
			{
				"x": -2.222971875,
				"y": 2.5078457286,
				"z": 0.6539009214,
				"element": "H" 
			},
			{
				"x": 1.8467419133,
				"y": 1.9478270396,
				"z": 1.6193291085,
				"element": "H" 
			},
			{
				"x": 2.6493945076,
				"y": -0.4399278216,
				"z": 1.8187203213,
				"element": "H" 
			}
		],
		 "valence_orbital": [ 
			{
				"type": "occ",
				"energy": -0.31272,
				"method": "rhf"
			},
			{
				"type": "occ",
				"energy": -0.30099,
				"method": "rhf"
			},
			{
				"type": "occ",
				"energy": -0.27005,
				"method": "rhf"
			},
			{
				"type": "occ",
				"energy": -0.26604,
				"method": "rhf"
			},
			{
				"type": "occ",
				"energy": -0.24942,
				"method": "rhf"
			},
			{
				"type": "unocc",
				"energy": -0.04406,
				"method": "rhf"
			},
			{
				"type": "unocc",
				"energy": -0.02171,
				"method": "rhf"
			},
			{
				"type": "unocc",
				"energy": -0.00991,
				"method": "rhf"
			},
			{
				"type": "unocc",
				"energy": 0.05019,
				"method": "rhf"
			},
			{
				"type": "unocc",
				"energy": 0.06578,
				"method": "rhf"
			}
		],
		"cosmo_sigma_profile": { 
			"-0.025": 0.0,
			"-0.024": 0.0,
			"-0.023": 0.0,
			"-0.022": 0.0,
			"-0.021": 0.0,
			"-0.02": 0.0,
			"-0.019": 0.0,
			"-0.018": 0.0,
			"-0.017": 0.0,
			"-0.016": 0.101857263384,
			"-0.015": 1.29670132679,
			"-0.014": 0.85081019735,
			"-0.013": 0.709936839138,
			"-0.012": 1.27172267846,
			"-0.011": 1.01582444074,
			"-0.01": 1.34115472069,
			"-0.009": 3.00153852033,
			"-0.008": 8.21464706455,
			"-0.007": 8.96792747445,
			"-0.006": 9.8898077002,
			"-0.005": 10.7213691996,
			"-0.004": 6.51522444397,
			"-0.003": 9.34426627985,
			"-0.002": 9.37975683316,
			"-0.001": 13.4690539035,
			"0.0": 22.1941112342,
			"0.001": 20.0002487637,
			"0.002": 18.1326642596,
			"0.003": 16.4711920116,
			"0.004": 21.465535479,
			"0.005": 9.87568899417,
			"0.006": 3.83286557128,
			"0.007": 1.13192651326,
			"0.008": 1.30776186187,
			"0.009": 1.359134773,
			"0.01": 1.8748777517,
			"0.011": 2.29503795092,
			"0.012": 5.50585538247,
			"0.013": 2.38137123234,
			"0.014": 0.0110878627477,
			"0.015": 0.0,
			"0.016": 0.0,
			"0.017": 0.0,
			"0.018": 0.0,
			"0.019": 0.0,
			"0.02": 0.0,
			"0.021": 0.0,
			"0.022": 0.0,
			"0.023": 0.0,
			"0.024": 0.0,
			"0.025": 0.0
		}
	}
}
