{
	 "smiles": "O=CC1=CN2C=CN=C2C=C1", 
	 "Tm": 425.15, 
	 "num_atms": 17, 
	 "gaussian": { 
		 "optdone": 1, 
		 "sigma_profile": "yes", 
		 "theory": "DFT", 
		 "functional": "B3LYP", 
		 "basiset": "6-31G**", 
		 "properties": { 
			 "R2extent": 2377.3284, 
			 "electric_dipole_moment_norm": 3.32763958084, 
			 "electric_quadrupole_moment_norm": 14.4764256911, 
			 "total_energy": -493.173121147, 
			 "HOMO_LUMO_gap": 0.15776, 
			 "cosmo_polarized_energy": -13.56, 
			 "cosmo_cavitation_energy": 21.91, 
			 "cosmo_dispersion_energy": -16.25, 
			 "cosmo_repulsion_energy": 1.26, 
			 "cosmo_total_nonelectrostatic_energy": 6.93, 
			 "SMD_solvation_energy": 3.76 
		},
		"coords": [
			{
				"x": 3.13507295,
				"y": -3.5850025302,
				"z": -1.574738133,
				"element": "O" 
			},
			{
				"x": 2.7875330412,
				"y": -2.4489978986,
				"z": -1.8353896503,
				"element": "C" 
			},
			{
				"x": 2.1036994464,
				"y": -1.5509265329,
				"z": -0.8863846266,
				"element": "C" 
			},
			{
				"x": 1.7615925626,
				"y": -0.2859317851,
				"z": -1.3011327305,
				"element": "C" 
			},
			{
				"x": 1.12845931,
				"y": 0.5584200716,
				"z": -0.4364457249,
				"element": "N" 
			},
			{
				"x": 0.6779692089,
				"y": 1.8574785196,
				"z": -0.5830259186,
				"element": "C" 
			},
			{
				"x": 0.1203320715,
				"y": 2.1851244321,
				"z": 0.6329795544,
				"element": "C" 
			},
			{
				"x": 0.1976681403,
				"y": 1.1587798284,
				"z": 1.533542508,
				"element": "N" 
			},
			{
				"x": 0.8068621307,
				"y": 0.1741563393,
				"z": 0.8895655014,
				"element": "C" 
			},
			{
				"x": 1.1624837543,
				"y": -1.132771089,
				"z": 1.3119706101,
				"element": "C" 
			},
			{
				"x": 1.7974690984,
				"y": -1.9793755765,
				"z": 0.4445166008,
				"element": "C" 
			},
			{
				"x": 2.974294511,
				"y": -2.0088501615,
				"z": -2.8405581729,
				"element": "H" 
			},
			{
				"x": 1.9694027515,
				"y": 0.0903168361,
				"z": -2.2975256368,
				"element": "H" 
			},
			{
				"x": 0.7944547416,
				"y": 2.4026984324,
				"z": -1.5063776742,
				"element": "H" 
			},
			{
				"x": -0.3387204838,
				"y": 3.1280336522,
				"z": 0.899513294,
				"element": "H" 
			},
			{
				"x": 0.9129860859,
				"y": -1.4185623616,
				"z": 2.3272453229,
				"element": "H" 
			},
			{
				"x": 2.0846406795,
				"y": -2.9847901763,
				"z": 0.7311448762,
				"element": "H" 
			}
		],
		 "valence_orbital": [ 
			{
				"type": "occ",
				"energy": -0.33323,
				"method": "rhf"
			},
			{
				"type": "occ",
				"energy": -0.28146,
				"method": "rhf"
			},
			{
				"type": "occ",
				"energy": -0.26512,
				"method": "rhf"
			},
			{
				"type": "occ",
				"energy": -0.25905,
				"method": "rhf"
			},
			{
				"type": "occ",
				"energy": -0.22658,
				"method": "rhf"
			},
			{
				"type": "unocc",
				"energy": -0.06882,
				"method": "rhf"
			},
			{
				"type": "unocc",
				"energy": -0.03979,
				"method": "rhf"
			},
			{
				"type": "unocc",
				"energy": 0.02929,
				"method": "rhf"
			},
			{
				"type": "unocc",
				"energy": 0.06106,
				"method": "rhf"
			},
			{
				"type": "unocc",
				"energy": 0.08704,
				"method": "rhf"
			}
		],
		"cosmo_sigma_profile": { 
			"-0.025": 0.0,
			"-0.024": 0.0,
			"-0.023": 0.0,
			"-0.022": 0.0,
			"-0.021": 0.0,
			"-0.02": 0.0,
			"-0.019": 0.0,
			"-0.018": 0.0,
			"-0.017": 0.0,
			"-0.016": 0.0,
			"-0.015": 0.0,
			"-0.014": 0.0,
			"-0.013": 0.0,
			"-0.012": 0.155064140822,
			"-0.011": 2.63215968542,
			"-0.01": 4.71650005667,
			"-0.009": 4.46983081407,
			"-0.008": 4.91036084818,
			"-0.007": 9.81441717717,
			"-0.006": 8.4544150598,
			"-0.005": 9.75673849125,
			"-0.004": 10.2512545282,
			"-0.003": 8.80598823887,
			"-0.002": 13.8376691075,
			"-0.001": 11.5391457511,
			"0.0": 12.8114097302,
			"0.001": 12.5951587204,
			"0.002": 12.0363386136,
			"0.003": 8.93628062588,
			"0.004": 6.49058072113,
			"0.005": 3.84529038672,
			"0.006": 2.87410773706,
			"0.007": 2.8987845394,
			"0.008": 3.70404194751,
			"0.009": 2.80477549543,
			"0.01": 4.07976032443,
			"0.011": 4.98948334758,
			"0.012": 3.88209318249,
			"0.013": 2.20041144766,
			"0.014": 0.639860286389,
			"0.015": 0.877207659856,
			"0.016": 1.17285035943,
			"0.017": 0.962517595017,
			"0.018": 0.0993949268712,
			"0.019": 0.0,
			"0.02": 0.0,
			"0.021": 0.0,
			"0.022": 0.0,
			"0.023": 0.0,
			"0.024": 0.0,
			"0.025": 0.0
		}
	}
}
