{
	 "smiles": "FC(F)(F)C(=O)NC1CC(=O)C2=C1C=CS2", 
	 "Tm": 407.15, 
	 "num_atms": 22, 
	 "gaussian": { 
		 "optdone": 1, 
		 "sigma_profile": "yes", 
		 "theory": "DFT", 
		 "functional": "B3LYP", 
		 "basiset": "6-31G**", 
		 "properties": { 
			 "R2extent": 4566.9453, 
			 "electric_dipole_moment_norm": 5.45044604138, 
			 "electric_quadrupole_moment_norm": 15.3961573644, 
			 "total_energy": -1249.46880353, 
			 "HOMO_LUMO_gap": 0.18517, 
			 "cosmo_polarized_energy": -18.36, 
			 "cosmo_cavitation_energy": 30.24, 
			 "cosmo_dispersion_energy": -21.35, 
			 "cosmo_repulsion_energy": 1.58, 
			 "cosmo_total_nonelectrostatic_energy": 10.47, 
			 "SMD_solvation_energy": 6.77 
		},
		"coords": [
			{
				"x": 2.8328314123,
				"y": 0.7760698642,
				"z": 3.2243575474,
				"element": "F" 
			},
			{
				"x": 1.5752259363,
				"y": 1.1124582059,
				"z": 2.9159077921,
				"element": "C" 
			},
			{
				"x": 1.4305134105,
				"y": 2.4329992864,
				"z": 3.0907969964,
				"element": "F" 
			},
			{
				"x": 0.7491729067,
				"y": 0.4858933831,
				"z": 3.7969656722,
				"element": "F" 
			},
			{
				"x": 1.2625313647,
				"y": 0.7320178499,
				"z": 1.4471387254,
				"element": "C" 
			},
			{
				"x": 1.9561098941,
				"y": 1.175851682,
				"z": 0.5501560196,
				"element": "O" 
			},
			{
				"x": 0.1942787705,
				"y": -0.0902794285,
				"z": 1.3027285332,
				"element": "N" 
			},
			{
				"x": -0.2835851574,
				"y": -0.5673915223,
				"z": 0.002889268,
				"element": "C" 
			},
			{
				"x": 0.7513654183,
				"y": -1.3758211033,
				"z": -0.8342065587,
				"element": "C" 
			},
			{
				"x": 0.5839573569,
				"y": -0.9136075167,
				"z": -2.2989535631,
				"element": "C" 
			},
			{
				"x": 1.0756073775,
				"y": -1.4457098094,
				"z": -3.2742226682,
				"element": "O" 
			},
			{
				"x": -0.2694731172,
				"y": 0.2762253205,
				"z": -2.227021585,
				"element": "C" 
			},
			{
				"x": -0.7246218066,
				"y": 0.5225193415,
				"z": -0.9545675412,
				"element": "C" 
			},
			{
				"x": -1.5430076818,
				"y": 1.679102266,
				"z": -0.8638888774,
				"element": "C" 
			},
			{
				"x": -1.6797189677,
				"y": 2.2826406179,
				"z": -2.0909796733,
				"element": "C" 
			},
			{
				"x": -0.8301339623,
				"y": 1.4535555412,
				"z": -3.3627052922,
				"element": "S" 
			},
			{
				"x": -0.2680537775,
				"y": -0.4125667617,
				"z": 2.1393122508,
				"element": "H" 
			},
			{
				"x": -1.1434397187,
				"y": -1.205013123,
				"z": 0.2373377579,
				"element": "H" 
			},
			{
				"x": 1.7678066489,
				"y": -1.1162237403,
				"z": -0.5255696235,
				"element": "H" 
			},
			{
				"x": 0.6320164155,
				"y": -2.458892681,
				"z": -0.7514789117,
				"element": "H" 
			},
			{
				"x": -1.9992236199,
				"y": 2.0580544445,
				"z": 0.0430608723,
				"element": "H" 
			},
			{
				"x": -2.2365591029,
				"y": 3.1811178832,
				"z": -2.3231571411,
				"element": "H" 
			}
		],
		 "valence_orbital": [ 
			{
				"type": "occ",
				"energy": -0.29171,
				"method": "rhf"
			},
			{
				"type": "occ",
				"energy": -0.28801,
				"method": "rhf"
			},
			{
				"type": "occ",
				"energy": -0.2679,
				"method": "rhf"
			},
			{
				"type": "occ",
				"energy": -0.25482,
				"method": "rhf"
			},
			{
				"type": "occ",
				"energy": -0.25035,
				"method": "rhf"
			},
			{
				"type": "unocc",
				"energy": -0.06518,
				"method": "rhf"
			},
			{
				"type": "unocc",
				"energy": -0.02063,
				"method": "rhf"
			},
			{
				"type": "unocc",
				"energy": 0.01697,
				"method": "rhf"
			},
			{
				"type": "unocc",
				"energy": 0.01908,
				"method": "rhf"
			},
			{
				"type": "unocc",
				"energy": 0.04263,
				"method": "rhf"
			}
		],
		"cosmo_sigma_profile": { 
			"-0.025": 0.0,
			"-0.024": 0.0,
			"-0.023": 0.0,
			"-0.022": 0.0,
			"-0.021": 0.0,
			"-0.02": 0.0,
			"-0.019": 0.0,
			"-0.018": 0.0,
			"-0.017": 0.0,
			"-0.016": 0.646041436675,
			"-0.015": 1.31483653227,
			"-0.014": 1.13793127363,
			"-0.013": 0.783834769107,
			"-0.012": 0.997843783236,
			"-0.011": 1.42143256003,
			"-0.01": 2.45651796649,
			"-0.009": 4.68175038616,
			"-0.008": 7.86973437937,
			"-0.007": 9.99118666921,
			"-0.006": 12.2291771782,
			"-0.005": 12.0896394273,
			"-0.004": 11.6104813934,
			"-0.003": 10.8146589456,
			"-0.002": 11.5167669634,
			"-0.001": 12.8564955458,
			"0.0": 16.553316717,
			"0.001": 27.3630005588,
			"0.002": 40.6567019786,
			"0.003": 14.7132200137,
			"0.004": 5.06945333522,
			"0.005": 4.00967840501,
			"0.006": 4.5534521987,
			"0.007": 2.25663644247,
			"0.008": 3.05949835383,
			"0.009": 3.80952116109,
			"0.01": 4.0078735438,
			"0.011": 6.13080736561,
			"0.012": 8.13752312209,
			"0.013": 2.15370013963,
			"0.014": 0.128551251692,
			"0.015": 0.0,
			"0.016": 0.0,
			"0.017": 0.0,
			"0.018": 0.0,
			"0.019": 0.0,
			"0.02": 0.0,
			"0.021": 0.0,
			"0.022": 0.0,
			"0.023": 0.0,
			"0.024": 0.0,
			"0.025": 0.0
		}
	}
}
