{
	 "smiles": "CCC1CCC(C)(C)C2=C1C=C(C=C2)C(O)=O", 
	 "Tm": 471.15, 
	 "num_atms": 37, 
	 "gaussian": { 
		 "optdone": 1, 
		 "sigma_profile": "yes", 
		 "theory": "DFT", 
		 "functional": "B3LYP", 
		 "basiset": "6-31G**", 
		 "properties": { 
			 "R2extent": 5178.1512, 
			 "electric_dipole_moment_norm": 5.72300121964, 
			 "electric_quadrupole_moment_norm": 31.3091329684, 
			 "total_energy": -734.137708032, 
			 "HOMO_LUMO_gap": 0.20389, 
			 "cosmo_polarized_energy": -13.71, 
			 "cosmo_cavitation_energy": 36.63, 
			 "cosmo_dispersion_energy": -25.77, 
			 "cosmo_repulsion_energy": 1.98, 
			 "cosmo_total_nonelectrostatic_energy": 12.83, 
			 "SMD_solvation_energy": 6.95 
		},
		"coords": [
			{
				"x": 0.4257276791,
				"y": -4.4780330125,
				"z": -0.1547248598,
				"element": "C" 
			},
			{
				"x": -0.1718584647,
				"y": -3.1195376987,
				"z": -0.5370952359,
				"element": "C" 
			},
			{
				"x": -0.0584865243,
				"y": -2.0339509064,
				"z": 0.5666563007,
				"element": "C" 
			},
			{
				"x": 1.3913558427,
				"y": -1.6303513628,
				"z": 0.8830816933,
				"element": "C" 
			},
			{
				"x": 1.959716413,
				"y": -0.728083303,
				"z": -0.2131404345,
				"element": "C" 
			},
			{
				"x": 1.200628058,
				"y": 0.6135329431,
				"z": -0.3522203033,
				"element": "C" 
			},
			{
				"x": 1.6544998208,
				"y": 1.5859051323,
				"z": 0.7653062794,
				"element": "C" 
			},
			{
				"x": 1.5690417026,
				"y": 1.2266932518,
				"z": -1.7223365612,
				"element": "C" 
			},
			{
				"x": -0.3192021595,
				"y": 0.4039888274,
				"z": -0.2362295322,
				"element": "C" 
			},
			{
				"x": -0.8901465446,
				"y": -0.8077737132,
				"z": 0.2051576518,
				"element": "C" 
			},
			{
				"x": -2.2851445716,
				"y": -0.899816636,
				"z": 0.3205460321,
				"element": "C" 
			},
			{
				"x": -3.131767564,
				"y": 0.1666533901,
				"z": 0.0102077145,
				"element": "C" 
			},
			{
				"x": -2.5590572192,
				"y": 1.3756063548,
				"z": -0.405549819,
				"element": "C" 
			},
			{
				"x": -1.1817204982,
				"y": 1.4785863676,
				"z": -0.5269587772,
				"element": "C" 
			},
			{
				"x": -4.6216631647,
				"y": 0.1005079257,
				"z": 0.1419603766,
				"element": "C" 
			},
			{
				"x": -5.1809593088,
				"y": -1.1413709819,
				"z": 0.1560516089,
				"element": "O" 
			},
			{
				"x": -5.327279169,
				"y": 1.0782582467,
				"z": 0.2308277913,
				"element": "O" 
			},
			{
				"x": 1.5081879401,
				"y": -4.4269487356,
				"z": -0.0017255678,
				"element": "H" 
			},
			{
				"x": -0.0217680153,
				"y": -4.8618626626,
				"z": 0.7695009643,
				"element": "H" 
			},
			{
				"x": 0.2437963872,
				"y": -5.2160127848,
				"z": -0.9426001934,
				"element": "H" 
			},
			{
				"x": -1.2343916522,
				"y": -3.2535334921,
				"z": -0.7743329615,
				"element": "H" 
			},
			{
				"x": 0.2909144802,
				"y": -2.7547619855,
				"z": -1.4624554222,
				"element": "H" 
			},
			{
				"x": -0.4978652978,
				"y": -2.4686512838,
				"z": 1.4760660435,
				"element": "H" 
			},
			{
				"x": 2.0176006521,
				"y": -2.5198760494,
				"z": 1.0059218659,
				"element": "H" 
			},
			{
				"x": 1.4150279419,
				"y": -1.1067601299,
				"z": 1.8464965476,
				"element": "H" 
			},
			{
				"x": 1.9258895263,
				"y": -1.2599687259,
				"z": -1.1723608162,
				"element": "H" 
			},
			{
				"x": 3.0183848062,
				"y": -0.5142554778,
				"z": -0.0237174536,
				"element": "H" 
			},
			{
				"x": 2.728926484,
				"y": 1.7849285503,
				"z": 0.6810447211,
				"element": "H" 
			},
			{
				"x": 1.1284827807,
				"y": 2.5428531096,
				"z": 0.6964572239,
				"element": "H" 
			},
			{
				"x": 1.46119754,
				"y": 1.177188325,
				"z": 1.7616870888,
				"element": "H" 
			},
			{
				"x": 2.6585839478,
				"y": 1.2957018705,
				"z": -1.816715801,
				"element": "H" 
			},
			{
				"x": 1.1666718928,
				"y": 2.2355421623,
				"z": -1.850589526,
				"element": "H" 
			},
			{
				"x": 1.1968513443,
				"y": 0.6077310125,
				"z": -2.5451210503,
				"element": "H" 
			},
			{
				"x": -2.6967767219,
				"y": -1.8293328212,
				"z": 0.7120015242,
				"element": "H" 
			},
			{
				"x": -3.2100936058,
				"y": 2.215274501,
				"z": -0.6232603905,
				"element": "H" 
			},
			{
				"x": -0.7604160993,
				"y": 2.4248736149,
				"z": -0.8514046763,
				"element": "H" 
			},
			{
				"x": -4.5181886587,
				"y": -1.8030438223,
				"z": -0.085132046,
				"element": "H" 
			}
		],
		 "valence_orbital": [ 
			{
				"type": "occ",
				"energy": -0.30912,
				"method": "rhf"
			},
			{
				"type": "occ",
				"energy": -0.30761,
				"method": "rhf"
			},
			{
				"type": "occ",
				"energy": -0.26811,
				"method": "rhf"
			},
			{
				"type": "occ",
				"energy": -0.25766,
				"method": "rhf"
			},
			{
				"type": "occ",
				"energy": -0.24804,
				"method": "rhf"
			},
			{
				"type": "unocc",
				"energy": -0.04415,
				"method": "rhf"
			},
			{
				"type": "unocc",
				"energy": -0.01618,
				"method": "rhf"
			},
			{
				"type": "unocc",
				"energy": 0.05162,
				"method": "rhf"
			},
			{
				"type": "unocc",
				"energy": 0.06098,
				"method": "rhf"
			},
			{
				"type": "unocc",
				"energy": 0.07135,
				"method": "rhf"
			}
		],
		"cosmo_sigma_profile": { 
			"-0.025": 0.0,
			"-0.024": 0.0,
			"-0.023": 0.0,
			"-0.022": 0.0,
			"-0.021": 0.0,
			"-0.02": 0.0,
			"-0.019": 0.0,
			"-0.018": 0.345880163237,
			"-0.017": 0.806758725192,
			"-0.016": 0.925021314378,
			"-0.015": 1.08253649056,
			"-0.014": 1.05315020884,
			"-0.013": 0.846079022969,
			"-0.012": 1.13644437719,
			"-0.011": 1.06368871568,
			"-0.01": 0.926140963108,
			"-0.009": 0.935132846247,
			"-0.008": 1.79128261418,
			"-0.007": 1.47688039632,
			"-0.006": 4.53443066477,
			"-0.005": 7.20821282666,
			"-0.004": 10.5672296058,
			"-0.003": 29.1873766765,
			"-0.002": 38.03406255,
			"-0.001": 37.8569494749,
			"0.0": 37.7822473729,
			"0.001": 38.0122798948,
			"0.002": 16.4505032136,
			"0.003": 9.04864978153,
			"0.004": 11.3014119717,
			"0.005": 5.15326626133,
			"0.006": 2.21896778851,
			"0.007": 2.69286075203,
			"0.008": 2.06128467111,
			"0.009": 3.62184438254,
			"0.01": 4.30492078055,
			"0.011": 5.14439264388,
			"0.012": 5.58554546094,
			"0.013": 2.29615445017,
			"0.014": 0.234542107908,
			"0.015": 0.0,
			"0.016": 0.0,
			"0.017": 0.0,
			"0.018": 0.0,
			"0.019": 0.0,
			"0.02": 0.0,
			"0.021": 0.0,
			"0.022": 0.0,
			"0.023": 0.0,
			"0.024": 0.0,
			"0.025": 0.0
		}
	}
}
