{
	 "smiles": "CC1=C(SN=N1)C1=NN=C(S)N1C1CC1", 
	 "Tm": 485.15, 
	 "num_atms": 24, 
	 "gaussian": { 
		 "optdone": 1, 
		 "sigma_profile": "yes", 
		 "theory": "DFT", 
		 "functional": "B3LYP", 
		 "basiset": "6-31G**", 
		 "properties": { 
			 "R2extent": 4469.5841, 
			 "electric_dipole_moment_norm": 5.14653007472, 
			 "electric_quadrupole_moment_norm": 10.5711764416, 
			 "total_energy": -1380.30745073, 
			 "HOMO_LUMO_gap": 0.15859, 
			 "cosmo_polarized_energy": -16.01, 
			 "cosmo_cavitation_energy": 30.91, 
			 "cosmo_dispersion_energy": -23.23, 
			 "cosmo_repulsion_energy": 1.72, 
			 "cosmo_total_nonelectrostatic_energy": 9.4, 
			 "SMD_solvation_energy": 0.78 
		},
		"coords": [
			{
				"x": 1.6674326598,
				"y": 2.7065339222,
				"z": -2.5744678441,
				"element": "C" 
			},
			{
				"x": 2.1259330168,
				"y": 1.9637176073,
				"z": -1.3575334047,
				"element": "C" 
			},
			{
				"x": 1.6795394801,
				"y": 0.7342952037,
				"z": -0.8833275219,
				"element": "C" 
			},
			{
				"x": 2.5767377091,
				"y": 0.3471777182,
				"z": 0.5371318457,
				"element": "S" 
			},
			{
				"x": 3.4789545086,
				"y": 1.8332030233,
				"z": 0.4386936385,
				"element": "N" 
			},
			{
				"x": 3.1116173838,
				"y": 2.5118980815,
				"z": -0.5752964089,
				"element": "N" 
			},
			{
				"x": 0.6989463227,
				"y": -0.1137265598,
				"z": -1.5352534957,
				"element": "C" 
			},
			{
				"x": 0.3861636913,
				"y": -0.0097886641,
				"z": -2.8146371481,
				"element": "N" 
			},
			{
				"x": -0.5243658623,
				"y": -0.9871333237,
				"z": -3.1176954161,
				"element": "N" 
			},
			{
				"x": -0.7453288477,
				"y": -1.6653834262,
				"z": -2.0123334994,
				"element": "C" 
			},
			{
				"x": -1.8043830998,
				"y": -3.069898385,
				"z": -1.8785237884,
				"element": "S" 
			},
			{
				"x": -0.0201682896,
				"y": -1.1587193473,
				"z": -0.9618185506,
				"element": "N" 
			},
			{
				"x": -0.0092380069,
				"y": -1.6450158959,
				"z": 0.3963977589,
				"element": "C" 
			},
			{
				"x": -0.3870600414,
				"y": -0.7129978237,
				"z": 1.5234018064,
				"element": "C" 
			},
			{
				"x": -1.3249299182,
				"y": -1.8152477038,
				"z": 1.1253237912,
				"element": "C" 
			},
			{
				"x": 2.0467781328,
				"y": 2.2357314366,
				"z": -3.4863988003,
				"element": "H" 
			},
			{
				"x": 2.0324864244,
				"y": 3.7340931559,
				"z": -2.5234630231,
				"element": "H" 
			},
			{
				"x": 0.5778899624,
				"y": 2.7005649328,
				"z": -2.6568018468,
				"element": "H" 
			},
			{
				"x": -2.0982653049,
				"y": -3.0377711949,
				"z": -3.1926986411,
				"element": "H" 
			},
			{
				"x": 0.7665476527,
				"y": -2.3821813657,
				"z": 0.5878838567,
				"element": "H" 
			},
			{
				"x": -0.664813795,
				"y": 0.301294075,
				"z": 1.257306545,
				"element": "H" 
			},
			{
				"x": 0.1758604539,
				"y": -0.7997952224,
				"z": 2.4463422584,
				"element": "H" 
			},
			{
				"x": -2.2319477139,
				"y": -1.5366217464,
				"z": 0.6001628154,
				"element": "H" 
			},
			{
				"x": -1.4219865187,
				"y": -2.6865284975,
				"z": 1.764405073,
				"element": "H" 
			}
		],
		 "valence_orbital": [ 
			{
				"type": "occ",
				"energy": -0.30272,
				"method": "rhf"
			},
			{
				"type": "occ",
				"energy": -0.27285,
				"method": "rhf"
			},
			{
				"type": "occ",
				"energy": -0.26803,
				"method": "rhf"
			},
			{
				"type": "occ",
				"energy": -0.262,
				"method": "rhf"
			},
			{
				"type": "occ",
				"energy": -0.23283,
				"method": "rhf"
			},
			{
				"type": "unocc",
				"energy": -0.07424,
				"method": "rhf"
			},
			{
				"type": "unocc",
				"energy": -0.01425,
				"method": "rhf"
			},
			{
				"type": "unocc",
				"energy": -0.00164,
				"method": "rhf"
			},
			{
				"type": "unocc",
				"energy": -0.00024,
				"method": "rhf"
			},
			{
				"type": "unocc",
				"energy": 0.02053,
				"method": "rhf"
			}
		],
		"cosmo_sigma_profile": { 
			"-0.025": 0.0,
			"-0.024": 0.0,
			"-0.023": 0.0,
			"-0.022": 0.0,
			"-0.021": 0.0,
			"-0.02": 0.0,
			"-0.019": 0.0,
			"-0.018": 0.0,
			"-0.017": 0.0,
			"-0.016": 0.0,
			"-0.015": 0.0,
			"-0.014": 0.0,
			"-0.013": 0.0878328535319,
			"-0.012": 1.49181908051,
			"-0.011": 1.52560170907,
			"-0.01": 1.01568578148,
			"-0.009": 1.54219430174,
			"-0.008": 5.31928790707,
			"-0.007": 7.75507125252,
			"-0.006": 16.0282741642,
			"-0.005": 14.6694667207,
			"-0.004": 16.5671578704,
			"-0.003": 20.3306313457,
			"-0.002": 25.4552821332,
			"-0.001": 28.0829335804,
			"0.0": 20.1119993,
			"0.001": 16.2134451929,
			"0.002": 11.1680554773,
			"0.003": 9.02379832716,
			"0.004": 7.1058450389,
			"0.005": 5.86632470217,
			"0.006": 5.25279085346,
			"0.007": 4.22254834067,
			"0.008": 4.91914879779,
			"0.009": 5.26432902046,
			"0.01": 5.66649622414,
			"0.011": 4.86509671796,
			"0.012": 5.73878628663,
			"0.013": 3.41943487345,
			"0.014": 1.24194877753,
			"0.015": 1.1956989959,
			"0.016": 0.13121770409,
			"0.017": 0.0,
			"0.018": 0.0,
			"0.019": 0.0,
			"0.02": 0.0,
			"0.021": 0.0,
			"0.022": 0.0,
			"0.023": 0.0,
			"0.024": 0.0,
			"0.025": 0.0
		}
	}
}
