{
	 "smiles": "OC1CCCCCCCCC1", 
	 "Tm": 313.35, 
	 "num_atms": 31, 
	 "gaussian": { 
		 "optdone": 1, 
		 "sigma_profile": "yes", 
		 "theory": "DFT", 
		 "functional": "B3LYP", 
		 "basiset": "6-31G**", 
		 "properties": { 
			 "R2extent": 2317.2808, 
			 "electric_dipole_moment_norm": 1.42006903353, 
			 "electric_quadrupole_moment_norm": 6.87131412031, 
			 "total_energy": -468.339504546, 
			 "HOMO_LUMO_gap": 0.32507, 
			 "cosmo_polarized_energy": -5.87, 
			 "cosmo_cavitation_energy": 27.73, 
			 "cosmo_dispersion_energy": -21.05, 
			 "cosmo_repulsion_energy": 1.68, 
			 "cosmo_total_nonelectrostatic_energy": 8.36, 
			 "SMD_solvation_energy": 3.43 
		},
		"coords": [
			{
				"x": -2.4421035917,
				"y": -2.0304029417,
				"z": -1.37713816,
				"element": "O" 
			},
			{
				"x": -1.4343692057,
				"y": -1.8312468632,
				"z": -0.381824723,
				"element": "C" 
			},
			{
				"x": -0.2211703976,
				"y": -1.2641593915,
				"z": -1.141161651,
				"element": "C" 
			},
			{
				"x": 0.9420108867,
				"y": -0.7500717086,
				"z": -0.2557359456,
				"element": "C" 
			},
			{
				"x": 1.0867147105,
				"y": 0.7952663744,
				"z": -0.2305229257,
				"element": "C" 
			},
			{
				"x": 1.4158974748,
				"y": 1.4166898473,
				"z": 1.1372072695,
				"element": "C" 
			},
			{
				"x": 0.2692234306,
				"y": 1.4015464095,
				"z": 2.1693783752,
				"element": "C" 
			},
			{
				"x": -0.9970861228,
				"y": 2.2072487986,
				"z": 1.7581748363,
				"element": "C" 
			},
			{
				"x": -2.3339740192,
				"y": 1.4422805287,
				"z": 1.6250902867,
				"element": "C" 
			},
			{
				"x": -2.4425454294,
				"y": 0.4397221064,
				"z": 0.4537239095,
				"element": "C" 
			},
			{
				"x": -1.9491450395,
				"y": -0.9822254994,
				"z": 0.7908408546,
				"element": "C" 
			},
			{
				"x": -3.2008594333,
				"y": -2.4483945178,
				"z": -0.9496254363,
				"element": "H" 
			},
			{
				"x": -1.1325646596,
				"y": -2.8056637143,
				"z": 0.0428822001,
				"element": "H" 
			},
			{
				"x": -0.5792936288,
				"y": -0.4618522082,
				"z": -1.7962605385,
				"element": "H" 
			},
			{
				"x": 0.1224788763,
				"y": -2.0575061081,
				"z": -1.813469709,
				"element": "H" 
			},
			{
				"x": 1.8847828951,
				"y": -1.1824638842,
				"z": -0.6083634083,
				"element": "H" 
			},
			{
				"x": 0.8243763752,
				"y": -1.1302809702,
				"z": 0.766073187,
				"element": "H" 
			},
			{
				"x": 1.8663288802,
				"y": 1.0882029819,
				"z": -0.9445307464,
				"element": "H" 
			},
			{
				"x": 0.1681120462,
				"y": 1.2557302047,
				"z": -0.6093628455,
				"element": "H" 
			},
			{
				"x": 1.7217997076,
				"y": 2.46018019,
				"z": 0.9799446224,
				"element": "H" 
			},
			{
				"x": 2.2901122478,
				"y": 0.9096396849,
				"z": 1.5684023272,
				"element": "H" 
			},
			{
				"x": 0.6642767647,
				"y": 1.8139997889,
				"z": 3.1056554338,
				"element": "H" 
			},
			{
				"x": 0.0033408819,
				"y": 0.3671823694,
				"z": 2.4091577408,
				"element": "H" 
			},
			{
				"x": -1.1546748992,
				"y": 3.0046489107,
				"z": 2.4946046631,
				"element": "H" 
			},
			{
				"x": -0.8068536881,
				"y": 2.727456259,
				"z": 0.8097046148,
				"element": "H" 
			},
			{
				"x": -2.5582701617,
				"y": 0.9282225338,
				"z": 2.5708317686,
				"element": "H" 
			},
			{
				"x": -3.121092191,
				"y": 2.1978797569,
				"z": 1.5068085283,
				"element": "H" 
			},
			{
				"x": -1.8983491329,
				"y": 0.8383085089,
				"z": -0.4091118006,
				"element": "H" 
			},
			{
				"x": -3.4860298991,
				"y": 0.3777576872,
				"z": 0.1254716167,
				"element": "H" 
			},
			{
				"x": -2.7654988625,
				"y": -1.5368063215,
				"z": 1.2775530816,
				"element": "H" 
			},
			{
				"x": -1.1575748155,
				"y": -0.9424888121,
				"z": 1.543502574,
				"element": "H" 
			}
		],
		 "valence_orbital": [ 
			{
				"type": "occ",
				"energy": -0.30902,
				"method": "rhf"
			},
			{
				"type": "occ",
				"energy": -0.30329,
				"method": "rhf"
			},
			{
				"type": "occ",
				"energy": -0.29727,
				"method": "rhf"
			},
			{
				"type": "occ",
				"energy": -0.29284,
				"method": "rhf"
			},
			{
				"type": "occ",
				"energy": -0.25563,
				"method": "rhf"
			},
			{
				"type": "unocc",
				"energy": 0.06944,
				"method": "rhf"
			},
			{
				"type": "unocc",
				"energy": 0.08585,
				"method": "rhf"
			},
			{
				"type": "unocc",
				"energy": 0.09628,
				"method": "rhf"
			},
			{
				"type": "unocc",
				"energy": 0.10672,
				"method": "rhf"
			},
			{
				"type": "unocc",
				"energy": 0.11355,
				"method": "rhf"
			}
		],
		"cosmo_sigma_profile": { 
			"-0.025": 0.0,
			"-0.024": 0.0,
			"-0.023": 0.0,
			"-0.022": 0.0,
			"-0.021": 0.0,
			"-0.02": 0.0,
			"-0.019": 0.0,
			"-0.018": 0.0,
			"-0.017": 0.0,
			"-0.016": 0.0,
			"-0.015": 0.375342985189,
			"-0.014": 1.1273589294,
			"-0.013": 0.616108797686,
			"-0.012": 0.660323922771,
			"-0.011": 0.881741072925,
			"-0.01": 1.16768279392,
			"-0.009": 0.903884253301,
			"-0.008": 0.931187517991,
			"-0.007": 0.636824931434,
			"-0.006": 1.36176124326,
			"-0.005": 1.98542863081,
			"-0.004": 3.07266101322,
			"-0.003": 8.82298533808,
			"-0.002": 30.4547776216,
			"-0.001": 42.122562282,
			"0.0": 44.359626044,
			"0.001": 38.2180308033,
			"0.002": 14.40136915,
			"0.003": 1.66597623233,
			"0.004": 1.30103732039,
			"0.005": 2.07511506132,
			"0.006": 1.78916600213,
			"0.007": 1.21473222367,
			"0.008": 1.39436785706,
			"0.009": 1.22807419893,
			"0.01": 1.09401397815,
			"0.011": 1.25783785228,
			"0.012": 1.63054484675,
			"0.013": 1.88287228241,
			"0.014": 1.26136026922,
			"0.015": 1.58304195351,
			"0.016": 0.0,
			"0.017": 0.0,
			"0.018": 0.0,
			"0.019": 0.0,
			"0.02": 0.0,
			"0.021": 0.0,
			"0.022": 0.0,
			"0.023": 0.0,
			"0.024": 0.0,
			"0.025": 0.0
		}
	}
}
