{
	 "smiles": "CC1(C)OC2C(CO)OC(C2O1)N1C=NC2=C1N=CN=C2N", 
	 "Tm": 495.15, 
	 "num_atms": 39, 
	 "gaussian": { 
		 "optdone": 1, 
		 "sigma_profile": "yes", 
		 "theory": "DFT", 
		 "functional": "B3LYP", 
		 "basiset": "6-31G**", 
		 "properties": { 
			 "R2extent": 7152.8394, 
			 "electric_dipole_moment_norm": 2.55804378774, 
			 "electric_quadrupole_moment_norm": 18.9568744468, 
			 "total_energy": -1080.28309368, 
			 "HOMO_LUMO_gap": 0.19937, 
			 "cosmo_polarized_energy": -18.56, 
			 "cosmo_cavitation_energy": 40.7, 
			 "cosmo_dispersion_energy": -28.85, 
			 "cosmo_repulsion_energy": 2.19, 
			 "cosmo_total_nonelectrostatic_energy": 14.04, 
			 "SMD_solvation_energy": 3.02 
		},
		"coords": [
			{
				"x": 2.0900260168,
				"y": 3.5517785876,
				"z": 2.0994574764,
				"element": "C" 
			},
			{
				"x": 1.3328161014,
				"y": 2.9364464187,
				"z": 0.9340154187,
				"element": "C" 
			},
			{
				"x": 0.9789396292,
				"y": 3.9462317387,
				"z": -0.1609396471,
				"element": "C" 
			},
			{
				"x": 2.1146417071,
				"y": 1.8692371567,
				"z": 0.3859056516,
				"element": "O" 
			},
			{
				"x": 1.2394505475,
				"y": 0.8086112878,
				"z": -0.0095161372,
				"element": "C" 
			},
			{
				"x": 1.6553064175,
				"y": -0.5352138335,
				"z": 0.6225791615,
				"element": "C" 
			},
			{
				"x": 3.1222233351,
				"y": -0.6035113545,
				"z": 1.0562745173,
				"element": "C" 
			},
			{
				"x": 3.9911208,
				"y": -0.2431547361,
				"z": -0.0022967852,
				"element": "O" 
			},
			{
				"x": 0.8362844179,
				"y": -0.6822631758,
				"z": 1.8028472187,
				"element": "O" 
			},
			{
				"x": -0.3909856702,
				"y": -0.024589184,
				"z": 1.6138316436,
				"element": "C" 
			},
			{
				"x": -0.1134815136,
				"y": 1.1535238049,
				"z": 0.6574101041,
				"element": "C" 
			},
			{
				"x": 0.1546868282,
				"y": 2.3100975015,
				"z": 1.4404478919,
				"element": "O" 
			},
			{
				"x": -1.4440464094,
				"y": -0.9213856255,
				"z": 1.1288537495,
				"element": "N" 
			},
			{
				"x": -2.3657582021,
				"y": -1.575450625,
				"z": 1.9308719637,
				"element": "C" 
			},
			{
				"x": -3.1632787818,
				"y": -2.3877118888,
				"z": 1.2838342689,
				"element": "N" 
			},
			{
				"x": -2.7428691013,
				"y": -2.2812996497,
				"z": -0.0304323104,
				"element": "C" 
			},
			{
				"x": -1.6751209405,
				"y": -1.387632861,
				"z": -0.1544422508,
				"element": "C" 
			},
			{
				"x": -1.0344123982,
				"y": -1.065658239,
				"z": -1.2883580886,
				"element": "N" 
			},
			{
				"x": -1.5400647931,
				"y": -1.7181511608,
				"z": -2.3415065593,
				"element": "C" 
			},
			{
				"x": -2.551884854,
				"y": -2.5976092923,
				"z": -2.3765261756,
				"element": "N" 
			},
			{
				"x": -3.1791263849,
				"y": -2.8963101738,
				"z": -1.2234939161,
				"element": "C" 
			},
			{
				"x": -4.2171649459,
				"y": -3.7649018655,
				"z": -1.2496121129,
				"element": "N" 
			},
			{
				"x": 3.0315915736,
				"y": 3.984977054,
				"z": 1.7521628979,
				"element": "H" 
			},
			{
				"x": 2.3016827446,
				"y": 2.7804859788,
				"z": 2.8429067913,
				"element": "H" 
			},
			{
				"x": 1.4920240136,
				"y": 4.3403201579,
				"z": 2.563510168,
				"element": "H" 
			},
			{
				"x": 0.3459005114,
				"y": 4.7399463801,
				"z": 0.2452123111,
				"element": "H" 
			},
			{
				"x": 1.8877361784,
				"y": 4.3945905847,
				"z": -0.5717570903,
				"element": "H" 
			},
			{
				"x": 0.438843016,
				"y": 3.4572733081,
				"z": -0.9769137732,
				"element": "H" 
			},
			{
				"x": 1.1748200644,
				"y": 0.7428120335,
				"z": -1.0972765158,
				"element": "H" 
			},
			{
				"x": 1.4249268278,
				"y": -1.336441117,
				"z": -0.0891397612,
				"element": "H" 
			},
			{
				"x": 3.3712770405,
				"y": -1.628491785,
				"z": 1.3461091521,
				"element": "H" 
			},
			{
				"x": 3.2487922964,
				"y": 0.0374372663,
				"z": 1.9383711227,
				"element": "H" 
			},
			{
				"x": 3.8916407156,
				"y": 0.7135633473,
				"z": -0.1113853688,
				"element": "H" 
			},
			{
				"x": -0.7294376599,
				"y": 0.3480648073,
				"z": 2.5835070886,
				"element": "H" 
			},
			{
				"x": -0.9270755955,
				"y": 1.3254275041,
				"z": -0.0519633391,
				"element": "H" 
			},
			{
				"x": -2.3909877095,
				"y": -1.3953792179,
				"z": 2.9981348075,
				"element": "H" 
			},
			{
				"x": -1.0680841383,
				"y": -1.5114458513,
				"z": -3.2998929449,
				"element": "H" 
			},
			{
				"x": -4.4053848554,
				"y": -4.2600104173,
				"z": -2.1064729497,
				"element": "H" 
			},
			{
				"x": -4.6125668294,
				"y": -4.0910128642,
				"z": -0.382817679,
				"element": "H" 
			}
		],
		 "valence_orbital": [ 
			{
				"type": "occ",
				"energy": -0.2677,
				"method": "rhf"
			},
			{
				"type": "occ",
				"energy": -0.26676,
				"method": "rhf"
			},
			{
				"type": "occ",
				"energy": -0.25763,
				"method": "rhf"
			},
			{
				"type": "occ",
				"energy": -0.25274,
				"method": "rhf"
			},
			{
				"type": "occ",
				"energy": -0.22306,
				"method": "rhf"
			},
			{
				"type": "unocc",
				"energy": -0.02369,
				"method": "rhf"
			},
			{
				"type": "unocc",
				"energy": 0.0008,
				"method": "rhf"
			},
			{
				"type": "unocc",
				"energy": 0.03327,
				"method": "rhf"
			},
			{
				"type": "unocc",
				"energy": 0.06111,
				"method": "rhf"
			},
			{
				"type": "unocc",
				"energy": 0.08389,
				"method": "rhf"
			}
		],
		"cosmo_sigma_profile": { 
			"-0.025": 0.0,
			"-0.024": 0.0,
			"-0.023": 0.0,
			"-0.022": 0.0,
			"-0.021": 0.0,
			"-0.02": 0.0,
			"-0.019": 0.0,
			"-0.018": 0.0,
			"-0.017": 0.0,
			"-0.016": 0.0,
			"-0.015": 0.0895667744115,
			"-0.014": 1.51311995113,
			"-0.013": 2.07499328392,
			"-0.012": 1.78233218408,
			"-0.011": 4.11280797231,
			"-0.01": 6.32359802634,
			"-0.009": 4.62963487424,
			"-0.008": 4.15510613925,
			"-0.007": 5.73004333657,
			"-0.006": 9.48678602189,
			"-0.005": 17.0153912941,
			"-0.004": 26.3633173126,
			"-0.003": 24.3552785464,
			"-0.002": 22.7542481467,
			"-0.001": 31.5365538433,
			"0.0": 30.9722674094,
			"0.001": 21.8401581042,
			"0.002": 16.2498618371,
			"0.003": 14.1369561127,
			"0.004": 13.7008127746,
			"0.005": 10.2329087151,
			"0.006": 8.52998009629,
			"0.007": 7.41234683594,
			"0.008": 6.44621760362,
			"0.009": 5.87050221821,
			"0.01": 4.87775063344,
			"0.011": 5.05700025938,
			"0.012": 4.1157353941,
			"0.013": 3.34417605081,
			"0.014": 3.89965473986,
			"0.015": 1.50327248731,
			"0.016": 0.36393090079,
			"0.017": 0.0,
			"0.018": 0.0,
			"0.019": 0.0,
			"0.02": 0.0,
			"0.021": 0.0,
			"0.022": 0.0,
			"0.023": 0.0,
			"0.024": 0.0,
			"0.025": 0.0
		}
	}
}
