{
	 "smiles": "CCCC1C2C(ON1C1=CC=CC=C1)C(=O)N(C2=O)C1=CC=CC=C1", 
	 "Tm": 381.15, 
	 "num_atms": 45, 
	 "gaussian": { 
		 "optdone": 1, 
		 "sigma_profile": "yes", 
		 "theory": "DFT", 
		 "functional": "B3LYP", 
		 "basiset": "6-31G**", 
		 "properties": { 
			 "R2extent": 8083.9463, 
			 "electric_dipole_moment_norm": 1.73870536607, 
			 "electric_quadrupole_moment_norm": 18.2984708593, 
			 "total_energy": -1109.32186531, 
			 "HOMO_LUMO_gap": 0.17249, 
			 "cosmo_polarized_energy": -16.49, 
			 "cosmo_cavitation_energy": 46.34, 
			 "cosmo_dispersion_energy": -30.97, 
			 "cosmo_repulsion_energy": 2.33, 
			 "cosmo_total_nonelectrostatic_energy": 17.7, 
			 "SMD_solvation_energy": 7.96 
		},
		"coords": [
			{
				"x": -3.1141912149,
				"y": 3.4584327705,
				"z": -0.8780139796,
				"element": "C" 
			},
			{
				"x": -1.7058889916,
				"y": 3.8508842192,
				"z": -0.411790581,
				"element": "C" 
			},
			{
				"x": -1.1535162647,
				"y": 3.0831123424,
				"z": 0.8037816093,
				"element": "C" 
			},
			{
				"x": -0.5739213129,
				"y": 1.6732520842,
				"z": 0.5787468625,
				"element": "C" 
			},
			{
				"x": -1.5962504541,
				"y": 0.5728816605,
				"z": 0.1580938877,
				"element": "C" 
			},
			{
				"x": -1.2845006198,
				"y": 0.3228485347,
				"z": -1.3144959652,
				"element": "C" 
			},
			{
				"x": -0.2670482025,
				"y": 1.2701476799,
				"z": -1.6869405919,
				"element": "O" 
			},
			{
				"x": 0.4330497843,
				"y": 1.6545874294,
				"z": -0.4999360501,
				"element": "N" 
			},
			{
				"x": 1.6563672304,
				"y": 0.9498995742,
				"z": -0.3238483761,
				"element": "C" 
			},
			{
				"x": 2.3751695739,
				"y": 1.1013149158,
				"z": 0.8752995491,
				"element": "C" 
			},
			{
				"x": 3.610908302,
				"y": 0.4774085819,
				"z": 1.0351219044,
				"element": "C" 
			},
			{
				"x": 4.1629170457,
				"y": -0.2884089981,
				"z": 0.0071316872,
				"element": "C" 
			},
			{
				"x": 3.4613061777,
				"y": -0.4132243756,
				"z": -1.1927044401,
				"element": "C" 
			},
			{
				"x": 2.2216683368,
				"y": 0.2018422125,
				"z": -1.3689621748,
				"element": "C" 
			},
			{
				"x": -0.8186375183,
				"y": -1.1420842966,
				"z": -1.3934217398,
				"element": "C" 
			},
			{
				"x": -0.4610544882,
				"y": -1.7258039931,
				"z": -2.390663569,
				"element": "O" 
			},
			{
				"x": -0.8995513622,
				"y": -1.6905129928,
				"z": -0.1013403178,
				"element": "N" 
			},
			{
				"x": -1.3400919296,
				"y": -0.7600245721,
				"z": 0.8571949083,
				"element": "C" 
			},
			{
				"x": -1.4864940611,
				"y": -0.9849242349,
				"z": 2.0381654721,
				"element": "O" 
			},
			{
				"x": -0.5382882484,
				"y": -3.04160983,
				"z": 0.2114624792,
				"element": "C" 
			},
			{
				"x": 0.6548990432,
				"y": -3.5705660784,
				"z": -0.2891501335,
				"element": "C" 
			},
			{
				"x": 0.9958004061,
				"y": -4.8887789519,
				"z": 0.0109177689,
				"element": "C" 
			},
			{
				"x": 0.1606842453,
				"y": -5.6706908158,
				"z": 0.8108946108,
				"element": "C" 
			},
			{
				"x": -1.0245203614,
				"y": -5.1301142228,
				"z": 1.3127840797,
				"element": "C" 
			},
			{
				"x": -1.3821805469,
				"y": -3.8165059074,
				"z": 1.0125145596,
				"element": "C" 
			},
			{
				"x": -3.8353416881,
				"y": 3.5057759388,
				"z": -0.0532875281,
				"element": "H" 
			},
			{
				"x": -3.1548315956,
				"y": 2.4500106509,
				"z": -1.2997656432,
				"element": "H" 
			},
			{
				"x": -3.4636790662,
				"y": 4.1412672181,
				"z": -1.6591496974,
				"element": "H" 
			},
			{
				"x": -1.725397949,
				"y": 4.9128319225,
				"z": -0.137682809,
				"element": "H" 
			},
			{
				"x": -0.99750544,
				"y": 3.7625464486,
				"z": -1.2417804951,
				"element": "H" 
			},
			{
				"x": -1.9212022679,
				"y": 3.0103238096,
				"z": 1.5866964443,
				"element": "H" 
			},
			{
				"x": -0.336229146,
				"y": 3.6753541309,
				"z": 1.2321412463,
				"element": "H" 
			},
			{
				"x": -0.0926772207,
				"y": 1.3630338866,
				"z": 1.5090277561,
				"element": "H" 
			},
			{
				"x": -2.6227693478,
				"y": 0.8805660306,
				"z": 0.3638910749,
				"element": "H" 
			},
			{
				"x": -2.1092941638,
				"y": 0.4722729938,
				"z": -2.0147944465,
				"element": "H" 
			},
			{
				"x": 1.9851434266,
				"y": 1.7216771201,
				"z": 1.6755326983,
				"element": "H" 
			},
			{
				"x": 4.1464481079,
				"y": 0.6007921612,
				"z": 1.9721688952,
				"element": "H" 
			},
			{
				"x": 5.1275634439,
				"y": -0.7692202674,
				"z": 0.1356495979,
				"element": "H" 
			},
			{
				"x": 3.8803016936,
				"y": -0.9922726693,
				"z": -2.0111073547,
				"element": "H" 
			},
			{
				"x": 1.6874998648,
				"y": 0.1048286031,
				"z": -2.3048370444,
				"element": "H" 
			},
			{
				"x": 1.3030724845,
				"y": -2.9564634477,
				"z": -0.9020152794,
				"element": "H" 
			},
			{
				"x": 1.9208417877,
				"y": -5.3020557246,
				"z": -0.3796472595,
				"element": "H" 
			},
			{
				"x": 0.4330905199,
				"y": -6.695799484,
				"z": 1.0439081478,
				"element": "H" 
			},
			{
				"x": -1.6771585125,
				"y": -5.7312263446,
				"z": 1.9387176015,
				"element": "H" 
			},
			{
				"x": -2.2980094999,
				"y": -3.390905713,
				"z": 1.4042926353,
				"element": "H" 
			}
		],
		 "valence_orbital": [ 
			{
				"type": "occ",
				"energy": -0.26334,
				"method": "rhf"
			},
			{
				"type": "occ",
				"energy": -0.25453,
				"method": "rhf"
			},
			{
				"type": "occ",
				"energy": -0.25037,
				"method": "rhf"
			},
			{
				"type": "occ",
				"energy": -0.24568,
				"method": "rhf"
			},
			{
				"type": "occ",
				"energy": -0.20933,
				"method": "rhf"
			},
			{
				"type": "unocc",
				"energy": -0.03684,
				"method": "rhf"
			},
			{
				"type": "unocc",
				"energy": -0.02551,
				"method": "rhf"
			},
			{
				"type": "unocc",
				"energy": -0.00531,
				"method": "rhf"
			},
			{
				"type": "unocc",
				"energy": -0.00289,
				"method": "rhf"
			},
			{
				"type": "unocc",
				"energy": 0.00525,
				"method": "rhf"
			}
		],
		"cosmo_sigma_profile": { 
			"-0.025": 0.0,
			"-0.024": 0.0,
			"-0.023": 0.0,
			"-0.022": 0.0,
			"-0.021": 0.0,
			"-0.02": 0.0,
			"-0.019": 0.0,
			"-0.018": 0.0,
			"-0.017": 0.0,
			"-0.016": 0.0,
			"-0.015": 0.0,
			"-0.014": 0.0,
			"-0.013": 0.0,
			"-0.012": 0.0,
			"-0.011": 0.479789712174,
			"-0.01": 1.89612619849,
			"-0.009": 5.2665780429,
			"-0.008": 6.31756483608,
			"-0.007": 7.82549681729,
			"-0.006": 18.1652616272,
			"-0.005": 24.5880230046,
			"-0.004": 28.4839317202,
			"-0.003": 29.5777439183,
			"-0.002": 30.5111688133,
			"-0.001": 31.5235990088,
			"0.0": 28.2467610362,
			"0.001": 27.0454536947,
			"0.002": 19.6859471906,
			"0.003": 18.6994257408,
			"0.004": 26.1202843186,
			"0.005": 18.7931958153,
			"0.006": 10.4786010713,
			"0.007": 5.2551444502,
			"0.008": 5.84731276338,
			"0.009": 6.33715122738,
			"0.01": 6.35970546332,
			"0.011": 8.53742984257,
			"0.012": 1.80022886629,
			"0.013": 0.0,
			"0.014": 0.0,
			"0.015": 0.0,
			"0.016": 0.0,
			"0.017": 0.0,
			"0.018": 0.0,
			"0.019": 0.0,
			"0.02": 0.0,
			"0.021": 0.0,
			"0.022": 0.0,
			"0.023": 0.0,
			"0.024": 0.0,
			"0.025": 0.0
		}
	}
}
