{
	 "smiles": "NC1=CC(Cl)=C(SC(F)(F)F)C=C1", 
	 "Tm": 316.15, 
	 "num_atms": 18, 
	 "gaussian": { 
		 "optdone": 1, 
		 "sigma_profile": "yes", 
		 "theory": "DFT", 
		 "functional": "B3LYP", 
		 "basiset": "6-31G**", 
		 "properties": { 
			 "R2extent": 4047.9286, 
			 "electric_dipole_moment_norm": 5.24313051716, 
			 "electric_quadrupole_moment_norm": 16.1497929705, 
			 "total_energy": -1482.40312828, 
			 "HOMO_LUMO_gap": 0.19947, 
			 "cosmo_polarized_energy": -10.15, 
			 "cosmo_cavitation_energy": 27.25, 
			 "cosmo_dispersion_energy": -19.77, 
			 "cosmo_repulsion_energy": 1.48, 
			 "cosmo_total_nonelectrostatic_energy": 8.96, 
			 "SMD_solvation_energy": 5.14 
		},
		"coords": [
			{
				"x": -3.9854136679,
				"y": 1.5379555122,
				"z": 0.8451088424,
				"element": "N" 
			},
			{
				"x": -2.6283096148,
				"y": 1.3125930166,
				"z": 0.6997399467,
				"element": "C" 
			},
			{
				"x": -1.8915104456,
				"y": 0.710615716,
				"z": 1.7352612689,
				"element": "C" 
			},
			{
				"x": -0.5374490032,
				"y": 0.43889256,
				"z": 1.5725756609,
				"element": "C" 
			},
			{
				"x": 0.2982145802,
				"y": -0.3050353491,
				"z": 2.9208503841,
				"element": "Cl" 
			},
			{
				"x": 0.1351753211,
				"y": 0.753107612,
				"z": 0.3765558148,
				"element": "C" 
			},
			{
				"x": 1.8543553558,
				"y": 0.3769100843,
				"z": 0.0920664067,
				"element": "S" 
			},
			{
				"x": 2.6015777829,
				"y": 1.9791318033,
				"z": 0.5479928631,
				"element": "C" 
			},
			{
				"x": 2.1709857102,
				"y": 2.9917962916,
				"z": -0.2285990618,
				"element": "F" 
			},
			{
				"x": 2.3590732411,
				"y": 2.3308352803,
				"z": 1.8202851535,
				"element": "F" 
			},
			{
				"x": 3.9305944843,
				"y": 1.8635579015,
				"z": 0.3845558878,
				"element": "F" 
			},
			{
				"x": -0.6182340979,
				"y": 1.3472335106,
				"z": -0.6498462347,
				"element": "C" 
			},
			{
				"x": -1.967352781,
				"y": 1.6293076356,
				"z": -0.5021894215,
				"element": "C" 
			},
			{
				"x": -4.3453530578,
				"y": 1.5711989896,
				"z": 1.7874543464,
				"element": "H" 
			},
			{
				"x": -4.4003165882,
				"y": 2.2227649952,
				"z": 0.2307211766,
				"element": "H" 
			},
			{
				"x": -2.3769154951,
				"y": 0.4521075748,
				"z": 2.6704267555,
				"element": "H" 
			},
			{
				"x": -0.1179960748,
				"y": 1.5924037117,
				"z": -1.5806060378,
				"element": "H" 
			},
			{
				"x": -2.5190256493,
				"y": 2.0889231537,
				"z": -1.3173537517,
				"element": "H" 
			}
		],
		 "valence_orbital": [ 
			{
				"type": "occ",
				"energy": -0.31679,
				"method": "rhf"
			},
			{
				"type": "occ",
				"energy": -0.30968,
				"method": "rhf"
			},
			{
				"type": "occ",
				"energy": -0.25716,
				"method": "rhf"
			},
			{
				"type": "occ",
				"energy": -0.25603,
				"method": "rhf"
			},
			{
				"type": "occ",
				"energy": -0.22551,
				"method": "rhf"
			},
			{
				"type": "unocc",
				"energy": -0.02604,
				"method": "rhf"
			},
			{
				"type": "unocc",
				"energy": -0.02016,
				"method": "rhf"
			},
			{
				"type": "unocc",
				"energy": 0.01283,
				"method": "rhf"
			},
			{
				"type": "unocc",
				"energy": 0.04114,
				"method": "rhf"
			},
			{
				"type": "unocc",
				"energy": 0.06085,
				"method": "rhf"
			}
		],
		"cosmo_sigma_profile": { 
			"-0.025": 0.0,
			"-0.024": 0.0,
			"-0.023": 0.0,
			"-0.022": 0.0,
			"-0.021": 0.0,
			"-0.02": 0.0,
			"-0.019": 0.0,
			"-0.018": 0.0,
			"-0.017": 0.0,
			"-0.016": 0.0,
			"-0.015": 0.0,
			"-0.014": 0.808277034853,
			"-0.013": 2.85995810978,
			"-0.012": 3.36324200033,
			"-0.011": 3.23363853941,
			"-0.01": 2.71451224523,
			"-0.009": 3.41527885909,
			"-0.008": 3.94151476394,
			"-0.007": 5.41837428169,
			"-0.006": 5.81476923984,
			"-0.005": 5.70455014856,
			"-0.004": 4.77450954002,
			"-0.003": 5.25787552431,
			"-0.002": 9.00368002342,
			"-0.001": 14.2474601999,
			"0.0": 16.3082086849,
			"0.001": 25.5234233566,
			"0.002": 45.8921927752,
			"0.003": 31.5896838125,
			"0.004": 16.4754568483,
			"0.005": 6.71351995652,
			"0.006": 3.56521910871,
			"0.007": 2.37204164768,
			"0.008": 0.847753923623,
			"0.009": 0.588478313738,
			"0.01": 0.687448470697,
			"0.011": 0.618053890947,
			"0.012": 0.394211493136,
			"0.013": 0.0,
			"0.014": 0.0,
			"0.015": 0.0,
			"0.016": 0.0,
			"0.017": 0.0,
			"0.018": 0.0,
			"0.019": 0.0,
			"0.02": 0.0,
			"0.021": 0.0,
			"0.022": 0.0,
			"0.023": 0.0,
			"0.024": 0.0,
			"0.025": 0.0
		}
	}
}
