{
	 "smiles": "SC1=C2C=CC=CC2=NC=N1", 
	 "Tm": 567.15, 
	 "num_atms": 17, 
	 "gaussian": { 
		 "optdone": 1, 
		 "sigma_profile": "yes", 
		 "theory": "DFT", 
		 "functional": "B3LYP", 
		 "basiset": "6-31G**", 
		 "properties": { 
			 "R2extent": 2334.6377, 
			 "electric_dipole_moment_norm": 1.94467708631, 
			 "electric_quadrupole_moment_norm": 9.06808419237, 
			 "total_energy": -816.160650405, 
			 "HOMO_LUMO_gap": 0.17141, 
			 "cosmo_polarized_energy": -7.49, 
			 "cosmo_cavitation_energy": 22.71, 
			 "cosmo_dispersion_energy": -17.82, 
			 "cosmo_repulsion_energy": 1.35, 
			 "cosmo_total_nonelectrostatic_energy": 6.24, 
			 "SMD_solvation_energy": 0.64 
		},
		"coords": [
			{
				"x": 2.9882563461,
				"y": -1.7216106213,
				"z": 0.4004812403,
				"element": "S" 
			},
			{
				"x": 1.6636888167,
				"y": -0.5303796247,
				"z": 0.430249795,
				"element": "C" 
			},
			{
				"x": 1.3108932947,
				"y": 0.1679823242,
				"z": -0.7679807078,
				"element": "C" 
			},
			{
				"x": 1.9364814999,
				"y": -0.0009074851,
				"z": -2.0279267753,
				"element": "C" 
			},
			{
				"x": 1.50887313,
				"y": 0.7301293342,
				"z": -3.1147144109,
				"element": "C" 
			},
			{
				"x": 0.4433122104,
				"y": 1.6541171166,
				"z": -2.9823022785,
				"element": "C" 
			},
			{
				"x": -0.1815818562,
				"y": 1.8370699049,
				"z": -1.7688870887,
				"element": "C" 
			},
			{
				"x": 0.2367828068,
				"y": 1.0986801615,
				"z": -0.6322048775,
				"element": "C" 
			},
			{
				"x": -0.3991021205,
				"y": 1.2979385929,
				"z": 0.5614175559,
				"element": "N" 
			},
			{
				"x": 0.0357866817,
				"y": 0.5841076403,
				"z": 1.5732658126,
				"element": "C" 
			},
			{
				"x": 1.0434816756,
				"y": -0.329687428,
				"z": 1.5745038427,
				"element": "N" 
			},
			{
				"x": 2.8621760561,
				"y": -2.0193957854,
				"z": 1.707247849,
				"element": "H" 
			},
			{
				"x": 2.7537275129,
				"y": -0.7080899445,
				"z": -2.1340770988,
				"element": "H" 
			},
			{
				"x": 1.9889423044,
				"y": 0.5999340891,
				"z": -4.0796627677,
				"element": "H" 
			},
			{
				"x": 0.1199400715,
				"y": 2.2214911272,
				"z": -3.8502318841,
				"element": "H" 
			},
			{
				"x": -0.9996056296,
				"y": 2.5379278255,
				"z": -1.6404400103,
				"element": "H" 
			},
			{
				"x": -0.4572528006,
				"y": 0.7277927727,
				"z": 2.5328618041,
				"element": "H" 
			}
		],
		 "valence_orbital": [ 
			{
				"type": "occ",
				"energy": -0.30343,
				"method": "rhf"
			},
			{
				"type": "occ",
				"energy": -0.28,
				"method": "rhf"
			},
			{
				"type": "occ",
				"energy": -0.26816,
				"method": "rhf"
			},
			{
				"type": "occ",
				"energy": -0.25459,
				"method": "rhf"
			},
			{
				"type": "occ",
				"energy": -0.23912,
				"method": "rhf"
			},
			{
				"type": "unocc",
				"energy": -0.06771,
				"method": "rhf"
			},
			{
				"type": "unocc",
				"energy": -0.03381,
				"method": "rhf"
			},
			{
				"type": "unocc",
				"energy": 0.0105,
				"method": "rhf"
			},
			{
				"type": "unocc",
				"energy": 0.01068,
				"method": "rhf"
			},
			{
				"type": "unocc",
				"energy": 0.06397,
				"method": "rhf"
			}
		],
		"cosmo_sigma_profile": { 
			"-0.025": 0.0,
			"-0.024": 0.0,
			"-0.023": 0.0,
			"-0.022": 0.0,
			"-0.021": 0.0,
			"-0.02": 0.0,
			"-0.019": 0.0,
			"-0.018": 0.0,
			"-0.017": 0.0,
			"-0.016": 0.0,
			"-0.015": 0.0,
			"-0.014": 0.0,
			"-0.013": 0.0,
			"-0.012": 0.12485486514,
			"-0.011": 1.46397359456,
			"-0.01": 1.29319598271,
			"-0.009": 1.2820274124,
			"-0.008": 1.21852151836,
			"-0.007": 8.77400291448,
			"-0.006": 11.0660251542,
			"-0.005": 11.8891742446,
			"-0.004": 9.35378472616,
			"-0.003": 10.5755130889,
			"-0.002": 10.8607260437,
			"-0.001": 15.3721087819,
			"0.0": 16.6430620542,
			"0.001": 18.0720578843,
			"0.002": 19.71487845,
			"0.003": 16.3496181225,
			"0.004": 6.8155933182,
			"0.005": 4.50275320485,
			"0.006": 5.06122416575,
			"0.007": 3.26401292718,
			"0.008": 1.84326484429,
			"0.009": 2.57224647393,
			"0.01": 1.33330971132,
			"0.011": 2.01897073231,
			"0.012": 1.5706018235,
			"0.013": 1.60349368359,
			"0.014": 0.48032220113,
			"0.015": 0.69999299335,
			"0.016": 0.16843943865,
			"0.017": 0.0,
			"0.018": 0.0,
			"0.019": 0.0,
			"0.02": 0.0,
			"0.021": 0.0,
			"0.022": 0.0,
			"0.023": 0.0,
			"0.024": 0.0,
			"0.025": 0.0
		}
	}
}
