{
	 "smiles": "CC(=O)NC1=CC=C(N)C=C1", 
	 "Tm": 438.15, 
	 "num_atms": 21, 
	 "gaussian": { 
		 "optdone": 1, 
		 "sigma_profile": "yes", 
		 "theory": "DFT", 
		 "functional": "B3LYP", 
		 "basiset": "6-31G**", 
		 "properties": { 
			 "R2extent": 2501.3061, 
			 "electric_dipole_moment_norm": 5.38637608137, 
			 "electric_quadrupole_moment_norm": 14.3594036217, 
			 "total_energy": -495.6235235, 
			 "HOMO_LUMO_gap": 0.19202, 
			 "cosmo_polarized_energy": -15.39, 
			 "cosmo_cavitation_energy": 25.01, 
			 "cosmo_dispersion_energy": -18.19, 
			 "cosmo_repulsion_energy": 1.48, 
			 "cosmo_total_nonelectrostatic_energy": 8.3, 
			 "SMD_solvation_energy": 5.2 
		},
		"coords": [
			{
				"x": 0.2097219185,
				"y": 0.5240624511,
				"z": 3.7777373894,
				"element": "C" 
			},
			{
				"x": 0.3365166961,
				"y": 1.8700249492,
				"z": 3.0849789879,
				"element": "C" 
			},
			{
				"x": 0.6273969956,
				"y": 2.8899530137,
				"z": 3.6956660204,
				"element": "O" 
			},
			{
				"x": 0.113422074,
				"y": 1.9176017108,
				"z": 1.7231908829,
				"element": "N" 
			},
			{
				"x": -0.2233607837,
				"y": 0.8762974749,
				"z": 0.815594834,
				"element": "C" 
			},
			{
				"x": 0.5648863774,
				"y": 0.6642461937,
				"z": -0.3234879873,
				"element": "C" 
			},
			{
				"x": 0.2350798867,
				"y": -0.3191042325,
				"z": -1.249921993,
				"element": "C" 
			},
			{
				"x": -0.8879648847,
				"y": -1.1423532511,
				"z": -1.0549112421,
				"element": "C" 
			},
			{
				"x": -1.246426062,
				"y": -2.1006155534,
				"z": -2.003922099,
				"element": "N" 
			},
			{
				"x": -1.6759936866,
				"y": -0.929192071,
				"z": 0.089052144,
				"element": "C" 
			},
			{
				"x": -1.3582210852,
				"y": 0.0759494311,
				"z": 0.9976183831,
				"element": "C" 
			},
			{
				"x": -0.8271754555,
				"y": 0.3546864147,
				"z": 4.0869188823,
				"element": "H" 
			},
			{
				"x": 0.8257463398,
				"y": 0.5602152047,
				"z": 4.6769792294,
				"element": "H" 
			},
			{
				"x": 0.5125929458,
				"y": -0.3121132497,
				"z": 3.1437563993,
				"element": "H" 
			},
			{
				"x": 0.2962323582,
				"y": 2.8368525745,
				"z": 1.3391280697,
				"element": "H" 
			},
			{
				"x": 1.4498579736,
				"y": 1.275423173,
				"z": -0.4781045006,
				"element": "H" 
			},
			{
				"x": 0.8563518846,
				"y": -0.4592890841,
				"z": -2.1309984392,
				"element": "H" 
			},
			{
				"x": -0.4916100624,
				"y": -2.4337750589,
				"z": -2.5875005611,
				"element": "H" 
			},
			{
				"x": -1.818030182,
				"y": -2.8586033698,
				"z": -1.6576407127,
				"element": "H" 
			},
			{
				"x": -2.5602413447,
				"y": -1.5403042589,
				"z": 0.2519899222,
				"element": "H" 
			},
			{
				"x": -2.0030819036,
				"y": 0.248637538,
				"z": 1.8531763902,
				"element": "H" 
			}
		],
		 "valence_orbital": [ 
			{
				"type": "occ",
				"energy": -0.32072,
				"method": "rhf"
			},
			{
				"type": "occ",
				"energy": -0.25847,
				"method": "rhf"
			},
			{
				"type": "occ",
				"energy": -0.25719,
				"method": "rhf"
			},
			{
				"type": "occ",
				"energy": -0.24013,
				"method": "rhf"
			},
			{
				"type": "occ",
				"energy": -0.20074,
				"method": "rhf"
			},
			{
				"type": "unocc",
				"energy": -0.00872,
				"method": "rhf"
			},
			{
				"type": "unocc",
				"energy": 0.00194,
				"method": "rhf"
			},
			{
				"type": "unocc",
				"energy": 0.0427,
				"method": "rhf"
			},
			{
				"type": "unocc",
				"energy": 0.07369,
				"method": "rhf"
			},
			{
				"type": "unocc",
				"energy": 0.09191,
				"method": "rhf"
			}
		],
		"cosmo_sigma_profile": { 
			"-0.025": 0.0,
			"-0.024": 0.0,
			"-0.023": 0.0,
			"-0.022": 0.0,
			"-0.021": 0.0,
			"-0.02": 0.0,
			"-0.019": 0.0,
			"-0.018": 0.0,
			"-0.017": 0.0,
			"-0.016": 0.0,
			"-0.015": 0.0,
			"-0.014": 0.179533082788,
			"-0.013": 1.25105567507,
			"-0.012": 3.5426296167,
			"-0.011": 3.69418228561,
			"-0.01": 3.57342672567,
			"-0.009": 4.60290209044,
			"-0.008": 3.894915063,
			"-0.007": 4.49528327398,
			"-0.006": 12.213960061,
			"-0.005": 12.1505023927,
			"-0.004": 13.2471539825,
			"-0.003": 13.3334884975,
			"-0.002": 12.005833709,
			"-0.001": 15.6550968219,
			"0.0": 11.1847647335,
			"0.001": 8.74652974806,
			"0.002": 9.79637340301,
			"0.003": 9.05875177561,
			"0.004": 8.88868130732,
			"0.005": 9.8205201743,
			"0.006": 10.7213240068,
			"0.007": 1.77333424122,
			"0.008": 2.07042840626,
			"0.009": 2.29861179976,
			"0.01": 2.14177528642,
			"0.011": 2.37748356349,
			"0.012": 1.98941541785,
			"0.013": 3.69409260578,
			"0.014": 6.90282940238,
			"0.015": 2.19536846017,
			"0.016": 0.112710013116,
			"0.017": 0.0,
			"0.018": 0.0,
			"0.019": 0.0,
			"0.02": 0.0,
			"0.021": 0.0,
			"0.022": 0.0,
			"0.023": 0.0,
			"0.024": 0.0,
			"0.025": 0.0
		}
	}
}
