{
	 "smiles": "CC1=C(N=C=S)C(=NO1)C1=CC=CC=C1", 
	 "Tm": 348.15, 
	 "num_atms": 23, 
	 "gaussian": { 
		 "optdone": 1, 
		 "sigma_profile": "yes", 
		 "theory": "DFT", 
		 "functional": "B3LYP", 
		 "basiset": "6-31G**", 
		 "properties": { 
			 "R2extent": 4513.6932, 
			 "electric_dipole_moment_norm": 0.763084045175, 
			 "electric_quadrupole_moment_norm": 20.3640275093, 
			 "total_energy": -1006.85503659, 
			 "HOMO_LUMO_gap": 0.18891, 
			 "cosmo_polarized_energy": -8.56, 
			 "cosmo_cavitation_energy": 30.92, 
			 "cosmo_dispersion_energy": -22.28, 
			 "cosmo_repulsion_energy": 1.72, 
			 "cosmo_total_nonelectrostatic_energy": 10.36, 
			 "SMD_solvation_energy": 5.58 
		},
		"coords": [
			{
				"x": -4.5580241659,
				"y": -0.5572552785,
				"z": 1.3376487296,
				"element": "C" 
			},
			{
				"x": -3.4122643472,
				"y": 0.3764610452,
				"z": 1.1902157672,
				"element": "C" 
			},
			{
				"x": -2.0792421699,
				"y": 0.1820301359,
				"z": 0.9274658289,
				"element": "C" 
			},
			{
				"x": -1.4712393256,
				"y": -1.0251904456,
				"z": 0.7563296762,
				"element": "N" 
			},
			{
				"x": -0.6189408003,
				"y": -1.8481420502,
				"z": 0.6169591584,
				"element": "C" 
			},
			{
				"x": 0.4496072662,
				"y": -3.0079734119,
				"z": 0.4158479155,
				"element": "S" 
			},
			{
				"x": -1.50503652,
				"y": 1.5070350322,
				"z": 0.9259517207,
				"element": "C" 
			},
			{
				"x": -2.4390874984,
				"y": 2.4029501635,
				"z": 1.1682566206,
				"element": "N" 
			},
			{
				"x": -3.6345549025,
				"y": 1.6930357337,
				"z": 1.3365643185,
				"element": "O" 
			},
			{
				"x": -0.1063539936,
				"y": 1.9248590122,
				"z": 0.7279001766,
				"element": "C" 
			},
			{
				"x": 0.7537003967,
				"y": 1.2133250527,
				"z": -0.1226485011,
				"element": "C" 
			},
			{
				"x": 2.0708154945,
				"y": 1.6349674175,
				"z": -0.3026268675,
				"element": "C" 
			},
			{
				"x": 2.5416168295,
				"y": 2.769996144,
				"z": 0.3587103059,
				"element": "C" 
			},
			{
				"x": 1.6877768444,
				"y": 3.4877743636,
				"z": 1.2004352352,
				"element": "C" 
			},
			{
				"x": 0.3729709876,
				"y": 3.0695808198,
				"z": 1.3869074946,
				"element": "C" 
			},
			{
				"x": -5.0106303489,
				"y": -0.4654370666,
				"z": 2.3304370337,
				"element": "H" 
			},
			{
				"x": -5.334397531,
				"y": -0.3413279419,
				"z": 0.5962030372,
				"element": "H" 
			},
			{
				"x": -4.2169318012,
				"y": -1.5851577477,
				"z": 1.200163097,
				"element": "H" 
			},
			{
				"x": 0.393372251,
				"y": 0.3447577113,
				"z": -0.6626973123,
				"element": "H" 
			},
			{
				"x": 2.7263796495,
				"y": 1.0763678782,
				"z": -0.9637737948,
				"element": "H" 
			},
			{
				"x": 3.5686665672,
				"y": 3.0945016781,
				"z": 0.21930176,
				"element": "H" 
			},
			{
				"x": 2.0489247146,
				"y": 4.3721391846,
				"z": 1.717087536,
				"element": "H" 
			},
			{
				"x": -0.2941275964,
				"y": 3.61780257,
				"z": 2.0434610639,
				"element": "H" 
			}
		],
		 "valence_orbital": [ 
			{
				"type": "occ",
				"energy": -0.29847,
				"method": "rhf"
			},
			{
				"type": "occ",
				"energy": -0.26292,
				"method": "rhf"
			},
			{
				"type": "occ",
				"energy": -0.26031,
				"method": "rhf"
			},
			{
				"type": "occ",
				"energy": -0.25024,
				"method": "rhf"
			},
			{
				"type": "occ",
				"energy": -0.23373,
				"method": "rhf"
			},
			{
				"type": "unocc",
				"energy": -0.04482,
				"method": "rhf"
			},
			{
				"type": "unocc",
				"energy": -0.03567,
				"method": "rhf"
			},
			{
				"type": "unocc",
				"energy": -0.01946,
				"method": "rhf"
			},
			{
				"type": "unocc",
				"energy": -0.01074,
				"method": "rhf"
			},
			{
				"type": "unocc",
				"energy": 0.01824,
				"method": "rhf"
			}
		],
		"cosmo_sigma_profile": { 
			"-0.025": 0.0,
			"-0.024": 0.0,
			"-0.023": 0.0,
			"-0.022": 0.0,
			"-0.021": 0.0,
			"-0.02": 0.0,
			"-0.019": 0.0,
			"-0.018": 0.0,
			"-0.017": 0.0,
			"-0.016": 0.0,
			"-0.015": 0.0,
			"-0.014": 0.0,
			"-0.013": 0.0,
			"-0.012": 0.0,
			"-0.011": 0.0,
			"-0.01": 0.0,
			"-0.009": 0.0,
			"-0.008": 0.0562296379844,
			"-0.007": 5.75845268893,
			"-0.006": 14.6364963114,
			"-0.005": 18.9601345164,
			"-0.004": 20.3369498461,
			"-0.003": 21.856614328,
			"-0.002": 22.8250990955,
			"-0.001": 22.41374,
			"0.0": 17.3883504682,
			"0.001": 15.5347325087,
			"0.002": 15.7415366714,
			"0.003": 17.2944054995,
			"0.004": 21.5629134921,
			"0.005": 17.8153834954,
			"0.006": 8.07358101915,
			"0.007": 4.97620996228,
			"0.008": 1.95456396187,
			"0.009": 1.68227178058,
			"0.01": 1.20045608248,
			"0.011": 1.18849192179,
			"0.012": 1.08329566207,
			"0.013": 0.753031600994,
			"0.014": 0.014038996108,
			"0.015": 0.0,
			"0.016": 0.0,
			"0.017": 0.0,
			"0.018": 0.0,
			"0.019": 0.0,
			"0.02": 0.0,
			"0.021": 0.0,
			"0.022": 0.0,
			"0.023": 0.0,
			"0.024": 0.0,
			"0.025": 0.0
		}
	}
}
