{
	 "smiles": "NC(=O)CC1=CN=CC=C1", 
	 "Tm": 396.15, 
	 "num_atms": 18, 
	 "gaussian": { 
		 "optdone": 1, 
		 "sigma_profile": "yes", 
		 "theory": "DFT", 
		 "functional": "B3LYP", 
		 "basiset": "6-31G**", 
		 "properties": { 
			 "R2extent": 1962.9333, 
			 "electric_dipole_moment_norm": 2.56748832519, 
			 "electric_quadrupole_moment_norm": 20.322035417, 
			 "total_energy": -456.305163314, 
			 "HOMO_LUMO_gap": 0.20614, 
			 "cosmo_polarized_energy": -14.89, 
			 "cosmo_cavitation_energy": 22.34, 
			 "cosmo_dispersion_energy": -16.2, 
			 "cosmo_repulsion_energy": 1.34, 
			 "cosmo_total_nonelectrostatic_energy": 7.48, 
			 "SMD_solvation_energy": 3.18 
		},
		"coords": [
			{
				"x": -2.0737386471,
				"y": -0.7702158111,
				"z": 2.3709718671,
				"element": "N" 
			},
			{
				"x": -1.7714397395,
				"y": 0.4636333488,
				"z": 2.8667146915,
				"element": "C" 
			},
			{
				"x": -2.1390616071,
				"y": 0.8469243569,
				"z": 3.9661405779,
				"element": "O" 
			},
			{
				"x": -0.9811125418,
				"y": 1.3926367463,
				"z": 1.923818423,
				"element": "C" 
			},
			{
				"x": -0.1017180821,
				"y": 0.7279572892,
				"z": 0.8928366318,
				"element": "C" 
			},
			{
				"x": -0.5216320692,
				"y": 0.5753710267,
				"z": -0.4365001177,
				"element": "C" 
			},
			{
				"x": 0.1955515448,
				"y": -0.0206743175,
				"z": -1.396681169,
				"element": "N" 
			},
			{
				"x": 1.3989168982,
				"y": -0.4963914587,
				"z": -1.057229825,
				"element": "C" 
			},
			{
				"x": 1.9267535115,
				"y": -0.3983714603,
				"z": 0.2324952401,
				"element": "C" 
			},
			{
				"x": 1.1635959846,
				"y": 0.2202627787,
				"z": 1.2187639649,
				"element": "C" 
			},
			{
				"x": -2.5915280475,
				"y": -1.4020061774,
				"z": 2.9623118476,
				"element": "H" 
			},
			{
				"x": -1.7013128929,
				"y": -1.1037148195,
				"z": 1.4967501361,
				"element": "H" 
			},
			{
				"x": -1.7239950268,
				"y": 2.0300748529,
				"z": 1.4289584533,
				"element": "H" 
			},
			{
				"x": -0.398873676,
				"y": 2.0462054823,
				"z": 2.5786402871,
				"element": "H" 
			},
			{
				"x": -1.4931790479,
				"y": 0.9659481735,
				"z": -0.74084747,
				"element": "H" 
			},
			{
				"x": 1.9687308428,
				"y": -0.9751888967,
				"z": -1.8515904976,
				"element": "H" 
			},
			{
				"x": 2.9122605542,
				"y": -0.7963411215,
				"z": 0.4537706466,
				"element": "H" 
			},
			{
				"x": 1.5428820415,
				"y": 0.3151900075,
				"z": 2.2333763122,
				"element": "H" 
			}
		],
		 "valence_orbital": [ 
			{
				"type": "occ",
				"energy": -0.29621,
				"method": "rhf"
			},
			{
				"type": "occ",
				"energy": -0.27688,
				"method": "rhf"
			},
			{
				"type": "occ",
				"energy": -0.26879,
				"method": "rhf"
			},
			{
				"type": "occ",
				"energy": -0.26239,
				"method": "rhf"
			},
			{
				"type": "occ",
				"energy": -0.24251,
				"method": "rhf"
			},
			{
				"type": "unocc",
				"energy": -0.03637,
				"method": "rhf"
			},
			{
				"type": "unocc",
				"energy": -0.02275,
				"method": "rhf"
			},
			{
				"type": "unocc",
				"energy": 0.02869,
				"method": "rhf"
			},
			{
				"type": "unocc",
				"energy": 0.08191,
				"method": "rhf"
			},
			{
				"type": "unocc",
				"energy": 0.09334,
				"method": "rhf"
			}
		],
		"cosmo_sigma_profile": { 
			"-0.025": 0.0,
			"-0.024": 0.0,
			"-0.023": 0.0,
			"-0.022": 0.0,
			"-0.021": 0.0,
			"-0.02": 0.0,
			"-0.019": 0.0,
			"-0.018": 0.0,
			"-0.017": 0.0,
			"-0.016": 0.0,
			"-0.015": 0.0,
			"-0.014": 0.696768621921,
			"-0.013": 1.67401496463,
			"-0.012": 1.60492348988,
			"-0.011": 2.36008051395,
			"-0.01": 2.45167875797,
			"-0.009": 1.53404794389,
			"-0.008": 2.14039652402,
			"-0.007": 9.55941755087,
			"-0.006": 16.4873534168,
			"-0.005": 14.5624688965,
			"-0.004": 11.5196046797,
			"-0.003": 11.5614481468,
			"-0.002": 8.71493924751,
			"-0.001": 9.31273293337,
			"0.0": 9.31293803789,
			"0.001": 9.83302721438,
			"0.002": 13.9520884948,
			"0.003": 9.03685013029,
			"0.004": 5.10431758841,
			"0.005": 3.47016444013,
			"0.006": 2.49960752379,
			"0.007": 2.2302338847,
			"0.008": 3.92858736168,
			"0.009": 1.81042974673,
			"0.01": 1.26090146327,
			"0.011": 2.492644147,
			"0.012": 3.0326255691,
			"0.013": 4.4820506895,
			"0.014": 7.05239494535,
			"0.015": 2.56978783263,
			"0.016": 1.13009967725,
			"0.017": 0.229096065342,
			"0.018": 0.0,
			"0.019": 0.0,
			"0.02": 0.0,
			"0.021": 0.0,
			"0.022": 0.0,
			"0.023": 0.0,
			"0.024": 0.0,
			"0.025": 0.0
		}
	}
}
