{
	 "smiles": "OCC(CO)(CO)NCC(O)CS(O)(=O)=O", 
	 "Tm": 493.15, 
	 "num_atms": 33, 
	 "gaussian": { 
		 "optdone": 1, 
		 "sigma_profile": "yes", 
		 "theory": "DFT", 
		 "functional": "B3LYP", 
		 "basiset": "6-31G**", 
		 "properties": { 
			 "R2extent": 5089.3307, 
			 "electric_dipole_moment_norm": 3.63506518373, 
			 "electric_quadrupole_moment_norm": 24.2045963408, 
			 "total_energy": -1256.38092557, 
			 "HOMO_LUMO_gap": 0.25874, 
			 "cosmo_polarized_energy": -29.8, 
			 "cosmo_cavitation_energy": 35.22, 
			 "cosmo_dispersion_energy": -25.16, 
			 "cosmo_repulsion_energy": 1.92, 
			 "cosmo_total_nonelectrostatic_energy": 11.98, 
			 "SMD_solvation_energy": 4.28 
		},
		"coords": [
			{
				"x": 4.3553233027,
				"y": -0.3267994042,
				"z": -0.4199599186,
				"element": "O" 
			},
			{
				"x": 3.3624513698,
				"y": 0.3019070459,
				"z": 0.3800570053,
				"element": "C" 
			},
			{
				"x": 2.0202577023,
				"y": 0.299022683,
				"z": -0.3816051688,
				"element": "C" 
			},
			{
				"x": 1.7010387519,
				"y": -1.158071929,
				"z": -0.7921686022,
				"element": "C" 
			},
			{
				"x": 0.4406037444,
				"y": -1.3426923121,
				"z": -1.4273197006,
				"element": "O" 
			},
			{
				"x": 2.1570333271,
				"y": 1.2151948935,
				"z": -1.6199151063,
				"element": "C" 
			},
			{
				"x": 2.3681724892,
				"y": 2.561197979,
				"z": -1.241556127,
				"element": "O" 
			},
			{
				"x": 1.0578443396,
				"y": 0.9418604788,
				"z": 0.5377062657,
				"element": "N" 
			},
			{
				"x": -0.3643095809,
				"y": 1.0073714073,
				"z": 0.2002232348,
				"element": "C" 
			},
			{
				"x": -1.2110625659,
				"y": -0.1192240428,
				"z": 0.8079144651,
				"element": "C" 
			},
			{
				"x": -1.1025883278,
				"y": -0.1145592789,
				"z": 2.232651317,
				"element": "O" 
			},
			{
				"x": -2.6998164053,
				"y": -0.0218703358,
				"z": 0.4181558917,
				"element": "C" 
			},
			{
				"x": -3.0606074227,
				"y": -0.5866167089,
				"z": -1.2639713403,
				"element": "S" 
			},
			{
				"x": -4.6557351448,
				"y": -0.1670326676,
				"z": -1.3135025032,
				"element": "O" 
			},
			{
				"x": -2.3529551826,
				"y": 0.2441132635,
				"z": -2.2326545269,
				"element": "O" 
			},
			{
				"x": -3.0082193134,
				"y": -2.0457876327,
				"z": -1.3378142865,
				"element": "O" 
			},
			{
				"x": 5.2198357533,
				"y": -0.0118138538,
				"z": -0.1332690928,
				"element": "H" 
			},
			{
				"x": 3.2359797338,
				"y": -0.2355302927,
				"z": 1.3360348135,
				"element": "H" 
			},
			{
				"x": 3.6197209448,
				"y": 1.3437737973,
				"z": 0.6024412896,
				"element": "H" 
			},
			{
				"x": 1.666719693,
				"y": -1.775773946,
				"z": 0.1128957919,
				"element": "H" 
			},
			{
				"x": 2.5211088239,
				"y": -1.539423529,
				"z": -1.4130961198,
				"element": "H" 
			},
			{
				"x": 0.4739485272,
				"y": -1.0018766417,
				"z": -2.3292230072,
				"element": "H" 
			},
			{
				"x": 3.0198417225,
				"y": 0.8865135658,
				"z": -2.2068536191,
				"element": "H" 
			},
			{
				"x": 1.2613340591,
				"y": 1.1222946523,
				"z": -2.2572056305,
				"element": "H" 
			},
			{
				"x": 1.845786386,
				"y": 2.6624943205,
				"z": -0.4263383138,
				"element": "H" 
			},
			{
				"x": 1.1573343892,
				"y": 0.5846062366,
				"z": 1.4846849397,
				"element": "H" 
			},
			{
				"x": -0.7717983059,
				"y": 1.9594828306,
				"z": 0.5848527852,
				"element": "H" 
			},
			{
				"x": -0.4987030293,
				"y": 1.0270696218,
				"z": -0.8804195374,
				"element": "H" 
			},
			{
				"x": -0.8248380792,
				"y": -1.0880296104,
				"z": 0.489365504,
				"element": "H" 
			},
			{
				"x": -1.3707278053,
				"y": 0.7604644466,
				"z": 2.549837334,
				"element": "H" 
			},
			{
				"x": -3.2945064226,
				"y": -0.6612150657,
				"z": 1.073946223,
				"element": "H" 
			},
			{
				"x": -3.0758294147,
				"y": 1.0052060797,
				"z": 0.4768435301,
				"element": "H" 
			},
			{
				"x": -5.1381380595,
				"y": -0.972856051,
				"z": -1.5652377895,
				"element": "H" 
			}
		],
		 "valence_orbital": [ 
			{
				"type": "occ",
				"energy": -0.29703,
				"method": "rhf"
			},
			{
				"type": "occ",
				"energy": -0.28328,
				"method": "rhf"
			},
			{
				"type": "occ",
				"energy": -0.27233,
				"method": "rhf"
			},
			{
				"type": "occ",
				"energy": -0.25434,
				"method": "rhf"
			},
			{
				"type": "occ",
				"energy": -0.22957,
				"method": "rhf"
			},
			{
				"type": "unocc",
				"energy": 0.02917,
				"method": "rhf"
			},
			{
				"type": "unocc",
				"energy": 0.04223,
				"method": "rhf"
			},
			{
				"type": "unocc",
				"energy": 0.05966,
				"method": "rhf"
			},
			{
				"type": "unocc",
				"energy": 0.06511,
				"method": "rhf"
			},
			{
				"type": "unocc",
				"energy": 0.07164,
				"method": "rhf"
			}
		],
		"cosmo_sigma_profile": { 
			"-0.025": 0.0,
			"-0.024": 0.0,
			"-0.023": 0.0,
			"-0.022": 0.0,
			"-0.021": 0.0,
			"-0.02": 0.163708469265,
			"-0.019": 0.951869009813,
			"-0.018": 1.21847158897,
			"-0.017": 0.545776996694,
			"-0.016": 2.62196549617,
			"-0.015": 3.20133509183,
			"-0.014": 3.3882040922,
			"-0.013": 4.54881621365,
			"-0.012": 4.36539458564,
			"-0.011": 3.15789539689,
			"-0.01": 3.38691902248,
			"-0.009": 5.40426450442,
			"-0.008": 10.5303666453,
			"-0.007": 10.0441632335,
			"-0.006": 10.4876311979,
			"-0.005": 10.447935051,
			"-0.004": 15.30728442,
			"-0.003": 19.6430328369,
			"-0.002": 16.7721540579,
			"-0.001": 13.4813985924,
			"0.0": 12.5385296977,
			"0.001": 9.44360409052,
			"0.002": 8.27490053974,
			"0.003": 9.14263833025,
			"0.004": 8.71241201815,
			"0.005": 8.38054281117,
			"0.006": 8.00990923315,
			"0.007": 10.0908338077,
			"0.008": 9.4382999752,
			"0.009": 12.1435612875,
			"0.01": 13.2826420933,
			"0.011": 8.98019630967,
			"0.012": 5.09601597919,
			"0.013": 4.30038742415,
			"0.014": 2.6534096352,
			"0.015": 2.0523626734,
			"0.016": 0.0641297721319,
			"0.017": 0.0,
			"0.018": 0.0,
			"0.019": 0.0,
			"0.02": 0.0,
			"0.021": 0.0,
			"0.022": 0.0,
			"0.023": 0.0,
			"0.024": 0.0,
			"0.025": 0.0
		}
	}
}
