{
	 "smiles": "CC(Cl)C(=O)NC1=C(C=C(Cl)C=C1)C(F)(F)F", 
	 "Tm": 381.15, 
	 "num_atms": 25, 
	 "gaussian": { 
		 "optdone": 1, 
		 "sigma_profile": "yes", 
		 "theory": "DFT", 
		 "functional": "B3LYP", 
		 "basiset": "6-31G**", 
		 "properties": { 
			 "R2extent": 5929.5812, 
			 "electric_dipole_moment_norm": 2.63206331801, 
			 "electric_quadrupole_moment_norm": 7.920469779, 
			 "total_energy": -1735.79007984, 
			 "HOMO_LUMO_gap": 0.20567, 
			 "cosmo_polarized_energy": -11.84, 
			 "cosmo_cavitation_energy": 33.86, 
			 "cosmo_dispersion_energy": -23.69, 
			 "cosmo_repulsion_energy": 1.8, 
			 "cosmo_total_nonelectrostatic_energy": 11.97, 
			 "SMD_solvation_energy": 6.64 
		},
		"coords": [
			{
				"x": -0.1225308451,
				"y": -3.4222208904,
				"z": 3.0703314118,
				"element": "C" 
			},
			{
				"x": 0.6683177012,
				"y": -2.1636936999,
				"z": 3.4189114079,
				"element": "C" 
			},
			{
				"x": -0.239511719,
				"y": -1.175880222,
				"z": 4.6768779524,
				"element": "Cl" 
			},
			{
				"x": 1.0169005387,
				"y": -1.380187192,
				"z": 2.1450435553,
				"element": "C" 
			},
			{
				"x": 1.8559119491,
				"y": -1.8505712548,
				"z": 1.3957671688,
				"element": "O" 
			},
			{
				"x": 0.3148776501,
				"y": -0.2323209413,
				"z": 1.8978544079,
				"element": "N" 
			},
			{
				"x": 0.5057074559,
				"y": 0.586975453,
				"z": 0.7549147341,
				"element": "C" 
			},
			{
				"x": 0.2954641163,
				"y": 0.144049585,
				"z": -0.5652210997,
				"element": "C" 
			},
			{
				"x": 0.5071653392,
				"y": 1.0290302638,
				"z": -1.6283766651,
				"element": "C" 
			},
			{
				"x": 0.8908767923,
				"y": 2.3435239266,
				"z": -1.38706104,
				"element": "C" 
			},
			{
				"x": 1.1391549365,
				"y": 3.4326190138,
				"z": -2.7375352175,
				"element": "Cl" 
			},
			{
				"x": 1.0671850776,
				"y": 2.8054238122,
				"z": -0.0842284693,
				"element": "C" 
			},
			{
				"x": 0.8796569133,
				"y": 1.9196066375,
				"z": 0.9708607618,
				"element": "C" 
			},
			{
				"x": -0.1646520417,
				"y": -1.2504895543,
				"z": -0.9456412593,
				"element": "C" 
			},
			{
				"x": -0.9600873992,
				"y": -1.1927894902,
				"z": -2.0428594248,
				"element": "F" 
			},
			{
				"x": -0.8892262961,
				"y": -1.8516607502,
				"z": 0.0217300066,
				"element": "F" 
			},
			{
				"x": 0.8616230098,
				"y": -2.0589023939,
				"z": -1.256636273,
				"element": "F" 
			},
			{
				"x": -1.0808721061,
				"y": -3.1661855121,
				"z": 2.6119598044,
				"element": "H" 
			},
			{
				"x": 0.4624564471,
				"y": -4.0061794457,
				"z": 2.3544925198,
				"element": "H" 
			},
			{
				"x": -0.3023442882,
				"y": -4.0236415349,
				"z": 3.9637817028,
				"element": "H" 
			},
			{
				"x": 1.6145544593,
				"y": -2.4185686068,
				"z": 3.8967328736,
				"element": "H" 
			},
			{
				"x": -0.2458944818,
				"y": 0.138642107,
				"z": 2.6538466477,
				"element": "H" 
			},
			{
				"x": 0.3431877923,
				"y": 0.6929579865,
				"z": -2.6445100923,
				"element": "H" 
			},
			{
				"x": 1.3585689936,
				"y": 3.8332356099,
				"z": 0.0998786076,
				"element": "H" 
			},
			{
				"x": 1.0399100049,
				"y": 2.2555270933,
				"z": 1.9907859784,
				"element": "H" 
			}
		],
		 "valence_orbital": [ 
			{
				"type": "occ",
				"energy": -0.3164,
				"method": "rhf"
			},
			{
				"type": "occ",
				"energy": -0.29662,
				"method": "rhf"
			},
			{
				"type": "occ",
				"energy": -0.28796,
				"method": "rhf"
			},
			{
				"type": "occ",
				"energy": -0.26933,
				"method": "rhf"
			},
			{
				"type": "occ",
				"energy": -0.25309,
				"method": "rhf"
			},
			{
				"type": "unocc",
				"energy": -0.04742,
				"method": "rhf"
			},
			{
				"type": "unocc",
				"energy": -0.03953,
				"method": "rhf"
			},
			{
				"type": "unocc",
				"energy": -0.00117,
				"method": "rhf"
			},
			{
				"type": "unocc",
				"energy": 0.01592,
				"method": "rhf"
			},
			{
				"type": "unocc",
				"energy": 0.01721,
				"method": "rhf"
			}
		],
		"cosmo_sigma_profile": { 
			"-0.025": 0.0,
			"-0.024": 0.0,
			"-0.023": 0.0,
			"-0.022": 0.0,
			"-0.021": 0.0,
			"-0.02": 0.0,
			"-0.019": 0.0,
			"-0.018": 0.0,
			"-0.017": 0.0,
			"-0.016": 0.0,
			"-0.015": 0.0,
			"-0.014": 0.216316380377,
			"-0.013": 0.86870728726,
			"-0.012": 1.28605370572,
			"-0.011": 0.787149012405,
			"-0.01": 0.890336088299,
			"-0.009": 3.18118516549,
			"-0.008": 8.32448872438,
			"-0.007": 8.49278997635,
			"-0.006": 8.17065334865,
			"-0.005": 12.4392216919,
			"-0.004": 15.7720699603,
			"-0.003": 14.9669136488,
			"-0.002": 19.2361686853,
			"-0.001": 21.6344562467,
			"0.0": 25.1523059285,
			"0.001": 28.7243938199,
			"0.002": 28.5738809264,
			"0.003": 28.7237000789,
			"0.004": 17.0840874431,
			"0.005": 9.85715385499,
			"0.006": 4.60473556088,
			"0.007": 2.20947421429,
			"0.008": 2.3162567328,
			"0.009": 1.89905031665,
			"0.01": 1.34080136114,
			"0.011": 2.8951194198,
			"0.012": 3.82725710864,
			"0.013": 1.44070381021,
			"0.014": 0.0161691178718,
			"0.015": 0.0,
			"0.016": 0.0,
			"0.017": 0.0,
			"0.018": 0.0,
			"0.019": 0.0,
			"0.02": 0.0,
			"0.021": 0.0,
			"0.022": 0.0,
			"0.023": 0.0,
			"0.024": 0.0,
			"0.025": 0.0
		}
	}
}
