{
	 "smiles": "ClC1=NC(Cl)=C(Cl)C(Cl)=C1Cl", 
	 "Tm": 398.15, 
	 "num_atms": 11, 
	 "gaussian": { 
		 "optdone": 1, 
		 "sigma_profile": "yes", 
		 "theory": "DFT", 
		 "functional": "B3LYP", 
		 "basiset": "6-31G**", 
		 "properties": { 
			 "R2extent": 4149.9553, 
			 "electric_dipole_moment_norm": 1.39568229193, 
			 "electric_quadrupole_moment_norm": 2.50253352425, 
			 "total_energy": -2546.21804164, 
			 "HOMO_LUMO_gap": 0.19652, 
			 "cosmo_polarized_energy": -3.69, 
			 "cosmo_cavitation_energy": 24.81, 
			 "cosmo_dispersion_energy": -19.27, 
			 "cosmo_repulsion_energy": 1.55, 
			 "cosmo_total_nonelectrostatic_energy": 7.1, 
			 "SMD_solvation_energy": 1.76 
		},
		"coords": [
			{
				"x": 0.9642466052,
				"y": 2.7373254521,
				"z": -3.165773763,
				"element": "Cl" 
			},
			{
				"x": 0.8405446562,
				"y": 1.5172946883,
				"z": -1.9288605262,
				"element": "C" 
			},
			{
				"x": -0.3429697583,
				"y": 1.3745806875,
				"z": -1.3627533343,
				"element": "N" 
			},
			{
				"x": -0.5178378541,
				"y": 0.471174883,
				"z": -0.4167909109,
				"element": "C" 
			},
			{
				"x": -2.1172948677,
				"y": 0.364177917,
				"z": 0.2643640557,
				"element": "Cl" 
			},
			{
				"x": 0.5117982414,
				"y": -0.3710676866,
				"z": 0.0352127714,
				"element": "C" 
			},
			{
				"x": 0.2425390663,
				"y": -1.5433127625,
				"z": 1.2781130177,
				"element": "Cl" 
			},
			{
				"x": 1.7755073459,
				"y": -0.2231394024,
				"z": -0.5649749338,
				"element": "C" 
			},
			{
				"x": 3.0961611502,
				"y": -1.2191543495,
				"z": -0.0676770167,
				"element": "Cl" 
			},
			{
				"x": 1.956420684,
				"y": 0.7414405192,
				"z": -1.572901117,
				"element": "C" 
			},
			{
				"x": 3.4917847309,
				"y": 0.9588800539,
				"z": -2.3389582428,
				"element": "Cl" 
			}
		],
		 "valence_orbital": [ 
			{
				"type": "occ",
				"energy": -0.33577,
				"method": "rhf"
			},
			{
				"type": "occ",
				"energy": -0.32109,
				"method": "rhf"
			},
			{
				"type": "occ",
				"energy": -0.31054,
				"method": "rhf"
			},
			{
				"type": "occ",
				"energy": -0.29749,
				"method": "rhf"
			},
			{
				"type": "occ",
				"energy": -0.27144,
				"method": "rhf"
			},
			{
				"type": "unocc",
				"energy": -0.07492,
				"method": "rhf"
			},
			{
				"type": "unocc",
				"energy": -0.06446,
				"method": "rhf"
			},
			{
				"type": "unocc",
				"energy": -0.04841,
				"method": "rhf"
			},
			{
				"type": "unocc",
				"energy": 0.00153,
				"method": "rhf"
			},
			{
				"type": "unocc",
				"energy": 0.02041,
				"method": "rhf"
			}
		],
		"cosmo_sigma_profile": { 
			"-0.025": 0.0,
			"-0.024": 0.0,
			"-0.023": 0.0,
			"-0.022": 0.0,
			"-0.021": 0.0,
			"-0.02": 0.0,
			"-0.019": 0.0,
			"-0.018": 0.0,
			"-0.017": 0.0,
			"-0.016": 0.0,
			"-0.015": 0.0,
			"-0.014": 0.0,
			"-0.013": 0.0,
			"-0.012": 0.0,
			"-0.011": 0.0,
			"-0.01": 0.0,
			"-0.009": 0.0,
			"-0.008": 0.00658907469403,
			"-0.007": 1.04079291771,
			"-0.006": 2.3238220484,
			"-0.005": 11.8249595286,
			"-0.004": 21.2111227054,
			"-0.003": 16.9161513466,
			"-0.002": 16.5786683898,
			"-0.001": 15.5304081618,
			"0.0": 20.3779814989,
			"0.001": 25.0864802785,
			"0.002": 40.3191366468,
			"0.003": 27.3356773652,
			"0.004": 5.2603542813,
			"0.005": 2.37632370645,
			"0.006": 1.90046893409,
			"0.007": 1.09108145975,
			"0.008": 1.29549882013,
			"0.009": 0.990289449091,
			"0.01": 0.675353541059,
			"0.011": 0.134239631619,
			"0.012": 0.0,
			"0.013": 0.0,
			"0.014": 0.0,
			"0.015": 0.0,
			"0.016": 0.0,
			"0.017": 0.0,
			"0.018": 0.0,
			"0.019": 0.0,
			"0.02": 0.0,
			"0.021": 0.0,
			"0.022": 0.0,
			"0.023": 0.0,
			"0.024": 0.0,
			"0.025": 0.0
		}
	}
}
