{
	 "smiles": "FC1=C(Br)C=C2C(=O)C(=O)NC2=C1", 
	 "Tm": 540.15, 
	 "num_atms": 16, 
	 "gaussian": { 
		 "optdone": 1, 
		 "sigma_profile": "yes", 
		 "theory": "DFT", 
		 "functional": "B3LYP", 
		 "basiset": "6-31G**", 
		 "properties": { 
			 "R2extent": 4023.4446, 
			 "electric_dipole_moment_norm": 4.16303492779, 
			 "electric_quadrupole_moment_norm": 22.6633216707, 
			 "total_energy": -3183.09034358, 
			 "HOMO_LUMO_gap": 0.13794, 
			 "cosmo_polarized_energy": -15.35, 
			 "cosmo_cavitation_energy": 24.81, 
			 "cosmo_dispersion_energy": -18.57, 
			 "cosmo_repulsion_energy": 1.44, 
			 "cosmo_total_nonelectrostatic_energy": 7.69, 
			 "SMD_solvation_energy": 4.97 
		},
		"coords": [
			{
				"x": 3.3575606423,
				"y": 0.5620241655,
				"z": -0.6551170894,
				"element": "F" 
			},
			{
				"x": 2.0720959455,
				"y": 0.4555712347,
				"z": -0.3075728207,
				"element": "C" 
			},
			{
				"x": 1.733720983,
				"y": 0.3616974033,
				"z": 1.0495119998,
				"element": "C" 
			},
			{
				"x": 3.1047307705,
				"y": 0.38755354,
				"z": 2.3612757337,
				"element": "Br" 
			},
			{
				"x": 0.3922517551,
				"y": 0.2506430907,
				"z": 1.41036546,
				"element": "C" 
			},
			{
				"x": -0.5718879777,
				"y": 0.2364827016,
				"z": 0.4074087725,
				"element": "C" 
			},
			{
				"x": -2.0374660237,
				"y": 0.1320249934,
				"z": 0.4774916031,
				"element": "C" 
			},
			{
				"x": -2.7762328929,
				"y": 0.0311618271,
				"z": 1.430941564,
				"element": "O" 
			},
			{
				"x": -2.514670053,
				"y": 0.1764504434,
				"z": -1.0185424272,
				"element": "C" 
			},
			{
				"x": -3.644405568,
				"y": 0.1206356705,
				"z": -1.4421642734,
				"element": "O" 
			},
			{
				"x": -1.3460900624,
				"y": 0.2959278012,
				"z": -1.7638178519,
				"element": "N" 
			},
			{
				"x": -0.2090216114,
				"y": 0.3321281068,
				"z": -0.9524019607,
				"element": "C" 
			},
			{
				"x": 1.1212518111,
				"y": 0.4433954277,
				"z": -1.3311208447,
				"element": "C" 
			},
			{
				"x": 0.1018649228,
				"y": 0.1764558118,
				"z": 2.4526017123,
				"element": "H" 
			},
			{
				"x": -1.3437828442,
				"y": 0.3484493263,
				"z": -2.772159299,
				"element": "H" 
			},
			{
				"x": 1.446680203,
				"y": 0.5193984561,
				"z": -2.3623002786,
				"element": "H" 
			}
		],
		 "valence_orbital": [ 
			{
				"type": "occ",
				"energy": -0.30821,
				"method": "rhf"
			},
			{
				"type": "occ",
				"energy": -0.30574,
				"method": "rhf"
			},
			{
				"type": "occ",
				"energy": -0.28989,
				"method": "rhf"
			},
			{
				"type": "occ",
				"energy": -0.25885,
				"method": "rhf"
			},
			{
				"type": "occ",
				"energy": -0.24635,
				"method": "rhf"
			},
			{
				"type": "unocc",
				"energy": -0.10841,
				"method": "rhf"
			},
			{
				"type": "unocc",
				"energy": -0.04311,
				"method": "rhf"
			},
			{
				"type": "unocc",
				"energy": -0.01504,
				"method": "rhf"
			},
			{
				"type": "unocc",
				"energy": -0.00543,
				"method": "rhf"
			},
			{
				"type": "unocc",
				"energy": 0.06366,
				"method": "rhf"
			}
		],
		"cosmo_sigma_profile": { 
			"-0.025": 0.0,
			"-0.024": 0.0,
			"-0.023": 0.0,
			"-0.022": 0.0,
			"-0.021": 0.0,
			"-0.02": 0.0,
			"-0.019": 0.0,
			"-0.018": 0.0593841122412,
			"-0.017": 1.38161926291,
			"-0.016": 1.34858534218,
			"-0.015": 1.51208199234,
			"-0.014": 1.74379415705,
			"-0.013": 0.768556743613,
			"-0.012": 1.25949841488,
			"-0.011": 1.47107819469,
			"-0.01": 2.01233098625,
			"-0.009": 3.57934712889,
			"-0.008": 5.30660355971,
			"-0.007": 5.62690850172,
			"-0.006": 5.27818666423,
			"-0.005": 6.98839360737,
			"-0.004": 8.44399055896,
			"-0.003": 11.8081814217,
			"-0.002": 20.9989287826,
			"-0.001": 20.1666212435,
			"0.0": 15.7638020939,
			"0.001": 10.061004759,
			"0.002": 12.1506278159,
			"0.003": 17.1123079349,
			"0.004": 12.9453184875,
			"0.005": 3.57783362723,
			"0.006": 2.57631972432,
			"0.007": 2.61469165952,
			"0.008": 3.95022835715,
			"0.009": 5.72776567891,
			"0.01": 9.21973890636,
			"0.011": 7.36131403948,
			"0.012": 1.57858720198,
			"0.013": 0.0,
			"0.014": 0.0,
			"0.015": 0.0,
			"0.016": 0.0,
			"0.017": 0.0,
			"0.018": 0.0,
			"0.019": 0.0,
			"0.02": 0.0,
			"0.021": 0.0,
			"0.022": 0.0,
			"0.023": 0.0,
			"0.024": 0.0,
			"0.025": 0.0
		}
	}
}
