{
	 "smiles": "Cl[Si](Cl)(Cl)CCC#N", 
	 "Tm": 306.65, 
	 "num_atms": 12, 
	 "gaussian": { 
		 "optdone": 1, 
		 "sigma_profile": "yes", 
		 "theory": "DFT", 
		 "functional": "B3LYP", 
		 "basiset": "6-31G**", 
		 "properties": { 
			 "R2extent": 2872.6983, 
			 "electric_dipole_moment_norm": 4.03906591677, 
			 "electric_quadrupole_moment_norm": 9.58719211031, 
			 "total_energy": -1841.69602593, 
			 "HOMO_LUMO_gap": 0.30541, 
			 "cosmo_polarized_energy": -11.66, 
			 "cosmo_cavitation_energy": 23.92, 
			 "cosmo_dispersion_energy": -14.89, 
			 "cosmo_repulsion_energy": 1.35, 
			 "cosmo_total_nonelectrostatic_energy": 10.38, 
			 "SMD_solvation_energy": 4.26 
		},
		"coords": [
			{
				"x": -2.7230315287,
				"y": 1.677835215,
				"z": -1.2216329554,
				"element": "Cl" 
			},
			{
				"x": -0.6589937921,
				"y": 1.7612019648,
				"z": -1.1926680349,
				"element": "Si" 
			},
			{
				"x": -0.0647998793,
				"y": 3.6984926811,
				"z": -1.5848024122,
				"element": "Cl" 
			},
			{
				"x": 0.0811762354,
				"y": 0.5349489851,
				"z": -2.6635229983,
				"element": "Cl" 
			},
			{
				"x": -0.0371858802,
				"y": 1.307876997,
				"z": 0.52320249,
				"element": "C" 
			},
			{
				"x": -0.6021276596,
				"y": 0.0237710214,
				"z": 1.1758071896,
				"element": "C" 
			},
			{
				"x": -0.1363500017,
				"y": -1.2198915727,
				"z": 0.5546651747,
				"element": "C" 
			},
			{
				"x": 0.2409459654,
				"y": -2.207121132,
				"z": 0.0756711123,
				"element": "N" 
			},
			{
				"x": -0.2960647213,
				"y": 2.1600077878,
				"z": 1.1629320619,
				"element": "H" 
			},
			{
				"x": 1.0571085666,
				"y": 1.2676822028,
				"z": 0.4839564808,
				"element": "H" 
			},
			{
				"x": -1.6976794286,
				"y": 0.0317714926,
				"z": 1.1580037408,
				"element": "H" 
			},
			{
				"x": -0.3064978757,
				"y": -0.0019756429,
				"z": 2.2310881508,
				"element": "H" 
			}
		],
		 "valence_orbital": [ 
			{
				"type": "occ",
				"energy": -0.34768,
				"method": "rhf"
			},
			{
				"type": "occ",
				"energy": -0.34509,
				"method": "rhf"
			},
			{
				"type": "occ",
				"energy": -0.33644,
				"method": "rhf"
			},
			{
				"type": "occ",
				"energy": -0.33455,
				"method": "rhf"
			},
			{
				"type": "occ",
				"energy": -0.32701,
				"method": "rhf"
			},
			{
				"type": "unocc",
				"energy": -0.0216,
				"method": "rhf"
			},
			{
				"type": "unocc",
				"energy": 0.00062,
				"method": "rhf"
			},
			{
				"type": "unocc",
				"energy": 0.01177,
				"method": "rhf"
			},
			{
				"type": "unocc",
				"energy": 0.01622,
				"method": "rhf"
			},
			{
				"type": "unocc",
				"energy": 0.03559,
				"method": "rhf"
			}
		],
		"cosmo_sigma_profile": { 
			"-0.025": 0.0,
			"-0.024": 0.0,
			"-0.023": 0.0,
			"-0.022": 0.0,
			"-0.021": 0.0,
			"-0.02": 0.0,
			"-0.019": 0.0,
			"-0.018": 0.0,
			"-0.017": 0.0,
			"-0.016": 0.0,
			"-0.015": 0.0,
			"-0.014": 0.0,
			"-0.013": 0.0,
			"-0.012": 0.0,
			"-0.011": 0.0,
			"-0.01": 0.11850278455,
			"-0.009": 5.85533652618,
			"-0.008": 12.5163493636,
			"-0.007": 10.8040535235,
			"-0.006": 10.6732703131,
			"-0.005": 6.84739511139,
			"-0.004": 6.91619507795,
			"-0.003": 5.20839783329,
			"-0.002": 5.51525999508,
			"-0.001": 12.7960542301,
			"0.0": 15.5303132891,
			"0.001": 18.4773218818,
			"0.002": 22.7475650947,
			"0.003": 29.9518424245,
			"0.004": 5.53542272289,
			"0.005": 3.72215283969,
			"0.006": 2.81184448912,
			"0.007": 2.08746393951,
			"0.008": 3.39201788741,
			"0.009": 3.01807442273,
			"0.01": 3.31244573566,
			"0.011": 2.5171734368,
			"0.012": 2.55097650504,
			"0.013": 1.63793490063,
			"0.014": 0.0911027636851,
			"0.015": 0.0,
			"0.016": 0.0,
			"0.017": 0.0,
			"0.018": 0.0,
			"0.019": 0.0,
			"0.02": 0.0,
			"0.021": 0.0,
			"0.022": 0.0,
			"0.023": 0.0,
			"0.024": 0.0,
			"0.025": 0.0
		}
	}
}
