{
	 "smiles": "CC1=CC=CC=C1C1=CC2=CC=CC=C2C(=O)O1", 
	 "Tm": 359.15, 
	 "num_atms": 30, 
	 "gaussian": { 
		 "optdone": 1, 
		 "sigma_profile": "yes", 
		 "theory": "DFT", 
		 "functional": "B3LYP", 
		 "basiset": "6-31G**", 
		 "properties": { 
			 "R2extent": 5452.9463, 
			 "electric_dipole_moment_norm": 3.86227364256, 
			 "electric_quadrupole_moment_norm": 17.3193549196, 
			 "total_energy": -767.402990677, 
			 "HOMO_LUMO_gap": 0.16101, 
			 "cosmo_polarized_energy": -10.77, 
			 "cosmo_cavitation_energy": 34.09, 
			 "cosmo_dispersion_energy": -24.57, 
			 "cosmo_repulsion_energy": 1.85, 
			 "cosmo_total_nonelectrostatic_energy": 11.37, 
			 "SMD_solvation_energy": 6.53 
		},
		"coords": [
			{
				"x": 0.5928153865,
				"y": -1.9734054905,
				"z": -2.5908367773,
				"element": "C" 
			},
			{
				"x": 1.1301102371,
				"y": -2.2694528544,
				"z": -1.2089395065,
				"element": "C" 
			},
			{
				"x": 2.1983178772,
				"y": -3.164078078,
				"z": -1.0701866924,
				"element": "C" 
			},
			{
				"x": 2.7618381597,
				"y": -3.4594808017,
				"z": 0.1711187914,
				"element": "C" 
			},
			{
				"x": 2.2599159712,
				"y": -2.8510361773,
				"z": 1.3204236122,
				"element": "C" 
			},
			{
				"x": 1.1963329953,
				"y": -1.9596793431,
				"z": 1.2105047857,
				"element": "C" 
			},
			{
				"x": 0.6230010093,
				"y": -1.6565410065,
				"z": -0.0363501884,
				"element": "C" 
			},
			{
				"x": -0.4900824461,
				"y": -0.6848520699,
				"z": -0.0647318097,
				"element": "C" 
			},
			{
				"x": -0.547613608,
				"y": 0.4603635047,
				"z": 0.6569137204,
				"element": "C" 
			},
			{
				"x": -1.7030683897,
				"y": 1.3166703283,
				"z": 0.5763618031,
				"element": "C" 
			},
			{
				"x": -1.8256758514,
				"y": 2.5122452686,
				"z": 1.3122755567,
				"element": "C" 
			},
			{
				"x": -2.9625470712,
				"y": 3.2988123237,
				"z": 1.1890637527,
				"element": "C" 
			},
			{
				"x": -4.0076239762,
				"y": 2.9203635886,
				"z": 0.329626899,
				"element": "C" 
			},
			{
				"x": -3.9037399668,
				"y": 1.748508895,
				"z": -0.4067117856,
				"element": "C" 
			},
			{
				"x": -2.7594393276,
				"y": 0.9455239717,
				"z": -0.2878308933,
				"element": "C" 
			},
			{
				"x": -2.6665589079,
				"y": -0.2855288475,
				"z": -1.0821577532,
				"element": "C" 
			},
			{
				"x": -3.4879799288,
				"y": -0.6969718178,
				"z": -1.8686610037,
				"element": "O" 
			},
			{
				"x": -1.5164804093,
				"y": -1.0487695763,
				"z": -0.897209631,
				"element": "O" 
			},
			{
				"x": -0.4027609348,
				"y": -2.4009967117,
				"z": -2.7378264838,
				"element": "H" 
			},
			{
				"x": 0.5004225674,
				"y": -0.8968502379,
				"z": -2.7670394131,
				"element": "H" 
			},
			{
				"x": 1.2607817899,
				"y": -2.3837076753,
				"z": -3.3527906474,
				"element": "H" 
			},
			{
				"x": 2.601400839,
				"y": -3.633013674,
				"z": -1.9640208881,
				"element": "H" 
			},
			{
				"x": 3.5882186066,
				"y": -4.1613499657,
				"z": 0.2371291807,
				"element": "H" 
			},
			{
				"x": 2.6822347545,
				"y": -3.0756329846,
				"z": 2.2952077485,
				"element": "H" 
			},
			{
				"x": 0.7788806365,
				"y": -1.5045768864,
				"z": 2.1033575907,
				"element": "H" 
			},
			{
				"x": 0.2920368325,
				"y": 0.7377135716,
				"z": 1.2825679203,
				"element": "H" 
			},
			{
				"x": -1.0207116529,
				"y": 2.8109582998,
				"z": 1.9779186753,
				"element": "H" 
			},
			{
				"x": -3.0442565333,
				"y": 4.2171450133,
				"z": 1.763719991,
				"element": "H" 
			},
			{
				"x": -4.8916316888,
				"y": 3.5441420467,
				"z": 0.241579919,
				"element": "H" 
			},
			{
				"x": -4.6902369699,
				"y": 1.4280773867,
				"z": -1.0815764731,
				"element": "H" 
			}
		],
		 "valence_orbital": [ 
			{
				"type": "occ",
				"energy": -0.27489,
				"method": "rhf"
			},
			{
				"type": "occ",
				"energy": -0.2659,
				"method": "rhf"
			},
			{
				"type": "occ",
				"energy": -0.26335,
				"method": "rhf"
			},
			{
				"type": "occ",
				"energy": -0.24878,
				"method": "rhf"
			},
			{
				"type": "occ",
				"energy": -0.21687,
				"method": "rhf"
			},
			{
				"type": "unocc",
				"energy": -0.05586,
				"method": "rhf"
			},
			{
				"type": "unocc",
				"energy": -0.04452,
				"method": "rhf"
			},
			{
				"type": "unocc",
				"energy": -0.00502,
				"method": "rhf"
			},
			{
				"type": "unocc",
				"energy": -0.00127,
				"method": "rhf"
			},
			{
				"type": "unocc",
				"energy": 0.03883,
				"method": "rhf"
			}
		],
		"cosmo_sigma_profile": { 
			"-0.025": 0.0,
			"-0.024": 0.0,
			"-0.023": 0.0,
			"-0.022": 0.0,
			"-0.021": 0.0,
			"-0.02": 0.0,
			"-0.019": 0.0,
			"-0.018": 0.0,
			"-0.017": 0.0,
			"-0.016": 0.0,
			"-0.015": 0.0,
			"-0.014": 0.0,
			"-0.013": 0.0,
			"-0.012": 0.0,
			"-0.011": 0.0,
			"-0.01": 0.0,
			"-0.009": 0.0,
			"-0.008": 0.554159897983,
			"-0.007": 6.45458742834,
			"-0.006": 16.1452973931,
			"-0.005": 20.9372393459,
			"-0.004": 24.2773898834,
			"-0.003": 21.6318926254,
			"-0.002": 19.5470132253,
			"-0.001": 18.5298815387,
			"0.0": 24.9505378502,
			"0.001": 25.1162524597,
			"0.002": 23.9166009676,
			"0.003": 23.9119187568,
			"0.004": 15.1666601148,
			"0.005": 11.0563127692,
			"0.006": 2.99103601697,
			"0.007": 2.00201699418,
			"0.008": 2.23576371276,
			"0.009": 1.75302418727,
			"0.01": 2.31350070777,
			"0.011": 3.92485540628,
			"0.012": 4.80983170195,
			"0.013": 1.48152431139,
			"0.014": 0.0250316308545,
			"0.015": 0.0,
			"0.016": 0.0,
			"0.017": 0.0,
			"0.018": 0.0,
			"0.019": 0.0,
			"0.02": 0.0,
			"0.021": 0.0,
			"0.022": 0.0,
			"0.023": 0.0,
			"0.024": 0.0,
			"0.025": 0.0
		}
	}
}
