{
	 "smiles": "OC1C(=O)NC2=C1C=CC=C2", 
	 "Tm": 435.15, 
	 "num_atms": 18, 
	 "gaussian": { 
		 "optdone": 1, 
		 "sigma_profile": "yes", 
		 "theory": "DFT", 
		 "functional": "B3LYP", 
		 "basiset": "6-31G**", 
		 "properties": { 
			 "R2extent": 1931.01, 
			 "electric_dipole_moment_norm": 3.91455576279, 
			 "electric_quadrupole_moment_norm": 13.1249414917, 
			 "total_energy": -514.270003986, 
			 "HOMO_LUMO_gap": 0.19533, 
			 "cosmo_polarized_energy": -15.13, 
			 "cosmo_cavitation_energy": 22.29, 
			 "cosmo_dispersion_energy": -16.62, 
			 "cosmo_repulsion_energy": 1.34, 
			 "cosmo_total_nonelectrostatic_energy": 7.01, 
			 "SMD_solvation_energy": 4.29 
		},
		"coords": [
			{
				"x": 2.9371200955,
				"y": 1.3722125936,
				"z": -1.3815624121,
				"element": "O" 
			},
			{
				"x": 1.6535713604,
				"y": 0.8670298487,
				"z": -1.6709373403,
				"element": "C" 
			},
			{
				"x": 0.6035558316,
				"y": 1.9570211368,
				"z": -2.0490190353,
				"element": "C" 
			},
			{
				"x": 0.7591296665,
				"y": 2.9145675815,
				"z": -2.7766466424,
				"element": "O" 
			},
			{
				"x": -0.5645140014,
				"y": 1.619262661,
				"z": -1.3808626296,
				"element": "N" 
			},
			{
				"x": -0.3715012758,
				"y": 0.5670295497,
				"z": -0.4704362946,
				"element": "C" 
			},
			{
				"x": 0.9477760957,
				"y": 0.0963546903,
				"z": -0.5758347234,
				"element": "C" 
			},
			{
				"x": 1.3894118591,
				"y": -0.928382226,
				"z": 0.2469190301,
				"element": "C" 
			},
			{
				"x": 0.4985066412,
				"y": -1.4855890859,
				"z": 1.1759566363,
				"element": "C" 
			},
			{
				"x": -0.8140350522,
				"y": -1.0158715248,
				"z": 1.2606342457,
				"element": "C" 
			},
			{
				"x": -1.272291217,
				"y": 0.0211369216,
				"z": 0.4365783791,
				"element": "C" 
			},
			{
				"x": 2.8581470528,
				"y": 1.9904611331,
				"z": -0.6424187022,
				"element": "H" 
			},
			{
				"x": 1.7868381334,
				"y": 0.2364598858,
				"z": -2.5600396524,
				"element": "H" 
			},
			{
				"x": -1.3851279589,
				"y": 2.2067864096,
				"z": -1.4212871018,
				"element": "H" 
			},
			{
				"x": 2.4135039781,
				"y": -1.2833623244,
				"z": 0.1742800891,
				"element": "H" 
			},
			{
				"x": 0.8289986131,
				"y": -2.2859106877,
				"z": 1.8305724458,
				"element": "H" 
			},
			{
				"x": -1.4969099851,
				"y": -1.4576763019,
				"z": 1.9805282425,
				"element": "H" 
			},
			{
				"x": -2.2921798371,
				"y": 0.386069739,
				"z": 0.5122754653,
				"element": "H" 
			}
		],
		 "valence_orbital": [ 
			{
				"type": "occ",
				"energy": -0.31604,
				"method": "rhf"
			},
			{
				"type": "occ",
				"energy": -0.29911,
				"method": "rhf"
			},
			{
				"type": "occ",
				"energy": -0.26431,
				"method": "rhf"
			},
			{
				"type": "occ",
				"energy": -0.24968,
				"method": "rhf"
			},
			{
				"type": "occ",
				"energy": -0.22495,
				"method": "rhf"
			},
			{
				"type": "unocc",
				"energy": -0.02962,
				"method": "rhf"
			},
			{
				"type": "unocc",
				"energy": -0.00963,
				"method": "rhf"
			},
			{
				"type": "unocc",
				"energy": 0.0262,
				"method": "rhf"
			},
			{
				"type": "unocc",
				"energy": 0.08413,
				"method": "rhf"
			},
			{
				"type": "unocc",
				"energy": 0.09086,
				"method": "rhf"
			}
		],
		"cosmo_sigma_profile": { 
			"-0.025": 0.0,
			"-0.024": 0.0,
			"-0.023": 0.0,
			"-0.022": 0.0,
			"-0.021": 0.0,
			"-0.02": 0.0,
			"-0.019": 0.0,
			"-0.018": 0.0,
			"-0.017": 0.297730347268,
			"-0.016": 1.65876345918,
			"-0.015": 2.28198724056,
			"-0.014": 2.65430698389,
			"-0.013": 1.68274422484,
			"-0.012": 2.10314773164,
			"-0.011": 1.46773364952,
			"-0.01": 2.41201638041,
			"-0.009": 1.51986732182,
			"-0.008": 2.64128198553,
			"-0.007": 7.14609056767,
			"-0.006": 9.65940495937,
			"-0.005": 11.1198152607,
			"-0.004": 11.0349184018,
			"-0.003": 10.5599037068,
			"-0.002": 9.55535906518,
			"-0.001": 8.63979499069,
			"0.0": 8.3472293871,
			"0.001": 10.7517206009,
			"0.002": 10.0003540597,
			"0.003": 9.01337018872,
			"0.004": 9.8090309274,
			"0.005": 9.8519129465,
			"0.006": 5.01140973507,
			"0.007": 2.00196713032,
			"0.008": 2.04902458497,
			"0.009": 2.49267436394,
			"0.01": 2.71463236607,
			"0.011": 4.316452164,
			"0.012": 7.56426759368,
			"0.013": 6.45052959465,
			"0.014": 0.874334855098,
			"0.015": 0.0,
			"0.016": 0.0,
			"0.017": 0.0,
			"0.018": 0.0,
			"0.019": 0.0,
			"0.02": 0.0,
			"0.021": 0.0,
			"0.022": 0.0,
			"0.023": 0.0,
			"0.024": 0.0,
			"0.025": 0.0
		}
	}
}
