{
	 "smiles": "FC1=CC=C(C=C1)C1=CC2=C(N1)C=CC=C2", 
	 "Tm": 464.15, 
	 "num_atms": 26, 
	 "gaussian": { 
		 "optdone": 1, 
		 "sigma_profile": "yes", 
		 "theory": "DFT", 
		 "functional": "B3LYP", 
		 "basiset": "6-31G**", 
		 "properties": { 
			 "R2extent": 5203.766, 
			 "electric_dipole_moment_norm": 1.18742097842, 
			 "electric_quadrupole_moment_norm": 11.1139832477, 
			 "total_energy": -694.116425904, 
			 "HOMO_LUMO_gap": 0.16164, 
			 "cosmo_polarized_energy": -9.63, 
			 "cosmo_cavitation_energy": 30.73, 
			 "cosmo_dispersion_energy": -22.62, 
			 "cosmo_repulsion_energy": 1.69, 
			 "cosmo_total_nonelectrostatic_energy": 9.8, 
			 "SMD_solvation_energy": 5.1 
		},
		"coords": [
			{
				"x": -2.7390481353,
				"y": -4.4465190327,
				"z": 0.9679589203,
				"element": "F" 
			},
			{
				"x": -2.0254361455,
				"y": -3.3836075903,
				"z": 0.5425297705,
				"element": "C" 
			},
			{
				"x": -0.7418125616,
				"y": -3.58375788,
				"z": 0.0488752043,
				"element": "C" 
			},
			{
				"x": -0.0105411986,
				"y": -2.4802536988,
				"z": -0.3860432802,
				"element": "C" 
			},
			{
				"x": -0.5525944946,
				"y": -1.1824918468,
				"z": -0.3427510299,
				"element": "C" 
			},
			{
				"x": -1.8577903219,
				"y": -1.0240767483,
				"z": 0.1594517381,
				"element": "C" 
			},
			{
				"x": -2.5945624234,
				"y": -2.115583205,
				"z": 0.608735423,
				"element": "C" 
			},
			{
				"x": 0.2108118131,
				"y": -0.0199408414,
				"z": -0.8007110835,
				"element": "C" 
			},
			{
				"x": 0.1349742683,
				"y": 1.3025793605,
				"z": -0.415412136,
				"element": "C" 
			},
			{
				"x": 1.1123365115,
				"y": 2.034407361,
				"z": -1.1651642758,
				"element": "C" 
			},
			{
				"x": 1.7681987436,
				"y": 1.0966797689,
				"z": -2.0118096546,
				"element": "C" 
			},
			{
				"x": 1.2203959231,
				"y": -0.1436884232,
				"z": -1.7509130629,
				"element": "N" 
			},
			{
				"x": 2.7771193878,
				"y": 1.4720859846,
				"z": -2.9041570227,
				"element": "C" 
			},
			{
				"x": 3.138471691,
				"y": 2.8147330512,
				"z": -2.9350389272,
				"element": "C" 
			},
			{
				"x": 2.5126784609,
				"y": 3.7599098064,
				"z": -2.0954221778,
				"element": "C" 
			},
			{
				"x": 1.508417753,
				"y": 3.3835223016,
				"z": -1.2131771062,
				"element": "C" 
			},
			{
				"x": -0.3271223804,
				"y": -4.5856367261,
				"z": 0.023084137,
				"element": "H" 
			},
			{
				"x": 1.0079507119,
				"y": -2.6292873068,
				"z": -0.7326859399,
				"element": "H" 
			},
			{
				"x": -2.3029268678,
				"y": -0.0345707595,
				"z": 0.1782742787,
				"element": "H" 
			},
			{
				"x": -3.602149998,
				"y": -2.0004035407,
				"z": 0.9933889241,
				"element": "H" 
			},
			{
				"x": -0.5136109576,
				"y": 1.6953526462,
				"z": 0.3547947629,
				"element": "H" 
			},
			{
				"x": 1.3617262581,
				"y": -0.9638593963,
				"z": -2.3185849646,
				"element": "H" 
			},
			{
				"x": 3.2633277238,
				"y": 0.7439645665,
				"z": -3.547527724,
				"element": "H" 
			},
			{
				"x": 3.9190700771,
				"y": 3.1406713683,
				"z": -3.6161593912,
				"element": "H" 
			},
			{
				"x": 2.8239640308,
				"y": 4.7993415344,
				"z": -2.1437209558,
				"element": "H" 
			},
			{
				"x": 1.0309521306,
				"y": 4.1193292462,
				"z": -0.5720144266,
				"element": "H" 
			}
		],
		 "valence_orbital": [ 
			{
				"type": "occ",
				"energy": -0.27988,
				"method": "rhf"
			},
			{
				"type": "occ",
				"energy": -0.26715,
				"method": "rhf"
			},
			{
				"type": "occ",
				"energy": -0.25881,
				"method": "rhf"
			},
			{
				"type": "occ",
				"energy": -0.21569,
				"method": "rhf"
			},
			{
				"type": "occ",
				"energy": -0.19589,
				"method": "rhf"
			},
			{
				"type": "unocc",
				"energy": -0.03425,
				"method": "rhf"
			},
			{
				"type": "unocc",
				"energy": -0.0178,
				"method": "rhf"
			},
			{
				"type": "unocc",
				"energy": 0.01544,
				"method": "rhf"
			},
			{
				"type": "unocc",
				"energy": 0.03069,
				"method": "rhf"
			},
			{
				"type": "unocc",
				"energy": 0.07073,
				"method": "rhf"
			}
		],
		"cosmo_sigma_profile": { 
			"-0.025": 0.0,
			"-0.024": 0.0,
			"-0.023": 0.0,
			"-0.022": 0.0,
			"-0.021": 0.0,
			"-0.02": 0.0,
			"-0.019": 0.0,
			"-0.018": 0.0,
			"-0.017": 0.0,
			"-0.016": 0.0429550969248,
			"-0.015": 0.751019014671,
			"-0.014": 1.52639830539,
			"-0.013": 0.953744883305,
			"-0.012": 1.03379626573,
			"-0.011": 1.58075791727,
			"-0.01": 1.73339347721,
			"-0.009": 1.77849450777,
			"-0.008": 1.99503359616,
			"-0.007": 5.69420697091,
			"-0.006": 11.6587234224,
			"-0.005": 16.4075942189,
			"-0.004": 16.9961856599,
			"-0.003": 15.7544943741,
			"-0.002": 13.5079481602,
			"-0.001": 12.6476841879,
			"0.0": 15.1151399595,
			"0.001": 17.8745234321,
			"0.002": 18.357123396,
			"0.003": 24.1118970957,
			"0.004": 28.2415627969,
			"0.005": 17.4227387247,
			"0.006": 13.7092345549,
			"0.007": 7.85683921444,
			"0.008": 0.569111143804,
			"0.009": 0.0,
			"0.01": 0.0,
			"0.011": 0.0,
			"0.012": 0.0,
			"0.013": 0.0,
			"0.014": 0.0,
			"0.015": 0.0,
			"0.016": 0.0,
			"0.017": 0.0,
			"0.018": 0.0,
			"0.019": 0.0,
			"0.02": 0.0,
			"0.021": 0.0,
			"0.022": 0.0,
			"0.023": 0.0,
			"0.024": 0.0,
			"0.025": 0.0
		}
	}
}
