{
	 "smiles": "COC(=O)C1=CC(OCC(N)=NO)=CC=C1", 
	 "Tm": 408.15, 
	 "num_atms": 28, 
	 "gaussian": { 
		 "optdone": 1, 
		 "sigma_profile": "yes", 
		 "theory": "DFT", 
		 "functional": "B3LYP", 
		 "basiset": "6-31G**", 
		 "properties": { 
			 "R2extent": 5831.4017, 
			 "electric_dipole_moment_norm": 2.04452285387, 
			 "electric_quadrupole_moment_norm": 6.4813192924, 
			 "total_energy": -798.644121708, 
			 "HOMO_LUMO_gap": 0.17774, 
			 "cosmo_polarized_energy": -15.14, 
			 "cosmo_cavitation_energy": 33.11, 
			 "cosmo_dispersion_energy": -23.91, 
			 "cosmo_repulsion_energy": 1.9, 
			 "cosmo_total_nonelectrostatic_energy": 11.09, 
			 "SMD_solvation_energy": 7.49 
		},
		"coords": [
			{
				"x": 1.8472890664,
				"y": 3.8172368873,
				"z": -2.6997837651,
				"element": "C" 
			},
			{
				"x": 1.2088989825,
				"y": 3.2297792723,
				"z": -1.556569956,
				"element": "O" 
			},
			{
				"x": 0.4509320394,
				"y": 2.1396185052,
				"z": -1.8183201354,
				"element": "C" 
			},
			{
				"x": 0.3141290055,
				"y": 1.6822284146,
				"z": -2.9364749453,
				"element": "O" 
			},
			{
				"x": -0.1823100442,
				"y": 1.5788460928,
				"z": -0.5896077663,
				"element": "C" 
			},
			{
				"x": -0.9967954661,
				"y": 0.4559663638,
				"z": -0.7453413398,
				"element": "C" 
			},
			{
				"x": -1.6196140329,
				"y": -0.1180335599,
				"z": 0.3665286985,
				"element": "C" 
			},
			{
				"x": -2.403192207,
				"y": -1.2141086077,
				"z": 0.0966285799,
				"element": "O" 
			},
			{
				"x": -3.2013388917,
				"y": -1.7742298891,
				"z": 1.1408876183,
				"element": "C" 
			},
			{
				"x": -2.3985917105,
				"y": -2.6504862366,
				"z": 2.0719432158,
				"element": "C" 
			},
			{
				"x": -1.5902265478,
				"y": -3.5934395097,
				"z": 1.4920913395,
				"element": "N" 
			},
			{
				"x": -2.5976840354,
				"y": -2.4913768879,
				"z": 3.3361272929,
				"element": "N" 
			},
			{
				"x": -1.8108236287,
				"y": -3.4339911013,
				"z": 4.0590472786,
				"element": "O" 
			},
			{
				"x": -1.4231479992,
				"y": 0.4288982192,
				"z": 1.640985557,
				"element": "C" 
			},
			{
				"x": -0.6079741997,
				"y": 1.5571141903,
				"z": 1.7813340386,
				"element": "C" 
			},
			{
				"x": 0.0141332623,
				"y": 2.1396759884,
				"z": 0.6819838388,
				"element": "C" 
			},
			{
				"x": 2.4083317188,
				"y": 4.6701775227,
				"z": -2.3178004573,
				"element": "H" 
			},
			{
				"x": 1.1037340469,
				"y": 4.1431434634,
				"z": -3.4315732462,
				"element": "H" 
			},
			{
				"x": 2.518255339,
				"y": 3.0992365343,
				"z": -3.1782587734,
				"element": "H" 
			},
			{
				"x": -1.1496644148,
				"y": 0.0330919117,
				"z": -1.7316580952,
				"element": "H" 
			},
			{
				"x": -3.7207126528,
				"y": -1.0056018862,
				"z": 1.7203307419,
				"element": "H" 
			},
			{
				"x": -3.9437991861,
				"y": -2.3825170447,
				"z": 0.6151082894,
				"element": "H" 
			},
			{
				"x": -0.9222708647,
				"y": -4.0253391342,
				"z": 2.1150416401,
				"element": "H" 
			},
			{
				"x": -1.2525991944,
				"y": -3.3675702239,
				"z": 0.5672127761,
				"element": "H" 
			},
			{
				"x": -2.0139694187,
				"y": -3.2056729039,
				"z": 4.9741067773,
				"element": "H" 
			},
			{
				"x": -1.8727504717,
				"y": -0.0219598523,
				"z": 2.517569085,
				"element": "H" 
			},
			{
				"x": -0.4583649732,
				"y": 1.9768209553,
				"z": 2.7718025298,
				"element": "H" 
			},
			{
				"x": 0.6459264787,
				"y": 3.0118925162,
				"z": 0.7961591825,
				"element": "H" 
			}
		],
		 "valence_orbital": [ 
			{
				"type": "occ",
				"energy": -0.28055,
				"method": "rhf"
			},
			{
				"type": "occ",
				"energy": -0.27167,
				"method": "rhf"
			},
			{
				"type": "occ",
				"energy": -0.25833,
				"method": "rhf"
			},
			{
				"type": "occ",
				"energy": -0.23058,
				"method": "rhf"
			},
			{
				"type": "occ",
				"energy": -0.22054,
				"method": "rhf"
			},
			{
				"type": "unocc",
				"energy": -0.0428,
				"method": "rhf"
			},
			{
				"type": "unocc",
				"energy": -1e-05,
				"method": "rhf"
			},
			{
				"type": "unocc",
				"energy": 0.02232,
				"method": "rhf"
			},
			{
				"type": "unocc",
				"energy": 0.06294,
				"method": "rhf"
			},
			{
				"type": "unocc",
				"energy": 0.06654,
				"method": "rhf"
			}
		],
		"cosmo_sigma_profile": { 
			"-0.025": 0.0,
			"-0.024": 0.0,
			"-0.023": 0.0,
			"-0.022": 0.0,
			"-0.021": 0.0,
			"-0.02": 0.0,
			"-0.019": 0.0,
			"-0.018": 0.0,
			"-0.017": 0.538217416961,
			"-0.016": 0.832576895825,
			"-0.015": 0.847316529951,
			"-0.014": 0.957306287415,
			"-0.013": 0.611762111701,
			"-0.012": 2.32891057993,
			"-0.011": 3.21453929584,
			"-0.01": 2.66247962176,
			"-0.009": 1.93497910357,
			"-0.008": 2.64298146987,
			"-0.007": 7.49581415141,
			"-0.006": 14.317449274,
			"-0.005": 19.5305912639,
			"-0.004": 19.8270957357,
			"-0.003": 18.8250600419,
			"-0.002": 14.5890607135,
			"-0.001": 14.3695850351,
			"0.0": 14.2400925792,
			"0.001": 17.372666668,
			"0.002": 20.2292222551,
			"0.003": 19.0435390269,
			"0.004": 14.1743067467,
			"0.005": 8.76577872912,
			"0.006": 7.44072130391,
			"0.007": 6.98396340381,
			"0.008": 6.77896958668,
			"0.009": 5.99710208174,
			"0.01": 4.72751412706,
			"0.011": 4.93224675415,
			"0.012": 5.06067735178,
			"0.013": 0.614645146063,
			"0.014": 0.655075854703,
			"0.015": 0.204901270686,
			"0.016": 0.0,
			"0.017": 0.0,
			"0.018": 0.0,
			"0.019": 0.0,
			"0.02": 0.0,
			"0.021": 0.0,
			"0.022": 0.0,
			"0.023": 0.0,
			"0.024": 0.0,
			"0.025": 0.0
		}
	}
}
