{
	 "smiles": "BrCCCCCCBr", 
	 "Tm": 273.0, 
	 "num_atms": 20, 
	 "gaussian": { 
		 "optdone": 1, 
		 "sigma_profile": "yes", 
		 "theory": "DFT", 
		 "functional": "B3LYP", 
		 "basiset": "6-31G**", 
		 "properties": { 
			 "R2extent": 4569.2241, 
			 "electric_dipole_moment_norm": 3.4336907636, 
			 "electric_quadrupole_moment_norm": 7.8701546319, 
			 "total_energy": -5378.69836832, 
			 "HOMO_LUMO_gap": 0.26461, 
			 "cosmo_polarized_energy": -6.69, 
			 "cosmo_cavitation_energy": 25.69, 
			 "cosmo_dispersion_energy": -19.16, 
			 "cosmo_repulsion_energy": 1.61, 
			 "cosmo_total_nonelectrostatic_energy": 8.14, 
			 "SMD_solvation_energy": 1.53 
		},
		"coords": [
			{
				"x": -0.2110047372,
				"y": 2.9384078518,
				"z": 1.7449128578,
				"element": "Br" 
			},
			{
				"x": -0.3364072817,
				"y": 1.9128396012,
				"z": 0.0511420219,
				"element": "C" 
			},
			{
				"x": 0.3893560991,
				"y": 0.5783930849,
				"z": 0.1606248225,
				"element": "C" 
			},
			{
				"x": 0.3875848718,
				"y": -0.2214155542,
				"z": -1.1582848664,
				"element": "C" 
			},
			{
				"x": -0.9726882849,
				"y": -0.6178217826,
				"z": -1.7652968166,
				"element": "C" 
			},
			{
				"x": -1.8329221262,
				"y": -1.6076597623,
				"z": -0.9566890463,
				"element": "C" 
			},
			{
				"x": -2.6914771906,
				"y": -1.0371929344,
				"z": 0.1678895411,
				"element": "C" 
			},
			{
				"x": -4.0535000834,
				"y": 0.2541070672,
				"z": -0.4945521555,
				"element": "Br" 
			},
			{
				"x": 0.1036166886,
				"y": 2.5596304088,
				"z": -0.7089500687,
				"element": "H" 
			},
			{
				"x": -1.4050840255,
				"y": 1.8105153699,
				"z": -0.1348172139,
				"element": "H" 
			},
			{
				"x": -0.0471221041,
				"y": -0.0102714385,
				"z": 0.9744300868,
				"element": "H" 
			},
			{
				"x": 1.4288854541,
				"y": 0.7657239106,
				"z": 0.4511130956,
				"element": "H" 
			},
			{
				"x": 0.9794555581,
				"y": -1.1320708237,
				"z": -0.9955607514,
				"element": "H" 
			},
			{
				"x": 0.9352383252,
				"y": 0.3584310157,
				"z": -1.9132538792,
				"element": "H" 
			},
			{
				"x": -0.7618256111,
				"y": -1.0841921093,
				"z": -2.7349327882,
				"element": "H" 
			},
			{
				"x": -1.5715323841,
				"y": 0.271283559,
				"z": -1.9934901728,
				"element": "H" 
			},
			{
				"x": -2.4975461954,
				"y": -2.143874722,
				"z": -1.6427214399,
				"element": "H" 
			},
			{
				"x": -1.1851085424,
				"y": -2.3716335305,
				"z": -0.4998313482,
				"element": "H" 
			},
			{
				"x": -3.2724799828,
				"y": -1.81652414,
				"z": 0.6600565322,
				"element": "H" 
			},
			{
				"x": -2.1298384473,
				"y": -0.4830750716,
				"z": 0.9171115892,
				"element": "H" 
			}
		],
		 "valence_orbital": [ 
			{
				"type": "occ",
				"energy": -0.32907,
				"method": "rhf"
			},
			{
				"type": "occ",
				"energy": -0.27668,
				"method": "rhf"
			},
			{
				"type": "occ",
				"energy": -0.27551,
				"method": "rhf"
			},
			{
				"type": "occ",
				"energy": -0.26811,
				"method": "rhf"
			},
			{
				"type": "occ",
				"energy": -0.26667,
				"method": "rhf"
			},
			{
				"type": "unocc",
				"energy": -0.00206,
				"method": "rhf"
			},
			{
				"type": "unocc",
				"energy": 0.00276,
				"method": "rhf"
			},
			{
				"type": "unocc",
				"energy": 0.07254,
				"method": "rhf"
			},
			{
				"type": "unocc",
				"energy": 0.09783,
				"method": "rhf"
			},
			{
				"type": "unocc",
				"energy": 0.10698,
				"method": "rhf"
			}
		],
		"cosmo_sigma_profile": { 
			"-0.025": 0.0,
			"-0.024": 0.0,
			"-0.023": 0.0,
			"-0.022": 0.0,
			"-0.021": 0.0,
			"-0.02": 0.0,
			"-0.019": 0.0,
			"-0.018": 0.0,
			"-0.017": 0.0,
			"-0.016": 0.0,
			"-0.015": 0.0,
			"-0.014": 0.0,
			"-0.013": 0.0,
			"-0.012": 0.0,
			"-0.011": 0.0,
			"-0.01": 0.0,
			"-0.009": 0.000502210089532,
			"-0.008": 0.0106868782973,
			"-0.007": 2.56323404917,
			"-0.006": 7.93237443693,
			"-0.005": 8.72352649243,
			"-0.004": 16.9063249418,
			"-0.003": 27.8740979301,
			"-0.002": 24.6561229462,
			"-0.001": 22.7268009938,
			"0.0": 16.7878748494,
			"0.001": 10.8615704383,
			"0.002": 8.48117186224,
			"0.003": 9.30385308053,
			"0.004": 10.5333436617,
			"0.005": 11.7784134569,
			"0.006": 17.4716907551,
			"0.007": 10.076268648,
			"0.008": 0.0,
			"0.009": 0.0,
			"0.01": 0.0,
			"0.011": 0.0,
			"0.012": 0.0,
			"0.013": 0.0,
			"0.014": 0.0,
			"0.015": 0.0,
			"0.016": 0.0,
			"0.017": 0.0,
			"0.018": 0.0,
			"0.019": 0.0,
			"0.02": 0.0,
			"0.021": 0.0,
			"0.022": 0.0,
			"0.023": 0.0,
			"0.024": 0.0,
			"0.025": 0.0
		}
	}
}
