{
	 "smiles": "CCCCCC#CC(O)=O", 
	 "Tm": 277.15, 
	 "num_atms": 22, 
	 "gaussian": { 
		 "optdone": 1, 
		 "sigma_profile": "yes", 
		 "theory": "DFT", 
		 "functional": "B3LYP", 
		 "basiset": "6-31G**", 
		 "properties": { 
			 "R2extent": 2413.1011, 
			 "electric_dipole_moment_norm": 5.11378201432, 
			 "electric_quadrupole_moment_norm": 13.8247849025, 
			 "total_energy": -462.481562433, 
			 "HOMO_LUMO_gap": 0.22908, 
			 "cosmo_polarized_energy": -12.63, 
			 "cosmo_cavitation_energy": 26.42, 
			 "cosmo_dispersion_energy": -18.3, 
			 "cosmo_repulsion_energy": 1.57, 
			 "cosmo_total_nonelectrostatic_energy": 9.68, 
			 "SMD_solvation_energy": 5.96 
		},
		"coords": [
			{
				"x": 1.276229786,
				"y": -2.2464576979,
				"z": 2.8022021026,
				"element": "C" 
			},
			{
				"x": 1.0052084558,
				"y": -0.9624523535,
				"z": 2.0112289268,
				"element": "C" 
			},
			{
				"x": 2.1413194746,
				"y": -0.6271632733,
				"z": 1.0328739017,
				"element": "C" 
			},
			{
				"x": 1.9952701693,
				"y": 0.6904812734,
				"z": 0.252475114,
				"element": "C" 
			},
			{
				"x": 0.9990206263,
				"y": 0.670327231,
				"z": -0.9341316428,
				"element": "C" 
			},
			{
				"x": -0.4140015532,
				"y": 0.6032075082,
				"z": -0.5704916635,
				"element": "C" 
			},
			{
				"x": -1.5896825397,
				"y": 0.5582949591,
				"z": -0.2762149383,
				"element": "C" 
			},
			{
				"x": -2.9653919263,
				"y": 0.4274709114,
				"z": 0.1658030402,
				"element": "C" 
			},
			{
				"x": -3.86985277,
				"y": 1.1231818342,
				"z": -0.5719409447,
				"element": "O" 
			},
			{
				"x": -3.3127670217,
				"y": -0.2392890352,
				"z": 1.1102411326,
				"element": "O" 
			},
			{
				"x": 0.4608583463,
				"y": -2.4613332437,
				"z": 3.4998430781,
				"element": "H" 
			},
			{
				"x": 2.2026395453,
				"y": -2.1697184632,
				"z": 3.3836577658,
				"element": "H" 
			},
			{
				"x": 1.376814734,
				"y": -3.1101442176,
				"z": 2.1346223098,
				"element": "H" 
			},
			{
				"x": 0.054295989,
				"y": -1.0571171716,
				"z": 1.4777698891,
				"element": "H" 
			},
			{
				"x": 0.8772492353,
				"y": -0.1233517907,
				"z": 2.7085729124,
				"element": "H" 
			},
			{
				"x": 2.2710371148,
				"y": -1.4553920483,
				"z": 0.3208591918,
				"element": "H" 
			},
			{
				"x": 3.0802627655,
				"y": -0.5757012536,
				"z": 1.6009045427,
				"element": "H" 
			},
			{
				"x": 2.9701514002,
				"y": 0.9566940222,
				"z": -0.1732223144,
				"element": "H" 
			},
			{
				"x": 1.7232628014,
				"y": 1.5044226624,
				"z": 0.9354196012,
				"element": "H" 
			},
			{
				"x": 1.2301844311,
				"y": -0.1842536666,
				"z": -1.5853065245,
				"element": "H" 
			},
			{
				"x": 1.1560404761,
				"y": 1.5678975705,
				"z": -1.5467266017,
				"element": "H" 
			},
			{
				"x": -3.4076495402,
				"y": 1.5945962427,
				"z": -1.2808388789,
				"element": "H" 
			}
		],
		 "valence_orbital": [ 
			{
				"type": "occ",
				"energy": -0.32394,
				"method": "rhf"
			},
			{
				"type": "occ",
				"energy": -0.3209,
				"method": "rhf"
			},
			{
				"type": "occ",
				"energy": -0.2966,
				"method": "rhf"
			},
			{
				"type": "occ",
				"energy": -0.28609,
				"method": "rhf"
			},
			{
				"type": "occ",
				"energy": -0.26824,
				"method": "rhf"
			},
			{
				"type": "unocc",
				"energy": -0.03916,
				"method": "rhf"
			},
			{
				"type": "unocc",
				"energy": 0.01828,
				"method": "rhf"
			},
			{
				"type": "unocc",
				"energy": 0.07726,
				"method": "rhf"
			},
			{
				"type": "unocc",
				"energy": 0.08619,
				"method": "rhf"
			},
			{
				"type": "unocc",
				"energy": 0.1029,
				"method": "rhf"
			}
		],
		"cosmo_sigma_profile": { 
			"-0.025": 0.0,
			"-0.024": 0.0,
			"-0.023": 0.0,
			"-0.022": 0.0,
			"-0.021": 0.0,
			"-0.02": 0.00197530350134,
			"-0.019": 0.583641274362,
			"-0.018": 0.885819062803,
			"-0.017": 1.21967379124,
			"-0.016": 0.525440128812,
			"-0.015": 0.785237743225,
			"-0.014": 0.424652191246,
			"-0.013": 0.961625976707,
			"-0.012": 1.46741684005,
			"-0.011": 0.512944196252,
			"-0.01": 0.53359063531,
			"-0.009": 1.28153214748,
			"-0.008": 0.765000211116,
			"-0.007": 1.43878117858,
			"-0.006": 5.52386974639,
			"-0.005": 6.62632986526,
			"-0.004": 10.173373812,
			"-0.003": 18.9467815262,
			"-0.002": 25.2545865968,
			"-0.001": 25.4018594893,
			"0.0": 24.0144464424,
			"0.001": 20.2314519571,
			"0.002": 14.4895601915,
			"0.003": 9.4958629,
			"0.004": 4.0208334864,
			"0.005": 3.343506073,
			"0.006": 2.40296049655,
			"0.007": 2.5015864142,
			"0.008": 3.5421878493,
			"0.009": 3.91704814881,
			"0.01": 5.78518651488,
			"0.011": 5.84146981741,
			"0.012": 4.01014899686,
			"0.013": 0.358759902029,
			"0.014": 0.0,
			"0.015": 0.0,
			"0.016": 0.0,
			"0.017": 0.0,
			"0.018": 0.0,
			"0.019": 0.0,
			"0.02": 0.0,
			"0.021": 0.0,
			"0.022": 0.0,
			"0.023": 0.0,
			"0.024": 0.0,
			"0.025": 0.0
		}
	}
}
