{
	 "smiles": "CCCCC1=CC=C(N)C=C1", 
	 "Tm": 259.15, 
	 "num_atms": 26, 
	 "gaussian": { 
		 "optdone": 1, 
		 "sigma_profile": "yes", 
		 "theory": "DFT", 
		 "functional": "B3LYP", 
		 "basiset": "6-31G**", 
		 "properties": { 
			 "R2extent": 2264.5581, 
			 "electric_dipole_moment_norm": 1.49947915624, 
			 "electric_quadrupole_moment_norm": 10.4931911219, 
			 "total_energy": -444.872707464, 
			 "HOMO_LUMO_gap": 0.19954, 
			 "cosmo_polarized_energy": -7.41, 
			 "cosmo_cavitation_energy": 27.83, 
			 "cosmo_dispersion_energy": -19.79, 
			 "cosmo_repulsion_energy": 1.62, 
			 "cosmo_total_nonelectrostatic_energy": 9.66, 
			 "SMD_solvation_energy": 4.34 
		},
		"coords": [
			{
				"x": -2.3717538132,
				"y": 0.8820390308,
				"z": -1.9922849977,
				"element": "C" 
			},
			{
				"x": -1.4618926658,
				"y": 0.5013547449,
				"z": -3.1674147525,
				"element": "C" 
			},
			{
				"x": -0.4096356938,
				"y": -0.5847998731,
				"z": -2.8764877884,
				"element": "C" 
			},
			{
				"x": 0.830506164,
				"y": -0.1431906866,
				"z": -2.0651971144,
				"element": "C" 
			},
			{
				"x": 0.6136840213,
				"y": 0.1445951341,
				"z": -0.5925374046,
				"element": "C" 
			},
			{
				"x": 0.2390910304,
				"y": -0.8719131535,
				"z": 0.2985595032,
				"element": "C" 
			},
			{
				"x": 0.0459502842,
				"y": -0.6234510771,
				"z": 1.6540125461,
				"element": "C" 
			},
			{
				"x": 0.2270141241,
				"y": 0.6680244047,
				"z": 2.1783979138,
				"element": "C" 
			},
			{
				"x": 0.0909320851,
				"y": 0.9108563553,
				"z": 3.550123517,
				"element": "N" 
			},
			{
				"x": 0.6106824514,
				"y": 1.6910713144,
				"z": 1.2975066448,
				"element": "C" 
			},
			{
				"x": 0.800847685,
				"y": 1.4251463582,
				"z": -0.0576795026,
				"element": "C" 
			},
			{
				"x": -3.1329245158,
				"y": 1.6032341381,
				"z": -2.3104511711,
				"element": "H" 
			},
			{
				"x": -2.8937934899,
				"y": 0.0009608652,
				"z": -1.6011549657,
				"element": "H" 
			},
			{
				"x": -1.8123409071,
				"y": 1.3254250815,
				"z": -1.1655092814,
				"element": "H" 
			},
			{
				"x": -2.092858299,
				"y": 0.1473736243,
				"z": -3.993430808,
				"element": "H" 
			},
			{
				"x": -0.9531527034,
				"y": 1.3992641217,
				"z": -3.5459027469,
				"element": "H" 
			},
			{
				"x": -0.8922008381,
				"y": -1.4345090166,
				"z": -2.3741952764,
				"element": "H" 
			},
			{
				"x": -0.0454197296,
				"y": -0.971669759,
				"z": -3.8373172652,
				"element": "H" 
			},
			{
				"x": 1.2654518698,
				"y": 0.7436106763,
				"z": -2.5439371389,
				"element": "H" 
			},
			{
				"x": 1.5861145009,
				"y": -0.9353194037,
				"z": -2.1603574526,
				"element": "H" 
			},
			{
				"x": 0.0953459334,
				"y": -1.8840216504,
				"z": -0.073515874,
				"element": "H" 
			},
			{
				"x": -0.2389952643,
				"y": -1.4355528717,
				"z": 2.319190123,
				"element": "H" 
			},
			{
				"x": -0.1188406367,
				"y": 1.8703467347,
				"z": 3.7903589733,
				"element": "H" 
			},
			{
				"x": -0.5206194928,
				"y": 0.2676037736,
				"z": 4.0344519469,
				"element": "H" 
			},
			{
				"x": 0.7671834461,
				"y": 2.6972941348,
				"z": 1.6796655225,
				"element": "H" 
			},
			{
				"x": 1.0992244537,
				"y": 2.2382269991,
				"z": -0.7157931502,
				"element": "H" 
			}
		],
		 "valence_orbital": [ 
			{
				"type": "occ",
				"energy": -0.31621,
				"method": "rhf"
			},
			{
				"type": "occ",
				"energy": -0.30858,
				"method": "rhf"
			},
			{
				"type": "occ",
				"energy": -0.28651,
				"method": "rhf"
			},
			{
				"type": "occ",
				"energy": -0.23994,
				"method": "rhf"
			},
			{
				"type": "occ",
				"energy": -0.19226,
				"method": "rhf"
			},
			{
				"type": "unocc",
				"energy": 0.00728,
				"method": "rhf"
			},
			{
				"type": "unocc",
				"energy": 0.02315,
				"method": "rhf"
			},
			{
				"type": "unocc",
				"energy": 0.08484,
				"method": "rhf"
			},
			{
				"type": "unocc",
				"energy": 0.09687,
				"method": "rhf"
			},
			{
				"type": "unocc",
				"energy": 0.11392,
				"method": "rhf"
			}
		],
		"cosmo_sigma_profile": { 
			"-0.025": 0.0,
			"-0.024": 0.0,
			"-0.023": 0.0,
			"-0.022": 0.0,
			"-0.021": 0.0,
			"-0.02": 0.0,
			"-0.019": 0.0,
			"-0.018": 0.0,
			"-0.017": 0.0,
			"-0.016": 0.0,
			"-0.015": 0.0,
			"-0.014": 0.0,
			"-0.013": 0.0,
			"-0.012": 1.47457560736,
			"-0.011": 2.60613851606,
			"-0.01": 3.2093846271,
			"-0.009": 2.68063419408,
			"-0.008": 2.74600463785,
			"-0.007": 3.44611022429,
			"-0.006": 3.2814119834,
			"-0.005": 5.6258562594,
			"-0.004": 8.66897980515,
			"-0.003": 12.3986957319,
			"-0.002": 25.8864725586,
			"-0.001": 25.0231545997,
			"0.0": 27.1187336134,
			"0.001": 26.5874788417,
			"0.002": 19.0932611042,
			"0.003": 8.12256804373,
			"0.004": 7.48866241254,
			"0.005": 7.87360646078,
			"0.006": 8.17039772996,
			"0.007": 7.86809158363,
			"0.008": 2.49579930039,
			"0.009": 1.17608282334,
			"0.01": 0.553670442995,
			"0.011": 0.548787721794,
			"0.012": 0.70201404678,
			"0.013": 0.933755735635,
			"0.014": 0.607419240255,
			"0.015": 0.532597745008,
			"0.016": 0.0770986119327,
			"0.017": 0.0,
			"0.018": 0.0,
			"0.019": 0.0,
			"0.02": 0.0,
			"0.021": 0.0,
			"0.022": 0.0,
			"0.023": 0.0,
			"0.024": 0.0,
			"0.025": 0.0
		}
	}
}
