{
	 "smiles": "CC(C)C(O)=O", 
	 "Tm": 226.65, 
	 "num_atms": 14, 
	 "gaussian": { 
		 "optdone": 1, 
		 "sigma_profile": "yes", 
		 "theory": "DFT", 
		 "functional": "B3LYP", 
		 "basiset": "6-31G**", 
		 "properties": { 
			 "R2extent": 2096.0852, 
			 "electric_dipole_moment_norm": 1.54346931618, 
			 "electric_quadrupole_moment_norm": 3.65765096749, 
			 "total_energy": -307.72002268, 
			 "HOMO_LUMO_gap": 0.28094, 
			 "cosmo_polarized_energy": -7.54, 
			 "cosmo_cavitation_energy": 17.23, 
			 "cosmo_dispersion_energy": -12.59, 
			 "cosmo_repulsion_energy": 1.11, 
			 "cosmo_total_nonelectrostatic_energy": 5.75, 
			 "SMD_solvation_energy": 4.48 
		},
		"coords": [
			{
				"x": 2.2109367147,
				"y": -1.5652780981,
				"z": 0.5752050754,
				"element": "C" 
			},
			{
				"x": 1.4967426344,
				"y": -2.9158663131,
				"z": 0.4851029753,
				"element": "C" 
			},
			{
				"x": 1.3372957273,
				"y": -3.3968880792,
				"z": -0.9724018615,
				"element": "C" 
			},
			{
				"x": 0.1346780472,
				"y": -2.8511035867,
				"z": 1.1575069595,
				"element": "C" 
			},
			{
				"x": -0.3992478315,
				"y": -4.0879246283,
				"z": 1.3305153931,
				"element": "O" 
			},
			{
				"x": -0.4474694661,
				"y": -1.8450370773,
				"z": 1.5002193818,
				"element": "O" 
			},
			{
				"x": 3.1980135244,
				"y": -1.6272238005,
				"z": 0.1067429437,
				"element": "H" 
			},
			{
				"x": 1.6330944042,
				"y": -0.7881249625,
				"z": 0.0672447842,
				"element": "H" 
			},
			{
				"x": 2.3412194037,
				"y": -1.2514016496,
				"z": 1.6143770721,
				"element": "H" 
			},
			{
				"x": 2.0720546661,
				"y": -3.6779379222,
				"z": 1.0269411155,
				"element": "H" 
			},
			{
				"x": 2.3195415537,
				"y": -3.4869168842,
				"z": -1.4461355841,
				"element": "H" 
			},
			{
				"x": 0.7476018516,
				"y": -2.6805932999,
				"z": -1.5546844716,
				"element": "H" 
			},
			{
				"x": 0.8414396277,
				"y": -4.3695690993,
				"z": -1.0182482386,
				"element": "H" 
			},
			{
				"x": -1.2694008573,
				"y": -3.9484345991,
				"z": 1.7404144552,
				"element": "H" 
			}
		],
		 "valence_orbital": [ 
			{
				"type": "occ",
				"energy": -0.36124,
				"method": "rhf"
			},
			{
				"type": "occ",
				"energy": -0.34851,
				"method": "rhf"
			},
			{
				"type": "occ",
				"energy": -0.34274,
				"method": "rhf"
			},
			{
				"type": "occ",
				"energy": -0.31592,
				"method": "rhf"
			},
			{
				"type": "occ",
				"energy": -0.2704,
				"method": "rhf"
			},
			{
				"type": "unocc",
				"energy": 0.01054,
				"method": "rhf"
			},
			{
				"type": "unocc",
				"energy": 0.07755,
				"method": "rhf"
			},
			{
				"type": "unocc",
				"energy": 0.09951,
				"method": "rhf"
			},
			{
				"type": "unocc",
				"energy": 0.13849,
				"method": "rhf"
			},
			{
				"type": "unocc",
				"energy": 0.14931,
				"method": "rhf"
			}
		],
		"cosmo_sigma_profile": { 
			"-0.025": 0.0,
			"-0.024": 0.0,
			"-0.023": 0.0,
			"-0.022": 0.0,
			"-0.021": 0.0,
			"-0.02": 0.0,
			"-0.019": 0.0,
			"-0.018": 0.515569942221,
			"-0.017": 0.754118042741,
			"-0.016": 1.1078785071,
			"-0.015": 1.05182728125,
			"-0.014": 0.416558111225,
			"-0.013": 0.259412146527,
			"-0.012": 0.605212866065,
			"-0.011": 0.817156365152,
			"-0.01": 1.01460968796,
			"-0.009": 0.664313118541,
			"-0.008": 0.833543116107,
			"-0.007": 0.598624015276,
			"-0.006": 0.661682064634,
			"-0.005": 2.97052309208,
			"-0.004": 8.89496525922,
			"-0.003": 19.5165730787,
			"-0.002": 16.3380443793,
			"-0.001": 14.5617757824,
			"0.0": 15.8880575058,
			"0.001": 11.3336447652,
			"0.002": 3.83508524592,
			"0.003": 3.31468541674,
			"0.004": 2.54904623003,
			"0.005": 3.23694387968,
			"0.006": 2.72318185628,
			"0.007": 1.99130546003,
			"0.008": 2.59818675134,
			"0.009": 3.22105267126,
			"0.01": 2.42426544156,
			"0.011": 3.04625547415,
			"0.012": 5.2198348922,
			"0.013": 0.958141188362,
			"0.014": 0.0,
			"0.015": 0.0,
			"0.016": 0.0,
			"0.017": 0.0,
			"0.018": 0.0,
			"0.019": 0.0,
			"0.02": 0.0,
			"0.021": 0.0,
			"0.022": 0.0,
			"0.023": 0.0,
			"0.024": 0.0,
			"0.025": 0.0
		}
	}
}
