{
	 "smiles": "CNC1=C(C)C=C(C=C1)C(=O)N1CCOCC1", 
	 "Tm": 381.15, 
	 "num_atms": 35, 
	 "gaussian": { 
		 "optdone": 1, 
		 "sigma_profile": "yes", 
		 "theory": "DFT", 
		 "functional": "B3LYP", 
		 "basiset": "6-31G**", 
		 "properties": { 
			 "R2extent": 6764.2992, 
			 "electric_dipole_moment_norm": 4.25068189941, 
			 "electric_quadrupole_moment_norm": 16.3159835116, 
			 "total_energy": -766.181411035, 
			 "HOMO_LUMO_gap": 0.18868, 
			 "cosmo_polarized_energy": -15.15, 
			 "cosmo_cavitation_energy": 36.2, 
			 "cosmo_dispersion_energy": -26.18, 
			 "cosmo_repulsion_energy": 2.03, 
			 "cosmo_total_nonelectrostatic_energy": 12.05, 
			 "SMD_solvation_energy": 5.31 
		},
		"coords": [
			{
				"x": -1.444283745,
				"y": 3.9260676256,
				"z": -4.1920977916,
				"element": "C" 
			},
			{
				"x": -2.546320401,
				"y": 3.3124507969,
				"z": -3.4443137976,
				"element": "N" 
			},
			{
				"x": -2.2569030767,
				"y": 2.5963287974,
				"z": -2.262059996,
				"element": "C" 
			},
			{
				"x": -1.7474585012,
				"y": 3.2474787308,
				"z": -1.1112553712,
				"element": "C" 
			},
			{
				"x": -1.5213894293,
				"y": 4.7396067867,
				"z": -1.0770961084,
				"element": "C" 
			},
			{
				"x": -1.5232520405,
				"y": 2.4862212893,
				"z": 0.0365165046,
				"element": "C" 
			},
			{
				"x": -1.7764945574,
				"y": 1.1099006416,
				"z": 0.0933585215,
				"element": "C" 
			},
			{
				"x": -2.326089445,
				"y": 0.4884867426,
				"z": -1.0348007646,
				"element": "C" 
			},
			{
				"x": -2.555243126,
				"y": 1.2247059771,
				"z": -2.1922492423,
				"element": "C" 
			},
			{
				"x": -1.5789010131,
				"y": 0.4134272107,
				"z": 1.4073623869,
				"element": "C" 
			},
			{
				"x": -1.8774342336,
				"y": 0.9736177544,
				"z": 2.4601686871,
				"element": "O" 
			},
			{
				"x": -1.1063457795,
				"y": -0.8894840893,
				"z": 1.3958820652,
				"element": "N" 
			},
			{
				"x": -1.0092707535,
				"y": -1.5861957552,
				"z": 2.680732192,
				"element": "C" 
			},
			{
				"x": -1.212368911,
				"y": -3.0828356682,
				"z": 2.4540414915,
				"element": "C" 
			},
			{
				"x": -0.2914897182,
				"y": -3.6004231871,
				"z": 1.4992096874,
				"element": "O" 
			},
			{
				"x": -0.4192489495,
				"y": -2.9370896879,
				"z": 0.2505774611,
				"element": "C" 
			},
			{
				"x": -0.183971746,
				"y": -1.4334298969,
				"z": 0.3947628436,
				"element": "C" 
			},
			{
				"x": -1.8491451201,
				"y": 4.3615521835,
				"z": -5.1098144282,
				"element": "H" 
			},
			{
				"x": -0.988809895,
				"y": 4.7354953604,
				"z": -3.6197057377,
				"element": "H" 
			},
			{
				"x": -0.6504515296,
				"y": 3.2131469689,
				"z": -4.4647554816,
				"element": "H" 
			},
			{
				"x": -3.102039331,
				"y": 2.7374356526,
				"z": -4.0677153468,
				"element": "H" 
			},
			{
				"x": -2.2881368331,
				"y": 5.2603934968,
				"z": -1.6591967535,
				"element": "H" 
			},
			{
				"x": -0.5446706888,
				"y": 5.0262173527,
				"z": -1.4872010035,
				"element": "H" 
			},
			{
				"x": -1.557651449,
				"y": 5.1077365705,
				"z": -0.0482308239,
				"element": "H" 
			},
			{
				"x": -1.1697873739,
				"y": 2.9764392758,
				"z": 0.9389377414,
				"element": "H" 
			},
			{
				"x": -2.5935969538,
				"y": -0.5635599557,
				"z": -1.0045065361,
				"element": "H" 
			},
			{
				"x": -2.976553024,
				"y": 0.7327487409,
				"z": -3.0664964136,
				"element": "H" 
			},
			{
				"x": -1.764478909,
				"y": -1.176792262,
				"z": 3.3527448282,
				"element": "H" 
			},
			{
				"x": -0.0224498552,
				"y": -1.4107173571,
				"z": 3.1354540282,
				"element": "H" 
			},
			{
				"x": -1.0413372359,
				"y": -3.6375479164,
				"z": 3.3810648953,
				"element": "H" 
			},
			{
				"x": -2.2467415548,
				"y": -3.2671003139,
				"z": 2.1200453059,
				"element": "H" 
			},
			{
				"x": -1.4209045867,
				"y": -3.1146769132,
				"z": -0.1765282331,
				"element": "H" 
			},
			{
				"x": 0.327846882,
				"y": -3.3783396643,
				"z": -0.4159693651,
				"element": "H" 
			},
			{
				"x": 0.8544187926,
				"y": -1.2695549748,
				"z": 0.7241994306,
				"element": "H" 
			},
			{
				"x": -0.3182459082,
				"y": -0.9276103132,
				"z": -0.560764876,
				"element": "H" 
			}
		],
		 "valence_orbital": [ 
			{
				"type": "occ",
				"energy": -0.26736,
				"method": "rhf"
			},
			{
				"type": "occ",
				"energy": -0.25064,
				"method": "rhf"
			},
			{
				"type": "occ",
				"energy": -0.24277,
				"method": "rhf"
			},
			{
				"type": "occ",
				"energy": -0.22864,
				"method": "rhf"
			},
			{
				"type": "occ",
				"energy": -0.20992,
				"method": "rhf"
			},
			{
				"type": "unocc",
				"energy": -0.02124,
				"method": "rhf"
			},
			{
				"type": "unocc",
				"energy": -0.00247,
				"method": "rhf"
			},
			{
				"type": "unocc",
				"energy": 0.05045,
				"method": "rhf"
			},
			{
				"type": "unocc",
				"energy": 0.07959,
				"method": "rhf"
			},
			{
				"type": "unocc",
				"energy": 0.09176,
				"method": "rhf"
			}
		],
		"cosmo_sigma_profile": { 
			"-0.025": 0.0,
			"-0.024": 0.0,
			"-0.023": 0.0,
			"-0.022": 0.0,
			"-0.021": 0.0,
			"-0.02": 0.0,
			"-0.019": 0.0,
			"-0.018": 0.0,
			"-0.017": 0.0,
			"-0.016": 0.0,
			"-0.015": 0.0,
			"-0.014": 0.0,
			"-0.013": 0.0,
			"-0.012": 0.514944170275,
			"-0.011": 1.56622200791,
			"-0.01": 1.63337664568,
			"-0.009": 1.63796168804,
			"-0.008": 1.38603817302,
			"-0.007": 1.73062880072,
			"-0.006": 5.29715437829,
			"-0.005": 22.2018141203,
			"-0.004": 37.8088566443,
			"-0.003": 34.3167544951,
			"-0.002": 30.468754326,
			"-0.001": 28.025482327,
			"0.0": 20.4299439559,
			"0.001": 14.7315538554,
			"0.002": 10.4346982944,
			"0.003": 9.91635173524,
			"0.004": 11.2844175873,
			"0.005": 11.7969333665,
			"0.006": 6.06538835115,
			"0.007": 4.16156886583,
			"0.008": 3.22745318379,
			"0.009": 3.23984858533,
			"0.01": 3.94410670979,
			"0.011": 3.33511620242,
			"0.012": 4.03363247739,
			"0.013": 5.26538948579,
			"0.014": 4.8377636029,
			"0.015": 0.718128996307,
			"0.016": 0.0,
			"0.017": 0.0,
			"0.018": 0.0,
			"0.019": 0.0,
			"0.02": 0.0,
			"0.021": 0.0,
			"0.022": 0.0,
			"0.023": 0.0,
			"0.024": 0.0,
			"0.025": 0.0
		}
	}
}
