{
	 "smiles": "NC1=C(C=CC=C1[N+]([O-])=O)[N+]([O-])=O", 
	 "Tm": 415.15, 
	 "num_atms": 18, 
	 "gaussian": { 
		 "optdone": 1, 
		 "sigma_profile": "yes", 
		 "theory": "DFT", 
		 "functional": "B3LYP", 
		 "basiset": "6-31G**", 
		 "properties": { 
			 "R2extent": 2384.5553, 
			 "electric_dipole_moment_norm": 1.84966728359, 
			 "electric_quadrupole_moment_norm": 16.9955171198, 
			 "total_energy": -696.609267721, 
			 "HOMO_LUMO_gap": 0.13669, 
			 "cosmo_polarized_energy": -11.08, 
			 "cosmo_cavitation_energy": 23.14, 
			 "cosmo_dispersion_energy": -17.85, 
			 "cosmo_repulsion_energy": 1.39, 
			 "cosmo_total_nonelectrostatic_energy": 6.68, 
			 "SMD_solvation_energy": 7.95 
		},
		"coords": [
			{
				"x": 1.5495209066,
				"y": 1.0212469402,
				"z": -0.2753757461,
				"element": "N" 
			},
			{
				"x": 0.5596913069,
				"y": 0.1871611622,
				"z": 0.0630137104,
				"element": "C" 
			},
			{
				"x": -0.8248665816,
				"y": 0.4717577224,
				"z": -0.2043327183,
				"element": "C" 
			},
			{
				"x": -1.8471434859,
				"y": -0.4052182935,
				"z": 0.1541755354,
				"element": "C" 
			},
			{
				"x": -1.571357268,
				"y": -1.6078266011,
				"z": 0.7928515053,
				"element": "C" 
			},
			{
				"x": -0.2489730615,
				"y": -1.9291551843,
				"z": 1.0726386868,
				"element": "C" 
			},
			{
				"x": 0.7911577867,
				"y": -1.0692059596,
				"z": 0.7244076801,
				"element": "C" 
			},
			{
				"x": 2.1350689285,
				"y": -1.5161199138,
				"z": 1.0700107435,
				"element": "N" 
			},
			{
				"x": 3.1057036688,
				"y": -0.7919276301,
				"z": 0.7859759148,
				"element": "O" 
			},
			{
				"x": 2.2599680736,
				"y": -2.6013920501,
				"z": 1.6339563662,
				"element": "O" 
			},
			{
				"x": -1.239035433,
				"y": 1.7011373122,
				"z": -0.8694186871,
				"element": "N" 
			},
			{
				"x": -2.4392936529,
				"y": 1.8795463172,
				"z": -1.0668914319,
				"element": "O" 
			},
			{
				"x": -0.3727007942,
				"y": 2.5246636388,
				"z": -1.2137286734,
				"element": "O" 
			},
			{
				"x": 2.4942846872,
				"y": 0.7394139248,
				"z": -0.0495068836,
				"element": "H" 
			},
			{
				"x": 1.2946374217,
				"y": 1.8835713364,
				"z": -0.7384677213,
				"element": "H" 
			},
			{
				"x": -2.8616035711,
				"y": -0.1122306497,
				"z": -0.0846475954,
				"element": "H" 
			},
			{
				"x": -2.3729447463,
				"y": -2.2828223386,
				"z": 1.0676902327,
				"element": "H" 
			},
			{
				"x": 0.0145858145,
				"y": -2.8547997336,
				"z": 1.5683490818,
				"element": "H" 
			}
		],
		 "valence_orbital": [ 
			{
				"type": "occ",
				"energy": -0.31898,
				"method": "rhf"
			},
			{
				"type": "occ",
				"energy": -0.31143,
				"method": "rhf"
			},
			{
				"type": "occ",
				"energy": -0.30581,
				"method": "rhf"
			},
			{
				"type": "occ",
				"energy": -0.30027,
				"method": "rhf"
			},
			{
				"type": "occ",
				"energy": -0.25059,
				"method": "rhf"
			},
			{
				"type": "unocc",
				"energy": -0.1139,
				"method": "rhf"
			},
			{
				"type": "unocc",
				"energy": -0.08842,
				"method": "rhf"
			},
			{
				"type": "unocc",
				"energy": -0.01983,
				"method": "rhf"
			},
			{
				"type": "unocc",
				"energy": -0.00446,
				"method": "rhf"
			},
			{
				"type": "unocc",
				"energy": 0.06484,
				"method": "rhf"
			}
		],
		"cosmo_sigma_profile": { 
			"-0.025": 0.0,
			"-0.024": 0.0,
			"-0.023": 0.0,
			"-0.022": 0.0,
			"-0.021": 0.0,
			"-0.02": 0.0,
			"-0.019": 0.0,
			"-0.018": 0.0,
			"-0.017": 0.0,
			"-0.016": 0.0,
			"-0.015": 0.0,
			"-0.014": 0.0,
			"-0.013": 0.0,
			"-0.012": 0.373961736116,
			"-0.011": 1.29521225089,
			"-0.01": 2.25773263421,
			"-0.009": 1.34671174259,
			"-0.008": 6.12923640146,
			"-0.007": 8.31808191404,
			"-0.006": 10.9168200193,
			"-0.005": 10.6430102896,
			"-0.004": 10.8108040786,
			"-0.003": 17.4385212154,
			"-0.002": 17.5024929432,
			"-0.001": 14.3584848078,
			"0.0": 11.630824109,
			"0.001": 10.3654433699,
			"0.002": 5.85783950981,
			"0.003": 4.15203582758,
			"0.004": 4.64229638856,
			"0.005": 5.8865977553,
			"0.006": 7.25886322702,
			"0.007": 10.1739725188,
			"0.008": 10.9600349383,
			"0.009": 8.19104540636,
			"0.01": 5.88886667279,
			"0.011": 0.367432564393,
			"0.012": 0.0,
			"0.013": 0.0,
			"0.014": 0.0,
			"0.015": 0.0,
			"0.016": 0.0,
			"0.017": 0.0,
			"0.018": 0.0,
			"0.019": 0.0,
			"0.02": 0.0,
			"0.021": 0.0,
			"0.022": 0.0,
			"0.023": 0.0,
			"0.024": 0.0,
			"0.025": 0.0
		}
	}
}
