{
	 "smiles": "CC(=O)OC1=C(NC2=CC(=CC=C12)[N+]([O-])=O)C1=CC=CC(=C1)C1=C(OC(C)=O)C2=C(N1)C=C(C=C2)[N+]([O-])=O", 
	 "Tm": 577.15, 
	 "num_atms": 56, 
	 "gaussian": { 
		 "optdone": 1, 
		 "sigma_profile": "yes", 
		 "theory": "DFT", 
		 "functional": "B3LYP", 
		 "basiset": "6-31G**", 
		 "properties": { 
			 "R2extent": 28148.116, 
			 "electric_dipole_moment_norm": 1.57000283439, 
			 "electric_quadrupole_moment_norm": 97.5565443792, 
			 "total_energy": -1822.25602128, 
			 "HOMO_LUMO_gap": 0.13332, 
			 "cosmo_polarized_energy": -36.5, 
			 "cosmo_cavitation_energy": 64.72, 
			 "cosmo_dispersion_energy": -41.84, 
			 "cosmo_repulsion_energy": 3.06, 
			 "cosmo_total_nonelectrostatic_energy": 25.94, 
			 "SMD_solvation_energy": 16.43 
		},
		"coords": [
			{
				"x": 0.5184449262,
				"y": 2.5969459135,
				"z": -1.6715251389,
				"element": "C" 
			},
			{
				"x": 1.6523365343,
				"y": 1.6266126377,
				"z": -1.8719991842,
				"element": "C" 
			},
			{
				"x": 2.8291464116,
				"y": 1.8647143128,
				"z": -1.8437358502,
				"element": "O" 
			},
			{
				"x": 1.1413232491,
				"y": 0.3552879415,
				"z": -2.1083259145,
				"element": "O" 
			},
			{
				"x": 2.0447623786,
				"y": -0.671015311,
				"z": -2.3304128594,
				"element": "C" 
			},
			{
				"x": 2.5154503937,
				"y": -1.5618452033,
				"z": -1.3763924244,
				"element": "C" 
			},
			{
				"x": 3.3573347912,
				"y": -2.4512102151,
				"z": -2.031050868,
				"element": "N" 
			},
			{
				"x": 3.4080466748,
				"y": -2.1573463141,
				"z": -3.376190658,
				"element": "C" 
			},
			{
				"x": 4.0938203312,
				"y": -2.7919286692,
				"z": -4.4077880603,
				"element": "C" 
			},
			{
				"x": 3.9445306367,
				"y": -2.2386573437,
				"z": -5.6746383191,
				"element": "C" 
			},
			{
				"x": 3.1550035657,
				"y": -1.10011128,
				"z": -5.9346057835,
				"element": "C" 
			},
			{
				"x": 2.4776062852,
				"y": -0.4827482934,
				"z": -4.8982858533,
				"element": "C" 
			},
			{
				"x": 2.5928134907,
				"y": -1.0116332942,
				"z": -3.5986699275,
				"element": "C" 
			},
			{
				"x": 4.6480087376,
				"y": -2.8762866421,
				"z": -6.7914929307,
				"element": "N" 
			},
			{
				"x": 5.3323223652,
				"y": -3.8724942752,
				"z": -6.5460818124,
				"element": "O" 
			},
			{
				"x": 4.5150579335,
				"y": -2.3818752185,
				"z": -7.911799233,
				"element": "O" 
			},
			{
				"x": 2.2702812133,
				"y": -1.6567810189,
				"z": 0.064143647,
				"element": "C" 
			},
			{
				"x": 3.1108525889,
				"y": -2.4214229712,
				"z": 0.8950538448,
				"element": "C" 
			},
			{
				"x": 2.8396629316,
				"y": -2.5326077912,
				"z": 2.2561387583,
				"element": "C" 
			},
			{
				"x": 1.7466738623,
				"y": -1.8783640697,
				"z": 2.8180973233,
				"element": "C" 
			},
			{
				"x": 0.9089868981,
				"y": -1.0796671917,
				"z": 2.0168705761,
				"element": "C" 
			},
			{
				"x": 1.1812127598,
				"y": -0.9876355237,
				"z": 0.6433078456,
				"element": "C" 
			},
			{
				"x": -0.22086032,
				"y": -0.3510181009,
				"z": 2.5971901737,
				"element": "C" 
			},
			{
				"x": -1.3348063304,
				"y": 0.2323665691,
				"z": 2.0106637594,
				"element": "C" 
			},
			{
				"x": -1.6002888459,
				"y": 0.2930853032,
				"z": 0.6524977034,
				"element": "O" 
			},
			{
				"x": -2.4233426562,
				"y": -0.687543127,
				"z": 0.1100812633,
				"element": "C" 
			},
			{
				"x": -2.6003459435,
				"y": -0.438701338,
				"z": -1.3644259076,
				"element": "C" 
			},
			{
				"x": -2.8985764711,
				"y": -1.5776848302,
				"z": 0.7613650575,
				"element": "O" 
			},
			{
				"x": -2.1446316762,
				"y": 0.8167993633,
				"z": 3.0242975425,
				"element": "C" 
			},
			{
				"x": -1.4672746023,
				"y": 0.5741932439,
				"z": 4.2527691302,
				"element": "C" 
			},
			{
				"x": -0.3276657503,
				"y": -0.1452516189,
				"z": 3.9663378099,
				"element": "N" 
			},
			{
				"x": -1.9584474528,
				"y": 1.0282075903,
				"z": 5.4733425607,
				"element": "C" 
			},
			{
				"x": -3.1580394616,
				"y": 1.7298672922,
				"z": 5.4288201482,
				"element": "C" 
			},
			{
				"x": -3.864029565,
				"y": 1.9822411205,
				"z": 4.2350427767,
				"element": "C" 
			},
			{
				"x": -3.3605646244,
				"y": 1.5263626462,
				"z": 3.0297840362,
				"element": "C" 
			},
			{
				"x": -3.7112548402,
				"y": 2.2282922565,
				"z": 6.6914875914,
				"element": "N" 
			},
			{
				"x": -3.0791752999,
				"y": 2.0004031768,
				"z": 7.7256443783,
				"element": "O" 
			},
			{
				"x": -4.7752595919,
				"y": 2.8473422054,
				"z": 6.6481272883,
				"element": "O" 
			},
			{
				"x": 0.9224389039,
				"y": 3.572673339,
				"z": -1.4045657595,
				"element": "H" 
			},
			{
				"x": -0.1558480192,
				"y": 2.2358135541,
				"z": -0.8895905841,
				"element": "H" 
			},
			{
				"x": -0.0639190326,
				"y": 2.6799972882,
				"z": -2.5946098475,
				"element": "H" 
			},
			{
				"x": 3.7167717393,
				"y": -3.2966169558,
				"z": -1.618037879,
				"element": "H" 
			},
			{
				"x": 4.7173161229,
				"y": -3.6656942764,
				"z": -4.2652243919,
				"element": "H" 
			},
			{
				"x": 3.0966802512,
				"y": -0.7327681485,
				"z": -6.9507541625,
				"element": "H" 
			},
			{
				"x": 1.8647467548,
				"y": 0.3925484345,
				"z": -5.085472355,
				"element": "H" 
			},
			{
				"x": 3.9914793326,
				"y": -2.9116233576,
				"z": 0.491609888,
				"element": "H" 
			},
			{
				"x": 3.4869462716,
				"y": -3.1355194734,
				"z": 2.8855555889,
				"element": "H" 
			},
			{
				"x": 1.5376452806,
				"y": -2.0139038529,
				"z": 3.8747449837,
				"element": "H" 
			},
			{
				"x": 0.5377864093,
				"y": -0.3880827418,
				"z": 0.0176337369,
				"element": "H" 
			},
			{
				"x": -3.1259555477,
				"y": 0.5089830153,
				"z": -1.5184653965,
				"element": "H" 
			},
			{
				"x": -3.1779998355,
				"y": -1.2528908337,
				"z": -1.8002360977,
				"element": "H" 
			},
			{
				"x": -1.6258967327,
				"y": -0.3568071203,
				"z": -1.8546267144,
				"element": "H" 
			},
			{
				"x": 0.4141511523,
				"y": -0.3241750259,
				"z": 4.6237526774,
				"element": "H" 
			},
			{
				"x": -1.4611021334,
				"y": 0.8595463191,
				"z": 6.4203076945,
				"element": "H" 
			},
			{
				"x": -4.7933374038,
				"y": 2.5337367205,
				"z": 4.2910229221,
				"element": "H" 
			},
			{
				"x": -3.8928190413,
				"y": 1.7162911841,
				"z": 2.1038132067,
				"element": "H" 
			}
		],
		 "valence_orbital": [ 
			{
				"type": "occ",
				"energy": -0.28568,
				"method": "rhf"
			},
			{
				"type": "occ",
				"energy": -0.2535,
				"method": "rhf"
			},
			{
				"type": "occ",
				"energy": -0.24971,
				"method": "rhf"
			},
			{
				"type": "occ",
				"energy": -0.22912,
				"method": "rhf"
			},
			{
				"type": "occ",
				"energy": -0.22758,
				"method": "rhf"
			},
			{
				"type": "unocc",
				"energy": -0.09426,
				"method": "rhf"
			},
			{
				"type": "unocc",
				"energy": -0.08866,
				"method": "rhf"
			},
			{
				"type": "unocc",
				"energy": -0.05793,
				"method": "rhf"
			},
			{
				"type": "unocc",
				"energy": -0.05076,
				"method": "rhf"
			},
			{
				"type": "unocc",
				"energy": -0.01863,
				"method": "rhf"
			}
		],
		"cosmo_sigma_profile": { 
			"-0.025": 0.0,
			"-0.024": 0.0,
			"-0.023": 0.0,
			"-0.022": 0.0,
			"-0.021": 0.0,
			"-0.02": 0.0,
			"-0.019": 0.0,
			"-0.018": 0.0,
			"-0.017": 1.03234982633,
			"-0.016": 3.06185661898,
			"-0.015": 2.97670603423,
			"-0.014": 2.94846550112,
			"-0.013": 2.69604315013,
			"-0.012": 3.22269625411,
			"-0.011": 3.27379688318,
			"-0.01": 2.78627289549,
			"-0.009": 4.1941692888,
			"-0.008": 6.61478343995,
			"-0.007": 15.3293278409,
			"-0.006": 24.9674245616,
			"-0.005": 28.1923566745,
			"-0.004": 31.5864513593,
			"-0.003": 33.9641347239,
			"-0.002": 38.3527628708,
			"-0.001": 35.5534681495,
			"0.0": 42.2006326995,
			"0.001": 50.3501665726,
			"0.002": 43.1313307293,
			"0.003": 29.836468469,
			"0.004": 15.1157062479,
			"0.005": 8.3737624409,
			"0.006": 10.0648936235,
			"0.007": 12.4155791469,
			"0.008": 25.3096460287,
			"0.009": 14.4820886081,
			"0.01": 14.8531863362,
			"0.011": 12.1262103482,
			"0.012": 2.1083973115,
			"0.013": 0.0,
			"0.014": 0.0,
			"0.015": 0.0,
			"0.016": 0.0,
			"0.017": 0.0,
			"0.018": 0.0,
			"0.019": 0.0,
			"0.02": 0.0,
			"0.021": 0.0,
			"0.022": 0.0,
			"0.023": 0.0,
			"0.024": 0.0,
			"0.025": 0.0
		}
	}
}
