{
	 "smiles": "COC1=C2OC(=CC2=C(C=O)C=C1)C(O)=O", 
	 "Tm": 538.15, 
	 "num_atms": 24, 
	 "gaussian": { 
		 "optdone": 1, 
		 "sigma_profile": "yes", 
		 "theory": "DFT", 
		 "functional": "B3LYP", 
		 "basiset": "6-31G**", 
		 "properties": { 
			 "R2extent": 4165.2964, 
			 "electric_dipole_moment_norm": 6.84354698092, 
			 "electric_quadrupole_moment_norm": 19.4144205731, 
			 "total_energy": -800.08498243, 
			 "HOMO_LUMO_gap": 0.15288, 
			 "cosmo_polarized_energy": -18.05, 
			 "cosmo_cavitation_energy": 29.78, 
			 "cosmo_dispersion_energy": -21.41, 
			 "cosmo_repulsion_energy": 1.64, 
			 "cosmo_total_nonelectrostatic_energy": 10.01, 
			 "SMD_solvation_energy": 8.38 
		},
		"coords": [
			{
				"x": 1.1137884649,
				"y": 1.7442726528,
				"z": -2.2518205201,
				"element": "C" 
			},
			{
				"x": 1.5476270252,
				"y": 0.4975359458,
				"z": -1.7052827538,
				"element": "O" 
			},
			{
				"x": 0.9499987074,
				"y": -0.0240918158,
				"z": -0.6117439723,
				"element": "C" 
			},
			{
				"x": -0.1177485487,
				"y": 0.5173925691,
				"z": 0.1273090549,
				"element": "C" 
			},
			{
				"x": -0.7804326748,
				"y": 1.6982850846,
				"z": -0.1105084467,
				"element": "O" 
			},
			{
				"x": -1.7462884207,
				"y": 1.8017165449,
				"z": 0.8762816611,
				"element": "C" 
			},
			{
				"x": -1.7179865231,
				"y": 0.7374177025,
				"z": 1.7222221212,
				"element": "C" 
			},
			{
				"x": -0.6635932463,
				"y": -0.1189246843,
				"z": 1.2577197509,
				"element": "C" 
			},
			{
				"x": -0.1405955739,
				"y": -1.356967162,
				"z": 1.6976572457,
				"element": "C" 
			},
			{
				"x": -0.6723915821,
				"y": -2.0633106384,
				"z": 2.8702244812,
				"element": "C" 
			},
			{
				"x": -1.5926189685,
				"y": -1.6699314242,
				"z": 3.5675371086,
				"element": "O" 
			},
			{
				"x": 0.9208212311,
				"y": -1.8957988462,
				"z": 0.9635283494,
				"element": "C" 
			},
			{
				"x": 1.4517972475,
				"y": -1.2529595069,
				"z": -0.1558109846,
				"element": "C" 
			},
			{
				"x": -2.6142671677,
				"y": 2.9980419116,
				"z": 0.8536159663,
				"element": "C" 
			},
			{
				"x": -2.3670370243,
				"y": 3.8788423402,
				"z": -0.1458485114,
				"element": "O" 
			},
			{
				"x": -3.485550384,
				"y": 3.1834939154,
				"z": 1.6684135575,
				"element": "O" 
			},
			{
				"x": 0.0712069174,
				"y": 1.693941886,
				"z": -2.5803535509,
				"element": "H" 
			},
			{
				"x": 1.7583264585,
				"y": 1.9212845417,
				"z": -3.1133065486,
				"element": "H" 
			},
			{
				"x": 1.2355831125,
				"y": 2.5589483427,
				"z": -1.5314658079,
				"element": "H" 
			},
			{
				"x": -2.3601846431,
				"y": 0.5713872675,
				"z": 2.5719726009,
				"element": "H" 
			},
			{
				"x": -0.1601158427,
				"y": -3.0252405772,
				"z": 3.0943521489,
				"element": "H" 
			},
			{
				"x": 1.3468950434,
				"y": -2.8464537112,
				"z": 1.2741536667,
				"element": "H" 
			},
			{
				"x": 2.275348234,
				"y": -1.6884561163,
				"z": -0.7110837571,
				"element": "H" 
			},
			{
				"x": -1.6344818421,
				"y": 3.5557737777,
				"z": -0.69266286,
				"element": "H" 
			}
		],
		 "valence_orbital": [ 
			{
				"type": "occ",
				"energy": -0.30348,
				"method": "rhf"
			},
			{
				"type": "occ",
				"energy": -0.28695,
				"method": "rhf"
			},
			{
				"type": "occ",
				"energy": -0.26529,
				"method": "rhf"
			},
			{
				"type": "occ",
				"energy": -0.25879,
				"method": "rhf"
			},
			{
				"type": "occ",
				"energy": -0.23835,
				"method": "rhf"
			},
			{
				"type": "unocc",
				"energy": -0.08547,
				"method": "rhf"
			},
			{
				"type": "unocc",
				"energy": -0.04267,
				"method": "rhf"
			},
			{
				"type": "unocc",
				"energy": -0.00286,
				"method": "rhf"
			},
			{
				"type": "unocc",
				"energy": 0.03775,
				"method": "rhf"
			},
			{
				"type": "unocc",
				"energy": 0.04626,
				"method": "rhf"
			}
		],
		"cosmo_sigma_profile": { 
			"-0.025": 0.0,
			"-0.024": 0.0,
			"-0.023": 0.0,
			"-0.022": 0.0,
			"-0.021": 0.0,
			"-0.02": 0.0,
			"-0.019": 0.0,
			"-0.018": 0.0,
			"-0.017": 0.0,
			"-0.016": 0.0681212678894,
			"-0.015": 0.699686111714,
			"-0.014": 0.862745294947,
			"-0.013": 1.18070211942,
			"-0.012": 0.602455282771,
			"-0.011": 1.44580124264,
			"-0.01": 1.204617202,
			"-0.009": 1.0343262715,
			"-0.008": 3.87407745036,
			"-0.007": 10.7894290091,
			"-0.006": 18.874062689,
			"-0.005": 17.0698623243,
			"-0.004": 17.430701173,
			"-0.003": 14.6510586907,
			"-0.002": 16.7251779314,
			"-0.001": 15.3049470766,
			"0.0": 19.4367965552,
			"0.001": 19.2605164657,
			"0.002": 13.0308851199,
			"0.003": 8.4898100164,
			"0.004": 6.454072694,
			"0.005": 3.83659623199,
			"0.006": 5.77573866958,
			"0.007": 5.7507425393,
			"0.008": 6.07509609849,
			"0.009": 7.3400115969,
			"0.01": 7.09710498115,
			"0.011": 8.09304191133,
			"0.012": 5.21520677339,
			"0.013": 1.64174804514,
			"0.014": 0.0736240703653,
			"0.015": 0.0,
			"0.016": 0.0,
			"0.017": 0.0,
			"0.018": 0.0,
			"0.019": 0.0,
			"0.02": 0.0,
			"0.021": 0.0,
			"0.022": 0.0,
			"0.023": 0.0,
			"0.024": 0.0,
			"0.025": 0.0
		}
	}
}
