{
	 "smiles": "NS(=O)(=O)C1=CC=C(SCCCCO)C(F)=C1", 
	 "Tm": 377.15, 
	 "num_atms": 31, 
	 "gaussian": { 
		 "optdone": 1, 
		 "sigma_profile": "yes", 
		 "theory": "DFT", 
		 "functional": "B3LYP", 
		 "basiset": "6-31G**", 
		 "properties": { 
			 "R2extent": 7746.5141, 
			 "electric_dipole_moment_norm": 6.65714953189, 
			 "electric_quadrupole_moment_norm": 18.9752785466, 
			 "total_energy": -1566.05341593, 
			 "HOMO_LUMO_gap": 0.18073, 
			 "cosmo_polarized_energy": -24.28, 
			 "cosmo_cavitation_energy": 38.0, 
			 "cosmo_dispersion_energy": -27.43, 
			 "cosmo_repulsion_energy": 2.08, 
			 "cosmo_total_nonelectrostatic_energy": 12.65, 
			 "SMD_solvation_energy": 5.85 
		},
		"coords": [
			{
				"x": 1.6710513293,
				"y": 4.6964240161,
				"z": 0.0870292,
				"element": "N" 
			},
			{
				"x": 1.3442170765,
				"y": 4.1668045767,
				"z": -1.4726087897,
				"element": "S" 
			},
			{
				"x": 2.6246661159,
				"y": 4.1973197009,
				"z": -2.1756490357,
				"element": "O" 
			},
			{
				"x": 0.1703809171,
				"y": 4.9199821265,
				"z": -1.9069671155,
				"element": "O" 
			},
			{
				"x": 0.8492910368,
				"y": 2.4402835339,
				"z": -1.3418450183,
				"element": "C" 
			},
			{
				"x": -0.4933254644,
				"y": 2.1174208549,
				"z": -1.137623401,
				"element": "C" 
			},
			{
				"x": -0.8554016898,
				"y": 0.7788073211,
				"z": -0.9963169857,
				"element": "C" 
			},
			{
				"x": 0.0971549979,
				"y": -0.2493542246,
				"z": -1.078218516,
				"element": "C" 
			},
			{
				"x": -0.4390085272,
				"y": -1.9472645509,
				"z": -1.0113125322,
				"element": "S" 
			},
			{
				"x": 0.6616152136,
				"y": -2.6874110211,
				"z": 0.2755915678,
				"element": "C" 
			},
			{
				"x": 0.4819850786,
				"y": -2.1330230266,
				"z": 1.6947607869,
				"element": "C" 
			},
			{
				"x": -0.8969766153,
				"y": -2.3376348138,
				"z": 2.3358877436,
				"element": "C" 
			},
			{
				"x": -1.2539613877,
				"y": -3.7955879208,
				"z": 2.6073532495,
				"element": "C" 
			},
			{
				"x": -2.4972004214,
				"y": -3.8073505644,
				"z": 3.2967510709,
				"element": "O" 
			},
			{
				"x": 1.4286162403,
				"y": 0.1228824745,
				"z": -1.3169555819,
				"element": "C" 
			},
			{
				"x": 2.3705232379,
				"y": -0.832866917,
				"z": -1.4448964214,
				"element": "F" 
			},
			{
				"x": 1.8251717961,
				"y": 1.4469578214,
				"z": -1.4375201517,
				"element": "C" 
			},
			{
				"x": 2.4720830498,
				"y": 4.2366423791,
				"z": 0.507360662,
				"element": "H" 
			},
			{
				"x": 0.8516750207,
				"y": 4.7120721924,
				"z": 0.6854843407,
				"element": "H" 
			},
			{
				"x": -1.2404643171,
				"y": 2.9024555903,
				"z": -1.1015114652,
				"element": "H" 
			},
			{
				"x": -1.8929331108,
				"y": 0.5123818104,
				"z": -0.8229490321,
				"element": "H" 
			},
			{
				"x": 0.4143638443,
				"y": -3.7521360725,
				"z": 0.2227740133,
				"element": "H" 
			},
			{
				"x": 1.6941344631,
				"y": -2.574858813,
				"z": -0.0570787292,
				"element": "H" 
			},
			{
				"x": 1.2525587666,
				"y": -2.6023173432,
				"z": 2.3235605186,
				"element": "H" 
			},
			{
				"x": 0.7158968546,
				"y": -1.0619969947,
				"z": 1.6845363909,
				"element": "H" 
			},
			{
				"x": -1.6776426095,
				"y": -1.8975634134,
				"z": 1.7059877357,
				"element": "H" 
			},
			{
				"x": -0.9277611253,
				"y": -1.8061704684,
				"z": 3.2940842903,
				"element": "H" 
			},
			{
				"x": -0.4571915594,
				"y": -4.2666369499,
				"z": 3.2088265348,
				"element": "H" 
			},
			{
				"x": -1.3227586341,
				"y": -4.3580606375,
				"z": 1.6622201177,
				"element": "H" 
			},
			{
				"x": -2.7592618896,
				"y": -4.7261728777,
				"z": 3.4319828502,
				"element": "H" 
			},
			{
				"x": 2.8613023124,
				"y": 1.6895722113,
				"z": -1.644638297,
				"element": "H" 
			}
		],
		 "valence_orbital": [ 
			{
				"type": "occ",
				"energy": -0.309,
				"method": "rhf"
			},
			{
				"type": "occ",
				"energy": -0.28658,
				"method": "rhf"
			},
			{
				"type": "occ",
				"energy": -0.27492,
				"method": "rhf"
			},
			{
				"type": "occ",
				"energy": -0.27127,
				"method": "rhf"
			},
			{
				"type": "occ",
				"energy": -0.23743,
				"method": "rhf"
			},
			{
				"type": "unocc",
				"energy": -0.0567,
				"method": "rhf"
			},
			{
				"type": "unocc",
				"energy": -0.03048,
				"method": "rhf"
			},
			{
				"type": "unocc",
				"energy": 0.02332,
				"method": "rhf"
			},
			{
				"type": "unocc",
				"energy": 0.04602,
				"method": "rhf"
			},
			{
				"type": "unocc",
				"energy": 0.05713,
				"method": "rhf"
			}
		],
		"cosmo_sigma_profile": { 
			"-0.025": 0.0,
			"-0.024": 0.0,
			"-0.023": 0.0,
			"-0.022": 0.0,
			"-0.021": 0.0,
			"-0.02": 0.0,
			"-0.019": 0.0,
			"-0.018": 0.0,
			"-0.017": 0.0,
			"-0.016": 0.608959694605,
			"-0.015": 3.58508436054,
			"-0.014": 3.51141740955,
			"-0.013": 4.07326362139,
			"-0.012": 3.77449233805,
			"-0.011": 3.15609655729,
			"-0.01": 2.70615460253,
			"-0.009": 3.07001983012,
			"-0.008": 5.23203957537,
			"-0.007": 8.41894442626,
			"-0.006": 10.7056486439,
			"-0.005": 10.2122551128,
			"-0.004": 13.9983788262,
			"-0.003": 28.0920955223,
			"-0.002": 25.3682922175,
			"-0.001": 25.3059236136,
			"0.0": 24.1422676922,
			"0.001": 21.7290366971,
			"0.002": 12.9328288953,
			"0.003": 12.8258561237,
			"0.004": 10.2726826001,
			"0.005": 8.71666087633,
			"0.006": 7.10109349637,
			"0.007": 7.75449350965,
			"0.008": 7.96531263421,
			"0.009": 5.9311211092,
			"0.01": 9.88138800577,
			"0.011": 11.5448787186,
			"0.012": 3.97737221368,
			"0.013": 1.97967969503,
			"0.014": 2.07966490195,
			"0.015": 1.02327513893,
			"0.016": 0.0,
			"0.017": 0.0,
			"0.018": 0.0,
			"0.019": 0.0,
			"0.02": 0.0,
			"0.021": 0.0,
			"0.022": 0.0,
			"0.023": 0.0,
			"0.024": 0.0,
			"0.025": 0.0
		}
	}
}
