{
	 "smiles": "CC(=O)C1=CSC(=C1)[N+]([O-])=O", 
	 "Tm": 333.15, 
	 "num_atms": 16, 
	 "gaussian": { 
		 "optdone": 1, 
		 "sigma_profile": "yes", 
		 "theory": "DFT", 
		 "functional": "B3LYP", 
		 "basiset": "6-31G**", 
		 "properties": { 
			 "R2extent": 2597.8299, 
			 "electric_dipole_moment_norm": 5.48867341532, 
			 "electric_quadrupole_moment_norm": 12.2242254605, 
			 "total_energy": -910.139987491, 
			 "HOMO_LUMO_gap": 0.16477, 
			 "cosmo_polarized_energy": -13.1, 
			 "cosmo_cavitation_energy": 23.47, 
			 "cosmo_dispersion_energy": -17.49, 
			 "cosmo_repulsion_energy": 1.36, 
			 "cosmo_total_nonelectrostatic_energy": 7.34, 
			 "SMD_solvation_energy": 7.18 
		},
		"coords": [
			{
				"x": 4.0090671592,
				"y": 0.4674731864,
				"z": 0.8551251571,
				"element": "C" 
			},
			{
				"x": 2.5883180878,
				"y": 0.9946532026,
				"z": 0.908104637,
				"element": "C" 
			},
			{
				"x": 2.21345337,
				"y": 1.7499540408,
				"z": 1.789546982,
				"element": "O" 
			},
			{
				"x": 1.632568517,
				"y": 0.5659223011,
				"z": -0.1554317113,
				"element": "C" 
			},
			{
				"x": 1.9106354945,
				"y": -0.2810119854,
				"z": -1.2107126621,
				"element": "C" 
			},
			{
				"x": 0.5567671807,
				"y": -0.5490115261,
				"z": -2.2409477297,
				"element": "S" 
			},
			{
				"x": -0.4051808884,
				"y": 0.4980408348,
				"z": -1.2344108771,
				"element": "C" 
			},
			{
				"x": 0.2786082445,
				"y": 1.0182448821,
				"z": -0.1736303451,
				"element": "C" 
			},
			{
				"x": -1.7845959918,
				"y": 0.7321066015,
				"z": -1.5714169818,
				"element": "N" 
			},
			{
				"x": -2.215304029,
				"y": 0.1631675399,
				"z": -2.5789160916,
				"element": "O" 
			},
			{
				"x": -2.4285173574,
				"y": 1.47720874,
				"z": -0.8357368653,
				"element": "O" 
			},
			{
				"x": 4.4979865301,
				"y": 0.7593716051,
				"z": -0.0811538171,
				"element": "H" 
			},
			{
				"x": 4.5689625238,
				"y": 0.8738823224,
				"z": 1.6975977171,
				"element": "H" 
			},
			{
				"x": 4.0203324467,
				"y": -0.6271671057,
				"z": 0.9051401926,
				"element": "H" 
			},
			{
				"x": 2.8509337869,
				"y": -0.7656041665,
				"z": -1.4373701292,
				"element": "H" 
			},
			{
				"x": -0.1483350747,
				"y": 1.6876695269,
				"z": 0.5606125243,
				"element": "H" 
			}
		],
		 "valence_orbital": [ 
			{
				"type": "occ",
				"energy": -0.31915,
				"method": "rhf"
			},
			{
				"type": "occ",
				"energy": -0.3023,
				"method": "rhf"
			},
			{
				"type": "occ",
				"energy": -0.29206,
				"method": "rhf"
			},
			{
				"type": "occ",
				"energy": -0.28294,
				"method": "rhf"
			},
			{
				"type": "occ",
				"energy": -0.26985,
				"method": "rhf"
			},
			{
				"type": "unocc",
				"energy": -0.10508,
				"method": "rhf"
			},
			{
				"type": "unocc",
				"energy": -0.07,
				"method": "rhf"
			},
			{
				"type": "unocc",
				"energy": -0.00604,
				"method": "rhf"
			},
			{
				"type": "unocc",
				"energy": 0.00282,
				"method": "rhf"
			},
			{
				"type": "unocc",
				"energy": 0.06075,
				"method": "rhf"
			}
		],
		"cosmo_sigma_profile": { 
			"-0.025": 0.0,
			"-0.024": 0.0,
			"-0.023": 0.0,
			"-0.022": 0.0,
			"-0.021": 0.0,
			"-0.02": 0.0,
			"-0.019": 0.0,
			"-0.018": 0.0,
			"-0.017": 0.0,
			"-0.016": 0.0,
			"-0.015": 0.0,
			"-0.014": 0.0,
			"-0.013": 0.0,
			"-0.012": 0.26232632628,
			"-0.011": 1.96811973098,
			"-0.01": 2.26265818463,
			"-0.009": 2.42804590031,
			"-0.008": 4.08583725314,
			"-0.007": 8.12735206306,
			"-0.006": 10.0953529885,
			"-0.005": 10.6373632423,
			"-0.004": 10.9214171506,
			"-0.003": 13.354712885,
			"-0.002": 20.5148096359,
			"-0.001": 24.3764263869,
			"0.0": 12.8465299511,
			"0.001": 9.01053091225,
			"0.002": 4.56350043675,
			"0.003": 4.02988681209,
			"0.004": 4.01587859137,
			"0.005": 5.15177123101,
			"0.006": 5.92799226744,
			"0.007": 11.4170985294,
			"0.008": 7.88305918865,
			"0.009": 6.15964101284,
			"0.01": 3.57151891604,
			"0.011": 4.08138180026,
			"0.012": 2.19043334349,
			"0.013": 0.582021585736,
			"0.014": 0.0,
			"0.015": 0.0,
			"0.016": 0.0,
			"0.017": 0.0,
			"0.018": 0.0,
			"0.019": 0.0,
			"0.02": 0.0,
			"0.021": 0.0,
			"0.022": 0.0,
			"0.023": 0.0,
			"0.024": 0.0,
			"0.025": 0.0
		}
	}
}
