{
	 "smiles": "NCCCN", 
	 "Tm": 518.15, 
	 "num_atms": 15, 
	 "gaussian": { 
		 "optdone": 1, 
		 "sigma_profile": "yes", 
		 "theory": "DFT", 
		 "functional": "B3LYP", 
		 "basiset": "6-31G**", 
		 "properties": { 
			 "R2extent": 669.6539, 
			 "electric_dipole_moment_norm": 1.79497282988, 
			 "electric_quadrupole_moment_norm": 5.99213503436, 
			 "total_energy": -229.83902432, 
			 "HOMO_LUMO_gap": 0.28861, 
			 "cosmo_polarized_energy": -9.21, 
			 "cosmo_cavitation_energy": 16.93, 
			 "cosmo_dispersion_energy": -12.71, 
			 "cosmo_repulsion_energy": 1.15, 
			 "cosmo_total_nonelectrostatic_energy": 5.37, 
			 "SMD_solvation_energy": 0.25 
		},
		"coords": [
			{
				"x": -1.0028366486,
				"y": -1.705027888,
				"z": -0.6590570662,
				"element": "N" 
			},
			{
				"x": -0.587248031,
				"y": -0.5689947152,
				"z": 0.1720561,
				"element": "C" 
			},
			{
				"x": 0.8436434939,
				"y": -0.7505170288,
				"z": 0.6901487401,
				"element": "C" 
			},
			{
				"x": 1.9349353229,
				"y": -0.7148406907,
				"z": -0.3979135808,
				"element": "C" 
			},
			{
				"x": 2.0815273381,
				"y": 0.5348316164,
				"z": -1.1517513134,
				"element": "N" 
			},
			{
				"x": -1.9853735705,
				"y": -1.6141041332,
				"z": -0.9043386829,
				"element": "H" 
			},
			{
				"x": -0.4937516101,
				"y": -1.7040481141,
				"z": -1.5394645871,
				"element": "H" 
			},
			{
				"x": -0.6672588767,
				"y": 0.4119672411,
				"z": -0.3338274946,
				"element": "H" 
			},
			{
				"x": -1.2673526603,
				"y": -0.5222104812,
				"z": 1.0303118936,
				"element": "H" 
			},
			{
				"x": 1.0535662801,
				"y": 0.0388687647,
				"z": 1.4259257998,
				"element": "H" 
			},
			{
				"x": 0.8988367045,
				"y": -1.709539255,
				"z": 1.2201277134,
				"element": "H" 
			},
			{
				"x": 1.7659624069,
				"y": -1.5242036678,
				"z": -1.1196359803,
				"element": "H" 
			},
			{
				"x": 2.9027428718,
				"y": -0.9351710557,
				"z": 0.0683029432,
				"element": "H" 
			},
			{
				"x": 2.2465981246,
				"y": 1.3071336353,
				"z": -0.5091014971,
				"element": "H" 
			},
			{
				"x": 1.2183088544,
				"y": 0.7580557722,
				"z": -1.6415829877,
				"element": "H" 
			}
		],
		 "valence_orbital": [ 
			{
				"type": "occ",
				"energy": -0.35463,
				"method": "rhf"
			},
			{
				"type": "occ",
				"energy": -0.33983,
				"method": "rhf"
			},
			{
				"type": "occ",
				"energy": -0.33076,
				"method": "rhf"
			},
			{
				"type": "occ",
				"energy": -0.2349,
				"method": "rhf"
			},
			{
				"type": "occ",
				"energy": -0.22809,
				"method": "rhf"
			},
			{
				"type": "unocc",
				"energy": 0.06052,
				"method": "rhf"
			},
			{
				"type": "unocc",
				"energy": 0.10724,
				"method": "rhf"
			},
			{
				"type": "unocc",
				"energy": 0.11605,
				"method": "rhf"
			},
			{
				"type": "unocc",
				"energy": 0.12726,
				"method": "rhf"
			},
			{
				"type": "unocc",
				"energy": 0.14976,
				"method": "rhf"
			}
		],
		"cosmo_sigma_profile": { 
			"-0.025": 0.0,
			"-0.024": 0.0,
			"-0.023": 0.0,
			"-0.022": 0.0,
			"-0.021": 0.0,
			"-0.02": 0.0,
			"-0.019": 0.0,
			"-0.018": 0.0,
			"-0.017": 0.0,
			"-0.016": 0.0,
			"-0.015": 0.0,
			"-0.014": 0.0,
			"-0.013": 0.0,
			"-0.012": 0.0,
			"-0.011": 0.0,
			"-0.01": 0.513166978601,
			"-0.009": 3.28977661022,
			"-0.008": 7.19864791442,
			"-0.007": 6.34138604121,
			"-0.006": 5.21626602948,
			"-0.005": 6.23758994612,
			"-0.004": 5.46050585077,
			"-0.003": 10.3552290495,
			"-0.002": 15.1255482312,
			"-0.001": 15.3803784076,
			"0.0": 15.0657792711,
			"0.001": 8.58796281707,
			"0.002": 4.08658322636,
			"0.003": 2.56682515589,
			"0.004": 2.38041117261,
			"0.005": 1.51845845569,
			"0.006": 1.48309490001,
			"0.007": 1.80410229241,
			"0.008": 1.41446578998,
			"0.009": 1.20368345731,
			"0.01": 1.06688012495,
			"0.011": 1.34221476415,
			"0.012": 2.22101177785,
			"0.013": 1.04426652782,
			"0.014": 1.50164487428,
			"0.015": 1.37557126479,
			"0.016": 1.14455377425,
			"0.017": 0.586334651914,
			"0.018": 1.48010448993,
			"0.019": 1.51886796978,
			"0.02": 0.811399781377,
			"0.021": 0.15680884535,
			"0.022": 0.0,
			"0.023": 0.0,
			"0.024": 0.0,
			"0.025": 0.0
		}
	}
}
