{
	 "smiles": "COC(=O)CN1C=CC(N)=N1", 
	 "Tm": 348.15, 
	 "num_atms": 20, 
	 "gaussian": { 
		 "optdone": 1, 
		 "sigma_profile": "yes", 
		 "theory": "DFT", 
		 "functional": "B3LYP", 
		 "basiset": "6-31G**", 
		 "properties": { 
			 "R2extent": 2245.2151, 
			 "electric_dipole_moment_norm": 3.02961575451, 
			 "electric_quadrupole_moment_norm": 9.37608360671, 
			 "total_energy": -548.741479085, 
			 "HOMO_LUMO_gap": 0.2051, 
			 "cosmo_polarized_energy": -15.8, 
			 "cosmo_cavitation_energy": 24.97, 
			 "cosmo_dispersion_energy": -17.85, 
			 "cosmo_repulsion_energy": 1.49, 
			 "cosmo_total_nonelectrostatic_energy": 8.61, 
			 "SMD_solvation_energy": 5.38 
		},
		"coords": [
			{
				"x": 1.9552797983,
				"y": 0.1216780212,
				"z": -3.0834633479,
				"element": "C" 
			},
			{
				"x": 1.2443175192,
				"y": 0.2136029891,
				"z": -1.836470348,
				"element": "O" 
			},
			{
				"x": 1.3350061571,
				"y": 1.3988436962,
				"z": -1.2136311971,
				"element": "C" 
			},
			{
				"x": 1.9320241338,
				"y": 2.3602977395,
				"z": -1.6443237273,
				"element": "O" 
			},
			{
				"x": 0.5444663176,
				"y": 1.4388134831,
				"z": 0.0960137256,
				"element": "C" 
			},
			{
				"x": 0.2960693576,
				"y": 0.1676209995,
				"z": 0.7225226041,
				"element": "N" 
			},
			{
				"x": -0.794519367,
				"y": -0.6333789087,
				"z": 0.6116048644,
				"element": "C" 
			},
			{
				"x": -0.5149323071,
				"y": -1.8000230408,
				"z": 1.2914337549,
				"element": "C" 
			},
			{
				"x": 0.80849713,
				"y": -1.6146601652,
				"z": 1.7762681836,
				"element": "C" 
			},
			{
				"x": 1.5379028195,
				"y": -2.4779252999,
				"z": 2.5956110936,
				"element": "N" 
			},
			{
				"x": 1.3057545664,
				"y": -0.4319183446,
				"z": 1.4192865307,
				"element": "N" 
			},
			{
				"x": 1.571295626,
				"y": 0.8529304372,
				"z": -3.7991472619,
				"element": "H" 
			},
			{
				"x": 3.02125054,
				"y": 0.30455193,
				"z": -2.9289426926,
				"element": "H" 
			},
			{
				"x": 1.7876779878,
				"y": -0.8933454866,
				"z": -3.4423108819,
				"element": "H" 
			},
			{
				"x": 1.1004143127,
				"y": 2.0777636375,
				"z": 0.7848757314,
				"element": "H" 
			},
			{
				"x": -0.4140898546,
				"y": 1.9264346491,
				"z": -0.1119378117,
				"element": "H" 
			},
			{
				"x": -1.6767996125,
				"y": -0.3157977848,
				"z": 0.074176323,
				"element": "H" 
			},
			{
				"x": -1.168659713,
				"y": -2.6453728055,
				"z": 1.4453262585,
				"element": "H" 
			},
			{
				"x": 2.5154735741,
				"y": -2.2152778814,
				"z": 2.6378992418,
				"element": "H" 
			},
			{
				"x": 1.4365710139,
				"y": -3.4530378649,
				"z": 2.3441089569,
				"element": "H" 
			}
		],
		 "valence_orbital": [ 
			{
				"type": "occ",
				"energy": -0.3069,
				"method": "rhf"
			},
			{
				"type": "occ",
				"energy": -0.28253,
				"method": "rhf"
			},
			{
				"type": "occ",
				"energy": -0.27818,
				"method": "rhf"
			},
			{
				"type": "occ",
				"energy": -0.23699,
				"method": "rhf"
			},
			{
				"type": "occ",
				"energy": -0.19979,
				"method": "rhf"
			},
			{
				"type": "unocc",
				"energy": 0.00531,
				"method": "rhf"
			},
			{
				"type": "unocc",
				"energy": 0.02683,
				"method": "rhf"
			},
			{
				"type": "unocc",
				"energy": 0.08059,
				"method": "rhf"
			},
			{
				"type": "unocc",
				"energy": 0.09459,
				"method": "rhf"
			},
			{
				"type": "unocc",
				"energy": 0.10671,
				"method": "rhf"
			}
		],
		"cosmo_sigma_profile": { 
			"-0.025": 0.0,
			"-0.024": 0.0,
			"-0.023": 0.0,
			"-0.022": 0.0,
			"-0.021": 0.0,
			"-0.02": 0.0,
			"-0.019": 0.0,
			"-0.018": 0.0,
			"-0.017": 0.0,
			"-0.016": 0.0,
			"-0.015": 0.0,
			"-0.014": 0.0,
			"-0.013": 0.264293153412,
			"-0.012": 1.67692900677,
			"-0.011": 2.5561835617,
			"-0.01": 3.92821043405,
			"-0.009": 7.79388407854,
			"-0.008": 6.09920341229,
			"-0.007": 8.7407514797,
			"-0.006": 14.0079979544,
			"-0.005": 14.6117997009,
			"-0.004": 15.6590941973,
			"-0.003": 13.3128826746,
			"-0.002": 10.0038148465,
			"-0.001": 8.43847051288,
			"0.0": 7.49844329723,
			"0.001": 6.38726724033,
			"0.002": 6.4171507309,
			"0.003": 6.55930448776,
			"0.004": 6.48976925719,
			"0.005": 8.70360362183,
			"0.006": 9.72137539122,
			"0.007": 6.11388984292,
			"0.008": 6.28504804356,
			"0.009": 5.30865939452,
			"0.01": 4.58613793409,
			"0.011": 5.74458125911,
			"0.012": 5.26028547688,
			"0.013": 2.06967038835,
			"0.014": 1.49342708532,
			"0.015": 1.41176497879,
			"0.016": 0.656218187983,
			"0.017": 0.0,
			"0.018": 0.0,
			"0.019": 0.0,
			"0.02": 0.0,
			"0.021": 0.0,
			"0.022": 0.0,
			"0.023": 0.0,
			"0.024": 0.0,
			"0.025": 0.0
		}
	}
}
