{
	 "smiles": "NC1=C(Cl)C=C(Cl)C2=C1N=S=N2", 
	 "Tm": 450.15, 
	 "num_atms": 15, 
	 "gaussian": { 
		 "optdone": 1, 
		 "sigma_profile": "yes", 
		 "theory": "DFT", 
		 "functional": "B3LYP", 
		 "basiset": "6-31G**", 
		 "properties": { 
			 "R2extent": 3158.5069, 
			 "electric_dipole_moment_norm": 3.03342140989, 
			 "electric_quadrupole_moment_norm": 5.00654540277, 
			 "total_energy": -1713.2522399, 
			 "HOMO_LUMO_gap": 0.11905, 
			 "cosmo_polarized_energy": -8.4, 
			 "cosmo_cavitation_energy": 24.81, 
			 "cosmo_dispersion_energy": -19.78, 
			 "cosmo_repulsion_energy": 1.52, 
			 "cosmo_total_nonelectrostatic_energy": 6.55, 
			 "SMD_solvation_energy": 0.55 
		},
		"coords": [
			{
				"x": 0.7771799705,
				"y": -1.4145924854,
				"z": -2.1634365317,
				"element": "N" 
			},
			{
				"x": 0.282144417,
				"y": -1.1707923205,
				"z": -0.9132909108,
				"element": "C" 
			},
			{
				"x": 0.3187540229,
				"y": -2.0526188508,
				"z": 0.1537570147,
				"element": "C" 
			},
			{
				"x": 0.9919318371,
				"y": -3.6574586027,
				"z": -0.0979629789,
				"element": "Cl" 
			},
			{
				"x": -0.1635246648,
				"y": -1.7293720829,
				"z": 1.4544527949,
				"element": "C" 
			},
			{
				"x": -0.7101762624,
				"y": -0.5049356517,
				"z": 1.7410488504,
				"element": "C" 
			},
			{
				"x": -1.2959656869,
				"y": -0.1191129015,
				"z": 3.3367328017,
				"element": "Cl" 
			},
			{
				"x": -0.7958744613,
				"y": 0.4589704722,
				"z": 0.6923841366,
				"element": "C" 
			},
			{
				"x": -0.2994262712,
				"y": 0.1137386382,
				"z": -0.6257449618,
				"element": "C" 
			},
			{
				"x": -0.4409759771,
				"y": 1.0846539196,
				"z": -1.5293008373,
				"element": "N" 
			},
			{
				"x": -1.1521631578,
				"y": 2.3440255999,
				"z": -0.7432170144,
				"element": "S" 
			},
			{
				"x": -1.3005748213,
				"y": 1.6931618759,
				"z": 0.7572182322,
				"element": "N" 
			},
			{
				"x": 0.4947831293,
				"y": -0.7769935619,
				"z": -2.8926626196,
				"element": "H" 
			},
			{
				"x": 0.9514439816,
				"y": -2.3716170843,
				"z": -2.4287532052,
				"element": "H" 
			},
			{
				"x": -0.0905560557,
				"y": -2.4826569642,
				"z": 2.2300752292,
				"element": "H" 
			}
		],
		 "valence_orbital": [ 
			{
				"type": "occ",
				"energy": -0.32021,
				"method": "rhf"
			},
			{
				"type": "occ",
				"energy": -0.3085,
				"method": "rhf"
			},
			{
				"type": "occ",
				"energy": -0.30318,
				"method": "rhf"
			},
			{
				"type": "occ",
				"energy": -0.27132,
				"method": "rhf"
			},
			{
				"type": "occ",
				"energy": -0.21293,
				"method": "rhf"
			},
			{
				"type": "unocc",
				"energy": -0.09388,
				"method": "rhf"
			},
			{
				"type": "unocc",
				"energy": -0.00723,
				"method": "rhf"
			},
			{
				"type": "unocc",
				"energy": -0.00448,
				"method": "rhf"
			},
			{
				"type": "unocc",
				"energy": 0.00621,
				"method": "rhf"
			},
			{
				"type": "unocc",
				"energy": 0.00895,
				"method": "rhf"
			}
		],
		"cosmo_sigma_profile": { 
			"-0.025": 0.0,
			"-0.024": 0.0,
			"-0.023": 0.0,
			"-0.022": 0.0,
			"-0.021": 0.0,
			"-0.02": 0.0,
			"-0.019": 0.0,
			"-0.018": 0.0,
			"-0.017": 0.0,
			"-0.016": 0.0,
			"-0.015": 0.0,
			"-0.014": 0.29898945301,
			"-0.013": 1.88047465172,
			"-0.012": 1.5046335191,
			"-0.011": 2.25768018303,
			"-0.01": 2.21998758169,
			"-0.009": 2.19442353014,
			"-0.008": 3.04310709082,
			"-0.007": 3.00571686592,
			"-0.006": 4.10016553382,
			"-0.005": 6.76225146637,
			"-0.004": 9.29056294647,
			"-0.003": 14.6312786121,
			"-0.002": 20.1739838005,
			"-0.001": 20.5311582491,
			"0.0": 18.4368526936,
			"0.001": 21.0767279149,
			"0.002": 17.6472135576,
			"0.003": 15.3553266268,
			"0.004": 17.9803271835,
			"0.005": 7.41941609422,
			"0.006": 4.20666304882,
			"0.007": 3.72062231402,
			"0.008": 3.44807327058,
			"0.009": 2.60650964022,
			"0.01": 1.19071722644,
			"0.011": 1.45783101003,
			"0.012": 0.83179769525,
			"0.013": 0.268025983349,
			"0.014": 0.0,
			"0.015": 0.0,
			"0.016": 0.0,
			"0.017": 0.0,
			"0.018": 0.0,
			"0.019": 0.0,
			"0.02": 0.0,
			"0.021": 0.0,
			"0.022": 0.0,
			"0.023": 0.0,
			"0.024": 0.0,
			"0.025": 0.0
		}
	}
}
