{
	 "smiles": "COC1=CC=C(C=C1)N1C(C)=CC(C(=O)CCl)=C1C", 
	 "Tm": 366.15, 
	 "num_atms": 35, 
	 "gaussian": { 
		 "optdone": 1, 
		 "sigma_profile": "yes", 
		 "theory": "DFT", 
		 "functional": "B3LYP", 
		 "basiset": "6-31G**", 
		 "properties": { 
			 "R2extent": 8057.5674, 
			 "electric_dipole_moment_norm": 6.45233401801, 
			 "electric_quadrupole_moment_norm": 22.6908767792, 
			 "total_energy": -1246.62684083, 
			 "HOMO_LUMO_gap": 0.16729, 
			 "cosmo_polarized_energy": -13.31, 
			 "cosmo_cavitation_energy": 40.56, 
			 "cosmo_dispersion_energy": -27.88, 
			 "cosmo_repulsion_energy": 2.18, 
			 "cosmo_total_nonelectrostatic_energy": 14.86, 
			 "SMD_solvation_energy": 8.1 
		},
		"coords": [
			{
				"x": -0.4970178535,
				"y": -4.7596287676,
				"z": -3.9403933836,
				"element": "C" 
			},
			{
				"x": 0.5916071611,
				"y": -3.8715321287,
				"z": -3.7300892765,
				"element": "O" 
			},
			{
				"x": 0.4601843109,
				"y": -2.8961930423,
				"z": -2.7902800099,
				"element": "C" 
			},
			{
				"x": 1.5733665896,
				"y": -2.0552385195,
				"z": -2.6282387837,
				"element": "C" 
			},
			{
				"x": 1.5430291136,
				"y": -1.0285792405,
				"z": -1.6945857208,
				"element": "C" 
			},
			{
				"x": 0.4013987718,
				"y": -0.8224387263,
				"z": -0.9082794294,
				"element": "C" 
			},
			{
				"x": -0.7040512688,
				"y": -1.6565860434,
				"z": -1.0707365665,
				"element": "C" 
			},
			{
				"x": -0.6828705802,
				"y": -2.6939716276,
				"z": -2.005891176,
				"element": "C" 
			},
			{
				"x": 0.3690619446,
				"y": 0.2408916366,
				"z": 0.051871548,
				"element": "N" 
			},
			{
				"x": -0.0067904408,
				"y": 1.5612829534,
				"z": -0.2314699111,
				"element": "C" 
			},
			{
				"x": -0.4316579921,
				"y": 1.989451786,
				"z": -1.5985446635,
				"element": "C" 
			},
			{
				"x": 0.0919059767,
				"y": 2.2688856468,
				"z": 0.9351295052,
				"element": "C" 
			},
			{
				"x": 0.538377765,
				"y": 1.3747021555,
				"z": 1.9683645082,
				"element": "C" 
			},
			{
				"x": 0.805564508,
				"y": 1.7020957443,
				"z": 3.3650404642,
				"element": "C" 
			},
			{
				"x": 1.2266604078,
				"y": 0.9079254334,
				"z": 4.2024958944,
				"element": "O" 
			},
			{
				"x": 0.5906272125,
				"y": 3.1546004149,
				"z": 3.8165601723,
				"element": "C" 
			},
			{
				"x": -1.1727816798,
				"y": 3.5949699641,
				"z": 3.901301965,
				"element": "Cl" 
			},
			{
				"x": 0.7015666954,
				"y": 0.1157698779,
				"z": 1.3805842727,
				"element": "C" 
			},
			{
				"x": 1.1473597442,
				"y": -1.1843129505,
				"z": 1.9666271304,
				"element": "C" 
			},
			{
				"x": -0.1754120121,
				"y": -5.4484925488,
				"z": -4.7225072232,
				"element": "H" 
			},
			{
				"x": -1.3948351803,
				"y": -4.2256154594,
				"z": -4.2764364993,
				"element": "H" 
			},
			{
				"x": -0.7347064918,
				"y": -5.3289758204,
				"z": -3.0329755585,
				"element": "H" 
			},
			{
				"x": 2.4484246255,
				"y": -2.2303196723,
				"z": -3.2449784973,
				"element": "H" 
			},
			{
				"x": 2.4037671557,
				"y": -0.3797694652,
				"z": -1.565161082,
				"element": "H" 
			},
			{
				"x": -1.5878205283,
				"y": -1.493518544,
				"z": -0.461590144,
				"element": "H" 
			},
			{
				"x": -1.5537456738,
				"y": -3.3291535756,
				"z": -2.1125207957,
				"element": "H" 
			},
			{
				"x": 0.3598529145,
				"y": 1.8490800407,
				"z": -2.3442967706,
				"element": "H" 
			},
			{
				"x": -1.3079606042,
				"y": 1.4335713846,
				"z": -1.9525988353,
				"element": "H" 
			},
			{
				"x": -0.6919740362,
				"y": 3.0502763736,
				"z": -1.5803751426,
				"element": "H" 
			},
			{
				"x": -0.1546427623,
				"y": 3.3147929643,
				"z": 1.0480902443,
				"element": "H" 
			},
			{
				"x": 1.0586257332,
				"y": 3.8702869273,
				"z": 3.1380782373,
				"element": "H" 
			},
			{
				"x": 0.9920526571,
				"y": 3.2590640257,
				"z": 4.8227654237,
				"element": "H" 
			},
			{
				"x": 0.3629954931,
				"y": -1.9472167383,
				"z": 1.8945402043,
				"element": "H" 
			},
			{
				"x": 2.026213463,
				"y": -1.5791005008,
				"z": 1.4433691837,
				"element": "H" 
			},
			{
				"x": 1.3946248608,
				"y": -1.030203958,
				"z": 3.0156307157,
				"element": "H" 
			}
		],
		 "valence_orbital": [ 
			{
				"type": "occ",
				"energy": -0.27129,
				"method": "rhf"
			},
			{
				"type": "occ",
				"energy": -0.24447,
				"method": "rhf"
			},
			{
				"type": "occ",
				"energy": -0.23769,
				"method": "rhf"
			},
			{
				"type": "occ",
				"energy": -0.23594,
				"method": "rhf"
			},
			{
				"type": "occ",
				"energy": -0.20548,
				"method": "rhf"
			},
			{
				"type": "unocc",
				"energy": -0.03819,
				"method": "rhf"
			},
			{
				"type": "unocc",
				"energy": -0.02259,
				"method": "rhf"
			},
			{
				"type": "unocc",
				"energy": -0.01075,
				"method": "rhf"
			},
			{
				"type": "unocc",
				"energy": 0.03172,
				"method": "rhf"
			},
			{
				"type": "unocc",
				"energy": 0.04658,
				"method": "rhf"
			}
		],
		"cosmo_sigma_profile": { 
			"-0.025": 0.0,
			"-0.024": 0.0,
			"-0.023": 0.0,
			"-0.022": 0.0,
			"-0.021": 0.0,
			"-0.02": 0.0,
			"-0.019": 0.0,
			"-0.018": 0.0,
			"-0.017": 0.0,
			"-0.016": 0.0,
			"-0.015": 0.0,
			"-0.014": 0.0,
			"-0.013": 0.0,
			"-0.012": 0.0,
			"-0.011": 0.0,
			"-0.01": 0.0,
			"-0.009": 0.00901641537404,
			"-0.008": 2.14921565166,
			"-0.007": 8.1012679093,
			"-0.006": 18.0975954039,
			"-0.005": 24.326690279,
			"-0.004": 29.8431296211,
			"-0.003": 30.9096463593,
			"-0.002": 24.7044326454,
			"-0.001": 25.4765495477,
			"0.0": 25.6259741506,
			"0.001": 18.7865160692,
			"0.002": 20.434065977,
			"0.003": 21.2045164158,
			"0.004": 21.6122692727,
			"0.005": 15.3988919563,
			"0.006": 15.6927095271,
			"0.007": 5.32015152773,
			"0.008": 2.52746215812,
			"0.009": 3.29345270029,
			"0.01": 3.43813219579,
			"0.011": 2.22112676414,
			"0.012": 3.02581807898,
			"0.013": 1.75211651055,
			"0.014": 0.201019245994,
			"0.015": 0.0,
			"0.016": 0.0,
			"0.017": 0.0,
			"0.018": 0.0,
			"0.019": 0.0,
			"0.02": 0.0,
			"0.021": 0.0,
			"0.022": 0.0,
			"0.023": 0.0,
			"0.024": 0.0,
			"0.025": 0.0
		}
	}
}
