{
	 "smiles": "[O-][N+](=O)C1=CC=C(O1)C1=NN=C(S)S1", 
	 "Tm": 449.15, 
	 "num_atms": 17, 
	 "gaussian": { 
		 "optdone": 1, 
		 "sigma_profile": "yes", 
		 "theory": "DFT", 
		 "functional": "B3LYP", 
		 "basiset": "6-31G**", 
		 "properties": { 
			 "R2extent": 5246.3042, 
			 "electric_dipole_moment_norm": 7.82322239553, 
			 "electric_quadrupole_moment_norm": 13.3418105256, 
			 "total_energy": -1416.56330137, 
			 "HOMO_LUMO_gap": 0.13904, 
			 "cosmo_polarized_energy": -20.35, 
			 "cosmo_cavitation_energy": 27.8, 
			 "cosmo_dispersion_energy": -21.34, 
			 "cosmo_repulsion_energy": 1.58, 
			 "cosmo_total_nonelectrostatic_energy": 8.04, 
			 "SMD_solvation_energy": 5.24 
		},
		"coords": [
			{
				"x": 0.5160750463,
				"y": 2.0155664661,
				"z": 5.4506282766,
				"element": "O" 
			},
			{
				"x": -0.3101410586,
				"y": 1.5283997054,
				"z": 4.672654443,
				"element": "N" 
			},
			{
				"x": -1.4676950988,
				"y": 1.2161397301,
				"z": 4.9371084173,
				"element": "O" 
			},
			{
				"x": 0.1559594725,
				"y": 1.3178809404,
				"z": 3.3355674137,
				"element": "C" 
			},
			{
				"x": 1.3785759333,
				"y": 1.5714784474,
				"z": 2.7771027689,
				"element": "C" 
			},
			{
				"x": 1.2579456062,
				"y": 1.1618237683,
				"z": 1.4249238814,
				"element": "C" 
			},
			{
				"x": -0.0299614681,
				"y": 0.6917854566,
				"z": 1.2702959448,
				"element": "C" 
			},
			{
				"x": -0.709954469,
				"y": 0.7871472701,
				"z": 2.4460466009,
				"element": "O" 
			},
			{
				"x": -0.7407757893,
				"y": 0.1458834071,
				"z": 0.1365394903,
				"element": "C" 
			},
			{
				"x": -1.9842247882,
				"y": -0.2579879562,
				"z": 0.1700499649,
				"element": "N" 
			},
			{
				"x": -2.431109306,
				"y": -0.7317434906,
				"z": -1.0201867534,
				"element": "N" 
			},
			{
				"x": -1.530790168,
				"y": -0.6904441866,
				"z": -1.9632121103,
				"element": "C" 
			},
			{
				"x": -1.9096925858,
				"y": -1.2598198001,
				"z": -3.5868317264,
				"element": "S" 
			},
			{
				"x": 0.0181538874,
				"y": -0.0344855173,
				"z": -1.4462474707,
				"element": "S" 
			},
			{
				"x": 2.2325409797,
				"y": 1.9934105436,
				"z": 3.2828853789,
				"element": "H" 
			},
			{
				"x": 2.0204926333,
				"y": 1.206270363,
				"z": 0.6607138147,
				"element": "H" 
			},
			{
				"x": -0.6973988271,
				"y": -1.0025051473,
				"z": -4.1149383346,
				"element": "H" 
			}
		],
		 "valence_orbital": [ 
			{
				"type": "occ",
				"energy": -0.31357,
				"method": "rhf"
			},
			{
				"type": "occ",
				"energy": -0.30021,
				"method": "rhf"
			},
			{
				"type": "occ",
				"energy": -0.29102,
				"method": "rhf"
			},
			{
				"type": "occ",
				"energy": -0.28777,
				"method": "rhf"
			},
			{
				"type": "occ",
				"energy": -0.24934,
				"method": "rhf"
			},
			{
				"type": "unocc",
				"energy": -0.1103,
				"method": "rhf"
			},
			{
				"type": "unocc",
				"energy": -0.0679,
				"method": "rhf"
			},
			{
				"type": "unocc",
				"energy": -0.04967,
				"method": "rhf"
			},
			{
				"type": "unocc",
				"energy": -0.01417,
				"method": "rhf"
			},
			{
				"type": "unocc",
				"energy": -0.00101,
				"method": "rhf"
			}
		],
		"cosmo_sigma_profile": { 
			"-0.025": 0.0,
			"-0.024": 0.0,
			"-0.023": 0.0,
			"-0.022": 0.0,
			"-0.021": 0.0,
			"-0.02": 0.0,
			"-0.019": 0.0,
			"-0.018": 0.0,
			"-0.017": 0.0,
			"-0.016": 0.0,
			"-0.015": 0.0,
			"-0.014": 0.756508689252,
			"-0.013": 3.22379953979,
			"-0.012": 2.12155164438,
			"-0.011": 2.43165696423,
			"-0.01": 5.60065478111,
			"-0.009": 5.62372245652,
			"-0.008": 5.80158859026,
			"-0.007": 7.66022825046,
			"-0.006": 7.62022045233,
			"-0.005": 9.10826847067,
			"-0.004": 14.8844279307,
			"-0.003": 19.6020158623,
			"-0.002": 17.5624876342,
			"-0.001": 16.3686804174,
			"0.0": 15.0205821003,
			"0.001": 11.1426273066,
			"0.002": 9.15667783006,
			"0.003": 7.17997924374,
			"0.004": 9.43114927425,
			"0.005": 7.19197387045,
			"0.006": 7.25438805325,
			"0.007": 11.7108980125,
			"0.008": 13.4620473653,
			"0.009": 8.29426650436,
			"0.01": 5.53976964551,
			"0.011": 2.65477313429,
			"0.012": 2.47780167574,
			"0.013": 1.47654220318,
			"0.014": 0.040155440748,
			"0.015": 0.0,
			"0.016": 0.0,
			"0.017": 0.0,
			"0.018": 0.0,
			"0.019": 0.0,
			"0.02": 0.0,
			"0.021": 0.0,
			"0.022": 0.0,
			"0.023": 0.0,
			"0.024": 0.0,
			"0.025": 0.0
		}
	}
}
