{
	 "smiles": "CNCC(=O)N1CCN(CC1)C(=O)OC(C)(C)C", 
	 "Tm": 338.15, 
	 "num_atms": 41, 
	 "gaussian": { 
		 "optdone": 1, 
		 "sigma_profile": "yes", 
		 "theory": "DFT", 
		 "functional": "B3LYP", 
		 "basiset": "6-31G**", 
		 "properties": { 
			 "R2extent": 6787.7951, 
			 "electric_dipole_moment_norm": 0.740270558647, 
			 "electric_quadrupole_moment_norm": 23.7737473811, 
			 "total_energy": -861.099099453, 
			 "HOMO_LUMO_gap": 0.25025, 
			 "cosmo_polarized_energy": -15.24, 
			 "cosmo_cavitation_energy": 41.29, 
			 "cosmo_dispersion_energy": -28.42, 
			 "cosmo_repulsion_energy": 2.25, 
			 "cosmo_total_nonelectrostatic_energy": 15.11, 
			 "SMD_solvation_energy": 6.32 
		},
		"coords": [
			{
				"x": -3.099421579,
				"y": -3.3207827212,
				"z": 1.324794054,
				"element": "C" 
			},
			{
				"x": -2.7572420125,
				"y": -2.2322599762,
				"z": 0.4133407831,
				"element": "N" 
			},
			{
				"x": -2.949921591,
				"y": -2.5872934735,
				"z": -0.99411922,
				"element": "C" 
			},
			{
				"x": -2.63216519,
				"y": -1.3815393548,
				"z": -1.8828222204,
				"element": "C" 
			},
			{
				"x": -3.5451358985,
				"y": -0.7003884292,
				"z": -2.3461919481,
				"element": "O" 
			},
			{
				"x": -1.308719153,
				"y": -1.0983850644,
				"z": -2.1024690044,
				"element": "N" 
			},
			{
				"x": -0.2040347296,
				"y": -1.8360742058,
				"z": -1.4648503543,
				"element": "C" 
			},
			{
				"x": 1.124725723,
				"y": -1.1154596738,
				"z": -1.7121624435,
				"element": "C" 
			},
			{
				"x": 1.0135154624,
				"y": 0.3062696836,
				"z": -1.4136645028,
				"element": "N" 
			},
			{
				"x": -0.1063294139,
				"y": 1.0502442821,
				"z": -2.0061234287,
				"element": "C" 
			},
			{
				"x": -0.9587037355,
				"y": 0.1046316922,
				"z": -2.8551890809,
				"element": "C" 
			},
			{
				"x": 1.9193841191,
				"y": 0.883768113,
				"z": -0.5627628238,
				"element": "C" 
			},
			{
				"x": 2.8490843727,
				"y": 0.2847766389,
				"z": -0.0378481824,
				"element": "O" 
			},
			{
				"x": 1.6297034281,
				"y": 2.1980887598,
				"z": -0.4013335563,
				"element": "O" 
			},
			{
				"x": 2.4551144055,
				"y": 3.052862323,
				"z": 0.4658101157,
				"element": "C" 
			},
			{
				"x": 3.8888555065,
				"y": 3.1176139798,
				"z": -0.0716335275,
				"element": "C" 
			},
			{
				"x": 1.7666436417,
				"y": 4.4147405737,
				"z": 0.341125805,
				"element": "C" 
			},
			{
				"x": 2.3986432951,
				"y": 2.5460258617,
				"z": 1.9109775983,
				"element": "C" 
			},
			{
				"x": -2.3963757111,
				"y": -4.1495301271,
				"z": 1.1837902393,
				"element": "H" 
			},
			{
				"x": -3.0016813522,
				"y": -2.9748322094,
				"z": 2.3579400497,
				"element": "H" 
			},
			{
				"x": -4.1193074409,
				"y": -3.7215740334,
				"z": 1.1877808307,
				"element": "H" 
			},
			{
				"x": -3.3417015545,
				"y": -1.4252947987,
				"z": 0.6197463403,
				"element": "H" 
			},
			{
				"x": -2.2958916058,
				"y": -3.4370561219,
				"z": -1.2251332496,
				"element": "H" 
			},
			{
				"x": -3.9815788115,
				"y": -2.8845300356,
				"z": -1.2386746491,
				"element": "H" 
			},
			{
				"x": -0.4016457596,
				"y": -1.9128471247,
				"z": -0.3913466478,
				"element": "H" 
			},
			{
				"x": -0.1281042335,
				"y": -2.8536677156,
				"z": -1.8729197662,
				"element": "H" 
			},
			{
				"x": 1.8982390581,
				"y": -1.5275163119,
				"z": -1.0641189508,
				"element": "H" 
			},
			{
				"x": 1.4514053595,
				"y": -1.2638427514,
				"z": -2.7505876479,
				"element": "H" 
			},
			{
				"x": -0.7201352034,
				"y": 1.489098268,
				"z": -1.2120776169,
				"element": "H" 
			},
			{
				"x": 0.2635870023,
				"y": 1.8752467159,
				"z": -2.6269011707,
				"element": "H" 
			},
			{
				"x": -0.4289653602,
				"y": -0.1681059086,
				"z": -3.776914213,
				"element": "H" 
			},
			{
				"x": -1.8931779378,
				"y": 0.589639718,
				"z": -3.1372086981,
				"element": "H" 
			},
			{
				"x": 4.4671167943,
				"y": 3.8421456236,
				"z": 0.5110395193,
				"element": "H" 
			},
			{
				"x": 4.3737652807,
				"y": 2.1435004248,
				"z": -0.0065657971,
				"element": "H" 
			},
			{
				"x": 3.8881104957,
				"y": 3.4457812087,
				"z": -1.1160508999,
				"element": "H" 
			},
			{
				"x": 1.7682321028,
				"y": 4.7550212943,
				"z": -0.6985509811,
				"element": "H" 
			},
			{
				"x": 0.7292233893,
				"y": 4.3561163875,
				"z": 0.6831682319,
				"element": "H" 
			},
			{
				"x": 2.2906593974,
				"y": 5.1577854594,
				"z": 0.949598008,
				"element": "H" 
			},
			{
				"x": 2.9196062014,
				"y": 3.2502859653,
				"z": 2.5678564444,
				"element": "H" 
			},
			{
				"x": 2.8683654577,
				"y": 1.566284742,
				"z": 1.9987741192,
				"element": "H" 
			},
			{
				"x": 1.3593577805,
				"y": 2.4737523218,
				"z": 2.2472784427,
				"element": "H" 
			}
		],
		 "valence_orbital": [ 
			{
				"type": "occ",
				"energy": -0.26055,
				"method": "rhf"
			},
			{
				"type": "occ",
				"energy": -0.24545,
				"method": "rhf"
			},
			{
				"type": "occ",
				"energy": -0.23785,
				"method": "rhf"
			},
			{
				"type": "occ",
				"energy": -0.2359,
				"method": "rhf"
			},
			{
				"type": "occ",
				"energy": -0.23176,
				"method": "rhf"
			},
			{
				"type": "unocc",
				"energy": 0.01849,
				"method": "rhf"
			},
			{
				"type": "unocc",
				"energy": 0.05409,
				"method": "rhf"
			},
			{
				"type": "unocc",
				"energy": 0.07847,
				"method": "rhf"
			},
			{
				"type": "unocc",
				"energy": 0.08876,
				"method": "rhf"
			},
			{
				"type": "unocc",
				"energy": 0.0934,
				"method": "rhf"
			}
		],
		"cosmo_sigma_profile": { 
			"-0.025": 0.0,
			"-0.024": 0.0,
			"-0.023": 0.0,
			"-0.022": 0.0,
			"-0.021": 0.0,
			"-0.02": 0.0,
			"-0.019": 0.0,
			"-0.018": 0.0,
			"-0.017": 0.0,
			"-0.016": 0.0,
			"-0.015": 0.0,
			"-0.014": 0.0,
			"-0.013": 0.0,
			"-0.012": 0.0,
			"-0.011": 0.243155320024,
			"-0.01": 1.13990922622,
			"-0.009": 1.12922229114,
			"-0.008": 1.06068957519,
			"-0.007": 0.935286661513,
			"-0.006": 7.3168341283,
			"-0.005": 19.2600805417,
			"-0.004": 37.0219162025,
			"-0.003": 41.0639552347,
			"-0.002": 36.8460246169,
			"-0.001": 33.9001167046,
			"0.0": 40.2431018694,
			"0.001": 26.0655208966,
			"0.002": 11.0431701221,
			"0.003": 8.23107050404,
			"0.004": 6.49313910173,
			"0.005": 7.01031304375,
			"0.006": 5.94322840452,
			"0.007": 3.95829354012,
			"0.008": 3.76606743895,
			"0.009": 2.94223454478,
			"0.01": 3.69515625224,
			"0.011": 3.49027277391,
			"0.012": 4.13264679267,
			"0.013": 5.99624695029,
			"0.014": 5.8012587334,
			"0.015": 1.52407033513,
			"0.016": 0.0425969106182,
			"0.017": 0.0,
			"0.018": 0.0,
			"0.019": 0.0,
			"0.02": 0.0,
			"0.021": 0.0,
			"0.022": 0.0,
			"0.023": 0.0,
			"0.024": 0.0,
			"0.025": 0.0
		}
	}
}
