{
	 "smiles": "CC(NC(=O)C1=CC(=CC=C1)[N+]([O-])=O)C(O)=O", 
	 "Tm": 433.15, 
	 "num_atms": 27, 
	 "gaussian": { 
		 "optdone": 1, 
		 "sigma_profile": "yes", 
		 "theory": "DFT", 
		 "functional": "B3LYP", 
		 "basiset": "6-31G**", 
		 "properties": { 
			 "R2extent": 5606.87, 
			 "electric_dipole_moment_norm": 4.72087364478, 
			 "electric_quadrupole_moment_norm": 24.9337109055, 
			 "total_energy": -872.630281377, 
			 "HOMO_LUMO_gap": 0.16002, 
			 "cosmo_polarized_energy": -24.5, 
			 "cosmo_cavitation_energy": 32.89, 
			 "cosmo_dispersion_energy": -22.6, 
			 "cosmo_repulsion_energy": 1.77, 
			 "cosmo_total_nonelectrostatic_energy": 12.06, 
			 "SMD_solvation_energy": 9.29 
		},
		"coords": [
			{
				"x": -0.3996069467,
				"y": 3.1302394728,
				"z": -0.158441575,
				"element": "C" 
			},
			{
				"x": -1.221703751,
				"y": 1.8262261422,
				"z": -0.2656283106,
				"element": "C" 
			},
			{
				"x": -0.7386369687,
				"y": 0.7633181497,
				"z": 0.603683901,
				"element": "N" 
			},
			{
				"x": 0.5114884171,
				"y": 0.194298031,
				"z": 0.6503736035,
				"element": "C" 
			},
			{
				"x": 0.9423016803,
				"y": -0.316542018,
				"z": 1.6770718566,
				"element": "O" 
			},
			{
				"x": 1.3392732395,
				"y": 0.1578280412,
				"z": -0.6092990298,
				"element": "C" 
			},
			{
				"x": 0.792628917,
				"y": -0.105462804,
				"z": -1.8677741578,
				"element": "C" 
			},
			{
				"x": 1.6444416158,
				"y": -0.2000749554,
				"z": -2.9660552888,
				"element": "C" 
			},
			{
				"x": 3.0241025446,
				"y": -0.0457104061,
				"z": -2.8558552329,
				"element": "C" 
			},
			{
				"x": 3.5633833831,
				"y": 0.1992477801,
				"z": -1.5930095724,
				"element": "C" 
			},
			{
				"x": 2.7308364997,
				"y": 0.2866612299,
				"z": -0.477953029,
				"element": "C" 
			},
			{
				"x": 1.0585522039,
				"y": -0.4685730005,
				"z": -4.290967845,
				"element": "N" 
			},
			{
				"x": 1.828739896,
				"y": -0.5907476883,
				"z": -5.2411459369,
				"element": "O" 
			},
			{
				"x": -0.168130748,
				"y": -0.5442248484,
				"z": -4.3655381835,
				"element": "O" 
			},
			{
				"x": -2.673787034,
				"y": 2.1084070082,
				"z": 0.1521522918,
				"element": "C" 
			},
			{
				"x": -3.4147837664,
				"y": 2.8065608439,
				"z": -0.735478979,
				"element": "O" 
			},
			{
				"x": -3.1304051303,
				"y": 1.7833982478,
				"z": 1.2195818675,
				"element": "O" 
			},
			{
				"x": -0.4074767467,
				"y": 3.4962321533,
				"z": 0.8719038339,
				"element": "H" 
			},
			{
				"x": 0.6351434981,
				"y": 2.9458996153,
				"z": -0.4566527262,
				"element": "H" 
			},
			{
				"x": -0.8055527174,
				"y": 3.9130820611,
				"z": -0.8075550273,
				"element": "H" 
			},
			{
				"x": -1.2278308121,
				"y": 1.4944794315,
				"z": -1.3103194049,
				"element": "H" 
			},
			{
				"x": -1.2386489308,
				"y": 0.7132108635,
				"z": 1.487814031,
				"element": "H" 
			},
			{
				"x": -0.2662036321,
				"y": -0.2770898799,
				"z": -2.0110080091,
				"element": "H" 
			},
			{
				"x": 3.6422116698,
				"y": -0.1258052317,
				"z": -3.7412745432,
				"element": "H" 
			},
			{
				"x": 4.6367017209,
				"y": 0.312373789,
				"z": -1.479555805,
				"element": "H" 
			},
			{
				"x": 3.1424214559,
				"y": 0.4437198411,
				"z": 0.5134235615,
				"element": "H" 
			},
			{
				"x": -2.9283595574,
				"y": 2.9472481307,
				"z": -1.5606922904,
				"element": "H" 
			}
		],
		 "valence_orbital": [ 
			{
				"type": "occ",
				"energy": -0.30263,
				"method": "rhf"
			},
			{
				"type": "occ",
				"energy": -0.29714,
				"method": "rhf"
			},
			{
				"type": "occ",
				"energy": -0.29271,
				"method": "rhf"
			},
			{
				"type": "occ",
				"energy": -0.27727,
				"method": "rhf"
			},
			{
				"type": "occ",
				"energy": -0.26252,
				"method": "rhf"
			},
			{
				"type": "unocc",
				"energy": -0.1025,
				"method": "rhf"
			},
			{
				"type": "unocc",
				"energy": -0.06125,
				"method": "rhf"
			},
			{
				"type": "unocc",
				"energy": -0.0187,
				"method": "rhf"
			},
			{
				"type": "unocc",
				"energy": -0.01679,
				"method": "rhf"
			},
			{
				"type": "unocc",
				"energy": 0.02621,
				"method": "rhf"
			}
		],
		"cosmo_sigma_profile": { 
			"-0.025": 0.0,
			"-0.024": 0.0,
			"-0.023": 0.0,
			"-0.022": 0.0,
			"-0.021": 0.0106343786276,
			"-0.02": 0.599026305079,
			"-0.019": 0.964137785922,
			"-0.018": 1.482831539,
			"-0.017": 1.14599920756,
			"-0.016": 1.36059500667,
			"-0.015": 1.04230846891,
			"-0.014": 0.935776206543,
			"-0.013": 1.19244549244,
			"-0.012": 1.78620701604,
			"-0.011": 1.6245403933,
			"-0.01": 1.63874649844,
			"-0.009": 2.58742498504,
			"-0.008": 6.93893111805,
			"-0.007": 10.6248315436,
			"-0.006": 12.290200343,
			"-0.005": 16.4780988876,
			"-0.004": 19.511349098,
			"-0.003": 19.1890881508,
			"-0.002": 19.2202079234,
			"-0.001": 19.2110602631,
			"0.0": 15.4106362206,
			"0.001": 13.8845181174,
			"0.002": 8.90865459542,
			"0.003": 5.75096378136,
			"0.004": 5.66512510189,
			"0.005": 7.18377100899,
			"0.006": 6.92278970802,
			"0.007": 14.1531274938,
			"0.008": 10.3575099968,
			"0.009": 10.3053662655,
			"0.01": 8.0153803145,
			"0.011": 4.99123764265,
			"0.012": 4.65730408788,
			"0.013": 5.16185819844,
			"0.014": 0.991750737658,
			"0.015": 0.0,
			"0.016": 0.0,
			"0.017": 0.0,
			"0.018": 0.0,
			"0.019": 0.0,
			"0.02": 0.0,
			"0.021": 0.0,
			"0.022": 0.0,
			"0.023": 0.0,
			"0.024": 0.0,
			"0.025": 0.0
		}
	}
}
