{
	 "smiles": "CCCC1CCCC1", 
	 "Tm": 156.15, 
	 "num_atms": 24, 
	 "gaussian": { 
		 "optdone": 1, 
		 "sigma_profile": "yes", 
		 "theory": "DFT", 
		 "functional": "B3LYP", 
		 "basiset": "6-31G**", 
		 "properties": { 
			 "R2extent": 1980.742, 
			 "electric_dipole_moment_norm": 0.0259248915138, 
			 "electric_quadrupole_moment_norm": 0.879058320022, 
			 "total_energy": -314.513284435, 
			 "HOMO_LUMO_gap": 0.38201, 
			 "cosmo_polarized_energy": -0.68, 
			 "cosmo_cavitation_energy": 23.91, 
			 "cosmo_dispersion_energy": -17.8, 
			 "cosmo_repulsion_energy": 1.5, 
			 "cosmo_total_nonelectrostatic_energy": 7.61, 
			 "SMD_solvation_energy": 3.33 
		},
		"coords": [
			{
				"x": -1.8772895017,
				"y": -0.4171643258,
				"z": 1.8371708035,
				"element": "C" 
			},
			{
				"x": -1.0468324695,
				"y": -0.8459501353,
				"z": 0.6220102226,
				"element": "C" 
			},
			{
				"x": 0.434212594,
				"y": -1.0564506943,
				"z": 0.9719496801,
				"element": "C" 
			},
			{
				"x": 1.3670841954,
				"y": -1.4892067922,
				"z": -0.1734957136,
				"element": "C" 
			},
			{
				"x": 1.0357691022,
				"y": -2.8263493566,
				"z": -0.8659342521,
				"element": "C" 
			},
			{
				"x": 1.9321011347,
				"y": -2.8401357359,
				"z": -2.1262093383,
				"element": "C" 
			},
			{
				"x": 2.2237091598,
				"y": -1.3421958216,
				"z": -2.454405692,
				"element": "C" 
			},
			{
				"x": 1.4844173235,
				"y": -0.5239191732,
				"z": -1.3700568976,
				"element": "C" 
			},
			{
				"x": -1.5063999121,
				"y": 0.5243716291,
				"z": 2.2585212164,
				"element": "H" 
			},
			{
				"x": -2.929733052,
				"y": -0.2710225957,
				"z": 1.5724828756,
				"element": "H" 
			},
			{
				"x": -1.8357462531,
				"y": -1.1711905009,
				"z": 2.6317251689,
				"element": "H" 
			},
			{
				"x": -1.1424485928,
				"y": -0.0863269519,
				"z": -0.1638001562,
				"element": "H" 
			},
			{
				"x": -1.4692653427,
				"y": -1.7694727601,
				"z": 0.2069159062,
				"element": "H" 
			},
			{
				"x": 0.4994938882,
				"y": -1.8052868077,
				"z": 1.774398471,
				"element": "H" 
			},
			{
				"x": 0.8256983871,
				"y": -0.1247069397,
				"z": 1.4049891639,
				"element": "H" 
			},
			{
				"x": 2.3742785204,
				"y": -1.5903757518,
				"z": 0.2605681383,
				"element": "H" 
			},
			{
				"x": 1.1996160067,
				"y": -3.6936546817,
				"z": -0.2169738061,
				"element": "H" 
			},
			{
				"x": -0.0212346183,
				"y": -2.8394363344,
				"z": -1.1589187424,
				"element": "H" 
			},
			{
				"x": 1.4532941646,
				"y": -3.3616571427,
				"z": -2.9608091775,
				"element": "H" 
			},
			{
				"x": 2.867690143,
				"y": -3.3718389062,
				"z": -1.9218571894,
				"element": "H" 
			},
			{
				"x": 3.300715069,
				"y": -1.1476559235,
				"z": -2.4095757576,
				"element": "H" 
			},
			{
				"x": 1.8993696578,
				"y": -1.068195483,
				"z": -3.4631281741,
				"element": "H" 
			},
			{
				"x": 1.9992496507,
				"y": 0.4089393324,
				"z": -1.1152171214,
				"element": "H" 
			},
			{
				"x": 0.483050745,
				"y": -0.2514181472,
				"z": -1.7254496281,
				"element": "H" 
			}
		],
		 "valence_orbital": [ 
			{
				"type": "occ",
				"energy": -0.32645,
				"method": "rhf"
			},
			{
				"type": "occ",
				"energy": -0.3091,
				"method": "rhf"
			},
			{
				"type": "occ",
				"energy": -0.30835,
				"method": "rhf"
			},
			{
				"type": "occ",
				"energy": -0.29825,
				"method": "rhf"
			},
			{
				"type": "occ",
				"energy": -0.29816,
				"method": "rhf"
			},
			{
				"type": "unocc",
				"energy": 0.08385,
				"method": "rhf"
			},
			{
				"type": "unocc",
				"energy": 0.09728,
				"method": "rhf"
			},
			{
				"type": "unocc",
				"energy": 0.10453,
				"method": "rhf"
			},
			{
				"type": "unocc",
				"energy": 0.12496,
				"method": "rhf"
			},
			{
				"type": "unocc",
				"energy": 0.13458,
				"method": "rhf"
			}
		],
		"cosmo_sigma_profile": { 
			"-0.025": 0.0,
			"-0.024": 0.0,
			"-0.023": 0.0,
			"-0.022": 0.0,
			"-0.021": 0.0,
			"-0.02": 0.0,
			"-0.019": 0.0,
			"-0.018": 0.0,
			"-0.017": 0.0,
			"-0.016": 0.0,
			"-0.015": 0.0,
			"-0.014": 0.0,
			"-0.013": 0.0,
			"-0.012": 0.0,
			"-0.011": 0.0,
			"-0.01": 0.0,
			"-0.009": 0.0,
			"-0.008": 0.0,
			"-0.007": 0.0,
			"-0.006": 0.0,
			"-0.005": 0.0,
			"-0.004": 0.0194368687306,
			"-0.003": 3.33076839946,
			"-0.002": 24.0974029403,
			"-0.001": 37.1266254545,
			"0.0": 51.0647067927,
			"0.001": 41.4757781769,
			"0.002": 23.7185932428,
			"0.003": 2.26606985344,
			"0.004": 0.0,
			"0.005": 0.0,
			"0.006": 0.0,
			"0.007": 0.0,
			"0.008": 0.0,
			"0.009": 0.0,
			"0.01": 0.0,
			"0.011": 0.0,
			"0.012": 0.0,
			"0.013": 0.0,
			"0.014": 0.0,
			"0.015": 0.0,
			"0.016": 0.0,
			"0.017": 0.0,
			"0.018": 0.0,
			"0.019": 0.0,
			"0.02": 0.0,
			"0.021": 0.0,
			"0.022": 0.0,
			"0.023": 0.0,
			"0.024": 0.0,
			"0.025": 0.0
		}
	}
}
