{
	 "smiles": "NC(=O)CCC(NC(=O)C(F)(F)F)C(O)=O", 
	 "Tm": 421.15, 
	 "num_atms": 25, 
	 "gaussian": { 
		 "optdone": 1, 
		 "sigma_profile": "yes", 
		 "theory": "DFT", 
		 "functional": "B3LYP", 
		 "basiset": "6-31G**", 
		 "properties": { 
			 "R2extent": 5122.8665, 
			 "electric_dipole_moment_norm": 5.69906725175, 
			 "electric_quadrupole_moment_norm": 23.9191907102, 
			 "total_energy": -982.126239537, 
			 "HOMO_LUMO_gap": 0.23724, 
			 "cosmo_polarized_energy": -26.34, 
			 "cosmo_cavitation_energy": 31.91, 
			 "cosmo_dispersion_energy": -21.84, 
			 "cosmo_repulsion_energy": 1.72, 
			 "cosmo_total_nonelectrostatic_energy": 11.78, 
			 "SMD_solvation_energy": 8.73 
		},
		"coords": [
			{
				"x": 1.561048224,
				"y": -0.9405059068,
				"z": -5.1911174344,
				"element": "N" 
			},
			{
				"x": 1.6838716197,
				"y": -1.3280113058,
				"z": -3.8869370375,
				"element": "C" 
			},
			{
				"x": 2.1019337757,
				"y": -2.4325345864,
				"z": -3.5699029481,
				"element": "O" 
			},
			{
				"x": 1.3119006442,
				"y": -0.2591342363,
				"z": -2.8552754888,
				"element": "C" 
			},
			{
				"x": 0.7044314762,
				"y": -0.8993270878,
				"z": -1.6016237615,
				"element": "C" 
			},
			{
				"x": 0.7076252091,
				"y": 0.0021184778,
				"z": -0.3523412658,
				"element": "C" 
			},
			{
				"x": 0.539377515,
				"y": -0.7693821227,
				"z": 0.8769530702,
				"element": "N" 
			},
			{
				"x": -0.6556516961,
				"y": -1.3272980083,
				"z": 1.1862316598,
				"element": "C" 
			},
			{
				"x": -1.6456444427,
				"y": -1.3192247183,
				"z": 0.4756258848,
				"element": "O" 
			},
			{
				"x": -0.6912287997,
				"y": -2.049533185,
				"z": 2.5531618709,
				"element": "C" 
			},
			{
				"x": -0.8173037494,
				"y": -3.3723949374,
				"z": 2.3721430311,
				"element": "F" 
			},
			{
				"x": 0.4428733355,
				"y": -1.8369717048,
				"z": 3.2712147149,
				"element": "F" 
			},
			{
				"x": -1.726692896,
				"y": -1.618302812,
				"z": 3.2800389272,
				"element": "F" 
			},
			{
				"x": -0.3019625687,
				"y": 1.1669651677,
				"z": -0.3338119458,
				"element": "C" 
			},
			{
				"x": -0.7317679931,
				"y": 1.5148752026,
				"z": -1.5659627652,
				"element": "O" 
			},
			{
				"x": -0.6343258806,
				"y": 1.754042445,
				"z": 0.6679692136,
				"element": "O" 
			},
			{
				"x": 1.1265912564,
				"y": -0.0723470247,
				"z": -5.4571770766,
				"element": "H" 
			},
			{
				"x": 1.783906613,
				"y": -1.6147201942,
				"z": -5.9079327641,
				"element": "H" 
			},
			{
				"x": 2.2477637062,
				"y": 0.2579286738,
				"z": -2.5968366671,
				"element": "H" 
			},
			{
				"x": 0.6457502259,
				"y": 0.4930751341,
				"z": -3.2843771719,
				"element": "H" 
			},
			{
				"x": -0.3145203984,
				"y": -1.2419415797,
				"z": -1.7968771118,
				"element": "H" 
			},
			{
				"x": 1.3017213773,
				"y": -1.7847255006,
				"z": -1.3670327902,
				"element": "H" 
			},
			{
				"x": 1.692282806,
				"y": 0.4806969151,
				"z": -0.2726123521,
				"element": "H" 
			},
			{
				"x": 1.2478943028,
				"y": -0.72674226,
				"z": 1.5933459611,
				"element": "H" 
			},
			{
				"x": -1.3423736624,
				"y": 2.2602951548,
				"z": -1.4337657527,
				"element": "H" 
			}
		],
		 "valence_orbital": [ 
			{
				"type": "occ",
				"energy": -0.29157,
				"method": "rhf"
			},
			{
				"type": "occ",
				"energy": -0.28175,
				"method": "rhf"
			},
			{
				"type": "occ",
				"energy": -0.27892,
				"method": "rhf"
			},
			{
				"type": "occ",
				"energy": -0.27304,
				"method": "rhf"
			},
			{
				"type": "occ",
				"energy": -0.2537,
				"method": "rhf"
			},
			{
				"type": "unocc",
				"energy": -0.01646,
				"method": "rhf"
			},
			{
				"type": "unocc",
				"energy": -0.00509,
				"method": "rhf"
			},
			{
				"type": "unocc",
				"energy": 0.02381,
				"method": "rhf"
			},
			{
				"type": "unocc",
				"energy": 0.06098,
				"method": "rhf"
			},
			{
				"type": "unocc",
				"energy": 0.06993,
				"method": "rhf"
			}
		],
		"cosmo_sigma_profile": { 
			"-0.025": 0.0,
			"-0.024": 0.0,
			"-0.023": 0.0,
			"-0.022": 0.0,
			"-0.021": 0.0,
			"-0.02": 0.0,
			"-0.019": 0.297127252927,
			"-0.018": 1.02880400675,
			"-0.017": 0.962583600839,
			"-0.016": 1.66113133576,
			"-0.015": 2.20024339678,
			"-0.014": 3.25183855756,
			"-0.013": 4.02561658181,
			"-0.012": 4.56844704756,
			"-0.011": 4.61859040955,
			"-0.01": 5.90869164977,
			"-0.009": 6.61709037618,
			"-0.008": 6.16469356334,
			"-0.007": 6.54023318823,
			"-0.006": 8.17279289831,
			"-0.005": 7.2479853128,
			"-0.004": 9.62775669351,
			"-0.003": 11.1677200414,
			"-0.002": 10.9621395659,
			"-0.001": 11.7294631298,
			"0.0": 12.8894275732,
			"0.001": 21.2034341933,
			"0.002": 32.3026286977,
			"0.003": 11.7521016005,
			"0.004": 8.29571599138,
			"0.005": 7.37095752822,
			"0.006": 6.07632855801,
			"0.007": 4.63952850042,
			"0.008": 5.55156925673,
			"0.009": 4.71763022471,
			"0.01": 5.10967113915,
			"0.011": 9.54192028289,
			"0.012": 5.52775296592,
			"0.013": 3.41462867394,
			"0.014": 5.59369962527,
			"0.015": 0.896786470859,
			"0.016": 0.0,
			"0.017": 0.0,
			"0.018": 0.0,
			"0.019": 0.0,
			"0.02": 0.0,
			"0.021": 0.0,
			"0.022": 0.0,
			"0.023": 0.0,
			"0.024": 0.0,
			"0.025": 0.0
		}
	}
}
