{
	 "smiles": "SC1=NC(=O)C=CN1C1CC1", 
	 "Tm": 512.15, 
	 "num_atms": 19, 
	 "gaussian": { 
		 "optdone": 1, 
		 "sigma_profile": "yes", 
		 "theory": "DFT", 
		 "functional": "B3LYP", 
		 "basiset": "6-31G**", 
		 "properties": { 
			 "R2extent": 2530.8029, 
			 "electric_dipole_moment_norm": 9.00197303429, 
			 "electric_quadrupole_moment_norm": 21.3582158913, 
			 "total_energy": -854.425537345, 
			 "HOMO_LUMO_gap": 0.20554, 
			 "cosmo_polarized_energy": -23.29, 
			 "cosmo_cavitation_energy": 24.24, 
			 "cosmo_dispersion_energy": -18.33, 
			 "cosmo_repulsion_energy": 1.42, 
			 "cosmo_total_nonelectrostatic_energy": 7.34, 
			 "SMD_solvation_energy": 2.63 
		},
		"coords": [
			{
				"x": 1.3163720141,
				"y": -0.5427438036,
				"z": 2.7767270795,
				"element": "S" 
			},
			{
				"x": 0.8307326934,
				"y": 0.7419475517,
				"z": 1.6297219858,
				"element": "C" 
			},
			{
				"x": 1.1237490412,
				"y": 1.9305260478,
				"z": 2.024787576,
				"element": "N" 
			},
			{
				"x": 0.7710433341,
				"y": 3.0687652505,
				"z": 1.2643838554,
				"element": "C" 
			},
			{
				"x": 1.1007129562,
				"y": 4.1917656573,
				"z": 1.6110679074,
				"element": "O" 
			},
			{
				"x": -0.0192781366,
				"y": 2.7916708039,
				"z": 0.0595415173,
				"element": "C" 
			},
			{
				"x": -0.2791324053,
				"y": 1.5212503098,
				"z": -0.3034159679,
				"element": "C" 
			},
			{
				"x": 0.176909756,
				"y": 0.4354614819,
				"z": 0.4399063071,
				"element": "N" 
			},
			{
				"x": -0.1751318409,
				"y": -0.9061545188,
				"z": 0.0225235992,
				"element": "C" 
			},
			{
				"x": 0.9064925575,
				"y": -1.8709362126,
				"z": -0.4110874615,
				"element": "C" 
			},
			{
				"x": -0.0253351639,
				"y": -1.2782893281,
				"z": -1.431411758,
				"element": "C" 
			},
			{
				"x": 0.8760280748,
				"y": -1.6127297085,
				"z": 2.0911822565,
				"element": "H" 
			},
			{
				"x": -0.3759486512,
				"y": 3.6244627292,
				"z": -0.5342572652,
				"element": "H" 
			},
			{
				"x": -0.8483632284,
				"y": 1.2578525591,
				"z": -1.1864259924,
				"element": "H" 
			},
			{
				"x": -1.0337681431,
				"y": -1.3201471817,
				"z": 0.5487249148,
				"element": "H" 
			},
			{
				"x": 0.7926170679,
				"y": -2.91509112,
				"z": -0.1358557465,
				"element": "H" 
			},
			{
				"x": 1.9280724993,
				"y": -1.5055198687,
				"z": -0.398127468,
				"element": "H" 
			},
			{
				"x": 0.3884996981,
				"y": -0.5361735429,
				"z": -2.1062413948,
				"element": "H" 
			},
			{
				"x": -0.7986721232,
				"y": -1.9026171064,
				"z": -1.8665439449,
				"element": "H" 
			}
		],
		 "valence_orbital": [ 
			{
				"type": "occ",
				"energy": -0.33029,
				"method": "rhf"
			},
			{
				"type": "occ",
				"energy": -0.27439,
				"method": "rhf"
			},
			{
				"type": "occ",
				"energy": -0.2597,
				"method": "rhf"
			},
			{
				"type": "occ",
				"energy": -0.23751,
				"method": "rhf"
			},
			{
				"type": "occ",
				"energy": -0.2323,
				"method": "rhf"
			},
			{
				"type": "unocc",
				"energy": -0.02676,
				"method": "rhf"
			},
			{
				"type": "unocc",
				"energy": -0.02234,
				"method": "rhf"
			},
			{
				"type": "unocc",
				"energy": 0.0109,
				"method": "rhf"
			},
			{
				"type": "unocc",
				"energy": 0.04825,
				"method": "rhf"
			},
			{
				"type": "unocc",
				"energy": 0.06797,
				"method": "rhf"
			}
		],
		"cosmo_sigma_profile": { 
			"-0.025": 0.0,
			"-0.024": 0.0,
			"-0.023": 0.0,
			"-0.022": 0.0,
			"-0.021": 0.0,
			"-0.02": 0.0,
			"-0.019": 0.0,
			"-0.018": 0.0,
			"-0.017": 0.0,
			"-0.016": 0.0,
			"-0.015": 0.0,
			"-0.014": 0.0,
			"-0.013": 0.0,
			"-0.012": 0.0961608133312,
			"-0.011": 0.832628395825,
			"-0.01": 2.01385955425,
			"-0.009": 3.87465406588,
			"-0.008": 7.3301310052,
			"-0.007": 13.5671884071,
			"-0.006": 18.9679753325,
			"-0.005": 13.7806572929,
			"-0.004": 12.6457411822,
			"-0.003": 14.4200404371,
			"-0.002": 11.7384810633,
			"-0.001": 10.9797490421,
			"0.0": 8.38192081997,
			"0.001": 9.74830438035,
			"0.002": 10.2952648005,
			"0.003": 7.63854205249,
			"0.004": 6.45432948988,
			"0.005": 6.61679810157,
			"0.006": 4.60363370002,
			"0.007": 3.36326258053,
			"0.008": 2.15463074919,
			"0.009": 2.4926236093,
			"0.01": 1.73206692687,
			"0.011": 2.26088280212,
			"0.012": 2.41677933536,
			"0.013": 3.84165677335,
			"0.014": 6.96015104767,
			"0.015": 4.08774806981,
			"0.016": 2.60399403553,
			"0.017": 0.2557079888,
			"0.018": 0.0,
			"0.019": 0.0,
			"0.02": 0.0,
			"0.021": 0.0,
			"0.022": 0.0,
			"0.023": 0.0,
			"0.024": 0.0,
			"0.025": 0.0
		}
	}
}
