{
	 "smiles": "ClCC(=O)NCC#N", 
	 "Tm": 362.15, 
	 "num_atms": 13, 
	 "gaussian": { 
		 "optdone": 1, 
		 "sigma_profile": "yes", 
		 "theory": "DFT", 
		 "functional": "B3LYP", 
		 "basiset": "6-31G**", 
		 "properties": { 
			 "R2extent": 1861.8202, 
			 "electric_dipole_moment_norm": 3.10945889827, 
			 "electric_quadrupole_moment_norm": 13.3963982689, 
			 "total_energy": -800.347035126, 
			 "HOMO_LUMO_gap": 0.27401, 
			 "cosmo_polarized_energy": -14.67, 
			 "cosmo_cavitation_energy": 20.32, 
			 "cosmo_dispersion_energy": -14.52, 
			 "cosmo_repulsion_energy": 1.25, 
			 "cosmo_total_nonelectrostatic_energy": 7.05, 
			 "SMD_solvation_energy": 5.16 
		},
		"coords": [
			{
				"x": 1.7768813201,
				"y": 1.9220134823,
				"z": 1.0010867863,
				"element": "Cl" 
			},
			{
				"x": 0.080285462,
				"y": 1.3315595717,
				"z": 0.7565067552,
				"element": "C" 
			},
			{
				"x": -0.0893512122,
				"y": -0.1531995648,
				"z": 0.4360297647,
				"element": "C" 
			},
			{
				"x": -1.2204105402,
				"y": -0.5665591179,
				"z": 0.2258744694,
				"element": "O" 
			},
			{
				"x": 1.0292886925,
				"y": -0.9274732998,
				"z": 0.3980095845,
				"element": "N" 
			},
			{
				"x": 0.9339503015,
				"y": -2.3518685125,
				"z": 0.1402569224,
				"element": "C" 
			},
			{
				"x": 1.3907119427,
				"y": -3.1635508705,
				"z": 1.280588078,
				"element": "C" 
			},
			{
				"x": 1.7726368631,
				"y": -3.7999040302,
				"z": 2.1722013052,
				"element": "N" 
			},
			{
				"x": -0.3515104905,
				"y": 1.9081313116,
				"z": -0.0615670737,
				"element": "H" 
			},
			{
				"x": -0.4734463,
				"y": 1.5474391818,
				"z": 1.6707713597,
				"element": "H" 
			},
			{
				"x": 1.9264455465,
				"y": -0.512698031,
				"z": 0.6090937534,
				"element": "H" 
			},
			{
				"x": 1.5168960871,
				"y": -2.6320722443,
				"z": -0.7451310044,
				"element": "H" 
			},
			{
				"x": -0.1202776726,
				"y": -2.5647178765,
				"z": -0.0639207005,
				"element": "H" 
			}
		],
		 "valence_orbital": [ 
			{
				"type": "occ",
				"energy": -0.34321,
				"method": "rhf"
			},
			{
				"type": "occ",
				"energy": -0.33688,
				"method": "rhf"
			},
			{
				"type": "occ",
				"energy": -0.32518,
				"method": "rhf"
			},
			{
				"type": "occ",
				"energy": -0.29088,
				"method": "rhf"
			},
			{
				"type": "occ",
				"energy": -0.28284,
				"method": "rhf"
			},
			{
				"type": "unocc",
				"energy": -0.00883,
				"method": "rhf"
			},
			{
				"type": "unocc",
				"energy": 0.00019,
				"method": "rhf"
			},
			{
				"type": "unocc",
				"energy": 0.01489,
				"method": "rhf"
			},
			{
				"type": "unocc",
				"energy": 0.02528,
				"method": "rhf"
			},
			{
				"type": "unocc",
				"energy": 0.08504,
				"method": "rhf"
			}
		],
		"cosmo_sigma_profile": { 
			"-0.025": 0.0,
			"-0.024": 0.0,
			"-0.023": 0.0,
			"-0.022": 0.0,
			"-0.021": 0.0,
			"-0.02": 0.0,
			"-0.019": 0.0,
			"-0.018": 0.0,
			"-0.017": 0.0,
			"-0.016": 0.0647761078246,
			"-0.015": 0.591628958344,
			"-0.014": 0.82200074525,
			"-0.013": 1.0478144479,
			"-0.012": 0.887478304638,
			"-0.011": 0.788286562962,
			"-0.01": 4.94276049912,
			"-0.009": 10.2771074179,
			"-0.008": 7.92742521082,
			"-0.007": 9.37846760005,
			"-0.006": 7.5621057971,
			"-0.005": 7.83717001516,
			"-0.004": 7.43311112318,
			"-0.003": 6.79192744881,
			"-0.002": 7.60207551617,
			"-0.001": 7.58137545534,
			"0.0": 7.41893727775,
			"0.001": 6.41756120337,
			"0.002": 7.22392651817,
			"0.003": 6.8611162407,
			"0.004": 7.47346225849,
			"0.005": 11.112314191,
			"0.006": 5.12636425828,
			"0.007": 3.45125373882,
			"0.008": 5.05825295107,
			"0.009": 4.62390630777,
			"0.01": 4.13983995427,
			"0.011": 4.97328498398,
			"0.012": 6.71758936462,
			"0.013": 2.94860369121,
			"0.014": 0.0662187719638,
			"0.015": 0.0,
			"0.016": 0.0,
			"0.017": 0.0,
			"0.018": 0.0,
			"0.019": 0.0,
			"0.02": 0.0,
			"0.021": 0.0,
			"0.022": 0.0,
			"0.023": 0.0,
			"0.024": 0.0,
			"0.025": 0.0
		}
	}
}
