{
	 "smiles": "OC(=O)C1=C(OC2=CC=CC=C2)N=CC=C1", 
	 "Tm": 454.15, 
	 "num_atms": 25, 
	 "gaussian": { 
		 "optdone": 1, 
		 "sigma_profile": "yes", 
		 "theory": "DFT", 
		 "functional": "B3LYP", 
		 "basiset": "6-31G**", 
		 "properties": { 
			 "R2extent": 3525.4337, 
			 "electric_dipole_moment_norm": 4.63695789284, 
			 "electric_quadrupole_moment_norm": 21.42445883, 
			 "total_energy": -743.109461155, 
			 "HOMO_LUMO_gap": 0.17099, 
			 "cosmo_polarized_energy": -20.17, 
			 "cosmo_cavitation_energy": 30.08, 
			 "cosmo_dispersion_energy": -21.19, 
			 "cosmo_repulsion_energy": 1.65, 
			 "cosmo_total_nonelectrostatic_energy": 10.54, 
			 "SMD_solvation_energy": 4.78 
		},
		"coords": [
			{
				"x": 1.1310234895,
				"y": -0.3004262847,
				"z": -2.2641281489,
				"element": "O" 
			},
			{
				"x": 1.6365327715,
				"y": -0.3807426852,
				"z": -1.0019285454,
				"element": "C" 
			},
			{
				"x": 2.5643257854,
				"y": 0.3124207182,
				"z": -0.6705090673,
				"element": "O" 
			},
			{
				"x": 1.0068141862,
				"y": -1.4248493049,
				"z": -0.1250634727,
				"element": "C" 
			},
			{
				"x": 0.7904101437,
				"y": -1.2355160335,
				"z": 1.2612899314,
				"element": "C" 
			},
			{
				"x": 1.0271047181,
				"y": -0.0443699048,
				"z": 1.8793859742,
				"element": "O" 
			},
			{
				"x": 0.4490862985,
				"y": 1.1263179061,
				"z": 1.409498108,
				"element": "C" 
			},
			{
				"x": 1.2020516604,
				"y": 2.2938906316,
				"z": 1.5285696338,
				"element": "C" 
			},
			{
				"x": 0.6385602623,
				"y": 3.5075351799,
				"z": 1.1405130349,
				"element": "C" 
			},
			{
				"x": -0.6621914656,
				"y": 3.5564098339,
				"z": 0.630953009,
				"element": "C" 
			},
			{
				"x": -1.4032370927,
				"y": 2.3797456971,
				"z": 0.5192774184,
				"element": "C" 
			},
			{
				"x": -0.8554811497,
				"y": 1.156434446,
				"z": 0.9129611674,
				"element": "C" 
			},
			{
				"x": 0.3844479536,
				"y": -2.2029468876,
				"z": 2.0736789565,
				"element": "N" 
			},
			{
				"x": 0.163583968,
				"y": -3.4181278094,
				"z": 1.5578681891,
				"element": "C" 
			},
			{
				"x": 0.3040718857,
				"y": -3.7170246272,
				"z": 0.2050238892,
				"element": "C" 
			},
			{
				"x": 0.7361485828,
				"y": -2.6971128051,
				"z": -0.6404542653,
				"element": "C" 
			},
			{
				"x": 0.298985496,
				"y": -0.7916135007,
				"z": -2.3173594673,
				"element": "H" 
			},
			{
				"x": 2.2155852318,
				"y": 2.2283512006,
				"z": 1.907186467,
				"element": "H" 
			},
			{
				"x": 1.223583175,
				"y": 4.4182951147,
				"z": 1.2275877853,
				"element": "H" 
			},
			{
				"x": -1.0940590596,
				"y": 4.5044791789,
				"z": 0.3257717043,
				"element": "H" 
			},
			{
				"x": -2.4194111481,
				"y": 2.409086992,
				"z": 0.1364581532,
				"element": "H" 
			},
			{
				"x": -1.4402643284,
				"y": 0.2437888512,
				"z": 0.8575760952,
				"element": "H" 
			},
			{
				"x": -0.1463096586,
				"y": -4.1842368947,
				"z": 2.2658388881,
				"element": "H" 
			},
			{
				"x": 0.1033960855,
				"y": -4.7146889574,
				"z": -0.1695741965,
				"element": "H" 
			},
			{
				"x": 0.9113422089,
				"y": -2.8978000548,
				"z": -1.6943212414,
				"element": "H" 
			}
		],
		 "valence_orbital": [ 
			{
				"type": "occ",
				"energy": -0.28731,
				"method": "rhf"
			},
			{
				"type": "occ",
				"energy": -0.27675,
				"method": "rhf"
			},
			{
				"type": "occ",
				"energy": -0.26803,
				"method": "rhf"
			},
			{
				"type": "occ",
				"energy": -0.25341,
				"method": "rhf"
			},
			{
				"type": "occ",
				"energy": -0.23116,
				"method": "rhf"
			},
			{
				"type": "unocc",
				"energy": -0.06017,
				"method": "rhf"
			},
			{
				"type": "unocc",
				"energy": -0.03807,
				"method": "rhf"
			},
			{
				"type": "unocc",
				"energy": -0.00439,
				"method": "rhf"
			},
			{
				"type": "unocc",
				"energy": 0.00351,
				"method": "rhf"
			},
			{
				"type": "unocc",
				"energy": 0.02566,
				"method": "rhf"
			}
		],
		"cosmo_sigma_profile": { 
			"-0.025": 0.0,
			"-0.024": 0.0,
			"-0.023": 0.0,
			"-0.022": 0.0,
			"-0.021": 0.0,
			"-0.02": 0.0,
			"-0.019": 0.320962166353,
			"-0.018": 1.44028444304,
			"-0.017": 0.464894165844,
			"-0.016": 1.10722771406,
			"-0.015": 1.01964554223,
			"-0.014": 1.08781256236,
			"-0.013": 0.753217395435,
			"-0.012": 1.1569955399,
			"-0.011": 1.72190077167,
			"-0.01": 0.922666427682,
			"-0.009": 1.93649414132,
			"-0.008": 5.32232386161,
			"-0.007": 10.5483379238,
			"-0.006": 16.5290443807,
			"-0.005": 17.0399001234,
			"-0.004": 16.3600141259,
			"-0.003": 13.6040891425,
			"-0.002": 11.9958204939,
			"-0.001": 13.3492176638,
			"0.0": 16.7004198635,
			"0.001": 14.3659314316,
			"0.002": 13.0598245893,
			"0.003": 12.008286649,
			"0.004": 11.9431287591,
			"0.005": 12.5873419209,
			"0.006": 5.74900690449,
			"0.007": 5.68749268187,
			"0.008": 5.44523164009,
			"0.009": 6.91299743221,
			"0.01": 7.61265591619,
			"0.011": 5.62067748516,
			"0.012": 4.18416823079,
			"0.013": 1.31704112429,
			"0.014": 1.05493612478,
			"0.015": 0.775530122855,
			"0.016": 0.0391510042028,
			"0.017": 0.0,
			"0.018": 0.0,
			"0.019": 0.0,
			"0.02": 0.0,
			"0.021": 0.0,
			"0.022": 0.0,
			"0.023": 0.0,
			"0.024": 0.0,
			"0.025": 0.0
		}
	}
}
