{
	 "smiles": "CC1=C(C(O)=O)C(C)=CC(=O)O1", 
	 "Tm": 428.15, 
	 "num_atms": 20, 
	 "gaussian": { 
		 "optdone": 1, 
		 "sigma_profile": "yes", 
		 "theory": "DFT", 
		 "functional": "B3LYP", 
		 "basiset": "6-31G**", 
		 "properties": { 
			 "R2extent": 2593.9982, 
			 "electric_dipole_moment_norm": 4.09846365483, 
			 "electric_quadrupole_moment_norm": 17.5287173883, 
			 "total_energy": -610.581357471, 
			 "HOMO_LUMO_gap": 0.18047, 
			 "cosmo_polarized_energy": -13.05, 
			 "cosmo_cavitation_energy": 24.23, 
			 "cosmo_dispersion_energy": -18.06, 
			 "cosmo_repulsion_energy": 1.43, 
			 "cosmo_total_nonelectrostatic_energy": 7.6, 
			 "SMD_solvation_energy": 6.86 
		},
		"coords": [
			{
				"x": -0.1876587432,
				"y": 0.209540477,
				"z": 1.4970591254,
				"element": "C" 
			},
			{
				"x": 0.0448923547,
				"y": 0.7882359846,
				"z": 0.1332615889,
				"element": "C" 
			},
			{
				"x": -0.5736657325,
				"y": 0.4427124831,
				"z": -1.0546324229,
				"element": "C" 
			},
			{
				"x": -1.5976626568,
				"y": -0.6264320825,
				"z": -0.9965551425,
				"element": "C" 
			},
			{
				"x": -2.3483472208,
				"y": -0.7420712431,
				"z": -2.1219315965,
				"element": "O" 
			},
			{
				"x": -1.8029555311,
				"y": -1.3583854206,
				"z": -0.0435688224,
				"element": "O" 
			},
			{
				"x": -0.1699894431,
				"y": 1.1461117239,
				"z": -2.267637563,
				"element": "C" 
			},
			{
				"x": -0.7439540061,
				"y": 0.8433073925,
				"z": -3.629596009,
				"element": "C" 
			},
			{
				"x": 0.7880047375,
				"y": 2.1137597664,
				"z": -2.1801898836,
				"element": "C" 
			},
			{
				"x": 1.4237319901,
				"y": 2.489295112,
				"z": -0.9472188175,
				"element": "C" 
			},
			{
				"x": 2.268502105,
				"y": 3.326008367,
				"z": -0.7486353861,
				"element": "O" 
			},
			{
				"x": 0.975388501,
				"y": 1.748948619,
				"z": 0.1831227906,
				"element": "O" 
			},
			{
				"x": 0.372595712,
				"y": 0.7985999424,
				"z": 2.2243593438,
				"element": "H" 
			},
			{
				"x": -1.2498488116,
				"y": 0.2006290546,
				"z": 1.7483941827,
				"element": "H" 
			},
			{
				"x": 0.1379793183,
				"y": -0.8333597781,
				"z": 1.5328212857,
				"element": "H" 
			},
			{
				"x": -2.9633878891,
				"y": -1.4717471328,
				"z": -1.9376076196,
				"element": "H" 
			},
			{
				"x": -0.6423348438,
				"y": -0.2158567733,
				"z": -3.8796223023,
				"element": "H" 
			},
			{
				"x": -1.8126240141,
				"y": 1.0678464203,
				"z": -3.6684475227,
				"element": "H" 
			},
			{
				"x": -0.2294216246,
				"y": 1.4366044295,
				"z": -4.3882392853,
				"element": "H" 
			},
			{
				"x": 1.1228557983,
				"y": 2.6525526583,
				"z": -3.0586359436,
				"element": "H" 
			}
		],
		 "valence_orbital": [ 
			{
				"type": "occ",
				"energy": -0.33397,
				"method": "rhf"
			},
			{
				"type": "occ",
				"energy": -0.31496,
				"method": "rhf"
			},
			{
				"type": "occ",
				"energy": -0.28788,
				"method": "rhf"
			},
			{
				"type": "occ",
				"energy": -0.27816,
				"method": "rhf"
			},
			{
				"type": "occ",
				"energy": -0.24133,
				"method": "rhf"
			},
			{
				"type": "unocc",
				"energy": -0.06086,
				"method": "rhf"
			},
			{
				"type": "unocc",
				"energy": -0.04274,
				"method": "rhf"
			},
			{
				"type": "unocc",
				"energy": 0.04649,
				"method": "rhf"
			},
			{
				"type": "unocc",
				"energy": 0.06925,
				"method": "rhf"
			},
			{
				"type": "unocc",
				"energy": 0.10501,
				"method": "rhf"
			}
		],
		"cosmo_sigma_profile": { 
			"-0.025": 0.0,
			"-0.024": 0.0,
			"-0.023": 0.0,
			"-0.022": 0.0,
			"-0.021": 0.0,
			"-0.02": 0.0,
			"-0.019": 0.0,
			"-0.018": 0.643989066883,
			"-0.017": 0.92169028403,
			"-0.016": 0.599474996039,
			"-0.015": 0.938383339866,
			"-0.014": 0.82261320498,
			"-0.013": 0.681899581046,
			"-0.012": 0.237906877464,
			"-0.011": 0.85309986346,
			"-0.01": 0.883857358253,
			"-0.009": 0.645326632477,
			"-0.008": 1.00433187678,
			"-0.007": 3.44204751695,
			"-0.006": 5.45902321396,
			"-0.005": 13.7187647331,
			"-0.004": 18.7309192244,
			"-0.003": 18.3023492489,
			"-0.002": 23.6601571001,
			"-0.001": 21.4110429708,
			"0.0": 13.2532946709,
			"0.001": 9.71794281108,
			"0.002": 7.07902283947,
			"0.003": 4.71214493747,
			"0.004": 4.41646105676,
			"0.005": 4.78635418925,
			"0.006": 4.34952865885,
			"0.007": 2.91296261937,
			"0.008": 3.35292047677,
			"0.009": 3.61304034845,
			"0.01": 4.00048330005,
			"0.011": 7.18557732404,
			"0.012": 8.3391975253,
			"0.013": 1.97601516871,
			"0.014": 0.0,
			"0.015": 0.0,
			"0.016": 0.0,
			"0.017": 0.0,
			"0.018": 0.0,
			"0.019": 0.0,
			"0.02": 0.0,
			"0.021": 0.0,
			"0.022": 0.0,
			"0.023": 0.0,
			"0.024": 0.0,
			"0.025": 0.0
		}
	}
}
