{
	 "smiles": "COC1=CC2=C(C=C1)N=C(C=C2)C(O)=O", 
	 "Tm": 458.15, 
	 "num_atms": 24, 
	 "gaussian": { 
		 "optdone": 1, 
		 "sigma_profile": "yes", 
		 "theory": "DFT", 
		 "functional": "B3LYP", 
		 "basiset": "6-31G**", 
		 "properties": { 
			 "R2extent": 4117.0113, 
			 "electric_dipole_moment_norm": 7.3653111455, 
			 "electric_quadrupole_moment_norm": 20.9222652292, 
			 "total_energy": -705.034109669, 
			 "HOMO_LUMO_gap": 0.16169, 
			 "cosmo_polarized_energy": -13.48, 
			 "cosmo_cavitation_energy": 28.77, 
			 "cosmo_dispersion_energy": -21.45, 
			 "cosmo_repulsion_energy": 1.65, 
			 "cosmo_total_nonelectrostatic_energy": 8.97, 
			 "SMD_solvation_energy": 5.94 
		},
		"coords": [
			{
				"x": 4.3830043716,
				"y": -0.619392596,
				"z": -0.7881576776,
				"element": "C" 
			},
			{
				"x": 3.4262282059,
				"y": -1.535812121,
				"z": -0.2728647155,
				"element": "O" 
			},
			{
				"x": 2.1194345768,
				"y": -1.1676667954,
				"z": -0.2698416352,
				"element": "C" 
			},
			{
				"x": 1.628951871,
				"y": 0.0398803439,
				"z": -0.7312983096,
				"element": "C" 
			},
			{
				"x": 0.2359092794,
				"y": 0.3059324299,
				"z": -0.6734072126,
				"element": "C" 
			},
			{
				"x": -0.6538568022,
				"y": -0.6797895118,
				"z": -0.1365367513,
				"element": "C" 
			},
			{
				"x": -0.1137988475,
				"y": -1.91144701,
				"z": 0.3292128346,
				"element": "C" 
			},
			{
				"x": 1.2332453906,
				"y": -2.1486447077,
				"z": 0.2645733154,
				"element": "C" 
			},
			{
				"x": -1.9937625823,
				"y": -0.4722761662,
				"z": -0.059925344,
				"element": "N" 
			},
			{
				"x": -2.4851805568,
				"y": 0.6772997667,
				"z": -0.4961213133,
				"element": "C" 
			},
			{
				"x": -1.695569006,
				"y": 1.7143404343,
				"z": -1.0427113783,
				"element": "C" 
			},
			{
				"x": -0.3366957634,
				"y": 1.5226418949,
				"z": -1.1285629738,
				"element": "C" 
			},
			{
				"x": -3.9800971988,
				"y": 0.8398029109,
				"z": -0.3807886349,
				"element": "C" 
			},
			{
				"x": -4.5965966178,
				"y": -0.2245009381,
				"z": 0.156040302,
				"element": "O" 
			},
			{
				"x": -4.5667460768,
				"y": 1.8369064594,
				"z": -0.739125884,
				"element": "O" 
			},
			{
				"x": 4.1903326214,
				"y": -0.391127788,
				"z": -1.8438095661,
				"element": "H" 
			},
			{
				"x": 5.3514893792,
				"y": -1.1119044081,
				"z": -0.695458431,
				"element": "H" 
			},
			{
				"x": 4.3930427497,
				"y": 0.3145034849,
				"z": -0.2125141239,
				"element": "H" 
			},
			{
				"x": 2.2857108885,
				"y": 0.7984902814,
				"z": -1.1410215404,
				"element": "H" 
			},
			{
				"x": -0.7990211587,
				"y": -2.6491805408,
				"z": 0.7334274267,
				"element": "H" 
			},
			{
				"x": 1.6642391518,
				"y": -3.080884581,
				"z": 0.6143336288,
				"element": "H" 
			},
			{
				"x": -2.1836015584,
				"y": 2.6228449492,
				"z": -1.375044335,
				"element": "H" 
			},
			{
				"x": 0.3091582794,
				"y": 2.2930001653,
				"z": -1.5419616032,
				"element": "H" 
			},
			{
				"x": -3.8871205966,
				"y": -0.8738159569,
				"z": 0.3487639221,
				"element": "H" 
			}
		],
		 "valence_orbital": [ 
			{
				"type": "occ",
				"energy": -0.30213,
				"method": "rhf"
			},
			{
				"type": "occ",
				"energy": -0.29671,
				"method": "rhf"
			},
			{
				"type": "occ",
				"energy": -0.26037,
				"method": "rhf"
			},
			{
				"type": "occ",
				"energy": -0.25856,
				"method": "rhf"
			},
			{
				"type": "occ",
				"energy": -0.23643,
				"method": "rhf"
			},
			{
				"type": "unocc",
				"energy": -0.07474,
				"method": "rhf"
			},
			{
				"type": "unocc",
				"energy": -0.04272,
				"method": "rhf"
			},
			{
				"type": "unocc",
				"energy": 0.0045,
				"method": "rhf"
			},
			{
				"type": "unocc",
				"energy": 0.03765,
				"method": "rhf"
			},
			{
				"type": "unocc",
				"energy": 0.07959,
				"method": "rhf"
			}
		],
		"cosmo_sigma_profile": { 
			"-0.025": 0.0,
			"-0.024": 0.0,
			"-0.023": 0.0,
			"-0.022": 0.0,
			"-0.021": 0.0,
			"-0.02": 0.0,
			"-0.019": 0.0,
			"-0.018": 0.0,
			"-0.017": 0.0,
			"-0.016": 0.0,
			"-0.015": 0.0,
			"-0.014": 0.0,
			"-0.013": 0.17761163287,
			"-0.012": 0.341794597828,
			"-0.011": 0.404884526204,
			"-0.01": 0.801082473011,
			"-0.009": 0.874990279104,
			"-0.008": 3.08558405924,
			"-0.007": 9.73598375629,
			"-0.006": 15.5971604748,
			"-0.005": 18.5608937636,
			"-0.004": 18.5256940071,
			"-0.003": 16.2863189323,
			"-0.002": 11.6464032831,
			"-0.001": 13.0977591973,
			"0.0": 18.925537825,
			"0.001": 24.9155458451,
			"0.002": 22.1588722294,
			"0.003": 11.7423836561,
			"0.004": 6.13699364124,
			"0.005": 4.51652120327,
			"0.006": 3.59618553414,
			"0.007": 3.62809272428,
			"0.008": 4.56371197739,
			"0.009": 5.01399358248,
			"0.01": 5.61811629816,
			"0.011": 4.8831584446,
			"0.012": 4.3744696348,
			"0.013": 1.62455296625,
			"0.014": 0.0710023439967,
			"0.015": 0.0,
			"0.016": 0.0,
			"0.017": 0.0,
			"0.018": 0.0,
			"0.019": 0.0,
			"0.02": 0.0,
			"0.021": 0.0,
			"0.022": 0.0,
			"0.023": 0.0,
			"0.024": 0.0,
			"0.025": 0.0
		}
	}
}
