{
	 "smiles": "CC(C)OC(C)(C)C", 
	 "Tm": 185.15, 
	 "num_atms": 24, 
	 "gaussian": { 
		 "optdone": 1, 
		 "sigma_profile": "yes", 
		 "theory": "DFT", 
		 "functional": "B3LYP", 
		 "basiset": "6-31G**", 
		 "properties": { 
			 "R2extent": 1632.8749, 
			 "electric_dipole_moment_norm": 1.10939433025, 
			 "electric_quadrupole_moment_norm": 1.52326882066, 
			 "total_energy": -351.625722296, 
			 "HOMO_LUMO_gap": 0.3142, 
			 "cosmo_polarized_energy": -3.75, 
			 "cosmo_cavitation_energy": 24.63, 
			 "cosmo_dispersion_energy": -17.17, 
			 "cosmo_repulsion_energy": 1.42, 
			 "cosmo_total_nonelectrostatic_energy": 8.89, 
			 "SMD_solvation_energy": 4.58 
		},
		"coords": [
			{
				"x": -2.9759168621,
				"y": -0.0614960897,
				"z": -0.8354671835,
				"element": "C" 
			},
			{
				"x": -1.9858721821,
				"y": 1.0942724459,
				"z": -0.6760170511,
				"element": "C" 
			},
			{
				"x": -2.4502462185,
				"y": 2.1110503433,
				"z": 0.3688791043,
				"element": "C" 
			},
			{
				"x": -0.7255367963,
				"y": 0.5568408527,
				"z": -0.2564702614,
				"element": "O" 
			},
			{
				"x": 0.4360802768,
				"y": 0.7354239917,
				"z": -1.0877795454,
				"element": "C" 
			},
			{
				"x": 0.7752622451,
				"y": 2.2269484907,
				"z": -1.2559358495,
				"element": "C" 
			},
			{
				"x": 1.5482231543,
				"y": 0.031138629,
				"z": -0.301447574,
				"element": "C" 
			},
			{
				"x": 0.2498699261,
				"y": 0.0569899682,
				"z": -2.4563134983,
				"element": "C" 
			},
			{
				"x": -3.96932863,
				"y": 0.3049746051,
				"z": -1.1167972209,
				"element": "H" 
			},
			{
				"x": -3.0649819821,
				"y": -0.6100288456,
				"z": 0.1079242411,
				"element": "H" 
			},
			{
				"x": -2.6359947663,
				"y": -0.7620883185,
				"z": -1.6034006535,
				"element": "H" 
			},
			{
				"x": -1.881709407,
				"y": 1.6049564003,
				"z": -1.6426279973,
				"element": "H" 
			},
			{
				"x": -2.5226088678,
				"y": 1.6315041589,
				"z": 1.3505057188,
				"element": "H" 
			},
			{
				"x": -1.7403979051,
				"y": 2.9392503087,
				"z": 0.4483554071,
				"element": "H" 
			},
			{
				"x": -3.4330902502,
				"y": 2.5212003808,
				"z": 0.111769662,
				"element": "H" 
			},
			{
				"x": 0.9004760888,
				"y": 2.6992501131,
				"z": -0.2769246816,
				"element": "H" 
			},
			{
				"x": -0.0078612662,
				"y": 2.7647065106,
				"z": -1.799742734,
				"element": "H" 
			},
			{
				"x": 1.7069992919,
				"y": 2.3489569008,
				"z": -1.8182491499,
				"element": "H" 
			},
			{
				"x": 2.5032668486,
				"y": 0.0936584441,
				"z": -0.8324928311,
				"element": "H" 
			},
			{
				"x": 1.6641501603,
				"y": 0.4927346739,
				"z": 0.6833824771,
				"element": "H" 
			},
			{
				"x": 1.2970420402,
				"y": -1.023363391,
				"z": -0.1553701782,
				"element": "H" 
			},
			{
				"x": -0.5499075393,
				"y": 0.5254918238,
				"z": -3.0385944519,
				"element": "H" 
			},
			{
				"x": 0.0044441093,
				"y": -1.0010449801,
				"z": -2.3238804469,
				"element": "H" 
			},
			{
				"x": 1.1687385316,
				"y": 0.1253725833,
				"z": -3.0481053019,
				"element": "H" 
			}
		],
		 "valence_orbital": [ 
			{
				"type": "occ",
				"energy": -0.35213,
				"method": "rhf"
			},
			{
				"type": "occ",
				"energy": -0.33048,
				"method": "rhf"
			},
			{
				"type": "occ",
				"energy": -0.32777,
				"method": "rhf"
			},
			{
				"type": "occ",
				"energy": -0.28558,
				"method": "rhf"
			},
			{
				"type": "occ",
				"energy": -0.23891,
				"method": "rhf"
			},
			{
				"type": "unocc",
				"energy": 0.07529,
				"method": "rhf"
			},
			{
				"type": "unocc",
				"energy": 0.11072,
				"method": "rhf"
			},
			{
				"type": "unocc",
				"energy": 0.11842,
				"method": "rhf"
			},
			{
				"type": "unocc",
				"energy": 0.12607,
				"method": "rhf"
			},
			{
				"type": "unocc",
				"energy": 0.13438,
				"method": "rhf"
			}
		],
		"cosmo_sigma_profile": { 
			"-0.025": 0.0,
			"-0.024": 0.0,
			"-0.023": 0.0,
			"-0.022": 0.0,
			"-0.021": 0.0,
			"-0.02": 0.0,
			"-0.019": 0.0,
			"-0.018": 0.0,
			"-0.017": 0.0,
			"-0.016": 0.0,
			"-0.015": 0.0,
			"-0.014": 0.0,
			"-0.013": 0.0,
			"-0.012": 0.0,
			"-0.011": 0.0,
			"-0.01": 0.0,
			"-0.009": 0.0,
			"-0.008": 0.0,
			"-0.007": 0.0,
			"-0.006": 0.0,
			"-0.005": 0.635114435478,
			"-0.004": 5.42748286534,
			"-0.003": 23.7864198315,
			"-0.002": 32.635376691,
			"-0.001": 32.1820579349,
			"0.0": 29.0358860889,
			"0.001": 34.3408009057,
			"0.002": 13.9654780037,
			"0.003": 1.9767091419,
			"0.004": 2.09716627396,
			"0.005": 1.48322046151,
			"0.006": 1.72684771163,
			"0.007": 1.66699635792,
			"0.008": 1.32230548949,
			"0.009": 1.31279262998,
			"0.01": 1.35666521369,
			"0.011": 1.34911355471,
			"0.012": 0.623454192212,
			"0.013": 1.38500787807,
			"0.014": 0.751485970448,
			"0.015": 0.0465532520811,
			"0.016": 0.0,
			"0.017": 0.0,
			"0.018": 0.0,
			"0.019": 0.0,
			"0.02": 0.0,
			"0.021": 0.0,
			"0.022": 0.0,
			"0.023": 0.0,
			"0.024": 0.0,
			"0.025": 0.0
		}
	}
}
