{
	 "smiles": "CC(=O)N(C(C)=O)C1=CC(C=CC(O)=O)=CC=C1C=CC(O)=O", 
	 "Tm": 585.15, 
	 "num_atms": 38, 
	 "gaussian": { 
		 "optdone": 1, 
		 "sigma_profile": "yes", 
		 "theory": "DFT", 
		 "functional": "B3LYP", 
		 "basiset": "6-31G**", 
		 "properties": { 
			 "R2extent": 10566.0434, 
			 "electric_dipole_moment_norm": 1.76438066188, 
			 "electric_quadrupole_moment_norm": 50.8377044647, 
			 "total_energy": -1124.83523198, 
			 "HOMO_LUMO_gap": 0.14607, 
			 "cosmo_polarized_energy": -36.55, 
			 "cosmo_cavitation_energy": 44.45, 
			 "cosmo_dispersion_energy": -29.33, 
			 "cosmo_repulsion_energy": 2.26, 
			 "cosmo_total_nonelectrostatic_energy": 17.38, 
			 "SMD_solvation_energy": 12.0 
		},
		"coords": [
			{
				"x": -2.9463724602,
				"y": 1.2266173296,
				"z": 0.0594749411,
				"element": "C" 
			},
			{
				"x": -2.1341824243,
				"y": 0.504033083,
				"z": 1.1179333782,
				"element": "C" 
			},
			{
				"x": -2.5848361646,
				"y": 0.275371378,
				"z": 2.2240425584,
				"element": "O" 
			},
			{
				"x": -0.8179378223,
				"y": 0.1288838556,
				"z": 0.7499884274,
				"element": "N" 
			},
			{
				"x": 0.1206458931,
				"y": -0.5492419513,
				"z": 1.5973783795,
				"element": "C" 
			},
			{
				"x": -0.2485399806,
				"y": -0.8543684194,
				"z": 3.0271057489,
				"element": "C" 
			},
			{
				"x": 1.1992494013,
				"y": -0.8506877983,
				"z": 1.1248801351,
				"element": "O" 
			},
			{
				"x": -0.3490907796,
				"y": 0.350822153,
				"z": -0.5983976929,
				"element": "C" 
			},
			{
				"x": -0.6346675523,
				"y": -0.6280709119,
				"z": -1.5447960026,
				"element": "C" 
			},
			{
				"x": -0.2207196509,
				"y": -0.5220741513,
				"z": -2.8822867922,
				"element": "C" 
			},
			{
				"x": -0.5643072697,
				"y": -1.595609663,
				"z": -3.817230899,
				"element": "C" 
			},
			{
				"x": -0.3485574445,
				"y": -1.6147187037,
				"z": -5.1457281753,
				"element": "C" 
			},
			{
				"x": -0.7850971372,
				"y": -2.7062767006,
				"z": -6.057457037,
				"element": "C" 
			},
			{
				"x": -0.9511704719,
				"y": -3.9459755872,
				"z": -5.5190542359,
				"element": "O" 
			},
			{
				"x": -1.0063481389,
				"y": -2.514470576,
				"z": -7.2300093099,
				"element": "O" 
			},
			{
				"x": 0.5215055795,
				"y": 0.6162300549,
				"z": -3.2440148043,
				"element": "C" 
			},
			{
				"x": 0.8237190094,
				"y": 1.5830520479,
				"z": -2.2999290943,
				"element": "C" 
			},
			{
				"x": 0.4033555188,
				"y": 1.4926094363,
				"z": -0.9547391592,
				"element": "C" 
			},
			{
				"x": 0.8139921554,
				"y": 2.5852529815,
				"z": -0.0678472087,
				"element": "C" 
			},
			{
				"x": 0.443790885,
				"y": 2.8901227481,
				"z": 1.1919206476,
				"element": "C" 
			},
			{
				"x": 0.9120532583,
				"y": 4.1107921491,
				"z": 1.9068798356,
				"element": "C" 
			},
			{
				"x": 2.132622316,
				"y": 4.608895237,
				"z": 1.565028082,
				"element": "O" 
			},
			{
				"x": 0.2393331784,
				"y": 4.6609653738,
				"z": 2.7463537994,
				"element": "O" 
			},
			{
				"x": -3.1408321152,
				"y": 0.5848342267,
				"z": -0.8043844012,
				"element": "H" 
			},
			{
				"x": -2.4276827002,
				"y": 2.1177547901,
				"z": -0.3053443271,
				"element": "H" 
			},
			{
				"x": -3.8917596714,
				"y": 1.5146371101,
				"z": 0.518158,
				"element": "H" 
			},
			{
				"x": 0.6173117444,
				"y": -1.34229502,
				"z": 3.475966301,
				"element": "H" 
			},
			{
				"x": -0.5067923477,
				"y": 0.0524428814,
				"z": 3.5784337717,
				"element": "H" 
			},
			{
				"x": -1.1267256999,
				"y": -1.5006966033,
				"z": 3.0820364522,
				"element": "H" 
			},
			{
				"x": -1.1924385765,
				"y": -1.5029523938,
				"z": -1.2224421547,
				"element": "H" 
			},
			{
				"x": -1.0763460747,
				"y": -2.4422431912,
				"z": -3.3590141718,
				"element": "H" 
			},
			{
				"x": 0.0821186172,
				"y": -0.7670589797,
				"z": -5.6688697866,
				"element": "H" 
			},
			{
				"x": -0.551406798,
				"y": -3.98262565,
				"z": -4.6390100997,
				"element": "H" 
			},
			{
				"x": 0.875775421,
				"y": 0.7404711845,
				"z": -4.2617109448,
				"element": "H" 
			},
			{
				"x": 1.4074583657,
				"y": 2.4481941394,
				"z": -2.6016625896,
				"element": "H" 
			},
			{
				"x": 1.5055138177,
				"y": 3.2733320966,
				"z": -0.5552222969,
				"element": "H" 
			},
			{
				"x": -0.2999700882,
				"y": 2.3316080728,
				"z": 1.7433508342,
				"element": "H" 
			},
			{
				"x": 2.6234362077,
				"y": 3.9532439713,
				"z": 1.0499198912,
				"element": "H" 
			}
		],
		 "valence_orbital": [ 
			{
				"type": "occ",
				"energy": -0.28469,
				"method": "rhf"
			},
			{
				"type": "occ",
				"energy": -0.28211,
				"method": "rhf"
			},
			{
				"type": "occ",
				"energy": -0.28047,
				"method": "rhf"
			},
			{
				"type": "occ",
				"energy": -0.27598,
				"method": "rhf"
			},
			{
				"type": "occ",
				"energy": -0.25544,
				"method": "rhf"
			},
			{
				"type": "unocc",
				"energy": -0.10937,
				"method": "rhf"
			},
			{
				"type": "unocc",
				"energy": -0.05809,
				"method": "rhf"
			},
			{
				"type": "unocc",
				"energy": -0.04602,
				"method": "rhf"
			},
			{
				"type": "unocc",
				"energy": -0.03964,
				"method": "rhf"
			},
			{
				"type": "unocc",
				"energy": 0.00341,
				"method": "rhf"
			}
		],
		"cosmo_sigma_profile": { 
			"-0.025": 0.0,
			"-0.024": 0.0,
			"-0.023": 0.0,
			"-0.022": 0.0,
			"-0.021": 0.0,
			"-0.02": 0.0,
			"-0.019": 0.488177880609,
			"-0.018": 2.03794680897,
			"-0.017": 1.7227735208,
			"-0.016": 2.42899715626,
			"-0.015": 1.84554858782,
			"-0.014": 1.33861708304,
			"-0.013": 1.80898740758,
			"-0.012": 3.55239803567,
			"-0.011": 1.71250128647,
			"-0.01": 4.30263365565,
			"-0.009": 8.26239968337,
			"-0.008": 11.0686130885,
			"-0.007": 13.2456526778,
			"-0.006": 19.5614926516,
			"-0.005": 21.9064240138,
			"-0.004": 23.3714609932,
			"-0.003": 23.6878487112,
			"-0.002": 26.768988838,
			"-0.001": 22.7690220713,
			"0.0": 17.5472806476,
			"0.001": 18.203757721,
			"0.002": 15.4605078546,
			"0.003": 8.74915972387,
			"0.004": 7.81696114436,
			"0.005": 7.81473391901,
			"0.006": 8.38902954209,
			"0.007": 6.70884722556,
			"0.008": 8.0158682052,
			"0.009": 10.5929123123,
			"0.01": 13.411651631,
			"0.011": 16.7592481104,
			"0.012": 17.0588727697,
			"0.013": 5.92531912381,
			"0.014": 0.148494078099,
			"0.015": 0.0,
			"0.016": 0.0,
			"0.017": 0.0,
			"0.018": 0.0,
			"0.019": 0.0,
			"0.02": 0.0,
			"0.021": 0.0,
			"0.022": 0.0,
			"0.023": 0.0,
			"0.024": 0.0,
			"0.025": 0.0
		}
	}
}
