{
	 "smiles": "CN(C)C1=C(C=O)C(Cl)=CC=C1", 
	 "Tm": 300.15, 
	 "num_atms": 22, 
	 "gaussian": { 
		 "optdone": 1, 
		 "sigma_profile": "yes", 
		 "theory": "DFT", 
		 "functional": "B3LYP", 
		 "basiset": "6-31G**", 
		 "properties": { 
			 "R2extent": 3377.7011, 
			 "electric_dipole_moment_norm": 3.80644667505, 
			 "electric_quadrupole_moment_norm": 13.7493726093, 
			 "total_energy": -939.125804355, 
			 "HOMO_LUMO_gap": 0.14868, 
			 "cosmo_polarized_energy": -8.32, 
			 "cosmo_cavitation_energy": 26.39, 
			 "cosmo_dispersion_energy": -19.51, 
			 "cosmo_repulsion_energy": 1.53, 
			 "cosmo_total_nonelectrostatic_energy": 8.41, 
			 "SMD_solvation_energy": 5.11 
		},
		"coords": [
			{
				"x": -1.9792942052,
				"y": -1.95633511,
				"z": -2.8567523638,
				"element": "C" 
			},
			{
				"x": -2.0487207102,
				"y": -1.3984486807,
				"z": -1.5081614529,
				"element": "N" 
			},
			{
				"x": -3.3401558478,
				"y": -0.8168229106,
				"z": -1.1802809772,
				"element": "C" 
			},
			{
				"x": -0.9166976512,
				"y": -0.9934591667,
				"z": -0.8325733442,
				"element": "C" 
			},
			{
				"x": 0.2734483764,
				"y": -1.8022725653,
				"z": -0.8025745188,
				"element": "C" 
			},
			{
				"x": 0.2523096245,
				"y": -3.2530184224,
				"z": -1.0881244419,
				"element": "C" 
			},
			{
				"x": -0.7171835971,
				"y": -3.9101987457,
				"z": -1.4349991267,
				"element": "O" 
			},
			{
				"x": 1.4346019841,
				"y": -1.2318118529,
				"z": -0.2271862577,
				"element": "C" 
			},
			{
				"x": 2.9802833949,
				"y": -2.091614725,
				"z": -0.2679692744,
				"element": "Cl" 
			},
			{
				"x": 1.4418861294,
				"y": 0.002639984,
				"z": 0.4013039047,
				"element": "C" 
			},
			{
				"x": 0.238299456,
				"y": 0.7110157151,
				"z": 0.4740037524,
				"element": "C" 
			},
			{
				"x": -0.9141229218,
				"y": 0.2334060254,
				"z": -0.1276972484,
				"element": "C" 
			},
			{
				"x": -2.4241211561,
				"y": -2.9531212565,
				"z": -2.9026264082,
				"element": "H" 
			},
			{
				"x": -0.9437168664,
				"y": -2.0320964203,
				"z": -3.1840792175,
				"element": "H" 
			},
			{
				"x": -2.506543439,
				"y": -1.2849945418,
				"z": -3.5496323162,
				"element": "H" 
			},
			{
				"x": -3.4489573825,
				"y": -0.7080002146,
				"z": -0.0990601753,
				"element": "H" 
			},
			{
				"x": -3.5084937268,
				"y": 0.1637147,
				"z": -1.655171213,
				"element": "H" 
			},
			{
				"x": -4.1238262643,
				"y": -1.4958650741,
				"z": -1.5284736997,
				"element": "H" 
			},
			{
				"x": 1.2135806215,
				"y": -3.7583424919,
				"z": -0.8886399396,
				"element": "H" 
			},
			{
				"x": 2.3568734011,
				"y": 0.3966469106,
				"z": 0.8262433498,
				"element": "H" 
			},
			{
				"x": 0.2171157632,
				"y": 1.6739670717,
				"z": 0.9764114379,
				"element": "H" 
			},
			{
				"x": -1.8087649824,
				"y": 0.8432117716,
				"z": -0.1096604695,
				"element": "H" 
			}
		],
		 "valence_orbital": [ 
			{
				"type": "occ",
				"energy": -0.31987,
				"method": "rhf"
			},
			{
				"type": "occ",
				"energy": -0.28761,
				"method": "rhf"
			},
			{
				"type": "occ",
				"energy": -0.25526,
				"method": "rhf"
			},
			{
				"type": "occ",
				"energy": -0.24076,
				"method": "rhf"
			},
			{
				"type": "occ",
				"energy": -0.20772,
				"method": "rhf"
			},
			{
				"type": "unocc",
				"energy": -0.05904,
				"method": "rhf"
			},
			{
				"type": "unocc",
				"energy": -0.00787,
				"method": "rhf"
			},
			{
				"type": "unocc",
				"energy": 0.02103,
				"method": "rhf"
			},
			{
				"type": "unocc",
				"energy": 0.04246,
				"method": "rhf"
			},
			{
				"type": "unocc",
				"energy": 0.08869,
				"method": "rhf"
			}
		],
		"cosmo_sigma_profile": { 
			"-0.025": 0.0,
			"-0.024": 0.0,
			"-0.023": 0.0,
			"-0.022": 0.0,
			"-0.021": 0.0,
			"-0.02": 0.0,
			"-0.019": 0.0,
			"-0.018": 0.0,
			"-0.017": 0.0,
			"-0.016": 0.0,
			"-0.015": 0.0,
			"-0.014": 0.0,
			"-0.013": 0.0,
			"-0.012": 0.0,
			"-0.011": 0.0,
			"-0.01": 0.0,
			"-0.009": 0.0,
			"-0.008": 0.0721843442608,
			"-0.007": 3.5716808969,
			"-0.006": 7.55734498858,
			"-0.005": 14.4628250101,
			"-0.004": 19.9811555351,
			"-0.003": 23.8582363165,
			"-0.002": 24.2919172858,
			"-0.001": 18.7032633063,
			"0.0": 13.6865972134,
			"0.001": 14.7754952305,
			"0.002": 17.9910938495,
			"0.003": 16.3547908238,
			"0.004": 14.6491540274,
			"0.005": 4.13992132608,
			"0.006": 1.53196680256,
			"0.007": 1.70263360769,
			"0.008": 1.97608228778,
			"0.009": 2.16129225855,
			"0.01": 1.66631913999,
			"0.011": 2.92186974512,
			"0.012": 3.63263234398,
			"0.013": 2.00071495445,
			"0.014": 0.494436760625,
			"0.015": 0.0,
			"0.016": 0.0,
			"0.017": 0.0,
			"0.018": 0.0,
			"0.019": 0.0,
			"0.02": 0.0,
			"0.021": 0.0,
			"0.022": 0.0,
			"0.023": 0.0,
			"0.024": 0.0,
			"0.025": 0.0
		}
	}
}
