{
	 "smiles": "FC(F)(F)C1=C(C#N)C(=O)NC(=C1)C1=CC=CN=C1", 
	 "Tm": 553.15, 
	 "num_atms": 25, 
	 "gaussian": { 
		 "optdone": 1, 
		 "sigma_profile": "yes", 
		 "theory": "DFT", 
		 "functional": "B3LYP", 
		 "basiset": "6-31G**", 
		 "properties": { 
			 "R2extent": 5932.2005, 
			 "electric_dipole_moment_norm": 8.51172821993, 
			 "electric_quadrupole_moment_norm": 21.2494629353, 
			 "total_energy": -999.875458946, 
			 "HOMO_LUMO_gap": 0.13806, 
			 "cosmo_polarized_energy": -23.79, 
			 "cosmo_cavitation_energy": 33.1, 
			 "cosmo_dispersion_energy": -22.83, 
			 "cosmo_repulsion_energy": 1.67, 
			 "cosmo_total_nonelectrostatic_energy": 11.94, 
			 "SMD_solvation_energy": 7.02 
		},
		"coords": [
			{
				"x": -1.670857436,
				"y": 0.2262240705,
				"z": -3.6889593502,
				"element": "F" 
			},
			{
				"x": -0.8555784658,
				"y": 0.9176566428,
				"z": -2.8741911531,
				"element": "C" 
			},
			{
				"x": 0.3041159596,
				"y": 1.1209176668,
				"z": -3.5346453702,
				"element": "F" 
			},
			{
				"x": -1.4120730557,
				"y": 2.1207357951,
				"z": -2.6514667435,
				"element": "F" 
			},
			{
				"x": -0.6253181269,
				"y": 0.1700931289,
				"z": -1.5694731688,
				"element": "C" 
			},
			{
				"x": -1.6964972236,
				"y": -0.12616938,
				"z": -0.744674358,
				"element": "C" 
			},
			{
				"x": -3.0436230142,
				"y": 0.2256359796,
				"z": -1.0535282934,
				"element": "C" 
			},
			{
				"x": -4.1474902651,
				"y": 0.5059490427,
				"z": -1.2890891093,
				"element": "N" 
			},
			{
				"x": -1.4877429051,
				"y": -0.8456056387,
				"z": 0.5175607508,
				"element": "C" 
			},
			{
				"x": -2.3455403772,
				"y": -1.1753660618,
				"z": 1.3192996761,
				"element": "O" 
			},
			{
				"x": -0.1340951985,
				"y": -1.1660055222,
				"z": 0.7557911009,
				"element": "N" 
			},
			{
				"x": 0.9298340764,
				"y": -0.8718514861,
				"z": -0.0472144044,
				"element": "C" 
			},
			{
				"x": 0.6961575219,
				"y": -0.194776919,
				"z": -1.2250713778,
				"element": "C" 
			},
			{
				"x": 2.2707319703,
				"y": -1.28271518,
				"z": 0.4067378934,
				"element": "C" 
			},
			{
				"x": 2.6322466379,
				"y": -1.2767320408,
				"z": 1.7629919038,
				"element": "C" 
			},
			{
				"x": 3.9159409409,
				"y": -1.6745568382,
				"z": 2.1213288246,
				"element": "C" 
			},
			{
				"x": 4.8009086486,
				"y": -2.0625882551,
				"z": 1.1132146715,
				"element": "C" 
			},
			{
				"x": 4.4754514591,
				"y": -2.0825362414,
				"z": -0.1858054797,
				"element": "N" 
			},
			{
				"x": 3.2413674118,
				"y": -1.7049898114,
				"z": -0.5199901858,
				"element": "C" 
			},
			{
				"x": 0.0034057195,
				"y": -1.7146419522,
				"z": 1.5969183016,
				"element": "H" 
			},
			{
				"x": 1.5198397833,
				"y": 0.0873294202,
				"z": -1.8633476147,
				"element": "H" 
			},
			{
				"x": 1.9349947804,
				"y": -0.9337970592,
				"z": 2.5227984524,
				"element": "H" 
			},
			{
				"x": 4.2315234671,
				"y": -1.6719836288,
				"z": 3.1593550163,
				"element": "H" 
			},
			{
				"x": 5.8152562993,
				"y": -2.3701484743,
				"z": 1.3583480861,
				"element": "H" 
			},
			{
				"x": 2.9925413921,
				"y": -1.7586772572,
				"z": -1.5778880686,
				"element": "H" 
			}
		],
		 "valence_orbital": [ 
			{
				"type": "occ",
				"energy": -0.32193,
				"method": "rhf"
			},
			{
				"type": "occ",
				"energy": -0.30246,
				"method": "rhf"
			},
			{
				"type": "occ",
				"energy": -0.29065,
				"method": "rhf"
			},
			{
				"type": "occ",
				"energy": -0.28282,
				"method": "rhf"
			},
			{
				"type": "occ",
				"energy": -0.24703,
				"method": "rhf"
			},
			{
				"type": "unocc",
				"energy": -0.10897,
				"method": "rhf"
			},
			{
				"type": "unocc",
				"energy": -0.06158,
				"method": "rhf"
			},
			{
				"type": "unocc",
				"energy": -0.05254,
				"method": "rhf"
			},
			{
				"type": "unocc",
				"energy": -0.01489,
				"method": "rhf"
			},
			{
				"type": "unocc",
				"energy": 0.02573,
				"method": "rhf"
			}
		],
		"cosmo_sigma_profile": { 
			"-0.025": 0.0,
			"-0.024": 0.0,
			"-0.023": 0.0,
			"-0.022": 0.0,
			"-0.021": 0.0,
			"-0.02": 0.0,
			"-0.019": 0.0,
			"-0.018": 0.0,
			"-0.017": 0.605064520103,
			"-0.016": 1.2778579422,
			"-0.015": 1.03862760249,
			"-0.014": 1.18289584831,
			"-0.013": 1.21969445243,
			"-0.012": 1.16460032698,
			"-0.011": 1.73769168597,
			"-0.01": 2.01307347369,
			"-0.009": 4.56929038036,
			"-0.008": 7.75940506014,
			"-0.007": 11.0205904799,
			"-0.006": 12.7888700906,
			"-0.005": 13.8394616571,
			"-0.004": 18.2577997197,
			"-0.003": 18.9382374861,
			"-0.002": 15.3703233907,
			"-0.001": 16.2614770494,
			"0.0": 18.6568099449,
			"0.001": 25.0952113442,
			"0.002": 27.7881750889,
			"0.003": 8.8021587074,
			"0.004": 4.546215873,
			"0.005": 5.07815830512,
			"0.006": 5.66258401414,
			"0.007": 7.11144547679,
			"0.008": 5.90483513634,
			"0.009": 4.98387675779,
			"0.01": 5.50225366816,
			"0.011": 6.27540362935,
			"0.012": 8.57694221168,
			"0.013": 3.85827369292,
			"0.014": 0.529861821691,
			"0.015": 1.04372518402,
			"0.016": 0.193523962511,
			"0.017": 0.0,
			"0.018": 0.0,
			"0.019": 0.0,
			"0.02": 0.0,
			"0.021": 0.0,
			"0.022": 0.0,
			"0.023": 0.0,
			"0.024": 0.0,
			"0.025": 0.0
		}
	}
}
