{
	 "smiles": "ClCCCBr", 
	 "Tm": 214.15, 
	 "num_atms": 11, 
	 "gaussian": { 
		 "optdone": 1, 
		 "sigma_profile": "yes", 
		 "theory": "DFT", 
		 "functional": "B3LYP", 
		 "basiset": "6-31G**", 
		 "properties": { 
			 "R2extent": 1573.3072, 
			 "electric_dipole_moment_norm": 2.15974918451, 
			 "electric_quadrupole_moment_norm": 9.54986697394, 
			 "total_energy": -3149.54396554, 
			 "HOMO_LUMO_gap": 0.27098, 
			 "cosmo_polarized_energy": -6.28, 
			 "cosmo_cavitation_energy": 17.97, 
			 "cosmo_dispersion_energy": -13.99, 
			 "cosmo_repulsion_energy": 1.24, 
			 "cosmo_total_nonelectrostatic_energy": 5.22, 
			 "SMD_solvation_energy": 1.55 
		},
		"coords": [
			{
				"x": 1.9737398919,
				"y": -2.4028077031,
				"z": 1.2558602301,
				"element": "Cl" 
			},
			{
				"x": 0.3447262798,
				"y": -1.6886403482,
				"z": 0.8957734757,
				"element": "C" 
			},
			{
				"x": 0.0814496899,
				"y": -0.4640594525,
				"z": 1.7642048691,
				"element": "C" 
			},
			{
				"x": -1.3027040414,
				"y": 0.1355036212,
				"z": 1.5513540083,
				"element": "C" 
			},
			{
				"x": -1.5485390123,
				"y": 0.8621807543,
				"z": -0.2800954233,
				"element": "Br" 
			},
			{
				"x": 0.339298619,
				"y": -1.4362775254,
				"z": -0.1643619078,
				"element": "H" 
			},
			{
				"x": -0.3862597879,
				"y": -2.4789666149,
				"z": 1.0791751021,
				"element": "H" 
			},
			{
				"x": 0.1536307378,
				"y": -0.7493033653,
				"z": 2.8219150181,
				"element": "H" 
			},
			{
				"x": 0.8502849809,
				"y": 0.2924944012,
				"z": 1.5816433768,
				"element": "H" 
			},
			{
				"x": -1.4769429221,
				"y": 0.9808062194,
				"z": 2.2155891618,
				"element": "H" 
			},
			{
				"x": -2.1013844357,
				"y": -0.5962299865,
				"z": 1.6779420891,
				"element": "H" 
			}
		],
		 "valence_orbital": [ 
			{
				"type": "occ",
				"energy": -0.35872,
				"method": "rhf"
			},
			{
				"type": "occ",
				"energy": -0.30306,
				"method": "rhf"
			},
			{
				"type": "occ",
				"energy": -0.29897,
				"method": "rhf"
			},
			{
				"type": "occ",
				"energy": -0.28205,
				"method": "rhf"
			},
			{
				"type": "occ",
				"energy": -0.27944,
				"method": "rhf"
			},
			{
				"type": "unocc",
				"energy": -0.00846,
				"method": "rhf"
			},
			{
				"type": "unocc",
				"energy": 0.0188,
				"method": "rhf"
			},
			{
				"type": "unocc",
				"energy": 0.09182,
				"method": "rhf"
			},
			{
				"type": "unocc",
				"energy": 0.11478,
				"method": "rhf"
			},
			{
				"type": "unocc",
				"energy": 0.12167,
				"method": "rhf"
			}
		],
		"cosmo_sigma_profile": { 
			"-0.025": 0.0,
			"-0.024": 0.0,
			"-0.023": 0.0,
			"-0.022": 0.0,
			"-0.021": 0.0,
			"-0.02": 0.0,
			"-0.019": 0.0,
			"-0.018": 0.0,
			"-0.017": 0.0,
			"-0.016": 0.0,
			"-0.015": 0.0,
			"-0.014": 0.0,
			"-0.013": 0.0,
			"-0.012": 0.0,
			"-0.011": 0.0,
			"-0.01": 0.0,
			"-0.009": 0.000155933409845,
			"-0.008": 2.8023573456,
			"-0.007": 8.36146046731,
			"-0.006": 10.1373978618,
			"-0.005": 12.7963794837,
			"-0.004": 11.3836352099,
			"-0.003": 9.3713793957,
			"-0.002": 8.05691634872,
			"-0.001": 7.08874184562,
			"0.0": 7.39081863662,
			"0.001": 7.52876862058,
			"0.002": 7.27316240019,
			"0.003": 7.75731315215,
			"0.004": 10.154432731,
			"0.005": 11.4287912164,
			"0.006": 18.3258853495,
			"0.007": 6.88541611177,
			"0.008": 0.0,
			"0.009": 0.0,
			"0.01": 0.0,
			"0.011": 0.0,
			"0.012": 0.0,
			"0.013": 0.0,
			"0.014": 0.0,
			"0.015": 0.0,
			"0.016": 0.0,
			"0.017": 0.0,
			"0.018": 0.0,
			"0.019": 0.0,
			"0.02": 0.0,
			"0.021": 0.0,
			"0.022": 0.0,
			"0.023": 0.0,
			"0.024": 0.0,
			"0.025": 0.0
		}
	}
}
