{
	 "smiles": "CCC(CC)N1N=CC=C1C(O)=O", 
	 "Tm": 411.15, 
	 "num_atms": 27, 
	 "gaussian": { 
		 "optdone": 1, 
		 "sigma_profile": "yes", 
		 "theory": "DFT", 
		 "functional": "B3LYP", 
		 "basiset": "6-31G**", 
		 "properties": { 
			 "R2extent": 3373.8025, 
			 "electric_dipole_moment_norm": 2.03757719118, 
			 "electric_quadrupole_moment_norm": 9.45087517799, 
			 "total_energy": -611.34774041, 
			 "HOMO_LUMO_gap": 0.21146, 
			 "cosmo_polarized_energy": -9.75, 
			 "cosmo_cavitation_energy": 28.98, 
			 "cosmo_dispersion_energy": -20.54, 
			 "cosmo_repulsion_energy": 1.64, 
			 "cosmo_total_nonelectrostatic_energy": 10.07, 
			 "SMD_solvation_energy": 6.08 
		},
		"coords": [
			{
				"x": -1.8979364439,
				"y": -1.8750909267,
				"z": -1.6171350111,
				"element": "C" 
			},
			{
				"x": -1.7834735668,
				"y": -0.5665883708,
				"z": -0.8267413145,
				"element": "C" 
			},
			{
				"x": -0.6014498709,
				"y": -0.3772322964,
				"z": 0.1509953416,
				"element": "C" 
			},
			{
				"x": 0.7975825259,
				"y": -0.7538098754,
				"z": -0.398950259,
				"element": "C" 
			},
			{
				"x": 1.2060244529,
				"y": -2.2293045326,
				"z": -0.3077220628,
				"element": "C" 
			},
			{
				"x": -0.855655235,
				"y": -1.0266327282,
				"z": 1.4577504504,
				"element": "N" 
			},
			{
				"x": -1.5077430365,
				"y": -2.1975949624,
				"z": 1.4960828614,
				"element": "N" 
			},
			{
				"x": -1.5392356007,
				"y": -2.5649156227,
				"z": 2.7831985235,
				"element": "C" 
			},
			{
				"x": -0.8933166192,
				"y": -1.6279599402,
				"z": 3.5953721974,
				"element": "C" 
			},
			{
				"x": -0.4538065857,
				"y": -0.6405272889,
				"z": 2.7185932849,
				"element": "C" 
			},
			{
				"x": 0.2818338011,
				"y": 0.5600702756,
				"z": 3.137858627,
				"element": "C" 
			},
			{
				"x": 0.6399828068,
				"y": 1.4003709291,
				"z": 2.1297253559,
				"element": "O" 
			},
			{
				"x": 0.5611458696,
				"y": 0.7985419339,
				"z": 4.2959192435,
				"element": "O" 
			},
			{
				"x": -1.9870525179,
				"y": -2.7333365463,
				"z": -0.9500166399,
				"element": "H" 
			},
			{
				"x": -2.7882306878,
				"y": -1.83913999,
				"z": -2.2543504299,
				"element": "H" 
			},
			{
				"x": -1.0371831849,
				"y": -2.0278447052,
				"z": -2.2759200476,
				"element": "H" 
			},
			{
				"x": -2.708233171,
				"y": -0.3985777778,
				"z": -0.2634889933,
				"element": "H" 
			},
			{
				"x": -1.7067684892,
				"y": 0.2639814108,
				"z": -1.5405863992,
				"element": "H" 
			},
			{
				"x": -0.5723913221,
				"y": 0.6884371829,
				"z": 0.3795325845,
				"element": "H" 
			},
			{
				"x": 0.8363406407,
				"y": -0.414909519,
				"z": -1.4420659015,
				"element": "H" 
			},
			{
				"x": 1.5364318382,
				"y": -0.1533520516,
				"z": 0.1431079196,
				"element": "H" 
			},
			{
				"x": 1.23980611,
				"y": -2.5674618823,
				"z": 0.7319293075,
				"element": "H" 
			},
			{
				"x": 0.5236841326,
				"y": -2.8904362779,
				"z": -0.8452425183,
				"element": "H" 
			},
			{
				"x": 2.2071991964,
				"y": -2.3615302345,
				"z": -0.7311438102,
				"element": "H" 
			},
			{
				"x": -2.0296335458,
				"y": -3.4870666631,
				"z": 3.0633690779,
				"element": "H" 
			},
			{
				"x": -0.7518192937,
				"y": -1.6267516241,
				"z": 4.6648870238,
				"element": "H" 
			},
			{
				"x": 1.108397797,
				"y": 2.1342620839,
				"z": 2.5620415887,
				"element": "H" 
			}
		],
		 "valence_orbital": [ 
			{
				"type": "occ",
				"energy": -0.31778,
				"method": "rhf"
			},
			{
				"type": "occ",
				"energy": -0.30145,
				"method": "rhf"
			},
			{
				"type": "occ",
				"energy": -0.27715,
				"method": "rhf"
			},
			{
				"type": "occ",
				"energy": -0.25601,
				"method": "rhf"
			},
			{
				"type": "occ",
				"energy": -0.2543,
				"method": "rhf"
			},
			{
				"type": "unocc",
				"energy": -0.04284,
				"method": "rhf"
			},
			{
				"type": "unocc",
				"energy": 0.04522,
				"method": "rhf"
			},
			{
				"type": "unocc",
				"energy": 0.06572,
				"method": "rhf"
			},
			{
				"type": "unocc",
				"energy": 0.09046,
				"method": "rhf"
			},
			{
				"type": "unocc",
				"energy": 0.10414,
				"method": "rhf"
			}
		],
		"cosmo_sigma_profile": { 
			"-0.025": 0.0,
			"-0.024": 0.0,
			"-0.023": 0.0,
			"-0.022": 0.0,
			"-0.021": 0.0,
			"-0.02": 0.0,
			"-0.019": 0.286601170536,
			"-0.018": 0.835600606374,
			"-0.017": 0.90878965212,
			"-0.016": 0.908526253703,
			"-0.015": 0.593557323483,
			"-0.014": 0.703927390156,
			"-0.013": 0.542450209591,
			"-0.012": 0.951353516267,
			"-0.011": 0.793978769433,
			"-0.01": 0.417920892428,
			"-0.009": 0.28438348656,
			"-0.008": 1.9436643103,
			"-0.007": 3.56216364863,
			"-0.006": 3.91233770519,
			"-0.005": 3.7103536788,
			"-0.004": 9.72839453496,
			"-0.003": 22.7462269546,
			"-0.002": 27.9811081017,
			"-0.001": 28.4532338714,
			"0.0": 26.978138177,
			"0.001": 22.5128430107,
			"0.002": 17.491916627,
			"0.003": 12.6220960879,
			"0.004": 9.02802504271,
			"0.005": 4.44506814721,
			"0.006": 3.90917608186,
			"0.007": 3.40194775042,
			"0.008": 3.32592239835,
			"0.009": 3.30305465017,
			"0.01": 3.71119984486,
			"0.011": 4.55957966722,
			"0.012": 2.89925419143,
			"0.013": 0.0,
			"0.014": 0.0,
			"0.015": 0.0,
			"0.016": 0.0,
			"0.017": 0.0,
			"0.018": 0.0,
			"0.019": 0.0,
			"0.02": 0.0,
			"0.021": 0.0,
			"0.022": 0.0,
			"0.023": 0.0,
			"0.024": 0.0,
			"0.025": 0.0
		}
	}
}
