{
	 "smiles": "CN1C(=O)C=C(O)C2=CC=CC=C12", 
	 "Tm": 538.15, 
	 "num_atms": 22, 
	 "gaussian": { 
		 "optdone": 1, 
		 "sigma_profile": "yes", 
		 "theory": "DFT", 
		 "functional": "B3LYP", 
		 "basiset": "6-31G**", 
		 "properties": { 
			 "R2extent": 2398.0269, 
			 "electric_dipole_moment_norm": 5.22935009059, 
			 "electric_quadrupole_moment_norm": 13.7007514192, 
			 "total_energy": -591.703444212, 
			 "HOMO_LUMO_gap": 0.16607, 
			 "cosmo_polarized_energy": -15.35, 
			 "cosmo_cavitation_energy": 25.11, 
			 "cosmo_dispersion_energy": -19.15, 
			 "cosmo_repulsion_energy": 1.46, 
			 "cosmo_total_nonelectrostatic_energy": 7.42, 
			 "SMD_solvation_energy": 5.11 
		},
		"coords": [
			{
				"x": 1.6453720663,
				"y": 1.8913167362,
				"z": 2.0889209135,
				"element": "C" 
			},
			{
				"x": 1.4016862829,
				"y": 0.8306049108,
				"z": 1.1136685601,
				"element": "N" 
			},
			{
				"x": 2.2206109467,
				"y": -0.3251477463,
				"z": 1.2114124634,
				"element": "C" 
			},
			{
				"x": 3.0838819488,
				"y": -0.4094939131,
				"z": 2.0821914428,
				"element": "O" 
			},
			{
				"x": 1.9741568393,
				"y": -1.3547843992,
				"z": 0.2245595719,
				"element": "C" 
			},
			{
				"x": 1.0141076613,
				"y": -1.2408290084,
				"z": -0.7286773226,
				"element": "C" 
			},
			{
				"x": 0.8617293165,
				"y": -2.257680576,
				"z": -1.614748301,
				"element": "O" 
			},
			{
				"x": 0.1672069929,
				"y": -0.064008452,
				"z": -0.7867358798,
				"element": "C" 
			},
			{
				"x": -0.8714245759,
				"y": 0.0890568277,
				"z": -1.7225064999,
				"element": "C" 
			},
			{
				"x": -1.6533709137,
				"y": 1.2331335714,
				"z": -1.7604738874,
				"element": "C" 
			},
			{
				"x": -1.4030063413,
				"y": 2.2568983402,
				"z": -0.8389275147,
				"element": "C" 
			},
			{
				"x": -0.3958342711,
				"y": 2.1315019011,
				"z": 0.1076102022,
				"element": "C" 
			},
			{
				"x": 0.4054941329,
				"y": 0.9712162474,
				"z": 0.161101574,
				"element": "C" 
			},
			{
				"x": 0.7552277003,
				"y": 2.0713127202,
				"z": 2.7003077842,
				"element": "H" 
			},
			{
				"x": 2.4612011909,
				"y": 1.5513642606,
				"z": 2.7235808306,
				"element": "H" 
			},
			{
				"x": 1.931786167,
				"y": 2.8221252296,
				"z": 1.5888496981,
				"element": "H" 
			},
			{
				"x": 2.6072613454,
				"y": -2.2314834594,
				"z": 0.271044285,
				"element": "H" 
			},
			{
				"x": 0.2625732978,
				"y": -1.996888899,
				"z": -2.3246716518,
				"element": "H" 
			},
			{
				"x": -1.0919618975,
				"y": -0.7075118434,
				"z": -2.429938366,
				"element": "H" 
			},
			{
				"x": -2.4499317439,
				"y": 1.3290893885,
				"z": -2.490656416,
				"element": "H" 
			},
			{
				"x": -2.0042949752,
				"y": 3.1610746775,
				"z": -0.8552551249,
				"element": "H" 
			},
			{
				"x": -0.2300711705,
				"y": 2.9357334857,
				"z": 0.812343638,
				"element": "H" 
			}
		],
		 "valence_orbital": [ 
			{
				"type": "occ",
				"energy": -0.30835,
				"method": "rhf"
			},
			{
				"type": "occ",
				"energy": -0.28415,
				"method": "rhf"
			},
			{
				"type": "occ",
				"energy": -0.2479,
				"method": "rhf"
			},
			{
				"type": "occ",
				"energy": -0.23919,
				"method": "rhf"
			},
			{
				"type": "occ",
				"energy": -0.21739,
				"method": "rhf"
			},
			{
				"type": "unocc",
				"energy": -0.05132,
				"method": "rhf"
			},
			{
				"type": "unocc",
				"energy": -0.01223,
				"method": "rhf"
			},
			{
				"type": "unocc",
				"energy": 0.0215,
				"method": "rhf"
			},
			{
				"type": "unocc",
				"energy": 0.04768,
				"method": "rhf"
			},
			{
				"type": "unocc",
				"energy": 0.09056,
				"method": "rhf"
			}
		],
		"cosmo_sigma_profile": { 
			"-0.025": 0.0,
			"-0.024": 0.0,
			"-0.023": 0.0,
			"-0.022": 0.0,
			"-0.021": 0.0,
			"-0.02": 0.0,
			"-0.019": 0.263823756713,
			"-0.018": 0.828023587495,
			"-0.017": 0.900972061084,
			"-0.016": 1.10799556781,
			"-0.015": 0.710441510485,
			"-0.014": 1.14346594131,
			"-0.013": 0.765864580335,
			"-0.012": 0.842928422411,
			"-0.011": 1.51155195232,
			"-0.01": 1.11269329938,
			"-0.009": 0.981144855835,
			"-0.008": 1.46119251534,
			"-0.007": 4.40900730285,
			"-0.006": 13.7995534173,
			"-0.005": 14.1536034981,
			"-0.004": 13.1244569443,
			"-0.003": 12.5299933546,
			"-0.002": 13.6620524848,
			"-0.001": 12.6067145191,
			"0.0": 16.8170785227,
			"0.001": 12.9599060204,
			"0.002": 13.2630273285,
			"0.003": 16.0850321625,
			"0.004": 13.4847612371,
			"0.005": 4.8304549877,
			"0.006": 2.65609977134,
			"0.007": 2.68287044385,
			"0.008": 3.04383763134,
			"0.009": 3.35211759086,
			"0.01": 3.18312940582,
			"0.011": 0.988192881116,
			"0.012": 1.85228454702,
			"0.013": 2.71410638227,
			"0.014": 4.75917673466,
			"0.015": 2.21075742353,
			"0.016": 0.228692584727,
			"0.017": 0.0,
			"0.018": 0.0,
			"0.019": 0.0,
			"0.02": 0.0,
			"0.021": 0.0,
			"0.022": 0.0,
			"0.023": 0.0,
			"0.024": 0.0,
			"0.025": 0.0
		}
	}
}
