{
	 "smiles": "NC(=O)COC1=CC=C(C=C1)C(=O)CCl", 
	 "Tm": 437.15, 
	 "num_atms": 25, 
	 "gaussian": { 
		 "optdone": 1, 
		 "sigma_profile": "yes", 
		 "theory": "DFT", 
		 "functional": "B3LYP", 
		 "basiset": "6-31G**", 
		 "properties": { 
			 "R2extent": 6059.9099, 
			 "electric_dipole_moment_norm": 6.95323945942, 
			 "electric_quadrupole_moment_norm": 28.398929236, 
			 "total_energy": -1127.7041606, 
			 "HOMO_LUMO_gap": 0.17186, 
			 "cosmo_polarized_energy": -23.32, 
			 "cosmo_cavitation_energy": 31.78, 
			 "cosmo_dispersion_energy": -22.91, 
			 "cosmo_repulsion_energy": 1.84, 
			 "cosmo_total_nonelectrostatic_energy": 10.7, 
			 "SMD_solvation_energy": 6.72 
		},
		"coords": [
			{
				"x": 4.4868571692,
				"y": 0.5853016365,
				"z": -1.7272371267,
				"element": "N" 
			},
			{
				"x": 3.5471553923,
				"y": 1.0731751425,
				"z": -0.8614530522,
				"element": "C" 
			},
			{
				"x": 3.7627534161,
				"y": 1.2871217842,
				"z": 0.3160631506,
				"element": "O" 
			},
			{
				"x": 2.1762522133,
				"y": 1.3264718156,
				"z": -1.5178190595,
				"element": "C" 
			},
			{
				"x": 1.1936357877,
				"y": 1.7153887372,
				"z": -0.5869552474,
				"element": "O" 
			},
			{
				"x": 0.6379636887,
				"y": 0.7826299777,
				"z": 0.2362869493,
				"element": "C" 
			},
			{
				"x": -0.3621296047,
				"y": 1.2652642216,
				"z": 1.0942296306,
				"element": "C" 
			},
			{
				"x": -1.0210139412,
				"y": 0.3982053928,
				"z": 1.9516421541,
				"element": "C" 
			},
			{
				"x": -0.7032742325,
				"y": -0.9729642486,
				"z": 1.9714204661,
				"element": "C" 
			},
			{
				"x": 0.304199817,
				"y": -1.4374990096,
				"z": 1.1113763671,
				"element": "C" 
			},
			{
				"x": 0.9761747976,
				"y": -0.578743075,
				"z": 0.2508923107,
				"element": "C" 
			},
			{
				"x": -1.3912891498,
				"y": -1.9636394209,
				"z": 2.8341174916,
				"element": "C" 
			},
			{
				"x": -1.1356718598,
				"y": -3.1584939769,
				"z": 2.7866924436,
				"element": "O" 
			},
			{
				"x": -2.4976616362,
				"y": -1.5052774998,
				"z": 3.7920891748,
				"element": "C" 
			},
			{
				"x": -1.8426291511,
				"y": -0.53779031,
				"z": 5.1833714647,
				"element": "Cl" 
			},
			{
				"x": 4.3231842877,
				"y": 0.5002886482,
				"z": -2.7180719962,
				"element": "H" 
			},
			{
				"x": 5.4317360962,
				"y": 0.485836622,
				"z": -1.3871448834,
				"element": "H" 
			},
			{
				"x": 2.2690932363,
				"y": 2.168416287,
				"z": -2.2120096947,
				"element": "H" 
			},
			{
				"x": 1.8599547175,
				"y": 0.4487515083,
				"z": -2.0989663434,
				"element": "H" 
			},
			{
				"x": -0.5986020197,
				"y": 2.3234011916,
				"z": 1.0687403605,
				"element": "H" 
			},
			{
				"x": -1.7787682418,
				"y": 0.798559946,
				"z": 2.6162826032,
				"element": "H" 
			},
			{
				"x": 0.5501390514,
				"y": -2.4937770151,
				"z": 1.1360677007,
				"element": "H" 
			},
			{
				"x": 1.7630825666,
				"y": -0.9700151996,
				"z": -0.382524555,
				"element": "H" 
			},
			{
				"x": -2.9643961819,
				"y": -2.3941099744,
				"z": 4.2120020012,
				"element": "H" 
			},
			{
				"x": -3.243846219,
				"y": -0.8819031813,
				"z": 3.2956076899,
				"element": "H" 
			}
		],
		 "valence_orbital": [ 
			{
				"type": "occ",
				"energy": -0.28656,
				"method": "rhf"
			},
			{
				"type": "occ",
				"energy": -0.26916,
				"method": "rhf"
			},
			{
				"type": "occ",
				"energy": -0.26208,
				"method": "rhf"
			},
			{
				"type": "occ",
				"energy": -0.2518,
				"method": "rhf"
			},
			{
				"type": "occ",
				"energy": -0.23205,
				"method": "rhf"
			},
			{
				"type": "unocc",
				"energy": -0.06019,
				"method": "rhf"
			},
			{
				"type": "unocc",
				"energy": -0.01119,
				"method": "rhf"
			},
			{
				"type": "unocc",
				"energy": 0.01095,
				"method": "rhf"
			},
			{
				"type": "unocc",
				"energy": 0.01353,
				"method": "rhf"
			},
			{
				"type": "unocc",
				"energy": 0.05083,
				"method": "rhf"
			}
		],
		"cosmo_sigma_profile": { 
			"-0.025": 0.0,
			"-0.024": 0.0,
			"-0.023": 0.0,
			"-0.022": 0.0,
			"-0.021": 0.0,
			"-0.02": 0.0,
			"-0.019": 0.0,
			"-0.018": 0.0,
			"-0.017": 0.0,
			"-0.016": 0.113685365506,
			"-0.015": 1.22416135927,
			"-0.014": 2.47670393912,
			"-0.013": 3.00370740239,
			"-0.012": 2.53108948363,
			"-0.011": 2.3986044642,
			"-0.01": 3.10260697315,
			"-0.009": 8.93013037443,
			"-0.008": 11.6244076436,
			"-0.007": 11.5798012406,
			"-0.006": 13.461461457,
			"-0.005": 14.1270946301,
			"-0.004": 11.3536431471,
			"-0.003": 7.71151804237,
			"-0.002": 8.14879609953,
			"-0.001": 12.0489535056,
			"0.0": 12.6917065385,
			"0.001": 14.9123525882,
			"0.002": 18.0249597776,
			"0.003": 22.635057441,
			"0.004": 15.1243470037,
			"0.005": 11.8610082117,
			"0.006": 8.15370183747,
			"0.007": 5.42195044586,
			"0.008": 3.99717171415,
			"0.009": 3.97211388584,
			"0.01": 5.26594105582,
			"0.011": 5.96696301339,
			"0.012": 5.2659363582,
			"0.013": 5.71886370546,
			"0.014": 2.22941912243,
			"0.015": 0.0,
			"0.016": 0.0,
			"0.017": 0.0,
			"0.018": 0.0,
			"0.019": 0.0,
			"0.02": 0.0,
			"0.021": 0.0,
			"0.022": 0.0,
			"0.023": 0.0,
			"0.024": 0.0,
			"0.025": 0.0
		}
	}
}
