{
	 "smiles": "C=CCC1=CC=CC=C1", 
	 "Tm": 233.15, 
	 "num_atms": 19, 
	 "gaussian": { 
		 "optdone": 1, 
		 "sigma_profile": "yes", 
		 "theory": "DFT", 
		 "functional": "B3LYP", 
		 "basiset": "6-31G**", 
		 "properties": { 
			 "R2extent": 1514.2892, 
			 "electric_dipole_moment_norm": 0.145628911965, 
			 "electric_quadrupole_moment_norm": 3.66372101694, 
			 "total_energy": -348.964961733, 
			 "HOMO_LUMO_gap": 0.23641, 
			 "cosmo_polarized_energy": -3.68, 
			 "cosmo_cavitation_energy": 22.54, 
			 "cosmo_dispersion_energy": -16.22, 
			 "cosmo_repulsion_energy": 1.34, 
			 "cosmo_total_nonelectrostatic_energy": 7.66, 
			 "SMD_solvation_energy": 4.37 
		},
		"coords": [
			{
				"x": 0.1768739504,
				"y": 2.9937665908,
				"z": 0.3845351615,
				"element": "C" 
			},
			{
				"x": 0.4789258437,
				"y": 1.8094484988,
				"z": -0.1485710781,
				"element": "C" 
			},
			{
				"x": 1.0257029275,
				"y": 0.631322357,
				"z": 0.6177293645,
				"element": "C" 
			},
			{
				"x": 0.1588379309,
				"y": -0.6154693486,
				"z": 0.5148472906,
				"element": "C" 
			},
			{
				"x": -1.2087549809,
				"y": -0.5605173441,
				"z": 0.8197654321,
				"element": "C" 
			},
			{
				"x": -2.0032008099,
				"y": -1.7043281532,
				"z": 0.7466458743,
				"element": "C" 
			},
			{
				"x": -1.4436494795,
				"y": -2.9255249346,
				"z": 0.3625716652,
				"element": "C" 
			},
			{
				"x": -0.0850629027,
				"y": -2.9917863536,
				"z": 0.052539081,
				"element": "C" 
			},
			{
				"x": 0.7071152454,
				"y": -1.8439192067,
				"z": 0.1276716026,
				"element": "C" 
			},
			{
				"x": 0.3124278189,
				"y": 3.1927534918,
				"z": 1.4453799078,
				"element": "H" 
			},
			{
				"x": -0.2109153487,
				"y": 3.8095999527,
				"z": -0.2184113927,
				"element": "H" 
			},
			{
				"x": 0.3239123569,
				"y": 1.6475376647,
				"z": -1.215475655,
				"element": "H" 
			},
			{
				"x": 2.0301797925,
				"y": 0.3895373253,
				"z": 0.2452184501,
				"element": "H" 
			},
			{
				"x": 1.1466165506,
				"y": 0.9148245687,
				"z": 1.6716964911,
				"element": "H" 
			},
			{
				"x": -1.6499912536,
				"y": 0.3894738317,
				"z": 1.1096049245,
				"element": "H" 
			},
			{
				"x": -3.0609476437,
				"y": -1.6426460343,
				"z": 0.9878160419,
				"element": "H" 
			},
			{
				"x": -2.0625059136,
				"y": -3.816367575,
				"z": 0.3037756857,
				"element": "H" 
			},
			{
				"x": 0.3599565276,
				"y": -3.9356523294,
				"z": -0.2503306916,
				"element": "H" 
			},
			{
				"x": 1.7654793884,
				"y": -1.9030530018,
				"z": -0.1157081554,
				"element": "H" 
			}
		],
		 "valence_orbital": [ 
			{
				"type": "occ",
				"energy": -0.33774,
				"method": "rhf"
			},
			{
				"type": "occ",
				"energy": -0.33088,
				"method": "rhf"
			},
			{
				"type": "occ",
				"energy": -0.25944,
				"method": "rhf"
			},
			{
				"type": "occ",
				"energy": -0.24531,
				"method": "rhf"
			},
			{
				"type": "occ",
				"energy": -0.2366,
				"method": "rhf"
			},
			{
				"type": "unocc",
				"energy": -0.00019,
				"method": "rhf"
			},
			{
				"type": "unocc",
				"energy": 0.0015,
				"method": "rhf"
			},
			{
				"type": "unocc",
				"energy": 0.02645,
				"method": "rhf"
			},
			{
				"type": "unocc",
				"energy": 0.09887,
				"method": "rhf"
			},
			{
				"type": "unocc",
				"energy": 0.11906,
				"method": "rhf"
			}
		],
		"cosmo_sigma_profile": { 
			"-0.025": 0.0,
			"-0.024": 0.0,
			"-0.023": 0.0,
			"-0.022": 0.0,
			"-0.021": 0.0,
			"-0.02": 0.0,
			"-0.019": 0.0,
			"-0.018": 0.0,
			"-0.017": 0.0,
			"-0.016": 0.0,
			"-0.015": 0.0,
			"-0.014": 0.0,
			"-0.013": 0.0,
			"-0.012": 0.0,
			"-0.011": 0.0,
			"-0.01": 0.0,
			"-0.009": 0.0,
			"-0.008": 0.0,
			"-0.007": 0.0,
			"-0.006": 1.55336278494,
			"-0.005": 12.7779168774,
			"-0.004": 20.2413060174,
			"-0.003": 20.2342939499,
			"-0.002": 18.3434931453,
			"-0.001": 17.4555070923,
			"0.0": 15.0592305638,
			"0.001": 10.1139941763,
			"0.002": 14.3037777102,
			"0.003": 11.2390863672,
			"0.004": 11.8130923406,
			"0.005": 10.9669997329,
			"0.006": 10.7710143758,
			"0.007": 4.19470652349,
			"0.008": 0.0566070075721,
			"0.009": 0.0,
			"0.01": 0.0,
			"0.011": 0.0,
			"0.012": 0.0,
			"0.013": 0.0,
			"0.014": 0.0,
			"0.015": 0.0,
			"0.016": 0.0,
			"0.017": 0.0,
			"0.018": 0.0,
			"0.019": 0.0,
			"0.02": 0.0,
			"0.021": 0.0,
			"0.022": 0.0,
			"0.023": 0.0,
			"0.024": 0.0,
			"0.025": 0.0
		}
	}
}
