{
	 "smiles": "ClS(=O)(=O)N1CCCC2CCCCC12", 
	 "Tm": 308.15, 
	 "num_atms": 30, 
	 "gaussian": { 
		 "optdone": 1, 
		 "sigma_profile": "yes", 
		 "theory": "DFT", 
		 "functional": "B3LYP", 
		 "basiset": "6-31G**", 
		 "properties": { 
			 "R2extent": 3589.4365, 
			 "electric_dipole_moment_norm": 5.6500682872, 
			 "electric_quadrupole_moment_norm": 10.7105354899, 
			 "total_energy": -1416.13074135, 
			 "HOMO_LUMO_gap": 0.19569, 
			 "cosmo_polarized_energy": -8.93, 
			 "cosmo_cavitation_energy": 31.89, 
			 "cosmo_dispersion_energy": -23.71, 
			 "cosmo_repulsion_energy": 1.8, 
			 "cosmo_total_nonelectrostatic_energy": 9.98, 
			 "SMD_solvation_energy": 2.18 
		},
		"coords": [
			{
				"x": -2.2904507545,
				"y": 0.3165239004,
				"z": 1.6234533766,
				"element": "Cl" 
			},
			{
				"x": -2.2240895902,
				"y": 0.4320470946,
				"z": -0.5444730416,
				"element": "S" 
			},
			{
				"x": -2.4047710841,
				"y": 1.8470897565,
				"z": -0.8270915955,
				"element": "O" 
			},
			{
				"x": -3.1502580374,
				"y": -0.5926900567,
				"z": -0.9997351484,
				"element": "O" 
			},
			{
				"x": -0.6908983045,
				"y": 0.0014560293,
				"z": -0.9498378782,
				"element": "N" 
			},
			{
				"x": -0.3303098052,
				"y": -1.4334916296,
				"z": -0.9150610735,
				"element": "C" 
			},
			{
				"x": 0.4024302498,
				"y": -1.8394610011,
				"z": 0.3747343559,
				"element": "C" 
			},
			{
				"x": 1.407701325,
				"y": -0.7508568353,
				"z": 0.8351969582,
				"element": "C" 
			},
			{
				"x": 1.6926520655,
				"y": 0.267454919,
				"z": -0.2766270751,
				"element": "C" 
			},
			{
				"x": 2.7528161381,
				"y": 1.3173712267,
				"z": 0.096895117,
				"element": "C" 
			},
			{
				"x": 3.0106358936,
				"y": 2.2964884269,
				"z": -1.0600341046,
				"element": "C" 
			},
			{
				"x": 1.7120469751,
				"y": 2.9623404559,
				"z": -1.5420630637,
				"element": "C" 
			},
			{
				"x": 0.6255660057,
				"y": 1.9275279019,
				"z": -1.8808407469,
				"element": "C" 
			},
			{
				"x": 0.3955506787,
				"y": 0.9974716337,
				"z": -0.6824099625,
				"element": "C" 
			},
			{
				"x": 0.3051179898,
				"y": -1.6002153649,
				"z": -1.79079469,
				"element": "H" 
			},
			{
				"x": -1.2399345525,
				"y": -2.0134180922,
				"z": -1.0707669924,
				"element": "H" 
			},
			{
				"x": -0.3261452805,
				"y": -2.0359600401,
				"z": 1.16579092,
				"element": "H" 
			},
			{
				"x": 0.9167599794,
				"y": -2.7865557261,
				"z": 0.175890618,
				"element": "H" 
			},
			{
				"x": 1.0005784851,
				"y": -0.2147536754,
				"z": 1.7009974728,
				"element": "H" 
			},
			{
				"x": 2.3447143648,
				"y": -1.2106471227,
				"z": 1.1672519256,
				"element": "H" 
			},
			{
				"x": 2.0714560605,
				"y": -0.2703715821,
				"z": -1.1590187492,
				"element": "H" 
			},
			{
				"x": 2.4163955738,
				"y": 1.8703658816,
				"z": 0.9855338131,
				"element": "H" 
			},
			{
				"x": 3.6822643426,
				"y": 0.8089163871,
				"z": 0.3805159993,
				"element": "H" 
			},
			{
				"x": 3.7359188172,
				"y": 3.0587972744,
				"z": -0.7530848517,
				"element": "H" 
			},
			{
				"x": 3.4691649136,
				"y": 1.7493859511,
				"z": -1.8956310869,
				"element": "H" 
			},
			{
				"x": 1.3336454999,
				"y": 3.6313199674,
				"z": -0.7567853678,
				"element": "H" 
			},
			{
				"x": 1.9087248174,
				"y": 3.5930775547,
				"z": -2.4160870951,
				"element": "H" 
			},
			{
				"x": -0.3116785072,
				"y": 2.4235714018,
				"z": -2.1454574346,
				"element": "H" 
			},
			{
				"x": 0.9320070434,
				"y": 1.32306081,
				"z": -2.7451445142,
				"element": "H" 
			},
			{
				"x": 0.0833886969,
				"y": 1.6047545529,
				"z": 0.1782839155,
				"element": "H" 
			}
		],
		 "valence_orbital": [ 
			{
				"type": "occ",
				"energy": -0.32264,
				"method": "rhf"
			},
			{
				"type": "occ",
				"energy": -0.31799,
				"method": "rhf"
			},
			{
				"type": "occ",
				"energy": -0.31357,
				"method": "rhf"
			},
			{
				"type": "occ",
				"energy": -0.30497,
				"method": "rhf"
			},
			{
				"type": "occ",
				"energy": -0.27007,
				"method": "rhf"
			},
			{
				"type": "unocc",
				"energy": -0.07438,
				"method": "rhf"
			},
			{
				"type": "unocc",
				"energy": 0.05928,
				"method": "rhf"
			},
			{
				"type": "unocc",
				"energy": 0.06221,
				"method": "rhf"
			},
			{
				"type": "unocc",
				"energy": 0.07491,
				"method": "rhf"
			},
			{
				"type": "unocc",
				"energy": 0.08205,
				"method": "rhf"
			}
		],
		"cosmo_sigma_profile": { 
			"-0.025": 0.0,
			"-0.024": 0.0,
			"-0.023": 0.0,
			"-0.022": 0.0,
			"-0.021": 0.0,
			"-0.02": 0.0,
			"-0.019": 0.0,
			"-0.018": 0.0,
			"-0.017": 0.0,
			"-0.016": 0.0,
			"-0.015": 0.0,
			"-0.014": 0.0,
			"-0.013": 0.0,
			"-0.012": 0.0,
			"-0.011": 0.0,
			"-0.01": 0.0,
			"-0.009": 0.0,
			"-0.008": 0.0,
			"-0.007": 0.975991819685,
			"-0.006": 5.4480317232,
			"-0.005": 8.8147937557,
			"-0.004": 15.9881592971,
			"-0.003": 30.7137415121,
			"-0.002": 36.4402055297,
			"-0.001": 34.9419911185,
			"0.0": 34.1091185015,
			"0.001": 18.509980594,
			"0.002": 10.3349708174,
			"0.003": 8.80540395508,
			"0.004": 9.33514786578,
			"0.005": 10.432488487,
			"0.006": 4.14180678547,
			"0.007": 4.97105231435,
			"0.008": 8.70434512862,
			"0.009": 6.89668501079,
			"0.01": 0.308308964989,
			"0.011": 0.0,
			"0.012": 0.0,
			"0.013": 0.0,
			"0.014": 0.0,
			"0.015": 0.0,
			"0.016": 0.0,
			"0.017": 0.0,
			"0.018": 0.0,
			"0.019": 0.0,
			"0.02": 0.0,
			"0.021": 0.0,
			"0.022": 0.0,
			"0.023": 0.0,
			"0.024": 0.0,
			"0.025": 0.0
		}
	}
}
