{
	 "smiles": "OC(=O)C=CC1=CC(F)=CN=C1", 
	 "Tm": 508.15, 
	 "num_atms": 18, 
	 "gaussian": { 
		 "optdone": 1, 
		 "sigma_profile": "yes", 
		 "theory": "DFT", 
		 "functional": "B3LYP", 
		 "basiset": "6-31G**", 
		 "properties": { 
			 "R2extent": 3024.5212, 
			 "electric_dipole_moment_norm": 4.04056794275, 
			 "electric_quadrupole_moment_norm": 21.1492330509, 
			 "total_energy": -613.48178493, 
			 "HOMO_LUMO_gap": 0.16982, 
			 "cosmo_polarized_energy": -18.06, 
			 "cosmo_cavitation_energy": 24.43, 
			 "cosmo_dispersion_energy": -17.63, 
			 "cosmo_repulsion_energy": 1.37, 
			 "cosmo_total_nonelectrostatic_energy": 8.17, 
			 "SMD_solvation_energy": 4.76 
		},
		"coords": [
			{
				"x": 3.3762355774,
				"y": 0.3266251108,
				"z": -3.5064329283,
				"element": "O" 
			},
			{
				"x": 3.1442855088,
				"y": 0.5283555397,
				"z": -2.1805168298,
				"element": "C" 
			},
			{
				"x": 3.9874259001,
				"y": 1.0597191911,
				"z": -1.4948699334,
				"element": "O" 
			},
			{
				"x": 1.8253715506,
				"y": 0.0596816361,
				"z": -1.6749405883,
				"element": "C" 
			},
			{
				"x": 1.5175063999,
				"y": 0.2221711927,
				"z": -0.3764830614,
				"element": "C" 
			},
			{
				"x": 0.2858597266,
				"y": -0.1670849483,
				"z": 0.3060580471,
				"element": "C" 
			},
			{
				"x": -0.8014073101,
				"y": -0.7936522367,
				"z": -0.3277768929,
				"element": "C" 
			},
			{
				"x": -1.9066050288,
				"y": -1.1071072665,
				"z": 0.4414830529,
				"element": "C" 
			},
			{
				"x": -2.968693237,
				"y": -1.7071200145,
				"z": -0.124529127,
				"element": "F" 
			},
			{
				"x": -1.9369825417,
				"y": -0.8085532403,
				"z": 1.8047154818,
				"element": "C" 
			},
			{
				"x": -0.9106000095,
				"y": -0.2137996894,
				"z": 2.417330159,
				"element": "N" 
			},
			{
				"x": 0.1623562967,
				"y": 0.0935689851,
				"z": 1.6840952498,
				"element": "C" 
			},
			{
				"x": 2.6181139199,
				"y": -0.1051399963,
				"z": -3.9237254611,
				"element": "H" 
			},
			{
				"x": 1.1325965719,
				"y": -0.4083473031,
				"z": -2.3718251661,
				"element": "H" 
			},
			{
				"x": 2.2778138441,
				"y": 0.7009542086,
				"z": 0.238538161,
				"element": "H" 
			},
			{
				"x": -0.8000251725,
				"y": -1.0348238733,
				"z": -1.3851751408,
				"element": "H" 
			},
			{
				"x": -2.8130902037,
				"y": -1.061049999,
				"z": 2.3972891546,
				"element": "H" 
			},
			{
				"x": 0.9823382074,
				"y": 0.577602703,
				"z": 2.2115658229,
				"element": "H" 
			}
		],
		 "valence_orbital": [ 
			{
				"type": "occ",
				"energy": -0.31862,
				"method": "rhf"
			},
			{
				"type": "occ",
				"energy": -0.29132,
				"method": "rhf"
			},
			{
				"type": "occ",
				"energy": -0.28084,
				"method": "rhf"
			},
			{
				"type": "occ",
				"energy": -0.27669,
				"method": "rhf"
			},
			{
				"type": "occ",
				"energy": -0.25987,
				"method": "rhf"
			},
			{
				"type": "unocc",
				"energy": -0.09005,
				"method": "rhf"
			},
			{
				"type": "unocc",
				"energy": -0.0387,
				"method": "rhf"
			},
			{
				"type": "unocc",
				"energy": 0.00075,
				"method": "rhf"
			},
			{
				"type": "unocc",
				"energy": 0.04763,
				"method": "rhf"
			},
			{
				"type": "unocc",
				"energy": 0.0752,
				"method": "rhf"
			}
		],
		"cosmo_sigma_profile": { 
			"-0.025": 0.0,
			"-0.024": 0.0,
			"-0.023": 0.0,
			"-0.022": 0.0,
			"-0.021": 0.0,
			"-0.02": 0.0434773672587,
			"-0.019": 1.18515740987,
			"-0.018": 1.26551230306,
			"-0.017": 1.50787352174,
			"-0.016": 0.392604281631,
			"-0.015": 1.37233590262,
			"-0.014": 0.710978837984,
			"-0.013": 1.42563690316,
			"-0.012": 0.853613312774,
			"-0.011": 1.86853249481,
			"-0.01": 3.13773586482,
			"-0.009": 4.21612523266,
			"-0.008": 6.69803261757,
			"-0.007": 7.39623368533,
			"-0.006": 6.65764180628,
			"-0.005": 6.84382810689,
			"-0.004": 7.23380612791,
			"-0.003": 6.89786652105,
			"-0.002": 13.9318530231,
			"-0.001": 20.4221348305,
			"0.0": 18.6728316265,
			"0.001": 12.7615526756,
			"0.002": 8.86268774258,
			"0.003": 11.7179620583,
			"0.004": 9.61163033873,
			"0.005": 3.04088451408,
			"0.006": 2.90639199882,
			"0.007": 4.77424420607,
			"0.008": 3.73221049641,
			"0.009": 3.22014783921,
			"0.01": 5.48733355388,
			"0.011": 5.98039951117,
			"0.012": 7.02419739663,
			"0.013": 2.79002506561,
			"0.014": 0.924498780165,
			"0.015": 0.988759239078,
			"0.016": 0.137510003131,
			"0.017": 0.0,
			"0.018": 0.0,
			"0.019": 0.0,
			"0.02": 0.0,
			"0.021": 0.0,
			"0.022": 0.0,
			"0.023": 0.0,
			"0.024": 0.0,
			"0.025": 0.0
		}
	}
}
