{
	 "smiles": "CC1=C(C=CC=C1[N+]([O-])=O)N=C=O", 
	 "Tm": 308.65, 
	 "num_atms": 19, 
	 "gaussian": { 
		 "optdone": 1, 
		 "sigma_profile": "yes", 
		 "theory": "DFT", 
		 "functional": "B3LYP", 
		 "basiset": "6-31G**", 
		 "properties": { 
			 "R2extent": 3475.5699, 
			 "electric_dipole_moment_norm": 2.89307928685, 
			 "electric_quadrupole_moment_norm": 21.2209717551, 
			 "total_energy": -643.541243126, 
			 "HOMO_LUMO_gap": 0.16429, 
			 "cosmo_polarized_energy": -8.91, 
			 "cosmo_cavitation_energy": 25.12, 
			 "cosmo_dispersion_energy": -18.08, 
			 "cosmo_repulsion_energy": 1.42, 
			 "cosmo_total_nonelectrostatic_energy": 8.47, 
			 "SMD_solvation_energy": 9.04 
		},
		"coords": [
			{
				"x": -1.7359330441,
				"y": 0.0280216231,
				"z": -1.9611445095,
				"element": "C" 
			},
			{
				"x": -1.6780070709,
				"y": -0.0864965296,
				"z": -0.4585299631,
				"element": "C" 
			},
			{
				"x": -0.9082247796,
				"y": 0.8362189826,
				"z": 0.2866850814,
				"element": "C" 
			},
			{
				"x": -0.810167967,
				"y": 0.7592625788,
				"z": 1.6833018459,
				"element": "C" 
			},
			{
				"x": -1.4675911562,
				"y": -0.2482582452,
				"z": 2.3804491078,
				"element": "C" 
			},
			{
				"x": -2.2255673886,
				"y": -1.1827367841,
				"z": 1.6852163182,
				"element": "C" 
			},
			{
				"x": -2.3271235042,
				"y": -1.0805504616,
				"z": 0.2972390279,
				"element": "C" 
			},
			{
				"x": -3.1810990538,
				"y": -2.0947918797,
				"z": -0.3536950242,
				"element": "N" 
			},
			{
				"x": -3.3618939726,
				"y": -3.151854697,
				"z": 0.2498882678,
				"element": "O" 
			},
			{
				"x": -3.6793590366,
				"y": -1.82452926,
				"z": -1.4458628828,
				"element": "O" 
			},
			{
				"x": -0.2352930442,
				"y": 1.842876181,
				"z": -0.4112579007,
				"element": "N" 
			},
			{
				"x": 0.4763312104,
				"y": 2.7983581391,
				"z": -0.1989037102,
				"element": "C" 
			},
			{
				"x": 1.1696379368,
				"y": 3.747030351,
				"z": -0.1274824365,
				"element": "O" 
			},
			{
				"x": -0.9357702744,
				"y": 0.6796512676,
				"z": -2.3128038297,
				"element": "H" 
			},
			{
				"x": -1.6478906997,
				"y": -0.947152972,
				"z": -2.4426349857,
				"element": "H" 
			},
			{
				"x": -2.6943872362,
				"y": 0.4456572096,
				"z": -2.2826047658,
				"element": "H" 
			},
			{
				"x": -0.2111184118,
				"y": 1.4943897232,
				"z": 2.2119580563,
				"element": "H" 
			},
			{
				"x": -1.3878255711,
				"y": -0.3045538385,
				"z": 3.460916943,
				"element": "H" 
			},
			{
				"x": -2.7434169362,
				"y": -1.9883413884,
				"z": 2.1889653599,
				"element": "H" 
			}
		],
		 "valence_orbital": [ 
			{
				"type": "occ",
				"energy": -0.31326,
				"method": "rhf"
			},
			{
				"type": "occ",
				"energy": -0.3101,
				"method": "rhf"
			},
			{
				"type": "occ",
				"energy": -0.298,
				"method": "rhf"
			},
			{
				"type": "occ",
				"energy": -0.28086,
				"method": "rhf"
			},
			{
				"type": "occ",
				"energy": -0.25622,
				"method": "rhf"
			},
			{
				"type": "unocc",
				"energy": -0.09193,
				"method": "rhf"
			},
			{
				"type": "unocc",
				"energy": -0.04134,
				"method": "rhf"
			},
			{
				"type": "unocc",
				"energy": -0.01806,
				"method": "rhf"
			},
			{
				"type": "unocc",
				"energy": -0.00398,
				"method": "rhf"
			},
			{
				"type": "unocc",
				"energy": 0.06259,
				"method": "rhf"
			}
		],
		"cosmo_sigma_profile": { 
			"-0.025": 0.0,
			"-0.024": 0.0,
			"-0.023": 0.0,
			"-0.022": 0.0,
			"-0.021": 0.0,
			"-0.02": 0.0,
			"-0.019": 0.0,
			"-0.018": 0.0,
			"-0.017": 0.0,
			"-0.016": 0.0,
			"-0.015": 0.0,
			"-0.014": 0.0,
			"-0.013": 0.0,
			"-0.012": 0.0,
			"-0.011": 0.0,
			"-0.01": 0.187648861129,
			"-0.009": 2.53981238832,
			"-0.008": 4.33861232415,
			"-0.007": 8.04807064885,
			"-0.006": 9.54728684506,
			"-0.005": 10.3700539405,
			"-0.004": 11.9346345266,
			"-0.003": 16.012801247,
			"-0.002": 15.5515260905,
			"-0.001": 22.1137261317,
			"0.0": 22.3330995354,
			"0.001": 16.0692149189,
			"0.002": 12.6308902096,
			"0.003": 5.59039310853,
			"0.004": 4.02118333702,
			"0.005": 4.98382339928,
			"0.006": 7.39697981231,
			"0.007": 14.4962795199,
			"0.008": 7.75287112454,
			"0.009": 4.55618849907,
			"0.01": 2.40976682102,
			"0.011": 0.0968426807908,
			"0.012": 0.0,
			"0.013": 0.0,
			"0.014": 0.0,
			"0.015": 0.0,
			"0.016": 0.0,
			"0.017": 0.0,
			"0.018": 0.0,
			"0.019": 0.0,
			"0.02": 0.0,
			"0.021": 0.0,
			"0.022": 0.0,
			"0.023": 0.0,
			"0.024": 0.0,
			"0.025": 0.0
		}
	}
}
