{
	 "smiles": "OC(=O)CCC1=CC=C2NC(=O)CCC2=C1", 
	 "Tm": 507.15, 
	 "num_atms": 29, 
	 "gaussian": { 
		 "optdone": 1, 
		 "sigma_profile": "yes", 
		 "theory": "DFT", 
		 "functional": "B3LYP", 
		 "basiset": "6-31G**", 
		 "properties": { 
			 "R2extent": 5588.1431, 
			 "electric_dipole_moment_norm": 3.72785633575, 
			 "electric_quadrupole_moment_norm": 15.3050655928, 
			 "total_energy": -745.590018541, 
			 "HOMO_LUMO_gap": 0.20186, 
			 "cosmo_polarized_energy": -17.17, 
			 "cosmo_cavitation_energy": 32.57, 
			 "cosmo_dispersion_energy": -23.61, 
			 "cosmo_repulsion_energy": 1.86, 
			 "cosmo_total_nonelectrostatic_energy": 10.83, 
			 "SMD_solvation_energy": 6.55 
		},
		"coords": [
			{
				"x": 0.2180659085,
				"y": 0.7872604255,
				"z": 5.6523603788,
				"element": "O" 
			},
			{
				"x": 0.2007267629,
				"y": -0.2323039803,
				"z": 4.7619440947,
				"element": "C" 
			},
			{
				"x": -0.635248795,
				"y": -1.1102648832,
				"z": 4.7974132098,
				"element": "O" 
			},
			{
				"x": 1.3581604926,
				"y": -0.1423921329,
				"z": 3.7890807655,
				"element": "C" 
			},
			{
				"x": 1.1510707054,
				"y": -0.9804838291,
				"z": 2.5141341006,
				"element": "C" 
			},
			{
				"x": 0.1569169198,
				"y": -0.3793945603,
				"z": 1.5404904951,
				"element": "C" 
			},
			{
				"x": -1.2108280105,
				"y": -0.6740227601,
				"z": 1.6167585116,
				"element": "C" 
			},
			{
				"x": -2.1159352112,
				"y": -0.1082868969,
				"z": 0.7209469586,
				"element": "C" 
			},
			{
				"x": -1.6677640615,
				"y": 0.7757228284,
				"z": -0.2651482513,
				"element": "C" 
			},
			{
				"x": -2.5687828509,
				"y": 1.3600808512,
				"z": -1.1735494951,
				"element": "N" 
			},
			{
				"x": -2.230761958,
				"y": 1.957970568,
				"z": -2.3722665894,
				"element": "C" 
			},
			{
				"x": -3.0823435837,
				"y": 2.4013377754,
				"z": -3.1263186643,
				"element": "O" 
			},
			{
				"x": -0.7378316423,
				"y": 1.9686607008,
				"z": -2.6708512443,
				"element": "C" 
			},
			{
				"x": 0.1177364539,
				"y": 2.1055876872,
				"z": -1.4026666756,
				"element": "C" 
			},
			{
				"x": -0.3025421593,
				"y": 1.1008983219,
				"z": -0.3545253834,
				"element": "C" 
			},
			{
				"x": 0.5844310413,
				"y": 0.5089187271,
				"z": 0.5433819264,
				"element": "C" 
			},
			{
				"x": -0.5282298953,
				"y": 0.6324011445,
				"z": 6.256014867,
				"element": "H" 
			},
			{
				"x": 2.2446147542,
				"y": -0.4949029324,
				"z": 4.3342153469,
				"element": "H" 
			},
			{
				"x": 1.5420696707,
				"y": 0.9107744552,
				"z": 3.5551944408,
				"element": "H" 
			},
			{
				"x": 0.8275502882,
				"y": -1.9828530755,
				"z": 2.8105390355,
				"element": "H" 
			},
			{
				"x": 2.1224000434,
				"y": -1.0883129015,
				"z": 2.0191880156,
				"element": "H" 
			},
			{
				"x": -1.5665231308,
				"y": -1.3522963943,
				"z": 2.3855051767,
				"element": "H" 
			},
			{
				"x": -3.1720099037,
				"y": -0.3596581508,
				"z": 0.7802387508,
				"element": "H" 
			},
			{
				"x": -3.5631639809,
				"y": 1.2607188102,
				"z": -1.0136408755,
				"element": "H" 
			},
			{
				"x": -0.5518717357,
				"y": 2.7727545946,
				"z": -3.3856480045,
				"element": "H" 
			},
			{
				"x": -0.5064765387,
				"y": 1.0213768407,
				"z": -3.177266965,
				"element": "H" 
			},
			{
				"x": 1.1793877706,
				"y": 1.9913985768,
				"z": -1.6439202494,
				"element": "H" 
			},
			{
				"x": -0.0021435872,
				"y": 3.1220390602,
				"z": -0.9994946611,
				"element": "H" 
			},
			{
				"x": 1.643126233,
				"y": 0.7502711297,
				"z": 0.4625909845,
				"element": "H" 
			}
		],
		 "valence_orbital": [ 
			{
				"type": "occ",
				"energy": -0.29857,
				"method": "rhf"
			},
			{
				"type": "occ",
				"energy": -0.28099,
				"method": "rhf"
			},
			{
				"type": "occ",
				"energy": -0.25026,
				"method": "rhf"
			},
			{
				"type": "occ",
				"energy": -0.24929,
				"method": "rhf"
			},
			{
				"type": "occ",
				"energy": -0.21311,
				"method": "rhf"
			},
			{
				"type": "unocc",
				"energy": -0.01125,
				"method": "rhf"
			},
			{
				"type": "unocc",
				"energy": -0.00808,
				"method": "rhf"
			},
			{
				"type": "unocc",
				"energy": 0.00521,
				"method": "rhf"
			},
			{
				"type": "unocc",
				"energy": 0.03742,
				"method": "rhf"
			},
			{
				"type": "unocc",
				"energy": 0.07575,
				"method": "rhf"
			}
		],
		"cosmo_sigma_profile": { 
			"-0.025": 0.0,
			"-0.024": 0.0,
			"-0.023": 0.0,
			"-0.022": 0.0,
			"-0.021": 0.0,
			"-0.02": 0.0,
			"-0.019": 0.0,
			"-0.018": 0.525129375373,
			"-0.017": 0.994349700792,
			"-0.016": 0.658001018478,
			"-0.015": 1.20007043653,
			"-0.014": 2.08135899723,
			"-0.013": 1.68690566777,
			"-0.012": 1.05703855518,
			"-0.011": 2.04299626535,
			"-0.01": 2.61681622781,
			"-0.009": 1.42059643073,
			"-0.008": 2.04020996874,
			"-0.007": 3.28868496749,
			"-0.006": 8.86868918488,
			"-0.005": 17.3679604592,
			"-0.004": 24.9356314872,
			"-0.003": 26.9318383052,
			"-0.002": 24.925160628,
			"-0.001": 18.5144863815,
			"0.0": 12.5857108575,
			"0.001": 12.8305123915,
			"0.002": 13.0879935085,
			"0.003": 10.0335947886,
			"0.004": 11.9066027747,
			"0.005": 11.9711960677,
			"0.006": 6.71761108619,
			"0.007": 4.33880268857,
			"0.008": 4.54919584523,
			"0.009": 4.12364510083,
			"0.01": 3.54116720722,
			"0.011": 4.78093167896,
			"0.012": 5.27016387287,
			"0.013": 5.52668150804,
			"0.014": 3.85234631652,
			"0.015": 0.467942272596,
			"0.016": 0.0,
			"0.017": 0.0,
			"0.018": 0.0,
			"0.019": 0.0,
			"0.02": 0.0,
			"0.021": 0.0,
			"0.022": 0.0,
			"0.023": 0.0,
			"0.024": 0.0,
			"0.025": 0.0
		}
	}
}
