{
	 "smiles": "ClCC(=O)NCCCC1=CC=CC=C1", 
	 "Tm": 350.65, 
	 "num_atms": 28, 
	 "gaussian": { 
		 "optdone": 1, 
		 "sigma_profile": "yes", 
		 "theory": "DFT", 
		 "functional": "B3LYP", 
		 "basiset": "6-31G**", 
		 "properties": { 
			 "R2extent": 6500.7361, 
			 "electric_dipole_moment_norm": 1.98729143811, 
			 "electric_quadrupole_moment_norm": 4.79336245656, 
			 "total_energy": -1017.80393424, 
			 "HOMO_LUMO_gap": 0.23814, 
			 "cosmo_polarized_energy": -12.48, 
			 "cosmo_cavitation_energy": 33.4, 
			 "cosmo_dispersion_energy": -23.43, 
			 "cosmo_repulsion_energy": 1.91, 
			 "cosmo_total_nonelectrostatic_energy": 11.87, 
			 "SMD_solvation_energy": 5.13 
		},
		"coords": [
			{
				"x": 4.8096502721,
				"y": -1.8440354795,
				"z": 1.6611383463,
				"element": "Cl" 
			},
			{
				"x": 3.3761636184,
				"y": -2.6873848707,
				"z": 0.9220037337,
				"element": "C" 
			},
			{
				"x": 2.3332356275,
				"y": -1.8084541875,
				"z": 0.2240615132,
				"element": "C" 
			},
			{
				"x": 1.3778858896,
				"y": -2.3863822848,
				"z": -0.2801088982,
				"element": "O" 
			},
			{
				"x": 2.5322156957,
				"y": -0.4701056436,
				"z": 0.2177307125,
				"element": "N" 
			},
			{
				"x": 1.6195826342,
				"y": 0.4582698281,
				"z": -0.4366120828,
				"element": "C" 
			},
			{
				"x": 2.2751162426,
				"y": 1.1898140611,
				"z": -1.6145495353,
				"element": "C" 
			},
			{
				"x": 1.349060782,
				"y": 2.2350692315,
				"z": -2.2721334802,
				"element": "C" 
			},
			{
				"x": 0.1214117227,
				"y": 1.6455992095,
				"z": -2.9383385119,
				"element": "C" 
			},
			{
				"x": -1.1457578113,
				"y": 1.7500606718,
				"z": -2.3504433815,
				"element": "C" 
			},
			{
				"x": -2.2703442854,
				"y": 1.1908787329,
				"z": -2.9613695109,
				"element": "C" 
			},
			{
				"x": -2.1442901786,
				"y": 0.5169784513,
				"z": -4.1761657949,
				"element": "C" 
			},
			{
				"x": -0.8873693256,
				"y": 0.4080707296,
				"z": -4.7758147709,
				"element": "C" 
			},
			{
				"x": 0.2322285633,
				"y": 0.9681546319,
				"z": -4.1617186887,
				"element": "C" 
			},
			{
				"x": 2.8817132798,
				"y": -3.2362565352,
				"z": 1.7235088155,
				"element": "H" 
			},
			{
				"x": 3.765688334,
				"y": -3.3995499489,
				"z": 0.1946666431,
				"element": "H" 
			},
			{
				"x": 3.3678163804,
				"y": -0.1120599127,
				"z": 0.659076631,
				"element": "H" 
			},
			{
				"x": 0.7632794715,
				"y": -0.1303292152,
				"z": -0.7715508108,
				"element": "H" 
			},
			{
				"x": 1.2569124657,
				"y": 1.1863260674,
				"z": 0.3016896488,
				"element": "H" 
			},
			{
				"x": 3.1854699089,
				"y": 1.6966746225,
				"z": -1.2666308888,
				"element": "H" 
			},
			{
				"x": 2.5915859392,
				"y": 0.4500887721,
				"z": -2.3593240352,
				"element": "H" 
			},
			{
				"x": 1.0388134032,
				"y": 2.9666551594,
				"z": -1.5154323492,
				"element": "H" 
			},
			{
				"x": 1.9347811655,
				"y": 2.7902960415,
				"z": -3.014782398,
				"element": "H" 
			},
			{
				"x": -1.2539501878,
				"y": 2.2788315858,
				"z": -1.4062471432,
				"element": "H" 
			},
			{
				"x": -3.2437057792,
				"y": 1.2841196246,
				"z": -2.4878516392,
				"element": "H" 
			},
			{
				"x": -3.0173724676,
				"y": 0.0820488075,
				"z": -4.6539246639,
				"element": "H" 
			},
			{
				"x": -0.7799241619,
				"y": -0.1108305632,
				"z": -5.7242826823,
				"element": "H" 
			},
			{
				"x": 1.2058028009,
				"y": 0.8833524127,
				"z": -4.6394947782,
				"element": "H" 
			}
		],
		 "valence_orbital": [ 
			{
				"type": "occ",
				"energy": -0.30957,
				"method": "rhf"
			},
			{
				"type": "occ",
				"energy": -0.25848,
				"method": "rhf"
			},
			{
				"type": "occ",
				"energy": -0.25616,
				"method": "rhf"
			},
			{
				"type": "occ",
				"energy": -0.2478,
				"method": "rhf"
			},
			{
				"type": "occ",
				"energy": -0.23966,
				"method": "rhf"
			},
			{
				"type": "unocc",
				"energy": -0.00152,
				"method": "rhf"
			},
			{
				"type": "unocc",
				"energy": 0.00123,
				"method": "rhf"
			},
			{
				"type": "unocc",
				"energy": 0.01502,
				"method": "rhf"
			},
			{
				"type": "unocc",
				"energy": 0.02251,
				"method": "rhf"
			},
			{
				"type": "unocc",
				"energy": 0.08388,
				"method": "rhf"
			}
		],
		"cosmo_sigma_profile": { 
			"-0.025": 0.0,
			"-0.024": 0.0,
			"-0.023": 0.0,
			"-0.022": 0.0,
			"-0.021": 0.0,
			"-0.02": 0.0,
			"-0.019": 0.0,
			"-0.018": 0.0,
			"-0.017": 0.0,
			"-0.016": 0.0,
			"-0.015": 0.0,
			"-0.014": 0.0,
			"-0.013": 0.0621150290836,
			"-0.012": 0.662851139216,
			"-0.011": 0.955284345035,
			"-0.01": 0.913912419069,
			"-0.009": 3.38528550085,
			"-0.008": 5.03107703584,
			"-0.007": 4.53639029673,
			"-0.006": 6.62478062654,
			"-0.005": 16.1577995136,
			"-0.004": 27.3610182161,
			"-0.003": 28.3999850053,
			"-0.002": 22.7404032718,
			"-0.001": 21.8627723045,
			"0.0": 21.1026310326,
			"0.001": 17.543020372,
			"0.002": 14.0374382089,
			"0.003": 11.899231385,
			"0.004": 14.6735138279,
			"0.005": 14.5351463862,
			"0.006": 13.3803435663,
			"0.007": 4.08664411107,
			"0.008": 1.32586832277,
			"0.009": 1.58235203871,
			"0.01": 0.966581470793,
			"0.011": 1.30677393719,
			"0.012": 2.27971407483,
			"0.013": 5.08910395201,
			"0.014": 3.24608002817,
			"0.015": 0.0728733979342,
			"0.016": 0.0,
			"0.017": 0.0,
			"0.018": 0.0,
			"0.019": 0.0,
			"0.02": 0.0,
			"0.021": 0.0,
			"0.022": 0.0,
			"0.023": 0.0,
			"0.024": 0.0,
			"0.025": 0.0
		}
	}
}
