{
	 "smiles": "CCOC(=O)CC1=C(C=CC=N1)C(O)=O", 
	 "Tm": 402.15, 
	 "num_atms": 26, 
	 "gaussian": { 
		 "optdone": 1, 
		 "sigma_profile": "yes", 
		 "theory": "DFT", 
		 "functional": "B3LYP", 
		 "basiset": "6-31G**", 
		 "properties": { 
			 "R2extent": 3979.1892, 
			 "electric_dipole_moment_norm": 1.60904199137, 
			 "electric_quadrupole_moment_norm": 14.4148834452, 
			 "total_energy": -743.370650405, 
			 "HOMO_LUMO_gap": 0.20295, 
			 "cosmo_polarized_energy": -14.18, 
			 "cosmo_cavitation_energy": 30.66, 
			 "cosmo_dispersion_energy": -21.94, 
			 "cosmo_repulsion_energy": 1.75, 
			 "cosmo_total_nonelectrostatic_energy": 10.48, 
			 "SMD_solvation_energy": 5.92 
		},
		"coords": [
			{
				"x": -2.1402786553,
				"y": -0.2743344679,
				"z": 4.7144586203,
				"element": "C" 
			},
			{
				"x": -1.5058211928,
				"y": 0.9604248468,
				"z": 4.0920086107,
				"element": "C" 
			},
			{
				"x": -0.4947761083,
				"y": 0.6011810544,
				"z": 3.1200811227,
				"element": "O" 
			},
			{
				"x": -0.9264018741,
				"y": 0.3527842762,
				"z": 1.8663457931,
				"element": "C" 
			},
			{
				"x": -2.0865704125,
				"y": 0.4007911237,
				"z": 1.5195827142,
				"element": "O" 
			},
			{
				"x": 0.2542994612,
				"y": -0.0152125054,
				"z": 0.9779352032,
				"element": "C" 
			},
			{
				"x": -0.1373013787,
				"y": -0.2627444082,
				"z": -0.4580228934,
				"element": "C" 
			},
			{
				"x": -0.6078327928,
				"y": 0.7483302696,
				"z": -1.3285131737,
				"element": "C" 
			},
			{
				"x": -0.9670050264,
				"y": 0.3888183834,
				"z": -2.6340550219,
				"element": "C" 
			},
			{
				"x": -0.840812245,
				"y": -0.9341362257,
				"z": -3.0400422436,
				"element": "C" 
			},
			{
				"x": -0.3549355322,
				"y": -1.8552031214,
				"z": -2.1141941355,
				"element": "C" 
			},
			{
				"x": -0.0156823917,
				"y": -1.5357494149,
				"z": -0.8607225567,
				"element": "N" 
			},
			{
				"x": -0.7093727881,
				"y": 2.1680669013,
				"z": -0.8956413358,
				"element": "C" 
			},
			{
				"x": -1.3343009511,
				"y": 2.9473185815,
				"z": -1.8138839344,
				"element": "O" 
			},
			{
				"x": -0.2802800133,
				"y": 2.6350493214,
				"z": 0.1420844523,
				"element": "O" 
			},
			{
				"x": -1.3794055258,
				"y": -0.9194475304,
				"z": 5.1637746872,
				"element": "H" 
			},
			{
				"x": -2.6885626372,
				"y": -0.8448388281,
				"z": 3.960840106,
				"element": "H" 
			},
			{
				"x": -2.8442731772,
				"y": 0.0241336683,
				"z": 5.4986399072,
				"element": "H" 
			},
			{
				"x": -0.9679077044,
				"y": 1.5530278349,
				"z": 4.8359466048,
				"element": "H" 
			},
			{
				"x": -2.2563993601,
				"y": 1.5860593304,
				"z": 3.6033539464,
				"element": "H" 
			},
			{
				"x": 0.6995074317,
				"y": -0.9366200245,
				"z": 1.3640685027,
				"element": "H" 
			},
			{
				"x": 0.9907284147,
				"y": 0.786593391,
				"z": 1.0668860255,
				"element": "H" 
			},
			{
				"x": -1.336429487,
				"y": 1.1482257067,
				"z": -3.3131284553,
				"element": "H" 
			},
			{
				"x": -1.1084361837,
				"y": -1.2441898409,
				"z": -4.0447514167,
				"element": "H" 
			},
			{
				"x": -0.2314610431,
				"y": -2.9017821099,
				"z": -2.3876138721,
				"element": "H" 
			},
			{
				"x": -1.3369888267,
				"y": 3.8425537878,
				"z": -1.4372372573,
				"element": "H" 
			}
		],
		 "valence_orbital": [ 
			{
				"type": "occ",
				"energy": -0.29139,
				"method": "rhf"
			},
			{
				"type": "occ",
				"energy": -0.28249,
				"method": "rhf"
			},
			{
				"type": "occ",
				"energy": -0.26895,
				"method": "rhf"
			},
			{
				"type": "occ",
				"energy": -0.265,
				"method": "rhf"
			},
			{
				"type": "occ",
				"energy": -0.26163,
				"method": "rhf"
			},
			{
				"type": "unocc",
				"energy": -0.05868,
				"method": "rhf"
			},
			{
				"type": "unocc",
				"energy": -0.0283,
				"method": "rhf"
			},
			{
				"type": "unocc",
				"energy": 0.02141,
				"method": "rhf"
			},
			{
				"type": "unocc",
				"energy": 0.04647,
				"method": "rhf"
			},
			{
				"type": "unocc",
				"energy": 0.07498,
				"method": "rhf"
			}
		],
		"cosmo_sigma_profile": { 
			"-0.025": 0.0,
			"-0.024": 0.0,
			"-0.023": 0.0,
			"-0.022": 0.0,
			"-0.021": 0.0,
			"-0.02": 0.0,
			"-0.019": 0.116421207155,
			"-0.018": 1.00253329006,
			"-0.017": 0.948392482841,
			"-0.016": 0.730882367023,
			"-0.015": 0.404841389778,
			"-0.014": 0.632993949681,
			"-0.013": 0.766383358393,
			"-0.012": 1.06468372598,
			"-0.011": 0.79271759629,
			"-0.01": 0.739394973417,
			"-0.009": 0.458090294656,
			"-0.008": 2.16463298533,
			"-0.007": 7.22499902066,
			"-0.006": 11.2161714027,
			"-0.005": 13.8951749169,
			"-0.004": 17.7700571792,
			"-0.003": 23.120614802,
			"-0.002": 20.7535312157,
			"-0.001": 19.7644241436,
			"0.0": 23.8280433092,
			"0.001": 19.0468554626,
			"0.002": 9.81240544911,
			"0.003": 8.63556187814,
			"0.004": 8.65907232448,
			"0.005": 7.25896191365,
			"0.006": 8.03879496158,
			"0.007": 7.45711475339,
			"0.008": 5.83317886113,
			"0.009": 4.90102481094,
			"0.01": 4.2756549721,
			"0.011": 5.83000282321,
			"0.012": 4.44031793622,
			"0.013": 1.01036183831,
			"0.014": 0.443875337933,
			"0.015": 0.38892755461,
			"0.016": 0.0,
			"0.017": 0.0,
			"0.018": 0.0,
			"0.019": 0.0,
			"0.02": 0.0,
			"0.021": 0.0,
			"0.022": 0.0,
			"0.023": 0.0,
			"0.024": 0.0,
			"0.025": 0.0
		}
	}
}
