{
	 "smiles": "CC(=O)OC1=C(NC2=CC3=C(C=C12)C(=O)C(C1=CC=CC=C1)=[N+]3[O-])C1=CC=CC=C1", 
	 "Tm": 519.15, 
	 "num_atms": 46, 
	 "gaussian": { 
		 "optdone": 1, 
		 "sigma_profile": "yes", 
		 "theory": "DFT", 
		 "functional": "B3LYP", 
		 "basiset": "6-31G**", 
		 "properties": { 
			 "R2extent": 17731.8365, 
			 "electric_dipole_moment_norm": 6.48826186355, 
			 "electric_quadrupole_moment_norm": 25.4621910522, 
			 "total_energy": -1334.55705149, 
			 "HOMO_LUMO_gap": 0.10529, 
			 "cosmo_polarized_energy": -21.41, 
			 "cosmo_cavitation_energy": 51.93, 
			 "cosmo_dispersion_energy": -36.61, 
			 "cosmo_repulsion_energy": 2.68, 
			 "cosmo_total_nonelectrostatic_energy": 18.0, 
			 "SMD_solvation_energy": 10.38 
		},
		"coords": [
			{
				"x": -5.8467477001,
				"y": 0.2253556597,
				"z": -1.3713163513,
				"element": "C" 
			},
			{
				"x": -4.5263948608,
				"y": -0.1838545326,
				"z": -0.7718234074,
				"element": "C" 
			},
			{
				"x": -3.98164927,
				"y": -1.2501144011,
				"z": -0.8865201565,
				"element": "O" 
			},
			{
				"x": -3.9990932132,
				"y": 0.8685753426,
				"z": -0.0468023767,
				"element": "O" 
			},
			{
				"x": -2.790174107,
				"y": 0.6811568385,
				"z": 0.5994888347,
				"element": "C" 
			},
			{
				"x": -2.6311861213,
				"y": 0.7509576585,
				"z": 1.9724522482,
				"element": "C" 
			},
			{
				"x": -1.2785211302,
				"y": 0.5537812692,
				"z": 2.233166732,
				"element": "N" 
			},
			{
				"x": -0.5805641928,
				"y": 0.3899984511,
				"z": 1.0635430029,
				"element": "C" 
			},
			{
				"x": 0.7997174276,
				"y": 0.1964343359,
				"z": 0.867695931,
				"element": "C" 
			},
			{
				"x": 1.1559624973,
				"y": 0.0639065481,
				"z": -0.4507271408,
				"element": "C" 
			},
			{
				"x": 0.2678355102,
				"y": 0.1047948383,
				"z": -1.5343149433,
				"element": "C" 
			},
			{
				"x": -1.0848369232,
				"y": 0.2933896766,
				"z": -1.3454777598,
				"element": "C" 
			},
			{
				"x": -1.5207815544,
				"y": 0.4489813273,
				"z": -0.0107240076,
				"element": "C" 
			},
			{
				"x": 1.0866333381,
				"y": -0.0839971913,
				"z": -2.762187735,
				"element": "C" 
			},
			{
				"x": 0.670182537,
				"y": -0.1025353588,
				"z": -3.9106965257,
				"element": "O" 
			},
			{
				"x": 2.5053159619,
				"y": -0.2384872257,
				"z": -2.2976918475,
				"element": "C" 
			},
			{
				"x": 3.6909088365,
				"y": -0.4484360891,
				"z": -3.115998421,
				"element": "C" 
			},
			{
				"x": 4.9835974541,
				"y": -0.5764185118,
				"z": -2.5567853347,
				"element": "C" 
			},
			{
				"x": 6.0885574771,
				"y": -0.7764684525,
				"z": -3.3802101279,
				"element": "C" 
			},
			{
				"x": 5.9416190218,
				"y": -0.8540938091,
				"z": -4.7660485259,
				"element": "C" 
			},
			{
				"x": 4.6689246874,
				"y": -0.7291037096,
				"z": -5.3288786534,
				"element": "C" 
			},
			{
				"x": 3.5544695586,
				"y": -0.5289430484,
				"z": -4.5215733905,
				"element": "C" 
			},
			{
				"x": 2.4971988378,
				"y": -0.1451819944,
				"z": -0.9526661368,
				"element": "N" 
			},
			{
				"x": 3.4581076426,
				"y": -0.213287048,
				"z": -0.134881408,
				"element": "O" 
			},
			{
				"x": -3.5970017223,
				"y": 0.9564684852,
				"z": 3.0523848656,
				"element": "C" 
			},
			{
				"x": -3.3540970358,
				"y": 0.4374763442,
				"z": 4.3380722864,
				"element": "C" 
			},
			{
				"x": -4.2612806503,
				"y": 0.6476477055,
				"z": 5.3743714542,
				"element": "C" 
			},
			{
				"x": -5.432391876,
				"y": 1.3725814765,
				"z": 5.1469051891,
				"element": "C" 
			},
			{
				"x": -5.6880676701,
				"y": 1.8851642291,
				"z": 3.8727564647,
				"element": "C" 
			},
			{
				"x": -4.7816896997,
				"y": 1.6846178967,
				"z": 2.8345671814,
				"element": "C" 
			},
			{
				"x": -6.5598599473,
				"y": 0.4579360932,
				"z": -0.5745965841,
				"element": "H" 
			},
			{
				"x": -5.7237113483,
				"y": 1.1289325238,
				"z": -1.9749911729,
				"element": "H" 
			},
			{
				"x": -6.2309897389,
				"y": -0.5877697041,
				"z": -1.9858124936,
				"element": "H" 
			},
			{
				"x": -0.8585643511,
				"y": 0.6932324167,
				"z": 3.1386538011,
				"element": "H" 
			},
			{
				"x": 1.5316201892,
				"y": 0.1502223365,
				"z": 1.6654857249,
				"element": "H" 
			},
			{
				"x": -1.7711590883,
				"y": 0.3144557527,
				"z": -2.1843252402,
				"element": "H" 
			},
			{
				"x": 5.1024895945,
				"y": -0.5173324446,
				"z": -1.4844639728,
				"element": "H" 
			},
			{
				"x": 7.0733002517,
				"y": -0.8725497224,
				"z": -2.931437855,
				"element": "H" 
			},
			{
				"x": 6.808810168,
				"y": -1.0104917252,
				"z": -5.4014656884,
				"element": "H" 
			},
			{
				"x": 4.5416973709,
				"y": -0.7880748054,
				"z": -6.4061463602,
				"element": "H" 
			},
			{
				"x": 2.5707853919,
				"y": -0.4328010178,
				"z": -4.9623448932,
				"element": "H" 
			},
			{
				"x": -2.4678009951,
				"y": -0.1637400443,
				"z": 4.5217484465,
				"element": "H" 
			},
			{
				"x": -4.0574708135,
				"y": 0.23452916,
				"z": 6.3579160929,
				"element": "H" 
			},
			{
				"x": -6.1406102884,
				"y": 1.5340380308,
				"z": 5.9540045208,
				"element": "H" 
			},
			{
				"x": -6.5951090588,
				"y": 2.4535480007,
				"z": 3.6881167175,
				"element": "H" 
			},
			{
				"x": -4.9778803971,
				"y": 2.0983984391,
				"z": 1.8522790164,
				"element": "H" 
			}
		],
		 "valence_orbital": [ 
			{
				"type": "occ",
				"energy": -0.25187,
				"method": "rhf"
			},
			{
				"type": "occ",
				"energy": -0.24626,
				"method": "rhf"
			},
			{
				"type": "occ",
				"energy": -0.2433,
				"method": "rhf"
			},
			{
				"type": "occ",
				"energy": -0.22272,
				"method": "rhf"
			},
			{
				"type": "occ",
				"energy": -0.2014,
				"method": "rhf"
			},
			{
				"type": "unocc",
				"energy": -0.09611,
				"method": "rhf"
			},
			{
				"type": "unocc",
				"energy": -0.05826,
				"method": "rhf"
			},
			{
				"type": "unocc",
				"energy": -0.02486,
				"method": "rhf"
			},
			{
				"type": "unocc",
				"energy": -0.01801,
				"method": "rhf"
			},
			{
				"type": "unocc",
				"energy": -0.00355,
				"method": "rhf"
			}
		],
		"cosmo_sigma_profile": { 
			"-0.025": 0.0,
			"-0.024": 0.0,
			"-0.023": 0.0,
			"-0.022": 0.0,
			"-0.021": 0.0,
			"-0.02": 0.0,
			"-0.019": 0.0,
			"-0.018": 0.0,
			"-0.017": 0.375820683922,
			"-0.016": 1.40048377464,
			"-0.015": 1.25121472087,
			"-0.014": 1.52303076694,
			"-0.013": 1.12280697552,
			"-0.012": 1.55249871008,
			"-0.011": 2.05778792487,
			"-0.01": 1.43542458436,
			"-0.009": 2.17808158687,
			"-0.008": 2.83468553705,
			"-0.007": 8.32791898699,
			"-0.006": 21.5204614604,
			"-0.005": 27.8783096654,
			"-0.004": 32.1278223493,
			"-0.003": 30.6769687335,
			"-0.002": 28.8058021442,
			"-0.001": 28.1041128022,
			"0.0": 30.7420575934,
			"0.001": 40.4577388641,
			"0.002": 33.7126911254,
			"0.003": 25.1400296367,
			"0.004": 26.7220025638,
			"0.005": 24.1720986531,
			"0.006": 6.4644615943,
			"0.007": 5.27447553832,
			"0.008": 5.4940202492,
			"0.009": 6.77774911915,
			"0.01": 9.90918536482,
			"0.011": 9.02109604743,
			"0.012": 1.92110647626,
			"0.013": 0.0,
			"0.014": 0.0,
			"0.015": 0.0,
			"0.016": 0.0,
			"0.017": 0.0,
			"0.018": 0.0,
			"0.019": 0.0,
			"0.02": 0.0,
			"0.021": 0.0,
			"0.022": 0.0,
			"0.023": 0.0,
			"0.024": 0.0,
			"0.025": 0.0
		}
	}
}
