{
	 "smiles": "ClCC(=O)NC(=O)NC1=CC2=C(OCCCO2)C=C1", 
	 "Tm": 384.15, 
	 "num_atms": 32, 
	 "gaussian": { 
		 "optdone": 1, 
		 "sigma_profile": "yes", 
		 "theory": "DFT", 
		 "functional": "B3LYP", 
		 "basiset": "6-31G**", 
		 "properties": { 
			 "R2extent": 9824.4381, 
			 "electric_dipole_moment_norm": 5.45718548429, 
			 "electric_quadrupole_moment_norm": 22.6727986109, 
			 "total_energy": -1335.70865487, 
			 "HOMO_LUMO_gap": 0.18406, 
			 "cosmo_polarized_energy": -26.23, 
			 "cosmo_cavitation_energy": 37.91, 
			 "cosmo_dispersion_energy": -28.26, 
			 "cosmo_repulsion_energy": 2.19, 
			 "cosmo_total_nonelectrostatic_energy": 11.84, 
			 "SMD_solvation_energy": 7.46 
		},
		"coords": [
			{
				"x": 2.3973544322,
				"y": 4.9570906381,
				"z": -1.5012792524,
				"element": "Cl" 
			},
			{
				"x": 2.0821656079,
				"y": 4.3575588979,
				"z": -3.1899894532,
				"element": "C" 
			},
			{
				"x": 1.2638278806,
				"y": 3.0646548382,
				"z": -3.3406000746,
				"element": "C" 
			},
			{
				"x": 1.0359292023,
				"y": 2.6884726593,
				"z": -4.4692817605,
				"element": "O" 
			},
			{
				"x": 0.8576078422,
				"y": 2.4618300852,
				"z": -2.168792685,
				"element": "N" 
			},
			{
				"x": 0.1798117842,
				"y": 1.214774353,
				"z": -2.0701585126,
				"element": "C" 
			},
			{
				"x": 0.0666552988,
				"y": 0.4402805656,
				"z": -2.995517144,
				"element": "O" 
			},
			{
				"x": -0.2990705888,
				"y": 1.0215197392,
				"z": -0.7908159292,
				"element": "N" 
			},
			{
				"x": -0.9673463186,
				"y": -0.1166668727,
				"z": -0.280758829,
				"element": "C" 
			},
			{
				"x": -1.3234661927,
				"y": -0.0867202757,
				"z": 1.073329217,
				"element": "C" 
			},
			{
				"x": -1.9964757253,
				"y": -1.1520600726,
				"z": 1.6713491152,
				"element": "C" 
			},
			{
				"x": -2.3070684008,
				"y": -2.292491576,
				"z": 0.9053046257,
				"element": "C" 
			},
			{
				"x": -3.0427017239,
				"y": -3.3515841031,
				"z": 1.3829721331,
				"element": "O" 
			},
			{
				"x": -2.5471483169,
				"y": -4.0362917449,
				"z": 2.5360866404,
				"element": "C" 
			},
			{
				"x": -2.7799837467,
				"y": -3.2686292606,
				"z": 3.8329595832,
				"element": "C" 
			},
			{
				"x": -1.974317006,
				"y": -1.9776297846,
				"z": 3.9253742416,
				"element": "C" 
			},
			{
				"x": -2.3829948441,
				"y": -0.9840303084,
				"z": 2.9788939259,
				"element": "O" 
			},
			{
				"x": -1.9302972574,
				"y": -2.3164086987,
				"z": -0.4390073148,
				"element": "C" 
			},
			{
				"x": -1.2746838167,
				"y": -1.2489578878,
				"z": -1.0479068247,
				"element": "C" 
			},
			{
				"x": 3.0538387678,
				"y": 4.1985960159,
				"z": -3.6580169059,
				"element": "H" 
			},
			{
				"x": 1.5589905302,
				"y": 5.1535059187,
				"z": -3.719541445,
				"element": "H" 
			},
			{
				"x": 1.1373498021,
				"y": 2.9331708971,
				"z": -1.3175860097,
				"element": "H" 
			},
			{
				"x": -0.2416686442,
				"y": 1.798070506,
				"z": -0.1479688465,
				"element": "H" 
			},
			{
				"x": -1.1003415833,
				"y": 0.7755736858,
				"z": 1.6960383946,
				"element": "H" 
			},
			{
				"x": -1.4771291568,
				"y": -4.2577853365,
				"z": 2.4053732242,
				"element": "H" 
			},
			{
				"x": -3.0905760388,
				"y": -4.9852203375,
				"z": 2.5550077345,
				"element": "H" 
			},
			{
				"x": -3.8467417268,
				"y": -3.0385237521,
				"z": 3.9317696616,
				"element": "H" 
			},
			{
				"x": -2.5006117023,
				"y": -3.91367576,
				"z": 4.6771884362,
				"element": "H" 
			},
			{
				"x": -0.9003601687,
				"y": -2.1834876715,
				"z": 3.8030788879,
				"element": "H" 
			},
			{
				"x": -2.1212617796,
				"y": -1.507982532,
				"z": 4.9020187672,
				"element": "H" 
			},
			{
				"x": -2.187539234,
				"y": -3.1984214565,
				"z": -1.0167082465,
				"element": "H" 
			},
			{
				"x": -1.0062471758,
				"y": -1.283731369,
				"z": -2.093415355,
				"element": "H" 
			}
		],
		 "valence_orbital": [ 
			{
				"type": "occ",
				"energy": -0.28889,
				"method": "rhf"
			},
			{
				"type": "occ",
				"energy": -0.2772,
				"method": "rhf"
			},
			{
				"type": "occ",
				"energy": -0.2611,
				"method": "rhf"
			},
			{
				"type": "occ",
				"energy": -0.24082,
				"method": "rhf"
			},
			{
				"type": "occ",
				"energy": -0.21151,
				"method": "rhf"
			},
			{
				"type": "unocc",
				"energy": -0.02745,
				"method": "rhf"
			},
			{
				"type": "unocc",
				"energy": -0.00326,
				"method": "rhf"
			},
			{
				"type": "unocc",
				"energy": 0.00032,
				"method": "rhf"
			},
			{
				"type": "unocc",
				"energy": 0.01205,
				"method": "rhf"
			},
			{
				"type": "unocc",
				"energy": 0.04623,
				"method": "rhf"
			}
		],
		"cosmo_sigma_profile": { 
			"-0.025": 0.0,
			"-0.024": 0.0,
			"-0.023": 0.0,
			"-0.022": 0.0,
			"-0.021": 0.0,
			"-0.02": 0.228836840612,
			"-0.019": 0.82829597074,
			"-0.018": 1.39780371617,
			"-0.017": 0.824049519709,
			"-0.016": 1.1042351334,
			"-0.015": 1.65751664649,
			"-0.014": 1.45026922797,
			"-0.013": 1.30954461534,
			"-0.012": 1.32999955161,
			"-0.011": 1.67053307204,
			"-0.01": 2.96499741268,
			"-0.009": 6.45197748805,
			"-0.008": 5.53464344394,
			"-0.007": 7.37441291775,
			"-0.006": 11.0106476774,
			"-0.005": 22.6480365269,
			"-0.004": 25.9433648125,
			"-0.003": 23.4940511483,
			"-0.002": 19.8752923635,
			"-0.001": 14.8915700178,
			"0.0": 14.5660217245,
			"0.001": 14.4706052176,
			"0.002": 15.3369766119,
			"0.003": 20.0637496034,
			"0.004": 21.2915304732,
			"0.005": 16.2617234714,
			"0.006": 6.28037041907,
			"0.007": 5.12293056133,
			"0.008": 5.59625586646,
			"0.009": 4.10439085756,
			"0.01": 6.1331799276,
			"0.011": 8.21789551341,
			"0.012": 6.69729631391,
			"0.013": 2.68404624714,
			"0.014": 1.63107576153,
			"0.015": 1.59541558738,
			"0.016": 1.12356603678,
			"0.017": 0.221733733991,
			"0.018": 0.0,
			"0.019": 0.0,
			"0.02": 0.0,
			"0.021": 0.0,
			"0.022": 0.0,
			"0.023": 0.0,
			"0.024": 0.0,
			"0.025": 0.0
		}
	}
}
