{
	 "smiles": "CC(C)CC(N1CCCCC1=O)C(O)=O", 
	 "Tm": 456.15, 
	 "num_atms": 34, 
	 "gaussian": { 
		 "optdone": 1, 
		 "sigma_profile": "yes", 
		 "theory": "DFT", 
		 "functional": "B3LYP", 
		 "basiset": "6-31G**", 
		 "properties": { 
			 "R2extent": 4353.2552, 
			 "electric_dipole_moment_norm": 2.71400677044, 
			 "electric_quadrupole_moment_norm": 13.6998395859, 
			 "total_energy": -711.090116708, 
			 "HOMO_LUMO_gap": 0.23436, 
			 "cosmo_polarized_energy": -13.94, 
			 "cosmo_cavitation_energy": 34.5, 
			 "cosmo_dispersion_energy": -23.89, 
			 "cosmo_repulsion_energy": 1.9, 
			 "cosmo_total_nonelectrostatic_energy": 12.51, 
			 "SMD_solvation_energy": 6.96 
		},
		"coords": [
			{
				"x": 1.2136078376,
				"y": 2.5457678746,
				"z": 1.7413528989,
				"element": "C" 
			},
			{
				"x": 1.8053853401,
				"y": 1.5764955362,
				"z": 0.7071545196,
				"element": "C" 
			},
			{
				"x": 2.9791336571,
				"y": 0.7873494636,
				"z": 1.3084447313,
				"element": "C" 
			},
			{
				"x": 0.75602951,
				"y": 0.5901757177,
				"z": 0.1538927845,
				"element": "C" 
			},
			{
				"x": -0.4751510845,
				"y": 1.2021204715,
				"z": -0.5634523313,
				"element": "C" 
			},
			{
				"x": -1.4760191535,
				"y": 0.1905642838,
				"z": -0.8887611779,
				"element": "N" 
			},
			{
				"x": -1.1635423316,
				"y": -0.9755709992,
				"z": -1.7260817183,
				"element": "C" 
			},
			{
				"x": -2.229943433,
				"y": -1.1570771684,
				"z": -2.8143259589,
				"element": "C" 
			},
			{
				"x": -3.6670461688,
				"y": -1.123882109,
				"z": -2.2292307471,
				"element": "C" 
			},
			{
				"x": -3.6689594099,
				"y": -0.8341542428,
				"z": -0.7129614751,
				"element": "C" 
			},
			{
				"x": -2.7336655607,
				"y": 0.3055061197,
				"z": -0.3354095712,
				"element": "C" 
			},
			{
				"x": -3.0662481395,
				"y": 1.2336034683,
				"z": 0.3954961521,
				"element": "O" 
			},
			{
				"x": -0.0709951757,
				"y": 1.9803328856,
				"z": -1.8147195645,
				"element": "C" 
			},
			{
				"x": 0.2722809626,
				"y": 3.2549126846,
				"z": -1.5163893793,
				"element": "O" 
			},
			{
				"x": -0.0265155191,
				"y": 1.5480384455,
				"z": -2.9471244633,
				"element": "O" 
			},
			{
				"x": 1.9960885755,
				"y": 3.1890209209,
				"z": 2.1578976091,
				"element": "H" 
			},
			{
				"x": 0.4529240999,
				"y": 3.1977178048,
				"z": 1.3038361763,
				"element": "H" 
			},
			{
				"x": 0.755079215,
				"y": 1.9989646768,
				"z": 2.5743669208,
				"element": "H" 
			},
			{
				"x": 2.1965421879,
				"y": 2.1728106682,
				"z": -0.1276358257,
				"element": "H" 
			},
			{
				"x": 2.6483721945,
				"y": 0.176528934,
				"z": 2.157311937,
				"element": "H" 
			},
			{
				"x": 3.7604509629,
				"y": 1.4629810527,
				"z": 1.6718960084,
				"element": "H" 
			},
			{
				"x": 3.4332254377,
				"y": 0.1156194629,
				"z": 0.5714557765,
				"element": "H" 
			},
			{
				"x": 0.3595420946,
				"y": -0.0085707481,
				"z": 0.9840980271,
				"element": "H" 
			},
			{
				"x": 1.2536775353,
				"y": -0.1099900914,
				"z": -0.5287109692,
				"element": "H" 
			},
			{
				"x": -0.9825701692,
				"y": 1.8943669602,
				"z": 0.1109231984,
				"element": "H" 
			},
			{
				"x": -1.0885523987,
				"y": -1.8794451804,
				"z": -1.1037240665,
				"element": "H" 
			},
			{
				"x": -0.1927383303,
				"y": -0.8120113404,
				"z": -2.1918665692,
				"element": "H" 
			},
			{
				"x": -2.0969645099,
				"y": -0.3504230848,
				"z": -3.5405113237,
				"element": "H" 
			},
			{
				"x": -2.0398597363,
				"y": -2.0992015802,
				"z": -3.3401595569,
				"element": "H" 
			},
			{
				"x": -4.1863763059,
				"y": -2.0703870524,
				"z": -2.4110990945,
				"element": "H" 
			},
			{
				"x": -4.2529338544,
				"y": -0.3502005605,
				"z": -2.7354755548,
				"element": "H" 
			},
			{
				"x": -3.3468905601,
				"y": -1.7310633627,
				"z": -0.1661458408,
				"element": "H" 
			},
			{
				"x": -4.6643669152,
				"y": -0.5731901137,
				"z": -0.3493105599,
				"element": "H" 
			},
			{
				"x": 0.5462991457,
				"y": 3.6678902024,
				"z": -2.3535309919,
				"element": "H" 
			}
		],
		 "valence_orbital": [ 
			{
				"type": "occ",
				"energy": -0.32339,
				"method": "rhf"
			},
			{
				"type": "occ",
				"energy": -0.31886,
				"method": "rhf"
			},
			{
				"type": "occ",
				"energy": -0.28248,
				"method": "rhf"
			},
			{
				"type": "occ",
				"energy": -0.23894,
				"method": "rhf"
			},
			{
				"type": "occ",
				"energy": -0.23517,
				"method": "rhf"
			},
			{
				"type": "unocc",
				"energy": -0.00081,
				"method": "rhf"
			},
			{
				"type": "unocc",
				"energy": 0.0319,
				"method": "rhf"
			},
			{
				"type": "unocc",
				"energy": 0.06831,
				"method": "rhf"
			},
			{
				"type": "unocc",
				"energy": 0.0808,
				"method": "rhf"
			},
			{
				"type": "unocc",
				"energy": 0.09348,
				"method": "rhf"
			}
		],
		"cosmo_sigma_profile": { 
			"-0.025": 0.0,
			"-0.024": 0.0,
			"-0.023": 0.0,
			"-0.022": 0.0,
			"-0.021": 0.0,
			"-0.02": 0.0,
			"-0.019": 0.0560623100018,
			"-0.018": 0.824002908801,
			"-0.017": 1.29907423706,
			"-0.016": 0.500455361182,
			"-0.015": 0.676637439378,
			"-0.014": 0.777686992871,
			"-0.013": 0.613306115055,
			"-0.012": 0.848172762757,
			"-0.011": 1.04430972691,
			"-0.01": 0.639961646309,
			"-0.009": 0.181164873734,
			"-0.008": 0.499222270777,
			"-0.007": 1.17060783459,
			"-0.006": 2.08899921481,
			"-0.005": 7.66407077664,
			"-0.004": 15.8539048949,
			"-0.003": 37.1774097416,
			"-0.002": 46.2062215724,
			"-0.001": 36.471780574,
			"0.0": 26.9036012685,
			"0.001": 22.5943881399,
			"0.002": 11.3654954604,
			"0.003": 5.45548669667,
			"0.004": 5.46853753562,
			"0.005": 5.00939670875,
			"0.006": 5.29693898111,
			"0.007": 4.15798170115,
			"0.008": 2.96006986189,
			"0.009": 2.95285991227,
			"0.01": 2.75470024003,
			"0.011": 4.90182625234,
			"0.012": 3.04319210828,
			"0.013": 2.83169279722,
			"0.014": 4.79810266079,
			"0.015": 1.82928157518,
			"0.016": 0.150812343195,
			"0.017": 0.0,
			"0.018": 0.0,
			"0.019": 0.0,
			"0.02": 0.0,
			"0.021": 0.0,
			"0.022": 0.0,
			"0.023": 0.0,
			"0.024": 0.0,
			"0.025": 0.0
		}
	}
}
