{
	 "smiles": "NC(=NO)C1=CC(CN2C=NC3=C2C=CC=C3)=CC=C1", 
	 "Tm": 500.15, 
	 "num_atms": 34, 
	 "gaussian": { 
		 "optdone": 1, 
		 "sigma_profile": "yes", 
		 "theory": "DFT", 
		 "functional": "B3LYP", 
		 "basiset": "6-31G**", 
		 "properties": { 
			 "R2extent": 7747.888, 
			 "electric_dipole_moment_norm": 2.96920221103, 
			 "electric_quadrupole_moment_norm": 19.4883358012, 
			 "total_energy": -874.216264502, 
			 "HOMO_LUMO_gap": 0.17751, 
			 "cosmo_polarized_energy": -19.62, 
			 "cosmo_cavitation_energy": 38.5, 
			 "cosmo_dispersion_energy": -27.37, 
			 "cosmo_repulsion_energy": 2.11, 
			 "cosmo_total_nonelectrostatic_energy": 13.24, 
			 "SMD_solvation_energy": 4.65 
		},
		"coords": [
			{
				"x": 0.1750867054,
				"y": 3.3952461066,
				"z": 3.3184449478,
				"element": "N" 
			},
			{
				"x": 0.5769953427,
				"y": 2.0734133667,
				"z": 3.084679495,
				"element": "C" 
			},
			{
				"x": 1.0207409461,
				"y": 1.4357944006,
				"z": 4.11621579,
				"element": "N" 
			},
			{
				"x": 1.5934151236,
				"y": 0.1814598647,
				"z": 3.7965805307,
				"element": "O" 
			},
			{
				"x": 0.4867605017,
				"y": 1.6193023302,
				"z": 1.6720762277,
				"element": "C" 
			},
			{
				"x": 0.2131769111,
				"y": 0.2820277852,
				"z": 1.3408766253,
				"element": "C" 
			},
			{
				"x": 0.0818279298,
				"y": -0.1161057833,
				"z": 0.0094668955,
				"element": "C" 
			},
			{
				"x": -0.1707460077,
				"y": -1.5837064268,
				"z": -0.3027541099,
				"element": "C" 
			},
			{
				"x": -1.0656022076,
				"y": -1.8231203795,
				"z": -1.4269349989,
				"element": "N" 
			},
			{
				"x": -2.4437673179,
				"y": -1.7699853819,
				"z": -1.4015714188,
				"element": "C" 
			},
			{
				"x": -3.0141878316,
				"y": -2.0005152525,
				"z": -2.5558841426,
				"element": "N" 
			},
			{
				"x": -1.9554922584,
				"y": -2.2191327852,
				"z": -3.4276608593,
				"element": "C" 
			},
			{
				"x": -0.7205113172,
				"y": -2.1094483012,
				"z": -2.74110917,
				"element": "C" 
			},
			{
				"x": 0.5100205663,
				"y": -2.2823742083,
				"z": -3.3819380721,
				"element": "C" 
			},
			{
				"x": 0.472829808,
				"y": -2.5770829807,
				"z": -4.7426877382,
				"element": "C" 
			},
			{
				"x": -0.7471173328,
				"y": -2.6924041498,
				"z": -5.4399560584,
				"element": "C" 
			},
			{
				"x": -1.9676745341,
				"y": -2.5160773835,
				"z": -4.796588904,
				"element": "C" 
			},
			{
				"x": 0.223327324,
				"y": 0.833217319,
				"z": -1.0108557032,
				"element": "C" 
			},
			{
				"x": 0.492670459,
				"y": 2.1634296067,
				"z": -0.692983352,
				"element": "C" 
			},
			{
				"x": 0.6218942103,
				"y": 2.5589949543,
				"z": 0.637692534,
				"element": "C" 
			},
			{
				"x": 0.2067339115,
				"y": 3.6253195391,
				"z": 4.3055040149,
				"element": "H" 
			},
			{
				"x": -0.718362893,
				"y": 3.6323822674,
				"z": 2.9023133661,
				"element": "H" 
			},
			{
				"x": 1.9036344953,
				"y": -0.108828179,
				"z": 4.6635787389,
				"element": "H" 
			},
			{
				"x": 0.107923603,
				"y": -0.4459312677,
				"z": 2.1363483832,
				"element": "H" 
			},
			{
				"x": 0.7729260139,
				"y": -2.0932549749,
				"z": -0.5274386919,
				"element": "H" 
			},
			{
				"x": -0.5844838188,
				"y": -2.0810447212,
				"z": 0.580378728,
				"element": "H" 
			},
			{
				"x": -2.9693285104,
				"y": -1.5558308942,
				"z": -0.4786957598,
				"element": "H" 
			},
			{
				"x": 1.4548123665,
				"y": -2.1911134404,
				"z": -2.8543101288,
				"element": "H" 
			},
			{
				"x": 1.406467835,
				"y": -2.7195232688,
				"z": -5.2788957964,
				"element": "H" 
			},
			{
				"x": -0.728378518,
				"y": -2.9225154573,
				"z": -6.5011154742,
				"element": "H" 
			},
			{
				"x": -2.9108594585,
				"y": -2.602873476,
				"z": -5.3263381078,
				"element": "H" 
			},
			{
				"x": 0.1184415762,
				"y": 0.5330184422,
				"z": -2.049139709,
				"element": "H" 
			},
			{
				"x": 0.6034994711,
				"y": 2.8963239437,
				"z": -1.4868101283,
				"element": "H" 
			},
			{
				"x": 0.8396269055,
				"y": 3.5921387857,
				"z": 0.8860120466,
				"element": "H" 
			}
		],
		 "valence_orbital": [ 
			{
				"type": "occ",
				"energy": -0.26257,
				"method": "rhf"
			},
			{
				"type": "occ",
				"energy": -0.25627,
				"method": "rhf"
			},
			{
				"type": "occ",
				"energy": -0.22417,
				"method": "rhf"
			},
			{
				"type": "occ",
				"energy": -0.22053,
				"method": "rhf"
			},
			{
				"type": "occ",
				"energy": -0.21496,
				"method": "rhf"
			},
			{
				"type": "unocc",
				"energy": -0.03745,
				"method": "rhf"
			},
			{
				"type": "unocc",
				"energy": -0.01368,
				"method": "rhf"
			},
			{
				"type": "unocc",
				"energy": -0.01248,
				"method": "rhf"
			},
			{
				"type": "unocc",
				"energy": 0.02342,
				"method": "rhf"
			},
			{
				"type": "unocc",
				"energy": 0.0482,
				"method": "rhf"
			}
		],
		"cosmo_sigma_profile": { 
			"-0.025": 0.0,
			"-0.024": 0.0,
			"-0.023": 0.0,
			"-0.022": 0.0,
			"-0.021": 0.0,
			"-0.02": 0.0,
			"-0.019": 0.0,
			"-0.018": 0.0,
			"-0.017": 0.313390012124,
			"-0.016": 1.13133367558,
			"-0.015": 0.662925818722,
			"-0.014": 1.10865482719,
			"-0.013": 1.20696588358,
			"-0.012": 2.19498619373,
			"-0.011": 2.5016594697,
			"-0.01": 3.42285577735,
			"-0.009": 6.62354771135,
			"-0.008": 8.07307739122,
			"-0.007": 11.0130670269,
			"-0.006": 14.515068617,
			"-0.005": 20.8649594308,
			"-0.004": 21.2344144898,
			"-0.003": 18.8022386974,
			"-0.002": 17.1856676056,
			"-0.001": 16.4335919116,
			"0.0": 17.9154490776,
			"0.001": 15.9892035135,
			"0.002": 18.5081104937,
			"0.003": 17.7446457596,
			"0.004": 21.2300297032,
			"0.005": 18.3353079938,
			"0.006": 14.3218766188,
			"0.007": 7.64627524317,
			"0.008": 5.84259192368,
			"0.009": 4.67171332149,
			"0.01": 3.66764836071,
			"0.011": 4.33323228935,
			"0.012": 3.10416614737,
			"0.013": 1.86101324159,
			"0.014": 1.59395748162,
			"0.015": 1.12095788641,
			"0.016": 1.03977415592,
			"0.017": 0.969129758056,
			"0.018": 0.304590027734,
			"0.019": 0.0,
			"0.02": 0.0,
			"0.021": 0.0,
			"0.022": 0.0,
			"0.023": 0.0,
			"0.024": 0.0,
			"0.025": 0.0
		}
	}
}
