{
	 "smiles": "OC(=O)C1(O)CCC1", 
	 "Tm": 313.15, 
	 "num_atms": 16, 
	 "gaussian": { 
		 "optdone": 1, 
		 "sigma_profile": "yes", 
		 "theory": "DFT", 
		 "functional": "B3LYP", 
		 "basiset": "6-31G**", 
		 "properties": { 
			 "R2extent": 1216.2888, 
			 "electric_dipole_moment_norm": 4.89913527166, 
			 "electric_quadrupole_moment_norm": 10.7434538571, 
			 "total_energy": -421.002620718, 
			 "HOMO_LUMO_gap": 0.27304, 
			 "cosmo_polarized_energy": -12.82, 
			 "cosmo_cavitation_energy": 19.01, 
			 "cosmo_dispersion_energy": -14.28, 
			 "cosmo_repulsion_energy": 1.2, 
			 "cosmo_total_nonelectrostatic_energy": 5.94, 
			 "SMD_solvation_energy": 4.37 
		},
		"coords": [
			{
				"x": 0.7886642019,
				"y": 3.2390230627,
				"z": 0.9405365155,
				"element": "O" 
			},
			{
				"x": 1.2130771062,
				"y": 2.0425123897,
				"z": 0.4999080352,
				"element": "C" 
			},
			{
				"x": 2.3449868265,
				"y": 1.8547960346,
				"z": 0.1189413597,
				"element": "O" 
			},
			{
				"x": 0.1676085251,
				"y": 0.9253817385,
				"z": 0.5103427875,
				"element": "C" 
			},
			{
				"x": -1.038606966,
				"y": 1.4941270729,
				"z": 1.0154876496,
				"element": "O" 
			},
			{
				"x": 0.0140586063,
				"y": 0.132014915,
				"z": -0.8230970881,
				"element": "C" 
			},
			{
				"x": 0.0684145754,
				"y": -1.1990998932,
				"z": -0.0246928941,
				"element": "C" 
			},
			{
				"x": 0.6069643638,
				"y": -0.4041612165,
				"z": 1.1960940503,
				"element": "C" 
			},
			{
				"x": -0.1488173244,
				"y": 3.1395217826,
				"z": 1.1887681835,
				"element": "H" 
			},
			{
				"x": -1.7338769823,
				"y": 0.8256476682,
				"z": 1.0414576751,
				"element": "H" 
			},
			{
				"x": 0.8903323782,
				"y": 0.2736918176,
				"z": -1.4591082033,
				"element": "H" 
			},
			{
				"x": -0.890902667,
				"y": 0.3585120332,
				"z": -1.3950550174,
				"element": "H" 
			},
			{
				"x": -0.9216856302,
				"y": -1.6322983577,
				"z": 0.150990487,
				"element": "H" 
			},
			{
				"x": 0.7159716079,
				"y": -1.983293697,
				"z": -0.4230891856,
				"element": "H" 
			},
			{
				"x": 0.1578084954,
				"y": -0.5899071992,
				"z": 2.1764731916,
				"element": "H" 
			},
			{
				"x": 1.6946028833,
				"y": -0.4535681513,
				"z": 1.2799424535,
				"element": "H" 
			}
		],
		 "valence_orbital": [ 
			{
				"type": "occ",
				"energy": -0.33873,
				"method": "rhf"
			},
			{
				"type": "occ",
				"energy": -0.3308,
				"method": "rhf"
			},
			{
				"type": "occ",
				"energy": -0.30878,
				"method": "rhf"
			},
			{
				"type": "occ",
				"energy": -0.28519,
				"method": "rhf"
			},
			{
				"type": "occ",
				"energy": -0.26411,
				"method": "rhf"
			},
			{
				"type": "unocc",
				"energy": 0.00893,
				"method": "rhf"
			},
			{
				"type": "unocc",
				"energy": 0.04324,
				"method": "rhf"
			},
			{
				"type": "unocc",
				"energy": 0.07658,
				"method": "rhf"
			},
			{
				"type": "unocc",
				"energy": 0.10881,
				"method": "rhf"
			},
			{
				"type": "unocc",
				"energy": 0.12919,
				"method": "rhf"
			}
		],
		"cosmo_sigma_profile": { 
			"-0.025": 0.0,
			"-0.024": 0.0,
			"-0.023": 0.0,
			"-0.022": 0.0,
			"-0.021": 0.0,
			"-0.02": 0.0,
			"-0.019": 0.0,
			"-0.018": 0.00682474870412,
			"-0.017": 0.617157550475,
			"-0.016": 0.842056084412,
			"-0.015": 1.05405805177,
			"-0.014": 1.14174592284,
			"-0.013": 1.80561869725,
			"-0.012": 0.958376826,
			"-0.011": 1.51425027526,
			"-0.01": 1.50021344994,
			"-0.009": 1.78038810338,
			"-0.008": 2.02684982546,
			"-0.007": 1.95863358545,
			"-0.006": 1.76442005305,
			"-0.005": 4.80437629033,
			"-0.004": 12.6911090568,
			"-0.003": 14.315965157,
			"-0.002": 18.6924945592,
			"-0.001": 15.3476979005,
			"0.0": 13.282984215,
			"0.001": 8.09207066899,
			"0.002": 2.91669950203,
			"0.003": 4.23475434622,
			"0.004": 3.88588816819,
			"0.005": 3.34351818119,
			"0.006": 3.81094271546,
			"0.007": 3.3217407048,
			"0.008": 3.07943147815,
			"0.009": 3.37073615371,
			"0.01": 4.62728823964,
			"0.011": 3.93064405678,
			"0.012": 5.38175165075,
			"0.013": 2.4044695076,
			"0.014": 0.201346122696,
			"0.015": 0.0,
			"0.016": 0.0,
			"0.017": 0.0,
			"0.018": 0.0,
			"0.019": 0.0,
			"0.02": 0.0,
			"0.021": 0.0,
			"0.022": 0.0,
			"0.023": 0.0,
			"0.024": 0.0,
			"0.025": 0.0
		}
	}
}
