{
	 "smiles": "IC1=CNN=C1", 
	 "Tm": 382.15, 
	 "num_atms": 9, 
	 "gaussian": { 
		 "optdone": 1, 
		 "sigma_profile": "no", 
		 "theory": "DFT", 
		 "functional": "B3LYP", 
		 "basiset": "6-31G**", 
		 "properties": { 
			 "R2extent": 998.9193, 
			 "electric_dipole_moment_norm": 2.46059765504, 
			 "electric_quadrupole_moment_norm": 11.9359727748, 
			 "total_energy": -236.983091276, 
			 "HOMO_LUMO_gap": 0.20278, 
			 "cosmo_polarized_energy": -100562.74, 
			 "cosmo_cavitation_energy": 16.43, 
			 "cosmo_dispersion_energy": -14.05, 
			 "cosmo_repulsion_energy": 1.17, 
			 "cosmo_total_nonelectrostatic_energy": 3.56, 
			 "SMD_solvation_energy": 1.66 
		},
		"coords": [
			{
				"x": 1.5071327713,
				"y": -1.9004015207,
				"z": 2.0813210821,
				"element": "I" 
			},
			{
				"x": 0.7811160161,
				"y": -1.6646623198,
				"z": 0.1424972191,
				"element": "C" 
			},
			{
				"x": 0.9270095879,
				"y": -2.548154016,
				"z": -0.9112353031,
				"element": "C" 
			},
			{
				"x": 0.292092107,
				"y": -1.9673855294,
				"z": -1.9604129064,
				"element": "N" 
			},
			{
				"x": -0.2553286768,
				"y": -0.7700698062,
				"z": -1.6630166514,
				"element": "N" 
			},
			{
				"x": 0.0396723916,
				"y": -0.5790128261,
				"z": -0.3795262843,
				"element": "C" 
			},
			{
				"x": 1.4172772241,
				"y": -3.5069261354,
				"z": -0.9819111037,
				"element": "H" 
			},
			{
				"x": 0.1952488516,
				"y": -2.3286210613,
				"z": -2.896896618,
				"element": "H" 
			},
			{
				"x": -0.2827202728,
				"y": 0.3187332148,
				"z": 0.1283805656,
				"element": "H" 
			}
		],
		 "valence_orbital": [ 
			{
				"type": "occ",
				"energy": -0.30907,
				"method": "rhf"
			},
			{
				"type": "occ",
				"energy": -0.30417,
				"method": "rhf"
			},
			{
				"type": "occ",
				"energy": -0.26903,
				"method": "rhf"
			},
			{
				"type": "occ",
				"energy": -0.26902,
				"method": "rhf"
			},
			{
				"type": "occ",
				"energy": -0.23666,
				"method": "rhf"
			},
			{
				"type": "unocc",
				"energy": -0.03388,
				"method": "rhf"
			},
			{
				"type": "unocc",
				"energy": 0.0051,
				"method": "rhf"
			},
			{
				"type": "unocc",
				"energy": 0.03853,
				"method": "rhf"
			},
			{
				"type": "unocc",
				"energy": 0.0428,
				"method": "rhf"
			},
			{
				"type": "unocc",
				"energy": 0.06054,
				"method": "rhf"
			}
		],
		"cosmo_sigma_profile": { 
			"0.0": 0.0,
			"0.0": 0.0,
			"0.0": 0.0,
			"0.0": 0.0,
			"0.0": 0.0,
			"0.0": 0.0,
			"0.0": 0.0,
			"0.0": 0.0,
			"0.0": 0.0,
			"0.0": 0.0,
			"0.0": 0.0,
			"0.0": 0.0,
			"0.0": 0.0,
			"0.0": 0.0,
			"0.0": 0.0,
			"0.0": 0.0,
			"0.0": 0.0,
			"0.0": 0.0,
			"0.0": 0.0,
			"0.0": 0.0,
			"0.0": 0.0,
			"0.0": 0.0,
			"0.0": 0.0,
			"0.0": 0.0,
			"0.0": 0.0,
			"0.0": 0.0,
			"0.0": 0.0,
			"0.0": 0.0,
			"0.0": 0.0,
			"0.0": 0.0,
			"0.0": 0.0,
			"0.0": 0.0,
			"0.0": 0.0,
			"0.0": 0.0,
			"0.0": 0.0,
			"0.0": 0.0,
			"0.0": 0.0,
			"0.0": 0.0,
			"0.0": 0.0,
			"0.0": 0.0,
			"0.0": 0.0,
			"0.0": 0.0,
			"0.0": 0.0,
			"0.0": 0.0,
			"0.0": 0.0,
			"0.0": 0.0,
			"0.0": 0.0,
			"0.0": 0.0,
			"0.0": 0.0,
			"0.0": 0.0,
			"0.0": 0.0
		}
	}
}
