{
	 "smiles": "[O-][N+](=O)C1=CC2=C(CCN2)C=C1", 
	 "Tm": 341.15, 
	 "num_atms": 20, 
	 "gaussian": { 
		 "optdone": 1, 
		 "sigma_profile": "yes", 
		 "theory": "DFT", 
		 "functional": "B3LYP", 
		 "basiset": "6-31G**", 
		 "properties": { 
			 "R2extent": 3110.1397, 
			 "electric_dipole_moment_norm": 6.2208749465, 
			 "electric_quadrupole_moment_norm": 18.1887548584, 
			 "total_energy": -569.525532982, 
			 "HOMO_LUMO_gap": 0.13575, 
			 "cosmo_polarized_energy": -11.12, 
			 "cosmo_cavitation_energy": 23.99, 
			 "cosmo_dispersion_energy": -18.18, 
			 "cosmo_repulsion_energy": 1.45, 
			 "cosmo_total_nonelectrostatic_energy": 7.26, 
			 "SMD_solvation_energy": 4.75 
		},
		"coords": [
			{
				"x": -1.8915433915,
				"y": -3.2985533667,
				"z": 3.4403000043,
				"element": "O" 
			},
			{
				"x": -1.11424273,
				"y": -2.3600545834,
				"z": 3.2641264911,
				"element": "N" 
			},
			{
				"x": -0.6056864263,
				"y": -1.6984317141,
				"z": 4.1704794514,
				"element": "O" 
			},
			{
				"x": -0.7679536404,
				"y": -2.002754261,
				"z": 1.8790617946,
				"element": "C" 
			},
			{
				"x": 0.1197683517,
				"y": -0.941049651,
				"z": 1.6768516228,
				"element": "C" 
			},
			{
				"x": 0.4224414983,
				"y": -0.6182516424,
				"z": 0.3568866747,
				"element": "C" 
			},
			{
				"x": -0.1488814738,
				"y": -1.3342082736,
				"z": -0.7158895381,
				"element": "C" 
			},
			{
				"x": 0.4048839817,
				"y": -0.7677768885,
				"z": -2.005388612,
				"element": "C" 
			},
			{
				"x": 0.9926712112,
				"y": 0.589087419,
				"z": -1.5444694791,
				"element": "C" 
			},
			{
				"x": 1.2941736585,
				"y": 0.3597606369,
				"z": -0.1190370979,
				"element": "N" 
			},
			{
				"x": -1.0209198132,
				"y": -2.3861176929,
				"z": -0.4777139148,
				"element": "C" 
			},
			{
				"x": -1.3445438982,
				"y": -2.7307064696,
				"z": 0.8405152792,
				"element": "C" 
			},
			{
				"x": 0.5327479213,
				"y": -0.4126685311,
				"z": 2.5266167213,
				"element": "H" 
			},
			{
				"x": 1.1986280153,
				"y": -1.4202554471,
				"z": -2.3928657293,
				"element": "H" 
			},
			{
				"x": -0.3412004698,
				"y": -0.6528785372,
				"z": -2.7963336403,
				"element": "H" 
			},
			{
				"x": 0.2465768032,
				"y": 1.3885426516,
				"z": -1.6728146219,
				"element": "H" 
			},
			{
				"x": 1.8942834431,
				"y": 0.8710881236,
				"z": -2.0946394491,
				"element": "H" 
			},
			{
				"x": 1.4261715433,
				"y": 1.1806687477,
				"z": 0.4571925032,
				"element": "H" 
			},
			{
				"x": -1.4615042251,
				"y": -2.9376343921,
				"z": -1.3033502173,
				"element": "H" 
			},
			{
				"x": -2.0267703594,
				"y": -3.537806128,
				"z": 1.0714717571,
				"element": "H" 
			}
		],
		 "valence_orbital": [ 
			{
				"type": "occ",
				"energy": -0.29927,
				"method": "rhf"
			},
			{
				"type": "occ",
				"energy": -0.29753,
				"method": "rhf"
			},
			{
				"type": "occ",
				"energy": -0.28017,
				"method": "rhf"
			},
			{
				"type": "occ",
				"energy": -0.26742,
				"method": "rhf"
			},
			{
				"type": "occ",
				"energy": -0.21441,
				"method": "rhf"
			},
			{
				"type": "unocc",
				"energy": -0.07866,
				"method": "rhf"
			},
			{
				"type": "unocc",
				"energy": -0.01006,
				"method": "rhf"
			},
			{
				"type": "unocc",
				"energy": 0.01615,
				"method": "rhf"
			},
			{
				"type": "unocc",
				"energy": 0.07407,
				"method": "rhf"
			},
			{
				"type": "unocc",
				"energy": 0.09557,
				"method": "rhf"
			}
		],
		"cosmo_sigma_profile": { 
			"-0.025": 0.0,
			"-0.024": 0.0,
			"-0.023": 0.0,
			"-0.022": 0.0,
			"-0.021": 0.0,
			"-0.02": 0.0,
			"-0.019": 0.0,
			"-0.018": 0.0,
			"-0.017": 0.0,
			"-0.016": 0.0,
			"-0.015": 0.0,
			"-0.014": 0.0688345061883,
			"-0.013": 1.14526265959,
			"-0.012": 1.49126588524,
			"-0.011": 1.24689552987,
			"-0.01": 1.54340084417,
			"-0.009": 1.29416433683,
			"-0.008": 1.90021034752,
			"-0.007": 3.45032620787,
			"-0.006": 6.0571548226,
			"-0.005": 13.7024721235,
			"-0.004": 19.1034417611,
			"-0.003": 18.7442430473,
			"-0.002": 18.0403273574,
			"-0.001": 11.1176823924,
			"0.0": 10.7484164168,
			"0.001": 11.2731018534,
			"0.002": 12.3759991669,
			"0.003": 14.2933005129,
			"0.004": 6.50043752742,
			"0.005": 3.58462625885,
			"0.006": 4.22465327608,
			"0.007": 5.21267560396,
			"0.008": 11.4329908358,
			"0.009": 5.58174399499,
			"0.01": 4.41856767773,
			"0.011": 1.75541462574,
			"0.012": 0.525830825422,
			"0.013": 0.119726801377,
			"0.014": 0.0,
			"0.015": 0.0,
			"0.016": 0.0,
			"0.017": 0.0,
			"0.018": 0.0,
			"0.019": 0.0,
			"0.02": 0.0,
			"0.021": 0.0,
			"0.022": 0.0,
			"0.023": 0.0,
			"0.024": 0.0,
			"0.025": 0.0
		}
	}
}
