{
	 "smiles": "ClC1=C(SCC2=CC=CC=C2)C=NN(C1=O)C1=CC=CC=C1", 
	 "Tm": 412.15, 
	 "num_atms": 35, 
	 "gaussian": { 
		 "optdone": 1, 
		 "sigma_profile": "yes", 
		 "theory": "DFT", 
		 "functional": "B3LYP", 
		 "basiset": "6-31G**", 
		 "properties": { 
			 "R2extent": 9597.647, 
			 "electric_dipole_moment_norm": 5.25209572076, 
			 "electric_quadrupole_moment_norm": 13.6079976146, 
			 "total_energy": -1698.7176597, 
			 "HOMO_LUMO_gap": 0.15551, 
			 "cosmo_polarized_energy": -14.91, 
			 "cosmo_cavitation_energy": 42.56, 
			 "cosmo_dispersion_energy": -30.9, 
			 "cosmo_repulsion_energy": 2.31, 
			 "cosmo_total_nonelectrostatic_energy": 13.98, 
			 "SMD_solvation_energy": 6.6 
		},
		"coords": [
			{
				"x": -2.518480794,
				"y": 1.9453381632,
				"z": -1.9806885093,
				"element": "Cl" 
			},
			{
				"x": -1.6770743569,
				"y": 0.692075292,
				"z": -1.129439687,
				"element": "C" 
			},
			{
				"x": -1.2984173508,
				"y": 0.8381063912,
				"z": 0.1812672178,
				"element": "C" 
			},
			{
				"x": -1.6708423065,
				"y": 2.3336752749,
				"z": 1.0497383756,
				"element": "S" 
			},
			{
				"x": -1.074188061,
				"y": 2.0424420477,
				"z": 2.7700107003,
				"element": "C" 
			},
			{
				"x": 0.4226768289,
				"y": 2.039249492,
				"z": 3.0060500312,
				"element": "C" 
			},
			{
				"x": 1.2671151813,
				"y": 2.9838962852,
				"z": 2.407872063,
				"element": "C" 
			},
			{
				"x": 2.6323825876,
				"y": 2.9912228531,
				"z": 2.6901211304,
				"element": "C" 
			},
			{
				"x": 3.1753442215,
				"y": 2.0551895457,
				"z": 3.5739130729,
				"element": "C" 
			},
			{
				"x": 2.3429992722,
				"y": 1.1111834527,
				"z": 4.1747394728,
				"element": "C" 
			},
			{
				"x": 0.9756197889,
				"y": 1.1044617718,
				"z": 3.8912435299,
				"element": "C" 
			},
			{
				"x": -0.6138667292,
				"y": -0.2773353171,
				"z": 0.7685260126,
				"element": "C" 
			},
			{
				"x": -0.3495325503,
				"y": -1.3854995335,
				"z": 0.1377499281,
				"element": "N" 
			},
			{
				"x": -0.728102741,
				"y": -1.5182588611,
				"z": -1.1467584396,
				"element": "N" 
			},
			{
				"x": -1.4182759556,
				"y": -0.5244012176,
				"z": -1.8960053093,
				"element": "C" 
			},
			{
				"x": -1.7534903294,
				"y": -0.6994520193,
				"z": -3.0579401605,
				"element": "O" 
			},
			{
				"x": -0.4352716099,
				"y": -2.8080673082,
				"z": -1.7215925057,
				"element": "C" 
			},
			{
				"x": -0.0175180001,
				"y": -2.9316549863,
				"z": -3.0508404707,
				"element": "C" 
			},
			{
				"x": 0.2852741584,
				"y": -4.1967081642,
				"z": -3.5542030893,
				"element": "C" 
			},
			{
				"x": 0.1763848994,
				"y": -5.3305882852,
				"z": -2.7481477209,
				"element": "C" 
			},
			{
				"x": -0.2391716941,
				"y": -5.1960781298,
				"z": -1.4221525866,
				"element": "C" 
			},
			{
				"x": -0.5475437553,
				"y": -3.9392810687,
				"z": -0.9063262673,
				"element": "C" 
			},
			{
				"x": -1.5393144166,
				"y": 1.1349189124,
				"z": 3.1640651134,
				"element": "H" 
			},
			{
				"x": -1.5421943615,
				"y": 2.8829634972,
				"z": 3.2957992875,
				"element": "H" 
			},
			{
				"x": 0.8540410834,
				"y": 3.7074292678,
				"z": 1.711105361,
				"element": "H" 
			},
			{
				"x": 3.2745329219,
				"y": 3.7282964023,
				"z": 2.216709796,
				"element": "H" 
			},
			{
				"x": 4.2398164714,
				"y": 2.060675184,
				"z": 3.7887993539,
				"element": "H" 
			},
			{
				"x": 2.7545968514,
				"y": 0.3766484902,
				"z": 4.8607706871,
				"element": "H" 
			},
			{
				"x": 0.3316641124,
				"y": 0.3679987945,
				"z": 4.3670189321,
				"element": "H" 
			},
			{
				"x": -0.2492037261,
				"y": -0.2396452362,
				"z": 1.7865324376,
				"element": "H" 
			},
			{
				"x": 0.0565234375,
				"y": -2.0569749238,
				"z": -3.6812245394,
				"element": "H" 
			},
			{
				"x": 0.6101711833,
				"y": -4.2907339025,
				"z": -4.5860865255,
				"element": "H" 
			},
			{
				"x": 0.411814262,
				"y": -6.3115351767,
				"z": -3.1501624819,
				"element": "H" 
			},
			{
				"x": -0.3297024448,
				"y": -6.071162588,
				"z": -0.785440178,
				"element": "H" 
			},
			{
				"x": -0.8648660783,
				"y": -3.8229943996,
				"z": 0.122975968,
				"element": "H" 
			}
		],
		 "valence_orbital": [ 
			{
				"type": "occ",
				"energy": -0.25907,
				"method": "rhf"
			},
			{
				"type": "occ",
				"energy": -0.25853,
				"method": "rhf"
			},
			{
				"type": "occ",
				"energy": -0.25063,
				"method": "rhf"
			},
			{
				"type": "occ",
				"energy": -0.23806,
				"method": "rhf"
			},
			{
				"type": "occ",
				"energy": -0.22647,
				"method": "rhf"
			},
			{
				"type": "unocc",
				"energy": -0.07096,
				"method": "rhf"
			},
			{
				"type": "unocc",
				"energy": -0.02374,
				"method": "rhf"
			},
			{
				"type": "unocc",
				"energy": -0.01686,
				"method": "rhf"
			},
			{
				"type": "unocc",
				"energy": -0.00999,
				"method": "rhf"
			},
			{
				"type": "unocc",
				"energy": -0.00215,
				"method": "rhf"
			}
		],
		"cosmo_sigma_profile": { 
			"-0.025": 0.0,
			"-0.024": 0.0,
			"-0.023": 0.0,
			"-0.022": 0.0,
			"-0.021": 0.0,
			"-0.02": 0.0,
			"-0.019": 0.0,
			"-0.018": 0.0,
			"-0.017": 0.0,
			"-0.016": 0.0,
			"-0.015": 0.0,
			"-0.014": 0.0,
			"-0.013": 0.0,
			"-0.012": 0.0,
			"-0.011": 0.0010064211029,
			"-0.01": 0.447280584232,
			"-0.009": 2.07283443397,
			"-0.008": 5.59754689173,
			"-0.007": 6.96372221088,
			"-0.006": 18.5489489546,
			"-0.005": 27.1020927978,
			"-0.004": 31.9278256504,
			"-0.003": 25.7503143017,
			"-0.002": 23.1829630359,
			"-0.001": 26.1768657952,
			"0.0": 23.2441048645,
			"0.001": 21.6349848105,
			"0.002": 25.2313362373,
			"0.003": 27.9742498493,
			"0.004": 31.5652735366,
			"0.005": 21.2433677776,
			"0.006": 6.26980857723,
			"0.007": 3.83121315113,
			"0.008": 2.42432932488,
			"0.009": 2.69291654775,
			"0.01": 2.96135082859,
			"0.011": 2.3679314924,
			"0.012": 3.97000197233,
			"0.013": 2.89274617447,
			"0.014": 0.318679969816,
			"0.015": 0.0,
			"0.016": 0.0,
			"0.017": 0.0,
			"0.018": 0.0,
			"0.019": 0.0,
			"0.02": 0.0,
			"0.021": 0.0,
			"0.022": 0.0,
			"0.023": 0.0,
			"0.024": 0.0,
			"0.025": 0.0
		}
	}
}
