{
	 "smiles": "COC(=O)C1=CC(N)=C(F)C=C1", 
	 "Tm": 341.15, 
	 "num_atms": 20, 
	 "gaussian": { 
		 "optdone": 1, 
		 "sigma_profile": "yes", 
		 "theory": "DFT", 
		 "functional": "B3LYP", 
		 "basiset": "6-31G**", 
		 "properties": { 
			 "R2extent": 2488.8819, 
			 "electric_dipole_moment_norm": 3.01835925463, 
			 "electric_quadrupole_moment_norm": 8.06719616596, 
			 "total_energy": -614.720455658, 
			 "HOMO_LUMO_gap": 0.17463, 
			 "cosmo_polarized_energy": -10.83, 
			 "cosmo_cavitation_energy": 25.06, 
			 "cosmo_dispersion_energy": -18.45, 
			 "cosmo_repulsion_energy": 1.46, 
			 "cosmo_total_nonelectrostatic_energy": 8.07, 
			 "SMD_solvation_energy": 6.32 
		},
		"coords": [
			{
				"x": -1.4614209556,
				"y": 3.2612103893,
				"z": 1.8685921065,
				"element": "C" 
			},
			{
				"x": -1.1134593627,
				"y": 2.2403115336,
				"z": 0.9222828762,
				"element": "O" 
			},
			{
				"x": -0.2773234995,
				"y": 1.282481009,
				"z": 1.3916122938,
				"element": "C" 
			},
			{
				"x": 0.1478053602,
				"y": 1.2803213822,
				"z": 2.530965308,
				"element": "O" 
			},
			{
				"x": 0.0498685374,
				"y": 0.2549304685,
				"z": 0.3651329213,
				"element": "C" 
			},
			{
				"x": -0.4706795538,
				"y": 0.3173159179,
				"z": -0.9349624013,
				"element": "C" 
			},
			{
				"x": -0.1492340604,
				"y": -0.6615595181,
				"z": -1.8823704113,
				"element": "C" 
			},
			{
				"x": -0.5893556373,
				"y": -0.6178106266,
				"z": -3.2011672247,
				"element": "N" 
			},
			{
				"x": 0.7069358416,
				"y": -1.6945409188,
				"z": -1.4665573864,
				"element": "C" 
			},
			{
				"x": 1.0038435891,
				"y": -2.6534441087,
				"z": -2.3798184791,
				"element": "F" 
			},
			{
				"x": 1.2328872621,
				"y": -1.774053534,
				"z": -0.188226628,
				"element": "C" 
			},
			{
				"x": 0.9045227053,
				"y": -0.7888163,
				"z": 0.7411681562,
				"element": "C" 
			},
			{
				"x": -0.5683461953,
				"y": 3.7889686202,
				"z": 2.2128043735,
				"element": "H" 
			},
			{
				"x": -1.9676538841,
				"y": 2.828160231,
				"z": 2.735131808,
				"element": "H" 
			},
			{
				"x": -2.1268955457,
				"y": 3.9416153043,
				"z": 1.3369568416,
				"element": "H" 
			},
			{
				"x": -1.1263503073,
				"y": 1.1356645594,
				"z": -1.2113839809,
				"element": "H" 
			},
			{
				"x": -1.4622610422,
				"y": -0.1323433935,
				"z": -3.3504885434,
				"element": "H" 
			},
			{
				"x": -0.5399686091,
				"y": -1.5017882007,
				"z": -3.6878659617,
				"element": "H" 
			},
			{
				"x": 1.8854391922,
				"y": -2.6037779028,
				"z": 0.0613979002,
				"element": "H" 
			},
			{
				"x": 1.2940461651,
				"y": -0.8137449121,
				"z": 1.7517964315,
				"element": "H" 
			}
		],
		 "valence_orbital": [ 
			{
				"type": "occ",
				"energy": -0.31813,
				"method": "rhf"
			},
			{
				"type": "occ",
				"energy": -0.29851,
				"method": "rhf"
			},
			{
				"type": "occ",
				"energy": -0.2705,
				"method": "rhf"
			},
			{
				"type": "occ",
				"energy": -0.25376,
				"method": "rhf"
			},
			{
				"type": "occ",
				"energy": -0.21284,
				"method": "rhf"
			},
			{
				"type": "unocc",
				"energy": -0.03821,
				"method": "rhf"
			},
			{
				"type": "unocc",
				"energy": 0.00016,
				"method": "rhf"
			},
			{
				"type": "unocc",
				"energy": 0.06741,
				"method": "rhf"
			},
			{
				"type": "unocc",
				"energy": 0.07729,
				"method": "rhf"
			},
			{
				"type": "unocc",
				"energy": 0.09678,
				"method": "rhf"
			}
		],
		"cosmo_sigma_profile": { 
			"-0.025": 0.0,
			"-0.024": 0.0,
			"-0.023": 0.0,
			"-0.022": 0.0,
			"-0.021": 0.0,
			"-0.02": 0.0,
			"-0.019": 0.0,
			"-0.018": 0.0,
			"-0.017": 0.0,
			"-0.016": 0.0,
			"-0.015": 0.0,
			"-0.014": 0.0895711708946,
			"-0.013": 1.22227743435,
			"-0.012": 2.24742283951,
			"-0.011": 2.43904476498,
			"-0.01": 2.72929033273,
			"-0.009": 2.4716720249,
			"-0.008": 3.07423586579,
			"-0.007": 5.42740129125,
			"-0.006": 8.33758295173,
			"-0.005": 12.543231118,
			"-0.004": 13.2345265282,
			"-0.003": 13.8138871074,
			"-0.002": 11.2194793759,
			"-0.001": 10.2449429733,
			"0.0": 12.5017531404,
			"0.001": 16.3830288182,
			"0.002": 16.9029031359,
			"0.003": 20.1206099719,
			"0.004": 16.3540448487,
			"0.005": 5.52154205433,
			"0.006": 4.03273996428,
			"0.007": 2.38663876843,
			"0.008": 2.04930885929,
			"0.009": 2.39903195598,
			"0.01": 2.32746509841,
			"0.011": 3.12502251582,
			"0.012": 5.37407432153,
			"0.013": 1.02848971229,
			"0.014": 0.251861908431,
			"0.015": 0.0,
			"0.016": 0.0,
			"0.017": 0.0,
			"0.018": 0.0,
			"0.019": 0.0,
			"0.02": 0.0,
			"0.021": 0.0,
			"0.022": 0.0,
			"0.023": 0.0,
			"0.024": 0.0,
			"0.025": 0.0
		}
	}
}
