{
	 "smiles": "CCOC(=O)C(Cl)=C/C1=C(Cl)C=CC(=C1)N1C(=O)C2=C(CCCC2)C1=O", 
	 "Tm": 385.15, 
	 "num_atms": 43, 
	 "gaussian": { 
		 "optdone": 1, 
		 "sigma_profile": "yes", 
		 "theory": "DFT", 
		 "functional": "B3LYP", 
		 "basiset": "6-31G**", 
		 "properties": { 
			 "R2extent": 15174.4198, 
			 "electric_dipole_moment_norm": 4.51647816446, 
			 "electric_quadrupole_moment_norm": 27.696984038, 
			 "total_energy": -2010.31468173, 
			 "HOMO_LUMO_gap": 0.13675, 
			 "cosmo_polarized_energy": -15.63, 
			 "cosmo_cavitation_energy": 50.66, 
			 "cosmo_dispersion_energy": -35.32, 
			 "cosmo_repulsion_energy": 2.73, 
			 "cosmo_total_nonelectrostatic_energy": 18.07, 
			 "SMD_solvation_energy": 9.46 
		},
		"coords": [
			{
				"x": 3.5281367093,
				"y": -1.5683980427,
				"z": 4.2618312238,
				"element": "C" 
			},
			{
				"x": 2.6228962484,
				"y": -2.7419834879,
				"z": 3.9202289667,
				"element": "C" 
			},
			{
				"x": 1.229337191,
				"y": -2.3422244935,
				"z": 3.9010313779,
				"element": "O" 
			},
			{
				"x": 0.7781112531,
				"y": -1.8166310047,
				"z": 2.752821362,
				"element": "C" 
			},
			{
				"x": 1.4490181362,
				"y": -1.6592708533,
				"z": 1.7531489473,
				"element": "O" 
			},
			{
				"x": -0.668911439,
				"y": -1.4294756869,
				"z": 2.8268663725,
				"element": "C" 
			},
			{
				"x": -1.3950390259,
				"y": -1.3480579065,
				"z": 4.4268055098,
				"element": "Cl" 
			},
			{
				"x": -1.4207305842,
				"y": -1.1109408579,
				"z": 1.761380051,
				"element": "C" 
			},
			{
				"x": -1.0365551706,
				"y": -1.1183695677,
				"z": 0.3283456822,
				"element": "C" 
			},
			{
				"x": -0.7365677608,
				"y": -2.2765573088,
				"z": -0.4057792563,
				"element": "C" 
			},
			{
				"x": -0.7443739176,
				"y": -3.8607264874,
				"z": 0.3512363587,
				"element": "Cl" 
			},
			{
				"x": -0.4532395507,
				"y": -2.2049959889,
				"z": -1.7679196204,
				"element": "C" 
			},
			{
				"x": -0.4763635003,
				"y": -0.9825035254,
				"z": -2.4314896814,
				"element": "C" 
			},
			{
				"x": -0.7842423296,
				"y": 0.1836575392,
				"z": -1.7208407273,
				"element": "C" 
			},
			{
				"x": -1.0666280088,
				"y": 0.1055884761,
				"z": -0.3541747801,
				"element": "C" 
			},
			{
				"x": -0.8175830151,
				"y": 1.442058925,
				"z": -2.3844073776,
				"element": "N" 
			},
			{
				"x": -1.696999515,
				"y": 2.5102276244,
				"z": -2.0775950361,
				"element": "C" 
			},
			{
				"x": -2.5496415347,
				"y": 2.5113475832,
				"z": -1.2133287909,
				"element": "O" 
			},
			{
				"x": -1.3666800945,
				"y": 3.6171069712,
				"z": -3.0258937976,
				"element": "C" 
			},
			{
				"x": -0.364926932,
				"y": 3.2207651176,
				"z": -3.8254085907,
				"element": "C" 
			},
			{
				"x": 0.2573457056,
				"y": 4.0509379523,
				"z": -4.9008438394,
				"element": "C" 
			},
			{
				"x": -0.1691069985,
				"y": 5.5242584111,
				"z": -4.7332949835,
				"element": "C" 
			},
			{
				"x": -1.6689644728,
				"y": 5.6599736551,
				"z": -4.4056094827,
				"element": "C" 
			},
			{
				"x": -2.0415466031,
				"y": 4.9489003521,
				"z": -3.0880042491,
				"element": "C" 
			},
			{
				"x": 0.0248564407,
				"y": 1.8251511725,
				"z": -3.4588465001,
				"element": "C" 
			},
			{
				"x": 0.8887644622,
				"y": 1.1435826178,
				"z": -3.9704656524,
				"element": "O" 
			},
			{
				"x": 4.5633995297,
				"y": -1.9146951584,
				"z": 4.3483850641,
				"element": "H" 
			},
			{
				"x": 3.4860321385,
				"y": -0.8083301719,
				"z": 3.4780094732,
				"element": "H" 
			},
			{
				"x": 3.2358963453,
				"y": -1.115410882,
				"z": 5.2135318213,
				"element": "H" 
			},
			{
				"x": 2.6650830082,
				"y": -3.5192718743,
				"z": 4.686175197,
				"element": "H" 
			},
			{
				"x": 2.8779106408,
				"y": -3.1710510937,
				"z": 2.9485158191,
				"element": "H" 
			},
			{
				"x": -2.4374063192,
				"y": -0.7804457515,
				"z": 1.9651366849,
				"element": "H" 
			},
			{
				"x": -0.2233018981,
				"y": -3.1137727858,
				"z": -2.312330534,
				"element": "H" 
			},
			{
				"x": -0.2478762963,
				"y": -0.9354416496,
				"z": -3.4875995779,
				"element": "H" 
			},
			{
				"x": -1.3197439808,
				"y": 1.003713244,
				"z": 0.1934353606,
				"element": "H" 
			},
			{
				"x": 1.3478971687,
				"y": 3.9438882917,
				"z": -4.877120741,
				"element": "H" 
			},
			{
				"x": -0.0554311264,
				"y": 3.664712672,
				"z": -5.881472739,
				"element": "H" 
			},
			{
				"x": 0.0696442361,
				"y": 6.0847335273,
				"z": -5.6429509661,
				"element": "H" 
			},
			{
				"x": 0.4178310151,
				"y": 5.9754665863,
				"z": -3.9227835407,
				"element": "H" 
			},
			{
				"x": -2.2563462873,
				"y": 5.2245521186,
				"z": -5.2244261222,
				"element": "H" 
			},
			{
				"x": -1.9473987887,
				"y": 6.7171945542,
				"z": -4.3476097072,
				"element": "H" 
			},
			{
				"x": -3.1264876475,
				"y": 4.8274550893,
				"z": -2.9905741103,
				"element": "H" 
			},
			{
				"x": -1.733267431,
				"y": 5.5504820975,
				"z": -2.2210148676,
				"element": "H" 
			}
		],
		 "valence_orbital": [ 
			{
				"type": "occ",
				"energy": -0.27993,
				"method": "rhf"
			},
			{
				"type": "occ",
				"energy": -0.27189,
				"method": "rhf"
			},
			{
				"type": "occ",
				"energy": -0.26705,
				"method": "rhf"
			},
			{
				"type": "occ",
				"energy": -0.2497,
				"method": "rhf"
			},
			{
				"type": "occ",
				"energy": -0.22881,
				"method": "rhf"
			},
			{
				"type": "unocc",
				"energy": -0.09206,
				"method": "rhf"
			},
			{
				"type": "unocc",
				"energy": -0.06033,
				"method": "rhf"
			},
			{
				"type": "unocc",
				"energy": -0.01905,
				"method": "rhf"
			},
			{
				"type": "unocc",
				"energy": -0.01015,
				"method": "rhf"
			},
			{
				"type": "unocc",
				"energy": 0.02434,
				"method": "rhf"
			}
		],
		"cosmo_sigma_profile": { 
			"-0.025": 0.0,
			"-0.024": 0.0,
			"-0.023": 0.0,
			"-0.022": 0.0,
			"-0.021": 0.0,
			"-0.02": 0.0,
			"-0.019": 0.0,
			"-0.018": 0.0,
			"-0.017": 0.0,
			"-0.016": 0.0,
			"-0.015": 0.0,
			"-0.014": 0.0,
			"-0.013": 0.0,
			"-0.012": 0.0,
			"-0.011": 0.0,
			"-0.01": 0.0735484278803,
			"-0.009": 1.24961119558,
			"-0.008": 2.84234632013,
			"-0.007": 5.60686388987,
			"-0.006": 9.91103529243,
			"-0.005": 26.2604166373,
			"-0.004": 38.8502811216,
			"-0.003": 49.8541539947,
			"-0.002": 46.7983415227,
			"-0.001": 39.6234589158,
			"0.0": 34.1202875712,
			"0.001": 24.8568271984,
			"0.002": 21.2254479047,
			"0.003": 23.1146547166,
			"0.004": 22.7729487684,
			"0.005": 11.0451316458,
			"0.006": 7.90073471542,
			"0.007": 7.49672045227,
			"0.008": 7.33386342535,
			"0.009": 7.1659731879,
			"0.01": 9.59645978114,
			"0.011": 8.54811902144,
			"0.012": 0.814220514244,
			"0.013": 0.0,
			"0.014": 0.0,
			"0.015": 0.0,
			"0.016": 0.0,
			"0.017": 0.0,
			"0.018": 0.0,
			"0.019": 0.0,
			"0.02": 0.0,
			"0.021": 0.0,
			"0.022": 0.0,
			"0.023": 0.0,
			"0.024": 0.0,
			"0.025": 0.0
		}
	}
}
