{
	 "smiles": "N#CC1=C(NCC2=CC=CO2)C=CC=C1", 
	 "Tm": 334.15, 
	 "num_atms": 25, 
	 "gaussian": { 
		 "optdone": 1, 
		 "sigma_profile": "yes", 
		 "theory": "DFT", 
		 "functional": "B3LYP", 
		 "basiset": "6-31G**", 
		 "properties": { 
			 "R2extent": 4072.3368, 
			 "electric_dipole_moment_norm": 3.71909303594, 
			 "electric_quadrupole_moment_norm": 16.7483269263, 
			 "total_energy": -647.987815573, 
			 "HOMO_LUMO_gap": 0.17369, 
			 "cosmo_polarized_energy": -11.41, 
			 "cosmo_cavitation_energy": 30.45, 
			 "cosmo_dispersion_energy": -21.22, 
			 "cosmo_repulsion_energy": 1.67, 
			 "cosmo_total_nonelectrostatic_energy": 10.9, 
			 "SMD_solvation_energy": 6.76 
		},
		"coords": [
			{
				"x": 2.8467251648,
				"y": 2.9135787868,
				"z": 3.1680441883,
				"element": "N" 
			},
			{
				"x": 2.8386943515,
				"y": 2.4178024372,
				"z": 2.1130402317,
				"element": "C" 
			},
			{
				"x": 2.7463856978,
				"y": 1.8113957677,
				"z": 0.8236223382,
				"element": "C" 
			},
			{
				"x": 1.4559531539,
				"y": 1.4969157585,
				"z": 0.3068979069,
				"element": "C" 
			},
			{
				"x": 0.3349908766,
				"y": 1.7675000408,
				"z": 1.0549010546,
				"element": "N" 
			},
			{
				"x": -1.0212071363,
				"y": 1.6974021956,
				"z": 0.5511149597,
				"element": "C" 
			},
			{
				"x": -1.5836037776,
				"y": 0.3039422656,
				"z": 0.558176617,
				"element": "C" 
			},
			{
				"x": -1.218990012,
				"y": -0.862593596,
				"z": 1.1606425998,
				"element": "C" 
			},
			{
				"x": -2.211196829,
				"y": -1.8333182472,
				"z": 0.7922152039,
				"element": "C" 
			},
			{
				"x": -3.1021842673,
				"y": -1.1837782368,
				"z": -0.0030989237,
				"element": "C" 
			},
			{
				"x": -2.733689868,
				"y": 0.1238119696,
				"z": -0.1596388791,
				"element": "O" 
			},
			{
				"x": 1.3888304649,
				"y": 0.9044976773,
				"z": -0.9701991103,
				"element": "C" 
			},
			{
				"x": 2.5485034044,
				"y": 0.6491348436,
				"z": -1.693651923,
				"element": "C" 
			},
			{
				"x": 3.8136136127,
				"y": 0.9619061932,
				"z": -1.1827353638,
				"element": "C" 
			},
			{
				"x": 3.9042065673,
				"y": 1.5397956665,
				"z": 0.0766616004,
				"element": "C" 
			},
			{
				"x": 0.4794297328,
				"y": 2.2550866366,
				"z": 1.9265307578,
				"element": "H" 
			},
			{
				"x": -1.0833313597,
				"y": 2.1076544401,
				"z": -0.4673558957,
				"element": "H" 
			},
			{
				"x": -1.639144184,
				"y": 2.3526728891,
				"z": 1.1770939824,
				"element": "H" 
			},
			{
				"x": -0.3509391535,
				"y": -1.0118795744,
				"z": 1.7852060858,
				"element": "H" 
			},
			{
				"x": -2.2470334268,
				"y": -2.8734974082,
				"z": 1.0825498285,
				"element": "H" 
			},
			{
				"x": -4.0021392413,
				"y": -1.4824202337,
				"z": -0.5176451773,
				"element": "H" 
			},
			{
				"x": 0.426539649,
				"y": 0.6255029838,
				"z": -1.3824267599,
				"element": "H" 
			},
			{
				"x": 2.4619359849,
				"y": 0.1905700049,
				"z": -2.6747157516,
				"element": "H" 
			},
			{
				"x": 4.7097948635,
				"y": 0.7543714876,
				"z": -1.7571518435,
				"element": "H" 
			},
			{
				"x": 4.8688557316,
				"y": 1.7949452518,
				"z": 0.5033222731,
				"element": "H" 
			}
		],
		 "valence_orbital": [ 
			{
				"type": "occ",
				"energy": -0.31787,
				"method": "rhf"
			},
			{
				"type": "occ",
				"energy": -0.28048,
				"method": "rhf"
			},
			{
				"type": "occ",
				"energy": -0.2607,
				"method": "rhf"
			},
			{
				"type": "occ",
				"energy": -0.22599,
				"method": "rhf"
			},
			{
				"type": "occ",
				"energy": -0.2151,
				"method": "rhf"
			},
			{
				"type": "unocc",
				"energy": -0.04141,
				"method": "rhf"
			},
			{
				"type": "unocc",
				"energy": -3e-05,
				"method": "rhf"
			},
			{
				"type": "unocc",
				"energy": 0.00809,
				"method": "rhf"
			},
			{
				"type": "unocc",
				"energy": 0.03244,
				"method": "rhf"
			},
			{
				"type": "unocc",
				"energy": 0.06521,
				"method": "rhf"
			}
		],
		"cosmo_sigma_profile": { 
			"-0.025": 0.0,
			"-0.024": 0.0,
			"-0.023": 0.0,
			"-0.022": 0.0,
			"-0.021": 0.0,
			"-0.02": 0.0,
			"-0.019": 0.0,
			"-0.018": 0.0,
			"-0.017": 0.0,
			"-0.016": 0.0,
			"-0.015": 0.0,
			"-0.014": 0.0737048448457,
			"-0.013": 0.656385177926,
			"-0.012": 1.01320519142,
			"-0.011": 0.895946143041,
			"-0.01": 0.947343075786,
			"-0.009": 1.74815824927,
			"-0.008": 4.21050965048,
			"-0.007": 9.25259723327,
			"-0.006": 17.7348713572,
			"-0.005": 18.3530050088,
			"-0.004": 16.8950658951,
			"-0.003": 14.3846586037,
			"-0.002": 14.2568225026,
			"-0.001": 14.9821027091,
			"0.0": 17.0296062368,
			"0.001": 16.5270752614,
			"0.002": 15.8390392888,
			"0.003": 19.1530040899,
			"0.004": 18.4467036572,
			"0.005": 13.1264937572,
			"0.006": 7.09232339345,
			"0.007": 4.18347146046,
			"0.008": 4.369933314,
			"0.009": 3.21282295148,
			"0.01": 3.44785397164,
			"0.011": 2.44133539355,
			"0.012": 2.77173084826,
			"0.013": 2.07780295471,
			"0.014": 0.202324755662,
			"0.015": 0.0,
			"0.016": 0.0,
			"0.017": 0.0,
			"0.018": 0.0,
			"0.019": 0.0,
			"0.02": 0.0,
			"0.021": 0.0,
			"0.022": 0.0,
			"0.023": 0.0,
			"0.024": 0.0,
			"0.025": 0.0
		}
	}
}
