{
	 "smiles": "CC(C)C1CCC(C)CC1OC(=O)CCl", 
	 "Tm": 338.65, 
	 "num_atms": 36, 
	 "gaussian": { 
		 "optdone": 1, 
		 "sigma_profile": "yes", 
		 "theory": "DFT", 
		 "functional": "B3LYP", 
		 "basiset": "6-31G**", 
		 "properties": { 
			 "R2extent": 5271.2981, 
			 "electric_dipole_moment_norm": 1.65593767395, 
			 "electric_quadrupole_moment_norm": 8.74618708124, 
			 "total_energy": -1080.6088943, 
			 "HOMO_LUMO_gap": 0.26658, 
			 "cosmo_polarized_energy": -7.81, 
			 "cosmo_cavitation_energy": 36.62, 
			 "cosmo_dispersion_energy": -24.95, 
			 "cosmo_repulsion_energy": 1.96, 
			 "cosmo_total_nonelectrostatic_energy": 13.62, 
			 "SMD_solvation_energy": 6.4 
		},
		"coords": [
			{
				"x": 1.3447463857,
				"y": 2.0694403996,
				"z": 0.7184087259,
				"element": "C" 
			},
			{
				"x": 0.086325906,
				"y": 1.6416750266,
				"z": -0.0574245965,
				"element": "C" 
			},
			{
				"x": -1.0530342041,
				"y": 2.636522513,
				"z": 0.2350292694,
				"element": "C" 
			},
			{
				"x": -0.3096867796,
				"y": 0.1728930033,
				"z": 0.2801508279,
				"element": "C" 
			},
			{
				"x": 0.7864672734,
				"y": -0.8699612708,
				"z": -0.0383577413,
				"element": "C" 
			},
			{
				"x": 1.0030602939,
				"y": -1.0578246799,
				"z": -1.5488557708,
				"element": "C" 
			},
			{
				"x": -0.2850367091,
				"y": -1.4871018332,
				"z": -2.2868827208,
				"element": "C" 
			},
			{
				"x": -0.6088709933,
				"y": -2.9768456595,
				"z": -2.0830821699,
				"element": "C" 
			},
			{
				"x": -1.4579905506,
				"y": -0.551903279,
				"z": -1.9063605335,
				"element": "C" 
			},
			{
				"x": -1.6191754099,
				"y": -0.2628141545,
				"z": -0.4122932773,
				"element": "C" 
			},
			{
				"x": -2.1024751092,
				"y": -1.4963126214,
				"z": 0.2254597935,
				"element": "O" 
			},
			{
				"x": -2.8860921937,
				"y": -1.3542902225,
				"z": 1.2951639172,
				"element": "C" 
			},
			{
				"x": -3.2203623894,
				"y": -0.3016271386,
				"z": 1.7988696045,
				"element": "O" 
			},
			{
				"x": -3.3174675581,
				"y": -2.6718358245,
				"z": 1.9284604977,
				"element": "C" 
			},
			{
				"x": -3.363538017,
				"y": -4.1061166283,
				"z": 0.8403206395,
				"element": "Cl" 
			},
			{
				"x": 2.2226196466,
				"y": 1.4711396577,
				"z": 0.4606483689,
				"element": "H" 
			},
			{
				"x": 1.5884410267,
				"y": 3.1150393285,
				"z": 0.5033970241,
				"element": "H" 
			},
			{
				"x": 1.1850531622,
				"y": 1.9829787052,
				"z": 1.800246521,
				"element": "H" 
			},
			{
				"x": 0.3212690061,
				"y": 1.7102769931,
				"z": -1.1283511105,
				"element": "H" 
			},
			{
				"x": -1.9035667642,
				"y": 2.5185829139,
				"z": -0.4425406592,
				"element": "H" 
			},
			{
				"x": -0.6966486113,
				"y": 3.666028258,
				"z": 0.124984838,
				"element": "H" 
			},
			{
				"x": -1.427091551,
				"y": 2.518280121,
				"z": 1.2585272829,
				"element": "H" 
			},
			{
				"x": -0.5066010927,
				"y": 0.154437203,
				"z": 1.3607314573,
				"element": "H" 
			},
			{
				"x": 1.7284365323,
				"y": -0.5955274568,
				"z": 0.445518432,
				"element": "H" 
			},
			{
				"x": 0.4884134367,
				"y": -1.8258918413,
				"z": 0.407029884,
				"element": "H" 
			},
			{
				"x": 1.3736518504,
				"y": -0.1205104252,
				"z": -1.9841299862,
				"element": "H" 
			},
			{
				"x": 1.7892759212,
				"y": -1.8031096642,
				"z": -1.7205501905,
				"element": "H" 
			},
			{
				"x": -0.1111628327,
				"y": -1.3471880751,
				"z": -3.3626348084,
				"element": "H" 
			},
			{
				"x": 0.2166553474,
				"y": -3.5988948797,
				"z": -2.4472405066,
				"element": "H" 
			},
			{
				"x": -1.5085409797,
				"y": -3.2578138036,
				"z": -2.6413822891,
				"element": "H" 
			},
			{
				"x": -0.7907826895,
				"y": -3.2271416842,
				"z": -1.0359360048,
				"element": "H" 
			},
			{
				"x": -2.4035733482,
				"y": -0.9465009646,
				"z": -2.295620653,
				"element": "H" 
			},
			{
				"x": -1.3069448563,
				"y": 0.4211708684,
				"z": -2.3918962213,
				"element": "H" 
			},
			{
				"x": -2.4005555075,
				"y": 0.4805285441,
				"z": -0.2552787014,
				"element": "H" 
			},
			{
				"x": -4.3131301252,
				"y": -2.5293192148,
				"z": 2.3459199402,
				"element": "H" 
			},
			{
				"x": -2.6265875164,
				"y": -2.9045622135,
				"z": 2.7426509172,
				"element": "H" 
			}
		],
		 "valence_orbital": [ 
			{
				"type": "occ",
				"energy": -0.30349,
				"method": "rhf"
			},
			{
				"type": "occ",
				"energy": -0.30121,
				"method": "rhf"
			},
			{
				"type": "occ",
				"energy": -0.29566,
				"method": "rhf"
			},
			{
				"type": "occ",
				"energy": -0.2884,
				"method": "rhf"
			},
			{
				"type": "occ",
				"energy": -0.27412,
				"method": "rhf"
			},
			{
				"type": "unocc",
				"energy": -0.00754,
				"method": "rhf"
			},
			{
				"type": "unocc",
				"energy": 0.0305,
				"method": "rhf"
			},
			{
				"type": "unocc",
				"energy": 0.06584,
				"method": "rhf"
			},
			{
				"type": "unocc",
				"energy": 0.09263,
				"method": "rhf"
			},
			{
				"type": "unocc",
				"energy": 0.09576,
				"method": "rhf"
			}
		],
		"cosmo_sigma_profile": { 
			"-0.025": 0.0,
			"-0.024": 0.0,
			"-0.023": 0.0,
			"-0.022": 0.0,
			"-0.021": 0.0,
			"-0.02": 0.0,
			"-0.019": 0.0,
			"-0.018": 0.0,
			"-0.017": 0.0,
			"-0.016": 0.0,
			"-0.015": 0.0,
			"-0.014": 0.0,
			"-0.013": 0.0,
			"-0.012": 0.0,
			"-0.011": 0.0,
			"-0.01": 1.45103041519,
			"-0.009": 3.76798672486,
			"-0.008": 3.5008186869,
			"-0.007": 3.66122412913,
			"-0.006": 3.82751458699,
			"-0.005": 5.3535326227,
			"-0.004": 9.57380095499,
			"-0.003": 23.6111267066,
			"-0.002": 40.3628805091,
			"-0.001": 41.8811493916,
			"0.0": 40.0765815186,
			"0.001": 36.0058721527,
			"0.002": 19.8107736776,
			"0.003": 9.51360881772,
			"0.004": 10.0619508253,
			"0.005": 9.57931170291,
			"0.006": 8.564693249,
			"0.007": 3.14333510683,
			"0.008": 2.4970462979,
			"0.009": 1.30740943806,
			"0.01": 2.3824708499,
			"0.011": 3.46633534342,
			"0.012": 2.05198118924,
			"0.013": 0.114287920704,
			"0.014": 0.0,
			"0.015": 0.0,
			"0.016": 0.0,
			"0.017": 0.0,
			"0.018": 0.0,
			"0.019": 0.0,
			"0.02": 0.0,
			"0.021": 0.0,
			"0.022": 0.0,
			"0.023": 0.0,
			"0.024": 0.0,
			"0.025": 0.0
		}
	}
}
