{
	 "smiles": "NC1=CC=C2C=CC3=CC=CC4=CC=C1C2=C34", 
	 "Tm": 390.15, 
	 "num_atms": 28, 
	 "gaussian": { 
		 "optdone": 1, 
		 "sigma_profile": "yes", 
		 "theory": "DFT", 
		 "functional": "B3LYP", 
		 "basiset": "6-31G**", 
		 "properties": { 
			 "R2extent": 3889.7848, 
			 "electric_dipole_moment_norm": 2.17856033426, 
			 "electric_quadrupole_moment_norm": 16.9963139121, 
			 "total_energy": -671.131625918, 
			 "HOMO_LUMO_gap": 0.13075, 
			 "cosmo_polarized_energy": -10.96, 
			 "cosmo_cavitation_energy": 30.32, 
			 "cosmo_dispersion_energy": -23.12, 
			 "cosmo_repulsion_energy": 1.7, 
			 "cosmo_total_nonelectrostatic_energy": 8.9, 
			 "SMD_solvation_energy": 4.05 
		},
		"coords": [
			{
				"x": -1.7654654413,
				"y": 2.9757817055,
				"z": -0.0135894318,
				"element": "N" 
			},
			{
				"x": -1.6991633758,
				"y": 1.6027518719,
				"z": 0.2312732874,
				"element": "C" 
			},
			{
				"x": -2.8725795356,
				"y": 0.8318597547,
				"z": 0.201372336,
				"element": "C" 
			},
			{
				"x": -2.8419008999,
				"y": -0.5393455545,
				"z": 0.4130381248,
				"element": "C" 
			},
			{
				"x": -1.6369975114,
				"y": -1.2082127577,
				"z": 0.6781937823,
				"element": "C" 
			},
			{
				"x": -1.5774331703,
				"y": -2.6197487301,
				"z": 0.9272987843,
				"element": "C" 
			},
			{
				"x": -0.3960520183,
				"y": -3.2458491707,
				"z": 1.1860980133,
				"element": "C" 
			},
			{
				"x": 0.8401504531,
				"y": -2.5132960247,
				"z": 1.2134949974,
				"element": "C" 
			},
			{
				"x": 2.072618009,
				"y": -3.1345061223,
				"z": 1.4754327516,
				"element": "C" 
			},
			{
				"x": 3.2564067004,
				"y": -2.3985517468,
				"z": 1.4905758676,
				"element": "C" 
			},
			{
				"x": 3.2414344763,
				"y": -1.0276712242,
				"z": 1.2433970318,
				"element": "C" 
			},
			{
				"x": 2.0331768556,
				"y": -0.3613007077,
				"z": 0.9775432906,
				"element": "C" 
			},
			{
				"x": 1.9778797486,
				"y": 1.0460387306,
				"z": 0.7023662278,
				"element": "C" 
			},
			{
				"x": 0.794506973,
				"y": 1.6744078462,
				"z": 0.4531093187,
				"element": "C" 
			},
			{
				"x": -0.4526961923,
				"y": 0.9621657761,
				"z": 0.4600167948,
				"element": "C" 
			},
			{
				"x": -0.4286433829,
				"y": -0.4462642193,
				"z": 0.7001752961,
				"element": "C" 
			},
			{
				"x": 0.8126368001,
				"y": -1.1045598004,
				"z": 0.9640075505,
				"element": "C" 
			},
			{
				"x": -1.0934994803,
				"y": 3.5405827767,
				"z": 0.4869054351,
				"element": "H" 
			},
			{
				"x": -2.6958754071,
				"y": 3.3646138027,
				"z": 0.0581161927,
				"element": "H" 
			},
			{
				"x": -3.8225274144,
				"y": 1.3276160509,
				"z": 0.0152174619,
				"element": "H" 
			},
			{
				"x": -3.7690580704,
				"y": -1.1062119136,
				"z": 0.3889906176,
				"element": "H" 
			},
			{
				"x": -2.5061598,
				"y": -3.184811624,
				"z": 0.9067316855,
				"element": "H" 
			},
			{
				"x": -0.367278813,
				"y": -4.3156562478,
				"z": 1.3751895056,
				"element": "H" 
			},
			{
				"x": 2.0935905174,
				"y": -4.2043233577,
				"z": 1.6662474658,
				"element": "H" 
			},
			{
				"x": 4.1987437267,
				"y": -2.8991005184,
				"z": 1.694928155,
				"element": "H" 
			},
			{
				"x": 4.1679831869,
				"y": -0.459629292,
				"z": 1.2522898789,
				"element": "H" 
			},
			{
				"x": 2.9090776726,
				"y": 1.6063488846,
				"z": 0.6841243078,
				"element": "H" 
			},
			{
				"x": 0.8029253934,
				"y": 2.732871812,
				"z": 0.2113552709,
				"element": "H" 
			}
		],
		 "valence_orbital": [ 
			{
				"type": "occ",
				"energy": -0.28069,
				"method": "rhf"
			},
			{
				"type": "occ",
				"energy": -0.24978,
				"method": "rhf"
			},
			{
				"type": "occ",
				"energy": -0.24406,
				"method": "rhf"
			},
			{
				"type": "occ",
				"energy": -0.22118,
				"method": "rhf"
			},
			{
				"type": "occ",
				"energy": -0.17703,
				"method": "rhf"
			},
			{
				"type": "unocc",
				"energy": -0.04628,
				"method": "rhf"
			},
			{
				"type": "unocc",
				"energy": -0.01776,
				"method": "rhf"
			},
			{
				"type": "unocc",
				"energy": 0.00329,
				"method": "rhf"
			},
			{
				"type": "unocc",
				"energy": 0.03037,
				"method": "rhf"
			},
			{
				"type": "unocc",
				"energy": 0.062,
				"method": "rhf"
			}
		],
		"cosmo_sigma_profile": { 
			"-0.025": 0.0,
			"-0.024": 0.0,
			"-0.023": 0.0,
			"-0.022": 0.0,
			"-0.021": 0.0,
			"-0.02": 0.0,
			"-0.019": 0.0,
			"-0.018": 0.0,
			"-0.017": 0.0,
			"-0.016": 0.0,
			"-0.015": 0.0,
			"-0.014": 0.0,
			"-0.013": 0.99522232465,
			"-0.012": 2.82611934701,
			"-0.011": 3.06734395405,
			"-0.01": 3.04026050591,
			"-0.009": 3.14148114581,
			"-0.008": 2.83163914936,
			"-0.007": 2.95590128128,
			"-0.006": 10.3373923324,
			"-0.005": 21.1432402339,
			"-0.004": 17.4805533642,
			"-0.003": 16.3469106745,
			"-0.002": 11.8034652967,
			"-0.001": 12.3014411701,
			"0.0": 9.63694031702,
			"0.001": 10.8607590281,
			"0.002": 12.6962058784,
			"0.003": 18.8137387829,
			"0.004": 41.3248118415,
			"0.005": 29.0175542261,
			"0.006": 7.50768048551,
			"0.007": 1.22082022919,
			"0.008": 0.673528272209,
			"0.009": 0.593353303706,
			"0.01": 0.360016057346,
			"0.011": 0.995903023607,
			"0.012": 0.679545962622,
			"0.013": 0.518413141308,
			"0.014": 0.312972421605,
			"0.015": 0.0,
			"0.016": 0.0,
			"0.017": 0.0,
			"0.018": 0.0,
			"0.019": 0.0,
			"0.02": 0.0,
			"0.021": 0.0,
			"0.022": 0.0,
			"0.023": 0.0,
			"0.024": 0.0,
			"0.025": 0.0
		}
	}
}
