{
	 "smiles": "CC(C)(OC1OC(CO)C(O)C(O)C1O)C#N", 
	 "Tm": 418.15, 
	 "num_atms": 34, 
	 "gaussian": { 
		 "optdone": 1, 
		 "sigma_profile": "yes", 
		 "theory": "DFT", 
		 "functional": "B3LYP", 
		 "basiset": "6-31G**", 
		 "properties": { 
			 "R2extent": 4324.5449, 
			 "electric_dipole_moment_norm": 1.87452441702, 
			 "electric_quadrupole_moment_norm": 20.7230263883, 
			 "total_energy": -897.341184919, 
			 "HOMO_LUMO_gap": 0.26936, 
			 "cosmo_polarized_energy": -20.7, 
			 "cosmo_cavitation_energy": 35.61, 
			 "cosmo_dispersion_energy": -23.9, 
			 "cosmo_repulsion_energy": 1.86, 
			 "cosmo_total_nonelectrostatic_energy": 13.58, 
			 "SMD_solvation_energy": 6.98 
		},
		"coords": [
			{
				"x": -2.5193518495,
				"y": -0.0061182669,
				"z": 0.3496564367,
				"element": "C" 
			},
			{
				"x": -1.5185877956,
				"y": -0.9255303563,
				"z": 1.0709618687,
				"element": "C" 
			},
			{
				"x": -1.7594427066,
				"y": -2.413265022,
				"z": 0.7560823788,
				"element": "C" 
			},
			{
				"x": -0.1452804533,
				"y": -0.5606113036,
				"z": 0.8085632645,
				"element": "O" 
			},
			{
				"x": 0.3058549542,
				"y": -0.5053007032,
				"z": -0.5495644279,
				"element": "C" 
			},
			{
				"x": 0.0968148862,
				"y": 0.7657332447,
				"z": -1.115968472,
				"element": "O" 
			},
			{
				"x": 1.1430126489,
				"y": 1.7467173099,
				"z": -0.9633340069,
				"element": "C" 
			},
			{
				"x": 0.4706523375,
				"y": 3.1226118205,
				"z": -1.0494785563,
				"element": "C" 
			},
			{
				"x": 1.3998621029,
				"y": 4.1599099193,
				"z": -1.2714092825,
				"element": "O" 
			},
			{
				"x": 1.8932008316,
				"y": 1.5288277976,
				"z": 0.3574745402,
				"element": "C" 
			},
			{
				"x": 2.869029223,
				"y": 2.564010404,
				"z": 0.4803303831,
				"element": "O" 
			},
			{
				"x": 2.528791538,
				"y": 0.124462482,
				"z": 0.4236472866,
				"element": "C" 
			},
			{
				"x": 2.5486056873,
				"y": -0.3851053284,
				"z": 1.7581149168,
				"element": "O" 
			},
			{
				"x": 1.7954152516,
				"y": -0.8663088876,
				"z": -0.5184229139,
				"element": "C" 
			},
			{
				"x": 2.0070789434,
				"y": -2.2006958345,
				"z": -0.1332119446,
				"element": "O" 
			},
			{
				"x": -1.6443558254,
				"y": -0.7206189354,
				"z": 2.5342886651,
				"element": "C" 
			},
			{
				"x": -1.7533038367,
				"y": -0.5661138225,
				"z": 3.6788904158,
				"element": "N" 
			},
			{
				"x": -3.5392240912,
				"y": -0.2559455422,
				"z": 0.6545726934,
				"element": "H" 
			},
			{
				"x": -2.3208265009,
				"y": 1.0396413925,
				"z": 0.5894544068,
				"element": "H" 
			},
			{
				"x": -2.4375305013,
				"y": -0.1336409137,
				"z": -0.732013964,
				"element": "H" 
			},
			{
				"x": -2.7345470289,
				"y": -2.7294808417,
				"z": 1.135764896,
				"element": "H" 
			},
			{
				"x": -1.7458804993,
				"y": -2.581876078,
				"z": -0.3237314572,
				"element": "H" 
			},
			{
				"x": -0.9799287821,
				"y": -3.0242466467,
				"z": 1.2156043247,
				"element": "H" 
			},
			{
				"x": -0.2559568351,
				"y": -1.215564357,
				"z": -1.1615487135,
				"element": "H" 
			},
			{
				"x": 1.851546431,
				"y": 1.6681008577,
				"z": -1.8007182784,
				"element": "H" 
			},
			{
				"x": -0.131928047,
				"y": 3.2814050466,
				"z": -0.1382960957,
				"element": "H" 
			},
			{
				"x": -0.2190137824,
				"y": 3.1118705729,
				"z": -1.8991795642,
				"element": "H" 
			},
			{
				"x": 2.0802889676,
				"y": 4.0680250166,
				"z": -0.58649016,
				"element": "H" 
			},
			{
				"x": 1.154039801,
				"y": 1.6062858972,
				"z": 1.1676172812,
				"element": "H" 
			},
			{
				"x": 3.2700649513,
				"y": 2.4906947904,
				"z": 1.3567485356,
				"element": "H" 
			},
			{
				"x": 3.5775742639,
				"y": 0.2013289223,
				"z": 0.1213463534,
				"element": "H" 
			},
			{
				"x": 1.6218967269,
				"y": -0.4111644811,
				"z": 2.0496127234,
				"element": "H" 
			},
			{
				"x": 2.1721414731,
				"y": -0.7375703753,
				"z": -1.5406517008,
				"element": "H" 
			},
			{
				"x": 2.2599875159,
				"y": -2.1591677782,
				"z": 0.8045881671,
				"element": "H" 
			}
		],
		 "valence_orbital": [ 
			{
				"type": "occ",
				"energy": -0.31185,
				"method": "rhf"
			},
			{
				"type": "occ",
				"energy": -0.28729,
				"method": "rhf"
			},
			{
				"type": "occ",
				"energy": -0.28369,
				"method": "rhf"
			},
			{
				"type": "occ",
				"energy": -0.27396,
				"method": "rhf"
			},
			{
				"type": "occ",
				"energy": -0.26232,
				"method": "rhf"
			},
			{
				"type": "unocc",
				"energy": 0.00704,
				"method": "rhf"
			},
			{
				"type": "unocc",
				"energy": 0.025,
				"method": "rhf"
			},
			{
				"type": "unocc",
				"energy": 0.04584,
				"method": "rhf"
			},
			{
				"type": "unocc",
				"energy": 0.05828,
				"method": "rhf"
			},
			{
				"type": "unocc",
				"energy": 0.07351,
				"method": "rhf"
			}
		],
		"cosmo_sigma_profile": { 
			"-0.025": 0.0,
			"-0.024": 0.0,
			"-0.023": 0.0,
			"-0.022": 0.0,
			"-0.021": 0.0,
			"-0.02": 0.0,
			"-0.019": 0.0,
			"-0.018": 0.0,
			"-0.017": 0.320513538588,
			"-0.016": 0.772274474271,
			"-0.015": 0.929423253983,
			"-0.014": 1.10468549498,
			"-0.013": 0.427454672196,
			"-0.012": 0.742009597511,
			"-0.011": 0.927182298993,
			"-0.01": 1.76482321466,
			"-0.009": 3.11913818193,
			"-0.008": 7.78086768409,
			"-0.007": 10.3663761463,
			"-0.006": 18.2373375559,
			"-0.005": 23.1269535753,
			"-0.004": 21.7846860111,
			"-0.003": 23.200961884,
			"-0.002": 24.1225286409,
			"-0.001": 20.8335331869,
			"0.0": 13.8796068041,
			"0.001": 11.081977307,
			"0.002": 8.14066539834,
			"0.003": 9.26952568765,
			"0.004": 7.58472120719,
			"0.005": 8.36308310782,
			"0.006": 6.94240427458,
			"0.007": 7.47771775694,
			"0.008": 7.92486722458,
			"0.009": 7.19153843284,
			"0.01": 6.96489232815,
			"0.011": 6.71227675778,
			"0.012": 6.66169705885,
			"0.013": 4.72769260078,
			"0.014": 3.67316107642,
			"0.015": 0.949807727343,
			"0.016": 0.0,
			"0.017": 0.0,
			"0.018": 0.0,
			"0.019": 0.0,
			"0.02": 0.0,
			"0.021": 0.0,
			"0.022": 0.0,
			"0.023": 0.0,
			"0.024": 0.0,
			"0.025": 0.0
		}
	}
}
