{
	 "smiles": "COC1=C(OC)C=C(C=C1)C(=O)C(C)Br", 
	 "Tm": 357.15, 
	 "num_atms": 28, 
	 "gaussian": { 
		 "optdone": 1, 
		 "sigma_profile": "yes", 
		 "theory": "DFT", 
		 "functional": "B3LYP", 
		 "basiset": "6-31G**", 
		 "properties": { 
			 "R2extent": 6585.0877, 
			 "electric_dipole_moment_norm": 3.54490995795, 
			 "electric_quadrupole_moment_norm": 14.358274061, 
			 "total_energy": -3224.0541657, 
			 "HOMO_LUMO_gap": 0.17064, 
			 "cosmo_polarized_energy": -10.38, 
			 "cosmo_cavitation_energy": 33.64, 
			 "cosmo_dispersion_energy": -24.03, 
			 "cosmo_repulsion_energy": 1.91, 
			 "cosmo_total_nonelectrostatic_energy": 11.52, 
			 "SMD_solvation_energy": 6.64 
		},
		"coords": [
			{
				"x": 2.9547495108,
				"y": -0.9656630725,
				"z": 2.9609597728,
				"element": "C" 
			},
			{
				"x": 1.5215243811,
				"y": -0.8841436076,
				"z": 2.9162271904,
				"element": "O" 
			},
			{
				"x": 1.0062297587,
				"y": 0.0226715144,
				"z": 2.027270443,
				"element": "C" 
			},
			{
				"x": 1.1639023583,
				"y": -0.1257126221,
				"z": 0.6335657124,
				"element": "C" 
			},
			{
				"x": 1.8879871327,
				"y": -1.1682658663,
				"z": 0.0992278043,
				"element": "O" 
			},
			{
				"x": 1.2640725928,
				"y": -2.4533879859,
				"z": 0.2195576549,
				"element": "C" 
			},
			{
				"x": 0.612935277,
				"y": 0.8187617088,
				"z": -0.2282921555,
				"element": "C" 
			},
			{
				"x": -0.1185091654,
				"y": 1.9088188569,
				"z": 0.2701196903,
				"element": "C" 
			},
			{
				"x": -0.2961955042,
				"y": 2.029755101,
				"z": 1.658040838,
				"element": "C" 
			},
			{
				"x": 0.2624138483,
				"y": 1.0981987296,
				"z": 2.5238453617,
				"element": "C" 
			},
			{
				"x": -0.7546516368,
				"y": 2.940333661,
				"z": -0.6004317353,
				"element": "C" 
			},
			{
				"x": -1.368064424,
				"y": 3.8828914027,
				"z": -0.1235666536,
				"element": "O" 
			},
			{
				"x": -0.687097373,
				"y": 2.7966908432,
				"z": -2.1283034593,
				"element": "C" 
			},
			{
				"x": -1.7240566442,
				"y": 3.6346198719,
				"z": -2.8504548261,
				"element": "C" 
			},
			{
				"x": 1.1547238169,
				"y": 3.3668454927,
				"z": -2.6848760091,
				"element": "Br" 
			},
			{
				"x": 3.1893663621,
				"y": -1.7352841989,
				"z": 3.6983096613,
				"element": "H" 
			},
			{
				"x": 3.3706687701,
				"y": -1.23994794,
				"z": 1.9878548211,
				"element": "H" 
			},
			{
				"x": 3.381558292,
				"y": -0.0093498109,
				"z": 3.2861056094,
				"element": "H" 
			},
			{
				"x": 1.0978141957,
				"y": -2.7204684324,
				"z": 1.2679615631,
				"element": "H" 
			},
			{
				"x": 0.3072135161,
				"y": -2.4710313865,
				"z": -0.3168805029,
				"element": "H" 
			},
			{
				"x": 1.9484338196,
				"y": -3.1690726121,
				"z": -0.2399422105,
				"element": "H" 
			},
			{
				"x": 0.7943121881,
				"y": 0.6847287394,
				"z": -1.2885205111,
				"element": "H" 
			},
			{
				"x": -0.8677801782,
				"y": 2.8709506648,
				"z": 2.0338066904,
				"element": "H" 
			},
			{
				"x": 0.1438025403,
				"y": 1.1834279183,
				"z": 3.5992642294,
				"element": "H" 
			},
			{
				"x": -0.7295575476,
				"y": 1.7499899128,
				"z": -2.4295631424,
				"element": "H" 
			},
			{
				"x": -1.5977092561,
				"y": 3.5566600845,
				"z": -3.9320882578,
				"element": "H" 
			},
			{
				"x": -1.6547018616,
				"y": 4.6797380308,
				"z": -2.5469732737,
				"element": "H" 
			},
			{
				"x": -2.7245847697,
				"y": 3.2738450022,
				"z": -2.5857243052,
				"element": "H" 
			}
		],
		 "valence_orbital": [ 
			{
				"type": "occ",
				"energy": -0.27914,
				"method": "rhf"
			},
			{
				"type": "occ",
				"energy": -0.27623,
				"method": "rhf"
			},
			{
				"type": "occ",
				"energy": -0.25823,
				"method": "rhf"
			},
			{
				"type": "occ",
				"energy": -0.25184,
				"method": "rhf"
			},
			{
				"type": "occ",
				"energy": -0.24046,
				"method": "rhf"
			},
			{
				"type": "unocc",
				"energy": -0.06982,
				"method": "rhf"
			},
			{
				"type": "unocc",
				"energy": -0.01231,
				"method": "rhf"
			},
			{
				"type": "unocc",
				"energy": -0.00836,
				"method": "rhf"
			},
			{
				"type": "unocc",
				"energy": 0.05117,
				"method": "rhf"
			},
			{
				"type": "unocc",
				"energy": 0.07783,
				"method": "rhf"
			}
		],
		"cosmo_sigma_profile": { 
			"-0.025": 0.0,
			"-0.024": 0.0,
			"-0.023": 0.0,
			"-0.022": 0.0,
			"-0.021": 0.0,
			"-0.02": 0.0,
			"-0.019": 0.0,
			"-0.018": 0.0,
			"-0.017": 0.0,
			"-0.016": 0.0,
			"-0.015": 0.0,
			"-0.014": 0.0,
			"-0.013": 0.0,
			"-0.012": 0.0,
			"-0.011": 0.0,
			"-0.01": 0.210039170116,
			"-0.009": 1.95738777425,
			"-0.008": 3.34498043388,
			"-0.007": 4.70033498559,
			"-0.006": 9.12084621493,
			"-0.005": 17.48151356,
			"-0.004": 22.9729686819,
			"-0.003": 30.1290792748,
			"-0.002": 25.3425300197,
			"-0.001": 22.8699329632,
			"0.0": 18.2225902502,
			"0.001": 18.9072832397,
			"0.002": 21.825357576,
			"0.003": 18.2850001846,
			"0.004": 13.9222122629,
			"0.005": 12.6966402536,
			"0.006": 6.09212996601,
			"0.007": 3.67416228701,
			"0.008": 3.16155002449,
			"0.009": 3.98689308011,
			"0.01": 4.36080820124,
			"0.011": 5.44491080796,
			"0.012": 1.13950850379,
			"0.013": 0.0,
			"0.014": 0.0,
			"0.015": 0.0,
			"0.016": 0.0,
			"0.017": 0.0,
			"0.018": 0.0,
			"0.019": 0.0,
			"0.02": 0.0,
			"0.021": 0.0,
			"0.022": 0.0,
			"0.023": 0.0,
			"0.024": 0.0,
			"0.025": 0.0
		}
	}
}
