{
	 "smiles": "O=S(=O)(NC1CCNCC1)C1=CC=CC=C1", 
	 "Tm": 431.15, 
	 "num_atms": 32, 
	 "gaussian": { 
		 "optdone": 1, 
		 "sigma_profile": "yes", 
		 "theory": "DFT", 
		 "functional": "B3LYP", 
		 "basiset": "6-31G**", 
		 "properties": { 
			 "R2extent": 4723.6203, 
			 "electric_dipole_moment_norm": 3.98756098261, 
			 "electric_quadrupole_moment_norm": 21.7522500273, 
			 "total_energy": -1086.87106883, 
			 "HOMO_LUMO_gap": 0.17715, 
			 "cosmo_polarized_energy": -15.8, 
			 "cosmo_cavitation_energy": 34.63, 
			 "cosmo_dispersion_energy": -25.0, 
			 "cosmo_repulsion_energy": 1.92, 
			 "cosmo_total_nonelectrostatic_energy": 11.55, 
			 "SMD_solvation_energy": 1.65 
		},
		"coords": [
			{
				"x": 0.1062494884,
				"y": -2.2904020899,
				"z": -1.1304127083,
				"element": "O" 
			},
			{
				"x": -0.5624748736,
				"y": -1.0964498482,
				"z": -0.5975889998,
				"element": "S" 
			},
			{
				"x": -1.9517747884,
				"y": -1.1412639281,
				"z": -0.1252433406,
				"element": "O" 
			},
			{
				"x": 0.3097129758,
				"y": -0.4689481146,
				"z": 0.7162803897,
				"element": "N" 
			},
			{
				"x": 1.7036362613,
				"y": -0.9240509272,
				"z": 0.9481129388,
				"element": "C" 
			},
			{
				"x": 2.0052597742,
				"y": -0.7480378978,
				"z": 2.4554163727,
				"element": "C" 
			},
			{
				"x": 3.5019856478,
				"y": -0.4777546638,
				"z": 2.6688041376,
				"element": "C" 
			},
			{
				"x": 3.9694211701,
				"y": 0.7536690163,
				"z": 2.0117466491,
				"element": "N" 
			},
			{
				"x": 3.1908296043,
				"y": 1.1365334145,
				"z": 0.8194555529,
				"element": "C" 
			},
			{
				"x": 2.7092153437,
				"y": -0.1178111665,
				"z": 0.0916465394,
				"element": "C" 
			},
			{
				"x": -0.442370631,
				"y": 0.1842319801,
				"z": -1.8506181642,
				"element": "C" 
			},
			{
				"x": 0.2471857974,
				"y": -0.0835402511,
				"z": -3.0331323976,
				"element": "C" 
			},
			{
				"x": 0.309745973,
				"y": 0.9051980387,
				"z": -4.0178242589,
				"element": "C" 
			},
			{
				"x": -0.3141731919,
				"y": 2.1367015324,
				"z": -3.8140740936,
				"element": "C" 
			},
			{
				"x": -1.0098156042,
				"y": 2.3873360626,
				"z": -2.6268781626,
				"element": "C" 
			},
			{
				"x": -1.080752911,
				"y": 1.4088771211,
				"z": -1.6376602001,
				"element": "C" 
			},
			{
				"x": -0.2936360087,
				"y": -0.6110900328,
				"z": 1.5238838564,
				"element": "H" 
			},
			{
				"x": 1.7897537339,
				"y": -1.9836261872,
				"z": 0.682054961,
				"element": "H" 
			},
			{
				"x": 1.679957575,
				"y": -1.6324825448,
				"z": 3.0153734569,
				"element": "H" 
			},
			{
				"x": 1.4373129174,
				"y": 0.1091994598,
				"z": 2.8408095618,
				"element": "H" 
			},
			{
				"x": 4.0753804601,
				"y": -1.3362515443,
				"z": 2.2904895716,
				"element": "H" 
			},
			{
				"x": 3.7280768815,
				"y": -0.4112198887,
				"z": 3.7376656887,
				"element": "H" 
			},
			{
				"x": 3.9613948106,
				"y": 1.5181986824,
				"z": 2.6784418307,
				"element": "H" 
			},
			{
				"x": 2.3095733456,
				"y": 1.7557181453,
				"z": 1.0602022192,
				"element": "H" 
			},
			{
				"x": 3.8269858441,
				"y": 1.7371039134,
				"z": 0.1578459445,
				"element": "H" 
			},
			{
				"x": 3.5737459212,
				"y": -0.7534849121,
				"z": -0.1314561578,
				"element": "H" 
			},
			{
				"x": 2.2603067142,
				"y": 0.1501969808,
				"z": -0.8679112115,
				"element": "H" 
			},
			{
				"x": 0.7144345054,
				"y": -1.0522430739,
				"z": -3.1709772987,
				"element": "H" 
			},
			{
				"x": 0.8421240811,
				"y": 0.7093175821,
				"z": -4.9436374431,
				"element": "H" 
			},
			{
				"x": -0.2638773749,
				"y": 2.9026653492,
				"z": -4.5823990414,
				"element": "H" 
			},
			{
				"x": -1.5007164684,
				"y": 3.3438067388,
				"z": -2.4747094769,
				"element": "H" 
			},
			{
				"x": -1.6271969738,
				"y": 1.5846030533,
				"z": -0.717406716,
				"element": "H" 
			}
		],
		 "valence_orbital": [ 
			{
				"type": "occ",
				"energy": -0.29733,
				"method": "rhf"
			},
			{
				"type": "occ",
				"energy": -0.28299,
				"method": "rhf"
			},
			{
				"type": "occ",
				"energy": -0.27014,
				"method": "rhf"
			},
			{
				"type": "occ",
				"energy": -0.2582,
				"method": "rhf"
			},
			{
				"type": "occ",
				"energy": -0.21459,
				"method": "rhf"
			},
			{
				"type": "unocc",
				"energy": -0.03744,
				"method": "rhf"
			},
			{
				"type": "unocc",
				"energy": -0.0202,
				"method": "rhf"
			},
			{
				"type": "unocc",
				"energy": 0.05868,
				"method": "rhf"
			},
			{
				"type": "unocc",
				"energy": 0.06685,
				"method": "rhf"
			},
			{
				"type": "unocc",
				"energy": 0.0846,
				"method": "rhf"
			}
		],
		"cosmo_sigma_profile": { 
			"-0.025": 0.0,
			"-0.024": 0.0,
			"-0.023": 0.0,
			"-0.022": 0.0,
			"-0.021": 0.0,
			"-0.02": 0.0,
			"-0.019": 0.0,
			"-0.018": 0.0,
			"-0.017": 0.0,
			"-0.016": 0.0,
			"-0.015": 0.0,
			"-0.014": 0.0930813161067,
			"-0.013": 0.512313904734,
			"-0.012": 1.2106397832,
			"-0.011": 0.610044679623,
			"-0.01": 1.7307828215,
			"-0.009": 2.36734769367,
			"-0.008": 2.92535864932,
			"-0.007": 9.1549218061,
			"-0.006": 13.6428136721,
			"-0.005": 15.01976005,
			"-0.004": 20.2370309869,
			"-0.003": 28.488121487,
			"-0.002": 27.5467179983,
			"-0.001": 26.2028013497,
			"0.0": 22.8336672795,
			"0.001": 13.9739070773,
			"0.002": 14.2953858835,
			"0.003": 16.7304116353,
			"0.004": 8.03415792031,
			"0.005": 5.33561196873,
			"0.006": 4.43625995631,
			"0.007": 3.55796883994,
			"0.008": 4.15150530155,
			"0.009": 4.71920621274,
			"0.01": 6.53100165221,
			"0.011": 9.80770996003,
			"0.012": 4.48325430191,
			"0.013": 0.360999218088,
			"0.014": 1.08407262825,
			"0.015": 0.220954505025,
			"0.016": 0.569893363401,
			"0.017": 0.630255517497,
			"0.018": 0.500357164209,
			"0.019": 0.228586608894,
			"0.02": 0.0,
			"0.021": 0.0,
			"0.022": 0.0,
			"0.023": 0.0,
			"0.024": 0.0,
			"0.025": 0.0
		}
	}
}
