{
	 "smiles": "CCOC(=O)C1=C(N)N(N=C1SC)C1=CC=C(C=C1)[N+]([O-])=O", 
	 "Tm": 454.15, 
	 "num_atms": 36, 
	 "gaussian": { 
		 "optdone": 1, 
		 "sigma_profile": "yes", 
		 "theory": "DFT", 
		 "functional": "B3LYP", 
		 "basiset": "6-31G**", 
		 "properties": { 
			 "R2extent": 10682.3284, 
			 "electric_dipole_moment_norm": 4.39467091828, 
			 "electric_quadrupole_moment_norm": 41.1236740027, 
			 "total_energy": -1421.81798354, 
			 "HOMO_LUMO_gap": 0.12258, 
			 "cosmo_polarized_energy": -20.78, 
			 "cosmo_cavitation_energy": 42.86, 
			 "cosmo_dispersion_energy": -31.03, 
			 "cosmo_repulsion_energy": 2.34, 
			 "cosmo_total_nonelectrostatic_energy": 14.17, 
			 "SMD_solvation_energy": 10.08 
		},
		"coords": [
			{
				"x": 2.3389521103,
				"y": 5.2602578509,
				"z": 1.2244285619,
				"element": "C" 
			},
			{
				"x": 1.4711408601,
				"y": 5.0097413331,
				"z": 0.0057859656,
				"element": "C" 
			},
			{
				"x": 1.2025709388,
				"y": 3.5889641469,
				"z": -0.0576465942,
				"element": "O" 
			},
			{
				"x": 0.4146686512,
				"y": 3.1838799621,
				"z": -1.1034095727,
				"element": "C" 
			},
			{
				"x": -0.0265510747,
				"y": 3.9609976192,
				"z": -1.9293886655,
				"element": "O" 
			},
			{
				"x": 0.1864169428,
				"y": 1.7497203709,
				"z": -1.1013815907,
				"element": "C" 
			},
			{
				"x": 0.6567413107,
				"y": 0.7848585451,
				"z": -0.2066301099,
				"element": "C" 
			},
			{
				"x": 1.410889917,
				"y": 0.9480152135,
				"z": 0.9282372026,
				"element": "N" 
			},
			{
				"x": 0.1924459169,
				"y": -0.4246773343,
				"z": -0.6530049723,
				"element": "N" 
			},
			{
				"x": -0.5360372301,
				"y": -0.2919299183,
				"z": -1.8324313696,
				"element": "N" 
			},
			{
				"x": -0.5479442948,
				"y": 1.0035136324,
				"z": -2.0817494157,
				"element": "C" 
			},
			{
				"x": -1.3806525867,
				"y": 1.69090513,
				"z": -3.4685167939,
				"element": "S" 
			},
			{
				"x": -2.0524014332,
				"y": 0.1604343573,
				"z": -4.2071875445,
				"element": "C" 
			},
			{
				"x": 0.3889818286,
				"y": -1.7161495993,
				"z": -0.125112642,
				"element": "C" 
			},
			{
				"x": 0.5415335768,
				"y": -1.9242093258,
				"z": 1.2569461315,
				"element": "C" 
			},
			{
				"x": 0.7371920894,
				"y": -3.2113499117,
				"z": 1.7456237917,
				"element": "C" 
			},
			{
				"x": 0.7619119541,
				"y": -4.2814474205,
				"z": 0.8542267868,
				"element": "C" 
			},
			{
				"x": 0.5827672655,
				"y": -4.0946154573,
				"z": -0.5172057684,
				"element": "C" 
			},
			{
				"x": 0.3965810333,
				"y": -2.8101896337,
				"z": -1.0074787381,
				"element": "C" 
			},
			{
				"x": 0.9705303717,
				"y": -5.6374435603,
				"z": 1.3719299211,
				"element": "N" 
			},
			{
				"x": 1.139689084,
				"y": -5.7660446506,
				"z": 2.5852197358,
				"element": "O" 
			},
			{
				"x": 0.9658137153,
				"y": -6.5649648352,
				"z": 0.5621683974,
				"element": "O" 
			},
			{
				"x": 3.2898693091,
				"y": 4.7236096036,
				"z": 1.1490536131,
				"element": "H" 
			},
			{
				"x": 1.8313818711,
				"y": 4.9440736849,
				"z": 2.1407512595,
				"element": "H" 
			},
			{
				"x": 2.5589058073,
				"y": 6.3289006767,
				"z": 1.3083505597,
				"element": "H" 
			},
			{
				"x": 0.5182787692,
				"y": 5.5440857858,
				"z": 0.0634998757,
				"element": "H" 
			},
			{
				"x": 1.9649533905,
				"y": 5.3167257549,
				"z": -0.9210915295,
				"element": "H" 
			},
			{
				"x": 1.7869562762,
				"y": 1.8865647371,
				"z": 0.9982152565,
				"element": "H" 
			},
			{
				"x": 2.0725785421,
				"y": 0.2119282069,
				"z": 1.1370516184,
				"element": "H" 
			},
			{
				"x": -2.6189080298,
				"y": 0.4810625015,
				"z": -5.0837258306,
				"element": "H" 
			},
			{
				"x": -1.2485217156,
				"y": -0.511493352,
				"z": -4.511394054,
				"element": "H" 
			},
			{
				"x": -2.7108749158,
				"y": -0.3530861684,
				"z": -3.5053930467,
				"element": "H" 
			},
			{
				"x": 0.4692998198,
				"y": -1.091857666,
				"z": 1.9461428185,
				"element": "H" 
			},
			{
				"x": 0.8512660873,
				"y": -3.3997510795,
				"z": 2.805728128,
				"element": "H" 
			},
			{
				"x": 0.600373841,
				"y": -4.953121989,
				"z": -1.1767920332,
				"element": "H" 
			},
			{
				"x": 0.2495000007,
				"y": -2.6300072112,
				"z": -2.0644193522,
				"element": "H" 
			}
		],
		 "valence_orbital": [ 
			{
				"type": "occ",
				"energy": -0.28733,
				"method": "rhf"
			},
			{
				"type": "occ",
				"energy": -0.27681,
				"method": "rhf"
			},
			{
				"type": "occ",
				"energy": -0.26964,
				"method": "rhf"
			},
			{
				"type": "occ",
				"energy": -0.239,
				"method": "rhf"
			},
			{
				"type": "occ",
				"energy": -0.21629,
				"method": "rhf"
			},
			{
				"type": "unocc",
				"energy": -0.09371,
				"method": "rhf"
			},
			{
				"type": "unocc",
				"energy": -0.03761,
				"method": "rhf"
			},
			{
				"type": "unocc",
				"energy": -0.02811,
				"method": "rhf"
			},
			{
				"type": "unocc",
				"energy": -0.00717,
				"method": "rhf"
			},
			{
				"type": "unocc",
				"energy": 0.02685,
				"method": "rhf"
			}
		],
		"cosmo_sigma_profile": { 
			"-0.025": 0.0,
			"-0.024": 0.0,
			"-0.023": 0.0,
			"-0.022": 0.0,
			"-0.021": 0.0,
			"-0.02": 0.0,
			"-0.019": 0.0,
			"-0.018": 0.0,
			"-0.017": 0.0,
			"-0.016": 0.0,
			"-0.015": 0.192089111222,
			"-0.014": 1.18268699209,
			"-0.013": 1.18057036959,
			"-0.012": 1.64008861235,
			"-0.011": 2.63291281587,
			"-0.01": 1.9521504273,
			"-0.009": 2.05695329266,
			"-0.008": 3.81895453294,
			"-0.007": 10.9015690344,
			"-0.006": 11.5258247375,
			"-0.005": 19.9918062333,
			"-0.004": 26.6591914209,
			"-0.003": 27.5389309999,
			"-0.002": 34.423856551,
			"-0.001": 32.6877524408,
			"0.0": 32.570792744,
			"0.001": 24.3700875969,
			"0.002": 15.7655121777,
			"0.003": 12.7225486936,
			"0.004": 9.70877048081,
			"0.005": 8.92900850419,
			"0.006": 10.7961156569,
			"0.007": 12.2938783766,
			"0.008": 14.51892157,
			"0.009": 8.81120675123,
			"0.01": 5.93614244433,
			"0.011": 3.29510000753,
			"0.012": 4.82166255383,
			"0.013": 1.01059133543,
			"0.014": 0.0,
			"0.015": 0.0,
			"0.016": 0.0,
			"0.017": 0.0,
			"0.018": 0.0,
			"0.019": 0.0,
			"0.02": 0.0,
			"0.021": 0.0,
			"0.022": 0.0,
			"0.023": 0.0,
			"0.024": 0.0,
			"0.025": 0.0
		}
	}
}
