{
	 "smiles": "CCCCNC(=O)NCCCC", 
	 "Tm": 347.65, 
	 "num_atms": 32, 
	 "gaussian": { 
		 "optdone": 1, 
		 "sigma_profile": "yes", 
		 "theory": "DFT", 
		 "functional": "B3LYP", 
		 "basiset": "6-31G**", 
		 "properties": { 
			 "R2extent": 3134.6459, 
			 "electric_dipole_moment_norm": 3.31291355154, 
			 "electric_quadrupole_moment_norm": 13.6533037544, 
			 "total_energy": -539.774815147, 
			 "HOMO_LUMO_gap": 0.27147, 
			 "cosmo_polarized_energy": -10.62, 
			 "cosmo_cavitation_energy": 33.08, 
			 "cosmo_dispersion_energy": -22.31, 
			 "cosmo_repulsion_energy": 1.85, 
			 "cosmo_total_nonelectrostatic_energy": 12.62, 
			 "SMD_solvation_energy": 5.8 
		},
		"coords": [
			{
				"x": 0.4717903361,
				"y": 0.1736346424,
				"z": -3.8678001445,
				"element": "C" 
			},
			{
				"x": -0.9548556157,
				"y": 0.3158086833,
				"z": -3.3226893712,
				"element": "C" 
			},
			{
				"x": -1.2427459281,
				"y": 1.6124591167,
				"z": -2.5432767237,
				"element": "C" 
			},
			{
				"x": -0.6827039589,
				"y": 1.6961721213,
				"z": -1.1179672538,
				"element": "C" 
			},
			{
				"x": 0.7832239449,
				"y": 1.8134521147,
				"z": -1.0962900769,
				"element": "N" 
			},
			{
				"x": 1.5134433084,
				"y": 1.8559169123,
				"z": 0.0908011976,
				"element": "C" 
			},
			{
				"x": 2.3845250641,
				"y": 2.6974665362,
				"z": 0.2815374286,
				"element": "O" 
			},
			{
				"x": 1.2049523918,
				"y": 0.891617148,
				"z": 1.0484961278,
				"element": "N" 
			},
			{
				"x": 1.0580884806,
				"y": -0.5355237999,
				"z": 0.7257266602,
				"element": "C" 
			},
			{
				"x": 0.6984499327,
				"y": -1.3391791663,
				"z": 1.9814552947,
				"element": "C" 
			},
			{
				"x": -0.6639759791,
				"y": -1.0018205107,
				"z": 2.6093170597,
				"element": "C" 
			},
			{
				"x": -1.8681398811,
				"y": -1.4659932512,
				"z": 1.7817368525,
				"element": "C" 
			},
			{
				"x": 0.5761361492,
				"y": -0.750184611,
				"z": -4.4469931304,
				"element": "H" 
			},
			{
				"x": 1.2102724393,
				"y": 0.1609247316,
				"z": -3.0631374528,
				"element": "H" 
			},
			{
				"x": 0.7198233096,
				"y": 1.0086022005,
				"z": -4.5340883082,
				"element": "H" 
			},
			{
				"x": -1.1934576033,
				"y": -0.5446327264,
				"z": -2.6818721445,
				"element": "H" 
			},
			{
				"x": -1.6589384117,
				"y": 0.264435282,
				"z": -4.1631169923,
				"element": "H" 
			},
			{
				"x": -0.8913973203,
				"y": 2.478895016,
				"z": -3.1229669376,
				"element": "H" 
			},
			{
				"x": -2.3297733302,
				"y": 1.7359389069,
				"z": -2.457147613,
				"element": "H" 
			},
			{
				"x": -1.1444502405,
				"y": 2.5538794565,
				"z": -0.6044174939,
				"element": "H" 
			},
			{
				"x": -0.9796342696,
				"y": 0.8059174592,
				"z": -0.5586879177,
				"element": "H" 
			},
			{
				"x": 1.1139133587,
				"y": 2.5722040888,
				"z": -1.6832438727,
				"element": "H" 
			},
			{
				"x": 1.8243153629,
				"y": 1.0417870502,
				"z": 1.8382682862,
				"element": "H" 
			},
			{
				"x": 0.2860813428,
				"y": -0.656116634,
				"z": -0.0368359646,
				"element": "H" 
			},
			{
				"x": 1.987453466,
				"y": -0.9376440135,
				"z": 0.2943987935,
				"element": "H" 
			},
			{
				"x": 1.4906026326,
				"y": -1.1858410075,
				"z": 2.7278818792,
				"element": "H" 
			},
			{
				"x": 0.7330009543,
				"y": -2.4056351736,
				"z": 1.7226626009,
				"element": "H" 
			},
			{
				"x": -0.7232232886,
				"y": 0.0803499842,
				"z": 2.7746329228,
				"element": "H" 
			},
			{
				"x": -0.7141451161,
				"y": -1.4696942812,
				"z": 3.6002773486,
				"element": "H" 
			},
			{
				"x": -2.8086293432,
				"y": -1.2254843219,
				"z": 2.2878314882,
				"element": "H" 
			},
			{
				"x": -1.9001169421,
				"y": -0.9884230041,
				"z": 0.7964744412,
				"element": "H" 
			},
			{
				"x": -1.8446852455,
				"y": -2.5502889495,
				"z": 1.6214330163,
				"element": "H" 
			}
		],
		 "valence_orbital": [ 
			{
				"type": "occ",
				"energy": -0.32964,
				"method": "rhf"
			},
			{
				"type": "occ",
				"energy": -0.32761,
				"method": "rhf"
			},
			{
				"type": "occ",
				"energy": -0.26602,
				"method": "rhf"
			},
			{
				"type": "occ",
				"energy": -0.24653,
				"method": "rhf"
			},
			{
				"type": "occ",
				"energy": -0.2319,
				"method": "rhf"
			},
			{
				"type": "unocc",
				"energy": 0.03957,
				"method": "rhf"
			},
			{
				"type": "unocc",
				"energy": 0.0603,
				"method": "rhf"
			},
			{
				"type": "unocc",
				"energy": 0.08579,
				"method": "rhf"
			},
			{
				"type": "unocc",
				"energy": 0.08943,
				"method": "rhf"
			},
			{
				"type": "unocc",
				"energy": 0.118,
				"method": "rhf"
			}
		],
		"cosmo_sigma_profile": { 
			"-0.025": 0.0,
			"-0.024": 0.0,
			"-0.023": 0.0,
			"-0.022": 0.0,
			"-0.021": 0.0,
			"-0.02": 0.0,
			"-0.019": 0.0,
			"-0.018": 0.0,
			"-0.017": 0.0,
			"-0.016": 0.0,
			"-0.015": 0.0,
			"-0.014": 0.0,
			"-0.013": 0.0,
			"-0.012": 0.248868121627,
			"-0.011": 1.68838137572,
			"-0.01": 1.80236311837,
			"-0.009": 2.08665835276,
			"-0.008": 2.24923031404,
			"-0.007": 2.6364172814,
			"-0.006": 2.67829508229,
			"-0.005": 5.04066983384,
			"-0.004": 9.08936898823,
			"-0.003": 27.4777065988,
			"-0.002": 40.4596337132,
			"-0.001": 37.6389866135,
			"0.0": 36.8938524049,
			"0.001": 32.0064909254,
			"0.002": 17.4903199612,
			"0.003": 5.6144826412,
			"0.004": 4.08670870234,
			"0.005": 3.85579537797,
			"0.006": 1.77824142243,
			"0.007": 1.41107313618,
			"0.008": 2.20272235227,
			"0.009": 1.40522555308,
			"0.01": 1.21238160746,
			"0.011": 1.40360241266,
			"0.012": 0.938048007638,
			"0.013": 2.62273719836,
			"0.014": 6.53978294678,
			"0.015": 2.59282684548,
			"0.016": 0.0,
			"0.017": 0.0,
			"0.018": 0.0,
			"0.019": 0.0,
			"0.02": 0.0,
			"0.021": 0.0,
			"0.022": 0.0,
			"0.023": 0.0,
			"0.024": 0.0,
			"0.025": 0.0
		}
	}
}
