{
	 "smiles": "NC(=O)NC(=O)CCCCl", 
	 "Tm": 453.15, 
	 "num_atms": 19, 
	 "gaussian": { 
		 "optdone": 1, 
		 "sigma_profile": "yes", 
		 "theory": "DFT", 
		 "functional": "B3LYP", 
		 "basiset": "6-31G**", 
		 "properties": { 
			 "R2extent": 3094.1548, 
			 "electric_dipole_moment_norm": 4.3665303606, 
			 "electric_quadrupole_moment_norm": 20.5884377397, 
			 "total_energy": -916.142170014, 
			 "HOMO_LUMO_gap": 0.24472, 
			 "cosmo_polarized_energy": -19.68, 
			 "cosmo_cavitation_energy": 24.75, 
			 "cosmo_dispersion_energy": -18.35, 
			 "cosmo_repulsion_energy": 1.54, 
			 "cosmo_total_nonelectrostatic_energy": 7.93, 
			 "SMD_solvation_energy": 5.44 
		},
		"coords": [
			{
				"x": 2.6893921421,
				"y": -0.3329816346,
				"z": 1.5641465445,
				"element": "N" 
			},
			{
				"x": 2.558045707,
				"y": 0.7080081927,
				"z": 0.6733174883,
				"element": "C" 
			},
			{
				"x": 3.4441113806,
				"y": 1.5148069635,
				"z": 0.4561311386,
				"element": "O" 
			},
			{
				"x": 1.3348202183,
				"y": 0.8156139122,
				"z": -0.0227171623,
				"element": "N" 
			},
			{
				"x": 0.2947597135,
				"y": -0.0489212516,
				"z": -0.3703523607,
				"element": "C" 
			},
			{
				"x": -0.544483636,
				"y": 0.3475766558,
				"z": -1.1627956032,
				"element": "O" 
			},
			{
				"x": 0.2438699455,
				"y": -1.4442681184,
				"z": 0.2385147887,
				"element": "C" 
			},
			{
				"x": -0.7936149396,
				"y": -2.3592927723,
				"z": -0.4317603987,
				"element": "C" 
			},
			{
				"x": -2.2313729558,
				"y": -1.9707128215,
				"z": -0.1035318904,
				"element": "C" 
			},
			{
				"x": -3.4040942312,
				"y": -3.173890414,
				"z": -0.7981350637,
				"element": "Cl" 
			},
			{
				"x": 1.8771218035,
				"y": -0.6809681009,
				"z": 2.049582268,
				"element": "H" 
			},
			{
				"x": 3.5303066962,
				"y": -0.2617097831,
				"z": 2.1197415217,
				"element": "H" 
			},
			{
				"x": 1.3080358531,
				"y": 1.670035432,
				"z": -0.5690395801,
				"element": "H" 
			},
			{
				"x": 1.2383095913,
				"y": -1.8977095219,
				"z": 0.1771156596,
				"element": "H" 
			},
			{
				"x": 0.0150641551,
				"y": -1.3501570662,
				"z": 1.3110340402,
				"element": "H" 
			},
			{
				"x": -0.6532095728,
				"y": -2.3402102025,
				"z": -1.5160550823,
				"element": "H" 
			},
			{
				"x": -0.6147444988,
				"y": -3.3858231578,
				"z": -0.096086907,
				"element": "H" 
			},
			{
				"x": -2.4857473672,
				"y": -1.0015964611,
				"z": -0.5275676525,
				"element": "H" 
			},
			{
				"x": -2.4117700049,
				"y": -1.9619998503,
				"z": 0.9742582514,
				"element": "H" 
			}
		],
		 "valence_orbital": [ 
			{
				"type": "occ",
				"energy": -0.30068,
				"method": "rhf"
			},
			{
				"type": "occ",
				"energy": -0.29377,
				"method": "rhf"
			},
			{
				"type": "occ",
				"energy": -0.29294,
				"method": "rhf"
			},
			{
				"type": "occ",
				"energy": -0.28533,
				"method": "rhf"
			},
			{
				"type": "occ",
				"energy": -0.26987,
				"method": "rhf"
			},
			{
				"type": "unocc",
				"energy": -0.02515,
				"method": "rhf"
			},
			{
				"type": "unocc",
				"energy": 0.02425,
				"method": "rhf"
			},
			{
				"type": "unocc",
				"energy": 0.02946,
				"method": "rhf"
			},
			{
				"type": "unocc",
				"energy": 0.06598,
				"method": "rhf"
			},
			{
				"type": "unocc",
				"energy": 0.08405,
				"method": "rhf"
			}
		],
		"cosmo_sigma_profile": { 
			"-0.025": 0.0,
			"-0.024": 0.0,
			"-0.023": 0.0,
			"-0.022": 0.0,
			"-0.021": 0.0,
			"-0.02": 0.0,
			"-0.019": 0.0,
			"-0.018": 0.0,
			"-0.017": 0.0,
			"-0.016": 0.00901744329904,
			"-0.015": 1.412358038,
			"-0.014": 3.82326499165,
			"-0.013": 2.61873100757,
			"-0.012": 3.97002364089,
			"-0.011": 2.73663122061,
			"-0.01": 3.2811188181,
			"-0.009": 3.19159098526,
			"-0.008": 4.32402181783,
			"-0.007": 6.39627325603,
			"-0.006": 8.42805710961,
			"-0.005": 10.6526930149,
			"-0.004": 15.7019215228,
			"-0.003": 12.9141066289,
			"-0.002": 10.7105604752,
			"-0.001": 9.78411106013,
			"0.0": 8.81939628684,
			"0.001": 7.74190361183,
			"0.002": 8.55121943357,
			"0.003": 6.78762076417,
			"0.004": 8.73077873003,
			"0.005": 6.96386463849,
			"0.006": 11.1791295016,
			"0.007": 11.0448204724,
			"0.008": 2.6732028912,
			"0.009": 2.6319889457,
			"0.01": 3.21800285281,
			"0.011": 4.32441709693,
			"0.012": 6.58429066575,
			"0.013": 6.642475666,
			"0.014": 0.853823897915,
			"0.015": 0.0,
			"0.016": 0.0,
			"0.017": 0.0,
			"0.018": 0.0,
			"0.019": 0.0,
			"0.02": 0.0,
			"0.021": 0.0,
			"0.022": 0.0,
			"0.023": 0.0,
			"0.024": 0.0,
			"0.025": 0.0
		}
	}
}
