{
	 "smiles": "[O-][N+](=O)C1=C(C(Cl)=CC(Cl)=C1)S(Cl)(=O)=O", 
	 "Tm": 493.15, 
	 "num_atms": 17, 
	 "gaussian": { 
		 "optdone": 1, 
		 "sigma_profile": "yes", 
		 "theory": "DFT", 
		 "functional": "B3LYP", 
		 "basiset": "6-31G**", 
		 "properties": { 
			 "R2extent": 5458.4172, 
			 "electric_dipole_moment_norm": 5.58324497134, 
			 "electric_quadrupole_moment_norm": 12.1756121842, 
			 "total_energy": -2364.04046221, 
			 "HOMO_LUMO_gap": 0.18379, 
			 "cosmo_polarized_energy": -12.47, 
			 "cosmo_cavitation_energy": 29.81, 
			 "cosmo_dispersion_energy": -21.88, 
			 "cosmo_repulsion_energy": 1.67, 
			 "cosmo_total_nonelectrostatic_energy": 9.6, 
			 "SMD_solvation_energy": 5.97 
		},
		"coords": [
			{
				"x": 0.5698092665,
				"y": -1.4042861782,
				"z": 2.7779111221,
				"element": "O" 
			},
			{
				"x": 0.4822290278,
				"y": -0.1863016939,
				"z": 2.8372389886,
				"element": "N" 
			},
			{
				"x": 0.4133412815,
				"y": 0.5058208943,
				"z": 3.8421419954,
				"element": "O" 
			},
			{
				"x": 0.5882645824,
				"y": 0.5482346467,
				"z": 1.5485048244,
				"element": "C" 
			},
			{
				"x": -0.4719714234,
				"y": 1.2583268046,
				"z": 0.9650089686,
				"element": "C" 
			},
			{
				"x": -0.1909217048,
				"y": 2.0238960948,
				"z": -0.1845565214,
				"element": "C" 
			},
			{
				"x": -1.3954880398,
				"y": 2.9811091759,
				"z": -0.9916987029,
				"element": "Cl" 
			},
			{
				"x": 1.0911584897,
				"y": 2.0406659166,
				"z": -0.7355179959,
				"element": "C" 
			},
			{
				"x": 2.1042984637,
				"y": 1.2896621804,
				"z": -0.1465120145,
				"element": "C" 
			},
			{
				"x": 3.6965748202,
				"y": 1.2999645662,
				"z": -0.8468779835,
				"element": "Cl" 
			},
			{
				"x": 1.8638899505,
				"y": 0.5367512744,
				"z": 1.0001692941,
				"element": "C" 
			},
			{
				"x": -2.1431565547,
				"y": 1.1484704958,
				"z": 1.6610293288,
				"element": "S" 
			},
			{
				"x": -3.1738987578,
				"y": 0.2123059686,
				"z": 0.0658577517,
				"element": "Cl" 
			},
			{
				"x": -2.1321353233,
				"y": 0.1707027323,
				"z": 2.7347094839,
				"element": "O" 
			},
			{
				"x": -2.6923989631,
				"y": 2.4830987454,
				"z": 1.8228454095,
				"element": "O" 
			},
			{
				"x": 1.2855098401,
				"y": 2.6338371421,
				"z": -1.6202119735,
				"element": "H" 
			},
			{
				"x": 2.6518950443,
				"y": -0.0378587661,
				"z": 1.4712580248,
				"element": "H" 
			}
		],
		 "valence_orbital": [ 
			{
				"type": "occ",
				"energy": -0.33494,
				"method": "rhf"
			},
			{
				"type": "occ",
				"energy": -0.3305,
				"method": "rhf"
			},
			{
				"type": "occ",
				"energy": -0.32668,
				"method": "rhf"
			},
			{
				"type": "occ",
				"energy": -0.30527,
				"method": "rhf"
			},
			{
				"type": "occ",
				"energy": -0.30004,
				"method": "rhf"
			},
			{
				"type": "unocc",
				"energy": -0.11625,
				"method": "rhf"
			},
			{
				"type": "unocc",
				"energy": -0.09908,
				"method": "rhf"
			},
			{
				"type": "unocc",
				"energy": -0.07909,
				"method": "rhf"
			},
			{
				"type": "unocc",
				"energy": -0.07311,
				"method": "rhf"
			},
			{
				"type": "unocc",
				"energy": -0.03548,
				"method": "rhf"
			}
		],
		"cosmo_sigma_profile": { 
			"-0.025": 0.0,
			"-0.024": 0.0,
			"-0.023": 0.0,
			"-0.022": 0.0,
			"-0.021": 0.0,
			"-0.02": 0.0,
			"-0.019": 0.0,
			"-0.018": 0.0,
			"-0.017": 0.0,
			"-0.016": 0.0,
			"-0.015": 0.0,
			"-0.014": 0.0,
			"-0.013": 0.187892686483,
			"-0.012": 1.65499525217,
			"-0.011": 2.58072969148,
			"-0.01": 3.56613806479,
			"-0.009": 3.66576427629,
			"-0.008": 3.0368192555,
			"-0.007": 5.27975387628,
			"-0.006": 6.39547566955,
			"-0.005": 11.3991583418,
			"-0.004": 18.8590828534,
			"-0.003": 23.4155605462,
			"-0.002": 15.1894136642,
			"-0.001": 14.1126240381,
			"0.0": 16.3929815097,
			"0.001": 21.0685398517,
			"0.002": 30.7375402016,
			"0.003": 13.6529649617,
			"0.004": 7.44916067326,
			"0.005": 10.8371736147,
			"0.006": 17.7768159045,
			"0.007": 15.5580441832,
			"0.008": 4.98153545079,
			"0.009": 0.0416630557234,
			"0.01": 0.0,
			"0.011": 0.0,
			"0.012": 0.0,
			"0.013": 0.0,
			"0.014": 0.0,
			"0.015": 0.0,
			"0.016": 0.0,
			"0.017": 0.0,
			"0.018": 0.0,
			"0.019": 0.0,
			"0.02": 0.0,
			"0.021": 0.0,
			"0.022": 0.0,
			"0.023": 0.0,
			"0.024": 0.0,
			"0.025": 0.0
		}
	}
}
