{
	 "smiles": "CC(C)C(=O)OC(C)(CCC=C(C)C)C=C", 
	 "Tm": 298.15, 
	 "num_atms": 40, 
	 "gaussian": { 
		 "optdone": 1, 
		 "sigma_profile": "yes", 
		 "theory": "DFT", 
		 "functional": "B3LYP", 
		 "basiset": "6-31G**", 
		 "properties": { 
			 "R2extent": 4785.2766, 
			 "electric_dipole_moment_norm": 1.28952168652, 
			 "electric_quadrupole_moment_norm": 9.65227571508, 
			 "total_energy": -698.397835489, 
			 "HOMO_LUMO_gap": 0.23685, 
			 "cosmo_polarized_energy": -7.2, 
			 "cosmo_cavitation_energy": 40.74, 
			 "cosmo_dispersion_energy": -25.59, 
			 "cosmo_repulsion_energy": 2.02, 
			 "cosmo_total_nonelectrostatic_energy": 17.16, 
			 "SMD_solvation_energy": 8.16 
		},
		"coords": [
			{
				"x": 1.2309523296,
				"y": 0.3190982958,
				"z": -4.4601955086,
				"element": "C" 
			},
			{
				"x": 1.4520128288,
				"y": -0.4493287701,
				"z": -3.1543201148,
				"element": "C" 
			},
			{
				"x": 2.240567787,
				"y": 0.3792117305,
				"z": -2.1235599553,
				"element": "C" 
			},
			{
				"x": 0.1183681429,
				"y": -0.9378197968,
				"z": -2.5878716871,
				"element": "C" 
			},
			{
				"x": -0.9656200731,
				"y": -0.6808216569,
				"z": -3.0697656572,
				"element": "O" 
			},
			{
				"x": 0.318381197,
				"y": -1.717297339,
				"z": -1.5008447196,
				"element": "O" 
			},
			{
				"x": -0.7725763724,
				"y": -2.4751861819,
				"z": -0.8848945375,
				"element": "C" 
			},
			{
				"x": -1.3974900277,
				"y": -3.4144290381,
				"z": -1.9357687214,
				"element": "C" 
			},
			{
				"x": -1.8592528186,
				"y": -1.5570858839,
				"z": -0.272038356,
				"element": "C" 
			},
			{
				"x": -1.4773554696,
				"y": -0.7194289209,
				"z": 0.9705160035,
				"element": "C" 
			},
			{
				"x": -0.5062032767,
				"y": 0.4108745923,
				"z": 0.7443305892,
				"element": "C" 
			},
			{
				"x": -0.7789045326,
				"y": 1.7245145785,
				"z": 0.681313655,
				"element": "C" 
			},
			{
				"x": 0.3254852869,
				"y": 2.739212454,
				"z": 0.5001759614,
				"element": "C" 
			},
			{
				"x": -2.15962271,
				"y": 2.326090799,
				"z": 0.7830600662,
				"element": "C" 
			},
			{
				"x": -0.1213685059,
				"y": -3.3196887446,
				"z": 0.1892005601,
				"element": "C" 
			},
			{
				"x": 1.1795229757,
				"y": -3.4197150269,
				"z": 0.455575232,
				"element": "C" 
			},
			{
				"x": 2.1928695795,
				"y": 0.6131832531,
				"z": -4.8918369311,
				"element": "H" 
			},
			{
				"x": 0.6913650679,
				"y": -0.2859737671,
				"z": -5.1928759349,
				"element": "H" 
			},
			{
				"x": 0.6407274816,
				"y": 1.2230596403,
				"z": -4.2835720127,
				"element": "H" 
			},
			{
				"x": 2.0325807814,
				"y": -1.3589906012,
				"z": -3.3624412105,
				"element": "H" 
			},
			{
				"x": 2.4224658395,
				"y": -0.1887669237,
				"z": -1.2084566948,
				"element": "H" 
			},
			{
				"x": 1.6953112263,
				"y": 1.2905781151,
				"z": -1.8589720148,
				"element": "H" 
			},
			{
				"x": 3.2073147482,
				"y": 0.6752686931,
				"z": -2.5430194224,
				"element": "H" 
			},
			{
				"x": -1.9524315614,
				"y": -2.8489523221,
				"z": -2.6851529995,
				"element": "H" 
			},
			{
				"x": -2.078989696,
				"y": -4.1163660332,
				"z": -1.4457287282,
				"element": "H" 
			},
			{
				"x": -0.6114062109,
				"y": -3.9943101972,
				"z": -2.4278399742,
				"element": "H" 
			},
			{
				"x": -2.2435881588,
				"y": -0.9099101709,
				"z": -1.0631190687,
				"element": "H" 
			},
			{
				"x": -2.6809178661,
				"y": -2.2246625439,
				"z": 0.0197153382,
				"element": "H" 
			},
			{
				"x": -1.0562472419,
				"y": -1.3901846191,
				"z": 1.7307491181,
				"element": "H" 
			},
			{
				"x": -2.411068766,
				"y": -0.3343749652,
				"z": 1.3931092448,
				"element": "H" 
			},
			{
				"x": 0.5352457109,
				"y": 0.1099818345,
				"z": 0.6420758655,
				"element": "H" 
			},
			{
				"x": 1.3105351403,
				"y": 2.2675976568,
				"z": 0.449616228,
				"element": "H" 
			},
			{
				"x": 0.3374817779,
				"y": 3.4589498236,
				"z": 1.3299597688,
				"element": "H" 
			},
			{
				"x": 0.179521313,
				"y": 3.3284718735,
				"z": -0.4154765909,
				"element": "H" 
			},
			{
				"x": -2.2137099012,
				"y": 3.0380943854,
				"z": 1.6173971393,
				"element": "H" 
			},
			{
				"x": -2.9479251464,
				"y": 1.5840854789,
				"z": 0.9214875069,
				"element": "H" 
			},
			{
				"x": -2.3966523723,
				"y": 2.8957344046,
				"z": -0.125146581,
				"element": "H" 
			},
			{
				"x": -0.8361722332,
				"y": -3.9048542846,
				"z": 0.767593772,
				"element": "H" 
			},
			{
				"x": 1.9197681309,
				"y": -2.8573061903,
				"z": -0.1019826073,
				"element": "H" 
			},
			{
				"x": 1.5388255957,
				"y": -4.0745536313,
				"z": 1.2436039791,
				"element": "H" 
			}
		],
		 "valence_orbital": [ 
			{
				"type": "occ",
				"energy": -0.313,
				"method": "rhf"
			},
			{
				"type": "occ",
				"energy": -0.29028,
				"method": "rhf"
			},
			{
				"type": "occ",
				"energy": -0.2592,
				"method": "rhf"
			},
			{
				"type": "occ",
				"energy": -0.25819,
				"method": "rhf"
			},
			{
				"type": "occ",
				"energy": -0.22414,
				"method": "rhf"
			},
			{
				"type": "unocc",
				"energy": 0.01271,
				"method": "rhf"
			},
			{
				"type": "unocc",
				"energy": 0.01765,
				"method": "rhf"
			},
			{
				"type": "unocc",
				"energy": 0.03355,
				"method": "rhf"
			},
			{
				"type": "unocc",
				"energy": 0.08101,
				"method": "rhf"
			},
			{
				"type": "unocc",
				"energy": 0.09062,
				"method": "rhf"
			}
		],
		"cosmo_sigma_profile": { 
			"-0.025": 0.0,
			"-0.024": 0.0,
			"-0.023": 0.0,
			"-0.022": 0.0,
			"-0.021": 0.0,
			"-0.02": 0.0,
			"-0.019": 0.0,
			"-0.018": 0.0,
			"-0.017": 0.0,
			"-0.016": 0.0,
			"-0.015": 0.0,
			"-0.014": 0.0,
			"-0.013": 0.0,
			"-0.012": 0.0,
			"-0.011": 0.0,
			"-0.01": 0.0,
			"-0.009": 0.0,
			"-0.008": 0.0,
			"-0.007": 0.0145928020611,
			"-0.006": 2.2319643568,
			"-0.005": 8.45816524634,
			"-0.004": 16.9375465563,
			"-0.003": 35.6265918363,
			"-0.002": 48.3045094015,
			"-0.001": 46.5266894503,
			"0.0": 48.044247608,
			"0.001": 39.5641834164,
			"0.002": 18.3329551504,
			"0.003": 12.1840434597,
			"0.004": 12.1562892264,
			"0.005": 9.34828713621,
			"0.006": 5.10709686798,
			"0.007": 2.80193296317,
			"0.008": 1.74560155338,
			"0.009": 1.55639191746,
			"0.01": 1.79858456372,
			"0.011": 1.79321041641,
			"0.012": 2.50337077779,
			"0.013": 1.3676322244,
			"0.014": 0.0,
			"0.015": 0.0,
			"0.016": 0.0,
			"0.017": 0.0,
			"0.018": 0.0,
			"0.019": 0.0,
			"0.02": 0.0,
			"0.021": 0.0,
			"0.022": 0.0,
			"0.023": 0.0,
			"0.024": 0.0,
			"0.025": 0.0
		}
	}
}
