{
	 "smiles": "OCC1=NC2=C(C=CC=C2)N1C(F)F", 
	 "Tm": 424.15, 
	 "num_atms": 22, 
	 "gaussian": { 
		 "optdone": 1, 
		 "sigma_profile": "yes", 
		 "theory": "DFT", 
		 "functional": "B3LYP", 
		 "basiset": "6-31G**", 
		 "properties": { 
			 "R2extent": 2732.4702, 
			 "electric_dipole_moment_norm": 3.99335697127, 
			 "electric_quadrupole_moment_norm": 5.58976713647, 
			 "total_energy": -732.18042628, 
			 "HOMO_LUMO_gap": 0.20805, 
			 "cosmo_polarized_energy": -10.87, 
			 "cosmo_cavitation_energy": 26.55, 
			 "cosmo_dispersion_energy": -19.57, 
			 "cosmo_repulsion_energy": 1.49, 
			 "cosmo_total_nonelectrostatic_energy": 8.46, 
			 "SMD_solvation_energy": 3.55 
		},
		"coords": [
			{
				"x": -0.1394370639,
				"y": 1.5676819169,
				"z": 3.2948370692,
				"element": "O" 
			},
			{
				"x": 0.4660505033,
				"y": 0.4572151517,
				"z": 2.6830180452,
				"element": "C" 
			},
			{
				"x": 0.1141261886,
				"y": 0.3977097861,
				"z": 1.2208524837,
				"element": "C" 
			},
			{
				"x": -0.7833843299,
				"y": 1.1771120678,
				"z": 0.6864201454,
				"element": "N" 
			},
			{
				"x": -0.8504808917,
				"y": 0.8207875327,
				"z": -0.6579509008,
				"element": "C" 
			},
			{
				"x": 0.0560289829,
				"y": -0.2271605265,
				"z": -0.9285673346,
				"element": "C" 
			},
			{
				"x": 0.2016798991,
				"y": -0.7805706377,
				"z": -2.1997143222,
				"element": "C" 
			},
			{
				"x": -0.6012930666,
				"y": -0.2496903731,
				"z": -3.2092645533,
				"element": "C" 
			},
			{
				"x": -1.511237836,
				"y": 0.7926753541,
				"z": -2.9554297062,
				"element": "C" 
			},
			{
				"x": -1.6474219987,
				"y": 1.3398432147,
				"z": -1.6822816905,
				"element": "C" 
			},
			{
				"x": 0.6660575005,
				"y": -0.4955587743,
				"z": 0.304750037,
				"element": "N" 
			},
			{
				"x": 1.7143362177,
				"y": -1.4201190718,
				"z": 0.5519033524,
				"element": "C" 
			},
			{
				"x": 2.8729127479,
				"y": -0.7716239122,
				"z": 0.860514112,
				"element": "F" 
			},
			{
				"x": 1.4088114201,
				"y": -2.1979780848,
				"z": 1.6267076083,
				"element": "F" 
			},
			{
				"x": -0.7801374916,
				"y": 1.9184577476,
				"z": 2.6541028296,
				"element": "H" 
			},
			{
				"x": 1.557951145,
				"y": 0.5134781102,
				"z": 2.7946862556,
				"element": "H" 
			},
			{
				"x": 0.1513900592,
				"y": -0.4857050101,
				"z": 3.1588833872,
				"element": "H" 
			},
			{
				"x": 0.9017415462,
				"y": -1.5825799818,
				"z": -2.4124473227,
				"element": "H" 
			},
			{
				"x": -0.5191087811,
				"y": -0.6518080177,
				"z": -4.2143222661,
				"element": "H" 
			},
			{
				"x": -2.1166801105,
				"y": 1.1761403298,
				"z": -3.770895224,
				"element": "H" 
			},
			{
				"x": -2.3454300649,
				"y": 2.1445863439,
				"z": -1.4771591359,
				"element": "H" 
			},
			{
				"x": 1.8797254246,
				"y": -2.0547931654,
				"z": -0.3217428693,
				"element": "H" 
			}
		],
		 "valence_orbital": [ 
			{
				"type": "occ",
				"energy": -0.32435,
				"method": "rhf"
			},
			{
				"type": "occ",
				"energy": -0.29702,
				"method": "rhf"
			},
			{
				"type": "occ",
				"energy": -0.26888,
				"method": "rhf"
			},
			{
				"type": "occ",
				"energy": -0.24567,
				"method": "rhf"
			},
			{
				"type": "occ",
				"energy": -0.23934,
				"method": "rhf"
			},
			{
				"type": "unocc",
				"energy": -0.03129,
				"method": "rhf"
			},
			{
				"type": "unocc",
				"energy": -0.0012,
				"method": "rhf"
			},
			{
				"type": "unocc",
				"energy": 0.02926,
				"method": "rhf"
			},
			{
				"type": "unocc",
				"energy": 0.07294,
				"method": "rhf"
			},
			{
				"type": "unocc",
				"energy": 0.08903,
				"method": "rhf"
			}
		],
		"cosmo_sigma_profile": { 
			"-0.025": 0.0,
			"-0.024": 0.0,
			"-0.023": 0.0,
			"-0.022": 0.0,
			"-0.021": 0.0,
			"-0.02": 0.0,
			"-0.019": 0.0,
			"-0.018": 0.0,
			"-0.017": 0.0,
			"-0.016": 0.0,
			"-0.015": 0.0,
			"-0.014": 0.0,
			"-0.013": 0.00460593964866,
			"-0.012": 2.62932022444,
			"-0.011": 3.23367072033,
			"-0.01": 2.70213149088,
			"-0.009": 2.46113872026,
			"-0.008": 2.34240643206,
			"-0.007": 3.30980655659,
			"-0.006": 10.361771202,
			"-0.005": 13.7645553477,
			"-0.004": 14.4280168944,
			"-0.003": 14.3667920405,
			"-0.002": 16.1276211484,
			"-0.001": 13.4952776113,
			"0.0": 11.7291634343,
			"0.001": 12.0353422982,
			"0.002": 16.4151088714,
			"0.003": 25.4520603571,
			"0.004": 17.6825785964,
			"0.005": 9.61531414406,
			"0.006": 2.99445357735,
			"0.007": 3.37516564667,
			"0.008": 2.7736796648,
			"0.009": 2.05053378994,
			"0.01": 2.03359907966,
			"0.011": 1.59522069749,
			"0.012": 2.01707700374,
			"0.013": 2.05689024291,
			"0.014": 1.56557352642,
			"0.015": 0.0,
			"0.016": 0.0,
			"0.017": 0.0,
			"0.018": 0.0,
			"0.019": 0.0,
			"0.02": 0.0,
			"0.021": 0.0,
			"0.022": 0.0,
			"0.023": 0.0,
			"0.024": 0.0,
			"0.025": 0.0
		}
	}
}
