{
	 "smiles": "OC(=O)C=CC1=C(Cl)C2=C(C=CC=C2)S1(=O)=O", 
	 "Tm": 540.15, 
	 "num_atms": 24, 
	 "gaussian": { 
		 "optdone": 1, 
		 "sigma_profile": "yes", 
		 "theory": "DFT", 
		 "functional": "B3LYP", 
		 "basiset": "6-31G**", 
		 "properties": { 
			 "R2extent": 6125.1248, 
			 "electric_dipole_moment_norm": 8.99000923526, 
			 "electric_quadrupole_moment_norm": 25.6886208275, 
			 "total_energy": -1582.55970726, 
			 "HOMO_LUMO_gap": 0.13749, 
			 "cosmo_polarized_energy": -24.94, 
			 "cosmo_cavitation_energy": 32.99, 
			 "cosmo_dispersion_energy": -24.12, 
			 "cosmo_repulsion_energy": 1.81, 
			 "cosmo_total_nonelectrostatic_energy": 10.68, 
			 "SMD_solvation_energy": 5.89 
		},
		"coords": [
			{
				"x": 2.4269021642,
				"y": -4.5070603426,
				"z": -2.3047373248,
				"element": "O" 
			},
			{
				"x": 1.3139630706,
				"y": -3.7636740706,
				"z": -2.5462032831,
				"element": "C" 
			},
			{
				"x": 0.4636044358,
				"y": -4.1719889929,
				"z": -3.3022909991,
				"element": "O" 
			},
			{
				"x": 1.2421001497,
				"y": -2.460278138,
				"z": -1.8272774337,
				"element": "C" 
			},
			{
				"x": 0.1624585255,
				"y": -1.6736248115,
				"z": -2.0124655737,
				"element": "C" 
			},
			{
				"x": -0.1138205253,
				"y": -0.3852081189,
				"z": -1.4266595163,
				"element": "C" 
			},
			{
				"x": 0.5580234667,
				"y": 0.4755861809,
				"z": -0.6239498917,
				"element": "C" 
			},
			{
				"x": 2.1557276779,
				"y": 0.2001436816,
				"z": 0.0021317975,
				"element": "Cl" 
			},
			{
				"x": -0.1293899507,
				"y": 1.729310548,
				"z": -0.2812858601,
				"element": "C" 
			},
			{
				"x": -1.4018175297,
				"y": 1.8225173661,
				"z": -0.8638767143,
				"element": "C" 
			},
			{
				"x": -2.2314005374,
				"y": 2.9140044082,
				"z": -0.6799382916,
				"element": "C" 
			},
			{
				"x": -1.7613410244,
				"y": 3.9614047379,
				"z": 0.123917878,
				"element": "C" 
			},
			{
				"x": -0.4963982203,
				"y": 3.8890820304,
				"z": 0.7130367399,
				"element": "C" 
			},
			{
				"x": 0.329246154,
				"y": 2.7774955771,
				"z": 0.5179823,
				"element": "C" 
			},
			{
				"x": -1.7368195657,
				"y": 0.3493190098,
				"z": -1.8268317257,
				"element": "S" 
			},
			{
				"x": -2.8071490279,
				"y": -0.4436169207,
				"z": -1.2105250682,
				"element": "O" 
			},
			{
				"x": -1.7960493426,
				"y": 0.6578205746,
				"z": -3.2606012958,
				"element": "O" 
			},
			{
				"x": 3.012478086,
				"y": -4.0542951429,
				"z": -1.6821637812,
				"element": "H" 
			},
			{
				"x": 2.0548597901,
				"y": -2.1716239943,
				"z": -1.1697963613,
				"element": "H" 
			},
			{
				"x": -0.5976464411,
				"y": -2.0621650812,
				"z": -2.689398927,
				"element": "H" 
			},
			{
				"x": -3.2114390091,
				"y": 2.9565511834,
				"z": -1.1435366746,
				"element": "H" 
			},
			{
				"x": -2.3862115848,
				"y": 4.8334026963,
				"z": 0.2881429826,
				"element": "H" 
			},
			{
				"x": -0.1462717072,
				"y": 4.7081881384,
				"z": 1.3332924542,
				"element": "H" 
			},
			{
				"x": 1.3096909453,
				"y": 2.7278094807,
				"z": 0.9787345703,
				"element": "H" 
			}
		],
		 "valence_orbital": [ 
			{
				"type": "occ",
				"energy": -0.30903,
				"method": "rhf"
			},
			{
				"type": "occ",
				"energy": -0.30787,
				"method": "rhf"
			},
			{
				"type": "occ",
				"energy": -0.28895,
				"method": "rhf"
			},
			{
				"type": "occ",
				"energy": -0.27992,
				"method": "rhf"
			},
			{
				"type": "occ",
				"energy": -0.25385,
				"method": "rhf"
			},
			{
				"type": "unocc",
				"energy": -0.11636,
				"method": "rhf"
			},
			{
				"type": "unocc",
				"energy": -0.05715,
				"method": "rhf"
			},
			{
				"type": "unocc",
				"energy": -0.03456,
				"method": "rhf"
			},
			{
				"type": "unocc",
				"energy": -0.01377,
				"method": "rhf"
			},
			{
				"type": "unocc",
				"energy": 0.01533,
				"method": "rhf"
			}
		],
		"cosmo_sigma_profile": { 
			"-0.025": 0.0,
			"-0.024": 0.0,
			"-0.023": 0.0,
			"-0.022": 0.0,
			"-0.021": 0.0,
			"-0.02": 0.447053113112,
			"-0.019": 1.38192315736,
			"-0.018": 1.28322521416,
			"-0.017": 1.2102729938,
			"-0.016": 0.909386693276,
			"-0.015": 0.532535945381,
			"-0.014": 0.871495991741,
			"-0.013": 1.2973206855,
			"-0.012": 1.58224349844,
			"-0.011": 0.912082525345,
			"-0.01": 0.97548832307,
			"-0.009": 3.62871299285,
			"-0.008": 7.96890335209,
			"-0.007": 12.3649520438,
			"-0.006": 10.8701935237,
			"-0.005": 12.0306804443,
			"-0.004": 14.7643361853,
			"-0.003": 21.7907774881,
			"-0.002": 19.9951366271,
			"-0.001": 21.2745994527,
			"0.0": 25.0526907397,
			"0.001": 23.6883395331,
			"0.002": 11.8595025768,
			"0.003": 4.37221216488,
			"0.004": 3.95665494373,
			"0.005": 3.4247061876,
			"0.006": 5.29057110246,
			"0.007": 5.3293688289,
			"0.008": 5.70937406767,
			"0.009": 8.99252348019,
			"0.01": 18.7737374441,
			"0.011": 10.4644962233,
			"0.012": 4.22178518812,
			"0.013": 1.26045861916,
			"0.014": 0.0,
			"0.015": 0.0,
			"0.016": 0.0,
			"0.017": 0.0,
			"0.018": 0.0,
			"0.019": 0.0,
			"0.02": 0.0,
			"0.021": 0.0,
			"0.022": 0.0,
			"0.023": 0.0,
			"0.024": 0.0,
			"0.025": 0.0
		}
	}
}
