{
	 "smiles": "CC1=CC=C(C=C1)N1NC(=CC1=N)C1=CC=CO1", 
	 "Tm": 367.15, 
	 "num_atms": 31, 
	 "gaussian": { 
		 "optdone": 1, 
		 "sigma_profile": "yes", 
		 "theory": "DFT", 
		 "functional": "B3LYP", 
		 "basiset": "6-31G**", 
		 "properties": { 
			 "R2extent": 6506.8665, 
			 "electric_dipole_moment_norm": 4.7008079029, 
			 "electric_quadrupole_moment_norm": 13.964883983, 
			 "total_energy": -780.735715711, 
			 "HOMO_LUMO_gap": 0.13424, 
			 "cosmo_polarized_energy": -14.87, 
			 "cosmo_cavitation_energy": 35.47, 
			 "cosmo_dispersion_energy": -25.86, 
			 "cosmo_repulsion_energy": 1.96, 
			 "cosmo_total_nonelectrostatic_energy": 11.57, 
			 "SMD_solvation_energy": 6.32 
		},
		"coords": [
			{
				"x": 2.4806518354,
				"y": -3.2271290669,
				"z": 4.4617466649,
				"element": "C" 
			},
			{
				"x": 1.9626276257,
				"y": -2.3289815585,
				"z": 3.3632526846,
				"element": "C" 
			},
			{
				"x": 2.3113054007,
				"y": -2.5476333915,
				"z": 2.0228282454,
				"element": "C" 
			},
			{
				"x": 1.8238450962,
				"y": -1.7524446037,
				"z": 0.9903532583,
				"element": "C" 
			},
			{
				"x": 0.9630904521,
				"y": -0.681457797,
				"z": 1.2883976729,
				"element": "C" 
			},
			{
				"x": 0.612371865,
				"y": -0.4370209956,
				"z": 2.62502807,
				"element": "C" 
			},
			{
				"x": 1.1081397054,
				"y": -1.2567113189,
				"z": 3.638103295,
				"element": "C" 
			},
			{
				"x": 0.4210672532,
				"y": 0.111371528,
				"z": 0.2550836275,
				"element": "N" 
			},
			{
				"x": -0.5653693308,
				"y": 1.0605623097,
				"z": 0.6002587922,
				"element": "N" 
			},
			{
				"x": -0.7413756375,
				"y": 1.870714827,
				"z": -0.5225916397,
				"element": "C" 
			},
			{
				"x": 0.1920608457,
				"y": 1.5754234961,
				"z": -1.4650253081,
				"element": "C" 
			},
			{
				"x": 0.9797914865,
				"y": 0.4400190751,
				"z": -1.0019904656,
				"element": "C" 
			},
			{
				"x": 1.9708274596,
				"y": -0.2031468314,
				"z": -1.5159488644,
				"element": "N" 
			},
			{
				"x": -1.8103425722,
				"y": 2.8406599781,
				"z": -0.5320247844,
				"element": "C" 
			},
			{
				"x": -2.2407121719,
				"y": 3.7641162058,
				"z": -1.4495563696,
				"element": "C" 
			},
			{
				"x": -3.3701727862,
				"y": 4.4166248527,
				"z": -0.8682821286,
				"element": "C" 
			},
			{
				"x": -3.5534643114,
				"y": 3.8453925247,
				"z": 0.35572833,
				"element": "C" 
			},
			{
				"x": -2.6143181162,
				"y": 2.8848215278,
				"z": 0.5787010921,
				"element": "O" 
			},
			{
				"x": 1.9629496105,
				"y": -4.1948501474,
				"z": 4.4681097053,
				"element": "H" 
			},
			{
				"x": 3.5487649888,
				"y": -3.4364439703,
				"z": 4.338843424,
				"element": "H" 
			},
			{
				"x": 2.3392037217,
				"y": -2.7745665789,
				"z": 5.4477592119,
				"element": "H" 
			},
			{
				"x": 2.9825905225,
				"y": -3.366555966,
				"z": 1.7739626958,
				"element": "H" 
			},
			{
				"x": 2.1150472592,
				"y": -1.9225063678,
				"z": -0.0370921945,
				"element": "H" 
			},
			{
				"x": -0.0170676278,
				"y": 0.408748223,
				"z": 2.8765326137,
				"element": "H" 
			},
			{
				"x": 0.8285235526,
				"y": -1.044548637,
				"z": 4.6674139506,
				"element": "H" 
			},
			{
				"x": -1.4112057662,
				"y": 0.620886361,
				"z": 0.9589270727,
				"element": "H" 
			},
			{
				"x": 0.3593228707,
				"y": 2.0895245823,
				"z": -2.3998577723,
				"element": "H" 
			},
			{
				"x": 2.2246849881,
				"y": 0.2271746297,
				"z": -2.4043498341,
				"element": "H" 
			},
			{
				"x": -1.8043474671,
				"y": 3.9516820567,
				"z": -2.4197004015,
				"element": "H" 
			},
			{
				"x": -3.9653282146,
				"y": 5.2050971244,
				"z": -1.3053060721,
				"element": "H" 
			},
			{
				"x": -4.2653625377,
				"y": 4.000077929,
				"z": 1.1512954282,
				"element": "H" 
			}
		],
		 "valence_orbital": [ 
			{
				"type": "occ",
				"energy": -0.24931,
				"method": "rhf"
			},
			{
				"type": "occ",
				"energy": -0.24721,
				"method": "rhf"
			},
			{
				"type": "occ",
				"energy": -0.23688,
				"method": "rhf"
			},
			{
				"type": "occ",
				"energy": -0.21241,
				"method": "rhf"
			},
			{
				"type": "occ",
				"energy": -0.18423,
				"method": "rhf"
			},
			{
				"type": "unocc",
				"energy": -0.04999,
				"method": "rhf"
			},
			{
				"type": "unocc",
				"energy": 0.00982,
				"method": "rhf"
			},
			{
				"type": "unocc",
				"energy": 0.01547,
				"method": "rhf"
			},
			{
				"type": "unocc",
				"energy": 0.03387,
				"method": "rhf"
			},
			{
				"type": "unocc",
				"energy": 0.06913,
				"method": "rhf"
			}
		],
		"cosmo_sigma_profile": { 
			"-0.025": 0.0,
			"-0.024": 0.0,
			"-0.023": 0.0,
			"-0.022": 0.0,
			"-0.021": 0.0,
			"-0.02": 0.0,
			"-0.019": 0.0,
			"-0.018": 0.0,
			"-0.017": 0.0,
			"-0.016": 0.0,
			"-0.015": 0.260755796342,
			"-0.014": 1.13957447811,
			"-0.013": 0.773949238705,
			"-0.012": 0.927160908283,
			"-0.011": 1.12329775771,
			"-0.01": 2.2396145797,
			"-0.009": 4.28114879791,
			"-0.008": 8.00506799265,
			"-0.007": 10.8783603634,
			"-0.006": 9.32950529197,
			"-0.005": 14.0011184635,
			"-0.004": 18.5071983204,
			"-0.003": 19.7767348283,
			"-0.002": 17.4539843378,
			"-0.001": 18.9584866319,
			"0.0": 20.6406218977,
			"0.001": 22.7322354207,
			"0.002": 21.4872951435,
			"0.003": 26.4687300054,
			"0.004": 20.2168625253,
			"0.005": 13.0630003939,
			"0.006": 13.1504254751,
			"0.007": 3.97064179419,
			"0.008": 2.28669106732,
			"0.009": 1.49491261426,
			"0.01": 2.15423276132,
			"0.011": 1.4596190253,
			"0.012": 1.48864687011,
			"0.013": 1.91525853989,
			"0.014": 2.30038840967,
			"0.015": 1.216199092,
			"0.016": 0.351378079703,
			"0.017": 0.0,
			"0.018": 0.0,
			"0.019": 0.0,
			"0.02": 0.0,
			"0.021": 0.0,
			"0.022": 0.0,
			"0.023": 0.0,
			"0.024": 0.0,
			"0.025": 0.0
		}
	}
}
