{
	 "smiles": "COC1=C(OC(F)F)C(=CC=C1)C(O)=O", 
	 "Tm": 426.15, 
	 "num_atms": 23, 
	 "gaussian": { 
		 "optdone": 1, 
		 "sigma_profile": "yes", 
		 "theory": "DFT", 
		 "functional": "B3LYP", 
		 "basiset": "6-31G**", 
		 "properties": { 
			 "R2extent": 3398.5335, 
			 "electric_dipole_moment_norm": 5.74372502388, 
			 "electric_quadrupole_moment_norm": 17.831303645, 
			 "total_energy": -848.339214003, 
			 "HOMO_LUMO_gap": 0.2052, 
			 "cosmo_polarized_energy": -13.13, 
			 "cosmo_cavitation_energy": 28.08, 
			 "cosmo_dispersion_energy": -19.99, 
			 "cosmo_repulsion_energy": 1.51, 
			 "cosmo_total_nonelectrostatic_energy": 9.61, 
			 "SMD_solvation_energy": 7.68 
		},
		"coords": [
			{
				"x": 2.0353637512,
				"y": 1.0255228572,
				"z": -1.5167573593,
				"element": "C" 
			},
			{
				"x": 0.8178144446,
				"y": 0.2806054232,
				"z": -1.686677491,
				"element": "O" 
			},
			{
				"x": -0.0408407651,
				"y": 0.3224562608,
				"z": -0.6127571578,
				"element": "C" 
			},
			{
				"x": 0.1567652312,
				"y": -0.5352181847,
				"z": 0.4813682833,
				"element": "C" 
			},
			{
				"x": 1.2902335254,
				"y": -1.352442226,
				"z": 0.5099017434,
				"element": "O" 
			},
			{
				"x": 1.4916997536,
				"y": -2.2518246734,
				"z": -0.5369614395,
				"element": "C" 
			},
			{
				"x": 2.7185284426,
				"y": -2.0317672625,
				"z": -1.049274633,
				"element": "F" 
			},
			{
				"x": 1.4924982814,
				"y": -3.4970343803,
				"z": -0.0052561928,
				"element": "F" 
			},
			{
				"x": -0.7223326435,
				"y": -0.5318707463,
				"z": 1.5751138153,
				"element": "C" 
			},
			{
				"x": -1.8194786048,
				"y": 0.3419484219,
				"z": 1.5351998868,
				"element": "C" 
			},
			{
				"x": -2.037905764,
				"y": 1.176458749,
				"z": 0.4444425252,
				"element": "C" 
			},
			{
				"x": -1.1477987615,
				"y": 1.1693357317,
				"z": -0.6305188078,
				"element": "C" 
			},
			{
				"x": -0.6003089455,
				"y": -1.3931283681,
				"z": 2.8156613244,
				"element": "C" 
			},
			{
				"x": 0.4447640546,
				"y": -2.2315899191,
				"z": 2.9097223501,
				"element": "O" 
			},
			{
				"x": -1.4213917323,
				"y": -1.3278032799,
				"z": 3.7032308653,
				"element": "O" 
			},
			{
				"x": 2.5910858828,
				"y": 0.9124692784,
				"z": -2.4485373891,
				"element": "H" 
			},
			{
				"x": 2.6307613372,
				"y": 0.6301176857,
				"z": -0.6882519797,
				"element": "H" 
			},
			{
				"x": 1.8171766818,
				"y": 2.0855320193,
				"z": -1.3439965349,
				"element": "H" 
			},
			{
				"x": 0.7319899041,
				"y": -2.1725528672,
				"z": -1.3150092492,
				"element": "H" 
			},
			{
				"x": -2.4906235001,
				"y": 0.33112879,
				"z": 2.386196742,
				"element": "H" 
			},
			{
				"x": -2.8983242476,
				"y": 1.8377749681,
				"z": 0.4301966664,
				"element": "H" 
			},
			{
				"x": -1.2905950907,
				"y": 1.8104053576,
				"z": -1.4945646386,
				"element": "H" 
			},
			{
				"x": 1.0079187648,
				"y": -2.1669236355,
				"z": 2.1184286705,
				"element": "H" 
			}
		],
		 "valence_orbital": [ 
			{
				"type": "occ",
				"energy": -0.30993,
				"method": "rhf"
			},
			{
				"type": "occ",
				"energy": -0.30361,
				"method": "rhf"
			},
			{
				"type": "occ",
				"energy": -0.27647,
				"method": "rhf"
			},
			{
				"type": "occ",
				"energy": -0.27247,
				"method": "rhf"
			},
			{
				"type": "occ",
				"energy": -0.26411,
				"method": "rhf"
			},
			{
				"type": "unocc",
				"energy": -0.05891,
				"method": "rhf"
			},
			{
				"type": "unocc",
				"energy": -0.02669,
				"method": "rhf"
			},
			{
				"type": "unocc",
				"energy": 0.04746,
				"method": "rhf"
			},
			{
				"type": "unocc",
				"energy": 0.05928,
				"method": "rhf"
			},
			{
				"type": "unocc",
				"energy": 0.09628,
				"method": "rhf"
			}
		],
		"cosmo_sigma_profile": { 
			"-0.025": 0.0,
			"-0.024": 0.0,
			"-0.023": 0.0,
			"-0.022": 0.0,
			"-0.021": 0.0,
			"-0.02": 0.0,
			"-0.019": 0.0,
			"-0.018": 0.0,
			"-0.017": 0.0,
			"-0.016": 0.0,
			"-0.015": 0.0,
			"-0.014": 0.0,
			"-0.013": 0.0,
			"-0.012": 0.0719348349756,
			"-0.011": 2.09816701438,
			"-0.01": 2.45838045534,
			"-0.009": 2.4029500842,
			"-0.008": 4.52151913019,
			"-0.007": 7.2731249581,
			"-0.006": 11.6000616044,
			"-0.005": 14.9698481591,
			"-0.004": 16.2834261791,
			"-0.003": 19.6300663527,
			"-0.002": 13.8165118194,
			"-0.001": 13.45760657,
			"0.0": 13.9343024698,
			"0.001": 18.5067663272,
			"0.002": 19.334268211,
			"0.003": 24.6780073937,
			"0.004": 5.96815114755,
			"0.005": 3.24810352289,
			"0.006": 3.24149339543,
			"0.007": 2.94151684332,
			"0.008": 3.85766201672,
			"0.009": 3.7864424306,
			"0.01": 4.83498699628,
			"0.011": 6.07087364865,
			"0.012": 4.17523611633,
			"0.013": 1.72677699661,
			"0.014": 0.119506666883,
			"0.015": 0.0,
			"0.016": 0.0,
			"0.017": 0.0,
			"0.018": 0.0,
			"0.019": 0.0,
			"0.02": 0.0,
			"0.021": 0.0,
			"0.022": 0.0,
			"0.023": 0.0,
			"0.024": 0.0,
			"0.025": 0.0
		}
	}
}
