{
	 "smiles": "CN(CCO)C(=O)COC(=O)C1=CC=CC=C1CC(C)=O", 
	 "Tm": 343.65, 
	 "num_atms": 40, 
	 "gaussian": { 
		 "optdone": 1, 
		 "sigma_profile": "yes", 
		 "theory": "DFT", 
		 "functional": "B3LYP", 
		 "basiset": "6-31G**", 
		 "properties": { 
			 "R2extent": 6672.811, 
			 "electric_dipole_moment_norm": 7.22053598426, 
			 "electric_quadrupole_moment_norm": 12.6037542316, 
			 "total_energy": -1013.92741309, 
			 "HOMO_LUMO_gap": 0.17348, 
			 "cosmo_polarized_energy": -22.42, 
			 "cosmo_cavitation_energy": 42.02, 
			 "cosmo_dispersion_energy": -28.19, 
			 "cosmo_repulsion_energy": 2.15, 
			 "cosmo_total_nonelectrostatic_energy": 15.98, 
			 "SMD_solvation_energy": 8.12 
		},
		"coords": [
			{
				"x": -2.2697924388,
				"y": -2.1300030991,
				"z": 0.5435234885,
				"element": "C" 
			},
			{
				"x": -1.2794606314,
				"y": -2.4735528373,
				"z": 1.5567801256,
				"element": "N" 
			},
			{
				"x": -0.8652151496,
				"y": -3.8824673095,
				"z": 1.6200815941,
				"element": "C" 
			},
			{
				"x": 0.5131135988,
				"y": -4.1019747202,
				"z": 0.9746334423,
				"element": "C" 
			},
			{
				"x": 0.5924932654,
				"y": -3.5369734702,
				"z": -0.3248464636,
				"element": "O" 
			},
			{
				"x": -0.5953228047,
				"y": -1.5979624369,
				"z": 2.3464044497,
				"element": "C" 
			},
			{
				"x": 0.1485189448,
				"y": -1.9728486082,
				"z": 3.2494778325,
				"element": "O" 
			},
			{
				"x": -0.7568295569,
				"y": -0.0777649309,
				"z": 2.1738241558,
				"element": "C" 
			},
			{
				"x": -0.922208059,
				"y": 0.4627800698,
				"z": 0.8435607621,
				"element": "O" 
			},
			{
				"x": 0.0559562072,
				"y": 0.1893400316,
				"z": -0.0500640839,
				"element": "C" 
			},
			{
				"x": 0.9299480473,
				"y": -0.6307722741,
				"z": 0.1709953956,
				"element": "O" 
			},
			{
				"x": -0.0942156658,
				"y": 0.9092267868,
				"z": -1.3485577637,
				"element": "C" 
			},
			{
				"x": 0.459806312,
				"y": 0.2497519488,
				"z": -2.4573772172,
				"element": "C" 
			},
			{
				"x": 0.381483387,
				"y": 0.795300447,
				"z": -3.7339915804,
				"element": "C" 
			},
			{
				"x": -0.2422004934,
				"y": 2.0298608598,
				"z": -3.9106590667,
				"element": "C" 
			},
			{
				"x": -0.7712695365,
				"y": 2.702680924,
				"z": -2.8103364076,
				"element": "C" 
			},
			{
				"x": -0.7171422032,
				"y": 2.1677875218,
				"z": -1.51630539,
				"element": "C" 
			},
			{
				"x": -1.2741563565,
				"y": 3.0021750433,
				"z": -0.3865964009,
				"element": "C" 
			},
			{
				"x": -0.2381768722,
				"y": 3.4725295159,
				"z": 0.6462904218,
				"element": "C" 
			},
			{
				"x": -0.6127263584,
				"y": 4.7157695711,
				"z": 1.4309110075,
				"element": "C" 
			},
			{
				"x": 0.803743758,
				"y": 2.8799829282,
				"z": 0.840939421,
				"element": "O" 
			},
			{
				"x": -3.1432482766,
				"y": -2.7819752942,
				"z": 0.6571987581,
				"element": "H" 
			},
			{
				"x": -2.599734375,
				"y": -1.0987971055,
				"z": 0.6508377731,
				"element": "H" 
			},
			{
				"x": -1.8639435243,
				"y": -2.2735136155,
				"z": -0.4643534667,
				"element": "H" 
			},
			{
				"x": -0.8415217795,
				"y": -4.2087039913,
				"z": 2.6644153867,
				"element": "H" 
			},
			{
				"x": -1.6234775491,
				"y": -4.4635017734,
				"z": 1.0880133225,
				"element": "H" 
			},
			{
				"x": 1.2859740788,
				"y": -3.6933688804,
				"z": 1.6355711961,
				"element": "H" 
			},
			{
				"x": 0.6874480883,
				"y": -5.1807468503,
				"z": 0.8804703199,
				"element": "H" 
			},
			{
				"x": 0.8352421673,
				"y": -2.6047906106,
				"z": -0.2118042471,
				"element": "H" 
			},
			{
				"x": -1.6407005825,
				"y": 0.2699428802,
				"z": 2.7155115365,
				"element": "H" 
			},
			{
				"x": 0.1366389753,
				"y": 0.355274008,
				"z": 2.6248774079,
				"element": "H" 
			},
			{
				"x": 0.9517052345,
				"y": -0.7026755557,
				"z": -2.2941222447,
				"element": "H" 
			},
			{
				"x": 0.8048992906,
				"y": 0.2631611609,
				"z": -4.5800861616,
				"element": "H" 
			},
			{
				"x": -0.3114967247,
				"y": 2.4744537826,
				"z": -4.8992310384,
				"element": "H" 
			},
			{
				"x": -1.2372192493,
				"y": 3.6738863335,
				"z": -2.9551818376,
				"element": "H" 
			},
			{
				"x": -2.0242966593,
				"y": 2.4444369093,
				"z": 0.1865390288,
				"element": "H" 
			},
			{
				"x": -1.7880921888,
				"y": 3.8791883312,
				"z": -0.7945929579,
				"element": "H" 
			},
			{
				"x": -0.5677345209,
				"y": 5.5924711985,
				"z": 0.7732872217,
				"element": "H" 
			},
			{
				"x": 0.0817638206,
				"y": 4.8541451211,
				"z": 2.2604657489,
				"element": "H" 
			},
			{
				"x": -1.6404536194,
				"y": 4.6505479898,
				"z": 1.8053965312,
				"element": "H" 
			}
		],
		 "valence_orbital": [ 
			{
				"type": "occ",
				"energy": -0.26369,
				"method": "rhf"
			},
			{
				"type": "occ",
				"energy": -0.25967,
				"method": "rhf"
			},
			{
				"type": "occ",
				"energy": -0.25211,
				"method": "rhf"
			},
			{
				"type": "occ",
				"energy": -0.243,
				"method": "rhf"
			},
			{
				"type": "occ",
				"energy": -0.22644,
				"method": "rhf"
			},
			{
				"type": "unocc",
				"energy": -0.05296,
				"method": "rhf"
			},
			{
				"type": "unocc",
				"energy": -0.02532,
				"method": "rhf"
			},
			{
				"type": "unocc",
				"energy": -0.01561,
				"method": "rhf"
			},
			{
				"type": "unocc",
				"energy": 0.02396,
				"method": "rhf"
			},
			{
				"type": "unocc",
				"energy": 0.0369,
				"method": "rhf"
			}
		],
		"cosmo_sigma_profile": { 
			"-0.025": 0.0,
			"-0.024": 0.0,
			"-0.023": 0.0,
			"-0.022": 0.0,
			"-0.021": 0.0,
			"-0.02": 0.0,
			"-0.019": 0.0,
			"-0.018": 0.0,
			"-0.017": 0.0,
			"-0.016": 0.0,
			"-0.015": 0.0,
			"-0.014": 0.0,
			"-0.013": 0.0,
			"-0.012": 0.0,
			"-0.011": 0.0,
			"-0.01": 0.0,
			"-0.009": 0.787659300793,
			"-0.008": 3.46680846193,
			"-0.007": 9.29393326554,
			"-0.006": 23.7354437156,
			"-0.005": 29.1038265749,
			"-0.004": 35.573337317,
			"-0.003": 35.2850657374,
			"-0.002": 33.3641680847,
			"-0.001": 23.4210673376,
			"0.0": 17.4625706153,
			"0.001": 15.4778988679,
			"0.002": 13.4649759068,
			"0.003": 14.8280810116,
			"0.004": 15.190085424,
			"0.005": 6.25276608953,
			"0.006": 7.22823995591,
			"0.007": 5.64241180824,
			"0.008": 5.72627021565,
			"0.009": 6.66725164165,
			"0.01": 6.09211070797,
			"0.011": 5.98700181041,
			"0.012": 4.37337665616,
			"0.013": 5.11069482038,
			"0.014": 5.43119480204,
			"0.015": 2.21904476346,
			"0.016": 0.0144122264559,
			"0.017": 0.0,
			"0.018": 0.0,
			"0.019": 0.0,
			"0.02": 0.0,
			"0.021": 0.0,
			"0.022": 0.0,
			"0.023": 0.0,
			"0.024": 0.0,
			"0.025": 0.0
		}
	}
}
