{
	 "smiles": "OC1=CC=C2C=CC=CC2=C1", 
	 "Tm": 395.15, 
	 "num_atms": 19, 
	 "gaussian": { 
		 "optdone": 1, 
		 "sigma_profile": "yes", 
		 "theory": "DFT", 
		 "functional": "B3LYP", 
		 "basiset": "6-31G**", 
		 "properties": { 
			 "R2extent": 2101.5478, 
			 "electric_dipole_moment_norm": 1.06393325449, 
			 "electric_quadrupole_moment_norm": 9.8466609833, 
			 "total_energy": -461.116779235, 
			 "HOMO_LUMO_gap": 0.17184, 
			 "cosmo_polarized_energy": -8.75, 
			 "cosmo_cavitation_energy": 22.67, 
			 "cosmo_dispersion_energy": -17.16, 
			 "cosmo_repulsion_energy": 1.35, 
			 "cosmo_total_nonelectrostatic_energy": 6.86, 
			 "SMD_solvation_energy": 3.95 
		},
		"coords": [
			{
				"x": 4.4339899965,
				"y": -0.2946288785,
				"z": -0.4593788734,
				"element": "O" 
			},
			{
				"x": 3.0925736557,
				"y": -0.5489214424,
				"z": -0.5057957004,
				"element": "C" 
			},
			{
				"x": 2.7156150337,
				"y": -1.8116331129,
				"z": -1.0344785297,
				"element": "C" 
			},
			{
				"x": 1.387747309,
				"y": -2.1500564607,
				"z": -1.1179206681,
				"element": "C" 
			},
			{
				"x": 0.3675169173,
				"y": -1.258900519,
				"z": -0.6837283106,
				"element": "C" 
			},
			{
				"x": -1.0114233078,
				"y": -1.5865136657,
				"z": -0.7600600662,
				"element": "C" 
			},
			{
				"x": -1.9744612291,
				"y": -0.7001639939,
				"z": -0.3306732946,
				"element": "C" 
			},
			{
				"x": -1.5937747775,
				"y": 0.5580494077,
				"z": 0.1958770942,
				"element": "C" 
			},
			{
				"x": -0.2639651887,
				"y": 0.9064307148,
				"z": 0.2835197211,
				"element": "C" 
			},
			{
				"x": 0.7538292883,
				"y": 0.0145451423,
				"z": -0.1508755258,
				"element": "C" 
			},
			{
				"x": 2.1333167513,
				"y": 0.3432874343,
				"z": -0.0740755006,
				"element": "C" 
			},
			{
				"x": 4.5751768054,
				"y": 0.5849871097,
				"z": -0.0852996155,
				"element": "H" 
			},
			{
				"x": 3.4984614332,
				"y": -2.4867714921,
				"z": -1.3639121547,
				"element": "H" 
			},
			{
				"x": 1.1001564366,
				"y": -3.1169596649,
				"z": -1.5228478009,
				"element": "H" 
			},
			{
				"x": -1.2954401544,
				"y": -2.5545672916,
				"z": -1.1656362684,
				"element": "H" 
			},
			{
				"x": -3.0264702738,
				"y": -0.9620877497,
				"z": -0.3941044796,
				"element": "H" 
			},
			{
				"x": -2.3586884983,
				"y": 1.2521295322,
				"z": 0.5326770633,
				"element": "H" 
			},
			{
				"x": 0.0246914751,
				"y": 1.8732765089,
				"z": 0.6883675005,
				"element": "H" 
			},
			{
				"x": 2.4249483275,
				"y": 1.3108984216,
				"z": 0.3309454095,
				"element": "H" 
			}
		],
		 "valence_orbital": [ 
			{
				"type": "occ",
				"energy": -0.32849,
				"method": "rhf"
			},
			{
				"type": "occ",
				"energy": -0.30423,
				"method": "rhf"
			},
			{
				"type": "occ",
				"energy": -0.2784,
				"method": "rhf"
			},
			{
				"type": "occ",
				"energy": -0.22946,
				"method": "rhf"
			},
			{
				"type": "occ",
				"energy": -0.20539,
				"method": "rhf"
			},
			{
				"type": "unocc",
				"energy": -0.03355,
				"method": "rhf"
			},
			{
				"type": "unocc",
				"energy": 0.00066,
				"method": "rhf"
			},
			{
				"type": "unocc",
				"energy": 0.0359,
				"method": "rhf"
			},
			{
				"type": "unocc",
				"energy": 0.07029,
				"method": "rhf"
			},
			{
				"type": "unocc",
				"energy": 0.09785,
				"method": "rhf"
			}
		],
		"cosmo_sigma_profile": { 
			"-0.025": 0.0,
			"-0.024": 0.0,
			"-0.023": 0.0,
			"-0.022": 0.0,
			"-0.021": 0.0,
			"-0.02": 0.0,
			"-0.019": 0.0,
			"-0.018": 0.377826055716,
			"-0.017": 1.13627231904,
			"-0.016": 0.856388009846,
			"-0.015": 0.943397433489,
			"-0.014": 1.36316386872,
			"-0.013": 0.719246017486,
			"-0.012": 0.947957533291,
			"-0.011": 0.536653771384,
			"-0.01": 1.45249978824,
			"-0.009": 0.861511021224,
			"-0.008": 1.444741561,
			"-0.007": 1.32328743335,
			"-0.006": 8.89557725156,
			"-0.005": 14.8835461925,
			"-0.004": 13.1665947202,
			"-0.003": 13.0860798192,
			"-0.002": 9.5701151021,
			"-0.001": 10.0723431391,
			"0.0": 7.30708701571,
			"0.001": 8.26112617126,
			"0.002": 11.0359742635,
			"0.003": 13.9829431807,
			"0.004": 22.6197059898,
			"0.005": 20.7552891679,
			"0.006": 7.8781569226,
			"0.007": 1.29231394014,
			"0.008": 1.24089066707,
			"0.009": 1.34152816291,
			"0.01": 1.45728968812,
			"0.011": 2.21583032371,
			"0.012": 0.445101560223,
			"0.013": 0.0,
			"0.014": 0.0,
			"0.015": 0.0,
			"0.016": 0.0,
			"0.017": 0.0,
			"0.018": 0.0,
			"0.019": 0.0,
			"0.02": 0.0,
			"0.021": 0.0,
			"0.022": 0.0,
			"0.023": 0.0,
			"0.024": 0.0,
			"0.025": 0.0
		}
	}
}
