{
	 "smiles": "OC1=CC=CC=C1C=NN1C(S)=NN=C1C(F)(F)F", 
	 "Tm": 428.15, 
	 "num_atms": 26, 
	 "gaussian": { 
		 "optdone": 1, 
		 "sigma_profile": "yes", 
		 "theory": "DFT", 
		 "functional": "B3LYP", 
		 "basiset": "6-31G**", 
		 "properties": { 
			 "R2extent": 6991.9054, 
			 "electric_dipole_moment_norm": 6.05206487573, 
			 "electric_quadrupole_moment_norm": 18.9255989876, 
			 "total_energy": -1377.12785443, 
			 "HOMO_LUMO_gap": 0.16636, 
			 "cosmo_polarized_energy": -15.92, 
			 "cosmo_cavitation_energy": 33.46, 
			 "cosmo_dispersion_energy": -23.51, 
			 "cosmo_repulsion_energy": 1.69, 
			 "cosmo_total_nonelectrostatic_energy": 11.65, 
			 "SMD_solvation_energy": 4.24 
		},
		"coords": [
			{
				"x": 1.0756398511,
				"y": 1.8147387862,
				"z": -0.4413429096,
				"element": "O" 
			},
			{
				"x": 0.0221654629,
				"y": 0.9891244085,
				"z": -0.2421864677,
				"element": "C" 
			},
			{
				"x": -0.7569614326,
				"y": 0.7105115303,
				"z": -1.3746492478,
				"element": "C" 
			},
			{
				"x": -1.9022511119,
				"y": -0.0660628086,
				"z": -1.2723341622,
				"element": "C" 
			},
			{
				"x": -2.3165363856,
				"y": -0.5662964654,
				"z": -0.0299238058,
				"element": "C" 
			},
			{
				"x": -1.5514702267,
				"y": -0.2957915042,
				"z": 1.0926950184,
				"element": "C" 
			},
			{
				"x": -0.3472199566,
				"y": 0.4391604384,
				"z": 1.0091040162,
				"element": "C" 
			},
			{
				"x": 0.3964856165,
				"y": 0.6199183793,
				"z": 2.2624458343,
				"element": "C" 
			},
			{
				"x": 1.6530975225,
				"y": 0.6130739403,
				"z": 2.559981669,
				"element": "N" 
			},
			{
				"x": 2.5619297032,
				"y": 0.2855141023,
				"z": 1.5391461669,
				"element": "N" 
			},
			{
				"x": 2.7547828718,
				"y": -0.9026087075,
				"z": 0.8667420888,
				"element": "C" 
			},
			{
				"x": 1.6372690449,
				"y": -2.2616692487,
				"z": 0.9136427234,
				"element": "S" 
			},
			{
				"x": 3.9166075355,
				"y": -0.8877781186,
				"z": 0.2424068649,
				"element": "N" 
			},
			{
				"x": 4.5208513621,
				"y": 0.3158854771,
				"z": 0.5084506712,
				"element": "N" 
			},
			{
				"x": 3.7216691071,
				"y": 0.9874717809,
				"z": 1.2966365217,
				"element": "C" 
			},
			{
				"x": 3.9459475038,
				"y": 2.3731364483,
				"z": 1.8085631752,
				"element": "C" 
			},
			{
				"x": 5.0317538939,
				"y": 2.9204962858,
				"z": 1.2662782215,
				"element": "F" 
			},
			{
				"x": 4.0626710335,
				"y": 2.416600619,
				"z": 3.1453940387,
				"element": "F" 
			},
			{
				"x": 2.8694518125,
				"y": 3.1644227467,
				"z": 1.4877319081,
				"element": "F" 
			},
			{
				"x": 1.4548131899,
				"y": 2.1414858149,
				"z": 0.3863989748,
				"element": "H" 
			},
			{
				"x": -0.4443249968,
				"y": 1.1397635894,
				"z": -2.3203655857,
				"element": "H" 
			},
			{
				"x": -2.4917253922,
				"y": -0.2654341467,
				"z": -2.1623267098,
				"element": "H" 
			},
			{
				"x": -3.2244537629,
				"y": -1.1538701327,
				"z": 0.0542663062,
				"element": "H" 
			},
			{
				"x": -1.8557573335,
				"y": -0.6790060571,
				"z": 2.0631937849,
				"element": "H" 
			},
			{
				"x": -0.2196335694,
				"y": 0.7712810131,
				"z": 3.150978816,
				"element": "H" 
			},
			{
				"x": 2.5949986568,
				"y": -3.1317681709,
				"z": 0.5378720885,
				"element": "H" 
			}
		],
		 "valence_orbital": [ 
			{
				"type": "occ",
				"energy": -0.28931,
				"method": "rhf"
			},
			{
				"type": "occ",
				"energy": -0.27393,
				"method": "rhf"
			},
			{
				"type": "occ",
				"energy": -0.26875,
				"method": "rhf"
			},
			{
				"type": "occ",
				"energy": -0.25046,
				"method": "rhf"
			},
			{
				"type": "occ",
				"energy": -0.24746,
				"method": "rhf"
			},
			{
				"type": "unocc",
				"energy": -0.0811,
				"method": "rhf"
			},
			{
				"type": "unocc",
				"energy": -0.02178,
				"method": "rhf"
			},
			{
				"type": "unocc",
				"energy": -0.01743,
				"method": "rhf"
			},
			{
				"type": "unocc",
				"energy": -0.00295,
				"method": "rhf"
			},
			{
				"type": "unocc",
				"energy": 0.00672,
				"method": "rhf"
			}
		],
		"cosmo_sigma_profile": { 
			"-0.025": 0.0,
			"-0.024": 0.0,
			"-0.023": 0.0,
			"-0.022": 0.0,
			"-0.021": 0.0,
			"-0.02": 0.0,
			"-0.019": 0.0,
			"-0.018": 0.0,
			"-0.017": 0.0,
			"-0.016": 0.0,
			"-0.015": 0.0,
			"-0.014": 0.0539511156059,
			"-0.013": 1.47694913072,
			"-0.012": 2.24317598922,
			"-0.011": 1.90943424912,
			"-0.01": 4.33189540452,
			"-0.009": 5.74771496385,
			"-0.008": 4.82777613038,
			"-0.007": 8.80048654339,
			"-0.006": 12.9047276793,
			"-0.005": 14.6903436192,
			"-0.004": 14.7847291994,
			"-0.003": 13.8005250243,
			"-0.002": 13.6755292677,
			"-0.001": 15.7776543846,
			"0.0": 20.7960426672,
			"0.001": 33.1660996795,
			"0.002": 29.6694209677,
			"0.003": 17.3748367417,
			"0.004": 15.2369878228,
			"0.005": 7.52706160668,
			"0.006": 4.18039673489,
			"0.007": 4.93107753391,
			"0.008": 4.80806197741,
			"0.009": 4.19224066652,
			"0.01": 4.32117594938,
			"0.011": 3.83903827509,
			"0.012": 2.47659288295,
			"0.013": 2.55165027099,
			"0.014": 1.57577314135,
			"0.015": 0.452044507549,
			"0.016": 0.0,
			"0.017": 0.0,
			"0.018": 0.0,
			"0.019": 0.0,
			"0.02": 0.0,
			"0.021": 0.0,
			"0.022": 0.0,
			"0.023": 0.0,
			"0.024": 0.0,
			"0.025": 0.0
		}
	}
}
