{
	 "smiles": "NC1=CC=C2C=CC=CC2=C1N", 
	 "Tm": 371.65, 
	 "num_atms": 22, 
	 "gaussian": { 
		 "optdone": 1, 
		 "sigma_profile": "yes", 
		 "theory": "DFT", 
		 "functional": "B3LYP", 
		 "basiset": "6-31G**", 
		 "properties": { 
			 "R2extent": 2099.1489, 
			 "electric_dipole_moment_norm": 1.50725594708, 
			 "electric_quadrupole_moment_norm": 12.1134865666, 
			 "total_energy": -496.608932838, 
			 "HOMO_LUMO_gap": 0.15172, 
			 "cosmo_polarized_energy": -11.14, 
			 "cosmo_cavitation_energy": 24.7, 
			 "cosmo_dispersion_energy": -18.9, 
			 "cosmo_repulsion_energy": 1.48, 
			 "cosmo_total_nonelectrostatic_energy": 7.27, 
			 "SMD_solvation_energy": 3.78 
		},
		"coords": [
			{
				"x": 0.2920282453,
				"y": -2.6503741492,
				"z": -1.9038403169,
				"element": "N" 
			},
			{
				"x": 0.4476789559,
				"y": -1.350467976,
				"z": -1.3643927617,
				"element": "C" 
			},
			{
				"x": 0.6234021867,
				"y": -0.2162970511,
				"z": -2.1889477833,
				"element": "C" 
			},
			{
				"x": 0.8164090217,
				"y": 1.0346199348,
				"z": -1.6482464945,
				"element": "C" 
			},
			{
				"x": 0.8047312549,
				"y": 1.2154897544,
				"z": -0.2422347441,
				"element": "C" 
			},
			{
				"x": 0.9722304784,
				"y": 2.497096192,
				"z": 0.3481683319,
				"element": "C" 
			},
			{
				"x": 0.9539282314,
				"y": 2.6650033628,
				"z": 1.7138349052,
				"element": "C" 
			},
			{
				"x": 0.7576625458,
				"y": 1.5453717904,
				"z": 2.5573807371,
				"element": "C" 
			},
			{
				"x": 0.5942646103,
				"y": 0.2876252479,
				"z": 2.0203827552,
				"element": "C" 
			},
			{
				"x": 0.6217785402,
				"y": 0.0753758622,
				"z": 0.6130242909,
				"element": "C" 
			},
			{
				"x": 0.4799308211,
				"y": -1.2180625462,
				"z": 0.0245486716,
				"element": "C" 
			},
			{
				"x": 0.3249340176,
				"y": -2.3822159032,
				"z": 0.7979780005,
				"element": "N" 
			},
			{
				"x": -0.5161045538,
				"y": -3.1306758468,
				"z": -1.5164935458,
				"element": "H" 
			},
			{
				"x": 0.2249221647,
				"y": -2.6461257427,
				"z": -2.9146699705,
				"element": "H" 
			},
			{
				"x": 0.6094601861,
				"y": -0.3494876064,
				"z": -3.2686989228,
				"element": "H" 
			},
			{
				"x": 0.9587537769,
				"y": 1.8970442009,
				"z": -2.2930166259,
				"element": "H" 
			},
			{
				"x": 1.1131856294,
				"y": 3.3522456837,
				"z": -0.3085373948,
				"element": "H" 
			},
			{
				"x": 1.0821421354,
				"y": 3.6528140617,
				"z": 2.1467801463,
				"element": "H" 
			},
			{
				"x": 0.7275043249,
				"y": 1.6807925181,
				"z": 3.6348228024,
				"element": "H" 
			},
			{
				"x": 0.4121517306,
				"y": -0.5467453137,
				"z": 2.6916259149,
				"element": "H" 
			},
			{
				"x": 0.699846863,
				"y": -2.3009896457,
				"z": 1.7341413179,
				"element": "H" 
			},
			{
				"x": 0.7352588338,
				"y": -3.1856368278,
				"z": 0.3301906862,
				"element": "H" 
			}
		],
		 "valence_orbital": [ 
			{
				"type": "occ",
				"energy": -0.31004,
				"method": "rhf"
			},
			{
				"type": "occ",
				"energy": -0.28418,
				"method": "rhf"
			},
			{
				"type": "occ",
				"energy": -0.24645,
				"method": "rhf"
			},
			{
				"type": "occ",
				"energy": -0.21899,
				"method": "rhf"
			},
			{
				"type": "occ",
				"energy": -0.17478,
				"method": "rhf"
			},
			{
				"type": "unocc",
				"energy": -0.02306,
				"method": "rhf"
			},
			{
				"type": "unocc",
				"energy": 0.00675,
				"method": "rhf"
			},
			{
				"type": "unocc",
				"energy": 0.05159,
				"method": "rhf"
			},
			{
				"type": "unocc",
				"energy": 0.07332,
				"method": "rhf"
			},
			{
				"type": "unocc",
				"energy": 0.09746,
				"method": "rhf"
			}
		],
		"cosmo_sigma_profile": { 
			"-0.025": 0.0,
			"-0.024": 0.0,
			"-0.023": 0.0,
			"-0.022": 0.0,
			"-0.021": 0.0,
			"-0.02": 0.0,
			"-0.019": 0.0,
			"-0.018": 0.0,
			"-0.017": 0.0,
			"-0.016": 0.0,
			"-0.015": 0.0,
			"-0.014": 0.0,
			"-0.013": 0.048788666506,
			"-0.012": 1.61710821677,
			"-0.011": 3.95145903824,
			"-0.01": 4.42332101599,
			"-0.009": 5.19774812139,
			"-0.008": 5.91829096877,
			"-0.007": 5.15094513722,
			"-0.006": 6.853437918,
			"-0.005": 13.4968154887,
			"-0.004": 12.2387108424,
			"-0.003": 13.7526121072,
			"-0.002": 11.2770579907,
			"-0.001": 9.20348698959,
			"0.0": 9.62939112986,
			"0.001": 8.54994841342,
			"0.002": 8.64615529838,
			"0.003": 10.0380256153,
			"0.004": 10.8750866385,
			"0.005": 20.774593531,
			"0.006": 19.8999349055,
			"0.007": 6.10898009112,
			"0.008": 1.65371394256,
			"0.009": 0.690836419142,
			"0.01": 0.611623455432,
			"0.011": 1.4894212044,
			"0.012": 1.32062403116,
			"0.013": 1.19178179947,
			"0.014": 1.21627404834,
			"0.015": 0.424914347053,
			"0.016": 0.122853330854,
			"0.017": 0.0,
			"0.018": 0.0,
			"0.019": 0.0,
			"0.02": 0.0,
			"0.021": 0.0,
			"0.022": 0.0,
			"0.023": 0.0,
			"0.024": 0.0,
			"0.025": 0.0
		}
	}
}
