{
	 "smiles": "CC1CN(CC2=CSC(N)=N2)CC(C)O1", 
	 "Tm": 406.15, 
	 "num_atms": 32, 
	 "gaussian": { 
		 "optdone": 1, 
		 "sigma_profile": "yes", 
		 "theory": "DFT", 
		 "functional": "B3LYP", 
		 "basiset": "6-31G**", 
		 "properties": { 
			 "R2extent": 5669.293, 
			 "electric_dipole_moment_norm": 3.00411454176, 
			 "electric_quadrupole_moment_norm": 15.144377078, 
			 "total_energy": -1028.95476973, 
			 "HOMO_LUMO_gap": 0.19038, 
			 "cosmo_polarized_energy": -13.32, 
			 "cosmo_cavitation_energy": 34.89, 
			 "cosmo_dispersion_energy": -25.18, 
			 "cosmo_repulsion_energy": 1.98, 
			 "cosmo_total_nonelectrostatic_energy": 11.68, 
			 "SMD_solvation_energy": 2.81 
		},
		"coords": [
			{
				"x": -0.3395837785,
				"y": 2.0660911994,
				"z": -3.3931275496,
				"element": "C" 
			},
			{
				"x": 0.8957020203,
				"y": 1.5167944416,
				"z": -2.6900923556,
				"element": "C" 
			},
			{
				"x": 0.7276065422,
				"y": 0.0387366756,
				"z": -2.264025846,
				"element": "C" 
			},
			{
				"x": 0.0355655286,
				"y": -0.0053507637,
				"z": -0.986490721,
				"element": "N" 
			},
			{
				"x": -0.593941047,
				"y": -1.2795748427,
				"z": -0.6512273747,
				"element": "C" 
			},
			{
				"x": 0.3131134833,
				"y": -2.4910682099,
				"z": -0.5598150247,
				"element": "C" 
			},
			{
				"x": 0.355241791,
				"y": -3.5007681585,
				"z": -1.47460765,
				"element": "C" 
			},
			{
				"x": 1.5414481361,
				"y": -4.7001426125,
				"z": -1.0083931924,
				"element": "S" 
			},
			{
				"x": 1.9035006222,
				"y": -3.7010131305,
				"z": 0.4068334687,
				"element": "C" 
			},
			{
				"x": 2.8098976439,
				"y": -4.1173179184,
				"z": 1.3561206514,
				"element": "N" 
			},
			{
				"x": 1.1984265712,
				"y": -2.6111403174,
				"z": 0.5028574654,
				"element": "N" 
			},
			{
				"x": 0.8103373597,
				"y": 0.6101517976,
				"z": 0.1005593821,
				"element": "C" 
			},
			{
				"x": 1.7453754733,
				"y": 1.6977248993,
				"z": -0.4625773845,
				"element": "C" 
			},
			{
				"x": 2.0952254334,
				"y": 2.7531246645,
				"z": 0.5765861437,
				"element": "C" 
			},
			{
				"x": 1.1233918981,
				"y": 2.3617733328,
				"z": -1.55561735,
				"element": "O" 
			},
			{
				"x": -0.231219742,
				"y": 3.1416508853,
				"z": -3.5592660904,
				"element": "H" 
			},
			{
				"x": -0.486803504,
				"y": 1.5778537061,
				"z": -4.3625180184,
				"element": "H" 
			},
			{
				"x": -1.2224178748,
				"y": 1.8970428238,
				"z": -2.7697927682,
				"element": "H" 
			},
			{
				"x": 1.7670029777,
				"y": 1.5849172968,
				"z": -3.3644354504,
				"element": "H" 
			},
			{
				"x": 1.7062070984,
				"y": -0.4753358467,
				"z": -2.24900057,
				"element": "H" 
			},
			{
				"x": 0.1205942744,
				"y": -0.4812346769,
				"z": -3.0141031363,
				"element": "H" 
			},
			{
				"x": -1.3646506565,
				"y": -1.4859473522,
				"z": -1.4037812859,
				"element": "H" 
			},
			{
				"x": -1.1053802233,
				"y": -1.1510246305,
				"z": 0.3106639996,
				"element": "H" 
			},
			{
				"x": -0.2246609976,
				"y": -3.6199460303,
				"z": -2.378279612,
				"element": "H" 
			},
			{
				"x": 3.063440869,
				"y": -3.3845852241,
				"z": 2.0059730701,
				"element": "H" 
			},
			{
				"x": 3.5927591181,
				"y": -4.6664895862,
				"z": 1.031459443,
				"element": "H" 
			},
			{
				"x": 0.1035399638,
				"y": 1.0607168625,
				"z": 0.8121564457,
				"element": "H" 
			},
			{
				"x": 1.4153447501,
				"y": -0.1238245177,
				"z": 0.6543310435,
				"element": "H" 
			},
			{
				"x": 2.6787795955,
				"y": 1.221688452,
				"z": -0.8094075657,
				"element": "H" 
			},
			{
				"x": 2.7990943288,
				"y": 3.4803622098,
				"z": 0.1627782952,
				"element": "H" 
			},
			{
				"x": 2.5487446766,
				"y": 2.2908326459,
				"z": 1.4595386325,
				"element": "H" 
			},
			{
				"x": 1.1917176678,
				"y": 3.2866019252,
				"z": 0.8877009047,
				"element": "H" 
			}
		],
		 "valence_orbital": [ 
			{
				"type": "occ",
				"energy": -0.27549,
				"method": "rhf"
			},
			{
				"type": "occ",
				"energy": -0.27297,
				"method": "rhf"
			},
			{
				"type": "occ",
				"energy": -0.23608,
				"method": "rhf"
			},
			{
				"type": "occ",
				"energy": -0.21266,
				"method": "rhf"
			},
			{
				"type": "occ",
				"energy": -0.19564,
				"method": "rhf"
			},
			{
				"type": "unocc",
				"energy": -0.00526,
				"method": "rhf"
			},
			{
				"type": "unocc",
				"energy": 0.01176,
				"method": "rhf"
			},
			{
				"type": "unocc",
				"energy": 0.05645,
				"method": "rhf"
			},
			{
				"type": "unocc",
				"energy": 0.06969,
				"method": "rhf"
			},
			{
				"type": "unocc",
				"energy": 0.08921,
				"method": "rhf"
			}
		],
		"cosmo_sigma_profile": { 
			"-0.025": 0.0,
			"-0.024": 0.0,
			"-0.023": 0.0,
			"-0.022": 0.0,
			"-0.021": 0.0,
			"-0.02": 0.0,
			"-0.019": 0.0,
			"-0.018": 0.0,
			"-0.017": 0.0,
			"-0.016": 0.0,
			"-0.015": 0.260266856963,
			"-0.014": 1.73067998305,
			"-0.013": 2.3143422429,
			"-0.012": 2.71596196528,
			"-0.011": 2.6342856109,
			"-0.01": 2.65865154125,
			"-0.009": 1.97356204008,
			"-0.008": 2.56716621362,
			"-0.007": 3.73877160928,
			"-0.006": 3.63109591715,
			"-0.005": 5.4776168145,
			"-0.004": 15.3068989012,
			"-0.003": 30.7778987744,
			"-0.002": 32.9252382778,
			"-0.001": 29.2058744569,
			"0.0": 23.6189261361,
			"0.001": 23.9141453366,
			"0.002": 16.861090211,
			"0.003": 14.3369295011,
			"0.004": 14.3502046487,
			"0.005": 10.0082382188,
			"0.006": 5.96574346963,
			"0.007": 5.50117059033,
			"0.008": 4.49969497229,
			"0.009": 2.9949831068,
			"0.01": 3.37731643238,
			"0.011": 3.62069307151,
			"0.012": 4.10982830189,
			"0.013": 2.29053047078,
			"0.014": 0.728624967199,
			"0.015": 0.0641550325525,
			"0.016": 0.0,
			"0.017": 0.0,
			"0.018": 0.0,
			"0.019": 0.0,
			"0.02": 0.0,
			"0.021": 0.0,
			"0.022": 0.0,
			"0.023": 0.0,
			"0.024": 0.0,
			"0.025": 0.0
		}
	}
}
