{
	 "smiles": "CC(=O)NC1=CC=C(C)C=C1", 
	 "Tm": 423.15, 
	 "num_atms": 22, 
	 "gaussian": { 
		 "optdone": 1, 
		 "sigma_profile": "yes", 
		 "theory": "DFT", 
		 "functional": "B3LYP", 
		 "basiset": "6-31G**", 
		 "properties": { 
			 "R2extent": 2770.2706, 
			 "electric_dipole_moment_norm": 3.26021341939, 
			 "electric_quadrupole_moment_norm": 13.9151962419, 
			 "total_energy": -479.591697461, 
			 "HOMO_LUMO_gap": 0.204, 
			 "cosmo_polarized_energy": -12.08, 
			 "cosmo_cavitation_energy": 25.55, 
			 "cosmo_dispersion_energy": -18.94, 
			 "cosmo_repulsion_energy": 1.52, 
			 "cosmo_total_nonelectrostatic_energy": 8.14, 
			 "SMD_solvation_energy": 5.26 
		},
		"coords": [
			{
				"x": 0.4232085155,
				"y": 1.9057012771,
				"z": 4.234357899,
				"element": "C" 
			},
			{
				"x": 1.1266054968,
				"y": 1.3812513079,
				"z": 2.989029548,
				"element": "C" 
			},
			{
				"x": 2.3286455114,
				"y": 1.1554416749,
				"z": 2.9851426573,
				"element": "O" 
			},
			{
				"x": 0.2990634028,
				"y": 1.1927916331,
				"z": 1.9041756937,
				"element": "N" 
			},
			{
				"x": 0.6219401238,
				"y": 0.7236562539,
				"z": 0.6114026021,
				"element": "C" 
			},
			{
				"x": 1.9183521615,
				"y": 0.3542813516,
				"z": 0.2228098947,
				"element": "C" 
			},
			{
				"x": 2.1393427706,
				"y": -0.1010717916,
				"z": -1.0762680973,
				"element": "C" 
			},
			{
				"x": 1.1093529993,
				"y": -0.2038259517,
				"z": -2.0193923513,
				"element": "C" 
			},
			{
				"x": 1.38076814,
				"y": -0.6698186845,
				"z": -3.4304068881,
				"element": "C" 
			},
			{
				"x": -0.1785314901,
				"y": 0.165732745,
				"z": -1.6112289038,
				"element": "C" 
			},
			{
				"x": -0.4224638848,
				"y": 0.6229560666,
				"z": -0.3198568257,
				"element": "C" 
			},
			{
				"x": -0.6502896615,
				"y": 2.074294876,
				"z": 4.1104466833,
				"element": "H" 
			},
			{
				"x": 0.8971486167,
				"y": 2.8449340344,
				"z": 4.5321179022,
				"element": "H" 
			},
			{
				"x": 0.577680395,
				"y": 1.1918943177,
				"z": 5.0481379176,
				"element": "H" 
			},
			{
				"x": -0.6749305811,
				"y": 1.418734228,
				"z": 2.0417555828,
				"element": "H" 
			},
			{
				"x": 2.7260578089,
				"y": 0.4243777417,
				"z": 0.9372251603,
				"element": "H" 
			},
			{
				"x": 3.149587818,
				"y": -0.3867085983,
				"z": -1.360114119,
				"element": "H" 
			},
			{
				"x": 0.4984703724,
				"y": -1.1420536332,
				"z": -3.8734987066,
				"element": "H" 
			},
			{
				"x": 2.2014300331,
				"y": -1.393208633,
				"z": -3.4618106268,
				"element": "H" 
			},
			{
				"x": 1.6624730497,
				"y": 0.1674589398,
				"z": -4.0818433903,
				"element": "H" 
			},
			{
				"x": -1.0064551195,
				"y": 0.0941151684,
				"z": -2.3123828202,
				"element": "H" 
			},
			{
				"x": -1.4339564785,
				"y": 0.9003656764,
				"z": -0.0292988118,
				"element": "H" 
			}
		],
		 "valence_orbital": [ 
			{
				"type": "occ",
				"energy": -0.33636,
				"method": "rhf"
			},
			{
				"type": "occ",
				"energy": -0.29561,
				"method": "rhf"
			},
			{
				"type": "occ",
				"energy": -0.24942,
				"method": "rhf"
			},
			{
				"type": "occ",
				"energy": -0.24683,
				"method": "rhf"
			},
			{
				"type": "occ",
				"energy": -0.21172,
				"method": "rhf"
			},
			{
				"type": "unocc",
				"energy": -0.00772,
				"method": "rhf"
			},
			{
				"type": "unocc",
				"energy": 0.00181,
				"method": "rhf"
			},
			{
				"type": "unocc",
				"energy": 0.04872,
				"method": "rhf"
			},
			{
				"type": "unocc",
				"energy": 0.06518,
				"method": "rhf"
			},
			{
				"type": "unocc",
				"energy": 0.09998,
				"method": "rhf"
			}
		],
		"cosmo_sigma_profile": { 
			"-0.025": 0.0,
			"-0.024": 0.0,
			"-0.023": 0.0,
			"-0.022": 0.0,
			"-0.021": 0.0,
			"-0.02": 0.0,
			"-0.019": 0.0,
			"-0.018": 0.0,
			"-0.017": 0.0,
			"-0.016": 0.0,
			"-0.015": 0.938709527601,
			"-0.014": 0.884671213023,
			"-0.013": 1.47508788864,
			"-0.012": 1.50533595017,
			"-0.011": 1.39480863993,
			"-0.01": 1.79857648248,
			"-0.009": 1.86304567589,
			"-0.008": 1.31497678218,
			"-0.007": 2.16782405442,
			"-0.006": 5.87696968738,
			"-0.005": 10.1540152312,
			"-0.004": 18.1881043784,
			"-0.003": 19.7718468471,
			"-0.002": 19.513652803,
			"-0.001": 17.0805844672,
			"0.0": 17.382747251,
			"0.001": 11.4247695622,
			"0.002": 9.85617523925,
			"0.003": 11.0133559186,
			"0.004": 10.8396033521,
			"0.005": 10.3568682411,
			"0.006": 10.0508774158,
			"0.007": 2.99890262987,
			"0.008": 1.63358615073,
			"0.009": 1.42330029008,
			"0.01": 1.60851093193,
			"0.011": 1.58606650195,
			"0.012": 2.35634295622,
			"0.013": 3.07139476441,
			"0.014": 2.47686639352,
			"0.015": 0.527889557662,
			"0.016": 0.0,
			"0.017": 0.0,
			"0.018": 0.0,
			"0.019": 0.0,
			"0.02": 0.0,
			"0.021": 0.0,
			"0.022": 0.0,
			"0.023": 0.0,
			"0.024": 0.0,
			"0.025": 0.0
		}
	}
}
