{
	 "smiles": "CCCOC(=O)C1=C(C)NC(=S)NC1C1=CC=CO1", 
	 "Tm": 450.15, 
	 "num_atms": 35, 
	 "gaussian": { 
		 "optdone": 1, 
		 "sigma_profile": "yes", 
		 "theory": "DFT", 
		 "functional": "B3LYP", 
		 "basiset": "6-31G**", 
		 "properties": { 
			 "R2extent": 7208.3951, 
			 "electric_dipole_moment_norm": 4.08150922331, 
			 "electric_quadrupole_moment_norm": 25.2605010081, 
			 "total_energy": -1238.39576324, 
			 "HOMO_LUMO_gap": 0.15764, 
			 "cosmo_polarized_energy": -18.25, 
			 "cosmo_cavitation_energy": 40.68, 
			 "cosmo_dispersion_energy": -27.55, 
			 "cosmo_repulsion_energy": 2.14, 
			 "cosmo_total_nonelectrostatic_energy": 15.27, 
			 "SMD_solvation_energy": 6.95 
		},
		"coords": [
			{
				"x": 2.5095288026,
				"y": 1.5978599616,
				"z": -2.4723568794,
				"element": "C" 
			},
			{
				"x": 1.1077564608,
				"y": 2.0957947062,
				"z": -2.1064884444,
				"element": "C" 
			},
			{
				"x": 0.041944392,
				"y": 1.0107545328,
				"z": -2.1378691213,
				"element": "C" 
			},
			{
				"x": 0.3522720035,
				"y": 0.049271777,
				"z": -1.1042455322,
				"element": "O" 
			},
			{
				"x": -0.4873919797,
				"y": -1.0132719363,
				"z": -1.0101747626,
				"element": "C" 
			},
			{
				"x": -1.433283878,
				"y": -1.1571645079,
				"z": -1.7688483203,
				"element": "O" 
			},
			{
				"x": -0.0864344656,
				"y": -1.9034559323,
				"z": 0.0961599523,
				"element": "C" 
			},
			{
				"x": -0.7212333814,
				"y": -3.0764608238,
				"z": 0.374140968,
				"element": "C" 
			},
			{
				"x": -1.9112657255,
				"y": -3.6627742887,
				"z": -0.3320338993,
				"element": "C" 
			},
			{
				"x": -0.244029988,
				"y": -3.8750251838,
				"z": 1.4046237373,
				"element": "N" 
			},
			{
				"x": 0.9938484928,
				"y": -3.7479923615,
				"z": 2.003359281,
				"element": "C" 
			},
			{
				"x": 1.5749433652,
				"y": -4.9141941283,
				"z": 3.0533751884,
				"element": "S" 
			},
			{
				"x": 1.6769726798,
				"y": -2.6479891028,
				"z": 1.6234197564,
				"element": "N" 
			},
			{
				"x": 1.0561189074,
				"y": -1.4623415842,
				"z": 0.9955563419,
				"element": "C" 
			},
			{
				"x": 0.6160432262,
				"y": -0.4588140431,
				"z": 2.025775466,
				"element": "C" 
			},
			{
				"x": -0.5830283635,
				"y": -0.1105834835,
				"z": 2.5749279733,
				"element": "C" 
			},
			{
				"x": -0.3026981941,
				"y": 0.8921025984,
				"z": 3.5611645353,
				"element": "C" 
			},
			{
				"x": 1.0451745899,
				"y": 1.0762327277,
				"z": 3.5420213354,
				"element": "C" 
			},
			{
				"x": 1.6230827934,
				"y": 0.2632527985,
				"z": 2.6108647833,
				"element": "O" 
			},
			{
				"x": 3.236459274,
				"y": 2.4152366188,
				"z": -2.4433420517,
				"element": "H" 
			},
			{
				"x": 2.8463921896,
				"y": 0.8236098828,
				"z": -1.7771225656,
				"element": "H" 
			},
			{
				"x": 2.5260475819,
				"y": 1.1711502362,
				"z": -3.4816588103,
				"element": "H" 
			},
			{
				"x": 1.1160930555,
				"y": 2.5540292629,
				"z": -1.110273521,
				"element": "H" 
			},
			{
				"x": 0.794253991,
				"y": 2.8792073544,
				"z": -2.8080971286,
				"element": "H" 
			},
			{
				"x": -0.9571762834,
				"y": 1.4162525876,
				"z": -1.9491959611,
				"element": "H" 
			},
			{
				"x": 0.0122237444,
				"y": 0.4944568783,
				"z": -3.1034413396,
				"element": "H" 
			},
			{
				"x": -2.6780227703,
				"y": -3.9353661399,
				"z": 0.4031277834,
				"element": "H" 
			},
			{
				"x": -1.617120368,
				"y": -4.5807166746,
				"z": -0.8552221836,
				"element": "H" 
			},
			{
				"x": -2.3242145086,
				"y": -2.9607979295,
				"z": -1.0505224998,
				"element": "H" 
			},
			{
				"x": -0.7240712293,
				"y": -4.7373835978,
				"z": 1.6211234518,
				"element": "H" 
			},
			{
				"x": 2.5576851223,
				"y": -2.51235771,
				"z": 2.1007840613,
				"element": "H" 
			},
			{
				"x": 1.8354798332,
				"y": -0.9929295823,
				"z": 0.3900534131,
				"element": "H" 
			},
			{
				"x": -1.5482396539,
				"y": -0.5139853039,
				"z": 2.3069052615,
				"element": "H" 
			},
			{
				"x": -1.0129142184,
				"y": 1.4036574661,
				"z": 4.1946287653,
				"element": "H" 
			},
			{
				"x": 1.7187045021,
				"y": 1.7145349247,
				"z": 4.0925809659,
				"element": "H" 
			}
		],
		 "valence_orbital": [ 
			{
				"type": "occ",
				"energy": -0.27406,
				"method": "rhf"
			},
			{
				"type": "occ",
				"energy": -0.24669,
				"method": "rhf"
			},
			{
				"type": "occ",
				"energy": -0.23634,
				"method": "rhf"
			},
			{
				"type": "occ",
				"energy": -0.2164,
				"method": "rhf"
			},
			{
				"type": "occ",
				"energy": -0.21377,
				"method": "rhf"
			},
			{
				"type": "unocc",
				"energy": -0.05613,
				"method": "rhf"
			},
			{
				"type": "unocc",
				"energy": -8e-05,
				"method": "rhf"
			},
			{
				"type": "unocc",
				"energy": 0.01091,
				"method": "rhf"
			},
			{
				"type": "unocc",
				"energy": 0.05799,
				"method": "rhf"
			},
			{
				"type": "unocc",
				"energy": 0.06337,
				"method": "rhf"
			}
		],
		"cosmo_sigma_profile": { 
			"-0.025": 0.0,
			"-0.024": 0.0,
			"-0.023": 0.0,
			"-0.022": 0.0,
			"-0.021": 0.0,
			"-0.02": 0.0,
			"-0.019": 0.0,
			"-0.018": 0.0,
			"-0.017": 0.0,
			"-0.016": 0.0801006668169,
			"-0.015": 1.36739032388,
			"-0.014": 1.60276933196,
			"-0.013": 2.15019923798,
			"-0.012": 1.90570018213,
			"-0.011": 2.14996921783,
			"-0.01": 1.61071410669,
			"-0.009": 3.72996895019,
			"-0.008": 4.67540680217,
			"-0.007": 8.04269125399,
			"-0.006": 10.8404825281,
			"-0.005": 14.6653338188,
			"-0.004": 21.6110753587,
			"-0.003": 28.8382034266,
			"-0.002": 31.8243064235,
			"-0.001": 30.5466580373,
			"0.0": 28.0366280034,
			"0.001": 22.9444414909,
			"0.002": 15.3903749503,
			"0.003": 16.4767981889,
			"0.004": 13.0495733628,
			"0.005": 13.9115886167,
			"0.006": 8.17561862345,
			"0.007": 5.2156501403,
			"0.008": 7.0308994827,
			"0.009": 7.48670492675,
			"0.01": 9.5040015054,
			"0.011": 7.40154330498,
			"0.012": 3.95665746591,
			"0.013": 0.613125674975,
			"0.014": 0.0,
			"0.015": 0.0,
			"0.016": 0.0,
			"0.017": 0.0,
			"0.018": 0.0,
			"0.019": 0.0,
			"0.02": 0.0,
			"0.021": 0.0,
			"0.022": 0.0,
			"0.023": 0.0,
			"0.024": 0.0,
			"0.025": 0.0
		}
	}
}
