{
	 "smiles": "CCS(=O)(=O)NC1=C(F)C=CC=C1", 
	 "Tm": 342.15, 
	 "num_atms": 23, 
	 "gaussian": { 
		 "optdone": 1, 
		 "sigma_profile": "yes", 
		 "theory": "DFT", 
		 "functional": "B3LYP", 
		 "basiset": "6-31G**", 
		 "properties": { 
			 "R2extent": 3443.6245, 
			 "electric_dipole_moment_norm": 3.89284379471, 
			 "electric_quadrupole_moment_norm": 13.7765188164, 
			 "total_energy": -1014.03756491, 
			 "HOMO_LUMO_gap": 0.21675, 
			 "cosmo_polarized_energy": -12.97, 
			 "cosmo_cavitation_energy": 28.47, 
			 "cosmo_dispersion_energy": -20.99, 
			 "cosmo_repulsion_energy": 1.6, 
			 "cosmo_total_nonelectrostatic_energy": 9.08, 
			 "SMD_solvation_energy": 4.67 
		},
		"coords": [
			{
				"x": 4.3412956543,
				"y": 0.4651034103,
				"z": 0.5974149044,
				"element": "C" 
			},
			{
				"x": 3.1568574966,
				"y": -0.3166538875,
				"z": 0.0329278493,
				"element": "C" 
			},
			{
				"x": 1.5841423423,
				"y": 0.4180711482,
				"z": 0.5544111751,
				"element": "S" 
			},
			{
				"x": 1.518411926,
				"y": 1.7762238837,
				"z": 0.0105019378,
				"element": "O" 
			},
			{
				"x": 1.3899466256,
				"y": 0.1511552017,
				"z": 1.9813309792,
				"element": "O" 
			},
			{
				"x": 0.4557342039,
				"y": -0.5841976569,
				"z": -0.2177082287,
				"element": "N" 
			},
			{
				"x": -0.1642292798,
				"y": -0.3467133316,
				"z": -1.462452163,
				"element": "C" 
			},
			{
				"x": -1.3868704682,
				"y": -0.9914746542,
				"z": -1.6935858004,
				"element": "C" 
			},
			{
				"x": -1.8961723068,
				"y": -1.739874621,
				"z": -0.6797980669,
				"element": "F" 
			},
			{
				"x": -2.0724300391,
				"y": -0.8942278965,
				"z": -2.8910965281,
				"element": "C" 
			},
			{
				"x": -1.5285973543,
				"y": -0.1162763412,
				"z": -3.9163756881,
				"element": "C" 
			},
			{
				"x": -0.3160062206,
				"y": 0.5413384639,
				"z": -3.7110011358,
				"element": "C" 
			},
			{
				"x": 0.3685202234,
				"y": 0.4291773822,
				"z": -2.4988790979,
				"element": "C" 
			},
			{
				"x": 4.3281256324,
				"y": 1.4998522388,
				"z": 0.2471122936,
				"element": "H" 
			},
			{
				"x": 4.3217123363,
				"y": 0.4655927955,
				"z": 1.6900993338,
				"element": "H" 
			},
			{
				"x": 5.274253326,
				"y": -0.001960708,
				"z": 0.269599027,
				"element": "H" 
			},
			{
				"x": 3.1447310993,
				"y": -0.318709104,
				"z": -1.0608831308,
				"element": "H" 
			},
			{
				"x": 3.1312359156,
				"y": -1.3504021249,
				"z": 0.386038613,
				"element": "H" 
			},
			{
				"x": -0.1293616087,
				"y": -1.0510323447,
				"z": 0.4673218216,
				"element": "H" 
			},
			{
				"x": -3.0140419125,
				"y": -1.4210012601,
				"z": -3.0020086125,
				"element": "H" 
			},
			{
				"x": -2.0530143729,
				"y": -0.0251611812,
				"z": -4.8618017491,
				"element": "H" 
			},
			{
				"x": 0.1091389862,
				"y": 1.1546992839,
				"z": -4.499238052,
				"element": "H" 
			},
			{
				"x": 1.293117795,
				"y": 0.9714713037,
				"z": -2.3460296813,
				"element": "H" 
			}
		],
		 "valence_orbital": [ 
			{
				"type": "occ",
				"energy": -0.32219,
				"method": "rhf"
			},
			{
				"type": "occ",
				"energy": -0.30896,
				"method": "rhf"
			},
			{
				"type": "occ",
				"energy": -0.3066,
				"method": "rhf"
			},
			{
				"type": "occ",
				"energy": -0.25792,
				"method": "rhf"
			},
			{
				"type": "occ",
				"energy": -0.22988,
				"method": "rhf"
			},
			{
				"type": "unocc",
				"energy": -0.01313,
				"method": "rhf"
			},
			{
				"type": "unocc",
				"energy": -0.00318,
				"method": "rhf"
			},
			{
				"type": "unocc",
				"energy": 0.04661,
				"method": "rhf"
			},
			{
				"type": "unocc",
				"energy": 0.06178,
				"method": "rhf"
			},
			{
				"type": "unocc",
				"energy": 0.07835,
				"method": "rhf"
			}
		],
		"cosmo_sigma_profile": { 
			"-0.025": 0.0,
			"-0.024": 0.0,
			"-0.023": 0.0,
			"-0.022": 0.0,
			"-0.021": 0.0,
			"-0.02": 0.0,
			"-0.019": 0.0,
			"-0.018": 0.0,
			"-0.017": 0.0,
			"-0.016": 0.0,
			"-0.015": 0.0,
			"-0.014": 0.0,
			"-0.013": 0.186155782717,
			"-0.012": 0.539762066794,
			"-0.011": 1.50125495677,
			"-0.01": 0.599591818391,
			"-0.009": 1.90489325087,
			"-0.008": 4.60123207864,
			"-0.007": 8.73259479009,
			"-0.006": 13.5739362926,
			"-0.005": 18.236662309,
			"-0.004": 19.0009042656,
			"-0.003": 15.5784501322,
			"-0.002": 14.2482118025,
			"-0.001": 16.8598470349,
			"0.0": 14.0596387451,
			"0.001": 13.4874733804,
			"0.002": 12.100494969,
			"0.003": 15.591079529,
			"0.004": 16.4499264334,
			"0.005": 7.78039979949,
			"0.006": 3.08585368204,
			"0.007": 2.97795156316,
			"0.008": 3.19766110986,
			"0.009": 3.90611027478,
			"0.01": 8.29110427056,
			"0.011": 8.58938854023,
			"0.012": 1.57186017097,
			"0.013": 0.0,
			"0.014": 0.0,
			"0.015": 0.0,
			"0.016": 0.0,
			"0.017": 0.0,
			"0.018": 0.0,
			"0.019": 0.0,
			"0.02": 0.0,
			"0.021": 0.0,
			"0.022": 0.0,
			"0.023": 0.0,
			"0.024": 0.0,
			"0.025": 0.0
		}
	}
}
