{
	 "smiles": "CCOC(=O)C1=C(C)N=C(O)S1", 
	 "Tm": 445.15, 
	 "num_atms": 21, 
	 "gaussian": { 
		 "optdone": 1, 
		 "sigma_profile": "yes", 
		 "theory": "DFT", 
		 "functional": "B3LYP", 
		 "basiset": "6-31G**", 
		 "properties": { 
			 "R2extent": 3015.6778, 
			 "electric_dipole_moment_norm": 2.66523631222, 
			 "electric_quadrupole_moment_norm": 13.2411075073, 
			 "total_energy": -950.792179492, 
			 "HOMO_LUMO_gap": 0.18468, 
			 "cosmo_polarized_energy": -10.52, 
			 "cosmo_cavitation_energy": 27.08, 
			 "cosmo_dispersion_energy": -20.12, 
			 "cosmo_repulsion_energy": 1.59, 
			 "cosmo_total_nonelectrostatic_energy": 8.55, 
			 "SMD_solvation_energy": 4.68 
		},
		"coords": [
			{
				"x": -1.8972394346,
				"y": 2.6553222439,
				"z": 0.0929565066,
				"element": "C" 
			},
			{
				"x": -0.5790834198,
				"y": 2.4875688501,
				"z": -0.6475218474,
				"element": "C" 
			},
			{
				"x": -0.2081528668,
				"y": 1.0914467348,
				"z": -0.75842208,
				"element": "O" 
			},
			{
				"x": 0.4490860861,
				"y": 0.5632600729,
				"z": 0.3025100107,
				"element": "C" 
			},
			{
				"x": 0.7377105702,
				"y": 1.1913579314,
				"z": 1.3076113292,
				"element": "O" 
			},
			{
				"x": 0.7807089361,
				"y": -0.8476387342,
				"z": 0.1089260171,
				"element": "C" 
			},
			{
				"x": 0.5519164944,
				"y": -1.7223228456,
				"z": -0.9344892973,
				"element": "C" 
			},
			{
				"x": -0.1453550029,
				"y": -1.4223877752,
				"z": -2.2305240392,
				"element": "C" 
			},
			{
				"x": 1.0273181663,
				"y": -3.000725748,
				"z": -0.7339205324,
				"element": "N" 
			},
			{
				"x": 1.6034149828,
				"y": -3.0964421268,
				"z": 0.4321073302,
				"element": "C" 
			},
			{
				"x": 2.1582507723,
				"y": -4.2206663167,
				"z": 0.8986199534,
				"element": "O" 
			},
			{
				"x": 1.6371588418,
				"y": -1.6617130194,
				"z": 1.4153058849,
				"element": "S" 
			},
			{
				"x": -2.6924998573,
				"y": 2.0796647835,
				"z": -0.3899664588,
				"element": "H" 
			},
			{
				"x": -1.7986779731,
				"y": 2.3250372916,
				"z": 1.1296638939,
				"element": "H" 
			},
			{
				"x": -2.1896556842,
				"y": 3.7107394811,
				"z": 0.0947281042,
				"element": "H" 
			},
			{
				"x": -0.654024459,
				"y": 2.8285544193,
				"z": -1.6829025439,
				"element": "H" 
			},
			{
				"x": 0.2268256295,
				"y": 3.0264571368,
				"z": -0.1442287513,
				"element": "H" 
			},
			{
				"x": 0.3707633812,
				"y": -0.6323211155,
				"z": -2.7832881558,
				"element": "H" 
			},
			{
				"x": -1.1660448137,
				"y": -1.0699233338,
				"z": -2.0584677778,
				"element": "H" 
			},
			{
				"x": -0.1730966411,
				"y": -2.3280830422,
				"z": -2.8382116721,
				"element": "H" 
			},
			{
				"x": 2.0359762917,
				"y": -4.893584888,
				"z": 0.2087141259,
				"element": "H" 
			}
		],
		 "valence_orbital": [ 
			{
				"type": "occ",
				"energy": -0.30383,
				"method": "rhf"
			},
			{
				"type": "occ",
				"energy": -0.29865,
				"method": "rhf"
			},
			{
				"type": "occ",
				"energy": -0.28516,
				"method": "rhf"
			},
			{
				"type": "occ",
				"energy": -0.26914,
				"method": "rhf"
			},
			{
				"type": "occ",
				"energy": -0.23269,
				"method": "rhf"
			},
			{
				"type": "unocc",
				"energy": -0.04801,
				"method": "rhf"
			},
			{
				"type": "unocc",
				"energy": 0.01188,
				"method": "rhf"
			},
			{
				"type": "unocc",
				"energy": 0.02694,
				"method": "rhf"
			},
			{
				"type": "unocc",
				"energy": 0.0551,
				"method": "rhf"
			},
			{
				"type": "unocc",
				"energy": 0.08968,
				"method": "rhf"
			}
		],
		"cosmo_sigma_profile": { 
			"-0.025": 0.0,
			"-0.024": 0.0,
			"-0.023": 0.0,
			"-0.022": 0.0,
			"-0.021": 0.0,
			"-0.02": 0.0971998350674,
			"-0.019": 0.734113038427,
			"-0.018": 0.726606086027,
			"-0.017": 1.47467349766,
			"-0.016": 0.628428158029,
			"-0.015": 0.472799370736,
			"-0.014": 0.41766198334,
			"-0.013": 0.757753996087,
			"-0.012": 1.0369105406,
			"-0.011": 0.810748947221,
			"-0.01": 0.392495897103,
			"-0.009": 0.477630679795,
			"-0.008": 1.00626578683,
			"-0.007": 0.887457085303,
			"-0.006": 1.78294152341,
			"-0.005": 8.01358182896,
			"-0.004": 15.4803853597,
			"-0.003": 19.5836052248,
			"-0.002": 20.6580296889,
			"-0.001": 30.0116442805,
			"0.0": 28.8859595325,
			"0.001": 19.3325186985,
			"0.002": 13.7243769936,
			"0.003": 9.95970337495,
			"0.004": 8.16491836616,
			"0.005": 4.77218011237,
			"0.006": 4.20554945751,
			"0.007": 3.59394847257,
			"0.008": 4.67735427722,
			"0.009": 2.72780078183,
			"0.01": 2.70122296711,
			"0.011": 3.11886618207,
			"0.012": 4.74097784023,
			"0.013": 0.758699140903,
			"0.014": 0.0,
			"0.015": 0.0,
			"0.016": 0.0,
			"0.017": 0.0,
			"0.018": 0.0,
			"0.019": 0.0,
			"0.02": 0.0,
			"0.021": 0.0,
			"0.022": 0.0,
			"0.023": 0.0,
			"0.024": 0.0,
			"0.025": 0.0
		}
	}
}
