{
	 "smiles": "CCCC1CCC2=C(C1)SC(N)=N2", 
	 "Tm": 352.15, 
	 "num_atms": 29, 
	 "gaussian": { 
		 "optdone": 1, 
		 "sigma_profile": "yes", 
		 "theory": "DFT", 
		 "functional": "B3LYP", 
		 "basiset": "6-31G**", 
		 "properties": { 
			 "R2extent": 4034.7169, 
			 "electric_dipole_moment_norm": 1.25386621695, 
			 "electric_quadrupole_moment_norm": 11.870775318, 
			 "total_energy": -898.420916183, 
			 "HOMO_LUMO_gap": 0.20162, 
			 "cosmo_polarized_energy": -9.31, 
			 "cosmo_cavitation_energy": 31.46, 
			 "cosmo_dispersion_energy": -23.49, 
			 "cosmo_repulsion_energy": 1.84, 
			 "cosmo_total_nonelectrostatic_energy": 9.81, 
			 "SMD_solvation_energy": 2.38 
		},
		"coords": [
			{
				"x": -0.8659981404,
				"y": -0.4892363329,
				"z": -3.4763180379,
				"element": "C" 
			},
			{
				"x": -0.0644835472,
				"y": -1.695951028,
				"z": -2.9736099435,
				"element": "C" 
			},
			{
				"x": -0.663249613,
				"y": -2.38569361,
				"z": -1.7351899545,
				"element": "C" 
			},
			{
				"x": -0.7524410759,
				"y": -1.5348741318,
				"z": -0.4549081622,
				"element": "C" 
			},
			{
				"x": -1.4264972232,
				"y": -2.3237945221,
				"z": 0.6855931032,
				"element": "C" 
			},
			{
				"x": -1.6838299939,
				"y": -1.4575824396,
				"z": 1.9299023541,
				"element": "C" 
			},
			{
				"x": -0.4743737626,
				"y": -0.6305815903,
				"z": 2.2671139918,
				"element": "C" 
			},
			{
				"x": 0.5510204205,
				"y": -0.4542164918,
				"z": 1.3876845715,
				"element": "C" 
			},
			{
				"x": 0.6339309102,
				"y": -1.0198290099,
				"z": -0.0004276921,
				"element": "C" 
			},
			{
				"x": 1.7825346539,
				"y": 0.5645239637,
				"z": 2.1301583105,
				"element": "S" 
			},
			{
				"x": 0.7501821198,
				"y": 0.668277298,
				"z": 3.5680762854,
				"element": "C" 
			},
			{
				"x": 1.1764853586,
				"y": 1.3407914873,
				"z": 4.6956147461,
				"element": "N" 
			},
			{
				"x": -0.3670734335,
				"y": 0.0093962462,
				"z": 3.492346167,
				"element": "N" 
			},
			{
				"x": -0.4305617951,
				"y": -0.0828563339,
				"z": -4.3951185395,
				"element": "H" 
			},
			{
				"x": -1.9033183372,
				"y": -0.7681610121,
				"z": -3.6956280798,
				"element": "H" 
			},
			{
				"x": -0.8917816532,
				"y": 0.3215032658,
				"z": -2.7406105104,
				"element": "H" 
			},
			{
				"x": 0.001398106,
				"y": -2.439370215,
				"z": -3.7781835936,
				"element": "H" 
			},
			{
				"x": 0.9693528826,
				"y": -1.3897051317,
				"z": -2.7690298905,
				"element": "H" 
			},
			{
				"x": -1.6737885547,
				"y": -2.7383231926,
				"z": -1.9852776694,
				"element": "H" 
			},
			{
				"x": -0.0747106149,
				"y": -3.287306623,
				"z": -1.5127736308,
				"element": "H" 
			},
			{
				"x": -1.3795316717,
				"y": -0.655016495,
				"z": -0.6587869721,
				"element": "H" 
			},
			{
				"x": -2.3711594476,
				"y": -2.7530591163,
				"z": 0.3312065374,
				"element": "H" 
			},
			{
				"x": -0.7811801765,
				"y": -3.1702527822,
				"z": 0.9589758041,
				"element": "H" 
			},
			{
				"x": -2.5448756193,
				"y": -0.794582149,
				"z": 1.7616413692,
				"element": "H" 
			},
			{
				"x": -1.9494654382,
				"y": -2.0829653984,
				"z": 2.7903076028,
				"element": "H" 
			},
			{
				"x": 1.0014980149,
				"y": -0.2621135835,
				"z": -0.7031465694,
				"element": "H" 
			},
			{
				"x": 1.3608132758,
				"y": -1.8464318342,
				"z": -0.0374108487,
				"element": "H" 
			},
			{
				"x": 0.4289197161,
				"y": 1.4791075566,
				"z": 5.3640234773,
				"element": "H" 
			},
			{
				"x": 1.7346846397,
				"y": 2.1687032055,
				"z": 4.540275774,
				"element": "H" 
			}
		],
		 "valence_orbital": [ 
			{
				"type": "occ",
				"energy": -0.30169,
				"method": "rhf"
			},
			{
				"type": "occ",
				"energy": -0.29831,
				"method": "rhf"
			},
			{
				"type": "occ",
				"energy": -0.26159,
				"method": "rhf"
			},
			{
				"type": "occ",
				"energy": -0.25949,
				"method": "rhf"
			},
			{
				"type": "occ",
				"energy": -0.19492,
				"method": "rhf"
			},
			{
				"type": "unocc",
				"energy": 0.0067,
				"method": "rhf"
			},
			{
				"type": "unocc",
				"energy": 0.01791,
				"method": "rhf"
			},
			{
				"type": "unocc",
				"energy": 0.06937,
				"method": "rhf"
			},
			{
				"type": "unocc",
				"energy": 0.07804,
				"method": "rhf"
			},
			{
				"type": "unocc",
				"energy": 0.08328,
				"method": "rhf"
			}
		],
		"cosmo_sigma_profile": { 
			"-0.025": 0.0,
			"-0.024": 0.0,
			"-0.023": 0.0,
			"-0.022": 0.0,
			"-0.021": 0.0,
			"-0.02": 0.0,
			"-0.019": 0.0,
			"-0.018": 0.0,
			"-0.017": 0.0,
			"-0.016": 0.0,
			"-0.015": 0.0746035419149,
			"-0.014": 1.1120979696,
			"-0.013": 2.58451855146,
			"-0.012": 2.75355716397,
			"-0.011": 1.90791522883,
			"-0.01": 2.78762155637,
			"-0.009": 2.47273659491,
			"-0.008": 1.92229971348,
			"-0.007": 1.50660296266,
			"-0.006": 1.58020271848,
			"-0.005": 1.39274157199,
			"-0.004": 3.82311860189,
			"-0.003": 15.7026198113,
			"-0.002": 40.2657506342,
			"-0.001": 38.5225080187,
			"0.0": 33.8107762662,
			"0.001": 26.8944527609,
			"0.002": 15.7416139648,
			"0.003": 10.2338965283,
			"0.004": 12.0354040002,
			"0.005": 9.28199365175,
			"0.006": 4.16689110582,
			"0.007": 2.67341117645,
			"0.008": 2.31232869136,
			"0.009": 2.04502220021,
			"0.01": 2.38271941273,
			"0.011": 1.50077361861,
			"0.012": 1.54920276361,
			"0.013": 1.06739380044,
			"0.014": 0.962140068489,
			"0.015": 0.775252552329,
			"0.016": 0.688367920536,
			"0.017": 0.0944121644091,
			"0.018": 0.0,
			"0.019": 0.0,
			"0.02": 0.0,
			"0.021": 0.0,
			"0.022": 0.0,
			"0.023": 0.0,
			"0.024": 0.0,
			"0.025": 0.0
		}
	}
}
