{
	 "smiles": "CC1CCCCC1(C)C", 
	 "Tm": 244.15, 
	 "num_atms": 27, 
	 "gaussian": { 
		 "optdone": 1, 
		 "sigma_profile": "yes", 
		 "theory": "DFT", 
		 "functional": "B3LYP", 
		 "basiset": "6-31G**", 
		 "properties": { 
			 "R2extent": 1288.0427, 
			 "electric_dipole_moment_norm": 0.120357010598, 
			 "electric_quadrupole_moment_norm": 0.49253570429, 
			 "total_energy": -353.82623785, 
			 "HOMO_LUMO_gap": 0.35702, 
			 "cosmo_polarized_energy": -0.67, 
			 "cosmo_cavitation_energy": 24.95, 
			 "cosmo_dispersion_energy": -18.47, 
			 "cosmo_repulsion_energy": 1.48, 
			 "cosmo_total_nonelectrostatic_energy": 7.96, 
			 "SMD_solvation_energy": 3.74 
		},
		"coords": [
			{
				"x": -2.1772580146,
				"y": -0.1286695585,
				"z": 0.1546423823,
				"element": "C" 
			},
			{
				"x": -0.7463226243,
				"y": 0.4273672507,
				"z": 0.2082822193,
				"element": "C" 
			},
			{
				"x": -0.2539429778,
				"y": 0.4666030621,
				"z": 1.6768372908,
				"element": "C" 
			},
			{
				"x": 1.2635879723,
				"y": 0.7348843949,
				"z": 1.821450249,
				"element": "C" 
			},
			{
				"x": 1.8223622177,
				"y": 1.4046354926,
				"z": 0.5625713785,
				"element": "C" 
			},
			{
				"x": 1.6293041643,
				"y": 0.5177759822,
				"z": -0.6848746485,
				"element": "C" 
			},
			{
				"x": 0.277396346,
				"y": -0.2797848316,
				"z": -0.7336250846,
				"element": "C" 
			},
			{
				"x": -0.2289112121,
				"y": -0.2779998995,
				"z": -2.1899641819,
				"element": "C" 
			},
			{
				"x": 0.5146410096,
				"y": -1.7475179813,
				"z": -0.3134987476,
				"element": "C" 
			},
			{
				"x": -2.2170394642,
				"y": -1.1806748073,
				"z": 0.458086765,
				"element": "H" 
			},
			{
				"x": -2.8232889061,
				"y": 0.4294238361,
				"z": 0.8418522225,
				"element": "H" 
			},
			{
				"x": -2.6177814303,
				"y": -0.0490977065,
				"z": -0.8432690363,
				"element": "H" 
			},
			{
				"x": -0.8016705293,
				"y": 1.4676307288,
				"z": -0.1458418404,
				"element": "H" 
			},
			{
				"x": -0.8227272547,
				"y": 1.2457092519,
				"z": 2.1994878859,
				"element": "H" 
			},
			{
				"x": -0.5149246699,
				"y": -0.4757646517,
				"z": 2.1746795712,
				"element": "H" 
			},
			{
				"x": 1.8018690721,
				"y": -0.2065380619,
				"z": 1.9890779998,
				"element": "H" 
			},
			{
				"x": 1.4576369283,
				"y": 1.3540116898,
				"z": 2.7047813257,
				"element": "H" 
			},
			{
				"x": 2.8863805036,
				"y": 1.6373387307,
				"z": 0.687975007,
				"element": "H" 
			},
			{
				"x": 1.3181555554,
				"y": 2.3689723162,
				"z": 0.4170541537,
				"element": "H" 
			},
			{
				"x": 2.4579370833,
				"y": -0.198844102,
				"z": -0.7507778824,
				"element": "H" 
			},
			{
				"x": 1.7095228187,
				"y": 1.1498884067,
				"z": -1.5776294042,
				"element": "H" 
			},
			{
				"x": -0.5047445909,
				"y": 0.7329639667,
				"z": -2.5128887105,
				"element": "H" 
			},
			{
				"x": -1.1008277854,
				"y": -0.9257633044,
				"z": -2.3258445077,
				"element": "H" 
			},
			{
				"x": 0.5546337306,
				"y": -0.6389067396,
				"z": -2.8663921054,
				"element": "H" 
			},
			{
				"x": 1.2252580954,
				"y": -2.2245900496,
				"z": -0.9980593193,
				"element": "H" 
			},
			{
				"x": 0.9277447625,
				"y": -1.8326915469,
				"z": 0.6957363922,
				"element": "H" 
			},
			{
				"x": -0.4105908002,
				"y": -2.3323618685,
				"z": -0.3458493738,
				"element": "H" 
			}
		],
		 "valence_orbital": [ 
			{
				"type": "occ",
				"energy": -0.33276,
				"method": "rhf"
			},
			{
				"type": "occ",
				"energy": -0.32374,
				"method": "rhf"
			},
			{
				"type": "occ",
				"energy": -0.28795,
				"method": "rhf"
			},
			{
				"type": "occ",
				"energy": -0.28511,
				"method": "rhf"
			},
			{
				"type": "occ",
				"energy": -0.28086,
				"method": "rhf"
			},
			{
				"type": "unocc",
				"energy": 0.07616,
				"method": "rhf"
			},
			{
				"type": "unocc",
				"energy": 0.10618,
				"method": "rhf"
			},
			{
				"type": "unocc",
				"energy": 0.10818,
				"method": "rhf"
			},
			{
				"type": "unocc",
				"energy": 0.12097,
				"method": "rhf"
			},
			{
				"type": "unocc",
				"energy": 0.13873,
				"method": "rhf"
			}
		],
		"cosmo_sigma_profile": { 
			"-0.025": 0.0,
			"-0.024": 0.0,
			"-0.023": 0.0,
			"-0.022": 0.0,
			"-0.021": 0.0,
			"-0.02": 0.0,
			"-0.019": 0.0,
			"-0.018": 0.0,
			"-0.017": 0.0,
			"-0.016": 0.0,
			"-0.015": 0.0,
			"-0.014": 0.0,
			"-0.013": 0.0,
			"-0.012": 0.0,
			"-0.011": 0.0,
			"-0.01": 0.0,
			"-0.009": 0.0,
			"-0.008": 0.0,
			"-0.007": 0.0,
			"-0.006": 0.0,
			"-0.005": 0.0,
			"-0.004": 0.0,
			"-0.003": 1.97674560051,
			"-0.002": 25.0255249563,
			"-0.001": 46.0822736065,
			"0.0": 47.9216263613,
			"0.001": 38.0932359574,
			"0.002": 28.4964013562,
			"0.003": 2.52098419677,
			"0.004": 0.0,
			"0.005": 0.0,
			"0.006": 0.0,
			"0.007": 0.0,
			"0.008": 0.0,
			"0.009": 0.0,
			"0.01": 0.0,
			"0.011": 0.0,
			"0.012": 0.0,
			"0.013": 0.0,
			"0.014": 0.0,
			"0.015": 0.0,
			"0.016": 0.0,
			"0.017": 0.0,
			"0.018": 0.0,
			"0.019": 0.0,
			"0.02": 0.0,
			"0.021": 0.0,
			"0.022": 0.0,
			"0.023": 0.0,
			"0.024": 0.0,
			"0.025": 0.0
		}
	}
}
