{
	 "smiles": "O=C1NC(=O)C(=O)N1C1CCS(=O)(=O)C1", 
	 "Tm": 518.15, 
	 "num_atms": 23, 
	 "gaussian": { 
		 "optdone": 1, 
		 "sigma_profile": "yes", 
		 "theory": "DFT", 
		 "functional": "B3LYP", 
		 "basiset": "6-31G**", 
		 "properties": { 
			 "R2extent": 3990.1467, 
			 "electric_dipole_moment_norm": 4.40141210295, 
			 "electric_quadrupole_moment_norm": 28.7151260897, 
			 "total_energy": -1155.34505479, 
			 "HOMO_LUMO_gap": 0.18158, 
			 "cosmo_polarized_energy": -27.1, 
			 "cosmo_cavitation_energy": 28.91, 
			 "cosmo_dispersion_energy": -21.44, 
			 "cosmo_repulsion_energy": 1.63, 
			 "cosmo_total_nonelectrostatic_energy": 9.11, 
			 "SMD_solvation_energy": 6.27 
		},
		"coords": [
			{
				"x": 2.1285944635,
				"y": 0.6974067595,
				"z": 0.6816702325,
				"element": "O" 
			},
			{
				"x": 1.0912662845,
				"y": 1.228093579,
				"z": 0.3565748566,
				"element": "C" 
			},
			{
				"x": 0.8005413336,
				"y": 2.5943931706,
				"z": 0.4081216088,
				"element": "N" 
			},
			{
				"x": -0.4802024377,
				"y": 2.8946281697,
				"z": -0.0341406928,
				"element": "C" 
			},
			{
				"x": -1.0135307177,
				"y": 3.9714582734,
				"z": -0.1074837984,
				"element": "O" 
			},
			{
				"x": -1.0723293936,
				"y": 1.5148562921,
				"z": -0.4183587185,
				"element": "C" 
			},
			{
				"x": -2.1697959605,
				"y": 1.2808570058,
				"z": -0.8600380209,
				"element": "O" 
			},
			{
				"x": -0.0583408845,
				"y": 0.5959726879,
				"z": -0.1452532175,
				"element": "N" 
			},
			{
				"x": -0.194858743,
				"y": -0.8424396271,
				"z": -0.3676832215,
				"element": "C" 
			},
			{
				"x": 0.800362112,
				"y": -1.4006566253,
				"z": -1.4117640379,
				"element": "C" 
			},
			{
				"x": 0.6194053077,
				"y": -2.923624488,
				"z": -1.4255288823,
				"element": "C" 
			},
			{
				"x": 0.1780906487,
				"y": -3.3965425693,
				"z": 0.3012061419,
				"element": "S" 
			},
			{
				"x": -1.1439024984,
				"y": -4.04040514,
				"z": 0.2898338378,
				"element": "O" 
			},
			{
				"x": 1.3251861834,
				"y": -4.0313208304,
				"z": 0.9639781747,
				"element": "O" 
			},
			{
				"x": -0.0099026383,
				"y": -1.674501826,
				"z": 0.9106352039,
				"element": "C" 
			},
			{
				"x": 1.4737471604,
				"y": 3.2710296232,
				"z": 0.7419629497,
				"element": "H" 
			},
			{
				"x": -1.2184488526,
				"y": -0.9641503604,
				"z": -0.7356974296,
				"element": "H" 
			},
			{
				"x": 0.6137461561,
				"y": -0.9703207655,
				"z": -2.3995832605,
				"element": "H" 
			},
			{
				"x": 1.8176534239,
				"y": -1.1397999513,
				"z": -1.1082352903,
				"element": "H" 
			},
			{
				"x": -0.2196779828,
				"y": -3.2452704327,
				"z": -2.0462722732,
				"element": "H" 
			},
			{
				"x": 1.5201007367,
				"y": -3.4749088657,
				"z": -1.6985256602,
				"element": "H" 
			},
			{
				"x": -0.8657273496,
				"y": -1.6521955533,
				"z": 1.5863977153,
				"element": "H" 
			},
			{
				"x": 0.9118236484,
				"y": -1.4089585263,
				"z": 1.4308837823,
				"element": "H" 
			}
		],
		 "valence_orbital": [ 
			{
				"type": "occ",
				"energy": -0.31959,
				"method": "rhf"
			},
			{
				"type": "occ",
				"energy": -0.31555,
				"method": "rhf"
			},
			{
				"type": "occ",
				"energy": -0.30364,
				"method": "rhf"
			},
			{
				"type": "occ",
				"energy": -0.29753,
				"method": "rhf"
			},
			{
				"type": "occ",
				"energy": -0.28842,
				"method": "rhf"
			},
			{
				"type": "unocc",
				"energy": -0.10684,
				"method": "rhf"
			},
			{
				"type": "unocc",
				"energy": 0.00596,
				"method": "rhf"
			},
			{
				"type": "unocc",
				"energy": 0.04089,
				"method": "rhf"
			},
			{
				"type": "unocc",
				"energy": 0.04429,
				"method": "rhf"
			},
			{
				"type": "unocc",
				"energy": 0.04944,
				"method": "rhf"
			}
		],
		"cosmo_sigma_profile": { 
			"-0.025": 0.0,
			"-0.024": 0.0,
			"-0.023": 0.0,
			"-0.022": 0.0,
			"-0.021": 0.0,
			"-0.02": 0.0,
			"-0.019": 0.113975206698,
			"-0.018": 1.4316752127,
			"-0.017": 1.50460098106,
			"-0.016": 0.649968832745,
			"-0.015": 0.783297455294,
			"-0.014": 0.948628539301,
			"-0.013": 1.38782973073,
			"-0.012": 0.824078159104,
			"-0.011": 1.65181566471,
			"-0.01": 3.50320668475,
			"-0.009": 6.83626649264,
			"-0.008": 13.2844380698,
			"-0.007": 19.6677447548,
			"-0.006": 19.4141602519,
			"-0.005": 17.0200246883,
			"-0.004": 14.3474767659,
			"-0.003": 9.09587717347,
			"-0.002": 6.47042162307,
			"-0.001": 6.84592702637,
			"0.0": 4.7554421201,
			"0.001": 4.63748363016,
			"0.002": 4.89913625653,
			"0.003": 5.24396794557,
			"0.004": 5.34113242198,
			"0.005": 5.75781678882,
			"0.006": 4.24785974174,
			"0.007": 7.03909884334,
			"0.008": 10.1963974121,
			"0.009": 14.2407152248,
			"0.01": 15.310228082,
			"0.011": 13.9509971605,
			"0.012": 8.53608632218,
			"0.013": 0.443728277977,
			"0.014": 0.0,
			"0.015": 0.0,
			"0.016": 0.0,
			"0.017": 0.0,
			"0.018": 0.0,
			"0.019": 0.0,
			"0.02": 0.0,
			"0.021": 0.0,
			"0.022": 0.0,
			"0.023": 0.0,
			"0.024": 0.0,
			"0.025": 0.0
		}
	}
}
