{
	 "smiles": "CCC1(NC(=O)NC1=O)C1=CC=C(F)C=C1", 
	 "Tm": 369.15, 
	 "num_atms": 27, 
	 "gaussian": { 
		 "optdone": 1, 
		 "sigma_profile": "yes", 
		 "theory": "DFT", 
		 "functional": "B3LYP", 
		 "basiset": "6-31G**", 
		 "properties": { 
			 "R2extent": 4447.6506, 
			 "electric_dipole_moment_norm": 2.17765878411, 
			 "electric_quadrupole_moment_norm": 11.8486702912, 
			 "total_energy": -785.629243592, 
			 "HOMO_LUMO_gap": 0.22379, 
			 "cosmo_polarized_energy": -15.98, 
			 "cosmo_cavitation_energy": 30.78, 
			 "cosmo_dispersion_energy": -21.87, 
			 "cosmo_repulsion_energy": 1.68, 
			 "cosmo_total_nonelectrostatic_energy": 10.59, 
			 "SMD_solvation_energy": 7.07 
		},
		"coords": [
			{
				"x": -1.0531265677,
				"y": -2.4498529657,
				"z": 2.3552490299,
				"element": "C" 
			},
			{
				"x": -1.960054951,
				"y": -1.530125834,
				"z": 1.5348716441,
				"element": "C" 
			},
			{
				"x": -1.6020762662,
				"y": -1.3505570138,
				"z": 0.0258755981,
				"element": "C" 
			},
			{
				"x": -2.6194148161,
				"y": -0.5058556224,
				"z": -0.6119450747,
				"element": "N" 
			},
			{
				"x": -3.4313392555,
				"y": -1.1819811838,
				"z": -1.4909949169,
				"element": "C" 
			},
			{
				"x": -4.4227199136,
				"y": -0.7844058035,
				"z": -2.0643020224,
				"element": "O" 
			},
			{
				"x": -2.8702441544,
				"y": -2.4703772815,
				"z": -1.5977369326,
				"element": "N" 
			},
			{
				"x": -1.8173587353,
				"y": -2.6841785169,
				"z": -0.7389227403,
				"element": "C" 
			},
			{
				"x": -1.2037088981,
				"y": -3.7244307453,
				"z": -0.6006210106,
				"element": "O" 
			},
			{
				"x": -0.184912974,
				"y": -0.7960255386,
				"z": -0.1776520412,
				"element": "C" 
			},
			{
				"x": 0.0110156567,
				"y": 0.5794760832,
				"z": -0.3606243018,
				"element": "C" 
			},
			{
				"x": 1.2909193668,
				"y": 1.1161518941,
				"z": -0.4958685958,
				"element": "C" 
			},
			{
				"x": 2.3826552663,
				"y": 0.2581195765,
				"z": -0.4512527324,
				"element": "C" 
			},
			{
				"x": 3.6240126906,
				"y": 0.7680922973,
				"z": -0.5844631627,
				"element": "F" 
			},
			{
				"x": 2.2266984112,
				"y": -1.1117274826,
				"z": -0.280475472,
				"element": "C" 
			},
			{
				"x": 0.9406981357,
				"y": -1.6335723396,
				"z": -0.1412758739,
				"element": "C" 
			},
			{
				"x": -0.0317100294,
				"y": -2.064726607,
				"z": 2.4087857427,
				"element": "H" 
			},
			{
				"x": -1.0172338431,
				"y": -3.4554130664,
				"z": 1.929648904,
				"element": "H" 
			},
			{
				"x": -1.4369817916,
				"y": -2.5231380239,
				"z": 3.3774972868,
				"element": "H" 
			},
			{
				"x": -1.9589515545,
				"y": -0.5239655539,
				"z": 1.9747918516,
				"element": "H" 
			},
			{
				"x": -2.9949695904,
				"y": -1.8918393767,
				"z": 1.5803939876,
				"element": "H" 
			},
			{
				"x": -2.9907518704,
				"y": 0.3218994612,
				"z": -0.17002903,
				"element": "H" 
			},
			{
				"x": -3.2533721016,
				"y": -3.1792554994,
				"z": -2.2069041126,
				"element": "H" 
			},
			{
				"x": -0.8410799976,
				"y": 1.247740575,
				"z": -0.4203888414,
				"element": "H" 
			},
			{
				"x": 1.4476057625,
				"y": 2.1793103806,
				"z": -0.642140686,
				"element": "H" 
			},
			{
				"x": 3.1008242661,
				"y": -1.7536119407,
				"z": -0.262936374,
				"element": "H" 
			},
			{
				"x": 0.8082777545,
				"y": -2.7027498722,
				"z": -0.0278801234,
				"element": "H" 
			}
		],
		 "valence_orbital": [ 
			{
				"type": "occ",
				"energy": -0.29371,
				"method": "rhf"
			},
			{
				"type": "occ",
				"energy": -0.2768,
				"method": "rhf"
			},
			{
				"type": "occ",
				"energy": -0.27008,
				"method": "rhf"
			},
			{
				"type": "occ",
				"energy": -0.26565,
				"method": "rhf"
			},
			{
				"type": "occ",
				"energy": -0.24628,
				"method": "rhf"
			},
			{
				"type": "unocc",
				"energy": -0.02249,
				"method": "rhf"
			},
			{
				"type": "unocc",
				"energy": -0.01845,
				"method": "rhf"
			},
			{
				"type": "unocc",
				"energy": -0.0031,
				"method": "rhf"
			},
			{
				"type": "unocc",
				"energy": 0.05245,
				"method": "rhf"
			},
			{
				"type": "unocc",
				"energy": 0.06257,
				"method": "rhf"
			}
		],
		"cosmo_sigma_profile": { 
			"-0.025": 0.0,
			"-0.024": 0.0,
			"-0.023": 0.0,
			"-0.022": 0.0,
			"-0.021": 0.0,
			"-0.02": 0.0,
			"-0.019": 0.0,
			"-0.018": 0.0,
			"-0.017": 0.462129387677,
			"-0.016": 1.66056874116,
			"-0.015": 1.94206914428,
			"-0.014": 2.14309265183,
			"-0.013": 1.61012657985,
			"-0.012": 2.05395230458,
			"-0.011": 2.74791426429,
			"-0.01": 2.26523622864,
			"-0.009": 2.21222701514,
			"-0.008": 2.66834182643,
			"-0.007": 6.50867053689,
			"-0.006": 8.54608690819,
			"-0.005": 11.3467120213,
			"-0.004": 14.4062379746,
			"-0.003": 14.5582602602,
			"-0.002": 19.4089407901,
			"-0.001": 18.5925120069,
			"0.0": 20.452666397,
			"0.001": 20.4366535973,
			"0.002": 15.0071433731,
			"0.003": 17.2922159632,
			"0.004": 20.1739301397,
			"0.005": 6.47347960962,
			"0.006": 2.3650238964,
			"0.007": 2.52041932991,
			"0.008": 2.09174875499,
			"0.009": 2.98085140719,
			"0.01": 3.58058115265,
			"0.011": 4.64168737465,
			"0.012": 7.56728971382,
			"0.013": 5.33947073071,
			"0.014": 0.424992650714,
			"0.015": 0.0,
			"0.016": 0.0,
			"0.017": 0.0,
			"0.018": 0.0,
			"0.019": 0.0,
			"0.02": 0.0,
			"0.021": 0.0,
			"0.022": 0.0,
			"0.023": 0.0,
			"0.024": 0.0,
			"0.025": 0.0
		}
	}
}
