{
	 "smiles": "FC(F)(F)C1=C(Cl)C=CC(=C1)C#N", 
	 "Tm": 339.15, 
	 "num_atms": 16, 
	 "gaussian": { 
		 "optdone": 1, 
		 "sigma_profile": "yes", 
		 "theory": "DFT", 
		 "functional": "B3LYP", 
		 "basiset": "6-31G**", 
		 "properties": { 
			 "R2extent": 3500.1424, 
			 "electric_dipole_moment_norm": 2.72788961287, 
			 "electric_quadrupole_moment_norm": 21.8831751855, 
			 "total_energy": -1121.10628815, 
			 "HOMO_LUMO_gap": 0.19935, 
			 "cosmo_polarized_energy": -8.72, 
			 "cosmo_cavitation_energy": 25.03, 
			 "cosmo_dispersion_energy": -17.46, 
			 "cosmo_repulsion_energy": 1.32, 
			 "cosmo_total_nonelectrostatic_energy": 8.88, 
			 "SMD_solvation_energy": 6.62 
		},
		"coords": [
			{
				"x": -1.8927363537,
				"y": 0.0883337876,
				"z": 0.3110785794,
				"element": "F" 
			},
			{
				"x": -0.6105185317,
				"y": -0.0193375914,
				"z": -0.0976219288,
				"element": "C" 
			},
			{
				"x": -0.5933338183,
				"y": 0.2054625984,
				"z": -1.4253017218,
				"element": "F" 
			},
			{
				"x": -0.2308024259,
				"y": -1.2950375935,
				"z": 0.1072845584,
				"element": "F" 
			},
			{
				"x": 0.282248892,
				"y": 0.9543758393,
				"z": 0.6445817985,
				"element": "C" 
			},
			{
				"x": 1.6635407459,
				"y": 1.0390037976,
				"z": 0.39945332,
				"element": "C" 
			},
			{
				"x": 2.4476956344,
				"y": 0.0225132924,
				"z": -0.7828900533,
				"element": "Cl" 
			},
			{
				"x": 2.455610432,
				"y": 1.9489232405,
				"z": 1.1029976405,
				"element": "C" 
			},
			{
				"x": 1.8836435839,
				"y": 2.7828989212,
				"z": 2.0563189273,
				"element": "C" 
			},
			{
				"x": 0.5060479668,
				"y": 2.7097996453,
				"z": 2.3120797901,
				"element": "C" 
			},
			{
				"x": -0.2840074716,
				"y": 1.7944115964,
				"z": 1.6024990521,
				"element": "C" 
			},
			{
				"x": -0.093995157,
				"y": 3.56534344,
				"z": 3.2934826258,
				"element": "C" 
			},
			{
				"x": -0.5762106476,
				"y": 4.261367788,
				"z": 4.090564133,
				"element": "N" 
			},
			{
				"x": 3.5187163591,
				"y": 1.9966293875,
				"z": 0.897105633,
				"element": "H" 
			},
			{
				"x": 2.4990015723,
				"y": 3.4894328389,
				"z": 2.602596906,
				"element": "H" 
			},
			{
				"x": -1.3474007807,
				"y": 1.7353790119,
				"z": 1.7972707397,
				"element": "H" 
			}
		],
		 "valence_orbital": [ 
			{
				"type": "occ",
				"energy": -0.34736,
				"method": "rhf"
			},
			{
				"type": "occ",
				"energy": -0.34544,
				"method": "rhf"
			},
			{
				"type": "occ",
				"energy": -0.33858,
				"method": "rhf"
			},
			{
				"type": "occ",
				"energy": -0.30652,
				"method": "rhf"
			},
			{
				"type": "occ",
				"energy": -0.27825,
				"method": "rhf"
			},
			{
				"type": "unocc",
				"energy": -0.0789,
				"method": "rhf"
			},
			{
				"type": "unocc",
				"energy": -0.05799,
				"method": "rhf"
			},
			{
				"type": "unocc",
				"energy": 0.00231,
				"method": "rhf"
			},
			{
				"type": "unocc",
				"energy": 0.01929,
				"method": "rhf"
			},
			{
				"type": "unocc",
				"energy": 0.04314,
				"method": "rhf"
			}
		],
		"cosmo_sigma_profile": { 
			"-0.025": 0.0,
			"-0.024": 0.0,
			"-0.023": 0.0,
			"-0.022": 0.0,
			"-0.021": 0.0,
			"-0.02": 0.0,
			"-0.019": 0.0,
			"-0.018": 0.0,
			"-0.017": 0.0,
			"-0.016": 0.0,
			"-0.015": 0.0,
			"-0.014": 0.0,
			"-0.013": 0.0,
			"-0.012": 0.0,
			"-0.011": 0.0,
			"-0.01": 0.845443025164,
			"-0.009": 6.16044419515,
			"-0.008": 6.51381393595,
			"-0.007": 5.21690716527,
			"-0.006": 5.73297126403,
			"-0.005": 6.04651063766,
			"-0.004": 10.0318473879,
			"-0.003": 12.2823041177,
			"-0.002": 21.9406989357,
			"-0.001": 21.1455625667,
			"0.0": 14.8213188936,
			"0.001": 13.3560492865,
			"0.002": 31.2059174586,
			"0.003": 23.457424157,
			"0.004": 3.99832083134,
			"0.005": 2.53443917428,
			"0.006": 2.52990301216,
			"0.007": 3.18312212065,
			"0.008": 3.43063500237,
			"0.009": 3.30341934813,
			"0.01": 2.80533800347,
			"0.011": 2.56516566963,
			"0.012": 2.00662696205,
			"0.013": 0.549397329955,
			"0.014": 0.0,
			"0.015": 0.0,
			"0.016": 0.0,
			"0.017": 0.0,
			"0.018": 0.0,
			"0.019": 0.0,
			"0.02": 0.0,
			"0.021": 0.0,
			"0.022": 0.0,
			"0.023": 0.0,
			"0.024": 0.0,
			"0.025": 0.0
		}
	}
}
