{
	 "smiles": "CC1=NN(C(Cl)=C1C=O)C1=CC=C(F)C=C1", 
	 "Tm": 398.15, 
	 "num_atms": 24, 
	 "gaussian": { 
		 "optdone": 1, 
		 "sigma_profile": "yes", 
		 "theory": "DFT", 
		 "functional": "B3LYP", 
		 "basiset": "6-31G**", 
		 "properties": { 
			 "R2extent": 4847.1323, 
			 "electric_dipole_moment_norm": 2.60235990977, 
			 "electric_quadrupole_moment_norm": 19.2703380917, 
			 "total_energy": -1168.71229884, 
			 "HOMO_LUMO_gap": 0.18863, 
			 "cosmo_polarized_energy": -10.97, 
			 "cosmo_cavitation_energy": 31.58, 
			 "cosmo_dispersion_energy": -22.45, 
			 "cosmo_repulsion_energy": 1.72, 
			 "cosmo_total_nonelectrostatic_energy": 10.85, 
			 "SMD_solvation_energy": 6.07 
		},
		"coords": [
			{
				"x": -1.1810720579,
				"y": -3.5035085552,
				"z": -0.8329172038,
				"element": "C" 
			},
			{
				"x": -0.9204682411,
				"y": -2.0311492326,
				"z": -0.926710725,
				"element": "C" 
			},
			{
				"x": 0.0427677126,
				"y": -1.481501112,
				"z": -0.20166324,
				"element": "N" 
			},
			{
				"x": 0.0189133048,
				"y": -0.1412323457,
				"z": -0.5001386427,
				"element": "N" 
			},
			{
				"x": -0.9457226337,
				"y": 0.1367644394,
				"z": -1.4157739005,
				"element": "C" 
			},
			{
				"x": -1.1973967842,
				"y": 1.6990763248,
				"z": -2.0776306528,
				"element": "Cl" 
			},
			{
				"x": -1.5958578556,
				"y": -1.057378617,
				"z": -1.7238491504,
				"element": "C" 
			},
			{
				"x": -2.7031700693,
				"y": -1.2830912733,
				"z": -2.6481517371,
				"element": "C" 
			},
			{
				"x": -3.2575100854,
				"y": -0.4259977849,
				"z": -3.3144380475,
				"element": "O" 
			},
			{
				"x": 0.9781081926,
				"y": 0.7147924227,
				"z": 0.1191894484,
				"element": "C" 
			},
			{
				"x": 0.5969868904,
				"y": 1.940145491,
				"z": 0.6733459898,
				"element": "C" 
			},
			{
				"x": 1.5537481328,
				"y": 2.7497421487,
				"z": 1.2829509228,
				"element": "C" 
			},
			{
				"x": 2.8700155883,
				"y": 2.3064337211,
				"z": 1.3449957876,
				"element": "C" 
			},
			{
				"x": 3.7937250165,
				"y": 3.0852250606,
				"z": 1.9393204206,
				"element": "F" 
			},
			{
				"x": 3.2605672073,
				"y": 1.0792128086,
				"z": 0.818153412,
				"element": "C" 
			},
			{
				"x": 2.3051767673,
				"y": 0.2798525227,
				"z": 0.1971722402,
				"element": "C" 
			},
			{
				"x": -1.0652731812,
				"y": -3.9944129864,
				"z": -1.8049903637,
				"element": "H" 
			},
			{
				"x": -0.473613453,
				"y": -3.9510421172,
				"z": -0.1319210102,
				"element": "H" 
			},
			{
				"x": -2.1967120641,
				"y": -3.7093275845,
				"z": -0.4788154616,
				"element": "H" 
			},
			{
				"x": -3.0266453163,
				"y": -2.3453115685,
				"z": -2.7087065259,
				"element": "H" 
			},
			{
				"x": -0.4383172185,
				"y": 2.2571054854,
				"z": 0.6410717092,
				"element": "H" 
			},
			{
				"x": 1.2875983254,
				"y": 3.7055298426,
				"z": 1.7199730644,
				"element": "H" 
			},
			{
				"x": 4.2963652684,
				"y": 0.767715435,
				"z": 0.8931906256,
				"element": "H" 
			},
			{
				"x": 2.5722865536,
				"y": -0.6838425254,
				"z": -0.2197569595,
				"element": "H" 
			}
		],
		 "valence_orbital": [ 
			{
				"type": "occ",
				"energy": -0.29036,
				"method": "rhf"
			},
			{
				"type": "occ",
				"energy": -0.27872,
				"method": "rhf"
			},
			{
				"type": "occ",
				"energy": -0.25875,
				"method": "rhf"
			},
			{
				"type": "occ",
				"energy": -0.25082,
				"method": "rhf"
			},
			{
				"type": "occ",
				"energy": -0.24522,
				"method": "rhf"
			},
			{
				"type": "unocc",
				"energy": -0.05659,
				"method": "rhf"
			},
			{
				"type": "unocc",
				"energy": -0.02866,
				"method": "rhf"
			},
			{
				"type": "unocc",
				"energy": -0.02244,
				"method": "rhf"
			},
			{
				"type": "unocc",
				"energy": 0.01207,
				"method": "rhf"
			},
			{
				"type": "unocc",
				"energy": 0.02313,
				"method": "rhf"
			}
		],
		"cosmo_sigma_profile": { 
			"-0.025": 0.0,
			"-0.024": 0.0,
			"-0.023": 0.0,
			"-0.022": 0.0,
			"-0.021": 0.0,
			"-0.02": 0.0,
			"-0.019": 0.0,
			"-0.018": 0.0,
			"-0.017": 0.0,
			"-0.016": 0.0,
			"-0.015": 0.0,
			"-0.014": 0.0,
			"-0.013": 0.0,
			"-0.012": 0.0,
			"-0.011": 0.0,
			"-0.01": 0.0,
			"-0.009": 0.0267330890842,
			"-0.008": 3.71048434812,
			"-0.007": 9.05364123874,
			"-0.006": 17.2050884281,
			"-0.005": 16.7853955504,
			"-0.004": 15.0556601796,
			"-0.003": 18.5142815199,
			"-0.002": 19.1708835028,
			"-0.001": 24.6068895094,
			"0.0": 26.6236374833,
			"0.001": 20.251679996,
			"0.002": 24.9985344913,
			"0.003": 14.3675610354,
			"0.004": 12.8656389133,
			"0.005": 4.31755182504,
			"0.006": 3.33611072975,
			"0.007": 3.49013614726,
			"0.008": 3.53129581532,
			"0.009": 3.1345514937,
			"0.01": 3.63129409977,
			"0.011": 4.6192791029,
			"0.012": 4.91254449496,
			"0.013": 1.90323019832,
			"0.014": 0.156586520806,
			"0.015": 0.0,
			"0.016": 0.0,
			"0.017": 0.0,
			"0.018": 0.0,
			"0.019": 0.0,
			"0.02": 0.0,
			"0.021": 0.0,
			"0.022": 0.0,
			"0.023": 0.0,
			"0.024": 0.0,
			"0.0": 0.0
		}
	}
}
