{
	 "smiles": "NN1C(SCC(O)=O)=NN=C1C1CCCCC1", 
	 "Tm": 433.15, 
	 "num_atms": 33, 
	 "gaussian": { 
		 "optdone": 1, 
		 "sigma_profile": "yes", 
		 "theory": "DFT", 
		 "functional": "B3LYP", 
		 "basiset": "6-31G**", 
		 "properties": { 
			 "R2extent": 7326.5783, 
			 "electric_dipole_moment_norm": 8.3841502712, 
			 "electric_quadrupole_moment_norm": 41.9649073601, 
			 "total_energy": -1158.31760808, 
			 "HOMO_LUMO_gap": 0.21493, 
			 "cosmo_polarized_energy": -22.36, 
			 "cosmo_cavitation_energy": 36.2, 
			 "cosmo_dispersion_energy": -26.65, 
			 "cosmo_repulsion_energy": 2.05, 
			 "cosmo_total_nonelectrostatic_energy": 11.6, 
			 "SMD_solvation_energy": 5.23 
		},
		"coords": [
			{
				"x": 1.72373021,
				"y": 1.1696026863,
				"z": 1.3756554906,
				"element": "N" 
			},
			{
				"x": 0.606425241,
				"y": 1.3612571541,
				"z": 0.5538781405,
				"element": "N" 
			},
			{
				"x": 0.2939762208,
				"y": 2.4587870812,
				"z": -0.2083959237,
				"element": "C" 
			},
			{
				"x": 1.2950680843,
				"y": 3.9011693182,
				"z": -0.2641284166,
				"element": "S" 
			},
			{
				"x": 0.7195204585,
				"y": 4.6074572855,
				"z": -1.8710889846,
				"element": "C" 
			},
			{
				"x": -0.6055248752,
				"y": 5.3893983956,
				"z": -1.8177660227,
				"element": "C" 
			},
			{
				"x": -1.7109158342,
				"y": 4.6815900926,
				"z": -1.6012677984,
				"element": "O" 
			},
			{
				"x": -0.615762444,
				"y": 6.5854651109,
				"z": -2.0026636986,
				"element": "O" 
			},
			{
				"x": -0.8209861933,
				"y": 2.2345932583,
				"z": -0.8618575993,
				"element": "N" 
			},
			{
				"x": -1.2604341259,
				"y": 0.9618815884,
				"z": -0.5371579375,
				"element": "N" 
			},
			{
				"x": -0.4037578606,
				"y": 0.4434580506,
				"z": 0.3103862984,
				"element": "C" 
			},
			{
				"x": -0.5242489811,
				"y": -0.9181741036,
				"z": 0.9204416314,
				"element": "C" 
			},
			{
				"x": -0.6561335784,
				"y": -0.896325258,
				"z": 2.4598334527,
				"element": "C" 
			},
			{
				"x": -1.085631183,
				"y": -2.2865644243,
				"z": 2.985805516,
				"element": "C" 
			},
			{
				"x": -0.5296073831,
				"y": -3.4450797932,
				"z": 2.1221703419,
				"element": "C" 
			},
			{
				"x": 0.8021362827,
				"y": -3.0551146343,
				"z": 1.4683259156,
				"element": "C" 
			},
			{
				"x": 0.620832549,
				"y": -1.8790579186,
				"z": 0.4811673711,
				"element": "C" 
			},
			{
				"x": 1.684714995,
				"y": 1.8264178183,
				"z": 2.1523189322,
				"element": "H" 
			},
			{
				"x": 2.5649519817,
				"y": 1.3553251607,
				"z": 0.832590934,
				"element": "H" 
			},
			{
				"x": 1.503743018,
				"y": 5.3078948301,
				"z": -2.1577000695,
				"element": "H" 
			},
			{
				"x": 0.6711640532,
				"y": 3.7873072748,
				"z": -2.5925780446,
				"element": "H" 
			},
			{
				"x": -1.5179287188,
				"y": 3.7130500713,
				"z": -1.4496404127,
				"element": "H" 
			},
			{
				"x": -1.4695752978,
				"y": -1.2944683213,
				"z": 0.5133855793,
				"element": "H" 
			},
			{
				"x": -1.3823683237,
				"y": -0.1362830731,
				"z": 2.7677083664,
				"element": "H" 
			},
			{
				"x": 0.3080261219,
				"y": -0.6074253323,
				"z": 2.8917070424,
				"element": "H" 
			},
			{
				"x": -0.7409629176,
				"y": -2.3937898167,
				"z": 4.0208141996,
				"element": "H" 
			},
			{
				"x": -2.1794563531,
				"y": -2.34799439,
				"z": 3.0180774821,
				"element": "H" 
			},
			{
				"x": -0.4116052865,
				"y": -4.3466774842,
				"z": 2.7328126261,
				"element": "H" 
			},
			{
				"x": -1.2494845128,
				"y": -3.7037733363,
				"z": 1.3347140529,
				"element": "H" 
			},
			{
				"x": 1.5159669147,
				"y": -2.7736022212,
				"z": 2.2531070269,
				"element": "H" 
			},
			{
				"x": 1.2442251146,
				"y": -3.9103360592,
				"z": 0.9456207109,
				"element": "H" 
			},
			{
				"x": 1.5612637875,
				"y": -1.3255242033,
				"z": 0.4018248354,
				"element": "H" 
			},
			{
				"x": 0.3888388362,
				"y": -2.2562648073,
				"z": -0.5212010383,
				"element": "H" 
			}
		],
		 "valence_orbital": [ 
			{
				"type": "occ",
				"energy": -0.30549,
				"method": "rhf"
			},
			{
				"type": "occ",
				"energy": -0.29391,
				"method": "rhf"
			},
			{
				"type": "occ",
				"energy": -0.27922,
				"method": "rhf"
			},
			{
				"type": "occ",
				"energy": -0.25993,
				"method": "rhf"
			},
			{
				"type": "occ",
				"energy": -0.24303,
				"method": "rhf"
			},
			{
				"type": "unocc",
				"energy": -0.0281,
				"method": "rhf"
			},
			{
				"type": "unocc",
				"energy": -0.00383,
				"method": "rhf"
			},
			{
				"type": "unocc",
				"energy": 0.01942,
				"method": "rhf"
			},
			{
				"type": "unocc",
				"energy": 0.02665,
				"method": "rhf"
			},
			{
				"type": "unocc",
				"energy": 0.03705,
				"method": "rhf"
			}
		],
		"cosmo_sigma_profile": { 
			"-0.025": 0.0,
			"-0.024": 0.0,
			"-0.023": 0.0,
			"-0.022": 0.0,
			"-0.021": 0.0,
			"-0.02": 0.0,
			"-0.019": 0.0,
			"-0.018": 0.0,
			"-0.017": 0.0,
			"-0.016": 0.0,
			"-0.015": 0.00793366942744,
			"-0.014": 2.09603082896,
			"-0.013": 3.72800780654,
			"-0.012": 3.66249719181,
			"-0.011": 2.81860931278,
			"-0.01": 2.92087121497,
			"-0.009": 5.25627126341,
			"-0.008": 6.08019627505,
			"-0.007": 6.94163098662,
			"-0.006": 5.677404674,
			"-0.005": 6.97669416531,
			"-0.004": 8.86513293361,
			"-0.003": 22.2585322312,
			"-0.002": 35.8428766488,
			"-0.001": 38.1021854137,
			"0.0": 32.0621490889,
			"0.001": 23.8197573795,
			"0.002": 10.7501048146,
			"0.003": 6.82846068208,
			"0.004": 6.69043871997,
			"0.005": 6.43162639057,
			"0.006": 4.13726549915,
			"0.007": 4.73100624871,
			"0.008": 5.47709578163,
			"0.009": 5.79544756893,
			"0.01": 4.50229555915,
			"0.011": 7.69562278492,
			"0.012": 7.65895364584,
			"0.013": 4.37424219414,
			"0.014": 1.21727028692,
			"0.015": 1.2880044208,
			"0.016": 0.823007080172,
			"0.017": 0.0128494938491,
			"0.018": 0.0,
			"0.019": 0.0,
			"0.02": 0.0,
			"0.021": 0.0,
			"0.022": 0.0,
			"0.023": 0.0,
			"0.024": 0.0,
			"0.025": 0.0
		}
	}
}
