{
	 "smiles": "NC(=O)C(=N/NC1=C(Cl)C=CC(Cl)=C1)C1=NC2=C(S1)C=CC=C2", 
	 "Tm": 543.15, 
	 "num_atms": 33, 
	 "gaussian": { 
		 "optdone": 1, 
		 "sigma_profile": "yes", 
		 "theory": "DFT", 
		 "functional": "B3LYP", 
		 "basiset": "6-31G**", 
		 "properties": { 
			 "R2extent": 12433.3868, 
			 "electric_dipole_moment_norm": 2.14299764349, 
			 "electric_quadrupole_moment_norm": 14.8467495065, 
			 "total_energy": -2190.42854231, 
			 "HOMO_LUMO_gap": 0.13389, 
			 "cosmo_polarized_energy": -12.02, 
			 "cosmo_cavitation_energy": 43.36, 
			 "cosmo_dispersion_energy": -32.19, 
			 "cosmo_repulsion_energy": 2.38, 
			 "cosmo_total_nonelectrostatic_energy": 13.55, 
			 "SMD_solvation_energy": 5.56 
		},
		"coords": [
			{
				"x": 3.154207943,
				"y": -1.3223645855,
				"z": -2.2687387927,
				"element": "N" 
			},
			{
				"x": 2.5698932937,
				"y": -0.464065407,
				"z": -1.4121450986,
				"element": "C" 
			},
			{
				"x": 3.222766432,
				"y": 0.3945427455,
				"z": -0.7864341756,
				"element": "O" 
			},
			{
				"x": 1.0837122017,
				"y": -0.5724177461,
				"z": -1.225374157,
				"element": "C" 
			},
			{
				"x": 0.4049376494,
				"y": 0.220651042,
				"z": -0.4274152253,
				"element": "N" 
			},
			{
				"x": 1.0087166477,
				"y": 1.1765984574,
				"z": 0.2447922836,
				"element": "N" 
			},
			{
				"x": 0.3440827615,
				"y": 2.0095790985,
				"z": 1.1523252089,
				"element": "C" 
			},
			{
				"x": -1.0004545604,
				"y": 2.4248141794,
				"z": 1.0675067973,
				"element": "C" 
			},
			{
				"x": -2.0514850353,
				"y": 1.9745226898,
				"z": -0.2560167722,
				"element": "Cl" 
			},
			{
				"x": -1.5260484923,
				"y": 3.2790088736,
				"z": 2.0390941301,
				"element": "C" 
			},
			{
				"x": -0.744555245,
				"y": 3.7579947215,
				"z": 3.086450023,
				"element": "C" 
			},
			{
				"x": 0.5925510467,
				"y": 3.3681342418,
				"z": 3.1503329762,
				"element": "C" 
			},
			{
				"x": 1.6095245456,
				"y": 3.9597501159,
				"z": 4.4515600405,
				"element": "Cl" 
			},
			{
				"x": 1.1321301149,
				"y": 2.5044795769,
				"z": 2.2074587151,
				"element": "C" 
			},
			{
				"x": 0.2700849661,
				"y": -1.5849356818,
				"z": -1.8994470838,
				"element": "C" 
			},
			{
				"x": 0.7227064898,
				"y": -2.4842896212,
				"z": -2.7313687213,
				"element": "N" 
			},
			{
				"x": -0.2864645927,
				"y": -3.3052210051,
				"z": -3.2030065657,
				"element": "C" 
			},
			{
				"x": -1.5755313075,
				"y": -3.0101484937,
				"z": -2.6986558695,
				"element": "C" 
			},
			{
				"x": -1.4833498446,
				"y": -1.6481789363,
				"z": -1.5989758702,
				"element": "S" 
			},
			{
				"x": -2.6912541597,
				"y": -3.7557770477,
				"z": -3.0863171258,
				"element": "C" 
			},
			{
				"x": -2.5035794145,
				"y": -4.8028411912,
				"z": -3.9859990038,
				"element": "C" 
			},
			{
				"x": -1.2270534134,
				"y": -5.1033240535,
				"z": -4.4922083458,
				"element": "C" 
			},
			{
				"x": -0.1154777335,
				"y": -4.3629082013,
				"z": -4.1082995183,
				"element": "C" 
			},
			{
				"x": 2.5886846705,
				"y": -2.0238504423,
				"z": -2.7448449234,
				"element": "H" 
			},
			{
				"x": 4.1541890409,
				"y": -1.2545237393,
				"z": -2.382457238,
				"element": "H" 
			},
			{
				"x": 2.0370504501,
				"y": 1.213159292,
				"z": 0.1432138368,
				"element": "H" 
			},
			{
				"x": -2.5633253641,
				"y": 3.5834757079,
				"z": 1.9547644603,
				"element": "H" 
			},
			{
				"x": -1.1626458653,
				"y": 4.4261080228,
				"z": 3.8299241045,
				"element": "H" 
			},
			{
				"x": 2.167058726,
				"y": 2.1892863188,
				"z": 2.2851250913,
				"element": "H" 
			},
			{
				"x": -3.6790988036,
				"y": -3.5279485779,
				"z": -2.6987618409,
				"element": "H" 
			},
			{
				"x": -3.3580600345,
				"y": -5.3947832766,
				"z": -4.2998777322,
				"element": "H" 
			},
			{
				"x": -1.1094732868,
				"y": -5.9249156429,
				"z": -5.1922146902,
				"element": "H" 
			},
			{
				"x": 0.8753601739,
				"y": -4.5844114342,
				"z": -4.4914889174,
				"element": "H" 
			}
		],
		 "valence_orbital": [ 
			{
				"type": "occ",
				"energy": -0.26209,
				"method": "rhf"
			},
			{
				"type": "occ",
				"energy": -0.2588,
				"method": "rhf"
			},
			{
				"type": "occ",
				"energy": -0.24766,
				"method": "rhf"
			},
			{
				"type": "occ",
				"energy": -0.23797,
				"method": "rhf"
			},
			{
				"type": "occ",
				"energy": -0.21345,
				"method": "rhf"
			},
			{
				"type": "unocc",
				"energy": -0.07956,
				"method": "rhf"
			},
			{
				"type": "unocc",
				"energy": -0.02878,
				"method": "rhf"
			},
			{
				"type": "unocc",
				"energy": -0.02367,
				"method": "rhf"
			},
			{
				"type": "unocc",
				"energy": -0.01043,
				"method": "rhf"
			},
			{
				"type": "unocc",
				"energy": -0.00684,
				"method": "rhf"
			}
		],
		"cosmo_sigma_profile": { 
			"-0.025": 0.0,
			"-0.024": 0.0,
			"-0.023": 0.0,
			"-0.022": 0.0,
			"-0.021": 0.0,
			"-0.02": 0.0,
			"-0.019": 0.0,
			"-0.018": 0.0,
			"-0.017": 0.0,
			"-0.016": 0.0,
			"-0.015": 0.149793680931,
			"-0.014": 0.970307665453,
			"-0.013": 1.38688139813,
			"-0.012": 0.889898489925,
			"-0.011": 1.37565916578,
			"-0.01": 2.93600975974,
			"-0.009": 3.32834105924,
			"-0.008": 6.61499337586,
			"-0.007": 10.4846038596,
			"-0.006": 14.6379914047,
			"-0.005": 14.8041359915,
			"-0.004": 16.6350517259,
			"-0.003": 15.8454208166,
			"-0.002": 22.5730846042,
			"-0.001": 25.4395505201,
			"0.0": 35.7972100683,
			"0.001": 41.736080354,
			"0.002": 38.6292204799,
			"0.003": 34.6538123443,
			"0.004": 39.2370725515,
			"0.005": 14.0563674789,
			"0.006": 2.48652936554,
			"0.007": 1.76754628765,
			"0.008": 0.925032376746,
			"0.009": 1.50160893018,
			"0.01": 1.83827042693,
			"0.011": 1.04884097377,
			"0.012": 2.22918621462,
			"0.013": 1.84526402979,
			"0.014": 0.538405754198,
			"0.015": 0.0,
			"0.016": 0.0,
			"0.017": 0.0,
			"0.018": 0.0,
			"0.019": 0.0,
			"0.02": 0.0,
			"0.021": 0.0,
			"0.022": 0.0,
			"0.023": 0.0,
			"0.024": 0.0,
			"0.025": 0.0
		}
	}
}
