{
	 "smiles": "COC1=C(C(O)=O)C(OC)=C(C=C1)S(N)(=O)=O", 
	 "Tm": 425.15, 
	 "num_atms": 28, 
	 "gaussian": { 
		 "optdone": 1, 
		 "sigma_profile": "yes", 
		 "theory": "DFT", 
		 "functional": "B3LYP", 
		 "basiset": "6-31G**", 
		 "properties": { 
			 "R2extent": 4574.0584, 
			 "electric_dipole_moment_norm": 7.11189591811, 
			 "electric_quadrupole_moment_norm": 38.8681346954, 
			 "total_energy": -1253.77837733, 
			 "HOMO_LUMO_gap": 0.19653, 
			 "cosmo_polarized_energy": -25.73, 
			 "cosmo_cavitation_energy": 32.41, 
			 "cosmo_dispersion_energy": -24.42, 
			 "cosmo_repulsion_energy": 1.82, 
			 "cosmo_total_nonelectrostatic_energy": 9.81, 
			 "SMD_solvation_energy": 7.69 
		},
		"coords": [
			{
				"x": -3.3709724452,
				"y": 1.1552344912,
				"z": -2.8101389391,
				"element": "C" 
			},
			{
				"x": -2.2971007222,
				"y": 1.5806658052,
				"z": -1.9687197128,
				"element": "O" 
			},
			{
				"x": -1.63906544,
				"y": 0.669479329,
				"z": -1.1842579932,
				"element": "C" 
			},
			{
				"x": -0.5834085669,
				"y": 1.1755073033,
				"z": -0.3768632561,
				"element": "C" 
			},
			{
				"x": -0.2309960553,
				"y": 2.6492336709,
				"z": -0.3079665487,
				"element": "C" 
			},
			{
				"x": -1.1755927365,
				"y": 3.5281872413,
				"z": -0.6940749023,
				"element": "O" 
			},
			{
				"x": 0.8274748152,
				"y": 3.0586561089,
				"z": 0.1118511988,
				"element": "O" 
			},
			{
				"x": 0.1143992686,
				"y": 0.2463800496,
				"z": 0.4340454779,
				"element": "C" 
			},
			{
				"x": 1.1002033174,
				"y": 0.6186802433,
				"z": 1.2992546788,
				"element": "O" 
			},
			{
				"x": 2.442099419,
				"y": 0.7571190665,
				"z": 0.7583841279,
				"element": "C" 
			},
			{
				"x": -0.2851029093,
				"y": -1.103172855,
				"z": 0.4625809027,
				"element": "C" 
			},
			{
				"x": -1.3257811138,
				"y": -1.5609799335,
				"z": -0.3349787789,
				"element": "C" 
			},
			{
				"x": -1.996475614,
				"y": -0.6798301024,
				"z": -1.1756749352,
				"element": "C" 
			},
			{
				"x": 0.5506862078,
				"y": -2.2949406091,
				"z": 1.5283811002,
				"element": "S" 
			},
			{
				"x": 0.4947344932,
				"y": -1.6606167495,
				"z": 3.0766543773,
				"element": "N" 
			},
			{
				"x": 1.9573306796,
				"y": -2.3517325883,
				"z": 1.1349454269,
				"element": "O" 
			},
			{
				"x": -0.2883169043,
				"y": -3.4946827637,
				"z": 1.5445878155,
				"element": "O" 
			},
			{
				"x": -3.0213874668,
				"y": 0.4251491441,
				"z": -3.5468212785,
				"element": "H" 
			},
			{
				"x": -3.7144240125,
				"y": 2.0536852978,
				"z": -3.3226502359,
				"element": "H" 
			},
			{
				"x": -4.1909494995,
				"y": 0.7295573341,
				"z": -2.2220529986,
				"element": "H" 
			},
			{
				"x": -1.905170803,
				"y": 3.0620233428,
				"z": -1.1401252191,
				"element": "H" 
			},
			{
				"x": 3.046134597,
				"y": 1.1197006162,
				"z": 1.590346916,
				"element": "H" 
			},
			{
				"x": 2.8025128772,
				"y": -0.2193862456,
				"z": 0.4295438976,
				"element": "H" 
			},
			{
				"x": 2.4451871458,
				"y": 1.497267623,
				"z": -0.0396244929,
				"element": "H" 
			},
			{
				"x": -1.6046526448,
				"y": -2.6078381709,
				"z": -0.2869121052,
				"element": "H" 
			},
			{
				"x": -2.7994986562,
				"y": -1.0467011218,
				"z": -1.800988626,
				"element": "H" 
			},
			{
				"x": 0.8726733777,
				"y": -0.7149421368,
				"z": 3.0877938414,
				"element": "H" 
			},
			{
				"x": -0.4435406085,
				"y": -1.7155033906,
				"z": 3.4619802616,
				"element": "H" 
			}
		],
		 "valence_orbital": [ 
			{
				"type": "occ",
				"energy": -0.2995,
				"method": "rhf"
			},
			{
				"type": "occ",
				"energy": -0.29291,
				"method": "rhf"
			},
			{
				"type": "occ",
				"energy": -0.28213,
				"method": "rhf"
			},
			{
				"type": "occ",
				"energy": -0.26876,
				"method": "rhf"
			},
			{
				"type": "occ",
				"energy": -0.2608,
				"method": "rhf"
			},
			{
				"type": "unocc",
				"energy": -0.06427,
				"method": "rhf"
			},
			{
				"type": "unocc",
				"energy": -0.04017,
				"method": "rhf"
			},
			{
				"type": "unocc",
				"energy": 0.03121,
				"method": "rhf"
			},
			{
				"type": "unocc",
				"energy": 0.04844,
				"method": "rhf"
			},
			{
				"type": "unocc",
				"energy": 0.06041,
				"method": "rhf"
			}
		],
		"cosmo_sigma_profile": { 
			"-0.025": 0.0,
			"-0.024": 0.0,
			"-0.023": 0.0,
			"-0.022": 0.0,
			"-0.021": 0.0,
			"-0.02": 0.0,
			"-0.019": 0.0,
			"-0.018": 0.0,
			"-0.017": 0.0,
			"-0.016": 0.241515721579,
			"-0.015": 1.18698891061,
			"-0.014": 1.37850592121,
			"-0.013": 1.35147459402,
			"-0.012": 2.33180810604,
			"-0.011": 2.44263483277,
			"-0.01": 3.02622492957,
			"-0.009": 4.27694900472,
			"-0.008": 7.63355617051,
			"-0.007": 14.7306489604,
			"-0.006": 17.3909659972,
			"-0.005": 14.0416602794,
			"-0.004": 19.3401491433,
			"-0.003": 20.3605352899,
			"-0.002": 18.7900518163,
			"-0.001": 16.9197718961,
			"0.0": 12.1751026423,
			"0.001": 11.6230200882,
			"0.002": 7.30236684539,
			"0.003": 6.14939935292,
			"0.004": 5.27745233637,
			"0.005": 6.06908282065,
			"0.006": 5.95607875912,
			"0.007": 6.77285267802,
			"0.008": 6.80225921188,
			"0.009": 8.83153451639,
			"0.01": 11.5958020026,
			"0.011": 14.8070666461,
			"0.012": 7.24270990427,
			"0.013": 2.34225158145,
			"0.014": 0.195394386655,
			"0.015": 0.0,
			"0.016": 0.0,
			"0.017": 0.0,
			"0.018": 0.0,
			"0.019": 0.0,
			"0.02": 0.0,
			"0.021": 0.0,
			"0.022": 0.0,
			"0.023": 0.0,
			"0.024": 0.0,
			"0.025": 0.0
		}
	}
}
