{
	 "smiles": "CN1C(=O)NC(=O)C(N=O)=C1N", 
	 "Tm": 573.15, 
	 "num_atms": 18, 
	 "gaussian": { 
		 "optdone": 1, 
		 "sigma_profile": "yes", 
		 "theory": "DFT", 
		 "functional": "B3LYP", 
		 "basiset": "6-31G**", 
		 "properties": { 
			 "R2extent": 2805.7501, 
			 "electric_dipole_moment_norm": 7.12188868489, 
			 "electric_quadrupole_moment_norm": 21.1971258139, 
			 "total_energy": -638.792386114, 
			 "HOMO_LUMO_gap": 0.13337, 
			 "cosmo_polarized_energy": -26.2, 
			 "cosmo_cavitation_energy": 22.6, 
			 "cosmo_dispersion_energy": -17.3, 
			 "cosmo_repulsion_energy": 1.36, 
			 "cosmo_total_nonelectrostatic_energy": 6.65, 
			 "SMD_solvation_energy": 5.57 
		},
		"coords": [
			{
				"x": 0.4173018042,
				"y": 0.5664841722,
				"z": 1.658311713,
				"element": "C" 
			},
			{
				"x": -0.3462643574,
				"y": 0.9894707003,
				"z": 0.4825358717,
				"element": "N" 
			},
			{
				"x": 0.0456989836,
				"y": 2.2048294167,
				"z": -0.1399284007,
				"element": "C" 
			},
			{
				"x": 0.9744177007,
				"y": 2.867303765,
				"z": 0.2836809636,
				"element": "O" 
			},
			{
				"x": -0.7005739926,
				"y": 2.5531254568,
				"z": -1.2350756494,
				"element": "N" 
			},
			{
				"x": -1.7980816991,
				"y": 1.8751712493,
				"z": -1.8216547573,
				"element": "C" 
			},
			{
				"x": -2.3365550242,
				"y": 2.3512042926,
				"z": -2.8005153601,
				"element": "O" 
			},
			{
				"x": -2.1429720594,
				"y": 0.6338171676,
				"z": -1.127700456,
				"element": "C" 
			},
			{
				"x": -3.1980877376,
				"y": -0.065946517,
				"z": -1.6517707697,
				"element": "N" 
			},
			{
				"x": -3.5403956003,
				"y": -1.1429284416,
				"z": -1.0953726857,
				"element": "O" 
			},
			{
				"x": -1.3921251177,
				"y": 0.2326367802,
				"z": 0.0150285448,
				"element": "C" 
			},
			{
				"x": -1.7173797269,
				"y": -0.898750176,
				"z": 0.6350423487,
				"element": "N" 
			},
			{
				"x": 0.8988125219,
				"y": -0.4001105267,
				"z": 1.4784231506,
				"element": "H" 
			},
			{
				"x": -0.2319150058,
				"y": 0.5032585858,
				"z": 2.5375893106,
				"element": "H" 
			},
			{
				"x": 1.181010248,
				"y": 1.3216438078,
				"z": 1.8299321199,
				"element": "H" 
			},
			{
				"x": -0.4302824885,
				"y": 3.4189040641,
				"z": -1.6862379683,
				"element": "H" 
			},
			{
				"x": -1.2273408169,
				"y": -1.2353933236,
				"z": 1.4474384128,
				"element": "H" 
			},
			{
				"x": -2.5263676318,
				"y": -1.3748204736,
				"z": 0.1816736112,
				"element": "H" 
			}
		],
		 "valence_orbital": [ 
			{
				"type": "occ",
				"energy": -0.31275,
				"method": "rhf"
			},
			{
				"type": "occ",
				"energy": -0.29708,
				"method": "rhf"
			},
			{
				"type": "occ",
				"energy": -0.27101,
				"method": "rhf"
			},
			{
				"type": "occ",
				"energy": -0.25358,
				"method": "rhf"
			},
			{
				"type": "occ",
				"energy": -0.21596,
				"method": "rhf"
			},
			{
				"type": "unocc",
				"energy": -0.08259,
				"method": "rhf"
			},
			{
				"type": "unocc",
				"energy": -0.02059,
				"method": "rhf"
			},
			{
				"type": "unocc",
				"energy": 0.00847,
				"method": "rhf"
			},
			{
				"type": "unocc",
				"energy": 0.04332,
				"method": "rhf"
			},
			{
				"type": "unocc",
				"energy": 0.08135,
				"method": "rhf"
			}
		],
		"cosmo_sigma_profile": { 
			"-0.025": 0.0,
			"-0.024": 0.0,
			"-0.023": 0.0,
			"-0.022": 0.0,
			"-0.021": 0.0,
			"-0.02": 0.0,
			"-0.019": 0.0,
			"-0.018": 0.0,
			"-0.017": 0.486707432923,
			"-0.016": 2.10550910295,
			"-0.015": 2.32710724591,
			"-0.014": 1.65890675869,
			"-0.013": 2.28484915754,
			"-0.012": 2.89691391267,
			"-0.011": 2.49268690111,
			"-0.01": 3.1588453003,
			"-0.009": 5.15189697288,
			"-0.008": 6.79041933998,
			"-0.007": 7.3994715797,
			"-0.006": 9.97461617192,
			"-0.005": 12.2982944587,
			"-0.004": 12.3015074302,
			"-0.003": 12.7636722086,
			"-0.002": 9.78524166243,
			"-0.001": 8.57753789371,
			"0.0": 5.25041972433,
			"0.001": 3.60225473782,
			"0.002": 4.90891076124,
			"0.003": 3.88685685378,
			"0.004": 3.1622024218,
			"0.005": 3.90962300447,
			"0.006": 4.12624399379,
			"0.007": 4.43855092148,
			"0.008": 4.16032426767,
			"0.009": 5.67759530378,
			"0.01": 6.81079459424,
			"0.011": 10.5861972465,
			"0.012": 9.65175716846,
			"0.013": 4.14413150483,
			"0.014": 2.49958032033,
			"0.015": 1.25783962707,
			"0.016": 0.329841597156,
			"0.017": 0.0,
			"0.018": 0.0,
			"0.019": 0.0,
			"0.02": 0.0,
			"0.021": 0.0,
			"0.022": 0.0,
			"0.023": 0.0,
			"0.024": 0.0,
			"0.025": 0.0
		}
	}
}
