{
	 "smiles": "NC(=O)CC(N)=O", 
	 "Tm": 442.15, 
	 "num_atms": 13, 
	 "gaussian": { 
		 "optdone": 1, 
		 "sigma_profile": "yes", 
		 "theory": "DFT", 
		 "functional": "B3LYP", 
		 "basiset": "6-31G**", 
		 "properties": { 
			 "R2extent": 1085.2601, 
			 "electric_dipole_moment_norm": 3.42417695804, 
			 "electric_quadrupole_moment_norm": 16.7674110047, 
			 "total_energy": -377.923857002, 
			 "HOMO_LUMO_gap": 0.25151, 
			 "cosmo_polarized_energy": -17.34, 
			 "cosmo_cavitation_energy": 17.22, 
			 "cosmo_dispersion_energy": -13.03, 
			 "cosmo_repulsion_energy": 1.15, 
			 "cosmo_total_nonelectrostatic_energy": 5.34, 
			 "SMD_solvation_energy": 4.65 
		},
		"coords": [
			{
				"x": -2.0337991323,
				"y": 1.5041523268,
				"z": 0.0733539756,
				"element": "N" 
			},
			{
				"x": -2.2510789532,
				"y": 0.5722473254,
				"z": -0.8906733872,
				"element": "C" 
			},
			{
				"x": -3.0551719735,
				"y": 0.6916450018,
				"z": -1.8034851025,
				"element": "O" 
			},
			{
				"x": -1.454659284,
				"y": -0.7350525489,
				"z": -0.713139224,
				"element": "C" 
			},
			{
				"x": 0.006661703,
				"y": -0.565127461,
				"z": -0.3093127569,
				"element": "C" 
			},
			{
				"x": 0.8964334307,
				"y": -1.3225769863,
				"z": -1.0039777993,
				"element": "N" 
			},
			{
				"x": 0.3620984579,
				"y": 0.1820206887,
				"z": 0.6005884315,
				"element": "O" 
			},
			{
				"x": -1.2115446937,
				"y": 1.4062852998,
				"z": 0.6611720197,
				"element": "H" 
			},
			{
				"x": -2.4706896905,
				"y": 2.4052052585,
				"z": -0.0514983641,
				"element": "H" 
			},
			{
				"x": -1.9385070342,
				"y": -1.3046993516,
				"z": 0.0906578797,
				"element": "H" 
			},
			{
				"x": -1.5726066429,
				"y": -1.3012998137,
				"z": -1.6384754066,
				"element": "H" 
			},
			{
				"x": 0.6233985844,
				"y": -1.9057277742,
				"z": -1.7775496573,
				"element": "H" 
			},
			{
				"x": 1.8743652282,
				"y": -1.2460719654,
				"z": -0.7666606087,
				"element": "H" 
			}
		],
		 "valence_orbital": [ 
			{
				"type": "occ",
				"energy": -0.3672,
				"method": "rhf"
			},
			{
				"type": "occ",
				"energy": -0.2871,
				"method": "rhf"
			},
			{
				"type": "occ",
				"energy": -0.27276,
				"method": "rhf"
			},
			{
				"type": "occ",
				"energy": -0.2587,
				"method": "rhf"
			},
			{
				"type": "occ",
				"energy": -0.24375,
				"method": "rhf"
			},
			{
				"type": "unocc",
				"energy": 0.00776,
				"method": "rhf"
			},
			{
				"type": "unocc",
				"energy": 0.03773,
				"method": "rhf"
			},
			{
				"type": "unocc",
				"energy": 0.05997,
				"method": "rhf"
			},
			{
				"type": "unocc",
				"energy": 0.10376,
				"method": "rhf"
			},
			{
				"type": "unocc",
				"energy": 0.11634,
				"method": "rhf"
			}
		],
		"cosmo_sigma_profile": { 
			"-0.025": 0.0,
			"-0.024": 0.0,
			"-0.023": 0.0,
			"-0.022": 0.0,
			"-0.021": 0.0,
			"-0.02": 0.0,
			"-0.019": 0.0,
			"-0.018": 0.0,
			"-0.017": 0.0,
			"-0.016": 0.0,
			"-0.015": 1.21037190629,
			"-0.014": 3.1923864566,
			"-0.013": 3.18036909485,
			"-0.012": 3.54425620404,
			"-0.011": 4.65025333249,
			"-0.01": 3.06338939338,
			"-0.009": 3.93965493377,
			"-0.008": 5.2206952844,
			"-0.007": 6.62472351153,
			"-0.006": 5.19608610965,
			"-0.005": 5.68268712064,
			"-0.004": 6.86308980532,
			"-0.003": 5.20458979094,
			"-0.002": 5.55772683173,
			"-0.001": 5.5640648689,
			"0.0": 5.12032766059,
			"0.001": 6.88262269402,
			"0.002": 5.47945653826,
			"0.003": 4.93679196496,
			"0.004": 4.24337347601,
			"0.005": 3.7138348973,
			"0.006": 2.91945279133,
			"0.007": 3.00093699097,
			"0.008": 2.74918995385,
			"0.009": 2.74300242284,
			"0.01": 2.26129415187,
			"0.011": 3.46362706358,
			"0.012": 4.22745076924,
			"0.013": 6.65957988927,
			"0.014": 6.74244050564,
			"0.015": 1.46170755875,
			"0.016": 0.0,
			"0.017": 0.0,
			"0.018": 0.0,
			"0.019": 0.0,
			"0.02": 0.0,
			"0.021": 0.0,
			"0.022": 0.0,
			"0.023": 0.0,
			"0.024": 0.0,
			"0.025": 0.0
		}
	}
}
