{
	 "smiles": "CC1=C(C)C2=CC(=CC=C2N1)C(O)=O", 
	 "Tm": 513.15, 
	 "num_atms": 25, 
	 "gaussian": { 
		 "optdone": 1, 
		 "sigma_profile": "yes", 
		 "theory": "DFT", 
		 "functional": "B3LYP", 
		 "basiset": "6-31G**", 
		 "properties": { 
			 "R2extent": 3767.4314, 
			 "electric_dipole_moment_norm": 7.64291520691, 
			 "electric_quadrupole_moment_norm": 27.8428561972, 
			 "total_energy": -631.031602189, 
			 "HOMO_LUMO_gap": 0.17787, 
			 "cosmo_polarized_energy": -18.57, 
			 "cosmo_cavitation_energy": 28.83, 
			 "cosmo_dispersion_energy": -21.16, 
			 "cosmo_repulsion_energy": 1.66, 
			 "cosmo_total_nonelectrostatic_energy": 9.33, 
			 "SMD_solvation_energy": 5.78 
		},
		"coords": [
			{
				"x": -0.1696235029,
				"y": -0.1727127592,
				"z": -3.3122907401,
				"element": "C" 
			},
			{
				"x": 0.1189977359,
				"y": 0.1105043993,
				"z": -1.8737100012,
				"element": "C" 
			},
			{
				"x": 0.2503553465,
				"y": -0.7329552157,
				"z": -0.7936057996,
				"element": "C" 
			},
			{
				"x": 0.1358437124,
				"y": -2.2273348525,
				"z": -0.770682243,
				"element": "C" 
			},
			{
				"x": 0.5236409066,
				"y": 0.1017622224,
				"z": 0.3516214337,
				"element": "C" 
			},
			{
				"x": 0.7515748738,
				"y": -0.1610387741,
				"z": 1.7081889398,
				"element": "C" 
			},
			{
				"x": 1.0011928222,
				"y": 0.9016782065,
				"z": 2.5831570016,
				"element": "C" 
			},
			{
				"x": 1.045287286,
				"y": 2.2305351714,
				"z": 2.0992685467,
				"element": "C" 
			},
			{
				"x": 0.8143700919,
				"y": 2.5212324109,
				"z": 0.7636593969,
				"element": "C" 
			},
			{
				"x": 0.5517740223,
				"y": 1.450902638,
				"z": -0.0987817173,
				"element": "C" 
			},
			{
				"x": 0.2990761762,
				"y": 1.4253241687,
				"z": -1.4487059273,
				"element": "N" 
			},
			{
				"x": 1.2704449484,
				"y": 0.7000903518,
				"z": 4.039165884,
				"element": "C" 
			},
			{
				"x": 0.8488651223,
				"y": -0.4784168434,
				"z": 4.5826303429,
				"element": "O" 
			},
			{
				"x": 1.8278193414,
				"y": 1.5138592915,
				"z": 4.7402595111,
				"element": "O" 
			},
			{
				"x": -0.2776630281,
				"y": -1.245382862,
				"z": -3.4814638199,
				"element": "H" 
			},
			{
				"x": -1.0981116933,
				"y": 0.3108696052,
				"z": -3.6410201329,
				"element": "H" 
			},
			{
				"x": 0.6364947829,
				"y": 0.1867608781,
				"z": -3.9642207606,
				"element": "H" 
			},
			{
				"x": -0.670914944,
				"y": -2.5598980469,
				"z": -0.1055963424,
				"element": "H" 
			},
			{
				"x": -0.0722053892,
				"y": -2.6362501312,
				"z": -1.7629551186,
				"element": "H" 
			},
			{
				"x": 1.06070759,
				"y": -2.6959499241,
				"z": -0.4121646711,
				"element": "H" 
			},
			{
				"x": 0.7760415642,
				"y": -1.1923192224,
				"z": 2.0537021761,
				"element": "H" 
			},
			{
				"x": 1.2658091205,
				"y": 3.019102162,
				"z": 2.8097920568,
				"element": "H" 
			},
			{
				"x": 0.8416616495,
				"y": 3.5452769231,
				"z": 0.4022862595,
				"element": "H" 
			},
			{
				"x": 0.2683977587,
				"y": 2.2318752818,
				"z": -2.0515315159,
				"element": "H" 
			},
			{
				"x": 0.2739637057,
				"y": -0.9376150788,
				"z": 3.9551972408,
				"element": "H" 
			}
		],
		 "valence_orbital": [ 
			{
				"type": "occ",
				"energy": -0.2998,
				"method": "rhf"
			},
			{
				"type": "occ",
				"energy": -0.28113,
				"method": "rhf"
			},
			{
				"type": "occ",
				"energy": -0.25876,
				"method": "rhf"
			},
			{
				"type": "occ",
				"energy": -0.22941,
				"method": "rhf"
			},
			{
				"type": "occ",
				"energy": -0.20985,
				"method": "rhf"
			},
			{
				"type": "unocc",
				"energy": -0.03198,
				"method": "rhf"
			},
			{
				"type": "unocc",
				"energy": -0.01159,
				"method": "rhf"
			},
			{
				"type": "unocc",
				"energy": 0.05583,
				"method": "rhf"
			},
			{
				"type": "unocc",
				"energy": 0.06765,
				"method": "rhf"
			},
			{
				"type": "unocc",
				"energy": 0.06935,
				"method": "rhf"
			}
		],
		"cosmo_sigma_profile": { 
			"-0.025": 0.0,
			"-0.024": 0.0,
			"-0.023": 0.0,
			"-0.022": 0.0,
			"-0.021": 0.0,
			"-0.02": 0.0,
			"-0.019": 0.0,
			"-0.018": 0.233823585779,
			"-0.017": 0.605790469259,
			"-0.016": 1.23747510544,
			"-0.015": 2.44341625717,
			"-0.014": 2.69065188214,
			"-0.013": 1.6542597966,
			"-0.012": 1.67047577513,
			"-0.011": 2.43029420816,
			"-0.01": 3.00396682159,
			"-0.009": 2.1815060109,
			"-0.008": 2.2255112514,
			"-0.007": 4.25220839377,
			"-0.006": 6.16096869576,
			"-0.005": 11.6826418678,
			"-0.004": 15.1861837184,
			"-0.003": 17.6420064519,
			"-0.002": 16.8593667606,
			"-0.001": 18.7344367561,
			"0.0": 17.9813265631,
			"0.001": 13.760216944,
			"0.002": 9.92842759386,
			"0.003": 12.3235847714,
			"0.004": 17.3790963234,
			"0.005": 15.6117592831,
			"0.006": 3.70426607463,
			"0.007": 2.68172758748,
			"0.008": 2.56166859891,
			"0.009": 3.51826380299,
			"0.01": 3.29649171648,
			"0.011": 5.26646196651,
			"0.012": 5.95474267687,
			"0.013": 3.41880157103,
			"0.014": 0.925883049454,
			"0.015": 0.0,
			"0.016": 0.0,
			"0.017": 0.0,
			"0.018": 0.0,
			"0.019": 0.0,
			"0.02": 0.0,
			"0.021": 0.0,
			"0.022": 0.0,
			"0.023": 0.0,
			"0.024": 0.0,
			"0.025": 0.0
		}
	}
}
