{
	 "smiles": "CC(=C)[C@H]1CC=C(C)C(=O)C1", 
	 "Tm": 362.15, 
	 "num_atms": 25, 
	 "gaussian": { 
		 "optdone": 1, 
		 "sigma_profile": "yes", 
		 "theory": "DFT", 
		 "functional": "B3LYP", 
		 "basiset": "6-31G**", 
		 "properties": { 
			 "R2extent": 2508.1335, 
			 "electric_dipole_moment_norm": 3.44903480701, 
			 "electric_quadrupole_moment_norm": 11.5396315457, 
			 "total_energy": -464.705977909, 
			 "HOMO_LUMO_gap": 0.19189, 
			 "cosmo_polarized_energy": -8.36, 
			 "cosmo_cavitation_energy": 27.02, 
			 "cosmo_dispersion_energy": -19.25, 
			 "cosmo_repulsion_energy": 1.54, 
			 "cosmo_total_nonelectrostatic_energy": 9.31, 
			 "SMD_solvation_energy": 5.65 
		},
		"coords": [
			{
				"x": -2.6195105953,
				"y": 0.3381589147,
				"z": 0.9962361916,
				"element": "C" 
			},
			{
				"x": -1.3517902054,
				"y": 0.6104957676,
				"z": 0.2189887989,
				"element": "C" 
			},
			{
				"x": -1.1170065119,
				"y": 1.8138127851,
				"z": -0.3151359696,
				"element": "C" 
			},
			{
				"x": -0.3851834904,
				"y": -0.5593829586,
				"z": 0.1053884552,
				"element": "C" 
			},
			{
				"x": -0.9584596432,
				"y": -1.7052046178,
				"z": -0.7609645809,
				"element": "C" 
			},
			{
				"x": 0.0232317759,
				"y": -2.82997278,
				"z": -0.9499643091,
				"element": "C" 
			},
			{
				"x": 1.3558779263,
				"y": -2.7209932394,
				"z": -0.7886427756,
				"element": "C" 
			},
			{
				"x": 2.3151177034,
				"y": -3.869361979,
				"z": -0.9446754948,
				"element": "C" 
			},
			{
				"x": 1.9509190575,
				"y": -1.3968722586,
				"z": -0.45503776,
				"element": "C" 
			},
			{
				"x": 3.1530208169,
				"y": -1.2715531312,
				"z": -0.2662464186,
				"element": "O" 
			},
			{
				"x": 1.0117387113,
				"y": -0.1979365399,
				"z": -0.4168495405,
				"element": "C" 
			},
			{
				"x": -3.23560225,
				"y": 1.2368971854,
				"z": 1.0811950958,
				"element": "H" 
			},
			{
				"x": -2.3907327393,
				"y": -0.0153731037,
				"z": 2.0099094955,
				"element": "H" 
			},
			{
				"x": -3.230690155,
				"y": -0.4407637698,
				"z": 0.5240417072,
				"element": "H" 
			},
			{
				"x": -1.8351367986,
				"y": 2.6222294895,
				"z": -0.2102515248,
				"element": "H" 
			},
			{
				"x": -0.2127072825,
				"y": 2.0457775107,
				"z": -0.8672016057,
				"element": "H" 
			},
			{
				"x": -0.2594043045,
				"y": -0.9719620433,
				"z": 1.119187265,
				"element": "H" 
			},
			{
				"x": -1.2520602831,
				"y": -1.3040955535,
				"z": -1.7441071742,
				"element": "H" 
			},
			{
				"x": -1.8783178882,
				"y": -2.1040656681,
				"z": -0.3182224798,
				"element": "H" 
			},
			{
				"x": -0.3935295942,
				"y": -3.7957115578,
				"z": -1.2362665603,
				"element": "H" 
			},
			{
				"x": 2.8798375118,
				"y": -4.028858509,
				"z": -0.0202461902,
				"element": "H" 
			},
			{
				"x": 3.0567540813,
				"y": -3.6545065108,
				"z": -1.7212433427,
				"element": "H" 
			},
			{
				"x": 1.7910053585,
				"y": -4.7937705519,
				"z": -1.2015513622,
				"element": "H" 
			},
			{
				"x": 0.9354118827,
				"y": 0.1812456489,
				"z": -1.4470458733,
				"element": "H" 
			},
			{
				"x": 1.4871169157,
				"y": 0.5851674705,
				"z": 0.179405953,
				"element": "H" 
			}
		],
		 "valence_orbital": [ 
			{
				"type": "occ",
				"energy": -0.3328,
				"method": "rhf"
			},
			{
				"type": "occ",
				"energy": -0.32911,
				"method": "rhf"
			},
			{
				"type": "occ",
				"energy": -0.25722,
				"method": "rhf"
			},
			{
				"type": "occ",
				"energy": -0.25109,
				"method": "rhf"
			},
			{
				"type": "occ",
				"energy": -0.23703,
				"method": "rhf"
			},
			{
				"type": "unocc",
				"energy": -0.04514,
				"method": "rhf"
			},
			{
				"type": "unocc",
				"energy": 0.01829,
				"method": "rhf"
			},
			{
				"type": "unocc",
				"energy": 0.06198,
				"method": "rhf"
			},
			{
				"type": "unocc",
				"energy": 0.08231,
				"method": "rhf"
			},
			{
				"type": "unocc",
				"energy": 0.11349,
				"method": "rhf"
			}
		],
		"cosmo_sigma_profile": { 
			"-0.025": 0.0,
			"-0.024": 0.0,
			"-0.023": 0.0,
			"-0.022": 0.0,
			"-0.021": 0.0,
			"-0.02": 0.0,
			"-0.019": 0.0,
			"-0.018": 0.0,
			"-0.017": 0.0,
			"-0.016": 0.0,
			"-0.015": 0.0,
			"-0.014": 0.0,
			"-0.013": 0.0,
			"-0.012": 0.0,
			"-0.011": 0.0,
			"-0.01": 0.0,
			"-0.009": 0.0,
			"-0.008": 0.0,
			"-0.007": 0.0160457098731,
			"-0.006": 2.3036790861,
			"-0.005": 10.2255721747,
			"-0.004": 27.215351856,
			"-0.003": 29.5521285921,
			"-0.002": 26.2349756525,
			"-0.001": 22.559190996,
			"0.0": 24.2549588684,
			"0.001": 16.7735289509,
			"0.002": 10.8212239605,
			"0.003": 8.18146966718,
			"0.004": 5.26976672329,
			"0.005": 4.45273976067,
			"0.006": 4.19945512036,
			"0.007": 2.85646854281,
			"0.008": 1.76231627859,
			"0.009": 1.7850262067,
			"0.01": 1.09058029048,
			"0.011": 2.67636927347,
			"0.012": 3.81073719117,
			"0.013": 3.70916741637,
			"0.014": 1.48892367107,
			"0.015": 0.0146258328241,
			"0.016": 0.0,
			"0.017": 0.0,
			"0.018": 0.0,
			"0.019": 0.0,
			"0.02": 0.0,
			"0.021": 0.0,
			"0.022": 0.0,
			"0.023": 0.0,
			"0.024": 0.0,
			"0.025": 0.0
		}
	}
}
