{
	 "smiles": "CC(CCC=C(C)C)CC(O)=O", 
	 "Tm": 530.15, 
	 "num_atms": 30, 
	 "gaussian": { 
		 "optdone": 1, 
		 "sigma_profile": "yes", 
		 "theory": "DFT", 
		 "functional": "B3LYP", 
		 "basiset": "6-31G**", 
		 "properties": { 
			 "R2extent": 3954.2887, 
			 "electric_dipole_moment_norm": 1.01921568865, 
			 "electric_quadrupole_moment_norm": 5.61018102203, 
			 "total_energy": -542.382327882, 
			 "HOMO_LUMO_gap": 0.23993, 
			 "cosmo_polarized_energy": -8.89, 
			 "cosmo_cavitation_energy": 32.11, 
			 "cosmo_dispersion_energy": -21.88, 
			 "cosmo_repulsion_energy": 1.8, 
			 "cosmo_total_nonelectrostatic_energy": 12.04, 
			 "SMD_solvation_energy": 6.58 
		},
		"coords": [
			{
				"x": -1.7552671411,
				"y": 2.2073251817,
				"z": -1.5344686207,
				"element": "C" 
			},
			{
				"x": -1.5807578088,
				"y": 0.7084013758,
				"z": -1.2457119045,
				"element": "C" 
			},
			{
				"x": -0.2897042996,
				"y": 0.1374791087,
				"z": -1.8650262745,
				"element": "C" 
			},
			{
				"x": 1.0256925647,
				"y": 0.7024918094,
				"z": -1.2860262716,
				"element": "C" 
			},
			{
				"x": 1.2215244249,
				"y": 0.3638865212,
				"z": 0.1684630419,
				"element": "C" 
			},
			{
				"x": 1.4722078719,
				"y": 1.1839960045,
				"z": 1.2013476956,
				"element": "C" 
			},
			{
				"x": 1.6185553023,
				"y": 2.6828590576,
				"z": 1.1005897703,
				"element": "C" 
			},
			{
				"x": 1.6428338239,
				"y": 0.6354330441,
				"z": 2.5985262637,
				"element": "C" 
			},
			{
				"x": -2.7939051756,
				"y": -0.0905749069,
				"z": -1.7478363752,
				"element": "C" 
			},
			{
				"x": -4.072227791,
				"y": 0.1756629266,
				"z": -0.9815969053,
				"element": "C" 
			},
			{
				"x": -5.1523597751,
				"y": -0.3316790212,
				"z": -1.6281146172,
				"element": "O" 
			},
			{
				"x": -4.1674666974,
				"y": 0.7393265957,
				"z": 0.0873699819,
				"element": "O" 
			},
			{
				"x": -0.9285357221,
				"y": 2.7941805381,
				"z": -1.1244501514,
				"element": "H" 
			},
			{
				"x": -1.7957923773,
				"y": 2.3964774605,
				"z": -2.6149646409,
				"element": "H" 
			},
			{
				"x": -2.6770061608,
				"y": 2.5843878404,
				"z": -1.0838726589,
				"element": "H" 
			},
			{
				"x": -1.5290706973,
				"y": 0.5766151377,
				"z": -0.1581445657,
				"element": "H" 
			},
			{
				"x": -0.2835631303,
				"y": -0.9533805549,
				"z": -1.7291642084,
				"element": "H" 
			},
			{
				"x": -0.3023293034,
				"y": 0.3082270274,
				"z": -2.9509109368,
				"element": "H" 
			},
			{
				"x": 1.0782580443,
				"y": 1.7817816272,
				"z": -1.4555148648,
				"element": "H" 
			},
			{
				"x": 1.8536734457,
				"y": 0.2680730913,
				"z": -1.8657144943,
				"element": "H" 
			},
			{
				"x": 1.1472098842,
				"y": -0.7028696938,
				"z": 0.3909342068,
				"element": "H" 
			},
			{
				"x": 0.8924594038,
				"y": 3.186594537,
				"z": 1.7519004244,
				"element": "H" 
			},
			{
				"x": 2.6127673085,
				"y": 2.9969510946,
				"z": 1.4452364061,
				"element": "H" 
			},
			{
				"x": 1.4827299791,
				"y": 3.0648944064,
				"z": 0.0872424707,
				"element": "H" 
			},
			{
				"x": 1.5314492121,
				"y": -0.4520108098,
				"z": 2.6273423422,
				"element": "H" 
			},
			{
				"x": 2.6318902076,
				"y": 0.8873106065,
				"z": 3.0044068612,
				"element": "H" 
			},
			{
				"x": 0.9059201688,
				"y": 1.0714632282,
				"z": 3.2861076292,
				"element": "H" 
			},
			{
				"x": -2.9853339653,
				"y": 0.0935095055,
				"z": -2.8123019386,
				"element": "H" 
			},
			{
				"x": -2.6066709502,
				"y": -1.1703707008,
				"z": -1.6654923871,
				"element": "H" 
			},
			{
				"x": -5.9166806466,
				"y": -0.1464420383,
				"z": -1.0566552777,
				"element": "H" 
			}
		],
		 "valence_orbital": [ 
			{
				"type": "occ",
				"energy": -0.31875,
				"method": "rhf"
			},
			{
				"type": "occ",
				"energy": -0.31538,
				"method": "rhf"
			},
			{
				"type": "occ",
				"energy": -0.3112,
				"method": "rhf"
			},
			{
				"type": "occ",
				"energy": -0.27199,
				"method": "rhf"
			},
			{
				"type": "occ",
				"energy": -0.22739,
				"method": "rhf"
			},
			{
				"type": "unocc",
				"energy": 0.01254,
				"method": "rhf"
			},
			{
				"type": "unocc",
				"energy": 0.03227,
				"method": "rhf"
			},
			{
				"type": "unocc",
				"energy": 0.08105,
				"method": "rhf"
			},
			{
				"type": "unocc",
				"energy": 0.0834,
				"method": "rhf"
			},
			{
				"type": "unocc",
				"energy": 0.10064,
				"method": "rhf"
			}
		],
		"cosmo_sigma_profile": { 
			"-0.025": 0.0,
			"-0.024": 0.0,
			"-0.023": 0.0,
			"-0.022": 0.0,
			"-0.021": 0.0,
			"-0.02": 0.0,
			"-0.019": 0.0,
			"-0.018": 0.27656304021,
			"-0.017": 0.757725460481,
			"-0.016": 1.16834993396,
			"-0.015": 0.699575415564,
			"-0.014": 0.72276899771,
			"-0.013": 1.10405901415,
			"-0.012": 0.431168922925,
			"-0.011": 0.357974302906,
			"-0.01": 1.06226627142,
			"-0.009": 0.757897361659,
			"-0.008": 0.390330065321,
			"-0.007": 0.779786261843,
			"-0.006": 2.95305697475,
			"-0.005": 5.53603981367,
			"-0.004": 9.48954006562,
			"-0.003": 27.1956578136,
			"-0.002": 36.1037394756,
			"-0.001": 33.6916427843,
			"0.0": 33.4013173887,
			"0.001": 30.0780487215,
			"0.002": 14.9933376444,
			"0.003": 8.32162439641,
			"0.004": 7.61073232301,
			"0.005": 5.64463029089,
			"0.006": 4.09230814145,
			"0.007": 3.22103363449,
			"0.008": 3.69038222668,
			"0.009": 2.75803424698,
			"0.01": 3.39876526295,
			"0.011": 2.60169752441,
			"0.012": 4.67678400999,
			"0.013": 0.867121248262,
			"0.014": 0.0,
			"0.015": 0.0,
			"0.016": 0.0,
			"0.017": 0.0,
			"0.018": 0.0,
			"0.019": 0.0,
			"0.02": 0.0,
			"0.021": 0.0,
			"0.022": 0.0,
			"0.023": 0.0,
			"0.024": 0.0,
			"0.025": 0.0
		}
	}
}
