{
	 "smiles": "C1CN(CCC1NC1=CC=CC=C1)C1=CC=NC=C1", 
	 "Tm": 419.15, 
	 "num_atms": 38, 
	 "gaussian": { 
		 "optdone": 1, 
		 "sigma_profile": "yes", 
		 "theory": "DFT", 
		 "functional": "B3LYP", 
		 "basiset": "6-31G**", 
		 "properties": { 
			 "R2extent": 8583.031, 
			 "electric_dipole_moment_norm": 4.01113962111, 
			 "electric_quadrupole_moment_norm": 30.4672775044, 
			 "total_energy": -785.402131608, 
			 "HOMO_LUMO_gap": 0.20054, 
			 "cosmo_polarized_energy": -14.58, 
			 "cosmo_cavitation_energy": 38.91, 
			 "cosmo_dispersion_energy": -28.51, 
			 "cosmo_repulsion_energy": 2.15, 
			 "cosmo_total_nonelectrostatic_energy": 12.56, 
			 "SMD_solvation_energy": 2.98 
		},
		"coords": [
			{
				"x": -0.5074899691,
				"y": -0.4266647996,
				"z": -0.6083351637,
				"element": "C" 
			},
			{
				"x": 0.145419747,
				"y": -0.2742689867,
				"z": 0.7673729789,
				"element": "C" 
			},
			{
				"x": 0.7248509375,
				"y": -1.5485472702,
				"z": 1.2013328203,
				"element": "N" 
			},
			{
				"x": 1.1915960642,
				"y": -2.4619316498,
				"z": 0.1591775078,
				"element": "C" 
			},
			{
				"x": 1.6464191181,
				"y": -1.6756774743,
				"z": -1.0733533536,
				"element": "C" 
			},
			{
				"x": 0.5062162665,
				"y": -0.8499656562,
				"z": -1.7035706096,
				"element": "C" 
			},
			{
				"x": 1.0815616166,
				"y": 0.3012109801,
				"z": -2.3897516322,
				"element": "N" 
			},
			{
				"x": 0.4546580745,
				"y": 0.9389502127,
				"z": -3.4596991529,
				"element": "C" 
			},
			{
				"x": -0.8991901172,
				"y": 0.730734435,
				"z": -3.7831640064,
				"element": "C" 
			},
			{
				"x": -1.4817394888,
				"y": 1.4158664531,
				"z": -4.8515133988,
				"element": "C" 
			},
			{
				"x": -0.7441903612,
				"y": 2.3145997397,
				"z": -5.619907932,
				"element": "C" 
			},
			{
				"x": 0.6018196745,
				"y": 2.524202784,
				"z": -5.302606719,
				"element": "C" 
			},
			{
				"x": 1.1941397557,
				"y": 1.8509815012,
				"z": -4.2408118894,
				"element": "C" 
			},
			{
				"x": 0.8190999498,
				"y": -1.8796400615,
				"z": 2.5354392988,
				"element": "C" 
			},
			{
				"x": 0.6346806441,
				"y": -0.9245006626,
				"z": 3.5621973344,
				"element": "C" 
			},
			{
				"x": 0.7417784456,
				"y": -1.3197968464,
				"z": 4.8903764055,
				"element": "C" 
			},
			{
				"x": 1.0176619944,
				"y": -2.5647718098,
				"z": 5.3040184528,
				"element": "N" 
			},
			{
				"x": 1.1934735897,
				"y": -3.4656095981,
				"z": 4.3273990348,
				"element": "C" 
			},
			{
				"x": 1.1076382528,
				"y": -3.1954969021,
				"z": 2.9664761168,
				"element": "C" 
			},
			{
				"x": -1.3020840884,
				"y": -1.1792518754,
				"z": -0.5352618044,
				"element": "H" 
			},
			{
				"x": -0.980623363,
				"y": 0.5177645094,
				"z": -0.8895326474,
				"element": "H" 
			},
			{
				"x": 0.900600019,
				"y": 0.5269830153,
				"z": 0.7370018135,
				"element": "H" 
			},
			{
				"x": -0.6154636819,
				"y": 0.0292298346,
				"z": 1.4917354525,
				"element": "H" 
			},
			{
				"x": 0.4168478859,
				"y": -3.1948922934,
				"z": -0.1210203938,
				"element": "H" 
			},
			{
				"x": 2.0418147331,
				"y": -3.0318154545,
				"z": 0.5449759385,
				"element": "H" 
			},
			{
				"x": 2.0782113408,
				"y": -2.3608730831,
				"z": -1.8101091724,
				"element": "H" 
			},
			{
				"x": 2.4467644386,
				"y": -0.9945801303,
				"z": -0.7551334884,
				"element": "H" 
			},
			{
				"x": -0.0228660233,
				"y": -1.4853625043,
				"z": -2.4304970909,
				"element": "H" 
			},
			{
				"x": 2.0895834054,
				"y": 0.2956954277,
				"z": -2.4538162027,
				"element": "H" 
			},
			{
				"x": -1.5025495889,
				"y": 0.0389335752,
				"z": -3.2063636823,
				"element": "H" 
			},
			{
				"x": -2.5288008553,
				"y": 1.236900604,
				"z": -5.0811842209,
				"element": "H" 
			},
			{
				"x": -1.2051580723,
				"y": 2.8427402753,
				"z": -6.4484690618,
				"element": "H" 
			},
			{
				"x": 1.1978295127,
				"y": 3.2186452353,
				"z": -5.8886329119,
				"element": "H" 
			},
			{
				"x": 2.2409617606,
				"y": 2.0264505624,
				"z": -4.0019807721,
				"element": "H" 
			},
			{
				"x": 0.4402447742,
				"y": 0.1169718738,
				"z": 3.3362740696,
				"element": "H" 
			},
			{
				"x": 0.6032071627,
				"y": -0.5762653725,
				"z": 5.6746891173,
				"element": "H" 
			},
			{
				"x": 1.4113003197,
				"y": -4.4832182272,
				"z": 4.6503847068,
				"element": "H" 
			},
			{
				"x": 1.2347761256,
				"y": -4.0070303609,
				"z": 2.260064258,
				"element": "H" 
			}
		],
		 "valence_orbital": [ 
			{
				"type": "occ",
				"energy": -0.24841,
				"method": "rhf"
			},
			{
				"type": "occ",
				"energy": -0.24702,
				"method": "rhf"
			},
			{
				"type": "occ",
				"energy": -0.23836,
				"method": "rhf"
			},
			{
				"type": "occ",
				"energy": -0.20495,
				"method": "rhf"
			},
			{
				"type": "occ",
				"energy": -0.19958,
				"method": "rhf"
			},
			{
				"type": "unocc",
				"energy": 0.00096,
				"method": "rhf"
			},
			{
				"type": "unocc",
				"energy": 0.00292,
				"method": "rhf"
			},
			{
				"type": "unocc",
				"energy": 0.00772,
				"method": "rhf"
			},
			{
				"type": "unocc",
				"energy": 0.01643,
				"method": "rhf"
			},
			{
				"type": "unocc",
				"energy": 0.06945,
				"method": "rhf"
			}
		],
		"cosmo_sigma_profile": { 
			"-0.025": 0.0,
			"-0.024": 0.0,
			"-0.023": 0.0,
			"-0.022": 0.0,
			"-0.021": 0.0,
			"-0.02": 0.0,
			"-0.019": 0.0,
			"-0.018": 0.0,
			"-0.017": 0.0,
			"-0.016": 0.0,
			"-0.015": 0.0,
			"-0.014": 0.0,
			"-0.013": 0.0,
			"-0.012": 0.600363529682,
			"-0.011": 1.15236541726,
			"-0.01": 1.01864815475,
			"-0.009": 1.83302155362,
			"-0.008": 1.45409458211,
			"-0.007": 2.5002558601,
			"-0.006": 7.31249464101,
			"-0.005": 21.2602594179,
			"-0.004": 37.1130033745,
			"-0.003": 47.1959121941,
			"-0.002": 30.6799459515,
			"-0.001": 20.3772337538,
			"0.0": 15.1499678288,
			"0.001": 13.0744811529,
			"0.002": 14.8819594813,
			"0.003": 15.6280637081,
			"0.004": 17.6506515012,
			"0.005": 18.6165768154,
			"0.006": 12.292377901,
			"0.007": 10.9583985571,
			"0.008": 4.16103897794,
			"0.009": 2.9136828929,
			"0.01": 1.91616963203,
			"0.011": 0.842726925301,
			"0.012": 0.830767353269,
			"0.013": 1.01782283725,
			"0.014": 1.00557247278,
			"0.015": 0.807492638696,
			"0.016": 1.46114939673,
			"0.017": 0.563645707561,
			"0.018": 0.997915645111,
			"0.019": 0.0878131681155,
			"0.02": 0.0,
			"0.021": 0.0,
			"0.022": 0.0,
			"0.023": 0.0,
			"0.024": 0.0,
			"0.025": 0.0
		}
	}
}
