{
	 "smiles": "OC(=O)C1=CC2=C(S1)C=C(F)C=C2", 
	 "Tm": 494.15, 
	 "num_atms": 18, 
	 "gaussian": { 
		 "optdone": 1, 
		 "sigma_profile": "yes", 
		 "theory": "DFT", 
		 "functional": "B3LYP", 
		 "basiset": "6-31G**", 
		 "properties": { 
			 "R2extent": 3469.1859, 
			 "electric_dipole_moment_norm": 3.53109275438, 
			 "electric_quadrupole_moment_norm": 16.5702331637, 
			 "total_energy": -994.445704202, 
			 "HOMO_LUMO_gap": 0.1684, 
			 "cosmo_polarized_energy": -12.92, 
			 "cosmo_cavitation_energy": 25.18, 
			 "cosmo_dispersion_energy": -19.13, 
			 "cosmo_repulsion_energy": 1.42, 
			 "cosmo_total_nonelectrostatic_energy": 7.48, 
			 "SMD_solvation_energy": 5.53 
		},
		"coords": [
			{
				"x": -3.0618550534,
				"y": 1.0037538517,
				"z": 2.1475048112,
				"element": "O" 
			},
			{
				"x": -1.9539581725,
				"y": 1.398983926,
				"z": 1.468663975,
				"element": "C" 
			},
			{
				"x": -1.522709968,
				"y": 2.5191797204,
				"z": 1.6126451016,
				"element": "O" 
			},
			{
				"x": -1.3075828385,
				"y": 0.415871313,
				"z": 0.563455189,
				"element": "C" 
			},
			{
				"x": -0.1915965261,
				"y": 0.6877919273,
				"z": -0.172220495,
				"element": "C" 
			},
			{
				"x": 0.2512582165,
				"y": -0.4141666216,
				"z": -0.9726321537,
				"element": "C" 
			},
			{
				"x": -0.5802562342,
				"y": -1.5547424631,
				"z": -0.8185880958,
				"element": "C" 
			},
			{
				"x": -1.8847097183,
				"y": -1.2381195385,
				"z": 0.3082093546,
				"element": "S" 
			},
			{
				"x": -0.3372943613,
				"y": -2.7479634764,
				"z": -1.5051857503,
				"element": "C" 
			},
			{
				"x": 0.7601957081,
				"y": -2.769080772,
				"z": -2.3500838746,
				"element": "C" 
			},
			{
				"x": 1.0283733711,
				"y": -3.9001563094,
				"z": -3.0297181161,
				"element": "F" 
			},
			{
				"x": 1.6092949776,
				"y": -1.6673539322,
				"z": -2.53383508,
				"element": "C" 
			},
			{
				"x": 1.3548917341,
				"y": -0.4925005918,
				"z": -1.8462629717,
				"element": "C" 
			},
			{
				"x": -3.3064012381,
				"y": 0.0886417764,
				"z": 1.9487569311,
				"element": "H" 
			},
			{
				"x": 0.2905132313,
				"y": 1.6573644204,
				"z": -0.132047478,
				"element": "H" 
			},
			{
				"x": -0.9615752599,
				"y": -3.6276286797,
				"z": -1.3993858046,
				"element": "H" 
			},
			{
				"x": 2.4490440589,
				"y": -1.761423988,
				"z": -3.21304176,
				"element": "H" 
			},
			{
				"x": 2.0021680729,
				"y": 0.3692494374,
				"z": -1.9771337828,
				"element": "H" 
			}
		],
		 "valence_orbital": [ 
			{
				"type": "occ",
				"energy": -0.32293,
				"method": "rhf"
			},
			{
				"type": "occ",
				"energy": -0.30594,
				"method": "rhf"
			},
			{
				"type": "occ",
				"energy": -0.28216,
				"method": "rhf"
			},
			{
				"type": "occ",
				"energy": -0.25946,
				"method": "rhf"
			},
			{
				"type": "occ",
				"energy": -0.23978,
				"method": "rhf"
			},
			{
				"type": "unocc",
				"energy": -0.07138,
				"method": "rhf"
			},
			{
				"type": "unocc",
				"energy": -0.03072,
				"method": "rhf"
			},
			{
				"type": "unocc",
				"energy": -0.01969,
				"method": "rhf"
			},
			{
				"type": "unocc",
				"energy": 0.00983,
				"method": "rhf"
			},
			{
				"type": "unocc",
				"energy": 0.05199,
				"method": "rhf"
			}
		],
		"cosmo_sigma_profile": { 
			"-0.025": 0.0,
			"-0.024": 0.0,
			"-0.023": 0.0,
			"-0.022": 0.0,
			"-0.021": 0.0,
			"-0.02": 0.0,
			"-0.019": 0.0508449092354,
			"-0.018": 0.479117453088,
			"-0.017": 1.22034412055,
			"-0.016": 0.893769697292,
			"-0.015": 0.671142849019,
			"-0.014": 0.349774010195,
			"-0.013": 0.818031622844,
			"-0.012": 1.76912110512,
			"-0.011": 0.859338651414,
			"-0.01": 0.830884228258,
			"-0.009": 2.43329588964,
			"-0.008": 7.05553917591,
			"-0.007": 9.94103582606,
			"-0.006": 8.5416057325,
			"-0.005": 7.75105661343,
			"-0.004": 7.76634582688,
			"-0.003": 8.20288593777,
			"-0.002": 9.15374752149,
			"-0.001": 12.2901326379,
			"0.0": 19.3335655927,
			"0.001": 29.1491346967,
			"0.002": 21.2422268585,
			"0.003": 13.234213139,
			"0.004": 12.618022617,
			"0.005": 2.63089083234,
			"0.006": 1.98658862588,
			"0.007": 2.81755844956,
			"0.008": 2.60164232134,
			"0.009": 3.49746980384,
			"0.01": 4.9761207963,
			"0.011": 5.36386513824,
			"0.012": 4.17586696716,
			"0.013": 0.897748055931,
			"0.014": 0.0,
			"0.015": 0.0,
			"0.016": 0.0,
			"0.017": 0.0,
			"0.018": 0.0,
			"0.019": 0.0,
			"0.02": 0.0,
			"0.021": 0.0,
			"0.022": 0.0,
			"0.023": 0.0,
			"0.024": 0.0,
			"0.025": 0.0
		}
	}
}
