{
	 "smiles": "CC(=O)C1=CC(C)=CC=C1", 
	 "Tm": 264.15, 
	 "num_atms": 20, 
	 "gaussian": { 
		 "optdone": 1, 
		 "sigma_profile": "yes", 
		 "theory": "DFT", 
		 "functional": "B3LYP", 
		 "basiset": "6-31G**", 
		 "properties": { 
			 "R2extent": 1911.9007, 
			 "electric_dipole_moment_norm": 3.39065265399, 
			 "electric_quadrupole_moment_norm": 9.50795174893, 
			 "total_energy": -424.220201708, 
			 "HOMO_LUMO_gap": 0.19223, 
			 "cosmo_polarized_energy": -7.92, 
			 "cosmo_cavitation_energy": 23.58, 
			 "cosmo_dispersion_energy": -17.16, 
			 "cosmo_repulsion_energy": 1.39, 
			 "cosmo_total_nonelectrostatic_energy": 7.81, 
			 "SMD_solvation_energy": 4.86 
		},
		"coords": [
			{
				"x": -1.9590209381,
				"y": -1.2261853655,
				"z": -2.7512239549,
				"element": "C" 
			},
			{
				"x": -1.8057829999,
				"y": 0.1216175879,
				"z": -2.0649295506,
				"element": "C" 
			},
			{
				"x": -2.1453270186,
				"y": 1.1476380048,
				"z": -2.6355210935,
				"element": "O" 
			},
			{
				"x": -1.232413954,
				"y": 0.170750128,
				"z": -0.6796816615,
				"element": "C" 
			},
			{
				"x": -0.8288583991,
				"y": -0.9808606527,
				"z": 0.0138845678,
				"element": "C" 
			},
			{
				"x": -0.297590534,
				"y": -0.9059480305,
				"z": 1.3053859761,
				"element": "C" 
			},
			{
				"x": 0.1393264061,
				"y": -2.1491018505,
				"z": 2.0454380601,
				"element": "C" 
			},
			{
				"x": -0.176456652,
				"y": 0.3588282552,
				"z": 1.8992558649,
				"element": "C" 
			},
			{
				"x": -0.5735537583,
				"y": 1.5129378378,
				"z": 1.2216446,
				"element": "C" 
			},
			{
				"x": -1.100038357,
				"y": 1.4230350067,
				"z": -0.0635948727,
				"element": "C" 
			},
			{
				"x": -2.6126596341,
				"y": -1.8897563848,
				"z": -2.1743568841,
				"element": "H" 
			},
			{
				"x": -2.3882354015,
				"y": -1.0658712783,
				"z": -3.7405761454,
				"element": "H" 
			},
			{
				"x": -0.9908618467,
				"y": -1.7290523488,
				"z": -2.8519256976,
				"element": "H" 
			},
			{
				"x": -0.9267207347,
				"y": -1.9568603767,
				"z": -0.4523909637,
				"element": "H" 
			},
			{
				"x": 1.2135254956,
				"y": -2.1266951304,
				"z": 2.2627387451,
				"element": "H" 
			},
			{
				"x": -0.3805046044,
				"y": -2.2456308714,
				"z": 3.005271417,
				"element": "H" 
			},
			{
				"x": -0.0631525602,
				"y": -3.0526636479,
				"z": 1.4639047745,
				"element": "H" 
			},
			{
				"x": 0.2333490363,
				"y": 0.4387554131,
				"z": 2.9035875152,
				"element": "H" 
			},
			{
				"x": -0.4710844557,
				"y": 2.4825666323,
				"z": 1.7006380737,
				"element": "H" 
			},
			{
				"x": -1.41673909,
				"y": 2.3032970717,
				"z": -0.6124487704,
				"element": "H" 
			}
		],
		 "valence_orbital": [ 
			{
				"type": "occ",
				"energy": -0.34372,
				"method": "rhf"
			},
			{
				"type": "occ",
				"energy": -0.34351,
				"method": "rhf"
			},
			{
				"type": "occ",
				"energy": -0.25808,
				"method": "rhf"
			},
			{
				"type": "occ",
				"energy": -0.24689,
				"method": "rhf"
			},
			{
				"type": "occ",
				"energy": -0.2446,
				"method": "rhf"
			},
			{
				"type": "unocc",
				"energy": -0.05237,
				"method": "rhf"
			},
			{
				"type": "unocc",
				"energy": -0.00428,
				"method": "rhf"
			},
			{
				"type": "unocc",
				"energy": 0.03978,
				"method": "rhf"
			},
			{
				"type": "unocc",
				"energy": 0.08906,
				"method": "rhf"
			},
			{
				"type": "unocc",
				"energy": 0.11405,
				"method": "rhf"
			}
		],
		"cosmo_sigma_profile": { 
			"-0.025": 0.0,
			"-0.024": 0.0,
			"-0.023": 0.0,
			"-0.022": 0.0,
			"-0.021": 0.0,
			"-0.02": 0.0,
			"-0.019": 0.0,
			"-0.018": 0.0,
			"-0.017": 0.0,
			"-0.016": 0.0,
			"-0.015": 0.0,
			"-0.014": 0.0,
			"-0.013": 0.0,
			"-0.012": 0.0,
			"-0.011": 0.0,
			"-0.01": 0.0,
			"-0.009": 0.0,
			"-0.008": 0.0,
			"-0.007": 0.101996712819,
			"-0.006": 9.11110552112,
			"-0.005": 17.3607018709,
			"-0.004": 18.9131014644,
			"-0.003": 18.0614121652,
			"-0.002": 19.1322400112,
			"-0.001": 18.001569189,
			"0.0": 18.002843929,
			"0.001": 10.3222747746,
			"0.002": 9.55269978511,
			"0.003": 11.0007097895,
			"0.004": 12.5192563927,
			"0.005": 6.8786252102,
			"0.006": 1.921522279,
			"0.007": 1.82780280419,
			"0.008": 1.65291757198,
			"0.009": 1.44952103026,
			"0.01": 2.10873093592,
			"0.011": 2.9582376796,
			"0.012": 3.8854710207,
			"0.013": 2.08656665705,
			"0.014": 0.226320952739,
			"0.015": 0.0,
			"0.016": 0.0,
			"0.017": 0.0,
			"0.018": 0.0,
			"0.019": 0.0,
			"0.02": 0.0,
			"0.021": 0.0,
			"0.022": 0.0,
			"0.023": 0.0,
			"0.024": 0.0,
			"0.025": 0.0
		}
	}
}
