{
	 "smiles": "COC1=C(OC)C=C(C(O)=O)C(I)=C1", 
	 "Tm": 474.15, 
	 "num_atms": 23, 
	 "gaussian": { 
		 "optdone": 1, 
		 "sigma_profile": "yes", 
		 "theory": "DFT", 
		 "functional": "B3LYP", 
		 "basiset": "6-31G**", 
		 "properties": { 
			 "R2extent": 3617.486, 
			 "electric_dipole_moment_norm": 3.82393690586, 
			 "electric_quadrupole_moment_norm": 17.1505352441, 
			 "total_energy": -660.640272815, 
			 "HOMO_LUMO_gap": 0.18013, 
			 "cosmo_polarized_energy": -13.41, 
			 "cosmo_cavitation_energy": 30.42, 
			 "cosmo_dispersion_energy": -23.43, 
			 "cosmo_repulsion_energy": 1.83, 
			 "cosmo_total_nonelectrostatic_energy": 8.81, 
			 "SMD_solvation_energy": 7.22 
		},
		"coords": [
			{
				"x": 2.5614600074,
				"y": 0.3075787621,
				"z": 2.8268492549,
				"element": "C" 
			},
			{
				"x": 2.5812753309,
				"y": 0.242851475,
				"z": 1.4045903492,
				"element": "O" 
			},
			{
				"x": 1.4772783747,
				"y": 0.6323652962,
				"z": 0.7198410409,
				"element": "C" 
			},
			{
				"x": 1.5649640006,
				"y": 0.5915070905,
				"z": -0.691665217,
				"element": "C" 
			},
			{
				"x": 2.7183906264,
				"y": 0.2266265203,
				"z": -1.3334150443,
				"element": "O" 
			},
			{
				"x": 3.0981526123,
				"y": -1.1485504526,
				"z": -1.2147652377,
				"element": "C" 
			},
			{
				"x": 0.4786005627,
				"y": 1.0038372074,
				"z": -1.4431454964,
				"element": "C" 
			},
			{
				"x": -0.7215473234,
				"y": 1.4634123506,
				"z": -0.8602453811,
				"element": "C" 
			},
			{
				"x": -1.8293791273,
				"y": 1.8917129902,
				"z": -1.755361011,
				"element": "C" 
			},
			{
				"x": -1.50568748,
				"y": 1.7691011042,
				"z": -3.0718763081,
				"element": "O" 
			},
			{
				"x": -2.9159529963,
				"y": 2.3098817166,
				"z": -1.4123718907,
				"element": "O" 
			},
			{
				"x": -0.7971936027,
				"y": 1.4822022323,
				"z": 0.5427098756,
				"element": "C" 
			},
			{
				"x": -2.4891665825,
				"y": 2.1083822989,
				"z": 1.662859204,
				"element": "I" 
			},
			{
				"x": 0.2923657548,
				"y": 1.0702364196,
				"z": 1.31767081,
				"element": "C" 
			},
			{
				"x": 2.3897945718,
				"y": 1.3322644316,
				"z": 3.1767630034,
				"element": "H" 
			},
			{
				"x": 3.5473129078,
				"y": -0.0255304179,
				"z": 3.1525462598,
				"element": "H" 
			},
			{
				"x": 1.7958498702,
				"y": -0.3545435733,
				"z": 3.2488990454,
				"element": "H" 
			},
			{
				"x": 3.999631584,
				"y": -1.2648248134,
				"z": -1.8191507846,
				"element": "H" 
			},
			{
				"x": 2.3119132815,
				"y": -1.8052634302,
				"z": -1.6083768417,
				"element": "H" 
			},
			{
				"x": 3.3162021481,
				"y": -1.4179116224,
				"z": -0.1774189165,
				"element": "H" 
			},
			{
				"x": 0.5712166906,
				"y": 0.97835395,
				"z": -2.5212897691,
				"element": "H" 
			},
			{
				"x": -2.2899707549,
				"y": 2.0758766235,
				"z": -3.5548532676,
				"element": "H" 
			},
			{
				"x": 0.2108895432,
				"y": 1.1032338407,
				"z": 2.3954063224,
				"element": "H" 
			}
		],
		 "valence_orbital": [ 
			{
				"type": "occ",
				"energy": -0.28729,
				"method": "rhf"
			},
			{
				"type": "occ",
				"energy": -0.27532,
				"method": "rhf"
			},
			{
				"type": "occ",
				"energy": -0.24945,
				"method": "rhf"
			},
			{
				"type": "occ",
				"energy": -0.24235,
				"method": "rhf"
			},
			{
				"type": "occ",
				"energy": -0.22827,
				"method": "rhf"
			},
			{
				"type": "unocc",
				"energy": -0.04814,
				"method": "rhf"
			},
			{
				"type": "unocc",
				"energy": -0.03584,
				"method": "rhf"
			},
			{
				"type": "unocc",
				"energy": -0.01727,
				"method": "rhf"
			},
			{
				"type": "unocc",
				"energy": 0.04632,
				"method": "rhf"
			},
			{
				"type": "unocc",
				"energy": 0.05443,
				"method": "rhf"
			}
		],
		"cosmo_sigma_profile": { 
			"-0.025": 0.0,
			"-0.024": 0.0,
			"-0.023": 0.0,
			"-0.022": 0.0,
			"-0.021": 0.0,
			"-0.02": 0.0,
			"-0.019": 0.00228095239758,
			"-0.018": 0.517086612569,
			"-0.017": 1.08937287546,
			"-0.016": 0.84192519968,
			"-0.015": 0.429737951455,
			"-0.014": 0.731419281326,
			"-0.013": 1.0965376404,
			"-0.012": 0.660200763014,
			"-0.011": 0.78880983992,
			"-0.01": 0.494559118695,
			"-0.009": 0.576082585751,
			"-0.008": 1.44532848773,
			"-0.007": 5.82694914751,
			"-0.006": 13.7439514819,
			"-0.005": 16.3854548625,
			"-0.004": 18.7873392505,
			"-0.003": 20.4076150791,
			"-0.002": 17.7687879484,
			"-0.001": 15.1352962013,
			"0.0": 17.8108623875,
			"0.001": 21.8067724997,
			"0.002": 21.8646168901,
			"0.003": 12.7789516785,
			"0.004": 13.5861530165,
			"0.005": 9.33501467461,
			"0.006": 6.26946920145,
			"0.007": 4.72920104196,
			"0.008": 3.83847423297,
			"0.009": 4.37596961262,
			"0.01": 4.59613976347,
			"0.011": 3.9968263558,
			"0.012": 4.50770801376,
			"0.013": 1.02899798345,
			"0.014": 0.0,
			"0.015": 0.0,
			"0.016": 0.0,
			"0.017": 0.0,
			"0.018": 0.0,
			"0.019": 0.0,
			"0.02": 0.0,
			"0.021": 0.0,
			"0.022": 0.0,
			"0.023": 0.0,
			"0.024": 0.0,
			"0.025": 0.0
		}
	}
}
