{
	 "smiles": "CCOC1=CC=C(CCO)C=C1", 
	 "Tm": 315.15, 
	 "num_atms": 26, 
	 "gaussian": { 
		 "optdone": 1, 
		 "sigma_profile": "yes", 
		 "theory": "DFT", 
		 "functional": "B3LYP", 
		 "basiset": "6-31G**", 
		 "properties": { 
			 "R2extent": 3754.9912, 
			 "electric_dipole_moment_norm": 2.06986230943, 
			 "electric_quadrupole_moment_norm": 10.6947369809, 
			 "total_energy": -539.942371672, 
			 "HOMO_LUMO_gap": 0.21007, 
			 "cosmo_polarized_energy": -8.6, 
			 "cosmo_cavitation_energy": 28.71, 
			 "cosmo_dispersion_energy": -20.98, 
			 "cosmo_repulsion_energy": 1.71, 
			 "cosmo_total_nonelectrostatic_energy": 9.44, 
			 "SMD_solvation_energy": 5.01 
		},
		"coords": [
			{
				"x": 0.4256074354,
				"y": 1.6495408712,
				"z": -3.5603506552,
				"element": "C" 
			},
			{
				"x": -0.2677101933,
				"y": 1.0356029492,
				"z": -2.3565573697,
				"element": "C" 
			},
			{
				"x": 0.1796094399,
				"y": 1.7375037161,
				"z": -1.1980143326,
				"element": "O" 
			},
			{
				"x": -0.306738033,
				"y": 1.3665259311,
				"z": 0.0219089409,
				"element": "C" 
			},
			{
				"x": -1.2252104845,
				"y": 0.3332017767,
				"z": 0.2366863512,
				"element": "C" 
			},
			{
				"x": -1.6542567414,
				"y": 0.0493794207,
				"z": 1.5382492844,
				"element": "C" 
			},
			{
				"x": -1.1908924732,
				"y": 0.7724926443,
				"z": 2.6435246809,
				"element": "C" 
			},
			{
				"x": -1.6196331697,
				"y": 0.4125238666,
				"z": 4.0488139571,
				"element": "C" 
			},
			{
				"x": -0.7306790747,
				"y": -0.679708458,
				"z": 4.6745399485,
				"element": "C" 
			},
			{
				"x": -0.7684337789,
				"y": -1.8995174299,
				"z": 3.9528527341,
				"element": "O" 
			},
			{
				"x": -0.2670512268,
				"y": 1.8042755279,
				"z": 2.4027385472,
				"element": "C" 
			},
			{
				"x": 0.1689789052,
				"y": 2.1024477432,
				"z": 1.1186084715,
				"element": "C" 
			},
			{
				"x": 0.1111088216,
				"y": 1.1400290271,
				"z": -4.4763336348,
				"element": "H" 
			},
			{
				"x": 1.5114125989,
				"y": 1.5586018481,
				"z": -3.4674534944,
				"element": "H" 
			},
			{
				"x": 0.1753987084,
				"y": 2.7103557269,
				"z": -3.649380761,
				"element": "H" 
			},
			{
				"x": -0.0221321684,
				"y": -0.0322779256,
				"z": -2.2660346995,
				"element": "H" 
			},
			{
				"x": -1.3599799788,
				"y": 1.1212134218,
				"z": -2.448094149,
				"element": "H" 
			},
			{
				"x": -1.6167068107,
				"y": -0.2479642044,
				"z": -0.5897608522,
				"element": "H" 
			},
			{
				"x": -2.3786878649,
				"y": -0.7470030921,
				"z": 1.6900148244,
				"element": "H" 
			},
			{
				"x": -2.6541795104,
				"y": 0.0507107915,
				"z": 4.0456225906,
				"element": "H" 
			},
			{
				"x": -1.587651233,
				"y": 1.2996702164,
				"z": 4.693539653,
				"element": "H" 
			},
			{
				"x": -1.0886588967,
				"y": -0.9140780844,
				"z": 5.6826006468,
				"element": "H" 
			},
			{
				"x": 0.3005672884,
				"y": -0.3019301052,
				"z": 4.7692169903,
				"element": "H" 
			},
			{
				"x": -0.4504882591,
				"y": -1.7099568297,
				"z": 3.0589904716,
				"element": "H" 
			},
			{
				"x": 0.1114219147,
				"y": 2.3881638568,
				"z": 3.2386146013,
				"element": "H" 
			},
			{
				"x": 0.8763847849,
				"y": 2.9046967938,
				"z": 0.9346572546,
				"element": "H" 
			}
		],
		 "valence_orbital": [ 
			{
				"type": "occ",
				"energy": -0.31718,
				"method": "rhf"
			},
			{
				"type": "occ",
				"energy": -0.31091,
				"method": "rhf"
			},
			{
				"type": "occ",
				"energy": -0.26132,
				"method": "rhf"
			},
			{
				"type": "occ",
				"energy": -0.25127,
				"method": "rhf"
			},
			{
				"type": "occ",
				"energy": -0.21514,
				"method": "rhf"
			},
			{
				"type": "unocc",
				"energy": -0.00507,
				"method": "rhf"
			},
			{
				"type": "unocc",
				"energy": 0.01036,
				"method": "rhf"
			},
			{
				"type": "unocc",
				"energy": 0.09195,
				"method": "rhf"
			},
			{
				"type": "unocc",
				"energy": 0.09646,
				"method": "rhf"
			},
			{
				"type": "unocc",
				"energy": 0.11001,
				"method": "rhf"
			}
		],
		"cosmo_sigma_profile": { 
			"-0.025": 0.0,
			"-0.024": 0.0,
			"-0.023": 0.0,
			"-0.022": 0.0,
			"-0.021": 0.0,
			"-0.02": 0.0,
			"-0.019": 0.0,
			"-0.018": 0.0,
			"-0.017": 0.0,
			"-0.016": 0.0,
			"-0.015": 0.0,
			"-0.014": 0.0,
			"-0.013": 0.0,
			"-0.012": 0.260502927656,
			"-0.011": 0.870711041844,
			"-0.01": 0.905226854034,
			"-0.009": 0.611906616808,
			"-0.008": 0.384078849983,
			"-0.007": 1.13223351215,
			"-0.006": 3.85766961924,
			"-0.005": 13.132045505,
			"-0.004": 26.8232903814,
			"-0.003": 32.168228989,
			"-0.002": 25.8114078721,
			"-0.001": 20.6849662117,
			"0.0": 18.2973409874,
			"0.001": 11.9321316448,
			"0.002": 9.03493388091,
			"0.003": 10.3827907937,
			"0.004": 11.0892819177,
			"0.005": 11.1779395274,
			"0.006": 8.29374638263,
			"0.007": 3.12359913707,
			"0.008": 2.61708609961,
			"0.009": 2.04068490278,
			"0.01": 2.70615996724,
			"0.011": 1.4151717548,
			"0.012": 1.09368972171,
			"0.013": 1.55185218822,
			"0.014": 2.33870693604,
			"0.015": 1.37789890402,
			"0.016": 0.0,
			"0.017": 0.0,
			"0.018": 0.0,
			"0.019": 0.0,
			"0.02": 0.0,
			"0.021": 0.0,
			"0.022": 0.0,
			"0.023": 0.0,
			"0.024": 0.0,
			"0.025": 0.0
		}
	}
}
