{
	 "smiles": "CCOC(=O)CN1N=C(C2=CC=CC=C2)C2=CC=CC=C2C1=O", 
	 "Tm": 497.15, 
	 "num_atms": 39, 
	 "gaussian": { 
		 "optdone": 1, 
		 "sigma_profile": "yes", 
		 "theory": "DFT", 
		 "functional": "B3LYP", 
		 "basiset": "6-31G**", 
		 "properties": { 
			 "R2extent": 9284.1657, 
			 "electric_dipole_moment_norm": 2.06277849029, 
			 "electric_quadrupole_moment_norm": 22.0346929752, 
			 "total_energy": -1030.74986753, 
			 "HOMO_LUMO_gap": 0.16667, 
			 "cosmo_polarized_energy": -15.49, 
			 "cosmo_cavitation_energy": 43.71, 
			 "cosmo_dispersion_energy": -30.39, 
			 "cosmo_repulsion_energy": 2.33, 
			 "cosmo_total_nonelectrostatic_energy": 15.64, 
			 "SMD_solvation_energy": 7.91 
		},
		"coords": [
			{
				"x": -5.7906699899,
				"y": 2.7285106282,
				"z": 0.456409248,
				"element": "C" 
			},
			{
				"x": -5.581120084,
				"y": 1.2861120933,
				"z": 0.8901670888,
				"element": "C" 
			},
			{
				"x": -4.5380706543,
				"y": 0.6501153407,
				"z": 0.1080762578,
				"element": "O" 
			},
			{
				"x": -3.2725695606,
				"y": 0.8283349037,
				"z": 0.5342615303,
				"element": "C" 
			},
			{
				"x": -2.9464602963,
				"y": 1.4561222744,
				"z": 1.5144509241,
				"element": "O" 
			},
			{
				"x": -2.3157609262,
				"y": 0.0946888734,
				"z": -0.4035469222,
				"element": "C" 
			},
			{
				"x": -0.9298045535,
				"y": 0.3364702547,
				"z": -0.0524861073,
				"element": "N" 
			},
			{
				"x": -0.387526728,
				"y": -0.5653014462,
				"z": 0.8013362902,
				"element": "N" 
			},
			{
				"x": 0.8357378631,
				"y": -0.3966840363,
				"z": 1.2222545674,
				"element": "C" 
			},
			{
				"x": 1.3343465508,
				"y": -1.4606005914,
				"z": 2.1394337925,
				"element": "C" 
			},
			{
				"x": 0.5307132893,
				"y": -1.8836013394,
				"z": 3.2094095455,
				"element": "C" 
			},
			{
				"x": 0.9587221331,
				"y": -2.903154178,
				"z": 4.0577875937,
				"element": "C" 
			},
			{
				"x": 2.1940875941,
				"y": -3.5202516745,
				"z": 3.8479989684,
				"element": "C" 
			},
			{
				"x": 2.9958999492,
				"y": -3.1154644459,
				"z": 2.7796283705,
				"element": "C" 
			},
			{
				"x": 2.5701882235,
				"y": -2.0933958604,
				"z": 1.9304452102,
				"element": "C" 
			},
			{
				"x": 1.6355000659,
				"y": 0.7609114827,
				"z": 0.8375119148,
				"element": "C" 
			},
			{
				"x": 2.9236401856,
				"y": 1.0363404297,
				"z": 1.343794417,
				"element": "C" 
			},
			{
				"x": 3.6123411691,
				"y": 2.1673876731,
				"z": 0.9299692329,
				"element": "C" 
			},
			{
				"x": 3.0395840815,
				"y": 3.0600509405,
				"z": 0.0089302638,
				"element": "C" 
			},
			{
				"x": 1.763669561,
				"y": 2.8226834289,
				"z": -0.4783928983,
				"element": "C" 
			},
			{
				"x": 1.058410392,
				"y": 1.6828056409,
				"z": -0.0650557907,
				"element": "C" 
			},
			{
				"x": -0.3144858691,
				"y": 1.4854240027,
				"z": -0.5489492658,
				"element": "C" 
			},
			{
				"x": -0.9080329056,
				"y": 2.2377299488,
				"z": -1.3185909451,
				"element": "O" 
			},
			{
				"x": -4.8979866893,
				"y": 3.3245746453,
				"z": 0.6605078418,
				"element": "H" 
			},
			{
				"x": -6.6293796834,
				"y": 3.1636605073,
				"z": 1.0101641159,
				"element": "H" 
			},
			{
				"x": -6.0171277559,
				"y": 2.7852845232,
				"z": -0.6121895362,
				"element": "H" 
			},
			{
				"x": -5.3124145315,
				"y": 1.2253092493,
				"z": 1.947465088,
				"element": "H" 
			},
			{
				"x": -6.4682276193,
				"y": 0.6760628008,
				"z": 0.7044307263,
				"element": "H" 
			},
			{
				"x": -2.5027100382,
				"y": -0.9790481799,
				"z": -0.3407710165,
				"element": "H" 
			},
			{
				"x": -2.4926092999,
				"y": 0.4367072739,
				"z": -1.4245070362,
				"element": "H" 
			},
			{
				"x": -0.4294380778,
				"y": -1.4026183467,
				"z": 3.3648262562,
				"element": "H" 
			},
			{
				"x": 0.3280201911,
				"y": -3.214766205,
				"z": 4.8854921829,
				"element": "H" 
			},
			{
				"x": 2.5278092073,
				"y": -4.3137448792,
				"z": 4.5104291344,
				"element": "H" 
			},
			{
				"x": 3.9508053823,
				"y": -3.6010295435,
				"z": 2.5997115682,
				"element": "H" 
			},
			{
				"x": 3.1888034859,
				"y": -1.8029600631,
				"z": 1.0866889864,
				"element": "H" 
			},
			{
				"x": 3.3691176247,
				"y": 0.367034081,
				"z": 2.0698607853,
				"element": "H" 
			},
			{
				"x": 4.602396254,
				"y": 2.3665050256,
				"z": 1.3299184473,
				"element": "H" 
			},
			{
				"x": 3.5905225439,
				"y": 3.9403749326,
				"z": -0.308190216,
				"element": "H" 
			},
			{
				"x": 1.2765795154,
				"y": 3.5004198346,
				"z": -1.1709806144,
				"element": "H" 
			}
		],
		 "valence_orbital": [ 
			{
				"type": "occ",
				"energy": -0.26386,
				"method": "rhf"
			},
			{
				"type": "occ",
				"energy": -0.25811,
				"method": "rhf"
			},
			{
				"type": "occ",
				"energy": -0.25497,
				"method": "rhf"
			},
			{
				"type": "occ",
				"energy": -0.24853,
				"method": "rhf"
			},
			{
				"type": "occ",
				"energy": -0.21995,
				"method": "rhf"
			},
			{
				"type": "unocc",
				"energy": -0.05328,
				"method": "rhf"
			},
			{
				"type": "unocc",
				"energy": -0.04265,
				"method": "rhf"
			},
			{
				"type": "unocc",
				"energy": -0.01319,
				"method": "rhf"
			},
			{
				"type": "unocc",
				"energy": -0.00528,
				"method": "rhf"
			},
			{
				"type": "unocc",
				"energy": 0.01416,
				"method": "rhf"
			}
		],
		"cosmo_sigma_profile": { 
			"-0.025": 0.0,
			"-0.024": 0.0,
			"-0.023": 0.0,
			"-0.022": 0.0,
			"-0.021": 0.0,
			"-0.02": 0.0,
			"-0.019": 0.0,
			"-0.018": 0.0,
			"-0.017": 0.0,
			"-0.016": 0.0,
			"-0.015": 0.0,
			"-0.014": 0.0,
			"-0.013": 0.0,
			"-0.012": 0.0,
			"-0.011": 0.0,
			"-0.01": 0.0,
			"-0.009": 0.456248176166,
			"-0.008": 2.08203495556,
			"-0.007": 6.67554839159,
			"-0.006": 19.7467679909,
			"-0.005": 27.8341165998,
			"-0.004": 35.2681825993,
			"-0.003": 31.3165880902,
			"-0.002": 27.6545199486,
			"-0.001": 30.0660729634,
			"0.0": 28.3514420274,
			"0.001": 23.2448215697,
			"0.002": 24.3088984239,
			"0.003": 20.9242078537,
			"0.004": 15.4196119376,
			"0.005": 15.8521444006,
			"0.006": 6.11070190721,
			"0.007": 5.61523873159,
			"0.008": 5.7554531163,
			"0.009": 4.40939763068,
			"0.01": 4.22777734478,
			"0.011": 5.72669864604,
			"0.012": 4.17623704218,
			"0.013": 4.06163854708,
			"0.014": 0.141850442746,
			"0.015": 0.0,
			"0.016": 0.0,
			"0.017": 0.0,
			"0.018": 0.0,
			"0.019": 0.0,
			"0.02": 0.0,
			"0.021": 0.0,
			"0.022": 0.0,
			"0.023": 0.0,
			"0.024": 0.0,
			"0.025": 0.0
		}
	}
}
