{
	 "smiles": "O=CC1=COC(=N1)C1=CC=CC=C1", 
	 "Tm": 364.15, 
	 "num_atms": 20, 
	 "gaussian": { 
		 "optdone": 1, 
		 "sigma_profile": "yes", 
		 "theory": "DFT", 
		 "functional": "B3LYP", 
		 "basiset": "6-31G**", 
		 "properties": { 
			 "R2extent": 3149.5995, 
			 "electric_dipole_moment_norm": 3.73807011304, 
			 "electric_quadrupole_moment_norm": 11.4991102082, 
			 "total_energy": -590.459586289, 
			 "HOMO_LUMO_gap": 0.17554, 
			 "cosmo_polarized_energy": -8.98, 
			 "cosmo_cavitation_energy": 25.76, 
			 "cosmo_dispersion_energy": -18.91, 
			 "cosmo_repulsion_energy": 1.48, 
			 "cosmo_total_nonelectrostatic_energy": 8.32, 
			 "SMD_solvation_energy": 4.85 
		},
		"coords": [
			{
				"x": -2.972287388,
				"y": 1.5092523947,
				"z": 4.2830107558,
				"element": "O" 
			},
			{
				"x": -1.9037871482,
				"y": 1.5190720829,
				"z": 3.6998957647,
				"element": "C" 
			},
			{
				"x": -1.6478431421,
				"y": 0.7783888776,
				"z": 2.4575411795,
				"element": "C" 
			},
			{
				"x": -2.5083253781,
				"y": -0.0182760377,
				"z": 1.756562285,
				"element": "C" 
			},
			{
				"x": -1.8440395073,
				"y": -0.496642273,
				"z": 0.6749461831,
				"element": "O" 
			},
			{
				"x": -0.5784659279,
				"y": 0.0399619468,
				"z": 0.7634767308,
				"element": "C" 
			},
			{
				"x": -0.4212521755,
				"y": 0.8017702716,
				"z": 1.806175242,
				"element": "N" 
			},
			{
				"x": 0.388406671,
				"y": -0.2965180108,
				"z": -0.2768226724,
				"element": "C" 
			},
			{
				"x": 1.6838385934,
				"y": 0.2418375837,
				"z": -0.2023534838,
				"element": "C" 
			},
			{
				"x": 2.6215411296,
				"y": -0.0656666984,
				"z": -1.1834371118,
				"element": "C" 
			},
			{
				"x": 2.2798031434,
				"y": -0.9092298363,
				"z": -2.244537113,
				"element": "C" 
			},
			{
				"x": 0.9926723288,
				"y": -1.4456729499,
				"z": -2.3207766191,
				"element": "C" 
			},
			{
				"x": 0.0471259928,
				"y": -1.1433865296,
				"z": -1.3430390568,
				"element": "C" 
			},
			{
				"x": -1.0319220756,
				"y": 2.0965155829,
				"z": 4.069347844,
				"element": "H" 
			},
			{
				"x": -3.5354153971,
				"y": -0.3168718912,
				"z": 1.887947492,
				"element": "H" 
			},
			{
				"x": 1.9343882698,
				"y": 0.8948055558,
				"z": 0.6268029133,
				"element": "H" 
			},
			{
				"x": 3.6216414831,
				"y": 0.3529660852,
				"z": -1.1214847855,
				"element": "H" 
			},
			{
				"x": 3.0141085269,
				"y": -1.1471096577,
				"z": -3.008519775,
				"element": "H" 
			},
			{
				"x": 0.7237468583,
				"y": -2.1013105105,
				"z": -3.1436162555,
				"element": "H" 
			},
			{
				"x": -0.9530348573,
				"y": -1.5591859859,
				"z": -1.4007195173,
				"element": "H" 
			}
		],
		 "valence_orbital": [ 
			{
				"type": "occ",
				"energy": -0.30706,
				"method": "rhf"
			},
			{
				"type": "occ",
				"energy": -0.29396,
				"method": "rhf"
			},
			{
				"type": "occ",
				"energy": -0.26503,
				"method": "rhf"
			},
			{
				"type": "occ",
				"energy": -0.25991,
				"method": "rhf"
			},
			{
				"type": "occ",
				"energy": -0.23689,
				"method": "rhf"
			},
			{
				"type": "unocc",
				"energy": -0.06135,
				"method": "rhf"
			},
			{
				"type": "unocc",
				"energy": -0.05139,
				"method": "rhf"
			},
			{
				"type": "unocc",
				"energy": -0.01386,
				"method": "rhf"
			},
			{
				"type": "unocc",
				"energy": 0.04452,
				"method": "rhf"
			},
			{
				"type": "unocc",
				"energy": 0.08609,
				"method": "rhf"
			}
		],
		"cosmo_sigma_profile": { 
			"-0.025": 0.0,
			"-0.024": 0.0,
			"-0.023": 0.0,
			"-0.022": 0.0,
			"-0.021": 0.0,
			"-0.02": 0.0,
			"-0.019": 0.0,
			"-0.018": 0.0,
			"-0.017": 0.0,
			"-0.016": 0.0,
			"-0.015": 0.0,
			"-0.014": 0.0,
			"-0.013": 0.0,
			"-0.012": 0.618647923378,
			"-0.011": 1.61096490584,
			"-0.01": 1.87676685854,
			"-0.009": 0.976310355018,
			"-0.008": 0.823251072655,
			"-0.007": 4.62234014027,
			"-0.006": 13.1697703994,
			"-0.005": 14.6899404417,
			"-0.004": 15.2122154641,
			"-0.003": 14.3792214194,
			"-0.002": 17.4822018747,
			"-0.001": 19.7040726856,
			"0.0": 14.4665290856,
			"0.001": 14.3779951492,
			"0.002": 14.7646959233,
			"0.003": 15.0897110023,
			"0.004": 15.858630881,
			"0.005": 4.05921778599,
			"0.006": 2.85670847335,
			"0.007": 3.47809636049,
			"0.008": 2.25573222925,
			"0.009": 2.91571274029,
			"0.01": 4.23379523696,
			"0.011": 5.22990642132,
			"0.012": 3.00282628995,
			"0.013": 0.619669071536,
			"0.014": 0.0,
			"0.015": 0.0,
			"0.016": 0.0,
			"0.017": 0.0,
			"0.018": 0.0,
			"0.019": 0.0,
			"0.02": 0.0,
			"0.021": 0.0,
			"0.022": 0.0,
			"0.023": 0.0,
			"0.024": 0.0,
			"0.025": 0.0
		}
	}
}
