{
	 "smiles": "CCN1C=CC(=O)N=C1S", 
	 "Tm": 516.15, 
	 "num_atms": 18, 
	 "gaussian": { 
		 "optdone": 1, 
		 "sigma_profile": "yes", 
		 "theory": "DFT", 
		 "functional": "B3LYP", 
		 "basiset": "6-31G**", 
		 "properties": { 
			 "R2extent": 1876.4344, 
			 "electric_dipole_moment_norm": 6.98271630957, 
			 "electric_quadrupole_moment_norm": 19.6313600476, 
			 "total_energy": -816.364033863, 
			 "HOMO_LUMO_gap": 0.20459, 
			 "cosmo_polarized_energy": -19.64, 
			 "cosmo_cavitation_energy": 23.32, 
			 "cosmo_dispersion_energy": -17.66, 
			 "cosmo_repulsion_energy": 1.39, 
			 "cosmo_total_nonelectrostatic_energy": 7.06, 
			 "SMD_solvation_energy": 3.41 
		},
		"coords": [
			{
				"x": 2.3270382331,
				"y": -0.9317751421,
				"z": -0.3772047364,
				"element": "C" 
			},
			{
				"x": 0.8340894324,
				"y": -1.2622500489,
				"z": -0.4228441399,
				"element": "C" 
			},
			{
				"x": -0.0228405643,
				"y": -0.0660825932,
				"z": -0.4914602552,
				"element": "N" 
			},
			{
				"x": -0.3272228122,
				"y": 0.4802720211,
				"z": -1.7292699298,
				"element": "C" 
			},
			{
				"x": -1.0493568555,
				"y": 1.6123280996,
				"z": -1.8465514999,
				"element": "C" 
			},
			{
				"x": -1.5301126933,
				"y": 2.3082970666,
				"z": -0.6474408071,
				"element": "C" 
			},
			{
				"x": -2.1860797827,
				"y": 3.3375146703,
				"z": -0.68200877,
				"element": "O" 
			},
			{
				"x": -1.1825349114,
				"y": 1.7019014308,
				"z": 0.5845887671,
				"element": "N" 
			},
			{
				"x": -0.4872284773,
				"y": 0.6185507698,
				"z": 0.6146011695,
				"element": "C" 
			},
			{
				"x": -0.0751786066,
				"y": -0.0958973844,
				"z": 2.2137511231,
				"element": "S" 
			},
			{
				"x": 2.6308511613,
				"y": -0.3686083524,
				"z": -1.2648226246,
				"element": "H" 
			},
			{
				"x": 2.5719317762,
				"y": -0.3389718903,
				"z": 0.5079215757,
				"element": "H" 
			},
			{
				"x": 2.9111592866,
				"y": -1.8566688257,
				"z": -0.342633893,
				"element": "H" 
			},
			{
				"x": 0.5991641516,
				"y": -1.8706332756,
				"z": -1.3013409138,
				"element": "H" 
			},
			{
				"x": 0.533866635,
				"y": -1.8493330665,
				"z": 0.4487966819,
				"element": "H" 
			},
			{
				"x": 0.0524417862,
				"y": -0.0751371467,
				"z": -2.5804085719,
				"element": "H" 
			},
			{
				"x": -1.2896918102,
				"y": 2.0236046294,
				"z": -2.8192294082,
				"element": "H" 
			},
			{
				"x": -0.7434959488,
				"y": 0.8720890383,
				"z": 2.8654562325,
				"element": "H" 
			}
		],
		 "valence_orbital": [ 
			{
				"type": "occ",
				"energy": -0.33369,
				"method": "rhf"
			},
			{
				"type": "occ",
				"energy": -0.27636,
				"method": "rhf"
			},
			{
				"type": "occ",
				"energy": -0.26344,
				"method": "rhf"
			},
			{
				"type": "occ",
				"energy": -0.23665,
				"method": "rhf"
			},
			{
				"type": "occ",
				"energy": -0.23251,
				"method": "rhf"
			},
			{
				"type": "unocc",
				"energy": -0.02792,
				"method": "rhf"
			},
			{
				"type": "unocc",
				"energy": -0.01972,
				"method": "rhf"
			},
			{
				"type": "unocc",
				"energy": -0.00323,
				"method": "rhf"
			},
			{
				"type": "unocc",
				"energy": 0.05585,
				"method": "rhf"
			},
			{
				"type": "unocc",
				"energy": 0.07441,
				"method": "rhf"
			}
		],
		"cosmo_sigma_profile": { 
			"-0.025": 0.0,
			"-0.024": 0.0,
			"-0.023": 0.0,
			"-0.022": 0.0,
			"-0.021": 0.0,
			"-0.02": 0.0,
			"-0.019": 0.0,
			"-0.018": 0.0,
			"-0.017": 0.0,
			"-0.016": 0.0,
			"-0.015": 0.0,
			"-0.014": 0.0,
			"-0.013": 0.0,
			"-0.012": 0.717874239582,
			"-0.011": 2.24627815344,
			"-0.01": 4.26979149328,
			"-0.009": 3.73706118127,
			"-0.008": 4.57289076053,
			"-0.007": 7.15654194549,
			"-0.006": 9.86261574239,
			"-0.005": 13.7363758223,
			"-0.004": 14.1702287567,
			"-0.003": 15.394667538,
			"-0.002": 15.7052159346,
			"-0.001": 15.8496993971,
			"0.0": 12.9246396235,
			"0.001": 11.0805705255,
			"0.002": 9.68361686787,
			"0.003": 5.1977287585,
			"0.004": 4.27250194175,
			"0.005": 4.32328179245,
			"0.006": 3.76825995894,
			"0.007": 1.80161362748,
			"0.008": 1.98012080286,
			"0.009": 2.3685283315,
			"0.01": 1.47109007198,
			"0.011": 1.58217037721,
			"0.012": 2.66605602645,
			"0.013": 3.90828596574,
			"0.014": 6.21940500376,
			"0.015": 4.5876083159,
			"0.016": 2.26529171623,
			"0.017": 0.451165713869,
			"0.018": 0.0,
			"0.019": 0.0,
			"0.02": 0.0,
			"0.021": 0.0,
			"0.022": 0.0,
			"0.023": 0.0,
			"0.024": 0.0,
			"0.025": 0.0
		}
	}
}
