{
	 "smiles": "NC1=C2C=CC=CC2=NC2=C1C=CC=C2", 
	 "Tm": 514.15, 
	 "num_atms": 25, 
	 "gaussian": { 
		 "optdone": 1, 
		 "sigma_profile": "yes", 
		 "theory": "DFT", 
		 "functional": "B3LYP", 
		 "basiset": "6-31G**", 
		 "properties": { 
			 "R2extent": 3443.6939, 
			 "electric_dipole_moment_norm": 3.65231446209, 
			 "electric_quadrupole_moment_norm": 10.8096978066, 
			 "total_energy": -610.931519901, 
			 "HOMO_LUMO_gap": 0.12948, 
			 "cosmo_polarized_energy": -14.46, 
			 "cosmo_cavitation_energy": 28.01, 
			 "cosmo_dispersion_energy": -21.47, 
			 "cosmo_repulsion_energy": 1.62, 
			 "cosmo_total_nonelectrostatic_energy": 8.16, 
			 "SMD_solvation_energy": 2.65 
		},
		"coords": [
			{
				"x": 2.628667671,
				"y": -0.4042929587,
				"z": -0.0963713482,
				"element": "N" 
			},
			{
				"x": 1.4500742317,
				"y": 0.3113872148,
				"z": -0.0604707475,
				"element": "C" 
			},
			{
				"x": 0.4809409305,
				"y": 0.0645496896,
				"z": 0.9472170698,
				"element": "C" 
			},
			{
				"x": 0.657015947,
				"y": -0.8973912886,
				"z": 1.9869393529,
				"element": "C" 
			},
			{
				"x": -0.3196779009,
				"y": -1.1152745571,
				"z": 2.9260242559,
				"element": "C" 
			},
			{
				"x": -1.535877243,
				"y": -0.3790108092,
				"z": 2.8774018266,
				"element": "C" 
			},
			{
				"x": -1.7371452035,
				"y": 0.5616489683,
				"z": 1.901924196,
				"element": "C" 
			},
			{
				"x": -0.7420483349,
				"y": 0.8267294443,
				"z": 0.9084482786,
				"element": "C" 
			},
			{
				"x": -1.0114151968,
				"y": 1.7704439396,
				"z": -0.0093197693,
				"element": "N" 
			},
			{
				"x": -0.0675081521,
				"y": 2.0291298223,
				"z": -0.9300545438,
				"element": "C" 
			},
			{
				"x": 1.1970734963,
				"y": 1.3411647156,
				"z": -1.0045133835,
				"element": "C" 
			},
			{
				"x": 2.1267929156,
				"y": 1.7224286399,
				"z": -2.0181337614,
				"element": "C" 
			},
			{
				"x": 1.8264108933,
				"y": 2.7100810097,
				"z": -2.9223911351,
				"element": "C" 
			},
			{
				"x": 0.5707438167,
				"y": 3.3759301584,
				"z": -2.8637732751,
				"element": "C" 
			},
			{
				"x": -0.3430654294,
				"y": 3.0466200155,
				"z": -1.8975861825,
				"element": "C" 
			},
			{
				"x": 2.6282469762,
				"y": -1.298865999,
				"z": 0.3685688206,
				"element": "H" 
			},
			{
				"x": 3.1197233655,
				"y": -0.4226829414,
				"z": -0.9766975965,
				"element": "H" 
			},
			{
				"x": 1.5890225933,
				"y": -1.4502651395,
				"z": 2.0668824984,
				"element": "H" 
			},
			{
				"x": -0.1628073515,
				"y": -1.8458274103,
				"z": 3.713937528,
				"element": "H" 
			},
			{
				"x": -2.3026308433,
				"y": -0.5630933534,
				"z": 3.6246534305,
				"element": "H" 
			},
			{
				"x": -2.6504704104,
				"y": 1.1447824589,
				"z": 1.8454369794,
				"element": "H" 
			},
			{
				"x": 3.1056340892,
				"y": 1.2530602578,
				"z": -2.0652247693,
				"element": "H" 
			},
			{
				"x": 2.5508062036,
				"y": 2.9910673303,
				"z": -3.6809619768,
				"element": "H" 
			},
			{
				"x": 0.3436871528,
				"y": 4.1538257783,
				"z": -3.5873102532,
				"element": "H" 
			},
			{
				"x": -1.3046942171,
				"y": 3.5436550137,
				"z": -1.8226254943,
				"element": "H" 
			}
		],
		 "valence_orbital": [ 
			{
				"type": "occ",
				"energy": -0.26015,
				"method": "rhf"
			},
			{
				"type": "occ",
				"energy": -0.25428,
				"method": "rhf"
			},
			{
				"type": "occ",
				"energy": -0.24204,
				"method": "rhf"
			},
			{
				"type": "occ",
				"energy": -0.2399,
				"method": "rhf"
			},
			{
				"type": "occ",
				"energy": -0.19062,
				"method": "rhf"
			},
			{
				"type": "unocc",
				"energy": -0.06114,
				"method": "rhf"
			},
			{
				"type": "unocc",
				"energy": -0.01144,
				"method": "rhf"
			},
			{
				"type": "unocc",
				"energy": 0.00724,
				"method": "rhf"
			},
			{
				"type": "unocc",
				"energy": 0.04697,
				"method": "rhf"
			},
			{
				"type": "unocc",
				"energy": 0.0554,
				"method": "rhf"
			}
		],
		"cosmo_sigma_profile": { 
			"-0.025": 0.0,
			"-0.024": 0.0,
			"-0.023": 0.0,
			"-0.022": 0.0,
			"-0.021": 0.0,
			"-0.02": 0.0,
			"-0.019": 0.0,
			"-0.018": 0.0,
			"-0.017": 0.0,
			"-0.016": 0.0,
			"-0.015": 0.261184373322,
			"-0.014": 2.24604936172,
			"-0.013": 2.8348226712,
			"-0.012": 2.35257528136,
			"-0.011": 3.53625413766,
			"-0.01": 2.17096016713,
			"-0.009": 2.28075310845,
			"-0.008": 3.00487569987,
			"-0.007": 3.09517936779,
			"-0.006": 9.78584721521,
			"-0.005": 13.8145774903,
			"-0.004": 17.3662430408,
			"-0.003": 13.4466243373,
			"-0.002": 10.493582339,
			"-0.001": 11.4520944511,
			"0.0": 10.6073295344,
			"0.001": 13.354046944,
			"0.002": 17.4949707468,
			"0.003": 22.0822995127,
			"0.004": 25.5515650687,
			"0.005": 19.4508500301,
			"0.006": 3.16383710591,
			"0.007": 2.76988283124,
			"0.008": 2.07899909766,
			"0.009": 2.55793707967,
			"0.01": 1.67058014649,
			"0.011": 1.24283579319,
			"0.012": 1.1438713809,
			"0.013": 1.27333855309,
			"0.014": 0.746706153826,
			"0.015": 0.719011073463,
			"0.016": 0.876421410273,
			"0.017": 0.372970559455,
			"0.018": 0.0,
			"0.019": 0.0,
			"0.02": 0.0,
			"0.021": 0.0,
			"0.022": 0.0,
			"0.023": 0.0,
			"0.024": 0.0,
			"0.025": 0.0
		}
	}
}
