{
	 "smiles": "NS(=O)(=O)C1=CC=C(O1)C(O)=O", 
	 "Tm": 486.15, 
	 "num_atms": 17, 
	 "gaussian": { 
		 "optdone": 1, 
		 "sigma_profile": "yes", 
		 "theory": "DFT", 
		 "functional": "B3LYP", 
		 "basiset": "6-31G**", 
		 "properties": { 
			 "R2extent": 2955.1498, 
			 "electric_dipole_moment_norm": 4.02560406647, 
			 "electric_quadrupole_moment_norm": 23.3542719854, 
			 "total_energy": -1022.50523184, 
			 "HOMO_LUMO_gap": 0.19601, 
			 "cosmo_polarized_energy": -21.29, 
			 "cosmo_cavitation_energy": 24.57, 
			 "cosmo_dispersion_energy": -18.5, 
			 "cosmo_repulsion_energy": 1.46, 
			 "cosmo_total_nonelectrostatic_energy": 7.53, 
			 "SMD_solvation_energy": 5.82 
		},
		"coords": [
			{
				"x": 0.9169799083,
				"y": -2.0984705555,
				"z": -1.0635628911,
				"element": "N" 
			},
			{
				"x": 0.2751453853,
				"y": -0.7681465459,
				"z": -1.8675310289,
				"element": "S" 
			},
			{
				"x": 1.2418086606,
				"y": 0.3155296596,
				"z": -1.7140788332,
				"element": "O" 
			},
			{
				"x": -0.2551602827,
				"y": -1.1892872198,
				"z": -3.1630678416,
				"element": "O" 
			},
			{
				"x": -1.1577454649,
				"y": -0.3831476474,
				"z": -0.8999160266,
				"element": "C" 
			},
			{
				"x": -2.4851311133,
				"y": -0.4222979037,
				"z": -1.2236314254,
				"element": "C" 
			},
			{
				"x": -3.1784185206,
				"y": 0.0386775322,
				"z": -0.0663831105,
				"element": "C" 
			},
			{
				"x": -2.2236352904,
				"y": 0.3249929627,
				"z": 0.8700442706,
				"element": "C" 
			},
			{
				"x": -0.972997484,
				"y": 0.0704765587,
				"z": 0.3663069305,
				"element": "O" 
			},
			{
				"x": -2.3272473294,
				"y": 0.8381198506,
				"z": 2.2515676744,
				"element": "C" 
			},
			{
				"x": -1.1555906286,
				"y": 1.0410681582,
				"z": 2.8930649362,
				"element": "O" 
			},
			{
				"x": -3.3942333124,
				"y": 1.0605803278,
				"z": 2.7722822892,
				"element": "O" 
			},
			{
				"x": 1.9078203914,
				"y": -1.9516443043,
				"z": -0.8918474045,
				"element": "H" 
			},
			{
				"x": 0.7353307354,
				"y": -2.9569241264,
				"z": -1.5763755188,
				"element": "H" 
			},
			{
				"x": -2.8950290103,
				"y": -0.7373792073,
				"z": -2.1710857871,
				"element": "H" 
			},
			{
				"x": -4.2432443722,
				"y": 0.1518917031,
				"z": 0.0712593433,
				"element": "H" 
			},
			{
				"x": -0.4094522723,
				"y": 0.8217607572,
				"z": 2.3128544236,
				"element": "H" 
			}
		],
		 "valence_orbital": [ 
			{
				"type": "occ",
				"energy": -0.3302,
				"method": "rhf"
			},
			{
				"type": "occ",
				"energy": -0.32675,
				"method": "rhf"
			},
			{
				"type": "occ",
				"energy": -0.31872,
				"method": "rhf"
			},
			{
				"type": "occ",
				"energy": -0.29171,
				"method": "rhf"
			},
			{
				"type": "occ",
				"energy": -0.27235,
				"method": "rhf"
			},
			{
				"type": "unocc",
				"energy": -0.07634,
				"method": "rhf"
			},
			{
				"type": "unocc",
				"energy": -0.00603,
				"method": "rhf"
			},
			{
				"type": "unocc",
				"energy": 0.03944,
				"method": "rhf"
			},
			{
				"type": "unocc",
				"energy": 0.04932,
				"method": "rhf"
			},
			{
				"type": "unocc",
				"energy": 0.07549,
				"method": "rhf"
			}
		],
		"cosmo_sigma_profile": { 
			"-0.025": 0.0,
			"-0.024": 0.0,
			"-0.023": 0.0,
			"-0.022": 0.0,
			"-0.021": 0.0,
			"-0.02": 0.0,
			"-0.019": 0.0,
			"-0.018": 0.11169465889,
			"-0.017": 0.732784330092,
			"-0.016": 1.75847898588,
			"-0.015": 2.88258496925,
			"-0.014": 3.44194483676,
			"-0.013": 3.76980364389,
			"-0.012": 3.1962947336,
			"-0.011": 3.69466931871,
			"-0.01": 4.19043028476,
			"-0.009": 5.68458814011,
			"-0.008": 5.96197970197,
			"-0.007": 6.38149721775,
			"-0.006": 7.57662487227,
			"-0.005": 6.0478263299,
			"-0.004": 7.03845551344,
			"-0.003": 10.8113041933,
			"-0.002": 11.003258572,
			"-0.001": 12.5196900029,
			"0.0": 12.150335244,
			"0.001": 7.33612496095,
			"0.002": 5.9103406155,
			"0.003": 4.45886183879,
			"0.004": 5.79518639216,
			"0.005": 5.50383172786,
			"0.006": 6.54474966342,
			"0.007": 5.85377855721,
			"0.008": 7.24771106232,
			"0.009": 12.1657180264,
			"0.01": 16.2543525921,
			"0.011": 8.58789130404,
			"0.012": 2.27414304213,
			"0.013": 0.18350442756,
			"0.014": 0.0,
			"0.015": 0.0,
			"0.016": 0.0,
			"0.017": 0.0,
			"0.018": 0.0,
			"0.019": 0.0,
			"0.02": 0.0,
			"0.021": 0.0,
			"0.022": 0.0,
			"0.023": 0.0,
			"0.024": 0.0,
			"0.025": 0.0
		}
	}
}
