{
	 "smiles": "COC(=O)C1=CC=C(S)C=C1", 
	 "Tm": 327.15, 
	 "num_atms": 19, 
	 "gaussian": { 
		 "optdone": 1, 
		 "sigma_profile": "yes", 
		 "theory": "DFT", 
		 "functional": "B3LYP", 
		 "basiset": "6-31G**", 
		 "properties": { 
			 "R2extent": 3808.4101, 
			 "electric_dipole_moment_norm": 2.55046998414, 
			 "electric_quadrupole_moment_norm": 5.76375632379, 
			 "total_energy": -858.31681521, 
			 "HOMO_LUMO_gap": 0.18256, 
			 "cosmo_polarized_energy": -9.56, 
			 "cosmo_cavitation_energy": 25.27, 
			 "cosmo_dispersion_energy": -19.16, 
			 "cosmo_repulsion_energy": 1.49, 
			 "cosmo_total_nonelectrostatic_energy": 7.6, 
			 "SMD_solvation_energy": 5.44 
		},
		"coords": [
			{
				"x": -0.8973393015,
				"y": -2.65542183,
				"z": -1.1197156755,
				"element": "C" 
			},
			{
				"x": -0.2764984455,
				"y": -1.4704995518,
				"z": -0.5996296746,
				"element": "O" 
			},
			{
				"x": 0.8456755537,
				"y": -1.0771385237,
				"z": -1.2480716565,
				"element": "C" 
			},
			{
				"x": 1.3031847873,
				"y": -1.6765098239,
				"z": -2.2026028503,
				"element": "O" 
			},
			{
				"x": 1.4390466575,
				"y": 0.1534250401,
				"z": -0.6621522301,
				"element": "C" 
			},
			{
				"x": 2.6069900756,
				"y": 0.6644221336,
				"z": -1.24528154,
				"element": "C" 
			},
			{
				"x": 3.2063605845,
				"y": 1.8112393204,
				"z": -0.7410549899,
				"element": "C" 
			},
			{
				"x": 2.6435836087,
				"y": 2.4712844599,
				"z": 0.3630768075,
				"element": "C" 
			},
			{
				"x": 3.4639430629,
				"y": 3.9366626272,
				"z": 0.9578522067,
				"element": "S" 
			},
			{
				"x": 1.4752085528,
				"y": 1.9635117896,
				"z": 0.9495834253,
				"element": "C" 
			},
			{
				"x": 0.8795871233,
				"y": 0.8140211691,
				"z": 0.4396272009,
				"element": "C" 
			},
			{
				"x": -0.2122645712,
				"y": -3.5053038729,
				"z": -1.0654805594,
				"element": "H" 
			},
			{
				"x": -1.1935126287,
				"y": -2.5100210222,
				"z": -2.1616840875,
				"element": "H" 
			},
			{
				"x": -1.7725423992,
				"y": -2.8284794023,
				"z": -0.4933839484,
				"element": "H" 
			},
			{
				"x": 3.0312901333,
				"y": 0.1447881584,
				"z": -2.0977413971,
				"element": "H" 
			},
			{
				"x": 4.1109346235,
				"y": 2.1970284739,
				"z": -1.2017191206,
				"element": "H" 
			},
			{
				"x": 2.6122770092,
				"y": 4.2022212652,
				"z": 1.96650965,
				"element": "H" 
			},
			{
				"x": 1.029280831,
				"y": 2.464037789,
				"z": 1.8039607505,
				"element": "H" 
			},
			{
				"x": -0.0234052572,
				"y": 0.4246318003,
				"z": 0.8957076889,
				"element": "H" 
			}
		],
		 "valence_orbital": [ 
			{
				"type": "occ",
				"energy": -0.30483,
				"method": "rhf"
			},
			{
				"type": "occ",
				"energy": -0.30068,
				"method": "rhf"
			},
			{
				"type": "occ",
				"energy": -0.27312,
				"method": "rhf"
			},
			{
				"type": "occ",
				"energy": -0.26559,
				"method": "rhf"
			},
			{
				"type": "occ",
				"energy": -0.22925,
				"method": "rhf"
			},
			{
				"type": "unocc",
				"energy": -0.04669,
				"method": "rhf"
			},
			{
				"type": "unocc",
				"energy": -0.01396,
				"method": "rhf"
			},
			{
				"type": "unocc",
				"energy": 0.00765,
				"method": "rhf"
			},
			{
				"type": "unocc",
				"energy": 0.05366,
				"method": "rhf"
			},
			{
				"type": "unocc",
				"energy": 0.06422,
				"method": "rhf"
			}
		],
		"cosmo_sigma_profile": { 
			"-0.025": 0.0,
			"-0.024": 0.0,
			"-0.023": 0.0,
			"-0.022": 0.0,
			"-0.021": 0.0,
			"-0.02": 0.0,
			"-0.019": 0.0,
			"-0.018": 0.0,
			"-0.017": 0.0,
			"-0.016": 0.0,
			"-0.015": 0.0,
			"-0.014": 0.0,
			"-0.013": 0.0,
			"-0.012": 0.0151955689958,
			"-0.011": 2.29735050959,
			"-0.01": 2.97530437285,
			"-0.009": 1.82881259689,
			"-0.008": 2.21898672717,
			"-0.007": 5.69789365396,
			"-0.006": 11.8972609254,
			"-0.005": 14.7753613626,
			"-0.004": 14.5862298675,
			"-0.003": 15.1936987377,
			"-0.002": 11.7579929852,
			"-0.001": 11.877418333,
			"0.0": 11.82588954,
			"0.001": 15.2023022108,
			"0.002": 15.9918659046,
			"0.003": 23.0900574177,
			"0.004": 11.9914035014,
			"0.005": 6.81105671565,
			"0.006": 5.30421062711,
			"0.007": 5.08768712737,
			"0.008": 2.877024439,
			"0.009": 1.91926229526,
			"0.01": 1.46708740975,
			"0.011": 2.82479578438,
			"0.012": 4.49104750805,
			"0.013": 0.502092206044,
			"0.014": 0.0,
			"0.015": 0.0,
			"0.016": 0.0,
			"0.017": 0.0,
			"0.018": 0.0,
			"0.019": 0.0,
			"0.02": 0.0,
			"0.021": 0.0,
			"0.022": 0.0,
			"0.023": 0.0,
			"0.024": 0.0,
			"0.025": 0.0
		}
	}
}
