{
	 "smiles": "O=CNCNC=O", 
	 "Tm": 415.15, 
	 "num_atms": 13, 
	 "gaussian": { 
		 "optdone": 1, 
		 "sigma_profile": "yes", 
		 "theory": "DFT", 
		 "functional": "B3LYP", 
		 "basiset": "6-31G**", 
		 "properties": { 
			 "R2extent": 1402.1057, 
			 "electric_dipole_moment_norm": 4.66360068938, 
			 "electric_quadrupole_moment_norm": 12.0012236109, 
			 "total_energy": -377.893903279, 
			 "HOMO_LUMO_gap": 0.2617, 
			 "cosmo_polarized_energy": -18.66, 
			 "cosmo_cavitation_energy": 17.93, 
			 "cosmo_dispersion_energy": -12.85, 
			 "cosmo_repulsion_energy": 1.12, 
			 "cosmo_total_nonelectrostatic_energy": 6.19, 
			 "SMD_solvation_energy": 4.91 
		},
		"coords": [
			{
				"x": -2.2439374778,
				"y": -0.0914207175,
				"z": -1.3791413613,
				"element": "O" 
			},
			{
				"x": -1.1523176372,
				"y": -0.0204684422,
				"z": -0.8497991966,
				"element": "C" 
			},
			{
				"x": -0.5863928053,
				"y": -0.994926317,
				"z": -0.0762647183,
				"element": "N" 
			},
			{
				"x": 0.7684560146,
				"y": -0.9538637234,
				"z": 0.4258659896,
				"element": "C" 
			},
			{
				"x": 1.7342782708,
				"y": -1.7047100898,
				"z": -0.3675820112,
				"element": "N" 
			},
			{
				"x": 1.7209117998,
				"y": -3.0707631456,
				"z": -0.3372376748,
				"element": "C" 
			},
			{
				"x": 0.9901222545,
				"y": -3.7259400602,
				"z": 0.3865173746,
				"element": "O" 
			},
			{
				"x": -0.4989603162,
				"y": 0.8751063159,
				"z": -0.927845184,
				"element": "H" 
			},
			{
				"x": -1.089404871,
				"y": -1.8706563684,
				"z": 0.0049191153,
				"element": "H" 
			},
			{
				"x": 0.7859002844,
				"y": -1.3690136621,
				"z": 1.4350033632,
				"element": "H" 
			},
			{
				"x": 1.0944028271,
				"y": 0.0879483167,
				"z": 0.4690683016,
				"element": "H" 
			},
			{
				"x": 2.2307199012,
				"y": -1.2418351181,
				"z": -1.1162323714,
				"element": "H" 
			},
			{
				"x": 2.4565217551,
				"y": -3.5244569882,
				"z": -1.0285716267,
				"element": "H" 
			}
		],
		 "valence_orbital": [ 
			{
				"type": "occ",
				"energy": -0.39626,
				"method": "rhf"
			},
			{
				"type": "occ",
				"energy": -0.2951,
				"method": "rhf"
			},
			{
				"type": "occ",
				"energy": -0.2741,
				"method": "rhf"
			},
			{
				"type": "occ",
				"energy": -0.26395,
				"method": "rhf"
			},
			{
				"type": "occ",
				"energy": -0.25833,
				"method": "rhf"
			},
			{
				"type": "unocc",
				"energy": 0.00337,
				"method": "rhf"
			},
			{
				"type": "unocc",
				"energy": 0.01909,
				"method": "rhf"
			},
			{
				"type": "unocc",
				"energy": 0.05703,
				"method": "rhf"
			},
			{
				"type": "unocc",
				"energy": 0.09921,
				"method": "rhf"
			},
			{
				"type": "unocc",
				"energy": 0.10408,
				"method": "rhf"
			}
		],
		"cosmo_sigma_profile": { 
			"-0.025": 0.0,
			"-0.024": 0.0,
			"-0.023": 0.0,
			"-0.022": 0.0,
			"-0.021": 0.0,
			"-0.02": 0.0,
			"-0.019": 0.0,
			"-0.018": 0.0,
			"-0.017": 0.0,
			"-0.016": 0.00148070224084,
			"-0.015": 1.34563233424,
			"-0.014": 2.14801088798,
			"-0.013": 2.04159994925,
			"-0.012": 2.21323910948,
			"-0.011": 2.4811399818,
			"-0.01": 3.36650862392,
			"-0.009": 5.14589709513,
			"-0.008": 6.09648542653,
			"-0.007": 8.36627190302,
			"-0.006": 8.25943655536,
			"-0.005": 8.00853762982,
			"-0.004": 7.61218639379,
			"-0.003": 6.64608087721,
			"-0.002": 7.10121576807,
			"-0.001": 5.82111145597,
			"0.0": 6.02663503133,
			"0.001": 5.99869416402,
			"0.002": 4.67321916964,
			"0.003": 4.3756901557,
			"0.004": 3.41693857013,
			"0.005": 3.02606279611,
			"0.006": 1.70894904,
			"0.007": 2.8461467844,
			"0.008": 2.54329889374,
			"0.009": 2.12268921019,
			"0.01": 2.89032034043,
			"0.011": 3.95981650657,
			"0.012": 5.38842392978,
			"0.013": 10.2633269087,
			"0.014": 5.19831152749,
			"0.015": 0.48654057796,
			"0.016": 0.0,
			"0.017": 0.0,
			"0.018": 0.0,
			"0.019": 0.0,
			"0.02": 0.0,
			"0.021": 0.0,
			"0.022": 0.0,
			"0.023": 0.0,
			"0.024": 0.0,
			"0.025": 0.0
		}
	}
}
