{
	 "smiles": "CC(C)CCOC1=C(C(C)=O)C(O)=CC=C1", 
	 "Tm": 299.15, 
	 "num_atms": 34, 
	 "gaussian": { 
		 "optdone": 1, 
		 "sigma_profile": "yes", 
		 "theory": "DFT", 
		 "functional": "B3LYP", 
		 "basiset": "6-31G**", 
		 "properties": { 
			 "R2extent": 5684.6076, 
			 "electric_dipole_moment_norm": 5.00220705189, 
			 "electric_quadrupole_moment_norm": 13.924625879, 
			 "total_energy": -731.919924709, 
			 "HOMO_LUMO_gap": 0.16242, 
			 "cosmo_polarized_energy": -8.75, 
			 "cosmo_cavitation_energy": 35.19, 
			 "cosmo_dispersion_energy": -24.78, 
			 "cosmo_repulsion_energy": 1.92, 
			 "cosmo_total_nonelectrostatic_energy": 12.32, 
			 "SMD_solvation_energy": 7.02 
		},
		"coords": [
			{
				"x": 4.3031194896,
				"y": 2.2931861018,
				"z": 0.1679841293,
				"element": "C" 
			},
			{
				"x": 2.9440688011,
				"y": 1.5946812831,
				"z": 0.3300897879,
				"element": "C" 
			},
			{
				"x": 3.1376756196,
				"y": 0.0858882778,
				"z": 0.5420913023,
				"element": "C" 
			},
			{
				"x": 2.0353588434,
				"y": 1.9225194458,
				"z": -0.8727150361,
				"element": "C" 
			},
			{
				"x": 0.5508900752,
				"y": 1.5706579993,
				"z": -0.7207943401,
				"element": "C" 
			},
			{
				"x": 0.2465066185,
				"y": 0.1689253258,
				"z": -0.7967160113,
				"element": "O" 
			},
			{
				"x": 0.0822674604,
				"y": -0.4395459348,
				"z": -2.0037168215,
				"element": "C" 
			},
			{
				"x": -0.3661322193,
				"y": -1.7979144044,
				"z": -1.9758308092,
				"element": "C" 
			},
			{
				"x": -0.7444790853,
				"y": -2.5354124806,
				"z": -0.7573754102,
				"element": "C" 
			},
			{
				"x": -0.7984052091,
				"y": -1.906778322,
				"z": 0.6174139794,
				"element": "C" 
			},
			{
				"x": -1.068982228,
				"y": -3.7380304779,
				"z": -0.8324639215,
				"element": "O" 
			},
			{
				"x": -0.4965385612,
				"y": -2.4772024987,
				"z": -3.2321533681,
				"element": "C" 
			},
			{
				"x": -0.8817665016,
				"y": -3.7509138867,
				"z": -3.3079885724,
				"element": "O" 
			},
			{
				"x": -0.2339034718,
				"y": -1.8126959017,
				"z": -4.4420806149,
				"element": "C" 
			},
			{
				"x": 0.1699332407,
				"y": -0.4916938445,
				"z": -4.4184179269,
				"element": "C" 
			},
			{
				"x": 0.3378641515,
				"y": 0.2039121308,
				"z": -3.2140849319,
				"element": "C" 
			},
			{
				"x": 4.9517089096,
				"y": 2.096289473,
				"z": 1.0280258235,
				"element": "H" 
			},
			{
				"x": 4.8238850163,
				"y": 1.9327588935,
				"z": -0.7275384871,
				"element": "H" 
			},
			{
				"x": 4.1907530602,
				"y": 3.3789927204,
				"z": 0.0738992947,
				"element": "H" 
			},
			{
				"x": 2.4611108786,
				"y": 2.0067341372,
				"z": 1.2296827478,
				"element": "H" 
			},
			{
				"x": 3.6082935345,
				"y": -0.3723757246,
				"z": -0.3362128066,
				"element": "H" 
			},
			{
				"x": 3.7866702299,
				"y": -0.1044643783,
				"z": 1.4036954231,
				"element": "H" 
			},
			{
				"x": 2.1876383011,
				"y": -0.4252633735,
				"z": 0.7109237644,
				"element": "H" 
			},
			{
				"x": 2.0729519406,
				"y": 3.006636854,
				"z": -1.0495260791,
				"element": "H" 
			},
			{
				"x": 2.4392613722,
				"y": 1.4513886792,
				"z": -1.7771114548,
				"element": "H" 
			},
			{
				"x": 0.1981468141,
				"y": 1.8660720565,
				"z": 0.2727612442,
				"element": "H" 
			},
			{
				"x": -0.0541827488,
				"y": 2.1101226486,
				"z": -1.4585224391,
				"element": "H" 
			},
			{
				"x": 0.2038443471,
				"y": -1.6384671743,
				"z": 0.9616663792,
				"element": "H" 
			},
			{
				"x": -1.2366154621,
				"y": -2.6401660516,
				"z": 1.2958515709,
				"element": "H" 
			},
			{
				"x": -1.3849881628,
				"y": -0.9855504301,
				"z": 0.61526154,
				"element": "H" 
			},
			{
				"x": -1.0220780754,
				"y": -4.0498524749,
				"z": -2.3606574318,
				"element": "H" 
			},
			{
				"x": -0.3557910213,
				"y": -2.3649849075,
				"z": -5.3666292453,
				"element": "H" 
			},
			{
				"x": 0.3751221295,
				"y": 0.0230801806,
				"z": -5.3530701127,
				"element": "H" 
			},
			{
				"x": 0.680691913,
				"y": 1.2288660586,
				"z": -3.2384411658,
				"element": "H" 
			}
		],
		 "valence_orbital": [ 
			{
				"type": "occ",
				"energy": -0.32028,
				"method": "rhf"
			},
			{
				"type": "occ",
				"energy": -0.30547,
				"method": "rhf"
			},
			{
				"type": "occ",
				"energy": -0.25581,
				"method": "rhf"
			},
			{
				"type": "occ",
				"energy": -0.24237,
				"method": "rhf"
			},
			{
				"type": "occ",
				"energy": -0.21507,
				"method": "rhf"
			},
			{
				"type": "unocc",
				"energy": -0.05265,
				"method": "rhf"
			},
			{
				"type": "unocc",
				"energy": 0.01638,
				"method": "rhf"
			},
			{
				"type": "unocc",
				"energy": 0.03569,
				"method": "rhf"
			},
			{
				"type": "unocc",
				"energy": 0.07501,
				"method": "rhf"
			},
			{
				"type": "unocc",
				"energy": 0.08595,
				"method": "rhf"
			}
		],
		"cosmo_sigma_profile": { 
			"-0.025": 0.0,
			"-0.024": 0.0,
			"-0.023": 0.0,
			"-0.022": 0.0,
			"-0.021": 0.0,
			"-0.02": 0.0,
			"-0.019": 0.0,
			"-0.018": 0.0,
			"-0.017": 0.0,
			"-0.016": 0.0,
			"-0.015": 0.0,
			"-0.014": 0.0,
			"-0.013": 0.0,
			"-0.012": 0.0,
			"-0.011": 0.0,
			"-0.01": 0.0,
			"-0.009": 0.0,
			"-0.008": 0.0,
			"-0.007": 1.60447764976,
			"-0.006": 6.89825572544,
			"-0.005": 13.1246105919,
			"-0.004": 21.6533489283,
			"-0.003": 25.440966691,
			"-0.002": 35.8789825602,
			"-0.001": 35.0347273248,
			"0.0": 32.1159373813,
			"0.001": 28.4208195104,
			"0.002": 24.3118949065,
			"0.003": 13.472053311,
			"0.004": 11.4081285497,
			"0.005": 6.03591816626,
			"0.006": 2.9713196778,
			"0.007": 2.87348309947,
			"0.008": 2.63149532989,
			"0.009": 2.93714475558,
			"0.01": 3.01540569209,
			"0.011": 3.58960819097,
			"0.012": 2.43236172862,
			"0.013": 0.550373673084,
			"0.014": 0.0,
			"0.015": 0.0,
			"0.016": 0.0,
			"0.017": 0.0,
			"0.018": 0.0,
			"0.019": 0.0,
			"0.02": 0.0,
			"0.021": 0.0,
			"0.022": 0.0,
			"0.023": 0.0,
			"0.024": 0.0,
			"0.025": 0.0
		}
	}
}
