{
	 "smiles": "OC(CN1C=NC=N1)(C1=CC=C(F)C=C1)C1=CC=CC=C1F", 
	 "Tm": 403.15, 
	 "num_atms": 35, 
	 "gaussian": { 
		 "optdone": 1, 
		 "sigma_profile": "yes", 
		 "theory": "DFT", 
		 "functional": "B3LYP", 
		 "basiset": "6-31G**", 
		 "properties": { 
			 "R2extent": 6281.3705, 
			 "electric_dipole_moment_norm": 2.8184783572, 
			 "electric_quadrupole_moment_norm": 14.6610643283, 
			 "total_energy": -1056.65887211, 
			 "HOMO_LUMO_gap": 0.22137, 
			 "cosmo_polarized_energy": -12.97, 
			 "cosmo_cavitation_energy": 38.98, 
			 "cosmo_dispersion_energy": -26.29, 
			 "cosmo_repulsion_energy": 1.93, 
			 "cosmo_total_nonelectrostatic_energy": 14.62, 
			 "SMD_solvation_energy": 5.38 
		},
		"coords": [
			{
				"x": -1.7153228285,
				"y": 0.1297116917,
				"z": -0.6780653515,
				"element": "O" 
			},
			{
				"x": -0.3030472151,
				"y": 0.1137189276,
				"z": -0.4302290399,
				"element": "C" 
			},
			{
				"x": 0.1744360101,
				"y": -0.7260311218,
				"z": -1.6585953204,
				"element": "C" 
			},
			{
				"x": 1.5072062988,
				"y": -1.3046404411,
				"z": -1.6109126566,
				"element": "N" 
			},
			{
				"x": 1.911209031,
				"y": -2.4742441527,
				"z": -1.0595569855,
				"element": "C" 
			},
			{
				"x": 3.1997975188,
				"y": -2.6739824334,
				"z": -1.2761160213,
				"element": "N" 
			},
			{
				"x": 3.5516079322,
				"y": -1.5679712022,
				"z": -1.9882049066,
				"element": "C" 
			},
			{
				"x": 2.5691057332,
				"y": -0.7112270494,
				"z": -2.2239664359,
				"element": "N" 
			},
			{
				"x": 0.0113994908,
				"y": -0.6259506721,
				"z": 0.8799176457,
				"element": "C" 
			},
			{
				"x": -0.8923080183,
				"y": -1.5785872393,
				"z": 1.3699165377,
				"element": "C" 
			},
			{
				"x": -0.6148314097,
				"y": -2.3028425078,
				"z": 2.5294739463,
				"element": "C" 
			},
			{
				"x": 0.582761566,
				"y": -2.0663144562,
				"z": 3.1945141714,
				"element": "C" 
			},
			{
				"x": 0.8568003214,
				"y": -2.7593774606,
				"z": 4.3183322846,
				"element": "F" 
			},
			{
				"x": 1.5040636322,
				"y": -1.1330014034,
				"z": 2.7337653769,
				"element": "C" 
			},
			{
				"x": 1.210739347,
				"y": -0.416029914,
				"z": 1.5741416048,
				"element": "C" 
			},
			{
				"x": 0.222047363,
				"y": 1.5576603663,
				"z": -0.4014757254,
				"element": "C" 
			},
			{
				"x": 1.2739842494,
				"y": 2.0463774645,
				"z": -1.1872547625,
				"element": "C" 
			},
			{
				"x": 1.6774008682,
				"y": 3.3833636748,
				"z": -1.1072266672,
				"element": "C" 
			},
			{
				"x": 1.0363653651,
				"y": 4.2666470104,
				"z": -0.2410141071,
				"element": "C" 
			},
			{
				"x": -0.0157323097,
				"y": 3.8102311676,
				"z": 0.5555934344,
				"element": "C" 
			},
			{
				"x": -0.3880642269,
				"y": 2.4802646618,
				"z": 0.4570317619,
				"element": "C" 
			},
			{
				"x": -1.4253549684,
				"y": 2.054904971,
				"z": 1.2403686236,
				"element": "F" 
			},
			{
				"x": -2.1168155158,
				"y": 0.674158817,
				"z": 0.0140975978,
				"element": "H" 
			},
			{
				"x": -0.5439897532,
				"y": -1.5442355099,
				"z": -1.7382725126,
				"element": "H" 
			},
			{
				"x": 0.104406085,
				"y": -0.1272848221,
				"z": -2.5672704046,
				"element": "H" 
			},
			{
				"x": 1.2414901874,
				"y": -3.128384359,
				"z": -0.5195467762,
				"element": "H" 
			},
			{
				"x": 4.5549029906,
				"y": -1.3907857224,
				"z": -2.3508867234,
				"element": "H" 
			},
			{
				"x": -1.8248292923,
				"y": -1.7418816215,
				"z": 0.8406331944,
				"element": "H" 
			},
			{
				"x": -1.3109136181,
				"y": -3.0362666346,
				"z": 2.9222915809,
				"element": "H" 
			},
			{
				"x": 2.4288182122,
				"y": -0.9774732961,
				"z": 3.2785423755,
				"element": "H" 
			},
			{
				"x": 1.9255527504,
				"y": 0.3148941898,
				"z": 1.2102760519,
				"element": "H" 
			},
			{
				"x": 1.803894968,
				"y": 1.3751912625,
				"z": -1.854379489,
				"element": "H" 
			},
			{
				"x": 2.4981642874,
				"y": 3.7283855222,
				"z": -1.7282859998,
				"element": "H" 
			},
			{
				"x": 1.3468791244,
				"y": 5.305160014,
				"z": -0.1803323256,
				"element": "H" 
			},
			{
				"x": -0.5470241768,
				"y": 4.4600422781,
				"z": 1.2423960233,
				"element": "H" 
			}
		],
		 "valence_orbital": [ 
			{
				"type": "occ",
				"energy": -0.26996,
				"method": "rhf"
			},
			{
				"type": "occ",
				"energy": -0.26533,
				"method": "rhf"
			},
			{
				"type": "occ",
				"energy": -0.26379,
				"method": "rhf"
			},
			{
				"type": "occ",
				"energy": -0.25435,
				"method": "rhf"
			},
			{
				"type": "occ",
				"energy": -0.24554,
				"method": "rhf"
			},
			{
				"type": "unocc",
				"energy": -0.02417,
				"method": "rhf"
			},
			{
				"type": "unocc",
				"energy": -0.01757,
				"method": "rhf"
			},
			{
				"type": "unocc",
				"energy": -0.01089,
				"method": "rhf"
			},
			{
				"type": "unocc",
				"energy": -0.00759,
				"method": "rhf"
			},
			{
				"type": "unocc",
				"energy": 0.00218,
				"method": "rhf"
			}
		],
		"cosmo_sigma_profile": { 
			"-0.025": 0.0,
			"-0.024": 0.0,
			"-0.023": 0.0,
			"-0.022": 0.0,
			"-0.021": 0.0,
			"-0.02": 0.0,
			"-0.019": 0.0,
			"-0.018": 0.0,
			"-0.017": 0.0,
			"-0.016": 0.0,
			"-0.015": 0.0,
			"-0.014": 0.0,
			"-0.013": 0.0,
			"-0.012": 0.272479389533,
			"-0.011": 0.534691331774,
			"-0.01": 0.892463835771,
			"-0.009": 3.24351483941,
			"-0.008": 6.46577779649,
			"-0.007": 12.8630447471,
			"-0.006": 17.4720455494,
			"-0.005": 19.9438041734,
			"-0.004": 23.3406954375,
			"-0.003": 18.4163441027,
			"-0.002": 18.6243380991,
			"-0.001": 17.6436959268,
			"0.0": 24.1847884417,
			"0.001": 27.6731354009,
			"0.002": 26.5832124009,
			"0.003": 28.6390238312,
			"0.004": 29.7871557999,
			"0.005": 9.00306369814,
			"0.006": 4.14080468702,
			"0.007": 3.76891022892,
			"0.008": 3.48131985478,
			"0.009": 2.22214878899,
			"0.01": 3.3667449814,
			"0.011": 2.93145762227,
			"0.012": 2.70902046792,
			"0.013": 1.32522558993,
			"0.014": 1.06175957215,
			"0.015": 1.01200456826,
			"0.016": 1.06540413473,
			"0.017": 0.254360351923,
			"0.018": 0.0,
			"0.019": 0.0,
			"0.02": 0.0,
			"0.021": 0.0,
			"0.022": 0.0,
			"0.023": 0.0,
			"0.024": 0.0,
			"0.025": 0.0
		}
	}
}
