{
	 "smiles": "OC(=O)C1=COC2=CC=CC=C2C1=O", 
	 "Tm": 474.15, 
	 "num_atms": 20, 
	 "gaussian": { 
		 "optdone": 1, 
		 "sigma_profile": "yes", 
		 "theory": "DFT", 
		 "functional": "B3LYP", 
		 "basiset": "6-31G**", 
		 "properties": { 
			 "R2extent": 3154.9159, 
			 "electric_dipole_moment_norm": 7.31270048204, 
			 "electric_quadrupole_moment_norm": 9.66486219353, 
			 "total_energy": -685.588198797, 
			 "HOMO_LUMO_gap": 0.18178, 
			 "cosmo_polarized_energy": -13.69, 
			 "cosmo_cavitation_energy": 24.94, 
			 "cosmo_dispersion_energy": -19.03, 
			 "cosmo_repulsion_energy": 1.45, 
			 "cosmo_total_nonelectrostatic_energy": 7.36, 
			 "SMD_solvation_energy": 6.67 
		},
		"coords": [
			{
				"x": -2.5453837693,
				"y": -0.1946079649,
				"z": -1.4543240131,
				"element": "O" 
			},
			{
				"x": -2.226539791,
				"y": 1.0491141299,
				"z": -1.0912039825,
				"element": "C" 
			},
			{
				"x": -3.0029815309,
				"y": 1.9787944592,
				"z": -1.1676349963,
				"element": "O" 
			},
			{
				"x": -0.8230905023,
				"y": 1.2275740224,
				"z": -0.5741310582,
				"element": "C" 
			},
			{
				"x": -0.4542247879,
				"y": 2.4771149794,
				"z": -0.192986483,
				"element": "C" 
			},
			{
				"x": 0.7516046146,
				"y": 2.8073974521,
				"z": 0.2873529402,
				"element": "O" 
			},
			{
				"x": 1.7109429153,
				"y": 1.8289835676,
				"z": 0.4163487376,
				"element": "C" 
			},
			{
				"x": 2.9506079804,
				"y": 2.2269317761,
				"z": 0.9220619128,
				"element": "C" 
			},
			{
				"x": 3.9458049616,
				"y": 1.2693482608,
				"z": 1.0676178321,
				"element": "C" 
			},
			{
				"x": 3.7114908476,
				"y": -0.0711012098,
				"z": 0.7140081275,
				"element": "C" 
			},
			{
				"x": 2.4763242782,
				"y": -0.4515421236,
				"z": 0.2133865845,
				"element": "C" 
			},
			{
				"x": 1.4510483817,
				"y": 0.4982317349,
				"z": 0.0559421876,
				"element": "C" 
			},
			{
				"x": 0.1298364925,
				"y": 0.1261145666,
				"z": -0.4724141145,
				"element": "C" 
			},
			{
				"x": -0.1474143617,
				"y": -1.0398980908,
				"z": -0.8051707431,
				"element": "O" 
			},
			{
				"x": -1.7589656866,
				"y": -0.7823464438,
				"z": -1.3048289808,
				"element": "H" 
			},
			{
				"x": -1.1309999315,
				"y": 3.3217048809,
				"z": -0.2525639541,
				"element": "H" 
			},
			{
				"x": 3.1075880051,
				"y": 3.2664998375,
				"z": 1.1878199345,
				"element": "H" 
			},
			{
				"x": 4.9145824817,
				"y": 1.5635573593,
				"z": 1.4594143138,
				"element": "H" 
			},
			{
				"x": 4.5003750841,
				"y": -0.8065677872,
				"z": 0.8342234354,
				"element": "H" 
			},
			{
				"x": 2.2628943183,
				"y": -1.4769034067,
				"z": -0.0688176804,
				"element": "H" 
			}
		],
		 "valence_orbital": [ 
			{
				"type": "occ",
				"energy": -0.29304,
				"method": "rhf"
			},
			{
				"type": "occ",
				"energy": -0.28906,
				"method": "rhf"
			},
			{
				"type": "occ",
				"energy": -0.28443,
				"method": "rhf"
			},
			{
				"type": "occ",
				"energy": -0.26757,
				"method": "rhf"
			},
			{
				"type": "occ",
				"energy": -0.26638,
				"method": "rhf"
			},
			{
				"type": "unocc",
				"energy": -0.0846,
				"method": "rhf"
			},
			{
				"type": "unocc",
				"energy": -0.0592,
				"method": "rhf"
			},
			{
				"type": "unocc",
				"energy": -0.02564,
				"method": "rhf"
			},
			{
				"type": "unocc",
				"energy": 0.01874,
				"method": "rhf"
			},
			{
				"type": "unocc",
				"energy": 0.06712,
				"method": "rhf"
			}
		],
		"cosmo_sigma_profile": { 
			"-0.025": 0.0,
			"-0.024": 0.0,
			"-0.023": 0.0,
			"-0.022": 0.0,
			"-0.021": 0.0,
			"-0.02": 0.0,
			"-0.019": 0.0,
			"-0.018": 0.0,
			"-0.017": 0.0,
			"-0.016": 0.0,
			"-0.015": 0.0,
			"-0.014": 0.0,
			"-0.013": 0.0,
			"-0.012": 0.0,
			"-0.011": 0.700265327841,
			"-0.01": 1.51161450551,
			"-0.009": 1.26185702977,
			"-0.008": 4.55195448836,
			"-0.007": 9.15481417486,
			"-0.006": 14.0586230578,
			"-0.005": 15.273869292,
			"-0.004": 16.8499546477,
			"-0.003": 16.0740943842,
			"-0.002": 12.9213068603,
			"-0.001": 13.6610220846,
			"0.0": 16.7689753625,
			"0.001": 13.2194849529,
			"0.002": 14.5088189158,
			"0.003": 7.16096994082,
			"0.004": 4.79713652466,
			"0.005": 3.33774159502,
			"0.006": 3.19233275277,
			"0.007": 3.89877874912,
			"0.008": 3.59350680613,
			"0.009": 5.0982543063,
			"0.01": 5.37459691706,
			"0.011": 7.53405191659,
			"0.012": 4.89062558404,
			"0.013": 2.24624520267,
			"0.014": 0.306180968683,
			"0.015": 0.0,
			"0.016": 0.0,
			"0.017": 0.0,
			"0.018": 0.0,
			"0.019": 0.0,
			"0.02": 0.0,
			"0.021": 0.0,
			"0.022": 0.0,
			"0.023": 0.0,
			"0.024": 0.0,
			"0.025": 0.0
		}
	}
}
