{
	 "smiles": "[O-][N+](=O)C1=C(CC#N)C=C(Cl)C=C1", 
	 "Tm": 360.15, 
	 "num_atms": 18, 
	 "gaussian": { 
		 "optdone": 1, 
		 "sigma_profile": "yes", 
		 "theory": "DFT", 
		 "functional": "B3LYP", 
		 "basiset": "6-31G**", 
		 "properties": { 
			 "R2extent": 4442.0049, 
			 "electric_dipole_moment_norm": 2.87959507917, 
			 "electric_quadrupole_moment_norm": 21.6289080859, 
			 "total_energy": -1027.88421727, 
			 "HOMO_LUMO_gap": 0.17613, 
			 "cosmo_polarized_energy": -12.02, 
			 "cosmo_cavitation_energy": 25.92, 
			 "cosmo_dispersion_energy": -18.64, 
			 "cosmo_repulsion_energy": 1.47, 
			 "cosmo_total_nonelectrostatic_energy": 8.74, 
			 "SMD_solvation_energy": 7.47 
		},
		"coords": [
			{
				"x": -1.8220041591,
				"y": 0.4934190041,
				"z": 2.1288990395,
				"element": "O" 
			},
			{
				"x": -1.1569887298,
				"y": -0.0033890585,
				"z": 1.2160053749,
				"element": "N" 
			},
			{
				"x": -1.183468441,
				"y": -1.1953088952,
				"z": 0.9187026592,
				"element": "O" 
			},
			{
				"x": -0.2771239065,
				"y": 0.8806644774,
				"z": 0.4325162905,
				"element": "C" 
			},
			{
				"x": -0.1697377489,
				"y": 2.2647714541,
				"z": 0.6892267462,
				"element": "C" 
			},
			{
				"x": -0.9444661088,
				"y": 2.9807516061,
				"z": 1.7920108265,
				"element": "C" 
			},
			{
				"x": -0.6712277676,
				"y": 4.4180781604,
				"z": 1.8705215694,
				"element": "C" 
			},
			{
				"x": -0.4644495513,
				"y": 5.5574579527,
				"z": 1.9441675318,
				"element": "N" 
			},
			{
				"x": 0.7013976576,
				"y": 2.993922956,
				"z": -0.1269946076,
				"element": "C" 
			},
			{
				"x": 1.4262130486,
				"y": 2.3741088217,
				"z": -1.1447211007,
				"element": "C" 
			},
			{
				"x": 2.498226512,
				"y": 3.3357618995,
				"z": -2.1313289453,
				"element": "Cl" 
			},
			{
				"x": 1.3105659265,
				"y": 1.0058813739,
				"z": -1.3873287643,
				"element": "C" 
			},
			{
				"x": 0.4514917046,
				"y": 0.2652102863,
				"z": -0.5883855515,
				"element": "C" 
			},
			{
				"x": -0.7238949956,
				"y": 2.528692578,
				"z": 2.7638864346,
				"element": "H" 
			},
			{
				"x": -2.0202993477,
				"y": 2.8357445853,
				"z": 1.653790176,
				"element": "H" 
			},
			{
				"x": 0.8167689586,
				"y": 4.0596365456,
				"z": 0.0324869295,
				"element": "H" 
			},
			{
				"x": 1.8784289023,
				"y": 0.534576452,
				"z": -2.1806918508,
				"element": "H" 
			},
			{
				"x": 0.327868046,
				"y": -0.7994801992,
				"z": -0.7378627578,
				"element": "H" 
			}
		],
		 "valence_orbital": [ 
			{
				"type": "occ",
				"energy": -0.32772,
				"method": "rhf"
			},
			{
				"type": "occ",
				"energy": -0.32603,
				"method": "rhf"
			},
			{
				"type": "occ",
				"energy": -0.30919,
				"method": "rhf"
			},
			{
				"type": "occ",
				"energy": -0.29888,
				"method": "rhf"
			},
			{
				"type": "occ",
				"energy": -0.28609,
				"method": "rhf"
			},
			{
				"type": "unocc",
				"energy": -0.10996,
				"method": "rhf"
			},
			{
				"type": "unocc",
				"energy": -0.05109,
				"method": "rhf"
			},
			{
				"type": "unocc",
				"energy": -0.02817,
				"method": "rhf"
			},
			{
				"type": "unocc",
				"energy": 0.00259,
				"method": "rhf"
			},
			{
				"type": "unocc",
				"energy": 0.0181,
				"method": "rhf"
			}
		],
		"cosmo_sigma_profile": { 
			"-0.025": 0.0,
			"-0.024": 0.0,
			"-0.023": 0.0,
			"-0.022": 0.0,
			"-0.021": 0.0,
			"-0.02": 0.0,
			"-0.019": 0.0,
			"-0.018": 0.0,
			"-0.017": 0.0,
			"-0.016": 0.0,
			"-0.015": 0.0,
			"-0.014": 0.0,
			"-0.013": 0.0,
			"-0.012": 0.0,
			"-0.011": 0.0,
			"-0.01": 1.44825229461,
			"-0.009": 6.25953606602,
			"-0.008": 9.54904419,
			"-0.007": 10.1983200043,
			"-0.006": 9.9266170165,
			"-0.005": 9.72805209285,
			"-0.004": 11.0634268561,
			"-0.003": 13.1533464326,
			"-0.002": 15.3679823652,
			"-0.001": 21.3955512902,
			"0.0": 18.0915655403,
			"0.001": 9.47985460286,
			"0.002": 10.0638916705,
			"0.003": 13.7744868884,
			"0.004": 6.8881627122,
			"0.005": 6.16712984995,
			"0.006": 6.40604402501,
			"0.007": 8.17904092686,
			"0.008": 8.02032881917,
			"0.009": 6.84048674755,
			"0.01": 4.45349552947,
			"0.011": 2.51826519091,
			"0.012": 2.33909246675,
			"0.013": 0.768259589669,
			"0.014": 0.0,
			"0.015": 0.0,
			"0.016": 0.0,
			"0.017": 0.0,
			"0.018": 0.0,
			"0.019": 0.0,
			"0.02": 0.0,
			"0.021": 0.0,
			"0.022": 0.0,
			"0.023": 0.0,
			"0.024": 0.0,
			"0.025": 0.0
		}
	}
}
