{
	 "smiles": "NC1=NNC(S)=N1", 
	 "Tm": 573.15, 
	 "num_atms": 11, 
	 "gaussian": { 
		 "optdone": 1, 
		 "sigma_profile": "yes", 
		 "theory": "DFT", 
		 "functional": "B3LYP", 
		 "basiset": "6-31G**", 
		 "properties": { 
			 "R2extent": 1407.9772, 
			 "electric_dipole_moment_norm": 1.06117837803, 
			 "electric_quadrupole_moment_norm": 9.0674928751, 
			 "total_energy": -695.797943365, 
			 "HOMO_LUMO_gap": 0.21033, 
			 "cosmo_polarized_energy": -14.36, 
			 "cosmo_cavitation_energy": 17.34, 
			 "cosmo_dispersion_energy": -13.92, 
			 "cosmo_repulsion_energy": 1.15, 
			 "cosmo_total_nonelectrostatic_energy": 4.57, 
			 "SMD_solvation_energy": -0.22 
		},
		"coords": [
			{
				"x": 0.4335893717,
				"y": 1.248274862,
				"z": 0.2474912706,
				"element": "N" 
			},
			{
				"x": -0.2617417497,
				"y": 0.0584072459,
				"z": 0.1641983761,
				"element": "C" 
			},
			{
				"x": -1.5804305372,
				"y": -0.0179213973,
				"z": 0.2958540124,
				"element": "N" 
			},
			{
				"x": -1.7801283773,
				"y": -1.376600564,
				"z": 0.2126081296,
				"element": "N" 
			},
			{
				"x": -0.6042664778,
				"y": -2.0080228898,
				"z": 0.0284024028,
				"element": "C" 
			},
			{
				"x": -0.4715437472,
				"y": -3.7614504734,
				"z": -0.1491627996,
				"element": "S" 
			},
			{
				"x": 0.3890901417,
				"y": -1.1358319734,
				"z": -0.0114127089,
				"element": "N" 
			},
			{
				"x": -0.1299735684,
				"y": 2.0652963044,
				"z": 0.0575059691,
				"element": "H" 
			},
			{
				"x": 1.3094896501,
				"y": 1.2364421553,
				"z": -0.2558307836,
				"element": "H" 
			},
			{
				"x": -2.7085681041,
				"y": -1.7566721191,
				"z": 0.3079404936,
				"element": "H" 
			},
			{
				"x": 0.871283398,
				"y": -3.7489211504,
				"z": -0.0674943622,
				"element": "H" 
			}
		],
		 "valence_orbital": [ 
			{
				"type": "occ",
				"energy": -0.32959,
				"method": "rhf"
			},
			{
				"type": "occ",
				"energy": -0.31207,
				"method": "rhf"
			},
			{
				"type": "occ",
				"energy": -0.27582,
				"method": "rhf"
			},
			{
				"type": "occ",
				"energy": -0.25801,
				"method": "rhf"
			},
			{
				"type": "occ",
				"energy": -0.2112,
				"method": "rhf"
			},
			{
				"type": "unocc",
				"energy": -0.00087,
				"method": "rhf"
			},
			{
				"type": "unocc",
				"energy": 0.01675,
				"method": "rhf"
			},
			{
				"type": "unocc",
				"energy": 0.05938,
				"method": "rhf"
			},
			{
				"type": "unocc",
				"energy": 0.07528,
				"method": "rhf"
			},
			{
				"type": "unocc",
				"energy": 0.08853,
				"method": "rhf"
			}
		],
		"cosmo_sigma_profile": { 
			"-0.025": 0.0,
			"-0.024": 0.0,
			"-0.023": 0.0,
			"-0.022": 0.0,
			"-0.021": 0.0,
			"-0.02": 0.0,
			"-0.019": 0.0,
			"-0.018": 0.240251191175,
			"-0.017": 1.47816879246,
			"-0.016": 1.58845527952,
			"-0.015": 1.28669889259,
			"-0.014": 1.25054582222,
			"-0.013": 2.16792402324,
			"-0.012": 4.92197234945,
			"-0.011": 4.57231852238,
			"-0.01": 3.76598148153,
			"-0.009": 4.45977874058,
			"-0.008": 4.47041589334,
			"-0.007": 3.72520915835,
			"-0.006": 3.10987343505,
			"-0.005": 3.86479375172,
			"-0.004": 4.34537359024,
			"-0.003": 3.86642235418,
			"-0.002": 4.58333799241,
			"-0.001": 4.8728903631,
			"0.0": 8.13022058073,
			"0.001": 9.46933717768,
			"0.002": 9.46774692419,
			"0.003": 7.33977740582,
			"0.004": 6.79295873705,
			"0.005": 6.37806439715,
			"0.006": 6.48247041369,
			"0.007": 4.92741228464,
			"0.008": 3.94976106861,
			"0.009": 2.43889348954,
			"0.01": 2.57051290684,
			"0.011": 3.84415737687,
			"0.012": 2.97119587492,
			"0.013": 2.11418924267,
			"0.014": 2.44559889335,
			"0.015": 1.96958525548,
			"0.016": 0.769398319237,
			"0.017": 0.0,
			"0.018": 0.0,
			"0.019": 0.0,
			"0.02": 0.0,
			"0.021": 0.0,
			"0.022": 0.0,
			"0.023": 0.0,
			"0.024": 0.0,
			"0.025": 0.0
		}
	}
}
