{
	 "smiles": "OC(=O)C1=C(NC2=CC(F)=CC=C2)N=CC=C1", 
	 "Tm": 476.15, 
	 "num_atms": 26, 
	 "gaussian": { 
		 "optdone": 1, 
		 "sigma_profile": "yes", 
		 "theory": "DFT", 
		 "functional": "B3LYP", 
		 "basiset": "6-31G**", 
		 "properties": { 
			 "R2extent": 5354.1039, 
			 "electric_dipole_moment_norm": 4.1070421729, 
			 "electric_quadrupole_moment_norm": 23.7565014943, 
			 "total_energy": -822.497337585, 
			 "HOMO_LUMO_gap": 0.17247, 
			 "cosmo_polarized_energy": -15.14, 
			 "cosmo_cavitation_energy": 31.18, 
			 "cosmo_dispersion_energy": -22.29, 
			 "cosmo_repulsion_energy": 1.69, 
			 "cosmo_total_nonelectrostatic_energy": 10.58, 
			 "SMD_solvation_energy": 5.62 
		},
		"coords": [
			{
				"x": 0.1393907783,
				"y": -0.3036004496,
				"z": 3.8308573118,
				"element": "O" 
			},
			{
				"x": -0.0488791534,
				"y": -1.4266890902,
				"z": 3.1225416969,
				"element": "C" 
			},
			{
				"x": 0.2601526504,
				"y": -2.513095729,
				"z": 3.5609677455,
				"element": "O" 
			},
			{
				"x": -0.7150453254,
				"y": -1.2839230582,
				"z": 1.7738658421,
				"element": "C" 
			},
			{
				"x": -0.9181453169,
				"y": -0.0748770501,
				"z": 1.0808004505,
				"element": "C" 
			},
			{
				"x": -0.3936429057,
				"y": 1.1580857494,
				"z": 1.5816738921,
				"element": "N" 
			},
			{
				"x": 0.9730023016,
				"y": 1.5246209706,
				"z": 1.3431595003,
				"element": "C" 
			},
			{
				"x": 1.3123007631,
				"y": 2.8747212435,
				"z": 1.5015237853,
				"element": "C" 
			},
			{
				"x": 2.6322749276,
				"y": 3.2610645215,
				"z": 1.3175464162,
				"element": "C" 
			},
			{
				"x": 2.9430281607,
				"y": 4.5643698158,
				"z": 1.4664358303,
				"element": "F" 
			},
			{
				"x": 3.6381311125,
				"y": 2.3584633386,
				"z": 0.9904246625,
				"element": "C" 
			},
			{
				"x": 3.2819307367,
				"y": 1.0192938727,
				"z": 0.8413846841,
				"element": "C" 
			},
			{
				"x": 1.9632214461,
				"y": 0.5932991725,
				"z": 1.0109918311,
				"element": "C" 
			},
			{
				"x": -1.6474101875,
				"y": 0.0216803901,
				"z": -0.0328447055,
				"element": "N" 
			},
			{
				"x": -2.1734542641,
				"y": -1.0983750331,
				"z": -0.5410282731,
				"element": "C" 
			},
			{
				"x": -1.9700089352,
				"y": -2.3617261188,
				"z": 0.0159715824,
				"element": "C" 
			},
			{
				"x": -1.2362137672,
				"y": -2.4463254284,
				"z": 1.1938426154,
				"element": "C" 
			},
			{
				"x": -0.1610102987,
				"y": 0.4700842958,
				"z": 3.3033900135,
				"element": "H" 
			},
			{
				"x": -1.0119548416,
				"y": 1.9076026526,
				"z": 1.2837829399,
				"element": "H" 
			},
			{
				"x": 0.569631475,
				"y": 3.6199121051,
				"z": 1.7680724697,
				"element": "H" 
			},
			{
				"x": 4.6565695544,
				"y": 2.7051429749,
				"z": 0.859883031,
				"element": "H" 
			},
			{
				"x": 4.0430207882,
				"y": 0.2894768622,
				"z": 0.5832009304,
				"element": "H" 
			},
			{
				"x": 1.7150449743,
				"y": -0.4525527704,
				"z": 0.8766208265,
				"element": "H" 
			},
			{
				"x": -2.777732576,
				"y": -0.9761651131,
				"z": -1.4375160558,
				"element": "H" 
			},
			{
				"x": -2.3951949434,
				"y": -3.2446862605,
				"z": -0.4490478101,
				"element": "H" 
			},
			{
				"x": -1.0690071538,
				"y": -3.3883018641,
				"z": 1.7053987868,
				"element": "H" 
			}
		],
		 "valence_orbital": [ 
			{
				"type": "occ",
				"energy": -0.29629,
				"method": "rhf"
			},
			{
				"type": "occ",
				"energy": -0.28237,
				"method": "rhf"
			},
			{
				"type": "occ",
				"energy": -0.26877,
				"method": "rhf"
			},
			{
				"type": "occ",
				"energy": -0.25813,
				"method": "rhf"
			},
			{
				"type": "occ",
				"energy": -0.23658,
				"method": "rhf"
			},
			{
				"type": "unocc",
				"energy": -0.06411,
				"method": "rhf"
			},
			{
				"type": "unocc",
				"energy": -0.04554,
				"method": "rhf"
			},
			{
				"type": "unocc",
				"energy": -0.017,
				"method": "rhf"
			},
			{
				"type": "unocc",
				"energy": -0.0023,
				"method": "rhf"
			},
			{
				"type": "unocc",
				"energy": 0.04099,
				"method": "rhf"
			}
		],
		"cosmo_sigma_profile": { 
			"-0.025": 0.0,
			"-0.024": 0.0,
			"-0.023": 0.0,
			"-0.022": 0.0,
			"-0.021": 0.0,
			"-0.02": 0.0,
			"-0.019": 0.0,
			"-0.018": 0.0,
			"-0.017": 0.0,
			"-0.016": 0.0,
			"-0.015": 0.10476415871,
			"-0.014": 0.794135679972,
			"-0.013": 1.19545921229,
			"-0.012": 1.3652789473,
			"-0.011": 0.835368394914,
			"-0.01": 1.28264179998,
			"-0.009": 2.63921624538,
			"-0.008": 5.92196428714,
			"-0.007": 12.8004509115,
			"-0.006": 17.1972217159,
			"-0.005": 15.6942249452,
			"-0.004": 15.023919249,
			"-0.003": 10.9168079014,
			"-0.002": 16.4606223727,
			"-0.001": 15.0384074972,
			"0.0": 18.8751744417,
			"0.001": 21.070321042,
			"0.002": 17.2407197179,
			"0.003": 15.8443838433,
			"0.004": 19.8699984775,
			"0.005": 7.5700525831,
			"0.006": 3.44706837611,
			"0.007": 2.91509710144,
			"0.008": 3.80173942841,
			"0.009": 3.75394407491,
			"0.01": 5.72751598483,
			"0.011": 6.33498678174,
			"0.012": 4.78992387147,
			"0.013": 2.41050606944,
			"0.014": 0.248716402506,
			"0.015": 0.0,
			"0.016": 0.0,
			"0.017": 0.0,
			"0.018": 0.0,
			"0.019": 0.0,
			"0.02": 0.0,
			"0.021": 0.0,
			"0.022": 0.0,
			"0.023": 0.0,
			"0.024": 0.0,
			"0.025": 0.0
		}
	}
}
