{
	 "smiles": "CCCCCCOC(=O)C1=CC=C(N)C=C1", 
	 "Tm": 333.15, 
	 "num_atms": 35, 
	 "gaussian": { 
		 "optdone": 1, 
		 "sigma_profile": "yes", 
		 "theory": "DFT", 
		 "functional": "B3LYP", 
		 "basiset": "6-31G**", 
		 "properties": { 
			 "R2extent": 7252.4451, 
			 "electric_dipole_moment_norm": 3.60110944849, 
			 "electric_quadrupole_moment_norm": 28.2150349197, 
			 "total_energy": -712.073853155, 
			 "HOMO_LUMO_gap": 0.18447, 
			 "cosmo_polarized_energy": -12.99, 
			 "cosmo_cavitation_energy": 37.8, 
			 "cosmo_dispersion_energy": -26.67, 
			 "cosmo_repulsion_energy": 2.13, 
			 "cosmo_total_nonelectrostatic_energy": 13.25, 
			 "SMD_solvation_energy": 6.8 
		},
		"coords": [
			{
				"x": 2.9286056065,
				"y": 0.624636092,
				"z": -3.9749984216,
				"element": "C" 
			},
			{
				"x": 1.5625779805,
				"y": -0.0562244334,
				"z": -4.1212506671,
				"element": "C" 
			},
			{
				"x": 0.462053752,
				"y": 0.5290315607,
				"z": -3.2183458447,
				"element": "C" 
			},
			{
				"x": 0.6946716688,
				"y": 0.400182978,
				"z": -1.7030935385,
				"element": "C" 
			},
			{
				"x": 0.7456922321,
				"y": -1.0471228865,
				"z": -1.195082712,
				"element": "C" 
			},
			{
				"x": 0.8736140905,
				"y": -1.1617864702,
				"z": 0.3219031191,
				"element": "C" 
			},
			{
				"x": -0.2353653857,
				"y": -0.5399962821,
				"z": 1.0088449624,
				"element": "O" 
			},
			{
				"x": -1.3392141437,
				"y": -1.3105684586,
				"z": 1.1971540296,
				"element": "C" 
			},
			{
				"x": -1.4159381402,
				"y": -2.4672960095,
				"z": 0.8208479894,
				"element": "O" 
			},
			{
				"x": -2.41742401,
				"y": -0.5866256271,
				"z": 1.9078131981,
				"element": "C" 
			},
			{
				"x": -2.2931072671,
				"y": 0.7452437616,
				"z": 2.3337172281,
				"element": "C" 
			},
			{
				"x": -3.3361139136,
				"y": 1.3784965524,
				"z": 2.9945776039,
				"element": "C" 
			},
			{
				"x": -4.5413432504,
				"y": 0.695586675,
				"z": 3.252430787,
				"element": "C" 
			},
			{
				"x": -5.5653549327,
				"y": 1.3096087427,
				"z": 3.9565280203,
				"element": "N" 
			},
			{
				"x": -4.6643770553,
				"y": -0.6419032291,
				"z": 2.8250207273,
				"element": "C" 
			},
			{
				"x": -3.6179572492,
				"y": -1.2669598719,
				"z": 2.1651620174,
				"element": "C" 
			},
			{
				"x": 3.653889119,
				"y": 0.2098415956,
				"z": -4.6828323409,
				"element": "H" 
			},
			{
				"x": 3.344492664,
				"y": 0.4979239013,
				"z": -2.9698196201,
				"element": "H" 
			},
			{
				"x": 2.8554200295,
				"y": 1.7015830256,
				"z": -4.1672763318,
				"element": "H" 
			},
			{
				"x": 1.6681102444,
				"y": -1.1322417388,
				"z": -3.9319300606,
				"element": "H" 
			},
			{
				"x": 1.2321475299,
				"y": 0.0297277253,
				"z": -5.1643343414,
				"element": "H" 
			},
			{
				"x": -0.4925244807,
				"y": 0.0463782303,
				"z": -3.4686382747,
				"element": "H" 
			},
			{
				"x": 0.3369973441,
				"y": 1.5927496722,
				"z": -3.4635161788,
				"element": "H" 
			},
			{
				"x": -0.1133586135,
				"y": 0.9248760222,
				"z": -1.1801340279,
				"element": "H" 
			},
			{
				"x": 1.6215480754,
				"y": 0.9175251814,
				"z": -1.4195441661,
				"element": "H" 
			},
			{
				"x": -0.1513027174,
				"y": -1.593264799,
				"z": -1.5102549307,
				"element": "H" 
			},
			{
				"x": 1.6020638312,
				"y": -1.5780492753,
				"z": -1.6312693409,
				"element": "H" 
			},
			{
				"x": 0.9332684921,
				"y": -2.2091945528,
				"z": 0.6265424596,
				"element": "H" 
			},
			{
				"x": 1.7546834597,
				"y": -0.6244128963,
				"z": 0.685607149,
				"element": "H" 
			},
			{
				"x": -1.3711185536,
				"y": 1.2817578203,
				"z": 2.1403809338,
				"element": "H" 
			},
			{
				"x": -3.2259986099,
				"y": 2.4092490456,
				"z": 3.3223340016,
				"element": "H" 
			},
			{
				"x": -5.5644772668,
				"y": 2.3191145273,
				"z": 3.9658065594,
				"element": "H" 
			},
			{
				"x": -6.4872691203,
				"y": 0.9123621077,
				"z": 3.8492347138,
				"element": "H" 
			},
			{
				"x": -5.5871330896,
				"y": -1.1826350108,
				"z": 3.0201616753,
				"element": "H" 
			},
			{
				"x": -3.7089583201,
				"y": -2.2957936754,
				"z": 1.8329536227,
				"element": "H" 
			}
		],
		 "valence_orbital": [ 
			{
				"type": "occ",
				"energy": -0.30489,
				"method": "rhf"
			},
			{
				"type": "occ",
				"energy": -0.28307,
				"method": "rhf"
			},
			{
				"type": "occ",
				"energy": -0.25922,
				"method": "rhf"
			},
			{
				"type": "occ",
				"energy": -0.25237,
				"method": "rhf"
			},
			{
				"type": "occ",
				"energy": -0.20996,
				"method": "rhf"
			},
			{
				"type": "unocc",
				"energy": -0.02549,
				"method": "rhf"
			},
			{
				"type": "unocc",
				"energy": -0.0003,
				"method": "rhf"
			},
			{
				"type": "unocc",
				"energy": 0.06732,
				"method": "rhf"
			},
			{
				"type": "unocc",
				"energy": 0.08087,
				"method": "rhf"
			},
			{
				"type": "unocc",
				"energy": 0.08675,
				"method": "rhf"
			}
		],
		"cosmo_sigma_profile": { 
			"-0.025": 0.0,
			"-0.024": 0.0,
			"-0.023": 0.0,
			"-0.022": 0.0,
			"-0.021": 0.0,
			"-0.02": 0.0,
			"-0.019": 0.0,
			"-0.018": 0.0,
			"-0.017": 0.0,
			"-0.016": 0.0,
			"-0.015": 0.0,
			"-0.014": 0.0879481636527,
			"-0.013": 2.10058365975,
			"-0.012": 3.05842569968,
			"-0.011": 2.25461533963,
			"-0.01": 4.08309323073,
			"-0.009": 3.05537999496,
			"-0.008": 2.68899649845,
			"-0.007": 2.85904049499,
			"-0.006": 5.61750928007,
			"-0.005": 8.81886662386,
			"-0.004": 12.8000701072,
			"-0.003": 19.977231702,
			"-0.002": 32.4575518011,
			"-0.001": 33.3451557267,
			"0.0": 37.7372909567,
			"0.001": 33.7232934398,
			"0.002": 22.1906600098,
			"0.003": 13.5349790961,
			"0.004": 14.524283401,
			"0.005": 15.5321432414,
			"0.006": 5.36066006088,
			"0.007": 3.73103654551,
			"0.008": 1.91679395147,
			"0.009": 2.13576113475,
			"0.01": 2.27801258191,
			"0.011": 2.69217544275,
			"0.012": 3.84982550998,
			"0.013": 3.20618565303,
			"0.014": 0.0,
			"0.015": 0.0,
			"0.016": 0.0,
			"0.017": 0.0,
			"0.018": 0.0,
			"0.019": 0.0,
			"0.02": 0.0,
			"0.021": 0.0,
			"0.022": 0.0,
			"0.023": 0.0,
			"0.024": 0.0,
			"0.025": 0.0
		}
	}
}
