{
	 "smiles": "COC(=O)C1=CC2=C(N=C1)N(C)N=C2C", 
	 "Tm": 403.15, 
	 "num_atms": 26, 
	 "gaussian": { 
		 "optdone": 1, 
		 "sigma_profile": "yes", 
		 "theory": "DFT", 
		 "functional": "B3LYP", 
		 "basiset": "6-31G**", 
		 "properties": { 
			 "R2extent": 4374.6615, 
			 "electric_dipole_moment_norm": 0.936027355369, 
			 "electric_quadrupole_moment_norm": 7.26075436646, 
			 "total_energy": -702.404431632, 
			 "HOMO_LUMO_gap": 0.17749, 
			 "cosmo_polarized_energy": -10.09, 
			 "cosmo_cavitation_energy": 30.71, 
			 "cosmo_dispersion_energy": -22.45, 
			 "cosmo_repulsion_energy": 1.76, 
			 "cosmo_total_nonelectrostatic_energy": 10.02, 
			 "SMD_solvation_energy": 4.71 
		},
		"coords": [
			{
				"x": 1.1858296155,
				"y": -3.4379031829,
				"z": 4.6026773697,
				"element": "C" 
			},
			{
				"x": 0.4698843909,
				"y": -2.5133321204,
				"z": 3.7696429123,
				"element": "O" 
			},
			{
				"x": 1.1962124184,
				"y": -1.9520745458,
				"z": 2.7747395139,
				"element": "C" 
			},
			{
				"x": 2.3719113189,
				"y": -2.2036352331,
				"z": 2.5879614799,
				"element": "O" 
			},
			{
				"x": 0.3992532028,
				"y": -1.0078123112,
				"z": 1.9517093711,
				"element": "C" 
			},
			{
				"x": 1.0374231108,
				"y": -0.3624499551,
				"z": 0.8902152546,
				"element": "C" 
			},
			{
				"x": 0.2753693136,
				"y": 0.5212635392,
				"z": 0.1268530443,
				"element": "C" 
			},
			{
				"x": -1.0872391735,
				"y": 0.6904888249,
				"z": 0.4939989713,
				"element": "C" 
			},
			{
				"x": -1.7292980334,
				"y": 0.0877183089,
				"z": 1.5048689688,
				"element": "N" 
			},
			{
				"x": -0.9732381098,
				"y": -0.7473779328,
				"z": 2.2110541347,
				"element": "C" 
			},
			{
				"x": -1.6150728004,
				"y": 1.5859573969,
				"z": -0.3826559655,
				"element": "N" 
			},
			{
				"x": -2.9715829262,
				"y": 2.0902123184,
				"z": -0.4293736643,
				"element": "C" 
			},
			{
				"x": -0.6810464549,
				"y": 2.0036847041,
				"z": -1.2895481413,
				"element": "N" 
			},
			{
				"x": 0.4531907062,
				"y": 1.3829515588,
				"z": -1.0060402029,
				"element": "C" 
			},
			{
				"x": 1.6875849293,
				"y": 1.6192348752,
				"z": -1.8168680587,
				"element": "C" 
			},
			{
				"x": 2.0258133545,
				"y": -2.9418552576,
				"z": 5.0954181345,
				"element": "H" 
			},
			{
				"x": 0.4633794714,
				"y": -3.7901071577,
				"z": 5.3388566564,
				"element": "H" 
			},
			{
				"x": 1.5692914249,
				"y": -4.2727140559,
				"z": 4.0106708502,
				"element": "H" 
			},
			{
				"x": 2.0860870901,
				"y": -0.565908662,
				"z": 0.6975473603,
				"element": "H" 
			},
			{
				"x": -1.4578328355,
				"y": -1.2555137019,
				"z": 3.0393428953,
				"element": "H" 
			},
			{
				"x": -3.5266414714,
				"y": 1.6193622723,
				"z": 0.3827515222,
				"element": "H" 
			},
			{
				"x": -3.4361425453,
				"y": 1.8418867851,
				"z": -1.3876820763,
				"element": "H" 
			},
			{
				"x": -2.9775971508,
				"y": 3.1761418843,
				"z": -0.3007061307,
				"element": "H" 
			},
			{
				"x": 1.475374305,
				"y": 2.3386849283,
				"z": -2.6103165452,
				"element": "H" 
			},
			{
				"x": 2.0470439578,
				"y": 0.6910606158,
				"z": -2.2754973098,
				"element": "H" 
			},
			{
				"x": 2.5016428909,
				"y": 2.0134361044,
				"z": -1.1980203447,
				"element": "H" 
			}
		],
		 "valence_orbital": [ 
			{
				"type": "occ",
				"energy": -0.29878,
				"method": "rhf"
			},
			{
				"type": "occ",
				"energy": -0.28056,
				"method": "rhf"
			},
			{
				"type": "occ",
				"energy": -0.26719,
				"method": "rhf"
			},
			{
				"type": "occ",
				"energy": -0.25447,
				"method": "rhf"
			},
			{
				"type": "occ",
				"energy": -0.23109,
				"method": "rhf"
			},
			{
				"type": "unocc",
				"energy": -0.0536,
				"method": "rhf"
			},
			{
				"type": "unocc",
				"energy": -0.03085,
				"method": "rhf"
			},
			{
				"type": "unocc",
				"energy": 0.03934,
				"method": "rhf"
			},
			{
				"type": "unocc",
				"energy": 0.06871,
				"method": "rhf"
			},
			{
				"type": "unocc",
				"energy": 0.10466,
				"method": "rhf"
			}
		],
		"cosmo_sigma_profile": { 
			"-0.025": 0.0,
			"-0.024": 0.0,
			"-0.023": 0.0,
			"-0.022": 0.0,
			"-0.021": 0.0,
			"-0.02": 0.0,
			"-0.019": 0.0,
			"-0.018": 0.0,
			"-0.017": 0.0,
			"-0.016": 0.0,
			"-0.015": 0.0,
			"-0.014": 0.0,
			"-0.013": 0.0,
			"-0.012": 0.0,
			"-0.011": 0.0,
			"-0.01": 0.0,
			"-0.009": 0.0,
			"-0.008": 0.0916275985799,
			"-0.007": 2.14401872005,
			"-0.006": 12.8209902928,
			"-0.005": 20.4954254064,
			"-0.004": 23.1361450868,
			"-0.003": 28.8029069113,
			"-0.002": 21.2645844561,
			"-0.001": 26.0475988322,
			"0.0": 26.7654752923,
			"0.001": 18.2289971498,
			"0.002": 9.72230892637,
			"0.003": 9.23914527748,
			"0.004": 6.08418856695,
			"0.005": 6.28738937729,
			"0.006": 5.47239136569,
			"0.007": 4.1682258751,
			"0.008": 3.92812043779,
			"0.009": 2.67418602494,
			"0.01": 3.6745261466,
			"0.011": 5.7194045995,
			"0.012": 5.71091626645,
			"0.013": 1.50565106204,
			"0.014": 0.701964914045,
			"0.015": 0.451625230439,
			"0.016": 0.0,
			"0.017": 0.0,
			"0.018": 0.0,
			"0.019": 0.0,
			"0.02": 0.0,
			"0.021": 0.0,
			"0.022": 0.0,
			"0.023": 0.0,
			"0.024": 0.0,
			"0.025": 0.0
		}
	}
}
