{
	 "smiles": "CC1=C2CCCC2=C(O)C(Br)=C1", 
	 "Tm": 334.15, 
	 "num_atms": 23, 
	 "gaussian": { 
		 "optdone": 1, 
		 "sigma_profile": "yes", 
		 "theory": "DFT", 
		 "functional": "B3LYP", 
		 "basiset": "6-31G**", 
		 "properties": { 
			 "R2extent": 4006.6499, 
			 "electric_dipole_moment_norm": 1.49741544336, 
			 "electric_quadrupole_moment_norm": 3.76483502162, 
			 "total_energy": -3034.34039916, 
			 "HOMO_LUMO_gap": 0.21264, 
			 "cosmo_polarized_energy": -5.17, 
			 "cosmo_cavitation_energy": 27.32, 
			 "cosmo_dispersion_energy": -20.84, 
			 "cosmo_repulsion_energy": 1.67, 
			 "cosmo_total_nonelectrostatic_energy": 8.15, 
			 "SMD_solvation_energy": 3.18 
		},
		"coords": [
			{
				"x": -1.0114057527,
				"y": 2.4522069066,
				"z": 1.0791165311,
				"element": "C" 
			},
			{
				"x": -0.9642259967,
				"y": 0.9772110564,
				"z": 0.7614084639,
				"element": "C" 
			},
			{
				"x": -1.1733684209,
				"y": 0.4960350988,
				"z": -0.5401676024,
				"element": "C" 
			},
			{
				"x": -1.4479772166,
				"y": 1.2908286502,
				"z": -1.8009230913,
				"element": "C" 
			},
			{
				"x": -1.9530114253,
				"y": 0.2194560363,
				"z": -2.8013985574,
				"element": "C" 
			},
			{
				"x": -1.3532565556,
				"y": -1.123011746,
				"z": -2.3098971635,
				"element": "C" 
			},
			{
				"x": -1.1203821206,
				"y": -0.8665171801,
				"z": -0.8392479174,
				"element": "C" 
			},
			{
				"x": -0.85447858,
				"y": -1.8118565521,
				"z": 0.1557528165,
				"element": "C" 
			},
			{
				"x": -0.8049631812,
				"y": -3.1252603394,
				"z": -0.1868404133,
				"element": "O" 
			},
			{
				"x": -0.6580264516,
				"y": -1.3302724663,
				"z": 1.4567308968,
				"element": "C" 
			},
			{
				"x": -0.309611654,
				"y": -2.6063828554,
				"z": 2.8517836698,
				"element": "Br" 
			},
			{
				"x": -0.7097722315,
				"y": 0.0300245739,
				"z": 1.7591741177,
				"element": "C" 
			},
			{
				"x": -1.9827983191,
				"y": 2.8900225272,
				"z": 0.8191625586,
				"element": "H" 
			},
			{
				"x": -0.2516099962,
				"y": 3.0096773052,
				"z": 0.518045076,
				"element": "H" 
			},
			{
				"x": -0.8388083634,
				"y": 2.6349384609,
				"z": 2.143212437,
				"element": "H" 
			},
			{
				"x": -2.171500735,
				"y": 2.0997844106,
				"z": -1.6507171833,
				"element": "H" 
			},
			{
				"x": -0.5221923997,
				"y": 1.7651418011,
				"z": -2.1584724132,
				"element": "H" 
			},
			{
				"x": -3.0459510123,
				"y": 0.1658496572,
				"z": -2.7480801272,
				"element": "H" 
			},
			{
				"x": -1.688514454,
				"y": 0.4485068164,
				"z": -3.8374310904,
				"element": "H" 
			},
			{
				"x": -0.4019605773,
				"y": -1.3476353255,
				"z": -2.8123230494,
				"element": "H" 
			},
			{
				"x": -2.010695736,
				"y": -1.9784248892,
				"z": -2.4933763058,
				"element": "H" 
			},
			{
				"x": -0.6242935088,
				"y": -3.6432983708,
				"z": 0.6142844754,
				"element": "H" 
			},
			{
				"x": -0.5503953116,
				"y": 0.3483764239,
				"z": 2.7841038716,
				"element": "H" 
			}
		],
		 "valence_orbital": [ 
			{
				"type": "occ",
				"energy": -0.33533,
				"method": "rhf"
			},
			{
				"type": "occ",
				"energy": -0.29834,
				"method": "rhf"
			},
			{
				"type": "occ",
				"energy": -0.29702,
				"method": "rhf"
			},
			{
				"type": "occ",
				"energy": -0.23184,
				"method": "rhf"
			},
			{
				"type": "occ",
				"energy": -0.21511,
				"method": "rhf"
			},
			{
				"type": "unocc",
				"energy": -0.00247,
				"method": "rhf"
			},
			{
				"type": "unocc",
				"energy": 0.00367,
				"method": "rhf"
			},
			{
				"type": "unocc",
				"energy": 0.00801,
				"method": "rhf"
			},
			{
				"type": "unocc",
				"energy": 0.08923,
				"method": "rhf"
			},
			{
				"type": "unocc",
				"energy": 0.09546,
				"method": "rhf"
			}
		],
		"cosmo_sigma_profile": { 
			"-0.025": 0.0,
			"-0.024": 0.0,
			"-0.023": 0.0,
			"-0.022": 0.0,
			"-0.021": 0.0,
			"-0.02": 0.0,
			"-0.019": 0.0,
			"-0.018": 0.0,
			"-0.017": 0.0,
			"-0.016": 0.0,
			"-0.015": 0.0,
			"-0.014": 0.209300527348,
			"-0.013": 0.695679167073,
			"-0.012": 0.723269614833,
			"-0.011": 0.302566117873,
			"-0.01": 0.995422306861,
			"-0.009": 1.05032346982,
			"-0.008": 0.702529543636,
			"-0.007": 1.01015344979,
			"-0.006": 2.77656263466,
			"-0.005": 4.50028163458,
			"-0.004": 12.3816624876,
			"-0.003": 23.6460650124,
			"-0.002": 26.4845745576,
			"-0.001": 29.2391089834,
			"0.0": 26.5479978073,
			"0.001": 19.3145061426,
			"0.002": 14.6210499192,
			"0.003": 16.7496733337,
			"0.004": 17.1490407706,
			"0.005": 9.87521899754,
			"0.006": 2.51132959867,
			"0.007": 1.12508675561,
			"0.008": 1.57612763363,
			"0.009": 1.79916996677,
			"0.01": 1.98637768128,
			"0.011": 0.670027428632,
			"0.012": 0.0,
			"0.013": 0.0,
			"0.014": 0.0,
			"0.015": 0.0,
			"0.016": 0.0,
			"0.017": 0.0,
			"0.018": 0.0,
			"0.019": 0.0,
			"0.02": 0.0,
			"0.021": 0.0,
			"0.022": 0.0,
			"0.023": 0.0,
			"0.024": 0.0,
			"0.025": 0.0
		}
	}
}
