{
	 "smiles": "CCCCCCCCCCC1=C(SC(=C1)C1=NC2=C(C=CC=C2)C(=C1)C1=CC=CC=C1)C1=C(CCCCCCCCCC)C=C(S1)C1=NC2=C(C=CC=C2)C(=C1)C1=CC=CC=C1", 
	 "Tm": 295.0, 
	 "num_atms": 126, 
	 "gaussian": { 
		 "optdone": 1, 
		 "sigma_profile": "yes", 
		 "theory": "DFT", 
		 "functional": "B3LYP", 
		 "basiset": "6-31G**", 
		 "properties": { 
			 "R2extent": 72659.2957, 
			 "electric_dipole_moment_norm": 2.15154092222, 
			 "electric_quadrupole_moment_norm": 23.5931406828, 
			 "total_energy": -3154.72246861, 
			 "HOMO_LUMO_gap": 0.13678, 
			 "cosmo_polarized_energy": -16.25, 
			 "cosmo_cavitation_energy": 127.86, 
			 "cosmo_dispersion_energy": -79.11, 
			 "cosmo_repulsion_energy": 6.13, 
			 "cosmo_total_nonelectrostatic_energy": 54.88, 
			 "SMD_solvation_energy": 14.14 
		},
		"coords": [
			{
				"x": -0.6263308157,
				"y": -8.3733843809,
				"z": -2.0234048331,
				"element": "C" 
			},
			{
				"x": -2.0688774491,
				"y": -7.8893413201,
				"z": -2.2019318305,
				"element": "C" 
			},
			{
				"x": -2.7444068858,
				"y": -7.4947876401,
				"z": -0.8819409242,
				"element": "C" 
			},
			{
				"x": -4.1888990961,
				"y": -7.0081535183,
				"z": -1.0616284716,
				"element": "C" 
			},
			{
				"x": -4.929102349,
				"y": -6.692436941,
				"z": 0.2504292203,
				"element": "C" 
			},
			{
				"x": -4.3462830472,
				"y": -5.5467186732,
				"z": 1.0969323233,
				"element": "C" 
			},
			{
				"x": -4.3764004383,
				"y": -4.1697173134,
				"z": 0.4192895174,
				"element": "C" 
			},
			{
				"x": -3.8701644495,
				"y": -3.0397134563,
				"z": 1.3260127872,
				"element": "C" 
			},
			{
				"x": -3.9045885206,
				"y": -1.6643460528,
				"z": 0.6491516212,
				"element": "C" 
			},
			{
				"x": -3.4383227995,
				"y": -0.4893543431,
				"z": 1.5395971763,
				"element": "C" 
			},
			{
				"x": -1.9789101379,
				"y": -0.5437565715,
				"z": 1.9284985718,
				"element": "C" 
			},
			{
				"x": -0.9539296835,
				"y": 0.0180304514,
				"z": 1.1860330448,
				"element": "C" 
			},
			{
				"x": 0.6072527031,
				"y": -0.3084020032,
				"z": 1.9157298231,
				"element": "S" 
			},
			{
				"x": -0.1245528863,
				"y": -1.1959142535,
				"z": 3.22964405,
				"element": "C" 
			},
			{
				"x": -1.4925708212,
				"y": -1.2196658947,
				"z": 3.0852920623,
				"element": "C" 
			},
			{
				"x": 0.6540663042,
				"y": -1.8112997958,
				"z": 4.3124875957,
				"element": "C" 
			},
			{
				"x": -0.0399064668,
				"y": -2.4405713803,
				"z": 5.2516876205,
				"element": "N" 
			},
			{
				"x": 0.6374022624,
				"y": -3.036447721,
				"z": 6.2685139539,
				"element": "C" 
			},
			{
				"x": 2.0674338749,
				"y": -3.0111929098,
				"z": 6.38520296,
				"element": "C" 
			},
			{
				"x": 2.6747292044,
				"y": -3.7165861427,
				"z": 7.4578812799,
				"element": "C" 
			},
			{
				"x": 1.9076514407,
				"y": -4.3835773537,
				"z": 8.3889311096,
				"element": "C" 
			},
			{
				"x": 0.495672312,
				"y": -4.380583732,
				"z": 8.2905640583,
				"element": "C" 
			},
			{
				"x": -0.1244373914,
				"y": -3.7258036536,
				"z": 7.2516205928,
				"element": "C" 
			},
			{
				"x": 2.7936835738,
				"y": -2.2950445604,
				"z": 5.3762036116,
				"element": "C" 
			},
			{
				"x": 2.0743397177,
				"y": -1.7193201898,
				"z": 4.3489742161,
				"element": "C" 
			},
			{
				"x": 4.2754151453,
				"y": -2.1516043524,
				"z": 5.3998247225,
				"element": "C" 
			},
			{
				"x": 5.0347641667,
				"y": -2.5026006812,
				"z": 4.2719526068,
				"element": "C" 
			},
			{
				"x": 6.4193723006,
				"y": -2.3345117325,
				"z": 4.2638692988,
				"element": "C" 
			},
			{
				"x": 7.0684900053,
				"y": -1.8060760812,
				"z": 5.3809417214,
				"element": "C" 
			},
			{
				"x": 6.3238669345,
				"y": -1.4464832866,
				"z": 6.5061286372,
				"element": "C" 
			},
			{
				"x": 4.9399951297,
				"y": -1.6190953674,
				"z": 6.5175012701,
				"element": "C" 
			},
			{
				"x": -1.0397870345,
				"y": 0.8058275353,
				"z": -0.0469614001,
				"element": "C" 
			},
			{
				"x": -1.4527114357,
				"y": 2.1173744944,
				"z": -0.210125004,
				"element": "C" 
			},
			{
				"x": -1.85112934,
				"y": 3.0305910551,
				"z": 0.9261970828,
				"element": "C" 
			},
			{
				"x": -0.6844554913,
				"y": 3.8488494889,
				"z": 1.5264049025,
				"element": "C" 
			},
			{
				"x": -0.059348701,
				"y": 4.8756681423,
				"z": 0.5743773557,
				"element": "C" 
			},
			{
				"x": 1.039568755,
				"y": 5.7144665898,
				"z": 1.2463390845,
				"element": "C" 
			},
			{
				"x": 1.6981919582,
				"y": 6.7832020038,
				"z": 0.345661084,
				"element": "C" 
			},
			{
				"x": 2.9564904234,
				"y": 6.340780058,
				"z": -0.4240478002,
				"element": "C" 
			},
			{
				"x": 2.7480567152,
				"y": 5.2459616984,
				"z": -1.4808766677,
				"element": "C" 
			},
			{
				"x": 3.9774688354,
				"y": 4.9921511681,
				"z": -2.3720999506,
				"element": "C" 
			},
			{
				"x": 5.236415249,
				"y": 4.4769856499,
				"z": -1.6515971323,
				"element": "C" 
			},
			{
				"x": 5.0637477275,
				"y": 3.1106464195,
				"z": -0.9776736404,
				"element": "C" 
			},
			{
				"x": -1.4180727782,
				"y": 2.5225822351,
				"z": -1.5762474988,
				"element": "C" 
			},
			{
				"x": -0.9747638946,
				"y": 1.5561784544,
				"z": -2.4492923067,
				"element": "C" 
			},
			{
				"x": -0.5949139666,
				"y": 0.0874440363,
				"z": -1.5841376314,
				"element": "S" 
			},
			{
				"x": -0.8324874914,
				"y": 1.6880795385,
				"z": -3.9052144717,
				"element": "C" 
			},
			{
				"x": -1.1936862896,
				"y": 2.8523322655,
				"z": -4.4284463663,
				"element": "N" 
			},
			{
				"x": -1.0914705891,
				"y": 3.0181473339,
				"z": -5.7737272715,
				"element": "C" 
			},
			{
				"x": -0.6021151595,
				"y": 2.00027097,
				"z": -6.6590035179,
				"element": "C" 
			},
			{
				"x": -0.5927705322,
				"y": 2.2603824807,
				"z": -8.0551719218,
				"element": "C" 
			},
			{
				"x": -1.0113541241,
				"y": 3.4769753834,
				"z": -8.5499746844,
				"element": "C" 
			},
			{
				"x": -1.4631675127,
				"y": 4.4916684068,
				"z": -7.6726953377,
				"element": "C" 
			},
			{
				"x": -1.5063582481,
				"y": 4.2653395257,
				"z": -6.316382465,
				"element": "C" 
			},
			{
				"x": -0.1838364891,
				"y": 0.7628422861,
				"z": -6.0654975041,
				"element": "C" 
			},
			{
				"x": -0.319666202,
				"y": 0.6234863814,
				"z": -4.699382398,
				"element": "C" 
			},
			{
				"x": 0.3866880074,
				"y": -0.3589438997,
				"z": -6.8609509975,
				"element": "C" 
			},
			{
				"x": -0.1546263427,
				"y": -1.6496219381,
				"z": -6.746795572,
				"element": "C" 
			},
			{
				"x": 0.3951862254,
				"y": -2.718769779,
				"z": -7.4539814419,
				"element": "C" 
			},
			{
				"x": 1.5003689333,
				"y": -2.517621635,
				"z": -8.2825694894,
				"element": "C" 
			},
			{
				"x": 2.0523987626,
				"y": -1.240316047,
				"z": -8.3991034742,
				"element": "C" 
			},
			{
				"x": 1.5001901108,
				"y": -0.169414465,
				"z": -7.6967779163,
				"element": "C" 
			},
			{
				"x": -0.0004730379,
				"y": -7.5957296536,
				"z": -1.5707213349,
				"element": "H" 
			},
			{
				"x": -0.1732513547,
				"y": -8.6482498705,
				"z": -2.981776599,
				"element": "H" 
			},
			{
				"x": -0.5815242996,
				"y": -9.2526736414,
				"z": -1.3704899509,
				"element": "H" 
			},
			{
				"x": -2.6613898302,
				"y": -8.6751061598,
				"z": -2.6904681607,
				"element": "H" 
			},
			{
				"x": -2.0844467717,
				"y": -7.0299856869,
				"z": -2.886429307,
				"element": "H" 
			},
			{
				"x": -2.1430380088,
				"y": -6.7159372608,
				"z": -0.3941047149,
				"element": "H" 
			},
			{
				"x": -2.7345536025,
				"y": -8.3566303236,
				"z": -0.1985586424,
				"element": "H" 
			},
			{
				"x": -4.195123926,
				"y": -6.126522092,
				"z": -1.7166454979,
				"element": "H" 
			},
			{
				"x": -4.7561639333,
				"y": -7.780513505,
				"z": -1.5990994246,
				"element": "H" 
			},
			{
				"x": -4.9564791635,
				"y": -7.6029189284,
				"z": 0.8648348513,
				"element": "H" 
			},
			{
				"x": -5.9759453194,
				"y": -6.4565520146,
				"z": 0.0142109286,
				"element": "H" 
			},
			{
				"x": -3.314799797,
				"y": -5.7836601257,
				"z": 1.3896721129,
				"element": "H" 
			},
			{
				"x": -4.914509743,
				"y": -5.4894269296,
				"z": 2.0354276494,
				"element": "H" 
			},
			{
				"x": -5.4044090231,
				"y": -3.9469586374,
				"z": 0.0976792553,
				"element": "H" 
			},
			{
				"x": -3.7705921815,
				"y": -4.1885790158,
				"z": -0.4965080325,
				"element": "H" 
			},
			{
				"x": -4.4792465629,
				"y": -3.009347146,
				"z": 2.2415011841,
				"element": "H" 
			},
			{
				"x": -2.8464015117,
				"y": -3.2675709308,
				"z": 1.6494980512,
				"element": "H" 
			},
			{
				"x": -3.2892000951,
				"y": -1.6852508742,
				"z": -0.259495141,
				"element": "H" 
			},
			{
				"x": -4.9309409288,
				"y": -1.4519831311,
				"z": 0.3204559754,
				"element": "H" 
			},
			{
				"x": -4.0491178271,
				"y": -0.4649161475,
				"z": 2.4509621296,
				"element": "H" 
			},
			{
				"x": -3.6345018582,
				"y": 0.4446549251,
				"z": 1.0038534338,
				"element": "H" 
			},
			{
				"x": -2.1249498112,
				"y": -1.7207908983,
				"z": 3.8078650593,
				"element": "H" 
			},
			{
				"x": 3.7561791388,
				"y": -3.737601517,
				"z": 7.5320511934,
				"element": "H" 
			},
			{
				"x": 2.3895761391,
				"y": -4.9212964922,
				"z": 9.2002227566,
				"element": "H" 
			},
			{
				"x": -0.0964255948,
				"y": -4.9073552671,
				"z": 9.0334886604,
				"element": "H" 
			},
			{
				"x": -1.2036694911,
				"y": -3.718769871,
				"z": 7.1394937225,
				"element": "H" 
			},
			{
				"x": 2.6003618975,
				"y": -1.1637769907,
				"z": 3.5790738581,
				"element": "H" 
			},
			{
				"x": 4.5335029799,
				"y": -2.9228928384,
				"z": 3.4049227975,
				"element": "H" 
			},
			{
				"x": 6.9907217725,
				"y": -2.619055188,
				"z": 3.3849467975,
				"element": "H" 
			},
			{
				"x": 8.1464770874,
				"y": -1.6735703655,
				"z": 5.3745000235,
				"element": "H" 
			},
			{
				"x": 6.8197966246,
				"y": -1.0243044471,
				"z": 7.3755149597,
				"element": "H" 
			},
			{
				"x": 4.3647899333,
				"y": -1.3204176764,
				"z": 7.3885473794,
				"element": "H" 
			},
			{
				"x": -2.2992205367,
				"y": 2.4348082662,
				"z": 1.7275358433,
				"element": "H" 
			},
			{
				"x": -2.6283857055,
				"y": 3.7200506241,
				"z": 0.5728390778,
				"element": "H" 
			},
			{
				"x": -1.0611790325,
				"y": 4.3687249639,
				"z": 2.4178656854,
				"element": "H" 
			},
			{
				"x": 0.0892298719,
				"y": 3.1551472397,
				"z": 1.8800895777,
				"element": "H" 
			},
			{
				"x": -0.844472266,
				"y": 5.5520012762,
				"z": 0.2051798544,
				"element": "H" 
			},
			{
				"x": 0.3392485233,
				"y": 4.3643753291,
				"z": -0.3081474658,
				"element": "H" 
			},
			{
				"x": 1.8159089648,
				"y": 5.047901809,
				"z": 1.6490546772,
				"element": "H" 
			},
			{
				"x": 0.5960151108,
				"y": 6.2115775392,
				"z": 2.1195788216,
				"element": "H" 
			},
			{
				"x": 0.9526639205,
				"y": 7.169708922,
				"z": -0.3639472929,
				"element": "H" 
			},
			{
				"x": 1.9832237587,
				"y": 7.6383596542,
				"z": 0.9714954019,
				"element": "H" 
			},
			{
				"x": 3.7114236616,
				"y": 6.013739986,
				"z": 0.303983672,
				"element": "H" 
			},
			{
				"x": 3.3820196148,
				"y": 7.2253537127,
				"z": -0.9194874837,
				"element": "H" 
			},
			{
				"x": 1.9073109049,
				"y": 5.5303387425,
				"z": -2.1279895625,
				"element": "H" 
			},
			{
				"x": 2.4484628404,
				"y": 4.3091223494,
				"z": -0.99624607,
				"element": "H" 
			},
			{
				"x": 3.700771034,
				"y": 4.2702090889,
				"z": -3.1526690444,
				"element": "H" 
			},
			{
				"x": 4.2295382336,
				"y": 5.9244255734,
				"z": -2.8965473016,
				"element": "H" 
			},
			{
				"x": 5.5672378974,
				"y": 5.2122940296,
				"z": -0.9069614268,
				"element": "H" 
			},
			{
				"x": 6.0495221125,
				"y": 4.4115235119,
				"z": -2.3861989643,
				"element": "H" 
			},
			{
				"x": 4.3209976644,
				"y": 3.1417415915,
				"z": -0.1737099268,
				"element": "H" 
			},
			{
				"x": 6.0058528526,
				"y": 2.7654922214,
				"z": -0.5386340011,
				"element": "H" 
			},
			{
				"x": 4.7356830187,
				"y": 2.3529978206,
				"z": -1.6989967025,
				"element": "H" 
			},
			{
				"x": -1.7094015964,
				"y": 3.505087677,
				"z": -1.9268242984,
				"element": "H" 
			},
			{
				"x": -0.2633217305,
				"y": 1.4833809023,
				"z": -8.7357699613,
				"element": "H" 
			},
			{
				"x": -1.0012973276,
				"y": 3.6566328137,
				"z": -9.6210500497,
				"element": "H" 
			},
			{
				"x": -1.7865586736,
				"y": 5.4469380223,
				"z": -8.0762769436,
				"element": "H" 
			},
			{
				"x": -1.8630428988,
				"y": 5.0168049153,
				"z": -5.6196444882,
				"element": "H" 
			},
			{
				"x": 0.0018641439,
				"y": -0.2984197236,
				"z": -4.225261215,
				"element": "H" 
			},
			{
				"x": -1.0205920299,
				"y": -1.8070854521,
				"z": -6.1104294702,
				"element": "H" 
			},
			{
				"x": -0.0423038841,
				"y": -3.708469917,
				"z": -7.3590309064,
				"element": "H" 
			},
			{
				"x": 1.9297112946,
				"y": -3.3501473661,
				"z": -8.8323145315,
				"element": "H" 
			},
			{
				"x": 2.9191771752,
				"y": -1.0771883725,
				"z": -9.0332178681,
				"element": "H" 
			},
			{
				"x": 1.9452592645,
				"y": 0.8175759641,
				"z": -7.777728651,
				"element": "H" 
			}
		],
		 "valence_orbital": [ 
			{
				"type": "occ",
				"energy": -0.24157,
				"method": "rhf"
			},
			{
				"type": "occ",
				"energy": -0.22915,
				"method": "rhf"
			},
			{
				"type": "occ",
				"energy": -0.2271,
				"method": "rhf"
			},
			{
				"type": "occ",
				"energy": -0.21342,
				"method": "rhf"
			},
			{
				"type": "occ",
				"energy": -0.20145,
				"method": "rhf"
			},
			{
				"type": "unocc",
				"energy": -0.06467,
				"method": "rhf"
			},
			{
				"type": "unocc",
				"energy": -0.06114,
				"method": "rhf"
			},
			{
				"type": "unocc",
				"energy": -0.03748,
				"method": "rhf"
			},
			{
				"type": "unocc",
				"energy": -0.03311,
				"method": "rhf"
			},
			{
				"type": "unocc",
				"energy": -0.01049,
				"method": "rhf"
			}
		],
		"cosmo_sigma_profile": { 
			"-0.025": 0.0,
			"-0.024": 0.0,
			"-0.023": 0.0,
			"-0.022": 0.0,
			"-0.021": 0.0,
			"-0.02": 0.0,
			"-0.019": 0.0,
			"-0.018": 0.0,
			"-0.017": 0.0,
			"-0.016": 0.0,
			"-0.015": 0.0,
			"-0.014": 0.0,
			"-0.013": 0.0,
			"-0.012": 0.0,
			"-0.011": 0.0,
			"-0.01": 0.0,
			"-0.009": 0.0,
			"-0.008": 0.0,
			"-0.007": 0.75996822913,
			"-0.006": 24.3865732303,
			"-0.005": 41.5918947459,
			"-0.004": 52.6414681337,
			"-0.003": 53.7711523018,
			"-0.002": 96.9217531209,
			"-0.001": 154.59930184,
			"0.0": 167.538094959,
			"0.001": 153.248668374,
			"0.002": 96.6037844892,
			"0.003": 63.0506683826,
			"0.004": 53.2083289633,
			"0.005": 28.9102579683,
			"0.006": 6.58719838714,
			"0.007": 4.48142272796,
			"0.008": 2.9969076097,
			"0.009": 3.15036709057,
			"0.01": 3.65885187069,
			"0.011": 2.1045655742,
			"0.012": 0.048653142603,
			"0.013": 0.0,
			"0.014": 0.0,
			"0.015": 0.0,
			"0.016": 0.0,
			"0.017": 0.0,
			"0.018": 0.0,
			"0.019": 0.0,
			"0.02": 0.0,
			"0.021": 0.0,
			"0.022": 0.0,
			"0.023": 0.0,
			"0.024": 0.0,
			"0.025": 0.0
		}
	}
}
