{
	 "smiles": "CN1C2=C(C=CC=C2)N2C1=C(C#N)C1=NC=CC=C1C2=O", 
	 "Tm": 565.15, 
	 "num_atms": 31, 
	 "gaussian": { 
		 "optdone": 1, 
		 "sigma_profile": "yes", 
		 "theory": "DFT", 
		 "functional": "B3LYP", 
		 "basiset": "6-31G**", 
		 "properties": { 
			 "R2extent": 6595.1656, 
			 "electric_dipole_moment_norm": 4.22914034882, 
			 "electric_quadrupole_moment_norm": 30.9299046137, 
			 "total_energy": -909.975964288, 
			 "HOMO_LUMO_gap": 0.14163, 
			 "cosmo_polarized_energy": -18.07, 
			 "cosmo_cavitation_energy": 35.54, 
			 "cosmo_dispersion_energy": -25.85, 
			 "cosmo_repulsion_energy": 1.87, 
			 "cosmo_total_nonelectrostatic_energy": 11.56, 
			 "SMD_solvation_energy": 6.03 
		},
		"coords": [
			{
				"x": -1.6066701206,
				"y": -0.6365586493,
				"z": 1.4763661633,
				"element": "C" 
			},
			{
				"x": -0.3858620066,
				"y": -0.5852564278,
				"z": 0.6777013296,
				"element": "N" 
			},
			{
				"x": 0.9126292685,
				"y": -0.5348512353,
				"z": 1.1979920829,
				"element": "C" 
			},
			{
				"x": 1.8083834572,
				"y": -0.4961224609,
				"z": 0.1180841097,
				"element": "C" 
			},
			{
				"x": 3.1862898237,
				"y": -0.4415095088,
				"z": 0.3067285789,
				"element": "C" 
			},
			{
				"x": 3.644280738,
				"y": -0.4266986268,
				"z": 1.6271428085,
				"element": "C" 
			},
			{
				"x": 2.7542863683,
				"y": -0.4651912861,
				"z": 2.7079299638,
				"element": "C" 
			},
			{
				"x": 1.3717349797,
				"y": -0.519992996,
				"z": 2.512821853,
				"element": "C" 
			},
			{
				"x": 1.0214539796,
				"y": -0.524306605,
				"z": -1.0498326547,
				"element": "N" 
			},
			{
				"x": -0.3224418961,
				"y": -0.5787825328,
				"z": -0.6934873965,
				"element": "C" 
			},
			{
				"x": -1.3266119377,
				"y": -0.6159499909,
				"z": -1.6547524362,
				"element": "C" 
			},
			{
				"x": -2.7070799453,
				"y": -0.6716652932,
				"z": -1.320496798,
				"element": "C" 
			},
			{
				"x": -3.8337998834,
				"y": -0.7171056307,
				"z": -1.0261069411,
				"element": "N" 
			},
			{
				"x": -0.9247035679,
				"y": -0.596008004,
				"z": -3.0432599581,
				"element": "C" 
			},
			{
				"x": -1.8974101582,
				"y": -0.6318848399,
				"z": -3.9839566088,
				"element": "N" 
			},
			{
				"x": -1.5308870107,
				"y": -0.6136853078,
				"z": -5.2585637146,
				"element": "C" 
			},
			{
				"x": -0.1968204471,
				"y": -0.559480617,
				"z": -5.7036915405,
				"element": "C" 
			},
			{
				"x": 0.8030884483,
				"y": -0.5225379352,
				"z": -4.7495356464,
				"element": "C" 
			},
			{
				"x": 0.4500927328,
				"y": -0.5404724606,
				"z": -3.3905891101,
				"element": "C" 
			},
			{
				"x": 1.5043380188,
				"y": -0.501524241,
				"z": -2.3805019271,
				"element": "C" 
			},
			{
				"x": 2.7081896311,
				"y": -0.4527863617,
				"z": -2.6004083349,
				"element": "O" 
			},
			{
				"x": -1.3247549115,
				"y": -0.6291892324,
				"z": 2.5281969886,
				"element": "H" 
			},
			{
				"x": -2.2422047951,
				"y": 0.2268009286,
				"z": 1.2717746459,
				"element": "H" 
			},
			{
				"x": -2.1717671455,
				"y": -1.5461081651,
				"z": 1.2653763372,
				"element": "H" 
			},
			{
				"x": 3.8541969572,
				"y": -0.4125032948,
				"z": -0.5422388247,
				"element": "H" 
			},
			{
				"x": 4.7122551282,
				"y": -0.3844761904,
				"z": 1.8148133618,
				"element": "H" 
			},
			{
				"x": 3.1421653818,
				"y": -0.4523777839,
				"z": 3.7216902275,
				"element": "H" 
			},
			{
				"x": 0.693383229,
				"y": -0.5493605248,
				"z": 3.3580813781,
				"element": "H" 
			},
			{
				"x": -2.343184764,
				"y": -0.6438048662,
				"z": -5.9836650713,
				"element": "H" 
			},
			{
				"x": 0.0280137158,
				"y": -0.5475034698,
				"z": -6.7646436069,
				"element": "H" 
			},
			{
				"x": 1.8557167314,
				"y": -0.4800063905,
				"z": -5.009669259,
				"element": "H" 
			}
		],
		 "valence_orbital": [ 
			{
				"type": "occ",
				"energy": -0.28543,
				"method": "rhf"
			},
			{
				"type": "occ",
				"energy": -0.26518,
				"method": "rhf"
			},
			{
				"type": "occ",
				"energy": -0.26107,
				"method": "rhf"
			},
			{
				"type": "occ",
				"energy": -0.25918,
				"method": "rhf"
			},
			{
				"type": "occ",
				"energy": -0.20547,
				"method": "rhf"
			},
			{
				"type": "unocc",
				"energy": -0.06384,
				"method": "rhf"
			},
			{
				"type": "unocc",
				"energy": -0.04657,
				"method": "rhf"
			},
			{
				"type": "unocc",
				"energy": -0.01349,
				"method": "rhf"
			},
			{
				"type": "unocc",
				"energy": -0.011,
				"method": "rhf"
			},
			{
				"type": "unocc",
				"energy": 0.00025,
				"method": "rhf"
			}
		],
		"cosmo_sigma_profile": { 
			"-0.025": 0.0,
			"-0.024": 0.0,
			"-0.023": 0.0,
			"-0.022": 0.0,
			"-0.021": 0.0,
			"-0.02": 0.0,
			"-0.019": 0.0,
			"-0.018": 0.0,
			"-0.017": 0.0,
			"-0.016": 0.0,
			"-0.015": 0.0,
			"-0.014": 0.0,
			"-0.013": 0.0,
			"-0.012": 0.0,
			"-0.011": 0.0,
			"-0.01": 0.895154003377,
			"-0.009": 2.10637465909,
			"-0.008": 3.75988969086,
			"-0.007": 13.1990298594,
			"-0.006": 21.4860955995,
			"-0.005": 25.0247788837,
			"-0.004": 28.1883647308,
			"-0.003": 17.2675510038,
			"-0.002": 16.4576147852,
			"-0.001": 18.6119027529,
			"0.0": 23.0473120277,
			"0.001": 22.5256037911,
			"0.002": 19.4622183466,
			"0.003": 13.1083663538,
			"0.004": 12.6436377411,
			"0.005": 5.80126647755,
			"0.006": 4.29000236197,
			"0.007": 4.98407001436,
			"0.008": 4.50833524859,
			"0.009": 5.8420953869,
			"0.01": 6.55872711599,
			"0.011": 7.53472134709,
			"0.012": 5.45813427432,
			"0.013": 3.70624422475,
			"0.014": 1.78226601426,
			"0.015": 0.143215437269,
			"0.016": 0.0,
			"0.017": 0.0,
			"0.018": 0.0,
			"0.019": 0.0,
			"0.02": 0.0,
			"0.021": 0.0,
			"0.022": 0.0,
			"0.023": 0.0,
			"0.024": 0.0,
			"0.025": 0.0
		}
	}
}
