{
	 "smiles": "CC1=C(C)C=C(C=C1)C1CC1C(O)=O", 
	 "Tm": 371.15, 
	 "num_atms": 28, 
	 "gaussian": { 
		 "optdone": 1, 
		 "sigma_profile": "yes", 
		 "theory": "DFT", 
		 "functional": "B3LYP", 
		 "basiset": "6-31G**", 
		 "properties": { 
			 "R2extent": 4117.1846, 
			 "electric_dipole_moment_norm": 4.9117914461, 
			 "electric_quadrupole_moment_norm": 20.574366754, 
			 "total_energy": -616.162306844, 
			 "HOMO_LUMO_gap": 0.21418, 
			 "cosmo_polarized_energy": -15.27, 
			 "cosmo_cavitation_energy": 31.32, 
			 "cosmo_dispersion_energy": -22.32, 
			 "cosmo_repulsion_energy": 1.76, 
			 "cosmo_total_nonelectrostatic_energy": 10.76, 
			 "SMD_solvation_energy": 6.07 
		},
		"coords": [
			{
				"x": -2.4231584267,
				"y": 1.2178008816,
				"z": -2.5687290662,
				"element": "C" 
			},
			{
				"x": -1.4962245601,
				"y": 0.8495526535,
				"z": -1.4352866818,
				"element": "C" 
			},
			{
				"x": -0.9126354517,
				"y": -0.4344943957,
				"z": -1.3594935793,
				"element": "C" 
			},
			{
				"x": -1.2023553751,
				"y": -1.4765320472,
				"z": -2.4139688562,
				"element": "C" 
			},
			{
				"x": -0.0622736947,
				"y": -0.7363578382,
				"z": -0.2927066765,
				"element": "C" 
			},
			{
				"x": 0.2388270513,
				"y": 0.1944809885,
				"z": 0.7127252408,
				"element": "C" 
			},
			{
				"x": -0.3448560963,
				"y": 1.4623990623,
				"z": 0.624349961,
				"element": "C" 
			},
			{
				"x": -1.1978335952,
				"y": 1.7768643701,
				"z": -0.4328677195,
				"element": "C" 
			},
			{
				"x": 1.1499264247,
				"y": -0.1134425178,
				"z": 1.85276238,
				"element": "C" 
			},
			{
				"x": 1.3468337695,
				"y": -1.4938301827,
				"z": 2.3979035848,
				"element": "C" 
			},
			{
				"x": 2.4765999641,
				"y": -0.857095728,
				"z": 1.6195653534,
				"element": "C" 
			},
			{
				"x": 3.6562191707,
				"y": -0.3733041845,
				"z": 2.3968955827,
				"element": "C" 
			},
			{
				"x": 4.8448916223,
				"y": -0.3537691595,
				"z": 1.7356934841,
				"element": "O" 
			},
			{
				"x": 3.5968183452,
				"y": -0.0017046806,
				"z": 3.5461096576,
				"element": "O" 
			},
			{
				"x": -3.3025826529,
				"y": 0.5629901812,
				"z": -2.6040422086,
				"element": "H" 
			},
			{
				"x": -2.7789825083,
				"y": 2.2464169323,
				"z": -2.4672397807,
				"element": "H" 
			},
			{
				"x": -1.9282801327,
				"y": 1.1310211797,
				"z": -3.5439287476,
				"element": "H" 
			},
			{
				"x": -0.899083637,
				"y": -1.1379806304,
				"z": -3.412238617,
				"element": "H" 
			},
			{
				"x": -0.6739784779,
				"y": -2.4104028293,
				"z": -2.2042887735,
				"element": "H" 
			},
			{
				"x": -2.2733255229,
				"y": -1.7056429993,
				"z": -2.4730090125,
				"element": "H" 
			},
			{
				"x": 0.3716237817,
				"y": -1.7333623608,
				"z": -0.2518676123,
				"element": "H" 
			},
			{
				"x": -0.1329317157,
				"y": 2.2068923769,
				"z": 1.3872585074,
				"element": "H" 
			},
			{
				"x": -1.6423733863,
				"y": 2.7680165375,
				"z": -0.4804445643,
				"element": "H" 
			},
			{
				"x": 1.2392746715,
				"y": 0.680941155,
				"z": 2.5884938307,
				"element": "H" 
			},
			{
				"x": 0.8181606042,
				"y": -2.3168689929,
				"z": 1.9275038199,
				"element": "H" 
			},
			{
				"x": 1.5072283073,
				"y": -1.5865942214,
				"z": 3.4669551982,
				"element": "H" 
			},
			{
				"x": 2.6462705677,
				"y": -1.2124883239,
				"z": 0.6057689887,
				"element": "H" 
			},
			{
				"x": 4.7270009535,
				"y": -0.6668052262,
				"z": 0.8282263066,
				"element": "H" 
			}
		],
		 "valence_orbital": [ 
			{
				"type": "occ",
				"energy": -0.31461,
				"method": "rhf"
			},
			{
				"type": "occ",
				"energy": -0.29936,
				"method": "rhf"
			},
			{
				"type": "occ",
				"energy": -0.27121,
				"method": "rhf"
			},
			{
				"type": "occ",
				"energy": -0.24579,
				"method": "rhf"
			},
			{
				"type": "occ",
				"energy": -0.22758,
				"method": "rhf"
			},
			{
				"type": "unocc",
				"energy": -0.0134,
				"method": "rhf"
			},
			{
				"type": "unocc",
				"energy": -0.00116,
				"method": "rhf"
			},
			{
				"type": "unocc",
				"energy": 0.02171,
				"method": "rhf"
			},
			{
				"type": "unocc",
				"energy": 0.05549,
				"method": "rhf"
			},
			{
				"type": "unocc",
				"energy": 0.08758,
				"method": "rhf"
			}
		],
		"cosmo_sigma_profile": { 
			"-0.025": 0.0,
			"-0.024": 0.0,
			"-0.023": 0.0,
			"-0.022": 0.0,
			"-0.021": 0.0,
			"-0.02": 0.0262273951602,
			"-0.019": 0.7384587591,
			"-0.018": 1.24957483768,
			"-0.017": 1.35874861348,
			"-0.016": 1.08412576566,
			"-0.015": 0.493701443321,
			"-0.014": 0.763674324143,
			"-0.013": 1.04081749762,
			"-0.012": 1.12858878413,
			"-0.011": 1.32293995197,
			"-0.01": 1.45204469889,
			"-0.009": 0.606599836986,
			"-0.008": 1.04464935463,
			"-0.007": 2.87766816374,
			"-0.006": 6.90924631077,
			"-0.005": 12.5261274754,
			"-0.004": 21.0048315795,
			"-0.003": 23.1385216814,
			"-0.002": 22.3491040681,
			"-0.001": 21.1849225928,
			"0.0": 25.6168657626,
			"0.001": 18.4401624703,
			"0.002": 11.7401734637,
			"0.003": 11.3119091681,
			"0.004": 10.3072791821,
			"0.005": 9.03577414595,
			"0.006": 10.1434168875,
			"0.007": 5.29906936396,
			"0.008": 2.08161199409,
			"0.009": 3.33933394419,
			"0.01": 3.97366848809,
			"0.011": 4.5439645548,
			"0.012": 5.38979096443,
			"0.013": 2.8078832064,
			"0.014": 0.496352406257,
			"0.015": 0.0,
			"0.016": 0.0,
			"0.017": 0.0,
			"0.018": 0.0,
			"0.019": 0.0,
			"0.02": 0.0,
			"0.021": 0.0,
			"0.022": 0.0,
			"0.023": 0.0,
			"0.024": 0.0,
			"0.025": 0.0
		}
	}
}
