{
	 "smiles": "OC(=O)C1CN(C2CCS(=O)(=O)C2)C(=O)C1", 
	 "Tm": 529.15, 
	 "num_atms": 29, 
	 "gaussian": { 
		 "optdone": 1, 
		 "sigma_profile": "yes", 
		 "theory": "DFT", 
		 "functional": "B3LYP", 
		 "basiset": "6-31G**", 
		 "properties": { 
			 "R2extent": 4942.3838, 
			 "electric_dipole_moment_norm": 5.28578936962, 
			 "electric_quadrupole_moment_norm": 18.6683887518, 
			 "total_energy": -1179.80746881, 
			 "HOMO_LUMO_gap": 0.25726, 
			 "cosmo_polarized_energy": -31.78, 
			 "cosmo_cavitation_energy": 32.74, 
			 "cosmo_dispersion_energy": -23.64, 
			 "cosmo_repulsion_energy": 1.79, 
			 "cosmo_total_nonelectrostatic_energy": 10.89, 
			 "SMD_solvation_energy": 6.03 
		},
		"coords": [
			{
				"x": -0.9462009588,
				"y": 1.3740641531,
				"z": -2.7753863308,
				"element": "O" 
			},
			{
				"x": 0.3188008859,
				"y": 1.241343337,
				"z": -3.2501348813,
				"element": "C" 
			},
			{
				"x": 0.5849261729,
				"y": 1.5365130768,
				"z": -4.3872192764,
				"element": "O" 
			},
			{
				"x": 1.3596139461,
				"y": 0.7198781355,
				"z": -2.2547543187,
				"element": "C" 
			},
			{
				"x": 0.8602680131,
				"y": -0.5152886111,
				"z": -1.4633589089,
				"element": "C" 
			},
			{
				"x": 0.2072967267,
				"y": 0.0859409006,
				"z": -0.2933439129,
				"element": "N" 
			},
			{
				"x": -0.4966266854,
				"y": -0.6805150398,
				"z": 0.727680917,
				"element": "C" 
			},
			{
				"x": 0.3538610848,
				"y": -1.7974148543,
				"z": 1.3860499305,
				"element": "C" 
			},
			{
				"x": -0.6050801392,
				"y": -2.5941197512,
				"z": 2.2695543217,
				"element": "C" 
			},
			{
				"x": -2.0697292492,
				"y": -2.8440631579,
				"z": 1.202147907,
				"element": "S" 
			},
			{
				"x": -3.3101933396,
				"y": -2.7528767181,
				"z": 1.9825369457,
				"element": "O" 
			},
			{
				"x": -1.8018401439,
				"y": -3.9986025034,
				"z": 0.3293117441,
				"element": "O" 
			},
			{
				"x": -1.8066970048,
				"y": -1.3138068882,
				"z": 0.2074743452,
				"element": "C" 
			},
			{
				"x": 0.76429124,
				"y": 1.3239325458,
				"z": 0.0326921243,
				"element": "C" 
			},
			{
				"x": 0.5588800919,
				"y": 1.929620928,
				"z": 1.0664269031,
				"element": "O" 
			},
			{
				"x": 1.6509335358,
				"y": 1.7481840283,
				"z": -1.1343759227,
				"element": "C" 
			},
			{
				"x": -0.9888686896,
				"y": 1.095318146,
				"z": -1.8447974356,
				"element": "H" 
			},
			{
				"x": 2.2470920054,
				"y": 0.4853658378,
				"z": -2.8421057959,
				"element": "H" 
			},
			{
				"x": 0.1612930886,
				"y": -1.1312175822,
				"z": -2.0368062544,
				"element": "H" 
			},
			{
				"x": 1.705333485,
				"y": -1.1521973799,
				"z": -1.1707600396,
				"element": "H" 
			},
			{
				"x": -0.7390533589,
				"y": 0.0546135001,
				"z": 1.5009062354,
				"element": "H" 
			},
			{
				"x": 1.1731158678,
				"y": -1.3634869243,
				"z": 1.9658751426,
				"element": "H" 
			},
			{
				"x": 0.783498709,
				"y": -2.4591255084,
				"z": 0.6264866604,
				"element": "H" 
			},
			{
				"x": -0.2430260288,
				"y": -3.5798483197,
				"z": 2.5656364815,
				"element": "H" 
			},
			{
				"x": -0.9314525949,
				"y": -2.0327973302,
				"z": 3.1491509172,
				"element": "H" 
			},
			{
				"x": -1.7398442327,
				"y": -1.6489671387,
				"z": -0.8295407201,
				"element": "H" 
			},
			{
				"x": -2.6781482947,
				"y": -0.6701610346,
				"z": 0.3347168352,
				"element": "H" 
			},
			{
				"x": 1.4582107737,
				"y": 2.7877167632,
				"z": -1.4091069364,
				"element": "H" 
			},
			{
				"x": 2.6946450936,
				"y": 1.6886973897,
				"z": -0.8055566773,
				"element": "H" 
			}
		],
		 "valence_orbital": [ 
			{
				"type": "occ",
				"energy": -0.30818,
				"method": "rhf"
			},
			{
				"type": "occ",
				"energy": -0.30027,
				"method": "rhf"
			},
			{
				"type": "occ",
				"energy": -0.29218,
				"method": "rhf"
			},
			{
				"type": "occ",
				"energy": -0.28392,
				"method": "rhf"
			},
			{
				"type": "occ",
				"energy": -0.27718,
				"method": "rhf"
			},
			{
				"type": "unocc",
				"energy": -0.01992,
				"method": "rhf"
			},
			{
				"type": "unocc",
				"energy": -0.00369,
				"method": "rhf"
			},
			{
				"type": "unocc",
				"energy": 0.02805,
				"method": "rhf"
			},
			{
				"type": "unocc",
				"energy": 0.04089,
				"method": "rhf"
			},
			{
				"type": "unocc",
				"energy": 0.04574,
				"method": "rhf"
			}
		],
		"cosmo_sigma_profile": { 
			"-0.025": 0.0,
			"-0.024": 0.0,
			"-0.023": 0.0,
			"-0.022": 0.0,
			"-0.021": 0.0,
			"-0.02": 0.0,
			"-0.019": 0.0,
			"-0.018": 0.0,
			"-0.017": 0.0,
			"-0.016": 0.0,
			"-0.015": 0.0,
			"-0.014": 0.0,
			"-0.013": 0.216538474313,
			"-0.012": 1.38869460941,
			"-0.011": 2.62303165485,
			"-0.01": 4.28749107401,
			"-0.009": 6.93409361273,
			"-0.008": 18.833982311,
			"-0.007": 27.6834209653,
			"-0.006": 28.3845250727,
			"-0.005": 20.9625279734,
			"-0.004": 16.3975823267,
			"-0.003": 10.9750261623,
			"-0.002": 5.88361864828,
			"-0.001": 5.50385843412,
			"0.0": 4.73535814595,
			"0.001": 3.81859171708,
			"0.002": 4.93515160723,
			"0.003": 5.26917103175,
			"0.004": 4.42753561044,
			"0.005": 5.2685928097,
			"0.006": 4.92345664316,
			"0.007": 5.18446123099,
			"0.008": 5.61079666615,
			"0.009": 8.75219336257,
			"0.01": 11.1395317479,
			"0.011": 18.2756314468,
			"0.012": 19.4212548892,
			"0.013": 5.452536008,
			"0.014": 0.368353401917,
			"0.015": 0.0,
			"0.016": 0.0,
			"0.017": 0.0,
			"0.018": 0.0,
			"0.019": 0.0,
			"0.02": 0.0,
			"0.021": 0.0,
			"0.022": 0.0,
			"0.023": 0.0,
			"0.024": 0.0,
			"0.025": 0.0
		}
	}
}
