{
	 "smiles": "OC(=O)C1=C(Cl)C2=C(N1)C=CC=C2", 
	 "Tm": 453.15, 
	 "num_atms": 19, 
	 "gaussian": { 
		 "optdone": 1, 
		 "sigma_profile": "yes", 
		 "theory": "DFT", 
		 "functional": "B3LYP", 
		 "basiset": "6-31G**", 
		 "properties": { 
			 "R2extent": 3378.4788, 
			 "electric_dipole_moment_norm": 3.98624674725, 
			 "electric_quadrupole_moment_norm": 17.0268160121, 
			 "total_energy": -1011.98433808, 
			 "HOMO_LUMO_gap": 0.16009, 
			 "cosmo_polarized_energy": -13.28, 
			 "cosmo_cavitation_energy": 25.73, 
			 "cosmo_dispersion_energy": -19.3, 
			 "cosmo_repulsion_energy": 1.52, 
			 "cosmo_total_nonelectrostatic_energy": 7.95, 
			 "SMD_solvation_energy": 4.93 
		},
		"coords": [
			{
				"x": 2.3868743177,
				"y": 2.7772232626,
				"z": 2.211606175,
				"element": "O" 
			},
			{
				"x": 1.3233369518,
				"y": 2.136537061,
				"z": 2.7855250096,
				"element": "C" 
			},
			{
				"x": 0.9815991315,
				"y": 2.3340608525,
				"z": 3.9317384722,
				"element": "O" 
			},
			{
				"x": 0.6958789466,
				"y": 1.219292698,
				"z": 1.836643269,
				"element": "C" 
			},
			{
				"x": -0.3942616479,
				"y": 0.3773514016,
				"z": 1.9819399911,
				"element": "C" 
			},
			{
				"x": -1.3641358697,
				"y": 0.1654356587,
				"z": 3.3931128347,
				"element": "Cl" 
			},
			{
				"x": -0.5945487518,
				"y": -0.3068843081,
				"z": 0.7448426912,
				"element": "C" 
			},
			{
				"x": 0.4190647296,
				"y": 0.1621511356,
				"z": -0.1392648895,
				"element": "C" 
			},
			{
				"x": 1.1791157732,
				"y": 1.0769987696,
				"z": 0.5418865394,
				"element": "N" 
			},
			{
				"x": 0.5202291631,
				"y": -0.306396274,
				"z": -1.4576799793,
				"element": "C" 
			},
			{
				"x": -0.4080832744,
				"y": -1.2489955431,
				"z": -1.8726397859,
				"element": "C" 
			},
			{
				"x": -1.4207723327,
				"y": -1.7246755564,
				"z": -1.0062186108,
				"element": "C" 
			},
			{
				"x": -1.5231804754,
				"y": -1.2641840333,
				"z": 0.2955020361,
				"element": "C" 
			},
			{
				"x": 2.7451711263,
				"y": 3.3621468946,
				"z": 2.8987801949,
				"element": "H" 
			},
			{
				"x": 1.9738494016,
				"y": 1.5892939925,
				"z": 0.1934803377,
				"element": "H" 
			},
			{
				"x": 1.2956567113,
				"y": 0.0557582255,
				"z": -2.1260311869,
				"element": "H" 
			},
			{
				"x": -0.3573003594,
				"y": -1.6320997282,
				"z": -2.8875053205,
				"element": "H" 
			},
			{
				"x": -2.1266464039,
				"y": -2.4631087592,
				"z": -1.3735475909,
				"element": "H" 
			},
			{
				"x": -2.2983471377,
				"y": -1.6264057497,
				"z": 0.9632298127,
				"element": "H" 
			}
		],
		 "valence_orbital": [ 
			{
				"type": "occ",
				"energy": -0.31431,
				"method": "rhf"
			},
			{
				"type": "occ",
				"energy": -0.28029,
				"method": "rhf"
			},
			{
				"type": "occ",
				"energy": -0.27931,
				"method": "rhf"
			},
			{
				"type": "occ",
				"energy": -0.2397,
				"method": "rhf"
			},
			{
				"type": "occ",
				"energy": -0.21823,
				"method": "rhf"
			},
			{
				"type": "unocc",
				"energy": -0.05814,
				"method": "rhf"
			},
			{
				"type": "unocc",
				"energy": 0.00685,
				"method": "rhf"
			},
			{
				"type": "unocc",
				"energy": 0.01895,
				"method": "rhf"
			},
			{
				"type": "unocc",
				"energy": 0.04042,
				"method": "rhf"
			},
			{
				"type": "unocc",
				"energy": 0.07056,
				"method": "rhf"
			}
		],
		"cosmo_sigma_profile": { 
			"-0.025": 0.0,
			"-0.024": 0.0,
			"-0.023": 0.0,
			"-0.022": 0.0,
			"-0.021": 0.0,
			"-0.02": 0.0,
			"-0.019": 0.155051946462,
			"-0.018": 1.05943520662,
			"-0.017": 0.742627851988,
			"-0.016": 1.21484143764,
			"-0.015": 2.09521961967,
			"-0.014": 1.4125782845,
			"-0.013": 1.41487917381,
			"-0.012": 1.38384650646,
			"-0.011": 2.37875700949,
			"-0.01": 1.71558802189,
			"-0.009": 1.51054859194,
			"-0.008": 1.57391269277,
			"-0.007": 4.0962639353,
			"-0.006": 7.5108105401,
			"-0.005": 8.84166657386,
			"-0.004": 10.8364796621,
			"-0.003": 11.7702083004,
			"-0.002": 13.849919158,
			"-0.001": 11.7943040992,
			"0.0": 13.2120237799,
			"0.001": 20.0208459845,
			"0.002": 21.4589065272,
			"0.003": 17.3109843299,
			"0.004": 17.7812990418,
			"0.005": 12.9110104371,
			"0.006": 4.44764464325,
			"0.007": 1.33343687874,
			"0.008": 1.90796964756,
			"0.009": 1.9401451938,
			"0.01": 2.56488470326,
			"0.011": 5.19505933081,
			"0.012": 3.59257808299,
			"0.013": 0.000683323921367,
			"0.014": 0.0,
			"0.015": 0.0,
			"0.016": 0.0,
			"0.017": 0.0,
			"0.018": 0.0,
			"0.019": 0.0,
			"0.02": 0.0,
			"0.021": 0.0,
			"0.022": 0.0,
			"0.023": 0.0,
			"0.024": 0.0,
			"0.025": 0.0
		}
	}
}
