{
	 "smiles": "ClCC1=NC2=C(SC=C2)C(=O)N1", 
	 "Tm": 465.15, 
	 "num_atms": 17, 
	 "gaussian": { 
		 "optdone": 1, 
		 "sigma_profile": "yes", 
		 "theory": "DFT", 
		 "functional": "B3LYP", 
		 "basiset": "6-31G**", 
		 "properties": { 
			 "R2extent": 3796.5714, 
			 "electric_dipole_moment_norm": 3.22793905147, 
			 "electric_quadrupole_moment_norm": 19.620752229, 
			 "total_energy": -1312.88062959, 
			 "HOMO_LUMO_gap": 0.17894, 
			 "cosmo_polarized_energy": -13.01, 
			 "cosmo_cavitation_energy": 25.1, 
			 "cosmo_dispersion_energy": -19.56, 
			 "cosmo_repulsion_energy": 1.51, 
			 "cosmo_total_nonelectrostatic_energy": 7.05, 
			 "SMD_solvation_energy": 2.92 
		},
		"coords": [
			{
				"x": -0.7588484229,
				"y": -3.5391963198,
				"z": -2.5168521061,
				"element": "Cl" 
			},
			{
				"x": 0.0829900867,
				"y": -2.6355249016,
				"z": -1.1855455176,
				"element": "C" 
			},
			{
				"x": -0.6632431132,
				"y": -1.4047039165,
				"z": -0.7389047879,
				"element": "C" 
			},
			{
				"x": 0.0303057272,
				"y": -0.3313784372,
				"z": -0.5025746296,
				"element": "N" 
			},
			{
				"x": -0.68099707,
				"y": 0.7437216109,
				"z": -0.0088982521,
				"element": "C" 
			},
			{
				"x": -2.0569515468,
				"y": 0.7082867257,
				"z": 0.2182670543,
				"element": "C" 
			},
			{
				"x": -2.6603628192,
				"y": 2.2130830061,
				"z": 0.8270816674,
				"element": "S" 
			},
			{
				"x": -1.0572868231,
				"y": 2.8895268031,
				"z": 0.7794151713,
				"element": "C" 
			},
			{
				"x": -0.1134299574,
				"y": 2.0154246965,
				"z": 0.3213785066,
				"element": "C" 
			},
			{
				"x": -2.8466381623,
				"y": -0.4682230665,
				"z": -0.0545822857,
				"element": "C" 
			},
			{
				"x": -4.0493713143,
				"y": -0.6320741839,
				"z": 0.08149741,
				"element": "O" 
			},
			{
				"x": -2.0135050482,
				"y": -1.5081173963,
				"z": -0.5374577786,
				"element": "N" 
			},
			{
				"x": 0.1929064835,
				"y": -3.3456368981,
				"z": -0.3624503188,
				"element": "H" 
			},
			{
				"x": 1.0638280278,
				"y": -2.3333945299,
				"z": -1.545512036,
				"element": "H" 
			},
			{
				"x": -0.9079676966,
				"y": 3.9121220211,
				"z": 1.0989175102,
				"element": "H" 
			},
			{
				"x": 0.9398774577,
				"y": 2.2428833856,
				"z": 0.2152462698,
				"element": "H" 
			},
			{
				"x": -2.4974058088,
				"y": -2.3591985993,
				"z": -0.8037258774,
				"element": "H" 
			}
		],
		 "valence_orbital": [ 
			{
				"type": "occ",
				"energy": -0.30415,
				"method": "rhf"
			},
			{
				"type": "occ",
				"energy": -0.29306,
				"method": "rhf"
			},
			{
				"type": "occ",
				"energy": -0.2719,
				"method": "rhf"
			},
			{
				"type": "occ",
				"energy": -0.26137,
				"method": "rhf"
			},
			{
				"type": "occ",
				"energy": -0.23919,
				"method": "rhf"
			},
			{
				"type": "unocc",
				"energy": -0.06025,
				"method": "rhf"
			},
			{
				"type": "unocc",
				"energy": -0.03276,
				"method": "rhf"
			},
			{
				"type": "unocc",
				"energy": 0.01381,
				"method": "rhf"
			},
			{
				"type": "unocc",
				"energy": 0.01911,
				"method": "rhf"
			},
			{
				"type": "unocc",
				"energy": 0.03316,
				"method": "rhf"
			}
		],
		"cosmo_sigma_profile": { 
			"-0.025": 0.0,
			"-0.024": 0.0,
			"-0.023": 0.0,
			"-0.022": 0.0,
			"-0.021": 0.0,
			"-0.02": 0.0,
			"-0.019": 0.0,
			"-0.018": 0.0,
			"-0.017": 0.0,
			"-0.016": 0.0,
			"-0.015": 0.132206888316,
			"-0.014": 0.848003648857,
			"-0.013": 1.22646129139,
			"-0.012": 1.2050435939,
			"-0.011": 0.799242872014,
			"-0.01": 3.74271769615,
			"-0.009": 7.6984912057,
			"-0.008": 7.3832512563,
			"-0.007": 7.47013820488,
			"-0.006": 7.611838292,
			"-0.005": 9.11250332905,
			"-0.004": 7.03295416252,
			"-0.003": 11.2132698634,
			"-0.002": 11.6995810766,
			"-0.001": 11.6558662414,
			"0.0": 15.8095880418,
			"0.001": 21.4328847681,
			"0.002": 19.4381635438,
			"0.003": 16.2769135708,
			"0.004": 8.96472424939,
			"0.005": 10.0480262556,
			"0.006": 3.39570127674,
			"0.007": 2.31749405824,
			"0.008": 1.81750884117,
			"0.009": 2.56147885004,
			"0.01": 2.0904396903,
			"0.011": 2.72770154779,
			"0.012": 4.91926088596,
			"0.013": 5.57820986501,
			"0.014": 0.408059980643,
			"0.015": 0.0,
			"0.016": 0.0,
			"0.017": 0.0,
			"0.018": 0.0,
			"0.019": 0.0,
			"0.02": 0.0,
			"0.021": 0.0,
			"0.022": 0.0,
			"0.023": 0.0,
			"0.024": 0.0,
			"0.025": 0.0
		}
	}
}
