{
	 "smiles": "C(OC1=CC=CC=C1)C1=NN=C2SC(=NN12)C1=CC=CC2=C1C=CC=C2", 
	 "Tm": 407.15, 
	 "num_atms": 40, 
	 "gaussian": { 
		 "optdone": 1, 
		 "sigma_profile": "yes", 
		 "theory": "DFT", 
		 "functional": "B3LYP", 
		 "basiset": "6-31G**", 
		 "properties": { 
			 "R2extent": 11837.4227, 
			 "electric_dipole_moment_norm": 6.45000493721, 
			 "electric_quadrupole_moment_norm": 28.3056544929, 
			 "total_energy": -1462.91692183, 
			 "HOMO_LUMO_gap": 0.14077, 
			 "cosmo_polarized_energy": -18.11, 
			 "cosmo_cavitation_energy": 46.96, 
			 "cosmo_dispersion_energy": -33.73, 
			 "cosmo_repulsion_energy": 2.48, 
			 "cosmo_total_nonelectrostatic_energy": 15.72, 
			 "SMD_solvation_energy": 4.5 
		},
		"coords": [
			{
				"x": -1.2933535538,
				"y": -0.9597412841,
				"z": 3.0080877207,
				"element": "C" 
			},
			{
				"x": -0.4898468432,
				"y": 0.2121848301,
				"z": 3.1043442143,
				"element": "O" 
			},
			{
				"x": 0.6518535683,
				"y": 0.148800907,
				"z": 3.8589153486,
				"element": "C" 
			},
			{
				"x": 1.4448191314,
				"y": 1.3054671063,
				"z": 3.8480965704,
				"element": "C" 
			},
			{
				"x": 2.6222872367,
				"y": 1.3456788944,
				"z": 4.5859351389,
				"element": "C" 
			},
			{
				"x": 3.0268382997,
				"y": 0.2390271414,
				"z": 5.3413221802,
				"element": "C" 
			},
			{
				"x": 2.2343121836,
				"y": -0.9059386783,
				"z": 5.3483688194,
				"element": "C" 
			},
			{
				"x": 1.045454837,
				"y": -0.9625607649,
				"z": 4.6124953681,
				"element": "C" 
			},
			{
				"x": -2.4349015289,
				"y": -0.6735743981,
				"z": 2.0990750527,
				"element": "C" 
			},
			{
				"x": -3.7102829869,
				"y": -0.6726740482,
				"z": 2.4309394523,
				"element": "N" 
			},
			{
				"x": -4.4825780188,
				"y": -0.3784008191,
				"z": 1.3151517788,
				"element": "N" 
			},
			{
				"x": -3.6292587711,
				"y": -0.2062354159,
				"z": 0.3368058845,
				"element": "C" 
			},
			{
				"x": -3.6130571968,
				"y": 0.1694340988,
				"z": -1.3683067045,
				"element": "S" 
			},
			{
				"x": -1.8106638043,
				"y": 0.069019396,
				"z": -1.2991709525,
				"element": "C" 
			},
			{
				"x": -1.3169902944,
				"y": -0.2304750279,
				"z": -0.1332628129,
				"element": "N" 
			},
			{
				"x": -2.3338868868,
				"y": -0.383119141,
				"z": 0.7592934345,
				"element": "N" 
			},
			{
				"x": -1.0247973686,
				"y": 0.3224124528,
				"z": -2.5163127286,
				"element": "C" 
			},
			{
				"x": -1.5332781873,
				"y": 1.2343401138,
				"z": -3.4325790784,
				"element": "C" 
			},
			{
				"x": -0.854654733,
				"y": 1.5405080057,
				"z": -4.6283843679,
				"element": "C" 
			},
			{
				"x": 0.3428074229,
				"y": 0.9270432185,
				"z": -4.9104718884,
				"element": "C" 
			},
			{
				"x": 0.906599371,
				"y": -0.0173779121,
				"z": -4.0130852153,
				"element": "C" 
			},
			{
				"x": 0.2283078479,
				"y": -0.3391016752,
				"z": -2.7874897405,
				"element": "C" 
			},
			{
				"x": 0.8223134352,
				"y": -1.3061790739,
				"z": -1.9316578153,
				"element": "C" 
			},
			{
				"x": 2.0165393446,
				"y": -1.9091995963,
				"z": -2.2628218624,
				"element": "C" 
			},
			{
				"x": 2.6872720973,
				"y": -1.5822011932,
				"z": -3.4632048773,
				"element": "C" 
			},
			{
				"x": 2.1388304168,
				"y": -0.6557877574,
				"z": -4.3183838003,
				"element": "C" 
			},
			{
				"x": -0.6924793935,
				"y": -1.7969135109,
				"z": 2.6245605041,
				"element": "H" 
			},
			{
				"x": -1.713427324,
				"y": -1.2446247445,
				"z": 3.9797074829,
				"element": "H" 
			},
			{
				"x": 1.1157443939,
				"y": 2.1525320627,
				"z": 3.2552486124,
				"element": "H" 
			},
			{
				"x": 3.2293998001,
				"y": 2.2464429028,
				"z": 4.5710424062,
				"element": "H" 
			},
			{
				"x": 3.9469602254,
				"y": 0.2733785166,
				"z": 5.9162531287,
				"element": "H" 
			},
			{
				"x": 2.5334018046,
				"y": -1.7718997359,
				"z": 5.9323256284,
				"element": "H" 
			},
			{
				"x": 0.4435000458,
				"y": -1.8631967605,
				"z": 4.642051253,
				"element": "H" 
			},
			{
				"x": -2.4641951138,
				"y": 1.7488655973,
				"z": -3.2147990463,
				"element": "H" 
			},
			{
				"x": -1.2807058794,
				"y": 2.2659645419,
				"z": -5.3139128654,
				"element": "H" 
			},
			{
				"x": 0.8779543267,
				"y": 1.1570833037,
				"z": -5.8278857085,
				"element": "H" 
			},
			{
				"x": 0.3344121368,
				"y": -1.5577865702,
				"z": -1.0002488821,
				"element": "H" 
			},
			{
				"x": 2.4481148214,
				"y": -2.6444194034,
				"z": -1.5900286263,
				"element": "H" 
			},
			{
				"x": 3.6293305821,
				"y": -2.0641247793,
				"z": -3.7068804655,
				"element": "H" 
			},
			{
				"x": 2.6386045556,
				"y": -0.3970507998,
				"z": -5.2480325411,
				"element": "H" 
			}
		],
		 "valence_orbital": [ 
			{
				"type": "occ",
				"energy": -0.26279,
				"method": "rhf"
			},
			{
				"type": "occ",
				"energy": -0.25072,
				"method": "rhf"
			},
			{
				"type": "occ",
				"energy": -0.24819,
				"method": "rhf"
			},
			{
				"type": "occ",
				"energy": -0.23181,
				"method": "rhf"
			},
			{
				"type": "occ",
				"energy": -0.22109,
				"method": "rhf"
			},
			{
				"type": "unocc",
				"energy": -0.08032,
				"method": "rhf"
			},
			{
				"type": "unocc",
				"energy": -0.0337,
				"method": "rhf"
			},
			{
				"type": "unocc",
				"energy": -0.02995,
				"method": "rhf"
			},
			{
				"type": "unocc",
				"energy": -0.01096,
				"method": "rhf"
			},
			{
				"type": "unocc",
				"energy": -0.00131,
				"method": "rhf"
			}
		],
		"cosmo_sigma_profile": { 
			"-0.025": 0.0,
			"-0.024": 0.0,
			"-0.023": 0.0,
			"-0.022": 0.0,
			"-0.021": 0.0,
			"-0.02": 0.0,
			"-0.019": 0.0,
			"-0.018": 0.0,
			"-0.017": 0.0,
			"-0.016": 0.0,
			"-0.015": 0.0,
			"-0.014": 0.0,
			"-0.013": 0.0,
			"-0.012": 0.0,
			"-0.011": 0.0,
			"-0.01": 0.0,
			"-0.009": 0.0,
			"-0.008": 3.60400540439,
			"-0.007": 15.9706385901,
			"-0.006": 26.3180248612,
			"-0.005": 30.1402058943,
			"-0.004": 31.5267427698,
			"-0.003": 31.255860975,
			"-0.002": 26.0420848548,
			"-0.001": 24.5408162566,
			"0.0": 22.7781984433,
			"0.001": 23.8778444624,
			"0.002": 31.3718973043,
			"0.003": 31.8914120484,
			"0.004": 25.0671533053,
			"0.005": 16.5231978129,
			"0.006": 10.9395603853,
			"0.007": 5.68665591815,
			"0.008": 4.35963931391,
			"0.009": 2.45897325813,
			"0.01": 1.92402355285,
			"0.011": 2.65847428747,
			"0.012": 3.93071949041,
			"0.013": 2.99597365192,
			"0.014": 2.9291240254,
			"0.015": 2.1687291232,
			"0.016": 0.589935985312,
			"0.017": 0.0,
			"0.018": 0.0,
			"0.019": 0.0,
			"0.02": 0.0,
			"0.021": 0.0,
			"0.022": 0.0,
			"0.023": 0.0,
			"0.024": 0.0,
			"0.025": 0.0
		}
	}
}
