{
	 "smiles": "FC1=C(Br)C=C(C=O)C=C1", 
	 "Tm": 304.15, 
	 "num_atms": 14, 
	 "gaussian": { 
		 "optdone": 1, 
		 "sigma_profile": "yes", 
		 "theory": "DFT", 
		 "functional": "B3LYP", 
		 "basiset": "6-31G**", 
		 "properties": { 
			 "R2extent": 4111.9518, 
			 "electric_dipole_moment_norm": 2.95981293497, 
			 "electric_quadrupole_moment_norm": 7.29156874822, 
			 "total_energy": -3015.60409137, 
			 "HOMO_LUMO_gap": 0.18646, 
			 "cosmo_polarized_energy": -7.7, 
			 "cosmo_cavitation_energy": 21.9, 
			 "cosmo_dispersion_energy": -16.28, 
			 "cosmo_repulsion_energy": 1.29, 
			 "cosmo_total_nonelectrostatic_energy": 6.91, 
			 "SMD_solvation_energy": 4.25 
		},
		"coords": [
			{
				"x": 1.7943785915,
				"y": 1.7070341733,
				"z": 2.463118554,
				"element": "F" 
			},
			{
				"x": 1.4287876231,
				"y": 0.8094449915,
				"z": 1.5413785165,
				"element": "C" 
			},
			{
				"x": 2.228729485,
				"y": -0.3177868007,
				"z": 1.3154949013,
				"element": "C" 
			},
			{
				"x": 3.8201545403,
				"y": -0.5520632812,
				"z": 2.3235841688,
				"element": "Br" 
			},
			{
				"x": 1.8424618916,
				"y": -1.2439744093,
				"z": 0.3577318769,
				"element": "C" 
			},
			{
				"x": 0.6604868512,
				"y": -1.044258643,
				"z": -0.3719049158,
				"element": "C" 
			},
			{
				"x": 0.2533768311,
				"y": -2.0367318758,
				"z": -1.3929541946,
				"element": "C" 
			},
			{
				"x": 0.8784833176,
				"y": -3.043999901,
				"z": -1.6610742817,
				"element": "O" 
			},
			{
				"x": -0.1286042049,
				"y": 0.0880737184,
				"z": -0.1342702769,
				"element": "C" 
			},
			{
				"x": 0.2543722964,
				"y": 1.0205793013,
				"z": 0.825570065,
				"element": "C" 
			},
			{
				"x": 2.4401138198,
				"y": -2.1267156592,
				"z": 0.1595839902,
				"element": "H" 
			},
			{
				"x": -0.6962402141,
				"y": -1.7935430206,
				"z": -1.9191288561,
				"element": "H" 
			},
			{
				"x": -1.0430338172,
				"y": 0.2377746762,
				"z": -0.7021909862,
				"element": "H" 
			},
			{
				"x": -0.3323670116,
				"y": 1.9081667302,
				"z": 1.0353614385,
				"element": "H" 
			}
		],
		 "valence_orbital": [ 
			{
				"type": "occ",
				"energy": -0.33167,
				"method": "rhf"
			},
			{
				"type": "occ",
				"energy": -0.30058,
				"method": "rhf"
			},
			{
				"type": "occ",
				"energy": -0.27689,
				"method": "rhf"
			},
			{
				"type": "occ",
				"energy": -0.26697,
				"method": "rhf"
			},
			{
				"type": "occ",
				"energy": -0.26105,
				"method": "rhf"
			},
			{
				"type": "unocc",
				"energy": -0.07459,
				"method": "rhf"
			},
			{
				"type": "unocc",
				"energy": -0.03791,
				"method": "rhf"
			},
			{
				"type": "unocc",
				"energy": -0.00892,
				"method": "rhf"
			},
			{
				"type": "unocc",
				"energy": 0.02677,
				"method": "rhf"
			},
			{
				"type": "unocc",
				"energy": 0.08673,
				"method": "rhf"
			}
		],
		"cosmo_sigma_profile": { 
			"-0.025": 0.0,
			"-0.024": 0.0,
			"-0.023": 0.0,
			"-0.022": 0.0,
			"-0.021": 0.0,
			"-0.02": 0.0,
			"-0.019": 0.0,
			"-0.018": 0.0,
			"-0.017": 0.0,
			"-0.016": 0.0,
			"-0.015": 0.0,
			"-0.014": 0.0,
			"-0.013": 0.0,
			"-0.012": 0.0,
			"-0.011": 0.0,
			"-0.01": 0.0,
			"-0.009": 1.94969791284,
			"-0.008": 6.50645521686,
			"-0.007": 7.98697028339,
			"-0.006": 7.98726266374,
			"-0.005": 7.9541701244,
			"-0.004": 8.10824737769,
			"-0.003": 9.09513139631,
			"-0.002": 13.6314785644,
			"-0.001": 17.390457583,
			"0.0": 20.6634691222,
			"0.001": 17.0279569288,
			"0.002": 11.1818201424,
			"0.003": 18.6661124668,
			"0.004": 13.0181614764,
			"0.005": 2.77675954323,
			"0.006": 1.27611925929,
			"0.007": 1.86754841407,
			"0.008": 1.60866650971,
			"0.009": 1.87801626989,
			"0.01": 3.115729848,
			"0.011": 4.19033316944,
			"0.012": 1.93700817655,
			"0.013": 0.333489164489,
			"0.014": 0.0,
			"0.015": 0.0,
			"0.016": 0.0,
			"0.017": 0.0,
			"0.018": 0.0,
			"0.019": 0.0,
			"0.02": 0.0,
			"0.021": 0.0,
			"0.022": 0.0,
			"0.023": 0.0,
			"0.024": 0.0,
			"0.025": 0.0
		}
	}
}
