{
	 "smiles": "CC1=C(Br)SC2=C1C=C(Cl)C=C2", 
	 "Tm": 378.65, 
	 "num_atms": 18, 
	 "gaussian": { 
		 "optdone": 1, 
		 "sigma_profile": "yes", 
		 "theory": "DFT", 
		 "functional": "B3LYP", 
		 "basiset": "6-31G**", 
		 "properties": { 
			 "R2extent": 4723.6555, 
			 "electric_dipole_moment_norm": 0.542682503864, 
			 "electric_quadrupole_moment_norm": 10.6131214951, 
			 "total_energy": -3776.3610488, 
			 "HOMO_LUMO_gap": 0.18349, 
			 "cosmo_polarized_energy": -4.57, 
			 "cosmo_cavitation_energy": 27.5, 
			 "cosmo_dispersion_energy": -21.35, 
			 "cosmo_repulsion_energy": 1.64, 
			 "cosmo_total_nonelectrostatic_energy": 7.79, 
			 "SMD_solvation_energy": 2.75 
		},
		"coords": [
			{
				"x": -1.8349106351,
				"y": 2.3021596522,
				"z": 1.0751879024,
				"element": "C" 
			},
			{
				"x": -0.9760395967,
				"y": 1.0760560816,
				"z": 0.9362138233,
				"element": "C" 
			},
			{
				"x": -0.8305963229,
				"y": 0.1213729014,
				"z": 1.8978002291,
				"element": "C" 
			},
			{
				"x": -1.6626879204,
				"y": 0.1266482635,
				"z": 3.5907556547,
				"element": "Br" 
			},
			{
				"x": 0.2324446808,
				"y": -1.2095760546,
				"z": 1.4797335738,
				"element": "S" 
			},
			{
				"x": 0.5269302537,
				"y": -0.4776687121,
				"z": -0.0877695178,
				"element": "C" 
			},
			{
				"x": -0.1865028389,
				"y": 0.7385269681,
				"z": -0.2330607811,
				"element": "C" 
			},
			{
				"x": -0.0606365627,
				"y": 1.4560010105,
				"z": -1.4371053151,
				"element": "C" 
			},
			{
				"x": 0.7550465407,
				"y": 0.949374963,
				"z": -2.4372293667,
				"element": "C" 
			},
			{
				"x": 0.9168313183,
				"y": 1.8414735933,
				"z": -3.9454364427,
				"element": "Cl" 
			},
			{
				"x": 1.459829633,
				"y": -0.2560567726,
				"z": -2.288387257,
				"element": "C" 
			},
			{
				"x": 1.3452896463,
				"y": -0.9754912611,
				"z": -1.1048111579,
				"element": "C" 
			},
			{
				"x": -1.5113913534,
				"y": 2.9166842558,
				"z": 1.9217688014,
				"element": "H" 
			},
			{
				"x": -2.8813720479,
				"y": 2.0328866668,
				"z": 1.2524133818,
				"element": "H" 
			},
			{
				"x": -1.7958747854,
				"y": 2.9217800169,
				"z": 0.1772078522,
				"element": "H" 
			},
			{
				"x": -0.5885159378,
				"y": 2.3901726244,
				"z": -1.5898864407,
				"element": "H" 
			},
			{
				"x": 2.086937938,
				"y": -0.6166043757,
				"z": -3.0955270299,
				"element": "H" 
			},
			{
				"x": 1.8861179903,
				"y": -1.9083398215,
				"z": -0.98026791,
				"element": "H" 
			}
		],
		 "valence_orbital": [ 
			{
				"type": "occ",
				"energy": -0.3026,
				"method": "rhf"
			},
			{
				"type": "occ",
				"energy": -0.29837,
				"method": "rhf"
			},
			{
				"type": "occ",
				"energy": -0.29299,
				"method": "rhf"
			},
			{
				"type": "occ",
				"energy": -0.23701,
				"method": "rhf"
			},
			{
				"type": "occ",
				"energy": -0.22624,
				"method": "rhf"
			},
			{
				"type": "unocc",
				"energy": -0.04275,
				"method": "rhf"
			},
			{
				"type": "unocc",
				"energy": -0.01881,
				"method": "rhf"
			},
			{
				"type": "unocc",
				"energy": -0.00849,
				"method": "rhf"
			},
			{
				"type": "unocc",
				"energy": 0.00505,
				"method": "rhf"
			},
			{
				"type": "unocc",
				"energy": 0.03039,
				"method": "rhf"
			}
		],
		"cosmo_sigma_profile": { 
			"-0.025": 0.0,
			"-0.024": 0.0,
			"-0.023": 0.0,
			"-0.022": 0.0,
			"-0.021": 0.0,
			"-0.02": 0.0,
			"-0.019": 0.0,
			"-0.018": 0.0,
			"-0.017": 0.0,
			"-0.016": 0.0,
			"-0.015": 0.0,
			"-0.014": 0.0,
			"-0.013": 0.0,
			"-0.012": 0.0,
			"-0.011": 0.0,
			"-0.01": 0.0,
			"-0.009": 0.257459754251,
			"-0.008": 4.47999043648,
			"-0.007": 6.68735810628,
			"-0.006": 7.08045675888,
			"-0.005": 9.62434331242,
			"-0.004": 9.96169108063,
			"-0.003": 13.5395354193,
			"-0.002": 14.1082923167,
			"-0.001": 21.8861876442,
			"0.0": 21.1607165023,
			"0.001": 27.1167335685,
			"0.002": 37.3057026417,
			"0.003": 30.9815431749,
			"0.004": 16.7087430059,
			"0.005": 7.92603866261,
			"0.006": 0.0605851210275,
			"0.007": 0.0,
			"0.008": 0.0,
			"0.009": 0.0,
			"0.01": 0.0,
			"0.011": 0.0,
			"0.012": 0.0,
			"0.013": 0.0,
			"0.014": 0.0,
			"0.015": 0.0,
			"0.016": 0.0,
			"0.017": 0.0,
			"0.018": 0.0,
			"0.019": 0.0,
			"0.02": 0.0,
			"0.021": 0.0,
			"0.022": 0.0,
			"0.023": 0.0,
			"0.024": 0.0,
			"0.025": 0.0
		}
	}
}
