{
	 "smiles": "CC(=O)NC(CC1=CC=C(Br)C=C1)C(O)=O", 
	 "Tm": 465.15, 
	 "num_atms": 28, 
	 "gaussian": { 
		 "optdone": 1, 
		 "sigma_profile": "yes", 
		 "theory": "DFT", 
		 "functional": "B3LYP", 
		 "basiset": "6-31G**", 
		 "properties": { 
			 "R2extent": 8199.2793, 
			 "electric_dipole_moment_norm": 6.40771877816, 
			 "electric_quadrupole_moment_norm": 17.6249975923, 
			 "total_energy": -3278.27133176, 
			 "HOMO_LUMO_gap": 0.22082, 
			 "cosmo_polarized_energy": -18.93, 
			 "cosmo_cavitation_energy": 34.37, 
			 "cosmo_dispersion_energy": -24.99, 
			 "cosmo_repulsion_energy": 1.97, 
			 "cosmo_total_nonelectrostatic_energy": 11.35, 
			 "SMD_solvation_energy": 5.8 
		},
		"coords": [
			{
				"x": 3.4722353818,
				"y": -2.344684842,
				"z": 3.2302650699,
				"element": "C" 
			},
			{
				"x": 2.1789746284,
				"y": -1.6225218469,
				"z": 2.9211339073,
				"element": "C" 
			},
			{
				"x": 1.2790417925,
				"y": -1.5172576964,
				"z": 3.7657044006,
				"element": "O" 
			},
			{
				"x": 2.0457675943,
				"y": -1.1035260482,
				"z": 1.6744481321,
				"element": "N" 
			},
			{
				"x": 0.7950596022,
				"y": -0.484938139,
				"z": 1.2091777717,
				"element": "C" 
			},
			{
				"x": 0.7491062396,
				"y": -0.4710716579,
				"z": -0.3287374057,
				"element": "C" 
			},
			{
				"x": -0.6522167006,
				"y": -0.3312088883,
				"z": -0.8922375268,
				"element": "C" 
			},
			{
				"x": -1.4022863697,
				"y": -1.4742057181,
				"z": -1.2002740599,
				"element": "C" 
			},
			{
				"x": -2.6960303122,
				"y": -1.3768422506,
				"z": -1.7123382258,
				"element": "C" 
			},
			{
				"x": -3.2455839959,
				"y": -0.1135701942,
				"z": -1.9204223219,
				"element": "C" 
			},
			{
				"x": -5.0159307198,
				"y": 0.0358567837,
				"z": -2.6282423281,
				"element": "Br" 
			},
			{
				"x": -2.5236961609,
				"y": 1.0408191355,
				"z": -1.6241209709,
				"element": "C" 
			},
			{
				"x": -1.2314482381,
				"y": 0.926156407,
				"z": -1.1107781448,
				"element": "C" 
			},
			{
				"x": 0.6533880035,
				"y": 0.9363727137,
				"z": 1.8149727165,
				"element": "C" 
			},
			{
				"x": 0.4772731693,
				"y": 0.9630335201,
				"z": 3.1380313661,
				"element": "O" 
			},
			{
				"x": 0.7109333575,
				"y": 1.9466071587,
				"z": 1.1494697425,
				"element": "O" 
			},
			{
				"x": 3.2342682582,
				"y": -3.3689456645,
				"z": 3.5299497583,
				"element": "H" 
			},
			{
				"x": 4.1704114493,
				"y": -2.3715640823,
				"z": 2.3900688079,
				"element": "H" 
			},
			{
				"x": 3.9525501561,
				"y": -1.8589944172,
				"z": 4.083784217,
				"element": "H" 
			},
			{
				"x": 2.8286471628,
				"y": -1.1273584137,
				"z": 1.0371827482,
				"element": "H" 
			},
			{
				"x": -0.0220153345,
				"y": -1.0999632072,
				"z": 1.6038430677,
				"element": "H" 
			},
			{
				"x": 1.3825495204,
				"y": 0.3473470628,
				"z": -0.6848477133,
				"element": "H" 
			},
			{
				"x": 1.1795170652,
				"y": -1.4147546589,
				"z": -0.6833616032,
				"element": "H" 
			},
			{
				"x": -0.9706282898,
				"y": -2.4605696496,
				"z": -1.0464612215,
				"element": "H" 
			},
			{
				"x": -3.2657152432,
				"y": -2.2677793597,
				"z": -1.9507602301,
				"element": "H" 
			},
			{
				"x": -2.9636321489,
				"y": 2.0174392594,
				"z": -1.7911853634,
				"element": "H" 
			},
			{
				"x": -0.6695252304,
				"y": 1.8198783475,
				"z": -0.8618834323,
				"element": "H" 
			},
			{
				"x": 0.5640853628,
				"y": 0.049346346,
				"z": 3.5116188416,
				"element": "H" 
			}
		],
		 "valence_orbital": [ 
			{
				"type": "occ",
				"energy": -0.28602,
				"method": "rhf"
			},
			{
				"type": "occ",
				"energy": -0.28515,
				"method": "rhf"
			},
			{
				"type": "occ",
				"energy": -0.26334,
				"method": "rhf"
			},
			{
				"type": "occ",
				"energy": -0.26263,
				"method": "rhf"
			},
			{
				"type": "occ",
				"energy": -0.23901,
				"method": "rhf"
			},
			{
				"type": "unocc",
				"energy": -0.01819,
				"method": "rhf"
			},
			{
				"type": "unocc",
				"energy": -0.01549,
				"method": "rhf"
			},
			{
				"type": "unocc",
				"energy": -0.01023,
				"method": "rhf"
			},
			{
				"type": "unocc",
				"energy": 0.00756,
				"method": "rhf"
			},
			{
				"type": "unocc",
				"energy": 0.01022,
				"method": "rhf"
			}
		],
		"cosmo_sigma_profile": { 
			"-0.025": 0.0,
			"-0.024": 0.0,
			"-0.023": 0.0,
			"-0.022": 0.0,
			"-0.021": 0.0,
			"-0.02": 0.0,
			"-0.019": 0.0,
			"-0.018": 0.0,
			"-0.017": 0.0,
			"-0.016": 0.138284730648,
			"-0.015": 1.09774998457,
			"-0.014": 1.54039016657,
			"-0.013": 1.68217446654,
			"-0.012": 1.42976201747,
			"-0.011": 1.75940994226,
			"-0.01": 1.4755022584,
			"-0.009": 1.29391366164,
			"-0.008": 3.33916184666,
			"-0.007": 7.78541797447,
			"-0.006": 17.2261403293,
			"-0.005": 19.5075590318,
			"-0.004": 21.5373823829,
			"-0.003": 20.9545619624,
			"-0.002": 22.7902870228,
			"-0.001": 15.4310502964,
			"0.0": 14.0282542309,
			"0.001": 14.7529548168,
			"0.002": 16.9737744963,
			"0.003": 21.017885829,
			"0.004": 22.9344119664,
			"0.005": 11.4538086819,
			"0.006": 3.89441183628,
			"0.007": 3.91357005399,
			"0.008": 3.70116834387,
			"0.009": 3.77380836908,
			"0.01": 5.27279353627,
			"0.011": 7.18426867598,
			"0.012": 4.67759822107,
			"0.013": 3.20762312752,
			"0.014": 0.566290403781,
			"0.015": 0.0,
			"0.016": 0.0,
			"0.017": 0.0,
			"0.018": 0.0,
			"0.019": 0.0,
			"0.02": 0.0,
			"0.021": 0.0,
			"0.022": 0.0,
			"0.023": 0.0,
			"0.024": 0.0,
			"0.025": 0.0
		}
	}
}
