{
	 "smiles": "O=C1CC(NCCN1)C1=CC=CC=C1", 
	 "Tm": 376.15, 
	 "num_atms": 28, 
	 "gaussian": { 
		 "optdone": 1, 
		 "sigma_profile": "yes", 
		 "theory": "DFT", 
		 "functional": "B3LYP", 
		 "basiset": "6-31G**", 
		 "properties": { 
			 "R2extent": 3226.2464, 
			 "electric_dipole_moment_norm": 3.38343189971, 
			 "electric_quadrupole_moment_norm": 13.4140651952, 
			 "total_energy": -612.337820663, 
			 "HOMO_LUMO_gap": 0.22506, 
			 "cosmo_polarized_energy": -14.57, 
			 "cosmo_cavitation_energy": 29.25, 
			 "cosmo_dispersion_energy": -21.66, 
			 "cosmo_repulsion_energy": 1.69, 
			 "cosmo_total_nonelectrostatic_energy": 9.29, 
			 "SMD_solvation_energy": 2.74 
		},
		"coords": [
			{
				"x": 2.3488192715,
				"y": -1.6984326692,
				"z": 0.492866786,
				"element": "O" 
			},
			{
				"x": 1.1509941569,
				"y": -1.9493697482,
				"z": 0.4064263836,
				"element": "C" 
			},
			{
				"x": 0.1329487639,
				"y": -1.5749905372,
				"z": 1.4797299742,
				"element": "C" 
			},
			{
				"x": -0.7953180633,
				"y": -0.3833271123,
				"z": 1.0486029581,
				"element": "C" 
			},
			{
				"x": -1.0269033825,
				"y": -0.2636126121,
				"z": -0.3997006435,
				"element": "N" 
			},
			{
				"x": -1.5615392908,
				"y": -1.4188642661,
				"z": -1.1056931215,
				"element": "C" 
			},
			{
				"x": -0.8008493299,
				"y": -2.7683396768,
				"z": -0.9162596385,
				"element": "C" 
			},
			{
				"x": 0.6244738333,
				"y": -2.5876299334,
				"z": -0.6872777362,
				"element": "N" 
			},
			{
				"x": -0.2990794043,
				"y": 0.9701064066,
				"z": 1.5477225032,
				"element": "C" 
			},
			{
				"x": -1.2348317091,
				"y": 1.96860638,
				"z": 1.8499464098,
				"element": "C" 
			},
			{
				"x": -0.822613087,
				"y": 3.2334751303,
				"z": 2.2661883289,
				"element": "C" 
			},
			{
				"x": 0.5397079919,
				"y": 3.5223534862,
				"z": 2.3779307489,
				"element": "C" 
			},
			{
				"x": 1.4793766662,
				"y": 2.5386637752,
				"z": 2.0702931547,
				"element": "C" 
			},
			{
				"x": 1.0657963861,
				"y": 1.268644291,
				"z": 1.6583080065,
				"element": "C" 
			},
			{
				"x": -0.4863053752,
				"y": -2.4493469936,
				"z": 1.7074999866,
				"element": "H" 
			},
			{
				"x": 0.6862801099,
				"y": -1.3269700297,
				"z": 2.3859887004,
				"element": "H" 
			},
			{
				"x": -1.7789355664,
				"y": -0.5629884425,
				"z": 1.5021263631,
				"element": "H" 
			},
			{
				"x": -0.177866692,
				"y": 0.0670293867,
				"z": -0.8491841739,
				"element": "H" 
			},
			{
				"x": -1.5729005849,
				"y": -1.1558298704,
				"z": -2.1690546334,
				"element": "H" 
			},
			{
				"x": -2.6078775887,
				"y": -1.570134803,
				"z": -0.8076551353,
				"element": "H" 
			},
			{
				"x": -0.9259746802,
				"y": -3.3958704545,
				"z": -1.8034204731,
				"element": "H" 
			},
			{
				"x": -1.2332730007,
				"y": -3.3313869149,
				"z": -0.0810739353,
				"element": "H" 
			},
			{
				"x": 1.28646457,
				"y": -2.77699425,
				"z": -1.4274502284,
				"element": "H" 
			},
			{
				"x": -2.2952458838,
				"y": 1.7493094095,
				"z": 1.7534351745,
				"element": "H" 
			},
			{
				"x": -1.5627842755,
				"y": 3.9924107759,
				"z": 2.5043880148,
				"element": "H" 
			},
			{
				"x": 0.8644306308,
				"y": 4.5064891053,
				"z": 2.7040014018,
				"element": "H" 
			},
			{
				"x": 2.540966392,
				"y": 2.7546234596,
				"z": 2.152959121,
				"element": "H" 
			},
			{
				"x": 1.811039142,
				"y": 0.5123767077,
				"z": 1.4265557034,
				"element": "H" 
			}
		],
		 "valence_orbital": [ 
			{
				"type": "occ",
				"energy": -0.25515,
				"method": "rhf"
			},
			{
				"type": "occ",
				"energy": -0.24439,
				"method": "rhf"
			},
			{
				"type": "occ",
				"energy": -0.24308,
				"method": "rhf"
			},
			{
				"type": "occ",
				"energy": -0.24044,
				"method": "rhf"
			},
			{
				"type": "occ",
				"energy": -0.22373,
				"method": "rhf"
			},
			{
				"type": "unocc",
				"energy": 0.00133,
				"method": "rhf"
			},
			{
				"type": "unocc",
				"energy": 0.0052,
				"method": "rhf"
			},
			{
				"type": "unocc",
				"energy": 0.02604,
				"method": "rhf"
			},
			{
				"type": "unocc",
				"energy": 0.06838,
				"method": "rhf"
			},
			{
				"type": "unocc",
				"energy": 0.07817,
				"method": "rhf"
			}
		],
		"cosmo_sigma_profile": { 
			"-0.025": 0.0,
			"-0.024": 0.0,
			"-0.023": 0.0,
			"-0.022": 0.0,
			"-0.021": 0.0,
			"-0.02": 0.0,
			"-0.019": 0.0,
			"-0.018": 0.0,
			"-0.017": 0.0,
			"-0.016": 0.0,
			"-0.015": 0.0,
			"-0.014": 0.179692081713,
			"-0.013": 1.33565153204,
			"-0.012": 0.758700237101,
			"-0.011": 1.15728585967,
			"-0.01": 1.30824212259,
			"-0.009": 2.01334128848,
			"-0.008": 2.39691408787,
			"-0.007": 2.68176646154,
			"-0.006": 10.3608752862,
			"-0.005": 20.6635587005,
			"-0.004": 27.2022713199,
			"-0.003": 26.0916360182,
			"-0.002": 18.7063084341,
			"-0.001": 15.533269606,
			"0.0": 12.0077154568,
			"0.001": 9.73935462361,
			"0.002": 10.5128342955,
			"0.003": 9.62169529732,
			"0.004": 10.9724862454,
			"0.005": 9.5572928025,
			"0.006": 9.92831806032,
			"0.007": 4.7602535325,
			"0.008": 3.09740356493,
			"0.009": 1.3931616203,
			"0.01": 1.41650048228,
			"0.011": 2.96616143028,
			"0.012": 2.19973418665,
			"0.013": 3.36601828359,
			"0.014": 5.36275391589,
			"0.015": 2.3337012295,
			"0.016": 0.415272250481,
			"0.017": 0.00800558614153,
			"0.018": 0.0,
			"0.019": 0.0,
			"0.02": 0.0,
			"0.021": 0.0,
			"0.022": 0.0,
			"0.023": 0.0,
			"0.024": 0.0,
			"0.025": 0.0
		}
	}
}
