{
	 "smiles": "COC1=C(OCC(=O)C2=CC(Cl)=C(Cl)C=C2)C=CC(C=O)=C1", 
	 "Tm": 411.15, 
	 "num_atms": 34, 
	 "gaussian": { 
		 "optdone": 1, 
		 "sigma_profile": "yes", 
		 "theory": "DFT", 
		 "functional": "B3LYP", 
		 "basiset": "6-31G**", 
		 "properties": { 
			 "R2extent": 14276.5924, 
			 "electric_dipole_moment_norm": 3.92622361182, 
			 "electric_quadrupole_moment_norm": 23.0442452445, 
			 "total_energy": -1838.17153376, 
			 "HOMO_LUMO_gap": 0.15081, 
			 "cosmo_polarized_energy": -17.0, 
			 "cosmo_cavitation_energy": 43.48, 
			 "cosmo_dispersion_energy": -30.7, 
			 "cosmo_repulsion_energy": 2.35, 
			 "cosmo_total_nonelectrostatic_energy": 15.13, 
			 "SMD_solvation_energy": 9.12 
		},
		"coords": [
			{
				"x": 1.615534309,
				"y": 0.364510272,
				"z": 3.1072942863,
				"element": "C" 
			},
			{
				"x": 1.2696457546,
				"y": 0.6173451163,
				"z": 1.7505141347,
				"element": "O" 
			},
			{
				"x": 1.4264692426,
				"y": -0.4007231351,
				"z": 0.8527343257,
				"element": "C" 
			},
			{
				"x": 1.124241283,
				"y": -0.0914511501,
				"z": -0.4990918478,
				"element": "C" 
			},
			{
				"x": 0.7759214455,
				"y": 1.182862558,
				"z": -0.8764667086,
				"element": "O" 
			},
			{
				"x": -0.4337041088,
				"y": 1.7203082115,
				"z": -0.3755944513,
				"element": "C" 
			},
			{
				"x": -1.6524506345,
				"y": 1.2432107093,
				"z": -1.1718974836,
				"element": "C" 
			},
			{
				"x": -1.5360379004,
				"y": 0.442245957,
				"z": -2.0819408577,
				"element": "O" 
			},
			{
				"x": -2.994336674,
				"y": 1.7972854554,
				"z": -0.7927719391,
				"element": "C" 
			},
			{
				"x": -4.1022106957,
				"y": 1.3646149996,
				"z": -1.5322274423,
				"element": "C" 
			},
			{
				"x": -5.3790299461,
				"y": 1.8341385907,
				"z": -1.2429207742,
				"element": "C" 
			},
			{
				"x": -6.7258093651,
				"y": 1.2637284539,
				"z": -2.1941796942,
				"element": "Cl" 
			},
			{
				"x": -5.5610490853,
				"y": 2.7538919433,
				"z": -0.1962764134,
				"element": "C" 
			},
			{
				"x": -7.1382936254,
				"y": 3.3725053317,
				"z": 0.206536927,
				"element": "Cl" 
			},
			{
				"x": -4.4590160195,
				"y": 3.1885343479,
				"z": 0.5446769063,
				"element": "C" 
			},
			{
				"x": -3.1843559143,
				"y": 2.7150963701,
				"z": 0.2505457097,
				"element": "C" 
			},
			{
				"x": 1.2788233253,
				"y": -1.0566099838,
				"z": -1.4905103607,
				"element": "C" 
			},
			{
				"x": 1.7275127895,
				"y": -2.335049076,
				"z": -1.1636151696,
				"element": "C" 
			},
			{
				"x": 2.0126476166,
				"y": -2.6503365206,
				"z": 0.1675009097,
				"element": "C" 
			},
			{
				"x": 2.4804514507,
				"y": -4.0032961963,
				"z": 0.5280049579,
				"element": "C" 
			},
			{
				"x": 2.7517965816,
				"y": -4.365063746,
				"z": 1.6592262066,
				"element": "O" 
			},
			{
				"x": 1.8598539862,
				"y": -1.6817018568,
				"z": 1.1743651982,
				"element": "C" 
			},
			{
				"x": 2.6696368671,
				"y": 0.0785223213,
				"z": 3.2030486313,
				"element": "H" 
			},
			{
				"x": 1.4449142106,
				"y": 1.3012968282,
				"z": 3.6394662219,
				"element": "H" 
			},
			{
				"x": 0.9884303077,
				"y": -0.4224043289,
				"z": 3.5438883917,
				"element": "H" 
			},
			{
				"x": -0.5658478751,
				"y": 1.4954744564,
				"z": 0.6890072192,
				"element": "H" 
			},
			{
				"x": -0.3470639014,
				"y": 2.8087617242,
				"z": -0.4719581062,
				"element": "H" 
			},
			{
				"x": -3.9466618698,
				"y": 0.6549740617,
				"z": -2.3367692834,
				"element": "H" 
			},
			{
				"x": -4.6142586277,
				"y": 3.8981461808,
				"z": 1.3494877242,
				"element": "H" 
			},
			{
				"x": -2.3486683952,
				"y": 3.0699374578,
				"z": 0.8438915067,
				"element": "H" 
			},
			{
				"x": 1.023110315,
				"y": -0.7783622835,
				"z": -2.5058678243,
				"element": "H" 
			},
			{
				"x": 1.8449955695,
				"y": -3.0888408574,
				"z": -1.9375766874,
				"element": "H" 
			},
			{
				"x": 2.5749589704,
				"y": -4.7029304398,
				"z": -0.3320277705,
				"element": "H" 
			},
			{
				"x": 2.1036506132,
				"y": -1.9700217729,
				"z": 2.1899035573,
				"element": "H" 
			}
		],
		 "valence_orbital": [ 
			{
				"type": "occ",
				"energy": -0.27351,
				"method": "rhf"
			},
			{
				"type": "occ",
				"energy": -0.26695,
				"method": "rhf"
			},
			{
				"type": "occ",
				"energy": -0.25214,
				"method": "rhf"
			},
			{
				"type": "occ",
				"energy": -0.25016,
				"method": "rhf"
			},
			{
				"type": "occ",
				"energy": -0.23079,
				"method": "rhf"
			},
			{
				"type": "unocc",
				"energy": -0.07998,
				"method": "rhf"
			},
			{
				"type": "unocc",
				"energy": -0.05869,
				"method": "rhf"
			},
			{
				"type": "unocc",
				"energy": -0.03947,
				"method": "rhf"
			},
			{
				"type": "unocc",
				"energy": -0.00827,
				"method": "rhf"
			},
			{
				"type": "unocc",
				"energy": -0.00285,
				"method": "rhf"
			}
		],
		"cosmo_sigma_profile": { 
			"-0.025": 0.0,
			"-0.024": 0.0,
			"-0.023": 0.0,
			"-0.022": 0.0,
			"-0.021": 0.0,
			"-0.02": 0.0,
			"-0.019": 0.0,
			"-0.018": 0.0,
			"-0.017": 0.0,
			"-0.016": 0.0,
			"-0.015": 0.0,
			"-0.014": 0.0,
			"-0.013": 0.0,
			"-0.012": 0.0,
			"-0.011": 0.0,
			"-0.01": 0.355257285613,
			"-0.009": 5.44252084906,
			"-0.008": 8.94811622697,
			"-0.007": 13.6689681962,
			"-0.006": 21.9062242242,
			"-0.005": 20.1089317671,
			"-0.004": 21.914899797,
			"-0.003": 22.0805304524,
			"-0.002": 20.2601077105,
			"-0.001": 26.6117386178,
			"0.0": 34.7415734359,
			"0.001": 29.3515689276,
			"0.002": 27.7291798624,
			"0.003": 30.0333980554,
			"0.004": 19.9101718246,
			"0.005": 7.59270523065,
			"0.006": 5.30010072816,
			"0.007": 6.49538033867,
			"0.008": 6.86878939729,
			"0.009": 7.87504042648,
			"0.01": 5.89784000711,
			"0.011": 5.57401077068,
			"0.012": 3.45097184995,
			"0.013": 1.11238907808,
			"0.014": 0.0421805212393,
			"0.015": 0.0,
			"0.016": 0.0,
			"0.017": 0.0,
			"0.018": 0.0,
			"0.019": 0.0,
			"0.02": 0.0,
			"0.021": 0.0,
			"0.022": 0.0,
			"0.023": 0.0,
			"0.024": 0.0,
			"0.025": 0.0
		}
	}
}
