{
	 "smiles": "CC1=CSC(NC2=CC=CC=C2)=N1", 
	 "Tm": 348.15, 
	 "num_atms": 23, 
	 "gaussian": { 
		 "optdone": 1, 
		 "sigma_profile": "yes", 
		 "theory": "DFT", 
		 "functional": "B3LYP", 
		 "basiset": "6-31G**", 
		 "properties": { 
			 "R2extent": 3453.0594, 
			 "electric_dipole_moment_norm": 0.46717804957, 
			 "electric_quadrupole_moment_norm": 10.9881105473, 
			 "total_energy": -894.781552764, 
			 "HOMO_LUMO_gap": 0.17648, 
			 "cosmo_polarized_energy": -8.4, 
			 "cosmo_cavitation_energy": 28.31, 
			 "cosmo_dispersion_energy": -21.73, 
			 "cosmo_repulsion_energy": 1.67, 
			 "cosmo_total_nonelectrostatic_energy": 8.24, 
			 "SMD_solvation_energy": 3.33 
		},
		"coords": [
			{
				"x": -3.5005863796,
				"y": -3.1419081024,
				"z": -0.5652612518,
				"element": "C" 
			},
			{
				"x": -2.1681846524,
				"y": -2.4767953864,
				"z": -0.3841020032,
				"element": "C" 
			},
			{
				"x": -0.9734491634,
				"y": -3.1145117381,
				"z": -0.2309835351,
				"element": "C" 
			},
			{
				"x": 0.3201320488,
				"y": -1.9527761056,
				"z": -0.0478417963,
				"element": "S" 
			},
			{
				"x": -0.8904371381,
				"y": -0.671044635,
				"z": -0.1861801829,
				"element": "C" 
			},
			{
				"x": -0.6143681497,
				"y": 0.674649676,
				"z": -0.1972806055,
				"element": "N" 
			},
			{
				"x": 0.5633677991,
				"y": 1.3935809029,
				"z": 0.0418789873,
				"element": "C" 
			},
			{
				"x": 0.6253347175,
				"y": 2.7153901907,
				"z": -0.4367704519,
				"element": "C" 
			},
			{
				"x": 1.7570256639,
				"y": 3.4936850396,
				"z": -0.2198927726,
				"element": "C" 
			},
			{
				"x": 2.8554837195,
				"y": 2.9723870713,
				"z": 0.469187134,
				"element": "C" 
			},
			{
				"x": 2.7930280017,
				"y": 1.6653115745,
				"z": 0.9503251527,
				"element": "C" 
			},
			{
				"x": 1.6585203481,
				"y": 0.877054151,
				"z": 0.7521685315,
				"element": "C" 
			},
			{
				"x": -2.11492594,
				"y": -1.0959319299,
				"z": -0.3562214554,
				"element": "N" 
			},
			{
				"x": -4.1896322537,
				"y": -2.84988058,
				"z": 0.2346793661,
				"element": "H" 
			},
			{
				"x": -3.9584396854,
				"y": -2.8368982063,
				"z": -1.5125764013,
				"element": "H" 
			},
			{
				"x": -3.4045801081,
				"y": -4.2303708747,
				"z": -0.5612302825,
				"element": "H" 
			},
			{
				"x": -0.7681739137,
				"y": -4.1743532369,
				"z": -0.1941065491,
				"element": "H" 
			},
			{
				"x": -1.423963284,
				"y": 1.2135198986,
				"z": -0.4752367792,
				"element": "H" 
			},
			{
				"x": -0.2190779698,
				"y": 3.1226699261,
				"z": -0.9875483147,
				"element": "H" 
			},
			{
				"x": 1.7824381927,
				"y": 4.5112753797,
				"z": -0.5990883329,
				"element": "H" 
			},
			{
				"x": 3.7417995432,
				"y": 3.5775730909,
				"z": 0.630932034,
				"element": "H" 
			},
			{
				"x": 3.6310359195,
				"y": 1.2479837506,
				"z": 1.5013214626,
				"element": "H" 
			},
			{
				"x": 1.621252684,
				"y": -0.1178098567,
				"z": 1.1781280462,
				"element": "H" 
			}
		],
		 "valence_orbital": [ 
			{
				"type": "occ",
				"energy": -0.27352,
				"method": "rhf"
			},
			{
				"type": "occ",
				"energy": -0.27149,
				"method": "rhf"
			},
			{
				"type": "occ",
				"energy": -0.25511,
				"method": "rhf"
			},
			{
				"type": "occ",
				"energy": -0.24461,
				"method": "rhf"
			},
			{
				"type": "occ",
				"energy": -0.19377,
				"method": "rhf"
			},
			{
				"type": "unocc",
				"energy": -0.01729,
				"method": "rhf"
			},
			{
				"type": "unocc",
				"energy": -0.00764,
				"method": "rhf"
			},
			{
				"type": "unocc",
				"energy": 0.02181,
				"method": "rhf"
			},
			{
				"type": "unocc",
				"energy": 0.0287,
				"method": "rhf"
			},
			{
				"type": "unocc",
				"energy": 0.06219,
				"method": "rhf"
			}
		],
		"cosmo_sigma_profile": { 
			"-0.025": 0.0,
			"-0.024": 0.0,
			"-0.023": 0.0,
			"-0.022": 0.0,
			"-0.021": 0.0,
			"-0.02": 0.0,
			"-0.019": 0.0,
			"-0.018": 0.0,
			"-0.017": 0.0,
			"-0.016": 0.0,
			"-0.015": 0.332375170322,
			"-0.014": 0.971213186166,
			"-0.013": 1.23142829861,
			"-0.012": 0.584251153955,
			"-0.011": 1.19346465536,
			"-0.01": 1.47938957048,
			"-0.009": 1.15807419795,
			"-0.008": 2.27288340099,
			"-0.007": 3.27968075723,
			"-0.006": 7.73793342154,
			"-0.005": 14.6391082141,
			"-0.004": 18.3489850164,
			"-0.003": 16.6373885287,
			"-0.002": 15.7627586214,
			"-0.001": 16.9816475551,
			"0.0": 18.8060167372,
			"0.001": 18.4134311125,
			"0.002": 18.5150923367,
			"0.003": 19.1807193653,
			"0.004": 18.3359725383,
			"0.005": 15.075293512,
			"0.006": 8.52970349958,
			"0.007": 1.1856446394,
			"0.008": 0.932118179803,
			"0.009": 1.47190963193,
			"0.01": 1.15356719438,
			"0.011": 0.86967602015,
			"0.012": 1.29533199305,
			"0.013": 0.783455196513,
			"0.014": 0.53377323397,
			"0.015": 0.824173739271,
			"0.016": 0.0216987126336,
			"0.017": 0.0,
			"0.018": 0.0,
			"0.019": 0.0,
			"0.02": 0.0,
			"0.021": 0.0,
			"0.022": 0.0,
			"0.023": 0.0,
			"0.024": 0.0,
			"0.025": 0.0
		}
	}
}
