{
	 "smiles": "COC1=CC=C(NCCC(O)=O)C=C1", 
	 "Tm": 356.15, 
	 "num_atms": 27, 
	 "gaussian": { 
		 "optdone": 1, 
		 "sigma_profile": "yes", 
		 "theory": "DFT", 
		 "functional": "B3LYP", 
		 "basiset": "6-31G**", 
		 "properties": { 
			 "R2extent": 4230.4497, 
			 "electric_dipole_moment_norm": 6.21218309534, 
			 "electric_quadrupole_moment_norm": 27.5098726529, 
			 "total_energy": -669.321634463, 
			 "HOMO_LUMO_gap": 0.1937, 
			 "cosmo_polarized_energy": -18.54, 
			 "cosmo_cavitation_energy": 30.29, 
			 "cosmo_dispersion_energy": -22.14, 
			 "cosmo_repulsion_energy": 1.74, 
			 "cosmo_total_nonelectrostatic_energy": 9.9, 
			 "SMD_solvation_energy": 7.18 
		},
		"coords": [
			{
				"x": 2.3143253205,
				"y": -1.7600570133,
				"z": -4.5631741271,
				"element": "C" 
			},
			{
				"x": 2.4057311924,
				"y": -0.4746343676,
				"z": -3.9720144348,
				"element": "O" 
			},
			{
				"x": 1.5859384103,
				"y": -0.194266362,
				"z": -2.9154234899,
				"element": "C" 
			},
			{
				"x": 0.652273242,
				"y": -1.0747375897,
				"z": -2.3672783565,
				"element": "C" 
			},
			{
				"x": -0.1413459649,
				"y": -0.6773678033,
				"z": -1.2826777377,
				"element": "C" 
			},
			{
				"x": -0.0096101378,
				"y": 0.5961322903,
				"z": -0.725648163,
				"element": "C" 
			},
			{
				"x": -0.7604407837,
				"y": 1.0436740936,
				"z": 0.401860193,
				"element": "N" 
			},
			{
				"x": -1.9389109216,
				"y": 0.2842540846,
				"z": 0.8534218821,
				"element": "C" 
			},
			{
				"x": -1.5741608919,
				"y": -0.8295175143,
				"z": 1.8528284766,
				"element": "C" 
			},
			{
				"x": -0.9463997134,
				"y": -0.3396305387,
				"z": 3.1612259418,
				"element": "C" 
			},
			{
				"x": -0.0320148117,
				"y": 0.6402981124,
				"z": 3.0283973995,
				"element": "O" 
			},
			{
				"x": -1.2240314227,
				"y": -0.8103209605,
				"z": 4.239070237,
				"element": "O" 
			},
			{
				"x": 0.9401137466,
				"y": 1.472399308,
				"z": -1.2824281793,
				"element": "C" 
			},
			{
				"x": 1.7196142459,
				"y": 1.089175644,
				"z": -2.3615151147,
				"element": "C" 
			},
			{
				"x": 3.0461749425,
				"y": -1.7739368373,
				"z": -5.3722587474,
				"element": "H" 
			},
			{
				"x": 1.3149607416,
				"y": -1.9458456405,
				"z": -4.9786213775,
				"element": "H" 
			},
			{
				"x": 2.556022746,
				"y": -2.5549353432,
				"z": -3.8452876541,
				"element": "H" 
			},
			{
				"x": 0.5217865302,
				"y": -2.0722651132,
				"z": -2.7695131549,
				"element": "H" 
			},
			{
				"x": -0.8617036711,
				"y": -1.3848057879,
				"z": -0.8882785453,
				"element": "H" 
			},
			{
				"x": -0.9730671241,
				"y": 2.0308613913,
				"z": 0.3118108323,
				"element": "H" 
			},
			{
				"x": -2.4884956157,
				"y": -0.1434119727,
				"z": 0.0039065721,
				"element": "H" 
			},
			{
				"x": -2.6126153645,
				"y": 0.9952733914,
				"z": 1.341403534,
				"element": "H" 
			},
			{
				"x": -0.8654199074,
				"y": -1.5269450349,
				"z": 1.3894313893,
				"element": "H" 
			},
			{
				"x": -2.4658125021,
				"y": -1.4022106509,
				"z": 2.1171792382,
				"element": "H" 
			},
			{
				"x": 0.0118096559,
				"y": 0.8997787402,
				"z": 2.0757486246,
				"element": "H" 
			},
			{
				"x": 1.065902625,
				"y": 2.4651932189,
				"z": -0.8566988842,
				"element": "H" 
			},
			{
				"x": 2.4477754336,
				"y": 1.7678482548,
				"z": -2.7932663539,
				"element": "H" 
			}
		],
		 "valence_orbital": [ 
			{
				"type": "occ",
				"energy": -0.29358,
				"method": "rhf"
			},
			{
				"type": "occ",
				"energy": -0.28703,
				"method": "rhf"
			},
			{
				"type": "occ",
				"energy": -0.26251,
				"method": "rhf"
			},
			{
				"type": "occ",
				"energy": -0.2505,
				"method": "rhf"
			},
			{
				"type": "occ",
				"energy": -0.20883,
				"method": "rhf"
			},
			{
				"type": "unocc",
				"energy": -0.01513,
				"method": "rhf"
			},
			{
				"type": "unocc",
				"energy": 0.00888,
				"method": "rhf"
			},
			{
				"type": "unocc",
				"energy": 0.02528,
				"method": "rhf"
			},
			{
				"type": "unocc",
				"energy": 0.06193,
				"method": "rhf"
			},
			{
				"type": "unocc",
				"energy": 0.08194,
				"method": "rhf"
			}
		],
		"cosmo_sigma_profile": { 
			"-0.025": 0.0,
			"-0.024": 0.0,
			"-0.023": 0.0,
			"-0.022": 0.0,
			"-0.021": 0.0,
			"-0.02": 0.0,
			"-0.019": 0.0,
			"-0.018": 0.0,
			"-0.017": 0.0,
			"-0.016": 0.0,
			"-0.015": 0.0,
			"-0.014": 0.288389071818,
			"-0.013": 1.16815628872,
			"-0.012": 1.78522845049,
			"-0.011": 1.38966600243,
			"-0.01": 1.25050932077,
			"-0.009": 2.21201145884,
			"-0.008": 2.53058951933,
			"-0.007": 6.57839010937,
			"-0.006": 18.941125735,
			"-0.005": 26.0490516159,
			"-0.004": 25.2822573952,
			"-0.003": 24.1997970818,
			"-0.002": 14.4137525692,
			"-0.001": 9.0206878889,
			"0.0": 8.28716701739,
			"0.001": 7.15369380624,
			"0.002": 10.0764654983,
			"0.003": 7.92108557991,
			"0.004": 12.1137921213,
			"0.005": 12.1439033026,
			"0.006": 9.90766483076,
			"0.007": 4.21207432117,
			"0.008": 4.19662339391,
			"0.009": 4.27781355655,
			"0.01": 3.96312885187,
			"0.011": 6.21088633763,
			"0.012": 6.84434044203,
			"0.013": 5.2449460112,
			"0.014": 1.84010552871,
			"0.015": 0.0303874068315,
			"0.016": 0.0,
			"0.017": 0.0,
			"0.018": 0.0,
			"0.019": 0.0,
			"0.02": 0.0,
			"0.021": 0.0,
			"0.022": 0.0,
			"0.023": 0.0,
			"0.024": 0.0,
			"0.025": 0.0
		}
	}
}
