{
	 "smiles": "CN(CC(O)=O)S(=O)(=O)C1=CC2=C(OCCO2)C=C1", 
	 "Tm": 415.15, 
	 "num_atms": 32, 
	 "gaussian": { 
		 "optdone": 1, 
		 "sigma_profile": "yes", 
		 "theory": "DFT", 
		 "functional": "B3LYP", 
		 "basiset": "6-31G**", 
		 "properties": { 
			 "R2extent": 7114.772, 
			 "electric_dipole_moment_norm": 9.33175723055, 
			 "electric_quadrupole_moment_norm": 30.5037890368, 
			 "total_energy": -1331.20269057, 
			 "HOMO_LUMO_gap": 0.19509, 
			 "cosmo_polarized_energy": -21.52, 
			 "cosmo_cavitation_energy": 36.49, 
			 "cosmo_dispersion_energy": -26.77, 
			 "cosmo_repulsion_energy": 2.01, 
			 "cosmo_total_nonelectrostatic_energy": 11.73, 
			 "SMD_solvation_energy": 6.93 
		},
		"coords": [
			{
				"x": -2.9113186708,
				"y": 0.5570952406,
				"z": 2.6248330414,
				"element": "C" 
			},
			{
				"x": -1.7151585271,
				"y": -0.2608479373,
				"z": 2.8428132765,
				"element": "N" 
			},
			{
				"x": -1.7568677903,
				"y": -1.6547350155,
				"z": 2.3742737522,
				"element": "C" 
			},
			{
				"x": -1.8828057786,
				"y": -2.6782829239,
				"z": 3.5178839664,
				"element": "C" 
			},
			{
				"x": -1.0043522304,
				"y": -2.5548968284,
				"z": 4.5192504397,
				"element": "O" 
			},
			{
				"x": -2.7131826427,
				"y": -3.5565175179,
				"z": 3.4877663923,
				"element": "O" 
			},
			{
				"x": -0.2189032664,
				"y": 0.4917786668,
				"z": 2.9257914246,
				"element": "S" 
			},
			{
				"x": 0.6606253163,
				"y": -0.5342445518,
				"z": 3.5245030428,
				"element": "O" 
			},
			{
				"x": -0.4323891925,
				"y": 1.7912427474,
				"z": 3.5603090059,
				"element": "O" 
			},
			{
				"x": 0.370004555,
				"y": 0.770834928,
				"z": 1.2622140371,
				"element": "C" 
			},
			{
				"x": 1.2077742968,
				"y": -0.1718025877,
				"z": 0.6620180907,
				"element": "C" 
			},
			{
				"x": 1.622814487,
				"y": 0.0259791145,
				"z": -0.6532850958,
				"element": "C" 
			},
			{
				"x": 1.1842692993,
				"y": 1.1610359594,
				"z": -1.3645191571,
				"element": "C" 
			},
			{
				"x": 1.550016749,
				"y": 1.3836973658,
				"z": -2.65996107,
				"element": "O" 
			},
			{
				"x": 2.1330541437,
				"y": 0.2519457552,
				"z": -3.31610395,
				"element": "C" 
			},
			{
				"x": 3.1255744138,
				"y": -0.4346704905,
				"z": -2.393839068,
				"element": "C" 
			},
			{
				"x": 2.4585184439,
				"y": -0.8994383344,
				"z": -1.2170929167,
				"element": "O" 
			},
			{
				"x": 0.366633652,
				"y": 2.1058550322,
				"z": -0.7375437229,
				"element": "C" 
			},
			{
				"x": -0.0439263538,
				"y": 1.9201463435,
				"z": 0.5777937169,
				"element": "C" 
			},
			{
				"x": -3.7658029078,
				"y": 0.0362110455,
				"z": 3.0645870647,
				"element": "H" 
			},
			{
				"x": -2.7892122834,
				"y": 1.5104600449,
				"z": 3.1377168931,
				"element": "H" 
			},
			{
				"x": -3.1109770161,
				"y": 0.731509339,
				"z": 1.5581483965,
				"element": "H" 
			},
			{
				"x": -0.8630687187,
				"y": -1.8966706874,
				"z": 1.787271773,
				"element": "H" 
			},
			{
				"x": -2.6208324376,
				"y": -1.7902844188,
				"z": 1.7214683379,
				"element": "H" 
			},
			{
				"x": -0.3742705053,
				"y": -1.8223883074,
				"z": 4.345807095,
				"element": "H" 
			},
			{
				"x": 1.5741876609,
				"y": -1.0306807904,
				"z": 1.2119455422,
				"element": "H" 
			},
			{
				"x": 2.621322746,
				"y": 0.6362480623,
				"z": -4.2144649936,
				"element": "H" 
			},
			{
				"x": 1.3420505729,
				"y": -0.4502828378,
				"z": -3.6093277288,
				"element": "H" 
			},
			{
				"x": 3.9276261595,
				"y": 0.2613844225,
				"z": -2.1151805735,
				"element": "H" 
			},
			{
				"x": 3.5647662548,
				"y": -1.3153228195,
				"z": -2.8676448626,
				"element": "H" 
			},
			{
				"x": 0.0659267855,
				"y": 2.9809658261,
				"z": -1.3038572734,
				"element": "H" 
			},
			{
				"x": -0.6568972151,
				"y": 2.6621761553,
				"z": 1.0758251234,
				"element": "H" 
			}
		],
		 "valence_orbital": [ 
			{
				"type": "occ",
				"energy": -0.30073,
				"method": "rhf"
			},
			{
				"type": "occ",
				"energy": -0.29117,
				"method": "rhf"
			},
			{
				"type": "occ",
				"energy": -0.26755,
				"method": "rhf"
			},
			{
				"type": "occ",
				"energy": -0.25246,
				"method": "rhf"
			},
			{
				"type": "occ",
				"energy": -0.23935,
				"method": "rhf"
			},
			{
				"type": "unocc",
				"energy": -0.04426,
				"method": "rhf"
			},
			{
				"type": "unocc",
				"energy": -0.02831,
				"method": "rhf"
			},
			{
				"type": "unocc",
				"energy": 0.0126,
				"method": "rhf"
			},
			{
				"type": "unocc",
				"energy": 0.04554,
				"method": "rhf"
			},
			{
				"type": "unocc",
				"energy": 0.06743,
				"method": "rhf"
			}
		],
		"cosmo_sigma_profile": { 
			"-0.025": 0.0,
			"-0.024": 0.0,
			"-0.023": 0.0,
			"-0.022": 0.0,
			"-0.021": 0.0,
			"-0.02": 0.0,
			"-0.019": 0.0,
			"-0.018": 0.0,
			"-0.017": 0.0,
			"-0.016": 0.0,
			"-0.015": 0.0,
			"-0.014": 0.0,
			"-0.013": 0.0,
			"-0.012": 0.0,
			"-0.011": 0.0,
			"-0.01": 0.273323675692,
			"-0.009": 1.56848518635,
			"-0.008": 7.47863080165,
			"-0.007": 21.2421333984,
			"-0.006": 26.6217661209,
			"-0.005": 27.2400035886,
			"-0.004": 23.9685248361,
			"-0.003": 20.308437355,
			"-0.002": 12.9253490821,
			"-0.001": 10.674088583,
			"0.0": 14.735342215,
			"0.001": 18.8179153314,
			"0.002": 16.6640464287,
			"0.003": 12.3448593275,
			"0.004": 7.5386865377,
			"0.005": 6.71936682443,
			"0.006": 7.68140830852,
			"0.007": 8.03578710118,
			"0.008": 7.86296319987,
			"0.009": 9.33722458325,
			"0.01": 11.8291125871,
			"0.011": 8.52344748872,
			"0.012": 5.49646420918,
			"0.013": 2.29276240656,
			"0.014": 0.0921936080491,
			"0.015": 0.0,
			"0.016": 0.0,
			"0.017": 0.0,
			"0.018": 0.0,
			"0.019": 0.0,
			"0.02": 0.0,
			"0.021": 0.0,
			"0.022": 0.0,
			"0.023": 0.0,
			"0.024": 0.0,
			"0.025": 0.0
		}
	}
}
