{
	 "smiles": "CC1(NC(=O)NC1=O)C1=CC=C(Br)C=C1", 
	 "Tm": 536.15, 
	 "num_atms": 24, 
	 "gaussian": { 
		 "optdone": 1, 
		 "sigma_profile": "yes", 
		 "theory": "DFT", 
		 "functional": "B3LYP", 
		 "basiset": "6-31G**", 
		 "properties": { 
			 "R2extent": 7980.7395, 
			 "electric_dipole_moment_norm": 2.2396464654, 
			 "electric_quadrupole_moment_norm": 9.46772761913, 
			 "total_energy": -3217.88685059, 
			 "HOMO_LUMO_gap": 0.21354, 
			 "cosmo_polarized_energy": -16.72, 
			 "cosmo_cavitation_energy": 30.65, 
			 "cosmo_dispersion_energy": -22.35, 
			 "cosmo_repulsion_energy": 1.76, 
			 "cosmo_total_nonelectrostatic_energy": 10.06, 
			 "SMD_solvation_energy": 5.78 
		},
		"coords": [
			{
				"x": 0.2695530153,
				"y": -1.4756149417,
				"z": 1.015505392,
				"element": "C" 
			},
			{
				"x": -0.3508705353,
				"y": -0.1768172858,
				"z": 1.5719853483,
				"element": "C" 
			},
			{
				"x": -0.7658534899,
				"y": -0.3356458442,
				"z": 2.964743276,
				"element": "N" 
			},
			{
				"x": -2.1299943091,
				"y": -0.3245009881,
				"z": 3.1420865744,
				"element": "C" 
			},
			{
				"x": -2.7613101576,
				"y": -0.5407959061,
				"z": 4.153645848,
				"element": "O" 
			},
			{
				"x": -2.668648863,
				"y": -0.0041149482,
				"z": 1.8785650354,
				"element": "N" 
			},
			{
				"x": -1.7227983351,
				"y": 0.0676371052,
				"z": 0.8819524381,
				"element": "C" 
			},
			{
				"x": -1.9138821713,
				"y": 0.2585121496,
				"z": -0.3001012049,
				"element": "O" 
			},
			{
				"x": 0.5776116807,
				"y": 1.0242215445,
				"z": 1.3569643824,
				"element": "C" 
			},
			{
				"x": 1.0802199443,
				"y": 1.7597051266,
				"z": 2.434749477,
				"element": "C" 
			},
			{
				"x": 1.9514143018,
				"y": 2.8312699673,
				"z": 2.2300624969,
				"element": "C" 
			},
			{
				"x": 2.3139903832,
				"y": 3.1743277244,
				"z": 0.9308049055,
				"element": "C" 
			},
			{
				"x": 3.5078172072,
				"y": 4.637629745,
				"z": 0.6395846195,
				"element": "Br" 
			},
			{
				"x": 1.8128238172,
				"y": 2.467764654,
				"z": -0.1617333947,
				"element": "C" 
			},
			{
				"x": 0.9496745962,
				"y": 1.3958979235,
				"z": 0.056312155,
				"element": "C" 
			},
			{
				"x": -0.4031535989,
				"y": -2.3226936406,
				"z": 1.180087154,
				"element": "H" 
			},
			{
				"x": 1.2231359466,
				"y": -1.6777636645,
				"z": 1.5127063818,
				"element": "H" 
			},
			{
				"x": 0.4528903571,
				"y": -1.3815615429,
				"z": -0.0564751807,
				"element": "H" 
			},
			{
				"x": -0.1921868826,
				"y": -0.785149015,
				"z": 3.66276353,
				"element": "H" 
			},
			{
				"x": -3.6625895975,
				"y": 0.0915642219,
				"z": 1.7256105211,
				"element": "H" 
			},
			{
				"x": 0.7829595119,
				"y": 1.5069730206,
				"z": 3.4465132984,
				"element": "H" 
			},
			{
				"x": 2.3381767702,
				"y": 3.3932252955,
				"z": 3.0725296012,
				"element": "H" 
			},
			{
				"x": 2.089950754,
				"y": 2.7528938349,
				"z": -1.1701711036,
				"element": "H" 
			},
			{
				"x": 0.5366696545,
				"y": 0.8672354641,
				"z": -0.7954915512,
				"element": "H" 
			}
		],
		 "valence_orbital": [ 
			{
				"type": "occ",
				"energy": -0.29066,
				"method": "rhf"
			},
			{
				"type": "occ",
				"energy": -0.28075,
				"method": "rhf"
			},
			{
				"type": "occ",
				"energy": -0.27235,
				"method": "rhf"
			},
			{
				"type": "occ",
				"energy": -0.26832,
				"method": "rhf"
			},
			{
				"type": "occ",
				"energy": -0.24532,
				"method": "rhf"
			},
			{
				"type": "unocc",
				"energy": -0.03178,
				"method": "rhf"
			},
			{
				"type": "unocc",
				"energy": -0.02083,
				"method": "rhf"
			},
			{
				"type": "unocc",
				"energy": -0.0088,
				"method": "rhf"
			},
			{
				"type": "unocc",
				"energy": 0.00419,
				"method": "rhf"
			},
			{
				"type": "unocc",
				"energy": 0.05018,
				"method": "rhf"
			}
		],
		"cosmo_sigma_profile": { 
			"-0.025": 0.0,
			"-0.024": 0.0,
			"-0.023": 0.0,
			"-0.022": 0.0,
			"-0.021": 0.0,
			"-0.02": 0.0,
			"-0.019": 0.0,
			"-0.018": 0.0131626815962,
			"-0.017": 0.748983747614,
			"-0.016": 1.23557392206,
			"-0.015": 2.40799987642,
			"-0.014": 1.75012619276,
			"-0.013": 1.84779774305,
			"-0.012": 2.10190899996,
			"-0.011": 2.34590583091,
			"-0.01": 2.19759584473,
			"-0.009": 1.90537058834,
			"-0.008": 2.36153801442,
			"-0.007": 6.75350519112,
			"-0.006": 12.0542495773,
			"-0.005": 15.5589824185,
			"-0.004": 14.3416334701,
			"-0.003": 16.7529279526,
			"-0.002": 18.0329211407,
			"-0.001": 16.1332346218,
			"0.0": 14.272280375,
			"0.001": 14.6764464182,
			"0.002": 18.3543764275,
			"0.003": 21.1768489497,
			"0.004": 17.5725099198,
			"0.005": 9.54411580863,
			"0.006": 2.58976376594,
			"0.007": 2.38375376278,
			"0.008": 2.83351196144,
			"0.009": 2.15926634592,
			"0.01": 4.47812570679,
			"0.011": 5.22806998252,
			"0.012": 8.37589406392,
			"0.013": 5.15292766727,
			"0.014": 0.334679947575,
			"0.015": 0.0,
			"0.016": 0.0,
			"0.017": 0.0,
			"0.018": 0.0,
			"0.019": 0.0,
			"0.02": 0.0,
			"0.021": 0.0,
			"0.022": 0.0,
			"0.023": 0.0,
			"0.024": 0.0,
			"0.025": 0.0
		}
	}
}
