{
	 "smiles": "CC(C)(C)C(=O)NC1=CC(=CC=C1)C(O)=O", 
	 "Tm": 485.15, 
	 "num_atms": 31, 
	 "gaussian": { 
		 "optdone": 1, 
		 "sigma_profile": "yes", 
		 "theory": "DFT", 
		 "functional": "B3LYP", 
		 "basiset": "6-31G**", 
		 "properties": { 
			 "R2extent": 4687.3528, 
			 "electric_dipole_moment_norm": 1.91805586467, 
			 "electric_quadrupole_moment_norm": 18.0963906313, 
			 "total_energy": -746.777370797, 
			 "HOMO_LUMO_gap": 0.18159, 
			 "cosmo_polarized_energy": -15.31, 
			 "cosmo_cavitation_energy": 33.9, 
			 "cosmo_dispersion_energy": -23.38, 
			 "cosmo_repulsion_energy": 1.82, 
			 "cosmo_total_nonelectrostatic_energy": 12.35, 
			 "SMD_solvation_energy": 7.88 
		},
		"coords": [
			{
				"x": 1.5494212422,
				"y": -0.5929284233,
				"z": -0.6097235263,
				"element": "C" 
			},
			{
				"x": 1.5813091414,
				"y": 0.903175662,
				"z": -0.2236962485,
				"element": "C" 
			},
			{
				"x": 2.7559346304,
				"y": 1.5770094335,
				"z": -0.9581916556,
				"element": "C" 
			},
			{
				"x": 1.7963257841,
				"y": 1.0568041461,
				"z": 1.2986713636,
				"element": "C" 
			},
			{
				"x": 0.284955085,
				"y": 1.6189028201,
				"z": -0.6789535353,
				"element": "C" 
			},
			{
				"x": 0.316659615,
				"y": 2.5308340281,
				"z": -1.4958924662,
				"element": "O" 
			},
			{
				"x": -0.9584481816,
				"y": 1.2547761329,
				"z": -0.1776979647,
				"element": "N" 
			},
			{
				"x": -1.409789688,
				"y": 0.265023883,
				"z": 0.7520847779,
				"element": "C" 
			},
			{
				"x": -1.7979495039,
				"y": -0.9999403645,
				"z": 0.300855065,
				"element": "C" 
			},
			{
				"x": -2.3135642044,
				"y": -1.940679066,
				"z": 1.2016889808,
				"element": "C" 
			},
			{
				"x": -2.4540738745,
				"y": -1.6122858807,
				"z": 2.556204043,
				"element": "C" 
			},
			{
				"x": -2.0860441174,
				"y": -0.3462241885,
				"z": 3.0035684912,
				"element": "C" 
			},
			{
				"x": -1.5716837431,
				"y": 0.5912497693,
				"z": 2.1054855287,
				"element": "C" 
			},
			{
				"x": -2.7337747355,
				"y": -3.3012563162,
				"z": 0.7670611191,
				"element": "C" 
			},
			{
				"x": -2.5601873813,
				"y": -3.5110499264,
				"z": -0.5608893849,
				"element": "O" 
			},
			{
				"x": -3.1872567506,
				"y": -4.1533655289,
				"z": 1.5044653431,
				"element": "O" 
			},
			{
				"x": 1.3529207537,
				"y": -0.7201748953,
				"z": -1.6795855315,
				"element": "H" 
			},
			{
				"x": 2.5247411378,
				"y": -1.0433484743,
				"z": -0.3954401945,
				"element": "H" 
			},
			{
				"x": 0.7974599693,
				"y": -1.1547199366,
				"z": -0.0525662204,
				"element": "H" 
			},
			{
				"x": 3.6947553814,
				"y": 1.0961879484,
				"z": -0.6632779984,
				"element": "H" 
			},
			{
				"x": 2.6448836396,
				"y": 1.4948370752,
				"z": -2.0416847785,
				"element": "H" 
			},
			{
				"x": 2.8162391147,
				"y": 2.6407874263,
				"z": -0.7170040172,
				"element": "H" 
			},
			{
				"x": 1.0485439145,
				"y": 0.5199205079,
				"z": 1.8852421399,
				"element": "H" 
			},
			{
				"x": 1.7774460958,
				"y": 2.1109719736,
				"z": 1.5954732031,
				"element": "H" 
			},
			{
				"x": 2.7788158785,
				"y": 0.6541427973,
				"z": 1.5680387241,
				"element": "H" 
			},
			{
				"x": -1.6787937716,
				"y": 1.8331362599,
				"z": -0.5961429088,
				"element": "H" 
			},
			{
				"x": -1.7003031193,
				"y": -1.246998113,
				"z": -0.7496307528,
				"element": "H" 
			},
			{
				"x": -2.8569939898,
				"y": -2.3578773325,
				"z": 3.232938348,
				"element": "H" 
			},
			{
				"x": -2.203203491,
				"y": -0.0836793663,
				"z": 4.0504442785,
				"element": "H" 
			},
			{
				"x": -1.2918207588,
				"y": 1.5846179755,
				"z": 2.4420849064,
				"element": "H" 
			},
			{
				"x": -2.8641240723,
				"y": -4.4181500266,
				"z": -0.728929129,
				"element": "H" 
			}
		],
		 "valence_orbital": [ 
			{
				"type": "occ",
				"energy": -0.28773,
				"method": "rhf"
			},
			{
				"type": "occ",
				"energy": -0.27658,
				"method": "rhf"
			},
			{
				"type": "occ",
				"energy": -0.27319,
				"method": "rhf"
			},
			{
				"type": "occ",
				"energy": -0.25705,
				"method": "rhf"
			},
			{
				"type": "occ",
				"energy": -0.24322,
				"method": "rhf"
			},
			{
				"type": "unocc",
				"energy": -0.06163,
				"method": "rhf"
			},
			{
				"type": "unocc",
				"energy": -0.02872,
				"method": "rhf"
			},
			{
				"type": "unocc",
				"energy": 0.02514,
				"method": "rhf"
			},
			{
				"type": "unocc",
				"energy": 0.04173,
				"method": "rhf"
			},
			{
				"type": "unocc",
				"energy": 0.0688,
				"method": "rhf"
			}
		],
		"cosmo_sigma_profile": { 
			"-0.025": 0.0,
			"-0.024": 0.0,
			"-0.023": 0.0,
			"-0.022": 0.0,
			"-0.021": 0.0,
			"-0.02": 0.0,
			"-0.019": 0.0495077593458,
			"-0.018": 0.915201264391,
			"-0.017": 0.650518993552,
			"-0.016": 1.14844195921,
			"-0.015": 0.748837186881,
			"-0.014": 1.04536815863,
			"-0.013": 1.44340389594,
			"-0.012": 1.31090137774,
			"-0.011": 2.05846332695,
			"-0.01": 1.74531147416,
			"-0.009": 1.06134113559,
			"-0.008": 1.22768520292,
			"-0.007": 5.40736975019,
			"-0.006": 8.55494358965,
			"-0.005": 9.03647186855,
			"-0.004": 10.1190018672,
			"-0.003": 26.3052722393,
			"-0.002": 31.4390368681,
			"-0.001": 31.1680490888,
			"0.0": 30.5494154172,
			"0.001": 28.2102214523,
			"0.002": 16.5937070545,
			"0.003": 9.52852337844,
			"0.004": 4.8861678745,
			"0.005": 3.24608816189,
			"0.006": 4.19036971867,
			"0.007": 5.41684670023,
			"0.008": 2.35619443747,
			"0.009": 2.95297515748,
			"0.01": 4.14590430205,
			"0.011": 5.51536127553,
			"0.012": 5.34454974868,
			"0.013": 3.27314751925,
			"0.014": 4.79360954948,
			"0.015": 0.330131038315,
			"0.016": 0.0,
			"0.017": 0.0,
			"0.018": 0.0,
			"0.019": 0.0,
			"0.02": 0.0,
			"0.021": 0.0,
			"0.022": 0.0,
			"0.023": 0.0,
			"0.024": 0.0,
			"0.025": 0.0
		}
	}
}
