{
	 "smiles": "OC(=O)C(OC1=CC=CC=C1)C1=CC=CC=C1", 
	 "Tm": 377.15, 
	 "num_atms": 29, 
	 "gaussian": { 
		 "optdone": 1, 
		 "sigma_profile": "yes", 
		 "theory": "DFT", 
		 "functional": "B3LYP", 
		 "basiset": "6-31G**", 
		 "properties": { 
			 "R2extent": 4261.274, 
			 "electric_dipole_moment_norm": 2.5978430938, 
			 "electric_quadrupole_moment_norm": 7.93283904791, 
			 "total_energy": -766.386711806, 
			 "HOMO_LUMO_gap": 0.20839, 
			 "cosmo_polarized_energy": -12.49, 
			 "cosmo_cavitation_energy": 33.28, 
			 "cosmo_dispersion_energy": -22.83, 
			 "cosmo_repulsion_energy": 1.8, 
			 "cosmo_total_nonelectrostatic_energy": 12.25, 
			 "SMD_solvation_energy": 6.63 
		},
		"coords": [
			{
				"x": 3.0044812959,
				"y": 1.7033060537,
				"z": 1.1584106455,
				"element": "O" 
			},
			{
				"x": 1.6881507474,
				"y": 2.0099807195,
				"z": 1.2094728361,
				"element": "C" 
			},
			{
				"x": 1.282903745,
				"y": 3.1444715395,
				"z": 1.324595478,
				"element": "O" 
			},
			{
				"x": 0.8434000178,
				"y": 0.7366060197,
				"z": 1.0890603168,
				"element": "C" 
			},
			{
				"x": -0.4019808194,
				"y": 0.8767674381,
				"z": 1.779782519,
				"element": "O" 
			},
			{
				"x": -1.5480043729,
				"y": 1.3079343852,
				"z": 1.1240486642,
				"element": "C" 
			},
			{
				"x": -1.8175700539,
				"y": 2.6697041336,
				"z": 0.9643109239,
				"element": "C" 
			},
			{
				"x": -3.0284469832,
				"y": 3.0636631181,
				"z": 0.3911884236,
				"element": "C" 
			},
			{
				"x": -3.9662690738,
				"y": 2.1116486057,
				"z": -0.0143582915,
				"element": "C" 
			},
			{
				"x": -3.6905223693,
				"y": 0.7534244823,
				"z": 0.157227893,
				"element": "C" 
			},
			{
				"x": -2.4826950022,
				"y": 0.3487313408,
				"z": 0.7263415905,
				"element": "C" 
			},
			{
				"x": 0.7463220811,
				"y": 0.2820711429,
				"z": -0.3577632715,
				"element": "C" 
			},
			{
				"x": 0.8512956367,
				"y": -1.0821850934,
				"z": -0.6553170685,
				"element": "C" 
			},
			{
				"x": 0.7388765683,
				"y": -1.5325823501,
				"z": -1.9706244381,
				"element": "C" 
			},
			{
				"x": 0.5195280411,
				"y": -0.6195011986,
				"z": -3.0037723951,
				"element": "C" 
			},
			{
				"x": 0.4129354662,
				"y": 0.7424062774,
				"z": -2.7156893823,
				"element": "C" 
			},
			{
				"x": 0.5251444059,
				"y": 1.1923261614,
				"z": -1.4001729598,
				"element": "C" 
			},
			{
				"x": 3.484981885,
				"y": 2.5471878476,
				"z": 1.2047800486,
				"element": "H" 
			},
			{
				"x": 1.3781833044,
				"y": -0.034136027,
				"z": 1.6523523165,
				"element": "H" 
			},
			{
				"x": -1.0774432374,
				"y": 3.3916300052,
				"z": 1.2873688513,
				"element": "H" 
			},
			{
				"x": -3.2401784519,
				"y": 4.122171436,
				"z": 0.2671641163,
				"element": "H" 
			},
			{
				"x": -4.9074576328,
				"y": 2.4257236479,
				"z": -0.4561788823,
				"element": "H" 
			},
			{
				"x": -4.4161979488,
				"y": 0.0058541661,
				"z": -0.1507254788,
				"element": "H" 
			},
			{
				"x": -2.2538308317,
				"y": -0.7016008641,
				"z": 0.8735479013,
				"element": "H" 
			},
			{
				"x": 1.0239154807,
				"y": -1.793563969,
				"z": 0.1483351584,
				"element": "H" 
			},
			{
				"x": 0.8260303172,
				"y": -2.5931142908,
				"z": -2.1883795817,
				"element": "H" 
			},
			{
				"x": 0.4341208362,
				"y": -0.9676365737,
				"z": -4.0291321251,
				"element": "H" 
			},
			{
				"x": 0.2416782773,
				"y": 1.4566976134,
				"z": -3.5156836837,
				"element": "H" 
			},
			{
				"x": 0.4376486713,
				"y": 2.2520142327,
				"z": -1.1815901247,
				"element": "H" 
			}
		],
		 "valence_orbital": [ 
			{
				"type": "occ",
				"energy": -0.26825,
				"method": "rhf"
			},
			{
				"type": "occ",
				"energy": -0.25792,
				"method": "rhf"
			},
			{
				"type": "occ",
				"energy": -0.2559,
				"method": "rhf"
			},
			{
				"type": "occ",
				"energy": -0.24293,
				"method": "rhf"
			},
			{
				"type": "occ",
				"energy": -0.231,
				"method": "rhf"
			},
			{
				"type": "unocc",
				"energy": -0.02261,
				"method": "rhf"
			},
			{
				"type": "unocc",
				"energy": -0.01188,
				"method": "rhf"
			},
			{
				"type": "unocc",
				"energy": 0.0054,
				"method": "rhf"
			},
			{
				"type": "unocc",
				"energy": 0.00737,
				"method": "rhf"
			},
			{
				"type": "unocc",
				"energy": 0.0116,
				"method": "rhf"
			}
		],
		"cosmo_sigma_profile": { 
			"-0.025": 0.0,
			"-0.024": 0.0,
			"-0.023": 0.0,
			"-0.022": 0.0,
			"-0.021": 0.0,
			"-0.02": 0.0,
			"-0.019": 0.237217649692,
			"-0.018": 1.30817529389,
			"-0.017": 0.384639150011,
			"-0.016": 1.193167166,
			"-0.015": 0.890375482802,
			"-0.014": 0.245569931083,
			"-0.013": 0.375144000787,
			"-0.012": 1.16596140059,
			"-0.011": 0.883354023915,
			"-0.01": 0.732382818693,
			"-0.009": 0.484413369233,
			"-0.008": 2.05480900429,
			"-0.007": 5.21564194285,
			"-0.006": 14.48325197,
			"-0.005": 20.1374503088,
			"-0.004": 22.4179259028,
			"-0.003": 19.74398388,
			"-0.002": 16.1568583088,
			"-0.001": 16.1056889237,
			"0.0": 16.1946399615,
			"0.001": 14.8671885271,
			"0.002": 17.0790629623,
			"0.003": 18.2595914796,
			"0.004": 21.6764462819,
			"0.005": 21.6881450331,
			"0.006": 11.3291597054,
			"0.007": 4.3376436994,
			"0.008": 4.88228388026,
			"0.009": 3.89823106521,
			"0.01": 3.73582194765,
			"0.011": 3.14991785049,
			"0.012": 0.43168990917,
			"0.013": 0.0,
			"0.014": 0.0,
			"0.015": 0.0,
			"0.016": 0.0,
			"0.017": 0.0,
			"0.018": 0.0,
			"0.019": 0.0,
			"0.02": 0.0,
			"0.021": 0.0,
			"0.022": 0.0,
			"0.023": 0.0,
			"0.024": 0.0,
			"0.025": 0.0
		}
	}
}
