{
	 "smiles": "CC1NC(CS1)C(O)=O", 
	 "Tm": 455.15, 
	 "num_atms": 18, 
	 "gaussian": { 
		 "optdone": 1, 
		 "sigma_profile": "yes", 
		 "theory": "DFT", 
		 "functional": "B3LYP", 
		 "basiset": "6-31G**", 
		 "properties": { 
			 "R2extent": 1373.5826, 
			 "electric_dipole_moment_norm": 4.20841581715, 
			 "electric_quadrupole_moment_norm": 11.8408404427, 
			 "total_energy": -799.351681289, 
			 "HOMO_LUMO_gap": 0.23505, 
			 "cosmo_polarized_energy": -14.69, 
			 "cosmo_cavitation_energy": 21.54, 
			 "cosmo_dispersion_energy": -16.73, 
			 "cosmo_repulsion_energy": 1.32, 
			 "cosmo_total_nonelectrostatic_energy": 6.13, 
			 "SMD_solvation_energy": 3.1 
		},
		"coords": [
			{
				"x": -1.1727127032,
				"y": -0.265793033,
				"z": -1.2603697587,
				"element": "C" 
			},
			{
				"x": -0.5071560819,
				"y": 0.9864169235,
				"z": -0.6915856118,
				"element": "C" 
			},
			{
				"x": -0.5277979956,
				"y": 1.0291260109,
				"z": 0.7747600784,
				"element": "N" 
			},
			{
				"x": 0.6034779278,
				"y": 0.2562132853,
				"z": 1.3229394664,
				"element": "C" 
			},
			{
				"x": 1.8112211488,
				"y": 0.226841933,
				"z": 0.3416960889,
				"element": "C" 
			},
			{
				"x": 1.2918924505,
				"y": 1.1219397743,
				"z": -1.1804746299,
				"element": "S" 
			},
			{
				"x": 0.1377648088,
				"y": -1.1638610647,
				"z": 1.7137193111,
				"element": "C" 
			},
			{
				"x": -1.1841507218,
				"y": -1.2489637909,
				"z": 1.928884458,
				"element": "O" 
			},
			{
				"x": 0.8952253274,
				"y": -2.093146315,
				"z": 1.8584613707,
				"element": "O" 
			},
			{
				"x": -1.1483339741,
				"y": -0.2340079519,
				"z": -2.3522071328,
				"element": "H" 
			},
			{
				"x": -0.664548838,
				"y": -1.1810517245,
				"z": -0.945838977,
				"element": "H" 
			},
			{
				"x": -2.2177937027,
				"y": -0.3198092691,
				"z": -0.9361070942,
				"element": "H" 
			},
			{
				"x": -1.0112955625,
				"y": 1.8785584811,
				"z": -1.0718683048,
				"element": "H" 
			},
			{
				"x": -0.4395516099,
				"y": 1.9970254244,
				"z": 1.0699423037,
				"element": "H" 
			},
			{
				"x": 0.9026220603,
				"y": 0.72401287,
				"z": 2.2677474062,
				"element": "H" 
			},
			{
				"x": 2.0946542789,
				"y": -0.8042001283,
				"z": 0.1264493455,
				"element": "H" 
			},
			{
				"x": 2.6781185019,
				"y": 0.7430481994,
				"z": 0.7571628901,
				"element": "H" 
			},
			{
				"x": -1.5452353147,
				"y": -0.3747496245,
				"z": 1.6591887902,
				"element": "H" 
			}
		],
		 "valence_orbital": [ 
			{
				"type": "occ",
				"energy": -0.33958,
				"method": "rhf"
			},
			{
				"type": "occ",
				"energy": -0.31281,
				"method": "rhf"
			},
			{
				"type": "occ",
				"energy": -0.28885,
				"method": "rhf"
			},
			{
				"type": "occ",
				"energy": -0.26231,
				"method": "rhf"
			},
			{
				"type": "occ",
				"energy": -0.23256,
				"method": "rhf"
			},
			{
				"type": "unocc",
				"energy": 0.00249,
				"method": "rhf"
			},
			{
				"type": "unocc",
				"energy": 0.01042,
				"method": "rhf"
			},
			{
				"type": "unocc",
				"energy": 0.05426,
				"method": "rhf"
			},
			{
				"type": "unocc",
				"energy": 0.06866,
				"method": "rhf"
			},
			{
				"type": "unocc",
				"energy": 0.09576,
				"method": "rhf"
			}
		],
		"cosmo_sigma_profile": { 
			"-0.025": 0.0,
			"-0.024": 0.0,
			"-0.023": 0.0,
			"-0.022": 0.0,
			"-0.021": 0.0,
			"-0.02": 0.0,
			"-0.019": 0.0,
			"-0.018": 0.0,
			"-0.017": 0.0,
			"-0.016": 0.0,
			"-0.015": 0.0,
			"-0.014": 0.049384886305,
			"-0.013": 1.32392787701,
			"-0.012": 2.02264312757,
			"-0.011": 1.95016113813,
			"-0.01": 2.44699269002,
			"-0.009": 5.73053611095,
			"-0.008": 5.84662569152,
			"-0.007": 6.45755658577,
			"-0.006": 8.54184168223,
			"-0.005": 10.5631222648,
			"-0.004": 13.5106067287,
			"-0.003": 10.9201304812,
			"-0.002": 11.9553769862,
			"-0.001": 10.9625422191,
			"0.0": 10.2594746866,
			"0.001": 6.79856182033,
			"0.002": 5.18878923531,
			"0.003": 4.98991093232,
			"0.004": 5.44979275147,
			"0.005": 5.47028006294,
			"0.006": 5.10727049123,
			"0.007": 5.22495724298,
			"0.008": 4.85053711434,
			"0.009": 5.59276967534,
			"0.01": 6.74026996641,
			"0.011": 5.54462552008,
			"0.012": 5.2720190623,
			"0.013": 1.86770379855,
			"0.014": 0.140179155316,
			"0.015": 0.0,
			"0.016": 0.0,
			"0.017": 0.0,
			"0.018": 0.0,
			"0.019": 0.0,
			"0.02": 0.0,
			"0.021": 0.0,
			"0.022": 0.0,
			"0.023": 0.0,
			"0.024": 0.0,
			"0.025": 0.0
		}
	}
}
