{
	 "smiles": "CC1=CC(=CC=C1)N1N=CC(=N1)C(O)=O", 
	 "Tm": 405.15, 
	 "num_atms": 24, 
	 "gaussian": { 
		 "optdone": 1, 
		 "sigma_profile": "yes", 
		 "theory": "DFT", 
		 "functional": "B3LYP", 
		 "basiset": "6-31G**", 
		 "properties": { 
			 "R2extent": 4709.5661, 
			 "electric_dipole_moment_norm": 5.80699545548, 
			 "electric_quadrupole_moment_norm": 21.301899331, 
			 "total_energy": -701.176237483, 
			 "HOMO_LUMO_gap": 0.18012, 
			 "cosmo_polarized_energy": -11.92, 
			 "cosmo_cavitation_energy": 29.45, 
			 "cosmo_dispersion_energy": -21.64, 
			 "cosmo_repulsion_energy": 1.68, 
			 "cosmo_total_nonelectrostatic_energy": 9.49, 
			 "SMD_solvation_energy": 5.35 
		},
		"coords": [
			{
				"x": 2.1014670283,
				"y": 2.3040746958,
				"z": 2.7842718916,
				"element": "C" 
			},
			{
				"x": 1.4221639203,
				"y": 1.2446839565,
				"z": 1.948704318,
				"element": "C" 
			},
			{
				"x": 0.649284379,
				"y": 1.6058103971,
				"z": 0.8407128316,
				"element": "C" 
			},
			{
				"x": 0.0486549567,
				"y": 0.6182883267,
				"z": 0.0566448632,
				"element": "C" 
			},
			{
				"x": 0.198199187,
				"y": -0.7376899007,
				"z": 0.3534982228,
				"element": "C" 
			},
			{
				"x": 0.9662948008,
				"y": -1.0929993133,
				"z": 1.4601430128,
				"element": "C" 
			},
			{
				"x": 1.5712173079,
				"y": -0.116160654,
				"z": 2.2509503981,
				"element": "C" 
			},
			{
				"x": -0.737458668,
				"y": 1.0092819195,
				"z": -1.0684083048,
				"element": "N" 
			},
			{
				"x": -0.9190917222,
				"y": 2.2960115709,
				"z": -1.4033738001,
				"element": "N" 
			},
			{
				"x": -1.692199532,
				"y": 2.2430755615,
				"z": -2.48386373,
				"element": "C" 
			},
			{
				"x": -1.9603892334,
				"y": 0.8935359002,
				"z": -2.7756497725,
				"element": "C" 
			},
			{
				"x": -1.3437493032,
				"y": 0.1330823999,
				"z": -1.8634609947,
				"element": "N" 
			},
			{
				"x": -2.7681823601,
				"y": 0.3064081615,
				"z": -3.8716757664,
				"element": "C" 
			},
			{
				"x": -2.8282961751,
				"y": -1.0432134148,
				"z": -3.8709822724,
				"element": "O" 
			},
			{
				"x": -3.3320535293,
				"y": 0.9778458301,
				"z": -4.7030348432,
				"element": "O" 
			},
			{
				"x": 3.1256373554,
				"y": 2.4831236003,
				"z": 2.4344382642,
				"element": "H" 
			},
			{
				"x": 2.1645830508,
				"y": 2.0035466126,
				"z": 3.8342889607,
				"element": "H" 
			},
			{
				"x": 1.5678843576,
				"y": 3.2572278835,
				"z": 2.733944483,
				"element": "H" 
			},
			{
				"x": 0.5065875369,
				"y": 2.6476825467,
				"z": 0.5794240833,
				"element": "H" 
			},
			{
				"x": -0.2794185278,
				"y": -1.4856598918,
				"z": -0.2664130163,
				"element": "H" 
			},
			{
				"x": 1.0888383916,
				"y": -2.1431137541,
				"z": 1.7074777305,
				"element": "H" 
			},
			{
				"x": 2.1637558832,
				"y": -0.4109839853,
				"z": 3.1128061555,
				"element": "H" 
			},
			{
				"x": -2.0189911642,
				"y": 3.1339095569,
				"z": -2.9977272441,
				"element": "H" 
			},
			{
				"x": -2.3086379401,
				"y": -1.3805680057,
				"z": -3.1216154708,
				"element": "H" 
			}
		],
		 "valence_orbital": [ 
			{
				"type": "occ",
				"energy": -0.31813,
				"method": "rhf"
			},
			{
				"type": "occ",
				"energy": -0.30995,
				"method": "rhf"
			},
			{
				"type": "occ",
				"energy": -0.28031,
				"method": "rhf"
			},
			{
				"type": "occ",
				"energy": -0.2634,
				"method": "rhf"
			},
			{
				"type": "occ",
				"energy": -0.24701,
				"method": "rhf"
			},
			{
				"type": "unocc",
				"energy": -0.06689,
				"method": "rhf"
			},
			{
				"type": "unocc",
				"energy": -0.02599,
				"method": "rhf"
			},
			{
				"type": "unocc",
				"energy": -0.01588,
				"method": "rhf"
			},
			{
				"type": "unocc",
				"energy": 0.01413,
				"method": "rhf"
			},
			{
				"type": "unocc",
				"energy": 0.07604,
				"method": "rhf"
			}
		],
		"cosmo_sigma_profile": { 
			"-0.025": 0.0,
			"-0.024": 0.0,
			"-0.023": 0.0,
			"-0.022": 0.0,
			"-0.021": 0.0,
			"-0.02": 0.0,
			"-0.019": 0.0,
			"-0.018": 0.0,
			"-0.017": 0.0,
			"-0.016": 0.327406443611,
			"-0.015": 0.423782675224,
			"-0.014": 0.705826044433,
			"-0.013": 0.631691717513,
			"-0.012": 0.915856110031,
			"-0.011": 0.717527357878,
			"-0.01": 2.31661835731,
			"-0.009": 1.79707666753,
			"-0.008": 2.83831402853,
			"-0.007": 3.61506620568,
			"-0.006": 8.01253716908,
			"-0.005": 14.9300596074,
			"-0.004": 18.9887274003,
			"-0.003": 18.4247309941,
			"-0.002": 22.9000022318,
			"-0.001": 22.1392103482,
			"0.0": 21.6939892716,
			"0.001": 16.267785567,
			"0.002": 14.0799272205,
			"0.003": 14.7299058387,
			"0.004": 13.6942820914,
			"0.005": 4.45118853125,
			"0.006": 3.29503325906,
			"0.007": 4.10772564058,
			"0.008": 4.32412060556,
			"0.009": 5.47190801603,
			"0.01": 5.52678054719,
			"0.011": 5.56917898725,
			"0.012": 3.10330219929,
			"0.013": 0.4932370762,
			"0.014": 0.0,
			"0.015": 0.0,
			"0.016": 0.0,
			"0.017": 0.0,
			"0.018": 0.0,
			"0.019": 0.0,
			"0.02": 0.0,
			"0.021": 0.0,
			"0.022": 0.0,
			"0.023": 0.0,
			"0.024": 0.0,
			"0.025": 0.0
		}
	}
}
