{
	 "smiles": "COC1=CC(CC2(CC3CCC2C3)C(O)=O)=CC=C1", 
	 "Tm": 341.15, 
	 "num_atms": 39, 
	 "gaussian": { 
		 "optdone": 1, 
		 "sigma_profile": "yes", 
		 "theory": "DFT", 
		 "functional": "B3LYP", 
		 "basiset": "6-31G**", 
		 "properties": { 
			 "R2extent": 5709.1948, 
			 "electric_dipole_moment_norm": 2.26066608105, 
			 "electric_quadrupole_moment_norm": 15.2132043515, 
			 "total_energy": -847.435518697, 
			 "HOMO_LUMO_gap": 0.21508, 
			 "cosmo_polarized_energy": -12.38, 
			 "cosmo_cavitation_energy": 38.45, 
			 "cosmo_dispersion_energy": -27.08, 
			 "cosmo_repulsion_energy": 2.07, 
			 "cosmo_total_nonelectrostatic_energy": 13.44, 
			 "SMD_solvation_energy": 7.07 
		},
		"coords": [
			{
				"x": 2.2828702267,
				"y": 3.9557090834,
				"z": 2.4559219904,
				"element": "C" 
			},
			{
				"x": 2.1223876491,
				"y": 2.9703588377,
				"z": 3.4620298133,
				"element": "O" 
			},
			{
				"x": 1.8583592279,
				"y": 1.6858387621,
				"z": 3.0775683157,
				"element": "C" 
			},
			{
				"x": 1.7491571038,
				"y": 1.2641813709,
				"z": 1.7474753368,
				"element": "C" 
			},
			{
				"x": 1.4762378156,
				"y": -0.0799455219,
				"z": 1.4434448274,
				"element": "C" 
			},
			{
				"x": 1.3517410027,
				"y": -0.5212413418,
				"z": -0.0027896493,
				"element": "C" 
			},
			{
				"x": -0.1052954859,
				"y": -0.6457077438,
				"z": -0.5532419179,
				"element": "C" 
			},
			{
				"x": -0.9127689629,
				"y": 0.6947911099,
				"z": -0.5072356739,
				"element": "C" 
			},
			{
				"x": -1.2672779241,
				"y": 0.9678954532,
				"z": -1.9866107906,
				"element": "C" 
			},
			{
				"x": -2.3170852688,
				"y": -0.0700220264,
				"z": -2.4544476823,
				"element": "C" 
			},
			{
				"x": -1.4778838374,
				"y": -1.3822340592,
				"z": -2.5864829812,
				"element": "C" 
			},
			{
				"x": -0.0725918618,
				"y": -0.9521170334,
				"z": -2.0995995082,
				"element": "C" 
			},
			{
				"x": 0.0073371349,
				"y": 0.4696342262,
				"z": -2.6992244267,
				"element": "C" 
			},
			{
				"x": -0.8384152549,
				"y": -1.7628555157,
				"z": 0.1816369619,
				"element": "C" 
			},
			{
				"x": -0.1500193995,
				"y": -2.9375816894,
				"z": 0.1397339994,
				"element": "O" 
			},
			{
				"x": -1.9219417164,
				"y": -1.6907860288,
				"z": 0.7195196841,
				"element": "O" 
			},
			{
				"x": 1.3327896207,
				"y": -0.996645316,
				"z": 2.4909523403,
				"element": "C" 
			},
			{
				"x": 1.4428099301,
				"y": -0.5706872163,
				"z": 3.8177425273,
				"element": "C" 
			},
			{
				"x": 1.7008813974,
				"y": 0.7610459892,
				"z": 4.1190934502,
				"element": "C" 
			},
			{
				"x": 3.1359550241,
				"y": 3.7341178399,
				"z": 1.801081,
				"element": "H" 
			},
			{
				"x": 1.3791377377,
				"y": 4.0601552775,
				"z": 1.8412249904,
				"element": "H" 
			},
			{
				"x": 2.4696442268,
				"y": 4.8945851971,
				"z": 2.979843861,
				"element": "H" 
			},
			{
				"x": 1.8881375629,
				"y": 1.9683940131,
				"z": 0.9348765077,
				"element": "H" 
			},
			{
				"x": 1.8843119044,
				"y": 0.1915622681,
				"z": -0.6399952182,
				"element": "H" 
			},
			{
				"x": 1.8437754917,
				"y": -1.4899765067,
				"z": -0.1320347013,
				"element": "H" 
			},
			{
				"x": -1.7936185527,
				"y": 0.6059926111,
				"z": 0.1314348016,
				"element": "H" 
			},
			{
				"x": -0.2913115828,
				"y": 1.4988590183,
				"z": -0.1025957044,
				"element": "H" 
			},
			{
				"x": -1.554643563,
				"y": 2.005195389,
				"z": -2.1799409419,
				"element": "H" 
			},
			{
				"x": -2.7545344342,
				"y": 0.2187404775,
				"z": -3.4158852542,
				"element": "H" 
			},
			{
				"x": -3.1356021283,
				"y": -0.1722220349,
				"z": -1.7360976106,
				"element": "H" 
			},
			{
				"x": -1.899338699,
				"y": -2.2162994818,
				"z": -2.0194950848,
				"element": "H" 
			},
			{
				"x": -1.415224939,
				"y": -1.7083254874,
				"z": -3.6300331189,
				"element": "H" 
			},
			{
				"x": 0.7233024334,
				"y": -1.6493729897,
				"z": -2.3727967114,
				"element": "H" 
			},
			{
				"x": 0.9082727483,
				"y": 1.0255266447,
				"z": -2.4216375375,
				"element": "H" 
			},
			{
				"x": -0.0728770546,
				"y": 0.4655504816,
				"z": -3.791959573,
				"element": "H" 
			},
			{
				"x": -0.7088854581,
				"y": -3.584706194,
				"z": 0.6020240653,
				"element": "H" 
			},
			{
				"x": 1.1462736801,
				"y": -2.0423355754,
				"z": 2.2689557261,
				"element": "H" 
			},
			{
				"x": 1.331508657,
				"y": -1.2885395794,
				"z": 4.625638839,
				"element": "H" 
			},
			{
				"x": 1.7930255482,
				"y": 1.1083672915,
				"z": 5.1428050486,
				"element": "H" 
			}
		],
		 "valence_orbital": [ 
			{
				"type": "occ",
				"energy": -0.30491,
				"method": "rhf"
			},
			{
				"type": "occ",
				"energy": -0.29092,
				"method": "rhf"
			},
			{
				"type": "occ",
				"energy": -0.26768,
				"method": "rhf"
			},
			{
				"type": "occ",
				"energy": -0.24177,
				"method": "rhf"
			},
			{
				"type": "occ",
				"energy": -0.21375,
				"method": "rhf"
			},
			{
				"type": "unocc",
				"energy": 0.00133,
				"method": "rhf"
			},
			{
				"type": "unocc",
				"energy": 0.00385,
				"method": "rhf"
			},
			{
				"type": "unocc",
				"energy": 0.02185,
				"method": "rhf"
			},
			{
				"type": "unocc",
				"energy": 0.06821,
				"method": "rhf"
			},
			{
				"type": "unocc",
				"energy": 0.0799,
				"method": "rhf"
			}
		],
		"cosmo_sigma_profile": { 
			"-0.025": 0.0,
			"-0.024": 0.0,
			"-0.023": 0.0,
			"-0.022": 0.0,
			"-0.021": 0.0,
			"-0.02": 0.0,
			"-0.019": 0.0,
			"-0.018": 0.324673692512,
			"-0.017": 1.24603799317,
			"-0.016": 0.642374650979,
			"-0.015": 0.466601965596,
			"-0.014": 0.864195997744,
			"-0.013": 0.698870781474,
			"-0.012": 0.631700222388,
			"-0.011": 0.668509251311,
			"-0.01": 1.07724551298,
			"-0.009": 0.413995951222,
			"-0.008": 0.672685392284,
			"-0.007": 0.81607041185,
			"-0.006": 5.8612467356,
			"-0.005": 19.7187349709,
			"-0.004": 20.1288409065,
			"-0.003": 31.786275045,
			"-0.002": 31.5918261091,
			"-0.001": 33.271998743,
			"0.0": 29.8446150874,
			"0.001": 28.9128258455,
			"0.002": 14.8255280513,
			"0.003": 12.1996337139,
			"0.004": 15.5620100618,
			"0.005": 13.2276423634,
			"0.006": 11.970475462,
			"0.007": 3.61155205825,
			"0.008": 5.03483669471,
			"0.009": 3.03649078295,
			"0.01": 3.5948828218,
			"0.011": 3.82881805961,
			"0.012": 3.84535208846,
			"0.013": 0.101269158339,
			"0.014": 0.0,
			"0.015": 0.0,
			"0.016": 0.0,
			"0.017": 0.0,
			"0.018": 0.0,
			"0.019": 0.0,
			"0.02": 0.0,
			"0.021": 0.0,
			"0.022": 0.0,
			"0.023": 0.0,
			"0.024": 0.0,
			"0.025": 0.0
		}
	}
}
