{
	 "smiles": "COC(=O)C1=CNC=C1C1=CC=C(C=C1)[N+]([O-])=O", 
	 "Tm": 518.15, 
	 "num_atms": 28, 
	 "gaussian": { 
		 "optdone": 1, 
		 "sigma_profile": "yes", 
		 "theory": "DFT", 
		 "functional": "B3LYP", 
		 "basiset": "6-31G**", 
		 "properties": { 
			 "R2extent": 5650.79, 
			 "electric_dipole_moment_norm": 6.31389690841, 
			 "electric_quadrupole_moment_norm": 38.032341344, 
			 "total_energy": -873.608149967, 
			 "HOMO_LUMO_gap": 0.14945, 
			 "cosmo_polarized_energy": -18.76, 
			 "cosmo_cavitation_energy": 33.96, 
			 "cosmo_dispersion_energy": -24.0, 
			 "cosmo_repulsion_energy": 1.85, 
			 "cosmo_total_nonelectrostatic_energy": 11.81, 
			 "SMD_solvation_energy": 9.84 
		},
		"coords": [
			{
				"x": 1.8203900632,
				"y": 2.6895565972,
				"z": 0.0919969951,
				"element": "C" 
			},
			{
				"x": 1.6550741406,
				"y": 1.2824437741,
				"z": -0.1421427127,
				"element": "O" 
			},
			{
				"x": 2.7223508738,
				"y": 0.6604327296,
				"z": -0.6941945424,
				"element": "C" 
			},
			{
				"x": 3.7510350154,
				"y": 1.2446336073,
				"z": -0.9848021031,
				"element": "O" 
			},
			{
				"x": 2.5196457723,
				"y": -0.785581476,
				"z": -0.8839235619,
				"element": "C" 
			},
			{
				"x": 3.579798447,
				"y": -1.5762611183,
				"z": -1.2940616462,
				"element": "C" 
			},
			{
				"x": 3.1627576693,
				"y": -2.87208459,
				"z": -1.3091838738,
				"element": "N" 
			},
			{
				"x": 1.8484552099,
				"y": -2.9449051282,
				"z": -0.9121955464,
				"element": "C" 
			},
			{
				"x": 1.3982454545,
				"y": -1.6662961982,
				"z": -0.6373360233,
				"element": "C" 
			},
			{
				"x": 0.0129633604,
				"y": -1.3808125789,
				"z": -0.2190990684,
				"element": "C" 
			},
			{
				"x": -0.6097860187,
				"y": -2.2078894275,
				"z": 0.7352714348,
				"element": "C" 
			},
			{
				"x": -1.9358171245,
				"y": -2.0125484555,
				"z": 1.1053111756,
				"element": "C" 
			},
			{
				"x": -2.6479207278,
				"y": -0.9704183471,
				"z": 0.5153873466,
				"element": "C" 
			},
			{
				"x": -2.0640132807,
				"y": -0.1288462614,
				"z": -0.4316968788,
				"element": "C" 
			},
			{
				"x": -0.7398281859,
				"y": -0.3398269884,
				"z": -0.7942900449,
				"element": "C" 
			},
			{
				"x": -4.0465047716,
				"y": -0.7523155188,
				"z": 0.9011393833,
				"element": "N" 
			},
			{
				"x": -4.5375177056,
				"y": -1.5161157867,
				"z": 1.733787684,
				"element": "O" 
			},
			{
				"x": -4.6490562177,
				"y": 0.181295614,
				"z": 0.3693743212,
				"element": "O" 
			},
			{
				"x": 0.8769149076,
				"y": 3.0273283317,
				"z": 0.5206551899,
				"element": "H" 
			},
			{
				"x": 2.6440122354,
				"y": 2.8695896047,
				"z": 0.7874499171,
				"element": "H" 
			},
			{
				"x": 2.0300650323,
				"y": 3.2159517217,
				"z": -0.8425406445,
				"element": "H" 
			},
			{
				"x": 4.5868296142,
				"y": -1.2820385586,
				"z": -1.5453056511,
				"element": "H" 
			},
			{
				"x": 3.7287616626,
				"y": -3.6597061263,
				"z": -1.5835598816,
				"element": "H" 
			},
			{
				"x": 1.3159556592,
				"y": -3.8840071689,
				"z": -0.8982601082,
				"element": "H" 
			},
			{
				"x": -0.0352973393,
				"y": -2.9998729058,
				"z": 1.2050634177,
				"element": "H" 
			},
			{
				"x": -2.4213143402,
				"y": -2.6395461064,
				"z": 1.842581732,
				"element": "H" 
			},
			{
				"x": -2.6545540718,
				"y": 0.6646874157,
				"z": -0.872176463,
				"element": "H" 
			},
			{
				"x": -0.2795453339,
				"y": 0.3031533448,
				"z": -1.5341498471,
				"element": "H" 
			}
		],
		 "valence_orbital": [ 
			{
				"type": "occ",
				"energy": -0.28238,
				"method": "rhf"
			},
			{
				"type": "occ",
				"energy": -0.27463,
				"method": "rhf"
			},
			{
				"type": "occ",
				"energy": -0.26877,
				"method": "rhf"
			},
			{
				"type": "occ",
				"energy": -0.25435,
				"method": "rhf"
			},
			{
				"type": "occ",
				"energy": -0.2327,
				"method": "rhf"
			},
			{
				"type": "unocc",
				"energy": -0.08325,
				"method": "rhf"
			},
			{
				"type": "unocc",
				"energy": -0.0245,
				"method": "rhf"
			},
			{
				"type": "unocc",
				"energy": -0.01893,
				"method": "rhf"
			},
			{
				"type": "unocc",
				"energy": -0.00273,
				"method": "rhf"
			},
			{
				"type": "unocc",
				"energy": 0.03641,
				"method": "rhf"
			}
		],
		"cosmo_sigma_profile": { 
			"-0.025": 0.0,
			"-0.024": 0.0,
			"-0.023": 0.0,
			"-0.022": 0.0,
			"-0.021": 0.0,
			"-0.02": 0.0,
			"-0.019": 0.0,
			"-0.018": 0.0,
			"-0.017": 1.26898851296,
			"-0.016": 2.04603096231,
			"-0.015": 0.955737310278,
			"-0.014": 1.33333333212,
			"-0.013": 1.64917464845,
			"-0.012": 1.07911060169,
			"-0.011": 1.03726622936,
			"-0.01": 1.15842680459,
			"-0.009": 3.40439440312,
			"-0.008": 5.0548923377,
			"-0.007": 7.42896655474,
			"-0.006": 13.429023793,
			"-0.005": 17.9035414958,
			"-0.004": 17.9844074904,
			"-0.003": 19.1746489547,
			"-0.002": 16.5646671273,
			"-0.001": 16.5991135226,
			"0.0": 17.1467923526,
			"0.001": 18.7843312776,
			"0.002": 23.6890180757,
			"0.003": 17.4866327385,
			"0.004": 12.6672308831,
			"0.005": 6.73273910702,
			"0.006": 6.54060559096,
			"0.007": 8.29177841262,
			"0.008": 11.3106056843,
			"0.009": 6.76043453815,
			"0.01": 5.10234542499,
			"0.011": 2.58632974992,
			"0.012": 4.0199766189,
			"0.013": 3.00883097044,
			"0.014": 0.0133352471818,
			"0.015": 0.0,
			"0.016": 0.0,
			"0.017": 0.0,
			"0.018": 0.0,
			"0.019": 0.0,
			"0.02": 0.0,
			"0.021": 0.0,
			"0.022": 0.0,
			"0.023": 0.0,
			"0.024": 0.0,
			"0.025": 0.0
		}
	}
}
