{
	 "smiles": "CN(C1=CC=C(O)C=C1)S(C)(=O)=O", 
	 "Tm": 403.15, 
	 "num_atms": 24, 
	 "gaussian": { 
		 "optdone": 1, 
		 "sigma_profile": "yes", 
		 "theory": "DFT", 
		 "functional": "B3LYP", 
		 "basiset": "6-31G**", 
		 "properties": { 
			 "R2extent": 3010.3477, 
			 "electric_dipole_moment_norm": 3.78132684649, 
			 "electric_quadrupole_moment_norm": 15.8145062218, 
			 "total_energy": -990.01408013, 
			 "HOMO_LUMO_gap": 0.21654, 
			 "cosmo_polarized_energy": -17.13, 
			 "cosmo_cavitation_energy": 28.73, 
			 "cosmo_dispersion_energy": -20.93, 
			 "cosmo_repulsion_energy": 1.61, 
			 "cosmo_total_nonelectrostatic_energy": 9.41, 
			 "SMD_solvation_energy": 5.01 
		},
		"coords": [
			{
				"x": -1.062522952,
				"y": 2.2784283213,
				"z": -0.1878531856,
				"element": "C" 
			},
			{
				"x": -0.9289303728,
				"y": 0.8094759386,
				"z": -0.14334563,
				"element": "N" 
			},
			{
				"x": 0.4209765922,
				"y": 0.304860969,
				"z": -0.063657822,
				"element": "C" 
			},
			{
				"x": 1.008123796,
				"y": -0.2053258637,
				"z": -1.2292066162,
				"element": "C" 
			},
			{
				"x": 2.3210756723,
				"y": -0.6650204238,
				"z": -1.2247100471,
				"element": "C" 
			},
			{
				"x": 3.0646575316,
				"y": -0.6231613728,
				"z": -0.0391150604,
				"element": "C" 
			},
			{
				"x": 4.3450800572,
				"y": -1.0894595673,
				"z": -0.0854728366,
				"element": "O" 
			},
			{
				"x": 2.4852278029,
				"y": -0.1174999527,
				"z": 1.1310859569,
				"element": "C" 
			},
			{
				"x": 1.1725212959,
				"y": 0.3483542979,
				"z": 1.1174726452,
				"element": "C" 
			},
			{
				"x": -2.1089425309,
				"y": 0.0047507809,
				"z": 0.7950988854,
				"element": "S" 
			},
			{
				"x": -2.2551085783,
				"y": -1.546974433,
				"z": -0.1050163529,
				"element": "C" 
			},
			{
				"x": -3.348843897,
				"y": 0.7709006887,
				"z": 0.6331238091,
				"element": "O" 
			},
			{
				"x": -1.6213827159,
				"y": -0.3116401309,
				"z": 2.1452719757,
				"element": "O" 
			},
			{
				"x": -2.1115597021,
				"y": 2.5370975904,
				"z": -0.3288286772,
				"element": "H" 
			},
			{
				"x": -0.6868502019,
				"y": 2.7667823572,
				"z": 0.7206908356,
				"element": "H" 
			},
			{
				"x": -0.4835009118,
				"y": 2.6348488594,
				"z": -1.0431275248,
				"element": "H" 
			},
			{
				"x": 0.4219013781,
				"y": -0.2305078128,
				"z": -2.1428049993,
				"element": "H" 
			},
			{
				"x": 2.7849431632,
				"y": -1.0592502377,
				"z": -2.122541808,
				"element": "H" 
			},
			{
				"x": 4.7460461076,
				"y": -1.0098678324,
				"z": 0.7898950589,
				"element": "H" 
			},
			{
				"x": 3.0602895589,
				"y": -0.0895977,
				"z": 2.0542467614,
				"element": "H" 
			},
			{
				"x": 0.7186647266,
				"y": 0.7229253449,
				"z": 2.0277534079,
				"element": "H" 
			},
			{
				"x": -2.644411193,
				"y": -1.3363899308,
				"z": -1.1006461447,
				"element": "H" 
			},
			{
				"x": -2.9492311978,
				"y": -2.1689206025,
				"z": 0.4625233801,
				"element": "H" 
			},
			{
				"x": -1.275723429,
				"y": -2.0234092877,
				"z": -0.1557360115,
				"element": "H" 
			}
		],
		 "valence_orbital": [ 
			{
				"type": "occ",
				"energy": -0.30423,
				"method": "rhf"
			},
			{
				"type": "occ",
				"energy": -0.2944,
				"method": "rhf"
			},
			{
				"type": "occ",
				"energy": -0.26466,
				"method": "rhf"
			},
			{
				"type": "occ",
				"energy": -0.25366,
				"method": "rhf"
			},
			{
				"type": "occ",
				"energy": -0.23203,
				"method": "rhf"
			},
			{
				"type": "unocc",
				"energy": -0.01549,
				"method": "rhf"
			},
			{
				"type": "unocc",
				"energy": -0.00827,
				"method": "rhf"
			},
			{
				"type": "unocc",
				"energy": 0.06105,
				"method": "rhf"
			},
			{
				"type": "unocc",
				"energy": 0.06741,
				"method": "rhf"
			},
			{
				"type": "unocc",
				"energy": 0.07742,
				"method": "rhf"
			}
		],
		"cosmo_sigma_profile": { 
			"-0.025": 0.0,
			"-0.024": 0.0,
			"-0.023": 0.0,
			"-0.022": 0.0,
			"-0.021": 0.0,
			"-0.02": 0.0,
			"-0.019": 0.0235870716298,
			"-0.018": 0.650513868326,
			"-0.017": 1.19823490025,
			"-0.016": 1.41084021047,
			"-0.015": 0.732648655525,
			"-0.014": 0.926857953422,
			"-0.013": 1.07166418984,
			"-0.012": 0.438386056742,
			"-0.011": 1.14096423539,
			"-0.01": 1.5541450078,
			"-0.009": 2.41976677297,
			"-0.008": 5.44764084521,
			"-0.007": 6.70068427251,
			"-0.006": 11.1465102928,
			"-0.005": 17.5042910504,
			"-0.004": 21.9533991514,
			"-0.003": 18.0448760228,
			"-0.002": 16.4410515269,
			"-0.001": 11.1688223108,
			"0.0": 10.3432342609,
			"0.001": 8.56301298274,
			"0.002": 10.3976823538,
			"0.003": 14.5347505148,
			"0.004": 13.6301737173,
			"0.005": 7.11496547992,
			"0.006": 3.85413961796,
			"0.007": 4.4626096684,
			"0.008": 4.86494814442,
			"0.009": 5.33164084929,
			"0.01": 5.92203299904,
			"0.011": 11.6560133756,
			"0.012": 6.64576461428,
			"0.013": 0.366969502229,
			"0.014": 0.0,
			"0.015": 0.0,
			"0.016": 0.0,
			"0.017": 0.0,
			"0.018": 0.0,
			"0.019": 0.0,
			"0.02": 0.0,
			"0.021": 0.0,
			"0.022": 0.0,
			"0.023": 0.0,
			"0.024": 0.0,
			"0.025": 0.0
		}
	}
}
