{
	 "smiles": "CC1(C)C2CCC1(C)C(=O)C(Br)=C2Br", 
	 "Tm": 376.15, 
	 "num_atms": 28, 
	 "gaussian": { 
		 "optdone": 1, 
		 "sigma_profile": "yes", 
		 "theory": "DFT", 
		 "functional": "B3LYP", 
		 "basiset": "6-31G**", 
		 "properties": { 
			 "R2extent": 7697.7455, 
			 "electric_dipole_moment_norm": 4.27619612506, 
			 "electric_quadrupole_moment_norm": 6.95273160348, 
			 "total_energy": -5645.63168093, 
			 "HOMO_LUMO_gap": 0.18364, 
			 "cosmo_polarized_energy": -9.07, 
			 "cosmo_cavitation_energy": 31.82, 
			 "cosmo_dispersion_energy": -23.12, 
			 "cosmo_repulsion_energy": 1.78, 
			 "cosmo_total_nonelectrostatic_energy": 10.48, 
			 "SMD_solvation_energy": 3.52 
		},
		"coords": [
			{
				"x": 1.6896333006,
				"y": -1.6984100973,
				"z": -1.9891370051,
				"element": "C" 
			},
			{
				"x": 1.8704454581,
				"y": -1.1496088764,
				"z": -0.5576563745,
				"element": "C" 
			},
			{
				"x": 3.3363033426,
				"y": -0.6974253209,
				"z": -0.4271915751,
				"element": "C" 
			},
			{
				"x": 1.4368720318,
				"y": -2.2303325152,
				"z": 0.4788511228,
				"element": "C" 
			},
			{
				"x": -0.1068281359,
				"y": -2.3144637266,
				"z": 0.2896006218,
				"element": "C" 
			},
			{
				"x": -0.5206945486,
				"y": -0.8649556704,
				"z": -0.0756040224,
				"element": "C" 
			},
			{
				"x": 0.8119272024,
				"y": -0.0427034366,
				"z": -0.2140357041,
				"element": "C" 
			},
			{
				"x": 0.6964900996,
				"y": 1.1066148143,
				"z": -1.21531253,
				"element": "C" 
			},
			{
				"x": 1.1205746666,
				"y": 0.5305363227,
				"z": 1.1849017458,
				"element": "C" 
			},
			{
				"x": 1.0058413037,
				"y": 1.7140396405,
				"z": 1.4427805877,
				"element": "O" 
			},
			{
				"x": 1.5204973168,
				"y": -0.4645942558,
				"z": 2.232156063,
				"element": "C" 
			},
			{
				"x": 1.774406791,
				"y": 0.2223110898,
				"z": 3.9779772151,
				"element": "Br" 
			},
			{
				"x": 1.7038690714,
				"y": -1.7538083058,
				"z": 1.8883053846,
				"element": "C" 
			},
			{
				"x": 2.2009408219,
				"y": -3.0928580588,
				"z": 3.1362186563,
				"element": "Br" 
			},
			{
				"x": 2.2968348093,
				"y": -2.6010066322,
				"z": -2.1210550304,
				"element": "H" 
			},
			{
				"x": 0.6559356753,
				"y": -1.9546842095,
				"z": -2.2319711473,
				"element": "H" 
			},
			{
				"x": 2.0299865647,
				"y": -0.9667756214,
				"z": -2.7273530111,
				"element": "H" 
			},
			{
				"x": 3.5899707807,
				"y": -0.3207455282,
				"z": 0.5651446184,
				"element": "H" 
			},
			{
				"x": 3.5543638665,
				"y": 0.0949736008,
				"z": -1.1502457534,
				"element": "H" 
			},
			{
				"x": 4.0104030415,
				"y": -1.5324794381,
				"z": -0.6473100082,
				"element": "H" 
			},
			{
				"x": 1.9335749661,
				"y": -3.1893890704,
				"z": 0.3156672449,
				"element": "H" 
			},
			{
				"x": -0.6008120392,
				"y": -2.6857361703,
				"z": 1.1906717,
				"element": "H" 
			},
			{
				"x": -0.3456789747,
				"y": -3.0131415724,
				"z": -0.5169109645,
				"element": "H" 
			},
			{
				"x": -1.1869381054,
				"y": -0.4177771206,
				"z": 0.6677557277,
				"element": "H" 
			},
			{
				"x": -1.05778491,
				"y": -0.8373828114,
				"z": -1.0283767584,
				"element": "H" 
			},
			{
				"x": -0.0488431529,
				"y": 1.8299642247,
				"z": -0.8775046146,
				"element": "H" 
			},
			{
				"x": 1.6421064347,
				"y": 1.6472785741,
				"z": -1.3163756625,
				"element": "H" 
			},
			{
				"x": 0.3997023211,
				"y": 0.7352601713,
				"z": -2.1998905267,
				"element": "H" 
			}
		],
		 "valence_orbital": [ 
			{
				"type": "occ",
				"energy": -0.30598,
				"method": "rhf"
			},
			{
				"type": "occ",
				"energy": -0.30279,
				"method": "rhf"
			},
			{
				"type": "occ",
				"energy": -0.27503,
				"method": "rhf"
			},
			{
				"type": "occ",
				"energy": -0.25247,
				"method": "rhf"
			},
			{
				"type": "occ",
				"energy": -0.24775,
				"method": "rhf"
			},
			{
				"type": "unocc",
				"energy": -0.06411,
				"method": "rhf"
			},
			{
				"type": "unocc",
				"energy": -0.02271,
				"method": "rhf"
			},
			{
				"type": "unocc",
				"energy": 0.03407,
				"method": "rhf"
			},
			{
				"type": "unocc",
				"energy": 0.04226,
				"method": "rhf"
			},
			{
				"type": "unocc",
				"energy": 0.06284,
				"method": "rhf"
			}
		],
		"cosmo_sigma_profile": { 
			"-0.025": 0.0,
			"-0.024": 0.0,
			"-0.023": 0.0,
			"-0.022": 0.0,
			"-0.021": 0.0,
			"-0.02": 0.0,
			"-0.019": 0.0,
			"-0.018": 0.0,
			"-0.017": 0.0,
			"-0.016": 0.0,
			"-0.015": 0.0,
			"-0.014": 0.0,
			"-0.013": 0.0,
			"-0.012": 0.0,
			"-0.011": 0.0,
			"-0.01": 0.0,
			"-0.009": 0.0,
			"-0.008": 0.0,
			"-0.007": 0.0,
			"-0.006": 1.09516184227,
			"-0.005": 10.3352227259,
			"-0.004": 25.0578696957,
			"-0.003": 38.7098030167,
			"-0.002": 32.2518851847,
			"-0.001": 31.3668125983,
			"0.0": 26.979307842,
			"0.001": 20.8237211093,
			"0.002": 12.5645700054,
			"0.003": 15.4640940235,
			"0.004": 12.5024841954,
			"0.005": 8.00677444715,
			"0.006": 2.31545542742,
			"0.007": 1.81313733456,
			"0.008": 2.27081722204,
			"0.009": 2.3697128172,
			"0.01": 2.68424884931,
			"0.011": 4.11242509133,
			"0.012": 3.71738746394,
			"0.013": 0.525187927845,
			"0.014": 0.0,
			"0.015": 0.0,
			"0.016": 0.0,
			"0.017": 0.0,
			"0.018": 0.0,
			"0.019": 0.0,
			"0.02": 0.0,
			"0.021": 0.0,
			"0.022": 0.0,
			"0.023": 0.0,
			"0.024": 0.0,
			"0.025": 0.0
		}
	}
}
