{
	 "smiles": "COC1=CC=C(C(C)=C1)[N+]([O-])=O", 
	 "Tm": 322.15, 
	 "num_atms": 21, 
	 "gaussian": { 
		 "optdone": 1, 
		 "sigma_profile": "yes", 
		 "theory": "DFT", 
		 "functional": "B3LYP", 
		 "basiset": "6-31G**", 
		 "properties": { 
			 "R2extent": 3048.2912, 
			 "electric_dipole_moment_norm": 5.54732464977, 
			 "electric_quadrupole_moment_norm": 21.6323178952, 
			 "total_energy": -590.592469546, 
			 "HOMO_LUMO_gap": 0.16949, 
			 "cosmo_polarized_energy": -9.9, 
			 "cosmo_cavitation_energy": 25.11, 
			 "cosmo_dispersion_energy": -18.69, 
			 "cosmo_repulsion_energy": 1.47, 
			 "cosmo_total_nonelectrostatic_energy": 7.9, 
			 "SMD_solvation_energy": 7.28 
		},
		"coords": [
			{
				"x": -1.7315665872,
				"y": 1.0228299022,
				"z": -2.6879417179,
				"element": "C" 
			},
			{
				"x": -0.7314886002,
				"y": 0.3651141804,
				"z": -1.9178722489,
				"element": "O" 
			},
			{
				"x": -0.8853354867,
				"y": 0.301084146,
				"z": -0.5732024183,
				"element": "C" 
			},
			{
				"x": -1.9699652578,
				"y": 0.8398440267,
				"z": 0.1328321629,
				"element": "C" 
			},
			{
				"x": -2.0007747357,
				"y": 0.7014983966,
				"z": 1.5136406755,
				"element": "C" 
			},
			{
				"x": -0.9767237761,
				"y": 0.0407424179,
				"z": 2.195364725,
				"element": "C" 
			},
			{
				"x": 0.1311573366,
				"y": -0.5129850198,
				"z": 1.5072237848,
				"element": "C" 
			},
			{
				"x": 1.2851706598,
				"y": -1.2429941359,
				"z": 2.1506447586,
				"element": "C" 
			},
			{
				"x": 0.138263919,
				"y": -0.3608240261,
				"z": 0.121819186,
				"element": "C" 
			},
			{
				"x": -1.1179955449,
				"y": -0.0432392737,
				"z": 3.6511423398,
				"element": "N" 
			},
			{
				"x": -0.2379675742,
				"y": -0.6172811395,
				"z": 4.2977902244,
				"element": "O" 
			},
			{
				"x": -2.1169291585,
				"y": 0.467474845,
				"z": 4.1645795323,
				"element": "O" 
			},
			{
				"x": -1.8237775677,
				"y": 2.0789886059,
				"z": -2.4075099102,
				"element": "H" 
			},
			{
				"x": -1.4031064826,
				"y": 0.9525078654,
				"z": -3.7253372664,
				"element": "H" 
			},
			{
				"x": -2.7066389927,
				"y": 0.5322502095,
				"z": -2.5822085413,
				"element": "H" 
			},
			{
				"x": -2.7765151785,
				"y": 1.3567884723,
				"z": -0.3715567025,
				"element": "H" 
			},
			{
				"x": -2.8219979762,
				"y": 1.1042257244,
				"z": 2.0923028951,
				"element": "H" 
			},
			{
				"x": 1.804610221,
				"y": -0.6114579992,
				"z": 2.87524908,
				"element": "H" 
			},
			{
				"x": 1.993771214,
				"y": -1.5598377574,
				"z": 1.3811707625,
				"element": "H" 
			},
			{
				"x": 0.9449506509,
				"y": -2.1208515762,
				"z": 2.7050295393,
				"element": "H" 
			},
			{
				"x": 0.9605589177,
				"y": -0.7638778644,
				"z": -0.4600608608,
				"element": "H" 
			}
		],
		 "valence_orbital": [ 
			{
				"type": "occ",
				"energy": -0.29712,
				"method": "rhf"
			},
			{
				"type": "occ",
				"energy": -0.29552,
				"method": "rhf"
			},
			{
				"type": "occ",
				"energy": -0.2764,
				"method": "rhf"
			},
			{
				"type": "occ",
				"energy": -0.26684,
				"method": "rhf"
			},
			{
				"type": "occ",
				"energy": -0.24517,
				"method": "rhf"
			},
			{
				"type": "unocc",
				"energy": -0.07568,
				"method": "rhf"
			},
			{
				"type": "unocc",
				"energy": -0.0197,
				"method": "rhf"
			},
			{
				"type": "unocc",
				"energy": 0.01355,
				"method": "rhf"
			},
			{
				"type": "unocc",
				"energy": 0.07981,
				"method": "rhf"
			},
			{
				"type": "unocc",
				"energy": 0.09342,
				"method": "rhf"
			}
		],
		"cosmo_sigma_profile": { 
			"-0.025": 0.0,
			"-0.024": 0.0,
			"-0.023": 0.0,
			"-0.022": 0.0,
			"-0.021": 0.0,
			"-0.02": 0.0,
			"-0.019": 0.0,
			"-0.018": 0.0,
			"-0.017": 0.0,
			"-0.016": 0.0,
			"-0.015": 0.0,
			"-0.014": 0.0,
			"-0.013": 0.0,
			"-0.012": 0.0,
			"-0.011": 0.0,
			"-0.01": 0.0,
			"-0.009": 0.0,
			"-0.008": 0.848550644963,
			"-0.007": 6.62113605336,
			"-0.006": 14.4289873691,
			"-0.005": 14.8646714827,
			"-0.004": 17.1701475639,
			"-0.003": 17.8366906462,
			"-0.002": 14.7343782282,
			"-0.001": 14.6611830818,
			"0.0": 17.9277701197,
			"0.001": 15.6668334801,
			"0.002": 15.7976280428,
			"0.003": 8.30239488253,
			"0.004": 4.86944383013,
			"0.005": 4.66889819989,
			"0.006": 3.36871621873,
			"0.007": 5.091525968,
			"0.008": 8.7049490793,
			"0.009": 7.0057022157,
			"0.01": 4.57248175306,
			"0.011": 2.58480708909,
			"0.012": 0.0915701197543,
			"0.013": 0.0,
			"0.014": 0.0,
			"0.015": 0.0,
			"0.016": 0.0,
			"0.017": 0.0,
			"0.018": 0.0,
			"0.019": 0.0,
			"0.02": 0.0,
			"0.021": 0.0,
			"0.022": 0.0,
			"0.023": 0.0,
			"0.024": 0.0,
			"0.025": 0.0
		}
	}
}
