{
	 "smiles": "O=C1[C@H]2CC3=CC=CC=C3C[C@H]2C(=O)[C@@H]2CC3=CC=CC=C3C[C@H]12", 
	 "Tm": 499.15, 
	 "num_atms": 44, 
	 "gaussian": { 
		 "optdone": 1, 
		 "sigma_profile": "yes", 
		 "theory": "DFT", 
		 "functional": "B3LYP", 
		 "basiset": "6-31G**", 
		 "properties": { 
			 "R2extent": 9655.4579, 
			 "electric_dipole_moment_norm": 3.33242451978, 
			 "electric_quadrupole_moment_norm": 11.3368734416, 
			 "total_energy": -1000.85763185, 
			 "HOMO_LUMO_gap": 0.19501, 
			 "cosmo_polarized_energy": -15.26, 
			 "cosmo_cavitation_energy": 44.03, 
			 "cosmo_dispersion_energy": -31.24, 
			 "cosmo_repulsion_energy": 2.3, 
			 "cosmo_total_nonelectrostatic_energy": 15.09, 
			 "SMD_solvation_energy": 6.93 
		},
		"coords": [
			{
				"x": -2.0231965444,
				"y": 0.5997019288,
				"z": -2.8364997419,
				"element": "O" 
			},
			{
				"x": -1.4067892633,
				"y": 0.4447942144,
				"z": -1.7988941758,
				"element": "C" 
			},
			{
				"x": -2.1043423086,
				"y": -0.0857219368,
				"z": -0.5460508028,
				"element": "C" 
			},
			{
				"x": -2.0236563832,
				"y": -1.6464286241,
				"z": -0.5671258547,
				"element": "C" 
			},
			{
				"x": -2.3081076238,
				"y": -2.2550016647,
				"z": 0.7834377478,
				"element": "C" 
			},
			{
				"x": -3.1698229149,
				"y": -3.3391733551,
				"z": 0.9646760679,
				"element": "C" 
			},
			{
				"x": -3.3673278638,
				"y": -3.8793854982,
				"z": 2.2373625019,
				"element": "C" 
			},
			{
				"x": -2.7084988643,
				"y": -3.3289211398,
				"z": 3.337741545,
				"element": "C" 
			},
			{
				"x": -1.8558064872,
				"y": -2.2364002674,
				"z": 3.1646760507,
				"element": "C" 
			},
			{
				"x": -1.6458878305,
				"y": -1.6990801143,
				"z": 1.8928087201,
				"element": "C" 
			},
			{
				"x": -0.7687032482,
				"y": -0.4979884937,
				"z": 1.6368115579,
				"element": "C" 
			},
			{
				"x": -1.5548348974,
				"y": 0.535094409,
				"z": 0.7793861531,
				"element": "C" 
			},
			{
				"x": -0.7234706453,
				"y": 1.7893777842,
				"z": 0.5211399657,
				"element": "C" 
			},
			{
				"x": -0.9379028742,
				"y": 2.8209904533,
				"z": 1.1307602444,
				"element": "O" 
			},
			{
				"x": 0.4162236121,
				"y": 1.6823150063,
				"z": -0.4933428659,
				"element": "C" 
			},
			{
				"x": 0.8991229942,
				"y": 3.064593821,
				"z": -0.9761356682,
				"element": "C" 
			},
			{
				"x": 2.0938101886,
				"y": 2.8919946996,
				"z": -1.8805363133,
				"element": "C" 
			},
			{
				"x": 3.278187702,
				"y": 3.6167532751,
				"z": -1.7294451332,
				"element": "C" 
			},
			{
				"x": 4.3621166005,
				"y": 3.3878979571,
				"z": -2.5802177386,
				"element": "C" 
			},
			{
				"x": 4.2677074754,
				"y": 2.419591861,
				"z": -3.5807284894,
				"element": "C" 
			},
			{
				"x": 3.0889089802,
				"y": 1.6854738195,
				"z": -3.730754531,
				"element": "C" 
			},
			{
				"x": 1.9968975848,
				"y": 1.9173588097,
				"z": -2.8906594334,
				"element": "C" 
			},
			{
				"x": 0.6823324219,
				"y": 1.1913855547,
				"z": -3.0354644658,
				"element": "C" 
			},
			{
				"x": 0.0970560732,
				"y": 0.7102446833,
				"z": -1.6865188103,
				"element": "C" 
			},
			{
				"x": -3.156029958,
				"y": 0.1927443895,
				"z": -0.6521896711,
				"element": "H" 
			},
			{
				"x": -2.7060262231,
				"y": -2.0283224735,
				"z": -1.3314078728,
				"element": "H" 
			},
			{
				"x": -1.0122210042,
				"y": -1.9453379259,
				"z": -0.8798000016,
				"element": "H" 
			},
			{
				"x": -3.6861118831,
				"y": -3.7636172322,
				"z": 0.1070552259,
				"element": "H" 
			},
			{
				"x": -4.037539365,
				"y": -4.7239190566,
				"z": 2.3690214521,
				"element": "H" 
			},
			{
				"x": -2.8635280513,
				"y": -3.742922289,
				"z": 4.3298624589,
				"element": "H" 
			},
			{
				"x": -1.3517321654,
				"y": -1.7979539265,
				"z": 4.0225313404,
				"element": "H" 
			},
			{
				"x": -0.4552728581,
				"y": -0.0335250583,
				"z": 2.5770270805,
				"element": "H" 
			},
			{
				"x": 0.1477789918,
				"y": -0.8009300904,
				"z": 1.1099106839,
				"element": "H" 
			},
			{
				"x": -2.40056722,
				"y": 0.8672200115,
				"z": 1.3869742052,
				"element": "H" 
			},
			{
				"x": 1.2497826081,
				"y": 1.2372981188,
				"z": 0.0701048112,
				"element": "H" 
			},
			{
				"x": 1.1308141388,
				"y": 3.6898318264,
				"z": -0.1112412777,
				"element": "H" 
			},
			{
				"x": 0.0760359483,
				"y": 3.5641350595,
				"z": -1.5065686147,
				"element": "H" 
			},
			{
				"x": 3.3519341621,
				"y": 4.3633220369,
				"z": -0.9422086961,
				"element": "H" 
			},
			{
				"x": 5.2781302452,
				"y": 3.9587210719,
				"z": -2.4571641874,
				"element": "H" 
			},
			{
				"x": 5.1099354865,
				"y": 2.232949278,
				"z": -4.241006901,
				"element": "H" 
			},
			{
				"x": 3.0152235913,
				"y": 0.9296536091,
				"z": -4.5092661883,
				"element": "H" 
			},
			{
				"x": 0.7760112727,
				"y": 0.3417981798,
				"z": -3.7182224446,
				"element": "H" 
			},
			{
				"x": -0.0595044039,
				"y": 1.8564155769,
				"z": -3.4957942156,
				"element": "H" 
			},
			{
				"x": 0.5458708033,
				"y": -0.2610282885,
				"z": -1.4363437173,
				"element": "H" 
			}
		],
		 "valence_orbital": [ 
			{
				"type": "occ",
				"energy": -0.25398,
				"method": "rhf"
			},
			{
				"type": "occ",
				"energy": -0.24669,
				"method": "rhf"
			},
			{
				"type": "occ",
				"energy": -0.24496,
				"method": "rhf"
			},
			{
				"type": "occ",
				"energy": -0.23764,
				"method": "rhf"
			},
			{
				"type": "occ",
				"energy": -0.23467,
				"method": "rhf"
			},
			{
				"type": "unocc",
				"energy": -0.03966,
				"method": "rhf"
			},
			{
				"type": "unocc",
				"energy": -0.01794,
				"method": "rhf"
			},
			{
				"type": "unocc",
				"energy": -0.00687,
				"method": "rhf"
			},
			{
				"type": "unocc",
				"energy": -0.00478,
				"method": "rhf"
			},
			{
				"type": "unocc",
				"energy": 0.00177,
				"method": "rhf"
			}
		],
		"cosmo_sigma_profile": { 
			"-0.025": 0.0,
			"-0.024": 0.0,
			"-0.023": 0.0,
			"-0.022": 0.0,
			"-0.021": 0.0,
			"-0.02": 0.0,
			"-0.019": 0.0,
			"-0.018": 0.0,
			"-0.017": 0.0,
			"-0.016": 0.0,
			"-0.015": 0.0,
			"-0.014": 0.0,
			"-0.013": 0.0,
			"-0.012": 0.0,
			"-0.011": 0.0281124774848,
			"-0.01": 0.260643028884,
			"-0.009": 0.699458368805,
			"-0.008": 2.72725954759,
			"-0.007": 7.23273673912,
			"-0.006": 13.0346485796,
			"-0.005": 37.2333164984,
			"-0.004": 40.2625589683,
			"-0.003": 37.0687799212,
			"-0.002": 28.4699928425,
			"-0.001": 23.204333554,
			"0.0": 19.0622269365,
			"0.001": 18.2694949592,
			"0.002": 15.254025347,
			"0.003": 16.8039556531,
			"0.004": 17.5609469421,
			"0.005": 18.1183541772,
			"0.006": 17.2169040657,
			"0.007": 8.34009071744,
			"0.008": 3.52466907029,
			"0.009": 3.54136598347,
			"0.01": 3.88242761222,
			"0.011": 7.58323625245,
			"0.012": 6.7555268931,
			"0.013": 1.13765235439,
			"0.014": 0.0,
			"0.015": 0.0,
			"0.016": 0.0,
			"0.017": 0.0,
			"0.018": 0.0,
			"0.019": 0.0,
			"0.02": 0.0,
			"0.021": 0.0,
			"0.022": 0.0,
			"0.023": 0.0,
			"0.024": 0.0,
			"0.025": 0.0
		}
	}
}
