{
	 "smiles": "NNC1=C(F)C=C(F)C=C1F", 
	 "Tm": 372.15, 
	 "num_atms": 16, 
	 "gaussian": { 
		 "optdone": 1, 
		 "sigma_profile": "yes", 
		 "theory": "DFT", 
		 "functional": "B3LYP", 
		 "basiset": "6-31G**", 
		 "properties": { 
			 "R2extent": 2814.1633, 
			 "electric_dipole_moment_norm": 0.989983020056, 
			 "electric_quadrupole_moment_norm": 5.13063859865, 
			 "total_energy": -640.611232355, 
			 "HOMO_LUMO_gap": 0.20232, 
			 "cosmo_polarized_energy": -7.26, 
			 "cosmo_cavitation_energy": 21.67, 
			 "cosmo_dispersion_energy": -15.77, 
			 "cosmo_repulsion_energy": 1.2, 
			 "cosmo_total_nonelectrostatic_energy": 7.1, 
			 "SMD_solvation_energy": 5.38 
		},
		"coords": [
			{
				"x": -0.1327023748,
				"y": -1.167180841,
				"z": 0.6663909397,
				"element": "N" 
			},
			{
				"x": 0.1696487535,
				"y": 0.1896038529,
				"z": 0.3501927078,
				"element": "N" 
			},
			{
				"x": 0.0986119408,
				"y": 0.6158599744,
				"z": -0.9831944206,
				"element": "C" 
			},
			{
				"x": 1.1125578912,
				"y": 1.4012496477,
				"z": -1.5524361066,
				"element": "C" 
			},
			{
				"x": 2.1853743576,
				"y": 1.6756825344,
				"z": -0.7734370277,
				"element": "F" 
			},
			{
				"x": 1.0707639496,
				"y": 1.9047684489,
				"z": -2.8440135826,
				"element": "C" 
			},
			{
				"x": -0.041414519,
				"y": 1.59220367,
				"z": -3.61784292,
				"element": "C" 
			},
			{
				"x": -0.10995729,
				"y": 2.0557906212,
				"z": -4.8808515878,
				"element": "F" 
			},
			{
				"x": -1.0855892955,
				"y": 0.8173243312,
				"z": -3.1268118684,
				"element": "C" 
			},
			{
				"x": -0.9991042264,
				"y": 0.3594865058,
				"z": -1.818467444,
				"element": "C" 
			},
			{
				"x": -2.0277684409,
				"y": -0.3664662317,
				"z": -1.3227529797,
				"element": "F" 
			},
			{
				"x": -1.1437628769,
				"y": -1.249197728,
				"z": 0.7138141991,
				"element": "H" 
			},
			{
				"x": 0.1790815208,
				"y": -1.7832505134,
				"z": -0.0871377347,
				"element": "H" 
			},
			{
				"x": 1.0480113505,
				"y": 0.4507364849,
				"z": 0.7792220981,
				"element": "H" 
			},
			{
				"x": 1.8823008036,
				"y": 2.5066598894,
				"z": -3.233205701,
				"element": "H" 
			},
			{
				"x": -1.9527515439,
				"y": 0.5885293531,
				"z": -3.7335685715,
				"element": "H" 
			}
		],
		 "valence_orbital": [ 
			{
				"type": "occ",
				"energy": -0.36144,
				"method": "rhf"
			},
			{
				"type": "occ",
				"energy": -0.30708,
				"method": "rhf"
			},
			{
				"type": "occ",
				"energy": -0.26761,
				"method": "rhf"
			},
			{
				"type": "occ",
				"energy": -0.26165,
				"method": "rhf"
			},
			{
				"type": "occ",
				"energy": -0.21679,
				"method": "rhf"
			},
			{
				"type": "unocc",
				"energy": -0.01447,
				"method": "rhf"
			},
			{
				"type": "unocc",
				"energy": -0.00576,
				"method": "rhf"
			},
			{
				"type": "unocc",
				"energy": 0.05477,
				"method": "rhf"
			},
			{
				"type": "unocc",
				"energy": 0.09124,
				"method": "rhf"
			},
			{
				"type": "unocc",
				"energy": 0.11174,
				"method": "rhf"
			}
		],
		"cosmo_sigma_profile": { 
			"-0.025": 0.0,
			"-0.024": 0.0,
			"-0.023": 0.0,
			"-0.022": 0.0,
			"-0.021": 0.0,
			"-0.02": 0.0,
			"-0.019": 0.0,
			"-0.018": 0.0,
			"-0.017": 0.0,
			"-0.016": 0.0,
			"-0.015": 0.0,
			"-0.014": 0.0,
			"-0.013": 0.0,
			"-0.012": 0.096409122419,
			"-0.011": 1.49458207759,
			"-0.01": 3.03628039983,
			"-0.009": 4.52977153964,
			"-0.008": 7.2457457876,
			"-0.007": 5.21939057352,
			"-0.006": 7.16199917651,
			"-0.005": 6.38226634771,
			"-0.004": 6.65469604361,
			"-0.003": 5.71151088303,
			"-0.002": 7.2884991468,
			"-0.001": 10.4144625436,
			"0.0": 19.9711082398,
			"0.001": 23.3985285496,
			"0.002": 13.7773775152,
			"0.003": 16.8859352584,
			"0.004": 18.7125698031,
			"0.005": 2.47198379685,
			"0.006": 1.62014774828,
			"0.007": 1.53812367971,
			"0.008": 1.55909035632,
			"0.009": 1.88644539969,
			"0.01": 1.21015251019,
			"0.011": 0.613144505246,
			"0.012": 1.26615347789,
			"0.013": 1.35716839235,
			"0.014": 0.488984702013,
			"0.015": 0.254882203538,
			"0.016": 0.774978630344,
			"0.017": 0.558329505528,
			"0.018": 0.0,
			"0.019": 0.0,
			"0.02": 0.0,
			"0.021": 0.0,
			"0.022": 0.0,
			"0.023": 0.0,
			"0.024": 0.0,
			"0.025": 0.0
		}
	}
}
