{
	 "smiles": "BrC1=CC(=CC=C1)N1C=CC=C1", 
	 "Tm": 336.65, 
	 "num_atms": 20, 
	 "gaussian": { 
		 "optdone": 1, 
		 "sigma_profile": "yes", 
		 "theory": "DFT", 
		 "functional": "B3LYP", 
		 "basiset": "6-31G**", 
		 "properties": { 
			 "R2extent": 4134.6687, 
			 "electric_dipole_moment_norm": 1.5133013117, 
			 "electric_quadrupole_moment_norm": 8.25986647592, 
			 "total_energy": -3012.02347082, 
			 "HOMO_LUMO_gap": 0.18985, 
			 "cosmo_polarized_energy": -6.55, 
			 "cosmo_cavitation_energy": 26.11, 
			 "cosmo_dispersion_energy": -19.92, 
			 "cosmo_repulsion_energy": 1.55, 
			 "cosmo_total_nonelectrostatic_energy": 7.73, 
			 "SMD_solvation_energy": 4.0 
		},
		"coords": [
			{
				"x": 1.8977454507,
				"y": -0.2139523563,
				"z": -2.258148089,
				"element": "Br" 
			},
			{
				"x": 0.510558928,
				"y": -1.0634038559,
				"z": -1.2522714114,
				"element": "C" 
			},
			{
				"x": 0.5323723062,
				"y": -0.9554726016,
				"z": 0.1344329179,
				"element": "C" 
			},
			{
				"x": -0.4749035351,
				"y": -1.5704078826,
				"z": 0.8951711884,
				"element": "C" 
			},
			{
				"x": -1.4845834126,
				"y": -2.283257924,
				"z": 0.2289836039,
				"element": "C" 
			},
			{
				"x": -1.4805192418,
				"y": -2.3742448906,
				"z": -1.1603902575,
				"element": "C" 
			},
			{
				"x": -0.4845851803,
				"y": -1.7669829921,
				"z": -1.9249022835,
				"element": "C" 
			},
			{
				"x": -0.4665717612,
				"y": -1.4696396224,
				"z": 2.3068939496,
				"element": "N" 
			},
			{
				"x": 0.4737479555,
				"y": -0.7942703269,
				"z": 3.0760697624,
				"element": "C" 
			},
			{
				"x": 0.1377573843,
				"y": -0.9279129562,
				"z": 4.3985675276,
				"element": "C" 
			},
			{
				"x": -1.0524178826,
				"y": -1.7129245252,
				"z": 4.459106715,
				"element": "C" 
			},
			{
				"x": -1.3998297527,
				"y": -2.0300724223,
				"z": 3.1712900518,
				"element": "C" 
			},
			{
				"x": 1.3295156408,
				"y": -0.3967575875,
				"z": 0.6036812162,
				"element": "H" 
			},
			{
				"x": -2.2761785047,
				"y": -2.7694458507,
				"z": 0.7841192062,
				"element": "H" 
			},
			{
				"x": -2.2703149044,
				"y": -2.930158426,
				"z": -1.6567654426,
				"element": "H" 
			},
			{
				"x": -0.480525305,
				"y": -1.8371686177,
				"z": -3.0057086169,
				"element": "H" 
			},
			{
				"x": 1.3032686521,
				"y": -0.2744154369,
				"z": 2.6275352997,
				"element": "H" 
			},
			{
				"x": 0.6852532455,
				"y": -0.5087491548,
				"z": 5.2309300784,
				"element": "H" 
			},
			{
				"x": -1.5922297521,
				"y": -2.0110209539,
				"z": 5.3468331284,
				"element": "H" 
			},
			{
				"x": -2.2325603308,
				"y": -2.6069416163,
				"z": 2.8062714552,
				"element": "H" 
			}
		],
		 "valence_orbital": [ 
			{
				"type": "occ",
				"energy": -0.29043,
				"method": "rhf"
			},
			{
				"type": "occ",
				"energy": -0.28753,
				"method": "rhf"
			},
			{
				"type": "occ",
				"energy": -0.25209,
				"method": "rhf"
			},
			{
				"type": "occ",
				"energy": -0.22308,
				"method": "rhf"
			},
			{
				"type": "occ",
				"energy": -0.21776,
				"method": "rhf"
			},
			{
				"type": "unocc",
				"energy": -0.02791,
				"method": "rhf"
			},
			{
				"type": "unocc",
				"energy": -0.02061,
				"method": "rhf"
			},
			{
				"type": "unocc",
				"energy": 0.00256,
				"method": "rhf"
			},
			{
				"type": "unocc",
				"energy": 0.047,
				"method": "rhf"
			},
			{
				"type": "unocc",
				"energy": 0.08215,
				"method": "rhf"
			}
		],
		"cosmo_sigma_profile": { 
			"-0.025": 0.0,
			"-0.024": 0.0,
			"-0.023": 0.0,
			"-0.022": 0.0,
			"-0.021": 0.0,
			"-0.02": 0.0,
			"-0.019": 0.0,
			"-0.018": 0.0,
			"-0.017": 0.0,
			"-0.016": 0.0,
			"-0.015": 0.0,
			"-0.014": 0.0,
			"-0.013": 0.0,
			"-0.012": 0.0,
			"-0.011": 0.16321673382,
			"-0.01": 2.13220299035,
			"-0.009": 3.51860225369,
			"-0.008": 3.69404226282,
			"-0.007": 7.0575170279,
			"-0.006": 10.2495179146,
			"-0.005": 11.5853035555,
			"-0.004": 12.267193924,
			"-0.003": 11.4821766103,
			"-0.002": 12.7629094433,
			"-0.001": 13.238633102,
			"0.0": 15.2133239502,
			"0.001": 17.3697889112,
			"0.002": 23.0106359116,
			"0.003": 24.4281794262,
			"0.004": 20.6631034067,
			"0.005": 10.9484194752,
			"0.006": 5.54984987061,
			"0.007": 6.026915905,
			"0.008": 2.67797046802,
			"0.009": 0.0,
			"0.01": 0.0,
			"0.011": 0.0,
			"0.012": 0.0,
			"0.013": 0.0,
			"0.014": 0.0,
			"0.015": 0.0,
			"0.016": 0.0,
			"0.017": 0.0,
			"0.018": 0.0,
			"0.019": 0.0,
			"0.02": 0.0,
			"0.021": 0.0,
			"0.022": 0.0,
			"0.023": 0.0,
			"0.024": 0.0,
			"0.025": 0.0
		}
	}
}
