{
	 "smiles": "OP(O)(=O)CC1=CC=CC=C1", 
	 "Tm": 442.15, 
	 "num_atms": 20, 
	 "gaussian": { 
		 "optdone": 1, 
		 "sigma_profile": "yes", 
		 "theory": "DFT", 
		 "functional": "B3LYP", 
		 "basiset": "6-31G**", 
		 "properties": { 
			 "R2extent": 2600.6808, 
			 "electric_dipole_moment_norm": 1.30437271131, 
			 "electric_quadrupole_moment_norm": 7.51977680653, 
			 "total_energy": -839.271147813, 
			 "HOMO_LUMO_gap": 0.23782, 
			 "cosmo_polarized_energy": -16.45, 
			 "cosmo_cavitation_energy": 25.8, 
			 "cosmo_dispersion_energy": -18.76, 
			 "cosmo_repulsion_energy": 1.5, 
			 "cosmo_total_nonelectrostatic_energy": 8.54, 
			 "SMD_solvation_energy": 6.68 
		},
		"coords": [
			{
				"x": 0.2605638253,
				"y": -1.9843274962,
				"z": 2.8422260321,
				"element": "O" 
			},
			{
				"x": 0.1772298604,
				"y": -0.4344074001,
				"z": 2.3701144426,
				"element": "P" 
			},
			{
				"x": -1.2508612376,
				"y": 0.0599192743,
				"z": 2.9781376908,
				"element": "O" 
			},
			{
				"x": 1.3188832653,
				"y": 0.4283824707,
				"z": 2.7723442147,
				"element": "O" 
			},
			{
				"x": -0.1255256469,
				"y": -0.6598108668,
				"z": 0.5900343282,
				"element": "C" 
			},
			{
				"x": -0.4653258795,
				"y": 0.6338788432,
				"z": -0.1190568838,
				"element": "C" 
			},
			{
				"x": -1.7534997676,
				"y": 0.854532587,
				"z": -0.6215828616,
				"element": "C" 
			},
			{
				"x": -2.0677516557,
				"y": 2.0466523844,
				"z": -1.2764009016,
				"element": "C" 
			},
			{
				"x": -1.0969122136,
				"y": 3.0370166439,
				"z": -1.4313325989,
				"element": "C" 
			},
			{
				"x": 0.1882047036,
				"y": 2.8291587338,
				"z": -0.9252920939,
				"element": "C" 
			},
			{
				"x": 0.5024439492,
				"y": 1.6376677625,
				"z": -0.2719342779,
				"element": "C" 
			},
			{
				"x": 0.6882316921,
				"y": -2.0567447842,
				"z": 3.7080115024,
				"element": "H" 
			},
			{
				"x": -1.1603809009,
				"y": 0.9596840674,
				"z": 3.3227508422,
				"element": "H" 
			},
			{
				"x": -0.9290742536,
				"y": -1.3946231914,
				"z": 0.4831368105,
				"element": "H" 
			},
			{
				"x": 0.7860911628,
				"y": -1.1115137826,
				"z": 0.1831396403,
				"element": "H" 
			},
			{
				"x": -2.5135449857,
				"y": 0.0865385786,
				"z": -0.5029009516,
				"element": "H" 
			},
			{
				"x": -3.0705536265,
				"y": 2.1995109867,
				"z": -1.6651989822,
				"element": "H" 
			},
			{
				"x": -1.3393167563,
				"y": 3.9642897773,
				"z": -1.9424669176,
				"element": "H" 
			},
			{
				"x": 0.9486987519,
				"y": 3.5965984647,
				"z": -1.0380863653,
				"element": "H" 
			},
			{
				"x": 1.4976997133,
				"y": 1.485996947,
				"z": 0.1353573306,
				"element": "H" 
			}
		],
		 "valence_orbital": [ 
			{
				"type": "occ",
				"energy": -0.33332,
				"method": "rhf"
			},
			{
				"type": "occ",
				"energy": -0.29032,
				"method": "rhf"
			},
			{
				"type": "occ",
				"energy": -0.2887,
				"method": "rhf"
			},
			{
				"type": "occ",
				"energy": -0.25139,
				"method": "rhf"
			},
			{
				"type": "occ",
				"energy": -0.24503,
				"method": "rhf"
			},
			{
				"type": "unocc",
				"energy": -0.00721,
				"method": "rhf"
			},
			{
				"type": "unocc",
				"energy": -0.00349,
				"method": "rhf"
			},
			{
				"type": "unocc",
				"energy": 0.04858,
				"method": "rhf"
			},
			{
				"type": "unocc",
				"energy": 0.07274,
				"method": "rhf"
			},
			{
				"type": "unocc",
				"energy": 0.08691,
				"method": "rhf"
			}
		],
		"cosmo_sigma_profile": { 
			"-0.025": 0.0,
			"-0.024": 0.0,
			"-0.023": 0.0,
			"-0.022": 0.0,
			"-0.021": 0.0,
			"-0.02": 0.0495798881408,
			"-0.019": 1.11711444754,
			"-0.018": 1.96094147419,
			"-0.017": 1.7197268933,
			"-0.016": 1.73339930543,
			"-0.015": 1.53852833981,
			"-0.014": 0.907598961571,
			"-0.013": 1.61275370442,
			"-0.012": 0.765396226766,
			"-0.011": 1.30667297215,
			"-0.01": 2.11802305505,
			"-0.009": 1.66638347464,
			"-0.008": 1.59595629115,
			"-0.007": 5.74424803924,
			"-0.006": 10.7665131959,
			"-0.005": 13.9412092855,
			"-0.004": 15.6270377704,
			"-0.003": 15.089753851,
			"-0.002": 10.9316085664,
			"-0.001": 9.32565483472,
			"0.0": 8.11453173036,
			"0.001": 9.19312937354,
			"0.002": 10.1469587691,
			"0.003": 10.4692567184,
			"0.004": 12.6921923267,
			"0.005": 12.6010857195,
			"0.006": 8.54743851021,
			"0.007": 3.72237397601,
			"0.008": 3.4783078142,
			"0.009": 4.15831424731,
			"0.01": 3.87692948412,
			"0.011": 3.47213011377,
			"0.012": 1.38846010989,
			"0.013": 1.41598728328,
			"0.014": 3.62720561118,
			"0.015": 4.92784883219,
			"0.016": 0.141795966726,
			"0.017": 0.0,
			"0.018": 0.0,
			"0.019": 0.0,
			"0.02": 0.0,
			"0.021": 0.0,
			"0.022": 0.0,
			"0.023": 0.0,
			"0.024": 0.0,
			"0.025": 0.0
		}
	}
}
