{
	 "smiles": "CC(C)COC1=CC=C(C=C1)C1(CCC1)C(O)=O", 
	 "Tm": 379.15, 
	 "num_atms": 38, 
	 "gaussian": { 
		 "optdone": 1, 
		 "sigma_profile": "yes", 
		 "theory": "DFT", 
		 "functional": "B3LYP", 
		 "basiset": "6-31G**", 
		 "properties": { 
			 "R2extent": 7497.3514, 
			 "electric_dipole_moment_norm": 5.87804439929, 
			 "electric_quadrupole_moment_norm": 19.9100617696, 
			 "total_energy": -809.310782224, 
			 "HOMO_LUMO_gap": 0.20449, 
			 "cosmo_polarized_energy": -13.22, 
			 "cosmo_cavitation_energy": 39.22, 
			 "cosmo_dispersion_energy": -27.38, 
			 "cosmo_repulsion_energy": 2.13, 
			 "cosmo_total_nonelectrostatic_energy": 13.97, 
			 "SMD_solvation_energy": 7.73 
		},
		"coords": [
			{
				"x": 4.4439128893,
				"y": -0.6366268269,
				"z": -3.4754233476,
				"element": "C" 
			},
			{
				"x": 3.9699608398,
				"y": -0.2516057826,
				"z": -2.0665157421,
				"element": "C" 
			},
			{
				"x": 5.0727557889,
				"y": 0.4585228202,
				"z": -1.2705270586,
				"element": "C" 
			},
			{
				"x": 2.7128831374,
				"y": 0.6232267227,
				"z": -2.1717633175,
				"element": "C" 
			},
			{
				"x": 2.1730413194,
				"y": 0.999161023,
				"z": -0.9004979589,
				"element": "O" 
			},
			{
				"x": 1.3588251212,
				"y": 0.1437761017,
				"z": -0.221559851,
				"element": "C" 
			},
			{
				"x": 0.957252234,
				"y": -1.1228262652,
				"z": -0.6621285445,
				"element": "C" 
			},
			{
				"x": 0.1037473796,
				"y": -1.8956757338,
				"z": 0.1317543774,
				"element": "C" 
			},
			{
				"x": -0.3666774004,
				"y": -1.4496661194,
				"z": 1.3746382145,
				"element": "C" 
			},
			{
				"x": 0.0400070211,
				"y": -0.1658149508,
				"z": 1.7888091254,
				"element": "C" 
			},
			{
				"x": 0.8857883484,
				"y": 0.6151457816,
				"z": 1.0142115949,
				"element": "C" 
			},
			{
				"x": -1.340649133,
				"y": -2.2711584219,
				"z": 2.2106329407,
				"element": "C" 
			},
			{
				"x": -1.0327019952,
				"y": -2.2920760065,
				"z": 3.7483240909,
				"element": "C" 
			},
			{
				"x": -0.3355520759,
				"y": -3.6619585225,
				"z": 3.5829311533,
				"element": "C" 
			},
			{
				"x": -1.0623784166,
				"y": -3.8227360805,
				"z": 2.2282000314,
				"element": "C" 
			},
			{
				"x": -2.8187186913,
				"y": -1.9553591446,
				"z": 1.8976806194,
				"element": "C" 
			},
			{
				"x": -3.0775594162,
				"y": -1.2374322876,
				"z": 0.7821289283,
				"element": "O" 
			},
			{
				"x": -3.726301677,
				"y": -2.3552894244,
				"z": 2.5895916485,
				"element": "O" 
			},
			{
				"x": 3.6718796674,
				"y": -1.1808686423,
				"z": -4.0309692712,
				"element": "H" 
			},
			{
				"x": 5.3311354102,
				"y": -1.275360269,
				"z": -3.4258179953,
				"element": "H" 
			},
			{
				"x": 4.7106951548,
				"y": 0.2533034087,
				"z": -4.058334922,
				"element": "H" 
			},
			{
				"x": 3.6986412775,
				"y": -1.171368576,
				"z": -1.5311360284,
				"element": "H" 
			},
			{
				"x": 4.718568958,
				"y": 0.7493687034,
				"z": -0.2780519622,
				"element": "H" 
			},
			{
				"x": 5.9447391762,
				"y": -0.1916420132,
				"z": -1.1462130486,
				"element": "H" 
			},
			{
				"x": 5.4043221213,
				"y": 1.3667251277,
				"z": -1.7888876898,
				"element": "H" 
			},
			{
				"x": 1.9406716529,
				"y": 0.1395349697,
				"z": -2.7836009119,
				"element": "H" 
			},
			{
				"x": 2.9646879296,
				"y": 1.5745737534,
				"z": -2.6528015534,
				"element": "H" 
			},
			{
				"x": 1.3013189303,
				"y": -1.5241371087,
				"z": -1.607600296,
				"element": "H" 
			},
			{
				"x": -0.1919102015,
				"y": -2.8735078022,
				"z": -0.2369896562,
				"element": "H" 
			},
			{
				"x": -0.3163244901,
				"y": 0.2315699027,
				"z": 2.7345763596,
				"element": "H" 
			},
			{
				"x": 1.1943713569,
				"y": 1.602640604,
				"z": 1.3415360728,
				"element": "H" 
			},
			{
				"x": -0.4399408019,
				"y": -1.4661756367,
				"z": 4.1483369301,
				"element": "H" 
			},
			{
				"x": -1.9686547295,
				"y": -2.3740523226,
				"z": 4.3039572057,
				"element": "H" 
			},
			{
				"x": 0.7460212227,
				"y": -3.5588810871,
				"z": 3.4546473741,
				"element": "H" 
			},
			{
				"x": -0.5287164775,
				"y": -4.4192404526,
				"z": 4.3471421011,
				"element": "H" 
			},
			{
				"x": -2.0030199044,
				"y": -4.3673201407,
				"z": 2.3351340372,
				"element": "H" 
			},
			{
				"x": -0.4969111572,
				"y": -4.2404409735,
				"z": 1.392064599,
				"element": "H" 
			},
			{
				"x": -2.2357103693,
				"y": -0.9820283274,
				"z": 0.3696217507,
				"element": "H" 
			}
		],
		 "valence_orbital": [ 
			{
				"type": "occ",
				"energy": -0.30755,
				"method": "rhf"
			},
			{
				"type": "occ",
				"energy": -0.29919,
				"method": "rhf"
			},
			{
				"type": "occ",
				"energy": -0.26638,
				"method": "rhf"
			},
			{
				"type": "occ",
				"energy": -0.26367,
				"method": "rhf"
			},
			{
				"type": "occ",
				"energy": -0.22465,
				"method": "rhf"
			},
			{
				"type": "unocc",
				"energy": -0.02016,
				"method": "rhf"
			},
			{
				"type": "unocc",
				"energy": -0.00806,
				"method": "rhf"
			},
			{
				"type": "unocc",
				"energy": 0.01524,
				"method": "rhf"
			},
			{
				"type": "unocc",
				"energy": 0.06756,
				"method": "rhf"
			},
			{
				"type": "unocc",
				"energy": 0.08675,
				"method": "rhf"
			}
		],
		"cosmo_sigma_profile": { 
			"-0.025": 0.0,
			"-0.024": 0.0,
			"-0.023": 0.0,
			"-0.022": 0.0,
			"-0.021": 0.0,
			"-0.02": 0.0,
			"-0.019": 0.0,
			"-0.018": 0.0,
			"-0.017": 0.0,
			"-0.016": 0.0,
			"-0.015": 0.0,
			"-0.014": 0.0,
			"-0.013": 0.242993148891,
			"-0.012": 0.542907125465,
			"-0.011": 0.490431449311,
			"-0.01": 0.673444284826,
			"-0.009": 0.789316550586,
			"-0.008": 1.10627141464,
			"-0.007": 3.77919387444,
			"-0.006": 12.4305667284,
			"-0.005": 15.973060563,
			"-0.004": 20.2267375251,
			"-0.003": 32.1355526157,
			"-0.002": 36.5864644335,
			"-0.001": 37.0448254214,
			"0.0": 33.958570024,
			"0.001": 31.8201486915,
			"0.002": 16.2351034612,
			"0.003": 11.9939112566,
			"0.004": 9.3480532039,
			"0.005": 8.87840058767,
			"0.006": 3.76049392351,
			"0.007": 3.14183184443,
			"0.008": 3.92387308932,
			"0.009": 3.90849423272,
			"0.01": 5.35999344605,
			"0.011": 4.48426051577,
			"0.012": 5.43040027697,
			"0.013": 2.8672969802,
			"0.014": 0.342839967731,
			"0.015": 0.0,
			"0.016": 0.0,
			"0.017": 0.0,
			"0.018": 0.0,
			"0.019": 0.0,
			"0.02": 0.0,
			"0.021": 0.0,
			"0.022": 0.0,
			"0.023": 0.0,
			"0.024": 0.0,
			"0.025": 0.0
		}
	}
}
