{
	 "smiles": "CCC1=C(N)NN=C1C1=CC=C(Br)C=C1", 
	 "Tm": 368.15, 
	 "num_atms": 27, 
	 "gaussian": { 
		 "optdone": 1, 
		 "sigma_profile": "yes", 
		 "theory": "DFT", 
		 "functional": "B3LYP", 
		 "basiset": "6-31G**", 
		 "properties": { 
			 "R2extent": 8187.9647, 
			 "electric_dipole_moment_norm": 5.12135284764, 
			 "electric_quadrupole_moment_norm": 7.8850073031, 
			 "total_energy": -3162.05337846, 
			 "HOMO_LUMO_gap": 0.19047, 
			 "cosmo_polarized_energy": -13.86, 
			 "cosmo_cavitation_energy": 32.6, 
			 "cosmo_dispersion_energy": -24.09, 
			 "cosmo_repulsion_energy": 1.91, 
			 "cosmo_total_nonelectrostatic_energy": 10.41, 
			 "SMD_solvation_energy": 3.37 
		},
		"coords": [
			{
				"x": -0.3953684652,
				"y": -1.9764834082,
				"z": 1.276569947,
				"element": "C" 
			},
			{
				"x": -1.0045021115,
				"y": -0.5646120504,
				"z": 1.208275403,
				"element": "C" 
			},
			{
				"x": -0.9251380981,
				"y": 0.0787447233,
				"z": -0.1503379849,
				"element": "C" 
			},
			{
				"x": -2.0163608561,
				"y": 0.2981177837,
				"z": -0.9829358912,
				"element": "C" 
			},
			{
				"x": -3.3945873372,
				"y": 0.0367106403,
				"z": -0.865250385,
				"element": "N" 
			},
			{
				"x": -1.5289126605,
				"y": 0.8497285544,
				"z": -2.126559145,
				"element": "N" 
			},
			{
				"x": -0.1956945148,
				"y": 1.0190690413,
				"z": -2.1071683088,
				"element": "N" 
			},
			{
				"x": 0.1941931461,
				"y": 0.544902792,
				"z": -0.9153038099,
				"element": "C" 
			},
			{
				"x": 1.63693968,
				"y": 0.5693670782,
				"z": -0.5990029702,
				"element": "C" 
			},
			{
				"x": 2.1297797246,
				"y": 0.5316511032,
				"z": 0.7148843048,
				"element": "C" 
			},
			{
				"x": 3.4996311546,
				"y": 0.5677541156,
				"z": 0.9778161762,
				"element": "C" 
			},
			{
				"x": 4.3953521297,
				"y": 0.6484836251,
				"z": -0.084199913,
				"element": "C" 
			},
			{
				"x": 6.2756406684,
				"y": 0.6935620916,
				"z": 0.2665857413,
				"element": "Br" 
			},
			{
				"x": 3.9382655875,
				"y": 0.6971126325,
				"z": -1.4011232576,
				"element": "C" 
			},
			{
				"x": 2.5699302027,
				"y": 0.6564424971,
				"z": -1.648978449,
				"element": "C" 
			},
			{
				"x": -0.499114676,
				"y": -2.3993374764,
				"z": 2.2815890189,
				"element": "H" 
			},
			{
				"x": -0.8923954605,
				"y": -2.6489842837,
				"z": 0.5701337617,
				"element": "H" 
			},
			{
				"x": 0.6685689301,
				"y": -1.9604249003,
				"z": 1.0240000164,
				"element": "H" 
			},
			{
				"x": -2.0621698294,
				"y": -0.6181735673,
				"z": 1.4993633061,
				"element": "H" 
			},
			{
				"x": -0.5367625294,
				"y": 0.0729590277,
				"z": 1.9683252229,
				"element": "H" 
			},
			{
				"x": -3.5763669663,
				"y": -0.7151354386,
				"z": -0.2103495801,
				"element": "H" 
			},
			{
				"x": -3.925397661,
				"y": 0.8527476732,
				"z": -0.5718659485,
				"element": "H" 
			},
			{
				"x": -2.0602741746,
				"y": 1.0957449456,
				"z": -2.9476043477,
				"element": "H" 
			},
			{
				"x": 1.4458799711,
				"y": 0.4920638643,
				"z": 1.5541285935,
				"element": "H" 
			},
			{
				"x": 3.863356594,
				"y": 0.5404798377,
				"z": 1.998763522,
				"element": "H" 
			},
			{
				"x": 4.6443999007,
				"y": 0.7604633506,
				"z": -2.2214637118,
				"element": "H" 
			},
			{
				"x": 2.203607651,
				"y": 0.6929457475,
				"z": -2.6687913111,
				"element": "H" 
			}
		],
		 "valence_orbital": [ 
			{
				"type": "occ",
				"energy": -0.27872,
				"method": "rhf"
			},
			{
				"type": "occ",
				"energy": -0.26308,
				"method": "rhf"
			},
			{
				"type": "occ",
				"energy": -0.25426,
				"method": "rhf"
			},
			{
				"type": "occ",
				"energy": -0.22449,
				"method": "rhf"
			},
			{
				"type": "occ",
				"energy": -0.21248,
				"method": "rhf"
			},
			{
				"type": "unocc",
				"energy": -0.02201,
				"method": "rhf"
			},
			{
				"type": "unocc",
				"energy": -0.00497,
				"method": "rhf"
			},
			{
				"type": "unocc",
				"energy": 0.01535,
				"method": "rhf"
			},
			{
				"type": "unocc",
				"energy": 0.03218,
				"method": "rhf"
			},
			{
				"type": "unocc",
				"energy": 0.05498,
				"method": "rhf"
			}
		],
		"cosmo_sigma_profile": { 
			"-0.025": 0.0,
			"-0.024": 0.0,
			"-0.023": 0.0,
			"-0.022": 0.0,
			"-0.021": 0.0,
			"-0.02": 0.0,
			"-0.019": 0.0,
			"-0.018": 0.0,
			"-0.017": 0.0,
			"-0.016": 1.01468969925,
			"-0.015": 0.934084816526,
			"-0.014": 1.04115198405,
			"-0.013": 1.17224128387,
			"-0.012": 3.03315685552,
			"-0.011": 3.53505300976,
			"-0.01": 3.99852740067,
			"-0.009": 3.33685975582,
			"-0.008": 3.84437476653,
			"-0.007": 6.08937891517,
			"-0.006": 8.66880512444,
			"-0.005": 10.8110656747,
			"-0.004": 11.6940808113,
			"-0.003": 14.646984606,
			"-0.002": 17.1835252592,
			"-0.001": 18.6385849373,
			"0.0": 21.9368162395,
			"0.001": 20.7615175697,
			"0.002": 20.1789409903,
			"0.003": 24.4779263243,
			"0.004": 28.4612321673,
			"0.005": 16.69388476,
			"0.006": 3.74824925941,
			"0.007": 2.97864175015,
			"0.008": 1.91624300435,
			"0.009": 2.295329586,
			"0.01": 1.83510376448,
			"0.011": 1.63424206723,
			"0.012": 1.24833338734,
			"0.013": 2.08141829513,
			"0.014": 1.23376155974,
			"0.015": 1.03778905354,
			"0.016": 0.132493791459,
			"0.017": 0.0,
			"0.018": 0.0,
			"0.019": 0.0,
			"0.02": 0.0,
			"0.021": 0.0,
			"0.022": 0.0,
			"0.023": 0.0,
			"0.024": 0.0,
			"0.025": 0.0
		}
	}
}
