{
	 "smiles": "ClC1=CC=C(C=C2C(=O)NN(C2=O)C2=CC=CC=C2)C=C1", 
	 "Tm": 595.15, 
	 "num_atms": 32, 
	 "gaussian": { 
		 "optdone": 1, 
		 "sigma_profile": "yes", 
		 "theory": "DFT", 
		 "functional": "B3LYP", 
		 "basiset": "6-31G**", 
		 "properties": { 
			 "R2extent": 10296.3285, 
			 "electric_dipole_moment_norm": 1.09365497759, 
			 "electric_quadrupole_moment_norm": 14.6106945294, 
			 "total_energy": -1336.45649923, 
			 "HOMO_LUMO_gap": 0.11767, 
			 "cosmo_polarized_energy": -14.44, 
			 "cosmo_cavitation_energy": 39.08, 
			 "cosmo_dispersion_energy": -28.74, 
			 "cosmo_repulsion_energy": 2.14, 
			 "cosmo_total_nonelectrostatic_energy": 12.49, 
			 "SMD_solvation_energy": 7.47 
		},
		"coords": [
			{
				"x": -5.7827919849,
				"y": -3.5319510657,
				"z": 1.7507322612,
				"element": "Cl" 
			},
			{
				"x": -4.0964185677,
				"y": -3.08567178,
				"z": 1.5960977644,
				"element": "C" 
			},
			{
				"x": -3.1097252362,
				"y": -4.0089142625,
				"z": 1.9488106375,
				"element": "C" 
			},
			{
				"x": -1.7764228315,
				"y": -3.6423158266,
				"z": 1.8216785084,
				"element": "C" 
			},
			{
				"x": -1.4033420251,
				"y": -2.3651601107,
				"z": 1.3455775567,
				"element": "C" 
			},
			{
				"x": 0.0178403572,
				"y": -2.091775639,
				"z": 1.2522648335,
				"element": "C" 
			},
			{
				"x": 0.754470254,
				"y": -1.0214360416,
				"z": 0.8507780413,
				"element": "C" 
			},
			{
				"x": 2.2339814182,
				"y": -1.1189565476,
				"z": 0.8707400609,
				"element": "C" 
			},
			{
				"x": 2.9438694065,
				"y": -2.0817033316,
				"z": 1.1021583885,
				"element": "O" 
			},
			{
				"x": 2.7196307698,
				"y": 0.1518605331,
				"z": 0.5362081507,
				"element": "N" 
			},
			{
				"x": 1.6351502612,
				"y": 0.9541198366,
				"z": 0.0859803719,
				"element": "N" 
			},
			{
				"x": 0.4137995357,
				"y": 0.3234684613,
				"z": 0.3325819565,
				"element": "C" 
			},
			{
				"x": -0.6788116151,
				"y": 0.8500046978,
				"z": 0.1450833662,
				"element": "O" 
			},
			{
				"x": 1.8611039897,
				"y": 2.3394668716,
				"z": -0.1052189299,
				"element": "C" 
			},
			{
				"x": 3.0515326684,
				"y": 2.9230170474,
				"z": 0.3539644553,
				"element": "C" 
			},
			{
				"x": 3.2876267241,
				"y": 4.2794916136,
				"z": 0.1333683658,
				"element": "C" 
			},
			{
				"x": 2.3496820192,
				"y": 5.0640082156,
				"z": -0.5373014722,
				"element": "C" 
			},
			{
				"x": 1.1658818651,
				"y": 4.4763563621,
				"z": -0.9889418654,
				"element": "C" 
			},
			{
				"x": 0.9141326529,
				"y": 3.1213242738,
				"z": -0.7871490934,
				"element": "C" 
			},
			{
				"x": -2.4261446686,
				"y": -1.4547021818,
				"z": 0.997879568,
				"element": "C" 
			},
			{
				"x": -3.7628241576,
				"y": -1.8137861147,
				"z": 1.1230608778,
				"element": "C" 
			},
			{
				"x": -3.3864787067,
				"y": -4.9911303499,
				"z": 2.3145108625,
				"element": "H" 
			},
			{
				"x": -1.0028253385,
				"y": -4.3547207359,
				"z": 2.0943932092,
				"element": "H" 
			},
			{
				"x": 0.6523404196,
				"y": -2.9210252822,
				"z": 1.5707439483,
				"element": "H" 
			},
			{
				"x": 3.5194978171,
				"y": 0.1641280136,
				"z": -0.0910971697,
				"element": "H" 
			},
			{
				"x": 3.7728429889,
				"y": 2.3266431493,
				"z": 0.9002926818,
				"element": "H" 
			},
			{
				"x": 4.2107172821,
				"y": 4.7215287653,
				"z": 0.4969047268,
				"element": "H" 
			},
			{
				"x": 2.5380062717,
				"y": 6.1196492651,
				"z": -0.7068397949,
				"element": "H" 
			},
			{
				"x": 0.4271099014,
				"y": 5.0755438697,
				"z": -1.5131978558,
				"element": "H" 
			},
			{
				"x": -0.0038453115,
				"y": 2.6687819721,
				"z": -1.1345179311,
				"element": "H" 
			},
			{
				"x": -2.1565729489,
				"y": -0.4698685704,
				"z": 0.6330186085,
				"element": "H" 
			},
			{
				"x": -4.5468132105,
				"y": -1.1137751076,
				"z": 0.8565349108,
				"element": "H" 
			}
		],
		 "valence_orbital": [ 
			{
				"type": "occ",
				"energy": -0.27751,
				"method": "rhf"
			},
			{
				"type": "occ",
				"energy": -0.26304,
				"method": "rhf"
			},
			{
				"type": "occ",
				"energy": -0.25695,
				"method": "rhf"
			},
			{
				"type": "occ",
				"energy": -0.24894,
				"method": "rhf"
			},
			{
				"type": "occ",
				"energy": -0.21839,
				"method": "rhf"
			},
			{
				"type": "unocc",
				"energy": -0.10072,
				"method": "rhf"
			},
			{
				"type": "unocc",
				"energy": -0.02522,
				"method": "rhf"
			},
			{
				"type": "unocc",
				"energy": -0.01632,
				"method": "rhf"
			},
			{
				"type": "unocc",
				"energy": -0.00893,
				"method": "rhf"
			},
			{
				"type": "unocc",
				"energy": 0.00107,
				"method": "rhf"
			}
		],
		"cosmo_sigma_profile": { 
			"-0.025": 0.0,
			"-0.024": 0.0,
			"-0.023": 0.0,
			"-0.022": 0.0,
			"-0.021": 0.0,
			"-0.02": 0.0,
			"-0.019": 0.0,
			"-0.018": 0.0,
			"-0.017": 0.0090435707807,
			"-0.016": 1.05895770315,
			"-0.015": 0.917800438501,
			"-0.014": 1.22464879677,
			"-0.013": 1.10108647477,
			"-0.012": 1.32553476991,
			"-0.011": 0.94573695857,
			"-0.01": 1.80674832953,
			"-0.009": 2.32801038793,
			"-0.008": 6.55250398859,
			"-0.007": 9.74188020822,
			"-0.006": 13.4116521822,
			"-0.005": 16.5510831327,
			"-0.004": 19.631472847,
			"-0.003": 16.9526232191,
			"-0.002": 18.8681961054,
			"-0.001": 27.7364240488,
			"0.0": 27.7060479029,
			"0.001": 32.7547171182,
			"0.002": 28.995584191,
			"0.003": 19.9319220508,
			"0.004": 22.9841620976,
			"0.005": 14.7954818017,
			"0.006": 5.21442246,
			"0.007": 2.71641454761,
			"0.008": 3.3351977917,
			"0.009": 3.21776790611,
			"0.01": 3.78110749857,
			"0.011": 4.79700206388,
			"0.012": 5.92800092771,
			"0.013": 1.5064361692,
			"0.014": 0.0164515700429,
			"0.015": 0.0,
			"0.016": 0.0,
			"0.017": 0.0,
			"0.018": 0.0,
			"0.019": 0.0,
			"0.02": 0.0,
			"0.021": 0.0,
			"0.022": 0.0,
			"0.023": 0.0,
			"0.024": 0.0,
			"0.025": 0.0
		}
	}
}
