{
	 "smiles": "COC1=CC=NC=C1", 
	 "Tm": 277.15, 
	 "num_atms": 15, 
	 "gaussian": { 
		 "optdone": 1, 
		 "sigma_profile": "yes", 
		 "theory": "DFT", 
		 "functional": "B3LYP", 
		 "basiset": "6-31G**", 
		 "properties": { 
			 "R2extent": 1884.8233, 
			 "electric_dipole_moment_norm": 3.22337414831, 
			 "electric_quadrupole_moment_norm": 9.72530781364, 
			 "total_energy": -362.813701192, 
			 "HOMO_LUMO_gap": 0.23666, 
			 "cosmo_polarized_energy": -7.88, 
			 "cosmo_cavitation_energy": 18.71, 
			 "cosmo_dispersion_energy": -14.17, 
			 "cosmo_repulsion_energy": 1.17, 
			 "cosmo_total_nonelectrostatic_energy": 5.7, 
			 "SMD_solvation_energy": 2.79 
		},
		"coords": [
			{
				"x": 1.1386907506,
				"y": 0.2193599509,
				"z": 0.6536646904,
				"element": "C" 
			},
			{
				"x": 0.8020632558,
				"y": -1.156946839,
				"z": 0.5294742609,
				"element": "O" 
			},
			{
				"x": 0.4703885948,
				"y": -1.6294942862,
				"z": -0.6981246287,
				"element": "C" 
			},
			{
				"x": 0.1450841206,
				"y": -2.9910806251,
				"z": -0.7787400522,
				"element": "C" 
			},
			{
				"x": -0.2006976135,
				"y": -3.5175512874,
				"z": -2.016443493,
				"element": "C" 
			},
			{
				"x": -0.2467203389,
				"y": -2.8080288014,
				"z": -3.1563005661,
				"element": "N" 
			},
			{
				"x": 0.0665335118,
				"y": -1.5133334912,
				"z": -3.0578483264,
				"element": "C" 
			},
			{
				"x": 0.4297651894,
				"y": -0.8687886293,
				"z": -1.8723216852,
				"element": "C" 
			},
			{
				"x": 1.3670508434,
				"y": 0.3775065821,
				"z": 1.7082974954,
				"element": "H" 
			},
			{
				"x": 2.0183742041,
				"y": 0.4744557245,
				"z": 0.0501015561,
				"element": "H" 
			},
			{
				"x": 0.3017419912,
				"y": 0.8661105985,
				"z": 0.3630790674,
				"element": "H" 
			},
			{
				"x": 0.16848593,
				"y": -3.6036527222,
				"z": 0.1158665691,
				"element": "H" 
			},
			{
				"x": -0.4564608461,
				"y": -4.5725517167,
				"z": -2.0993406653,
				"element": "H" 
			},
			{
				"x": 0.0288491917,
				"y": -0.9391922522,
				"z": -3.9827204815,
				"element": "H" 
			},
			{
				"x": 0.6684512151,
				"y": 0.1875877949,
				"z": -1.8846437408,
				"element": "H" 
			}
		],
		 "valence_orbital": [ 
			{
				"type": "occ",
				"energy": -0.34592,
				"method": "rhf"
			},
			{
				"type": "occ",
				"energy": -0.33724,
				"method": "rhf"
			},
			{
				"type": "occ",
				"energy": -0.25994,
				"method": "rhf"
			},
			{
				"type": "occ",
				"energy": -0.24965,
				"method": "rhf"
			},
			{
				"type": "occ",
				"energy": -0.24493,
				"method": "rhf"
			},
			{
				"type": "unocc",
				"energy": -0.00827,
				"method": "rhf"
			},
			{
				"type": "unocc",
				"energy": -0.00408,
				"method": "rhf"
			},
			{
				"type": "unocc",
				"energy": 0.09009,
				"method": "rhf"
			},
			{
				"type": "unocc",
				"energy": 0.10022,
				"method": "rhf"
			},
			{
				"type": "unocc",
				"energy": 0.13344,
				"method": "rhf"
			}
		],
		"cosmo_sigma_profile": { 
			"-0.025": 0.0,
			"-0.024": 0.0,
			"-0.023": 0.0,
			"-0.022": 0.0,
			"-0.021": 0.0,
			"-0.02": 0.0,
			"-0.019": 0.0,
			"-0.018": 0.0,
			"-0.017": 0.0,
			"-0.016": 0.0,
			"-0.015": 0.0,
			"-0.014": 0.0,
			"-0.013": 0.0,
			"-0.012": 0.0,
			"-0.011": 0.0,
			"-0.01": 0.0,
			"-0.009": 0.0,
			"-0.008": 0.167208146675,
			"-0.007": 3.90855666506,
			"-0.006": 14.541449975,
			"-0.005": 16.4650566374,
			"-0.004": 15.2883540045,
			"-0.003": 11.4459927458,
			"-0.002": 8.86795128794,
			"-0.001": 6.40400196665,
			"0.0": 6.70405658353,
			"0.001": 8.53679442241,
			"0.002": 12.6279551897,
			"0.003": 15.3793164838,
			"0.004": 5.64193874231,
			"0.005": 3.84279588031,
			"0.006": 2.86721532799,
			"0.007": 2.80102981601,
			"0.008": 2.46642750809,
			"0.009": 2.86036841471,
			"0.01": 1.92235317716,
			"0.011": 0.933824151334,
			"0.012": 1.21549661249,
			"0.013": 0.856531893392,
			"0.014": 0.710612530976,
			"0.015": 1.28839944358,
			"0.016": 0.71237242376,
			"0.017": 0.856756419895,
			"0.018": 0.106976575443,
			"0.019": 0.0,
			"0.02": 0.0,
			"0.021": 0.0,
			"0.022": 0.0,
			"0.023": 0.0,
			"0.024": 0.0,
			"0.025": 0.0
		}
	}
}
