{
	 "smiles": "CC1=CC=C(C=C1)S(=O)(=O)NC(=O)NC1CCCCC1", 
	 "Tm": 448.15, 
	 "num_atms": 40, 
	 "gaussian": { 
		 "optdone": 1, 
		 "sigma_profile": "yes", 
		 "theory": "DFT", 
		 "functional": "B3LYP", 
		 "basiset": "6-31G**", 
		 "properties": { 
			 "R2extent": 8154.5268, 
			 "electric_dipole_moment_norm": 4.78967399621, 
			 "electric_quadrupole_moment_norm": 29.4541988757, 
			 "total_energy": -1278.89083322, 
			 "HOMO_LUMO_gap": 0.20631, 
			 "cosmo_polarized_energy": -16.03, 
			 "cosmo_cavitation_energy": 42.85, 
			 "cosmo_dispersion_energy": -29.82, 
			 "cosmo_repulsion_energy": 2.27, 
			 "cosmo_total_nonelectrostatic_energy": 15.3, 
			 "SMD_solvation_energy": 6.35 
		},
		"coords": [
			{
				"x": -4.4821489494,
				"y": -4.0426309972,
				"z": 0.6632294075,
				"element": "C" 
			},
			{
				"x": -3.2870681399,
				"y": -3.2764542186,
				"z": 1.1757804861,
				"element": "C" 
			},
			{
				"x": -3.1633140551,
				"y": -1.8992315585,
				"z": 0.9374409433,
				"element": "C" 
			},
			{
				"x": -2.0813752425,
				"y": -1.1752599444,
				"z": 1.4311535151,
				"element": "C" 
			},
			{
				"x": -1.1016548015,
				"y": -1.8418694601,
				"z": 2.1714288899,
				"element": "C" 
			},
			{
				"x": -1.1985544944,
				"y": -3.2109671483,
				"z": 2.4269071056,
				"element": "C" 
			},
			{
				"x": -2.2907358701,
				"y": -3.9166136955,
				"z": 1.9262351384,
				"element": "C" 
			},
			{
				"x": 0.3159337959,
				"y": -0.9404098596,
				"z": 2.7885784541,
				"element": "S" 
			},
			{
				"x": -0.1003855618,
				"y": 0.44791118,
				"z": 3.0275125644,
				"element": "O" 
			},
			{
				"x": 0.9498168662,
				"y": -1.7502654113,
				"z": 3.8256918072,
				"element": "O" 
			},
			{
				"x": 1.437908041,
				"y": -0.8900678666,
				"z": 1.5253202198,
				"element": "N" 
			},
			{
				"x": 1.4604353301,
				"y": -0.0936993348,
				"z": 0.339365311,
				"element": "C" 
			},
			{
				"x": 2.1205508263,
				"y": -0.487520055,
				"z": -0.6105008848,
				"element": "O" 
			},
			{
				"x": 0.7433455267,
				"y": 1.0564093088,
				"z": 0.3883104117,
				"element": "N" 
			},
			{
				"x": 0.791959244,
				"y": 2.0149360483,
				"z": -0.7233287298,
				"element": "C" 
			},
			{
				"x": 2.0469503597,
				"y": 2.9114978804,
				"z": -0.6597688486,
				"element": "C" 
			},
			{
				"x": 1.9962056207,
				"y": 3.9043173421,
				"z": 0.5115629268,
				"element": "C" 
			},
			{
				"x": 0.7161211707,
				"y": 4.7546019537,
				"z": 0.4725093909,
				"element": "C" 
			},
			{
				"x": -0.5428230996,
				"y": 3.873287281,
				"z": 0.432870749,
				"element": "C" 
			},
			{
				"x": -0.4888894612,
				"y": 2.8681551884,
				"z": -0.7314976523,
				"element": "C" 
			},
			{
				"x": -5.3162567551,
				"y": -3.9850301085,
				"z": 1.3734909485,
				"element": "H" 
			},
			{
				"x": -4.8379468102,
				"y": -3.6387712451,
				"z": -0.2890719373,
				"element": "H" 
			},
			{
				"x": -4.2478853818,
				"y": -5.1010793115,
				"z": 0.5198591428,
				"element": "H" 
			},
			{
				"x": -3.9277417448,
				"y": -1.3857384127,
				"z": 0.3604834547,
				"element": "H" 
			},
			{
				"x": -1.9992501427,
				"y": -0.1093206134,
				"z": 1.2527386758,
				"element": "H" 
			},
			{
				"x": -0.4370268237,
				"y": -3.7049983248,
				"z": 3.0202694172,
				"element": "H" 
			},
			{
				"x": -2.3718397048,
				"y": -4.981827347,
				"z": 2.1249380703,
				"element": "H" 
			},
			{
				"x": 1.9746290289,
				"y": -1.7446031173,
				"z": 1.4210907213,
				"element": "H" 
			},
			{
				"x": 0.4097599705,
				"y": 1.3551028971,
				"z": 1.2974907392,
				"element": "H" 
			},
			{
				"x": 0.8386356115,
				"y": 1.4117011324,
				"z": -1.6339118542,
				"element": "H" 
			},
			{
				"x": 2.9360072607,
				"y": 2.275386241,
				"z": -0.603324855,
				"element": "H" 
			},
			{
				"x": 2.1138598077,
				"y": 3.4667854756,
				"z": -1.6055736924,
				"element": "H" 
			},
			{
				"x": 2.0396080461,
				"y": 3.353908267,
				"z": 1.4615138303,
				"element": "H" 
			},
			{
				"x": 2.8823451744,
				"y": 4.5491081355,
				"z": 0.4919717508,
				"element": "H" 
			},
			{
				"x": 0.7349239585,
				"y": 5.3932829465,
				"z": -0.4223656555,
				"element": "H" 
			},
			{
				"x": 0.6786447859,
				"y": 5.4286530555,
				"z": 1.3362411251,
				"element": "H" 
			},
			{
				"x": -1.4416826283,
				"y": 4.4941347997,
				"z": 0.3407927721,
				"element": "H" 
			},
			{
				"x": -0.6448858816,
				"y": 3.3400561531,
				"z": 1.3891388286,
				"element": "H" 
			},
			{
				"x": -1.3686834233,
				"y": 2.213931372,
				"z": -0.7238228524,
				"element": "H" 
			},
			{
				"x": -0.5137914535,
				"y": 3.4210913718,
				"z": -1.6793498354,
				"element": "H" 
			}
		],
		 "valence_orbital": [ 
			{
				"type": "occ",
				"energy": -0.2971,
				"method": "rhf"
			},
			{
				"type": "occ",
				"energy": -0.27583,
				"method": "rhf"
			},
			{
				"type": "occ",
				"energy": -0.27014,
				"method": "rhf"
			},
			{
				"type": "occ",
				"energy": -0.26256,
				"method": "rhf"
			},
			{
				"type": "occ",
				"energy": -0.25178,
				"method": "rhf"
			},
			{
				"type": "unocc",
				"energy": -0.04547,
				"method": "rhf"
			},
			{
				"type": "unocc",
				"energy": -0.02649,
				"method": "rhf"
			},
			{
				"type": "unocc",
				"energy": 0.03008,
				"method": "rhf"
			},
			{
				"type": "unocc",
				"energy": 0.05246,
				"method": "rhf"
			},
			{
				"type": "unocc",
				"energy": 0.07462,
				"method": "rhf"
			}
		],
		"cosmo_sigma_profile": { 
			"-0.025": 0.0,
			"-0.024": 0.0,
			"-0.023": 0.0,
			"-0.022": 0.0,
			"-0.021": 0.0,
			"-0.02": 0.0,
			"-0.019": 0.0,
			"-0.018": 0.0,
			"-0.017": 0.0497203486262,
			"-0.016": 0.511515421958,
			"-0.015": 0.873089520703,
			"-0.014": 0.787627458256,
			"-0.013": 0.795175595028,
			"-0.012": 0.713641514023,
			"-0.011": 1.12225716426,
			"-0.01": 0.74347726824,
			"-0.009": 1.13128314847,
			"-0.008": 1.36254977358,
			"-0.007": 3.67073100392,
			"-0.006": 10.7055594245,
			"-0.005": 16.5631532134,
			"-0.004": 19.6072862201,
			"-0.003": 31.6121101406,
			"-0.002": 44.2772159137,
			"-0.001": 44.6364362788,
			"0.0": 42.3959360715,
			"0.001": 28.460969557,
			"0.002": 17.2263199716,
			"0.003": 16.9748134261,
			"0.004": 5.34943396205,
			"0.005": 4.24618994339,
			"0.006": 4.61649118696,
			"0.007": 3.79926767031,
			"0.008": 4.0878127513,
			"0.009": 6.57657001175,
			"0.01": 9.01963979903,
			"0.011": 5.67522383692,
			"0.012": 2.40463044325,
			"0.013": 5.83098795729,
			"0.014": 0.721040549457,
			"0.015": 0.0,
			"0.016": 0.0,
			"0.017": 0.0,
			"0.018": 0.0,
			"0.019": 0.0,
			"0.02": 0.0,
			"0.021": 0.0,
			"0.022": 0.0,
			"0.023": 0.0,
			"0.024": 0.0,
			"0.025": 0.0
		}
	}
}
