{
	 "smiles": "O=C1NC(=O)C(CC2=CC=CC=C2)(CC2=CC=CC=C2)N1", 
	 "Tm": 592.15, 
	 "num_atms": 37, 
	 "gaussian": { 
		 "optdone": 1, 
		 "sigma_profile": "yes", 
		 "theory": "DFT", 
		 "functional": "B3LYP", 
		 "basiset": "6-31G**", 
		 "properties": { 
			 "R2extent": 6986.6951, 
			 "electric_dipole_moment_norm": 2.76671227814, 
			 "electric_quadrupole_moment_norm": 10.1535929902, 
			 "total_energy": -917.455704788, 
			 "HOMO_LUMO_gap": 0.22246, 
			 "cosmo_polarized_energy": -17.95, 
			 "cosmo_cavitation_energy": 40.52, 
			 "cosmo_dispersion_energy": -27.05, 
			 "cosmo_repulsion_energy": 2.08, 
			 "cosmo_total_nonelectrostatic_energy": 15.55, 
			 "SMD_solvation_energy": 7.84 
		},
		"coords": [
			{
				"x": 1.6171041878,
				"y": 2.2420453976,
				"z": 1.7658773296,
				"element": "O" 
			},
			{
				"x": 1.0584182784,
				"y": 1.975580088,
				"z": 0.722892239,
				"element": "C" 
			},
			{
				"x": 0.6503576385,
				"y": 2.9069673935,
				"z": -0.261030612,
				"element": "N" 
			},
			{
				"x": 0.0564422371,
				"y": 2.3201955875,
				"z": -1.352710976,
				"element": "C" 
			},
			{
				"x": -0.3781037267,
				"y": 2.8704999335,
				"z": -2.3451001318,
				"element": "O" 
			},
			{
				"x": 0.0296437407,
				"y": 0.8020257352,
				"z": -1.0673577235,
				"element": "C" 
			},
			{
				"x": 0.8174420431,
				"y": 0.0386070318,
				"z": -2.1678959462,
				"element": "C" 
			},
			{
				"x": 2.2714804641,
				"y": 0.4338697052,
				"z": -2.3148148169,
				"element": "C" 
			},
			{
				"x": 2.6467517131,
				"y": 1.4866920486,
				"z": -3.1625774768,
				"element": "C" 
			},
			{
				"x": 3.9868544594,
				"y": 1.853311283,
				"z": -3.293592185,
				"element": "C" 
			},
			{
				"x": 4.9747344812,
				"y": 1.1718729432,
				"z": -2.5803639969,
				"element": "C" 
			},
			{
				"x": 4.6143594079,
				"y": 0.1196546747,
				"z": -1.7369300227,
				"element": "C" 
			},
			{
				"x": 3.2736761294,
				"y": -0.2450646234,
				"z": -1.6084345139,
				"element": "C" 
			},
			{
				"x": -1.4608639964,
				"y": 0.3444562547,
				"z": -1.009086549,
				"element": "C" 
			},
			{
				"x": -1.6596937401,
				"y": -1.0946871764,
				"z": -0.5860663275,
				"element": "C" 
			},
			{
				"x": -1.6980823461,
				"y": -1.4398147716,
				"z": 0.7741440077,
				"element": "C" 
			},
			{
				"x": -1.8610615786,
				"y": -2.7676096881,
				"z": 1.1725732292,
				"element": "C" 
			},
			{
				"x": -1.9950214097,
				"y": -3.7753886914,
				"z": 0.215723295,
				"element": "C" 
			},
			{
				"x": -1.9705659302,
				"y": -3.4452081188,
				"z": -1.1403772603,
				"element": "C" 
			},
			{
				"x": -1.8053776367,
				"y": -2.1167879259,
				"z": -1.5356956011,
				"element": "C" 
			},
			{
				"x": 0.6703478018,
				"y": 0.7543307836,
				"z": 0.2398025461,
				"element": "N" 
			},
			{
				"x": 0.8259442593,
				"y": 3.8971626357,
				"z": -0.1690899828,
				"element": "H" 
			},
			{
				"x": 0.7411631629,
				"y": -1.0315355412,
				"z": -1.9493284714,
				"element": "H" 
			},
			{
				"x": 0.2865639558,
				"y": 0.2138472027,
				"z": -3.1095777286,
				"element": "H" 
			},
			{
				"x": 1.8815532402,
				"y": 2.0220745231,
				"z": -3.7176997373,
				"element": "H" 
			},
			{
				"x": 4.2589523753,
				"y": 2.6693300332,
				"z": -3.9571798658,
				"element": "H" 
			},
			{
				"x": 6.0180908935,
				"y": 1.4554572012,
				"z": -2.6843730454,
				"element": "H" 
			},
			{
				"x": 5.3762810037,
				"y": -0.4199684128,
				"z": -1.1816479832,
				"element": "H" 
			},
			{
				"x": 3.0028653888,
				"y": -1.0734445532,
				"z": -0.9581609072,
				"element": "H" 
			},
			{
				"x": -1.9800999964,
				"y": 1.0072605175,
				"z": -0.3081385781,
				"element": "H" 
			},
			{
				"x": -1.8938074355,
				"y": 0.523069739,
				"z": -1.998158061,
				"element": "H" 
			},
			{
				"x": -1.614140937,
				"y": -0.6584946881,
				"z": 1.525192138,
				"element": "H" 
			},
			{
				"x": -1.8926940307,
				"y": -3.0127618485,
				"z": 2.2304245633,
				"element": "H" 
			},
			{
				"x": -2.1269332009,
				"y": -4.808247198,
				"z": 0.5244809766,
				"element": "H" 
			},
			{
				"x": -2.0859927643,
				"y": -4.2206664084,
				"z": -1.8923107499,
				"element": "H" 
			},
			{
				"x": -1.79921198,
				"y": -1.8673757289,
				"z": -2.5937242559,
				"element": "H" 
			},
			{
				"x": 0.8688238473,
				"y": -0.0907553378,
				"z": 0.7511131818,
				"element": "H" 
			}
		],
		 "valence_orbital": [ 
			{
				"type": "occ",
				"energy": -0.26364,
				"method": "rhf"
			},
			{
				"type": "occ",
				"energy": -0.26048,
				"method": "rhf"
			},
			{
				"type": "occ",
				"energy": -0.25285,
				"method": "rhf"
			},
			{
				"type": "occ",
				"energy": -0.24923,
				"method": "rhf"
			},
			{
				"type": "occ",
				"energy": -0.24279,
				"method": "rhf"
			},
			{
				"type": "unocc",
				"energy": -0.02033,
				"method": "rhf"
			},
			{
				"type": "unocc",
				"energy": -0.01373,
				"method": "rhf"
			},
			{
				"type": "unocc",
				"energy": -0.00847,
				"method": "rhf"
			},
			{
				"type": "unocc",
				"energy": -0.00264,
				"method": "rhf"
			},
			{
				"type": "unocc",
				"energy": 0.00268,
				"method": "rhf"
			}
		],
		"cosmo_sigma_profile": { 
			"-0.025": 0.0,
			"-0.024": 0.0,
			"-0.023": 0.0,
			"-0.022": 0.0,
			"-0.021": 0.0,
			"-0.02": 0.0,
			"-0.019": 0.0,
			"-0.018": 0.0,
			"-0.017": 0.496967046088,
			"-0.016": 1.22735227385,
			"-0.015": 0.978181709309,
			"-0.014": 1.41195313364,
			"-0.013": 1.70508682595,
			"-0.012": 1.17025363805,
			"-0.011": 1.18502280611,
			"-0.01": 2.74852927977,
			"-0.009": 1.71783717483,
			"-0.008": 2.34561776762,
			"-0.007": 3.73336295478,
			"-0.006": 13.1418652333,
			"-0.005": 30.2857776121,
			"-0.004": 30.4974248982,
			"-0.003": 29.0995255886,
			"-0.002": 23.0463553645,
			"-0.001": 23.5118756001,
			"0.0": 17.1020435145,
			"0.001": 16.4409140833,
			"0.002": 19.8739174192,
			"0.003": 18.5243606631,
			"0.004": 18.0761726653,
			"0.005": 17.9778191924,
			"0.006": 12.6730372356,
			"0.007": 2.80112121121,
			"0.008": 2.9754781833,
			"0.009": 2.90409120581,
			"0.01": 2.62878111717,
			"0.011": 4.00789567866,
			"0.012": 9.2627730134,
			"0.013": 7.1537268926,
			"0.014": 0.977148106621,
			"0.015": 0.0,
			"0.016": 0.0,
			"0.017": 0.0,
			"0.018": 0.0,
			"0.019": 0.0,
			"0.02": 0.0,
			"0.021": 0.0,
			"0.022": 0.0,
			"0.023": 0.0,
			"0.024": 0.0,
			"0.025": 0.0
		}
	}
}
