{
	 "smiles": "CC(CCC(O)=O)C1=CC=CC=C1", 
	 "Tm": 286.15, 
	 "num_atms": 27, 
	 "gaussian": { 
		 "optdone": 1, 
		 "sigma_profile": "yes", 
		 "theory": "DFT", 
		 "functional": "B3LYP", 
		 "basiset": "6-31G**", 
		 "properties": { 
			 "R2extent": 3483.2157, 
			 "electric_dipole_moment_norm": 1.4995305432, 
			 "electric_quadrupole_moment_norm": 8.01644101955, 
			 "total_energy": -578.085436388, 
			 "HOMO_LUMO_gap": 0.2397, 
			 "cosmo_polarized_energy": -10.45, 
			 "cosmo_cavitation_energy": 29.52, 
			 "cosmo_dispersion_energy": -20.78, 
			 "cosmo_repulsion_energy": 1.67, 
			 "cosmo_total_nonelectrostatic_energy": 10.41, 
			 "SMD_solvation_energy": 5.93 
		},
		"coords": [
			{
				"x": -1.1054198239,
				"y": -0.52591641,
				"z": -3.8265258942,
				"element": "C" 
			},
			{
				"x": -1.188829758,
				"y": -0.5037186618,
				"z": -2.2896814505,
				"element": "C" 
			},
			{
				"x": -2.2186306699,
				"y": 0.5553217937,
				"z": -1.8272378353,
				"element": "C" 
			},
			{
				"x": -2.5578546058,
				"y": 0.5207792465,
				"z": -0.3185415266,
				"element": "C" 
			},
			{
				"x": -3.2871278502,
				"y": -0.7464477629,
				"z": 0.0636546446,
				"element": "C" 
			},
			{
				"x": -4.6317333574,
				"y": -0.5737238088,
				"z": 0.0932909839,
				"element": "O" 
			},
			{
				"x": -2.7738737885,
				"y": -1.8240102097,
				"z": 0.2891997718,
				"element": "O" 
			},
			{
				"x": 0.1697594867,
				"y": -0.2961151854,
				"z": -1.628834327,
				"element": "C" 
			},
			{
				"x": 1.0391303521,
				"y": 0.7265504348,
				"z": -2.0383093713,
				"element": "C" 
			},
			{
				"x": 2.2750477282,
				"y": 0.9105607056,
				"z": -1.4172263314,
				"element": "C" 
			},
			{
				"x": 2.6662298443,
				"y": 0.074648313,
				"z": -0.3692561427,
				"element": "C" 
			},
			{
				"x": 1.8084970058,
				"y": -0.9411994923,
				"z": 0.0540802515,
				"element": "C" 
			},
			{
				"x": 0.5722346903,
				"y": -1.1230798119,
				"z": -0.5697596293,
				"element": "C" 
			},
			{
				"x": -0.3735245963,
				"y": -1.2633895297,
				"z": -4.1690527897,
				"element": "H" 
			},
			{
				"x": -2.0774572095,
				"y": -0.7842479498,
				"z": -4.2604887989,
				"element": "H" 
			},
			{
				"x": -0.8138242876,
				"y": 0.4478966572,
				"z": -4.2348089325,
				"element": "H" 
			},
			{
				"x": -1.5559502989,
				"y": -1.4839910543,
				"z": -1.9657060649,
				"element": "H" 
			},
			{
				"x": -1.8348699137,
				"y": 1.5557258783,
				"z": -2.0620887716,
				"element": "H" 
			},
			{
				"x": -3.1446619661,
				"y": 0.43372617,
				"z": -2.4035259834,
				"element": "H" 
			},
			{
				"x": -1.6362430082,
				"y": 0.5641492817,
				"z": 0.267794369,
				"element": "H" 
			},
			{
				"x": -3.1804181117,
				"y": 1.3821106542,
				"z": -0.0635346068,
				"element": "H" 
			},
			{
				"x": -5.0092898894,
				"y": -1.443038806,
				"z": 0.3113321651,
				"element": "H" 
			},
			{
				"x": 0.7544610988,
				"y": 1.3855968242,
				"z": -2.8543388138,
				"element": "H" 
			},
			{
				"x": 2.9342521713,
				"y": 1.7061506883,
				"z": -1.7540794571,
				"element": "H" 
			},
			{
				"x": 3.629646946,
				"y": 0.2156096881,
				"z": 0.1125843698,
				"element": "H" 
			},
			{
				"x": 2.099798326,
				"y": -1.5953203349,
				"z": 0.8714350066,
				"element": "H" 
			},
			{
				"x": -0.1021485143,
				"y": -1.901827318,
				"z": -0.2242748354,
				"element": "H" 
			}
		],
		 "valence_orbital": [ 
			{
				"type": "occ",
				"energy": -0.31861,
				"method": "rhf"
			},
			{
				"type": "occ",
				"energy": -0.31344,
				"method": "rhf"
			},
			{
				"type": "occ",
				"energy": -0.27222,
				"method": "rhf"
			},
			{
				"type": "occ",
				"energy": -0.2426,
				"method": "rhf"
			},
			{
				"type": "occ",
				"energy": -0.23606,
				"method": "rhf"
			},
			{
				"type": "unocc",
				"energy": 0.00364,
				"method": "rhf"
			},
			{
				"type": "unocc",
				"energy": 0.00572,
				"method": "rhf"
			},
			{
				"type": "unocc",
				"energy": 0.00646,
				"method": "rhf"
			},
			{
				"type": "unocc",
				"energy": 0.07672,
				"method": "rhf"
			},
			{
				"type": "unocc",
				"energy": 0.09276,
				"method": "rhf"
			}
		],
		"cosmo_sigma_profile": { 
			"-0.025": 0.0,
			"-0.024": 0.0,
			"-0.023": 0.0,
			"-0.022": 0.0,
			"-0.021": 0.0,
			"-0.02": 0.0,
			"-0.019": 0.0,
			"-0.018": 0.478783182271,
			"-0.017": 0.98306322012,
			"-0.016": 0.809681629089,
			"-0.015": 0.908683607938,
			"-0.014": 0.917376287023,
			"-0.013": 0.458865465577,
			"-0.012": 0.71187021962,
			"-0.011": 0.72087440963,
			"-0.01": 0.920861020566,
			"-0.009": 0.526212315969,
			"-0.008": 0.442333836523,
			"-0.007": 1.19947007483,
			"-0.006": 2.61298722291,
			"-0.005": 11.1462312468,
			"-0.004": 17.2000260309,
			"-0.003": 30.0264627897,
			"-0.002": 26.7358907727,
			"-0.001": 23.9760061706,
			"0.0": 18.9546143415,
			"0.001": 18.0424075198,
			"0.002": 11.6522704679,
			"0.003": 10.7133531919,
			"0.004": 10.0540826203,
			"0.005": 9.5604857147,
			"0.006": 10.8515677961,
			"0.007": 6.02362242941,
			"0.008": 3.02459386002,
			"0.009": 3.88759782346,
			"0.01": 2.96650982836,
			"0.011": 3.29809142238,
			"0.012": 2.07192647103,
			"0.013": 0.122870641454,
			"0.014": 0.0,
			"0.015": 0.0,
			"0.016": 0.0,
			"0.017": 0.0,
			"0.018": 0.0,
			"0.019": 0.0,
			"0.02": 0.0,
			"0.021": 0.0,
			"0.022": 0.0,
			"0.023": 0.0,
			"0.024": 0.0,
			"0.025": 0.0
		}
	}
}
