{
	 "smiles": "CC1=C2C(=O)CC(C)(C)OC2=CC(O)=C1", 
	 "Tm": 463.15, 
	 "num_atms": 29, 
	 "gaussian": { 
		 "optdone": 1, 
		 "sigma_profile": "yes", 
		 "theory": "DFT", 
		 "functional": "B3LYP", 
		 "basiset": "6-31G**", 
		 "properties": { 
			 "R2extent": 3363.4349, 
			 "electric_dipole_moment_norm": 3.46610823836, 
			 "electric_quadrupole_moment_norm": 4.69814987415, 
			 "total_energy": -691.404504199, 
			 "HOMO_LUMO_gap": 0.17998, 
			 "cosmo_polarized_energy": -12.87, 
			 "cosmo_cavitation_energy": 30.94, 
			 "cosmo_dispersion_energy": -22.38, 
			 "cosmo_repulsion_energy": 1.74, 
			 "cosmo_total_nonelectrostatic_energy": 10.3, 
			 "SMD_solvation_energy": 6.19 
		},
		"coords": [
			{
				"x": 0.826561182,
				"y": 1.8160674707,
				"z": -3.0628385555,
				"element": "C" 
			},
			{
				"x": 1.2477650052,
				"y": 0.9606939037,
				"z": -1.8928048684,
				"element": "C" 
			},
			{
				"x": 0.3615328476,
				"y": 0.6615390519,
				"z": -0.8149221692,
				"element": "C" 
			},
			{
				"x": -1.0442416238,
				"y": 1.0981204169,
				"z": -0.78695981,
				"element": "C" 
			},
			{
				"x": -1.5592015568,
				"y": 1.8481110894,
				"z": -1.6093764586,
				"element": "O" 
			},
			{
				"x": -1.8890678987,
				"y": 0.4958795714,
				"z": 0.3321362125,
				"element": "C" 
			},
			{
				"x": -1.1051728605,
				"y": 0.2977296776,
				"z": 1.6318235032,
				"element": "C" 
			},
			{
				"x": -1.8763957194,
				"y": -0.5609333288,
				"z": 2.6317479203,
				"element": "C" 
			},
			{
				"x": -0.6833227226,
				"y": 1.6319983105,
				"z": 2.2625922022,
				"element": "C" 
			},
			{
				"x": 0.0941875383,
				"y": -0.4757867425,
				"z": 1.3357486098,
				"element": "O" 
			},
			{
				"x": 0.841747554,
				"y": -0.1381605785,
				"z": 0.2521588734,
				"element": "C" 
			},
			{
				"x": 2.1409357938,
				"y": -0.6513935162,
				"z": 0.2496986214,
				"element": "C" 
			},
			{
				"x": 2.9801094208,
				"y": -0.364488881,
				"z": -0.8226074142,
				"element": "C" 
			},
			{
				"x": 4.2557164161,
				"y": -0.8301432603,
				"z": -0.8939642687,
				"element": "O" 
			},
			{
				"x": 2.5367400544,
				"y": 0.4432418169,
				"z": -1.8812306922,
				"element": "C" 
			},
			{
				"x": 1.6473366039,
				"y": 1.9027191344,
				"z": -3.7800459278,
				"element": "H" 
			},
			{
				"x": -0.0482712511,
				"y": 1.3990570268,
				"z": -3.5687454176,
				"element": "H" 
			},
			{
				"x": 0.5274783543,
				"y": 2.8161537166,
				"z": -2.7384363954,
				"element": "H" 
			},
			{
				"x": -2.2518356659,
				"y": -0.479921168,
				"z": -0.0196329257,
				"element": "H" 
			},
			{
				"x": -2.7622313786,
				"y": 1.1350093557,
				"z": 0.4864247237,
				"element": "H" 
			},
			{
				"x": -2.1288379911,
				"y": -1.5298415842,
				"z": 2.1919572109,
				"element": "H" 
			},
			{
				"x": -1.2744229174,
				"y": -0.7353445844,
				"z": 3.5283304677,
				"element": "H" 
			},
			{
				"x": -2.8025661906,
				"y": -0.0594966387,
				"z": 2.9278363073,
				"element": "H" 
			},
			{
				"x": -0.0868838143,
				"y": 1.4499587036,
				"z": 3.1609267437,
				"element": "H" 
			},
			{
				"x": -1.5662666909,
				"y": 2.214199128,
				"z": 2.5438933954,
				"element": "H" 
			},
			{
				"x": -0.0883480319,
				"y": 2.2340562429,
				"z": 1.5704370039,
				"element": "H" 
			},
			{
				"x": 2.4679097295,
				"y": -1.2541382052,
				"z": 1.0918562613,
				"element": "H" 
			},
			{
				"x": 4.4414501171,
				"y": -1.373549055,
				"z": -0.1166576535,
				"element": "H" 
			},
			{
				"x": 3.2245956966,
				"y": 0.6516629258,
				"z": -2.6935454998,
				"element": "H" 
			}
		],
		 "valence_orbital": [ 
			{
				"type": "occ",
				"energy": -0.3202,
				"method": "rhf"
			},
			{
				"type": "occ",
				"energy": -0.29677,
				"method": "rhf"
			},
			{
				"type": "occ",
				"energy": -0.23532,
				"method": "rhf"
			},
			{
				"type": "occ",
				"energy": -0.23387,
				"method": "rhf"
			},
			{
				"type": "occ",
				"energy": -0.22151,
				"method": "rhf"
			},
			{
				"type": "unocc",
				"energy": -0.04153,
				"method": "rhf"
			},
			{
				"type": "unocc",
				"energy": 0.0048,
				"method": "rhf"
			},
			{
				"type": "unocc",
				"energy": 0.0507,
				"method": "rhf"
			},
			{
				"type": "unocc",
				"energy": 0.0644,
				"method": "rhf"
			},
			{
				"type": "unocc",
				"energy": 0.08344,
				"method": "rhf"
			}
		],
		"cosmo_sigma_profile": { 
			"-0.025": 0.0,
			"-0.024": 0.0,
			"-0.023": 0.0,
			"-0.022": 0.0,
			"-0.021": 0.0,
			"-0.02": 0.0,
			"-0.019": 0.0440085621874,
			"-0.018": 0.882918335946,
			"-0.017": 1.49371059529,
			"-0.016": 0.866164347249,
			"-0.015": 0.873885668143,
			"-0.014": 1.13326322359,
			"-0.013": 1.27490025697,
			"-0.012": 0.491765334184,
			"-0.011": 0.66096355279,
			"-0.01": 1.64497543681,
			"-0.009": 0.978996559219,
			"-0.008": 1.01500627232,
			"-0.007": 1.42289259887,
			"-0.006": 6.1855537498,
			"-0.005": 12.7316269541,
			"-0.004": 20.2174232332,
			"-0.003": 20.9650384775,
			"-0.002": 22.470302072,
			"-0.001": 22.150004568,
			"0.0": 27.2689001095,
			"0.001": 17.4141609365,
			"0.002": 12.7859637917,
			"0.003": 19.1601723349,
			"0.004": 12.0279490365,
			"0.005": 5.93562983278,
			"0.006": 3.76644429328,
			"0.007": 4.67167953352,
			"0.008": 4.61069032608,
			"0.009": 4.51222614262,
			"0.01": 3.28101956746,
			"0.011": 3.02744690676,
			"0.012": 2.73845152787,
			"0.013": 2.72342664796,
			"0.014": 1.50015079607,
			"0.015": 0.0491472584938,
			"0.016": 0.0,
			"0.017": 0.0,
			"0.018": 0.0,
			"0.019": 0.0,
			"0.02": 0.0,
			"0.021": 0.0,
			"0.022": 0.0,
			"0.023": 0.0,
			"0.024": 0.0,
			"0.025": 0.0
		}
	}
}
