{
	 "smiles": "BrCCC1=CC=CC=C1", 
	 "Tm": 217.15, 
	 "num_atms": 18, 
	 "gaussian": { 
		 "optdone": 1, 
		 "sigma_profile": "yes", 
		 "theory": "DFT", 
		 "functional": "B3LYP", 
		 "basiset": "6-31G**", 
		 "properties": { 
			 "R2extent": 3244.9819, 
			 "electric_dipole_moment_norm": 1.99968561779, 
			 "electric_quadrupole_moment_norm": 9.87214554542, 
			 "total_energy": -2881.6888167, 
			 "HOMO_LUMO_gap": 0.23916, 
			 "cosmo_polarized_energy": -6.41, 
			 "cosmo_cavitation_energy": 23.44, 
			 "cosmo_dispersion_energy": -17.34, 
			 "cosmo_repulsion_energy": 1.43, 
			 "cosmo_total_nonelectrostatic_energy": 7.53, 
			 "SMD_solvation_energy": 2.67 
		},
		"coords": [
			{
				"x": 2.0485053428,
				"y": -1.7259685422,
				"z": -2.9243199082,
				"element": "Br" 
			},
			{
				"x": 0.189241062,
				"y": -1.335147369,
				"z": -2.3561531419,
				"element": "C" 
			},
			{
				"x": 0.0267419031,
				"y": -1.3038562415,
				"z": -0.8359766624,
				"element": "C" 
			},
			{
				"x": 0.7047676761,
				"y": -0.1378449157,
				"z": -0.1487525729,
				"element": "C" 
			},
			{
				"x": 0.0921862384,
				"y": 1.1227451055,
				"z": -0.1243283947,
				"element": "C" 
			},
			{
				"x": 0.7152773647,
				"y": 2.209990391,
				"z": 0.488581536,
				"element": "C" 
			},
			{
				"x": 1.9644243298,
				"y": 2.0503664436,
				"z": 1.091849406,
				"element": "C" 
			},
			{
				"x": 2.5825994427,
				"y": 0.7991706108,
				"z": 1.0770806608,
				"element": "C" 
			},
			{
				"x": 1.9565999652,
				"y": -0.2857465339,
				"z": 0.4611533613,
				"element": "C" 
			},
			{
				"x": -0.0534642117,
				"y": -0.3766376848,
				"z": -2.8146338608,
				"element": "H" 
			},
			{
				"x": -0.4124220513,
				"y": -2.1232990535,
				"z": -2.8084754552,
				"element": "H" 
			},
			{
				"x": -1.055491106,
				"y": -1.257785202,
				"z": -0.6474418981,
				"element": "H" 
			},
			{
				"x": 0.3775998133,
				"y": -2.252984235,
				"z": -0.4187210647,
				"element": "H" 
			},
			{
				"x": -0.8855755192,
				"y": 1.2527073184,
				"z": -0.5837684398,
				"element": "H" 
			},
			{
				"x": 0.2234791886,
				"y": 3.1786525843,
				"z": 0.5006811781,
				"element": "H" 
			},
			{
				"x": 2.4500854072,
				"y": 2.894335637,
				"z": 1.573246112,
				"element": "H" 
			},
			{
				"x": 3.5534391986,
				"y": 0.6657743729,
				"z": 1.5459500536,
				"element": "H" 
			},
			{
				"x": 2.4444059558,
				"y": -1.2562726858,
				"z": 0.4484290909,
				"element": "H" 
			}
		],
		 "valence_orbital": [ 
			{
				"type": "occ",
				"energy": -0.33611,
				"method": "rhf"
			},
			{
				"type": "occ",
				"energy": -0.27054,
				"method": "rhf"
			},
			{
				"type": "occ",
				"energy": -0.26847,
				"method": "rhf"
			},
			{
				"type": "occ",
				"energy": -0.2481,
				"method": "rhf"
			},
			{
				"type": "occ",
				"energy": -0.24375,
				"method": "rhf"
			},
			{
				"type": "unocc",
				"energy": -0.00459,
				"method": "rhf"
			},
			{
				"type": "unocc",
				"energy": -0.00154,
				"method": "rhf"
			},
			{
				"type": "unocc",
				"energy": 0.0087,
				"method": "rhf"
			},
			{
				"type": "unocc",
				"energy": 0.08904,
				"method": "rhf"
			},
			{
				"type": "unocc",
				"energy": 0.10578,
				"method": "rhf"
			}
		],
		"cosmo_sigma_profile": { 
			"-0.025": 0.0,
			"-0.024": 0.0,
			"-0.023": 0.0,
			"-0.022": 0.0,
			"-0.021": 0.0,
			"-0.02": 0.0,
			"-0.019": 0.0,
			"-0.018": 0.0,
			"-0.017": 0.0,
			"-0.016": 0.0,
			"-0.015": 0.0,
			"-0.014": 0.0,
			"-0.013": 0.0,
			"-0.012": 0.0,
			"-0.011": 0.0,
			"-0.01": 0.0,
			"-0.009": 0.0,
			"-0.008": 0.0133528295042,
			"-0.007": 2.41156494247,
			"-0.006": 8.7279581683,
			"-0.005": 21.1542221671,
			"-0.004": 20.2947544294,
			"-0.003": 17.9947854496,
			"-0.002": 12.9185934053,
			"-0.001": 12.1296368934,
			"0.0": 10.1274621352,
			"0.001": 9.82259649292,
			"0.002": 9.57860247732,
			"0.003": 11.50464055,
			"0.004": 11.8928674388,
			"0.005": 14.1013843917,
			"0.006": 17.6992343137,
			"0.007": 8.50396650095,
			"0.008": 0.153614882443,
			"0.009": 0.0,
			"0.01": 0.0,
			"0.011": 0.0,
			"0.012": 0.0,
			"0.013": 0.0,
			"0.014": 0.0,
			"0.015": 0.0,
			"0.016": 0.0,
			"0.017": 0.0,
			"0.018": 0.0,
			"0.019": 0.0,
			"0.02": 0.0,
			"0.021": 0.0,
			"0.022": 0.0,
			"0.023": 0.0,
			"0.024": 0.0,
			"0.025": 0.0
		}
	}
}
