{
	 "smiles": "CN(C)C1=CC=C(C=NN2C(C)=NN=C2SCC2=CC=CC=C2)C=C1", 
	 "Tm": 321.15, 
	 "num_atms": 46, 
	 "gaussian": { 
		 "optdone": 1, 
		 "sigma_profile": "yes", 
		 "theory": "DFT", 
		 "functional": "B3LYP", 
		 "basiset": "6-31G**", 
		 "properties": { 
			 "R2extent": 15630.9291, 
			 "electric_dipole_moment_norm": 9.56063915437, 
			 "electric_quadrupole_moment_norm": 25.5451624941, 
			 "total_energy": -1408.56465221, 
			 "HOMO_LUMO_gap": 0.14508, 
			 "cosmo_polarized_energy": -21.92, 
			 "cosmo_cavitation_energy": 51.35, 
			 "cosmo_dispersion_energy": -36.42, 
			 "cosmo_repulsion_energy": 2.71, 
			 "cosmo_total_nonelectrostatic_energy": 17.64, 
			 "SMD_solvation_energy": 6.15 
		},
		"coords": [
			{
				"x": 3.9594063724,
				"y": -1.4308123064,
				"z": 6.0769837898,
				"element": "C" 
			},
			{
				"x": 2.8349318427,
				"y": -2.0073389564,
				"z": 5.3579922768,
				"element": "N" 
			},
			{
				"x": 2.4808684679,
				"y": -3.4010300722,
				"z": 5.5770034189,
				"element": "C" 
			},
			{
				"x": 2.1348998179,
				"y": -1.2482489436,
				"z": 4.447473151,
				"element": "C" 
			},
			{
				"x": 1.0424145192,
				"y": -1.7938850826,
				"z": 3.7199535997,
				"element": "C" 
			},
			{
				"x": 0.3379727262,
				"y": -1.0299014668,
				"z": 2.8086484342,
				"element": "C" 
			},
			{
				"x": 0.6786089391,
				"y": 0.3153237988,
				"z": 2.5644643685,
				"element": "C" 
			},
			{
				"x": -0.0337173946,
				"y": 1.1381830812,
				"z": 1.6034473601,
				"element": "C" 
			},
			{
				"x": -1.0028906785,
				"y": 0.670528585,
				"z": 0.8915856877,
				"element": "N" 
			},
			{
				"x": -1.6334378973,
				"y": 1.555385452,
				"z": 0.0310486281,
				"element": "N" 
			},
			{
				"x": -2.0651930008,
				"y": 2.8708192472,
				"z": 0.1763473112,
				"element": "C" 
			},
			{
				"x": -1.8564752586,
				"y": 3.7386819905,
				"z": 1.3716621792,
				"element": "C" 
			},
			{
				"x": -2.762346529,
				"y": 3.2128104709,
				"z": -0.8788572255,
				"element": "N" 
			},
			{
				"x": -2.8078860515,
				"y": 2.132080553,
				"z": -1.746084019,
				"element": "N" 
			},
			{
				"x": -2.1530709073,
				"y": 1.1474946183,
				"z": -1.1758327963,
				"element": "C" 
			},
			{
				"x": -1.9025838613,
				"y": -0.4910934557,
				"z": -1.7670517612,
				"element": "S" 
			},
			{
				"x": -2.7556368709,
				"y": -0.3471899013,
				"z": -3.4140418464,
				"element": "C" 
			},
			{
				"x": -1.8693425699,
				"y": 0.0984903975,
				"z": -4.5484941561,
				"element": "C" 
			},
			{
				"x": -1.7172024323,
				"y": 1.4608828147,
				"z": -4.8453133119,
				"element": "C" 
			},
			{
				"x": -0.9024488017,
				"y": 1.8638546816,
				"z": -5.903855833,
				"element": "C" 
			},
			{
				"x": -0.2310731633,
				"y": 0.9159705349,
				"z": -6.6792814796,
				"element": "C" 
			},
			{
				"x": -0.378783291,
				"y": -0.4421636744,
				"z": -6.3910023006,
				"element": "C" 
			},
			{
				"x": -1.1932715498,
				"y": -0.8458546519,
				"z": -5.3328714818,
				"element": "C" 
			},
			{
				"x": 1.7568939358,
				"y": 0.8582324789,
				"z": 3.2834315315,
				"element": "C" 
			},
			{
				"x": 2.473091261,
				"y": 0.1058811337,
				"z": 4.2015462856,
				"element": "C" 
			},
			{
				"x": 4.3785673165,
				"y": -2.1802927922,
				"z": 6.7486401941,
				"element": "H" 
			},
			{
				"x": 4.7568227299,
				"y": -1.1026449688,
				"z": 5.3964303161,
				"element": "H" 
			},
			{
				"x": 3.6550545687,
				"y": -0.56764009,
				"z": 6.6836265146,
				"element": "H" 
			},
			{
				"x": 3.1455731652,
				"y": -3.8252230685,
				"z": 6.3298832754,
				"element": "H" 
			},
			{
				"x": 2.5818101579,
				"y": -3.9990817826,
				"z": 4.6614079363,
				"element": "H" 
			},
			{
				"x": 1.4502348465,
				"y": -3.5073075937,
				"z": 5.939978527,
				"element": "H" 
			},
			{
				"x": 0.7463199787,
				"y": -2.8238955475,
				"z": 3.8743788003,
				"element": "H" 
			},
			{
				"x": -0.4939383226,
				"y": -1.4650319765,
				"z": 2.264670885,
				"element": "H" 
			},
			{
				"x": 0.3020064796,
				"y": 2.1741188531,
				"z": 1.5049787735,
				"element": "H" 
			},
			{
				"x": -0.8468238395,
				"y": 4.1620039403,
				"z": 1.4193954832,
				"element": "H" 
			},
			{
				"x": -2.5648917215,
				"y": 4.5662477641,
				"z": 1.304130654,
				"element": "H" 
			},
			{
				"x": -2.0380454747,
				"y": 3.1931538692,
				"z": 2.3036496651,
				"element": "H" 
			},
			{
				"x": -3.1403086042,
				"y": -1.3552670975,
				"z": -3.5879004909,
				"element": "H" 
			},
			{
				"x": -3.597489513,
				"y": 0.3300542875,
				"z": -3.2632666708,
				"element": "H" 
			},
			{
				"x": -2.2339580868,
				"y": 2.1926865081,
				"z": -4.2319040278,
				"element": "H" 
			},
			{
				"x": -0.7943756173,
				"y": 2.9221749361,
				"z": -6.1251285935,
				"element": "H" 
			},
			{
				"x": 0.4004867742,
				"y": 1.2328463388,
				"z": -7.5046209701,
				"element": "H" 
			},
			{
				"x": 0.13608896,
				"y": -1.1869741338,
				"z": -6.9916659493,
				"element": "H" 
			},
			{
				"x": -1.3079961359,
				"y": -1.9052952208,
				"z": -5.1143170855,
				"element": "H" 
			},
			{
				"x": 2.0428212044,
				"y": 1.8942317326,
				"z": 3.1159714129,
				"element": "H" 
			},
			{
				"x": 3.2973135092,
				"y": 0.5695347153,
				"z": 4.7284595394,
				"element": "H" 
			}
		],
		 "valence_orbital": [ 
			{
				"type": "occ",
				"energy": -0.24097,
				"method": "rhf"
			},
			{
				"type": "occ",
				"energy": -0.23687,
				"method": "rhf"
			},
			{
				"type": "occ",
				"energy": -0.23021,
				"method": "rhf"
			},
			{
				"type": "occ",
				"energy": -0.20604,
				"method": "rhf"
			},
			{
				"type": "occ",
				"energy": -0.19985,
				"method": "rhf"
			},
			{
				"type": "unocc",
				"energy": -0.05477,
				"method": "rhf"
			},
			{
				"type": "unocc",
				"energy": -0.00939,
				"method": "rhf"
			},
			{
				"type": "unocc",
				"energy": -0.00108,
				"method": "rhf"
			},
			{
				"type": "unocc",
				"energy": 0.01099,
				"method": "rhf"
			},
			{
				"type": "unocc",
				"energy": 0.03242,
				"method": "rhf"
			}
		],
		"cosmo_sigma_profile": { 
			"-0.025": 0.0,
			"-0.024": 0.0,
			"-0.023": 0.0,
			"-0.022": 0.0,
			"-0.021": 0.0,
			"-0.02": 0.0,
			"-0.019": 0.0,
			"-0.018": 0.0,
			"-0.017": 0.0,
			"-0.016": 0.0,
			"-0.015": 0.0,
			"-0.014": 0.0,
			"-0.013": 0.0,
			"-0.012": 0.0,
			"-0.011": 0.0,
			"-0.01": 0.011500016698,
			"-0.009": 2.04032124257,
			"-0.008": 4.63630425516,
			"-0.007": 10.0389290396,
			"-0.006": 19.6613052157,
			"-0.005": 35.8087773785,
			"-0.004": 41.1757336184,
			"-0.003": 38.4749327085,
			"-0.002": 39.0410205748,
			"-0.001": 28.5533891578,
			"0.0": 21.6140961437,
			"0.001": 19.8017876935,
			"0.002": 22.4763021049,
			"0.003": 25.7007384896,
			"0.004": 26.4716403234,
			"0.005": 27.4775023142,
			"0.006": 17.9720495149,
			"0.007": 7.71863414016,
			"0.008": 3.90706773252,
			"0.009": 2.9794036833,
			"0.01": 2.70653546766,
			"0.011": 1.91290616804,
			"0.012": 2.23923449647,
			"0.013": 2.67075123858,
			"0.014": 2.74128289134,
			"0.015": 1.45550205082,
			"0.016": 1.0609285205,
			"0.017": 0.826373417391,
			"0.018": 0.0488313962559,
			"0.019": 0.0,
			"0.02": 0.0,
			"0.021": 0.0,
			"0.022": 0.0,
			"0.023": 0.0,
			"0.024": 0.0,
			"0.025": 0.0
		}
	}
}
