{
	 "smiles": "NC1=CC(=CC=C1)C(C1=CC(N)=CC=C1)(C(F)(F)F)C(F)(F)F", 
	 "Tm": 359.15, 
	 "num_atms": 35, 
	 "gaussian": { 
		 "optdone": 1, 
		 "sigma_profile": "yes", 
		 "theory": "DFT", 
		 "functional": "B3LYP", 
		 "basiset": "6-31G**", 
		 "properties": { 
			 "R2extent": 6563.3092, 
			 "electric_dipole_moment_norm": 2.85759735967, 
			 "electric_quadrupole_moment_norm": 22.4350557947, 
			 "total_energy": -1287.38640859, 
			 "HOMO_LUMO_gap": 0.19499, 
			 "cosmo_polarized_energy": -14.34, 
			 "cosmo_cavitation_energy": 39.07, 
			 "cosmo_dispersion_energy": -26.7, 
			 "cosmo_repulsion_energy": 1.95, 
			 "cosmo_total_nonelectrostatic_energy": 14.33, 
			 "SMD_solvation_energy": 8.37 
		},
		"coords": [
			{
				"x": 2.0220304774,
				"y": 4.3093724907,
				"z": 1.232625357,
				"element": "N" 
			},
			{
				"x": 1.5127541466,
				"y": 3.238001776,
				"z": 0.4957634154,
				"element": "C" 
			},
			{
				"x": 0.8836397216,
				"y": 2.1664353793,
				"z": 1.1527975608,
				"element": "C" 
			},
			{
				"x": 0.429145477,
				"y": 1.0509446451,
				"z": 0.4441271428,
				"element": "C" 
			},
			{
				"x": 0.5832010296,
				"y": 1.0176837122,
				"z": -0.950218956,
				"element": "C" 
			},
			{
				"x": 1.19751672,
				"y": 2.0835468681,
				"z": -1.6048317544,
				"element": "C" 
			},
			{
				"x": 1.6662773416,
				"y": 3.1866225314,
				"z": -0.8979099294,
				"element": "C" 
			},
			{
				"x": -0.3176099641,
				"y": -0.1224624562,
				"z": 1.1238963773,
				"element": "C" 
			},
			{
				"x": 0.1397568567,
				"y": -1.4902196829,
				"z": 0.5607700909,
				"element": "C" 
			},
			{
				"x": 1.5144884052,
				"y": -1.6989265609,
				"z": 0.4011492446,
				"element": "C" 
			},
			{
				"x": 2.0219302501,
				"y": -2.927039701,
				"z": -0.0488775438,
				"element": "C" 
			},
			{
				"x": 3.3925401943,
				"y": -3.0922003968,
				"z": -0.2551657852,
				"element": "N" 
			},
			{
				"x": 1.1194565595,
				"y": -3.961809286,
				"z": -0.3452677523,
				"element": "C" 
			},
			{
				"x": -0.2451739168,
				"y": -3.7567554467,
				"z": -0.1795895708,
				"element": "C" 
			},
			{
				"x": -0.7473174614,
				"y": -2.536982299,
				"z": 0.2778840282,
				"element": "C" 
			},
			{
				"x": -1.8359187721,
				"y": 0.1390111258,
				"z": 0.8953436216,
				"element": "C" 
			},
			{
				"x": -2.173362594,
				"y": 1.3965960977,
				"z": 1.2313498132,
				"element": "F" 
			},
			{
				"x": -2.6256456236,
				"y": -0.6833502558,
				"z": 1.6243220748,
				"element": "F" 
			},
			{
				"x": -2.1680650009,
				"y": -0.0329949334,
				"z": -0.3988373017,
				"element": "F" 
			},
			{
				"x": -0.0741492048,
				"y": -0.1831457634,
				"z": 2.6609217614,
				"element": "C" 
			},
			{
				"x": -0.6398470515,
				"y": 0.8531358284,
				"z": 3.3252209822,
				"element": "F" 
			},
			{
				"x": 1.2443766624,
				"y": -0.161069328,
				"z": 2.9448044714,
				"element": "F" 
			},
			{
				"x": -0.5793273161,
				"y": -1.3065954547,
				"z": 3.1963344745,
				"element": "F" 
			},
			{
				"x": 1.5884758884,
				"y": 4.4546096904,
				"z": 2.1341792346,
				"element": "H" 
			},
			{
				"x": 2.1189982252,
				"y": 5.1746091197,
				"z": 0.7192890933,
				"element": "H" 
			},
			{
				"x": 0.7598581847,
				"y": 2.230649883,
				"z": 2.2262214226,
				"element": "H" 
			},
			{
				"x": 0.2300984275,
				"y": 0.1653930283,
				"z": -1.5169272285,
				"element": "H" 
			},
			{
				"x": 1.3132382749,
				"y": 2.0522075634,
				"z": -2.6844531914,
				"element": "H" 
			},
			{
				"x": 2.1525488479,
				"y": 4.0079463845,
				"z": -1.4183169616,
				"element": "H" 
			},
			{
				"x": 2.2087231063,
				"y": -0.8944313594,
				"z": 0.6191752149,
				"element": "H" 
			},
			{
				"x": 3.7212922948,
				"y": -4.0469713061,
				"z": -0.2141244471,
				"element": "H" 
			},
			{
				"x": 3.9851728893,
				"y": -2.4662987754,
				"z": 0.2726543763,
				"element": "H" 
			},
			{
				"x": 1.4927638352,
				"y": -4.9168577806,
				"z": -0.7063625738,
				"element": "H" 
			},
			{
				"x": -0.9363695801,
				"y": -4.5637686018,
				"z": -0.4054833138,
				"element": "H" 
			},
			{
				"x": -1.8135973309,
				"y": -2.4224867359,
				"z": 0.4094365521,
				"element": "H" 
			}
		],
		 "valence_orbital": [ 
			{
				"type": "occ",
				"energy": -0.3061,
				"method": "rhf"
			},
			{
				"type": "occ",
				"energy": -0.25315,
				"method": "rhf"
			},
			{
				"type": "occ",
				"energy": -0.24549,
				"method": "rhf"
			},
			{
				"type": "occ",
				"energy": -0.20707,
				"method": "rhf"
			},
			{
				"type": "occ",
				"energy": -0.20285,
				"method": "rhf"
			},
			{
				"type": "unocc",
				"energy": -0.00786,
				"method": "rhf"
			},
			{
				"type": "unocc",
				"energy": -0.00735,
				"method": "rhf"
			},
			{
				"type": "unocc",
				"energy": 0.00801,
				"method": "rhf"
			},
			{
				"type": "unocc",
				"energy": 0.01992,
				"method": "rhf"
			},
			{
				"type": "unocc",
				"energy": 0.0793,
				"method": "rhf"
			}
		],
		"cosmo_sigma_profile": { 
			"-0.025": 0.0,
			"-0.024": 0.0,
			"-0.023": 0.0,
			"-0.022": 0.0,
			"-0.021": 0.0,
			"-0.02": 0.0,
			"-0.019": 0.0,
			"-0.018": 0.0,
			"-0.017": 0.0,
			"-0.016": 0.0,
			"-0.015": 0.0,
			"-0.014": 0.0,
			"-0.013": 1.18266642034,
			"-0.012": 5.22968386898,
			"-0.011": 6.44408012393,
			"-0.01": 5.96720572721,
			"-0.009": 6.27150341364,
			"-0.008": 5.28885861384,
			"-0.007": 6.75690877281,
			"-0.006": 9.59059458154,
			"-0.005": 12.0073979416,
			"-0.004": 14.674261141,
			"-0.003": 14.3499987169,
			"-0.002": 12.4307995154,
			"-0.001": 15.0642378814,
			"0.0": 16.4243732347,
			"0.001": 24.3257178784,
			"0.002": 55.4787779425,
			"0.003": 38.4087715365,
			"0.004": 18.3497127087,
			"0.005": 19.6812345311,
			"0.006": 11.050625106,
			"0.007": 2.15406994874,
			"0.008": 1.84852989483,
			"0.009": 1.33311339824,
			"0.01": 0.901228103069,
			"0.011": 1.47829636748,
			"0.012": 1.89239147812,
			"0.013": 1.14874005935,
			"0.014": 1.02992086729,
			"0.015": 0.21151337736,
			"0.016": 0.0,
			"0.017": 0.0,
			"0.018": 0.0,
			"0.019": 0.0,
			"0.02": 0.0,
			"0.021": 0.0,
			"0.022": 0.0,
			"0.023": 0.0,
			"0.024": 0.0,
			"0.025": 0.0
		}
	}
}
