{
	 "smiles": "CC1=CC=C(C=C1)S(=O)(=O)OC1CC2=CC=CC=C2C1", 
	 "Tm": 392.65, 
	 "num_atms": 36, 
	 "gaussian": { 
		 "optdone": 1, 
		 "sigma_profile": "yes", 
		 "theory": "DFT", 
		 "functional": "B3LYP", 
		 "basiset": "6-31G**", 
		 "properties": { 
			 "R2extent": 7842.2362, 
			 "electric_dipole_moment_norm": 4.04083686753, 
			 "electric_quadrupole_moment_norm": 17.1465901114, 
			 "total_energy": -1243.1513986, 
			 "HOMO_LUMO_gap": 0.1943, 
			 "cosmo_polarized_energy": -13.15, 
			 "cosmo_cavitation_energy": 40.58, 
			 "cosmo_dispersion_energy": -29.22, 
			 "cosmo_repulsion_energy": 2.22, 
			 "cosmo_total_nonelectrostatic_energy": 13.58, 
			 "SMD_solvation_energy": 5.39 
		},
		"coords": [
			{
				"x": -4.4920049984,
				"y": 1.255626025,
				"z": -2.5427767546,
				"element": "C" 
			},
			{
				"x": -3.2192494191,
				"y": 0.555899577,
				"z": -2.1315877703,
				"element": "C" 
			},
			{
				"x": -1.9698435005,
				"y": 1.0349633086,
				"z": -2.5518451946,
				"element": "C" 
			},
			{
				"x": -0.788402899,
				"y": 0.4119438262,
				"z": -2.15612771,
				"element": "C" 
			},
			{
				"x": -0.8626068928,
				"y": -0.7060911064,
				"z": -1.3247481154,
				"element": "C" 
			},
			{
				"x": -2.0903231659,
				"y": -1.2142801336,
				"z": -0.8979602459,
				"element": "C" 
			},
			{
				"x": -3.2598411342,
				"y": -0.5780682366,
				"z": -1.3063827988,
				"element": "C" 
			},
			{
				"x": 0.6400891464,
				"y": -1.5170555976,
				"z": -0.8196117695,
				"element": "S" 
			},
			{
				"x": 1.6962138345,
				"y": -1.2292622093,
				"z": -1.7917413057,
				"element": "O" 
			},
			{
				"x": 0.3570759844,
				"y": -2.9030813689,
				"z": -0.4391268078,
				"element": "O" 
			},
			{
				"x": 0.9124907254,
				"y": -0.6504079222,
				"z": 0.549083326,
				"element": "O" 
			},
			{
				"x": 1.8755131912,
				"y": -1.2084497447,
				"z": 1.5052899919,
				"element": "C" 
			},
			{
				"x": 3.3189403232,
				"y": -0.8148590088,
				"z": 1.11790938,
				"element": "C" 
			},
			{
				"x": 3.5373257338,
				"y": 0.4939214845,
				"z": 1.8460029154,
				"element": "C" 
			},
			{
				"x": 4.5406539498,
				"y": 1.4433326639,
				"z": 1.6632264335,
				"element": "C" 
			},
			{
				"x": 4.5549956641,
				"y": 2.5816080144,
				"z": 2.4755239445,
				"element": "C" 
			},
			{
				"x": 3.5770799578,
				"y": 2.7640385877,
				"z": 3.4580337162,
				"element": "C" 
			},
			{
				"x": 2.5705692528,
				"y": 1.8106107563,
				"z": 3.6414020682,
				"element": "C" 
			},
			{
				"x": 2.5562420737,
				"y": 0.6784396421,
				"z": 2.8296924094,
				"element": "C" 
			},
			{
				"x": 1.5949617636,
				"y": -0.4909697626,
				"z": 2.8407185152,
				"element": "C" 
			},
			{
				"x": -5.3284995365,
				"y": 0.5548149339,
				"z": -2.6170239502,
				"element": "H" 
			},
			{
				"x": -4.3794858784,
				"y": 1.7576057543,
				"z": -3.5078908843,
				"element": "H" 
			},
			{
				"x": -4.7714553737,
				"y": 2.0204085675,
				"z": -1.8074347527,
				"element": "H" 
			},
			{
				"x": -1.921474702,
				"y": 1.9034057428,
				"z": -3.2031699029,
				"element": "H" 
			},
			{
				"x": 0.1769735772,
				"y": 0.7721640723,
				"z": -2.4938415545,
				"element": "H" 
			},
			{
				"x": -2.1215415849,
				"y": -2.0999063457,
				"z": -0.272875439,
				"element": "H" 
			},
			{
				"x": -4.2205153933,
				"y": -0.9715482485,
				"z": -0.9851733435,
				"element": "H" 
			},
			{
				"x": 1.7115591939,
				"y": -2.2869787117,
				"z": 1.550688895,
				"element": "H" 
			},
			{
				"x": 3.4424044622,
				"y": -0.75360319,
				"z": 0.0339846862,
				"element": "H" 
			},
			{
				"x": 4.0144164101,
				"y": -1.5846786934,
				"z": 1.4810899095,
				"element": "H" 
			},
			{
				"x": 5.2996343033,
				"y": 1.3071376541,
				"z": 0.8971468613,
				"element": "H" 
			},
			{
				"x": 5.3287297112,
				"y": 3.3318867896,
				"z": 2.3388964452,
				"element": "H" 
			},
			{
				"x": 3.5960979706,
				"y": 3.6548521123,
				"z": 4.0795827622,
				"element": "H" 
			},
			{
				"x": 1.8087969604,
				"y": 1.9580816782,
				"z": 4.4028570093,
				"element": "H" 
			},
			{
				"x": 1.8112473542,
				"y": -1.1722808412,
				"z": 3.6750973344,
				"element": "H" 
			},
			{
				"x": 0.5416329347,
				"y": -0.2061200695,
				"z": 2.9186916964,
				"element": "H" 
			}
		],
		 "valence_orbital": [ 
			{
				"type": "occ",
				"energy": -0.28314,
				"method": "rhf"
			},
			{
				"type": "occ",
				"energy": -0.26992,
				"method": "rhf"
			},
			{
				"type": "occ",
				"energy": -0.26373,
				"method": "rhf"
			},
			{
				"type": "occ",
				"energy": -0.24364,
				"method": "rhf"
			},
			{
				"type": "occ",
				"energy": -0.23392,
				"method": "rhf"
			},
			{
				"type": "unocc",
				"energy": -0.03962,
				"method": "rhf"
			},
			{
				"type": "unocc",
				"energy": -0.0203,
				"method": "rhf"
			},
			{
				"type": "unocc",
				"energy": -0.00243,
				"method": "rhf"
			},
			{
				"type": "unocc",
				"energy": 0.00614,
				"method": "rhf"
			},
			{
				"type": "unocc",
				"energy": 0.05297,
				"method": "rhf"
			}
		],
		"cosmo_sigma_profile": { 
			"-0.025": 0.0,
			"-0.024": 0.0,
			"-0.023": 0.0,
			"-0.022": 0.0,
			"-0.021": 0.0,
			"-0.02": 0.0,
			"-0.019": 0.0,
			"-0.018": 0.0,
			"-0.017": 0.0,
			"-0.016": 0.0,
			"-0.015": 0.0,
			"-0.014": 0.0,
			"-0.013": 0.0,
			"-0.012": 0.0,
			"-0.011": 0.0,
			"-0.01": 0.0,
			"-0.009": 0.0,
			"-0.008": 0.309780086402,
			"-0.007": 4.31583778413,
			"-0.006": 16.324298495,
			"-0.005": 32.268659359,
			"-0.004": 27.9588201891,
			"-0.003": 31.5447182797,
			"-0.002": 30.5791611464,
			"-0.001": 26.9465374534,
			"0.0": 21.7021854857,
			"0.001": 18.6362773663,
			"0.002": 20.734963736,
			"0.003": 23.4747365475,
			"0.004": 13.3471749393,
			"0.005": 13.5420494114,
			"0.006": 12.1904144132,
			"0.007": 7.18078041876,
			"0.008": 3.2960208319,
			"0.009": 6.31374150846,
			"0.01": 8.08422233118,
			"0.011": 4.2458265725,
			"0.012": 0.130968429614,
			"0.013": 0.0,
			"0.014": 0.0,
			"0.015": 0.0,
			"0.016": 0.0,
			"0.017": 0.0,
			"0.018": 0.0,
			"0.019": 0.0,
			"0.02": 0.0,
			"0.021": 0.0,
			"0.022": 0.0,
			"0.023": 0.0,
			"0.024": 0.0,
			"0.025": 0.0
		}
	}
}
