{
	 "smiles": "OC(=O)C1=CC=C(NC1=O)C1=CC=CS1", 
	 "Tm": 563.15, 
	 "num_atms": 22, 
	 "gaussian": { 
		 "optdone": 1, 
		 "sigma_profile": "yes", 
		 "theory": "DFT", 
		 "functional": "B3LYP", 
		 "basiset": "6-31G**", 
		 "properties": { 
			 "R2extent": 5086.8438, 
			 "electric_dipole_moment_norm": 6.9239650844, 
			 "electric_quadrupole_moment_norm": 33.8074220264, 
			 "total_energy": -1063.90024789, 
			 "HOMO_LUMO_gap": 0.13609, 
			 "cosmo_polarized_energy": -23.2, 
			 "cosmo_cavitation_energy": 29.1, 
			 "cosmo_dispersion_energy": -22.06, 
			 "cosmo_repulsion_energy": 1.66, 
			 "cosmo_total_nonelectrostatic_energy": 8.69, 
			 "SMD_solvation_energy": 6.69 
		},
		"coords": [
			{
				"x": 2.2283625708,
				"y": -2.0691773844,
				"z": -2.3789792037,
				"element": "O" 
			},
			{
				"x": 2.911341398,
				"y": -1.1534077097,
				"z": -1.6245640644,
				"element": "C" 
			},
			{
				"x": 4.1005203729,
				"y": -0.9760447927,
				"z": -1.7742940296,
				"element": "O" 
			},
			{
				"x": 2.0246489778,
				"y": -0.4589214099,
				"z": -0.6634207438,
				"element": "C" 
			},
			{
				"x": 0.6753050297,
				"y": -0.7492671481,
				"z": -0.6056551185,
				"element": "C" 
			},
			{
				"x": -0.2117268474,
				"y": -0.1117082964,
				"z": 0.2851933394,
				"element": "C" 
			},
			{
				"x": 0.2850013424,
				"y": 0.840281788,
				"z": 1.1544962576,
				"element": "C" 
			},
			{
				"x": 1.620128294,
				"y": 1.1167060742,
				"z": 1.1059899198,
				"element": "N" 
			},
			{
				"x": 2.5941693429,
				"y": 0.5429864513,
				"z": 0.2404937769,
				"element": "C" 
			},
			{
				"x": 3.7496833599,
				"y": 0.9188674272,
				"z": 0.3484550024,
				"element": "O" 
			},
			{
				"x": -0.5217027122,
				"y": 1.5864414368,
				"z": 2.1143279945,
				"element": "C" 
			},
			{
				"x": -0.2671434442,
				"y": 2.8281837445,
				"z": 2.659038288,
				"element": "C" 
			},
			{
				"x": -1.2784987836,
				"y": 3.2662752128,
				"z": 3.55748646,
				"element": "C" 
			},
			{
				"x": -2.2931497451,
				"y": 2.3563235293,
				"z": 3.6929176942,
				"element": "C" 
			},
			{
				"x": -2.0286292391,
				"y": 0.9451318952,
				"z": 2.7289303776,
				"element": "S" 
			},
			{
				"x": 2.8977009207,
				"y": -2.4546120072,
				"z": -2.9667792925,
				"element": "H" 
			},
			{
				"x": 0.2834613691,
				"y": -1.4955767716,
				"z": -1.2879093316,
				"element": "H" 
			},
			{
				"x": -1.2705048974,
				"y": -0.3355692504,
				"z": 0.2688653078,
				"element": "H" 
			},
			{
				"x": 2.0269607461,
				"y": 1.7614975902,
				"z": 1.7726620545,
				"element": "H" 
			},
			{
				"x": 0.5959191806,
				"y": 3.4299452774,
				"z": 2.3957595608,
				"element": "H" 
			},
			{
				"x": -1.2558953437,
				"y": 4.2185964513,
				"z": 4.0738635558,
				"element": "H" 
			},
			{
				"x": -3.1791518923,
				"y": 2.427447892,
				"z": 4.3086221949,
				"element": "H" 
			}
		],
		 "valence_orbital": [ 
			{
				"type": "occ",
				"energy": -0.27954,
				"method": "rhf"
			},
			{
				"type": "occ",
				"energy": -0.2737,
				"method": "rhf"
			},
			{
				"type": "occ",
				"energy": -0.26665,
				"method": "rhf"
			},
			{
				"type": "occ",
				"energy": -0.24281,
				"method": "rhf"
			},
			{
				"type": "occ",
				"energy": -0.22098,
				"method": "rhf"
			},
			{
				"type": "unocc",
				"energy": -0.08489,
				"method": "rhf"
			},
			{
				"type": "unocc",
				"energy": -0.02802,
				"method": "rhf"
			},
			{
				"type": "unocc",
				"energy": -1e-05,
				"method": "rhf"
			},
			{
				"type": "unocc",
				"energy": 0.01294,
				"method": "rhf"
			},
			{
				"type": "unocc",
				"energy": 0.03163,
				"method": "rhf"
			}
		],
		"cosmo_sigma_profile": { 
			"-0.025": 0.0,
			"-0.024": 0.0,
			"-0.023": 0.0,
			"-0.022": 0.0,
			"-0.021": 0.0,
			"-0.02": 0.0,
			"-0.019": 0.0,
			"-0.018": 0.237410343703,
			"-0.017": 1.07582209417,
			"-0.016": 0.924546917185,
			"-0.015": 1.57628255001,
			"-0.014": 2.03175296133,
			"-0.013": 2.13984485137,
			"-0.012": 1.22716919096,
			"-0.011": 1.85211950063,
			"-0.01": 3.04139413747,
			"-0.009": 4.60940870741,
			"-0.008": 6.26531980874,
			"-0.007": 10.8697429878,
			"-0.006": 10.289705364,
			"-0.005": 10.6574663991,
			"-0.004": 8.66627546556,
			"-0.003": 11.0788624171,
			"-0.002": 17.6317938616,
			"-0.001": 20.1353715938,
			"0.0": 20.1797659609,
			"0.001": 20.7608674519,
			"0.002": 18.1986369508,
			"0.003": 14.4354824004,
			"0.004": 5.99924486102,
			"0.005": 3.21549019616,
			"0.006": 3.12835487263,
			"0.007": 3.6270163113,
			"0.008": 3.15392202424,
			"0.009": 1.29944865588,
			"0.01": 3.07740693681,
			"0.011": 2.9136016013,
			"0.012": 6.35245930196,
			"0.013": 5.88979302009,
			"0.014": 4.38559854569,
			"0.015": 1.7045835897,
			"0.016": 1.39345899083,
			"0.017": 1.32987374328,
			"0.018": 0.917630405754,
			"0.019": 0.0492267692527,
			"0.02": 0.0,
			"0.021": 0.0,
			"0.022": 0.0,
			"0.023": 0.0,
			"0.024": 0.0,
			"0.025": 0.0
		}
	}
}
