{
	 "smiles": "NC1=C(SC2=C1C(N)=C(S2)C(=O)OC1=CC=CC=C1)C(=O)OC1=CC=CC=C1", 
	 "Tm": 438.15, 
	 "num_atms": 42, 
	 "gaussian": { 
		 "optdone": 1, 
		 "sigma_profile": "yes", 
		 "theory": "DFT", 
		 "functional": "B3LYP", 
		 "basiset": "6-31G**", 
		 "properties": { 
			 "R2extent": 21488.3911, 
			 "electric_dipole_moment_norm": 3.43301664138, 
			 "electric_quadrupole_moment_norm": 26.3105430067, 
			 "total_energy": -1977.35734571, 
			 "HOMO_LUMO_gap": 0.15428, 
			 "cosmo_polarized_energy": -19.06, 
			 "cosmo_cavitation_energy": 51.02, 
			 "cosmo_dispersion_energy": -37.77, 
			 "cosmo_repulsion_energy": 2.73, 
			 "cosmo_total_nonelectrostatic_energy": 15.97, 
			 "SMD_solvation_energy": 9.04 
		},
		"coords": [
			{
				"x": -0.5823570437,
				"y": 2.5889905177,
				"z": -0.8410841229,
				"element": "N" 
			},
			{
				"x": -0.7773871459,
				"y": 1.2888365693,
				"z": -1.2595853055,
				"element": "C" 
			},
			{
				"x": -1.1064451009,
				"y": 0.8624244671,
				"z": -2.5425510021,
				"element": "C" 
			},
			{
				"x": -1.2846921564,
				"y": -0.9034131137,
				"z": -2.6565335026,
				"element": "S" 
			},
			{
				"x": -0.904424192,
				"y": -1.0468804167,
				"z": -0.9781630036,
				"element": "C" 
			},
			{
				"x": -0.6894691035,
				"y": 0.1775187735,
				"z": -0.3535472012,
				"element": "C" 
			},
			{
				"x": -0.4248745818,
				"y": 0.0431116488,
				"z": 1.0508947782,
				"element": "C" 
			},
			{
				"x": -0.1942670802,
				"y": 1.1099949735,
				"z": 1.88917596,
				"element": "N" 
			},
			{
				"x": -0.4021205865,
				"y": -1.2953970917,
				"z": 1.433720086,
				"element": "C" 
			},
			{
				"x": -0.731745301,
				"y": -2.4021732751,
				"z": 0.0820131243,
				"element": "S" 
			},
			{
				"x": -0.2109124496,
				"y": -1.7488103392,
				"z": 2.7906024343,
				"element": "C" 
			},
			{
				"x": -0.0179131564,
				"y": -1.0096111028,
				"z": 3.7475971812,
				"element": "O" 
			},
			{
				"x": -0.2745692054,
				"y": -3.1142571831,
				"z": 2.8766309725,
				"element": "O" 
			},
			{
				"x": -0.1181223734,
				"y": -3.7757454855,
				"z": 4.095886314,
				"element": "C" 
			},
			{
				"x": 0.688633303,
				"y": -4.9121746964,
				"z": 4.0703993082,
				"element": "C" 
			},
			{
				"x": 0.8322624124,
				"y": -5.6741804838,
				"z": 5.2297494318,
				"element": "C" 
			},
			{
				"x": 0.1759219616,
				"y": -5.2977893099,
				"z": 6.4032001264,
				"element": "C" 
			},
			{
				"x": -0.6300170833,
				"y": -4.1575485954,
				"z": 6.409905664,
				"element": "C" 
			},
			{
				"x": -0.7883259397,
				"y": -3.3879562757,
				"z": 5.2563267639,
				"element": "C" 
			},
			{
				"x": -1.2842477243,
				"y": 1.5986357431,
				"z": -3.7772807987,
				"element": "C" 
			},
			{
				"x": -1.568311641,
				"y": 1.1090074349,
				"z": -4.8504464934,
				"element": "O" 
			},
			{
				"x": -1.0798598818,
				"y": 2.9589478734,
				"z": -3.5864515134,
				"element": "O" 
			},
			{
				"x": -1.2174916322,
				"y": 3.8414554606,
				"z": -4.6626924182,
				"element": "C" 
			},
			{
				"x": -0.1775786269,
				"y": 4.7466735546,
				"z": -4.8628543284,
				"element": "C" 
			},
			{
				"x": -0.2943942852,
				"y": 5.7105095509,
				"z": -5.8652623679,
				"element": "C" 
			},
			{
				"x": -1.4397209538,
				"y": 5.7588718982,
				"z": -6.6615726311,
				"element": "C" 
			},
			{
				"x": -2.4710196526,
				"y": 4.8411484192,
				"z": -6.448982523,
				"element": "C" 
			},
			{
				"x": -2.3709695863,
				"y": 3.876955726,
				"z": -5.4455202696,
				"element": "C" 
			},
			{
				"x": 0.1397323049,
				"y": 2.7017657501,
				"z": -0.1409813854,
				"element": "H" 
			},
			{
				"x": -0.5411794996,
				"y": 3.2654613893,
				"z": -1.5928258814,
				"element": "H" 
			},
			{
				"x": -0.1311497378,
				"y": 0.8394370781,
				"z": 2.8672891124,
				"element": "H" 
			},
			{
				"x": -0.7571541054,
				"y": 1.9307033578,
				"z": 1.7065981516,
				"element": "H" 
			},
			{
				"x": 1.1868365194,
				"y": -5.1852576697,
				"z": 3.1460898199,
				"element": "H" 
			},
			{
				"x": 1.4585180634,
				"y": -6.561243802,
				"z": 5.2131697323,
				"element": "H" 
			},
			{
				"x": 0.2899429251,
				"y": -5.8899061753,
				"z": 7.306143894,
				"element": "H" 
			},
			{
				"x": -1.1449765322,
				"y": -3.8609837007,
				"z": 7.3190004041,
				"element": "H" 
			},
			{
				"x": -1.4082369921,
				"y": -2.5010873989,
				"z": 5.2584581034,
				"element": "H" 
			},
			{
				"x": 0.7075508096,
				"y": 4.6871766621,
				"z": -4.2375583851,
				"element": "H" 
			},
			{
				"x": 0.5128266614,
				"y": 6.4195205003,
				"z": -6.0233842175,
				"element": "H" 
			},
			{
				"x": -1.5286592947,
				"y": 6.5065529771,
				"z": -7.4437900198,
				"element": "H" 
			},
			{
				"x": -3.3638092692,
				"y": 4.8735121291,
				"z": -7.0663997981,
				"element": "H" 
			},
			{
				"x": -3.1645230464,
				"y": 3.1595036607,
				"z": -5.2788841937,
				"element": "H" 
			}
		],
		 "valence_orbital": [ 
			{
				"type": "occ",
				"energy": -0.25146,
				"method": "rhf"
			},
			{
				"type": "occ",
				"energy": -0.24751,
				"method": "rhf"
			},
			{
				"type": "occ",
				"energy": -0.24334,
				"method": "rhf"
			},
			{
				"type": "occ",
				"energy": -0.23308,
				"method": "rhf"
			},
			{
				"type": "occ",
				"energy": -0.209,
				"method": "rhf"
			},
			{
				"type": "unocc",
				"energy": -0.05472,
				"method": "rhf"
			},
			{
				"type": "unocc",
				"energy": -0.04841,
				"method": "rhf"
			},
			{
				"type": "unocc",
				"energy": -0.00842,
				"method": "rhf"
			},
			{
				"type": "unocc",
				"energy": -0.0047,
				"method": "rhf"
			},
			{
				"type": "unocc",
				"energy": -0.00401,
				"method": "rhf"
			}
		],
		"cosmo_sigma_profile": { 
			"-0.025": 0.0,
			"-0.024": 0.0,
			"-0.023": 0.0,
			"-0.022": 0.0,
			"-0.021": 0.0,
			"-0.02": 0.0,
			"-0.019": 0.0,
			"-0.018": 0.0,
			"-0.017": 0.0,
			"-0.016": 0.0,
			"-0.015": 0.0,
			"-0.014": 0.158842180717,
			"-0.013": 1.88989583547,
			"-0.012": 2.61752800395,
			"-0.011": 3.63104835311,
			"-0.01": 4.23491103161,
			"-0.009": 3.9817925411,
			"-0.008": 3.13041882701,
			"-0.007": 7.2344038458,
			"-0.006": 21.8700057557,
			"-0.005": 26.182613939,
			"-0.004": 28.4342545214,
			"-0.003": 23.2595527407,
			"-0.002": 22.6569504672,
			"-0.001": 26.6636368719,
			"0.0": 37.2139292205,
			"0.001": 41.0908704734,
			"0.002": 38.8324646027,
			"0.003": 34.3766019043,
			"0.004": 30.4383859485,
			"0.005": 22.3490955454,
			"0.006": 6.79155750165,
			"0.007": 4.42924145345,
			"0.008": 3.69937714336,
			"0.009": 5.72659265582,
			"0.01": 4.6558207202,
			"0.011": 5.82464005647,
			"0.012": 4.02455690903,
			"0.013": 0.0128537786527,
			"0.014": 0.0,
			"0.015": 0.0,
			"0.016": 0.0,
			"0.017": 0.0,
			"0.018": 0.0,
			"0.019": 0.0,
			"0.02": 0.0,
			"0.021": 0.0,
			"0.022": 0.0,
			"0.023": 0.0,
			"0.024": 0.0,
			"0.025": 0.0
		}
	}
}
