{
	 "smiles": "FC1=C(F)C(Cl)=C(F)C(F)=C1S", 
	 "Tm": 322.65, 
	 "num_atms": 13, 
	 "gaussian": { 
		 "optdone": 1, 
		 "sigma_profile": "yes", 
		 "theory": "DFT", 
		 "functional": "B3LYP", 
		 "basiset": "6-31G**", 
		 "properties": { 
			 "R2extent": 2839.0001, 
			 "electric_dipole_moment_norm": 1.36852627669, 
			 "electric_quadrupole_moment_norm": 5.7481182834, 
			 "total_energy": -1486.92365835, 
			 "HOMO_LUMO_gap": 0.20434, 
			 "cosmo_polarized_energy": -3.91, 
			 "cosmo_cavitation_energy": 23.33, 
			 "cosmo_dispersion_energy": -17.49, 
			 "cosmo_repulsion_energy": 1.27, 
			 "cosmo_total_nonelectrostatic_energy": 7.11, 
			 "SMD_solvation_energy": 5.13 
		},
		"coords": [
			{
				"x": 1.6765251829,
				"y": -0.3734011036,
				"z": 1.2268984709,
				"element": "F" 
			},
			{
				"x": 0.5796028384,
				"y": -0.4079094265,
				"z": 0.4496362534,
				"element": "C" 
			},
			{
				"x": -0.6578679971,
				"y": -0.5994212981,
				"z": 1.056059984,
				"element": "C" 
			},
			{
				"x": -0.7150274838,
				"y": -0.7417387101,
				"z": 2.3822594864,
				"element": "F" 
			},
			{
				"x": -1.823674075,
				"y": -0.6420598344,
				"z": 0.2876625151,
				"element": "C" 
			},
			{
				"x": -3.3657242827,
				"y": -0.8797957597,
				"z": 1.0349677405,
				"element": "Cl" 
			},
			{
				"x": -1.7174062495,
				"y": -0.4886227853,
				"z": -1.0966621073,
				"element": "C" 
			},
			{
				"x": -2.8057246591,
				"y": -0.522841202,
				"z": -1.8682962126,
				"element": "F" 
			},
			{
				"x": -0.4730596033,
				"y": -0.297872974,
				"z": -1.689028785,
				"element": "C" 
			},
			{
				"x": -0.4021184056,
				"y": -0.1535484767,
				"z": -3.0204582169,
				"element": "F" 
			},
			{
				"x": 0.7009239493,
				"y": -0.2530555034,
				"z": -0.9337407504,
				"element": "C" 
			},
			{
				"x": 2.2474483973,
				"y": -0.0063966173,
				"z": -1.762691972,
				"element": "S" 
			},
			{
				"x": 2.985002388,
				"y": -0.0463363089,
				"z": -0.6376064062,
				"element": "H" 
			}
		],
		 "valence_orbital": [ 
			{
				"type": "occ",
				"energy": -0.36647,
				"method": "rhf"
			},
			{
				"type": "occ",
				"energy": -0.33864,
				"method": "rhf"
			},
			{
				"type": "occ",
				"energy": -0.30774,
				"method": "rhf"
			},
			{
				"type": "occ",
				"energy": -0.26438,
				"method": "rhf"
			},
			{
				"type": "occ",
				"energy": -0.24518,
				"method": "rhf"
			},
			{
				"type": "unocc",
				"energy": -0.04084,
				"method": "rhf"
			},
			{
				"type": "unocc",
				"energy": -0.02396,
				"method": "rhf"
			},
			{
				"type": "unocc",
				"energy": -0.02245,
				"method": "rhf"
			},
			{
				"type": "unocc",
				"energy": 0.00792,
				"method": "rhf"
			},
			{
				"type": "unocc",
				"energy": 0.04016,
				"method": "rhf"
			}
		],
		"cosmo_sigma_profile": { 
			"-0.025": 0.0,
			"-0.024": 0.0,
			"-0.023": 0.0,
			"-0.022": 0.0,
			"-0.021": 0.0,
			"-0.02": 0.0,
			"-0.019": 0.0,
			"-0.018": 0.0,
			"-0.017": 0.0,
			"-0.016": 0.0,
			"-0.015": 0.0,
			"-0.014": 0.0,
			"-0.013": 0.068277413152,
			"-0.012": 0.797371497847,
			"-0.011": 1.21121915732,
			"-0.01": 1.29961257083,
			"-0.009": 0.826610523196,
			"-0.008": 1.64945244888,
			"-0.007": 1.48189622344,
			"-0.006": 1.78553728864,
			"-0.005": 3.19468748788,
			"-0.004": 10.947038886,
			"-0.003": 23.5680879851,
			"-0.002": 16.956711227,
			"-0.001": 13.4061380864,
			"0.0": 13.4595056742,
			"0.001": 18.9595142195,
			"0.002": 40.7307420537,
			"0.003": 32.6278163589,
			"0.004": 5.34533911834,
			"0.005": 2.62733351438,
			"0.006": 2.31955407297,
			"0.007": 1.13074592134,
			"0.008": 0.0,
			"0.009": 0.0,
			"0.01": 0.0,
			"0.011": 0.0,
			"0.012": 0.0,
			"0.013": 0.0,
			"0.014": 0.0,
			"0.015": 0.0,
			"0.016": 0.0,
			"0.017": 0.0,
			"0.018": 0.0,
			"0.019": 0.0,
			"0.02": 0.0,
			"0.021": 0.0,
			"0.022": 0.0,
			"0.023": 0.0,
			"0.024": 0.0,
			"0.025": 0.0
		}
	}
}
