{
	 "smiles": "COC(=O)C1=CC=C(CN2C(=O)CSC2=O)C=C1", 
	 "Tm": 391.15, 
	 "num_atms": 29, 
	 "gaussian": { 
		 "optdone": 1, 
		 "sigma_profile": "yes", 
		 "theory": "DFT", 
		 "functional": "B3LYP", 
		 "basiset": "6-31G**", 
		 "properties": { 
			 "R2extent": 6924.6323, 
			 "electric_dipole_moment_norm": 2.975738673, 
			 "electric_quadrupole_moment_norm": 11.643795906, 
			 "total_energy": -1217.78570393, 
			 "HOMO_LUMO_gap": 0.20853, 
			 "cosmo_polarized_energy": -14.95, 
			 "cosmo_cavitation_energy": 35.85, 
			 "cosmo_dispersion_energy": -26.02, 
			 "cosmo_repulsion_energy": 1.96, 
			 "cosmo_total_nonelectrostatic_energy": 11.78, 
			 "SMD_solvation_energy": 8.41 
		},
		"coords": [
			{
				"x": 2.9601500742,
				"y": -1.7442728314,
				"z": 4.9773047377,
				"element": "C" 
			},
			{
				"x": 2.4790577322,
				"y": -1.6492542469,
				"z": 3.6280095733,
				"element": "O" 
			},
			{
				"x": 1.1965042637,
				"y": -1.2371766991,
				"z": 3.5022511175,
				"element": "C" 
			},
			{
				"x": 0.4915965889,
				"y": -0.9639294666,
				"z": 4.4543213991,
				"element": "O" 
			},
			{
				"x": 0.7595534303,
				"y": -1.159448783,
				"z": 2.0788459811,
				"element": "C" 
			},
			{
				"x": 1.607589176,
				"y": -1.4867358682,
				"z": 1.0121513578,
				"element": "C" 
			},
			{
				"x": 1.1431169548,
				"y": -1.3994784055,
				"z": -0.2981648799,
				"element": "C" 
			},
			{
				"x": -0.1701622346,
				"y": -0.9868115004,
				"z": -0.5606304765,
				"element": "C" 
			},
			{
				"x": -0.6684877148,
				"y": -0.8868241736,
				"z": -1.9883493487,
				"element": "C" 
			},
			{
				"x": -0.4536357758,
				"y": 0.4469751734,
				"z": -2.5784220514,
				"element": "N" 
			},
			{
				"x": 0.7204424846,
				"y": 0.7610614675,
				"z": -3.2437653921,
				"element": "C" 
			},
			{
				"x": 1.641327743,
				"y": -0.0129584808,
				"z": -3.4123806875,
				"element": "O" 
			},
			{
				"x": 0.7093874368,
				"y": 2.2008466258,
				"z": -3.7469853717,
				"element": "C" 
			},
			{
				"x": -0.8837577422,
				"y": 2.9553298276,
				"z": -3.2584576495,
				"element": "S" 
			},
			{
				"x": -1.4299925623,
				"y": 1.4387992181,
				"z": -2.4589025818,
				"element": "C" 
			},
			{
				"x": -2.4945532095,
				"y": 1.2981866265,
				"z": -1.9059585829,
				"element": "O" 
			},
			{
				"x": -1.013758721,
				"y": -0.6559648657,
				"z": 0.5092167173,
				"element": "C" 
			},
			{
				"x": -0.5526947134,
				"y": -0.7421422855,
				"z": 1.8192314231,
				"element": "C" 
			},
			{
				"x": 2.3627785098,
				"y": -2.4583623123,
				"z": 5.5497169774,
				"element": "H" 
			},
			{
				"x": 2.9129816757,
				"y": -0.7710484213,
				"z": 5.4723396712,
				"element": "H" 
			},
			{
				"x": 3.9926332194,
				"y": -2.0845830483,
				"z": 4.8983432862,
				"element": "H" 
			},
			{
				"x": 2.6225514995,
				"y": -1.80893043,
				"z": 1.2139611658,
				"element": "H" 
			},
			{
				"x": 1.801099577,
				"y": -1.6424303772,
				"z": -1.1271699794,
				"element": "H" 
			},
			{
				"x": -1.7415289681,
				"y": -1.0786141614,
				"z": -2.0405596986,
				"element": "H" 
			},
			{
				"x": -0.1413789568,
				"y": -1.5926584485,
				"z": -2.6330146343,
				"element": "H" 
			},
			{
				"x": 0.8281496435,
				"y": 2.2008507736,
				"z": -4.8329390095,
				"element": "H" 
			},
			{
				"x": 1.5507353579,
				"y": 2.7395928054,
				"z": -3.3049226331,
				"element": "H" 
			},
			{
				"x": -2.0276525595,
				"y": -0.3236391416,
				"z": 0.3071932384,
				"element": "H" 
			},
			{
				"x": -1.1938522097,
				"y": -0.4927785704,
				"z": 2.6578363309,
				"element": "H" 
			}
		],
		 "valence_orbital": [ 
			{
				"type": "occ",
				"energy": -0.27968,
				"method": "rhf"
			},
			{
				"type": "occ",
				"energy": -0.27464,
				"method": "rhf"
			},
			{
				"type": "occ",
				"energy": -0.27115,
				"method": "rhf"
			},
			{
				"type": "occ",
				"energy": -0.26202,
				"method": "rhf"
			},
			{
				"type": "occ",
				"energy": -0.26017,
				"method": "rhf"
			},
			{
				"type": "unocc",
				"energy": -0.05164,
				"method": "rhf"
			},
			{
				"type": "unocc",
				"energy": -0.03879,
				"method": "rhf"
			},
			{
				"type": "unocc",
				"energy": -0.01304,
				"method": "rhf"
			},
			{
				"type": "unocc",
				"energy": -0.00598,
				"method": "rhf"
			},
			{
				"type": "unocc",
				"energy": 0.01792,
				"method": "rhf"
			}
		],
		"cosmo_sigma_profile": { 
			"-0.025": 0.0,
			"-0.024": 0.0,
			"-0.023": 0.0,
			"-0.022": 0.0,
			"-0.021": 0.0,
			"-0.02": 0.0,
			"-0.019": 0.0,
			"-0.018": 0.0,
			"-0.017": 0.0,
			"-0.016": 0.0,
			"-0.015": 0.0,
			"-0.014": 0.0,
			"-0.013": 0.0,
			"-0.012": 0.0,
			"-0.011": 0.0,
			"-0.01": 1.27403277339,
			"-0.009": 5.33903964238,
			"-0.008": 6.39653167244,
			"-0.007": 9.01527076752,
			"-0.006": 18.1977684856,
			"-0.005": 24.0842495555,
			"-0.004": 24.1041368473,
			"-0.003": 20.6360661651,
			"-0.002": 17.0394301256,
			"-0.001": 14.8524799623,
			"0.0": 18.5989119637,
			"0.001": 23.1199675318,
			"0.002": 21.3132797517,
			"0.003": 22.4509015899,
			"0.004": 11.5141014099,
			"0.005": 9.57530556975,
			"0.006": 5.27090165238,
			"0.007": 4.27485416897,
			"0.008": 4.60981081816,
			"0.009": 5.26989477172,
			"0.01": 7.39435383754,
			"0.011": 8.59219513024,
			"0.012": 5.72713110212,
			"0.013": 0.212060973895,
			"0.014": 0.0,
			"0.015": 0.0,
			"0.016": 0.0,
			"0.017": 0.0,
			"0.018": 0.0,
			"0.019": 0.0,
			"0.02": 0.0,
			"0.021": 0.0,
			"0.022": 0.0,
			"0.023": 0.0,
			"0.024": 0.0,
			"0.025": 0.0
		}
	}
}
