{
	 "smiles": "CC(C)(C)C(Br)Br", 
	 "Tm": 287.15, 
	 "num_atms": 17, 
	 "gaussian": { 
		 "optdone": 1, 
		 "sigma_profile": "yes", 
		 "theory": "DFT", 
		 "functional": "B3LYP", 
		 "basiset": "6-31G**", 
		 "properties": { 
			 "R2extent": 2764.2029, 
			 "electric_dipole_moment_norm": 2.27403354637, 
			 "electric_quadrupole_moment_norm": 3.74092671941, 
			 "total_energy": -5339.38022157, 
			 "HOMO_LUMO_gap": 0.23512, 
			 "cosmo_polarized_energy": -4.13, 
			 "cosmo_cavitation_energy": 22.53, 
			 "cosmo_dispersion_energy": -17.05, 
			 "cosmo_repulsion_energy": 1.39, 
			 "cosmo_total_nonelectrostatic_energy": 6.87, 
			 "SMD_solvation_energy": 1.96 
		},
		"coords": [
			{
				"x": 0.9034447914,
				"y": -1.5436782563,
				"z": -0.5617697161,
				"element": "C" 
			},
			{
				"x": -0.041167356,
				"y": -0.3932178164,
				"z": -0.1437342521,
				"element": "C" 
			},
			{
				"x": -0.7021601898,
				"y": 0.1756192951,
				"z": -1.4204777464,
				"element": "C" 
			},
			{
				"x": 0.7564039084,
				"y": 0.7089444942,
				"z": 0.5714941953,
				"element": "C" 
			},
			{
				"x": -1.1533539225,
				"y": -0.9853093089,
				"z": 0.7504443607,
				"element": "C" 
			},
			{
				"x": -0.4773020791,
				"y": -1.8759655152,
				"z": 2.3855367685,
				"element": "Br" 
			},
			{
				"x": -2.5381689215,
				"y": 0.327560392,
				"z": 1.2814636398,
				"element": "Br" 
			},
			{
				"x": 1.6430236216,
				"y": -1.1627964011,
				"z": -1.272962688,
				"element": "H" 
			},
			{
				"x": 0.3548820042,
				"y": -2.3547565729,
				"z": -1.0537845554,
				"element": "H" 
			},
			{
				"x": 1.4360706799,
				"y": -1.9622681281,
				"z": 0.2943579053,
				"element": "H" 
			},
			{
				"x": 0.0774340257,
				"y": 0.5129754676,
				"z": -2.1105950929,
				"element": "H" 
			},
			{
				"x": -1.2980305492,
				"y": -0.5852087936,
				"z": -1.9371148378,
				"element": "H" 
			},
			{
				"x": -1.3517324604,
				"y": 1.0241407752,
				"z": -1.1970140204,
				"element": "H" 
			},
			{
				"x": 0.1088599699,
				"y": 1.5401665496,
				"z": 0.8630948626,
				"element": "H" 
			},
			{
				"x": 1.2452884583,
				"y": 0.3237713171,
				"z": 1.4703198458,
				"element": "H" 
			},
			{
				"x": 1.5301706181,
				"y": 1.0978071986,
				"z": -0.0977254735,
				"element": "H" 
			},
			{
				"x": -1.7071625991,
				"y": -1.763484697,
				"z": 0.2310668046,
				"element": "H" 
			}
		],
		 "valence_orbital": [ 
			{
				"type": "occ",
				"energy": -0.33644,
				"method": "rhf"
			},
			{
				"type": "occ",
				"energy": -0.29742,
				"method": "rhf"
			},
			{
				"type": "occ",
				"energy": -0.28624,
				"method": "rhf"
			},
			{
				"type": "occ",
				"energy": -0.28036,
				"method": "rhf"
			},
			{
				"type": "occ",
				"energy": -0.26834,
				"method": "rhf"
			},
			{
				"type": "unocc",
				"energy": -0.03322,
				"method": "rhf"
			},
			{
				"type": "unocc",
				"energy": 0.00603,
				"method": "rhf"
			},
			{
				"type": "unocc",
				"energy": 0.07524,
				"method": "rhf"
			},
			{
				"type": "unocc",
				"energy": 0.11453,
				"method": "rhf"
			},
			{
				"type": "unocc",
				"energy": 0.12655,
				"method": "rhf"
			}
		],
		"cosmo_sigma_profile": { 
			"-0.025": 0.0,
			"-0.024": 0.0,
			"-0.023": 0.0,
			"-0.022": 0.0,
			"-0.021": 0.0,
			"-0.02": 0.0,
			"-0.019": 0.0,
			"-0.018": 0.0,
			"-0.017": 0.0,
			"-0.016": 0.0,
			"-0.015": 0.0,
			"-0.014": 0.0,
			"-0.013": 0.0,
			"-0.012": 0.0,
			"-0.011": 0.0,
			"-0.01": 0.0592566550104,
			"-0.009": 1.73980375393,
			"-0.008": 2.68554426964,
			"-0.007": 2.10235755356,
			"-0.006": 2.21981520688,
			"-0.005": 2.20594457898,
			"-0.004": 12.1411428713,
			"-0.003": 15.1905304916,
			"-0.002": 17.6704542624,
			"-0.001": 22.384620916,
			"0.0": 26.1735124928,
			"0.001": 22.1694423727,
			"0.002": 11.6992839932,
			"0.003": 11.9001862131,
			"0.004": 12.1298640211,
			"0.005": 15.2145206545,
			"0.006": 3.90032094613,
			"0.007": 0.0,
			"0.008": 0.0,
			"0.009": 0.0,
			"0.01": 0.0,
			"0.011": 0.0,
			"0.012": 0.0,
			"0.013": 0.0,
			"0.014": 0.0,
			"0.015": 0.0,
			"0.016": 0.0,
			"0.017": 0.0,
			"0.018": 0.0,
			"0.019": 0.0,
			"0.02": 0.0,
			"0.021": 0.0,
			"0.022": 0.0,
			"0.023": 0.0,
			"0.024": 0.0,
			"0.025": 0.0
		}
	}
}
