{
	 "smiles": "CC1=C(N)N=CC(C=CC(O)=O)=C1", 
	 "Tm": 503.15, 
	 "num_atms": 23, 
	 "gaussian": { 
		 "optdone": 1, 
		 "sigma_profile": "yes", 
		 "theory": "DFT", 
		 "functional": "B3LYP", 
		 "basiset": "6-31G**", 
		 "properties": { 
			 "R2extent": 3056.363, 
			 "electric_dipole_moment_norm": 5.92220472882, 
			 "electric_quadrupole_moment_norm": 15.4251029812, 
			 "total_energy": -608.938100378, 
			 "HOMO_LUMO_gap": 0.15839, 
			 "cosmo_polarized_energy": -18.06, 
			 "cosmo_cavitation_energy": 27.3, 
			 "cosmo_dispersion_energy": -19.79, 
			 "cosmo_repulsion_energy": 1.58, 
			 "cosmo_total_nonelectrostatic_energy": 9.08, 
			 "SMD_solvation_energy": 4.43 
		},
		"coords": [
			{
				"x": 1.838321849,
				"y": -2.3776124033,
				"z": -0.0649638392,
				"element": "C" 
			},
			{
				"x": 0.6820105597,
				"y": -1.71150194,
				"z": 0.6338841464,
				"element": "C" 
			},
			{
				"x": -0.4391191939,
				"y": -2.4689535811,
				"z": 1.071307484,
				"element": "C" 
			},
			{
				"x": -0.5269610382,
				"y": -3.8160247411,
				"z": 0.8176851994,
				"element": "N" 
			},
			{
				"x": -1.4787301372,
				"y": -1.926939348,
				"z": 1.7268176957,
				"element": "N" 
			},
			{
				"x": -1.4619446398,
				"y": -0.615859955,
				"z": 1.953157735,
				"element": "C" 
			},
			{
				"x": -0.4397126271,
				"y": 0.2552019368,
				"z": 1.5417189072,
				"element": "C" 
			},
			{
				"x": -0.5449818382,
				"y": 1.6782348615,
				"z": 1.8825328762,
				"element": "C" 
			},
			{
				"x": -0.0380280078,
				"y": 2.7810949775,
				"z": 1.2902926933,
				"element": "C" 
			},
			{
				"x": 0.7291997934,
				"y": 2.9314334209,
				"z": 0.0242780948,
				"element": "C" 
			},
			{
				"x": 0.5273491057,
				"y": 2.0122361754,
				"z": -0.9613694185,
				"element": "O" 
			},
			{
				"x": 1.4815349481,
				"y": 3.8595679676,
				"z": -0.1673010903,
				"element": "O" 
			},
			{
				"x": 0.6574958698,
				"y": -0.349539152,
				"z": 0.8875462779,
				"element": "C" 
			},
			{
				"x": 2.5972353471,
				"y": -1.6462335817,
				"z": -0.3525497876,
				"element": "H" 
			},
			{
				"x": 1.5104486965,
				"y": -2.8960473303,
				"z": -0.9746199664,
				"element": "H" 
			},
			{
				"x": 2.3281568637,
				"y": -3.123678451,
				"z": 0.5759286259,
				"element": "H" 
			},
			{
				"x": 0.3155781669,
				"y": -4.3396866739,
				"z": 0.6425053433,
				"element": "H" 
			},
			{
				"x": -1.2577881429,
				"y": -4.2974763071,
				"z": 1.3213029744,
				"element": "H" 
			},
			{
				"x": -2.3191427459,
				"y": -0.2185431931,
				"z": 2.4967604676,
				"element": "H" 
			},
			{
				"x": -1.1348823029,
				"y": 1.8648684387,
				"z": 2.7801167384,
				"element": "H" 
			},
			{
				"x": -0.1737511833,
				"y": 3.7353564699,
				"z": 1.7899317501,
				"element": "H" 
			},
			{
				"x": -0.1539579833,
				"y": 1.3789135232,
				"z": -0.6898343547,
				"element": "H" 
			},
			{
				"x": 1.5108686408,
				"y": 0.250688886,
				"z": 0.5888714472,
				"element": "H" 
			}
		],
		 "valence_orbital": [ 
			{
				"type": "occ",
				"energy": -0.29402,
				"method": "rhf"
			},
			{
				"type": "occ",
				"energy": -0.28135,
				"method": "rhf"
			},
			{
				"type": "occ",
				"energy": -0.26959,
				"method": "rhf"
			},
			{
				"type": "occ",
				"energy": -0.26369,
				"method": "rhf"
			},
			{
				"type": "occ",
				"energy": -0.21915,
				"method": "rhf"
			},
			{
				"type": "unocc",
				"energy": -0.06076,
				"method": "rhf"
			},
			{
				"type": "unocc",
				"energy": -0.02879,
				"method": "rhf"
			},
			{
				"type": "unocc",
				"energy": 0.01176,
				"method": "rhf"
			},
			{
				"type": "unocc",
				"energy": 0.06325,
				"method": "rhf"
			},
			{
				"type": "unocc",
				"energy": 0.07296,
				"method": "rhf"
			}
		],
		"cosmo_sigma_profile": { 
			"-0.025": 0.0,
			"-0.024": 0.0,
			"-0.023": 0.0,
			"-0.022": 0.0,
			"-0.021": 0.0,
			"-0.02": 0.0,
			"-0.019": 0.0,
			"-0.018": 0.0,
			"-0.017": 0.0,
			"-0.016": 0.0,
			"-0.015": 0.373798560524,
			"-0.014": 0.900876523199,
			"-0.013": 2.73751141972,
			"-0.012": 2.53157299967,
			"-0.011": 3.38941033953,
			"-0.01": 3.64252322023,
			"-0.009": 3.23491197318,
			"-0.008": 3.0760862026,
			"-0.007": 8.60079995998,
			"-0.006": 13.9630581972,
			"-0.005": 12.8058383362,
			"-0.004": 12.7664721576,
			"-0.003": 13.1374631134,
			"-0.002": 13.0583712554,
			"-0.001": 16.9465747752,
			"0.0": 14.7355510003,
			"0.001": 14.6598452295,
			"0.002": 13.6534465716,
			"0.003": 9.69755767313,
			"0.004": 4.76214586925,
			"0.005": 5.15847224265,
			"0.006": 3.92057669174,
			"0.007": 4.5183858449,
			"0.008": 4.50964545878,
			"0.009": 4.86560822046,
			"0.01": 4.95730126443,
			"0.011": 6.84750171978,
			"0.012": 6.8732583111,
			"0.013": 4.3263429126,
			"0.014": 1.56548133613,
			"0.015": 0.584163792306,
			"0.016": 0.113958906644,
			"0.017": 0.0,
			"0.018": 0.0,
			"0.019": 0.0,
			"0.02": 0.0,
			"0.021": 0.0,
			"0.022": 0.0,
			"0.023": 0.0,
			"0.024": 0.0,
			"0.025": 0.0
		}
	}
}
