{
	 "smiles": "C1=CC=C(C=C1)N=NC1=CC=CC=C1", 
	 "Tm": 341.15, 
	 "num_atms": 24, 
	 "gaussian": { 
		 "optdone": 1, 
		 "sigma_profile": "yes", 
		 "theory": "DFT", 
		 "functional": "B3LYP", 
		 "basiset": "6-31G**", 
		 "properties": { 
			 "R2extent": 3939.9841, 
			 "electric_dipole_moment_norm": 0.000244948974278, 
			 "electric_quadrupole_moment_norm": 11.9256362157, 
			 "total_energy": -572.764956993, 
			 "HOMO_LUMO_gap": 0.14433, 
			 "cosmo_polarized_energy": -6.27, 
			 "cosmo_cavitation_energy": 28.93, 
			 "cosmo_dispersion_energy": -21.34, 
			 "cosmo_repulsion_energy": 1.67, 
			 "cosmo_total_nonelectrostatic_energy": 9.26, 
			 "SMD_solvation_energy": 3.71 
		},
		"coords": [
			{
				"x": 1.6493734913,
				"y": 3.9346566628,
				"z": -1.6054196863,
				"element": "C" 
			},
			{
				"x": 0.6050127183,
				"y": 3.4460227386,
				"z": -2.3923654841,
				"element": "C" 
			},
			{
				"x": -0.0339500128,
				"y": 2.2590759539,
				"z": -2.0373177995,
				"element": "C" 
			},
			{
				"x": 0.3683350356,
				"y": 1.5554889505,
				"z": -0.8939950808,
				"element": "C" 
			},
			{
				"x": 1.4203683767,
				"y": 2.048768015,
				"z": -0.1023070934,
				"element": "C" 
			},
			{
				"x": 2.0532660823,
				"y": 3.2327933807,
				"z": -0.4618899839,
				"element": "C" 
			},
			{
				"x": -0.3515583342,
				"y": 0.3625297175,
				"z": -0.6298282526,
				"element": "N" 
			},
			{
				"x": 0.0179215669,
				"y": -0.2616238698,
				"z": 0.4010836038,
				"element": "N" 
			},
			{
				"x": -0.7019162916,
				"y": -1.4546325726,
				"z": 0.6651702239,
				"element": "C" 
			},
			{
				"x": -0.3006840242,
				"y": -2.1574231745,
				"z": 1.8093519075,
				"element": "C" 
			},
			{
				"x": -0.9397049187,
				"y": -3.3443358594,
				"z": 2.1644087729,
				"element": "C" 
			},
			{
				"x": -1.9830365883,
				"y": -3.8337553542,
				"z": 1.3765860243,
				"element": "C" 
			},
			{
				"x": -2.3858491307,
				"y": -3.1327083488,
				"z": 0.232174958,
				"element": "C" 
			},
			{
				"x": -1.7529062186,
				"y": -1.9487069335,
				"z": -0.1274068752,
				"element": "C" 
			},
			{
				"x": 2.1499183735,
				"y": 4.8591857385,
				"z": -1.8786498796,
				"element": "H" 
			},
			{
				"x": 0.2897607082,
				"y": 3.9877458557,
				"z": -3.2792329271,
				"element": "H" 
			},
			{
				"x": -0.8489402405,
				"y": 1.8532647111,
				"z": -2.6283158494,
				"element": "H" 
			},
			{
				"x": 1.7170106048,
				"y": 1.490396943,
				"z": 0.7780593933,
				"element": "H" 
			},
			{
				"x": 2.8665050101,
				"y": 3.6162602754,
				"z": 0.1480034484,
				"element": "H" 
			},
			{
				"x": 0.5134940938,
				"y": -1.7509897993,
				"z": 2.4010414933,
				"element": "H" 
			},
			{
				"x": -0.625263593,
				"y": -3.8854493761,
				"z": 3.0519357767,
				"element": "H" 
			},
			{
				"x": -2.483554707,
				"y": -4.7583143801,
				"z": 1.6497639031,
				"element": "H" 
			},
			{
				"x": -3.1982253839,
				"y": -3.5168368151,
				"z": -0.3784514266,
				"element": "H" 
			},
			{
				"x": -2.0487766179,
				"y": -1.3909124594,
				"z": -1.0083991667,
				"element": "H" 
			}
		],
		 "valence_orbital": [ 
			{
				"type": "occ",
				"energy": -0.27317,
				"method": "rhf"
			},
			{
				"type": "occ",
				"energy": -0.25538,
				"method": "rhf"
			},
			{
				"type": "occ",
				"energy": -0.25518,
				"method": "rhf"
			},
			{
				"type": "occ",
				"energy": -0.2267,
				"method": "rhf"
			},
			{
				"type": "occ",
				"energy": -0.22437,
				"method": "rhf"
			},
			{
				"type": "unocc",
				"energy": -0.08004,
				"method": "rhf"
			},
			{
				"type": "unocc",
				"energy": -0.00452,
				"method": "rhf"
			},
			{
				"type": "unocc",
				"energy": -0.00353,
				"method": "rhf"
			},
			{
				"type": "unocc",
				"energy": 0.00935,
				"method": "rhf"
			},
			{
				"type": "unocc",
				"energy": 0.04664,
				"method": "rhf"
			}
		],
		"cosmo_sigma_profile": { 
			"-0.025": 0.0,
			"-0.024": 0.0,
			"-0.023": 0.0,
			"-0.022": 0.0,
			"-0.021": 0.0,
			"-0.02": 0.0,
			"-0.019": 0.0,
			"-0.018": 0.0,
			"-0.017": 0.0,
			"-0.016": 0.0,
			"-0.015": 0.0,
			"-0.014": 0.0,
			"-0.013": 0.0,
			"-0.012": 0.0,
			"-0.011": 0.0,
			"-0.01": 0.0,
			"-0.009": 0.0,
			"-0.008": 0.0,
			"-0.007": 1.76005246032,
			"-0.006": 15.6400795766,
			"-0.005": 18.6980415551,
			"-0.004": 22.6301969242,
			"-0.003": 15.2243934252,
			"-0.002": 12.7893917476,
			"-0.001": 11.9743883172,
			"0.0": 12.4234305297,
			"0.001": 19.1092179039,
			"0.002": 28.511995155,
			"0.003": 28.4789822707,
			"0.004": 28.1550004626,
			"0.005": 9.43777137096,
			"0.006": 3.2129963637,
			"0.007": 2.96693132108,
			"0.008": 2.03654888122,
			"0.009": 0.0,
			"0.01": 0.0,
			"0.011": 0.0,
			"0.012": 0.0,
			"0.013": 0.0,
			"0.014": 0.0,
			"0.015": 0.0,
			"0.016": 0.0,
			"0.017": 0.0,
			"0.018": 0.0,
			"0.019": 0.0,
			"0.02": 0.0,
			"0.021": 0.0,
			"0.022": 0.0,
			"0.023": 0.0,
			"0.024": 0.0,
			"0.025": 0.0
		}
	}
}
