{
	 "smiles": "OCCS(=O)(=O)C1=CC=C(Br)C=C1", 
	 "Tm": 337.15, 
	 "num_atms": 22, 
	 "gaussian": { 
		 "optdone": 1, 
		 "sigma_profile": "yes", 
		 "theory": "DFT", 
		 "functional": "B3LYP", 
		 "basiset": "6-31G**", 
		 "properties": { 
			 "R2extent": 5054.9765, 
			 "electric_dipole_moment_norm": 4.36732858507, 
			 "electric_quadrupole_moment_norm": 22.1473192958, 
			 "total_energy": -3505.46042349, 
			 "HOMO_LUMO_gap": 0.21277, 
			 "cosmo_polarized_energy": -16.89, 
			 "cosmo_cavitation_energy": 29.43, 
			 "cosmo_dispersion_energy": -22.16, 
			 "cosmo_repulsion_energy": 1.73, 
			 "cosmo_total_nonelectrostatic_energy": 9.0, 
			 "SMD_solvation_energy": 3.32 
		},
		"coords": [
			{
				"x": 0.2124370552,
				"y": -0.0688444078,
				"z": -2.8962517825,
				"element": "O" 
			},
			{
				"x": -1.0802131725,
				"y": -0.1612058805,
				"z": -3.4775617231,
				"element": "C" 
			},
			{
				"x": -2.0598830123,
				"y": 0.5891805931,
				"z": -2.5948238112,
				"element": "C" 
			},
			{
				"x": -2.4433497953,
				"y": -0.2447410608,
				"z": -1.0079387026,
				"element": "S" 
			},
			{
				"x": -3.6962062207,
				"y": 0.3662604758,
				"z": -0.5307292974,
				"element": "O" 
			},
			{
				"x": -2.338928922,
				"y": -1.6972820203,
				"z": -1.2308381657,
				"element": "O" 
			},
			{
				"x": -1.1535419819,
				"y": 0.236328017,
				"z": 0.1534151328,
				"element": "C" 
			},
			{
				"x": 0.0250126696,
				"y": -0.5065309452,
				"z": 0.2300402874,
				"element": "C" 
			},
			{
				"x": 1.001064718,
				"y": -0.1437878137,
				"z": 1.1556472369,
				"element": "C" 
			},
			{
				"x": 0.7774182974,
				"y": 0.9556451126,
				"z": 1.9863077601,
				"element": "C" 
			},
			{
				"x": 2.116462471,
				"y": 1.4536486847,
				"z": 3.2510201833,
				"element": "Br" 
			},
			{
				"x": -0.4035444557,
				"y": 1.6946829171,
				"z": 1.9181670887,
				"element": "C" 
			},
			{
				"x": -1.3804485664,
				"y": 1.3274694992,
				"z": 0.9929707051,
				"element": "C" 
			},
			{
				"x": 0.8046874506,
				"y": -0.6549122014,
				"z": -3.383070145,
				"element": "H" 
			},
			{
				"x": -1.4124421565,
				"y": -1.2033177387,
				"z": -3.5722601884,
				"element": "H" 
			},
			{
				"x": -1.1051561135,
				"y": 0.299856809,
				"z": -4.4779238438,
				"element": "H" 
			},
			{
				"x": -1.7081639355,
				"y": 1.5967092442,
				"z": -2.3577408707,
				"element": "H" 
			},
			{
				"x": -3.0408255225,
				"y": 0.6599013831,
				"z": -3.0739126011,
				"element": "H" 
			},
			{
				"x": 0.172186924,
				"y": -1.3549895267,
				"z": -0.4266706965,
				"element": "H" 
			},
			{
				"x": 1.9229656049,
				"y": -0.7079755313,
				"z": 1.2352340653,
				"element": "H" 
			},
			{
				"x": -0.5605802081,
				"y": 2.5368521087,
				"z": 2.5819649735,
				"element": "H" 
			},
			{
				"x": -2.3200511277,
				"y": 1.8661522818,
				"z": 0.935054395,
				"element": "H" 
			}
		],
		 "valence_orbital": [ 
			{
				"type": "occ",
				"energy": -0.29592,
				"method": "rhf"
			},
			{
				"type": "occ",
				"energy": -0.29411,
				"method": "rhf"
			},
			{
				"type": "occ",
				"energy": -0.28403,
				"method": "rhf"
			},
			{
				"type": "occ",
				"energy": -0.27618,
				"method": "rhf"
			},
			{
				"type": "occ",
				"energy": -0.25833,
				"method": "rhf"
			},
			{
				"type": "unocc",
				"energy": -0.04556,
				"method": "rhf"
			},
			{
				"type": "unocc",
				"energy": -0.02792,
				"method": "rhf"
			},
			{
				"type": "unocc",
				"energy": -0.00281,
				"method": "rhf"
			},
			{
				"type": "unocc",
				"energy": 0.05196,
				"method": "rhf"
			},
			{
				"type": "unocc",
				"energy": 0.06265,
				"method": "rhf"
			}
		],
		"cosmo_sigma_profile": { 
			"-0.025": 0.0,
			"-0.024": 0.0,
			"-0.023": 0.0,
			"-0.022": 0.0,
			"-0.021": 0.0,
			"-0.02": 0.0,
			"-0.019": 0.0,
			"-0.018": 0.0,
			"-0.017": 0.203533565978,
			"-0.016": 0.91855456396,
			"-0.015": 1.3220410494,
			"-0.014": 0.93917399328,
			"-0.013": 0.974924271751,
			"-0.012": 0.617075915564,
			"-0.011": 0.477352208255,
			"-0.01": 0.742597322861,
			"-0.009": 2.80223187582,
			"-0.008": 9.48862360993,
			"-0.007": 12.7563544353,
			"-0.006": 13.7716557569,
			"-0.005": 15.4077321376,
			"-0.004": 16.0288659335,
			"-0.003": 10.9142843943,
			"-0.002": 10.9777653151,
			"-0.001": 11.346160659,
			"0.0": 15.2359464931,
			"0.001": 24.157445731,
			"0.002": 16.3607297576,
			"0.003": 12.7054182464,
			"0.004": 14.6688304818,
			"0.005": 5.190447924,
			"0.006": 3.16732511785,
			"0.007": 3.96041111699,
			"0.008": 3.34387274335,
			"0.009": 4.5201998644,
			"0.01": 5.66311418377,
			"0.011": 9.39565575981,
			"0.012": 7.90012640372,
			"0.013": 1.17598179014,
			"0.014": 0.147379743528,
			"0.015": 0.0,
			"0.016": 0.0,
			"0.017": 0.0,
			"0.018": 0.0,
			"0.019": 0.0,
			"0.02": 0.0,
			"0.021": 0.0,
			"0.022": 0.0,
			"0.023": 0.0,
			"0.024": 0.0,
			"0.025": 0.0
		}
	}
}
