{
	 "smiles": "ClC1=C(Cl)C(=CC=C1)N1C=C(C=O)N=N1", 
	 "Tm": 413.15, 
	 "num_atms": 20, 
	 "gaussian": { 
		 "optdone": 1, 
		 "sigma_profile": "yes", 
		 "theory": "DFT", 
		 "functional": "B3LYP", 
		 "basiset": "6-31G**", 
		 "properties": { 
			 "R2extent": 6186.7656, 
			 "electric_dipole_moment_norm": 4.64227970398, 
			 "electric_quadrupole_moment_norm": 3.87634305628, 
			 "total_energy": -1505.76736654, 
			 "HOMO_LUMO_gap": 0.19243, 
			 "cosmo_polarized_energy": -12.38, 
			 "cosmo_cavitation_energy": 29.56, 
			 "cosmo_dispersion_energy": -21.48, 
			 "cosmo_repulsion_energy": 1.67, 
			 "cosmo_total_nonelectrostatic_energy": 9.75, 
			 "SMD_solvation_energy": 4.59 
		},
		"coords": [
			{
				"x": 0.2144411135,
				"y": 3.8003664452,
				"z": -3.8190602532,
				"element": "Cl" 
			},
			{
				"x": 0.1347182545,
				"y": 2.3147454102,
				"z": -2.9091413874,
				"element": "C" 
			},
			{
				"x": -0.5023080607,
				"y": 2.2680565668,
				"z": -1.6583440891,
				"element": "C" 
			},
			{
				"x": -1.2726511611,
				"y": 3.688447691,
				"z": -1.0101847358,
				"element": "Cl" 
			},
			{
				"x": -0.5293524943,
				"y": 1.0466180401,
				"z": -0.9597930958,
				"element": "C" 
			},
			{
				"x": 0.0409795088,
				"y": -0.1005704037,
				"z": -1.517398449,
				"element": "C" 
			},
			{
				"x": 0.65123531,
				"y": -0.0390274141,
				"z": -2.7655026556,
				"element": "C" 
			},
			{
				"x": 0.7079732759,
				"y": 1.1670319682,
				"z": -3.4585833966,
				"element": "C" 
			},
			{
				"x": -1.1579674018,
				"y": 0.9149919652,
				"z": 0.309701517,
				"element": "N" 
			},
			{
				"x": -1.0340937611,
				"y": 1.65312352,
				"z": 1.4366088892,
				"element": "C" 
			},
			{
				"x": -1.8168976986,
				"y": 0.9958083238,
				"z": 2.3666827099,
				"element": "C" 
			},
			{
				"x": -2.0621013186,
				"y": 1.3362459507,
				"z": 3.772094565,
				"element": "C" 
			},
			{
				"x": -1.5712111862,
				"y": 2.3027786004,
				"z": 4.3255835875,
				"element": "O" 
			},
			{
				"x": -2.371531177,
				"y": -0.1051669677,
				"z": 1.765851626,
				"element": "N" 
			},
			{
				"x": -1.9851354527,
				"y": -0.1702558901,
				"z": 0.537517906,
				"element": "N" 
			},
			{
				"x": -0.0114678127,
				"y": -1.0266128775,
				"z": -0.9579125131,
				"element": "H" 
			},
			{
				"x": 1.0933658412,
				"y": -0.9309318248,
				"z": -3.1964332398,
				"element": "H" 
			},
			{
				"x": 1.1904359303,
				"y": 1.2330316589,
				"z": -4.426966099,
				"element": "H" 
			},
			{
				"x": -0.42764202,
				"y": 2.5400090275,
				"z": 1.5109415984,
				"element": "H" 
			},
			{
				"x": -2.7378896897,
				"y": 0.6310102101,
				"z": 4.2963375155,
				"element": "H" 
			}
		],
		 "valence_orbital": [ 
			{
				"type": "occ",
				"energy": -0.29558,
				"method": "rhf"
			},
			{
				"type": "occ",
				"energy": -0.28581,
				"method": "rhf"
			},
			{
				"type": "occ",
				"energy": -0.27392,
				"method": "rhf"
			},
			{
				"type": "occ",
				"energy": -0.27241,
				"method": "rhf"
			},
			{
				"type": "occ",
				"energy": -0.2624,
				"method": "rhf"
			},
			{
				"type": "unocc",
				"energy": -0.06997,
				"method": "rhf"
			},
			{
				"type": "unocc",
				"energy": -0.05069,
				"method": "rhf"
			},
			{
				"type": "unocc",
				"energy": -0.04775,
				"method": "rhf"
			},
			{
				"type": "unocc",
				"energy": -0.02027,
				"method": "rhf"
			},
			{
				"type": "unocc",
				"energy": -0.01683,
				"method": "rhf"
			}
		],
		"cosmo_sigma_profile": { 
			"-0.025": 0.0,
			"-0.024": 0.0,
			"-0.023": 0.0,
			"-0.022": 0.0,
			"-0.021": 0.0,
			"-0.02": 0.0,
			"-0.019": 0.0,
			"-0.018": 0.0,
			"-0.017": 0.0,
			"-0.016": 0.0,
			"-0.015": 0.0,
			"-0.014": 0.0,
			"-0.013": 0.0,
			"-0.012": 0.29149127338,
			"-0.011": 1.10118504685,
			"-0.01": 2.05684952479,
			"-0.009": 2.51354080137,
			"-0.008": 7.78584182462,
			"-0.007": 11.4205495558,
			"-0.006": 10.3706075563,
			"-0.005": 10.5421524792,
			"-0.004": 13.0976822084,
			"-0.003": 15.4959939147,
			"-0.002": 21.9883978491,
			"-0.001": 24.5823019085,
			"0.0": 21.5694933635,
			"0.001": 19.9702311424,
			"0.002": 14.8993893208,
			"0.003": 16.4324501918,
			"0.004": 11.6802415564,
			"0.005": 4.01248609816,
			"0.006": 2.61921625306,
			"0.007": 4.82502000246,
			"0.008": 4.63833059973,
			"0.009": 5.40368250639,
			"0.01": 5.58449629798,
			"0.011": 6.38778471777,
			"0.012": 3.12711444128,
			"0.013": 1.05633958329,
			"0.014": 0.29376255181,
			"0.015": 0.0,
			"0.016": 0.0,
			"0.017": 0.0,
			"0.018": 0.0,
			"0.019": 0.0,
			"0.02": 0.0,
			"0.021": 0.0,
			"0.022": 0.0,
			"0.023": 0.0,
			"0.024": 0.0,
			"0.025": 0.0
		}
	}
}
