{
	 "smiles": "NC1=CC=CC(Cl)=C1Cl", 
	 "Tm": 296.15, 
	 "num_atms": 14, 
	 "gaussian": { 
		 "optdone": 1, 
		 "sigma_profile": "yes", 
		 "theory": "DFT", 
		 "functional": "B3LYP", 
		 "basiset": "6-31G**", 
		 "properties": { 
			 "R2extent": 1619.364, 
			 "electric_dipole_moment_norm": 3.41451221407, 
			 "electric_quadrupole_moment_norm": 6.58395180875, 
			 "total_energy": -1206.78908594, 
			 "HOMO_LUMO_gap": 0.20016, 
			 "cosmo_polarized_energy": -7.89, 
			 "cosmo_cavitation_energy": 21.18, 
			 "cosmo_dispersion_energy": -16.38, 
			 "cosmo_repulsion_energy": 1.34, 
			 "cosmo_total_nonelectrostatic_energy": 6.13, 
			 "SMD_solvation_energy": 3.09 
		},
		"coords": [
			{
				"x": -2.3609006499,
				"y": -0.4196492032,
				"z": 0.0468725321,
				"element": "N" 
			},
			{
				"x": -1.1980004895,
				"y": 0.2411149318,
				"z": 0.4007313799,
				"element": "C" 
			},
			{
				"x": -1.2218400937,
				"y": 1.2774031379,
				"z": 1.3523201746,
				"element": "C" 
			},
			{
				"x": -0.0685184276,
				"y": 1.9824351783,
				"z": 1.6707775363,
				"element": "C" 
			},
			{
				"x": 1.1477633954,
				"y": 1.6826791428,
				"z": 1.0578511316,
				"element": "C" 
			},
			{
				"x": 1.1901163942,
				"y": 0.6562245002,
				"z": 0.1148600723,
				"element": "C" 
			},
			{
				"x": 2.7231770256,
				"y": 0.2832725107,
				"z": -0.643260767,
				"element": "Cl" 
			},
			{
				"x": 0.0360720121,
				"y": -0.0633251784,
				"z": -0.2157107993,
				"element": "C" 
			},
			{
				"x": 0.0829644135,
				"y": -1.3634419826,
				"z": -1.3920603642,
				"element": "Cl" 
			},
			{
				"x": -3.1064271267,
				"y": -0.3917923556,
				"z": 0.7263831237,
				"element": "H" 
			},
			{
				"x": -2.2481552695,
				"y": -1.3169825961,
				"z": -0.4022486973,
				"element": "H" 
			},
			{
				"x": -2.1654138749,
				"y": 1.5237895208,
				"z": 1.8312793181,
				"element": "H" 
			},
			{
				"x": -0.1139486935,
				"y": 2.7781018666,
				"z": 2.4080971323,
				"element": "H" 
			},
			{
				"x": 2.0529113845,
				"y": 2.2269705268,
				"z": 1.2979082271,
				"element": "H" 
			}
		],
		 "valence_orbital": [ 
			{
				"type": "occ",
				"energy": -0.32808,
				"method": "rhf"
			},
			{
				"type": "occ",
				"energy": -0.30795,
				"method": "rhf"
			},
			{
				"type": "occ",
				"energy": -0.30556,
				"method": "rhf"
			},
			{
				"type": "occ",
				"energy": -0.24553,
				"method": "rhf"
			},
			{
				"type": "occ",
				"energy": -0.21618,
				"method": "rhf"
			},
			{
				"type": "unocc",
				"energy": -0.01602,
				"method": "rhf"
			},
			{
				"type": "unocc",
				"energy": -0.00014,
				"method": "rhf"
			},
			{
				"type": "unocc",
				"energy": 0.00514,
				"method": "rhf"
			},
			{
				"type": "unocc",
				"energy": 0.06606,
				"method": "rhf"
			},
			{
				"type": "unocc",
				"energy": 0.0785,
				"method": "rhf"
			}
		],
		"cosmo_sigma_profile": { 
			"-0.025": 0.0,
			"-0.024": 0.0,
			"-0.023": 0.0,
			"-0.022": 0.0,
			"-0.021": 0.0,
			"-0.02": 0.0,
			"-0.019": 0.0,
			"-0.018": 0.0,
			"-0.017": 0.0,
			"-0.016": 0.0,
			"-0.015": 0.0,
			"-0.014": 0.221739489193,
			"-0.013": 1.50598722317,
			"-0.012": 1.93238400476,
			"-0.011": 2.44528222695,
			"-0.01": 3.09043452513,
			"-0.009": 2.3687402126,
			"-0.008": 1.84909642012,
			"-0.007": 5.16820347524,
			"-0.006": 8.03490493678,
			"-0.005": 6.67530643689,
			"-0.004": 7.70964731981,
			"-0.003": 6.63891992421,
			"-0.002": 8.59493818262,
			"-0.001": 7.83551853749,
			"0.0": 10.2246343325,
			"0.001": 15.9656304304,
			"0.002": 19.1961725898,
			"0.003": 20.1867288763,
			"0.004": 25.0329854887,
			"0.005": 12.8642058748,
			"0.006": 2.28889640568,
			"0.007": 0.739183899595,
			"0.008": 0.558459811381,
			"0.009": 0.629388231933,
			"0.01": 0.70210821132,
			"0.011": 0.747305937063,
			"0.012": 0.507634533374,
			"0.013": 0.109491385288,
			"0.014": 0.0,
			"0.015": 0.0,
			"0.016": 0.0,
			"0.017": 0.0,
			"0.018": 0.0,
			"0.019": 0.0,
			"0.02": 0.0,
			"0.021": 0.0,
			"0.022": 0.0,
			"0.023": 0.0,
			"0.024": 0.0,
			"0.025": 0.0
		}
	}
}
