{
	 "smiles": "CC(C)OP(=S)(OC(C)C)SCCNS(=O)(=O)C1=CC=CC=C1", 
	 "Tm": 307.55, 
	 "num_atms": 47, 
	 "gaussian": { 
		 "optdone": 1, 
		 "sigma_profile": "yes", 
		 "theory": "DFT", 
		 "functional": "B3LYP", 
		 "basiset": "6-31G**", 
		 "properties": { 
			 "R2extent": 11037.8033, 
			 "electric_dipole_moment_norm": 2.66181798965, 
			 "electric_quadrupole_moment_norm": 41.8661091352, 
			 "total_energy": -2439.53920553, 
			 "HOMO_LUMO_gap": 0.20542, 
			 "cosmo_polarized_energy": -20.36, 
			 "cosmo_cavitation_energy": 55.12, 
			 "cosmo_dispersion_energy": -34.58, 
			 "cosmo_repulsion_energy": 2.53, 
			 "cosmo_total_nonelectrostatic_energy": 23.06, 
			 "SMD_solvation_energy": 6.59 
		},
		"coords": [
			{
				"x": 3.6624374409,
				"y": -3.201253374,
				"z": 2.12627353,
				"element": "C" 
			},
			{
				"x": 2.8336514183,
				"y": -3.230299376,
				"z": 0.8498186695,
				"element": "C" 
			},
			{
				"x": 2.0263308064,
				"y": -4.5086205392,
				"z": 0.6717759342,
				"element": "C" 
			},
			{
				"x": 1.8761738267,
				"y": -2.1176739898,
				"z": 0.9131758213,
				"element": "O" 
			},
			{
				"x": 2.0040953609,
				"y": -0.8045174535,
				"z": -0.0355462784,
				"element": "P" 
			},
			{
				"x": 3.7998239811,
				"y": -0.162046957,
				"z": -0.404277246,
				"element": "S" 
			},
			{
				"x": 0.9830786148,
				"y": 0.190514057,
				"z": 0.7313398713,
				"element": "O" 
			},
			{
				"x": 1.2493970987,
				"y": 0.6707280723,
				"z": 2.1085732808,
				"element": "C" 
			},
			{
				"x": 1.081809243,
				"y": 2.1819734118,
				"z": 2.0798769014,
				"element": "C" 
			},
			{
				"x": 0.2839318585,
				"y": -0.0362231118,
				"z": 3.0484886471,
				"element": "C" 
			},
			{
				"x": 0.9447902333,
				"y": -1.224586419,
				"z": -1.8138943427,
				"element": "S" 
			},
			{
				"x": -0.6524728125,
				"y": -1.9913974726,
				"z": -1.2486538621,
				"element": "C" 
			},
			{
				"x": -1.8525510319,
				"y": -1.0462680098,
				"z": -1.2972293771,
				"element": "C" 
			},
			{
				"x": -1.7929500878,
				"y": -0.0916070732,
				"z": -0.1932877452,
				"element": "N" 
			},
			{
				"x": -3.0173175496,
				"y": 1.0175148494,
				"z": 0.0310065228,
				"element": "S" 
			},
			{
				"x": -2.6014184246,
				"y": 1.8021704548,
				"z": 1.1993488341,
				"element": "O" 
			},
			{
				"x": -4.2780362906,
				"y": 0.2735121981,
				"z": -0.0091142085,
				"element": "O" 
			},
			{
				"x": -3.0070012248,
				"y": 2.117340855,
				"z": -1.3938698659,
				"element": "C" 
			},
			{
				"x": -3.8677877207,
				"y": 1.8592257943,
				"z": -2.4633094362,
				"element": "C" 
			},
			{
				"x": -3.8322517415,
				"y": 2.6963027749,
				"z": -3.5800520882,
				"element": "C" 
			},
			{
				"x": -2.9469357291,
				"y": 3.7750763699,
				"z": -3.6194086557,
				"element": "C" 
			},
			{
				"x": -2.0964434798,
				"y": 4.0279524909,
				"z": -2.5394223643,
				"element": "C" 
			},
			{
				"x": -2.1222668273,
				"y": 3.1992017208,
				"z": -1.4187435286,
				"element": "C" 
			},
			{
				"x": 3.0174844832,
				"y": -3.3002946252,
				"z": 3.0053093325,
				"element": "H" 
			},
			{
				"x": 4.2202205107,
				"y": -2.2645274901,
				"z": 2.1993631815,
				"element": "H" 
			},
			{
				"x": 4.3780795757,
				"y": -4.0298384141,
				"z": 2.1278616827,
				"element": "H" 
			},
			{
				"x": 3.4863288672,
				"y": -3.0709962596,
				"z": -0.0146769731,
				"element": "H" 
			},
			{
				"x": 1.3342625699,
				"y": -4.6479012882,
				"z": 1.5082974146,
				"element": "H" 
			},
			{
				"x": 1.4516059577,
				"y": -4.4823871956,
				"z": -0.2580229849,
				"element": "H" 
			},
			{
				"x": 2.6981934214,
				"y": -5.3719112688,
				"z": 0.6339085243,
				"element": "H" 
			},
			{
				"x": 2.2861482262,
				"y": 0.4137074106,
				"z": 2.3497603405,
				"element": "H" 
			},
			{
				"x": 1.2964729197,
				"y": 2.5949110268,
				"z": 3.070905582,
				"element": "H" 
			},
			{
				"x": 1.7685933051,
				"y": 2.634289484,
				"z": 1.3599052317,
				"element": "H" 
			},
			{
				"x": 0.0524689175,
				"y": 2.4450587957,
				"z": 1.8169531207,
				"element": "H" 
			},
			{
				"x": -0.7500142464,
				"y": 0.199478811,
				"z": 2.7809041391,
				"element": "H" 
			},
			{
				"x": 0.460304704,
				"y": 0.2992304297,
				"z": 4.0759746796,
				"element": "H" 
			},
			{
				"x": 0.4268787738,
				"y": -1.1183088578,
				"z": 3.0061019568,
				"element": "H" 
			},
			{
				"x": -0.8142504603,
				"y": -2.8196631051,
				"z": -1.9430915924,
				"element": "H" 
			},
			{
				"x": -0.5135746007,
				"y": -2.4062544843,
				"z": -0.2478933062,
				"element": "H" 
			},
			{
				"x": -2.7668744675,
				"y": -1.6373032046,
				"z": -1.1798814938,
				"element": "H" 
			},
			{
				"x": -1.8938247822,
				"y": -0.5542880218,
				"z": -2.2806936363,
				"element": "H" 
			},
			{
				"x": -0.8744804674,
				"y": 0.307992211,
				"z": -0.001433361,
				"element": "H" 
			},
			{
				"x": -4.5657476686,
				"y": 1.0315772224,
				"z": -2.4015213639,
				"element": "H" 
			},
			{
				"x": -4.5010532545,
				"y": 2.5086874354,
				"z": -4.4146897773,
				"element": "H" 
			},
			{
				"x": -2.9235726558,
				"y": 4.4247642201,
				"z": -4.4893650387,
				"element": "H" 
			},
			{
				"x": -1.4167278896,
				"y": 4.8741793744,
				"z": -2.5674328541,
				"element": "H" 
			},
			{
				"x": -1.4823087016,
				"y": 3.394878521,
				"z": -0.5652118177,
				"element": "H" 
			}
		],
		 "valence_orbital": [ 
			{
				"type": "occ",
				"energy": -0.27267,
				"method": "rhf"
			},
			{
				"type": "occ",
				"energy": -0.26989,
				"method": "rhf"
			},
			{
				"type": "occ",
				"energy": -0.26017,
				"method": "rhf"
			},
			{
				"type": "occ",
				"energy": -0.24713,
				"method": "rhf"
			},
			{
				"type": "occ",
				"energy": -0.24229,
				"method": "rhf"
			},
			{
				"type": "unocc",
				"energy": -0.03687,
				"method": "rhf"
			},
			{
				"type": "unocc",
				"energy": -0.02062,
				"method": "rhf"
			},
			{
				"type": "unocc",
				"energy": -0.01122,
				"method": "rhf"
			},
			{
				"type": "unocc",
				"energy": 0.00877,
				"method": "rhf"
			},
			{
				"type": "unocc",
				"energy": 0.03199,
				"method": "rhf"
			}
		],
		"cosmo_sigma_profile": { 
			"-0.025": 0.0,
			"-0.024": 0.0,
			"-0.023": 0.0,
			"-0.022": 0.0,
			"-0.021": 0.0,
			"-0.02": 0.0,
			"-0.019": 0.0,
			"-0.018": 0.0,
			"-0.017": 0.0,
			"-0.016": 0.0,
			"-0.015": 0.0,
			"-0.014": 0.0,
			"-0.013": 0.0,
			"-0.012": 0.0,
			"-0.011": 0.0,
			"-0.01": 0.00247215447688,
			"-0.009": 0.282163592485,
			"-0.008": 3.1801669009,
			"-0.007": 10.0161325739,
			"-0.006": 19.5817934763,
			"-0.005": 30.0255110292,
			"-0.004": 39.8462976057,
			"-0.003": 40.3827396139,
			"-0.002": 39.2703054241,
			"-0.001": 40.0541584928,
			"0.0": 43.6367606284,
			"0.001": 28.3059343341,
			"0.002": 26.3104851171,
			"0.003": 30.6770405786,
			"0.004": 19.1396279179,
			"0.005": 11.0660397487,
			"0.006": 11.8250294259,
			"0.007": 11.0269475041,
			"0.008": 10.7232477222,
			"0.009": 6.28160609121,
			"0.01": 5.52092261062,
			"0.011": 6.55741873648,
			"0.012": 3.97893036999,
			"0.013": 0.0,
			"0.014": 0.0,
			"0.015": 0.0,
			"0.016": 0.0,
			"0.017": 0.0,
			"0.018": 0.0,
			"0.019": 0.0,
			"0.02": 0.0,
			"0.021": 0.0,
			"0.022": 0.0,
			"0.023": 0.0,
			"0.024": 0.0,
			"0.025": 0.0
		}
	}
}
