{
	 "smiles": "COC(=O)C=C1SCC(=O)N1CCCCl", 
	 "Tm": 369.15, 
	 "num_atms": 27, 
	 "gaussian": { 
		 "optdone": 1, 
		 "sigma_profile": "yes", 
		 "theory": "DFT", 
		 "functional": "B3LYP", 
		 "basiset": "6-31G**", 
		 "properties": { 
			 "R2extent": 5152.7643, 
			 "electric_dipole_moment_norm": 3.7984579042, 
			 "electric_quadrupole_moment_norm": 19.7813215051, 
			 "total_energy": -1489.00735834, 
			 "HOMO_LUMO_gap": 0.17888, 
			 "cosmo_polarized_energy": -12.71, 
			 "cosmo_cavitation_energy": 33.78, 
			 "cosmo_dispersion_energy": -24.58, 
			 "cosmo_repulsion_energy": 1.91, 
			 "cosmo_total_nonelectrostatic_energy": 11.1, 
			 "SMD_solvation_energy": 6.73 
		},
		"coords": [
			{
				"x": 2.3612069127,
				"y": 3.6231123482,
				"z": -0.8823225853,
				"element": "C" 
			},
			{
				"x": 1.9618718936,
				"y": 2.3167030307,
				"z": -1.3151701939,
				"element": "O" 
			},
			{
				"x": 1.1363978322,
				"y": 1.6488262606,
				"z": -0.4641336631,
				"element": "C" 
			},
			{
				"x": 0.7724342314,
				"y": 2.1440572781,
				"z": 0.5935763018,
				"element": "O" 
			},
			{
				"x": 0.8441534051,
				"y": 0.3352461021,
				"z": -1.0357674255,
				"element": "C" 
			},
			{
				"x": 0.0640047413,
				"y": -0.7037122405,
				"z": -0.6257064924,
				"element": "C" 
			},
			{
				"x": 0.1450906258,
				"y": -2.1933343482,
				"z": -1.6173717992,
				"element": "S" 
			},
			{
				"x": -1.01775954,
				"y": -3.0835663832,
				"z": -0.5408109568,
				"element": "C" 
			},
			{
				"x": -1.4328183683,
				"y": -2.1168708067,
				"z": 0.5583769718,
				"element": "C" 
			},
			{
				"x": -2.2162632349,
				"y": -2.3961689351,
				"z": 1.4413690851,
				"element": "O" 
			},
			{
				"x": -0.8226146631,
				"y": -0.8671040899,
				"z": 0.4265737892,
				"element": "N" 
			},
			{
				"x": -1.2190018705,
				"y": 0.1771574411,
				"z": 1.3915633327,
				"element": "C" 
			},
			{
				"x": -0.334475746,
				"y": 0.1705566304,
				"z": 2.6426245764,
				"element": "C" 
			},
			{
				"x": -0.5760863931,
				"y": 1.3732084768,
				"z": 3.5423296013,
				"element": "C" 
			},
			{
				"x": -2.2698721504,
				"y": 1.4191334308,
				"z": 4.2212697844,
				"element": "Cl" 
			},
			{
				"x": 1.4910747993,
				"y": 4.2707720959,
				"z": -0.7461060571,
				"element": "H" 
			},
			{
				"x": 2.9081706969,
				"y": 3.5697229829,
				"z": 0.0628866991,
				"element": "H" 
			},
			{
				"x": 3.0043555568,
				"y": 4.0100354835,
				"z": -1.6729446973,
				"element": "H" 
			},
			{
				"x": 1.3960877182,
				"y": 0.1479906729,
				"z": -1.9508147031,
				"element": "H" 
			},
			{
				"x": -1.9078046963,
				"y": -3.4035128629,
				"z": -1.0877256569,
				"element": "H" 
			},
			{
				"x": -0.5494909479,
				"y": -3.9626462694,
				"z": -0.0916966352,
				"element": "H" 
			},
			{
				"x": -1.1623628249,
				"y": 1.1392413213,
				"z": 0.8901305924,
				"element": "H" 
			},
			{
				"x": -2.2534555021,
				"y": -0.0397982748,
				"z": 1.6607723134,
				"element": "H" 
			},
			{
				"x": 0.7155459989,
				"y": 0.2249526411,
				"z": 2.3353323181,
				"element": "H" 
			},
			{
				"x": -0.4840343224,
				"y": -0.7603673853,
				"z": 3.1988696184,
				"element": "H" 
			},
			{
				"x": -0.4366880042,
				"y": 2.305207588,
				"z": 2.9941367916,
				"element": "H" 
			},
			{
				"x": 0.0887338519,
				"y": 1.3582578116,
				"z": 4.4065590902,
				"element": "H" 
			}
		],
		 "valence_orbital": [ 
			{
				"type": "occ",
				"energy": -0.28797,
				"method": "rhf"
			},
			{
				"type": "occ",
				"energy": -0.28532,
				"method": "rhf"
			},
			{
				"type": "occ",
				"energy": -0.27586,
				"method": "rhf"
			},
			{
				"type": "occ",
				"energy": -0.27044,
				"method": "rhf"
			},
			{
				"type": "occ",
				"energy": -0.23387,
				"method": "rhf"
			},
			{
				"type": "unocc",
				"energy": -0.05499,
				"method": "rhf"
			},
			{
				"type": "unocc",
				"energy": -0.00794,
				"method": "rhf"
			},
			{
				"type": "unocc",
				"energy": 0.00273,
				"method": "rhf"
			},
			{
				"type": "unocc",
				"energy": 0.03288,
				"method": "rhf"
			},
			{
				"type": "unocc",
				"energy": 0.04702,
				"method": "rhf"
			}
		],
		"cosmo_sigma_profile": { 
			"-0.025": 0.0,
			"-0.024": 0.0,
			"-0.023": 0.0,
			"-0.022": 0.0,
			"-0.021": 0.0,
			"-0.02": 0.0,
			"-0.019": 0.0,
			"-0.018": 0.0,
			"-0.017": 0.0,
			"-0.016": 0.0,
			"-0.015": 0.0,
			"-0.014": 0.0,
			"-0.013": 0.0,
			"-0.012": 0.0,
			"-0.011": 0.0,
			"-0.01": 0.120740127989,
			"-0.009": 4.2532491854,
			"-0.008": 5.47987278592,
			"-0.007": 8.90567230877,
			"-0.006": 13.6169671213,
			"-0.005": 17.4993959261,
			"-0.004": 24.7039153303,
			"-0.003": 28.2564336781,
			"-0.002": 19.054411242,
			"-0.001": 17.2116252569,
			"0.0": 15.5211138591,
			"0.001": 16.2529753661,
			"0.002": 17.9917557403,
			"0.003": 15.5468976333,
			"0.004": 12.3060048789,
			"0.005": 11.8300998419,
			"0.006": 13.6366005178,
			"0.007": 10.6487594389,
			"0.008": 3.94494991327,
			"0.009": 3.58151594869,
			"0.01": 3.682189426,
			"0.011": 5.42696521684,
			"0.012": 2.21320372811,
			"0.013": 0.0762394390381,
			"0.014": 0.0,
			"0.015": 0.0,
			"0.016": 0.0,
			"0.017": 0.0,
			"0.018": 0.0,
			"0.019": 0.0,
			"0.02": 0.0,
			"0.021": 0.0,
			"0.022": 0.0,
			"0.023": 0.0,
			"0.024": 0.0,
			"0.025": 0.0
		}
	}
}
