{
	 "smiles": "OCCNC1=CC=NC=C1", 
	 "Tm": 384.15, 
	 "num_atms": 20, 
	 "gaussian": { 
		 "optdone": 1, 
		 "sigma_profile": "yes", 
		 "theory": "DFT", 
		 "functional": "B3LYP", 
		 "basiset": "6-31G**", 
		 "properties": { 
			 "R2extent": 1756.4777, 
			 "electric_dipole_moment_norm": 4.44832107429, 
			 "electric_quadrupole_moment_norm": 9.44609578715, 
			 "total_energy": -457.483598914, 
			 "HOMO_LUMO_gap": 0.21588, 
			 "cosmo_polarized_energy": -13.92, 
			 "cosmo_cavitation_energy": 22.95, 
			 "cosmo_dispersion_energy": -17.22, 
			 "cosmo_repulsion_energy": 1.41, 
			 "cosmo_total_nonelectrostatic_energy": 7.13, 
			 "SMD_solvation_energy": 2.02 
		},
		"coords": [
			{
				"x": -2.349837409,
				"y": 1.0941443787,
				"z": 1.36952947,
				"element": "O" 
			},
			{
				"x": -2.8143690924,
				"y": -0.097151339,
				"z": 0.7591005754,
				"element": "C" 
			},
			{
				"x": -1.7937891365,
				"y": -0.6909821473,
				"z": -0.2162383529,
				"element": "C" 
			},
			{
				"x": -0.5347792074,
				"y": -1.0474658531,
				"z": 0.4380556459,
				"element": "N" 
			},
			{
				"x": 0.6326950825,
				"y": -0.3090718736,
				"z": 0.3229847099,
				"element": "C" 
			},
			{
				"x": 0.6426006383,
				"y": 1.0695351458,
				"z": 0.0369343921,
				"element": "C" 
			},
			{
				"x": 1.8680065928,
				"y": 1.7272196526,
				"z": -0.0390903906,
				"element": "C" 
			},
			{
				"x": 3.0629545518,
				"y": 1.1524671651,
				"z": 0.1509447659,
				"element": "N" 
			},
			{
				"x": 3.0391544145,
				"y": -0.157881507,
				"z": 0.4376949646,
				"element": "C" 
			},
			{
				"x": 1.8834885513,
				"y": -0.9227749455,
				"z": 0.5313360632,
				"element": "C" 
			},
			{
				"x": -1.5712942395,
				"y": 0.858834019,
				"z": 1.8932896426,
				"element": "H" 
			},
			{
				"x": -3.727014728,
				"y": 0.1678805301,
				"z": 0.2138947661,
				"element": "H" 
			},
			{
				"x": -3.0844263143,
				"y": -0.8548507014,
				"z": 1.5121555831,
				"element": "H" 
			},
			{
				"x": -2.2185481099,
				"y": -1.5910192877,
				"z": -0.6781393365,
				"element": "H" 
			},
			{
				"x": -1.5974882492,
				"y": 0.0244319636,
				"z": -1.0224229014,
				"element": "H" 
			},
			{
				"x": -0.3827995781,
				"y": -2.0381812364,
				"z": 0.5592449711,
				"element": "H" 
			},
			{
				"x": -0.2821071518,
				"y": 1.6220108926,
				"z": -0.0828544249,
				"element": "H" 
			},
			{
				"x": 1.8820831213,
				"y": 2.7933410172,
				"z": -0.2622143295,
				"element": "H" 
			},
			{
				"x": 4.0074327294,
				"y": -0.6308856994,
				"z": 0.5964619582,
				"element": "H" 
			},
			{
				"x": 1.9472375343,
				"y": -1.9846001741,
				"z": 0.7567322276,
				"element": "H" 
			}
		],
		 "valence_orbital": [ 
			{
				"type": "occ",
				"energy": -0.32578,
				"method": "rhf"
			},
			{
				"type": "occ",
				"energy": -0.27831,
				"method": "rhf"
			},
			{
				"type": "occ",
				"energy": -0.25401,
				"method": "rhf"
			},
			{
				"type": "occ",
				"energy": -0.24317,
				"method": "rhf"
			},
			{
				"type": "occ",
				"energy": -0.21951,
				"method": "rhf"
			},
			{
				"type": "unocc",
				"energy": -0.00363,
				"method": "rhf"
			},
			{
				"type": "unocc",
				"energy": 0.00118,
				"method": "rhf"
			},
			{
				"type": "unocc",
				"energy": 0.06391,
				"method": "rhf"
			},
			{
				"type": "unocc",
				"energy": 0.09535,
				"method": "rhf"
			},
			{
				"type": "unocc",
				"energy": 0.1127,
				"method": "rhf"
			}
		],
		"cosmo_sigma_profile": { 
			"-0.025": 0.0,
			"-0.024": 0.0,
			"-0.023": 0.0,
			"-0.022": 0.0,
			"-0.021": 0.0,
			"-0.02": 0.0,
			"-0.019": 0.0,
			"-0.018": 0.0,
			"-0.017": 0.0,
			"-0.016": 0.0,
			"-0.015": 0.0,
			"-0.014": 0.27264554593,
			"-0.013": 2.11892174069,
			"-0.012": 1.41804536558,
			"-0.011": 2.34671471468,
			"-0.01": 2.94606607787,
			"-0.009": 2.05873300625,
			"-0.008": 2.75111657311,
			"-0.007": 3.04285022276,
			"-0.006": 6.57526948127,
			"-0.005": 13.7383785543,
			"-0.004": 20.205508125,
			"-0.003": 16.811837127,
			"-0.002": 13.4499352151,
			"-0.001": 11.3558390813,
			"0.0": 7.44934095066,
			"0.001": 8.6596637757,
			"0.002": 7.66311095015,
			"0.003": 10.3056982378,
			"0.004": 13.7175501516,
			"0.005": 6.78993843288,
			"0.006": 3.34790131965,
			"0.007": 2.85282038541,
			"0.008": 2.12680274523,
			"0.009": 3.1084694399,
			"0.01": 2.25249549693,
			"0.011": 2.38922792153,
			"0.012": 2.14091919911,
			"0.013": 2.20237569771,
			"0.014": 3.15826254812,
			"0.015": 1.48625946497,
			"0.016": 0.761636289319,
			"0.017": 0.855171039268,
			"0.018": 0.776038492671,
			"0.019": 0.0283287335901,
			"0.02": 0.0,
			"0.021": 0.0,
			"0.022": 0.0,
			"0.023": 0.0,
			"0.024": 0.0,
			"0.025": 0.0
		}
	}
}
