{
	 "smiles": "OC(=O)CNC1=NC=CC=N1", 
	 "Tm": 443.15, 
	 "num_atms": 18, 
	 "gaussian": { 
		 "optdone": 1, 
		 "sigma_profile": "yes", 
		 "theory": "DFT", 
		 "functional": "B3LYP", 
		 "basiset": "6-31G**", 
		 "properties": { 
			 "R2extent": 2278.5362, 
			 "electric_dipole_moment_norm": 5.82493391293, 
			 "electric_quadrupole_moment_norm": 16.0069299293, 
			 "total_energy": -547.570953255, 
			 "HOMO_LUMO_gap": 0.19371, 
			 "cosmo_polarized_energy": -15.99, 
			 "cosmo_cavitation_energy": 22.98, 
			 "cosmo_dispersion_energy": -17.14, 
			 "cosmo_repulsion_energy": 1.4, 
			 "cosmo_total_nonelectrostatic_energy": 7.24, 
			 "SMD_solvation_energy": 3.18 
		},
		"coords": [
			{
				"x": 3.3888728161,
				"y": -0.5243380362,
				"z": -1.1661458901,
				"element": "O" 
			},
			{
				"x": 2.5412216047,
				"y": -0.4613257024,
				"z": -2.2105653587,
				"element": "C" 
			},
			{
				"x": 2.8784553876,
				"y": -0.7139226642,
				"z": -3.3404224251,
				"element": "O" 
			},
			{
				"x": 1.1000194369,
				"y": -0.0733515905,
				"z": -1.8534957747,
				"element": "C" 
			},
			{
				"x": 0.9733565722,
				"y": 0.5088890453,
				"z": -0.5241973141,
				"element": "N" 
			},
			{
				"x": 0.0540921764,
				"y": 0.0517640321,
				"z": 0.4079336883,
				"element": "C" 
			},
			{
				"x": -0.4514538029,
				"y": -1.1787943915,
				"z": 0.2427274971,
				"element": "N" 
			},
			{
				"x": -1.2990415417,
				"y": -1.5920635862,
				"z": 1.1897576939,
				"element": "C" 
			},
			{
				"x": -1.6441171526,
				"y": -0.8087730996,
				"z": 2.288211132,
				"element": "C" 
			},
			{
				"x": -1.0560405807,
				"y": 0.4557625998,
				"z": 2.344927362,
				"element": "C" 
			},
			{
				"x": -0.2101139123,
				"y": 0.9035552368,
				"z": 1.4163379243,
				"element": "N" 
			},
			{
				"x": 2.8833819793,
				"y": -0.2590035959,
				"z": -0.374355754,
				"element": "H" 
			},
			{
				"x": 0.7315929162,
				"y": 0.5975441105,
				"z": -2.6358858947,
				"element": "H" 
			},
			{
				"x": 0.4962816561,
				"y": -0.9842852619,
				"z": -1.8803408335,
				"element": "H" 
			},
			{
				"x": 1.1346189718,
				"y": 1.5047008039,
				"z": -0.4374682437,
				"element": "H" 
			},
			{
				"x": -1.7136175286,
				"y": -2.5899565462,
				"z": 1.0573350288,
				"element": "H" 
			},
			{
				"x": -2.3319592271,
				"y": -1.1571910847,
				"z": 3.0491096129,
				"element": "H" 
			},
			{
				"x": -1.2738497714,
				"y": 1.139889731,
				"z": 3.1635375494,
				"element": "H" 
			}
		],
		 "valence_orbital": [ 
			{
				"type": "occ",
				"energy": -0.32886,
				"method": "rhf"
			},
			{
				"type": "occ",
				"energy": -0.30737,
				"method": "rhf"
			},
			{
				"type": "occ",
				"energy": -0.27213,
				"method": "rhf"
			},
			{
				"type": "occ",
				"energy": -0.2662,
				"method": "rhf"
			},
			{
				"type": "occ",
				"energy": -0.24564,
				"method": "rhf"
			},
			{
				"type": "unocc",
				"energy": -0.05193,
				"method": "rhf"
			},
			{
				"type": "unocc",
				"energy": -0.02214,
				"method": "rhf"
			},
			{
				"type": "unocc",
				"energy": 0.01666,
				"method": "rhf"
			},
			{
				"type": "unocc",
				"energy": 0.07207,
				"method": "rhf"
			},
			{
				"type": "unocc",
				"energy": 0.0954,
				"method": "rhf"
			}
		],
		"cosmo_sigma_profile": { 
			"-0.025": 0.0,
			"-0.024": 0.0,
			"-0.023": 0.0,
			"-0.022": 0.0,
			"-0.021": 0.0,
			"-0.02": 0.0,
			"-0.019": 0.0,
			"-0.018": 0.0,
			"-0.017": 0.0,
			"-0.016": 0.0,
			"-0.015": 0.139037036352,
			"-0.014": 1.89943767845,
			"-0.013": 1.97533392067,
			"-0.012": 1.97636730253,
			"-0.011": 2.00836304306,
			"-0.01": 3.23566734495,
			"-0.009": 2.83169733609,
			"-0.008": 4.66958644938,
			"-0.007": 12.8152378028,
			"-0.006": 11.8070865617,
			"-0.005": 10.493969936,
			"-0.004": 10.3598343142,
			"-0.003": 8.81281276663,
			"-0.002": 9.6667246957,
			"-0.001": 10.5971739288,
			"0.0": 11.9402419793,
			"0.001": 11.9370840906,
			"0.002": 9.11425515877,
			"0.003": 4.96444306778,
			"0.004": 5.24778384156,
			"0.005": 4.16146884219,
			"0.006": 5.05727514372,
			"0.007": 4.72642898933,
			"0.008": 4.47420455275,
			"0.009": 4.76969349883,
			"0.01": 6.9672601897,
			"0.011": 6.2763017761,
			"0.012": 6.69794365888,
			"0.013": 3.31423766813,
			"0.014": 0.91180430833,
			"0.015": 0.00755283068082,
			"0.016": 0.0,
			"0.017": 0.0,
			"0.018": 0.0,
			"0.019": 0.0,
			"0.02": 0.0,
			"0.021": 0.0,
			"0.022": 0.0,
			"0.023": 0.0,
			"0.024": 0.0,
			"0.025": 0.0
		}
	}
}
