{
	 "smiles": "CC1=NCCS1", 
	 "Tm": 172.15, 
	 "num_atms": 13, 
	 "gaussian": { 
		 "optdone": 1, 
		 "sigma_profile": "yes", 
		 "theory": "DFT", 
		 "functional": "B3LYP", 
		 "basiset": "6-31G**", 
		 "properties": { 
			 "R2extent": 1096.3848, 
			 "electric_dipole_moment_norm": 0.728247197042, 
			 "electric_quadrupole_moment_norm": 5.78769353283, 
			 "total_energy": -609.58009498, 
			 "HOMO_LUMO_gap": 0.2315, 
			 "cosmo_polarized_energy": -5.67, 
			 "cosmo_cavitation_energy": 17.31, 
			 "cosmo_dispersion_energy": -13.82, 
			 "cosmo_repulsion_energy": 1.14, 
			 "cosmo_total_nonelectrostatic_energy": 4.63, 
			 "SMD_solvation_energy": -0.49 
		},
		"coords": [
			{
				"x": 1.4712618575,
				"y": -2.9368459256,
				"z": -1.0860246127,
				"element": "C" 
			},
			{
				"x": 0.606654877,
				"y": -1.8381285247,
				"z": -0.5452766531,
				"element": "C" 
			},
			{
				"x": 1.0480153887,
				"y": -0.7199927833,
				"z": -0.1346486617,
				"element": "N" 
			},
			{
				"x": -0.0131944226,
				"y": 0.2015949889,
				"z": 0.2596179027,
				"element": "C" 
			},
			{
				"x": -1.3449338563,
				"y": -0.5590198216,
				"z": 0.4945797047,
				"element": "C" 
			},
			{
				"x": -1.183858711,
				"y": -2.1049774027,
				"z": -0.486729227,
				"element": "S" 
			},
			{
				"x": 2.5124587305,
				"y": -2.6104946795,
				"z": -1.0838194663,
				"element": "H" 
			},
			{
				"x": 1.3706873254,
				"y": -3.8435892224,
				"z": -0.4806368789,
				"element": "H" 
			},
			{
				"x": 1.1746003327,
				"y": -3.1910649048,
				"z": -2.1094399875,
				"element": "H" 
			},
			{
				"x": -0.127681155,
				"y": 0.9423757711,
				"z": -0.5437007347,
				"element": "H" 
			},
			{
				"x": 0.2854858165,
				"y": 0.7485671487,
				"z": 1.1598611733,
				"element": "H" 
			},
			{
				"x": -2.2144043319,
				"y": 0.0064766798,
				"z": 0.1553323261,
				"element": "H" 
			},
			{
				"x": -1.4832918515,
				"y": -0.823401324,
				"z": 1.5461851153,
				"element": "H" 
			}
		],
		 "valence_orbital": [ 
			{
				"type": "occ",
				"energy": -0.36506,
				"method": "rhf"
			},
			{
				"type": "occ",
				"energy": -0.3348,
				"method": "rhf"
			},
			{
				"type": "occ",
				"energy": -0.31112,
				"method": "rhf"
			},
			{
				"type": "occ",
				"energy": -0.25951,
				"method": "rhf"
			},
			{
				"type": "occ",
				"energy": -0.22613,
				"method": "rhf"
			},
			{
				"type": "unocc",
				"energy": 0.00537,
				"method": "rhf"
			},
			{
				"type": "unocc",
				"energy": 0.01815,
				"method": "rhf"
			},
			{
				"type": "unocc",
				"energy": 0.08413,
				"method": "rhf"
			},
			{
				"type": "unocc",
				"energy": 0.10351,
				"method": "rhf"
			},
			{
				"type": "unocc",
				"energy": 0.11973,
				"method": "rhf"
			}
		],
		"cosmo_sigma_profile": { 
			"-0.025": 0.0,
			"-0.024": 0.0,
			"-0.023": 0.0,
			"-0.022": 0.0,
			"-0.021": 0.0,
			"-0.02": 0.0,
			"-0.019": 0.0,
			"-0.018": 0.0,
			"-0.017": 0.0,
			"-0.016": 0.0,
			"-0.015": 0.0,
			"-0.014": 0.0,
			"-0.013": 0.0,
			"-0.012": 0.0,
			"-0.011": 0.0,
			"-0.01": 0.0,
			"-0.009": 0.0,
			"-0.008": 0.0,
			"-0.007": 0.315674625957,
			"-0.006": 5.11591330361,
			"-0.005": 15.4762577752,
			"-0.004": 16.8208331769,
			"-0.003": 16.2625823512,
			"-0.002": 17.2160124415,
			"-0.001": 10.9358972799,
			"0.0": 7.39426607876,
			"0.001": 5.86548446563,
			"0.002": 6.77662668063,
			"0.003": 5.37407560378,
			"0.004": 5.22726349832,
			"0.005": 4.60162633985,
			"0.006": 4.75282248766,
			"0.007": 4.08921876398,
			"0.008": 3.90578525287,
			"0.009": 2.16747040083,
			"0.01": 0.816704001751,
			"0.011": 0.746821066489,
			"0.012": 1.20393528073,
			"0.013": 1.10363577667,
			"0.014": 0.917228303216,
			"0.015": 0.835993973595,
			"0.016": 0.715426062759,
			"0.017": 0.00214236716458,
			"0.018": 0.0,
			"0.019": 0.0,
			"0.02": 0.0,
			"0.021": 0.0,
			"0.022": 0.0,
			"0.023": 0.0,
			"0.024": 0.0,
			"0.025": 0.0
		}
	}
}
