{
	 "smiles": "O=CCCC1=NC2=C(O1)C=CC=C2", 
	 "Tm": 336.15, 
	 "num_atms": 22, 
	 "gaussian": { 
		 "optdone": 1, 
		 "sigma_profile": "yes", 
		 "theory": "DFT", 
		 "functional": "B3LYP", 
		 "basiset": "6-31G**", 
		 "properties": { 
			 "R2extent": 2999.1062, 
			 "electric_dipole_moment_norm": 3.51553524801, 
			 "electric_quadrupole_moment_norm": 14.4785811056, 
			 "total_energy": -591.676630438, 
			 "HOMO_LUMO_gap": 0.20802, 
			 "cosmo_polarized_energy": -10.2, 
			 "cosmo_cavitation_energy": 26.71, 
			 "cosmo_dispersion_energy": -19.68, 
			 "cosmo_repulsion_energy": 1.57, 
			 "cosmo_total_nonelectrostatic_energy": 8.6, 
			 "SMD_solvation_energy": 4.35 
		},
		"coords": [
			{
				"x": -4.450601066,
				"y": -0.1257087039,
				"z": 2.0289511679,
				"element": "O" 
			},
			{
				"x": -3.4292608462,
				"y": -0.1865406814,
				"z": 1.379570229,
				"element": "C" 
			},
			{
				"x": -2.9795499428,
				"y": -1.4329260249,
				"z": 0.6405752429,
				"element": "C" 
			},
			{
				"x": -1.5093156282,
				"y": -1.8073140555,
				"z": 0.8995793063,
				"element": "C" 
			},
			{
				"x": -0.5344495607,
				"y": -0.883747788,
				"z": 0.2448928737,
				"element": "C" 
			},
			{
				"x": -0.7779053491,
				"y": 0.1230282064,
				"z": -0.5311265883,
				"element": "N" 
			},
			{
				"x": 0.4865039074,
				"y": 0.6173416156,
				"z": -0.8696561048,
				"element": "C" 
			},
			{
				"x": 1.4574919314,
				"y": -0.1706689627,
				"z": -0.2382788751,
				"element": "C" 
			},
			{
				"x": 0.7970485579,
				"y": -1.1394172384,
				"z": 0.4819255152,
				"element": "O" 
			},
			{
				"x": 2.8225732129,
				"y": 0.0406087317,
				"z": -0.357738081,
				"element": "C" 
			},
			{
				"x": 3.1981112837,
				"y": 1.1164938397,
				"z": -1.1670507566,
				"element": "C" 
			},
			{
				"x": 2.2432977318,
				"y": 1.9238491061,
				"z": -1.8120505947,
				"element": "C" 
			},
			{
				"x": 0.8747241361,
				"y": 1.6898824451,
				"z": -1.6754783678,
				"element": "C" 
			},
			{
				"x": -2.7574486872,
				"y": 0.6918315517,
				"z": 1.2805234741,
				"element": "H" 
			},
			{
				"x": -3.1134355628,
				"y": -1.2474729002,
				"z": -0.4329919338,
				"element": "H" 
			},
			{
				"x": -3.640287391,
				"y": -2.2527853615,
				"z": 0.9339842103,
				"element": "H" 
			},
			{
				"x": -1.3193717041,
				"y": -2.8227986133,
				"z": 0.5300527542,
				"element": "H" 
			},
			{
				"x": -1.2962341476,
				"y": -1.8417244088,
				"z": 1.9759029355,
				"element": "H" 
			},
			{
				"x": 3.5494496975,
				"y": -0.5879531621,
				"z": 0.1443345104,
				"element": "H" 
			},
			{
				"x": 4.253447926,
				"y": 1.3337076083,
				"z": -1.3003521363,
				"element": "H" 
			},
			{
				"x": 2.5833514785,
				"y": 2.7487585506,
				"z": -2.430678377,
				"element": "H" 
			},
			{
				"x": 0.1354600225,
				"y": 2.3100562453,
				"z": -2.170990404,
				"element": "H" 
			}
		],
		 "valence_orbital": [ 
			{
				"type": "occ",
				"energy": -0.3344,
				"method": "rhf"
			},
			{
				"type": "occ",
				"energy": -0.29951,
				"method": "rhf"
			},
			{
				"type": "occ",
				"energy": -0.25152,
				"method": "rhf"
			},
			{
				"type": "occ",
				"energy": -0.25114,
				"method": "rhf"
			},
			{
				"type": "occ",
				"energy": -0.23954,
				"method": "rhf"
			},
			{
				"type": "unocc",
				"energy": -0.03152,
				"method": "rhf"
			},
			{
				"type": "unocc",
				"energy": -0.02297,
				"method": "rhf"
			},
			{
				"type": "unocc",
				"energy": 0.00107,
				"method": "rhf"
			},
			{
				"type": "unocc",
				"energy": 0.03219,
				"method": "rhf"
			},
			{
				"type": "unocc",
				"energy": 0.08764,
				"method": "rhf"
			}
		],
		"cosmo_sigma_profile": { 
			"-0.025": 0.0,
			"-0.024": 0.0,
			"-0.023": 0.0,
			"-0.022": 0.0,
			"-0.021": 0.0,
			"-0.02": 0.0,
			"-0.019": 0.0,
			"-0.018": 0.0,
			"-0.017": 0.0,
			"-0.016": 0.0,
			"-0.015": 0.0,
			"-0.014": 0.0,
			"-0.013": 0.0,
			"-0.012": 0.0,
			"-0.011": 0.0,
			"-0.01": 0.0,
			"-0.009": 0.0,
			"-0.008": 1.38601877805,
			"-0.007": 9.35630867221,
			"-0.006": 16.6279899538,
			"-0.005": 21.2212570857,
			"-0.004": 20.4670270672,
			"-0.003": 17.0984548606,
			"-0.002": 13.2487723019,
			"-0.001": 10.833509868,
			"0.0": 10.852216388,
			"0.001": 12.798462474,
			"0.002": 12.4943317109,
			"0.003": 14.3412276806,
			"0.004": 14.580266948,
			"0.005": 9.3100106626,
			"0.006": 5.00961987878,
			"0.007": 4.19484734274,
			"0.008": 2.41225035398,
			"0.009": 3.30699924144,
			"0.01": 4.00142030523,
			"0.011": 5.26677052925,
			"0.012": 3.66211942453,
			"0.013": 1.03814429872,
			"0.014": 0.21849117085,
			"0.015": 0.0,
			"0.016": 0.0,
			"0.017": 0.0,
			"0.018": 0.0,
			"0.019": 0.0,
			"0.02": 0.0,
			"0.021": 0.0,
			"0.022": 0.0,
			"0.023": 0.0,
			"0.024": 0.0,
			"0.025": 0.0
		}
	}
}
