{
	 "smiles": "O=C1CSC(CC#N)=N1", 
	 "Tm": 457.15, 
	 "num_atms": 13, 
	 "gaussian": { 
		 "optdone": 1, 
		 "sigma_profile": "yes", 
		 "theory": "DFT", 
		 "functional": "B3LYP", 
		 "basiset": "6-31G**", 
		 "properties": { 
			 "R2extent": 1604.245, 
			 "electric_dipole_moment_norm": 0.374268272767, 
			 "electric_quadrupole_moment_norm": 21.1575097403, 
			 "total_energy": -775.825251455, 
			 "HOMO_LUMO_gap": 0.19363, 
			 "cosmo_polarized_energy": -16.35, 
			 "cosmo_cavitation_energy": 20.38, 
			 "cosmo_dispersion_energy": -15.12, 
			 "cosmo_repulsion_energy": 1.21, 
			 "cosmo_total_nonelectrostatic_energy": 6.47, 
			 "SMD_solvation_energy": 3.73 
		},
		"coords": [
			{
				"x": -0.295809729,
				"y": 1.8933174442,
				"z": 1.9122641627,
				"element": "O" 
			},
			{
				"x": 0.1363831259,
				"y": 1.1831760264,
				"z": 1.0387935441,
				"element": "C" 
			},
			{
				"x": 1.5156268618,
				"y": 1.4201872754,
				"z": 0.3746848085,
				"element": "C" 
			},
			{
				"x": 1.7326812478,
				"y": 0.1104797217,
				"z": -0.8708808264,
				"element": "S" 
			},
			{
				"x": 0.1389732423,
				"y": -0.5241093305,
				"z": -0.4104025788,
				"element": "C" 
			},
			{
				"x": -0.4263658102,
				"y": -1.7507550709,
				"z": -1.0968501548,
				"element": "C" 
			},
			{
				"x": 0.4294587369,
				"y": -2.3401840891,
				"z": -2.1272221141,
				"element": "C" 
			},
			{
				"x": 1.0989650077,
				"y": -2.8162760137,
				"z": -2.9460611212,
				"element": "N" 
			},
			{
				"x": -0.5412481804,
				"y": 0.0584872628,
				"z": 0.5097279055,
				"element": "N" 
			},
			{
				"x": 2.3038014721,
				"y": 1.3712414683,
				"z": 1.1292120257,
				"element": "H" 
			},
			{
				"x": 1.5369624474,
				"y": 2.4067510527,
				"z": -0.0935071813,
				"element": "H" 
			},
			{
				"x": -0.6398491903,
				"y": -2.5005467207,
				"z": -0.3260542458,
				"element": "H" 
			},
			{
				"x": -1.3920792318,
				"y": -1.4760690266,
				"z": -1.5372042242,
				"element": "H" 
			}
		],
		 "valence_orbital": [ 
			{
				"type": "occ",
				"energy": -0.35342,
				"method": "rhf"
			},
			{
				"type": "occ",
				"energy": -0.34507,
				"method": "rhf"
			},
			{
				"type": "occ",
				"energy": -0.31045,
				"method": "rhf"
			},
			{
				"type": "occ",
				"energy": -0.27979,
				"method": "rhf"
			},
			{
				"type": "occ",
				"energy": -0.27439,
				"method": "rhf"
			},
			{
				"type": "unocc",
				"energy": -0.08076,
				"method": "rhf"
			},
			{
				"type": "unocc",
				"energy": -0.02254,
				"method": "rhf"
			},
			{
				"type": "unocc",
				"energy": 0.00941,
				"method": "rhf"
			},
			{
				"type": "unocc",
				"energy": 0.01976,
				"method": "rhf"
			},
			{
				"type": "unocc",
				"energy": 0.02547,
				"method": "rhf"
			}
		],
		"cosmo_sigma_profile": { 
			"-0.025": 0.0,
			"-0.024": 0.0,
			"-0.023": 0.0,
			"-0.022": 0.0,
			"-0.021": 0.0,
			"-0.02": 0.0,
			"-0.019": 0.0,
			"-0.018": 0.0,
			"-0.017": 0.0,
			"-0.016": 0.0,
			"-0.015": 0.0,
			"-0.014": 0.0,
			"-0.013": 0.0,
			"-0.012": 1.3520529506,
			"-0.011": 5.70193709331,
			"-0.01": 5.46683752925,
			"-0.009": 9.82660012947,
			"-0.008": 9.81107203702,
			"-0.007": 9.29260720213,
			"-0.006": 9.19449701123,
			"-0.005": 7.88983803108,
			"-0.004": 6.6901764783,
			"-0.003": 5.78132121626,
			"-0.002": 5.27200539983,
			"-0.001": 3.79223449208,
			"0.0": 7.47887400559,
			"0.001": 8.69671373949,
			"0.002": 7.96184701833,
			"0.003": 6.68370904941,
			"0.004": 6.34585767413,
			"0.005": 4.19216440955,
			"0.006": 4.32533069234,
			"0.007": 5.7001269368,
			"0.008": 5.58111974467,
			"0.009": 6.1464338598,
			"0.01": 6.80254390846,
			"0.011": 9.8359596525,
			"0.012": 5.58002993299,
			"0.013": 1.15874457128,
			"0.014": 0.0386038170943,
			"0.015": 0.0,
			"0.016": 0.0,
			"0.017": 0.0,
			"0.018": 0.0,
			"0.019": 0.0,
			"0.02": 0.0,
			"0.021": 0.0,
			"0.022": 0.0,
			"0.023": 0.0,
			"0.024": 0.0,
			"0.025": 0.0
		}
	}
}
