{
	 "smiles": "N(C1=CC=CC=C1)C1=CC=C2C=CC=CC2=C1", 
	 "Tm": 381.15, 
	 "num_atms": 30, 
	 "gaussian": { 
		 "optdone": 1, 
		 "sigma_profile": "yes", 
		 "theory": "DFT", 
		 "functional": "B3LYP", 
		 "basiset": "6-31G**", 
		 "properties": { 
			 "R2extent": 5902.0229, 
			 "electric_dipole_moment_norm": 0.765942230198, 
			 "electric_quadrupole_moment_norm": 8.72929491196, 
			 "total_energy": -672.304242702, 
			 "HOMO_LUMO_gap": 0.15086, 
			 "cosmo_polarized_energy": -8.89, 
			 "cosmo_cavitation_energy": 33.45, 
			 "cosmo_dispersion_energy": -24.76, 
			 "cosmo_repulsion_energy": 1.88, 
			 "cosmo_total_nonelectrostatic_energy": 10.56, 
			 "SMD_solvation_energy": 5.08 
		},
		"coords": [
			{
				"x": 0.8332573918,
				"y": 0.4015301384,
				"z": 0.4399447457,
				"element": "N" 
			},
			{
				"x": 1.0128998481,
				"y": 1.7291493956,
				"z": 0.8475370503,
				"element": "C" 
			},
			{
				"x": -0.0522995265,
				"y": 2.6337378858,
				"z": 1.0031656323,
				"element": "C" 
			},
			{
				"x": 0.198150214,
				"y": 3.9488277481,
				"z": 1.393449568,
				"element": "C" 
			},
			{
				"x": 1.500743731,
				"y": 4.3988627941,
				"z": 1.6139621927,
				"element": "C" 
			},
			{
				"x": 2.562493234,
				"y": 3.5080747348,
				"z": 1.4381261979,
				"element": "C" 
			},
			{
				"x": 2.3248562692,
				"y": 2.1876756365,
				"z": 1.0680147483,
				"element": "C" 
			},
			{
				"x": -0.3168454561,
				"y": -0.3919342778,
				"z": 0.498398815,
				"element": "C" 
			},
			{
				"x": -1.2759443952,
				"y": -0.233296239,
				"z": 1.5432779063,
				"element": "C" 
			},
			{
				"x": -2.3718456893,
				"y": -1.0581076334,
				"z": 1.612867337,
				"element": "C" 
			},
			{
				"x": -2.581704733,
				"y": -2.1016753348,
				"z": 0.6714451244,
				"element": "C" 
			},
			{
				"x": -3.7039307612,
				"y": -2.9682794247,
				"z": 0.727342174,
				"element": "C" 
			},
			{
				"x": -3.8670653721,
				"y": -3.9737979039,
				"z": -0.2001425097,
				"element": "C" 
			},
			{
				"x": -2.9075994657,
				"y": -4.1525769023,
				"z": -1.2269990964,
				"element": "C" 
			},
			{
				"x": -1.8068284034,
				"y": -3.3290702705,
				"z": -1.3075541965,
				"element": "C" 
			},
			{
				"x": -1.6086198367,
				"y": -2.2818892768,
				"z": -0.3653642413,
				"element": "C" 
			},
			{
				"x": -0.4964776701,
				"y": -1.4067548053,
				"z": -0.4295787117,
				"element": "C" 
			},
			{
				"x": 1.6096961324,
				"y": -0.0030038865,
				"z": -0.061509019,
				"element": "H" 
			},
			{
				"x": -1.0675209778,
				"y": 2.3148537712,
				"z": 0.7971210811,
				"element": "H" 
			},
			{
				"x": -0.6390449917,
				"y": 4.63198395,
				"z": 1.5082260489,
				"element": "H" 
			},
			{
				"x": 1.6863859745,
				"y": 5.4257678998,
				"z": 1.91259071,
				"element": "H" 
			},
			{
				"x": 3.584691268,
				"y": 3.8386714546,
				"z": 1.6003802844,
				"element": "H" 
			},
			{
				"x": 3.1553685348,
				"y": 1.4950331036,
				"z": 0.9537083617,
				"element": "H" 
			},
			{
				"x": -1.1190572574,
				"y": 0.5287780903,
				"z": 2.297738076,
				"element": "H" 
			},
			{
				"x": -3.0909872943,
				"y": -0.9277408419,
				"z": 2.4177878278,
				"element": "H" 
			},
			{
				"x": -4.4354602274,
				"y": -2.8248854349,
				"z": 1.5189457412,
				"element": "H" 
			},
			{
				"x": -4.7293712405,
				"y": -4.6318971698,
				"z": -0.1477298822,
				"element": "H" 
			},
			{
				"x": -3.0437620459,
				"y": -4.9473409765,
				"z": -1.9551297245,
				"element": "H" 
			},
			{
				"x": -1.072790527,
				"y": -3.4688421514,
				"z": -2.0972518822,
				"element": "H" 
			},
			{
				"x": 0.2268132733,
				"y": -1.5358540734,
				"z": -1.2320703593,
				"element": "H" 
			}
		],
		 "valence_orbital": [ 
			{
				"type": "occ",
				"energy": -0.278,
				"method": "rhf"
			},
			{
				"type": "occ",
				"energy": -0.24872,
				"method": "rhf"
			},
			{
				"type": "occ",
				"energy": -0.24442,
				"method": "rhf"
			},
			{
				"type": "occ",
				"energy": -0.21872,
				"method": "rhf"
			},
			{
				"type": "occ",
				"energy": -0.18547,
				"method": "rhf"
			},
			{
				"type": "unocc",
				"energy": -0.03461,
				"method": "rhf"
			},
			{
				"type": "unocc",
				"energy": -0.00916,
				"method": "rhf"
			},
			{
				"type": "unocc",
				"energy": 0.00025,
				"method": "rhf"
			},
			{
				"type": "unocc",
				"energy": 0.02037,
				"method": "rhf"
			},
			{
				"type": "unocc",
				"energy": 0.03746,
				"method": "rhf"
			}
		],
		"cosmo_sigma_profile": { 
			"-0.025": 0.0,
			"-0.024": 0.0,
			"-0.023": 0.0,
			"-0.022": 0.0,
			"-0.021": 0.0,
			"-0.02": 0.0,
			"-0.019": 0.0,
			"-0.018": 0.0,
			"-0.017": 0.0,
			"-0.016": 0.0,
			"-0.015": 0.0,
			"-0.014": 0.524787254991,
			"-0.013": 1.19609197373,
			"-0.012": 1.07380360313,
			"-0.011": 1.5513659461,
			"-0.01": 1.37667643096,
			"-0.009": 1.40118820974,
			"-0.008": 1.5545253988,
			"-0.007": 2.18438323072,
			"-0.006": 9.29977237796,
			"-0.005": 23.6671275414,
			"-0.004": 23.3007508978,
			"-0.003": 24.1403220193,
			"-0.002": 17.7593613545,
			"-0.001": 16.1973588146,
			"0.0": 14.1421768451,
			"0.001": 14.911252885,
			"0.002": 15.6479172179,
			"0.003": 19.223839946,
			"0.004": 28.3910884867,
			"0.005": 30.2020481259,
			"0.006": 16.3788227154,
			"0.007": 4.07612973929,
			"0.008": 0.0,
			"0.009": 0.0,
			"0.01": 0.0,
			"0.011": 0.0,
			"0.012": 0.0,
			"0.013": 0.0,
			"0.014": 0.0,
			"0.015": 0.0,
			"0.016": 0.0,
			"0.017": 0.0,
			"0.018": 0.0,
			"0.019": 0.0,
			"0.02": 0.0,
			"0.021": 0.0,
			"0.022": 0.0,
			"0.023": 0.0,
			"0.024": 0.0,
			"0.025": 0.0
		}
	}
}
