{
	 "smiles": "OC(=O)C1=C(Br)C=CC(=C1)S(Cl)(=O)=O", 
	 "Tm": 389.15, 
	 "num_atms": 18, 
	 "gaussian": { 
		 "optdone": 1, 
		 "sigma_profile": "yes", 
		 "theory": "DFT", 
		 "functional": "B3LYP", 
		 "basiset": "6-31G**", 
		 "properties": { 
			 "R2extent": 5385.7063, 
			 "electric_dipole_moment_norm": 6.46019425095, 
			 "electric_quadrupole_moment_norm": 9.31247855514, 
			 "total_energy": -3999.76332488, 
			 "HOMO_LUMO_gap": 0.19148, 
			 "cosmo_polarized_energy": -15.92, 
			 "cosmo_cavitation_energy": 28.92, 
			 "cosmo_dispersion_energy": -22.13, 
			 "cosmo_repulsion_energy": 1.69, 
			 "cosmo_total_nonelectrostatic_energy": 8.48, 
			 "SMD_solvation_energy": 3.83 
		},
		"coords": [
			{
				"x": -2.4355483906,
				"y": 2.3971266059,
				"z": -1.5745081779,
				"element": "O" 
			},
			{
				"x": -1.4074390858,
				"y": 2.3567836749,
				"z": -0.7180332835,
				"element": "C" 
			},
			{
				"x": -0.8948651724,
				"y": 3.3820199537,
				"z": -0.3331417369,
				"element": "O" 
			},
			{
				"x": -0.8680717396,
				"y": 1.0118037216,
				"z": -0.2364884258,
				"element": "C" 
			},
			{
				"x": -1.3498951631,
				"y": -0.2902287308,
				"z": -0.4624086558,
				"element": "C" 
			},
			{
				"x": -2.9126045367,
				"y": -0.6782509012,
				"z": -1.5111834636,
				"element": "Br" 
			},
			{
				"x": -0.7225409789,
				"y": -1.4180044619,
				"z": 0.0771628315,
				"element": "C" 
			},
			{
				"x": 0.4175402273,
				"y": -1.2781664846,
				"z": 0.857984797,
				"element": "C" 
			},
			{
				"x": 0.9041804161,
				"y": 0.0092720118,
				"z": 1.0840239677,
				"element": "C" 
			},
			{
				"x": 0.2837798907,
				"y": 1.132920633,
				"z": 0.560313298,
				"element": "C" 
			},
			{
				"x": 2.3597290761,
				"y": 0.2142497569,
				"z": 2.1097271842,
				"element": "S" 
			},
			{
				"x": 3.8987258201,
				"y": 0.1334786105,
				"z": 0.6447514714,
				"element": "Cl" 
			},
			{
				"x": 2.3771666779,
				"y": 1.562102354,
				"z": 2.6580648515,
				"element": "O" 
			},
			{
				"x": 2.5158894219,
				"y": -0.9755419693,
				"z": 2.9364837471,
				"element": "O" 
			},
			{
				"x": -2.7659235756,
				"y": 1.5105475323,
				"z": -1.8017651374,
				"element": "H" 
			},
			{
				"x": -1.1333100262,
				"y": -2.4020258022,
				"z": -0.1147770526,
				"element": "H" 
			},
			{
				"x": 0.9100503491,
				"y": -2.1423550544,
				"z": 1.2891114826,
				"element": "H" 
			},
			{
				"x": 0.6581367896,
				"y": 2.1315685499,
				"z": 0.7553823025,
				"element": "H" 
			}
		],
		 "valence_orbital": [ 
			{
				"type": "occ",
				"energy": -0.33574,
				"method": "rhf"
			},
			{
				"type": "occ",
				"energy": -0.32498,
				"method": "rhf"
			},
			{
				"type": "occ",
				"energy": -0.31047,
				"method": "rhf"
			},
			{
				"type": "occ",
				"energy": -0.30008,
				"method": "rhf"
			},
			{
				"type": "occ",
				"energy": -0.2983,
				"method": "rhf"
			},
			{
				"type": "unocc",
				"energy": -0.10682,
				"method": "rhf"
			},
			{
				"type": "unocc",
				"energy": -0.08729,
				"method": "rhf"
			},
			{
				"type": "unocc",
				"energy": -0.06573,
				"method": "rhf"
			},
			{
				"type": "unocc",
				"energy": -0.04994,
				"method": "rhf"
			},
			{
				"type": "unocc",
				"energy": 0.0073,
				"method": "rhf"
			}
		],
		"cosmo_sigma_profile": { 
			"-0.025": 0.0,
			"-0.024": 0.0,
			"-0.023": 0.0,
			"-0.022": 0.0,
			"-0.021": 0.0,
			"-0.02": 0.0,
			"-0.019": 0.0,
			"-0.018": 0.0,
			"-0.017": 0.0,
			"-0.016": 0.0,
			"-0.015": 0.0,
			"-0.014": 0.0,
			"-0.013": 0.0102299578235,
			"-0.012": 0.337781728355,
			"-0.011": 1.40907774187,
			"-0.01": 3.52494157494,
			"-0.009": 6.22921759098,
			"-0.008": 6.14344888934,
			"-0.007": 9.73990016055,
			"-0.006": 9.52851324248,
			"-0.005": 10.4626809485,
			"-0.004": 13.0777572687,
			"-0.003": 20.984781375,
			"-0.002": 25.5590572956,
			"-0.001": 17.5465665994,
			"0.0": 14.4288587419,
			"0.001": 13.1418093074,
			"0.002": 16.0564945896,
			"0.003": 14.8302234496,
			"0.004": 6.66700660828,
			"0.005": 4.80132812019,
			"0.006": 6.05253383674,
			"0.007": 9.89798515295,
			"0.008": 12.0687692328,
			"0.009": 5.87376976248,
			"0.01": 4.95016918433,
			"0.011": 4.00593038181,
			"0.012": 2.03900052997,
			"0.013": 0.254136620565,
			"0.014": 0.0,
			"0.015": 0.0,
			"0.016": 0.0,
			"0.017": 0.0,
			"0.018": 0.0,
			"0.019": 0.0,
			"0.02": 0.0,
			"0.021": 0.0,
			"0.022": 0.0,
			"0.023": 0.0,
			"0.024": 0.0,
			"0.025": 0.0
		}
	}
}
