{
	 "smiles": "NC1=C(C=CC(=C1)C(F)(F)F)N1C=NC=N1", 
	 "Tm": 393.15, 
	 "num_atms": 23, 
	 "gaussian": { 
		 "optdone": 1, 
		 "sigma_profile": "yes", 
		 "theory": "DFT", 
		 "functional": "B3LYP", 
		 "basiset": "6-31G**", 
		 "properties": { 
			 "R2extent": 4581.0766, 
			 "electric_dipole_moment_norm": 2.05405019656, 
			 "electric_quadrupole_moment_norm": 17.9334046935, 
			 "total_energy": -865.693164363, 
			 "HOMO_LUMO_gap": 0.18521, 
			 "cosmo_polarized_energy": -13.33, 
			 "cosmo_cavitation_energy": 29.19, 
			 "cosmo_dispersion_energy": -20.94, 
			 "cosmo_repulsion_energy": 1.54, 
			 "cosmo_total_nonelectrostatic_energy": 9.79, 
			 "SMD_solvation_energy": 4.24 
		},
		"coords": [
			{
				"x": 1.6212107238,
				"y": 1.5433474317,
				"z": -0.4990351772,
				"element": "N" 
			},
			{
				"x": 0.730883967,
				"y": 0.8140001686,
				"z": 0.2895729478,
				"element": "C" 
			},
			{
				"x": 0.1627650615,
				"y": -0.3997039002,
				"z": -0.1557655828,
				"element": "C" 
			},
			{
				"x": -0.7189050467,
				"y": -1.1182241807,
				"z": 0.6539377766,
				"element": "C" 
			},
			{
				"x": -1.0385179475,
				"y": -0.6669498426,
				"z": 1.9288758195,
				"element": "C" 
			},
			{
				"x": -0.4566231832,
				"y": 0.5158188903,
				"z": 2.3934867433,
				"element": "C" 
			},
			{
				"x": 0.410573138,
				"y": 1.2457808322,
				"z": 1.5859823045,
				"element": "C" 
			},
			{
				"x": -0.8293460259,
				"y": 1.0465225873,
				"z": 3.7523222674,
				"element": "C" 
			},
			{
				"x": 0.1342367704,
				"y": 1.8426977801,
				"z": 4.2674529099,
				"element": "F" 
			},
			{
				"x": -1.96319532,
				"y": 1.7837288478,
				"z": 3.7031311331,
				"element": "F" 
			},
			{
				"x": -1.0490134502,
				"y": 0.0488451656,
				"z": 4.6356010201,
				"element": "F" 
			},
			{
				"x": 0.4697855888,
				"y": -0.9092190841,
				"z": -1.4505753963,
				"element": "N" 
			},
			{
				"x": 1.6731113214,
				"y": -1.020981288,
				"z": -2.0832525538,
				"element": "C" 
			},
			{
				"x": 1.5349805822,
				"y": -1.6563121883,
				"z": -3.2312630535,
				"element": "N" 
			},
			{
				"x": 0.2000297827,
				"y": -1.9358509397,
				"z": -3.2569090484,
				"element": "C" 
			},
			{
				"x": -0.4906583768,
				"y": -1.5150423734,
				"z": -2.2099180295,
				"element": "N" 
			},
			{
				"x": 1.4524467287,
				"y": 1.4925366873,
				"z": -1.4961796014,
				"element": "H" 
			},
			{
				"x": 1.753489919,
				"y": 2.4985053377,
				"z": -0.1939158343,
				"element": "H" 
			},
			{
				"x": -1.1460575034,
				"y": -2.0328575587,
				"z": 0.2599844007,
				"element": "H" 
			},
			{
				"x": -1.7141653379,
				"y": -1.2320974334,
				"z": 2.5597843091,
				"element": "H" 
			},
			{
				"x": 0.8451784509,
				"y": 2.1674900517,
				"z": 1.9592509823,
				"element": "H" 
			},
			{
				"x": 2.5908461213,
				"y": -0.6363516827,
				"z": -1.6624598774,
				"element": "H" 
			},
			{
				"x": -0.2780559638,
				"y": -2.4595833082,
				"z": -4.0733084597,
				"element": "H" 
			}
		],
		 "valence_orbital": [ 
			{
				"type": "occ",
				"energy": -0.31928,
				"method": "rhf"
			},
			{
				"type": "occ",
				"energy": -0.28704,
				"method": "rhf"
			},
			{
				"type": "occ",
				"energy": -0.28264,
				"method": "rhf"
			},
			{
				"type": "occ",
				"energy": -0.26231,
				"method": "rhf"
			},
			{
				"type": "occ",
				"energy": -0.23094,
				"method": "rhf"
			},
			{
				"type": "unocc",
				"energy": -0.04573,
				"method": "rhf"
			},
			{
				"type": "unocc",
				"energy": -0.01566,
				"method": "rhf"
			},
			{
				"type": "unocc",
				"energy": 0.00556,
				"method": "rhf"
			},
			{
				"type": "unocc",
				"energy": 0.04026,
				"method": "rhf"
			},
			{
				"type": "unocc",
				"energy": 0.0692,
				"method": "rhf"
			}
		],
		"cosmo_sigma_profile": { 
			"-0.025": 0.0,
			"-0.024": 0.0,
			"-0.023": 0.0,
			"-0.022": 0.0,
			"-0.021": 0.0,
			"-0.02": 0.0,
			"-0.019": 0.0,
			"-0.018": 0.0,
			"-0.017": 0.0,
			"-0.016": 0.0,
			"-0.015": 0.0,
			"-0.014": 0.648733882692,
			"-0.013": 2.23652701831,
			"-0.012": 3.00851500201,
			"-0.011": 3.61947453156,
			"-0.01": 3.61861728005,
			"-0.009": 5.26629412453,
			"-0.008": 6.99882356332,
			"-0.007": 5.95125429454,
			"-0.006": 9.91510178519,
			"-0.005": 8.94810819563,
			"-0.004": 9.00155048566,
			"-0.003": 9.20310648119,
			"-0.002": 13.2915694291,
			"-0.001": 11.03397328,
			"0.0": 14.5420399056,
			"0.001": 19.2019684287,
			"0.002": 32.1071797627,
			"0.003": 39.8104917011,
			"0.004": 7.60443054081,
			"0.005": 3.9660291225,
			"0.006": 3.52858290539,
			"0.007": 2.94041064131,
			"0.008": 3.73718843555,
			"0.009": 2.74723033269,
			"0.01": 2.24089796165,
			"0.011": 2.76611479872,
			"0.012": 1.66895734094,
			"0.013": 2.26092008434,
			"0.014": 0.981546886001,
			"0.015": 1.23812567506,
			"0.016": 0.774909788073,
			"0.017": 0.0649561540371,
			"0.018": 0.0,
			"0.019": 0.0,
			"0.02": 0.0,
			"0.021": 0.0,
			"0.022": 0.0,
			"0.023": 0.0,
			"0.024": 0.0,
			"0.025": 0.0
		}
	}
}
