{
	 "smiles": "NC1=CC(N)=CC=C1", 
	 "Tm": 337.15, 
	 "num_atms": 16, 
	 "gaussian": { 
		 "optdone": 1, 
		 "sigma_profile": "yes", 
		 "theory": "DFT", 
		 "functional": "B3LYP", 
		 "basiset": "6-31G**", 
		 "properties": { 
			 "R2extent": 1143.7971, 
			 "electric_dipole_moment_norm": 2.51136367339, 
			 "electric_quadrupole_moment_norm": 12.5735558797, 
			 "total_energy": -342.967579708, 
			 "HOMO_LUMO_gap": 0.20562, 
			 "cosmo_polarized_energy": -12.13, 
			 "cosmo_cavitation_energy": 19.39, 
			 "cosmo_dispersion_energy": -14.74, 
			 "cosmo_repulsion_energy": 1.24, 
			 "cosmo_total_nonelectrostatic_energy": 5.88, 
			 "SMD_solvation_energy": 3.26 
		},
		"coords": [
			{
				"x": -3.1921693376,
				"y": 0.5411084746,
				"z": -1.1626647006,
				"element": "N" 
			},
			{
				"x": -2.0730579813,
				"y": 0.3089679513,
				"z": -0.3555293054,
				"element": "C" 
			},
			{
				"x": -0.7908613291,
				"y": 0.6412366172,
				"z": -0.8149469948,
				"element": "C" 
			},
			{
				"x": 0.335018052,
				"y": 0.4715156684,
				"z": 0.0030339125,
				"element": "C" 
			},
			{
				"x": 1.5994293229,
				"y": 0.8645910782,
				"z": -0.4492027272,
				"element": "N" 
			},
			{
				"x": 0.172493732,
				"y": -0.0469886815,
				"z": 1.299668662,
				"element": "C" 
			},
			{
				"x": -1.1038700525,
				"y": -0.3771824322,
				"z": 1.7488473933,
				"element": "C" 
			},
			{
				"x": -2.2269195559,
				"y": -0.2089259536,
				"z": 0.9424064876,
				"element": "C" 
			},
			{
				"x": -3.9954267898,
				"y": -0.0322105469,
				"z": -0.9430867876,
				"element": "H" 
			},
			{
				"x": -3.0055061682,
				"y": 0.5516843549,
				"z": -2.1562765754,
				"element": "H" 
			},
			{
				"x": -0.6695651801,
				"y": 1.0517876548,
				"z": -1.815699887,
				"element": "H" 
			},
			{
				"x": 2.3725934288,
				"y": 0.3977007202,
				"z": 0.0050639465,
				"element": "H" 
			},
			{
				"x": 1.7092512765,
				"y": 0.8700256412,
				"z": -1.4542545135,
				"element": "H" 
			},
			{
				"x": 1.0382213911,
				"y": -0.1800120831,
				"z": 1.9425268981,
				"element": "H" 
			},
			{
				"x": -1.2257873799,
				"y": -0.7809115582,
				"z": 2.7507144571,
				"element": "H" 
			},
			{
				"x": -3.2165434288,
				"y": -0.4671869054,
				"z": 1.3089997345,
				"element": "H" 
			}
		],
		 "valence_orbital": [ 
			{
				"type": "occ",
				"energy": -0.33475,
				"method": "rhf"
			},
			{
				"type": "occ",
				"energy": -0.32452,
				"method": "rhf"
			},
			{
				"type": "occ",
				"energy": -0.27414,
				"method": "rhf"
			},
			{
				"type": "occ",
				"energy": -0.20503,
				"method": "rhf"
			},
			{
				"type": "occ",
				"energy": -0.18413,
				"method": "rhf"
			},
			{
				"type": "unocc",
				"energy": 0.02149,
				"method": "rhf"
			},
			{
				"type": "unocc",
				"energy": 0.03586,
				"method": "rhf"
			},
			{
				"type": "unocc",
				"energy": 0.08481,
				"method": "rhf"
			},
			{
				"type": "unocc",
				"energy": 0.09276,
				"method": "rhf"
			},
			{
				"type": "unocc",
				"energy": 0.11786,
				"method": "rhf"
			}
		],
		"cosmo_sigma_profile": { 
			"-0.025": 0.0,
			"-0.024": 0.0,
			"-0.023": 0.0,
			"-0.022": 0.0,
			"-0.021": 0.0,
			"-0.02": 0.0,
			"-0.019": 0.0,
			"-0.018": 0.0,
			"-0.017": 0.0,
			"-0.016": 0.0,
			"-0.015": 0.0,
			"-0.014": 0.0,
			"-0.013": 0.0287008974792,
			"-0.012": 2.81657678742,
			"-0.011": 5.40482090498,
			"-0.01": 4.40843598742,
			"-0.009": 5.99303983546,
			"-0.008": 6.24758254755,
			"-0.007": 5.32266734911,
			"-0.006": 5.24991989266,
			"-0.005": 9.57178264943,
			"-0.004": 8.57793240198,
			"-0.003": 7.76905835987,
			"-0.002": 7.9737704103,
			"-0.001": 7.11497830397,
			"0.0": 5.69934827985,
			"0.001": 6.08034590324,
			"0.002": 5.87273362594,
			"0.003": 5.15653668974,
			"0.004": 6.0368295308,
			"0.005": 5.98813295056,
			"0.006": 7.66825109777,
			"0.007": 10.3885177522,
			"0.008": 11.1543131072,
			"0.009": 3.65030224162,
			"0.01": 1.25557958169,
			"0.011": 1.56423509665,
			"0.012": 1.72729217329,
			"0.013": 1.31795194594,
			"0.014": 1.46687945679,
			"0.015": 1.10974477861,
			"0.016": 0.125638422473,
			"0.017": 0.0,
			"0.018": 0.0,
			"0.019": 0.0,
			"0.02": 0.0,
			"0.021": 0.0,
			"0.022": 0.0,
			"0.023": 0.0,
			"0.024": 0.0,
			"0.025": 0.0
		}
	}
}
