{
	 "smiles": "C1=CN(C=N1)C(C1=CC=CC=C1)C1=CC=C(C=C1)C1=CC=CC=C1", 
	 "Tm": 415.15, 
	 "num_atms": 42, 
	 "gaussian": { 
		 "optdone": 1, 
		 "sigma_profile": "yes", 
		 "theory": "DFT", 
		 "functional": "B3LYP", 
		 "basiset": "6-31G**", 
		 "properties": { 
			 "R2extent": 10700.7634, 
			 "electric_dipole_moment_norm": 4.27511843228, 
			 "electric_quadrupole_moment_norm": 22.3878720396, 
			 "total_energy": -958.6905366, 
			 "HOMO_LUMO_gap": 0.1843, 
			 "cosmo_polarized_energy": -14.4, 
			 "cosmo_cavitation_energy": 45.73, 
			 "cosmo_dispersion_energy": -31.4, 
			 "cosmo_repulsion_energy": 2.36, 
			 "cosmo_total_nonelectrostatic_energy": 16.69, 
			 "SMD_solvation_energy": 6.29 
		},
		"coords": [
			{
				"x": 3.2419568288,
				"y": 3.5848599839,
				"z": 1.1231231432,
				"element": "C" 
			},
			{
				"x": 2.1385734683,
				"y": 3.2856206717,
				"z": 0.3619984949,
				"element": "C" 
			},
			{
				"x": 1.3893686769,
				"y": 2.4078061865,
				"z": 1.1256155276,
				"element": "N" 
			},
			{
				"x": 2.0857553466,
				"y": 2.2222432148,
				"z": 2.2911482513,
				"element": "C" 
			},
			{
				"x": 3.2015717136,
				"y": 2.9180219741,
				"z": 2.3272860596,
				"element": "N" 
			},
			{
				"x": 0.1573599077,
				"y": 1.7001092484,
				"z": 0.7471045376,
				"element": "C" 
			},
			{
				"x": -0.7548612225,
				"y": 2.6116555582,
				"z": -0.0760208502,
				"element": "C" 
			},
			{
				"x": -0.8100428595,
				"y": 2.540094984,
				"z": -1.4726220865,
				"element": "C" 
			},
			{
				"x": -1.6291267164,
				"y": 3.4118336547,
				"z": -2.193869378,
				"element": "C" 
			},
			{
				"x": -2.4056514337,
				"y": 4.3599364753,
				"z": -1.5271922836,
				"element": "C" 
			},
			{
				"x": -2.359082746,
				"y": 4.4352397796,
				"z": -0.1330100374,
				"element": "C" 
			},
			{
				"x": -1.5384171536,
				"y": 3.567069429,
				"z": 0.5852393267,
				"element": "C" 
			},
			{
				"x": 0.4320445477,
				"y": 0.3444572559,
				"z": 0.0975315505,
				"element": "C" 
			},
			{
				"x": -0.6083636411,
				"y": -0.5923768264,
				"z": 0.0248871154,
				"element": "C" 
			},
			{
				"x": -0.4091830046,
				"y": -1.8394401695,
				"z": -0.5578043927,
				"element": "C" 
			},
			{
				"x": 0.8421759323,
				"y": -2.1998847135,
				"z": -1.0890457311,
				"element": "C" 
			},
			{
				"x": 1.8793303427,
				"y": -1.2582639307,
				"z": -1.008344092,
				"element": "C" 
			},
			{
				"x": 1.6800925801,
				"y": -0.006557465,
				"z": -0.4246679255,
				"element": "C" 
			},
			{
				"x": 1.0579786183,
				"y": -3.5318176833,
				"z": -1.7093154656,
				"element": "C" 
			},
			{
				"x": 0.4542365195,
				"y": -4.6836486743,
				"z": -1.1763302514,
				"element": "C" 
			},
			{
				"x": 0.6564836517,
				"y": -5.9337736554,
				"z": -1.7593989864,
				"element": "C" 
			},
			{
				"x": 1.468283385,
				"y": -6.0604177681,
				"z": -2.8882000484,
				"element": "C" 
			},
			{
				"x": 2.0754616586,
				"y": -4.9252596315,
				"z": -3.4286398491,
				"element": "C" 
			},
			{
				"x": 1.8718634742,
				"y": -3.6751354598,
				"z": -2.8461402086,
				"element": "C" 
			},
			{
				"x": 4.0564954851,
				"y": 4.2515232715,
				"z": 0.8746441113,
				"element": "H" 
			},
			{
				"x": 1.8078873873,
				"y": 3.6206494694,
				"z": -0.6078738356,
				"element": "H" 
			},
			{
				"x": 1.7223483244,
				"y": 1.564550081,
				"z": 3.0701109755,
				"element": "H" 
			},
			{
				"x": -0.3591949016,
				"y": 1.5052781102,
				"z": 1.6945977739,
				"element": "H" 
			},
			{
				"x": -0.2194840065,
				"y": 1.7949779339,
				"z": -1.9962052875,
				"element": "H" 
			},
			{
				"x": -1.6624489421,
				"y": 3.34466548,
				"z": -3.2775156519,
				"element": "H" 
			},
			{
				"x": -3.0463410061,
				"y": 5.0336603807,
				"z": -2.0887020988,
				"element": "H" 
			},
			{
				"x": -2.9634462703,
				"y": 5.1675168362,
				"z": 0.3945169029,
				"element": "H" 
			},
			{
				"x": -1.4999657279,
				"y": 3.6329278564,
				"z": 1.6698885236,
				"element": "H" 
			},
			{
				"x": -1.5898508813,
				"y": -0.3368384844,
				"z": 0.4174175794,
				"element": "H" 
			},
			{
				"x": -1.2388772017,
				"y": -2.5370453357,
				"z": -0.6220517625,
				"element": "H" 
			},
			{
				"x": 2.8660616789,
				"y": -1.5172109806,
				"z": -1.3804113529,
				"element": "H" 
			},
			{
				"x": 2.5080421156,
				"y": 0.6922806848,
				"z": -0.3627022422,
				"element": "H" 
			},
			{
				"x": -0.1568098629,
				"y": -4.6009169671,
				"z": -0.282274762,
				"element": "H" 
			},
			{
				"x": 0.186407441,
				"y": -6.8117775851,
				"z": -1.325343127,
				"element": "H" 
			},
			{
				"x": 1.6264895208,
				"y": -7.0343519619,
				"z": -3.3421242634,
				"element": "H" 
			},
			{
				"x": 2.7026694971,
				"y": -5.0112097346,
				"z": -4.3115207738,
				"element": "H" 
			},
			{
				"x": 2.3277094757,
				"y": -2.7950514935,
				"z": -3.2901831295,
				"element": "H" 
			}
		],
		 "valence_orbital": [ 
			{
				"type": "occ",
				"energy": -0.25607,
				"method": "rhf"
			},
			{
				"type": "occ",
				"energy": -0.25302,
				"method": "rhf"
			},
			{
				"type": "occ",
				"energy": -0.24871,
				"method": "rhf"
			},
			{
				"type": "occ",
				"energy": -0.22766,
				"method": "rhf"
			},
			{
				"type": "occ",
				"energy": -0.21814,
				"method": "rhf"
			},
			{
				"type": "unocc",
				"energy": -0.03384,
				"method": "rhf"
			},
			{
				"type": "unocc",
				"energy": -0.01984,
				"method": "rhf"
			},
			{
				"type": "unocc",
				"energy": -0.01401,
				"method": "rhf"
			},
			{
				"type": "unocc",
				"energy": -0.00592,
				"method": "rhf"
			},
			{
				"type": "unocc",
				"energy": -0.00275,
				"method": "rhf"
			}
		],
		"cosmo_sigma_profile": { 
			"-0.025": 0.0,
			"-0.024": 0.0,
			"-0.023": 0.0,
			"-0.022": 0.0,
			"-0.021": 0.0,
			"-0.02": 0.0,
			"-0.019": 0.0,
			"-0.018": 0.0,
			"-0.017": 0.0,
			"-0.016": 0.0,
			"-0.015": 0.0,
			"-0.014": 0.0,
			"-0.013": 0.0,
			"-0.012": 0.0,
			"-0.011": 0.0,
			"-0.01": 0.0,
			"-0.009": 1.55323017706,
			"-0.008": 4.37507388057,
			"-0.007": 6.16503931396,
			"-0.006": 20.2521439832,
			"-0.005": 32.2237115545,
			"-0.004": 35.9938524133,
			"-0.003": 32.7612732008,
			"-0.002": 24.5878299676,
			"-0.001": 22.6527246057,
			"0.0": 21.3056688333,
			"0.001": 24.488942995,
			"0.002": 25.2573718751,
			"0.003": 30.2008686347,
			"0.004": 29.2695894985,
			"0.005": 27.8446865669,
			"0.006": 11.326912162,
			"0.007": 2.35654088465,
			"0.008": 1.37062458597,
			"0.009": 1.97411251567,
			"0.01": 1.82989422259,
			"0.011": 1.05653476126,
			"0.012": 1.29354160596,
			"0.013": 1.30259058178,
			"0.014": 0.913946088767,
			"0.015": 1.49196048178,
			"0.016": 0.852906242899,
			"0.017": 1.29135095336,
			"0.018": 0.834794845586,
			"0.019": 0.153105794483,
			"0.02": 0.0,
			"0.021": 0.0,
			"0.022": 0.0,
			"0.023": 0.0,
			"0.024": 0.0,
			"0.025": 0.0
		}
	}
}
