{
	 "smiles": "OC1=CC=CC=C1C(F)(F)F", 
	 "Tm": 318.95, 
	 "num_atms": 16, 
	 "gaussian": { 
		 "optdone": 1, 
		 "sigma_profile": "yes", 
		 "theory": "DFT", 
		 "functional": "B3LYP", 
		 "basiset": "6-31G**", 
		 "properties": { 
			 "R2extent": 2391.9683, 
			 "electric_dipole_moment_norm": 3.74642242813, 
			 "electric_quadrupole_moment_norm": 11.5440674383, 
			 "total_energy": -644.503293445, 
			 "HOMO_LUMO_gap": 0.21296, 
			 "cosmo_polarized_energy": -9.27, 
			 "cosmo_cavitation_energy": 21.46, 
			 "cosmo_dispersion_energy": -15.63, 
			 "cosmo_repulsion_energy": 1.2, 
			 "cosmo_total_nonelectrostatic_energy": 7.03, 
			 "SMD_solvation_energy": 5.25 
		},
		"coords": [
			{
				"x": 1.1125985847,
				"y": -0.699351274,
				"z": 3.1341496361,
				"element": "O" 
			},
			{
				"x": 1.0677783124,
				"y": -0.4786091417,
				"z": 1.7926166835,
				"element": "C" 
			},
			{
				"x": 1.6857513627,
				"y": -1.3299880076,
				"z": 0.8713947966,
				"element": "C" 
			},
			{
				"x": 1.610953302,
				"y": -1.0600487646,
				"z": -0.4942263984,
				"element": "C" 
			},
			{
				"x": 0.9199578293,
				"y": 0.060356965,
				"z": -0.955119343,
				"element": "C" 
			},
			{
				"x": 0.3037033923,
				"y": 0.9092418938,
				"z": -0.0361546779,
				"element": "C" 
			},
			{
				"x": 0.3689003861,
				"y": 0.6535328036,
				"z": 1.33453149,
				"element": "C" 
			},
			{
				"x": -0.2995078586,
				"y": 1.5755037431,
				"z": 2.3197786626,
				"element": "C" 
			},
			{
				"x": -0.9195128389,
				"y": 2.6038742391,
				"z": 1.6933209929,
				"element": "F" 
			},
			{
				"x": 0.583347098,
				"y": 2.116675114,
				"z": 3.1868285774,
				"element": "F" 
			},
			{
				"x": -1.2369089347,
				"y": 0.9385751557,
				"z": 3.0543908031,
				"element": "F" 
			},
			{
				"x": 1.6195262567,
				"y": -1.5026836566,
				"z": 3.3097118207,
				"element": "H" 
			},
			{
				"x": 2.2249041611,
				"y": -2.2040839516,
				"z": 1.2302334992,
				"element": "H" 
			},
			{
				"x": 2.0963822368,
				"y": -1.7311506267,
				"z": -1.1967470556,
				"element": "H" 
			},
			{
				"x": 0.8604392395,
				"y": 0.2724399558,
				"z": -2.0173789791,
				"element": "H" 
			},
			{
				"x": -0.2376125296,
				"y": 1.7845155527,
				"z": -0.3761305083,
				"element": "H" 
			}
		],
		 "valence_orbital": [ 
			{
				"type": "occ",
				"energy": -0.37233,
				"method": "rhf"
			},
			{
				"type": "occ",
				"energy": -0.34868,
				"method": "rhf"
			},
			{
				"type": "occ",
				"energy": -0.34749,
				"method": "rhf"
			},
			{
				"type": "occ",
				"energy": -0.26917,
				"method": "rhf"
			},
			{
				"type": "occ",
				"energy": -0.23734,
				"method": "rhf"
			},
			{
				"type": "unocc",
				"energy": -0.02438,
				"method": "rhf"
			},
			{
				"type": "unocc",
				"energy": -0.00331,
				"method": "rhf"
			},
			{
				"type": "unocc",
				"energy": 0.05892,
				"method": "rhf"
			},
			{
				"type": "unocc",
				"energy": 0.08643,
				"method": "rhf"
			},
			{
				"type": "unocc",
				"energy": 0.13039,
				"method": "rhf"
			}
		],
		"cosmo_sigma_profile": { 
			"-0.025": 0.0,
			"-0.024": 0.0,
			"-0.023": 0.0,
			"-0.022": 0.0,
			"-0.021": 0.0,
			"-0.02": 0.0,
			"-0.019": 0.140456764079,
			"-0.018": 1.07697935644,
			"-0.017": 1.50158679941,
			"-0.016": 0.722784684761,
			"-0.015": 0.943212783381,
			"-0.014": 1.24528909211,
			"-0.013": 1.34365953985,
			"-0.012": 0.421300896907,
			"-0.011": 0.805050017428,
			"-0.01": 1.40060248828,
			"-0.009": 0.983691769388,
			"-0.008": 1.2635436383,
			"-0.007": 3.54991576412,
			"-0.006": 7.76869146952,
			"-0.005": 8.08086198327,
			"-0.004": 8.17448723207,
			"-0.003": 6.52667333647,
			"-0.002": 6.99224206029,
			"-0.001": 8.1696949904,
			"0.0": 9.8336461004,
			"0.001": 11.7316526074,
			"0.002": 19.4412510595,
			"0.003": 35.8059346991,
			"0.004": 16.6358004148,
			"0.005": 6.39957622531,
			"0.006": 3.00316117453,
			"0.007": 2.16301192789,
			"0.008": 2.50457636861,
			"0.009": 3.12517775589,
			"0.01": 0.271641431082,
			"0.011": 0.0,
			"0.012": 0.0,
			"0.013": 0.0,
			"0.014": 0.0,
			"0.015": 0.0,
			"0.016": 0.0,
			"0.017": 0.0,
			"0.018": 0.0,
			"0.019": 0.0,
			"0.02": 0.0,
			"0.021": 0.0,
			"0.022": 0.0,
			"0.023": 0.0,
			"0.024": 0.0,
			"0.025": 0.0
		}
	}
}
