{
	 "smiles": "NC1=CC(=C(N)C=C1)S(=O)(=O)NC1=C(Cl)C=CC=C1", 
	 "Tm": 487.15, 
	 "num_atms": 31, 
	 "gaussian": { 
		 "optdone": 1, 
		 "sigma_profile": "yes", 
		 "theory": "DFT", 
		 "functional": "B3LYP", 
		 "basiset": "6-31G**", 
		 "properties": { 
			 "R2extent": 7559.3523, 
			 "electric_dipole_moment_norm": 6.9295054369, 
			 "electric_quadrupole_moment_norm": 17.1549988686, 
			 "total_energy": -1637.52478255, 
			 "HOMO_LUMO_gap": 0.16531, 
			 "cosmo_polarized_energy": -22.98, 
			 "cosmo_cavitation_energy": 37.55, 
			 "cosmo_dispersion_energy": -26.79, 
			 "cosmo_repulsion_energy": 2.04, 
			 "cosmo_total_nonelectrostatic_energy": 12.8, 
			 "SMD_solvation_energy": 5.15 
		},
		"coords": [
			{
				"x": -0.0846128679,
				"y": 2.850151137,
				"z": -3.4780511381,
				"element": "N" 
			},
			{
				"x": 0.2064785311,
				"y": 2.0785242926,
				"z": -2.3470420949,
				"element": "C" 
			},
			{
				"x": -0.7558029435,
				"y": 1.8653955477,
				"z": -1.350984679,
				"element": "C" 
			},
			{
				"x": -0.473111898,
				"y": 1.0446520078,
				"z": -0.2605376763,
				"element": "C" 
			},
			{
				"x": 0.7764567899,
				"y": 0.4119036352,
				"z": -0.0974102926,
				"element": "C" 
			},
			{
				"x": 1.0163387949,
				"y": -0.4567108676,
				"z": 0.9839136958,
				"element": "N" 
			},
			{
				"x": 1.7242591901,
				"y": 0.6270921137,
				"z": -1.1078407587,
				"element": "C" 
			},
			{
				"x": 1.4476929671,
				"y": 1.4349653753,
				"z": -2.2066898503,
				"element": "C" 
			},
			{
				"x": -1.7615203548,
				"y": 0.7721174908,
				"z": 0.9549895972,
				"element": "S" 
			},
			{
				"x": -1.1570823686,
				"y": 0.9394845831,
				"z": 2.2835781935,
				"element": "O" 
			},
			{
				"x": -2.9519471523,
				"y": 1.5118094504,
				"z": 0.5489266469,
				"element": "O" 
			},
			{
				"x": -2.1172198336,
				"y": -0.8933144498,
				"z": 0.8483516536,
				"element": "N" 
			},
			{
				"x": -2.8469071773,
				"y": -1.3801471646,
				"z": -0.2784451633,
				"element": "C" 
			},
			{
				"x": -4.2504403846,
				"y": -1.4620503135,
				"z": -0.2409022218,
				"element": "C" 
			},
			{
				"x": -5.1417688214,
				"y": -0.977712229,
				"z": 1.1803409354,
				"element": "Cl" 
			},
			{
				"x": -4.9580872446,
				"y": -1.9676782524,
				"z": -1.332790997,
				"element": "C" 
			},
			{
				"x": -4.2753064158,
				"y": -2.4142877209,
				"z": -2.4632980536,
				"element": "C" 
			},
			{
				"x": -2.8819393191,
				"y": -2.3577647608,
				"z": -2.5071212603,
				"element": "C" 
			},
			{
				"x": -2.1790122465,
				"y": -1.8367356564,
				"z": -1.4233035474,
				"element": "C" 
			},
			{
				"x": 0.720393705,
				"y": 3.2763314402,
				"z": -3.9172461712,
				"element": "H" 
			},
			{
				"x": -0.8294671969,
				"y": 3.5216701056,
				"z": -3.3484530705,
				"element": "H" 
			},
			{
				"x": -1.7370750773,
				"y": 2.3248960048,
				"z": -1.413146065,
				"element": "H" 
			},
			{
				"x": 0.6899264459,
				"y": -0.0805609524,
				"z": 1.8709539875,
				"element": "H" 
			},
			{
				"x": 1.982062649,
				"y": -0.7544451603,
				"z": 1.0449450035,
				"element": "H" 
			},
			{
				"x": 2.7015815763,
				"y": 0.1576857993,
				"z": -1.0244807511,
				"element": "H" 
			},
			{
				"x": 2.210747908,
				"y": 1.5739814484,
				"z": -2.9684404149,
				"element": "H" 
			},
			{
				"x": -1.2516086042,
				"y": -1.4035755864,
				"z": 1.0282632742,
				"element": "H" 
			},
			{
				"x": -6.0399411616,
				"y": -2.0193190272,
				"z": -1.2815143353,
				"element": "H" 
			},
			{
				"x": -4.8356756448,
				"y": -2.8115160217,
				"z": -3.304215921,
				"element": "H" 
			},
			{
				"x": -2.3440957479,
				"y": -2.7081171323,
				"z": -3.3824789254,
				"element": "H" 
			},
			{
				"x": -1.0953160967,
				"y": -1.7725251365,
				"z": -1.4513696002,
				"element": "H" 
			}
		],
		 "valence_orbital": [ 
			{
				"type": "occ",
				"energy": -0.28312,
				"method": "rhf"
			},
			{
				"type": "occ",
				"energy": -0.26508,
				"method": "rhf"
			},
			{
				"type": "occ",
				"energy": -0.255,
				"method": "rhf"
			},
			{
				"type": "occ",
				"energy": -0.23927,
				"method": "rhf"
			},
			{
				"type": "occ",
				"energy": -0.19971,
				"method": "rhf"
			},
			{
				"type": "unocc",
				"energy": -0.0344,
				"method": "rhf"
			},
			{
				"type": "unocc",
				"energy": -0.01844,
				"method": "rhf"
			},
			{
				"type": "unocc",
				"energy": -0.01349,
				"method": "rhf"
			},
			{
				"type": "unocc",
				"energy": 0.00525,
				"method": "rhf"
			},
			{
				"type": "unocc",
				"energy": 0.0381,
				"method": "rhf"
			}
		],
		"cosmo_sigma_profile": { 
			"-0.025": 0.0,
			"-0.024": 0.0,
			"-0.023": 0.0,
			"-0.022": 0.0,
			"-0.021": 0.0,
			"-0.02": 0.0,
			"-0.019": 0.0,
			"-0.018": 0.0,
			"-0.017": 0.0,
			"-0.016": 0.0,
			"-0.015": 0.0,
			"-0.014": 0.0,
			"-0.013": 1.21783202062,
			"-0.012": 4.7170110442,
			"-0.011": 5.33470388826,
			"-0.01": 6.30162980615,
			"-0.009": 6.48767775464,
			"-0.008": 7.43192431925,
			"-0.007": 12.8482688907,
			"-0.006": 16.5015483473,
			"-0.005": 18.0174657872,
			"-0.004": 14.227609103,
			"-0.003": 12.1068393713,
			"-0.002": 13.5318068193,
			"-0.001": 13.598133631,
			"0.0": 17.2189843291,
			"0.001": 19.2619665532,
			"0.002": 22.9596873337,
			"0.003": 28.4996586337,
			"0.004": 21.6195193294,
			"0.005": 13.339623005,
			"0.006": 6.38936429837,
			"0.007": 5.3211460302,
			"0.008": 7.86458980455,
			"0.009": 7.19684366629,
			"0.01": 8.42892350169,
			"0.011": 7.76338374124,
			"0.012": 1.99144706381,
			"0.013": 0.276772640651,
			"0.014": 0.906570401445,
			"0.015": 0.4225068427,
			"0.016": 0.0,
			"0.017": 0.0,
			"0.018": 0.0,
			"0.019": 0.0,
			"0.02": 0.0,
			"0.021": 0.0,
			"0.022": 0.0,
			"0.023": 0.0,
			"0.024": 0.0,
			"0.025": 0.0
		}
	}
}
