{
	 "smiles": "CC1=CC(C=CC(O)=O)=CN=C1", 
	 "Tm": 483.15, 
	 "num_atms": 21, 
	 "gaussian": { 
		 "optdone": 1, 
		 "sigma_profile": "yes", 
		 "theory": "DFT", 
		 "functional": "B3LYP", 
		 "basiset": "6-31G**", 
		 "properties": { 
			 "R2extent": 2406.3307, 
			 "electric_dipole_moment_norm": 3.10891465627, 
			 "electric_quadrupole_moment_norm": 22.6936870557, 
			 "total_energy": -553.567429077, 
			 "HOMO_LUMO_gap": 0.18067, 
			 "cosmo_polarized_energy": -14.88, 
			 "cosmo_cavitation_energy": 25.58, 
			 "cosmo_dispersion_energy": -18.31, 
			 "cosmo_repulsion_energy": 1.46, 
			 "cosmo_total_nonelectrostatic_energy": 8.73, 
			 "SMD_solvation_energy": 4.28 
		},
		"coords": [
			{
				"x": 0.7840026944,
				"y": 2.4772951248,
				"z": 2.2314535593,
				"element": "C" 
			},
			{
				"x": 1.3249765787,
				"y": 1.3961821249,
				"z": 1.3298906406,
				"element": "C" 
			},
			{
				"x": 0.6927292863,
				"y": 1.0609177495,
				"z": 0.1285943044,
				"element": "C" 
			},
			{
				"x": 1.2271545103,
				"y": 0.0562566391,
				"z": -0.6936597141,
				"element": "C" 
			},
			{
				"x": 0.6500884552,
				"y": -0.3502450078,
				"z": -1.9882149445,
				"element": "C" 
			},
			{
				"x": -0.6352619542,
				"y": -0.4463234974,
				"z": -2.379632021,
				"element": "C" 
			},
			{
				"x": -1.8984817639,
				"y": -0.2320988502,
				"z": -1.6132749833,
				"element": "C" 
			},
			{
				"x": -1.8871782944,
				"y": -0.4505357495,
				"z": -0.2718732877,
				"element": "O" 
			},
			{
				"x": -2.9252328388,
				"y": 0.0907267684,
				"z": -2.1641652654,
				"element": "O" 
			},
			{
				"x": 2.4258820572,
				"y": -0.5476087534,
				"z": -0.2653169905,
				"element": "C" 
			},
			{
				"x": 3.0438384846,
				"y": -0.2509864796,
				"z": 0.8764796077,
				"element": "N" 
			},
			{
				"x": 2.4947915489,
				"y": 0.6950657026,
				"z": 1.6492671576,
				"element": "C" 
			},
			{
				"x": 1.3658870156,
				"y": 2.5512703722,
				"z": 3.153955037,
				"element": "H" 
			},
			{
				"x": -0.2588356634,
				"y": 2.2832358395,
				"z": 2.5037917031,
				"element": "H" 
			},
			{
				"x": 0.8131773668,
				"y": 3.4554022113,
				"z": 1.7381798398,
				"element": "H" 
			},
			{
				"x": -0.2023221368,
				"y": 1.5956040462,
				"z": -0.1751535207,
				"element": "H" 
			},
			{
				"x": 1.3947795695,
				"y": -0.6125855301,
				"z": -2.7391303488,
				"element": "H" 
			},
			{
				"x": -0.8374520781,
				"y": -0.69396953,
				"z": -3.4172814351,
				"element": "H" 
			},
			{
				"x": -1.0123996105,
				"y": -0.7534907765,
				"z": 0.0136419008,
				"element": "H" 
			},
			{
				"x": 2.8939038115,
				"y": -1.3131254945,
				"z": -0.8835972813,
				"element": "H" 
			},
			{
				"x": 3.0228529612,
				"y": 0.9205130903,
				"z": 2.575046042,
				"element": "H" 
			}
		],
		 "valence_orbital": [ 
			{
				"type": "occ",
				"energy": -0.31227,
				"method": "rhf"
			},
			{
				"type": "occ",
				"energy": -0.28846,
				"method": "rhf"
			},
			{
				"type": "occ",
				"energy": -0.27751,
				"method": "rhf"
			},
			{
				"type": "occ",
				"energy": -0.26869,
				"method": "rhf"
			},
			{
				"type": "occ",
				"energy": -0.25714,
				"method": "rhf"
			},
			{
				"type": "unocc",
				"energy": -0.07647,
				"method": "rhf"
			},
			{
				"type": "unocc",
				"energy": -0.03966,
				"method": "rhf"
			},
			{
				"type": "unocc",
				"energy": -0.00824,
				"method": "rhf"
			},
			{
				"type": "unocc",
				"energy": 0.05967,
				"method": "rhf"
			},
			{
				"type": "unocc",
				"energy": 0.08643,
				"method": "rhf"
			}
		],
		"cosmo_sigma_profile": { 
			"-0.025": 0.0,
			"-0.024": 0.0,
			"-0.023": 0.0,
			"-0.022": 0.0,
			"-0.021": 0.0,
			"-0.02": 0.0,
			"-0.019": 0.0,
			"-0.018": 0.0,
			"-0.017": 0.0,
			"-0.016": 0.306399679921,
			"-0.015": 0.900959701791,
			"-0.014": 0.556775672697,
			"-0.013": 0.602709596851,
			"-0.012": 0.845454864704,
			"-0.011": 1.24181524308,
			"-0.01": 0.673649404557,
			"-0.009": 0.71342573439,
			"-0.008": 5.13532395406,
			"-0.007": 10.2269286975,
			"-0.006": 11.382784427,
			"-0.005": 13.9229092616,
			"-0.004": 16.8620373237,
			"-0.003": 15.5154299683,
			"-0.002": 16.0979374288,
			"-0.001": 17.2725653144,
			"0.0": 16.0427270155,
			"0.001": 14.8494979185,
			"0.002": 9.60854720382,
			"0.003": 5.04320772158,
			"0.004": 3.64289471609,
			"0.005": 2.65315311124,
			"0.006": 3.77120492247,
			"0.007": 4.2548502119,
			"0.008": 3.83365357283,
			"0.009": 3.94323132423,
			"0.01": 5.73228548631,
			"0.011": 6.23643356357,
			"0.012": 6.71067127861,
			"0.013": 2.8054258042,
			"0.014": 1.22802064059,
			"0.015": 0.875571545364,
			"0.016": 0.670859698379,
			"0.017": 0.0865157845145,
			"0.018": 0.0,
			"0.019": 0.0,
			"0.02": 0.0,
			"0.021": 0.0,
			"0.022": 0.0,
			"0.023": 0.0,
			"0.024": 0.0,
			"0.025": 0.0
		}
	}
}
