{
	 "smiles": "CCCC(=O)NC1=CC(CN)=CC=C1", 
	 "Tm": 328.15, 
	 "num_atms": 30, 
	 "gaussian": { 
		 "optdone": 1, 
		 "sigma_profile": "yes", 
		 "theory": "DFT", 
		 "functional": "B3LYP", 
		 "basiset": "6-31G**", 
		 "properties": { 
			 "R2extent": 4818.0663, 
			 "electric_dipole_moment_norm": 2.54974675213, 
			 "electric_quadrupole_moment_norm": 14.6869412915, 
			 "total_energy": -613.56500693, 
			 "HOMO_LUMO_gap": 0.20572, 
			 "cosmo_polarized_energy": -16.65, 
			 "cosmo_cavitation_energy": 32.77, 
			 "cosmo_dispersion_energy": -23.55, 
			 "cosmo_repulsion_energy": 1.91, 
			 "cosmo_total_nonelectrostatic_energy": 11.12, 
			 "SMD_solvation_energy": 4.97 
		},
		"coords": [
			{
				"x": 0.9274283264,
				"y": 0.7472952328,
				"z": 3.3786818477,
				"element": "C" 
			},
			{
				"x": -0.0787747072,
				"y": -0.4028705576,
				"z": 3.4841988869,
				"element": "C" 
			},
			{
				"x": 0.4164185244,
				"y": -1.730218409,
				"z": 2.8643229274,
				"element": "C" 
			},
			{
				"x": 0.5944645209,
				"y": -1.6345073901,
				"z": 1.3512192995,
				"element": "C" 
			},
			{
				"x": 1.5897501744,
				"y": -1.1317882952,
				"z": 0.8461179694,
				"element": "O" 
			},
			{
				"x": -0.475864669,
				"y": -2.1210256648,
				"z": 0.6285432616,
				"element": "N" 
			},
			{
				"x": -0.6827020259,
				"y": -2.1405012357,
				"z": -0.7685749953,
				"element": "C" 
			},
			{
				"x": 0.2289768923,
				"y": -1.6022498272,
				"z": -1.688773268,
				"element": "C" 
			},
			{
				"x": -0.0488557799,
				"y": -1.6607374587,
				"z": -3.0593508544,
				"element": "C" 
			},
			{
				"x": 0.9121639629,
				"y": -1.0456203056,
				"z": -4.0628494867,
				"element": "C" 
			},
			{
				"x": 2.2984923974,
				"y": -1.0813038491,
				"z": -3.5975514095,
				"element": "N" 
			},
			{
				"x": -1.2309217741,
				"y": -2.2604863602,
				"z": -3.5088419062,
				"element": "C" 
			},
			{
				"x": -2.1388815018,
				"y": -2.7888612483,
				"z": -2.5914817433,
				"element": "C" 
			},
			{
				"x": -1.8705740663,
				"y": -2.7326613213,
				"z": -1.2276396048,
				"element": "C" 
			},
			{
				"x": 0.5156298368,
				"y": 1.6623010878,
				"z": 3.8169337356,
				"element": "H" 
			},
			{
				"x": 1.1945060941,
				"y": 0.9501641771,
				"z": 2.3387920738,
				"element": "H" 
			},
			{
				"x": 1.8532179642,
				"y": 0.5060840221,
				"z": 3.9126198821,
				"element": "H" 
			},
			{
				"x": -1.0251640673,
				"y": -0.1159935793,
				"z": 3.0068672107,
				"element": "H" 
			},
			{
				"x": -0.313503285,
				"y": -0.5910907947,
				"z": 4.5391028529,
				"element": "H" 
			},
			{
				"x": -0.276750864,
				"y": -2.539110321,
				"z": 3.1270929063,
				"element": "H" 
			},
			{
				"x": 1.3948065631,
				"y": -1.987864678,
				"z": 3.2818348504,
				"element": "H" 
			},
			{
				"x": -1.2266143669,
				"y": -2.5234629048,
				"z": 1.1705285325,
				"element": "H" 
			},
			{
				"x": 1.1480809471,
				"y": -1.1512320442,
				"z": -1.3432926295,
				"element": "H" 
			},
			{
				"x": 0.6455540644,
				"y": 0.0115358746,
				"z": -4.2032577222,
				"element": "H" 
			},
			{
				"x": 0.7461361559,
				"y": -1.5311866433,
				"z": -5.0410845929,
				"element": "H" 
			},
			{
				"x": 2.6240032971,
				"y": -2.0429674631,
				"z": -3.5387283275,
				"element": "H" 
			},
			{
				"x": 2.9026506391,
				"y": -0.6005176717,
				"z": -4.2578228524,
				"element": "H" 
			},
			{
				"x": -1.4390945474,
				"y": -2.315909517,
				"z": -4.5743874895,
				"element": "H" 
			},
			{
				"x": -3.05670639,
				"y": -3.2550751179,
				"z": -2.9384763259,
				"element": "H" 
			},
			{
				"x": -2.5778723157,
				"y": -3.1526377366,
				"z": -0.5153430289,
				"element": "H" 
			}
		],
		 "valence_orbital": [ 
			{
				"type": "occ",
				"energy": -0.29539,
				"method": "rhf"
			},
			{
				"type": "occ",
				"energy": -0.2434,
				"method": "rhf"
			},
			{
				"type": "occ",
				"energy": -0.2412,
				"method": "rhf"
			},
			{
				"type": "occ",
				"energy": -0.22657,
				"method": "rhf"
			},
			{
				"type": "occ",
				"energy": -0.21233,
				"method": "rhf"
			},
			{
				"type": "unocc",
				"energy": -0.00661,
				"method": "rhf"
			},
			{
				"type": "unocc",
				"energy": 0.00479,
				"method": "rhf"
			},
			{
				"type": "unocc",
				"energy": 0.0467,
				"method": "rhf"
			},
			{
				"type": "unocc",
				"energy": 0.06882,
				"method": "rhf"
			},
			{
				"type": "unocc",
				"energy": 0.09322,
				"method": "rhf"
			}
		],
		"cosmo_sigma_profile": { 
			"-0.025": 0.0,
			"-0.024": 0.0,
			"-0.023": 0.0,
			"-0.022": 0.0,
			"-0.021": 0.0,
			"-0.02": 0.0,
			"-0.019": 0.0,
			"-0.018": 0.0,
			"-0.017": 0.0,
			"-0.016": 0.0,
			"-0.015": 0.634974833766,
			"-0.014": 1.17537756017,
			"-0.013": 1.21391916567,
			"-0.012": 1.78967325631,
			"-0.011": 1.38077865714,
			"-0.01": 2.78765619823,
			"-0.009": 4.54863297593,
			"-0.008": 4.00314491359,
			"-0.007": 5.10049183445,
			"-0.006": 5.97086450112,
			"-0.005": 10.2454406255,
			"-0.004": 17.0801352779,
			"-0.003": 25.6290782338,
			"-0.002": 27.7562146124,
			"-0.001": 26.6630766701,
			"0.0": 19.6612344478,
			"0.001": 16.6112880585,
			"0.002": 12.8375479876,
			"0.003": 10.0738344663,
			"0.004": 12.743817799,
			"0.005": 12.226403635,
			"0.006": 10.8454662713,
			"0.007": 4.0014019367,
			"0.008": 3.07924094472,
			"0.009": 3.12612758652,
			"0.01": 2.22840254043,
			"0.011": 2.71546029279,
			"0.012": 2.9959750814,
			"0.013": 3.39202251134,
			"0.014": 2.3906611708,
			"0.015": 0.985057988441,
			"0.016": 0.362048704668,
			"0.017": 0.554891886763,
			"0.018": 0.0410430248277,
			"0.019": 0.0,
			"0.02": 0.0,
			"0.021": 0.0,
			"0.022": 0.0,
			"0.023": 0.0,
			"0.024": 0.0,
			"0.025": 0.0
		}
	}
}
