{
	 "smiles": "CC12CCC3C(CCC4=C3C=CC(OC(=O)N(CCCl)CCCl)=C4)C1CCC2O", 
	 "Tm": 377.15, 
	 "num_atms": 60, 
	 "gaussian": { 
		 "optdone": 1, 
		 "sigma_profile": "yes", 
		 "theory": "DFT", 
		 "functional": "B3LYP", 
		 "basiset": "6-31G**", 
		 "properties": { 
			 "R2extent": 23269.1333, 
			 "electric_dipole_moment_norm": 5.59831873691, 
			 "electric_quadrupole_moment_norm": 40.0318603357, 
			 "total_energy": -2095.98166491, 
			 "HOMO_LUMO_gap": 0.22661, 
			 "cosmo_polarized_energy": -17.41, 
			 "cosmo_cavitation_energy": 59.5, 
			 "cosmo_dispersion_energy": -41.51, 
			 "cosmo_repulsion_energy": 3.11, 
			 "cosmo_total_nonelectrostatic_energy": 21.11, 
			 "SMD_solvation_energy": 8.53 
		},
		"coords": [
			{
				"x": -3.2855193443,
				"y": -3.8633652276,
				"z": -2.8897563294,
				"element": "C" 
			},
			{
				"x": -1.9022129246,
				"y": -3.6168420583,
				"z": -3.5304818732,
				"element": "C" 
			},
			{
				"x": -1.9468969121,
				"y": -2.3043346265,
				"z": -4.3435514281,
				"element": "C" 
			},
			{
				"x": -1.7368702351,
				"y": -1.096517647,
				"z": -3.4242425929,
				"element": "C" 
			},
			{
				"x": -0.2972875502,
				"y": -1.0520794935,
				"z": -2.8744155041,
				"element": "C" 
			},
			{
				"x": 0.2882688118,
				"y": -2.5005134364,
				"z": -2.6427470093,
				"element": "C" 
			},
			{
				"x": 1.3541139002,
				"y": -2.535128234,
				"z": -1.5238778553,
				"element": "C" 
			},
			{
				"x": 2.1073276377,
				"y": -1.2012593509,
				"z": -1.3944138292,
				"element": "C" 
			},
			{
				"x": 1.1189501037,
				"y": -0.1293502294,
				"z": -1.0113734491,
				"element": "C" 
			},
			{
				"x": -0.1128734612,
				"y": -0.1028233992,
				"z": -1.695876482,
				"element": "C" 
			},
			{
				"x": -1.0665591822,
				"y": 0.8474373784,
				"z": -1.3123868072,
				"element": "C" 
			},
			{
				"x": -0.8253903325,
				"y": 1.7562356717,
				"z": -0.2801124496,
				"element": "C" 
			},
			{
				"x": 0.3947306161,
				"y": 1.7025458646,
				"z": 0.3847754284,
				"element": "C" 
			},
			{
				"x": 0.7530523809,
				"y": 2.6225002265,
				"z": 1.3781768044,
				"element": "O" 
			},
			{
				"x": -0.1085107356,
				"y": 2.869261305,
				"z": 2.4190199187,
				"element": "C" 
			},
			{
				"x": -1.1767833667,
				"y": 2.3150751581,
				"z": 2.5854292456,
				"element": "O" 
			},
			{
				"x": 0.4096830061,
				"y": 3.8276946764,
				"z": 3.2540949023,
				"element": "N" 
			},
			{
				"x": 1.650627493,
				"y": 4.5373108783,
				"z": 2.9468178022,
				"element": "C" 
			},
			{
				"x": 2.9378350411,
				"y": 3.7913432598,
				"z": 3.2879628696,
				"element": "C" 
			},
			{
				"x": 3.2187731408,
				"y": 3.6399719713,
				"z": 5.0767219792,
				"element": "Cl" 
			},
			{
				"x": -0.4378576231,
				"y": 4.2327121161,
				"z": 4.382670236,
				"element": "C" 
			},
			{
				"x": -0.448071661,
				"y": 3.1905035643,
				"z": 5.5017691031,
				"element": "C" 
			},
			{
				"x": -1.4867868302,
				"y": 3.7765705559,
				"z": 6.8709774863,
				"element": "Cl" 
			},
			{
				"x": 1.3624237487,
				"y": 0.7665953129,
				"z": 0.0301441154,
				"element": "C" 
			},
			{
				"x": -0.7976019028,
				"y": -3.5752750074,
				"z": -2.4075154805,
				"element": "C" 
			},
			{
				"x": -0.1915737896,
				"y": -5.0158861776,
				"z": -2.3657565417,
				"element": "C" 
			},
			{
				"x": -1.0329084192,
				"y": -5.8704515701,
				"z": -3.3353287475,
				"element": "C" 
			},
			{
				"x": -1.5214622934,
				"y": -4.8567483929,
				"z": -4.3781365583,
				"element": "C" 
			},
			{
				"x": -0.4546500798,
				"y": -4.4886260038,
				"z": -5.2596652181,
				"element": "O" 
			},
			{
				"x": -3.2866704758,
				"y": -4.7267982183,
				"z": -2.2175307007,
				"element": "H" 
			},
			{
				"x": -3.5974125994,
				"y": -2.9978632431,
				"z": -2.2966809091,
				"element": "H" 
			},
			{
				"x": -4.0500610003,
				"y": -4.0325845944,
				"z": -3.6567251028,
				"element": "H" 
			},
			{
				"x": -2.9114775542,
				"y": -2.2242855931,
				"z": -4.8601973528,
				"element": "H" 
			},
			{
				"x": -1.1762297542,
				"y": -2.3186216265,
				"z": -5.1191879392,
				"element": "H" 
			},
			{
				"x": -1.9560488394,
				"y": -0.1664991275,
				"z": -3.9613415647,
				"element": "H" 
			},
			{
				"x": -2.4513827186,
				"y": -1.1442160554,
				"z": -2.5929041202,
				"element": "H" 
			},
			{
				"x": 0.324513001,
				"y": -0.6300217248,
				"z": -3.6792540237,
				"element": "H" 
			},
			{
				"x": 0.7867217018,
				"y": -2.7738224754,
				"z": -3.5804471369,
				"element": "H" 
			},
			{
				"x": 2.0601875937,
				"y": -3.3521556575,
				"z": -1.7047619059,
				"element": "H" 
			},
			{
				"x": 0.8721383054,
				"y": -2.7431703517,
				"z": -0.5593986449,
				"element": "H" 
			},
			{
				"x": 2.905623802,
				"y": -1.273832692,
				"z": -0.6480565971,
				"element": "H" 
			},
			{
				"x": 2.592465518,
				"y": -0.9585003468,
				"z": -2.3519603819,
				"element": "H" 
			},
			{
				"x": -2.0206376413,
				"y": 0.8985702939,
				"z": -1.8253299541,
				"element": "H" 
			},
			{
				"x": -1.5779834333,
				"y": 2.4783136025,
				"z": 0.0102150034,
				"element": "H" 
			},
			{
				"x": 1.6308938289,
				"y": 5.4953246499,
				"z": 3.4719942479,
				"element": "H" 
			},
			{
				"x": 1.6850879147,
				"y": 4.7492974965,
				"z": 1.8730783916,
				"element": "H" 
			},
			{
				"x": 3.7987433519,
				"y": 4.3318045041,
				"z": 2.890158696,
				"element": "H" 
			},
			{
				"x": 2.9248959551,
				"y": 2.7803682803,
				"z": 2.8829220227,
				"element": "H" 
			},
			{
				"x": -0.059218476,
				"y": 5.1821823378,
				"z": 4.7661963445,
				"element": "H" 
			},
			{
				"x": -1.4607250506,
				"y": 4.3849084105,
				"z": 4.0276104367,
				"element": "H" 
			},
			{
				"x": 0.5502307986,
				"y": 3.0240024014,
				"z": 5.9041882152,
				"element": "H" 
			},
			{
				"x": -0.8803353836,
				"y": 2.2547190661,
				"z": 5.1508722166,
				"element": "H" 
			},
			{
				"x": 2.303139363,
				"y": 0.7415369244,
				"z": 0.5727671224,
				"element": "H" 
			},
			{
				"x": -1.2826313556,
				"y": -3.3518345493,
				"z": -1.4477491815,
				"element": "H" 
			},
			{
				"x": -0.1695155149,
				"y": -5.4345633649,
				"z": -1.355387728,
				"element": "H" 
			},
			{
				"x": 0.8428423033,
				"y": -4.989532582,
				"z": -2.7213848382,
				"element": "H" 
			},
			{
				"x": -0.461624263,
				"y": -6.6892348398,
				"z": -3.7897718795,
				"element": "H" 
			},
			{
				"x": -1.8885742874,
				"y": -6.329413257,
				"z": -2.8288327357,
				"element": "H" 
			},
			{
				"x": -2.3792347409,
				"y": -5.2253477941,
				"z": -4.9619246664,
				"element": "H" 
			},
			{
				"x": -0.1461895853,
				"y": -5.291986959,
				"z": -5.6974970697,
				"element": "H" 
			}
		],
		 "valence_orbital": [ 
			{
				"type": "occ",
				"energy": -0.28113,
				"method": "rhf"
			},
			{
				"type": "occ",
				"energy": -0.26561,
				"method": "rhf"
			},
			{
				"type": "occ",
				"energy": -0.25827,
				"method": "rhf"
			},
			{
				"type": "occ",
				"energy": -0.24361,
				"method": "rhf"
			},
			{
				"type": "occ",
				"energy": -0.22697,
				"method": "rhf"
			},
			{
				"type": "unocc",
				"energy": -0.00036,
				"method": "rhf"
			},
			{
				"type": "unocc",
				"energy": 0.00065,
				"method": "rhf"
			},
			{
				"type": "unocc",
				"energy": 0.01607,
				"method": "rhf"
			},
			{
				"type": "unocc",
				"energy": 0.02817,
				"method": "rhf"
			},
			{
				"type": "unocc",
				"energy": 0.04399,
				"method": "rhf"
			}
		],
		"cosmo_sigma_profile": { 
			"-0.025": 0.0,
			"-0.024": 0.0,
			"-0.023": 0.0,
			"-0.022": 0.0,
			"-0.021": 0.0,
			"-0.02": 0.0,
			"-0.019": 0.0,
			"-0.018": 0.0,
			"-0.017": 0.0,
			"-0.016": 0.0,
			"-0.015": 0.55586781459,
			"-0.014": 0.986007955582,
			"-0.013": 0.904275137396,
			"-0.012": 0.522731294915,
			"-0.011": 1.14853974745,
			"-0.01": 1.13184001998,
			"-0.009": 1.07616591481,
			"-0.008": 4.91524479886,
			"-0.007": 9.21431861162,
			"-0.006": 12.3959771087,
			"-0.005": 18.8671491377,
			"-0.004": 25.0761802756,
			"-0.003": 43.6900965052,
			"-0.002": 55.6504034851,
			"-0.001": 58.835966175,
			"0.0": 54.391048954,
			"0.001": 41.0189017985,
			"0.002": 24.3065617858,
			"0.003": 20.409503771,
			"0.004": 18.5307439879,
			"0.005": 21.7661809003,
			"0.006": 21.9593162043,
			"0.007": 9.58292457918,
			"0.008": 4.31999938793,
			"0.009": 2.23051812577,
			"0.01": 3.83252158683,
			"0.011": 3.2825937944,
			"0.012": 4.70710711151,
			"0.013": 2.26083604932,
			"0.014": 0.00154384755569,
			"0.015": 0.0,
			"0.016": 0.0,
			"0.017": 0.0,
			"0.018": 0.0,
			"0.019": 0.0,
			"0.02": 0.0,
			"0.021": 0.0,
			"0.022": 0.0,
			"0.023": 0.0,
			"0.024": 0.0,
			"0.025": 0.0
		}
	}
}
