{
	 "smiles": "OC(=O)C1(CC(=O)N2CCOCC2)CCCC1", 
	 "Tm": 424.15, 
	 "num_atms": 36, 
	 "gaussian": { 
		 "optdone": 1, 
		 "sigma_profile": "yes", 
		 "theory": "DFT", 
		 "functional": "B3LYP", 
		 "basiset": "6-31G**", 
		 "properties": { 
			 "R2extent": 5409.2847, 
			 "electric_dipole_moment_norm": 3.16412485847, 
			 "electric_quadrupole_moment_norm": 13.4552601576, 
			 "total_energy": -824.387116512, 
			 "HOMO_LUMO_gap": 0.25092, 
			 "cosmo_polarized_energy": -16.16, 
			 "cosmo_cavitation_energy": 35.56, 
			 "cosmo_dispersion_energy": -25.98, 
			 "cosmo_repulsion_energy": 2.04, 
			 "cosmo_total_nonelectrostatic_energy": 11.62, 
			 "SMD_solvation_energy": 6.07 
		},
		"coords": [
			{
				"x": 2.8706183331,
				"y": -2.9673297223,
				"z": -0.417861875,
				"element": "O" 
			},
			{
				"x": 3.1925982975,
				"y": -1.7775542719,
				"z": 0.1604220006,
				"element": "C" 
			},
			{
				"x": 4.1768033282,
				"y": -1.6670319634,
				"z": 0.8594877976,
				"element": "O" 
			},
			{
				"x": 2.2049005609,
				"y": -0.6680479434,
				"z": -0.2107505939,
				"element": "C" 
			},
			{
				"x": 0.7885517349,
				"y": -1.1732147621,
				"z": 0.1537986954,
				"element": "C" 
			},
			{
				"x": -0.3601549817,
				"y": -0.2309200812,
				"z": -0.2057565483,
				"element": "C" 
			},
			{
				"x": -0.1988684644,
				"y": 0.8222647195,
				"z": -0.8204004116,
				"element": "O" 
			},
			{
				"x": -1.6089304821,
				"y": -0.6413072548,
				"z": 0.1991497555,
				"element": "N" 
			},
			{
				"x": -2.7720230071,
				"y": 0.1823214541,
				"z": -0.1275864365,
				"element": "C" 
			},
			{
				"x": -3.852436715,
				"y": -0.6640652939,
				"z": -0.8060340208,
				"element": "C" 
			},
			{
				"x": -4.0435796979,
				"y": -1.941613232,
				"z": -0.1830439461,
				"element": "O" 
			},
			{
				"x": -3.3921458132,
				"y": -2.0755746114,
				"z": 1.0644624129,
				"element": "C" 
			},
			{
				"x": -1.8785170505,
				"y": -1.8930435877,
				"z": 0.9171565146,
				"element": "C" 
			},
			{
				"x": 2.6090450251,
				"y": 0.6397952231,
				"z": 0.5219123288,
				"element": "C" 
			},
			{
				"x": 3.5510711667,
				"y": 1.3592543154,
				"z": -0.4547303445,
				"element": "C" 
			},
			{
				"x": 2.8970378665,
				"y": 1.1042469456,
				"z": -1.8224809442,
				"element": "C" 
			},
			{
				"x": 2.3993800394,
				"y": -0.3547692712,
				"z": -1.7480717158,
				"element": "C" 
			},
			{
				"x": 3.5692877789,
				"y": -3.5876098334,
				"z": -0.1503152504,
				"element": "H" 
			},
			{
				"x": 0.6100185081,
				"y": -2.136979795,
				"z": -0.3364496467,
				"element": "H" 
			},
			{
				"x": 0.7463337319,
				"y": -1.3799685634,
				"z": 1.2318820109,
				"element": "H" 
			},
			{
				"x": -3.1639265427,
				"y": 0.6568048494,
				"z": 0.7816125284,
				"element": "H" 
			},
			{
				"x": -2.4331566993,
				"y": 0.9778450404,
				"z": -0.7917937164,
				"element": "H" 
			},
			{
				"x": -4.8026464415,
				"y": -0.1104452736,
				"z": -0.8056383074,
				"element": "H" 
			},
			{
				"x": -3.5749818475,
				"y": -0.8605077911,
				"z": -1.8481189361,
				"element": "H" 
			},
			{
				"x": -3.603014279,
				"y": -3.0880831181,
				"z": 1.4193147194,
				"element": "H" 
			},
			{
				"x": -3.7951157549,
				"y": -1.3751386647,
				"z": 1.8125247075,
				"element": "H" 
			},
			{
				"x": -1.4755036739,
				"y": -2.7444522796,
				"z": 0.3562528521,
				"element": "H" 
			},
			{
				"x": -1.4109095572,
				"y": -1.8962851637,
				"z": 1.9124627244,
				"element": "H" 
			},
			{
				"x": 1.7152353939,
				"y": 1.2475486249,
				"z": 0.679096345,
				"element": "H" 
			},
			{
				"x": 3.0719032657,
				"y": 0.4294256736,
				"z": 1.4887739336,
				"element": "H" 
			},
			{
				"x": 3.665575344,
				"y": 2.4237348816,
				"z": -0.225943832,
				"element": "H" 
			},
			{
				"x": 4.5471438485,
				"y": 0.9022018196,
				"z": -0.4119027736,
				"element": "H" 
			},
			{
				"x": 2.0370067951,
				"y": 1.7684858413,
				"z": -1.9457877006,
				"element": "H" 
			},
			{
				"x": 3.5785266729,
				"y": 1.2690312908,
				"z": -2.6636526686,
				"element": "H" 
			},
			{
				"x": 3.1341423136,
				"y": -1.0408423751,
				"z": -2.1818487133,
				"element": "H" 
			},
			{
				"x": 1.4670310032,
				"y": -0.4968758263,
				"z": -2.2970409446,
				"element": "H" 
			}
		],
		 "valence_orbital": [ 
			{
				"type": "occ",
				"energy": -0.30651,
				"method": "rhf"
			},
			{
				"type": "occ",
				"energy": -0.27032,
				"method": "rhf"
			},
			{
				"type": "occ",
				"energy": -0.26197,
				"method": "rhf"
			},
			{
				"type": "occ",
				"energy": -0.25024,
				"method": "rhf"
			},
			{
				"type": "occ",
				"energy": -0.24289,
				"method": "rhf"
			},
			{
				"type": "unocc",
				"energy": 0.00803,
				"method": "rhf"
			},
			{
				"type": "unocc",
				"energy": 0.02443,
				"method": "rhf"
			},
			{
				"type": "unocc",
				"energy": 0.06704,
				"method": "rhf"
			},
			{
				"type": "unocc",
				"energy": 0.07718,
				"method": "rhf"
			},
			{
				"type": "unocc",
				"energy": 0.09896,
				"method": "rhf"
			}
		],
		"cosmo_sigma_profile": { 
			"-0.025": 0.0,
			"-0.024": 0.0,
			"-0.023": 0.0,
			"-0.022": 0.0,
			"-0.021": 0.0,
			"-0.02": 0.0,
			"-0.019": 0.0,
			"-0.018": 0.285078311737,
			"-0.017": 1.0181914124,
			"-0.016": 0.890863522825,
			"-0.015": 0.761693702727,
			"-0.014": 0.67386083206,
			"-0.013": 1.03726439869,
			"-0.012": 0.708782181329,
			"-0.011": 0.492844692611,
			"-0.01": 0.558423978864,
			"-0.009": 0.59456438177,
			"-0.008": 0.400490806201,
			"-0.007": 2.52614023547,
			"-0.006": 13.0118184529,
			"-0.005": 24.4439296324,
			"-0.004": 27.9866971611,
			"-0.003": 23.7214319745,
			"-0.002": 22.4003016894,
			"-0.001": 26.2495545645,
			"0.0": 24.4208198497,
			"0.001": 24.6001176984,
			"0.002": 12.4847512206,
			"0.003": 7.13991563061,
			"0.004": 7.32961678641,
			"0.005": 6.39283241296,
			"0.006": 5.13248897847,
			"0.007": 7.1263219927,
			"0.008": 5.53591658716,
			"0.009": 4.74892741145,
			"0.01": 4.94274539776,
			"0.011": 6.18605867889,
			"0.012": 6.52208054712,
			"0.013": 4.55724371045,
			"0.014": 1.13059286071,
			"0.015": 0.0,
			"0.016": 0.0,
			"0.017": 0.0,
			"0.018": 0.0,
			"0.019": 0.0,
			"0.02": 0.0,
			"0.021": 0.0,
			"0.022": 0.0,
			"0.023": 0.0,
			"0.024": 0.0,
			"0.025": 0.0
		}
	}
}
