{
	 "smiles": "NNC1=NC=NC(Cl)=C1", 
	 "Tm": 425.15, 
	 "num_atms": 14, 
	 "gaussian": { 
		 "optdone": 1, 
		 "sigma_profile": "yes", 
		 "theory": "DFT", 
		 "functional": "B3LYP", 
		 "basiset": "6-31G**", 
		 "properties": { 
			 "R2extent": 2827.9751, 
			 "electric_dipole_moment_norm": 2.9706249393, 
			 "electric_quadrupole_moment_norm": 12.3321115122, 
			 "total_energy": -834.606571837, 
			 "HOMO_LUMO_gap": 0.20772, 
			 "cosmo_polarized_energy": -11.9, 
			 "cosmo_cavitation_energy": 20.47, 
			 "cosmo_dispersion_energy": -15.67, 
			 "cosmo_repulsion_energy": 1.3, 
			 "cosmo_total_nonelectrostatic_energy": 6.11, 
			 "SMD_solvation_energy": 1.39 
		},
		"coords": [
			{
				"x": -0.5264965426,
				"y": -1.4380671231,
				"z": 2.1372417596,
				"element": "N" 
			},
			{
				"x": -0.1374974376,
				"y": -0.1675416739,
				"z": 1.6808501464,
				"element": "N" 
			},
			{
				"x": -0.9702742863,
				"y": 0.6796475702,
				"z": 1.0108821346,
				"element": "C" 
			},
			{
				"x": -2.1805650038,
				"y": 0.2062583322,
				"z": 0.656304458,
				"element": "N" 
			},
			{
				"x": -2.9665096125,
				"y": 1.0509478178,
				"z": -0.0117203304,
				"element": "C" 
			},
			{
				"x": -2.7002967341,
				"y": 2.3096527956,
				"z": -0.3696524952,
				"element": "N" 
			},
			{
				"x": -1.4984981597,
				"y": 2.7474935703,
				"z": -0.0003218362,
				"element": "C" 
			},
			{
				"x": -1.095167509,
				"y": 4.4005082718,
				"z": -0.4416951984,
				"element": "Cl" 
			},
			{
				"x": -0.5695949049,
				"y": 1.9981692097,
				"z": 0.6952448178,
				"element": "C" 
			},
			{
				"x": -1.4485678324,
				"y": -1.3537708861,
				"z": 2.5654342892,
				"element": "H" 
			},
			{
				"x": -0.6583536793,
				"y": -2.0349157874,
				"z": 1.3217963073,
				"element": "H" 
			},
			{
				"x": 0.7049543577,
				"y": 0.193215288,
				"z": 2.1010940025,
				"element": "H" 
			},
			{
				"x": -3.9447122196,
				"y": 0.6700169118,
				"z": -0.2992706543,
				"element": "H" 
			},
			{
				"x": 0.3989795642,
				"y": 2.3944857031,
				"z": 0.9751125992,
				"element": "H" 
			}
		],
		 "valence_orbital": [ 
			{
				"type": "occ",
				"energy": -0.31168,
				"method": "rhf"
			},
			{
				"type": "occ",
				"energy": -0.28821,
				"method": "rhf"
			},
			{
				"type": "occ",
				"energy": -0.28398,
				"method": "rhf"
			},
			{
				"type": "occ",
				"energy": -0.26897,
				"method": "rhf"
			},
			{
				"type": "occ",
				"energy": -0.24441,
				"method": "rhf"
			},
			{
				"type": "unocc",
				"energy": -0.03669,
				"method": "rhf"
			},
			{
				"type": "unocc",
				"energy": -0.0209,
				"method": "rhf"
			},
			{
				"type": "unocc",
				"energy": 0.02965,
				"method": "rhf"
			},
			{
				"type": "unocc",
				"energy": 0.07416,
				"method": "rhf"
			},
			{
				"type": "unocc",
				"energy": 0.08548,
				"method": "rhf"
			}
		],
		"cosmo_sigma_profile": { 
			"-0.025": 0.0,
			"-0.024": 0.0,
			"-0.023": 0.0,
			"-0.022": 0.0,
			"-0.021": 0.0,
			"-0.02": 0.0,
			"-0.019": 0.0,
			"-0.018": 0.0,
			"-0.017": 0.0,
			"-0.016": 0.0,
			"-0.015": 1.26220705401,
			"-0.014": 1.18739399206,
			"-0.013": 1.29932403983,
			"-0.012": 1.76067317988,
			"-0.011": 3.6162512495,
			"-0.01": 3.86470711931,
			"-0.009": 4.29632042952,
			"-0.008": 4.61204986638,
			"-0.007": 5.08423327914,
			"-0.006": 6.00735354658,
			"-0.005": 4.62202156703,
			"-0.004": 4.57911248406,
			"-0.003": 6.02566548931,
			"-0.002": 9.38883663975,
			"-0.001": 14.4218579123,
			"0.0": 17.1384267443,
			"0.001": 11.3326550569,
			"0.002": 11.0127439305,
			"0.003": 10.9803643947,
			"0.004": 12.2075970045,
			"0.005": 5.39174599274,
			"0.006": 4.40029724206,
			"0.007": 3.67128747487,
			"0.008": 3.19329223828,
			"0.009": 2.41444251392,
			"0.01": 2.23798812355,
			"0.011": 2.55831341405,
			"0.012": 2.46554674812,
			"0.013": 1.45821850843,
			"0.014": 1.64186022146,
			"0.015": 0.943112412041,
			"0.016": 0.722586283683,
			"0.017": 0.0021441723276,
			"0.018": 0.0,
			"0.019": 0.0,
			"0.02": 0.0,
			"0.021": 0.0,
			"0.022": 0.0,
			"0.023": 0.0,
			"0.024": 0.0,
			"0.025": 0.0
		}
	}
}
