{
	 "smiles": "COC1=C(O)C=CC(=C1)C(N)=NO", 
	 "Tm": 421.15, 
	 "num_atms": 23, 
	 "gaussian": { 
		 "optdone": 1, 
		 "sigma_profile": "yes", 
		 "theory": "DFT", 
		 "functional": "B3LYP", 
		 "basiset": "6-31G**", 
		 "properties": { 
			 "R2extent": 3247.023, 
			 "electric_dipole_moment_norm": 2.66812094741, 
			 "electric_quadrupole_moment_norm": 8.85163178177, 
			 "total_energy": -645.982012457, 
			 "HOMO_LUMO_gap": 0.18057, 
			 "cosmo_polarized_energy": -14.35, 
			 "cosmo_cavitation_energy": 27.09, 
			 "cosmo_dispersion_energy": -20.07, 
			 "cosmo_repulsion_energy": 1.62, 
			 "cosmo_total_nonelectrostatic_energy": 8.64, 
			 "SMD_solvation_energy": 5.84 
		},
		"coords": [
			{
				"x": -2.7881079547,
				"y": -1.7503391248,
				"z": 0.8616426772,
				"element": "C" 
			},
			{
				"x": -2.8921121482,
				"y": -0.4206236821,
				"z": 1.349809986,
				"element": "O" 
			},
			{
				"x": -1.7443096262,
				"y": 0.3337661985,
				"z": 1.4215463254,
				"element": "C" 
			},
			{
				"x": -1.9685923488,
				"y": 1.6538687433,
				"z": 1.869036183,
				"element": "C" 
			},
			{
				"x": -3.2266597923,
				"y": 2.064967537,
				"z": 2.1746020651,
				"element": "O" 
			},
			{
				"x": -0.8921468007,
				"y": 2.5261632089,
				"z": 1.9881497328,
				"element": "C" 
			},
			{
				"x": 0.3957560219,
				"y": 2.0924103015,
				"z": 1.6719041753,
				"element": "C" 
			},
			{
				"x": 0.6272712628,
				"y": 0.7835277692,
				"z": 1.2244922069,
				"element": "C" 
			},
			{
				"x": -0.4667377498,
				"y": -0.0990515932,
				"z": 1.1010071569,
				"element": "C" 
			},
			{
				"x": 2.0146426887,
				"y": 0.3428236188,
				"z": 0.9452552067,
				"element": "C" 
			},
			{
				"x": 3.0172022221,
				"y": 1.0277718163,
				"z": 1.6489511389,
				"element": "N" 
			},
			{
				"x": 2.4451516909,
				"y": -0.5544884434,
				"z": 0.1201049978,
				"element": "N" 
			},
			{
				"x": 1.4283661977,
				"y": -1.0876444075,
				"z": -0.7147940949,
				"element": "O" 
			},
			{
				"x": -2.1540135234,
				"y": -2.3653706081,
				"z": 1.5121548507,
				"element": "H" 
			},
			{
				"x": -3.8017589698,
				"y": -2.1538387122,
				"z": 0.8587113467,
				"element": "H" 
			},
			{
				"x": -2.3827104214,
				"y": -1.7696159532,
				"z": -0.1571955474,
				"element": "H" 
			},
			{
				"x": -3.8164885176,
				"y": 1.3118253122,
				"z": 2.0131901521,
				"element": "H" 
			},
			{
				"x": -1.0793385743,
				"y": 3.5408907844,
				"z": 2.3234746943,
				"element": "H" 
			},
			{
				"x": 1.2300283568,
				"y": 2.7800806869,
				"z": 1.7518948958,
				"element": "H" 
			},
			{
				"x": -0.2940985352,
				"y": -1.1039466988,
				"z": 0.7449697176,
				"element": "H" 
			},
			{
				"x": 2.8382085855,
				"y": 1.0990590022,
				"z": 2.6442140947,
				"element": "H" 
			},
			{
				"x": 3.933709574,
				"y": 0.6390832418,
				"z": 1.4561562468,
				"element": "H" 
			},
			{
				"x": 1.9448383622,
				"y": -1.6768189977,
				"z": -1.2785782084,
				"element": "H" 
			}
		],
		 "valence_orbital": [ 
			{
				"type": "occ",
				"energy": -0.30493,
				"method": "rhf"
			},
			{
				"type": "occ",
				"energy": -0.26068,
				"method": "rhf"
			},
			{
				"type": "occ",
				"energy": -0.23906,
				"method": "rhf"
			},
			{
				"type": "occ",
				"energy": -0.21899,
				"method": "rhf"
			},
			{
				"type": "occ",
				"energy": -0.19722,
				"method": "rhf"
			},
			{
				"type": "unocc",
				"energy": -0.01665,
				"method": "rhf"
			},
			{
				"type": "unocc",
				"energy": 0.00957,
				"method": "rhf"
			},
			{
				"type": "unocc",
				"energy": 0.06969,
				"method": "rhf"
			},
			{
				"type": "unocc",
				"energy": 0.07749,
				"method": "rhf"
			},
			{
				"type": "unocc",
				"energy": 0.08341,
				"method": "rhf"
			}
		],
		"cosmo_sigma_profile": { 
			"-0.025": 0.0,
			"-0.024": 0.0,
			"-0.023": 0.0,
			"-0.022": 0.0,
			"-0.021": 0.0,
			"-0.02": 0.0,
			"-0.019": 0.0,
			"-0.018": 0.0,
			"-0.017": 0.236749132095,
			"-0.016": 0.801927167324,
			"-0.015": 1.11279961918,
			"-0.014": 1.36652189676,
			"-0.013": 1.31949231036,
			"-0.012": 2.84035124681,
			"-0.011": 2.83758222999,
			"-0.01": 3.32975031063,
			"-0.009": 4.61558076988,
			"-0.008": 4.00854524978,
			"-0.007": 3.5302650218,
			"-0.006": 8.83574300369,
			"-0.005": 15.9890319437,
			"-0.004": 16.7160195578,
			"-0.003": 14.7955500149,
			"-0.002": 8.88710518251,
			"-0.001": 8.97189781674,
			"0.0": 9.7719628611,
			"0.001": 11.0186463366,
			"0.002": 15.110312345,
			"0.003": 14.6259170766,
			"0.004": 13.3170539472,
			"0.005": 12.2620678407,
			"0.006": 8.03481996634,
			"0.007": 5.09024844382,
			"0.008": 5.41865666851,
			"0.009": 5.90302395528,
			"0.01": 4.2072448348,
			"0.011": 5.02287556028,
			"0.012": 2.33373695101,
			"0.013": 1.42198936325,
			"0.014": 0.645370731143,
			"0.015": 0.0555624984195,
			"0.016": 0.0,
			"0.017": 0.0,
			"0.018": 0.0,
			"0.019": 0.0,
			"0.02": 0.0,
			"0.021": 0.0,
			"0.022": 0.0,
			"0.023": 0.0,
			"0.024": 0.0,
			"0.025": 0.0
		}
	}
}
