{
	 "smiles": "CC(N)C(O)C1=CC=C(F)C=C1", 
	 "Tm": 361.15, 
	 "num_atms": 24, 
	 "gaussian": { 
		 "optdone": 1, 
		 "sigma_profile": "yes", 
		 "theory": "DFT", 
		 "functional": "B3LYP", 
		 "basiset": "6-31G**", 
		 "properties": { 
			 "R2extent": 2684.1544, 
			 "electric_dipole_moment_norm": 4.03649484206, 
			 "electric_quadrupole_moment_norm": 4.38446579642, 
			 "total_energy": -579.990930704, 
			 "HOMO_LUMO_gap": 0.22634, 
			 "cosmo_polarized_energy": -12.42, 
			 "cosmo_cavitation_energy": 27.15, 
			 "cosmo_dispersion_energy": -19.4, 
			 "cosmo_repulsion_energy": 1.54, 
			 "cosmo_total_nonelectrostatic_energy": 9.29, 
			 "SMD_solvation_energy": 4.25 
		},
		"coords": [
			{
				"x": 3.2555661756,
				"y": 0.3586149268,
				"z": -0.4746559542,
				"element": "C" 
			},
			{
				"x": 1.841409756,
				"y": 0.4573168718,
				"z": 0.1288039908,
				"element": "C" 
			},
			{
				"x": 1.6111231908,
				"y": -0.4288898788,
				"z": 1.2679877895,
				"element": "N" 
			},
			{
				"x": 0.7540295189,
				"y": 0.1768434329,
				"z": -0.9425574173,
				"element": "C" 
			},
			{
				"x": 0.7944360714,
				"y": -1.1963594164,
				"z": -1.3434447495,
				"element": "O" 
			},
			{
				"x": -0.6463293837,
				"y": 0.4948703183,
				"z": -0.4557130689,
				"element": "C" 
			},
			{
				"x": -1.5147175397,
				"y": -0.5077672396,
				"z": -0.0111934819,
				"element": "C" 
			},
			{
				"x": -2.7920173241,
				"y": -0.1926285064,
				"z": 0.4518536021,
				"element": "C" 
			},
			{
				"x": -3.1905432503,
				"y": 1.13852807,
				"z": 0.468891913,
				"element": "C" 
			},
			{
				"x": -4.4278968013,
				"y": 1.4496400574,
				"z": 0.9157201171,
				"element": "F" 
			},
			{
				"x": -2.3555822483,
				"y": 2.1592282353,
				"z": 0.0307907019,
				"element": "C" 
			},
			{
				"x": -1.0838952111,
				"y": 1.8242856955,
				"z": -0.4344313121,
				"element": "C" 
			},
			{
				"x": 3.4636605064,
				"y": -0.6577899046,
				"z": -0.8323008975,
				"element": "H" 
			},
			{
				"x": 3.3966509307,
				"y": 1.0538125345,
				"z": -1.3115622178,
				"element": "H" 
			},
			{
				"x": 4.0124923583,
				"y": 0.5932615412,
				"z": 0.2811478659,
				"element": "H" 
			},
			{
				"x": 1.6893695066,
				"y": 1.4903337938,
				"z": 0.4703649358,
				"element": "H" 
			},
			{
				"x": 1.6228978346,
				"y": -1.3915463383,
				"z": 0.9384839795,
				"element": "H" 
			},
			{
				"x": 2.3578748616,
				"y": -0.3312917933,
				"z": 1.950406138,
				"element": "H" 
			},
			{
				"x": 0.9695798475,
				"y": 0.8242001735,
				"z": -1.8073397589,
				"element": "H" 
			},
			{
				"x": 1.5912867586,
				"y": -1.3282721387,
				"z": -1.8709235588,
				"element": "H" 
			},
			{
				"x": -1.1888197831,
				"y": -1.5405088737,
				"z": -0.0383974955,
				"element": "H" 
			},
			{
				"x": -3.4761412993,
				"y": -0.9601929249,
				"z": 0.7977902101,
				"element": "H" 
			},
			{
				"x": -2.7054039755,
				"y": 3.1857671863,
				"z": 0.0486936495,
				"element": "H" 
			},
			{
				"x": -0.4271305005,
				"y": 2.6150441775,
				"z": -0.7901149811,
				"element": "H" 
			}
		],
		 "valence_orbital": [ 
			{
				"type": "occ",
				"energy": -0.32559,
				"method": "rhf"
			},
			{
				"type": "occ",
				"energy": -0.28029,
				"method": "rhf"
			},
			{
				"type": "occ",
				"energy": -0.24972,
				"method": "rhf"
			},
			{
				"type": "occ",
				"energy": -0.23095,
				"method": "rhf"
			},
			{
				"type": "occ",
				"energy": -0.22657,
				"method": "rhf"
			},
			{
				"type": "unocc",
				"energy": -0.00023,
				"method": "rhf"
			},
			{
				"type": "unocc",
				"energy": 0.01125,
				"method": "rhf"
			},
			{
				"type": "unocc",
				"energy": 0.05216,
				"method": "rhf"
			},
			{
				"type": "unocc",
				"energy": 0.09655,
				"method": "rhf"
			},
			{
				"type": "unocc",
				"energy": 0.10482,
				"method": "rhf"
			}
		],
		"cosmo_sigma_profile": { 
			"-0.025": 0.0,
			"-0.024": 0.0,
			"-0.023": 0.0,
			"-0.022": 0.0,
			"-0.021": 0.0,
			"-0.02": 0.0,
			"-0.019": 0.0,
			"-0.018": 0.0,
			"-0.017": 0.0,
			"-0.016": 0.0574296426835,
			"-0.015": 0.649743069678,
			"-0.014": 0.841854312499,
			"-0.013": 1.01703662597,
			"-0.012": 0.849020599593,
			"-0.011": 0.904369134514,
			"-0.01": 1.25366955655,
			"-0.009": 2.23925910773,
			"-0.008": 2.77972225281,
			"-0.007": 5.72094279425,
			"-0.006": 10.4655758561,
			"-0.005": 14.1448864278,
			"-0.004": 16.5268181724,
			"-0.003": 17.8850860656,
			"-0.002": 15.3514833405,
			"-0.001": 14.0643545621,
			"0.0": 11.8073069082,
			"0.001": 16.5738773634,
			"0.002": 13.0316256533,
			"0.003": 11.4485795998,
			"0.004": 17.7053243342,
			"0.005": 15.6386820523,
			"0.006": 3.50124198399,
			"0.007": 2.71513206732,
			"0.008": 2.54018003834,
			"0.009": 1.60427067593,
			"0.01": 3.13442341461,
			"0.011": 2.10571563221,
			"0.012": 1.2906808133,
			"0.013": 1.10026865025,
			"0.014": 1.0451377641,
			"0.015": 0.647356452628,
			"0.016": 0.889056573372,
			"0.017": 0.70639632015,
			"0.018": 0.443775112528,
			"0.019": 0.311101785444,
			"0.02": 0.0,
			"0.021": 0.0,
			"0.022": 0.0,
			"0.023": 0.0,
			"0.024": 0.0,
			"0.025": 0.0
		}
	}
}
