{
	 "smiles": "COC(=O)C1=CN=C(C=C1)C1=CC=CC=C1", 
	 "Tm": 383.15, 
	 "num_atms": 27, 
	 "gaussian": { 
		 "optdone": 1, 
		 "sigma_profile": "yes", 
		 "theory": "DFT", 
		 "functional": "B3LYP", 
		 "basiset": "6-31G**", 
		 "properties": { 
			 "R2extent": 6135.9606, 
			 "electric_dipole_moment_norm": 3.15926918764, 
			 "electric_quadrupole_moment_norm": 17.0588760272, 
			 "total_energy": -707.226884281, 
			 "HOMO_LUMO_gap": 0.16808, 
			 "cosmo_polarized_energy": -10.33, 
			 "cosmo_cavitation_energy": 31.83, 
			 "cosmo_dispersion_energy": -23.48, 
			 "cosmo_repulsion_energy": 1.8, 
			 "cosmo_total_nonelectrostatic_energy": 10.14, 
			 "SMD_solvation_energy": 5.94 
		},
		"coords": [
			{
				"x": 0.6125186556,
				"y": -5.3463184312,
				"z": 3.3646852583,
				"element": "C" 
			},
			{
				"x": 0.5265396732,
				"y": -4.0735767192,
				"z": 2.7046252732,
				"element": "O" 
			},
			{
				"x": -0.7301615379,
				"y": -3.6072202834,
				"z": 2.515759974,
				"element": "C" 
			},
			{
				"x": -1.724726255,
				"y": -4.2082946223,
				"z": 2.8727549562,
				"element": "O" 
			},
			{
				"x": -0.7430854847,
				"y": -2.2905554592,
				"z": 1.8287412788,
				"element": "C" 
			},
			{
				"x": -1.9776833522,
				"y": -1.6837390914,
				"z": 1.5579685805,
				"element": "C" 
			},
			{
				"x": -2.1074125608,
				"y": -0.5048600733,
				"z": 0.9555241096,
				"element": "N" 
			},
			{
				"x": -0.9938987466,
				"y": 0.1568301502,
				"z": 0.5747488501,
				"element": "C" 
			},
			{
				"x": 0.2868317631,
				"y": -0.3875762939,
				"z": 0.785623549,
				"element": "C" 
			},
			{
				"x": 0.4129901658,
				"y": -1.6153776846,
				"z": 1.4209268235,
				"element": "C" 
			},
			{
				"x": -1.1983772478,
				"y": 1.4705765297,
				"z": -0.0880926242,
				"element": "C" 
			},
			{
				"x": -0.1604758604,
				"y": 2.4090738305,
				"z": -0.2181319514,
				"element": "C" 
			},
			{
				"x": -0.3801019014,
				"y": 3.6314357452,
				"z": -0.8506322494,
				"element": "C" 
			},
			{
				"x": -1.6408221416,
				"y": 3.9395474623,
				"z": -1.3652236018,
				"element": "C" 
			},
			{
				"x": -2.6828038578,
				"y": 3.0182588258,
				"z": -1.2343852195,
				"element": "C" 
			},
			{
				"x": -2.4662396692,
				"y": 1.7983332563,
				"z": -0.5991361827,
				"element": "C" 
			},
			{
				"x": 0.095957301,
				"y": -6.1157357626,
				"z": 2.7854771961,
				"element": "H" 
			},
			{
				"x": 0.1633843903,
				"y": -5.2947385123,
				"z": 4.3596303902,
				"element": "H" 
			},
			{
				"x": 1.6769629332,
				"y": -5.5695907611,
				"z": 3.4355122692,
				"element": "H" 
			},
			{
				"x": -2.8920335586,
				"y": -2.1927160477,
				"z": 1.8533269275,
				"element": "H" 
			},
			{
				"x": 1.1722723616,
				"y": 0.1326848218,
				"z": 0.4395471328,
				"element": "H" 
			},
			{
				"x": 1.3888077164,
				"y": -2.0551566067,
				"z": 1.5945798981,
				"element": "H" 
			},
			{
				"x": 0.8207887859,
				"y": 2.2015226878,
				"z": 0.1965624628,
				"element": "H" 
			},
			{
				"x": 0.4331222307,
				"y": 4.3465369255,
				"z": -0.9351033678,
				"element": "H" 
			},
			{
				"x": -1.8108296527,
				"y": 4.891852736,
				"z": -1.859297541,
				"element": "H" 
			},
			{
				"x": -3.6676940622,
				"y": 3.2513801559,
				"z": -1.6289646653,
				"element": "H" 
			},
			{
				"x": -3.2688300875,
				"y": 1.078823222,
				"z": -0.485727527,
				"element": "H" 
			}
		],
		 "valence_orbital": [ 
			{
				"type": "occ",
				"energy": -0.28549,
				"method": "rhf"
			},
			{
				"type": "occ",
				"energy": -0.2804,
				"method": "rhf"
			},
			{
				"type": "occ",
				"energy": -0.25811,
				"method": "rhf"
			},
			{
				"type": "occ",
				"energy": -0.25272,
				"method": "rhf"
			},
			{
				"type": "occ",
				"energy": -0.23389,
				"method": "rhf"
			},
			{
				"type": "unocc",
				"energy": -0.06581,
				"method": "rhf"
			},
			{
				"type": "unocc",
				"energy": -0.02764,
				"method": "rhf"
			},
			{
				"type": "unocc",
				"energy": -0.00118,
				"method": "rhf"
			},
			{
				"type": "unocc",
				"energy": 0.00087,
				"method": "rhf"
			},
			{
				"type": "unocc",
				"energy": 0.06152,
				"method": "rhf"
			}
		],
		"cosmo_sigma_profile": { 
			"-0.025": 0.0,
			"-0.024": 0.0,
			"-0.023": 0.0,
			"-0.022": 0.0,
			"-0.021": 0.0,
			"-0.02": 0.0,
			"-0.019": 0.0,
			"-0.018": 0.0,
			"-0.017": 0.0,
			"-0.016": 0.0,
			"-0.015": 0.0,
			"-0.014": 0.0,
			"-0.013": 0.0,
			"-0.012": 0.0,
			"-0.011": 0.0,
			"-0.01": 0.0,
			"-0.009": 0.302917092455,
			"-0.008": 2.54315412684,
			"-0.007": 5.21280211732,
			"-0.006": 15.4925280816,
			"-0.005": 19.0707080926,
			"-0.004": 23.1209093888,
			"-0.003": 21.9808107627,
			"-0.002": 16.928240879,
			"-0.001": 18.8741839685,
			"0.0": 22.8050534498,
			"0.001": 23.9459955696,
			"0.002": 16.0109808378,
			"0.003": 13.9483276231,
			"0.004": 15.7804167998,
			"0.005": 15.6281380828,
			"0.006": 4.27572925719,
			"0.007": 2.58956827033,
			"0.008": 2.64003163255,
			"0.009": 2.57309915413,
			"0.01": 3.57533010167,
			"0.011": 3.92723204655,
			"0.012": 4.39109682028,
			"0.013": 0.137798479506,
			"0.014": 0.0,
			"0.015": 0.0,
			"0.016": 0.0,
			"0.017": 0.0,
			"0.018": 0.0,
			"0.019": 0.0,
			"0.02": 0.0,
			"0.021": 0.0,
			"0.022": 0.0,
			"0.023": 0.0,
			"0.024": 0.0,
			"0.025": 0.0
		}
	}
}
