{
	 "smiles": "[O-][N+](=O)C1=CC=CC(=C1)N1C(=O)C2ON=C(C2C1=O)C(=O)C1=CC=CC=C1", 
	 "Tm": 446.15, 
	 "num_atms": 38, 
	 "gaussian": { 
		 "optdone": 1, 
		 "sigma_profile": "yes", 
		 "theory": "DFT", 
		 "functional": "B3LYP", 
		 "basiset": "6-31G**", 
		 "properties": { 
			 "R2extent": 12356.8509, 
			 "electric_dipole_moment_norm": 4.59534972119, 
			 "electric_quadrupole_moment_norm": 33.8046506342, 
			 "total_energy": -1307.98935703, 
			 "HOMO_LUMO_gap": 0.17186, 
			 "cosmo_polarized_energy": -22.48, 
			 "cosmo_cavitation_energy": 45.24, 
			 "cosmo_dispersion_energy": -31.81, 
			 "cosmo_repulsion_energy": 2.37, 
			 "cosmo_total_nonelectrostatic_energy": 15.8, 
			 "SMD_solvation_energy": 11.32 
		},
		"coords": [
			{
				"x": -2.4629556209,
				"y": -3.9270233512,
				"z": -3.2951092636,
				"element": "O" 
			},
			{
				"x": -2.3721636424,
				"y": -3.0436961947,
				"z": -4.1449481915,
				"element": "N" 
			},
			{
				"x": -2.4955367515,
				"y": -3.2156316833,
				"z": -5.3564949156,
				"element": "O" 
			},
			{
				"x": -2.0894902398,
				"y": -1.6728092732,
				"z": -3.6792594875,
				"element": "C" 
			},
			{
				"x": -1.9446334155,
				"y": -0.6587532964,
				"z": -4.6224504025,
				"element": "C" 
			},
			{
				"x": -1.6708125686,
				"y": 0.628448841,
				"z": -4.1665263653,
				"element": "C" 
			},
			{
				"x": -1.5533563652,
				"y": 0.8904315368,
				"z": -2.801391423,
				"element": "C" 
			},
			{
				"x": -1.7015664943,
				"y": -0.1517486818,
				"z": -1.8770082568,
				"element": "C" 
			},
			{
				"x": -1.9701183613,
				"y": -1.4514538606,
				"z": -2.3112257208,
				"element": "C" 
			},
			{
				"x": -1.5776540324,
				"y": 0.1096750885,
				"z": -0.4769200882,
				"element": "N" 
			},
			{
				"x": -2.4191549001,
				"y": -0.4643602011,
				"z": 0.4953063996,
				"element": "C" 
			},
			{
				"x": -3.3480377058,
				"y": -1.2047802538,
				"z": 0.281607746,
				"element": "O" 
			},
			{
				"x": -1.9344328324,
				"y": 0.0105990855,
				"z": 1.8682736338,
				"element": "C" 
			},
			{
				"x": -1.332831721,
				"y": -1.1192948222,
				"z": 2.576056748,
				"element": "O" 
			},
			{
				"x": 0.0061416001,
				"y": -0.8674695668,
				"z": 2.8038620861,
				"element": "N" 
			},
			{
				"x": 0.3495489794,
				"y": 0.2674880635,
				"z": 2.3080082645,
				"element": "C" 
			},
			{
				"x": -0.7874662725,
				"y": 0.9750530016,
				"z": 1.5983262559,
				"element": "C" 
			},
			{
				"x": -0.6071980327,
				"y": 0.9754155372,
				"z": 0.0715645674,
				"element": "C" 
			},
			{
				"x": 0.2122752045,
				"y": 1.5970817808,
				"z": -0.5591697599,
				"element": "O" 
			},
			{
				"x": 1.6704291871,
				"y": 0.9423756977,
				"z": 2.5318751954,
				"element": "C" 
			},
			{
				"x": 1.659868892,
				"y": 2.1655997679,
				"z": 2.4448235255,
				"element": "O" 
			},
			{
				"x": 2.9067704645,
				"y": 0.1823688534,
				"z": 2.8584886184,
				"element": "C" 
			},
			{
				"x": 4.0397433758,
				"y": 0.9390311867,
				"z": 3.2089625719,
				"element": "C" 
			},
			{
				"x": 5.2412638385,
				"y": 0.3082814163,
				"z": 3.5093033003,
				"element": "C" 
			},
			{
				"x": 5.3294411394,
				"y": -1.0867319438,
				"z": 3.4559417152,
				"element": "C" 
			},
			{
				"x": 4.2121589198,
				"y": -1.8449883032,
				"z": 3.1019701877,
				"element": "C" 
			},
			{
				"x": 3.0033283242,
				"y": -1.2180323779,
				"z": 2.8027470444,
				"element": "C" 
			},
			{
				"x": -2.0465010593,
				"y": -0.889297856,
				"z": -5.6751038951,
				"element": "H" 
			},
			{
				"x": -1.5506825131,
				"y": 1.4386797242,
				"z": -4.8779497431,
				"element": "H" 
			},
			{
				"x": -1.3342861195,
				"y": 1.8919947041,
				"z": -2.4552462945,
				"element": "H" 
			},
			{
				"x": -2.0986198703,
				"y": -2.2736878761,
				"z": -1.6220385261,
				"element": "H" 
			},
			{
				"x": -2.769683836,
				"y": 0.3766698833,
				"z": 2.4684514775,
				"element": "H" 
			},
			{
				"x": -0.8998770846,
				"y": 2.00305432,
				"z": 1.9488563588,
				"element": "H" 
			},
			{
				"x": 3.9490936132,
				"y": 2.0193444366,
				"z": 3.2375998488,
				"element": "H" 
			},
			{
				"x": 6.1101579277,
				"y": 0.8992521907,
				"z": 3.7829833142,
				"element": "H" 
			},
			{
				"x": 6.2687065813,
				"y": -1.5805861526,
				"z": 3.6882468168,
				"element": "H" 
			},
			{
				"x": 4.2809158487,
				"y": -2.927607492,
				"z": 3.0565595933,
				"element": "H" 
			},
			{
				"x": 2.1400155427,
				"y": -1.813991929,
				"z": 2.5355270638,
				"element": "H" 
			}
		],
		 "valence_orbital": [ 
			{
				"type": "occ",
				"energy": -0.27987,
				"method": "rhf"
			},
			{
				"type": "occ",
				"energy": -0.27591,
				"method": "rhf"
			},
			{
				"type": "occ",
				"energy": -0.27339,
				"method": "rhf"
			},
			{
				"type": "occ",
				"energy": -0.26895,
				"method": "rhf"
			},
			{
				"type": "occ",
				"energy": -0.26706,
				"method": "rhf"
			},
			{
				"type": "unocc",
				"energy": -0.0952,
				"method": "rhf"
			},
			{
				"type": "unocc",
				"energy": -0.09421,
				"method": "rhf"
			},
			{
				"type": "unocc",
				"energy": -0.06065,
				"method": "rhf"
			},
			{
				"type": "unocc",
				"energy": -0.05246,
				"method": "rhf"
			},
			{
				"type": "unocc",
				"energy": -0.03211,
				"method": "rhf"
			}
		],
		"cosmo_sigma_profile": { 
			"-0.025": 0.0,
			"-0.024": 0.0,
			"-0.023": 0.0,
			"-0.022": 0.0,
			"-0.021": 0.0,
			"-0.02": 0.0,
			"-0.019": 0.0,
			"-0.018": 0.0,
			"-0.017": 0.0,
			"-0.016": 0.0,
			"-0.015": 0.0,
			"-0.014": 1.25497392183e-05,
			"-0.013": 0.325671407237,
			"-0.012": 1.4086557315,
			"-0.011": 3.1749832859,
			"-0.01": 8.73491121125,
			"-0.009": 6.0386039255,
			"-0.008": 10.469496763,
			"-0.007": 16.7422027029,
			"-0.006": 19.3550884467,
			"-0.005": 23.6993797985,
			"-0.004": 21.5021552779,
			"-0.003": 18.5055055042,
			"-0.002": 21.7283539989,
			"-0.001": 23.2326492727,
			"0.0": 24.8014750264,
			"0.001": 23.4247952682,
			"0.002": 20.345935909,
			"0.003": 22.0009959747,
			"0.004": 14.4881259135,
			"0.005": 10.969662401,
			"0.006": 12.0772663688,
			"0.007": 18.5832281711,
			"0.008": 14.7696778574,
			"0.009": 14.1855177568,
			"0.01": 11.7332161823,
			"0.011": 3.12050235269,
			"0.012": 0.0,
			"0.013": 0.0,
			"0.014": 0.0,
			"0.015": 0.0,
			"0.016": 0.0,
			"0.017": 0.0,
			"0.018": 0.0,
			"0.019": 0.0,
			"0.02": 0.0,
			"0.021": 0.0,
			"0.022": 0.0,
			"0.023": 0.0,
			"0.024": 0.0,
			"0.025": 0.0
		}
	}
}
