{
	 "smiles": "CC1=C(C=C(C=C1Cl)C(O)=O)S(Cl)(=O)=O", 
	 "Tm": 441.15, 
	 "num_atms": 21, 
	 "gaussian": { 
		 "optdone": 1, 
		 "sigma_profile": "yes", 
		 "theory": "DFT", 
		 "functional": "B3LYP", 
		 "basiset": "6-31G**", 
		 "properties": { 
			 "R2extent": 4779.3588, 
			 "electric_dipole_moment_norm": 5.48526167106, 
			 "electric_quadrupole_moment_norm": 16.8381817136, 
			 "total_energy": -1927.87052958, 
			 "HOMO_LUMO_gap": 0.18142, 
			 "cosmo_polarized_energy": -17.86, 
			 "cosmo_cavitation_energy": 30.63, 
			 "cosmo_dispersion_energy": -22.91, 
			 "cosmo_repulsion_energy": 1.74, 
			 "cosmo_total_nonelectrostatic_energy": 9.46, 
			 "SMD_solvation_energy": 5.01 
		},
		"coords": [
			{
				"x": -2.2935922281,
				"y": 0.280116727,
				"z": -1.5688651881,
				"element": "C" 
			},
			{
				"x": -0.9005227519,
				"y": 0.6942514525,
				"z": -1.171092345,
				"element": "C" 
			},
			{
				"x": -0.2958648493,
				"y": 0.3211754996,
				"z": 0.0510651392,
				"element": "C" 
			},
			{
				"x": 0.9932371081,
				"y": 0.684544177,
				"z": 0.4230534178,
				"element": "C" 
			},
			{
				"x": 1.7477770114,
				"y": 1.4938666286,
				"z": -0.4302209493,
				"element": "C" 
			},
			{
				"x": 1.1958148343,
				"y": 1.8897240362,
				"z": -1.6489031312,
				"element": "C" 
			},
			{
				"x": -0.0961525882,
				"y": 1.4964289231,
				"z": -2.0013793694,
				"element": "C" 
			},
			{
				"x": -0.6936732818,
				"y": 2.0569834912,
				"z": -3.5543912932,
				"element": "Cl" 
			},
			{
				"x": 3.1421501633,
				"y": 1.8546746355,
				"z": 0.0031999142,
				"element": "C" 
			},
			{
				"x": 3.7088743337,
				"y": 2.936123828,
				"z": -0.5871915076,
				"element": "O" 
			},
			{
				"x": 3.7468501763,
				"y": 1.219557658,
				"z": 0.8312553287,
				"element": "O" 
			},
			{
				"x": -1.1927883114,
				"y": -0.6401792882,
				"z": 1.2905156715,
				"element": "S" 
			},
			{
				"x": -1.1631314144,
				"y": -2.5856946697,
				"z": 0.4189132466,
				"element": "Cl" 
			},
			{
				"x": -0.38092646,
				"y": -0.7238069448,
				"z": 2.4957421054,
				"element": "O" 
			},
			{
				"x": -2.5881661381,
				"y": -0.2230061152,
				"z": 1.3334026754,
				"element": "O" 
			},
			{
				"x": -2.4979013532,
				"y": -0.7558284849,
				"z": -1.2957744247,
				"element": "H" 
			},
			{
				"x": -3.0354563887,
				"y": 0.8987634329,
				"z": -1.0541200318,
				"element": "H" 
			},
			{
				"x": -2.435386772,
				"y": 0.3921336174,
				"z": -2.6425307498,
				"element": "H" 
			},
			{
				"x": 1.4191350934,
				"y": 0.354626561,
				"z": 1.3628770485,
				"element": "H" 
			},
			{
				"x": 1.7637722257,
				"y": 2.4772317245,
				"z": -2.3631425957,
				"element": "H" 
			},
			{
				"x": 3.0525515909,
				"y": 3.4487131104,
				"z": -1.0789129614,
				"element": "H" 
			}
		],
		 "valence_orbital": [ 
			{
				"type": "occ",
				"energy": -0.33924,
				"method": "rhf"
			},
			{
				"type": "occ",
				"energy": -0.32684,
				"method": "rhf"
			},
			{
				"type": "occ",
				"energy": -0.30978,
				"method": "rhf"
			},
			{
				"type": "occ",
				"energy": -0.30016,
				"method": "rhf"
			},
			{
				"type": "occ",
				"energy": -0.28692,
				"method": "rhf"
			},
			{
				"type": "unocc",
				"energy": -0.1055,
				"method": "rhf"
			},
			{
				"type": "unocc",
				"energy": -0.0847,
				"method": "rhf"
			},
			{
				"type": "unocc",
				"energy": -0.06552,
				"method": "rhf"
			},
			{
				"type": "unocc",
				"energy": -0.01184,
				"method": "rhf"
			},
			{
				"type": "unocc",
				"energy": 0.00598,
				"method": "rhf"
			}
		],
		"cosmo_sigma_profile": { 
			"-0.025": 0.0,
			"-0.024": 0.0,
			"-0.023": 0.0,
			"-0.022": 0.0,
			"-0.021": 0.0,
			"-0.02": 0.733562844804,
			"-0.019": 1.14741105801,
			"-0.018": 1.12481820054,
			"-0.017": 1.16060582493,
			"-0.016": 0.965421616301,
			"-0.015": 1.11097431582,
			"-0.014": 0.911246547847,
			"-0.013": 1.40944360148,
			"-0.012": 1.45785706013,
			"-0.011": 1.09058475418,
			"-0.01": 1.37080999642,
			"-0.009": 2.14002778105,
			"-0.008": 1.75812569432,
			"-0.007": 2.65453692892,
			"-0.006": 6.47005577767,
			"-0.005": 11.220526192,
			"-0.004": 16.4395079208,
			"-0.003": 24.3588813137,
			"-0.002": 29.8528978369,
			"-0.001": 17.7229114825,
			"0.0": 14.0902829045,
			"0.001": 16.0456031427,
			"0.002": 17.5457269785,
			"0.003": 20.7162607301,
			"0.004": 8.32373097865,
			"0.005": 5.02252966502,
			"0.006": 5.91241561526,
			"0.007": 9.57644302805,
			"0.008": 10.8539793246,
			"0.009": 6.06169928682,
			"0.01": 4.86721323268,
			"0.011": 5.00381666297,
			"0.012": 1.71146374404,
			"0.013": 0.0834345549492,
			"0.014": 0.0,
			"0.015": 0.0,
			"0.016": 0.0,
			"0.017": 0.0,
			"0.018": 0.0,
			"0.019": 0.0,
			"0.02": 0.0,
			"0.021": 0.0,
			"0.022": 0.0,
			"0.023": 0.0,
			"0.024": 0.0,
			"0.025": 0.0
		}
	}
}
