{
	 "smiles": "COC1=CC(=C(C=C1)S(N)(=O)=O)[N+]([O-])=O", 
	 "Tm": 417.15, 
	 "num_atms": 23, 
	 "gaussian": { 
		 "optdone": 1, 
		 "sigma_profile": "yes", 
		 "theory": "DFT", 
		 "functional": "B3LYP", 
		 "basiset": "6-31G**", 
		 "properties": { 
			 "R2extent": 3795.1792, 
			 "electric_dipole_moment_norm": 6.31482181063, 
			 "electric_quadrupole_moment_norm": 18.8729223741, 
			 "total_energy": -1155.18355869, 
			 "HOMO_LUMO_gap": 0.15705, 
			 "cosmo_polarized_energy": -18.83, 
			 "cosmo_cavitation_energy": 28.98, 
			 "cosmo_dispersion_energy": -22.08, 
			 "cosmo_repulsion_energy": 1.67, 
			 "cosmo_total_nonelectrostatic_energy": 8.57, 
			 "SMD_solvation_energy": 7.36 
		},
		"coords": [
			{
				"x": -0.7031625508,
				"y": 4.5777288918,
				"z": 1.7893799555,
				"element": "C" 
			},
			{
				"x": -0.5609476675,
				"y": 3.9049911967,
				"z": 0.5415407034,
				"element": "O" 
			},
			{
				"x": -0.1705756054,
				"y": 2.610021367,
				"z": 0.5460520389,
				"element": "C" 
			},
			{
				"x": -0.0585307006,
				"y": 2.0094635643,
				"z": -0.7174235051,
				"element": "C" 
			},
			{
				"x": 0.3485322386,
				"y": 0.6896522326,
				"z": -0.8223597189,
				"element": "C" 
			},
			{
				"x": 0.6422464453,
				"y": -0.0846288789,
				"z": 0.3155213802,
				"element": "C" 
			},
			{
				"x": 0.5059864176,
				"y": 0.5237160565,
				"z": 1.5615043543,
				"element": "C" 
			},
			{
				"x": 0.1182436489,
				"y": 1.858134824,
				"z": 1.690357673,
				"element": "C" 
			},
			{
				"x": 0.9891540471,
				"y": -1.8593482696,
				"z": 0.3467077838,
				"element": "S" 
			},
			{
				"x": 2.5791648869,
				"y": -1.9530320244,
				"z": -0.1878901785,
				"element": "N" 
			},
			{
				"x": 1.0515472351,
				"y": -2.2499879721,
				"z": 1.7590984964,
				"element": "O" 
			},
			{
				"x": 0.041556149,
				"y": -2.5108013248,
				"z": -0.5575401979,
				"element": "O" 
			},
			{
				"x": 0.4982927704,
				"y": 0.1762957656,
				"z": -2.1980848776,
				"element": "N" 
			},
			{
				"x": -0.1938922814,
				"y": 0.6862315049,
				"z": -3.0715588982,
				"element": "O" 
			},
			{
				"x": 1.3364895447,
				"y": -0.7029791024,
				"z": -2.3938982919,
				"element": "O" 
			},
			{
				"x": -1.022396412,
				"y": 5.5909505344,
				"z": 1.5450984681,
				"element": "H" 
			},
			{
				"x": -1.4635737989,
				"y": 4.0982963865,
				"z": 2.4171770472,
				"element": "H" 
			},
			{
				"x": 0.2484247282,
				"y": 4.617287187,
				"z": 2.3328055997,
				"element": "H" 
			},
			{
				"x": -0.2849785508,
				"y": 2.5794677919,
				"z": -1.6091015898,
				"element": "H" 
			},
			{
				"x": 0.6966630974,
				"y": -0.0753726339,
				"z": 2.4444201721,
				"element": "H" 
			},
			{
				"x": 0.0351286902,
				"y": 2.2893107606,
				"z": 2.6802340954,
				"element": "H" 
			},
			{
				"x": 3.0241122966,
				"y": -2.7415762507,
				"z": 0.2747974278,
				"element": "H" 
			},
			{
				"x": 2.6220153713,
				"y": -2.0006216071,
				"z": -1.201637938,
				"element": "H" 
			}
		],
		 "valence_orbital": [ 
			{
				"type": "occ",
				"energy": -0.31514,
				"method": "rhf"
			},
			{
				"type": "occ",
				"energy": -0.30573,
				"method": "rhf"
			},
			{
				"type": "occ",
				"energy": -0.29151,
				"method": "rhf"
			},
			{
				"type": "occ",
				"energy": -0.28765,
				"method": "rhf"
			},
			{
				"type": "occ",
				"energy": -0.25864,
				"method": "rhf"
			},
			{
				"type": "unocc",
				"energy": -0.10159,
				"method": "rhf"
			},
			{
				"type": "unocc",
				"energy": -0.04152,
				"method": "rhf"
			},
			{
				"type": "unocc",
				"energy": -0.02048,
				"method": "rhf"
			},
			{
				"type": "unocc",
				"energy": 0.04197,
				"method": "rhf"
			},
			{
				"type": "unocc",
				"energy": 0.07009,
				"method": "rhf"
			}
		],
		"cosmo_sigma_profile": { 
			"-0.025": 0.0,
			"-0.024": 0.0,
			"-0.023": 0.0,
			"-0.022": 0.0,
			"-0.021": 0.0,
			"-0.02": 0.0,
			"-0.019": 0.0,
			"-0.018": 0.0,
			"-0.017": 0.0,
			"-0.016": 0.178457140941,
			"-0.015": 1.21947023734,
			"-0.014": 1.74753759043,
			"-0.013": 1.54070555907,
			"-0.012": 1.95841761603,
			"-0.011": 2.39466267023,
			"-0.01": 1.98969154853,
			"-0.009": 2.79753591709,
			"-0.008": 7.45470708056,
			"-0.007": 11.468657963,
			"-0.006": 14.7587608067,
			"-0.005": 12.9661130043,
			"-0.004": 14.9426311584,
			"-0.003": 11.3849273921,
			"-0.002": 13.2886722019,
			"-0.001": 20.0645112706,
			"0.0": 14.383968551,
			"0.001": 11.9084587307,
			"0.002": 7.31597729499,
			"0.003": 7.19697909331,
			"0.004": 7.70435647151,
			"0.005": 7.21195191926,
			"0.006": 9.07201363729,
			"0.007": 10.7514180478,
			"0.008": 9.66270179962,
			"0.009": 7.53009762046,
			"0.01": 8.44642985821,
			"0.011": 8.91447549441,
			"0.012": 1.49901548133,
			"0.013": 0.0,
			"0.014": 0.0,
			"0.015": 0.0,
			"0.016": 0.0,
			"0.017": 0.0,
			"0.018": 0.0,
			"0.019": 0.0,
			"0.02": 0.0,
			"0.021": 0.0,
			"0.022": 0.0,
			"0.023": 0.0,
			"0.024": 0.0,
			"0.025": 0.0
		}
	}
}
