{
	 "smiles": "OC(=O)C(NCC1=CC=CC=C1)C1=CC=C(C=C1)C(F)(F)F", 
	 "Tm": 504.15, 
	 "num_atms": 36, 
	 "gaussian": { 
		 "optdone": 1, 
		 "sigma_profile": "yes", 
		 "theory": "DFT", 
		 "functional": "B3LYP", 
		 "basiset": "6-31G**", 
		 "properties": { 
			 "R2extent": 9467.2551, 
			 "electric_dipole_moment_norm": 5.58917524685, 
			 "electric_quadrupole_moment_norm": 18.4324856606, 
			 "total_energy": -1122.87723877, 
			 "HOMO_LUMO_gap": 0.21637, 
			 "cosmo_polarized_energy": -17.64, 
			 "cosmo_cavitation_energy": 41.98, 
			 "cosmo_dispersion_energy": -27.89, 
			 "cosmo_repulsion_energy": 2.07, 
			 "cosmo_total_nonelectrostatic_energy": 16.16, 
			 "SMD_solvation_energy": 8.72 
		},
		"coords": [
			{
				"x": -2.8358674996,
				"y": -1.3079468461,
				"z": 1.4953285513,
				"element": "O" 
			},
			{
				"x": -2.0502429154,
				"y": -1.4957588896,
				"z": 0.4239229819,
				"element": "C" 
			},
			{
				"x": -2.3815812161,
				"y": -2.1454603221,
				"z": -0.5375742677,
				"element": "O" 
			},
			{
				"x": -0.6993928936,
				"y": -0.7448976354,
				"z": 0.5267767875,
				"element": "C" 
			},
			{
				"x": -0.4241233106,
				"y": -0.4671882111,
				"z": 1.9564501243,
				"element": "N" 
			},
			{
				"x": 0.4821228292,
				"y": 0.6678669249,
				"z": 2.2229949346,
				"element": "C" 
			},
			{
				"x": -0.1414368766,
				"y": 2.0044862497,
				"z": 1.8735330354,
				"element": "C" 
			},
			{
				"x": -1.3804941723,
				"y": 2.379988747,
				"z": 2.4127258805,
				"element": "C" 
			},
			{
				"x": -1.9422255222,
				"y": 3.6184070101,
				"z": 2.1070983824,
				"element": "C" 
			},
			{
				"x": -1.2711033452,
				"y": 4.5040938937,
				"z": 1.2591048959,
				"element": "C" 
			},
			{
				"x": -0.0369693428,
				"y": 4.1426149385,
				"z": 0.7196947217,
				"element": "C" 
			},
			{
				"x": 0.5211525335,
				"y": 2.8984943243,
				"z": 1.0244688959,
				"element": "C" 
			},
			{
				"x": 0.4332658761,
				"y": -1.4359001543,
				"z": -0.2080839434,
				"element": "C" 
			},
			{
				"x": 1.3223063783,
				"y": -0.6898069091,
				"z": -0.990795323,
				"element": "C" 
			},
			{
				"x": 2.4200320717,
				"y": -1.2942991688,
				"z": -1.6032655425,
				"element": "C" 
			},
			{
				"x": 2.6395778963,
				"y": -2.6617806023,
				"z": -1.4360837811,
				"element": "C" 
			},
			{
				"x": 1.7546185645,
				"y": -3.4220036185,
				"z": -0.6643920345,
				"element": "C" 
			},
			{
				"x": 0.6617155731,
				"y": -2.8119834713,
				"z": -0.0573729845,
				"element": "C" 
			},
			{
				"x": 3.7900203343,
				"y": -3.3348212533,
				"z": -2.1347264098,
				"element": "C" 
			},
			{
				"x": 4.2782693088,
				"y": -4.3681751774,
				"z": -1.4122779598,
				"element": "F" 
			},
			{
				"x": 4.8114221641,
				"y": -2.4788544813,
				"z": -2.3618291667,
				"element": "F" 
			},
			{
				"x": 3.42204497,
				"y": -3.8361817051,
				"z": -3.3356897092,
				"element": "F" 
			},
			{
				"x": -2.2787487043,
				"y": -0.7922773782,
				"z": 2.1252450327,
				"element": "H" 
			},
			{
				"x": -0.8820664558,
				"y": 0.2295861564,
				"z": 0.0571196322,
				"element": "H" 
			},
			{
				"x": -0.0251618321,
				"y": -1.304079816,
				"z": 2.3790851414,
				"element": "H" 
			},
			{
				"x": 1.4397324792,
				"y": 0.5621965052,
				"z": 1.6917329865,
				"element": "H" 
			},
			{
				"x": 0.7088267481,
				"y": 0.6337783692,
				"z": 3.2954335262,
				"element": "H" 
			},
			{
				"x": -1.9040012421,
				"y": 1.6963096897,
				"z": 3.075268609,
				"element": "H" 
			},
			{
				"x": -2.9027867364,
				"y": 3.894966022,
				"z": 2.5321201017,
				"element": "H" 
			},
			{
				"x": -1.7094500179,
				"y": 5.4689127927,
				"z": 1.0215093868,
				"element": "H" 
			},
			{
				"x": 0.4909781446,
				"y": 4.8241761958,
				"z": 0.0590162121,
				"element": "H" 
			},
			{
				"x": 1.4849268135,
				"y": 2.6214998651,
				"z": 0.603567831,
				"element": "H" 
			},
			{
				"x": 1.1504688322,
				"y": 0.3740989164,
				"z": -1.1300274556,
				"element": "H" 
			},
			{
				"x": 3.1052304479,
				"y": -0.7062292597,
				"z": -2.2040156775,
				"element": "H" 
			},
			{
				"x": 1.9235848392,
				"y": -4.4864808551,
				"z": -0.5419034357,
				"element": "H" 
			},
			{
				"x": -0.0332447218,
				"y": -3.4170508459,
				"z": 0.5174400398,
				"element": "H" 
			}
		],
		 "valence_orbital": [ 
			{
				"type": "occ",
				"energy": -0.27386,
				"method": "rhf"
			},
			{
				"type": "occ",
				"energy": -0.27067,
				"method": "rhf"
			},
			{
				"type": "occ",
				"energy": -0.26483,
				"method": "rhf"
			},
			{
				"type": "occ",
				"energy": -0.25984,
				"method": "rhf"
			},
			{
				"type": "occ",
				"energy": -0.25367,
				"method": "rhf"
			},
			{
				"type": "unocc",
				"energy": -0.0373,
				"method": "rhf"
			},
			{
				"type": "unocc",
				"energy": -0.02516,
				"method": "rhf"
			},
			{
				"type": "unocc",
				"energy": -0.02254,
				"method": "rhf"
			},
			{
				"type": "unocc",
				"energy": -0.01586,
				"method": "rhf"
			},
			{
				"type": "unocc",
				"energy": 0.01194,
				"method": "rhf"
			}
		],
		"cosmo_sigma_profile": { 
			"-0.025": 0.0,
			"-0.024": 0.0,
			"-0.023": 0.0,
			"-0.022": 0.0,
			"-0.021": 0.0,
			"-0.02": 0.0,
			"-0.019": 0.0,
			"-0.018": 0.0,
			"-0.017": 0.0,
			"-0.016": 0.0,
			"-0.015": 0.0,
			"-0.014": 0.0,
			"-0.013": 0.15558002098,
			"-0.012": 1.87086843471,
			"-0.011": 1.6522297281,
			"-0.01": 2.11067255547,
			"-0.009": 2.07698442679,
			"-0.008": 4.01762224115,
			"-0.007": 8.9818613455,
			"-0.006": 17.0911905064,
			"-0.005": 27.1159364376,
			"-0.004": 29.2834421653,
			"-0.003": 25.2585198189,
			"-0.002": 19.9616132753,
			"-0.001": 18.1121108745,
			"0.0": 18.3234268169,
			"0.001": 22.0618631669,
			"0.002": 32.1441755061,
			"0.003": 43.8124733848,
			"0.004": 13.7513320126,
			"0.005": 10.9594095656,
			"0.006": 7.83949566655,
			"0.007": 3.04501540951,
			"0.008": 2.87810956877,
			"0.009": 3.76608407841,
			"0.01": 5.13413579007,
			"0.011": 4.83259981219,
			"0.012": 5.93497794451,
			"0.013": 2.31795242192,
			"0.014": 0.247115875515,
			"0.015": 0.0,
			"0.016": 0.0,
			"0.017": 0.0,
			"0.018": 0.0,
			"0.019": 0.0,
			"0.02": 0.0,
			"0.021": 0.0,
			"0.022": 0.0,
			"0.023": 0.0,
			"0.024": 0.0,
			"0.025": 0.0
		}
	}
}
