{
	 "smiles": "OC(=O)C1=C(Cl)C=C2N3CCCCCC3=NS(=O)(=O)C2=C1", 
	 "Tm": 525.15, 
	 "num_atms": 34, 
	 "gaussian": { 
		 "optdone": 1, 
		 "sigma_profile": "yes", 
		 "theory": "DFT", 
		 "functional": "B3LYP", 
		 "basiset": "6-31G**", 
		 "properties": { 
			 "R2extent": 8129.1166, 
			 "electric_dipole_moment_norm": 11.5974713002, 
			 "electric_quadrupole_moment_norm": 16.8475064398, 
			 "total_energy": -1771.93270971, 
			 "HOMO_LUMO_gap": 0.18158, 
			 "cosmo_polarized_energy": -29.57, 
			 "cosmo_cavitation_energy": 38.9, 
			 "cosmo_dispersion_energy": -29.04, 
			 "cosmo_repulsion_energy": 2.14, 
			 "cosmo_total_nonelectrostatic_energy": 12.0, 
			 "SMD_solvation_energy": 4.66 
		},
		"coords": [
			{
				"x": 1.7668427837,
				"y": -2.6877575621,
				"z": -4.8993856428,
				"element": "O" 
			},
			{
				"x": 2.2680778181,
				"y": -2.2201860153,
				"z": -3.7427884504,
				"element": "C" 
			},
			{
				"x": 3.4352724926,
				"y": -2.3899613019,
				"z": -3.4769903002,
				"element": "O" 
			},
			{
				"x": 1.3665085598,
				"y": -1.4593193106,
				"z": -2.7887914087,
				"element": "C" 
			},
			{
				"x": -0.032198598,
				"y": -1.3016752611,
				"z": -2.8050287251,
				"element": "C" 
			},
			{
				"x": -1.0601926324,
				"y": -2.0588564364,
				"z": -4.0324248364,
				"element": "Cl" 
			},
			{
				"x": -0.721796481,
				"y": -0.5787112741,
				"z": -1.8366931433,
				"element": "C" 
			},
			{
				"x": -0.0236646047,
				"y": 0.0655871203,
				"z": -0.8027106988,
				"element": "C" 
			},
			{
				"x": -0.6851278034,
				"y": 0.7530328834,
				"z": 0.2293340279,
				"element": "N" 
			},
			{
				"x": -2.0518548275,
				"y": 1.2771682251,
				"z": 0.0035951072,
				"element": "C" 
			},
			{
				"x": -2.2468395875,
				"y": 2.7395981267,
				"z": 0.4428536652,
				"element": "C" 
			},
			{
				"x": -2.5586107776,
				"y": 2.9488245548,
				"z": 1.9297964556,
				"element": "C" 
			},
			{
				"x": -1.4349312921,
				"y": 2.525772443,
				"z": 2.8796000722,
				"element": "C" 
			},
			{
				"x": -0.9874743058,
				"y": 1.0613023301,
				"z": 2.687535277,
				"element": "C" 
			},
			{
				"x": -0.0901597167,
				"y": 0.8553134987,
				"z": 1.4857436613,
				"element": "C" 
			},
			{
				"x": 1.1778119762,
				"y": 0.7573504982,
				"z": 1.7340483081,
				"element": "N" 
			},
			{
				"x": 2.2700274755,
				"y": 0.8226556097,
				"z": 0.4624229933,
				"element": "S" 
			},
			{
				"x": 2.3757071981,
				"y": 2.2226158793,
				"z": 0.037093357,
				"element": "O" 
			},
			{
				"x": 3.4657246327,
				"y": 0.0713828583,
				"z": 0.8273229328,
				"element": "O" 
			},
			{
				"x": 1.3747471367,
				"y": -0.0772789632,
				"z": -0.7795771381,
				"element": "C" 
			},
			{
				"x": 2.0408784501,
				"y": -0.8333537707,
				"z": -1.7305561257,
				"element": "C" 
			},
			{
				"x": 0.8212949781,
				"y": -2.4911332547,
				"z": -4.9919370478,
				"element": "H" 
			},
			{
				"x": -1.8021243872,
				"y": -0.5630611707,
				"z": -1.8805848569,
				"element": "H" 
			},
			{
				"x": -2.2158638978,
				"y": 1.2338898397,
				"z": -1.0716280351,
				"element": "H" 
			},
			{
				"x": -2.7974491561,
				"y": 0.6229024845,
				"z": 0.4738142025,
				"element": "H" 
			},
			{
				"x": -3.0843331655,
				"y": 3.1333628529,
				"z": -0.1450453741,
				"element": "H" 
			},
			{
				"x": -1.361011261,
				"y": 3.3139249031,
				"z": 0.1449219316,
				"element": "H" 
			},
			{
				"x": -2.7947893594,
				"y": 4.0060837755,
				"z": 2.0960170145,
				"element": "H" 
			},
			{
				"x": -3.4707410316,
				"y": 2.3882204092,
				"z": 2.1795664871,
				"element": "H" 
			},
			{
				"x": -1.7742652384,
				"y": 2.645110946,
				"z": 3.9142634659,
				"element": "H" 
			},
			{
				"x": -0.5622003837,
				"y": 3.1786332272,
				"z": 2.7592740303,
				"element": "H" 
			},
			{
				"x": -0.386600986,
				"y": 0.7495479978,
				"z": 3.5432779759,
				"element": "H" 
			},
			{
				"x": -1.8623101259,
				"y": 0.4015579819,
				"z": 2.6319580353,
				"element": "H" 
			},
			{
				"x": 3.1177461178,
				"y": -0.9508441245,
				"z": -1.6743972174,
				"element": "H" 
			}
		],
		 "valence_orbital": [ 
			{
				"type": "occ",
				"energy": -0.29769,
				"method": "rhf"
			},
			{
				"type": "occ",
				"energy": -0.28799,
				"method": "rhf"
			},
			{
				"type": "occ",
				"energy": -0.28428,
				"method": "rhf"
			},
			{
				"type": "occ",
				"energy": -0.28253,
				"method": "rhf"
			},
			{
				"type": "occ",
				"energy": -0.25871,
				"method": "rhf"
			},
			{
				"type": "unocc",
				"energy": -0.07713,
				"method": "rhf"
			},
			{
				"type": "unocc",
				"energy": -0.0616,
				"method": "rhf"
			},
			{
				"type": "unocc",
				"energy": -0.03366,
				"method": "rhf"
			},
			{
				"type": "unocc",
				"energy": -0.01683,
				"method": "rhf"
			},
			{
				"type": "unocc",
				"energy": 0.0262,
				"method": "rhf"
			}
		],
		"cosmo_sigma_profile": { 
			"-0.025": 0.0,
			"-0.024": 0.0,
			"-0.023": 0.0,
			"-0.022": 0.0,
			"-0.021": 0.0,
			"-0.02": 0.0,
			"-0.019": 0.0,
			"-0.018": 0.0,
			"-0.017": 0.0,
			"-0.016": 0.0,
			"-0.015": 0.0,
			"-0.014": 0.0180691018281,
			"-0.013": 0.440288726682,
			"-0.012": 1.15359470559,
			"-0.011": 2.10000338998,
			"-0.01": 3.48359461063,
			"-0.009": 3.59466095156,
			"-0.008": 5.17868781076,
			"-0.007": 11.2052066888,
			"-0.006": 15.520790284,
			"-0.005": 21.148143804,
			"-0.004": 29.0563666542,
			"-0.003": 35.1803069197,
			"-0.002": 35.8706654056,
			"-0.001": 28.7106097208,
			"0.0": 14.592660087,
			"0.001": 9.19544730013,
			"0.002": 10.3389571843,
			"0.003": 6.07658063021,
			"0.004": 5.48974665448,
			"0.005": 5.89689292712,
			"0.006": 4.82769581055,
			"0.007": 5.22842749797,
			"0.008": 7.93356720419,
			"0.009": 8.48918475444,
			"0.01": 15.8492991696,
			"0.011": 18.1156759107,
			"0.012": 5.93264495799,
			"0.013": 0.99644176222,
			"0.014": 0.0,
			"0.015": 0.0,
			"0.016": 0.0,
			"0.017": 0.0,
			"0.018": 0.0,
			"0.019": 0.0,
			"0.02": 0.0,
			"0.021": 0.0,
			"0.022": 0.0,
			"0.023": 0.0,
			"0.024": 0.0,
			"0.025": 0.0
		}
	}
}
