{
	 "smiles": "CC(C)(C)OC(=O)NC1=C(N)C=C2OCOC2=C1", 
	 "Tm": 367.15, 
	 "num_atms": 34, 
	 "gaussian": { 
		 "optdone": 1, 
		 "sigma_profile": "yes", 
		 "theory": "DFT", 
		 "functional": "B3LYP", 
		 "basiset": "6-31G**", 
		 "properties": { 
			 "R2extent": 7016.9913, 
			 "electric_dipole_moment_norm": 1.33016488452, 
			 "electric_quadrupole_moment_norm": 11.9571150208, 
			 "total_energy": -877.332033902, 
			 "HOMO_LUMO_gap": 0.17916, 
			 "cosmo_polarized_energy": -13.84, 
			 "cosmo_cavitation_energy": 36.58, 
			 "cosmo_dispersion_energy": -26.75, 
			 "cosmo_repulsion_energy": 2.07, 
			 "cosmo_total_nonelectrostatic_energy": 11.91, 
			 "SMD_solvation_energy": 7.5 
		},
		"coords": [
			{
				"x": -3.7733351104,
				"y": 0.0665313723,
				"z": 2.0950150842,
				"element": "C" 
			},
			{
				"x": -2.339313268,
				"y": 0.5739726146,
				"z": 2.2679001414,
				"element": "C" 
			},
			{
				"x": -1.6636985075,
				"y": -0.1042225442,
				"z": 3.4643434401,
				"element": "C" 
			},
			{
				"x": -2.3111637332,
				"y": 2.1024211792,
				"z": 2.3720867193,
				"element": "C" 
			},
			{
				"x": -1.6978363911,
				"y": 0.1436952652,
				"z": 1.0140872453,
				"element": "O" 
			},
			{
				"x": -0.3904584094,
				"y": 0.3963468559,
				"z": 0.7720368704,
				"element": "C" 
			},
			{
				"x": 0.3771813648,
				"y": 0.9971400095,
				"z": 1.5165641351,
				"element": "O" 
			},
			{
				"x": -0.0499470855,
				"y": -0.1473964091,
				"z": -0.4345850068,
				"element": "N" 
			},
			{
				"x": 1.1809176606,
				"y": 0.0136641362,
				"z": -1.1350970935,
				"element": "C" 
			},
			{
				"x": 2.4272971838,
				"y": -0.2865927966,
				"z": -0.5388609427,
				"element": "C" 
			},
			{
				"x": 2.5037004767,
				"y": -0.7321758004,
				"z": 0.7821051991,
				"element": "N" 
			},
			{
				"x": 3.6041750264,
				"y": -0.1885972194,
				"z": -1.3227714964,
				"element": "C" 
			},
			{
				"x": 3.4843695881,
				"y": 0.1639383949,
				"z": -2.6486949361,
				"element": "C" 
			},
			{
				"x": 4.4768938989,
				"y": 0.2776272006,
				"z": -3.5944764519,
				"element": "O" 
			},
			{
				"x": 3.8406255463,
				"y": 0.8717763464,
				"z": -4.7335220041,
				"element": "C" 
			},
			{
				"x": 2.426531814,
				"y": 0.7514100953,
				"z": -4.5653273965,
				"element": "O" 
			},
			{
				"x": 2.2534510029,
				"y": 0.4526350233,
				"z": -3.2273842149,
				"element": "C" 
			},
			{
				"x": 1.0921620717,
				"y": 0.3971448086,
				"z": -2.4911559184,
				"element": "C" 
			},
			{
				"x": -4.2379857409,
				"y": 0.5151305154,
				"z": 1.21216812,
				"element": "H" 
			},
			{
				"x": -3.7872324942,
				"y": -1.0209331365,
				"z": 1.9776638144,
				"element": "H" 
			},
			{
				"x": -4.3720580461,
				"y": 0.3283353028,
				"z": 2.9723653795,
				"element": "H" 
			},
			{
				"x": -2.2249871457,
				"y": 0.1197594104,
				"z": 4.3772552507,
				"element": "H" 
			},
			{
				"x": -1.6534606813,
				"y": -1.1904195761,
				"z": 3.3298104935,
				"element": "H" 
			},
			{
				"x": -0.6391870905,
				"y": 0.2473910424,
				"z": 3.5873252098,
				"element": "H" 
			},
			{
				"x": -1.2892794361,
				"y": 2.4695136216,
				"z": 2.4700307325,
				"element": "H" 
			},
			{
				"x": -2.8869538397,
				"y": 2.4211454908,
				"z": 3.2470669528,
				"element": "H" 
			},
			{
				"x": -2.7665041974,
				"y": 2.5522072579,
				"z": 1.4841130337,
				"element": "H" 
			},
			{
				"x": -0.816333304,
				"y": -0.5643260021,
				"z": -0.9439615538,
				"element": "H" 
			},
			{
				"x": 1.9077454013,
				"y": -0.1964148513,
				"z": 1.4098725772,
				"element": "H" 
			},
			{
				"x": 3.4539993008,
				"y": -0.7776590308,
				"z": 1.1265360158,
				"element": "H" 
			},
			{
				"x": 4.5738992571,
				"y": -0.4034815612,
				"z": -0.8862420513,
				"element": "H" 
			},
			{
				"x": 4.1474163736,
				"y": 0.339858835,
				"z": -5.6383651094,
				"element": "H" 
			},
			{
				"x": 4.1182044861,
				"y": 1.935679769,
				"z": -4.7905588937,
				"element": "H" 
			},
			{
				"x": 0.130264028,
				"y": 0.6363943804,
				"z": -2.9316433454,
				"element": "H" 
			}
		],
		 "valence_orbital": [ 
			{
				"type": "occ",
				"energy": -0.29005,
				"method": "rhf"
			},
			{
				"type": "occ",
				"energy": -0.27237,
				"method": "rhf"
			},
			{
				"type": "occ",
				"energy": -0.25723,
				"method": "rhf"
			},
			{
				"type": "occ",
				"energy": -0.22563,
				"method": "rhf"
			},
			{
				"type": "occ",
				"energy": -0.17856,
				"method": "rhf"
			},
			{
				"type": "unocc",
				"energy": 0.0006,
				"method": "rhf"
			},
			{
				"type": "unocc",
				"energy": 0.02748,
				"method": "rhf"
			},
			{
				"type": "unocc",
				"energy": 0.05307,
				"method": "rhf"
			},
			{
				"type": "unocc",
				"energy": 0.08241,
				"method": "rhf"
			},
			{
				"type": "unocc",
				"energy": 0.09478,
				"method": "rhf"
			}
		],
		"cosmo_sigma_profile": { 
			"-0.025": 0.0,
			"-0.024": 0.0,
			"-0.023": 0.0,
			"-0.022": 0.0,
			"-0.021": 0.0,
			"-0.02": 0.0,
			"-0.019": 0.0,
			"-0.018": 0.0,
			"-0.017": 0.0,
			"-0.016": 0.0,
			"-0.015": 0.188134706303,
			"-0.014": 0.807335899604,
			"-0.013": 1.27563471579,
			"-0.012": 1.62786336904,
			"-0.011": 2.78277997702,
			"-0.01": 2.69017951044,
			"-0.009": 2.73618336362,
			"-0.008": 5.59167300346,
			"-0.007": 9.92774620011,
			"-0.006": 11.5238295097,
			"-0.005": 8.98852589096,
			"-0.004": 20.1787966574,
			"-0.003": 19.7603410902,
			"-0.002": 21.2754421321,
			"-0.001": 24.5708711956,
			"0.0": 31.2521430728,
			"0.001": 25.2591111853,
			"0.002": 13.7151753648,
			"0.003": 17.3029716923,
			"0.004": 15.6129883764,
			"0.005": 11.9343041917,
			"0.006": 8.38203234335,
			"0.007": 7.31591297839,
			"0.008": 5.82082905446,
			"0.009": 4.59634897186,
			"0.01": 5.56032671153,
			"0.011": 2.15064879824,
			"0.012": 2.89486934099,
			"0.013": 1.01727303542,
			"0.014": 0.531826452151,
			"0.015": 0.801683664036,
			"0.016": 0.146950212927,
			"0.017": 0.0,
			"0.018": 0.0,
			"0.019": 0.0,
			"0.02": 0.0,
			"0.021": 0.0,
			"0.022": 0.0,
			"0.023": 0.0,
			"0.024": 0.0,
			"0.025": 0.0
		}
	}
}
