{
	 "smiles": "ClC1=NOC(=N1)C1=COC=C1", 
	 "Tm": 322.15, 
	 "num_atms": 14, 
	 "gaussian": { 
		 "optdone": 1, 
		 "sigma_profile": "yes", 
		 "theory": "DFT", 
		 "functional": "B3LYP", 
		 "basiset": "6-31G**", 
		 "properties": { 
			 "R2extent": 4067.0629, 
			 "electric_dipole_moment_norm": 3.37384569446, 
			 "electric_quadrupole_moment_norm": 9.24172897568, 
			 "total_energy": -950.507728948, 
			 "HOMO_LUMO_gap": 0.1918, 
			 "cosmo_polarized_energy": -7.1, 
			 "cosmo_cavitation_energy": 21.98, 
			 "cosmo_dispersion_energy": -16.64, 
			 "cosmo_repulsion_energy": 1.33, 
			 "cosmo_total_nonelectrostatic_energy": 6.67, 
			 "SMD_solvation_energy": 2.94 
		},
		"coords": [
			{
				"x": -5.550703338,
				"y": -2.1200481802,
				"z": -0.3635688107,
				"element": "Cl" 
			},
			{
				"x": -4.1211772454,
				"y": -1.1691680404,
				"z": -0.3918455291,
				"element": "C" 
			},
			{
				"x": -4.1763827674,
				"y": 0.1227120586,
				"z": -0.6083316626,
				"element": "N" 
			},
			{
				"x": -2.8161485453,
				"y": 0.4823072419,
				"z": -0.5460011844,
				"element": "O" 
			},
			{
				"x": -2.1217816942,
				"y": -0.646114264,
				"z": -0.2978209526,
				"element": "C" 
			},
			{
				"x": -2.8844500282,
				"y": -1.7065762095,
				"z": -0.1923495563,
				"element": "N" 
			},
			{
				"x": -0.6862807665,
				"y": -0.5600074474,
				"z": -0.1833779539,
				"element": "C" 
			},
			{
				"x": 0.1583083463,
				"y": -1.610574804,
				"z": 0.0655430953,
				"element": "C" 
			},
			{
				"x": 1.4363149833,
				"y": -1.1786630963,
				"z": 0.1087661389,
				"element": "O" 
			},
			{
				"x": 1.4190568182,
				"y": 0.1728404489,
				"z": -0.1156428165,
				"element": "C" 
			},
			{
				"x": 0.1477339691,
				"y": 0.6086476016,
				"z": -0.3014778532,
				"element": "C" 
			},
			{
				"x": -0.0122119556,
				"y": -2.6636282942,
				"z": 0.2239322381,
				"element": "H" 
			},
			{
				"x": 2.3805935565,
				"y": 0.6608218188,
				"z": -0.1099541567,
				"element": "H" 
			},
			{
				"x": -0.1765713327,
				"y": 1.6194511662,
				"z": -0.4972709963,
				"element": "H" 
			}
		],
		 "valence_orbital": [ 
			{
				"type": "occ",
				"energy": -0.33559,
				"method": "rhf"
			},
			{
				"type": "occ",
				"energy": -0.3166,
				"method": "rhf"
			},
			{
				"type": "occ",
				"energy": -0.31222,
				"method": "rhf"
			},
			{
				"type": "occ",
				"energy": -0.28248,
				"method": "rhf"
			},
			{
				"type": "occ",
				"energy": -0.25234,
				"method": "rhf"
			},
			{
				"type": "unocc",
				"energy": -0.06054,
				"method": "rhf"
			},
			{
				"type": "unocc",
				"energy": -0.00735,
				"method": "rhf"
			},
			{
				"type": "unocc",
				"energy": 0.01803,
				"method": "rhf"
			},
			{
				"type": "unocc",
				"energy": 0.01964,
				"method": "rhf"
			},
			{
				"type": "unocc",
				"energy": 0.09348,
				"method": "rhf"
			}
		],
		"cosmo_sigma_profile": { 
			"-0.025": 0.0,
			"-0.024": 0.0,
			"-0.023": 0.0,
			"-0.022": 0.0,
			"-0.021": 0.0,
			"-0.02": 0.0,
			"-0.019": 0.0,
			"-0.018": 0.0,
			"-0.017": 0.0,
			"-0.016": 0.0,
			"-0.015": 0.0,
			"-0.014": 0.0,
			"-0.013": 0.0,
			"-0.012": 0.0,
			"-0.011": 0.841527663662,
			"-0.01": 3.15518027925,
			"-0.009": 3.80094844693,
			"-0.008": 4.34916361831,
			"-0.007": 4.32710111513,
			"-0.006": 4.7213157152,
			"-0.005": 7.66937354148,
			"-0.004": 9.39336450168,
			"-0.003": 11.3746664972,
			"-0.002": 13.9153572205,
			"-0.001": 15.5093442147,
			"0.0": 17.8336759438,
			"0.001": 18.6492356424,
			"0.002": 21.3604346474,
			"0.003": 11.1159931993,
			"0.004": 6.52549173805,
			"0.005": 7.43044452072,
			"0.006": 5.13142433934,
			"0.007": 3.49866180008,
			"0.008": 2.54755300247,
			"0.009": 2.63868074162,
			"0.01": 1.97238085768,
			"0.011": 2.24784671103,
			"0.012": 1.29803887108,
			"0.013": 0.0619648700425,
			"0.014": 0.0,
			"0.015": 0.0,
			"0.016": 0.0,
			"0.017": 0.0,
			"0.018": 0.0,
			"0.019": 0.0,
			"0.02": 0.0,
			"0.021": 0.0,
			"0.022": 0.0,
			"0.023": 0.0,
			"0.024": 0.0,
			"0.025": 0.0
		}
	}
}
