{
	 "smiles": "COC1=CC2=C(C=C1OC)C(CC1=CC(O)=C(OC)C=C1)N(C)CC2", 
	 "Tm": 457.15, 
	 "num_atms": 50, 
	 "gaussian": { 
		 "optdone": 1, 
		 "sigma_profile": "yes", 
		 "theory": "DFT", 
		 "functional": "B3LYP", 
		 "basiset": "6-31G**", 
		 "properties": { 
			 "R2extent": 11315.7656, 
			 "electric_dipole_moment_norm": 2.92765557571, 
			 "electric_quadrupole_moment_norm": 17.1744007415, 
			 "total_energy": -1132.7888935, 
			 "HOMO_LUMO_gap": 0.1956, 
			 "cosmo_polarized_energy": -15.82, 
			 "cosmo_cavitation_energy": 50.17, 
			 "cosmo_dispersion_energy": -34.58, 
			 "cosmo_repulsion_energy": 2.64, 
			 "cosmo_total_nonelectrostatic_energy": 18.24, 
			 "SMD_solvation_energy": 8.51 
		},
		"coords": [
			{
				"x": 0.9390083091,
				"y": -5.2199027054,
				"z": 3.4497764578,
				"element": "C" 
			},
			{
				"x": 1.2268478297,
				"y": -4.3424582331,
				"z": 2.3766588368,
				"element": "O" 
			},
			{
				"x": 0.3633519234,
				"y": -3.3111707373,
				"z": 2.1474154528,
				"element": "C" 
			},
			{
				"x": -0.7900733268,
				"y": -3.0515637711,
				"z": 2.8823456611,
				"element": "C" 
			},
			{
				"x": -1.616429179,
				"y": -1.9587739708,
				"z": 2.5801157116,
				"element": "C" 
			},
			{
				"x": -1.2950781476,
				"y": -1.1141723951,
				"z": 1.511957066,
				"element": "C" 
			},
			{
				"x": -0.1416331603,
				"y": -1.3895830399,
				"z": 0.755369884,
				"element": "C" 
			},
			{
				"x": 0.6881802262,
				"y": -2.4652324882,
				"z": 1.0594980997,
				"element": "C" 
			},
			{
				"x": 1.8266864207,
				"y": -2.7883170236,
				"z": 0.3788393467,
				"element": "O" 
			},
			{
				"x": 2.1926672061,
				"y": -1.9744190139,
				"z": -0.7219493258,
				"element": "C" 
			},
			{
				"x": -2.1534719152,
				"y": 0.1223415439,
				"z": 1.2526304113,
				"element": "C" 
			},
			{
				"x": -2.0140877687,
				"y": 0.7229757964,
				"z": -0.166457905,
				"element": "C" 
			},
			{
				"x": -0.856103332,
				"y": 1.6707403414,
				"z": -0.4483791377,
				"element": "C" 
			},
			{
				"x": -0.8231175898,
				"y": 2.3091487283,
				"z": -1.7023635771,
				"element": "C" 
			},
			{
				"x": 0.1855777287,
				"y": 3.2033462421,
				"z": -2.030950751,
				"element": "C" 
			},
			{
				"x": 0.1956842856,
				"y": 3.8085393851,
				"z": -3.2519423042,
				"element": "O" 
			},
			{
				"x": 1.2013189049,
				"y": 3.4882997192,
				"z": -1.0938506438,
				"element": "C" 
			},
			{
				"x": 2.1359049471,
				"y": 4.3923995725,
				"z": -1.5457671927,
				"element": "O" 
			},
			{
				"x": 3.1871801707,
				"y": 4.7582069092,
				"z": -0.6667319423,
				"element": "C" 
			},
			{
				"x": 1.1854052977,
				"y": 2.8670499214,
				"z": 0.1477341159,
				"element": "C" 
			},
			{
				"x": 0.1595970295,
				"y": 1.9624246783,
				"z": 0.4650973457,
				"element": "C" 
			},
			{
				"x": -3.6036024302,
				"y": -0.0965529742,
				"z": 1.5215225049,
				"element": "N" 
			},
			{
				"x": -4.2075442278,
				"y": 1.0885592015,
				"z": 2.1179175989,
				"element": "C" 
			},
			{
				"x": -3.9548082534,
				"y": -1.3290139983,
				"z": 2.2328033765,
				"element": "C" 
			},
			{
				"x": -2.9191838444,
				"y": -1.721805132,
				"z": 3.3000339365,
				"element": "C" 
			},
			{
				"x": 0.9173882193,
				"y": -4.6927444099,
				"z": 4.4131272662,
				"element": "H" 
			},
			{
				"x": 1.7450586706,
				"y": -5.955580324,
				"z": 3.4620433399,
				"element": "H" 
			},
			{
				"x": -0.018906667,
				"y": -5.7381221632,
				"z": 3.3074591039,
				"element": "H" 
			},
			{
				"x": -1.0699778832,
				"y": -3.7045933697,
				"z": 3.7017432963,
				"element": "H" 
			},
			{
				"x": 0.1183868448,
				"y": -0.7444218127,
				"z": -0.0723594107,
				"element": "H" 
			},
			{
				"x": 1.431042333,
				"y": -1.9921865689,
				"z": -1.5128505471,
				"element": "H" 
			},
			{
				"x": 3.1219867947,
				"y": -2.3949266837,
				"z": -1.1101776983,
				"element": "H" 
			},
			{
				"x": 2.3639453368,
				"y": -0.9326047642,
				"z": -0.4206078696,
				"element": "H" 
			},
			{
				"x": -1.8023239537,
				"y": 0.8862264634,
				"z": 1.9706886259,
				"element": "H" 
			},
			{
				"x": -2.9446273125,
				"y": 1.262993645,
				"z": -0.371907363,
				"element": "H" 
			},
			{
				"x": -2.0021006146,
				"y": -0.1022048893,
				"z": -0.8906233742,
				"element": "H" 
			},
			{
				"x": -1.5945728029,
				"y": 2.116611348,
				"z": -2.4427890163,
				"element": "H" 
			},
			{
				"x": 0.9701415369,
				"y": 4.3914388542,
				"z": -3.2708204361,
				"element": "H" 
			},
			{
				"x": 3.8014825598,
				"y": 5.4802778652,
				"z": -1.2069078343,
				"element": "H" 
			},
			{
				"x": 2.7994410139,
				"y": 5.2234841081,
				"z": 0.2483495857,
				"element": "H" 
			},
			{
				"x": 3.8018687197,
				"y": 3.8905929434,
				"z": -0.3951323716,
				"element": "H" 
			},
			{
				"x": 1.9596914055,
				"y": 3.0722644626,
				"z": 0.878520719,
				"element": "H" 
			},
			{
				"x": 0.1824153695,
				"y": 1.480778522,
				"z": 1.4360053214,
				"element": "H" 
			},
			{
				"x": -3.8570323778,
				"y": 1.3059628682,
				"z": 3.1458157557,
				"element": "H" 
			},
			{
				"x": -5.296120131,
				"y": 0.977546682,
				"z": 2.1455908288,
				"element": "H" 
			},
			{
				"x": -3.984023923,
				"y": 1.9688931116,
				"z": 1.5065285686,
				"element": "H" 
			},
			{
				"x": -4.0364883195,
				"y": -2.1558918642,
				"z": 1.5153233481,
				"element": "H" 
			},
			{
				"x": -4.9465945937,
				"y": -1.1898601665,
				"z": 2.6748657237,
				"element": "H" 
			},
			{
				"x": -2.8337611755,
				"y": -0.9158267917,
				"z": 4.0439655992,
				"element": "H" 
			},
			{
				"x": -3.2356961541,
				"y": -2.6209736222,
				"z": 3.8414258121,
				"element": "H" 
			}
		],
		 "valence_orbital": [ 
			{
				"type": "occ",
				"energy": -0.22999,
				"method": "rhf"
			},
			{
				"type": "occ",
				"energy": -0.2281,
				"method": "rhf"
			},
			{
				"type": "occ",
				"energy": -0.20092,
				"method": "rhf"
			},
			{
				"type": "occ",
				"energy": -0.19685,
				"method": "rhf"
			},
			{
				"type": "occ",
				"energy": -0.18867,
				"method": "rhf"
			},
			{
				"type": "unocc",
				"energy": 0.00693,
				"method": "rhf"
			},
			{
				"type": "unocc",
				"energy": 0.01567,
				"method": "rhf"
			},
			{
				"type": "unocc",
				"energy": 0.0226,
				"method": "rhf"
			},
			{
				"type": "unocc",
				"energy": 0.02348,
				"method": "rhf"
			},
			{
				"type": "unocc",
				"energy": 0.08036,
				"method": "rhf"
			}
		],
		"cosmo_sigma_profile": { 
			"-0.025": 0.0,
			"-0.024": 0.0,
			"-0.023": 0.0,
			"-0.022": 0.0,
			"-0.021": 0.0,
			"-0.02": 0.0,
			"-0.019": 0.0,
			"-0.018": 0.0,
			"-0.017": 0.0,
			"-0.016": 0.0,
			"-0.015": 0.0,
			"-0.014": 0.344547409134,
			"-0.013": 0.599597143866,
			"-0.012": 0.422869009976,
			"-0.011": 0.713666175407,
			"-0.01": 0.270800539825,
			"-0.009": 0.972206740609,
			"-0.008": 0.869149268191,
			"-0.007": 0.622079563478,
			"-0.006": 10.501003055,
			"-0.005": 28.4997436954,
			"-0.004": 40.8514070142,
			"-0.003": 52.9159584583,
			"-0.002": 46.6749729037,
			"-0.001": 35.0130926261,
			"0.0": 29.4866161528,
			"0.001": 19.1388343422,
			"0.002": 18.9430582973,
			"0.003": 21.3340103672,
			"0.004": 20.9380293111,
			"0.005": 20.0686029813,
			"0.006": 16.111168094,
			"0.007": 3.88431874499,
			"0.008": 4.07742366732,
			"0.009": 3.9768141427,
			"0.01": 4.17840259639,
			"0.011": 3.94614098441,
			"0.012": 3.81403241515,
			"0.013": 2.09154655942,
			"0.014": 1.84839083889,
			"0.015": 1.18617693146,
			"0.016": 0.108260616212,
			"0.017": 0.0,
			"0.018": 0.0,
			"0.019": 0.0,
			"0.02": 0.0,
			"0.021": 0.0,
			"0.022": 0.0,
			"0.023": 0.0,
			"0.024": 0.0,
			"0.025": 0.0
		}
	}
}
