{
	 "smiles": "NC(C1=CC=C(Cl)C=C1)C1=CC=C(C=C1)C(F)(F)F", 
	 "Tm": 332.15, 
	 "num_atms": 30, 
	 "gaussian": { 
		 "optdone": 1, 
		 "sigma_profile": "yes", 
		 "theory": "DFT", 
		 "functional": "B3LYP", 
		 "basiset": "6-31G**", 
		 "properties": { 
			 "R2extent": 8852.7001, 
			 "electric_dipole_moment_norm": 3.86914050146, 
			 "electric_quadrupole_moment_norm": 18.8658144351, 
			 "total_energy": -1354.59420146, 
			 "HOMO_LUMO_gap": 0.20743, 
			 "cosmo_polarized_energy": -9.56, 
			 "cosmo_cavitation_energy": 37.55, 
			 "cosmo_dispersion_energy": -26.1, 
			 "cosmo_repulsion_energy": 1.97, 
			 "cosmo_total_nonelectrostatic_energy": 13.42, 
			 "SMD_solvation_energy": 6.64 
		},
		"coords": [
			{
				"x": 2.6054239199,
				"y": -1.9485944001,
				"z": 0.1813593959,
				"element": "N" 
			},
			{
				"x": 1.5600452565,
				"y": -1.0258626239,
				"z": 0.6366883024,
				"element": "C" 
			},
			{
				"x": 0.2428787013,
				"y": -1.3555837064,
				"z": -0.0660870286,
				"element": "C" 
			},
			{
				"x": -0.9678587034,
				"y": -1.2882666811,
				"z": 0.6312324127,
				"element": "C" 
			},
			{
				"x": -2.1824160925,
				"y": -1.5597001387,
				"z": 0.0002013131,
				"element": "C" 
			},
			{
				"x": -2.1788793365,
				"y": -1.9093167903,
				"z": -1.3485613621,
				"element": "C" 
			},
			{
				"x": -3.7013449933,
				"y": -2.2615466873,
				"z": -2.1558279097,
				"element": "Cl" 
			},
			{
				"x": -0.9854846743,
				"y": -1.9916540506,
				"z": -2.0661455706,
				"element": "C" 
			},
			{
				"x": 0.2179855492,
				"y": -1.7128845559,
				"z": -1.4203401635,
				"element": "C" 
			},
			{
				"x": 1.9846476283,
				"y": 0.4192972017,
				"z": 0.3662400032,
				"element": "C" 
			},
			{
				"x": 1.5232294986,
				"y": 1.4496741564,
				"z": 1.1948243777,
				"element": "C" 
			},
			{
				"x": 1.8732496435,
				"y": 2.7753113891,
				"z": 0.9517481738,
				"element": "C" 
			},
			{
				"x": 2.7027851409,
				"y": 3.0873843574,
				"z": -0.1285649133,
				"element": "C" 
			},
			{
				"x": 3.1762053527,
				"y": 2.0678573388,
				"z": -0.9579379148,
				"element": "C" 
			},
			{
				"x": 2.8187419997,
				"y": 0.7437249251,
				"z": -0.7108418396,
				"element": "C" 
			},
			{
				"x": 3.0438049727,
				"y": 4.521284233,
				"z": -0.4264442995,
				"element": "C" 
			},
			{
				"x": 3.0681455882,
				"y": 5.2774984723,
				"z": 0.6945600546,
				"element": "F" 
			},
			{
				"x": 2.1404213402,
				"y": 5.0888319108,
				"z": -1.2602711033,
				"element": "F" 
			},
			{
				"x": 4.2518957679,
				"y": 4.6394124056,
				"z": -1.0221471672,
				"element": "F" 
			},
			{
				"x": 2.3249776552,
				"y": -2.9071512204,
				"z": 0.3712234287,
				"element": "H" 
			},
			{
				"x": 3.4681551559,
				"y": -1.7753559578,
				"z": 0.6914378508,
				"element": "H" 
			},
			{
				"x": 1.3650119661,
				"y": -1.097770197,
				"z": 1.7205732091,
				"element": "H" 
			},
			{
				"x": -0.9689756438,
				"y": -1.0253493004,
				"z": 1.6861648326,
				"element": "H" 
			},
			{
				"x": -3.1169745212,
				"y": -1.5083560725,
				"z": 0.5477888636,
				"element": "H" 
			},
			{
				"x": -1.0005687018,
				"y": -2.2700456714,
				"z": -3.1142453017,
				"element": "H" 
			},
			{
				"x": 1.1528027063,
				"y": -1.7840227382,
				"z": -1.9661279244,
				"element": "H" 
			},
			{
				"x": 0.886767165,
				"y": 1.2131519298,
				"z": 2.0436626505,
				"element": "H" 
			},
			{
				"x": 1.5180123936,
				"y": 3.5645820698,
				"z": 1.605581959,
				"element": "H" 
			},
			{
				"x": 3.8308940508,
				"y": 2.310052846,
				"z": -1.7884936812,
				"element": "H" 
			},
			{
				"x": 3.1952212145,
				"y": -0.0523024437,
				"z": -1.3438506484,
				"element": "H" 
			}
		],
		 "valence_orbital": [ 
			{
				"type": "occ",
				"energy": -0.27003,
				"method": "rhf"
			},
			{
				"type": "occ",
				"energy": -0.26692,
				"method": "rhf"
			},
			{
				"type": "occ",
				"energy": -0.26337,
				"method": "rhf"
			},
			{
				"type": "occ",
				"energy": -0.25367,
				"method": "rhf"
			},
			{
				"type": "occ",
				"energy": -0.24183,
				"method": "rhf"
			},
			{
				"type": "unocc",
				"energy": -0.0344,
				"method": "rhf"
			},
			{
				"type": "unocc",
				"energy": -0.02286,
				"method": "rhf"
			},
			{
				"type": "unocc",
				"energy": -0.01021,
				"method": "rhf"
			},
			{
				"type": "unocc",
				"energy": -0.00794,
				"method": "rhf"
			},
			{
				"type": "unocc",
				"energy": 0.02908,
				"method": "rhf"
			}
		],
		"cosmo_sigma_profile": { 
			"-0.025": 0.0,
			"-0.024": 0.0,
			"-0.023": 0.0,
			"-0.022": 0.0,
			"-0.021": 0.0,
			"-0.02": 0.0,
			"-0.019": 0.0,
			"-0.018": 0.0,
			"-0.017": 0.0,
			"-0.016": 0.0,
			"-0.015": 0.0,
			"-0.014": 0.0,
			"-0.013": 0.0,
			"-0.012": 0.0,
			"-0.011": 0.50329631271,
			"-0.01": 2.16205113699,
			"-0.009": 2.68047320547,
			"-0.008": 3.05352124042,
			"-0.007": 7.53191209999,
			"-0.006": 17.3407698032,
			"-0.005": 17.8524017258,
			"-0.004": 19.7801240318,
			"-0.003": 16.0588414831,
			"-0.002": 15.4252040195,
			"-0.001": 16.8202772524,
			"0.0": 18.0373777005,
			"0.001": 25.0002467413,
			"0.002": 35.3778733396,
			"0.003": 55.2181465196,
			"0.004": 33.9600578875,
			"0.005": 10.2885253001,
			"0.006": 0.915974166691,
			"0.007": 0.760558666728,
			"0.008": 0.871620487134,
			"0.009": 0.510462710751,
			"0.01": 0.277126449359,
			"0.011": 0.535166110357,
			"0.012": 0.481921307186,
			"0.013": 0.258135293387,
			"0.014": 0.397147833568,
			"0.015": 0.0,
			"0.016": 0.0,
			"0.017": 0.0,
			"0.018": 0.0,
			"0.019": 0.0,
			"0.02": 0.0,
			"0.021": 0.0,
			"0.022": 0.0,
			"0.023": 0.0,
			"0.024": 0.0,
			"0.025": 0.0
		}
	}
}
