{
	 "smiles": "COC1=CC=C(C(=O)C2=CC=C(C)C=C2)C(O)=C1", 
	 "Tm": 372.15, 
	 "num_atms": 32, 
	 "gaussian": { 
		 "optdone": 1, 
		 "sigma_profile": "yes", 
		 "theory": "DFT", 
		 "functional": "B3LYP", 
		 "basiset": "6-31G**", 
		 "properties": { 
			 "R2extent": 6292.8723, 
			 "electric_dipole_moment_norm": 5.32328209566, 
			 "electric_quadrupole_moment_norm": 15.2299551565, 
			 "total_energy": -805.715362454, 
			 "HOMO_LUMO_gap": 0.16024, 
			 "cosmo_polarized_energy": -11.26, 
			 "cosmo_cavitation_energy": 35.61, 
			 "cosmo_dispersion_energy": -26.22, 
			 "cosmo_repulsion_energy": 2.0, 
			 "cosmo_total_nonelectrostatic_energy": 11.4, 
			 "SMD_solvation_energy": 7.45 
		},
		"coords": [
			{
				"x": -2.3874215696,
				"y": 1.6071291645,
				"z": -4.6187386263,
				"element": "C" 
			},
			{
				"x": -2.6245000611,
				"y": 2.2139259856,
				"z": -3.3553321239,
				"element": "O" 
			},
			{
				"x": -1.9433819245,
				"y": 1.7595151846,
				"z": -2.2726922412,
				"element": "C" 
			},
			{
				"x": -1.0058208626,
				"y": 0.7064863982,
				"z": -2.3158056648,
				"element": "C" 
			},
			{
				"x": -0.3605418478,
				"y": 0.3369421084,
				"z": -1.1469719538,
				"element": "C" 
			},
			{
				"x": -0.6065550745,
				"y": 0.9737451046,
				"z": 0.0863386378,
				"element": "C" 
			},
			{
				"x": 0.0659868148,
				"y": 0.6050222168,
				"z": 1.3358321324,
				"element": "C" 
			},
			{
				"x": -0.3584770441,
				"y": 1.0258577362,
				"z": 2.4332809429,
				"element": "O" 
			},
			{
				"x": 1.2730586817,
				"y": -0.2790323807,
				"z": 1.3580995969,
				"element": "C" 
			},
			{
				"x": 1.4128906804,
				"y": -1.1760213207,
				"z": 2.4296385441,
				"element": "C" 
			},
			{
				"x": 2.5393550162,
				"y": -1.9830633268,
				"z": 2.5353265534,
				"element": "C" 
			},
			{
				"x": 3.5790020263,
				"y": -1.9032963592,
				"z": 1.5950263707,
				"element": "C" 
			},
			{
				"x": 4.7917538433,
				"y": -2.7951471469,
				"z": 1.7068485538,
				"element": "C" 
			},
			{
				"x": 3.4518513293,
				"y": -0.9811633644,
				"z": 0.5490894332,
				"element": "C" 
			},
			{
				"x": 2.3147223627,
				"y": -0.1833387686,
				"z": 0.4238768785,
				"element": "C" 
			},
			{
				"x": -1.6052195654,
				"y": 2.001661698,
				"z": 0.1142489214,
				"element": "C" 
			},
			{
				"x": -1.9553447039,
				"y": 2.6132533545,
				"z": 1.2507908371,
				"element": "O" 
			},
			{
				"x": -2.2385483704,
				"y": 2.3947660572,
				"z": -1.0662310201,
				"element": "C" 
			},
			{
				"x": -2.6527940955,
				"y": 0.5428949121,
				"z": -4.6118184397,
				"element": "H" 
			},
			{
				"x": -1.3412912647,
				"y": 1.7170839243,
				"z": -4.9294509354,
				"element": "H" 
			},
			{
				"x": -3.0296943365,
				"y": 2.1325827979,
				"z": -5.3266711591,
				"element": "H" 
			},
			{
				"x": -0.7920839414,
				"y": 0.1808510757,
				"z": -3.2375182796,
				"element": "H" 
			},
			{
				"x": 0.3412456008,
				"y": -0.4882318833,
				"z": -1.1798727535,
				"element": "H" 
			},
			{
				"x": 0.6262697395,
				"y": -1.2231772501,
				"z": 3.1754164763,
				"element": "H" 
			},
			{
				"x": 2.6225675765,
				"y": -2.6806913104,
				"z": 3.3651167895,
				"element": "H" 
			},
			{
				"x": 4.5799291772,
				"y": -3.7983722624,
				"z": 1.3162132875,
				"element": "H" 
			},
			{
				"x": 5.1050166976,
				"y": -2.9151160841,
				"z": 2.7487622785,
				"element": "H" 
			},
			{
				"x": 5.6376472588,
				"y": -2.3950394791,
				"z": 1.1408821213,
				"element": "H" 
			},
			{
				"x": 4.2569779134,
				"y": -0.8791567098,
				"z": -0.1741350945,
				"element": "H" 
			},
			{
				"x": 2.2563222616,
				"y": 0.5415795178,
				"z": -0.3812680562,
				"element": "H" 
			},
			{
				"x": -1.4610887401,
				"y": 2.1425712711,
				"z": 1.9762144874,
				"element": "H" 
			},
			{
				"x": -2.9805335783,
				"y": 3.1838791391,
				"z": -1.0368964946,
				"element": "H" 
			}
		],
		 "valence_orbital": [ 
			{
				"type": "occ",
				"energy": -0.26217,
				"method": "rhf"
			},
			{
				"type": "occ",
				"energy": -0.25734,
				"method": "rhf"
			},
			{
				"type": "occ",
				"energy": -0.246,
				"method": "rhf"
			},
			{
				"type": "occ",
				"energy": -0.23239,
				"method": "rhf"
			},
			{
				"type": "occ",
				"energy": -0.22177,
				"method": "rhf"
			},
			{
				"type": "unocc",
				"energy": -0.06153,
				"method": "rhf"
			},
			{
				"type": "unocc",
				"energy": -0.01292,
				"method": "rhf"
			},
			{
				"type": "unocc",
				"energy": -0.00664,
				"method": "rhf"
			},
			{
				"type": "unocc",
				"energy": 0.01039,
				"method": "rhf"
			},
			{
				"type": "unocc",
				"energy": 0.0592,
				"method": "rhf"
			}
		],
		"cosmo_sigma_profile": { 
			"-0.025": 0.0,
			"-0.024": 0.0,
			"-0.023": 0.0,
			"-0.022": 0.0,
			"-0.021": 0.0,
			"-0.02": 0.0,
			"-0.019": 0.0,
			"-0.018": 0.0,
			"-0.017": 0.0,
			"-0.016": 0.0,
			"-0.015": 0.0,
			"-0.014": 0.0,
			"-0.013": 0.0,
			"-0.012": 0.0,
			"-0.011": 0.0,
			"-0.01": 0.0,
			"-0.009": 0.0,
			"-0.008": 0.0,
			"-0.007": 2.47966866983,
			"-0.006": 15.8466810929,
			"-0.005": 24.69931617,
			"-0.004": 29.0322949412,
			"-0.003": 25.054984779,
			"-0.002": 24.4083853203,
			"-0.001": 23.1648338211,
			"0.0": 21.5220105237,
			"0.001": 17.151097458,
			"0.002": 20.1152561192,
			"0.003": 23.7726980476,
			"0.004": 20.5928362129,
			"0.005": 9.34832851646,
			"0.006": 4.0778065653,
			"0.007": 4.44848331877,
			"0.008": 4.58626507282,
			"0.009": 4.59139475669,
			"0.01": 3.36259932352,
			"0.011": 3.46358463609,
			"0.012": 2.27367704496,
			"0.013": 0.263542444663,
			"0.014": 0.0,
			"0.015": 0.0,
			"0.016": 0.0,
			"0.017": 0.0,
			"0.018": 0.0,
			"0.019": 0.0,
			"0.02": 0.0,
			"0.021": 0.0,
			"0.022": 0.0,
			"0.023": 0.0,
			"0.024": 0.0,
			"0.025": 0.0
		}
	}
}
