{
	 "smiles": "CC(C)C1=CC(Br)=C(N)C(Br)=C1", 
	 "Tm": 319.15, 
	 "num_atms": 23, 
	 "gaussian": { 
		 "optdone": 1, 
		 "sigma_profile": "yes", 
		 "theory": "DFT", 
		 "functional": "B3LYP", 
		 "basiset": "6-31G**", 
		 "properties": { 
			 "R2extent": 6060.735, 
			 "electric_dipole_moment_norm": 0.946245052827, 
			 "electric_quadrupole_moment_norm": 8.0688141353, 
			 "total_energy": -5547.16732742, 
			 "HOMO_LUMO_gap": 0.19204, 
			 "cosmo_polarized_energy": -5.87, 
			 "cosmo_cavitation_energy": 30.08, 
			 "cosmo_dispersion_energy": -22.52, 
			 "cosmo_repulsion_energy": 1.82, 
			 "cosmo_total_nonelectrostatic_energy": 9.38, 
			 "SMD_solvation_energy": 2.89 
		},
		"coords": [
			{
				"x": 0.1582829312,
				"y": 0.9298520394,
				"z": -2.5572703093,
				"element": "C" 
			},
			{
				"x": -0.7749505289,
				"y": 0.6243487861,
				"z": -1.3706899969,
				"element": "C" 
			},
			{
				"x": -2.0324013733,
				"y": -0.1342096719,
				"z": -1.8354594477,
				"element": "C" 
			},
			{
				"x": -0.0500839092,
				"y": -0.1116985757,
				"z": -0.2515019088,
				"element": "C" 
			},
			{
				"x": 0.5088886719,
				"y": -1.3809260821,
				"z": -0.4491683535,
				"element": "C" 
			},
			{
				"x": 1.1634352133,
				"y": -2.0404502648,
				"z": 0.5816912501,
				"element": "C" 
			},
			{
				"x": 1.9147613669,
				"y": -3.7718522829,
				"z": 0.230052932,
				"element": "Br" 
			},
			{
				"x": 1.3045467787,
				"y": -1.4931987697,
				"z": 1.8755488344,
				"element": "C" 
			},
			{
				"x": 1.9069557654,
				"y": -2.1773558208,
				"z": 2.9061699875,
				"element": "N" 
			},
			{
				"x": 0.7411867778,
				"y": -0.2118224457,
				"z": 2.041098541,
				"element": "C" 
			},
			{
				"x": 0.8920687311,
				"y": 0.6469459415,
				"z": 3.7505852788,
				"element": "Br" 
			},
			{
				"x": 0.082723849,
				"y": 0.4596427013,
				"z": 1.0172465293,
				"element": "C" 
			},
			{
				"x": 1.0343484282,
				"y": 1.501557545,
				"z": -2.2360609358,
				"element": "H" 
			},
			{
				"x": 0.5161351765,
				"y": 0.0081901043,
				"z": -3.0295704528,
				"element": "H" 
			},
			{
				"x": -0.367509307,
				"y": 1.5108291464,
				"z": -3.3227889588,
				"element": "H" 
			},
			{
				"x": -1.1048222118,
				"y": 1.5855586433,
				"z": -0.9551731488,
				"element": "H" 
			},
			{
				"x": -1.7719262174,
				"y": -1.1039536896,
				"z": -2.2740614565,
				"element": "H" 
			},
			{
				"x": -2.570752954,
				"y": 0.4398753038,
				"z": -2.59748302,
				"element": "H" 
			},
			{
				"x": -2.7152495121,
				"y": -0.3189618515,
				"z": -1.0006026059,
				"element": "H" 
			},
			{
				"x": 0.4402376061,
				"y": -1.8677161637,
				"z": -1.4156971761,
				"element": "H" 
			},
			{
				"x": 2.2121842115,
				"y": -1.6210405396,
				"z": 3.6911827556,
				"element": "H" 
			},
			{
				"x": 2.5186039656,
				"y": -2.935095359,
				"z": 2.6405401048,
				"element": "H" 
			},
			{
				"x": -0.3286634597,
				"y": 1.4436813058,
				"z": 1.2159115573,
				"element": "H" 
			}
		],
		 "valence_orbital": [ 
			{
				"type": "occ",
				"energy": -0.2985,
				"method": "rhf"
			},
			{
				"type": "occ",
				"energy": -0.29408,
				"method": "rhf"
			},
			{
				"type": "occ",
				"energy": -0.29174,
				"method": "rhf"
			},
			{
				"type": "occ",
				"energy": -0.24154,
				"method": "rhf"
			},
			{
				"type": "occ",
				"energy": -0.20906,
				"method": "rhf"
			},
			{
				"type": "unocc",
				"energy": -0.01702,
				"method": "rhf"
			},
			{
				"type": "unocc",
				"energy": -0.01457,
				"method": "rhf"
			},
			{
				"type": "unocc",
				"energy": 0.00278,
				"method": "rhf"
			},
			{
				"type": "unocc",
				"energy": 0.02719,
				"method": "rhf"
			},
			{
				"type": "unocc",
				"energy": 0.08719,
				"method": "rhf"
			}
		],
		"cosmo_sigma_profile": { 
			"-0.025": 0.0,
			"-0.024": 0.0,
			"-0.023": 0.0,
			"-0.022": 0.0,
			"-0.021": 0.0,
			"-0.02": 0.0,
			"-0.019": 0.0,
			"-0.018": 0.0,
			"-0.017": 0.0,
			"-0.016": 0.0,
			"-0.015": 0.0,
			"-0.014": 0.0,
			"-0.013": 0.0,
			"-0.012": 0.751260834792,
			"-0.011": 1.88995009848,
			"-0.01": 1.67763071402,
			"-0.009": 2.44339862199,
			"-0.008": 1.77770799339,
			"-0.007": 2.17874918906,
			"-0.006": 5.66237454633,
			"-0.005": 8.3583973132,
			"-0.004": 10.7209049895,
			"-0.003": 18.1992806582,
			"-0.002": 23.2554805042,
			"-0.001": 24.0102391033,
			"0.0": 25.328155962,
			"0.001": 28.987972101,
			"0.002": 23.4800693933,
			"0.003": 28.2864898144,
			"0.004": 24.532364686,
			"0.005": 7.91908915753,
			"0.006": 1.02160006277,
			"0.007": 0.601110430164,
			"0.008": 0.50486441087,
			"0.009": 0.844352100724,
			"0.01": 0.695970711764,
			"0.011": 0.470407618736,
			"0.012": 0.370416130432,
			"0.013": 0.0128460187572,
			"0.014": 0.0,
			"0.015": 0.0,
			"0.016": 0.0,
			"0.017": 0.0,
			"0.018": 0.0,
			"0.019": 0.0,
			"0.02": 0.0,
			"0.021": 0.0,
			"0.022": 0.0,
			"0.023": 0.0,
			"0.024": 0.0,
			"0.025": 0.0
		}
	}
}
