{
	 "smiles": "NC(=O)CCN1C=CN=C1", 
	 "Tm": 411.15, 
	 "num_atms": 19, 
	 "gaussian": { 
		 "optdone": 1, 
		 "sigma_profile": "yes", 
		 "theory": "DFT", 
		 "functional": "B3LYP", 
		 "basiset": "6-31G**", 
		 "properties": { 
			 "R2extent": 1606.3715, 
			 "electric_dipole_moment_norm": 5.66378913184, 
			 "electric_quadrupole_moment_norm": 14.1472722678, 
			 "total_energy": -473.549104625, 
			 "HOMO_LUMO_gap": 0.22996, 
			 "cosmo_polarized_energy": -19.68, 
			 "cosmo_cavitation_energy": 23.0, 
			 "cosmo_dispersion_energy": -16.54, 
			 "cosmo_repulsion_energy": 1.36, 
			 "cosmo_total_nonelectrostatic_energy": 7.82, 
			 "SMD_solvation_energy": 3.5 
		},
		"coords": [
			{
				"x": 3.1767356321,
				"y": 1.0300547039,
				"z": -0.410416383,
				"element": "N" 
			},
			{
				"x": 1.8471649188,
				"y": 1.3234070396,
				"z": -0.479218282,
				"element": "C" 
			},
			{
				"x": 1.3369735848,
				"y": 2.2280906698,
				"z": 0.1685621924,
				"element": "O" 
			},
			{
				"x": 1.0386535364,
				"y": 0.4854864359,
				"z": -1.4742895538,
				"element": "C" 
			},
			{
				"x": -0.4195465256,
				"y": 0.339508393,
				"z": -1.0245666819,
				"element": "C" 
			},
			{
				"x": -0.5804235333,
				"y": -0.5694056787,
				"z": 0.1032089476,
				"element": "N" 
			},
			{
				"x": -0.7651612237,
				"y": -1.9388648849,
				"z": 0.0389750866,
				"element": "C" 
			},
			{
				"x": -0.7944242445,
				"y": -2.3690442959,
				"z": 1.3423094763,
				"element": "C" 
			},
			{
				"x": -0.6283314621,
				"y": -1.3110576491,
				"z": 2.2075083252,
				"element": "N" 
			},
			{
				"x": -0.5005181477,
				"y": -0.2525174766,
				"z": 1.4345794764,
				"element": "C" 
			},
			{
				"x": 3.5627666586,
				"y": 0.1984177286,
				"z": -0.8271008903,
				"element": "H" 
			},
			{
				"x": 3.7326316114,
				"y": 1.5322061777,
				"z": 0.2662411865,
				"element": "H" 
			},
			{
				"x": 1.4920051349,
				"y": -0.4985989009,
				"z": -1.6363758796,
				"element": "H" 
			},
			{
				"x": 1.0615010604,
				"y": 1.0142002522,
				"z": -2.4361368538,
				"element": "H" 
			},
			{
				"x": -1.0353827811,
				"y": -0.0287764009,
				"z": -1.8494211982,
				"element": "H" 
			},
			{
				"x": -0.7921523253,
				"y": 1.3227001691,
				"z": -0.7291163886,
				"element": "H" 
			},
			{
				"x": -0.8730157793,
				"y": -2.4544694031,
				"z": -0.903744762,
				"element": "H" 
			},
			{
				"x": -0.9354374072,
				"y": -3.3782577425,
				"z": 1.7050161088,
				"element": "H" 
			},
			{
				"x": -0.3366387077,
				"y": 0.7656208627,
				"z": 1.7597860734,
				"element": "H" 
			}
		],
		 "valence_orbital": [ 
			{
				"type": "occ",
				"energy": -0.28119,
				"method": "rhf"
			},
			{
				"type": "occ",
				"energy": -0.26406,
				"method": "rhf"
			},
			{
				"type": "occ",
				"energy": -0.25862,
				"method": "rhf"
			},
			{
				"type": "occ",
				"energy": -0.25242,
				"method": "rhf"
			},
			{
				"type": "occ",
				"energy": -0.21723,
				"method": "rhf"
			},
			{
				"type": "unocc",
				"energy": 0.01273,
				"method": "rhf"
			},
			{
				"type": "unocc",
				"energy": 0.03467,
				"method": "rhf"
			},
			{
				"type": "unocc",
				"energy": 0.06264,
				"method": "rhf"
			},
			{
				"type": "unocc",
				"energy": 0.07877,
				"method": "rhf"
			},
			{
				"type": "unocc",
				"energy": 0.09508,
				"method": "rhf"
			}
		],
		"cosmo_sigma_profile": { 
			"-0.025": 0.0,
			"-0.024": 0.0,
			"-0.023": 0.0,
			"-0.022": 0.0,
			"-0.021": 0.0,
			"-0.02": 0.0,
			"-0.019": 0.0,
			"-0.018": 0.0,
			"-0.017": 0.0,
			"-0.016": 0.0,
			"-0.015": 0.138051506335,
			"-0.014": 2.17171837695,
			"-0.013": 2.42813530672,
			"-0.012": 2.84074162742,
			"-0.011": 2.57495346527,
			"-0.01": 2.63218951237,
			"-0.009": 2.36372201511,
			"-0.008": 4.51210084994,
			"-0.007": 7.50165175487,
			"-0.006": 13.6569218476,
			"-0.005": 15.1449574627,
			"-0.004": 13.4480796681,
			"-0.003": 12.0534737637,
			"-0.002": 9.43566302839,
			"-0.001": 6.74059440484,
			"0.0": 6.70721140686,
			"0.001": 8.15718222393,
			"0.002": 7.52167915093,
			"0.003": 7.36991034045,
			"0.004": 7.94417437079,
			"0.005": 6.46854725777,
			"0.006": 6.91825768598,
			"0.007": 4.66018324175,
			"0.008": 3.02168736537,
			"0.009": 2.21016070867,
			"0.01": 3.44122186951,
			"0.011": 2.49376668858,
			"0.012": 3.35818435818,
			"0.013": 4.23954846372,
			"0.014": 4.16787930166,
			"0.015": 1.99838145464,
			"0.016": 1.02624892669,
			"0.017": 1.16821700469,
			"0.018": 1.09818129295,
			"0.019": 0.237377421678,
			"0.02": 0.0,
			"0.021": 0.0,
			"0.022": 0.0,
			"0.023": 0.0,
			"0.024": 0.0,
			"0.025": 0.0
		}
	}
}
