{
	 "smiles": "N=C1NCN2N=C(CCC2=N1)C1=CC=CC=C1", 
	 "Tm": 514.15, 
	 "num_atms": 30, 
	 "gaussian": { 
		 "optdone": 1, 
		 "sigma_profile": "yes", 
		 "theory": "DFT", 
		 "functional": "B3LYP", 
		 "basiset": "6-31G**", 
		 "properties": { 
			 "R2extent": 5595.9631, 
			 "electric_dipole_moment_norm": 4.99630152913, 
			 "electric_quadrupole_moment_norm": 29.9628215554, 
			 "total_energy": -738.82636238, 
			 "HOMO_LUMO_gap": 0.15258, 
			 "cosmo_polarized_energy": -22.82, 
			 "cosmo_cavitation_energy": 33.05, 
			 "cosmo_dispersion_energy": -24.7, 
			 "cosmo_repulsion_energy": 1.91, 
			 "cosmo_total_nonelectrostatic_energy": 10.26, 
			 "SMD_solvation_energy": 0.39 
		},
		"coords": [
			{
				"x": 4.0377761169,
				"y": 2.165610918,
				"z": -3.7102976384,
				"element": "N" 
			},
			{
				"x": 3.3175588292,
				"y": 1.9202424996,
				"z": -2.6784504536,
				"element": "C" 
			},
			{
				"x": 3.5528027283,
				"y": 2.416827699,
				"z": -1.3798485469,
				"element": "N" 
			},
			{
				"x": 2.4101441375,
				"y": 2.5873615357,
				"z": -0.5017005356,
				"element": "C" 
			},
			{
				"x": 1.6520363133,
				"y": 1.3448813134,
				"z": -0.5421250258,
				"element": "N" 
			},
			{
				"x": 0.8051545644,
				"y": 1.1648694276,
				"z": 0.5262251058,
				"element": "N" 
			},
			{
				"x": 0.1066914076,
				"y": 0.0771090031,
				"z": 0.5858362783,
				"element": "C" 
			},
			{
				"x": 0.2058994268,
				"y": -0.9725372889,
				"z": -0.5008253068,
				"element": "C" 
			},
			{
				"x": 0.4353379654,
				"y": -0.2970761082,
				"z": -1.8578012919,
				"element": "C" 
			},
			{
				"x": 1.5360454751,
				"y": 0.7256750639,
				"z": -1.7727206923,
				"element": "C" 
			},
			{
				"x": 2.2618658199,
				"y": 1.0055244846,
				"z": -2.8033534797,
				"element": "N" 
			},
			{
				"x": -0.7633699944,
				"y": -0.1056186803,
				"z": 1.7691572401,
				"element": "C" 
			},
			{
				"x": -1.026005571,
				"y": 0.9735720939,
				"z": 2.6353230437,
				"element": "C" 
			},
			{
				"x": -1.8291036147,
				"y": 0.8052674006,
				"z": 3.7574383217,
				"element": "C" 
			},
			{
				"x": -2.3893556108,
				"y": -0.443699788,
				"z": 4.045776412,
				"element": "C" 
			},
			{
				"x": -2.1348646772,
				"y": -1.521599136,
				"z": 3.1989741725,
				"element": "C" 
			},
			{
				"x": -1.3322742307,
				"y": -1.3548157851,
				"z": 2.0695835487,
				"element": "C" 
			},
			{
				"x": 4.7703573675,
				"y": 2.8429385263,
				"z": -3.482077187,
				"element": "H" 
			},
			{
				"x": 4.2224850934,
				"y": 3.1740962881,
				"z": -1.334922083,
				"element": "H" 
			},
			{
				"x": 2.7440814077,
				"y": 2.7523358188,
				"z": 0.5247325069,
				"element": "H" 
			},
			{
				"x": 1.7522102672,
				"y": 3.4263015705,
				"z": -0.7951557725,
				"element": "H" 
			},
			{
				"x": -0.6945624471,
				"y": -1.5883073545,
				"z": -0.5383527439,
				"element": "H" 
			},
			{
				"x": 1.0446688334,
				"y": -1.6448402302,
				"z": -0.2689605599,
				"element": "H" 
			},
			{
				"x": -0.4812621666,
				"y": 0.2219546118,
				"z": -2.1700888519,
				"element": "H" 
			},
			{
				"x": 0.6852695727,
				"y": -1.0123081449,
				"z": -2.6426674264,
				"element": "H" 
			},
			{
				"x": -0.5916229752,
				"y": 1.940343146,
				"z": 2.4075871274,
				"element": "H" 
			},
			{
				"x": -2.0241535538,
				"y": 1.6517527017,
				"z": 4.4097897704,
				"element": "H" 
			},
			{
				"x": -3.0189718742,
				"y": -0.5722349682,
				"z": 4.921328179,
				"element": "H" 
			},
			{
				"x": -2.5599157165,
				"y": -2.4975737072,
				"z": 3.4147148297,
				"element": "H" 
			},
			{
				"x": -1.1396228942,
				"y": -2.2123529112,
				"z": 1.4333810593,
				"element": "H" 
			}
		],
		 "valence_orbital": [ 
			{
				"type": "occ",
				"energy": -0.25934,
				"method": "rhf"
			},
			{
				"type": "occ",
				"energy": -0.25714,
				"method": "rhf"
			},
			{
				"type": "occ",
				"energy": -0.25086,
				"method": "rhf"
			},
			{
				"type": "occ",
				"energy": -0.23342,
				"method": "rhf"
			},
			{
				"type": "occ",
				"energy": -0.20989,
				"method": "rhf"
			},
			{
				"type": "unocc",
				"energy": -0.05731,
				"method": "rhf"
			},
			{
				"type": "unocc",
				"energy": -0.01037,
				"method": "rhf"
			},
			{
				"type": "unocc",
				"energy": -0.0069,
				"method": "rhf"
			},
			{
				"type": "unocc",
				"energy": 0.03931,
				"method": "rhf"
			},
			{
				"type": "unocc",
				"energy": 0.07124,
				"method": "rhf"
			}
		],
		"cosmo_sigma_profile": { 
			"-0.025": 0.0,
			"-0.024": 0.0,
			"-0.023": 0.0,
			"-0.022": 0.0,
			"-0.021": 0.0,
			"-0.02": 0.0,
			"-0.019": 0.0,
			"-0.018": 0.0,
			"-0.017": 0.0,
			"-0.016": 0.0,
			"-0.015": 0.0496847200835,
			"-0.014": 2.02868435325,
			"-0.013": 1.87165598172,
			"-0.012": 2.19215581393,
			"-0.011": 2.00979076468,
			"-0.01": 1.73461243979,
			"-0.009": 2.199926818,
			"-0.008": 2.40292148407,
			"-0.007": 6.73939032464,
			"-0.006": 21.122597557,
			"-0.005": 28.469200265,
			"-0.004": 26.2574790738,
			"-0.003": 20.0649972663,
			"-0.002": 14.3363871409,
			"-0.001": 11.5325908083,
			"0.0": 8.96793856097,
			"0.001": 12.6097095034,
			"0.002": 13.0370714788,
			"0.003": 15.3565163489,
			"0.004": 15.0285836719,
			"0.005": 15.7414324075,
			"0.006": 6.21717077051,
			"0.007": 4.26779602423,
			"0.008": 3.06513956574,
			"0.009": 3.13260520773,
			"0.01": 2.76431822002,
			"0.011": 1.75994452061,
			"0.012": 1.51189770547,
			"0.013": 1.69448083883,
			"0.014": 2.17191338162,
			"0.015": 2.32712481671,
			"0.016": 1.78294525888,
			"0.017": 2.19789295187,
			"0.018": 2.79686249578,
			"0.019": 2.14044124077,
			"0.02": 1.21047220877,
			"0.021": 0.0642561215775,
			"0.022": 0.0,
			"0.023": 0.0,
			"0.024": 0.0,
			"0.025": 0.0
		}
	}
}
