{
	 "smiles": "CNCC1=CC=C(C=C1)C1=CSC=C1", 
	 "Tm": 341.65, 
	 "num_atms": 27, 
	 "gaussian": { 
		 "optdone": 1, 
		 "sigma_profile": "yes", 
		 "theory": "DFT", 
		 "functional": "B3LYP", 
		 "basiset": "6-31G**", 
		 "properties": { 
			 "R2extent": 6258.3541, 
			 "electric_dipole_moment_norm": 1.6601123968, 
			 "electric_quadrupole_moment_norm": 9.4599321673, 
			 "total_energy": -918.034907259, 
			 "HOMO_LUMO_gap": 0.1871, 
			 "cosmo_polarized_energy": -7.7, 
			 "cosmo_cavitation_energy": 31.79, 
			 "cosmo_dispersion_energy": -23.6, 
			 "cosmo_repulsion_energy": 1.81, 
			 "cosmo_total_nonelectrostatic_energy": 10.0, 
			 "SMD_solvation_energy": 4.0 
		},
		"coords": [
			{
				"x": -2.8904604258,
				"y": 2.1688550028,
				"z": 1.5508474736,
				"element": "C" 
			},
			{
				"x": -2.5222297486,
				"y": 3.3278510788,
				"z": 0.7434422722,
				"element": "N" 
			},
			{
				"x": -1.0899376007,
				"y": 3.6190077483,
				"z": 0.7536299648,
				"element": "C" 
			},
			{
				"x": -0.2878819744,
				"y": 2.6520816778,
				"z": -0.1003717247,
				"element": "C" 
			},
			{
				"x": 0.9851859792,
				"y": 2.2280717333,
				"z": 0.2965946435,
				"element": "C" 
			},
			{
				"x": 1.743051974,
				"y": 1.3776619974,
				"z": -0.5057427902,
				"element": "C" 
			},
			{
				"x": 1.2512488316,
				"y": 0.9200071836,
				"z": -1.7390675279,
				"element": "C" 
			},
			{
				"x": -0.0325498591,
				"y": 1.3405350149,
				"z": -2.1288186743,
				"element": "C" 
			},
			{
				"x": -0.7874035828,
				"y": 2.1902775612,
				"z": -1.3246798858,
				"element": "C" 
			},
			{
				"x": 2.0522889667,
				"y": 0.0252422871,
				"z": -2.6003847794,
				"element": "C" 
			},
			{
				"x": 3.4265518617,
				"y": 0.0369505204,
				"z": -2.673557529,
				"element": "C" 
			},
			{
				"x": 4.0392632248,
				"y": -1.1399327869,
				"z": -3.785369277,
				"element": "S" 
			},
			{
				"x": 2.434175317,
				"y": -1.6734672981,
				"z": -4.1709754054,
				"element": "C" 
			},
			{
				"x": 1.4932879591,
				"y": -0.9710539411,
				"z": -3.4757897369,
				"element": "C" 
			},
			{
				"x": -2.4445104198,
				"y": 1.2674312397,
				"z": 1.1193551178,
				"element": "H" 
			},
			{
				"x": -3.9772767289,
				"y": 2.0433318777,
				"z": 1.5365194411,
				"element": "H" 
			},
			{
				"x": -2.5619755553,
				"y": 2.231036835,
				"z": 2.6045640792,
				"element": "H" 
			},
			{
				"x": -3.0286182233,
				"y": 4.1447765642,
				"z": 1.0710263135,
				"element": "H" 
			},
			{
				"x": -0.9621860673,
				"y": 4.6342594136,
				"z": 0.353821137,
				"element": "H" 
			},
			{
				"x": -0.6591021547,
				"y": 3.6298577784,
				"z": 1.7731814074,
				"element": "H" 
			},
			{
				"x": 1.3851237705,
				"y": 2.557056221,
				"z": 1.2532475083,
				"element": "H" 
			},
			{
				"x": 2.714654939,
				"y": 1.0377699797,
				"z": -0.1588239032,
				"element": "H" 
			},
			{
				"x": -0.4344283054,
				"y": 1.0154237089,
				"z": -3.0842703139,
				"element": "H" 
			},
			{
				"x": -1.7800201675,
				"y": 2.5033640971,
				"z": -1.6334044956,
				"element": "H" 
			},
			{
				"x": 4.1100868964,
				"y": 0.6998937652,
				"z": -2.162134516,
				"element": "H" 
			},
			{
				"x": 2.283874363,
				"y": -2.4815839741,
				"z": -4.8731250338,
				"element": "H" 
			},
			{
				"x": 0.4302867308,
				"y": -1.1681052861,
				"z": -3.5530137653,
				"element": "H" 
			}
		],
		 "valence_orbital": [ 
			{
				"type": "occ",
				"energy": -0.26736,
				"method": "rhf"
			},
			{
				"type": "occ",
				"energy": -0.24549,
				"method": "rhf"
			},
			{
				"type": "occ",
				"energy": -0.23902,
				"method": "rhf"
			},
			{
				"type": "occ",
				"energy": -0.22432,
				"method": "rhf"
			},
			{
				"type": "occ",
				"energy": -0.21048,
				"method": "rhf"
			},
			{
				"type": "unocc",
				"energy": -0.02338,
				"method": "rhf"
			},
			{
				"type": "unocc",
				"energy": 0.00166,
				"method": "rhf"
			},
			{
				"type": "unocc",
				"energy": 0.00908,
				"method": "rhf"
			},
			{
				"type": "unocc",
				"energy": 0.03609,
				"method": "rhf"
			},
			{
				"type": "unocc",
				"energy": 0.07776,
				"method": "rhf"
			}
		],
		"cosmo_sigma_profile": { 
			"-0.025": 0.0,
			"-0.024": 0.0,
			"-0.023": 0.0,
			"-0.022": 0.0,
			"-0.021": 0.0,
			"-0.02": 0.0,
			"-0.019": 0.0,
			"-0.018": 0.0,
			"-0.017": 0.0,
			"-0.016": 0.0,
			"-0.015": 0.0,
			"-0.014": 0.0,
			"-0.013": 0.0,
			"-0.012": 0.0,
			"-0.011": 0.0640624374052,
			"-0.01": 1.22231659512,
			"-0.009": 1.43400365401,
			"-0.008": 4.43908695144,
			"-0.007": 5.81595490125,
			"-0.006": 8.89692055213,
			"-0.005": 13.9985971738,
			"-0.004": 17.0618184177,
			"-0.003": 20.7566074833,
			"-0.002": 22.8759739425,
			"-0.001": 23.4542353523,
			"0.0": 22.4972535383,
			"0.001": 16.5647563884,
			"0.002": 17.1592046998,
			"0.003": 18.6826646319,
			"0.004": 23.2573928175,
			"0.005": 20.8799225944,
			"0.006": 9.21062772635,
			"0.007": 1.29910198604,
			"0.008": 0.954147220936,
			"0.009": 0.840078230624,
			"0.01": 0.937467084319,
			"0.011": 0.682139001002,
			"0.012": 0.397092501368,
			"0.013": 0.188527332224,
			"0.014": 1.00292913018,
			"0.015": 0.0696819456004,
			"0.016": 0.0,
			"0.017": 0.0,
			"0.018": 0.0,
			"0.019": 0.0,
			"0.02": 0.0,
			"0.021": 0.0,
			"0.022": 0.0,
			"0.023": 0.0,
			"0.024": 0.0,
			"0.025": 0.0
		}
	}
}
