{
	 "smiles": "COC1=CC2=C(C=C1)C(C)=CC1=NN=C(S)N21", 
	 "Tm": 530.15, 
	 "num_atms": 28, 
	 "gaussian": { 
		 "optdone": 1, 
		 "sigma_profile": "yes", 
		 "theory": "DFT", 
		 "functional": "B3LYP", 
		 "basiset": "6-31G**", 
		 "properties": { 
			 "R2extent": 5353.9004, 
			 "electric_dipole_moment_norm": 4.90539581583, 
			 "electric_quadrupole_moment_norm": 23.6895699022, 
			 "total_energy": -1101.54568216, 
			 "HOMO_LUMO_gap": 0.15784, 
			 "cosmo_polarized_energy": -15.64, 
			 "cosmo_cavitation_energy": 32.88, 
			 "cosmo_dispersion_energy": -24.6, 
			 "cosmo_repulsion_energy": 1.8, 
			 "cosmo_total_nonelectrostatic_energy": 10.08, 
			 "SMD_solvation_energy": 3.8 
		},
		"coords": [
			{
				"x": 4.5385352411,
				"y": 1.4476715039,
				"z": -0.8243220951,
				"element": "C" 
			},
			{
				"x": 3.9725335956,
				"y": 0.5131721569,
				"z": 0.0863257037,
				"element": "O" 
			},
			{
				"x": 2.6529831294,
				"y": 0.2124993102,
				"z": -0.0255694002,
				"element": "C" 
			},
			{
				"x": 1.8006224171,
				"y": 0.7616045302,
				"z": -0.9820945586,
				"element": "C" 
			},
			{
				"x": 0.4497186803,
				"y": 0.3835678408,
				"z": -1.0130906718,
				"element": "C" 
			},
			{
				"x": -0.0736652705,
				"y": -0.554980346,
				"z": -0.083204293,
				"element": "C" 
			},
			{
				"x": 0.828785081,
				"y": -1.0842325696,
				"z": 0.8674568383,
				"element": "C" 
			},
			{
				"x": 2.1582517137,
				"y": -0.7186276486,
				"z": 0.9058876215,
				"element": "C" 
			},
			{
				"x": -1.4758512671,
				"y": -0.9466999783,
				"z": -0.1164552687,
				"element": "C" 
			},
			{
				"x": -2.0065325042,
				"y": -1.9441658826,
				"z": 0.8809174197,
				"element": "C" 
			},
			{
				"x": -2.2949838462,
				"y": -0.4011534703,
				"z": -1.0567497674,
				"element": "C" 
			},
			{
				"x": -1.7911022325,
				"y": 0.5407627692,
				"z": -1.9974008238,
				"element": "C" 
			},
			{
				"x": -2.4222242075,
				"y": 1.1701144235,
				"z": -2.9702030398,
				"element": "N" 
			},
			{
				"x": -1.5056185096,
				"y": 1.971648416,
				"z": -3.5969346244,
				"element": "N" 
			},
			{
				"x": -0.3416161899,
				"y": 1.819912143,
				"z": -3.002412625,
				"element": "C" 
			},
			{
				"x": 1.1098206771,
				"y": 2.6885198618,
				"z": -3.5184366486,
				"element": "S" 
			},
			{
				"x": -0.4426393998,
				"y": 0.9140955813,
				"z": -1.9614611904,
				"element": "N" 
			},
			{
				"x": 4.4609440408,
				"y": 1.0966534137,
				"z": -1.860720831,
				"element": "H" 
			},
			{
				"x": 5.5907285547,
				"y": 1.5321411686,
				"z": -0.5504211161,
				"element": "H" 
			},
			{
				"x": 4.0616888322,
				"y": 2.431869885,
				"z": -0.7387336094,
				"element": "H" 
			},
			{
				"x": 2.18204691,
				"y": 1.4753501955,
				"z": -1.6955986896,
				"element": "H" 
			},
			{
				"x": 0.4641316959,
				"y": -1.8029233993,
				"z": 1.5924088601,
				"element": "H" 
			},
			{
				"x": 2.8402774684,
				"y": -1.132188618,
				"z": 1.6405571551,
				"element": "H" 
			},
			{
				"x": -3.0710656316,
				"y": -2.1236281802,
				"z": 0.7151483125,
				"element": "H" 
			},
			{
				"x": -1.4871976536,
				"y": -2.9067638756,
				"z": 0.8045012959,
				"element": "H" 
			},
			{
				"x": -1.8814516084,
				"y": -1.5904377398,
				"z": 1.9111502358,
				"element": "H" 
			},
			{
				"x": -3.3460945765,
				"y": -0.6562075901,
				"z": -1.1275429286,
				"element": "H" 
			},
			{
				"x": 0.4367748603,
				"y": 3.3154260989,
				"z": -4.5026012609,
				"element": "H" 
			}
		],
		 "valence_orbital": [ 
			{
				"type": "occ",
				"energy": -0.28691,
				"method": "rhf"
			},
			{
				"type": "occ",
				"energy": -0.25598,
				"method": "rhf"
			},
			{
				"type": "occ",
				"energy": -0.25358,
				"method": "rhf"
			},
			{
				"type": "occ",
				"energy": -0.24526,
				"method": "rhf"
			},
			{
				"type": "occ",
				"energy": -0.20394,
				"method": "rhf"
			},
			{
				"type": "unocc",
				"energy": -0.0461,
				"method": "rhf"
			},
			{
				"type": "unocc",
				"energy": -0.02912,
				"method": "rhf"
			},
			{
				"type": "unocc",
				"energy": 0.00398,
				"method": "rhf"
			},
			{
				"type": "unocc",
				"energy": 0.01568,
				"method": "rhf"
			},
			{
				"type": "unocc",
				"energy": 0.04349,
				"method": "rhf"
			}
		],
		"cosmo_sigma_profile": { 
			"-0.025": 0.0,
			"-0.024": 0.0,
			"-0.023": 0.0,
			"-0.022": 0.0,
			"-0.021": 0.0,
			"-0.02": 0.0,
			"-0.019": 0.0,
			"-0.018": 0.0,
			"-0.017": 0.0,
			"-0.016": 0.0,
			"-0.015": 0.0,
			"-0.014": 0.0,
			"-0.013": 0.0686354157654,
			"-0.012": 1.38906467353,
			"-0.011": 1.11235973692,
			"-0.01": 1.55610618417,
			"-0.009": 1.12627817367,
			"-0.008": 1.08446382001,
			"-0.007": 5.2866049154,
			"-0.006": 16.4689064304,
			"-0.005": 23.5798975678,
			"-0.004": 21.9535379349,
			"-0.003": 23.9817911017,
			"-0.002": 20.1532061142,
			"-0.001": 21.4186271037,
			"0.0": 18.469424623,
			"0.001": 20.2977546478,
			"0.002": 25.517234908,
			"0.003": 14.6669191432,
			"0.004": 8.22465895756,
			"0.005": 6.23672822072,
			"0.006": 4.45547284476,
			"0.007": 3.85818230459,
			"0.008": 2.51561323246,
			"0.009": 3.51485914591,
			"0.01": 2.79874099692,
			"0.011": 2.73987597407,
			"0.012": 2.10848450755,
			"0.013": 3.47549496415,
			"0.014": 3.29959382135,
			"0.015": 2.53118452731,
			"0.016": 1.5005988373,
			"0.017": 0.701476745129,
			"0.018": 0.0,
			"0.019": 0.0,
			"0.02": 0.0,
			"0.021": 0.0,
			"0.022": 0.0,
			"0.023": 0.0,
			"0.024": 0.0,
			"0.025": 0.0
		}
	}
}
