{
	 "smiles": "CC(=O)C1=CC=C(C=C1)N=C=S", 
	 "Tm": 356.65, 
	 "num_atms": 19, 
	 "gaussian": { 
		 "optdone": 1, 
		 "sigma_profile": "yes", 
		 "theory": "DFT", 
		 "functional": "B3LYP", 
		 "basiset": "6-31G**", 
		 "properties": { 
			 "R2extent": 4298.2078, 
			 "electric_dipole_moment_norm": 2.75014887415, 
			 "electric_quadrupole_moment_norm": 22.1139928878, 
			 "total_energy": -875.337820596, 
			 "HOMO_LUMO_gap": 0.16008, 
			 "cosmo_polarized_energy": -9.65, 
			 "cosmo_cavitation_energy": 26.98, 
			 "cosmo_dispersion_energy": -19.88, 
			 "cosmo_repulsion_energy": 1.55, 
			 "cosmo_total_nonelectrostatic_energy": 8.65, 
			 "SMD_solvation_energy": 5.95 
		},
		"coords": [
			{
				"x": 2.3077860632,
				"y": 2.4600293895,
				"z": 0.6351741232,
				"element": "C" 
			},
			{
				"x": 1.0223824573,
				"y": 2.0502531581,
				"z": -0.0622446357,
				"element": "C" 
			},
			{
				"x": 0.4362126853,
				"y": 2.8284782843,
				"z": -0.7992848533,
				"element": "O" 
			},
			{
				"x": 0.4804195684,
				"y": 0.67075382,
				"z": 0.1676780589,
				"element": "C" 
			},
			{
				"x": 1.1070234814,
				"y": -0.2680182493,
				"z": 1.0017891075,
				"element": "C" 
			},
			{
				"x": 0.5651498494,
				"y": -1.5355748471,
				"z": 1.1830526726,
				"element": "C" 
			},
			{
				"x": -0.625785783,
				"y": -1.8805873679,
				"z": 0.5219197097,
				"element": "C" 
			},
			{
				"x": -1.2649193049,
				"y": -0.9488105466,
				"z": -0.3175671797,
				"element": "C" 
			},
			{
				"x": -0.7097315882,
				"y": 0.3103575831,
				"z": -0.4861550863,
				"element": "C" 
			},
			{
				"x": -1.165643378,
				"y": -3.1271895258,
				"z": 0.695433934,
				"element": "N" 
			},
			{
				"x": -1.6335975543,
				"y": -4.2085533709,
				"z": 0.8453863827,
				"element": "C" 
			},
			{
				"x": -2.2602741136,
				"y": -5.6575049158,
				"z": 1.0471190833,
				"element": "S" 
			},
			{
				"x": 2.2016670678,
				"y": 2.3997799663,
				"z": 1.7240565903,
				"element": "H" 
			},
			{
				"x": 3.1372256873,
				"y": 1.8031590115,
				"z": 0.3503942166,
				"element": "H" 
			},
			{
				"x": 2.545688062,
				"y": 3.4854684134,
				"z": 0.3518384746,
				"element": "H" 
			},
			{
				"x": 2.0269270561,
				"y": -0.0154742128,
				"z": 1.5184616005,
				"element": "H" 
			},
			{
				"x": 1.0463077057,
				"y": -2.2637865527,
				"z": 1.8266868191,
				"element": "H" 
			},
			{
				"x": -2.1835679191,
				"y": -1.2303259382,
				"z": -0.820826891,
				"element": "H" 
			},
			{
				"x": -1.182370043,
				"y": 1.0464459009,
				"z": -1.127512127,
				"element": "H" 
			}
		],
		 "valence_orbital": [ 
			{
				"type": "occ",
				"energy": -0.29955,
				"method": "rhf"
			},
			{
				"type": "occ",
				"energy": -0.28134,
				"method": "rhf"
			},
			{
				"type": "occ",
				"energy": -0.26067,
				"method": "rhf"
			},
			{
				"type": "occ",
				"energy": -0.25789,
				"method": "rhf"
			},
			{
				"type": "occ",
				"energy": -0.24049,
				"method": "rhf"
			},
			{
				"type": "unocc",
				"energy": -0.08041,
				"method": "rhf"
			},
			{
				"type": "unocc",
				"energy": -0.02901,
				"method": "rhf"
			},
			{
				"type": "unocc",
				"energy": -0.00974,
				"method": "rhf"
			},
			{
				"type": "unocc",
				"energy": -0.0033,
				"method": "rhf"
			},
			{
				"type": "unocc",
				"energy": 0.05883,
				"method": "rhf"
			}
		],
		"cosmo_sigma_profile": { 
			"-0.025": 0.0,
			"-0.024": 0.0,
			"-0.023": 0.0,
			"-0.022": 0.0,
			"-0.021": 0.0,
			"-0.02": 0.0,
			"-0.019": 0.0,
			"-0.018": 0.0,
			"-0.017": 0.0,
			"-0.016": 0.0,
			"-0.015": 0.0,
			"-0.014": 0.0,
			"-0.013": 0.0,
			"-0.012": 0.0,
			"-0.011": 0.0,
			"-0.01": 0.0,
			"-0.009": 0.0,
			"-0.008": 2.86739670081,
			"-0.007": 9.45014734482,
			"-0.006": 15.5387063862,
			"-0.005": 12.3755774292,
			"-0.004": 13.3606635202,
			"-0.003": 12.2987998182,
			"-0.002": 20.9312230308,
			"-0.001": 23.63418722,
			"0.0": 16.3666616993,
			"0.001": 18.1505963004,
			"0.002": 20.2252660407,
			"0.003": 9.13975366593,
			"0.004": 8.51826450983,
			"0.005": 12.0999585148,
			"0.006": 10.6281952158,
			"0.007": 1.70486862183,
			"0.008": 1.53960899494,
			"0.009": 1.67902931637,
			"0.01": 2.42401506107,
			"0.011": 3.34389614091,
			"0.012": 3.16857809952,
			"0.013": 1.22911022986,
			"0.014": 0.048386129727,
			"0.015": 0.0,
			"0.016": 0.0,
			"0.017": 0.0,
			"0.018": 0.0,
			"0.019": 0.0,
			"0.02": 0.0,
			"0.021": 0.0,
			"0.022": 0.0,
			"0.023": 0.0,
			"0.024": 0.0,
			"0.025": 0.0
		}
	}
}
