{
	 "smiles": "CC(C)(C)OC(=O)N1CCC(=CC1)N1C(=O)NC2=C1C=CC=C2", 
	 "Tm": 475.15, 
	 "num_atms": 44, 
	 "gaussian": { 
		 "optdone": 1, 
		 "sigma_profile": "yes", 
		 "theory": "DFT", 
		 "functional": "B3LYP", 
		 "basiset": "6-31G**", 
		 "properties": { 
			 "R2extent": 10853.0316, 
			 "electric_dipole_moment_norm": 2.03618119528, 
			 "electric_quadrupole_moment_norm": 25.0508602509, 
			 "total_energy": -1050.44943868, 
			 "HOMO_LUMO_gap": 0.198, 
			 "cosmo_polarized_energy": -16.26, 
			 "cosmo_cavitation_energy": 45.51, 
			 "cosmo_dispersion_energy": -31.9, 
			 "cosmo_repulsion_energy": 2.43, 
			 "cosmo_total_nonelectrostatic_energy": 16.04, 
			 "SMD_solvation_energy": 8.51 
		},
		"coords": [
			{
				"x": 3.6078409373,
				"y": -1.2159155363,
				"z": 2.4496930129,
				"element": "C" 
			},
			{
				"x": 4.1546262935,
				"y": -0.5882200531,
				"z": 1.1629565389,
				"element": "C" 
			},
			{
				"x": 5.0651566269,
				"y": -1.5478169039,
				"z": 0.389047063,
				"element": "C" 
			},
			{
				"x": 4.8844431441,
				"y": 0.7230026892,
				"z": 1.4677580534,
				"element": "C" 
			},
			{
				"x": 3.0449915955,
				"y": -0.1423234471,
				"z": 0.3063986527,
				"element": "O" 
			},
			{
				"x": 2.1489486008,
				"y": -1.0311392085,
				"z": -0.1888227925,
				"element": "C" 
			},
			{
				"x": 2.1599492676,
				"y": -2.2382999908,
				"z": 0.0163954548,
				"element": "O" 
			},
			{
				"x": 1.2019773137,
				"y": -0.407878493,
				"z": -0.9594336047,
				"element": "N" 
			},
			{
				"x": 1.1644366408,
				"y": 1.0195290656,
				"z": -1.2680454455,
				"element": "C" 
			},
			{
				"x": -0.1716730477,
				"y": 1.6286430582,
				"z": -0.8302317905,
				"element": "C" 
			},
			{
				"x": -1.317044706,
				"y": 0.7631248043,
				"z": -1.2975030018,
				"element": "C" 
			},
			{
				"x": -1.1465056387,
				"y": -0.5127921089,
				"z": -1.6646122183,
				"element": "C" 
			},
			{
				"x": 0.173453406,
				"y": -1.2293567776,
				"z": -1.5840453809,
				"element": "C" 
			},
			{
				"x": -2.615426469,
				"y": 1.3528730597,
				"z": -1.2920214819,
				"element": "N" 
			},
			{
				"x": -2.9099543942,
				"y": 2.5799791905,
				"z": -1.9173302785,
				"element": "C" 
			},
			{
				"x": -2.1465663212,
				"y": 3.3092998505,
				"z": -2.5288173214,
				"element": "O" 
			},
			{
				"x": -4.2669836005,
				"y": 2.7813114761,
				"z": -1.6946706811,
				"element": "N" 
			},
			{
				"x": -4.8254718179,
				"y": 1.732859972,
				"z": -0.9738130387,
				"element": "C" 
			},
			{
				"x": -3.7812724722,
				"y": 0.8210353234,
				"z": -0.7175369619,
				"element": "C" 
			},
			{
				"x": -4.010874065,
				"y": -0.3356199148,
				"z": 0.0183902367,
				"element": "C" 
			},
			{
				"x": -5.3123175676,
				"y": -0.566039429,
				"z": 0.4820137851,
				"element": "C" 
			},
			{
				"x": -6.3485649753,
				"y": 0.3345199534,
				"z": 0.2163474985,
				"element": "C" 
			},
			{
				"x": -6.1170633722,
				"y": 1.5046710915,
				"z": -0.5171978537,
				"element": "C" 
			},
			{
				"x": 4.4358987392,
				"y": -1.4372763555,
				"z": 3.1310615547,
				"element": "H" 
			},
			{
				"x": 2.9310687863,
				"y": -0.5185984589,
				"z": 2.9539302953,
				"element": "H" 
			},
			{
				"x": 3.0697234755,
				"y": -2.1390086445,
				"z": 2.2344272088,
				"element": "H" 
			},
			{
				"x": 5.4038291599,
				"y": -1.081440144,
				"z": -0.5416767831,
				"element": "H" 
			},
			{
				"x": 5.9485674584,
				"y": -1.7820500026,
				"z": 0.9920488321,
				"element": "H" 
			},
			{
				"x": 4.542919446,
				"y": -2.4745708056,
				"z": 0.1514835118,
				"element": "H" 
			},
			{
				"x": 5.23690492,
				"y": 1.1929803266,
				"z": 0.5448694556,
				"element": "H" 
			},
			{
				"x": 5.7488767384,
				"y": 0.5313158891,
				"z": 2.1103704294,
				"element": "H" 
			},
			{
				"x": 4.22059894,
				"y": 1.4247942395,
				"z": 1.9812398488,
				"element": "H" 
			},
			{
				"x": 1.2847448568,
				"y": 1.1546603485,
				"z": -2.3523131633,
				"element": "H" 
			},
			{
				"x": 1.9997589836,
				"y": 1.5086869067,
				"z": -0.7732436625,
				"element": "H" 
			},
			{
				"x": -0.2069391525,
				"y": 1.7262345974,
				"z": 0.2635896715,
				"element": "H" 
			},
			{
				"x": -0.2802328024,
				"y": 2.6311588058,
				"z": -1.2536369857,
				"element": "H" 
			},
			{
				"x": -1.9853636054,
				"y": -1.0896433296,
				"z": -2.0440858638,
				"element": "H" 
			},
			{
				"x": 0.0841051422,
				"y": -2.150156304,
				"z": -1.0007879014,
				"element": "H" 
			},
			{
				"x": 0.4817335208,
				"y": -1.5393740961,
				"z": -2.597654772,
				"element": "H" 
			},
			{
				"x": -4.7397905866,
				"y": 3.5948745736,
				"z": -2.0537834238,
				"element": "H" 
			},
			{
				"x": -3.2079887672,
				"y": -1.033256964,
				"z": 0.2266292666,
				"element": "H" 
			},
			{
				"x": -5.5159162048,
				"y": -1.4636387763,
				"z": 1.0575383937,
				"element": "H" 
			},
			{
				"x": -7.3487041858,
				"y": 0.1279616812,
				"z": 0.5842024722,
				"element": "H" 
			},
			{
				"x": -6.9169002413,
				"y": 2.210498841,
				"z": -0.7184268297,
				"element": "H" 
			}
		],
		 "valence_orbital": [ 
			{
				"type": "occ",
				"energy": -0.26219,
				"method": "rhf"
			},
			{
				"type": "occ",
				"energy": -0.25642,
				"method": "rhf"
			},
			{
				"type": "occ",
				"energy": -0.23815,
				"method": "rhf"
			},
			{
				"type": "occ",
				"energy": -0.23115,
				"method": "rhf"
			},
			{
				"type": "occ",
				"energy": -0.20748,
				"method": "rhf"
			},
			{
				"type": "unocc",
				"energy": -0.00948,
				"method": "rhf"
			},
			{
				"type": "unocc",
				"energy": -0.00077,
				"method": "rhf"
			},
			{
				"type": "unocc",
				"energy": 0.01586,
				"method": "rhf"
			},
			{
				"type": "unocc",
				"energy": 0.0565,
				"method": "rhf"
			},
			{
				"type": "unocc",
				"energy": 0.06836,
				"method": "rhf"
			}
		],
		"cosmo_sigma_profile": { 
			"-0.025": 0.0,
			"-0.024": 0.0,
			"-0.023": 0.0,
			"-0.022": 0.0,
			"-0.021": 0.0,
			"-0.02": 0.0,
			"-0.019": 0.0,
			"-0.018": 0.0,
			"-0.017": 0.0265799577002,
			"-0.016": 1.32015135594,
			"-0.015": 1.20060805176,
			"-0.014": 1.10973492457,
			"-0.013": 0.831484984816,
			"-0.012": 1.40345558817,
			"-0.011": 1.33962104207,
			"-0.01": 0.78840935922,
			"-0.009": 0.93154602489,
			"-0.008": 1.15912110218,
			"-0.007": 2.7825714731,
			"-0.006": 7.30417509974,
			"-0.005": 16.7929674496,
			"-0.004": 33.7181027848,
			"-0.003": 40.0620450459,
			"-0.002": 35.2640095184,
			"-0.001": 34.7730686364,
			"0.0": 42.1906875467,
			"0.001": 34.5826958357,
			"0.002": 19.0632175951,
			"0.003": 14.0882162083,
			"0.004": 15.3415139708,
			"0.005": 12.9488609481,
			"0.006": 9.4198631811,
			"0.007": 3.21394464591,
			"0.008": 3.11461743351,
			"0.009": 2.50758120675,
			"0.01": 3.45493563382,
			"0.011": 2.74464658578,
			"0.012": 3.58896592898,
			"0.013": 7.89952311201,
			"0.014": 3.88889614587,
			"0.015": 0.0184495312076,
			"0.016": 0.0,
			"0.017": 0.0,
			"0.018": 0.0,
			"0.019": 0.0,
			"0.02": 0.0,
			"0.021": 0.0,
			"0.022": 0.0,
			"0.023": 0.0,
			"0.024": 0.0,
			"0.025": 0.0
		}
	}
}
