{
	 "smiles": "CC(=O)N[C@@H](CC1=CNC2=CC=CC=C12)C(N)=O", 
	 "Tm": 468.15, 
	 "num_atms": 33, 
	 "gaussian": { 
		 "optdone": 1, 
		 "sigma_profile": "yes", 
		 "theory": "DFT", 
		 "functional": "B3LYP", 
		 "basiset": "6-31G**", 
		 "properties": { 
			 "R2extent": 6101.3464, 
			 "electric_dipole_moment_norm": 6.05324388159, 
			 "electric_quadrupole_moment_norm": 29.0251047879, 
			 "total_energy": -819.169597076, 
			 "HOMO_LUMO_gap": 0.19063, 
			 "cosmo_polarized_energy": -25.71, 
			 "cosmo_cavitation_energy": 36.72, 
			 "cosmo_dispersion_energy": -25.05, 
			 "cosmo_repulsion_energy": 1.96, 
			 "cosmo_total_nonelectrostatic_energy": 13.63, 
			 "SMD_solvation_energy": 7.0 
		},
		"coords": [
			{
				"x": 3.2887488462,
				"y": 3.4219779785,
				"z": -0.3636427984,
				"element": "C" 
			},
			{
				"x": 3.0566472733,
				"y": 2.3645947298,
				"z": -1.4332523156,
				"element": "C" 
			},
			{
				"x": 3.1678340923,
				"y": 2.5987940421,
				"z": -2.6288955905,
				"element": "O" 
			},
			{
				"x": 2.7247868397,
				"y": 1.1158961921,
				"z": -0.9542279651,
				"element": "N" 
			},
			{
				"x": 2.1497498456,
				"y": 0.0806482167,
				"z": -1.8211854001,
				"element": "C" 
			},
			{
				"x": 0.8352791996,
				"y": 0.5059661831,
				"z": -2.5188162525,
				"element": "C" 
			},
			{
				"x": -0.2247281962,
				"y": 0.9488463402,
				"z": -1.5549442796,
				"element": "C" 
			},
			{
				"x": -0.6750921777,
				"y": 2.2335967885,
				"z": -1.37563888,
				"element": "C" 
			},
			{
				"x": -1.6335028192,
				"y": 2.2701707225,
				"z": -0.3767232394,
				"element": "N" 
			},
			{
				"x": -1.8309298308,
				"y": 0.9929718813,
				"z": 0.1066994538,
				"element": "C" 
			},
			{
				"x": -2.6940754766,
				"y": 0.5216894657,
				"z": 1.1018238145,
				"element": "C" 
			},
			{
				"x": -2.6743649197,
				"y": -0.8411176594,
				"z": 1.3769237651,
				"element": "C" 
			},
			{
				"x": -1.8192211029,
				"y": -1.7157069312,
				"z": 0.675301981,
				"element": "C" 
			},
			{
				"x": -0.9643520434,
				"y": -1.2432871062,
				"z": -0.3130981742,
				"element": "C" 
			},
			{
				"x": -0.9549009148,
				"y": 0.1316284045,
				"z": -0.6122005056,
				"element": "C" 
			},
			{
				"x": 3.1546098475,
				"y": -0.4813108725,
				"z": -2.8499109431,
				"element": "C" 
			},
			{
				"x": 4.4680233291,
				"y": -0.4351120899,
				"z": -2.4791059064,
				"element": "N" 
			},
			{
				"x": 2.7686539958,
				"y": -1.0296710269,
				"z": -3.8710374992,
				"element": "O" 
			},
			{
				"x": 2.33491854,
				"y": 3.9022532376,
				"z": -0.1184106811,
				"element": "H" 
			},
			{
				"x": 3.9619819878,
				"y": 4.1824408883,
				"z": -0.7606912585,
				"element": "H" 
			},
			{
				"x": 3.7053702213,
				"y": 3.0056550387,
				"z": 0.5584946727,
				"element": "H" 
			},
			{
				"x": 2.4587772765,
				"y": 1.0659160064,
				"z": 0.0193874653,
				"element": "H" 
			},
			{
				"x": 1.9294354093,
				"y": -0.7595997036,
				"z": -1.1516035396,
				"element": "H" 
			},
			{
				"x": 1.0669508376,
				"y": 1.3078206096,
				"z": -3.2235423741,
				"element": "H" 
			},
			{
				"x": 0.5037751175,
				"y": -0.349643037,
				"z": -3.1142809208,
				"element": "H" 
			},
			{
				"x": -0.3887917668,
				"y": 3.1359268385,
				"z": -1.8985468667,
				"element": "H" 
			},
			{
				"x": -2.1567754092,
				"y": 3.0851308964,
				"z": -0.1023424057,
				"element": "H" 
			},
			{
				"x": -3.3578629376,
				"y": 1.1937614156,
				"z": 1.6389090349,
				"element": "H" 
			},
			{
				"x": -3.3330848423,
				"y": -1.2395698209,
				"z": 2.1430304874,
				"element": "H" 
			},
			{
				"x": -1.8355429059,
				"y": -2.7759309301,
				"z": 0.91026847,
				"element": "H" 
			},
			{
				"x": -0.3227017522,
				"y": -1.9315832043,
				"z": -0.8569023262,
				"element": "H" 
			},
			{
				"x": 4.7566183028,
				"y": 0.2155194027,
				"z": -1.7659359036,
				"element": "H" 
			},
			{
				"x": 5.1385661334,
				"y": -0.6908728969,
				"z": -3.1890031186,
				"element": "H" 
			}
		],
		 "valence_orbital": [ 
			{
				"type": "occ",
				"energy": -0.26274,
				"method": "rhf"
			},
			{
				"type": "occ",
				"energy": -0.25336,
				"method": "rhf"
			},
			{
				"type": "occ",
				"energy": -0.2374,
				"method": "rhf"
			},
			{
				"type": "occ",
				"energy": -0.22172,
				"method": "rhf"
			},
			{
				"type": "occ",
				"energy": -0.20141,
				"method": "rhf"
			},
			{
				"type": "unocc",
				"energy": -0.01078,
				"method": "rhf"
			},
			{
				"type": "unocc",
				"energy": 0.01442,
				"method": "rhf"
			},
			{
				"type": "unocc",
				"energy": 0.02356,
				"method": "rhf"
			},
			{
				"type": "unocc",
				"energy": 0.0327,
				"method": "rhf"
			},
			{
				"type": "unocc",
				"energy": 0.06507,
				"method": "rhf"
			}
		],
		"cosmo_sigma_profile": { 
			"-0.025": 0.0,
			"-0.024": 0.0,
			"-0.023": 0.0,
			"-0.022": 0.0,
			"-0.021": 0.0,
			"-0.02": 0.0,
			"-0.019": 0.0,
			"-0.018": 0.0,
			"-0.017": 0.0,
			"-0.016": 0.149879640206,
			"-0.015": 1.35316436576,
			"-0.014": 2.8862531303,
			"-0.013": 3.1054574313,
			"-0.012": 4.74987346615,
			"-0.011": 4.26864571368,
			"-0.01": 4.49807683363,
			"-0.009": 4.93844532841,
			"-0.008": 5.88397878635,
			"-0.007": 7.79318040626,
			"-0.006": 12.6092469939,
			"-0.005": 17.2369229682,
			"-0.004": 19.7972545858,
			"-0.003": 21.5250118225,
			"-0.002": 24.151291012,
			"-0.001": 18.3679640401,
			"0.0": 13.8120987218,
			"0.001": 11.3344279394,
			"0.002": 9.70197383127,
			"0.003": 11.2609031327,
			"0.004": 14.2071724052,
			"0.005": 15.7008398353,
			"0.006": 14.7650592572,
			"0.007": 10.9449100459,
			"0.008": 5.40344597197,
			"0.009": 3.91572364438,
			"0.01": 3.07885332097,
			"0.011": 3.45513703723,
			"0.012": 3.42785026813,
			"0.013": 7.44009256194,
			"0.014": 7.27414879946,
			"0.015": 1.04621342157,
			"0.016": 0.0,
			"0.017": 0.0,
			"0.018": 0.0,
			"0.019": 0.0,
			"0.02": 0.0,
			"0.021": 0.0,
			"0.022": 0.0,
			"0.023": 0.0,
			"0.024": 0.0,
			"0.025": 0.0
		}
	}
}
