{
	 "smiles": "NC(=O)C1=CC(=C(F)C=C1)C(F)(F)F", 
	 "Tm": 357.65, 
	 "num_atms": 19, 
	 "gaussian": { 
		 "optdone": 1, 
		 "sigma_profile": "yes", 
		 "theory": "DFT", 
		 "functional": "B3LYP", 
		 "basiset": "6-31G**", 
		 "properties": { 
			 "R2extent": 3827.5068, 
			 "electric_dipole_moment_norm": 2.11745698894, 
			 "electric_quadrupole_moment_norm": 15.2359141659, 
			 "total_energy": -837.21819348, 
			 "HOMO_LUMO_gap": 0.20889, 
			 "cosmo_polarized_energy": -12.53, 
			 "cosmo_cavitation_energy": 25.82, 
			 "cosmo_dispersion_energy": -18.34, 
			 "cosmo_repulsion_energy": 1.37, 
			 "cosmo_total_nonelectrostatic_energy": 8.86, 
			 "SMD_solvation_energy": 6.82 
		},
		"coords": [
			{
				"x": -1.5512589403,
				"y": -1.7905036174,
				"z": -0.6982286835,
				"element": "N" 
			},
			{
				"x": -2.37432652,
				"y": -0.70200218,
				"z": -0.5473299267,
				"element": "C" 
			},
			{
				"x": -3.5575849988,
				"y": -0.7344041808,
				"z": -0.8606022176,
				"element": "O" 
			},
			{
				"x": -1.7407984947,
				"y": 0.5474038698,
				"z": -0.0011029036,
				"element": "C" 
			},
			{
				"x": -0.3580860527,
				"y": 0.7615212393,
				"z": 0.0337414737,
				"element": "C" 
			},
			{
				"x": 0.1684930674,
				"y": 1.9473366583,
				"z": 0.5464597598,
				"element": "C" 
			},
			{
				"x": -0.7157706774,
				"y": 2.9189440753,
				"z": 1.0219617889,
				"element": "C" 
			},
			{
				"x": -0.2208407365,
				"y": 4.0625728565,
				"z": 1.521065595,
				"element": "F" 
			},
			{
				"x": -2.0929471666,
				"y": 2.7372261302,
				"z": 0.9858415135,
				"element": "C" 
			},
			{
				"x": -2.6001432936,
				"y": 1.5506383516,
				"z": 0.4662844751,
				"element": "C" 
			},
			{
				"x": 1.6532481301,
				"y": 2.1972162806,
				"z": 0.5856576489,
				"element": "C" 
			},
			{
				"x": 2.3416738965,
				"y": 1.148472848,
				"z": 0.0801836394,
				"element": "F" 
			},
			{
				"x": 2.0907745457,
				"y": 2.3938685335,
				"z": 1.8466196736,
				"element": "F" 
			},
			{
				"x": 1.9964639927,
				"y": 3.2864955718,
				"z": -0.1306954666,
				"element": "F" 
			},
			{
				"x": -2.0136025695,
				"y": -2.6478529486,
				"z": -0.9650549835,
				"element": "H" 
			},
			{
				"x": -0.7043497332,
				"y": -1.8785357209,
				"z": -0.1590041266,
				"element": "H" 
			},
			{
				"x": 0.3313164805,
				"y": 0.0265890018,
				"z": -0.3650108762,
				"element": "H" 
			},
			{
				"x": -2.7398413651,
				"y": 3.5232165561,
				"z": 1.3593399975,
				"element": "H" 
			},
			{
				"x": -3.6690195647,
				"y": 1.376696675,
				"z": 0.4086736188,
				"element": "H" 
			}
		],
		 "valence_orbital": [ 
			{
				"type": "occ",
				"energy": -0.36494,
				"method": "rhf"
			},
			{
				"type": "occ",
				"energy": -0.2899,
				"method": "rhf"
			},
			{
				"type": "occ",
				"energy": -0.28309,
				"method": "rhf"
			},
			{
				"type": "occ",
				"energy": -0.27172,
				"method": "rhf"
			},
			{
				"type": "occ",
				"energy": -0.26186,
				"method": "rhf"
			},
			{
				"type": "unocc",
				"energy": -0.05297,
				"method": "rhf"
			},
			{
				"type": "unocc",
				"energy": -0.04263,
				"method": "rhf"
			},
			{
				"type": "unocc",
				"energy": 0.04096,
				"method": "rhf"
			},
			{
				"type": "unocc",
				"energy": 0.06235,
				"method": "rhf"
			},
			{
				"type": "unocc",
				"energy": 0.09137,
				"method": "rhf"
			}
		],
		"cosmo_sigma_profile": { 
			"-0.025": 0.0,
			"-0.024": 0.0,
			"-0.023": 0.0,
			"-0.022": 0.0,
			"-0.021": 0.0,
			"-0.02": 0.0,
			"-0.019": 0.0,
			"-0.018": 0.0,
			"-0.017": 0.0,
			"-0.016": 0.024998124846,
			"-0.015": 0.829874459453,
			"-0.014": 2.26698159413,
			"-0.013": 2.55821741563,
			"-0.012": 2.36654152486,
			"-0.011": 2.11643439563,
			"-0.01": 3.04832638263,
			"-0.009": 3.08630653218,
			"-0.008": 4.50582497727,
			"-0.007": 4.23121021685,
			"-0.006": 6.71790828712,
			"-0.005": 4.79169742881,
			"-0.004": 7.07064411965,
			"-0.003": 7.50540125035,
			"-0.002": 11.9949500612,
			"-0.001": 19.7749417906,
			"0.0": 18.1165773661,
			"0.001": 18.7946152908,
			"0.002": 30.7687282287,
			"0.003": 31.067276596,
			"0.004": 3.62774559953,
			"0.005": 2.79757868572,
			"0.006": 1.5553093218,
			"0.007": 1.97540718248,
			"0.008": 1.91526203685,
			"0.009": 1.45640674604,
			"0.01": 1.14923001667,
			"0.011": 1.5928315817,
			"0.012": 2.62735303445,
			"0.013": 5.08897764312,
			"0.014": 2.06462713978,
			"0.015": 0.0304034309115,
			"0.016": 0.0,
			"0.017": 0.0,
			"0.018": 0.0,
			"0.019": 0.0,
			"0.02": 0.0,
			"0.021": 0.0,
			"0.022": 0.0,
			"0.023": 0.0,
			"0.024": 0.0,
			"0.025": 0.0
		}
	}
}
