{
	 "smiles": "OC(=O)C1=CC=C(NS(=O)(=O)C2=CC3=C(OCCO3)C=C2)C=C1", 
	 "Tm": 368.65, 
	 "num_atms": 36, 
	 "gaussian": { 
		 "optdone": 1, 
		 "sigma_profile": "yes", 
		 "theory": "DFT", 
		 "functional": "B3LYP", 
		 "basiset": "6-31G**", 
		 "properties": { 
			 "R2extent": 13164.1548, 
			 "electric_dipole_moment_norm": 7.43827835591, 
			 "electric_quadrupole_moment_norm": 36.0447364302, 
			 "total_energy": -1483.64184732, 
			 "HOMO_LUMO_gap": 0.18618, 
			 "cosmo_polarized_energy": -23.96, 
			 "cosmo_cavitation_energy": 42.47, 
			 "cosmo_dispersion_energy": -31.43, 
			 "cosmo_repulsion_energy": 2.32, 
			 "cosmo_total_nonelectrostatic_energy": 13.36, 
			 "SMD_solvation_energy": 7.94 
		},
		"coords": [
			{
				"x": -3.6866815772,
				"y": 4.7598151221,
				"z": -3.8759654692,
				"element": "O" 
			},
			{
				"x": -3.0595094299,
				"y": 3.6670963265,
				"z": -4.3833252704,
				"element": "C" 
			},
			{
				"x": -2.9669321468,
				"y": 3.4789689629,
				"z": -5.5817681695,
				"element": "O" 
			},
			{
				"x": -2.5212037467,
				"y": 2.7659980495,
				"z": -3.3372456481,
				"element": "C" 
			},
			{
				"x": -2.6484045362,
				"y": 3.0354565906,
				"z": -1.9669474214,
				"element": "C" 
			},
			{
				"x": -2.1182440137,
				"y": 2.1698951817,
				"z": -1.0168829402,
				"element": "C" 
			},
			{
				"x": -1.464564532,
				"y": 0.9987284333,
				"z": -1.4333015848,
				"element": "C" 
			},
			{
				"x": -0.8490445262,
				"y": 0.1171856593,
				"z": -0.5039750196,
				"element": "N" 
			},
			{
				"x": -1.7032191378,
				"y": -0.476872299,
				"z": 0.8719711247,
				"element": "S" 
			},
			{
				"x": -2.1174314216,
				"y": 0.6954977168,
				"z": 1.6446971931,
				"element": "O" 
			},
			{
				"x": -2.6885580847,
				"y": -1.4863802913,
				"z": 0.4697045326,
				"element": "O" 
			},
			{
				"x": -0.3537029855,
				"y": -1.3037981724,
				"z": 1.6966320734,
				"element": "C" 
			},
			{
				"x": -0.3304199704,
				"y": -2.6979599176,
				"z": 1.7109961722,
				"element": "C" 
			},
			{
				"x": 0.7088945293,
				"y": -3.3510824624,
				"z": 2.3705049762,
				"element": "C" 
			},
			{
				"x": 1.7190974618,
				"y": -2.5994811583,
				"z": 3.0024507616,
				"element": "C" 
			},
			{
				"x": 2.766428474,
				"y": -3.1965645696,
				"z": 3.6425138006,
				"element": "O" 
			},
			{
				"x": 2.9192738927,
				"y": -4.5917809448,
				"z": 3.3595881077,
				"element": "C" 
			},
			{
				"x": 1.5668456796,
				"y": -5.2831416282,
				"z": 3.3832987434,
				"element": "C" 
			},
			{
				"x": 0.713332738,
				"y": -4.7208658718,
				"z": 2.3839682308,
				"element": "O" 
			},
			{
				"x": 1.6627242432,
				"y": -1.2016920056,
				"z": 2.9949428858,
				"element": "C" 
			},
			{
				"x": 0.6243147226,
				"y": -0.5437557269,
				"z": 2.3474503754,
				"element": "C" 
			},
			{
				"x": -1.3442862606,
				"y": 0.7203899757,
				"z": -2.804908234,
				"element": "C" 
			},
			{
				"x": -1.8585099353,
				"y": 1.601108709,
				"z": -3.745958908,
				"element": "C" 
			},
			{
				"x": -3.9931160611,
				"y": 5.2653952841,
				"z": -4.6462886496,
				"element": "H" 
			},
			{
				"x": -3.1570917412,
				"y": 3.9370302505,
				"z": -1.6451734638,
				"element": "H" 
			},
			{
				"x": -2.2060560428,
				"y": 2.38841514,
				"z": 0.0392675481,
				"element": "H" 
			},
			{
				"x": -0.4111532382,
				"y": -0.6774108728,
				"z": -0.9647356279,
				"element": "H" 
			},
			{
				"x": -1.1142309556,
				"y": -3.2760882772,
				"z": 1.2350744641,
				"element": "H" 
			},
			{
				"x": 3.585801903,
				"y": -4.9895765589,
				"z": 4.1282707445,
				"element": "H" 
			},
			{
				"x": 3.3897575002,
				"y": -4.7178242188,
				"z": 2.3758476212,
				"element": "H" 
			},
			{
				"x": 1.1036210956,
				"y": -5.1733523089,
				"z": 4.3728172661,
				"element": "H" 
			},
			{
				"x": 1.6599560609,
				"y": -6.3457936307,
				"z": 3.1481820062,
				"element": "H" 
			},
			{
				"x": 2.4494678008,
				"y": -0.6537639625,
				"z": 3.5025541204,
				"element": "H" 
			},
			{
				"x": 0.5697393746,
				"y": 0.5385638743,
				"z": 2.3421148815,
				"element": "H" 
			},
			{
				"x": -0.8459428865,
				"y": -0.1898583781,
				"z": -3.1290579489,
				"element": "H" 
			},
			{
				"x": -1.7676522459,
				"y": 1.3977979794,
				"z": -4.8075132741,
				"element": "H" 
			}
		],
		 "valence_orbital": [ 
			{
				"type": "occ",
				"energy": -0.27085,
				"method": "rhf"
			},
			{
				"type": "occ",
				"energy": -0.26422,
				"method": "rhf"
			},
			{
				"type": "occ",
				"energy": -0.2605,
				"method": "rhf"
			},
			{
				"type": "occ",
				"energy": -0.2394,
				"method": "rhf"
			},
			{
				"type": "occ",
				"energy": -0.23142,
				"method": "rhf"
			},
			{
				"type": "unocc",
				"energy": -0.04524,
				"method": "rhf"
			},
			{
				"type": "unocc",
				"energy": -0.03749,
				"method": "rhf"
			},
			{
				"type": "unocc",
				"energy": -0.02055,
				"method": "rhf"
			},
			{
				"type": "unocc",
				"energy": -0.00951,
				"method": "rhf"
			},
			{
				"type": "unocc",
				"energy": 0.04459,
				"method": "rhf"
			}
		],
		"cosmo_sigma_profile": { 
			"-0.025": 0.0,
			"-0.024": 0.0,
			"-0.023": 0.0,
			"-0.022": 0.0,
			"-0.021": 0.0,
			"-0.02": 0.0,
			"-0.019": 0.0,
			"-0.018": 0.626721894452,
			"-0.017": 0.781766284355,
			"-0.016": 1.947238083,
			"-0.015": 1.76024563594,
			"-0.014": 1.94310707976,
			"-0.013": 2.07887133533,
			"-0.012": 2.37267441035,
			"-0.011": 2.5529206311,
			"-0.01": 1.47839000471,
			"-0.009": 1.91445283773,
			"-0.008": 6.22652986621,
			"-0.007": 17.1086046021,
			"-0.006": 23.5162758571,
			"-0.005": 20.900778609,
			"-0.004": 16.0516192907,
			"-0.003": 14.5983533031,
			"-0.002": 16.738904647,
			"-0.001": 17.9597252024,
			"0.0": 20.8952718381,
			"0.001": 30.6392390486,
			"0.002": 30.5463846298,
			"0.003": 28.2308269932,
			"0.004": 10.2720432651,
			"0.005": 7.63141061646,
			"0.006": 8.90091559252,
			"0.007": 10.0811280352,
			"0.008": 8.03493847665,
			"0.009": 9.29617105115,
			"0.01": 10.0891962831,
			"0.011": 9.57567137249,
			"0.012": 4.85705861248,
			"0.013": 0.294864004949,
			"0.014": 0.0,
			"0.015": 0.0,
			"0.016": 0.0,
			"0.017": 0.0,
			"0.018": 0.0,
			"0.019": 0.0,
			"0.02": 0.0,
			"0.021": 0.0,
			"0.022": 0.0,
			"0.023": 0.0,
			"0.024": 0.0,
			"0.0": 0.0
		}
	}
}
