{
	 "smiles": "OC(=O)CCCCC=C(C1=CC=CC=C1)C1=CC=CN=C1", 
	 "Tm": 387.15, 
	 "num_atms": 40, 
	 "gaussian": { 
		 "optdone": 1, 
		 "sigma_profile": "yes", 
		 "theory": "DFT", 
		 "functional": "B3LYP", 
		 "basiset": "6-31G**", 
		 "properties": { 
			 "R2extent": 9628.2309, 
			 "electric_dipole_moment_norm": 5.59609618663, 
			 "electric_quadrupole_moment_norm": 26.1354450276, 
			 "total_energy": -902.565812418, 
			 "HOMO_LUMO_gap": 0.18762, 
			 "cosmo_polarized_energy": -20.42, 
			 "cosmo_cavitation_energy": 44.22, 
			 "cosmo_dispersion_energy": -30.07, 
			 "cosmo_repulsion_energy": 2.36, 
			 "cosmo_total_nonelectrostatic_energy": 16.51, 
			 "SMD_solvation_energy": 6.62 
		},
		"coords": [
			{
				"x": -0.4326897239,
				"y": -5.8895934927,
				"z": -4.0178393669,
				"element": "O" 
			},
			{
				"x": 0.1567311091,
				"y": -4.7722884756,
				"z": -3.5070747899,
				"element": "C" 
			},
			{
				"x": 1.3577570172,
				"y": -4.7018325098,
				"z": -3.4425783491,
				"element": "O" 
			},
			{
				"x": -0.8041146654,
				"y": -3.678725452,
				"z": -3.0560526591,
				"element": "C" 
			},
			{
				"x": -0.0908336026,
				"y": -2.4622412045,
				"z": -2.4625501858,
				"element": "C" 
			},
			{
				"x": -1.0660097657,
				"y": -1.3528630199,
				"z": -2.0497936713,
				"element": "C" 
			},
			{
				"x": -0.3885541469,
				"y": -0.0849965237,
				"z": -1.4800710954,
				"element": "C" 
			},
			{
				"x": 0.2566150142,
				"y": -0.307297126,
				"z": -0.1392858042,
				"element": "C" 
			},
			{
				"x": 0.0597860257,
				"y": 0.3912090127,
				"z": 1.0006353904,
				"element": "C" 
			},
			{
				"x": -0.776258117,
				"y": 1.6275373165,
				"z": 1.0717799,
				"element": "C" 
			},
			{
				"x": -0.5420992546,
				"y": 2.7172394886,
				"z": 0.2172163128,
				"element": "C" 
			},
			{
				"x": -1.326054353,
				"y": 3.8698101058,
				"z": 0.2940509989,
				"element": "C" 
			},
			{
				"x": -2.3576546673,
				"y": 3.9552124214,
				"z": 1.2297847726,
				"element": "C" 
			},
			{
				"x": -2.5952872346,
				"y": 2.8832815429,
				"z": 2.093887868,
				"element": "C" 
			},
			{
				"x": -1.8081312746,
				"y": 1.7353148321,
				"z": 2.0206083304,
				"element": "C" 
			},
			{
				"x": 0.7001479919,
				"y": -0.0594776263,
				"z": 2.267301129,
				"element": "C" 
			},
			{
				"x": 1.2259958107,
				"y": 0.8498532221,
				"z": 3.1985677635,
				"element": "C" 
			},
			{
				"x": 1.8441708318,
				"y": 0.3713025694,
				"z": 4.3501650471,
				"element": "C" 
			},
			{
				"x": 1.9132354397,
				"y": -1.0083437716,
				"z": 4.5493814441,
				"element": "C" 
			},
			{
				"x": 1.3973209061,
				"y": -1.8990921718,
				"z": 3.6932174038,
				"element": "N" 
			},
			{
				"x": 0.8061082514,
				"y": -1.4242063175,
				"z": 2.5934937049,
				"element": "C" 
			},
			{
				"x": -1.3958421364,
				"y": -5.7970110325,
				"z": -3.9995590029,
				"element": "H" 
			},
			{
				"x": -1.416437038,
				"y": -3.3841646029,
				"z": -3.9210757223,
				"element": "H" 
			},
			{
				"x": -1.5036452085,
				"y": -4.1114423599,
				"z": -2.326162215,
				"element": "H" 
			},
			{
				"x": 0.6242951243,
				"y": -2.0780678323,
				"z": -3.1990053165,
				"element": "H" 
			},
			{
				"x": 0.5089250512,
				"y": -2.7952550788,
				"z": -1.6091219316,
				"element": "H" 
			},
			{
				"x": -1.7813830046,
				"y": -1.7387159398,
				"z": -1.310987768,
				"element": "H" 
			},
			{
				"x": -1.6591087251,
				"y": -1.0564269421,
				"z": -2.9255971953,
				"element": "H" 
			},
			{
				"x": -1.1306384211,
				"y": 0.7148914499,
				"z": -1.4129301576,
				"element": "H" 
			},
			{
				"x": 0.3693075186,
				"y": 0.2520298623,
				"z": -2.2039626082,
				"element": "H" 
			},
			{
				"x": 0.9450586381,
				"y": -1.1489877583,
				"z": -0.0863172622,
				"element": "H" 
			},
			{
				"x": 0.271344859,
				"y": 2.6624221864,
				"z": -0.5001076696,
				"element": "H" 
			},
			{
				"x": -1.1249741888,
				"y": 4.7029661473,
				"z": -0.3735812313,
				"element": "H" 
			},
			{
				"x": -2.967849375,
				"y": 4.8517520703,
				"z": 1.2906313115,
				"element": "H" 
			},
			{
				"x": -3.3945642683,
				"y": 2.9421916133,
				"z": 2.8273574436,
				"element": "H" 
			},
			{
				"x": -1.9947269536,
				"y": 0.9073384762,
				"z": 2.6984901773,
				"element": "H" 
			},
			{
				"x": 1.1567307495,
				"y": 1.9171960005,
				"z": 3.0114206703,
				"element": "H" 
			},
			{
				"x": 2.2687858414,
				"y": 1.05323422,
				"z": 5.0806149866,
				"element": "H" 
			},
			{
				"x": 2.3941774288,
				"y": -1.4160545056,
				"z": 5.4368549414,
				"element": "H" 
			},
			{
				"x": 0.366562516,
				"y": -2.1665987939,
				"z": 1.9294944059,
				"element": "H" 
			}
		],
		 "valence_orbital": [ 
			{
				"type": "occ",
				"energy": -0.27104,
				"method": "rhf"
			},
			{
				"type": "occ",
				"energy": -0.25897,
				"method": "rhf"
			},
			{
				"type": "occ",
				"energy": -0.25527,
				"method": "rhf"
			},
			{
				"type": "occ",
				"energy": -0.24809,
				"method": "rhf"
			},
			{
				"type": "occ",
				"energy": -0.22328,
				"method": "rhf"
			},
			{
				"type": "unocc",
				"energy": -0.03566,
				"method": "rhf"
			},
			{
				"type": "unocc",
				"energy": -0.02147,
				"method": "rhf"
			},
			{
				"type": "unocc",
				"energy": -0.01315,
				"method": "rhf"
			},
			{
				"type": "unocc",
				"energy": -0.0035,
				"method": "rhf"
			},
			{
				"type": "unocc",
				"energy": 0.01131,
				"method": "rhf"
			}
		],
		"cosmo_sigma_profile": { 
			"-0.025": 0.0,
			"-0.024": 0.0,
			"-0.023": 0.0,
			"-0.022": 0.0,
			"-0.021": 0.0,
			"-0.02": 0.0,
			"-0.019": 0.343812186567,
			"-0.018": 1.28206343987,
			"-0.017": 0.598106029518,
			"-0.016": 1.19297980416,
			"-0.015": 1.35817869314,
			"-0.014": 0.788803831689,
			"-0.013": 0.927290209875,
			"-0.012": 1.19847499521,
			"-0.011": 1.22967141837,
			"-0.01": 1.71567372556,
			"-0.009": 0.761406111862,
			"-0.008": 1.63628997802,
			"-0.007": 4.63946034221,
			"-0.006": 13.5903594067,
			"-0.005": 25.2194377337,
			"-0.004": 27.597142275,
			"-0.003": 33.8375515084,
			"-0.002": 34.3323173675,
			"-0.001": 28.9952597677,
			"0.0": 25.8844555394,
			"0.001": 22.049100125,
			"0.002": 23.9365883254,
			"0.003": 23.8631024616,
			"0.004": 15.1061010462,
			"0.005": 12.4326084995,
			"0.006": 7.4442005199,
			"0.007": 3.69011573551,
			"0.008": 4.49829236136,
			"0.009": 3.7050761178,
			"0.01": 5.639360445,
			"0.011": 6.93144513139,
			"0.012": 6.96088444577,
			"0.013": 3.58363436008,
			"0.014": 0.969029812703,
			"0.015": 0.950396905086,
			"0.016": 0.945287900994,
			"0.017": 0.322341739265,
			"0.018": 0.0,
			"0.019": 0.0,
			"0.02": 0.0,
			"0.021": 0.0,
			"0.022": 0.0,
			"0.023": 0.0,
			"0.024": 0.0,
			"0.025": 0.0
		}
	}
}
