{
	 "smiles": "CC(C)C1=CC=CC(C)=C1O", 
	 "Tm": 258.65, 
	 "num_atms": 25, 
	 "gaussian": { 
		 "optdone": 1, 
		 "sigma_profile": "yes", 
		 "theory": "DFT", 
		 "functional": "B3LYP", 
		 "basiset": "6-31G**", 
		 "properties": { 
			 "R2extent": 2052.9804, 
			 "electric_dipole_moment_norm": 1.68829039268, 
			 "electric_quadrupole_moment_norm": 10.2614660644, 
			 "total_energy": -464.741469325, 
			 "HOMO_LUMO_gap": 0.21978, 
			 "cosmo_polarized_energy": -6.58, 
			 "cosmo_cavitation_energy": 26.46, 
			 "cosmo_dispersion_energy": -19.32, 
			 "cosmo_repulsion_energy": 1.56, 
			 "cosmo_total_nonelectrostatic_energy": 8.7, 
			 "SMD_solvation_energy": 4.89 
		},
		"coords": [
			{
				"x": 0.8926961043,
				"y": -2.1928464034,
				"z": -0.5242650588,
				"element": "C" 
			},
			{
				"x": 1.3063156428,
				"y": -0.722156288,
				"z": -0.7308522884,
				"element": "C" 
			},
			{
				"x": 2.782070641,
				"y": -0.4932875766,
				"z": -0.3482336296,
				"element": "C" 
			},
			{
				"x": 0.3619962568,
				"y": 0.2560645919,
				"z": -0.0409314938,
				"element": "C" 
			},
			{
				"x": -0.3829296747,
				"y": 1.1623315949,
				"z": -0.8043432168,
				"element": "C" 
			},
			{
				"x": -1.2597882974,
				"y": 2.0765270334,
				"z": -0.2206712532,
				"element": "C" 
			},
			{
				"x": -1.4043744261,
				"y": 2.0945790583,
				"z": 1.1640810744,
				"element": "C" 
			},
			{
				"x": -0.6834268512,
				"y": 1.2103044628,
				"z": 1.9727540482,
				"element": "C" 
			},
			{
				"x": -0.8338080509,
				"y": 1.22241548,
				"z": 3.4769301818,
				"element": "C" 
			},
			{
				"x": 0.1937882186,
				"y": 0.2990993979,
				"z": 1.3566181299,
				"element": "C" 
			},
			{
				"x": 0.9234349248,
				"y": -0.589331151,
				"z": 2.1114536924,
				"element": "O" 
			},
			{
				"x": -0.1395322761,
				"y": -2.3595134692,
				"z": -0.8492354581,
				"element": "H" 
			},
			{
				"x": 0.9697658456,
				"y": -2.4798990192,
				"z": 0.5270895345,
				"element": "H" 
			},
			{
				"x": 1.5418728207,
				"y": -2.8548302043,
				"z": -1.1085354118,
				"element": "H" 
			},
			{
				"x": 1.2185516027,
				"y": -0.5133064326,
				"z": -1.8054290668,
				"element": "H" 
			},
			{
				"x": 2.9505628762,
				"y": -0.6979485946,
				"z": 0.7116687751,
				"element": "H" 
			},
			{
				"x": 3.4320619996,
				"y": -1.1545955674,
				"z": -0.9323644938,
				"element": "H" 
			},
			{
				"x": 3.0838202936,
				"y": 0.5399205056,
				"z": -0.5489967138,
				"element": "H" 
			},
			{
				"x": -0.2671952949,
				"y": 1.1449674572,
				"z": -1.8853565095,
				"element": "H" 
			},
			{
				"x": -1.823883457,
				"y": 2.7670111265,
				"z": -0.8402076999,
				"element": "H" 
			},
			{
				"x": -2.084008113,
				"y": 2.8011935786,
				"z": 1.6339083974,
				"element": "H" 
			},
			{
				"x": 0.1130624053,
				"y": 1.4461818825,
				"z": 3.988367197,
				"element": "H" 
			},
			{
				"x": -1.550568212,
				"y": 1.9858971672,
				"z": 3.7881549065,
				"element": "H" 
			},
			{
				"x": -1.200838798,
				"y": 0.2623472499,
				"z": 3.8665039643,
				"element": "H" 
			},
			{
				"x": 0.7186538193,
				"y": -0.4578258803,
				"z": 3.0450923927,
				"element": "H" 
			}
		],
		 "valence_orbital": [ 
			{
				"type": "occ",
				"energy": -0.32101,
				"method": "rhf"
			},
			{
				"type": "occ",
				"energy": -0.31551,
				"method": "rhf"
			},
			{
				"type": "occ",
				"energy": -0.30793,
				"method": "rhf"
			},
			{
				"type": "occ",
				"energy": -0.23369,
				"method": "rhf"
			},
			{
				"type": "occ",
				"energy": -0.21171,
				"method": "rhf"
			},
			{
				"type": "unocc",
				"energy": 0.00807,
				"method": "rhf"
			},
			{
				"type": "unocc",
				"energy": 0.01673,
				"method": "rhf"
			},
			{
				"type": "unocc",
				"energy": 0.0644,
				"method": "rhf"
			},
			{
				"type": "unocc",
				"energy": 0.10078,
				"method": "rhf"
			},
			{
				"type": "unocc",
				"energy": 0.11316,
				"method": "rhf"
			}
		],
		"cosmo_sigma_profile": { 
			"-0.025": 0.0,
			"-0.024": 0.0,
			"-0.023": 0.0,
			"-0.022": 0.0,
			"-0.021": 0.0,
			"-0.02": 0.0,
			"-0.019": 0.0,
			"-0.018": 0.0,
			"-0.017": 0.0,
			"-0.016": 0.0794771177657,
			"-0.015": 0.838319129907,
			"-0.014": 0.429297643485,
			"-0.013": 0.984459731896,
			"-0.012": 1.53224398078,
			"-0.011": 0.777968527032,
			"-0.01": 0.827436789902,
			"-0.009": 1.59450248494,
			"-0.008": 1.1965687529,
			"-0.007": 1.19497377831,
			"-0.006": 2.37869558019,
			"-0.005": 8.28771899804,
			"-0.004": 12.6454374582,
			"-0.003": 14.9733450235,
			"-0.002": 21.2324926302,
			"-0.001": 22.7707033341,
			"0.0": 23.7888082447,
			"0.001": 21.7001029698,
			"0.002": 19.4495176557,
			"0.003": 9.59911919597,
			"0.004": 10.7454511389,
			"0.005": 9.45309776337,
			"0.006": 11.0510908214,
			"0.007": 8.2542838761,
			"0.008": 1.3202686641,
			"0.009": 0.0786576358784,
			"0.01": 0.0,
			"0.011": 0.0,
			"0.012": 0.0,
			"0.013": 0.0,
			"0.014": 0.0,
			"0.015": 0.0,
			"0.016": 0.0,
			"0.017": 0.0,
			"0.018": 0.0,
			"0.019": 0.0,
			"0.02": 0.0,
			"0.021": 0.0,
			"0.022": 0.0,
			"0.023": 0.0,
			"0.024": 0.0,
			"0.025": 0.0
		}
	}
}
