{
	 "smiles": "OCC1=C(C=CC=C1)C1=CC=CO1", 
	 "Tm": 345.15, 
	 "num_atms": 23, 
	 "gaussian": { 
		 "optdone": 1, 
		 "sigma_profile": "yes", 
		 "theory": "DFT", 
		 "functional": "B3LYP", 
		 "basiset": "6-31G**", 
		 "properties": { 
			 "R2extent": 2919.3971, 
			 "electric_dipole_moment_norm": 2.56429876185, 
			 "electric_quadrupole_moment_norm": 14.8913257378, 
			 "total_energy": -575.612301141, 
			 "HOMO_LUMO_gap": 0.1819, 
			 "cosmo_polarized_energy": -8.69, 
			 "cosmo_cavitation_energy": 26.46, 
			 "cosmo_dispersion_energy": -19.45, 
			 "cosmo_repulsion_energy": 1.51, 
			 "cosmo_total_nonelectrostatic_energy": 8.52, 
			 "SMD_solvation_energy": 5.07 
		},
		"coords": [
			{
				"x": 3.2479326942,
				"y": 0.6786212521,
				"z": 1.5173448437,
				"element": "O" 
			},
			{
				"x": 2.1500695545,
				"y": 0.2878909501,
				"z": 2.3318567429,
				"element": "C" 
			},
			{
				"x": 1.0432077875,
				"y": -0.4195506697,
				"z": 1.5668760671,
				"element": "C" 
			},
			{
				"x": 0.0478655384,
				"y": 0.2731460357,
				"z": 0.8337310489,
				"element": "C" 
			},
			{
				"x": -0.9539630399,
				"y": -0.462307649,
				"z": 0.1731133544,
				"element": "C" 
			},
			{
				"x": -0.9862252462,
				"y": -1.8520164458,
				"z": 0.2282960286,
				"element": "C" 
			},
			{
				"x": 0.0005925785,
				"y": -2.5378843307,
				"z": 0.9370120851,
				"element": "C" 
			},
			{
				"x": 0.9994780236,
				"y": -1.8183147922,
				"z": 1.5909541106,
				"element": "C" 
			},
			{
				"x": -0.021058356,
				"y": 1.7342336516,
				"z": 0.7407268068,
				"element": "C" 
			},
			{
				"x": -1.0752364579,
				"y": 2.6027688288,
				"z": 0.630400305,
				"element": "C" 
			},
			{
				"x": -0.5283887263,
				"y": 3.9214277867,
				"z": 0.535229257,
				"element": "C" 
			},
			{
				"x": 0.8224722386,
				"y": 3.7786098589,
				"z": 0.5942419244,
				"element": "C" 
			},
			{
				"x": 1.1516543972,
				"y": 2.4580870694,
				"z": 0.718398732,
				"element": "O" 
			},
			{
				"x": 2.9163908114,
				"y": 1.3842972837,
				"z": 0.9453615608,
				"element": "H" 
			},
			{
				"x": 1.7361161094,
				"y": 1.1463169193,
				"z": 2.8803111759,
				"element": "H" 
			},
			{
				"x": 2.5611271881,
				"y": -0.4038624881,
				"z": 3.0731546131,
				"element": "H" 
			},
			{
				"x": -1.7009420433,
				"y": 0.0718668562,
				"z": -0.4060914387,
				"element": "H" 
			},
			{
				"x": -1.7697157142,
				"y": -2.3955024178,
				"z": -0.2916281618,
				"element": "H" 
			},
			{
				"x": -0.0064382246,
				"y": -3.6230820841,
				"z": 0.9799259581,
				"element": "H" 
			},
			{
				"x": 1.7658180779,
				"y": -2.3504155633,
				"z": 2.1487538867,
				"element": "H" 
			},
			{
				"x": -2.1209829352,
				"y": 2.332680208,
				"z": 0.6444260287,
				"element": "H" 
			},
			{
				"x": -1.0721399076,
				"y": 4.8504783245,
				"z": 0.4428926149,
				"element": "H" 
			},
			{
				"x": 1.6510656521,
				"y": 4.4686114157,
				"z": 0.5654124557,
				"element": "H" 
			}
		],
		 "valence_orbital": [ 
			{
				"type": "occ",
				"energy": -0.28871,
				"method": "rhf"
			},
			{
				"type": "occ",
				"energy": -0.27452,
				"method": "rhf"
			},
			{
				"type": "occ",
				"energy": -0.25836,
				"method": "rhf"
			},
			{
				"type": "occ",
				"energy": -0.24739,
				"method": "rhf"
			},
			{
				"type": "occ",
				"energy": -0.21451,
				"method": "rhf"
			},
			{
				"type": "unocc",
				"energy": -0.03261,
				"method": "rhf"
			},
			{
				"type": "unocc",
				"energy": -0.0059,
				"method": "rhf"
			},
			{
				"type": "unocc",
				"energy": 0.02833,
				"method": "rhf"
			},
			{
				"type": "unocc",
				"energy": 0.07136,
				"method": "rhf"
			},
			{
				"type": "unocc",
				"energy": 0.09708,
				"method": "rhf"
			}
		],
		"cosmo_sigma_profile": { 
			"-0.025": 0.0,
			"-0.024": 0.0,
			"-0.023": 0.0,
			"-0.022": 0.0,
			"-0.021": 0.0,
			"-0.02": 0.0,
			"-0.019": 0.0,
			"-0.018": 0.0,
			"-0.017": 0.0,
			"-0.016": 0.0,
			"-0.015": 0.0,
			"-0.014": 0.0,
			"-0.013": 0.0,
			"-0.012": 0.0,
			"-0.011": 0.0,
			"-0.01": 0.0440743920416,
			"-0.009": 1.87014927831,
			"-0.008": 3.08417552039,
			"-0.007": 5.53459720952,
			"-0.006": 12.5517565466,
			"-0.005": 17.0287633297,
			"-0.004": 18.3139016875,
			"-0.003": 17.1029812726,
			"-0.002": 14.8143804692,
			"-0.001": 14.2278033735,
			"0.0": 13.6797980858,
			"0.001": 13.3283742955,
			"0.002": 16.3548175289,
			"0.003": 15.3738544159,
			"0.004": 15.1665368205,
			"0.005": 16.0301243252,
			"0.006": 3.49618512093,
			"0.007": 1.64417495906,
			"0.008": 1.4062153088,
			"0.009": 1.28386976621,
			"0.01": 1.20116584243,
			"0.011": 1.04155224385,
			"0.012": 1.56937465033,
			"0.013": 1.85808213226,
			"0.014": 2.0594035321,
			"0.015": 1.61414495693,
			"0.016": 0.0,
			"0.017": 0.0,
			"0.018": 0.0,
			"0.019": 0.0,
			"0.02": 0.0,
			"0.021": 0.0,
			"0.022": 0.0,
			"0.023": 0.0,
			"0.024": 0.0,
			"0.025": 0.0
		}
	}
}
