{
	 "smiles": "CC1=CC2=C(C=C1)C(CC#N)=CN2", 
	 "Tm": 389.15, 
	 "num_atms": 23, 
	 "gaussian": { 
		 "optdone": 1, 
		 "sigma_profile": "yes", 
		 "theory": "DFT", 
		 "functional": "B3LYP", 
		 "basiset": "6-31G**", 
		 "properties": { 
			 "R2extent": 2784.5999, 
			 "electric_dipole_moment_norm": 5.31277778474, 
			 "electric_quadrupole_moment_norm": 19.9431214568, 
			 "total_energy": -534.694073914, 
			 "HOMO_LUMO_gap": 0.19519, 
			 "cosmo_polarized_energy": -15.17, 
			 "cosmo_cavitation_energy": 27.84, 
			 "cosmo_dispersion_energy": -19.63, 
			 "cosmo_repulsion_energy": 1.56, 
			 "cosmo_total_nonelectrostatic_energy": 9.77, 
			 "SMD_solvation_energy": 6.0 
		},
		"coords": [
			{
				"x": -0.5166603608,
				"y": 1.6495798772,
				"z": -3.9259870895,
				"element": "C" 
			},
			{
				"x": -0.2893296925,
				"y": 1.2236148197,
				"z": -2.4939711803,
				"element": "C" 
			},
			{
				"x": 0.9564696985,
				"y": 1.3814299137,
				"z": -1.8923911986,
				"element": "C" 
			},
			{
				"x": 1.1108579146,
				"y": 0.9714956832,
				"z": -0.562911138,
				"element": "C" 
			},
			{
				"x": 0.0481006282,
				"y": 0.403562487,
				"z": 0.1862018047,
				"element": "C" 
			},
			{
				"x": -1.2053930456,
				"y": 0.2537696708,
				"z": -0.4340786599,
				"element": "C" 
			},
			{
				"x": -1.3567210198,
				"y": 0.6593822119,
				"z": -1.7510304217,
				"element": "C" 
			},
			{
				"x": 0.5706536968,
				"y": 0.1025138624,
				"z": 1.4952067192,
				"element": "C" 
			},
			{
				"x": -0.1652713374,
				"y": -0.5362542113,
				"z": 2.6435808504,
				"element": "C" 
			},
			{
				"x": -1.244345205,
				"y": 0.3015068807,
				"z": 3.1927401398,
				"element": "C" 
			},
			{
				"x": -2.0989143978,
				"y": 0.959673108,
				"z": 3.6213245548,
				"element": "N" 
			},
			{
				"x": 1.8867329169,
				"y": 0.4905263701,
				"z": 1.4967396125,
				"element": "C" 
			},
			{
				"x": 2.218323036,
				"y": 1.0110762244,
				"z": 0.2615098806,
				"element": "N" 
			},
			{
				"x": -0.838929955,
				"y": 0.8057930172,
				"z": -4.5475367644,
				"element": "H" 
			},
			{
				"x": 0.3927280674,
				"y": 2.0628667097,
				"z": -4.3713190415,
				"element": "H" 
			},
			{
				"x": -1.2992388949,
				"y": 2.414314271,
				"z": -3.9952930225,
				"element": "H" 
			},
			{
				"x": 1.7865311392,
				"y": 1.8142247423,
				"z": -2.4451843679,
				"element": "H" 
			},
			{
				"x": -2.0475207201,
				"y": -0.1632241666,
				"z": 0.110981312,
				"element": "H" 
			},
			{
				"x": -2.3243483467,
				"y": 0.547923299,
				"z": -2.2336831609,
				"element": "H" 
			},
			{
				"x": 0.5306585812,
				"y": -0.7659995933,
				"z": 3.4583425879,
				"element": "H" 
			},
			{
				"x": -0.6124699414,
				"y": -1.4922260035,
				"z": 2.3393434641,
				"element": "H" 
			},
			{
				"x": 2.621420892,
				"y": 0.4333894867,
				"z": 2.2878079345,
				"element": "H" 
			},
			{
				"x": 3.1237663463,
				"y": 1.3702613396,
				"z": 0.0074071848,
				"element": "H" 
			}
		],
		 "valence_orbital": [ 
			{
				"type": "occ",
				"energy": -0.31656,
				"method": "rhf"
			},
			{
				"type": "occ",
				"energy": -0.31526,
				"method": "rhf"
			},
			{
				"type": "occ",
				"energy": -0.27551,
				"method": "rhf"
			},
			{
				"type": "occ",
				"energy": -0.22268,
				"method": "rhf"
			},
			{
				"type": "occ",
				"energy": -0.2075,
				"method": "rhf"
			},
			{
				"type": "unocc",
				"energy": -0.01231,
				"method": "rhf"
			},
			{
				"type": "unocc",
				"energy": 0.01967,
				"method": "rhf"
			},
			{
				"type": "unocc",
				"energy": 0.03785,
				"method": "rhf"
			},
			{
				"type": "unocc",
				"energy": 0.04672,
				"method": "rhf"
			},
			{
				"type": "unocc",
				"energy": 0.06805,
				"method": "rhf"
			}
		],
		"cosmo_sigma_profile": { 
			"-0.025": 0.0,
			"-0.024": 0.0,
			"-0.023": 0.0,
			"-0.022": 0.0,
			"-0.021": 0.0,
			"-0.02": 0.0,
			"-0.019": 0.0,
			"-0.018": 0.0,
			"-0.017": 0.0,
			"-0.016": 0.329990961964,
			"-0.015": 1.71382352494,
			"-0.014": 1.07784939191,
			"-0.013": 2.10053554853,
			"-0.012": 0.690628760344,
			"-0.011": 0.785190836661,
			"-0.01": 1.73748890573,
			"-0.009": 2.74619759774,
			"-0.008": 8.63233578166,
			"-0.007": 9.10172755997,
			"-0.006": 8.4385656655,
			"-0.005": 12.8797741957,
			"-0.004": 13.1537240138,
			"-0.003": 14.9132735772,
			"-0.002": 14.5640328599,
			"-0.001": 14.0221099126,
			"0.0": 14.8646865188,
			"0.001": 12.7850098021,
			"0.002": 10.0032878216,
			"0.003": 11.187362853,
			"0.004": 13.0929077151,
			"0.005": 15.5578251594,
			"0.006": 11.2010643623,
			"0.007": 8.02354566507,
			"0.008": 3.75437716986,
			"0.009": 3.58878362058,
			"0.01": 3.46776579984,
			"0.011": 2.92673858237,
			"0.012": 2.64027987913,
			"0.013": 2.09313162465,
			"0.014": 0.640671167956,
			"0.015": 0.0,
			"0.016": 0.0,
			"0.017": 0.0,
			"0.018": 0.0,
			"0.019": 0.0,
			"0.02": 0.0,
			"0.021": 0.0,
			"0.022": 0.0,
			"0.023": 0.0,
			"0.024": 0.0,
			"0.025": 0.0
		}
	}
}
