{
	 "smiles": "BrC1=CC=C(O[Si]23OCCN(CCO2)CCO3)C=C1", 
	 "Tm": 489.15, 
	 "num_atms": 35, 
	 "gaussian": { 
		 "optdone": 1, 
		 "sigma_profile": "yes", 
		 "theory": "DFT", 
		 "functional": "B3LYP", 
		 "basiset": "6-31G**", 
		 "properties": { 
			 "R2extent": 13594.2674, 
			 "electric_dipole_moment_norm": 9.00142964256, 
			 "electric_quadrupole_moment_norm": 18.7217446671, 
			 "total_energy": -3683.6091937, 
			 "HOMO_LUMO_gap": 0.2098, 
			 "cosmo_polarized_energy": -17.81, 
			 "cosmo_cavitation_energy": 38.74, 
			 "cosmo_dispersion_energy": -27.88, 
			 "cosmo_repulsion_energy": 2.21, 
			 "cosmo_total_nonelectrostatic_energy": 13.07, 
			 "SMD_solvation_energy": 5.22 
		},
		"coords": [
			{
				"x": 1.9851326043,
				"y": -5.3985823781,
				"z": -5.4467962067,
				"element": "Br" 
			},
			{
				"x": 1.128624031,
				"y": -4.4220606242,
				"z": -4.0372148869,
				"element": "C" 
			},
			{
				"x": 1.8151528848,
				"y": -3.3938254068,
				"z": -3.3962416293,
				"element": "C" 
			},
			{
				"x": 1.1948341557,
				"y": -2.6819982062,
				"z": -2.3694671084,
				"element": "C" 
			},
			{
				"x": -0.117924509,
				"y": -2.9947696012,
				"z": -1.9902760172,
				"element": "C" 
			},
			{
				"x": -0.7757633035,
				"y": -2.3570323833,
				"z": -0.9857603083,
				"element": "O" 
			},
			{
				"x": -0.6399621316,
				"y": -0.8060678936,
				"z": -0.3827996527,
				"element": "Si" 
			},
			{
				"x": -0.9754942742,
				"y": 0.1024883153,
				"z": -1.7394888302,
				"element": "O" 
			},
			{
				"x": -1.5427004796,
				"y": 1.3946766921,
				"z": -1.6988893263,
				"element": "C" 
			},
			{
				"x": -0.8161030388,
				"y": 2.2739408677,
				"z": -0.6611408607,
				"element": "C" 
			},
			{
				"x": -0.4867856978,
				"y": 1.4705487321,
				"z": 0.5194900971,
				"element": "N" 
			},
			{
				"x": 0.9098541838,
				"y": 1.4763698331,
				"z": 0.9735595328,
				"element": "C" 
			},
			{
				"x": 1.3220315895,
				"y": 0.0302988446,
				"z": 1.2691828761,
				"element": "C" 
			},
			{
				"x": 0.9251342561,
				"y": -0.8054724232,
				"z": 0.199940204,
				"element": "O" 
			},
			{
				"x": -1.4957314667,
				"y": 1.4013245517,
				"z": 1.5811103292,
				"element": "C" 
			},
			{
				"x": -2.4980961955,
				"y": 0.2733549256,
				"z": 1.2727760924,
				"element": "C" 
			},
			{
				"x": -1.8241179618,
				"y": -0.8669294282,
				"z": 0.7834068471,
				"element": "O" 
			},
			{
				"x": -0.7924523617,
				"y": -4.0364471661,
				"z": -2.6409847284,
				"element": "C" 
			},
			{
				"x": -0.1732949667,
				"y": -4.751263639,
				"z": -3.6634333279,
				"element": "C" 
			},
			{
				"x": 2.8303091198,
				"y": -3.1509304207,
				"z": -3.6900948044,
				"element": "H" 
			},
			{
				"x": 1.7311826764,
				"y": -1.8963251378,
				"z": -1.8493649621,
				"element": "H" 
			},
			{
				"x": -1.4515148845,
				"y": 1.8439585294,
				"z": -2.6939847706,
				"element": "H" 
			},
			{
				"x": -2.6159387546,
				"y": 1.3294578256,
				"z": -1.472129781,
				"element": "H" 
			},
			{
				"x": -1.4232606925,
				"y": 3.15449746,
				"z": -0.4059490061,
				"element": "H" 
			},
			{
				"x": 0.118543143,
				"y": 2.6340694962,
				"z": -1.0978246741,
				"element": "H" 
			},
			{
				"x": 1.5302535731,
				"y": 1.8573369917,
				"z": 0.1587534521,
				"element": "H" 
			},
			{
				"x": 1.0685469583,
				"y": 2.1227162126,
				"z": 1.8492068734,
				"element": "H" 
			},
			{
				"x": 2.4091050172,
				"y": -0.0405436321,
				"z": 1.3827535658,
				"element": "H" 
			},
			{
				"x": 0.8680632604,
				"y": -0.318162996,
				"z": 2.2082639681,
				"element": "H" 
			},
			{
				"x": -2.0163262512,
				"y": 2.3606287359,
				"z": 1.7171479431,
				"element": "H" 
			},
			{
				"x": -0.9832165475,
				"y": 1.1687248864,
				"z": 2.5190589295,
				"element": "H" 
			},
			{
				"x": -3.0340717466,
				"y": -0.0080234093,
				"z": 2.1860336456,
				"element": "H" 
			},
			{
				"x": -3.2512249945,
				"y": 0.6119855855,
				"z": 0.5480189409,
				"element": "H" 
			},
			{
				"x": -1.8056637337,
				"y": -4.2727130093,
				"z": -2.3332341324,
				"element": "H" 
			},
			{
				"x": -0.6993234612,
				"y": -5.5553307305,
				"z": -4.1658282835,
				"element": "H" 
			}
		],
		 "valence_orbital": [ 
			{
				"type": "occ",
				"energy": -0.27124,
				"method": "rhf"
			},
			{
				"type": "occ",
				"energy": -0.26884,
				"method": "rhf"
			},
			{
				"type": "occ",
				"energy": -0.26352,
				"method": "rhf"
			},
			{
				"type": "occ",
				"energy": -0.24312,
				"method": "rhf"
			},
			{
				"type": "occ",
				"energy": -0.2034,
				"method": "rhf"
			},
			{
				"type": "unocc",
				"energy": 0.0064,
				"method": "rhf"
			},
			{
				"type": "unocc",
				"energy": 0.01789,
				"method": "rhf"
			},
			{
				"type": "unocc",
				"energy": 0.02565,
				"method": "rhf"
			},
			{
				"type": "unocc",
				"energy": 0.0532,
				"method": "rhf"
			},
			{
				"type": "unocc",
				"energy": 0.07238,
				"method": "rhf"
			}
		],
		"cosmo_sigma_profile": { 
			"-0.025": 0.0,
			"-0.024": 0.0,
			"-0.023": 0.0,
			"-0.022": 0.0,
			"-0.021": 0.0,
			"-0.02": 0.0,
			"-0.019": 0.0,
			"-0.018": 0.0,
			"-0.017": 0.0,
			"-0.016": 0.0,
			"-0.015": 0.0,
			"-0.014": 0.0,
			"-0.013": 0.0,
			"-0.012": 0.0,
			"-0.011": 0.0,
			"-0.01": 0.0,
			"-0.009": 0.0,
			"-0.008": 0.0271427160721,
			"-0.007": 5.22485601686,
			"-0.006": 17.6556220592,
			"-0.005": 41.6874643917,
			"-0.004": 35.7553337472,
			"-0.003": 27.5168397537,
			"-0.002": 23.5788824641,
			"-0.001": 12.0187572345,
			"0.0": 10.5943488849,
			"0.001": 13.5640226382,
			"0.002": 14.4721582027,
			"0.003": 23.1078509368,
			"0.004": 26.6346463065,
			"0.005": 18.4549967552,
			"0.006": 6.48633516015,
			"0.007": 6.08094118546,
			"0.008": 5.32954716436,
			"0.009": 4.67113099291,
			"0.01": 3.11360204364,
			"0.011": 4.34483773632,
			"0.012": 2.65745432756,
			"0.013": 2.18651923309,
			"0.014": 1.28997193574,
			"0.015": 0.0759393801426,
			"0.016": 0.0,
			"0.017": 0.0,
			"0.018": 0.0,
			"0.019": 0.0,
			"0.02": 0.0,
			"0.021": 0.0,
			"0.022": 0.0,
			"0.023": 0.0,
			"0.024": 0.0,
			"0.025": 0.0
		}
	}
}
