{
	 "smiles": "COC1=C(O)C=CC(SC#N)=C1", 
	 "Tm": 352.15, 
	 "num_atms": 19, 
	 "gaussian": { 
		 "optdone": 1, 
		 "sigma_profile": "yes", 
		 "theory": "DFT", 
		 "functional": "B3LYP", 
		 "basiset": "6-31G**", 
		 "properties": { 
			 "R2extent": 3138.6188, 
			 "electric_dipole_moment_norm": 4.8108714907, 
			 "electric_quadrupole_moment_norm": 24.6957017546, 
			 "total_energy": -912.408383031, 
			 "HOMO_LUMO_gap": 0.20219, 
			 "cosmo_polarized_energy": -11.5, 
			 "cosmo_cavitation_energy": 26.4, 
			 "cosmo_dispersion_energy": -19.12, 
			 "cosmo_repulsion_energy": 1.5, 
			 "cosmo_total_nonelectrostatic_energy": 8.78, 
			 "SMD_solvation_energy": 7.51 
		},
		"coords": [
			{
				"x": 2.6838884077,
				"y": 0.2378927772,
				"z": 0.9866858695,
				"element": "C" 
			},
			{
				"x": 1.3546300334,
				"y": -0.1410254332,
				"z": 1.3246572984,
				"element": "O" 
			},
			{
				"x": 0.4369181632,
				"y": -0.2609986983,
				"z": 0.3149373619,
				"element": "C" 
			},
			{
				"x": -0.8409715616,
				"y": -0.6741975268,
				"z": 0.7589695394,
				"element": "C" 
			},
			{
				"x": -1.055953696,
				"y": -0.9083920805,
				"z": 2.0758364363,
				"element": "O" 
			},
			{
				"x": -1.8732494206,
				"y": -0.8371081793,
				"z": -0.158846778,
				"element": "C" 
			},
			{
				"x": -1.6481707499,
				"y": -0.6000154771,
				"z": -1.5175181746,
				"element": "C" 
			},
			{
				"x": -0.386761272,
				"y": -0.1914791601,
				"z": -1.9472273159,
				"element": "C" 
			},
			{
				"x": -0.1279617498,
				"y": 0.1929761274,
				"z": -3.6889900078,
				"element": "S" 
			},
			{
				"x": 0.7196156975,
				"y": -1.1930771006,
				"z": -4.218748194,
				"element": "C" 
			},
			{
				"x": 1.3136350915,
				"y": -2.1072478554,
				"z": -4.6332889418,
				"element": "N" 
			},
			{
				"x": 0.6640753041,
				"y": -0.0093329152,
				"z": -1.0318894906,
				"element": "C" 
			},
			{
				"x": 2.7081018521,
				"y": 1.2360211364,
				"z": 0.5330454555,
				"element": "H" 
			},
			{
				"x": 3.1392754594,
				"y": -0.4859787926,
				"z": 0.300518996,
				"element": "H" 
			},
			{
				"x": 3.2422479781,
				"y": 0.2523607275,
				"z": 1.9231953742,
				"element": "H" 
			},
			{
				"x": -0.2186839528,
				"y": -0.7474468499,
				"z": 2.5389262151,
				"element": "H" 
			},
			{
				"x": -2.8447252333,
				"y": -1.1563911371,
				"z": 0.2025700819,
				"element": "H" 
			},
			{
				"x": -2.450203551,
				"y": -0.7374042825,
				"z": -2.2340973814,
				"element": "H" 
			},
			{
				"x": 1.6346932,
				"y": 0.3169447201,
				"z": -1.3840363437,
				"element": "H" 
			}
		],
		 "valence_orbital": [ 
			{
				"type": "occ",
				"energy": -0.33934,
				"method": "rhf"
			},
			{
				"type": "occ",
				"energy": -0.32177,
				"method": "rhf"
			},
			{
				"type": "occ",
				"energy": -0.26682,
				"method": "rhf"
			},
			{
				"type": "occ",
				"energy": -0.25874,
				"method": "rhf"
			},
			{
				"type": "occ",
				"energy": -0.22995,
				"method": "rhf"
			},
			{
				"type": "unocc",
				"energy": -0.02776,
				"method": "rhf"
			},
			{
				"type": "unocc",
				"energy": -0.01692,
				"method": "rhf"
			},
			{
				"type": "unocc",
				"energy": -0.01274,
				"method": "rhf"
			},
			{
				"type": "unocc",
				"energy": 0.04807,
				"method": "rhf"
			},
			{
				"type": "unocc",
				"energy": 0.05373,
				"method": "rhf"
			}
		],
		"cosmo_sigma_profile": { 
			"-0.025": 0.0,
			"-0.024": 0.0,
			"-0.023": 0.0,
			"-0.022": 0.0,
			"-0.021": 0.0,
			"-0.02": 0.0,
			"-0.019": 0.0,
			"-0.018": 0.0,
			"-0.017": 0.0,
			"-0.016": 0.0,
			"-0.015": 0.450608529609,
			"-0.014": 0.325020442662,
			"-0.013": 0.716092679821,
			"-0.012": 0.584290193363,
			"-0.011": 0.657095215809,
			"-0.01": 0.629182525131,
			"-0.009": 0.512486260609,
			"-0.008": 2.41490673186,
			"-0.007": 7.93990180141,
			"-0.006": 14.1358633993,
			"-0.005": 14.8704387857,
			"-0.004": 17.2805595929,
			"-0.003": 14.74570125,
			"-0.002": 12.5633683313,
			"-0.001": 14.1405925341,
			"0.0": 17.2360663212,
			"0.001": 18.2493423033,
			"0.002": 18.0417213528,
			"0.003": 15.7511024298,
			"0.004": 8.1179135538,
			"0.005": 4.49764980194,
			"0.006": 4.1463148538,
			"0.007": 4.95761678056,
			"0.008": 4.39254833865,
			"0.009": 4.99367882503,
			"0.01": 5.01647539129,
			"0.011": 4.11041490694,
			"0.012": 2.19790063905,
			"0.013": 0.780300439397,
			"0.014": 0.0,
			"0.015": 0.0,
			"0.016": 0.0,
			"0.017": 0.0,
			"0.018": 0.0,
			"0.019": 0.0,
			"0.02": 0.0,
			"0.021": 0.0,
			"0.022": 0.0,
			"0.023": 0.0,
			"0.024": 0.0,
			"0.025": 0.0
		}
	}
}
