{
	 "smiles": "CC1=NOC(=N1)C1(C)CCN(CC1)C(=O)OC(C)(C)C", 
	 "Tm": 354.15, 
	 "num_atms": 43, 
	 "gaussian": { 
		 "optdone": 1, 
		 "sigma_profile": "yes", 
		 "theory": "DFT", 
		 "functional": "B3LYP", 
		 "basiset": "6-31G**", 
		 "properties": { 
			 "R2extent": 6218.5642, 
			 "electric_dipole_moment_norm": 3.47681418974, 
			 "electric_quadrupole_moment_norm": 17.9166906436, 
			 "total_energy": -937.290272023, 
			 "HOMO_LUMO_gap": 0.21463, 
			 "cosmo_polarized_energy": -13.67, 
			 "cosmo_cavitation_energy": 43.17, 
			 "cosmo_dispersion_energy": -28.14, 
			 "cosmo_repulsion_energy": 2.15, 
			 "cosmo_total_nonelectrostatic_energy": 17.18, 
			 "SMD_solvation_energy": 5.78 
		},
		"coords": [
			{
				"x": -2.0429264486,
				"y": 2.6345482202,
				"z": 1.2143771802,
				"element": "C" 
			},
			{
				"x": -1.7538097062,
				"y": 2.3414863233,
				"z": -0.2191037518,
				"element": "C" 
			},
			{
				"x": -2.6911297621,
				"y": 2.3304500113,
				"z": -1.1328290808,
				"element": "N" 
			},
			{
				"x": -1.9860444218,
				"y": 2.0051618623,
				"z": -2.3102404834,
				"element": "O" 
			},
			{
				"x": -0.6938359972,
				"y": 1.8583281738,
				"z": -1.9618759094,
				"element": "C" 
			},
			{
				"x": -0.4872899384,
				"y": 2.053996911,
				"z": -0.6914557557,
				"element": "N" 
			},
			{
				"x": 0.2911285081,
				"y": 1.5498936256,
				"z": -3.0673357455,
				"element": "C" 
			},
			{
				"x": 0.4186028699,
				"y": 2.8151966057,
				"z": -3.9476447114,
				"element": "C" 
			},
			{
				"x": -0.2420079536,
				"y": 0.3637523508,
				"z": -3.9114029975,
				"element": "C" 
			},
			{
				"x": -0.4550673087,
				"y": -0.9039902571,
				"z": -3.064150409,
				"element": "C" 
			},
			{
				"x": 0.5985143971,
				"y": -1.0287123331,
				"z": -2.0526336702,
				"element": "N" 
			},
			{
				"x": 1.8608155981,
				"y": -0.3623871963,
				"z": -2.3532741945,
				"element": "C" 
			},
			{
				"x": 1.6731887657,
				"y": 1.166210289,
				"z": -2.4597977531,
				"element": "C" 
			},
			{
				"x": 0.2709239444,
				"y": -1.5759278877,
				"z": -0.8391597991,
				"element": "C" 
			},
			{
				"x": -0.8339242463,
				"y": -2.0390200422,
				"z": -0.5891500931,
				"element": "O" 
			},
			{
				"x": 1.3227052864,
				"y": -1.5430278842,
				"z": 0.0170207224,
				"element": "O" 
			},
			{
				"x": 1.1831506806,
				"y": -2.0274006801,
				"z": 1.3969470484,
				"element": "C" 
			},
			{
				"x": 0.8641769947,
				"y": -3.5263941782,
				"z": 1.4019412859,
				"element": "C" 
			},
			{
				"x": 2.5743174113,
				"y": -1.7672472935,
				"z": 1.9819386029,
				"element": "C" 
			},
			{
				"x": 0.1230110848,
				"y": -1.2031575884,
				"z": 2.1365994275,
				"element": "C" 
			},
			{
				"x": -1.4494568724,
				"y": 3.4885953841,
				"z": 1.5544601284,
				"element": "H" 
			},
			{
				"x": -3.1029519836,
				"y": 2.8550903219,
				"z": 1.3495942824,
				"element": "H" 
			},
			{
				"x": -1.7734907945,
				"y": 1.7747374137,
				"z": 1.8354123562,
				"element": "H" 
			},
			{
				"x": 0.8501244508,
				"y": 3.6439848505,
				"z": -3.377363065,
				"element": "H" 
			},
			{
				"x": 1.074965659,
				"y": 2.6099796546,
				"z": -4.799346953,
				"element": "H" 
			},
			{
				"x": -0.5554671419,
				"y": 3.1322655979,
				"z": -4.3308500223,
				"element": "H" 
			},
			{
				"x": 0.4827811798,
				"y": 0.1782717463,
				"z": -4.7127335492,
				"element": "H" 
			},
			{
				"x": -1.1855265152,
				"y": 0.6308049511,
				"z": -4.396181681,
				"element": "H" 
			},
			{
				"x": -0.4765135131,
				"y": -1.7890563935,
				"z": -3.71565695,
				"element": "H" 
			},
			{
				"x": -1.412838343,
				"y": -0.8688421272,
				"z": -2.5414934155,
				"element": "H" 
			},
			{
				"x": 2.5849504634,
				"y": -0.6130674085,
				"z": -1.5816944473,
				"element": "H" 
			},
			{
				"x": 2.2429606115,
				"y": -0.7638066368,
				"z": -3.3014359659,
				"element": "H" 
			},
			{
				"x": 2.4688738818,
				"y": 1.5760984031,
				"z": -3.092210536,
				"element": "H" 
			},
			{
				"x": 1.7691445576,
				"y": 1.6246132248,
				"z": -1.4729377837,
				"element": "H" 
			},
			{
				"x": 0.8694099225,
				"y": -3.900377839,
				"z": 2.4311469364,
				"element": "H" 
			},
			{
				"x": 1.6229193198,
				"y": -4.0773069613,
				"z": 0.8368420072,
				"element": "H" 
			},
			{
				"x": -0.1138511272,
				"y": -3.7167704996,
				"z": 0.9601714333,
				"element": "H" 
			},
			{
				"x": 3.3373984912,
				"y": -2.3153258358,
				"z": 1.4212726069,
				"element": "H" 
			},
			{
				"x": 2.6109044065,
				"y": -2.0939134621,
				"z": 3.0254925851,
				"element": "H" 
			},
			{
				"x": 2.8162012985,
				"y": -0.7009974944,
				"z": 1.9437880951,
				"element": "H" 
			},
			{
				"x": -0.869527079,
				"y": -1.3894332234,
				"z": 1.7258316938,
				"element": "H" 
			},
			{
				"x": 0.1248422306,
				"y": -1.4681014304,
				"z": 3.1990618299,
				"element": "H" 
			},
			{
				"x": 0.3504471385,
				"y": -0.1359012682,
				"z": 2.0474605015,
				"element": "H" 
			}
		],
		 "valence_orbital": [ 
			{
				"type": "occ",
				"energy": -0.28956,
				"method": "rhf"
			},
			{
				"type": "occ",
				"energy": -0.28107,
				"method": "rhf"
			},
			{
				"type": "occ",
				"energy": -0.27681,
				"method": "rhf"
			},
			{
				"type": "occ",
				"energy": -0.25397,
				"method": "rhf"
			},
			{
				"type": "occ",
				"energy": -0.2308,
				"method": "rhf"
			},
			{
				"type": "unocc",
				"energy": -0.01617,
				"method": "rhf"
			},
			{
				"type": "unocc",
				"energy": 0.04298,
				"method": "rhf"
			},
			{
				"type": "unocc",
				"energy": 0.05925,
				"method": "rhf"
			},
			{
				"type": "unocc",
				"energy": 0.073,
				"method": "rhf"
			},
			{
				"type": "unocc",
				"energy": 0.08517,
				"method": "rhf"
			}
		],
		"cosmo_sigma_profile": { 
			"-0.025": 0.0,
			"-0.024": 0.0,
			"-0.023": 0.0,
			"-0.022": 0.0,
			"-0.021": 0.0,
			"-0.02": 0.0,
			"-0.019": 0.0,
			"-0.018": 0.0,
			"-0.017": 0.0,
			"-0.016": 0.0,
			"-0.015": 0.0,
			"-0.014": 0.0,
			"-0.013": 0.0,
			"-0.012": 0.0,
			"-0.011": 0.0,
			"-0.01": 0.0,
			"-0.009": 0.0,
			"-0.008": 0.0,
			"-0.007": 0.111147157261,
			"-0.006": 3.26605096427,
			"-0.005": 13.2377667001,
			"-0.004": 39.3335850731,
			"-0.003": 47.6050698824,
			"-0.002": 48.7853617041,
			"-0.001": 40.9036175732,
			"0.0": 36.3548356884,
			"0.001": 24.8991359638,
			"0.002": 14.6680318154,
			"0.003": 9.96230545036,
			"0.004": 10.4752334534,
			"0.005": 7.47328347769,
			"0.006": 7.31823545722,
			"0.007": 6.35450114961,
			"0.008": 4.86340819872,
			"0.009": 3.55971750686,
			"0.01": 3.62145040351,
			"0.011": 3.14766132081,
			"0.012": 3.89334883319,
			"0.013": 4.18256340965,
			"0.014": 2.26728684978,
			"0.015": 0.00427781223909,
			"0.016": 0.0,
			"0.017": 0.0,
			"0.018": 0.0,
			"0.019": 0.0,
			"0.02": 0.0,
			"0.021": 0.0,
			"0.022": 0.0,
			"0.023": 0.0,
			"0.024": 0.0,
			"0.025": 0.0
		}
	}
}
