{
	 "smiles": "OC(=O)C1=C(C(O)=O)C(F)=CC=C1", 
	 "Tm": 446.15, 
	 "num_atms": 18, 
	 "gaussian": { 
		 "optdone": 1, 
		 "sigma_profile": "yes", 
		 "theory": "DFT", 
		 "functional": "B3LYP", 
		 "basiset": "6-31G**", 
		 "properties": { 
			 "R2extent": 2426.7061, 
			 "electric_dipole_moment_norm": 6.72362618235, 
			 "electric_quadrupole_moment_norm": 12.1338542994, 
			 "total_energy": -708.610451882, 
			 "HOMO_LUMO_gap": 0.17804, 
			 "cosmo_polarized_energy": -16.41, 
			 "cosmo_cavitation_energy": 23.06, 
			 "cosmo_dispersion_energy": -17.58, 
			 "cosmo_repulsion_energy": 1.34, 
			 "cosmo_total_nonelectrostatic_energy": 6.82, 
			 "SMD_solvation_energy": 6.67 
		},
		"coords": [
			{
				"x": -0.8158565319,
				"y": 1.5012432093,
				"z": -1.512300613,
				"element": "O" 
			},
			{
				"x": -1.4644376652,
				"y": 0.5754955657,
				"z": -0.8264244303,
				"element": "C" 
			},
			{
				"x": -2.6430318644,
				"y": 0.6933514092,
				"z": -0.5592487803,
				"element": "O" 
			},
			{
				"x": -0.7478667918,
				"y": -0.7244199738,
				"z": -0.4070418339,
				"element": "C" 
			},
			{
				"x": 0.6354462309,
				"y": -0.9554091795,
				"z": -0.1394437543,
				"element": "C" 
			},
			{
				"x": 1.7220053027,
				"y": 0.0697655439,
				"z": -0.3457387198,
				"element": "C" 
			},
			{
				"x": 2.8451161592,
				"y": -0.0309027445,
				"z": 0.3676082113,
				"element": "O" 
			},
			{
				"x": 1.6335446572,
				"y": 0.9937808998,
				"z": -1.1397783871,
				"element": "O" 
			},
			{
				"x": 0.9764152483,
				"y": -2.243732501,
				"z": 0.3103790669,
				"element": "C" 
			},
			{
				"x": 2.2796856058,
				"y": -2.5211795344,
				"z": 0.6242498271,
				"element": "F" 
			},
			{
				"x": 0.0837212227,
				"y": -3.287528405,
				"z": 0.4707650808,
				"element": "C" 
			},
			{
				"x": -1.2567159085,
				"y": -3.0426015239,
				"z": 0.194696499,
				"element": "C" 
			},
			{
				"x": -1.6563829863,
				"y": -1.7748983226,
				"z": -0.2163923369,
				"element": "C" 
			},
			{
				"x": 0.1591685952,
				"y": 1.3105046621,
				"z": -1.5567627049,
				"element": "H" 
			},
			{
				"x": 2.8691276065,
				"y": -0.857166261,
				"z": 0.8748709968,
				"element": "H" 
			},
			{
				"x": 0.44972057,
				"y": -4.2504897471,
				"z": 0.8083035902,
				"element": "H" 
			},
			{
				"x": -1.9899190338,
				"y": -3.8339632783,
				"z": 0.3123960931,
				"element": "H" 
			},
			{
				"x": -2.7021404165,
				"y": -1.555549819,
				"z": -0.3905378048,
				"element": "H" 
			}
		],
		 "valence_orbital": [ 
			{
				"type": "occ",
				"energy": -0.31255,
				"method": "rhf"
			},
			{
				"type": "occ",
				"energy": -0.30705,
				"method": "rhf"
			},
			{
				"type": "occ",
				"energy": -0.29886,
				"method": "rhf"
			},
			{
				"type": "occ",
				"energy": -0.28882,
				"method": "rhf"
			},
			{
				"type": "occ",
				"energy": -0.2687,
				"method": "rhf"
			},
			{
				"type": "unocc",
				"energy": -0.09066,
				"method": "rhf"
			},
			{
				"type": "unocc",
				"energy": -0.0529,
				"method": "rhf"
			},
			{
				"type": "unocc",
				"energy": 0.00806,
				"method": "rhf"
			},
			{
				"type": "unocc",
				"energy": 0.03748,
				"method": "rhf"
			},
			{
				"type": "unocc",
				"energy": 0.04833,
				"method": "rhf"
			}
		],
		"cosmo_sigma_profile": { 
			"-0.025": 0.0,
			"-0.024": 0.0,
			"-0.023": 0.0,
			"-0.022": 0.0,
			"-0.021": 0.0,
			"-0.02": 0.0,
			"-0.019": 0.0,
			"-0.018": 0.0,
			"-0.017": 0.0,
			"-0.016": 0.609342598043,
			"-0.015": 0.988818139481,
			"-0.014": 1.13281946845,
			"-0.013": 0.60103768378,
			"-0.012": 1.00144651672,
			"-0.011": 1.13728478038,
			"-0.01": 0.733131691134,
			"-0.009": 4.02647573647,
			"-0.008": 7.74141797408,
			"-0.007": 9.4257376258,
			"-0.006": 8.80300661434,
			"-0.005": 9.86932282387,
			"-0.004": 11.302394242,
			"-0.003": 13.9549264275,
			"-0.002": 12.7124515182,
			"-0.001": 13.5179819761,
			"0.0": 13.8547834092,
			"0.001": 13.132686806,
			"0.002": 7.72269183088,
			"0.003": 3.96126050188,
			"0.004": 4.41769220466,
			"0.005": 3.91501958702,
			"0.006": 5.19377620903,
			"0.007": 5.23007322801,
			"0.008": 5.65374534079,
			"0.009": 6.47977770934,
			"0.01": 5.87896964223,
			"0.011": 6.48728782261,
			"0.012": 4.7997378541,
			"0.013": 2.11201926431,
			"0.014": 0.321421941642,
			"0.015": 0.0,
			"0.016": 0.0,
			"0.017": 0.0,
			"0.018": 0.0,
			"0.019": 0.0,
			"0.02": 0.0,
			"0.021": 0.0,
			"0.022": 0.0,
			"0.023": 0.0,
			"0.024": 0.0,
			"0.025": 0.0
		}
	}
}
