{
	 "smiles": "COC1=CC=C(C=C1)C1=NC(N)=NN=C1", 
	 "Tm": 520.15, 
	 "num_atms": 25, 
	 "gaussian": { 
		 "optdone": 1, 
		 "sigma_profile": "yes", 
		 "theory": "DFT", 
		 "functional": "B3LYP", 
		 "basiset": "6-31G**", 
		 "properties": { 
			 "R2extent": 4991.055, 
			 "electric_dipole_moment_norm": 4.06007222226, 
			 "electric_quadrupole_moment_norm": 23.2295710675, 
			 "total_energy": -681.284942499, 
			 "HOMO_LUMO_gap": 0.15583, 
			 "cosmo_polarized_energy": -15.67, 
			 "cosmo_cavitation_energy": 29.68, 
			 "cosmo_dispersion_energy": -22.25, 
			 "cosmo_repulsion_energy": 1.73, 
			 "cosmo_total_nonelectrostatic_energy": 9.15, 
			 "SMD_solvation_energy": 3.05 
		},
		"coords": [
			{
				"x": -1.5347677459,
				"y": -3.9766566666,
				"z": 1.4383815247,
				"element": "C" 
			},
			{
				"x": -2.0356282096,
				"y": -2.6804508086,
				"z": 1.7348236255,
				"element": "O" 
			},
			{
				"x": -1.2753754172,
				"y": -1.6011606258,
				"z": 1.4110330903,
				"element": "C" 
			},
			{
				"x": -1.8286358432,
				"y": -0.3478120793,
				"z": 1.7248723,
				"element": "C" 
			},
			{
				"x": -1.1328183503,
				"y": 0.8126952507,
				"z": 1.4351731636,
				"element": "C" 
			},
			{
				"x": 0.1336391258,
				"y": 0.7686218239,
				"z": 0.8178959413,
				"element": "C" 
			},
			{
				"x": 0.6743521945,
				"y": -0.4894049803,
				"z": 0.5160180719,
				"element": "C" 
			},
			{
				"x": -0.0134497863,
				"y": -1.6669966061,
				"z": 0.8055752667,
				"element": "C" 
			},
			{
				"x": 0.8465386842,
				"y": 2.0258233593,
				"z": 0.5160649379,
				"element": "C" 
			},
			{
				"x": 0.3796913245,
				"y": 3.1560380297,
				"z": 1.0551984465,
				"element": "N" 
			},
			{
				"x": 1.0630085677,
				"y": 4.274899604,
				"z": 0.757125917,
				"element": "C" 
			},
			{
				"x": 0.5822855004,
				"y": 5.4526328007,
				"z": 1.2461040875,
				"element": "N" 
			},
			{
				"x": 2.1815610784,
				"y": 4.357712743,
				"z": 0.0009107818,
				"element": "N" 
			},
			{
				"x": 2.6273353925,
				"y": 3.2336354705,
				"z": -0.5442674307,
				"element": "N" 
			},
			{
				"x": 1.985775657,
				"y": 2.0904550956,
				"z": -0.3163813344,
				"element": "C" 
			},
			{
				"x": -1.369450159,
				"y": -4.1084934362,
				"z": 0.3617873297,
				"element": "H" 
			},
			{
				"x": -2.3002535626,
				"y": -4.677823747,
				"z": 1.7732320469,
				"element": "H" 
			},
			{
				"x": -0.5992105699,
				"y": -4.1799091817,
				"z": 1.9743463819,
				"element": "H" 
			},
			{
				"x": -2.8067329607,
				"y": -0.3179517034,
				"z": 2.1936691586,
				"element": "H" 
			},
			{
				"x": -1.5556956047,
				"y": 1.7809638955,
				"z": 1.6774342066,
				"element": "H" 
			},
			{
				"x": 1.6574037256,
				"y": -0.5698603527,
				"z": 0.0641921824,
				"element": "H" 
			},
			{
				"x": 0.4411127018,
				"y": -2.6198759305,
				"z": 0.5630932075,
				"element": "H" 
			},
			{
				"x": -0.09329785,
				"y": 5.4061285132,
				"z": 1.9915957218,
				"element": "H" 
			},
			{
				"x": 1.1948825364,
				"y": 6.251235558,
				"z": 1.1945253429,
				"element": "H" 
			},
			{
				"x": 2.3953295705,
				"y": 1.2201539742,
				"z": -0.8162039677,
				"element": "H" 
			}
		],
		 "valence_orbital": [ 
			{
				"type": "occ",
				"energy": -0.30561,
				"method": "rhf"
			},
			{
				"type": "occ",
				"energy": -0.26169,
				"method": "rhf"
			},
			{
				"type": "occ",
				"energy": -0.23984,
				"method": "rhf"
			},
			{
				"type": "occ",
				"energy": -0.22189,
				"method": "rhf"
			},
			{
				"type": "occ",
				"energy": -0.21822,
				"method": "rhf"
			},
			{
				"type": "unocc",
				"energy": -0.06239,
				"method": "rhf"
			},
			{
				"type": "unocc",
				"energy": -0.02134,
				"method": "rhf"
			},
			{
				"type": "unocc",
				"energy": -0.00457,
				"method": "rhf"
			},
			{
				"type": "unocc",
				"energy": 0.03311,
				"method": "rhf"
			},
			{
				"type": "unocc",
				"energy": 0.0837,
				"method": "rhf"
			}
		],
		"cosmo_sigma_profile": { 
			"-0.025": 0.0,
			"-0.024": 0.0,
			"-0.023": 0.0,
			"-0.022": 0.0,
			"-0.021": 0.0,
			"-0.02": 0.0,
			"-0.019": 0.0,
			"-0.018": 0.0,
			"-0.017": 0.0,
			"-0.016": 0.0,
			"-0.015": 0.00483200999607,
			"-0.014": 1.25604894928,
			"-0.013": 2.42106510706,
			"-0.012": 1.78761075504,
			"-0.011": 2.05214352777,
			"-0.01": 2.27112267353,
			"-0.009": 3.85640563948,
			"-0.008": 3.90925789394,
			"-0.007": 5.79212327115,
			"-0.006": 14.6459278892,
			"-0.005": 16.828628477,
			"-0.004": 16.082893812,
			"-0.003": 16.4117253825,
			"-0.002": 13.3515353393,
			"-0.001": 15.739602447,
			"0.0": 14.3021635792,
			"0.001": 12.5440858275,
			"0.002": 15.7161623692,
			"0.003": 18.9834298667,
			"0.004": 17.0322274245,
			"0.005": 6.69356691343,
			"0.006": 6.05559730987,
			"0.007": 5.7917985145,
			"0.008": 4.73817676666,
			"0.009": 4.37956113396,
			"0.01": 2.77063398181,
			"0.011": 2.04247786808,
			"0.012": 2.07053206067,
			"0.013": 2.67229427113,
			"0.014": 2.90350808024,
			"0.015": 1.85831661085,
			"0.016": 0.769678792371,
			"0.017": 0.0,
			"0.018": 0.0,
			"0.019": 0.0,
			"0.02": 0.0,
			"0.021": 0.0,
			"0.022": 0.0,
			"0.023": 0.0,
			"0.024": 0.0,
			"0.025": 0.0
		}
	}
}
