{
	 "smiles": "CSC1=NC(NN)=CC(Cl)=N1", 
	 "Tm": 428.15, 
	 "num_atms": 18, 
	 "gaussian": { 
		 "optdone": 1, 
		 "sigma_profile": "yes", 
		 "theory": "DFT", 
		 "functional": "B3LYP", 
		 "basiset": "6-31G**", 
		 "properties": { 
			 "R2extent": 3106.8778, 
			 "electric_dipole_moment_norm": 2.21795024741, 
			 "electric_quadrupole_moment_norm": 14.3704085575, 
			 "total_energy": -1272.11384996, 
			 "HOMO_LUMO_gap": 0.19432, 
			 "cosmo_polarized_energy": -13.26, 
			 "cosmo_cavitation_energy": 26.07, 
			 "cosmo_dispersion_energy": -19.9, 
			 "cosmo_repulsion_energy": 1.59, 
			 "cosmo_total_nonelectrostatic_energy": 7.77, 
			 "SMD_solvation_energy": 2.4 
		},
		"coords": [
			{
				"x": 2.6924114765,
				"y": 2.236278992,
				"z": -0.4366010841,
				"element": "C" 
			},
			{
				"x": 2.0028107889,
				"y": 0.6185011327,
				"z": -0.9223741476,
				"element": "S" 
			},
			{
				"x": 0.4012867538,
				"y": 0.6726949355,
				"z": -0.1674174014,
				"element": "C" 
			},
			{
				"x": -0.3331567068,
				"y": -0.4193942353,
				"z": -0.3704419856,
				"element": "N" 
			},
			{
				"x": -1.5596423621,
				"y": -0.4281891502,
				"z": 0.1812850788,
				"element": "C" 
			},
			{
				"x": -2.2992090505,
				"y": -1.5491598086,
				"z": -0.0449848183,
				"element": "N" 
			},
			{
				"x": -3.556090491,
				"y": -1.8173190925,
				"z": 0.4963240974,
				"element": "N" 
			},
			{
				"x": -2.043600563,
				"y": 0.6615200184,
				"z": 0.9392853551,
				"element": "C" 
			},
			{
				"x": -1.1599908257,
				"y": 1.7205604257,
				"z": 1.059978105,
				"element": "C" 
			},
			{
				"x": -1.6606134318,
				"y": 3.132019881,
				"z": 1.9846332338,
				"element": "Cl" 
			},
			{
				"x": 0.0539467495,
				"y": 1.7662845943,
				"z": 0.5304694312,
				"element": "N" 
			},
			{
				"x": 3.6929468318,
				"y": 2.2719331981,
				"z": -0.8734320667,
				"element": "H" 
			},
			{
				"x": 2.0844321419,
				"y": 3.0509373927,
				"z": -0.8303170268,
				"element": "H" 
			},
			{
				"x": 2.7560153697,
				"y": 2.3206560307,
				"z": 0.6483702688,
				"element": "H" 
			},
			{
				"x": -1.8538685484,
				"y": -2.3006207409,
				"z": -0.5517539078,
				"element": "H" 
			},
			{
				"x": -4.2412713199,
				"y": -1.1512445962,
				"z": 0.1461611069,
				"element": "H" 
			},
			{
				"x": -3.5294119519,
				"y": -1.7588045201,
				"z": 1.5127898734,
				"element": "H" 
			},
			{
				"x": -3.025494861,
				"y": 0.6772455426,
				"z": 1.3895258878,
				"element": "H" 
			}
		],
		 "valence_orbital": [ 
			{
				"type": "occ",
				"energy": -0.29147,
				"method": "rhf"
			},
			{
				"type": "occ",
				"energy": -0.28989,
				"method": "rhf"
			},
			{
				"type": "occ",
				"energy": -0.26925,
				"method": "rhf"
			},
			{
				"type": "occ",
				"energy": -0.24861,
				"method": "rhf"
			},
			{
				"type": "occ",
				"energy": -0.22899,
				"method": "rhf"
			},
			{
				"type": "unocc",
				"energy": -0.03467,
				"method": "rhf"
			},
			{
				"type": "unocc",
				"energy": -0.01562,
				"method": "rhf"
			},
			{
				"type": "unocc",
				"energy": 0.02247,
				"method": "rhf"
			},
			{
				"type": "unocc",
				"energy": 0.04566,
				"method": "rhf"
			},
			{
				"type": "unocc",
				"energy": 0.05813,
				"method": "rhf"
			}
		],
		"cosmo_sigma_profile": { 
			"-0.025": 0.0,
			"-0.024": 0.0,
			"-0.023": 0.0,
			"-0.022": 0.0,
			"-0.021": 0.0,
			"-0.02": 0.0,
			"-0.019": 0.0,
			"-0.018": 0.0,
			"-0.017": 0.0,
			"-0.016": 0.0,
			"-0.015": 9.44965259596e-05,
			"-0.014": 0.766810711402,
			"-0.013": 1.23628864596,
			"-0.012": 3.43297959735,
			"-0.011": 3.83615905547,
			"-0.01": 5.46414151145,
			"-0.009": 5.40091128479,
			"-0.008": 4.660853743,
			"-0.007": 5.08456589541,
			"-0.006": 5.90743705136,
			"-0.005": 7.02709383252,
			"-0.004": 7.97510676375,
			"-0.003": 10.5038300978,
			"-0.002": 15.2895057649,
			"-0.001": 15.335867306,
			"0.0": 18.0502252928,
			"0.001": 16.3001970097,
			"0.002": 12.6579773179,
			"0.003": 13.0181651712,
			"0.004": 17.1381615154,
			"0.005": 10.6953659097,
			"0.006": 9.44999387434,
			"0.007": 6.89703255612,
			"0.008": 4.3824735504,
			"0.009": 3.19614509685,
			"0.01": 2.93817693779,
			"0.011": 1.76131400675,
			"0.012": 1.19983199988,
			"0.013": 0.759136045591,
			"0.014": 0.581783293687,
			"0.015": 0.620909253094,
			"0.016": 0.168487592063,
			"0.017": 0.0,
			"0.018": 0.0,
			"0.019": 0.0,
			"0.02": 0.0,
			"0.021": 0.0,
			"0.022": 0.0,
			"0.023": 0.0,
			"0.024": 0.0,
			"0.025": 0.0
		}
	}
}
