{
	 "smiles": "[O-][N+](=O)C1=C(C#N)C(=CC=C1)S(Cl)(=O)=O", 
	 "Tm": 363.15, 
	 "num_atms": 18, 
	 "gaussian": { 
		 "optdone": 1, 
		 "sigma_profile": "yes", 
		 "theory": "DFT", 
		 "functional": "B3LYP", 
		 "basiset": "6-31G**", 
		 "properties": { 
			 "R2extent": 4211.191, 
			 "electric_dipole_moment_norm": 6.88538246868, 
			 "electric_quadrupole_moment_norm": 12.2868144419, 
			 "total_energy": -1537.11125376, 
			 "HOMO_LUMO_gap": 0.18394, 
			 "cosmo_polarized_energy": -18.86, 
			 "cosmo_cavitation_energy": 28.09, 
			 "cosmo_dispersion_energy": -20.41, 
			 "cosmo_repulsion_energy": 1.54, 
			 "cosmo_total_nonelectrostatic_energy": 9.22, 
			 "SMD_solvation_energy": 6.67 
		},
		"coords": [
			{
				"x": 1.2150202286,
				"y": 2.8435471704,
				"z": -2.0521659805,
				"element": "O" 
			},
			{
				"x": 1.0231081006,
				"y": 1.7486367805,
				"z": -2.5650732971,
				"element": "N" 
			},
			{
				"x": 0.9502332488,
				"y": 1.5253459437,
				"z": -3.7709142098,
				"element": "O" 
			},
			{
				"x": 0.846254425,
				"y": 0.5866857172,
				"z": -1.6625070083,
				"element": "C" 
			},
			{
				"x": 1.232635533,
				"y": 0.6509571043,
				"z": -0.3090094412,
				"element": "C" 
			},
			{
				"x": 1.8298317438,
				"y": 1.8139549994,
				"z": 0.2801970851,
				"element": "C" 
			},
			{
				"x": 2.3208154287,
				"y": 2.7104330856,
				"z": 0.8327576549,
				"element": "N" 
			},
			{
				"x": 1.0076053012,
				"y": -0.515081899,
				"z": 0.4577222168,
				"element": "C" 
			},
			{
				"x": 0.4228765607,
				"y": -1.6576906891,
				"z": -0.0831083798,
				"element": "C" 
			},
			{
				"x": 0.0573367878,
				"y": -1.676456417,
				"z": -1.4287819179,
				"element": "C" 
			},
			{
				"x": 0.2770754463,
				"y": -0.5554357876,
				"z": -2.2201626326,
				"element": "C" 
			},
			{
				"x": 1.5218973017,
				"y": -0.6532737693,
				"z": 2.1911266329,
				"element": "S" 
			},
			{
				"x": 0.1613286333,
				"y": 0.6535867433,
				"z": 3.1291442796,
				"element": "Cl" 
			},
			{
				"x": 2.8569211475,
				"y": -0.1030786283,
				"z": 2.3515545024,
				"element": "O" 
			},
			{
				"x": 1.1794220286,
				"y": -1.9972871464,
				"z": 2.6378722018,
				"element": "O" 
			},
			{
				"x": 0.2666485115,
				"y": -2.5204544007,
				"z": 0.5534048015,
				"element": "H" 
			},
			{
				"x": -0.3950733625,
				"y": -2.5645556134,
				"z": -1.856313956,
				"element": "H" 
			},
			{
				"x": 0.0167629353,
				"y": -0.5372331935,
				"z": -3.2708425518,
				"element": "H" 
			}
		],
		 "valence_orbital": [ 
			{
				"type": "occ",
				"energy": -0.33896,
				"method": "rhf"
			},
			{
				"type": "occ",
				"energy": -0.33426,
				"method": "rhf"
			},
			{
				"type": "occ",
				"energy": -0.32987,
				"method": "rhf"
			},
			{
				"type": "occ",
				"energy": -0.31869,
				"method": "rhf"
			},
			{
				"type": "occ",
				"energy": -0.31666,
				"method": "rhf"
			},
			{
				"type": "unocc",
				"energy": -0.13272,
				"method": "rhf"
			},
			{
				"type": "unocc",
				"energy": -0.11741,
				"method": "rhf"
			},
			{
				"type": "unocc",
				"energy": -0.08902,
				"method": "rhf"
			},
			{
				"type": "unocc",
				"energy": -0.05247,
				"method": "rhf"
			},
			{
				"type": "unocc",
				"energy": 0.00089,
				"method": "rhf"
			}
		],
		"cosmo_sigma_profile": { 
			"-0.025": 0.0,
			"-0.024": 0.0,
			"-0.023": 0.0,
			"-0.022": 0.0,
			"-0.021": 0.0,
			"-0.02": 0.0,
			"-0.019": 0.0,
			"-0.018": 0.0,
			"-0.017": 0.0,
			"-0.016": 0.0,
			"-0.015": 0.0,
			"-0.014": 0.0,
			"-0.013": 0.0,
			"-0.012": 0.153269217983,
			"-0.011": 1.14938627427,
			"-0.01": 7.27707075808,
			"-0.009": 8.9974420509,
			"-0.008": 7.79797741233,
			"-0.007": 9.01666480501,
			"-0.006": 14.4712533355,
			"-0.005": 13.7978373944,
			"-0.004": 12.7031656894,
			"-0.003": 15.1169180042,
			"-0.002": 10.5265711044,
			"-0.001": 7.54984660146,
			"0.0": 9.73013661987,
			"0.001": 11.9499883629,
			"0.002": 15.7141455908,
			"0.003": 9.72752961513,
			"0.004": 7.82798208734,
			"0.005": 9.36216385894,
			"0.006": 18.1069734557,
			"0.007": 20.0519889165,
			"0.008": 11.9867127328,
			"0.009": 3.64249304554,
			"0.01": 2.17143752428,
			"0.011": 1.92218041878,
			"0.012": 0.214977394601,
			"0.013": 0.0,
			"0.014": 0.0,
			"0.015": 0.0,
			"0.016": 0.0,
			"0.017": 0.0,
			"0.018": 0.0,
			"0.019": 0.0,
			"0.02": 0.0,
			"0.021": 0.0,
			"0.022": 0.0,
			"0.023": 0.0,
			"0.024": 0.0,
			"0.025": 0.0
		}
	}
}
