{
	 "smiles": "CCCCN1C(=O)C(CCC(O)=O)=NC2=C1C=CC=C2", 
	 "Tm": 420.15, 
	 "num_atms": 38, 
	 "gaussian": { 
		 "optdone": 1, 
		 "sigma_profile": "yes", 
		 "theory": "DFT", 
		 "functional": "B3LYP", 
		 "basiset": "6-31G**", 
		 "properties": { 
			 "R2extent": 6249.107, 
			 "electric_dipole_moment_norm": 4.69387681453, 
			 "electric_quadrupole_moment_norm": 14.9428099235, 
			 "total_energy": -917.664890363, 
			 "HOMO_LUMO_gap": 0.1584, 
			 "cosmo_polarized_energy": -16.65, 
			 "cosmo_cavitation_energy": 40.91, 
			 "cosmo_dispersion_energy": -27.2, 
			 "cosmo_repulsion_energy": 2.11, 
			 "cosmo_total_nonelectrostatic_energy": 15.82, 
			 "SMD_solvation_energy": 6.33 
		},
		"coords": [
			{
				"x": 1.540270136,
				"y": 0.9466678047,
				"z": 2.6109939033,
				"element": "C" 
			},
			{
				"x": 2.6633905262,
				"y": 1.6455114118,
				"z": 1.8338329815,
				"element": "C" 
			},
			{
				"x": 2.9738680853,
				"y": 1.058660076,
				"z": 0.4444795362,
				"element": "C" 
			},
			{
				"x": 2.0537700574,
				"y": 1.4481583035,
				"z": -0.7244663335,
				"element": "C" 
			},
			{
				"x": 0.6825742404,
				"y": 0.9014392745,
				"z": -0.6739993734,
				"element": "N" 
			},
			{
				"x": 0.5582907894,
				"y": -0.4264442802,
				"z": -1.0782753528,
				"element": "C" 
			},
			{
				"x": 1.5404753583,
				"y": -1.0964927695,
				"z": -1.3979074246,
				"element": "O" 
			},
			{
				"x": -0.8230853283,
				"y": -0.9666535037,
				"z": -1.1011951302,
				"element": "C" 
			},
			{
				"x": -0.9945792223,
				"y": -2.4046078052,
				"z": -1.5232581201,
				"element": "C" 
			},
			{
				"x": -1.3409629259,
				"y": -2.5752704362,
				"z": -3.0267384123,
				"element": "C" 
			},
			{
				"x": -0.1931007667,
				"y": -2.2226818609,
				"z": -3.9475739912,
				"element": "C" 
			},
			{
				"x": -0.0853757603,
				"y": -0.8809398879,
				"z": -4.1315231231,
				"element": "O" 
			},
			{
				"x": 0.5586702935,
				"y": -3.0126330859,
				"z": -4.471625548,
				"element": "O" 
			},
			{
				"x": -1.8694689708,
				"y": -0.2698414753,
				"z": -0.7939036668,
				"element": "N" 
			},
			{
				"x": -1.7103918764,
				"y": 1.0516919309,
				"z": -0.4172359017,
				"element": "C" 
			},
			{
				"x": -0.4338946253,
				"y": 1.6699923938,
				"z": -0.3400840623,
				"element": "C" 
			},
			{
				"x": -0.3569462852,
				"y": 3.0129388617,
				"z": 0.0767400033,
				"element": "C" 
			},
			{
				"x": -1.5142084869,
				"y": 3.7177912582,
				"z": 0.3846647169,
				"element": "C" 
			},
			{
				"x": -2.7767015411,
				"y": 3.1141639672,
				"z": 0.2964088593,
				"element": "C" 
			},
			{
				"x": -2.8644724918,
				"y": 1.7894299438,
				"z": -0.0976228101,
				"element": "C" 
			},
			{
				"x": 1.4545790853,
				"y": 1.3592525883,
				"z": 3.6217931436,
				"element": "H" 
			},
			{
				"x": 1.7437398569,
				"y": -0.125762088,
				"z": 2.7073454115,
				"element": "H" 
			},
			{
				"x": 0.5661528724,
				"y": 1.0597813941,
				"z": 2.1289151399,
				"element": "H" 
			},
			{
				"x": 3.5823512429,
				"y": 1.5824252102,
				"z": 2.4301459005,
				"element": "H" 
			},
			{
				"x": 2.4450623002,
				"y": 2.7188654849,
				"z": 1.7445646504,
				"element": "H" 
			},
			{
				"x": 3.9761847452,
				"y": 1.3899955524,
				"z": 0.1426277776,
				"element": "H" 
			},
			{
				"x": 3.0199081169,
				"y": -0.0342092159,
				"z": 0.4957388535,
				"element": "H" 
			},
			{
				"x": 2.4928872958,
				"y": 1.0523826222,
				"z": -1.6430447729,
				"element": "H" 
			},
			{
				"x": 1.9868627517,
				"y": 2.5317613406,
				"z": -0.8273783838,
				"element": "H" 
			},
			{
				"x": -1.8247526466,
				"y": -2.8216358966,
				"z": -0.9466640885,
				"element": "H" 
			},
			{
				"x": -0.0845008677,
				"y": -2.9643492938,
				"z": -1.2956660127,
				"element": "H" 
			},
			{
				"x": -1.5911895966,
				"y": -3.6213113173,
				"z": -3.215808269,
				"element": "H" 
			},
			{
				"x": -2.2079387809,
				"y": -1.9517472127,
				"z": -3.2656823267,
				"element": "H" 
			},
			{
				"x": 0.7130262839,
				"y": -0.7519695845,
				"z": -4.6707830088,
				"element": "H" 
			},
			{
				"x": 0.6003194986,
				"y": 3.5078874957,
				"z": 0.1754284047,
				"element": "H" 
			},
			{
				"x": -1.4291866272,
				"y": 4.7524619727,
				"z": 0.7034572295,
				"element": "H" 
			},
			{
				"x": -3.6717567677,
				"y": 3.6769086704,
				"z": 0.5407546464,
				"element": "H" 
			},
			{
				"x": -3.8163699686,
				"y": 1.2742821562,
				"z": -0.1739550456,
				"element": "H" 
			}
		],
		 "valence_orbital": [ 
			{
				"type": "occ",
				"energy": -0.29842,
				"method": "rhf"
			},
			{
				"type": "occ",
				"energy": -0.26538,
				"method": "rhf"
			},
			{
				"type": "occ",
				"energy": -0.25101,
				"method": "rhf"
			},
			{
				"type": "occ",
				"energy": -0.24544,
				"method": "rhf"
			},
			{
				"type": "occ",
				"energy": -0.22547,
				"method": "rhf"
			},
			{
				"type": "unocc",
				"energy": -0.06707,
				"method": "rhf"
			},
			{
				"type": "unocc",
				"energy": -0.01304,
				"method": "rhf"
			},
			{
				"type": "unocc",
				"energy": -0.00024,
				"method": "rhf"
			},
			{
				"type": "unocc",
				"energy": 0.01584,
				"method": "rhf"
			},
			{
				"type": "unocc",
				"energy": 0.07261,
				"method": "rhf"
			}
		],
		"cosmo_sigma_profile": { 
			"-0.025": 0.0,
			"-0.024": 0.0,
			"-0.023": 0.0,
			"-0.022": 0.0,
			"-0.021": 0.0,
			"-0.02": 0.0,
			"-0.019": 0.0,
			"-0.018": 0.404333509126,
			"-0.017": 0.841016292774,
			"-0.016": 1.10438724393,
			"-0.015": 0.620926670267,
			"-0.014": 0.773548850788,
			"-0.013": 0.785936417904,
			"-0.012": 0.0805211512112,
			"-0.011": 0.501605867,
			"-0.01": 0.839971878025,
			"-0.009": 0.743388657351,
			"-0.008": 0.721482334256,
			"-0.007": 3.62055977115,
			"-0.006": 11.8784139426,
			"-0.005": 18.3868050475,
			"-0.004": 26.1438512995,
			"-0.003": 36.5598337902,
			"-0.002": 37.4431241236,
			"-0.001": 29.5637236005,
			"0.0": 28.0804072208,
			"0.001": 24.6574157227,
			"0.002": 19.2873508344,
			"0.003": 16.2323499397,
			"0.004": 13.6832099334,
			"0.005": 7.03237889625,
			"0.006": 4.8960790882,
			"0.007": 4.43381844999,
			"0.008": 5.86502013421,
			"0.009": 4.29979025156,
			"0.01": 4.3431447932,
			"0.011": 6.1961304795,
			"0.012": 7.23892508873,
			"0.013": 4.04881853718,
			"0.014": 0.441962558535,
			"0.015": 0.0,
			"0.016": 0.0,
			"0.017": 0.0,
			"0.018": 0.0,
			"0.019": 0.0,
			"0.02": 0.0,
			"0.021": 0.0,
			"0.022": 0.0,
			"0.023": 0.0,
			"0.024": 0.0,
			"0.025": 0.0
		}
	}
}
