{
	 "smiles": "CC1CN(CC2=C(N)C=CC=C2)CC(C)O1", 
	 "Tm": 367.15, 
	 "num_atms": 36, 
	 "gaussian": { 
		 "optdone": 1, 
		 "sigma_profile": "yes", 
		 "theory": "DFT", 
		 "functional": "B3LYP", 
		 "basiset": "6-31G**", 
		 "properties": { 
			 "R2extent": 5126.5451, 
			 "electric_dipole_moment_norm": 0.831192769458, 
			 "electric_quadrupole_moment_norm": 9.15576077451, 
			 "total_energy": -692.167736706, 
			 "HOMO_LUMO_gap": 0.19957, 
			 "cosmo_polarized_energy": -9.45, 
			 "cosmo_cavitation_energy": 36.12, 
			 "cosmo_dispersion_energy": -25.37, 
			 "cosmo_repulsion_energy": 1.99, 
			 "cosmo_total_nonelectrostatic_energy": 12.73, 
			 "SMD_solvation_energy": 5.27 
		},
		"coords": [
			{
				"x": -0.3420304023,
				"y": 5.5389671745,
				"z": 1.1985054207,
				"element": "C" 
			},
			{
				"x": -0.609138337,
				"y": 4.0510968435,
				"z": 1.0242764342,
				"element": "C" 
			},
			{
				"x": 0.2549097432,
				"y": 3.4173849223,
				"z": -0.076919128,
				"element": "C" 
			},
			{
				"x": -0.0864735463,
				"y": 2.0163892351,
				"z": -0.3606777681,
				"element": "N" 
			},
			{
				"x": 0.4742726774,
				"y": 1.0544736308,
				"z": 0.6135693541,
				"element": "C" 
			},
			{
				"x": 0.3625047205,
				"y": -0.3860311294,
				"z": 0.1631200959,
				"element": "C" 
			},
			{
				"x": 0.9372387188,
				"y": -0.7967433098,
				"z": -1.0664235112,
				"element": "C" 
			},
			{
				"x": 1.5871069611,
				"y": 0.1386586105,
				"z": -1.867230185,
				"element": "N" 
			},
			{
				"x": 0.8821925134,
				"y": -2.155096891,
				"z": -1.4228145152,
				"element": "C" 
			},
			{
				"x": 0.2744161435,
				"y": -3.0897579226,
				"z": -0.5879546358,
				"element": "C" 
			},
			{
				"x": -0.3023580563,
				"y": -2.6910913067,
				"z": 0.6187054565,
				"element": "C" 
			},
			{
				"x": -0.2511072377,
				"y": -1.3423394324,
				"z": 0.9759446135,
				"element": "C" 
			},
			{
				"x": -1.5350206289,
				"y": 1.8882745859,
				"z": -0.5852939607,
				"element": "C" 
			},
			{
				"x": -2.3840868375,
				"y": 2.5402054958,
				"z": 0.5161571224,
				"element": "C" 
			},
			{
				"x": -3.8701144193,
				"y": 2.5383834689,
				"z": 0.1890080178,
				"element": "C" 
			},
			{
				"x": -1.9909162429,
				"y": 3.905591167,
				"z": 0.6882109926,
				"element": "O" 
			},
			{
				"x": -0.5175175247,
				"y": 6.0708789593,
				"z": 0.2577530123,
				"element": "H" 
			},
			{
				"x": -1.0103797234,
				"y": 5.9575667803,
				"z": 1.9557924309,
				"element": "H" 
			},
			{
				"x": 0.6923440682,
				"y": 5.7145995422,
				"z": 1.5110834174,
				"element": "H" 
			},
			{
				"x": -0.4183808228,
				"y": 3.5313102375,
				"z": 1.9799848355,
				"element": "H" 
			},
			{
				"x": 1.3175722976,
				"y": 3.4788006586,
				"z": 0.1844625518,
				"element": "H" 
			},
			{
				"x": 0.1027397196,
				"y": 3.9976301413,
				"z": -0.9977956054,
				"element": "H" 
			},
			{
				"x": 0.0331148417,
				"y": 1.1460063143,
				"z": 1.6191364699,
				"element": "H" 
			},
			{
				"x": 1.5370775259,
				"y": 1.3152605703,
				"z": 0.7127356252,
				"element": "H" 
			},
			{
				"x": 1.1702063786,
				"y": 1.0648893925,
				"z": -1.7991472317,
				"element": "H" 
			},
			{
				"x": 1.7523266346,
				"y": -0.1607319176,
				"z": -2.8185591486,
				"element": "H" 
			},
			{
				"x": 1.3249821116,
				"y": -2.471863584,
				"z": -2.3646272763,
				"element": "H" 
			},
			{
				"x": 0.2464172813,
				"y": -4.1337987499,
				"z": -0.8883554823,
				"element": "H" 
			},
			{
				"x": -0.7818243056,
				"y": -3.41475378,
				"z": 1.2703057057,
				"element": "H" 
			},
			{
				"x": -0.6911021847,
				"y": -1.017960863,
				"z": 1.9168486328,
				"element": "H" 
			},
			{
				"x": -1.7837756746,
				"y": 0.8275741946,
				"z": -0.6854300579,
				"element": "H" 
			},
			{
				"x": -1.7753065864,
				"y": 2.3823299295,
				"z": -1.5367902349,
				"element": "H" 
			},
			{
				"x": -2.2197320649,
				"y": 2.0028305354,
				"z": 1.4668009667,
				"element": "H" 
			},
			{
				"x": -4.2457777223,
				"y": 1.5142965805,
				"z": 0.0980231858,
				"element": "H" 
			},
			{
				"x": -4.4325811533,
				"y": 3.0475413732,
				"z": 0.9763467886,
				"element": "H" 
			},
			{
				"x": -4.0536988661,
				"y": 3.0625285426,
				"z": -0.7545523894,
				"element": "H" 
			}
		],
		 "valence_orbital": [ 
			{
				"type": "occ",
				"energy": -0.29754,
				"method": "rhf"
			},
			{
				"type": "occ",
				"energy": -0.26974,
				"method": "rhf"
			},
			{
				"type": "occ",
				"energy": -0.23698,
				"method": "rhf"
			},
			{
				"type": "occ",
				"energy": -0.20639,
				"method": "rhf"
			},
			{
				"type": "occ",
				"energy": -0.19206,
				"method": "rhf"
			},
			{
				"type": "unocc",
				"energy": 0.00751,
				"method": "rhf"
			},
			{
				"type": "unocc",
				"energy": 0.02296,
				"method": "rhf"
			},
			{
				"type": "unocc",
				"energy": 0.07884,
				"method": "rhf"
			},
			{
				"type": "unocc",
				"energy": 0.09375,
				"method": "rhf"
			},
			{
				"type": "unocc",
				"energy": 0.10228,
				"method": "rhf"
			}
		],
		"cosmo_sigma_profile": { 
			"-0.025": 0.0,
			"-0.024": 0.0,
			"-0.023": 0.0,
			"-0.022": 0.0,
			"-0.021": 0.0,
			"-0.02": 0.0,
			"-0.019": 0.0,
			"-0.018": 0.0,
			"-0.017": 0.0,
			"-0.016": 0.0,
			"-0.015": 0.0,
			"-0.014": 0.0,
			"-0.013": 0.0,
			"-0.012": 0.388624084336,
			"-0.011": 1.2047822607,
			"-0.01": 1.6227015445,
			"-0.009": 0.891180312319,
			"-0.008": 1.73281188444,
			"-0.007": 1.88901488577,
			"-0.006": 2.76340946272,
			"-0.005": 7.48486739268,
			"-0.004": 25.6634741662,
			"-0.003": 42.252923991,
			"-0.002": 36.0175866667,
			"-0.001": 31.1734916478,
			"0.0": 29.3840611167,
			"0.001": 20.3371917264,
			"0.002": 14.0025587321,
			"0.003": 11.1500837086,
			"0.004": 8.93657894347,
			"0.005": 8.71149035764,
			"0.006": 10.2790155898,
			"0.007": 9.17583929876,
			"0.008": 4.91889330245,
			"0.009": 2.05538373368,
			"0.01": 1.70326636009,
			"0.011": 1.78481148471,
			"0.012": 2.07664012884,
			"0.013": 2.08088063051,
			"0.014": 0.902858982629,
			"0.015": 0.489747766225,
			"0.016": 0.0385136221263,
			"0.017": 0.0,
			"0.018": 0.0,
			"0.019": 0.0,
			"0.02": 0.0,
			"0.021": 0.0,
			"0.022": 0.0,
			"0.023": 0.0,
			"0.024": 0.0,
			"0.025": 0.0
		}
	}
}
