{
	 "smiles": "COC1=C(Cl)C=CC(CCC(O)=O)=C1", 
	 "Tm": 406.15, 
	 "num_atms": 25, 
	 "gaussian": { 
		 "optdone": 1, 
		 "sigma_profile": "yes", 
		 "theory": "DFT", 
		 "functional": "B3LYP", 
		 "basiset": "6-31G**", 
		 "properties": { 
			 "R2extent": 5600.4018, 
			 "electric_dipole_moment_norm": 1.89362615899, 
			 "electric_quadrupole_moment_norm": 29.1259069627, 
			 "total_energy": -1073.5538584, 
			 "HOMO_LUMO_gap": 0.22235, 
			 "cosmo_polarized_energy": -17.63, 
			 "cosmo_cavitation_energy": 31.51, 
			 "cosmo_dispersion_energy": -22.36, 
			 "cosmo_repulsion_energy": 1.79, 
			 "cosmo_total_nonelectrostatic_energy": 10.94, 
			 "SMD_solvation_energy": 6.84 
		},
		"coords": [
			{
				"x": 3.7723059971,
				"y": 1.510772724,
				"z": -3.2842427375,
				"element": "C" 
			},
			{
				"x": 3.3775245895,
				"y": 0.3328280358,
				"z": -2.5735336981,
				"element": "O" 
			},
			{
				"x": 2.8104134177,
				"y": 0.5576035053,
				"z": -1.3464345681,
				"element": "C" 
			},
			{
				"x": 3.5894249711,
				"y": 0.7058265242,
				"z": -0.1883689571,
				"element": "C" 
			},
			{
				"x": 5.3388201964,
				"y": 0.6479471229,
				"z": -0.2949101126,
				"element": "Cl" 
			},
			{
				"x": 2.9794690299,
				"y": 0.8836200113,
				"z": 1.0524837091,
				"element": "C" 
			},
			{
				"x": 1.5887393394,
				"y": 0.912657111,
				"z": 1.1453778606,
				"element": "C" 
			},
			{
				"x": 0.7866196129,
				"y": 0.7598843364,
				"z": 0.0070152115,
				"element": "C" 
			},
			{
				"x": -0.7226910589,
				"y": 0.7425897971,
				"z": 0.1127454205,
				"element": "C" 
			},
			{
				"x": -1.2768997735,
				"y": -0.6782104674,
				"z": 0.3052014861,
				"element": "C" 
			},
			{
				"x": -2.7965332661,
				"y": -0.704604002,
				"z": 0.4150213736,
				"element": "C" 
			},
			{
				"x": -3.3464552179,
				"y": -1.9388060957,
				"z": 0.5800495857,
				"element": "O" 
			},
			{
				"x": -3.5036798733,
				"y": 0.2699410594,
				"z": 0.3661343269,
				"element": "O" 
			},
			{
				"x": 1.4181632882,
				"y": 0.5879262151,
				"z": -1.2297320991,
				"element": "C" 
			},
			{
				"x": 2.9096702472,
				"y": 2.1615007885,
				"z": -3.4761132299,
				"element": "H" 
			},
			{
				"x": 4.1877739963,
				"y": 1.1693880866,
				"z": -4.2339626682,
				"element": "H" 
			},
			{
				"x": 4.5361218219,
				"y": 2.072921286,
				"z": -2.7356592421,
				"element": "H" 
			},
			{
				"x": 3.5965746457,
				"y": 0.9990068478,
				"z": 1.9370073096,
				"element": "H" 
			},
			{
				"x": 1.1247950738,
				"y": 1.057366265,
				"z": 2.1174732837,
				"element": "H" 
			},
			{
				"x": -1.0538118135,
				"y": 1.3635396223,
				"z": 0.950539758,
				"element": "H" 
			},
			{
				"x": -1.1750568246,
				"y": 1.1750375833,
				"z": -0.7848576335,
				"element": "H" 
			},
			{
				"x": -0.9728902188,
				"y": -1.3238547826,
				"z": -0.530148516,
				"element": "H" 
			},
			{
				"x": -0.8514770009,
				"y": -1.1354859952,
				"z": 1.2091440283,
				"element": "H" 
			},
			{
				"x": -2.6546164446,
				"y": -2.6154809424,
				"z": 0.5980278434,
				"element": "H" 
			},
			{
				"x": 0.8355952649,
				"y": 0.4653853633,
				"z": -2.1389577347,
				"element": "H" 
			}
		],
		 "valence_orbital": [ 
			{
				"type": "occ",
				"energy": -0.31338,
				"method": "rhf"
			},
			{
				"type": "occ",
				"energy": -0.28153,
				"method": "rhf"
			},
			{
				"type": "occ",
				"energy": -0.2779,
				"method": "rhf"
			},
			{
				"type": "occ",
				"energy": -0.25913,
				"method": "rhf"
			},
			{
				"type": "occ",
				"energy": -0.24188,
				"method": "rhf"
			},
			{
				"type": "unocc",
				"energy": -0.01953,
				"method": "rhf"
			},
			{
				"type": "unocc",
				"energy": -0.01472,
				"method": "rhf"
			},
			{
				"type": "unocc",
				"energy": 0.0068,
				"method": "rhf"
			},
			{
				"type": "unocc",
				"energy": 0.02669,
				"method": "rhf"
			},
			{
				"type": "unocc",
				"energy": 0.05094,
				"method": "rhf"
			}
		],
		"cosmo_sigma_profile": { 
			"-0.025": 0.0,
			"-0.024": 0.0,
			"-0.023": 0.0,
			"-0.022": 0.0,
			"-0.021": 0.0,
			"-0.02": 0.0,
			"-0.019": 0.633032467858,
			"-0.018": 1.13307778136,
			"-0.017": 1.07505509,
			"-0.016": 1.46821264507,
			"-0.015": 0.544955046132,
			"-0.014": 1.13932533671,
			"-0.013": 0.927314843413,
			"-0.012": 1.10219022984,
			"-0.011": 1.4841452368,
			"-0.01": 1.46212407919,
			"-0.009": 1.06323386065,
			"-0.008": 1.92963684674,
			"-0.007": 5.83962328853,
			"-0.006": 12.8314085392,
			"-0.005": 20.1196995362,
			"-0.004": 20.2385164042,
			"-0.003": 20.9524055426,
			"-0.002": 17.2541778392,
			"-0.001": 13.4439046446,
			"0.0": 12.2375592763,
			"0.001": 14.4353142357,
			"0.002": 16.5026491565,
			"0.003": 18.5565636335,
			"0.004": 16.8736008883,
			"0.005": 9.47465133279,
			"0.006": 4.00702970439,
			"0.007": 4.39794314339,
			"0.008": 4.92381995314,
			"0.009": 4.33275996457,
			"0.01": 5.96907500167,
			"0.011": 7.4580350856,
			"0.012": 5.79479531115,
			"0.013": 1.8506035209,
			"0.014": 0.091796899813,
			"0.015": 0.0,
			"0.016": 0.0,
			"0.017": 0.0,
			"0.018": 0.0,
			"0.019": 0.0,
			"0.02": 0.0,
			"0.021": 0.0,
			"0.022": 0.0,
			"0.023": 0.0,
			"0.024": 0.0,
			"0.025": 0.0
		}
	}
}
