{
	 "smiles": "COC1=C(CC#N)C=C(Cl)C=C1", 
	 "Tm": 326.15, 
	 "num_atms": 20, 
	 "gaussian": { 
		 "optdone": 1, 
		 "sigma_profile": "yes", 
		 "theory": "DFT", 
		 "functional": "B3LYP", 
		 "basiset": "6-31G**", 
		 "properties": { 
			 "R2extent": 4234.4994, 
			 "electric_dipole_moment_norm": 4.28145162649, 
			 "electric_quadrupole_moment_norm": 21.6649959714, 
			 "total_energy": -937.918314126, 
			 "HOMO_LUMO_gap": 0.20361, 
			 "cosmo_polarized_energy": -12.37, 
			 "cosmo_cavitation_energy": 27.0, 
			 "cosmo_dispersion_energy": -18.96, 
			 "cosmo_repulsion_energy": 1.53, 
			 "cosmo_total_nonelectrostatic_energy": 9.57, 
			 "SMD_solvation_energy": 6.5 
		},
		"coords": [
			{
				"x": 0.2114904171,
				"y": 1.7938770149,
				"z": -2.5634414126,
				"element": "C" 
			},
			{
				"x": 0.2237502037,
				"y": 1.3660548869,
				"z": -1.2076705451,
				"element": "O" 
			},
			{
				"x": 1.3892420827,
				"y": 0.8999501692,
				"z": -0.6797910398,
				"element": "C" 
			},
			{
				"x": 1.3363244943,
				"y": 0.5549181193,
				"z": 0.6863840792,
				"element": "C" 
			},
			{
				"x": 0.0348412175,
				"y": 0.7214242887,
				"z": 1.451939479,
				"element": "C" 
			},
			{
				"x": -0.2848993405,
				"y": 2.1258843915,
				"z": 1.7462493958,
				"element": "C" 
			},
			{
				"x": -0.5334671936,
				"y": 3.2331445651,
				"z": 1.9885201344,
				"element": "N" 
			},
			{
				"x": 2.478280596,
				"y": 0.0612427082,
				"z": 1.3108307149,
				"element": "C" 
			},
			{
				"x": 3.6642500011,
				"y": -0.0901630466,
				"z": 0.5892649928,
				"element": "C" 
			},
			{
				"x": 5.093059414,
				"y": -0.7190551085,
				"z": 1.396678633,
				"element": "Cl" 
			},
			{
				"x": 3.7219392653,
				"y": 0.2510833903,
				"z": -0.7569021963,
				"element": "C" 
			},
			{
				"x": 2.581274631,
				"y": 0.7466107753,
				"z": -1.3937560776,
				"element": "C" 
			},
			{
				"x": 0.9222499344,
				"y": 2.6121298173,
				"z": -2.7299425816,
				"element": "H" 
			},
			{
				"x": 0.4406634203,
				"y": 0.9673777475,
				"z": -3.247659865,
				"element": "H" 
			},
			{
				"x": -0.8008061659,
				"y": 2.1510791559,
				"z": -2.7546945515,
				"element": "H" 
			},
			{
				"x": -0.7989228977,
				"y": 0.3032440704,
				"z": 0.8770507458,
				"element": "H" 
			},
			{
				"x": 0.0866428128,
				"y": 0.1770792363,
				"z": 2.4004562946,
				"element": "H" 
			},
			{
				"x": 2.4490335538,
				"y": -0.2054751505,
				"z": 2.362226103,
				"element": "H" 
			},
			{
				"x": 4.6466246831,
				"y": 0.132207441,
				"z": -1.3105386957,
				"element": "H" 
			},
			{
				"x": 2.6365288706,
				"y": 1.0084855278,
				"z": -2.4433036072,
				"element": "H" 
			}
		],
		 "valence_orbital": [ 
			{
				"type": "occ",
				"energy": -0.32011,
				"method": "rhf"
			},
			{
				"type": "occ",
				"energy": -0.31482,
				"method": "rhf"
			},
			{
				"type": "occ",
				"energy": -0.31342,
				"method": "rhf"
			},
			{
				"type": "occ",
				"energy": -0.27318,
				"method": "rhf"
			},
			{
				"type": "occ",
				"energy": -0.23197,
				"method": "rhf"
			},
			{
				"type": "unocc",
				"energy": -0.02836,
				"method": "rhf"
			},
			{
				"type": "unocc",
				"energy": -0.01191,
				"method": "rhf"
			},
			{
				"type": "unocc",
				"energy": 0.02126,
				"method": "rhf"
			},
			{
				"type": "unocc",
				"energy": 0.04441,
				"method": "rhf"
			},
			{
				"type": "unocc",
				"energy": 0.04756,
				"method": "rhf"
			}
		],
		"cosmo_sigma_profile": { 
			"-0.025": 0.0,
			"-0.024": 0.0,
			"-0.023": 0.0,
			"-0.022": 0.0,
			"-0.021": 0.0,
			"-0.02": 0.0,
			"-0.019": 0.0,
			"-0.018": 0.0,
			"-0.017": 0.0,
			"-0.016": 0.0,
			"-0.015": 0.0,
			"-0.014": 0.0,
			"-0.013": 0.0,
			"-0.012": 0.0,
			"-0.011": 0.0,
			"-0.01": 0.435612716295,
			"-0.009": 3.94934052114,
			"-0.008": 6.52330190743,
			"-0.007": 10.4132433708,
			"-0.006": 16.5497146798,
			"-0.005": 16.5128463992,
			"-0.004": 14.1986500602,
			"-0.003": 12.9602786171,
			"-0.002": 9.6970596298,
			"-0.001": 9.99400394838,
			"0.0": 11.9976821225,
			"0.001": 14.3838717678,
			"0.002": 19.1680926866,
			"0.003": 17.9597252858,
			"0.004": 15.4162697112,
			"0.005": 11.5708172225,
			"0.006": 5.47884748896,
			"0.007": 3.4494265525,
			"0.008": 3.60648949816,
			"0.009": 3.54008506494,
			"0.01": 3.36635470641,
			"0.011": 2.91233416435,
			"0.012": 2.4532426332,
			"0.013": 2.09319113291,
			"0.014": 0.264849234024,
			"0.015": 0.0,
			"0.016": 0.0,
			"0.017": 0.0,
			"0.018": 0.0,
			"0.019": 0.0,
			"0.02": 0.0,
			"0.021": 0.0,
			"0.022": 0.0,
			"0.023": 0.0,
			"0.024": 0.0,
			"0.025": 0.0
		}
	}
}
