{
	 "smiles": "OC(=O)C1=C(CSC2=C(Cl)C=CC=C2)C2=C(S1)C=CC=C2", 
	 "Tm": 457.15, 
	 "num_atms": 32, 
	 "gaussian": { 
		 "optdone": 1, 
		 "sigma_profile": "yes", 
		 "theory": "DFT", 
		 "functional": "B3LYP", 
		 "basiset": "6-31G**", 
		 "properties": { 
			 "R2extent": 7733.2952, 
			 "electric_dipole_moment_norm": 3.75836054816, 
			 "electric_quadrupole_moment_norm": 20.3829878605, 
			 "total_energy": -2023.35511519, 
			 "HOMO_LUMO_gap": 0.14581, 
			 "cosmo_polarized_energy": -14.79, 
			 "cosmo_cavitation_energy": 40.25, 
			 "cosmo_dispersion_energy": -28.64, 
			 "cosmo_repulsion_energy": 2.1, 
			 "cosmo_total_nonelectrostatic_energy": 13.71, 
			 "SMD_solvation_energy": 6.42 
		},
		"coords": [
			{
				"x": -3.279831711,
				"y": -1.2287553255,
				"z": 2.2716195223,
				"element": "O" 
			},
			{
				"x": -3.1859075244,
				"y": -0.7867534285,
				"z": 0.9914953635,
				"element": "C" 
			},
			{
				"x": -3.9799072003,
				"y": -1.1837164564,
				"z": 0.1645891308,
				"element": "O" 
			},
			{
				"x": -2.0974270767,
				"y": 0.1804685655,
				"z": 0.706479821,
				"element": "C" 
			},
			{
				"x": -1.5320068521,
				"y": 0.4759299431,
				"z": -0.5120724871,
				"element": "C" 
			},
			{
				"x": -1.9293543947,
				"y": -0.1525558425,
				"z": -1.8178047401,
				"element": "C" 
			},
			{
				"x": -0.6108083712,
				"y": -1.158789051,
				"z": -2.6438509856,
				"element": "S" 
			},
			{
				"x": -0.3900038402,
				"y": -2.5666384517,
				"z": -1.5665512209,
				"element": "C" 
			},
			{
				"x": 0.8780207316,
				"y": -3.1660290392,
				"z": -1.4563500852,
				"element": "C" 
			},
			{
				"x": 2.2583299447,
				"y": -2.527621485,
				"z": -2.339420341,
				"element": "Cl" 
			},
			{
				"x": 1.0825433571,
				"y": -4.2919018278,
				"z": -0.6579909597,
				"element": "C" 
			},
			{
				"x": 0.0194357532,
				"y": -4.8400417798,
				"z": 0.0563469782,
				"element": "C" 
			},
			{
				"x": -1.2485952153,
				"y": -4.2672707595,
				"z": -0.0469768202,
				"element": "C" 
			},
			{
				"x": -1.4517058068,
				"y": -3.1531305007,
				"z": -0.8587090629,
				"element": "C" 
			},
			{
				"x": -0.4989135999,
				"y": 1.4850892382,
				"z": -0.3994864197,
				"element": "C" 
			},
			{
				"x": -0.3162819074,
				"y": 1.9373769223,
				"z": 0.9290885206,
				"element": "C" 
			},
			{
				"x": -1.4144094226,
				"y": 1.1352996832,
				"z": 2.0306531315,
				"element": "S" 
			},
			{
				"x": 0.6161537941,
				"y": 2.9275447142,
				"z": 1.2558343687,
				"element": "C" 
			},
			{
				"x": 1.3827333546,
				"y": 3.4686317414,
				"z": 0.2313107318,
				"element": "C" 
			},
			{
				"x": 1.2207058291,
				"y": 3.0337105084,
				"z": -1.0973647925,
				"element": "C" 
			},
			{
				"x": 0.2942873201,
				"y": 2.0529625797,
				"z": -1.4169281937,
				"element": "C" 
			},
			{
				"x": -2.4936480351,
				"y": -0.9849339864,
				"z": 2.7836263672,
				"element": "H" 
			},
			{
				"x": -2.1097893031,
				"y": 0.6290308356,
				"z": -2.5638387064,
				"element": "H" 
			},
			{
				"x": -2.8507490825,
				"y": -0.7199970845,
				"z": -1.7120115114,
				"element": "H" 
			},
			{
				"x": 2.0754154194,
				"y": -4.724336844,
				"z": -0.6003966553,
				"element": "H" 
			},
			{
				"x": 0.1837267819,
				"y": -5.7121142174,
				"z": 0.681658068,
				"element": "H" 
			},
			{
				"x": -2.0897982835,
				"y": -4.690654912,
				"z": 0.4932842823,
				"element": "H" 
			},
			{
				"x": -2.4490915058,
				"y": -2.7383997211,
				"z": -0.9405865614,
				"element": "H" 
			},
			{
				"x": 0.7383952489,
				"y": 3.262601081,
				"z": 2.2808350242,
				"element": "H" 
			},
			{
				"x": 2.1169087502,
				"y": 4.2350235,
				"z": 0.4606280503,
				"element": "H" 
			},
			{
				"x": 1.8328658561,
				"y": 3.4693586046,
				"z": -1.8808114049,
				"element": "H" 
			},
			{
				"x": 0.1900069914,
				"y": 1.7128127958,
				"z": -2.4410984124,
				"element": "H" 
			}
		],
		 "valence_orbital": [ 
			{
				"type": "occ",
				"energy": -0.28021,
				"method": "rhf"
			},
			{
				"type": "occ",
				"energy": -0.25638,
				"method": "rhf"
			},
			{
				"type": "occ",
				"energy": -0.2496,
				"method": "rhf"
			},
			{
				"type": "occ",
				"energy": -0.23743,
				"method": "rhf"
			},
			{
				"type": "occ",
				"energy": -0.21995,
				"method": "rhf"
			},
			{
				"type": "unocc",
				"energy": -0.07414,
				"method": "rhf"
			},
			{
				"type": "unocc",
				"energy": -0.02156,
				"method": "rhf"
			},
			{
				"type": "unocc",
				"energy": -0.02057,
				"method": "rhf"
			},
			{
				"type": "unocc",
				"energy": -0.01385,
				"method": "rhf"
			},
			{
				"type": "unocc",
				"energy": -0.00988,
				"method": "rhf"
			}
		],
		"cosmo_sigma_profile": { 
			"-0.025": 0.0,
			"-0.024": 0.0,
			"-0.023": 0.0,
			"-0.022": 0.0,
			"-0.021": 0.0,
			"-0.02": 0.0,
			"-0.019": 0.0,
			"-0.018": 0.344273624487,
			"-0.017": 0.691494376597,
			"-0.016": 0.815843927453,
			"-0.015": 0.687171142218,
			"-0.014": 1.11532518995,
			"-0.013": 0.902957780175,
			"-0.012": 0.743859664148,
			"-0.011": 0.905999307629,
			"-0.01": 1.05556757842,
			"-0.009": 2.06024928258,
			"-0.008": 5.64019732979,
			"-0.007": 10.9319791963,
			"-0.006": 17.8322274192,
			"-0.005": 20.7998871565,
			"-0.004": 19.154108161,
			"-0.003": 17.9163508666,
			"-0.002": 17.4506950828,
			"-0.001": 18.5523202172,
			"0.0": 24.6909063752,
			"0.001": 29.7894387189,
			"0.002": 30.6986708129,
			"0.003": 33.7238579182,
			"0.004": 31.7483960919,
			"0.005": 12.1790673513,
			"0.006": 6.115820851,
			"0.007": 5.41874386529,
			"0.008": 4.07912012322,
			"0.009": 3.52053852201,
			"0.01": 5.07880765868,
			"0.011": 3.27804198988,
			"0.012": 1.73276746577,
			"0.013": 0.285706639718,
			"0.014": 0.0,
			"0.015": 0.0,
			"0.016": 0.0,
			"0.017": 0.0,
			"0.018": 0.0,
			"0.019": 0.0,
			"0.02": 0.0,
			"0.021": 0.0,
			"0.022": 0.0,
			"0.023": 0.0,
			"0.024": 0.0,
			"0.025": 0.0
		}
	}
}
