{
	 "smiles": "CC(=O)OC1C2CC(OC(C)=O)C3C1(C(CC1C(C)(C)CCC(OC(C)=O)C31C=O)OC(C)=O)C(=O)C2=C", 
	 "Tm": 485.15, 
	 "num_atms": 74, 
	 "gaussian": { 
		 "optdone": 1, 
		 "sigma_profile": "yes", 
		 "theory": "DFT", 
		 "functional": "B3LYP", 
		 "basiset": "6-31G**", 
		 "properties": { 
			 "R2extent": 15895.5208, 
			 "electric_dipole_moment_norm": 2.32574394549, 
			 "electric_quadrupole_moment_norm": 29.5004349627, 
			 "total_energy": -1840.94294295, 
			 "HOMO_LUMO_gap": 0.18185, 
			 "cosmo_polarized_energy": -27.5, 
			 "cosmo_cavitation_energy": 67.32, 
			 "cosmo_dispersion_energy": -40.32, 
			 "cosmo_repulsion_energy": 2.94, 
			 "cosmo_total_nonelectrostatic_energy": 29.94, 
			 "SMD_solvation_energy": 15.77 
		},
		"coords": [
			{
				"x": 2.658451291,
				"y": 5.1451190619,
				"z": -1.5404160576,
				"element": "C" 
			},
			{
				"x": 2.9005324405,
				"y": 3.6590258767,
				"z": -1.5894603535,
				"element": "C" 
			},
			{
				"x": 3.6479221337,
				"y": 3.0877494386,
				"z": -2.3518532892,
				"element": "O" 
			},
			{
				"x": 2.1370809076,
				"y": 3.0094280695,
				"z": -0.6655669918,
				"element": "O" 
			},
			{
				"x": 2.1911823563,
				"y": 1.5704244603,
				"z": -0.7170737966,
				"element": "C" 
			},
			{
				"x": 3.3638517537,
				"y": 1.0343311889,
				"z": 0.1275817954,
				"element": "C" 
			},
			{
				"x": 3.5273357271,
				"y": -0.4652769826,
				"z": -0.1913052797,
				"element": "C" 
			},
			{
				"x": 2.243228397,
				"y": -1.2472247176,
				"z": 0.1268181374,
				"element": "C" 
			},
			{
				"x": 2.3189705893,
				"y": -2.5642356893,
				"z": -0.4770513783,
				"element": "O" 
			},
			{
				"x": 3.1220185342,
				"y": -3.4830006191,
				"z": 0.1340393367,
				"element": "C" 
			},
			{
				"x": 3.0559033293,
				"y": -4.8100780109,
				"z": -0.5808863003,
				"element": "C" 
			},
			{
				"x": 3.7761887041,
				"y": -3.2445914487,
				"z": 1.1224782072,
				"element": "O" 
			},
			{
				"x": 0.9770856163,
				"y": -0.5610453087,
				"z": -0.4381885923,
				"element": "C" 
			},
			{
				"x": 0.9520110315,
				"y": 0.9672246554,
				"z": 0.0035320926,
				"element": "C" 
			},
			{
				"x": -0.3945761467,
				"y": 1.597465128,
				"z": -0.3761135735,
				"element": "C" 
			},
			{
				"x": -1.585890248,
				"y": 0.755471161,
				"z": 0.0641089707,
				"element": "C" 
			},
			{
				"x": -1.6151028661,
				"y": -0.5970406423,
				"z": -0.6683409926,
				"element": "C" 
			},
			{
				"x": -2.9750788191,
				"y": -1.3761295087,
				"z": -0.4903178661,
				"element": "C" 
			},
			{
				"x": -4.1792927126,
				"y": -0.4120687491,
				"z": -0.5698082502,
				"element": "C" 
			},
			{
				"x": -3.1809097627,
				"y": -2.4055776631,
				"z": -1.6272852857,
				"element": "C" 
			},
			{
				"x": -3.0067664681,
				"y": -2.0883432791,
				"z": 0.8812135502,
				"element": "C" 
			},
			{
				"x": -1.8048224631,
				"y": -3.0080820255,
				"z": 1.1001832229,
				"element": "C" 
			},
			{
				"x": -0.4748653099,
				"y": -2.2482008236,
				"z": 1.0082550692,
				"element": "C" 
			},
			{
				"x": -0.3781450583,
				"y": -1.3536911924,
				"z": 2.1428420044,
				"element": "O" 
			},
			{
				"x": 0.0132535569,
				"y": -1.9244264423,
				"z": 3.3210786991,
				"element": "C" 
			},
			{
				"x": -0.1032212965,
				"y": -0.9537669516,
				"z": 4.4666787789,
				"element": "C" 
			},
			{
				"x": 0.3833714576,
				"y": -3.0751312209,
				"z": 3.4072424863,
				"element": "O" 
			},
			{
				"x": -0.3321762329,
				"y": -1.4468177473,
				"z": -0.3099817805,
				"element": "C" 
			},
			{
				"x": -0.1502705898,
				"y": -2.4982920601,
				"z": -1.440493389,
				"element": "C" 
			},
			{
				"x": -0.0184983338,
				"y": -2.2008295483,
				"z": -2.6060144086,
				"element": "O" 
			},
			{
				"x": -0.5316900244,
				"y": 2.8894949757,
				"z": 0.261942649,
				"element": "O" 
			},
			{
				"x": -0.6678254233,
				"y": 3.9865249918,
				"z": -0.5139504665,
				"element": "C" 
			},
			{
				"x": -0.8090236517,
				"y": 5.2171498487,
				"z": 0.3503772243,
				"element": "C" 
			},
			{
				"x": -0.6676391852,
				"y": 3.9821601157,
				"z": -1.727469294,
				"element": "O" 
			},
			{
				"x": 1.3539699775,
				"y": 1.197571065,
				"z": 1.4856657603,
				"element": "C" 
			},
			{
				"x": 0.6063025885,
				"y": 1.3686449798,
				"z": 2.4274163428,
				"element": "O" 
			},
			{
				"x": 2.8548438269,
				"y": 1.2457020233,
				"z": 1.537576135,
				"element": "C" 
			},
			{
				"x": 3.5325989987,
				"y": 1.4613426139,
				"z": 2.667124715,
				"element": "C" 
			},
			{
				"x": 2.7082935884,
				"y": 5.511434875,
				"z": -0.5115341531,
				"element": "H" 
			},
			{
				"x": 1.6522631636,
				"y": 5.3472925526,
				"z": -1.921401302,
				"element": "H" 
			},
			{
				"x": 3.3971847395,
				"y": 5.6530751611,
				"z": -2.1595751111,
				"element": "H" 
			},
			{
				"x": 2.2613279766,
				"y": 1.2705528649,
				"z": -1.7641066533,
				"element": "H" 
			},
			{
				"x": 4.2927225305,
				"y": 1.5672335016,
				"z": -0.0861780756,
				"element": "H" 
			},
			{
				"x": 4.3501620178,
				"y": -0.892268686,
				"z": 0.3857432318,
				"element": "H" 
			},
			{
				"x": 3.7585212189,
				"y": -0.5871253787,
				"z": -1.2561206395,
				"element": "H" 
			},
			{
				"x": 2.1621795112,
				"y": -1.3877727896,
				"z": 1.2078529682,
				"element": "H" 
			},
			{
				"x": 3.0681466555,
				"y": -4.6703087464,
				"z": -1.6641137727,
				"element": "H" 
			},
			{
				"x": 2.1205226426,
				"y": -5.3167819104,
				"z": -0.3199178708,
				"element": "H" 
			},
			{
				"x": 3.8923081522,
				"y": -5.4318731185,
				"z": -0.2625217424,
				"element": "H" 
			},
			{
				"x": 1.1135173391,
				"y": -0.5032210955,
				"z": -1.5243021043,
				"element": "H" 
			},
			{
				"x": -0.4251347915,
				"y": 1.7549924144,
				"z": -1.4590980493,
				"element": "H" 
			},
			{
				"x": -1.5593174776,
				"y": 0.6371232738,
				"z": 1.1499602002,
				"element": "H" 
			},
			{
				"x": -2.4769820957,
				"y": 1.3329017238,
				"z": -0.1886290409,
				"element": "H" 
			},
			{
				"x": -1.5222263464,
				"y": -0.3773093845,
				"z": -1.7409585059,
				"element": "H" 
			},
			{
				"x": -4.2283815051,
				"y": 0.2690362428,
				"z": 0.283796046,
				"element": "H" 
			},
			{
				"x": -4.1568827585,
				"y": 0.1881872154,
				"z": -1.4866336228,
				"element": "H" 
			},
			{
				"x": -5.1104952334,
				"y": -0.9883960058,
				"z": -0.5774509374,
				"element": "H" 
			},
			{
				"x": -3.1318546933,
				"y": -1.9223893578,
				"z": -2.608314497,
				"element": "H" 
			},
			{
				"x": -2.4509415929,
				"y": -3.2171994952,
				"z": -1.6346246711,
				"element": "H" 
			},
			{
				"x": -4.1681270715,
				"y": -2.8702731531,
				"z": -1.5289033958,
				"element": "H" 
			},
			{
				"x": -3.0298834581,
				"y": -1.3366949371,
				"z": 1.6793090727,
				"element": "H" 
			},
			{
				"x": -3.9366852002,
				"y": -2.6635483803,
				"z": 0.9697803331,
				"element": "H" 
			},
			{
				"x": -1.8050278784,
				"y": -3.8231449148,
				"z": 0.3675297075,
				"element": "H" 
			},
			{
				"x": -1.8496949768,
				"y": -3.4924042579,
				"z": 2.0797197338,
				"element": "H" 
			},
			{
				"x": 0.3449844207,
				"y": -2.9656865377,
				"z": 1.0889644014,
				"element": "H" 
			},
			{
				"x": -1.1625711635,
				"y": -0.7595486436,
				"z": 4.6659938255,
				"element": "H" 
			},
			{
				"x": 0.3572692276,
				"y": -1.3907409781,
				"z": 5.3524663161,
				"element": "H" 
			},
			{
				"x": 0.3554899307,
				"y": 0.0024922206,
				"z": 4.208338731,
				"element": "H" 
			},
			{
				"x": -0.1495956014,
				"y": -3.5622899196,
				"z": -1.1272730173,
				"element": "H" 
			},
			{
				"x": 0.126487616,
				"y": 5.3888547949,
				"z": 0.8917915482,
				"element": "H" 
			},
			{
				"x": -1.0387612084,
				"y": 6.0799170192,
				"z": -0.2744183992,
				"element": "H" 
			},
			{
				"x": -1.5927485015,
				"y": 5.0693768436,
				"z": 1.09787731,
				"element": "H" 
			},
			{
				"x": 4.6172887155,
				"y": 1.5072039002,
				"z": 2.6953899812,
				"element": "H" 
			},
			{
				"x": 2.9950334824,
				"y": 1.6039240635,
				"z": 3.600384323,
				"element": "H" 
			}
		],
		 "valence_orbital": [ 
			{
				"type": "occ",
				"energy": -0.27549,
				"method": "rhf"
			},
			{
				"type": "occ",
				"energy": -0.27269,
				"method": "rhf"
			},
			{
				"type": "occ",
				"energy": -0.27177,
				"method": "rhf"
			},
			{
				"type": "occ",
				"energy": -0.25819,
				"method": "rhf"
			},
			{
				"type": "occ",
				"energy": -0.25089,
				"method": "rhf"
			},
			{
				"type": "unocc",
				"energy": -0.06904,
				"method": "rhf"
			},
			{
				"type": "unocc",
				"energy": -0.03315,
				"method": "rhf"
			},
			{
				"type": "unocc",
				"energy": 0.00154,
				"method": "rhf"
			},
			{
				"type": "unocc",
				"energy": 0.00651,
				"method": "rhf"
			},
			{
				"type": "unocc",
				"energy": 0.00915,
				"method": "rhf"
			}
		],
		"cosmo_sigma_profile": { 
			"-0.025": 0.0,
			"-0.024": 0.0,
			"-0.023": 0.0,
			"-0.022": 0.0,
			"-0.021": 0.0,
			"-0.02": 0.0,
			"-0.019": 0.0,
			"-0.018": 0.0,
			"-0.017": 0.0,
			"-0.016": 0.0,
			"-0.015": 0.0,
			"-0.014": 0.0,
			"-0.013": 0.0,
			"-0.012": 0.0,
			"-0.011": 0.0,
			"-0.01": 0.00981221604754,
			"-0.009": 1.3647329702,
			"-0.008": 5.90436792683,
			"-0.007": 12.6614257508,
			"-0.006": 27.1607106425,
			"-0.005": 32.8808603289,
			"-0.004": 44.6461481517,
			"-0.003": 68.4315744337,
			"-0.002": 72.1628558578,
			"-0.001": 50.9269650258,
			"0.0": 32.8286105499,
			"0.001": 29.6202039417,
			"0.002": 20.4896640898,
			"0.003": 14.6428853052,
			"0.004": 12.1532770798,
			"0.005": 11.7551943133,
			"0.006": 10.6156570027,
			"0.007": 8.79357956738,
			"0.008": 9.29216980994,
			"0.009": 9.78109045227,
			"0.01": 13.5583592786,
			"0.011": 17.3360902835,
			"0.012": 15.4322807061,
			"0.013": 2.76026031937,
			"0.014": 0.00216637015872,
			"0.015": 0.0,
			"0.016": 0.0,
			"0.017": 0.0,
			"0.018": 0.0,
			"0.019": 0.0,
			"0.02": 0.0,
			"0.021": 0.0,
			"0.022": 0.0,
			"0.023": 0.0,
			"0.024": 0.0,
			"0.025": 0.0
		}
	}
}
