{
	 "smiles": "OC(=O)CCNS(=O)(=O)C1=CC(Br)=CC=C1", 
	 "Tm": 420.15, 
	 "num_atms": 26, 
	 "gaussian": { 
		 "optdone": 1, 
		 "sigma_profile": "yes", 
		 "theory": "DFT", 
		 "functional": "B3LYP", 
		 "basiset": "6-31G**", 
		 "properties": { 
			 "R2extent": 7006.0088, 
			 "electric_dipole_moment_norm": 6.32970025831, 
			 "electric_quadrupole_moment_norm": 21.2482496865, 
			 "total_energy": -3674.16097946, 
			 "HOMO_LUMO_gap": 0.19546, 
			 "cosmo_polarized_energy": -21.32, 
			 "cosmo_cavitation_energy": 33.8, 
			 "cosmo_dispersion_energy": -24.65, 
			 "cosmo_repulsion_energy": 1.89, 
			 "cosmo_total_nonelectrostatic_energy": 11.05, 
			 "SMD_solvation_energy": 4.34 
		},
		"coords": [
			{
				"x": 0.9298475179,
				"y": -0.8116959473,
				"z": -3.9503104345,
				"element": "O" 
			},
			{
				"x": 1.6361140297,
				"y": -1.9259430267,
				"z": -3.6598054832,
				"element": "C" 
			},
			{
				"x": 1.310354427,
				"y": -3.0048800687,
				"z": -4.0922056809,
				"element": "O" 
			},
			{
				"x": 2.826986053,
				"y": -1.7179529331,
				"z": -2.722875823,
				"element": "C" 
			},
			{
				"x": 2.3795354809,
				"y": -1.3436277269,
				"z": -1.278012339,
				"element": "C" 
			},
			{
				"x": 3.013486039,
				"y": -0.1600573146,
				"z": -0.6787533416,
				"element": "N" 
			},
			{
				"x": 2.5551062144,
				"y": 1.3715075492,
				"z": -1.1958754971,
				"element": "S" 
			},
			{
				"x": 3.6398856104,
				"y": 2.2635293287,
				"z": -0.7894548002,
				"element": "O" 
			},
			{
				"x": 2.1128308827,
				"y": 1.3282341897,
				"z": -2.6060504338,
				"element": "O" 
			},
			{
				"x": 1.096791718,
				"y": 1.7130654226,
				"z": -0.2113128516,
				"element": "C" 
			},
			{
				"x": -0.1649179108,
				"y": 1.4554471904,
				"z": -0.7502613138,
				"element": "C" 
			},
			{
				"x": -1.2814830484,
				"y": 1.7206462209,
				"z": 0.0422836501,
				"element": "C" 
			},
			{
				"x": -3.0206293187,
				"y": 1.3788377771,
				"z": -0.655454449,
				"element": "Br" 
			},
			{
				"x": -1.1456452784,
				"y": 2.2371969394,
				"z": 1.3308581644,
				"element": "C" 
			},
			{
				"x": 0.1295805063,
				"y": 2.4952181297,
				"z": 1.8392050683,
				"element": "C" 
			},
			{
				"x": 1.2639853829,
				"y": 2.2343242083,
				"z": 1.0732704777,
				"element": "C" 
			},
			{
				"x": 1.3662037507,
				"y": -0.0158051515,
				"z": -3.5844488314,
				"element": "H" 
			},
			{
				"x": 3.4013804903,
				"y": -2.6455008177,
				"z": -2.7190188472,
				"element": "H" 
			},
			{
				"x": 3.4629332821,
				"y": -0.9233364868,
				"z": -3.1255546152,
				"element": "H" 
			},
			{
				"x": 1.2986190631,
				"y": -1.1812342817,
				"z": -1.2339985377,
				"element": "H" 
			},
			{
				"x": 2.5835333536,
				"y": -2.1736809982,
				"z": -0.5969857772,
				"element": "H" 
			},
			{
				"x": 4.0278394997,
				"y": -0.1842829471,
				"z": -0.6071090253,
				"element": "H" 
			},
			{
				"x": -0.2731927095,
				"y": 1.0723695692,
				"z": -1.757586463,
				"element": "H" 
			},
			{
				"x": -2.0280652415,
				"y": 2.4406589068,
				"z": 1.9266235655,
				"element": "H" 
			},
			{
				"x": 0.233996247,
				"y": 2.906659682,
				"z": 2.8381716949,
				"element": "H" 
			},
			{
				"x": 2.2588239586,
				"y": 2.4427025864,
				"z": 1.4500619239,
				"element": "H" 
			}
		],
		 "valence_orbital": [ 
			{
				"type": "occ",
				"energy": -0.3056,
				"method": "rhf"
			},
			{
				"type": "occ",
				"energy": -0.30434,
				"method": "rhf"
			},
			{
				"type": "occ",
				"energy": -0.29105,
				"method": "rhf"
			},
			{
				"type": "occ",
				"energy": -0.26936,
				"method": "rhf"
			},
			{
				"type": "occ",
				"energy": -0.25948,
				"method": "rhf"
			},
			{
				"type": "unocc",
				"energy": -0.06402,
				"method": "rhf"
			},
			{
				"type": "unocc",
				"energy": -0.04589,
				"method": "rhf"
			},
			{
				"type": "unocc",
				"energy": -0.0167,
				"method": "rhf"
			},
			{
				"type": "unocc",
				"energy": 0.01124,
				"method": "rhf"
			},
			{
				"type": "unocc",
				"energy": 0.03984,
				"method": "rhf"
			}
		],
		"cosmo_sigma_profile": { 
			"-0.025": 0.0,
			"-0.024": 0.0,
			"-0.023": 0.0,
			"-0.022": 0.0,
			"-0.021": 0.0,
			"-0.02": 0.0,
			"-0.019": 0.0,
			"-0.018": 0.0,
			"-0.017": 0.0,
			"-0.016": 0.317014150279,
			"-0.015": 1.16018243319,
			"-0.014": 0.962809919677,
			"-0.013": 1.39290093247,
			"-0.012": 1.91301691426,
			"-0.011": 1.31780435735,
			"-0.01": 1.26153469952,
			"-0.009": 2.81625555369,
			"-0.008": 9.56405320573,
			"-0.007": 16.3603131936,
			"-0.006": 18.2103539025,
			"-0.005": 18.45132727,
			"-0.004": 15.6943468873,
			"-0.003": 14.5681621569,
			"-0.002": 13.703519318,
			"-0.001": 13.9652448165,
			"0.0": 21.9335393698,
			"0.001": 21.7580410984,
			"0.002": 14.5696482769,
			"0.003": 11.996675685,
			"0.004": 14.3794600618,
			"0.005": 5.21254639464,
			"0.006": 4.92698679291,
			"0.007": 5.08552895149,
			"0.008": 6.34237789946,
			"0.009": 6.50836740721,
			"0.01": 10.4362328574,
			"0.011": 7.78878719579,
			"0.012": 6.46650352383,
			"0.013": 3.63507248385,
			"0.014": 0.430277575503,
			"0.015": 0.0,
			"0.016": 0.0,
			"0.017": 0.0,
			"0.018": 0.0,
			"0.019": 0.0,
			"0.02": 0.0,
			"0.021": 0.0,
			"0.022": 0.0,
			"0.023": 0.0,
			"0.024": 0.0,
			"0.025": 0.0
		}
	}
}
