{
	 "smiles": "NC1=CC2=C(C=C1)N=C(S2)N1CCOCC1", 
	 "Tm": 440.15, 
	 "num_atms": 29, 
	 "gaussian": { 
		 "optdone": 1, 
		 "sigma_profile": "yes", 
		 "theory": "DFT", 
		 "functional": "B3LYP", 
		 "basiset": "6-31G**", 
		 "properties": { 
			 "R2extent": 5524.0871, 
			 "electric_dipole_moment_norm": 1.76058865724, 
			 "electric_quadrupole_moment_norm": 10.9202672769, 
			 "total_energy": -1064.6595888, 
			 "HOMO_LUMO_gap": 0.17881, 
			 "cosmo_polarized_energy": -14.7, 
			 "cosmo_cavitation_energy": 32.72, 
			 "cosmo_dispersion_energy": -25.28, 
			 "cosmo_repulsion_energy": 1.92, 
			 "cosmo_total_nonelectrostatic_energy": 9.36, 
			 "SMD_solvation_energy": 2.69 
		},
		"coords": [
			{
				"x": -1.1981920554,
				"y": -5.4748067348,
				"z": 1.467756108,
				"element": "N" 
			},
			{
				"x": -0.575280213,
				"y": -4.2173646122,
				"z": 1.4345312834,
				"element": "C" 
			},
			{
				"x": -1.2607039803,
				"y": -3.0971682313,
				"z": 0.9399922962,
				"element": "C" 
			},
			{
				"x": -0.5859489379,
				"y": -1.8819048795,
				"z": 0.8633465386,
				"element": "C" 
			},
			{
				"x": 0.7605555783,
				"y": -1.7320297984,
				"z": 1.2682461873,
				"element": "C" 
			},
			{
				"x": 1.4300247009,
				"y": -2.859194957,
				"z": 1.7609138264,
				"element": "C" 
			},
			{
				"x": 0.7689143088,
				"y": -4.0793060358,
				"z": 1.8398048316,
				"element": "C" 
			},
			{
				"x": 1.2988467114,
				"y": -0.4594310423,
				"z": 1.1436445412,
				"element": "N" 
			},
			{
				"x": 0.4245579451,
				"y": 0.3697565326,
				"z": 0.6590177665,
				"element": "C" 
			},
			{
				"x": -1.1948133717,
				"y": -0.3306071687,
				"z": 0.2885759567,
				"element": "S" 
			},
			{
				"x": 0.6561369668,
				"y": 1.6910032494,
				"z": 0.4224456963,
				"element": "N" 
			},
			{
				"x": -0.3495854677,
				"y": 2.5721524051,
				"z": -0.1642022524,
				"element": "C" 
			},
			{
				"x": 0.100972678,
				"y": 4.0215079207,
				"z": 0.005804212,
				"element": "C" 
			},
			{
				"x": 1.3542673519,
				"y": 4.2864366127,
				"z": -0.6061788328,
				"element": "O" 
			},
			{
				"x": 2.3151009055,
				"y": 3.2325812644,
				"z": -0.4933675302,
				"element": "C" 
			},
			{
				"x": 2.0000074312,
				"y": 2.2390888339,
				"z": 0.6207112218,
				"element": "C" 
			},
			{
				"x": -0.8146374135,
				"y": -6.1080056129,
				"z": 2.1570438515,
				"element": "H" 
			},
			{
				"x": -2.2069331645,
				"y": -5.4389952982,
				"z": 1.5340237684,
				"element": "H" 
			},
			{
				"x": -2.2943567949,
				"y": -3.1880686766,
				"z": 0.6182294376,
				"element": "H" 
			},
			{
				"x": 2.463084234,
				"y": -2.7654728895,
				"z": 2.0799616585,
				"element": "H" 
			},
			{
				"x": 1.29663369,
				"y": -4.9517222555,
				"z": 2.217148558,
				"element": "H" 
			},
			{
				"x": -0.5012259516,
				"y": 2.3505853366,
				"z": -1.2316168476,
				"element": "H" 
			},
			{
				"x": -1.3130322759,
				"y": 2.4357335743,
				"z": 0.3441352396,
				"element": "H" 
			},
			{
				"x": 0.1301121276,
				"y": 4.2665320276,
				"z": 1.0791568518,
				"element": "H" 
			},
			{
				"x": -0.6248205368,
				"y": 4.6893924993,
				"z": -0.4674909212,
				"element": "H" 
			},
			{
				"x": 2.37373069,
				"y": 2.6940261453,
				"z": -1.450600427,
				"element": "H" 
			},
			{
				"x": 3.2904211392,
				"y": 3.6974230598,
				"z": -0.309267407,
				"element": "H" 
			},
			{
				"x": 2.081038296,
				"y": 2.7217259346,
				"z": 1.6047070236,
				"element": "H" 
			},
			{
				"x": 2.7117254084,
				"y": 1.4112327965,
				"z": 0.6042273631,
				"element": "H" 
			}
		],
		 "valence_orbital": [ 
			{
				"type": "occ",
				"energy": -0.26426,
				"method": "rhf"
			},
			{
				"type": "occ",
				"energy": -0.2568,
				"method": "rhf"
			},
			{
				"type": "occ",
				"energy": -0.24152,
				"method": "rhf"
			},
			{
				"type": "occ",
				"energy": -0.22193,
				"method": "rhf"
			},
			{
				"type": "occ",
				"energy": -0.17579,
				"method": "rhf"
			},
			{
				"type": "unocc",
				"energy": 0.00302,
				"method": "rhf"
			},
			{
				"type": "unocc",
				"energy": 0.01013,
				"method": "rhf"
			},
			{
				"type": "unocc",
				"energy": 0.0151,
				"method": "rhf"
			},
			{
				"type": "unocc",
				"energy": 0.06046,
				"method": "rhf"
			},
			{
				"type": "unocc",
				"energy": 0.07869,
				"method": "rhf"
			}
		],
		"cosmo_sigma_profile": { 
			"-0.025": 0.0,
			"-0.024": 0.0,
			"-0.023": 0.0,
			"-0.022": 0.0,
			"-0.021": 0.0,
			"-0.02": 0.0,
			"-0.019": 0.0,
			"-0.018": 0.0,
			"-0.017": 0.0,
			"-0.016": 0.0,
			"-0.015": 0.0,
			"-0.014": 0.0,
			"-0.013": 0.0821122256985,
			"-0.012": 2.04185784682,
			"-0.011": 2.79609972834,
			"-0.01": 2.6825595164,
			"-0.009": 3.21611656942,
			"-0.008": 3.74625191827,
			"-0.007": 4.03321891784,
			"-0.006": 12.4873096819,
			"-0.005": 27.0561277371,
			"-0.004": 29.2082055343,
			"-0.003": 21.2577287542,
			"-0.002": 15.1257426082,
			"-0.001": 11.454978036,
			"0.0": 10.2245856048,
			"0.001": 12.1326432226,
			"0.002": 15.6284797535,
			"0.003": 13.3299009969,
			"0.004": 13.3948511805,
			"0.005": 16.9091566294,
			"0.006": 15.7046343511,
			"0.007": 5.00294746625,
			"0.008": 4.54051415053,
			"0.009": 3.83027127046,
			"0.01": 3.21932331415,
			"0.011": 2.59921795062,
			"0.012": 3.86899949933,
			"0.013": 2.9981558594,
			"0.014": 1.47327946106,
			"0.015": 0.430315359715,
			"0.016": 0.195848428122,
			"0.017": 0.0,
			"0.018": 0.0,
			"0.019": 0.0,
			"0.02": 0.0,
			"0.021": 0.0,
			"0.022": 0.0,
			"0.023": 0.0,
			"0.024": 0.0,
			"0.025": 0.0
		}
	}
}
