{
	 "smiles": "CC1=CC(=C(O)C(=C1)C(O)=O)S(N)(=O)=O", 
	 "Tm": 492.15, 
	 "num_atms": 24, 
	 "gaussian": { 
		 "optdone": 1, 
		 "sigma_profile": "yes", 
		 "theory": "DFT", 
		 "functional": "B3LYP", 
		 "basiset": "6-31G**", 
		 "properties": { 
			 "R2extent": 4088.9677, 
			 "electric_dipole_moment_norm": 3.15568275021, 
			 "electric_quadrupole_moment_norm": 18.31399987, 
			 "total_energy": -1139.28691462, 
			 "HOMO_LUMO_gap": 0.17952, 
			 "cosmo_polarized_energy": -20.34, 
			 "cosmo_cavitation_energy": 29.8, 
			 "cosmo_dispersion_energy": -22.56, 
			 "cosmo_repulsion_energy": 1.73, 
			 "cosmo_total_nonelectrostatic_energy": 8.97, 
			 "SMD_solvation_energy": 6.47 
		},
		"coords": [
			{
				"x": 2.2967631179,
				"y": -0.9040718427,
				"z": -1.501310347,
				"element": "C" 
			},
			{
				"x": 1.0380439153,
				"y": -0.3155258543,
				"z": -0.9091139013,
				"element": "C" 
			},
			{
				"x": 0.9901981298,
				"y": 0.1281525511,
				"z": 0.4122620017,
				"element": "C" 
			},
			{
				"x": -0.1882967949,
				"y": 0.6473483651,
				"z": 0.9523739718,
				"element": "C" 
			},
			{
				"x": -1.3919247212,
				"y": 0.7209454237,
				"z": 0.2076761474,
				"element": "C" 
			},
			{
				"x": -2.5406993076,
				"y": 1.1692391318,
				"z": 0.7265157077,
				"element": "O" 
			},
			{
				"x": -1.3372379712,
				"y": 0.290502557,
				"z": -1.1420634191,
				"element": "C" 
			},
			{
				"x": -0.1352267903,
				"y": -0.2078160154,
				"z": -1.6593782276,
				"element": "C" 
			},
			{
				"x": -2.4831283067,
				"y": 0.3061225618,
				"z": -2.1010580591,
				"element": "C" 
			},
			{
				"x": -3.6337944526,
				"y": 0.8115039918,
				"z": -1.6167859612,
				"element": "O" 
			},
			{
				"x": -2.3940399417,
				"y": -0.101141664,
				"z": -3.2458864297,
				"element": "O" 
			},
			{
				"x": -0.12541528,
				"y": 1.2655893163,
				"z": 2.6199693119,
				"element": "S" 
			},
			{
				"x": 0.1044471814,
				"y": 2.9283647188,
				"z": 2.4167998794,
				"element": "N" 
			},
			{
				"x": 1.0243986927,
				"y": 0.6711492028,
				"z": 3.3022353131,
				"element": "O" 
			},
			{
				"x": -1.4851718984,
				"y": 1.1605882746,
				"z": 3.1964585721,
				"element": "O" 
			},
			{
				"x": 2.481525042,
				"y": -0.5171174956,
				"z": -2.5083782392,
				"element": "H" 
			},
			{
				"x": 3.171293101,
				"y": -0.6753636143,
				"z": -0.8860415852,
				"element": "H" 
			},
			{
				"x": 2.2263327852,
				"y": -1.9953699998,
				"z": -1.5811194695,
				"element": "H" 
			},
			{
				"x": 1.8689402954,
				"y": 0.0690882378,
				"z": 1.0470970027,
				"element": "H" 
			},
			{
				"x": -2.4464975443,
				"y": 1.2410585528,
				"z": 1.7012803041,
				"element": "H" 
			},
			{
				"x": -0.1536573914,
				"y": -0.5280420311,
				"z": -2.6965136236,
				"element": "H" 
			},
			{
				"x": -4.2653359333,
				"y": 0.7509575371,
				"z": -2.353600621,
				"element": "H" 
			},
			{
				"x": 1.0940874636,
				"y": 3.163178146,
				"z": 2.4428692903,
				"element": "H" 
			},
			{
				"x": -0.4078033908,
				"y": 3.4160599487,
				"z": 3.1488123814,
				"element": "H" 
			}
		],
		 "valence_orbital": [ 
			{
				"type": "occ",
				"energy": -0.31834,
				"method": "rhf"
			},
			{
				"type": "occ",
				"energy": -0.3082,
				"method": "rhf"
			},
			{
				"type": "occ",
				"energy": -0.27901,
				"method": "rhf"
			},
			{
				"type": "occ",
				"energy": -0.27569,
				"method": "rhf"
			},
			{
				"type": "occ",
				"energy": -0.23979,
				"method": "rhf"
			},
			{
				"type": "unocc",
				"energy": -0.06027,
				"method": "rhf"
			},
			{
				"type": "unocc",
				"energy": -0.02859,
				"method": "rhf"
			},
			{
				"type": "unocc",
				"energy": 0.03609,
				"method": "rhf"
			},
			{
				"type": "unocc",
				"energy": 0.04393,
				"method": "rhf"
			},
			{
				"type": "unocc",
				"energy": 0.06133,
				"method": "rhf"
			}
		],
		"cosmo_sigma_profile": { 
			"-0.025": 0.0,
			"-0.024": 0.0,
			"-0.023": 0.0,
			"-0.022": 0.0,
			"-0.021": 0.0,
			"-0.02": 0.0,
			"-0.019": 0.0011207212452,
			"-0.018": 0.671118230707,
			"-0.017": 0.853666381739,
			"-0.016": 1.38114088565,
			"-0.015": 3.90879917291,
			"-0.014": 2.96435469089,
			"-0.013": 3.85371912088,
			"-0.012": 2.99800673094,
			"-0.011": 3.14858538908,
			"-0.01": 2.60610662782,
			"-0.009": 2.59825723501,
			"-0.008": 2.74476253672,
			"-0.007": 4.83569083066,
			"-0.006": 7.11897520077,
			"-0.005": 10.324873138,
			"-0.004": 13.955594289,
			"-0.003": 15.4418719414,
			"-0.002": 16.5724294115,
			"-0.001": 19.9707266295,
			"0.0": 19.4125086819,
			"0.001": 16.9850669214,
			"0.002": 12.8464725333,
			"0.003": 5.3824750322,
			"0.004": 5.03672104295,
			"0.005": 6.52180758302,
			"0.006": 5.9200300118,
			"0.007": 7.20999170723,
			"0.008": 5.21663916099,
			"0.009": 9.25604574521,
			"0.01": 10.8757523128,
			"0.011": 9.53483376427,
			"0.012": 5.01779603504,
			"0.013": 1.71342348669,
			"0.014": 0.310617604731,
			"0.015": 0.0,
			"0.016": 0.0,
			"0.017": 0.0,
			"0.018": 0.0,
			"0.019": 0.0,
			"0.02": 0.0,
			"0.021": 0.0,
			"0.022": 0.0,
			"0.023": 0.0,
			"0.024": 0.0,
			"0.025": 0.0
		}
	}
}
