{
	 "smiles": "BrCC1=CC=C(I)C=C1", 
	 "Tm": 353.15, 
	 "num_atms": 15, 
	 "gaussian": { 
		 "optdone": 1, 
		 "sigma_profile": "no", 
		 "theory": "DFT", 
		 "functional": "B3LYP", 
		 "basiset": "6-31G**", 
		 "properties": { 
			 "R2extent": 2449.9851, 
			 "electric_dipole_moment_norm": 1.83951161453, 
			 "electric_quadrupole_moment_norm": 9.66072684843, 
			 "total_energy": -2853.15577658, 
			 "HOMO_LUMO_gap": 0.19351, 
			 "cosmo_polarized_energy": -102186.55, 
			 "cosmo_cavitation_energy": 24.61, 
			 "cosmo_dispersion_energy": -19.74, 
			 "cosmo_repulsion_energy": 1.59, 
			 "cosmo_total_nonelectrostatic_energy": 6.46, 
			 "SMD_solvation_energy": 2.04 
		},
		"coords": [
			{
				"x": 0.0422976498,
				"y": -2.6842384725,
				"z": 0.2033825922,
				"element": "Br" 
			},
			{
				"x": 1.2631540966,
				"y": -1.2665372115,
				"z": 0.9285704904,
				"element": "C" 
			},
			{
				"x": 0.9036234843,
				"y": 0.0955715186,
				"z": 0.4322833273,
				"element": "C" 
			},
			{
				"x": 0.0010492633,
				"y": 0.8991479748,
				"z": 1.1410820563,
				"element": "C" 
			},
			{
				"x": -0.328859603,
				"y": 2.1774107489,
				"z": 0.6931049933,
				"element": "C" 
			},
			{
				"x": 0.2512576031,
				"y": 2.6580078741,
				"z": -0.4827687808,
				"element": "C" 
			},
			{
				"x": -0.2367310683,
				"y": 4.6022373701,
				"z": -1.1716129943,
				"element": "I" 
			},
			{
				"x": 1.151641379,
				"y": 1.8752442018,
				"z": -1.2085635243,
				"element": "C" 
			},
			{
				"x": 1.4701200675,
				"y": 0.5993265385,
				"z": -0.7458836185,
				"element": "C" 
			},
			{
				"x": 1.168834683,
				"y": -1.3594933747,
				"z": 2.0088572265,
				"element": "H" 
			},
			{
				"x": 2.2558927385,
				"y": -1.5813364837,
				"z": 0.6124635627,
				"element": "H" 
			},
			{
				"x": -0.4534001278,
				"y": 0.522483058,
				"z": 2.0535978256,
				"element": "H" 
			},
			{
				"x": -1.0264954857,
				"y": 2.7881307778,
				"z": 1.2548206896,
				"element": "H" 
			},
			{
				"x": 1.6011350253,
				"y": 2.2517976401,
				"z": -2.120348234,
				"element": "H" 
			},
			{
				"x": 2.1671802942,
				"y": -0.0123521602,
				"z": -1.312485612,
				"element": "H" 
			}
		],
		 "valence_orbital": [ 
			{
				"type": "occ",
				"energy": -0.27772,
				"method": "rhf"
			},
			{
				"type": "occ",
				"energy": -0.27572,
				"method": "rhf"
			},
			{
				"type": "occ",
				"energy": -0.27328,
				"method": "rhf"
			},
			{
				"type": "occ",
				"energy": -0.27029,
				"method": "rhf"
			},
			{
				"type": "occ",
				"energy": -0.24331,
				"method": "rhf"
			},
			{
				"type": "unocc",
				"energy": -0.0498,
				"method": "rhf"
			},
			{
				"type": "unocc",
				"energy": -0.04361,
				"method": "rhf"
			},
			{
				"type": "unocc",
				"energy": -0.0237,
				"method": "rhf"
			},
			{
				"type": "unocc",
				"energy": 0.01604,
				"method": "rhf"
			},
			{
				"type": "unocc",
				"energy": 0.04014,
				"method": "rhf"
			}
		],
		"cosmo_sigma_profile": { 
			"0.0": 0.0,
			"0.0": 0.0,
			"0.0": 0.0,
			"0.0": 0.0,
			"0.0": 0.0,
			"0.0": 0.0,
			"0.0": 0.0,
			"0.0": 0.0,
			"0.0": 0.0,
			"0.0": 0.0,
			"0.0": 0.0,
			"0.0": 0.0,
			"0.0": 0.0,
			"0.0": 0.0,
			"0.0": 0.0,
			"0.0": 0.0,
			"0.0": 0.0,
			"0.0": 0.0,
			"0.0": 0.0,
			"0.0": 0.0,
			"0.0": 0.0,
			"0.0": 0.0,
			"0.0": 0.0,
			"0.0": 0.0,
			"0.0": 0.0,
			"0.0": 0.0,
			"0.0": 0.0,
			"0.0": 0.0,
			"0.0": 0.0,
			"0.0": 0.0,
			"0.0": 0.0,
			"0.0": 0.0,
			"0.0": 0.0,
			"0.0": 0.0,
			"0.0": 0.0,
			"0.0": 0.0,
			"0.0": 0.0,
			"0.0": 0.0,
			"0.0": 0.0,
			"0.0": 0.0,
			"0.0": 0.0,
			"0.0": 0.0,
			"0.0": 0.0,
			"0.0": 0.0,
			"0.0": 0.0,
			"0.0": 0.0,
			"0.0": 0.0,
			"0.0": 0.0,
			"0.0": 0.0,
			"0.0": 0.0,
			"0.0": 0.0
		}
	}
}
