{
	 "smiles": "CC(N(C(=O)C1=CC=CC=C1)C1=CC=C(F)C(Cl)=C1)C(O)=O", 
	 "Tm": 358.15, 
	 "num_atms": 35, 
	 "gaussian": { 
		 "optdone": 1, 
		 "sigma_profile": "yes", 
		 "theory": "DFT", 
		 "functional": "B3LYP", 
		 "basiset": "6-31G**", 
		 "properties": { 
			 "R2extent": 8588.4651, 
			 "electric_dipole_moment_norm": 1.63836725431, 
			 "electric_quadrupole_moment_norm": 24.9691004808, 
			 "total_energy": -1457.99113464, 
			 "HOMO_LUMO_gap": 0.19618, 
			 "cosmo_polarized_energy": -23.77, 
			 "cosmo_cavitation_energy": 41.31, 
			 "cosmo_dispersion_energy": -27.83, 
			 "cosmo_repulsion_energy": 2.1, 
			 "cosmo_total_nonelectrostatic_energy": 15.58, 
			 "SMD_solvation_energy": 8.95 
		},
		"coords": [
			{
				"x": -1.0748640563,
				"y": 0.9208400365,
				"z": -1.294918093,
				"element": "C" 
			},
			{
				"x": 0.3046735773,
				"y": 0.8824288728,
				"z": -0.6315974252,
				"element": "C" 
			},
			{
				"x": 0.6091216433,
				"y": -0.313439472,
				"z": 0.2063144445,
				"element": "N" 
			},
			{
				"x": -0.3389893734,
				"y": -0.9772665013,
				"z": 1.0249886228,
				"element": "C" 
			},
			{
				"x": -0.2330187676,
				"y": -2.17587549,
				"z": 1.2317358281,
				"element": "O" 
			},
			{
				"x": -1.4513158553,
				"y": -0.2005132541,
				"z": 1.665277913,
				"element": "C" 
			},
			{
				"x": -1.2751156943,
				"y": 1.0332644541,
				"z": 2.3065589438,
				"element": "C" 
			},
			{
				"x": -2.3493439687,
				"y": 1.6439065828,
				"z": 2.9564325024,
				"element": "C" 
			},
			{
				"x": -3.6041947041,
				"y": 1.0348228665,
				"z": 2.9655892854,
				"element": "C" 
			},
			{
				"x": -3.78096781,
				"y": -0.2042000995,
				"z": 2.3427692096,
				"element": "C" 
			},
			{
				"x": -2.7079074847,
				"y": -0.8261483869,
				"z": 1.7110512922,
				"element": "C" 
			},
			{
				"x": 1.6939327177,
				"y": -1.1552038759,
				"z": -0.2483239151,
				"element": "C" 
			},
			{
				"x": 2.7086474225,
				"y": -1.5121894184,
				"z": 0.6452396075,
				"element": "C" 
			},
			{
				"x": 3.7738263551,
				"y": -2.3023103163,
				"z": 0.2220168047,
				"element": "C" 
			},
			{
				"x": 3.8291191007,
				"y": -2.7307883408,
				"z": -1.0990959786,
				"element": "C" 
			},
			{
				"x": 4.8625504234,
				"y": -3.478683643,
				"z": -1.5079199774,
				"element": "F" 
			},
			{
				"x": 2.8199016191,
				"y": -2.3871346529,
				"z": -2.0001062994,
				"element": "C" 
			},
			{
				"x": 2.9042181352,
				"y": -2.9463762573,
				"z": -3.6496718295,
				"element": "Cl" 
			},
			{
				"x": 1.7462551294,
				"y": -1.6089531794,
				"z": -1.5695477118,
				"element": "C" 
			},
			{
				"x": 0.6456520985,
				"y": 2.2135867968,
				"z": 0.0706134431,
				"element": "C" 
			},
			{
				"x": 1.5940245157,
				"y": 2.1293071915,
				"z": 1.0324257084,
				"element": "O" 
			},
			{
				"x": 0.1729730014,
				"y": 3.2710845382,
				"z": -0.2601351143,
				"element": "O" 
			},
			{
				"x": -1.2450813793,
				"y": 0.0062409517,
				"z": -1.8698849259,
				"element": "H" 
			},
			{
				"x": -1.1105532769,
				"y": 1.7769780081,
				"z": -1.9706776883,
				"element": "H" 
			},
			{
				"x": -1.8797045407,
				"y": 1.0346035137,
				"z": -0.5692075059,
				"element": "H" 
			},
			{
				"x": 1.0463690375,
				"y": 0.8394981939,
				"z": -1.4371772152,
				"element": "H" 
			},
			{
				"x": -0.3029441388,
				"y": 1.510125319,
				"z": 2.3330903624,
				"element": "H" 
			},
			{
				"x": -2.1998815623,
				"y": 2.5957316711,
				"z": 3.4568311285,
				"element": "H" 
			},
			{
				"x": -4.4396351881,
				"y": 1.5178336525,
				"z": 3.4638485419,
				"element": "H" 
			},
			{
				"x": -4.7526878925,
				"y": -0.6887660177,
				"z": 2.3583057526,
				"element": "H" 
			},
			{
				"x": -2.8243784867,
				"y": -1.8006415008,
				"z": 1.2487726146,
				"element": "H" 
			},
			{
				"x": 2.6547951717,
				"y": -1.1871602309,
				"z": 1.6793685568,
				"element": "H" 
			},
			{
				"x": 4.5709271111,
				"y": -2.5898833125,
				"z": 0.8985605609,
				"element": "H" 
			},
			{
				"x": 0.9541945159,
				"y": -1.3724065366,
				"z": -2.2709475446,
				"element": "H" 
			},
			{
				"x": 1.7902026043,
				"y": 1.186687837,
				"z": 1.1721201009,
				"element": "H" 
			}
		],
		 "valence_orbital": [ 
			{
				"type": "occ",
				"energy": -0.28159,
				"method": "rhf"
			},
			{
				"type": "occ",
				"energy": -0.26979,
				"method": "rhf"
			},
			{
				"type": "occ",
				"energy": -0.26814,
				"method": "rhf"
			},
			{
				"type": "occ",
				"energy": -0.25812,
				"method": "rhf"
			},
			{
				"type": "occ",
				"energy": -0.24903,
				"method": "rhf"
			},
			{
				"type": "unocc",
				"energy": -0.05285,
				"method": "rhf"
			},
			{
				"type": "unocc",
				"energy": -0.04009,
				"method": "rhf"
			},
			{
				"type": "unocc",
				"energy": -0.02379,
				"method": "rhf"
			},
			{
				"type": "unocc",
				"energy": -0.02094,
				"method": "rhf"
			},
			{
				"type": "unocc",
				"energy": 0.0031,
				"method": "rhf"
			}
		],
		"cosmo_sigma_profile": { 
			"-0.025": -31.0135149747,
			"-0.024": 0.0558517198586,
			"-0.023": 0.144509206434,
			"-0.022": 0.0101462547469,
			"-0.021": 0.21912034978,
			"-0.02": 0.203969609094,
			"-0.019": 0.0793003899153,
			"-0.018": 0.0506870473967,
			"-0.017": 0.379027983079,
			"-0.016": 0.271600607047,
			"-0.015": 0.154466030599,
			"-0.014": 0.702477540745,
			"-0.013": 2.49758102162,
			"-0.012": 2.12375032338,
			"-0.011": 2.61291484822,
			"-0.01": 3.49457147857,
			"-0.009": 5.29308102408,
			"-0.008": 7.31101725962,
			"-0.007": 8.49878172457,
			"-0.006": 15.4034008219,
			"-0.005": 16.0264391652,
			"-0.004": 19.9522297133,
			"-0.003": 17.2535922688,
			"-0.002": 18.4037580274,
			"-0.001": 26.2113851488,
			"0.0": 28.1885502285,
			"0.001": 24.6594543686,
			"0.002": 22.5981862088,
			"0.003": 26.4160466739,
			"0.004": 29.4209431356,
			"0.005": 8.83717254267,
			"0.006": 3.74043067003,
			"0.007": 4.87779901313,
			"0.008": 5.47541013502,
			"0.009": 4.71537124797,
			"0.01": 6.98235231242,
			"0.011": 7.48165123213,
			"0.012": 8.51565924246,
			"0.013": 2.78477363885,
			"0.014": 0.0701537259934,
			"0.015": 0.0,
			"0.016": 0.0,
			"0.017": 0.139020269286,
			"0.018": 0.118940050899,
			"0.019": -0.250493539185,
			"0.02": 0.657049486344,
			"0.021": -0.557927061614,
			"0.022": -0.0850604347302,
			"0.023": 5.2990145318,
			"0.024": -5.1976500548,
			"0.025": 0.722475817701
		}
	}
}
