{
	 "smiles": "CC(=N/NC(N)=O)C1CC2(C)CCC1C2(C)C", 
	 "Tm": 509.15, 
	 "num_atms": 40, 
	 "gaussian": { 
		 "optdone": 1, 
		 "sigma_profile": "yes", 
		 "theory": "DFT", 
		 "functional": "B3LYP", 
		 "basiset": "6-31G**", 
		 "properties": { 
			 "R2extent": 6112.7245, 
			 "electric_dipole_moment_norm": 4.04145344771, 
			 "electric_quadrupole_moment_norm": 29.7100874006, 
			 "total_energy": -748.730144896, 
			 "HOMO_LUMO_gap": 0.2212, 
			 "cosmo_polarized_energy": -13.79, 
			 "cosmo_cavitation_energy": 38.09, 
			 "cosmo_dispersion_energy": -26.34, 
			 "cosmo_repulsion_energy": 2.03, 
			 "cosmo_total_nonelectrostatic_energy": 13.77, 
			 "SMD_solvation_energy": 6.8 
		},
		"coords": [
			{
				"x": 0.9625009083,
				"y": -1.6976783918,
				"z": 2.5731868752,
				"element": "C" 
			},
			{
				"x": 1.1022022156,
				"y": -0.2497906747,
				"z": 2.1535278852,
				"element": "C" 
			},
			{
				"x": 2.1650025758,
				"y": 0.4438268304,
				"z": 2.3606102414,
				"element": "N" 
			},
			{
				"x": 3.2328948782,
				"y": -0.1428071666,
				"z": 2.9704550827,
				"element": "N" 
			},
			{
				"x": 4.4141424723,
				"y": 0.5561059419,
				"z": 3.2166083027,
				"element": "C" 
			},
			{
				"x": 4.4399729276,
				"y": 1.8241362657,
				"z": 2.7064727732,
				"element": "N" 
			},
			{
				"x": 5.3344469821,
				"y": 0.0194730833,
				"z": 3.8188099646,
				"element": "O" 
			},
			{
				"x": -0.1049078212,
				"y": 0.4159231239,
				"z": 1.5261565314,
				"element": "C" 
			},
			{
				"x": -0.6836001133,
				"y": -0.3231243595,
				"z": 0.2635995215,
				"element": "C" 
			},
			{
				"x": -0.8909074563,
				"y": 0.8158082655,
				"z": -0.7707473599,
				"element": "C" 
			},
			{
				"x": -1.1314577095,
				"y": 0.3172900338,
				"z": -2.1906954797,
				"element": "C" 
			},
			{
				"x": -2.0344535018,
				"y": 1.7110302132,
				"z": -0.2120587775,
				"element": "C" 
			},
			{
				"x": -1.3703690267,
				"y": 2.4672060799,
				"z": 0.9811318246,
				"element": "C" 
			},
			{
				"x": 0.0587883657,
				"y": 1.8727165954,
				"z": 1.0103683349,
				"element": "C" 
			},
			{
				"x": 0.3787155421,
				"y": 1.7099064973,
				"z": -0.5123294345,
				"element": "C" 
			},
			{
				"x": 1.7176655828,
				"y": 1.0208624864,
				"z": -0.8344757109,
				"element": "C" 
			},
			{
				"x": 0.3845690946,
				"y": 3.0441722567,
				"z": -1.2852419271,
				"element": "C" 
			},
			{
				"x": -0.0194383404,
				"y": -2.0947051675,
				"z": 2.3109481675,
				"element": "H" 
			},
			{
				"x": 1.0876199057,
				"y": -1.8088822735,
				"z": 3.6587510577,
				"element": "H" 
			},
			{
				"x": 1.7185169445,
				"y": -2.3314030784,
				"z": 2.0916480313,
				"element": "H" 
			},
			{
				"x": 3.2186511448,
				"y": -1.0925725811,
				"z": 3.3228182515,
				"element": "H" 
			},
			{
				"x": 5.1898251892,
				"y": 2.4123734224,
				"z": 3.0298063616,
				"element": "H" 
			},
			{
				"x": 3.5749883493,
				"y": 2.2364047194,
				"z": 2.3918431021,
				"element": "H" 
			},
			{
				"x": -0.8743306713,
				"y": 0.4046646921,
				"z": 2.3124516475,
				"element": "H" 
			},
			{
				"x": 0.0137395918,
				"y": -1.0749273002,
				"z": -0.1198077122,
				"element": "H" 
			},
			{
				"x": -1.6236867867,
				"y": -0.8423246718,
				"z": 0.4784742761,
				"element": "H" 
			},
			{
				"x": -2.0420813054,
				"y": -0.2910707704,
				"z": -2.2438168845,
				"element": "H" 
			},
			{
				"x": -0.3017386288,
				"y": -0.3029815402,
				"z": -2.5472898387,
				"element": "H" 
			},
			{
				"x": -1.254700313,
				"y": 1.1503851795,
				"z": -2.8915427131,
				"element": "H" 
			},
			{
				"x": -2.8934346343,
				"y": 1.1057222442,
				"z": 0.0975263306,
				"element": "H" 
			},
			{
				"x": -2.3999285,
				"y": 2.40396708,
				"z": -0.9767486933,
				"element": "H" 
			},
			{
				"x": -1.3509792316,
				"y": 3.5473932286,
				"z": 0.8121418728,
				"element": "H" 
			},
			{
				"x": -1.8960139132,
				"y": 2.3068184401,
				"z": 1.9278574355,
				"element": "H" 
			},
			{
				"x": 0.7770976152,
				"y": 2.4599594615,
				"z": 1.585406729,
				"element": "H" 
			},
			{
				"x": 1.8371151453,
				"y": 0.0404775975,
				"z": -0.3746402652,
				"element": "H" 
			},
			{
				"x": 2.5554634464,
				"y": 1.635220005,
				"z": -0.488971421,
				"element": "H" 
			},
			{
				"x": 1.8272579653,
				"y": 0.8969619983,
				"z": -1.9180211246,
				"element": "H" 
			},
			{
				"x": 1.2086108955,
				"y": 3.6774844696,
				"z": -0.936981026,
				"element": "H" 
			},
			{
				"x": 0.5469460034,
				"y": 2.8659710959,
				"z": -2.35393515,
				"element": "H" 
			},
			{
				"x": -0.5360057883,
				"y": 3.6220066682,
				"z": -1.1878970822,
				"element": "H" 
			}
		],
		 "valence_orbital": [ 
			{
				"type": "occ",
				"energy": -0.28326,
				"method": "rhf"
			},
			{
				"type": "occ",
				"energy": -0.27712,
				"method": "rhf"
			},
			{
				"type": "occ",
				"energy": -0.25877,
				"method": "rhf"
			},
			{
				"type": "occ",
				"energy": -0.25094,
				"method": "rhf"
			},
			{
				"type": "occ",
				"energy": -0.22306,
				"method": "rhf"
			},
			{
				"type": "unocc",
				"energy": -0.00186,
				"method": "rhf"
			},
			{
				"type": "unocc",
				"energy": 0.06625,
				"method": "rhf"
			},
			{
				"type": "unocc",
				"energy": 0.07623,
				"method": "rhf"
			},
			{
				"type": "unocc",
				"energy": 0.08136,
				"method": "rhf"
			},
			{
				"type": "unocc",
				"energy": 0.08618,
				"method": "rhf"
			}
		],
		"cosmo_sigma_profile": { 
			"-0.025": 0.0,
			"-0.024": 0.0,
			"-0.023": 0.0,
			"-0.022": 0.0,
			"-0.021": 0.0,
			"-0.02": 0.0,
			"-0.019": 0.0,
			"-0.018": 0.0,
			"-0.017": 0.0,
			"-0.016": 0.0,
			"-0.015": 0.0,
			"-0.014": 0.462039965138,
			"-0.013": 1.2371832903,
			"-0.012": 2.35687940273,
			"-0.011": 2.34902340799,
			"-0.01": 2.3120340332,
			"-0.009": 2.98860554901,
			"-0.008": 3.49838649643,
			"-0.007": 4.09885406133,
			"-0.006": 3.65799857576,
			"-0.005": 5.48500852864,
			"-0.004": 8.24025728299,
			"-0.003": 22.738098882,
			"-0.002": 44.0512002774,
			"-0.001": 43.9528545398,
			"0.0": 36.8813484577,
			"0.001": 34.9600938876,
			"0.002": 27.6677561322,
			"0.003": 9.00376406759,
			"0.004": 5.45834396614,
			"0.005": 5.77500818654,
			"0.006": 3.82775838024,
			"0.007": 2.93631997037,
			"0.008": 1.69828229118,
			"0.009": 1.55525928089,
			"0.01": 0.929085062295,
			"0.011": 1.48085153561,
			"0.012": 1.91573927264,
			"0.013": 1.84158075994,
			"0.014": 5.61358223598,
			"0.015": 4.57070828996,
			"0.016": 0.199231592447,
			"0.017": 0.0,
			"0.018": 0.0,
			"0.019": 0.0,
			"0.02": 0.0,
			"0.021": 0.0,
			"0.022": 0.0,
			"0.023": 0.0,
			"0.024": 0.0,
			"0.025": 0.0
		}
	}
}
