{
	 "smiles": "COC1=C(OC)C=C(C=C2/SC3=NC4=CC=CC=C4N3C2=O)C=C1", 
	 "Tm": 494.15, 
	 "num_atms": 38, 
	 "gaussian": { 
		 "optdone": 1, 
		 "sigma_profile": "yes", 
		 "theory": "DFT", 
		 "functional": "B3LYP", 
		 "basiset": "6-31G**", 
		 "properties": { 
			 "R2extent": 13468.7231, 
			 "electric_dipole_moment_norm": 5.82798394044, 
			 "electric_quadrupole_moment_norm": 33.4755061361, 
			 "total_energy": -1427.69054986, 
			 "HOMO_LUMO_gap": 0.12962, 
			 "cosmo_polarized_energy": -14.67, 
			 "cosmo_cavitation_energy": 44.46, 
			 "cosmo_dispersion_energy": -32.64, 
			 "cosmo_repulsion_energy": 2.37, 
			 "cosmo_total_nonelectrostatic_energy": 14.19, 
			 "SMD_solvation_energy": 7.13 
		},
		"coords": [
			{
				"x": -4.775245018,
				"y": 1.8294476791,
				"z": -5.8191364296,
				"element": "C" 
			},
			{
				"x": -4.6809306889,
				"y": 1.9673946398,
				"z": -4.4064396376,
				"element": "O" 
			},
			{
				"x": -3.5241404152,
				"y": 1.603055856,
				"z": -3.7963659638,
				"element": "C" 
			},
			{
				"x": -3.5014104152,
				"y": 1.7169711612,
				"z": -2.3830346269,
				"element": "C" 
			},
			{
				"x": -4.6070986598,
				"y": 2.1240654902,
				"z": -1.683632723,
				"element": "O" 
			},
			{
				"x": -4.9794421773,
				"y": 3.4978896597,
				"z": -1.8356724967,
				"element": "C" 
			},
			{
				"x": -2.3690246738,
				"y": 1.341387457,
				"z": -1.6773984239,
				"element": "C" 
			},
			{
				"x": -1.219393831,
				"y": 0.8433612201,
				"z": -2.3308790436,
				"element": "C" 
			},
			{
				"x": -0.0014550517,
				"y": 0.4288080894,
				"z": -1.6617146261,
				"element": "C" 
			},
			{
				"x": 0.3559102106,
				"y": 0.3929986134,
				"z": -0.3569803218,
				"element": "C" 
			},
			{
				"x": -0.5970105723,
				"y": 0.867778105,
				"z": 1.0831421699,
				"element": "S" 
			},
			{
				"x": 0.7555776027,
				"y": 0.4369827327,
				"z": 2.1246490852,
				"element": "C" 
			},
			{
				"x": 0.9265376693,
				"y": 0.4743406657,
				"z": 3.4076966386,
				"element": "N" 
			},
			{
				"x": 2.2351767397,
				"y": -0.0103613982,
				"z": 3.5838153802,
				"element": "C" 
			},
			{
				"x": 2.9580167718,
				"y": -0.1920423367,
				"z": 4.7637483356,
				"element": "C" 
			},
			{
				"x": 4.2560494142,
				"y": -0.6951069757,
				"z": 4.6616739671,
				"element": "C" 
			},
			{
				"x": 4.8281718044,
				"y": -1.0122584908,
				"z": 3.4176459618,
				"element": "C" 
			},
			{
				"x": 4.1231737085,
				"y": -0.8384398084,
				"z": 2.2240146691,
				"element": "C" 
			},
			{
				"x": 2.8324291273,
				"y": -0.3369982217,
				"z": 2.3412041515,
				"element": "C" 
			},
			{
				"x": 1.8437829252,
				"y": -0.0353585838,
				"z": 1.399417765,
				"element": "N" 
			},
			{
				"x": 1.7198391421,
				"y": -0.0977571668,
				"z": 0.011165335,
				"element": "C" 
			},
			{
				"x": 2.5899493856,
				"y": -0.4882496922,
				"z": -0.7457662903,
				"element": "O" 
			},
			{
				"x": -1.2594850313,
				"y": 0.7519796276,
				"z": -3.7344362066,
				"element": "C" 
			},
			{
				"x": -2.3881008393,
				"y": 1.123715651,
				"z": -4.4587288578,
				"element": "C" 
			},
			{
				"x": -4.6360801697,
				"y": 0.7867053467,
				"z": -6.1285514184,
				"element": "H" 
			},
			{
				"x": -5.7824211374,
				"y": 2.1532248225,
				"z": -6.0835079219,
				"element": "H" 
			},
			{
				"x": -4.0429723268,
				"y": 2.4622102526,
				"z": -6.3355252568,
				"element": "H" 
			},
			{
				"x": -5.8368789401,
				"y": 3.6516712902,
				"z": -1.1779767439,
				"element": "H" 
			},
			{
				"x": -4.1617262179,
				"y": 4.1600390067,
				"z": -1.5238571679,
				"element": "H" 
			},
			{
				"x": -5.2640927912,
				"y": 3.7257521594,
				"z": -2.8668536054,
				"element": "H" 
			},
			{
				"x": -2.4209065556,
				"y": 1.4401747043,
				"z": -0.5999432153,
				"element": "H" 
			},
			{
				"x": 0.7931915005,
				"y": 0.0748283724,
				"z": -2.3177801881,
				"element": "H" 
			},
			{
				"x": 2.5138314109,
				"y": 0.0534270667,
				"z": 5.7225100383,
				"element": "H" 
			},
			{
				"x": 4.8398176368,
				"y": -0.8459541871,
				"z": 5.5648811146,
				"element": "H" 
			},
			{
				"x": 5.841110191,
				"y": -1.4014607591,
				"z": 3.3817060926,
				"element": "H" 
			},
			{
				"x": 4.5485502526,
				"y": -1.0778156237,
				"z": 1.2566600966,
				"element": "H" 
			},
			{
				"x": -0.3898501059,
				"y": 0.377562299,
				"z": -4.266561895,
				"element": "H" 
			},
			{
				"x": -2.3810498752,
				"y": 1.0295312759,
				"z": -5.5378877407,
				"element": "H" 
			}
		],
		 "valence_orbital": [ 
			{
				"type": "occ",
				"energy": -0.27495,
				"method": "rhf"
			},
			{
				"type": "occ",
				"energy": -0.2548,
				"method": "rhf"
			},
			{
				"type": "occ",
				"energy": -0.23731,
				"method": "rhf"
			},
			{
				"type": "occ",
				"energy": -0.23052,
				"method": "rhf"
			},
			{
				"type": "occ",
				"energy": -0.20954,
				"method": "rhf"
			},
			{
				"type": "unocc",
				"energy": -0.07992,
				"method": "rhf"
			},
			{
				"type": "unocc",
				"energy": -0.01648,
				"method": "rhf"
			},
			{
				"type": "unocc",
				"energy": -0.01333,
				"method": "rhf"
			},
			{
				"type": "unocc",
				"energy": -0.00333,
				"method": "rhf"
			},
			{
				"type": "unocc",
				"energy": 0.0053,
				"method": "rhf"
			}
		],
		"cosmo_sigma_profile": { 
			"-0.025": 0.0,
			"-0.024": 0.0,
			"-0.023": 0.0,
			"-0.022": 0.0,
			"-0.021": 0.0,
			"-0.02": 0.0,
			"-0.019": 0.0,
			"-0.018": 0.0,
			"-0.017": 0.0,
			"-0.016": 0.0,
			"-0.015": 0.0,
			"-0.014": 0.0,
			"-0.013": 0.0,
			"-0.012": 0.0,
			"-0.011": 0.0,
			"-0.01": 0.0,
			"-0.009": 0.540726857372,
			"-0.008": 2.79887699685,
			"-0.007": 7.77061879898,
			"-0.006": 21.944779167,
			"-0.005": 26.2572864922,
			"-0.004": 30.6599467149,
			"-0.003": 31.3942422999,
			"-0.002": 28.6886409811,
			"-0.001": 26.5978530846,
			"0.0": 30.8766938977,
			"0.001": 29.3548616396,
			"0.002": 28.8610396879,
			"0.003": 27.9533685686,
			"0.004": 18.3685237663,
			"0.005": 11.077588396,
			"0.006": 4.04599111578,
			"0.007": 5.10567390722,
			"0.008": 5.28583769521,
			"0.009": 5.17902184865,
			"0.01": 5.21681677599,
			"0.011": 7.24789626535,
			"0.012": 1.54692034528,
			"0.013": 1.28338586927,
			"0.014": 0.815984162143,
			"0.015": 0.818429521408,
			"0.016": 0.191101536733,
			"0.017": 0.0,
			"0.018": 0.0,
			"0.019": 0.0,
			"0.02": 0.0,
			"0.021": 0.0,
			"0.022": 0.0,
			"0.023": 0.0,
			"0.024": 0.0,
			"0.025": 0.0
		}
	}
}
