{
	 "smiles": "CCNC(=O)NCC", 
	 "Tm": 384.15, 
	 "num_atms": 20, 
	 "gaussian": { 
		 "optdone": 1, 
		 "sigma_profile": "yes", 
		 "theory": "DFT", 
		 "functional": "B3LYP", 
		 "basiset": "6-31G**", 
		 "properties": { 
			 "R2extent": 1524.5402, 
			 "electric_dipole_moment_norm": 3.48153344663, 
			 "electric_quadrupole_moment_norm": 8.2344010274, 
			 "total_energy": -382.525471915, 
			 "HOMO_LUMO_gap": 0.2974, 
			 "cosmo_polarized_energy": -12.94, 
			 "cosmo_cavitation_energy": 22.81, 
			 "cosmo_dispersion_energy": -16.59, 
			 "cosmo_repulsion_energy": 1.43, 
			 "cosmo_total_nonelectrostatic_energy": 7.64, 
			 "SMD_solvation_energy": 3.33 
		},
		"coords": [
			{
				"x": 0.7747494746,
				"y": -0.8081258143,
				"z": -2.8533699939,
				"element": "C" 
			},
			{
				"x": 0.5500489585,
				"y": 0.6088426728,
				"z": -2.3233804066,
				"element": "C" 
			},
			{
				"x": 0.0149824942,
				"y": 0.6192958534,
				"z": -0.96033532,
				"element": "N" 
			},
			{
				"x": 0.8851601579,
				"y": 0.5031649114,
				"z": 0.1085971305,
				"element": "C" 
			},
			{
				"x": 2.0787269012,
				"y": 0.2521029846,
				"z": -0.0315979874,
				"element": "O" 
			},
			{
				"x": 0.2940610206,
				"y": 0.7076870237,
				"z": 1.3474084521,
				"element": "N" 
			},
			{
				"x": 1.0519110249,
				"y": 0.3959107921,
				"z": 2.5564382009,
				"element": "C" 
			},
			{
				"x": 1.0747768037,
				"y": -1.0936715658,
				"z": 2.9119945294,
				"element": "C" 
			},
			{
				"x": 1.4980016075,
				"y": -1.3294135449,
				"z": -2.2218584588,
				"element": "H" 
			},
			{
				"x": -0.1597645312,
				"y": -1.3782269518,
				"z": -2.8600302691,
				"element": "H" 
			},
			{
				"x": 1.1689265255,
				"y": -0.7762861474,
				"z": -3.8749801051,
				"element": "H" 
			},
			{
				"x": -0.166690796,
				"y": 1.1422364173,
				"z": -2.9563289802,
				"element": "H" 
			},
			{
				"x": 1.4947322355,
				"y": 1.1635352225,
				"z": -2.34549207,
				"element": "H" 
			},
			{
				"x": -0.8298870852,
				"y": 1.1497306036,
				"z": -0.8061059805,
				"element": "H" 
			},
			{
				"x": -0.7023240774,
				"y": 0.5403900126,
				"z": 1.3983424633,
				"element": "H" 
			},
			{
				"x": 0.6262244518,
				"y": 0.9828200266,
				"z": 3.3782140491,
				"element": "H" 
			},
			{
				"x": 2.0696800484,
				"y": 0.7527717674,
				"z": 2.3861802248,
				"element": "H" 
			},
			{
				"x": 0.062416551,
				"y": -1.4815603897,
				"z": 3.0748985332,
				"element": "H" 
			},
			{
				"x": 1.6495573062,
				"y": -1.2628858547,
				"z": 3.8291179317,
				"element": "H" 
			},
			{
				"x": 1.5401109286,
				"y": -1.6657180193,
				"z": 2.1047880565,
				"element": "H" 
			}
		],
		 "valence_orbital": [ 
			{
				"type": "occ",
				"energy": -0.34391,
				"method": "rhf"
			},
			{
				"type": "occ",
				"energy": -0.33901,
				"method": "rhf"
			},
			{
				"type": "occ",
				"energy": -0.25705,
				"method": "rhf"
			},
			{
				"type": "occ",
				"energy": -0.24374,
				"method": "rhf"
			},
			{
				"type": "occ",
				"energy": -0.23651,
				"method": "rhf"
			},
			{
				"type": "unocc",
				"energy": 0.06089,
				"method": "rhf"
			},
			{
				"type": "unocc",
				"energy": 0.06749,
				"method": "rhf"
			},
			{
				"type": "unocc",
				"energy": 0.10602,
				"method": "rhf"
			},
			{
				"type": "unocc",
				"energy": 0.11911,
				"method": "rhf"
			},
			{
				"type": "unocc",
				"energy": 0.14352,
				"method": "rhf"
			}
		],
		"cosmo_sigma_profile": { 
			"-0.025": 0.0,
			"-0.024": 0.0,
			"-0.023": 0.0,
			"-0.022": 0.0,
			"-0.021": 0.0,
			"-0.02": 0.0,
			"-0.019": 0.0,
			"-0.018": 0.0,
			"-0.017": 0.0,
			"-0.016": 0.0,
			"-0.015": 0.0,
			"-0.014": 1.43735455874,
			"-0.013": 3.30563128778,
			"-0.012": 2.37263324247,
			"-0.011": 1.83622130404,
			"-0.01": 2.10601459835,
			"-0.009": 1.66264306114,
			"-0.008": 2.10397455246,
			"-0.007": 2.4003220402,
			"-0.006": 2.04995033295,
			"-0.005": 3.57925452917,
			"-0.004": 8.28752894298,
			"-0.003": 15.6153129319,
			"-0.002": 20.3786557901,
			"-0.001": 23.3523941794,
			"0.0": 18.0856931204,
			"0.001": 19.6664057471,
			"0.002": 9.85640101313,
			"0.003": 4.50212922914,
			"0.004": 4.35045482478,
			"0.005": 4.52103973301,
			"0.006": 3.07820556236,
			"0.007": 4.1048242795,
			"0.008": 2.55337862433,
			"0.009": 2.4288423835,
			"0.01": 2.16286524223,
			"0.011": 0.949401857532,
			"0.012": 1.70594089841,
			"0.013": 1.76770095918,
			"0.014": 2.52888985976,
			"0.015": 4.06494074935,
			"0.016": 0.0789978775109,
			"0.017": 0.0,
			"0.018": 0.0,
			"0.019": 0.0,
			"0.02": 0.0,
			"0.021": 0.0,
			"0.022": 0.0,
			"0.023": 0.0,
			"0.024": 0.0,
			"0.025": 0.0
		}
	}
}
