{
	 "smiles": "CNC1=C(Cl)C=C(C=N1)C(F)(F)F", 
	 "Tm": 318.15, 
	 "num_atms": 19, 
	 "gaussian": { 
		 "optdone": 1, 
		 "sigma_profile": "yes", 
		 "theory": "DFT", 
		 "functional": "B3LYP", 
		 "basiset": "6-31G**", 
		 "properties": { 
			 "R2extent": 3562.2127, 
			 "electric_dipole_moment_norm": 3.38433858974, 
			 "electric_quadrupole_moment_norm": 1.95799844484, 
			 "total_energy": -1139.58774244, 
			 "HOMO_LUMO_gap": 0.18779, 
			 "cosmo_polarized_energy": -6.53, 
			 "cosmo_cavitation_energy": 26.51, 
			 "cosmo_dispersion_energy": -19.26, 
			 "cosmo_repulsion_energy": 1.48, 
			 "cosmo_total_nonelectrostatic_energy": 8.73, 
			 "SMD_solvation_energy": 4.02 
		},
		"coords": [
			{
				"x": 1.3656231547,
				"y": -1.8904305801,
				"z": -2.23131156,
				"element": "C" 
			},
			{
				"x": 1.4821675506,
				"y": -1.7022418936,
				"z": -0.7962955966,
				"element": "N" 
			},
			{
				"x": 0.6210324773,
				"y": -0.9312476827,
				"z": -0.0861843704,
				"element": "C" 
			},
			{
				"x": 0.7748889954,
				"y": -0.7304459498,
				"z": 1.3156708756,
				"element": "C" 
			},
			{
				"x": 2.1143487455,
				"y": -1.4916984039,
				"z": 2.1665627031,
				"element": "Cl" 
			},
			{
				"x": -0.1264748641,
				"y": 0.0537863023,
				"z": 1.9998127593,
				"element": "C" 
			},
			{
				"x": -1.1867044549,
				"y": 0.6408971985,
				"z": 1.2905453249,
				"element": "C" 
			},
			{
				"x": -1.2691270618,
				"y": 0.3956659689,
				"z": -0.0771556904,
				"element": "C" 
			},
			{
				"x": -0.4003468794,
				"y": -0.361701855,
				"z": -0.7500396873,
				"element": "N" 
			},
			{
				"x": -2.157217027,
				"y": 1.5375341392,
				"z": 1.9934139079,
				"element": "C" 
			},
			{
				"x": -1.6435248581,
				"y": 2.7720496489,
				"z": 2.2149374763,
				"element": "F" 
			},
			{
				"x": -2.5002199242,
				"y": 1.0447736618,
				"z": 3.2074371225,
				"element": "F" 
			},
			{
				"x": -3.2935559547,
				"y": 1.7055990792,
				"z": 1.2828452034,
				"element": "F" 
			},
			{
				"x": 0.3847219259,
				"y": -2.2974819445,
				"z": -2.4929707481,
				"element": "H" 
			},
			{
				"x": 1.4918562243,
				"y": -0.947804471,
				"z": -2.7756837658,
				"element": "H" 
			},
			{
				"x": 2.1392928041,
				"y": -2.5917788575,
				"z": -2.5494174063,
				"element": "H" 
			},
			{
				"x": 2.2744439859,
				"y": -2.0885171635,
				"z": -0.3094560069,
				"element": "H" 
			},
			{
				"x": -0.0193459504,
				"y": 0.2046560972,
				"z": 3.0682708747,
				"element": "H" 
			},
			{
				"x": -2.0786588893,
				"y": 0.826286706,
				"z": -0.6604814159,
				"element": "H" 
			}
		],
		 "valence_orbital": [ 
			{
				"type": "occ",
				"energy": -0.33689,
				"method": "rhf"
			},
			{
				"type": "occ",
				"energy": -0.32469,
				"method": "rhf"
			},
			{
				"type": "occ",
				"energy": -0.28615,
				"method": "rhf"
			},
			{
				"type": "occ",
				"energy": -0.27418,
				"method": "rhf"
			},
			{
				"type": "occ",
				"energy": -0.22436,
				"method": "rhf"
			},
			{
				"type": "unocc",
				"energy": -0.03657,
				"method": "rhf"
			},
			{
				"type": "unocc",
				"energy": -0.01962,
				"method": "rhf"
			},
			{
				"type": "unocc",
				"energy": 0.01624,
				"method": "rhf"
			},
			{
				"type": "unocc",
				"energy": 0.0818,
				"method": "rhf"
			},
			{
				"type": "unocc",
				"energy": 0.11507,
				"method": "rhf"
			}
		],
		"cosmo_sigma_profile": { 
			"-0.025": 0.0,
			"-0.024": 0.0,
			"-0.023": 0.0,
			"-0.022": 0.0,
			"-0.021": 0.0,
			"-0.02": 0.0,
			"-0.019": 0.0,
			"-0.018": 0.0,
			"-0.017": 0.0,
			"-0.016": 0.0,
			"-0.015": 0.0,
			"-0.014": 0.248824354656,
			"-0.013": 0.620727230628,
			"-0.012": 1.10803718702,
			"-0.011": 0.606168482446,
			"-0.01": 0.732045075629,
			"-0.009": 2.15789070163,
			"-0.008": 3.06290856559,
			"-0.007": 4.30200353416,
			"-0.006": 6.18684471151,
			"-0.005": 7.2807637313,
			"-0.004": 10.7357264323,
			"-0.003": 11.4575468113,
			"-0.002": 16.5072847723,
			"-0.001": 19.5927463382,
			"0.0": 23.2477047191,
			"0.001": 24.6262137389,
			"0.002": 23.5300728222,
			"0.003": 36.1410300798,
			"0.004": 11.8429232998,
			"0.005": 1.81068839699,
			"0.006": 1.24168338113,
			"0.007": 1.60021092307,
			"0.008": 1.7383012075,
			"0.009": 0.795326706979,
			"0.01": 0.97931993987,
			"0.011": 0.714022289957,
			"0.012": 0.888069420969,
			"0.013": 0.695482305251,
			"0.014": 0.0378189048039,
			"0.015": 0.0,
			"0.016": 0.0,
			"0.017": 0.0,
			"0.018": 0.0,
			"0.019": 0.0,
			"0.02": 0.0,
			"0.021": 0.0,
			"0.022": 0.0,
			"0.023": 0.0,
			"0.024": 0.0,
			"0.025": 0.0
		}
	}
}
