{
	 "smiles": "COC1=CC=C(C=C1)S(=O)(=O)NC1=CC(CN)=CC=C1", 
	 "Tm": 399.15, 
	 "num_atms": 36, 
	 "gaussian": { 
		 "optdone": 1, 
		 "sigma_profile": "yes", 
		 "theory": "DFT", 
		 "functional": "B3LYP", 
		 "basiset": "6-31G**", 
		 "properties": { 
			 "R2extent": 7132.2466, 
			 "electric_dipole_moment_norm": 6.82528396479, 
			 "electric_quadrupole_moment_norm": 18.3073971195, 
			 "total_energy": -1276.41166518, 
			 "HOMO_LUMO_gap": 0.19454, 
			 "cosmo_polarized_energy": -21.36, 
			 "cosmo_cavitation_energy": 41.48, 
			 "cosmo_dispersion_energy": -28.43, 
			 "cosmo_repulsion_energy": 2.17, 
			 "cosmo_total_nonelectrostatic_energy": 15.22, 
			 "SMD_solvation_energy": 5.44 
		},
		"coords": [
			{
				"x": -3.4270464656,
				"y": 3.2699770295,
				"z": -0.4755777782,
				"element": "C" 
			},
			{
				"x": -3.6492313857,
				"y": 2.0427461173,
				"z": 0.2077920147,
				"element": "O" 
			},
			{
				"x": -2.5770839483,
				"y": 1.3579790237,
				"z": 0.6809279599,
				"element": "C" 
			},
			{
				"x": -2.8738533969,
				"y": 0.1613903565,
				"z": 1.3574669571,
				"element": "C" 
			},
			{
				"x": -1.852419454,
				"y": -0.6165907642,
				"z": 1.8796591421,
				"element": "C" 
			},
			{
				"x": -0.5218329879,
				"y": -0.2014941743,
				"z": 1.7315766364,
				"element": "C" 
			},
			{
				"x": -0.218752711,
				"y": 0.9878982651,
				"z": 1.0691568539,
				"element": "C" 
			},
			{
				"x": -1.244341082,
				"y": 1.7716158212,
				"z": 0.5405474035,
				"element": "C" 
			},
			{
				"x": 0.7946566134,
				"y": -1.2247749032,
				"z": 2.3744782679,
				"element": "S" 
			},
			{
				"x": 0.2185181948,
				"y": -2.1340682324,
				"z": 3.3657876847,
				"element": "O" 
			},
			{
				"x": 1.9325063429,
				"y": -0.3535320223,
				"z": 2.6689359481,
				"element": "O" 
			},
			{
				"x": 1.2810289993,
				"y": -2.2603255012,
				"z": 1.1110051003,
				"element": "N" 
			},
			{
				"x": 1.8214606673,
				"y": -1.7736022765,
				"z": -0.1127104718,
				"element": "C" 
			},
			{
				"x": 3.0058839172,
				"y": -1.0276769934,
				"z": -0.112187627,
				"element": "C" 
			},
			{
				"x": 3.5601923741,
				"y": -0.5702308243,
				"z": -1.3137910185,
				"element": "C" 
			},
			{
				"x": 4.8099447842,
				"y": 0.2958112125,
				"z": -1.2902472284,
				"element": "C" 
			},
			{
				"x": 4.6017315834,
				"y": 1.6979599497,
				"z": -0.8965360242,
				"element": "N" 
			},
			{
				"x": 2.9338224552,
				"y": -0.9027061158,
				"z": -2.5218844367,
				"element": "C" 
			},
			{
				"x": 1.7656614166,
				"y": -1.6668407529,
				"z": -2.5268575754,
				"element": "C" 
			},
			{
				"x": 1.1972960892,
				"y": -2.0907315671,
				"z": -1.3276248327,
				"element": "C" 
			},
			{
				"x": -2.8222663076,
				"y": 3.123705354,
				"z": -1.3790190607,
				"element": "H" 
			},
			{
				"x": -4.4141343254,
				"y": 3.6369850399,
				"z": -0.7587959759,
				"element": "H" 
			},
			{
				"x": -2.9384563132,
				"y": 4.0081504762,
				"z": 0.1721109738,
				"element": "H" 
			},
			{
				"x": -3.9138995642,
				"y": -0.1270531487,
				"z": 1.4658340782,
				"element": "H" 
			},
			{
				"x": -2.0737139128,
				"y": -1.5296351825,
				"z": 2.4217542341,
				"element": "H" 
			},
			{
				"x": 0.8130984949,
				"y": 1.3084002478,
				"z": 0.9817362079,
				"element": "H" 
			},
			{
				"x": -0.9970408164,
				"y": 2.6963598393,
				"z": 0.0339242925,
				"element": "H" 
			},
			{
				"x": 0.5947530796,
				"y": -3.0018282466,
				"z": 1.0092214636,
				"element": "H" 
			},
			{
				"x": 3.4894442047,
				"y": -0.8153830186,
				"z": 0.8353166337,
				"element": "H" 
			},
			{
				"x": 5.5432748253,
				"y": -0.1330133481,
				"z": -0.5978450896,
				"element": "H" 
			},
			{
				"x": 5.274755995,
				"y": 0.2907422924,
				"z": -2.2826298156,
				"element": "H" 
			},
			{
				"x": 4.2298965093,
				"y": 1.7311796201,
				"z": 0.0507764507,
				"element": "H" 
			},
			{
				"x": 3.8861029885,
				"y": 2.1112257842,
				"z": -1.4914844132,
				"element": "H" 
			},
			{
				"x": 3.368939719,
				"y": -0.5712219977,
				"z": -3.4614510539,
				"element": "H" 
			},
			{
				"x": 1.2885403936,
				"y": -1.9263091072,
				"z": -3.4676277853,
				"element": "H" 
			},
			{
				"x": 0.2767630236,
				"y": -2.6688082522,
				"z": -1.3286381161,
				"element": "H" 
			}
		],
		 "valence_orbital": [ 
			{
				"type": "occ",
				"energy": -0.2751,
				"method": "rhf"
			},
			{
				"type": "occ",
				"energy": -0.26059,
				"method": "rhf"
			},
			{
				"type": "occ",
				"energy": -0.24729,
				"method": "rhf"
			},
			{
				"type": "occ",
				"energy": -0.23456,
				"method": "rhf"
			},
			{
				"type": "occ",
				"energy": -0.22898,
				"method": "rhf"
			},
			{
				"type": "unocc",
				"energy": -0.03444,
				"method": "rhf"
			},
			{
				"type": "unocc",
				"energy": -0.02363,
				"method": "rhf"
			},
			{
				"type": "unocc",
				"energy": -0.01291,
				"method": "rhf"
			},
			{
				"type": "unocc",
				"energy": -0.00729,
				"method": "rhf"
			},
			{
				"type": "unocc",
				"energy": 0.06022,
				"method": "rhf"
			}
		],
		"cosmo_sigma_profile": { 
			"-0.025": 0.0,
			"-0.024": 0.0,
			"-0.023": 0.0,
			"-0.022": 0.0,
			"-0.021": 0.0,
			"-0.02": 0.0,
			"-0.019": 0.0,
			"-0.018": 0.0,
			"-0.017": 0.0,
			"-0.016": 0.0316457086775,
			"-0.015": 0.855602477694,
			"-0.014": 1.24977486391,
			"-0.013": 1.23944641814,
			"-0.012": 0.884524074694,
			"-0.011": 1.29439726711,
			"-0.01": 1.97063251349,
			"-0.009": 3.26519813301,
			"-0.008": 5.3783836736,
			"-0.007": 12.3726014423,
			"-0.006": 22.0828473522,
			"-0.005": 26.8507580427,
			"-0.004": 28.1925755398,
			"-0.003": 23.2556859435,
			"-0.002": 17.9796722308,
			"-0.001": 18.6943016906,
			"0.0": 16.7305713563,
			"0.001": 18.821110882,
			"0.002": 24.4102270279,
			"0.003": 23.2699628185,
			"0.004": 16.3872132688,
			"0.005": 14.6718212651,
			"0.006": 6.0853788344,
			"0.007": 6.84445721536,
			"0.008": 6.1524257174,
			"0.009": 6.16450206823,
			"0.01": 8.12108747318,
			"0.011": 8.48360735851,
			"0.012": 2.5851686259,
			"0.013": 0.732988015713,
			"0.014": 0.65270198837,
			"0.015": 0.897282509757,
			"0.016": 0.635204016067,
			"0.017": 0.876603205548,
			"0.018": 0.176535713012,
			"0.019": 0.905275506852,
			"0.02": 0.194824753773,
			"0.021": 0.0,
			"0.022": 0.0,
			"0.023": 0.0,
			"0.024": 0.0,
			"0.025": 0.0
		}
	}
}
