{
	 "smiles": "NC(=O)C1CCCN1C(=O)NC(=O)CCl", 
	 "Tm": 400.15, 
	 "num_atms": 27, 
	 "gaussian": { 
		 "optdone": 1, 
		 "sigma_profile": "yes", 
		 "theory": "DFT", 
		 "functional": "B3LYP", 
		 "basiset": "6-31G**", 
		 "properties": { 
			 "R2extent": 5322.7908, 
			 "electric_dipole_moment_norm": 8.27588227683, 
			 "electric_quadrupole_moment_norm": 26.861982876, 
			 "total_energy": -1162.23272923, 
			 "HOMO_LUMO_gap": 0.22223, 
			 "cosmo_polarized_energy": -26.43, 
			 "cosmo_cavitation_energy": 32.04, 
			 "cosmo_dispersion_energy": -22.59, 
			 "cosmo_repulsion_energy": 1.8, 
			 "cosmo_total_nonelectrostatic_energy": 11.25, 
			 "SMD_solvation_energy": 5.41 
		},
		"coords": [
			{
				"x": 0.2960578538,
				"y": -1.8761127174,
				"z": -0.66136552,
				"element": "N" 
			},
			{
				"x": -0.3175277358,
				"y": -0.8169630501,
				"z": -0.0748261756,
				"element": "C" 
			},
			{
				"x": -1.4558637048,
				"y": -0.9056143793,
				"z": 0.3806143961,
				"element": "O" 
			},
			{
				"x": 0.4537319006,
				"y": 0.5062711328,
				"z": -0.1441820733,
				"element": "C" 
			},
			{
				"x": 1.9702556201,
				"y": 0.4519771177,
				"z": -0.4654139319,
				"element": "C" 
			},
			{
				"x": 2.4778779672,
				"y": 1.8692593147,
				"z": -0.0891473634,
				"element": "C" 
			},
			{
				"x": 1.2573947195,
				"y": 2.5511527869,
				"z": 0.5814519972,
				"element": "C" 
			},
			{
				"x": 0.3634518393,
				"y": 1.4541984424,
				"z": 0.9911784605,
				"element": "N" 
			},
			{
				"x": 0.4209583903,
				"y": 1.1281644256,
				"z": 2.3623397098,
				"element": "C" 
			},
			{
				"x": 1.106767594,
				"y": 1.7416317701,
				"z": 3.1562319326,
				"element": "O" 
			},
			{
				"x": -0.4731980178,
				"y": 0.1146206838,
				"z": 2.7279763319,
				"element": "N" 
			},
			{
				"x": -0.4827408422,
				"y": -0.5439876941,
				"z": 3.9463049335,
				"element": "C" 
			},
			{
				"x": 0.3752330877,
				"y": -0.4771301159,
				"z": 4.8009818629,
				"element": "O" 
			},
			{
				"x": -1.6687722339,
				"y": -1.4994968767,
				"z": 4.1260706701,
				"element": "C" 
			},
			{
				"x": -3.2853471611,
				"y": -0.7350443172,
				"z": 3.8324739352,
				"element": "Cl" 
			},
			{
				"x": 1.2244160438,
				"y": -1.8324065602,
				"z": -1.046925542,
				"element": "H" 
			},
			{
				"x": -0.2245880319,
				"y": -2.7384798187,
				"z": -0.7271786864,
				"element": "H" 
			},
			{
				"x": -0.0424143308,
				"y": 1.0196679176,
				"z": -0.9829008228,
				"element": "H" 
			},
			{
				"x": 2.4565755068,
				"y": -0.3085319823,
				"z": 0.1553028074,
				"element": "H" 
			},
			{
				"x": 2.1570764327,
				"y": 0.2065288732,
				"z": -1.5163644475,
				"element": "H" 
			},
			{
				"x": 3.3138277646,
				"y": 1.8053290138,
				"z": 0.6113146869,
				"element": "H" 
			},
			{
				"x": 2.8194517634,
				"y": 2.428997432,
				"z": -0.9640381412,
				"element": "H" 
			},
			{
				"x": 1.5175588674,
				"y": 3.1478900569,
				"z": 1.4520397173,
				"element": "H" 
			},
			{
				"x": 0.7172750477,
				"y": 3.1771583247,
				"z": -0.1383570751,
				"element": "H" 
			},
			{
				"x": -1.1980157801,
				"y": -0.1180904371,
				"z": 2.047799224,
				"element": "H" 
			},
			{
				"x": -1.6487043943,
				"y": -1.8576588284,
				"z": 5.1528950158,
				"element": "H" 
			},
			{
				"x": -1.5912381661,
				"y": -2.3393305147,
				"z": 3.4308240979,
				"element": "H" 
			}
		],
		 "valence_orbital": [ 
			{
				"type": "occ",
				"energy": -0.28649,
				"method": "rhf"
			},
			{
				"type": "occ",
				"energy": -0.27927,
				"method": "rhf"
			},
			{
				"type": "occ",
				"energy": -0.27269,
				"method": "rhf"
			},
			{
				"type": "occ",
				"energy": -0.25225,
				"method": "rhf"
			},
			{
				"type": "occ",
				"energy": -0.2448,
				"method": "rhf"
			},
			{
				"type": "unocc",
				"energy": -0.02257,
				"method": "rhf"
			},
			{
				"type": "unocc",
				"energy": -0.01295,
				"method": "rhf"
			},
			{
				"type": "unocc",
				"energy": 0.02826,
				"method": "rhf"
			},
			{
				"type": "unocc",
				"energy": 0.04828,
				"method": "rhf"
			},
			{
				"type": "unocc",
				"energy": 0.06829,
				"method": "rhf"
			}
		],
		"cosmo_sigma_profile": { 
			"-0.025": 0.0,
			"-0.024": 0.0,
			"-0.023": 0.0,
			"-0.022": 0.0,
			"-0.021": 0.0,
			"-0.02": 0.0,
			"-0.019": 0.0,
			"-0.018": 0.0,
			"-0.017": 0.0,
			"-0.016": 0.0,
			"-0.015": 0.977392173651,
			"-0.014": 2.32948645044,
			"-0.013": 1.88399029098,
			"-0.012": 2.43968532972,
			"-0.011": 3.35678049134,
			"-0.01": 2.69842968921,
			"-0.009": 4.74668679098,
			"-0.008": 6.74132095881,
			"-0.007": 11.2790792368,
			"-0.006": 12.846154822,
			"-0.005": 13.3116925604,
			"-0.004": 18.1492701252,
			"-0.003": 20.3047899268,
			"-0.002": 18.4696450852,
			"-0.001": 16.2607060152,
			"0.0": 15.2581003082,
			"0.001": 11.9955269664,
			"0.002": 9.92114784137,
			"0.003": 10.4052451959,
			"0.004": 11.1689354803,
			"0.005": 10.8781383446,
			"0.006": 6.24907110094,
			"0.007": 4.35690313734,
			"0.008": 3.82932097165,
			"0.009": 3.50126397561,
			"0.01": 4.32898523202,
			"0.011": 6.92704219066,
			"0.012": 9.63465581164,
			"0.013": 5.484266269,
			"0.014": 1.80255767211,
			"0.015": 1.84667619423,
			"0.016": 1.04978849707,
			"0.017": 0.182401740151,
			"0.018": 0.0,
			"0.019": 0.0,
			"0.02": 0.0,
			"0.021": 0.0,
			"0.022": 0.0,
			"0.023": 0.0,
			"0.024": 0.0,
			"0.025": 0.0
		}
	}
}
