{
	 "smiles": "IC1=CN(C=N1)C(C1=CC=CC=C1)(C1=CC=CC=C1)C1=CC=CC=C1", 
	 "Tm": 497.15, 
	 "num_atms": 42, 
	 "gaussian": { 
		 "optdone": 1, 
		 "sigma_profile": "no", 
		 "theory": "DFT", 
		 "functional": "B3LYP", 
		 "basiset": "6-31G**", 
		 "properties": { 
			 "R2extent": 7799.8729, 
			 "electric_dipole_moment_norm": 5.86574358372, 
			 "electric_quadrupole_moment_norm": 29.6989012085, 
			 "total_energy": -969.451081772, 
			 "HOMO_LUMO_gap": 0.18741, 
			 "cosmo_polarized_energy": -104780.24, 
			 "cosmo_cavitation_energy": 47.03, 
			 "cosmo_dispersion_energy": -32.86, 
			 "cosmo_repulsion_energy": 2.5, 
			 "cosmo_total_nonelectrostatic_energy": 16.67, 
			 "SMD_solvation_energy": 5.76 
		},
		"coords": [
			{
				"x": -2.6846303926,
				"y": -1.4989319034,
				"z": 5.0515127294,
				"element": "I" 
			},
			{
				"x": -1.112280104,
				"y": -1.0949285035,
				"z": 3.7277891252,
				"element": "C" 
			},
			{
				"x": -1.1957227811,
				"y": -1.0773974487,
				"z": 2.3583141679,
				"element": "C" 
			},
			{
				"x": 0.082955952,
				"y": -0.7688950419,
				"z": 1.9197052726,
				"element": "N" 
			},
			{
				"x": 0.8470783635,
				"y": -0.6298729499,
				"z": 3.0516950194,
				"element": "C" 
			},
			{
				"x": 0.1536050477,
				"y": -0.8205291079,
				"z": 4.1575861934,
				"element": "N" 
			},
			{
				"x": 0.475426113,
				"y": -0.6297759619,
				"z": 0.4801874391,
				"element": "C" 
			},
			{
				"x": -0.1168043256,
				"y": -1.8700653902,
				"z": -0.2413867332,
				"element": "C" 
			},
			{
				"x": -0.8349844316,
				"y": -1.789030068,
				"z": -1.4393081281,
				"element": "C" 
			},
			{
				"x": -1.345730121,
				"y": -2.9402478413,
				"z": -2.047789516,
				"element": "C" 
			},
			{
				"x": -1.151476144,
				"y": -4.1918458575,
				"z": -1.4693134317,
				"element": "C" 
			},
			{
				"x": -0.4452321665,
				"y": -4.2861291875,
				"z": -0.2674283292,
				"element": "C" 
			},
			{
				"x": 0.0602155219,
				"y": -3.1391559907,
				"z": 0.3397902844,
				"element": "C" 
			},
			{
				"x": 2.0264916457,
				"y": -0.5827360447,
				"z": 0.3911759248,
				"element": "C" 
			},
			{
				"x": 2.7947473631,
				"y": -1.6301182232,
				"z": -0.1288334459,
				"element": "C" 
			},
			{
				"x": 4.1885487551,
				"y": -1.5328339271,
				"z": -0.191531997,
				"element": "C" 
			},
			{
				"x": 4.8389383892,
				"y": -0.3898494492,
				"z": 0.2664357053,
				"element": "C" 
			},
			{
				"x": 4.0831498019,
				"y": 0.6676784986,
				"z": 0.778851888,
				"element": "C" 
			},
			{
				"x": 2.6944165028,
				"y": 0.5752983003,
				"z": 0.8293946722,
				"element": "C" 
			},
			{
				"x": -0.070664233,
				"y": 0.7012582269,
				"z": -0.0960630473,
				"element": "C" 
			},
			{
				"x": -0.9779292932,
				"y": 1.5161010311,
				"z": 0.5893647808,
				"element": "C" 
			},
			{
				"x": -1.435473596,
				"y": 2.7104651629,
				"z": 0.0228558861,
				"element": "C" 
			},
			{
				"x": -0.9967691361,
				"y": 3.1103888014,
				"z": -1.2368695693,
				"element": "C" 
			},
			{
				"x": -0.08241891,
				"y": 2.3104009302,
				"z": -1.9267424584,
				"element": "C" 
			},
			{
				"x": 0.3802363991,
				"y": 1.1257518686,
				"z": -1.3585173257,
				"element": "C" 
			},
			{
				"x": -2.0113295372,
				"y": -1.2657989946,
				"z": 1.6810324231,
				"element": "H" 
			},
			{
				"x": 1.9000567467,
				"y": -0.4037912703,
				"z": 3.0186412509,
				"element": "H" 
			},
			{
				"x": -1.0139274186,
				"y": -0.8279848038,
				"z": -1.9044911903,
				"element": "H" 
			},
			{
				"x": -1.9040542671,
				"y": -2.8477822371,
				"z": -2.9749231857,
				"element": "H" 
			},
			{
				"x": -1.5517421001,
				"y": -5.084127774,
				"z": -1.9416354261,
				"element": "H" 
			},
			{
				"x": -0.2939257226,
				"y": -5.2526713592,
				"z": 0.2043202246,
				"element": "H" 
			},
			{
				"x": 0.5919977159,
				"y": -3.2274033269,
				"z": 1.2817990882,
				"element": "H" 
			},
			{
				"x": 2.3144981141,
				"y": -2.5270141783,
				"z": -0.4989143389,
				"element": "H" 
			},
			{
				"x": 4.7609658167,
				"y": -2.3585607544,
				"z": -0.6041865021,
				"element": "H" 
			},
			{
				"x": 5.9214848981,
				"y": -0.3171459769,
				"z": 0.2186671558,
				"element": "H" 
			},
			{
				"x": 4.5734650154,
				"y": 1.5705509569,
				"z": 1.1310559234,
				"element": "H" 
			},
			{
				"x": 2.1192579813,
				"y": 1.4141200934,
				"z": 1.2081722439,
				"element": "H" 
			},
			{
				"x": -1.3304902889,
				"y": 1.2351532908,
				"z": 1.5744127417,
				"element": "H" 
			},
			{
				"x": -2.1357763545,
				"y": 3.3270771502,
				"z": 0.5788269241,
				"element": "H" 
			},
			{
				"x": -1.3538177365,
				"y": 4.0379062621,
				"z": -1.6746768486,
				"element": "H" 
			},
			{
				"x": 0.2805051032,
				"y": 2.6130474426,
				"z": -2.9048198302,
				"element": "H" 
			},
			{
				"x": 1.1088378136,
				"y": 0.5267255563,
				"z": -1.8958557606,
				"element": "H" 
			}
		],
		 "valence_orbital": [ 
			{
				"type": "occ",
				"energy": -0.25755,
				"method": "rhf"
			},
			{
				"type": "occ",
				"energy": -0.25633,
				"method": "rhf"
			},
			{
				"type": "occ",
				"energy": -0.25125,
				"method": "rhf"
			},
			{
				"type": "occ",
				"energy": -0.2481,
				"method": "rhf"
			},
			{
				"type": "occ",
				"energy": -0.2175,
				"method": "rhf"
			},
			{
				"type": "unocc",
				"energy": -0.03009,
				"method": "rhf"
			},
			{
				"type": "unocc",
				"energy": -0.02409,
				"method": "rhf"
			},
			{
				"type": "unocc",
				"energy": -0.01756,
				"method": "rhf"
			},
			{
				"type": "unocc",
				"energy": -0.01628,
				"method": "rhf"
			},
			{
				"type": "unocc",
				"energy": -0.01401,
				"method": "rhf"
			}
		],
		"cosmo_sigma_profile": { 
			"0.0": 0.0,
			"0.0": 0.0,
			"0.0": 0.0,
			"0.0": 0.0,
			"0.0": 0.0,
			"0.0": 0.0,
			"0.0": 0.0,
			"0.0": 0.0,
			"0.0": 0.0,
			"0.0": 0.0,
			"0.0": 0.0,
			"0.0": 0.0,
			"0.0": 0.0,
			"0.0": 0.0,
			"0.0": 0.0,
			"0.0": 0.0,
			"0.0": 0.0,
			"0.0": 0.0,
			"0.0": 0.0,
			"0.0": 0.0,
			"0.0": 0.0,
			"0.0": 0.0,
			"0.0": 0.0,
			"0.0": 0.0,
			"0.0": 0.0,
			"0.0": 0.0,
			"0.0": 0.0,
			"0.0": 0.0,
			"0.0": 0.0,
			"0.0": 0.0,
			"0.0": 0.0,
			"0.0": 0.0,
			"0.0": 0.0,
			"0.0": 0.0,
			"0.0": 0.0,
			"0.0": 0.0,
			"0.0": 0.0,
			"0.0": 0.0,
			"0.0": 0.0,
			"0.0": 0.0,
			"0.0": 0.0,
			"0.0": 0.0,
			"0.0": 0.0,
			"0.0": 0.0,
			"0.0": 0.0,
			"0.0": 0.0,
			"0.0": 0.0,
			"0.0": 0.0,
			"0.0": 0.0,
			"0.0": 0.0,
			"0.0": 0.0
		}
	}
}
