{
	 "smiles": "CC1=CC(=NO1)C(=O)NC1=CC=C(Cl)C=C1", 
	 "Tm": 429.15, 
	 "num_atms": 25, 
	 "gaussian": { 
		 "optdone": 1, 
		 "sigma_profile": "yes", 
		 "theory": "DFT", 
		 "functional": "B3LYP", 
		 "basiset": "6-31G**", 
		 "properties": { 
			 "R2extent": 5450.9798, 
			 "electric_dipole_moment_norm": 4.31408904985, 
			 "electric_quadrupole_moment_norm": 20.0956035493, 
			 "total_energy": -1144.69446012, 
			 "HOMO_LUMO_gap": 0.192, 
			 "cosmo_polarized_energy": -17.2, 
			 "cosmo_cavitation_energy": 32.57, 
			 "cosmo_dispersion_energy": -22.87, 
			 "cosmo_repulsion_energy": 1.82, 
			 "cosmo_total_nonelectrostatic_energy": 11.53, 
			 "SMD_solvation_energy": 6.03 
		},
		"coords": [
			{
				"x": -1.174677874,
				"y": -1.0205462909,
				"z": 3.9936078291,
				"element": "C" 
			},
			{
				"x": -0.5196938234,
				"y": -0.3637912844,
				"z": 2.8286418677,
				"element": "C" 
			},
			{
				"x": 0.3171517825,
				"y": -0.8007314172,
				"z": 1.8453197322,
				"element": "C" 
			},
			{
				"x": 0.5688193325,
				"y": 0.368164022,
				"z": 1.0687528164,
				"element": "C" 
			},
			{
				"x": -0.0668652569,
				"y": 1.4202948005,
				"z": 1.5385334057,
				"element": "N" 
			},
			{
				"x": -0.7655399063,
				"y": 0.9543420352,
				"z": 2.6511745423,
				"element": "O" 
			},
			{
				"x": 1.5035932847,
				"y": 0.5356155792,
				"z": -0.0955683927,
				"element": "C" 
			},
			{
				"x": 2.3909832509,
				"y": 1.3720100403,
				"z": -0.0916564184,
				"element": "O" 
			},
			{
				"x": 1.3718269677,
				"y": -0.3612158712,
				"z": -1.1383848069,
				"element": "N" 
			},
			{
				"x": 0.2933115848,
				"y": -1.2092573331,
				"z": -1.4877743742,
				"element": "C" 
			},
			{
				"x": -1.0436319221,
				"y": -0.8331155688,
				"z": -1.2957867403,
				"element": "C" 
			},
			{
				"x": -2.0753807469,
				"y": -1.6927896761,
				"z": -1.667786263,
				"element": "C" 
			},
			{
				"x": -1.7737282279,
				"y": -2.9170835046,
				"z": -2.2630571565,
				"element": "C" 
			},
			{
				"x": -3.0758154377,
				"y": -3.9928916196,
				"z": -2.7456085281,
				"element": "Cl" 
			},
			{
				"x": -0.4499741031,
				"y": -3.2943507184,
				"z": -2.4872013045,
				"element": "C" 
			},
			{
				"x": 0.5780274415,
				"y": -2.4428830329,
				"z": -2.0897475493,
				"element": "C" 
			},
			{
				"x": -0.8551267487,
				"y": -0.5570609678,
				"z": 4.9327418679,
				"element": "H" 
			},
			{
				"x": -2.2638741543,
				"y": -0.9275618499,
				"z": 3.9322188268,
				"element": "H" 
			},
			{
				"x": -0.916194046,
				"y": -2.0806695295,
				"z": 4.0222877946,
				"element": "H" 
			},
			{
				"x": 0.7051775662,
				"y": -1.7959239569,
				"z": 1.6955894373,
				"element": "H" 
			},
			{
				"x": 2.1305689546,
				"y": -0.2798610857,
				"z": -1.8051340959,
				"element": "H" 
			},
			{
				"x": -1.2800183894,
				"y": 0.1343401967,
				"z": -0.8677147266,
				"element": "H" 
			},
			{
				"x": -3.1089448188,
				"y": -1.4020510385,
				"z": -1.5164698028,
				"element": "H" 
			},
			{
				"x": -0.2260619663,
				"y": -4.2462731792,
				"z": -2.955496627,
				"element": "H" 
			},
			{
				"x": 1.6121672565,
				"y": -2.7388087491,
				"z": -2.2413813338,
				"element": "H" 
			}
		],
		 "valence_orbital": [ 
			{
				"type": "occ",
				"energy": -0.2987,
				"method": "rhf"
			},
			{
				"type": "occ",
				"energy": -0.27758,
				"method": "rhf"
			},
			{
				"type": "occ",
				"energy": -0.27036,
				"method": "rhf"
			},
			{
				"type": "occ",
				"energy": -0.26204,
				"method": "rhf"
			},
			{
				"type": "occ",
				"energy": -0.23688,
				"method": "rhf"
			},
			{
				"type": "unocc",
				"energy": -0.04488,
				"method": "rhf"
			},
			{
				"type": "unocc",
				"energy": -0.02901,
				"method": "rhf"
			},
			{
				"type": "unocc",
				"energy": -0.01723,
				"method": "rhf"
			},
			{
				"type": "unocc",
				"energy": 0.00895,
				"method": "rhf"
			},
			{
				"type": "unocc",
				"energy": 0.02231,
				"method": "rhf"
			}
		],
		"cosmo_sigma_profile": { 
			"-0.025": 0.0,
			"-0.024": 0.0,
			"-0.023": 0.0,
			"-0.022": 0.0,
			"-0.021": 0.0,
			"-0.02": 0.0,
			"-0.019": 0.0,
			"-0.018": 0.0,
			"-0.017": 0.0,
			"-0.016": 0.00420070299836,
			"-0.015": 0.9287981393,
			"-0.014": 1.09059545897,
			"-0.013": 1.31000334027,
			"-0.012": 1.02113799956,
			"-0.011": 1.08944876568,
			"-0.01": 1.06376872125,
			"-0.009": 2.16557295147,
			"-0.008": 4.37119616969,
			"-0.007": 12.1574849116,
			"-0.006": 17.1490704768,
			"-0.005": 16.8064076767,
			"-0.004": 14.6714373264,
			"-0.003": 19.842508146,
			"-0.002": 17.4531423916,
			"-0.001": 18.1804432096,
			"0.0": 16.8799473998,
			"0.001": 17.9346830586,
			"0.002": 20.1554640166,
			"0.003": 20.6050255129,
			"0.004": 12.7521611672,
			"0.005": 8.50762286633,
			"0.006": 3.88859476946,
			"0.007": 5.28672984393,
			"0.008": 4.50792600504,
			"0.009": 3.3387117519,
			"0.01": 3.70805340649,
			"0.011": 4.78128548863,
			"0.012": 7.44597571236,
			"0.013": 3.82997739646,
			"0.014": 0.448295310368,
			"0.015": 0.0,
			"0.016": 0.0,
			"0.017": 0.0,
			"0.018": 0.0,
			"0.019": 0.0,
			"0.02": 0.0,
			"0.021": 0.0,
			"0.022": 0.0,
			"0.023": 0.0,
			"0.024": 0.0,
			"0.025": 0.0
		}
	}
}
