{
	 "smiles": "NC(CC1=CNC2=C1C=CC=C2)C(O)=O", 
	 "Tm": 563.15, 
	 "num_atms": 27, 
	 "gaussian": { 
		 "optdone": 1, 
		 "sigma_profile": "yes", 
		 "theory": "DFT", 
		 "functional": "B3LYP", 
		 "basiset": "6-31G**", 
		 "properties": { 
			 "R2extent": 4275.1909, 
			 "electric_dipole_moment_norm": 3.15100698032, 
			 "electric_quadrupole_moment_norm": 17.9367682346, 
			 "total_energy": -686.373473544, 
			 "HOMO_LUMO_gap": 0.19176, 
			 "cosmo_polarized_energy": -16.69, 
			 "cosmo_cavitation_energy": 30.37, 
			 "cosmo_dispersion_energy": -21.66, 
			 "cosmo_repulsion_energy": 1.7, 
			 "cosmo_total_nonelectrostatic_energy": 10.42, 
			 "SMD_solvation_energy": 4.87 
		},
		"coords": [
			{
				"x": 0.4680135159,
				"y": -0.4490893122,
				"z": -0.9317605321,
				"element": "N" 
			},
			{
				"x": -0.9181971607,
				"y": -0.2310329371,
				"z": -0.5491130583,
				"element": "C" 
			},
			{
				"x": -1.0355963333,
				"y": 0.8716571177,
				"z": 0.5341775665,
				"element": "C" 
			},
			{
				"x": -0.4071598966,
				"y": 0.5257030681,
				"z": 1.8562517848,
				"element": "C" 
			},
			{
				"x": -1.059007927,
				"y": 0.018145231,
				"z": 2.9544673267,
				"element": "C" 
			},
			{
				"x": -0.1665982996,
				"y": -0.1697197254,
				"z": 3.9928628189,
				"element": "N" 
			},
			{
				"x": 1.0929640443,
				"y": 0.2199137585,
				"z": 3.5857715566,
				"element": "C" 
			},
			{
				"x": 0.980786926,
				"y": 0.6625880521,
				"z": 2.2381192249,
				"element": "C" 
			},
			{
				"x": 2.1354535953,
				"y": 1.1250329973,
				"z": 1.5786625571,
				"element": "C" 
			},
			{
				"x": 3.343711788,
				"y": 1.13616806,
				"z": 2.2642145522,
				"element": "C" 
			},
			{
				"x": 3.4297444254,
				"y": 0.6923479618,
				"z": 3.6002581858,
				"element": "C" 
			},
			{
				"x": 2.3086929269,
				"y": 0.2279434057,
				"z": 4.2783140889,
				"element": "C" 
			},
			{
				"x": -1.6296005473,
				"y": -1.5189838065,
				"z": -0.118867016,
				"element": "C" 
			},
			{
				"x": -2.9146020937,
				"y": -1.3004392289,
				"z": 0.2641834641,
				"element": "O" 
			},
			{
				"x": -1.1425504041,
				"y": -2.6275888507,
				"z": -0.1402038858,
				"element": "O" 
			},
			{
				"x": 0.979871584,
				"y": -0.796758787,
				"z": -0.1228916011,
				"element": "H" 
			},
			{
				"x": 0.511260165,
				"y": -1.1999185938,
				"z": -1.6171698349,
				"element": "H" 
			},
			{
				"x": -1.4661377092,
				"y": 0.1288414787,
				"z": -1.4319799915,
				"element": "H" 
			},
			{
				"x": -2.0962250562,
				"y": 1.0951191121,
				"z": 0.67899694,
				"element": "H" 
			},
			{
				"x": -0.5667843324,
				"y": 1.7704037687,
				"z": 0.1198317322,
				"element": "H" 
			},
			{
				"x": -2.1064435284,
				"y": -0.2193823304,
				"z": 3.0772322247,
				"element": "H" 
			},
			{
				"x": -0.4018850079,
				"y": -0.5242547072,
				"z": 4.9050823682,
				"element": "H" 
			},
			{
				"x": 2.0801647568,
				"y": 1.448997663,
				"z": 0.5437474681,
				"element": "H" 
			},
			{
				"x": 4.2407964037,
				"y": 1.4895269315,
				"z": 1.764170754,
				"element": "H" 
			},
			{
				"x": 4.3894065643,
				"y": 0.7120712835,
				"z": 4.1085464133,
				"element": "H" 
			},
			{
				"x": 2.3753526242,
				"y": -0.1153154679,
				"z": 5.3070845245,
				"element": "H" 
			},
			{
				"x": -3.2799310235,
				"y": -2.1750761426,
				"z": 0.4807103684,
				"element": "H" 
			}
		],
		 "valence_orbital": [ 
			{
				"type": "occ",
				"energy": -0.27648,
				"method": "rhf"
			},
			{
				"type": "occ",
				"energy": -0.26837,
				"method": "rhf"
			},
			{
				"type": "occ",
				"energy": -0.2425,
				"method": "rhf"
			},
			{
				"type": "occ",
				"energy": -0.21798,
				"method": "rhf"
			},
			{
				"type": "occ",
				"energy": -0.19858,
				"method": "rhf"
			},
			{
				"type": "unocc",
				"energy": -0.00682,
				"method": "rhf"
			},
			{
				"type": "unocc",
				"energy": 0.00971,
				"method": "rhf"
			},
			{
				"type": "unocc",
				"energy": 0.03015,
				"method": "rhf"
			},
			{
				"type": "unocc",
				"energy": 0.0614,
				"method": "rhf"
			},
			{
				"type": "unocc",
				"energy": 0.07345,
				"method": "rhf"
			}
		],
		"cosmo_sigma_profile": { 
			"-0.025": 0.0,
			"-0.024": 0.0,
			"-0.023": 0.0,
			"-0.022": 0.0,
			"-0.021": 0.0,
			"-0.02": 0.0,
			"-0.019": 0.0,
			"-0.018": 0.449404347316,
			"-0.017": 1.03724514015,
			"-0.016": 1.08987028361,
			"-0.015": 2.25033369181,
			"-0.014": 2.09781040943,
			"-0.013": 2.2358321573,
			"-0.012": 1.9665454736,
			"-0.011": 1.40998431882,
			"-0.01": 2.6590297166,
			"-0.009": 3.12560081228,
			"-0.008": 3.60675914725,
			"-0.007": 7.7147423544,
			"-0.006": 10.5780573009,
			"-0.005": 9.59986612727,
			"-0.004": 15.1331326616,
			"-0.003": 17.6337969037,
			"-0.002": 18.8821290522,
			"-0.001": 14.0880090913,
			"0.0": 12.5160962656,
			"0.001": 12.8663380762,
			"0.002": 12.708195681,
			"0.003": 12.7936095628,
			"0.004": 13.8550720027,
			"0.005": 14.5957323331,
			"0.006": 13.3912893738,
			"0.007": 10.1735632002,
			"0.008": 3.90492963529,
			"0.009": 3.09473216523,
			"0.01": 2.92403445028,
			"0.011": 4.20582064991,
			"0.012": 4.45388481876,
			"0.013": 0.543278068601,
			"0.014": 0.391952195737,
			"0.015": 0.944071509847,
			"0.016": 0.269481942363,
			"0.017": 0.379631320039,
			"0.018": 0.331605255961,
			"0.019": 0.0,
			"0.02": 0.0,
			"0.021": 0.0,
			"0.022": 0.0,
			"0.023": 0.0,
			"0.024": 0.0,
			"0.025": 0.0
		}
	}
}
