{
	 "smiles": "OC(=O)CN1C=C2C=CC=CC2=N1", 
	 "Tm": 522.15, 
	 "num_atms": 21, 
	 "gaussian": { 
		 "optdone": 1, 
		 "sigma_profile": "yes", 
		 "theory": "DFT", 
		 "functional": "B3LYP", 
		 "basiset": "6-31G**", 
		 "properties": { 
			 "R2extent": 2813.4182, 
			 "electric_dipole_moment_norm": 2.5521540412, 
			 "electric_quadrupole_moment_norm": 8.74806289415, 
			 "total_energy": -607.715146912, 
			 "HOMO_LUMO_gap": 0.17081, 
			 "cosmo_polarized_energy": -15.68, 
			 "cosmo_cavitation_energy": 26.12, 
			 "cosmo_dispersion_energy": -19.05, 
			 "cosmo_repulsion_energy": 1.52, 
			 "cosmo_total_nonelectrostatic_energy": 8.59, 
			 "SMD_solvation_energy": 4.92 
		},
		"coords": [
			{
				"x": -1.9263793949,
				"y": 0.0373431504,
				"z": 1.73647432,
				"element": "O" 
			},
			{
				"x": -1.1162524534,
				"y": 0.340547183,
				"z": 2.76631807,
				"element": "C" 
			},
			{
				"x": -1.4509205599,
				"y": 0.3066515472,
				"z": 3.9273174566,
				"element": "O" 
			},
			{
				"x": 0.2729958313,
				"y": 0.7941020886,
				"z": 2.3235701926,
				"element": "C" 
			},
			{
				"x": 0.6712414462,
				"y": 0.3686644808,
				"z": 1.0001916063,
				"element": "N" 
			},
			{
				"x": 0.5630476264,
				"y": 1.0723219706,
				"z": -0.1547086832,
				"element": "C" 
			},
			{
				"x": 1.0142278461,
				"y": 0.2240055456,
				"z": -1.1675102108,
				"element": "C" 
			},
			{
				"x": 1.1782748107,
				"y": 0.3195817575,
				"z": -2.5735466685,
				"element": "C" 
			},
			{
				"x": 1.6773083633,
				"y": -0.7739824926,
				"z": -3.2422738106,
				"element": "C" 
			},
			{
				"x": 2.0269620226,
				"y": -1.9759970301,
				"z": -2.5531597105,
				"element": "C" 
			},
			{
				"x": 1.88237132,
				"y": -2.099417059,
				"z": -1.191228004,
				"element": "C" 
			},
			{
				"x": 1.3672047421,
				"y": -0.9871726354,
				"z": -0.4760454143,
				"element": "C" 
			},
			{
				"x": 1.1493749047,
				"y": -0.88468564,
				"z": 0.8505487205,
				"element": "N" 
			},
			{
				"x": -2.7763601082,
				"y": -0.2308664922,
				"z": 2.1249888461,
				"element": "H" 
			},
			{
				"x": 0.2989301142,
				"y": 1.8872267027,
				"z": 2.3725186765,
				"element": "H" 
			},
			{
				"x": 0.9887692424,
				"y": 0.4033520887,
				"z": 3.0478132566,
				"element": "H" 
			},
			{
				"x": 0.1844698733,
				"y": 2.0834809675,
				"z": -0.16908329,
				"element": "H" 
			},
			{
				"x": 0.9154683195,
				"y": 1.2293193189,
				"z": -3.1055474598,
				"element": "H" 
			},
			{
				"x": 1.8124027829,
				"y": -0.7311333488,
				"z": -4.3191090239,
				"element": "H" 
			},
			{
				"x": 2.4173381514,
				"y": -2.8106496599,
				"z": -3.1285780171,
				"element": "H" 
			},
			{
				"x": 2.1477251192,
				"y": -3.0104924436,
				"z": -0.6649508526,
				"element": "H" 
			}
		],
		 "valence_orbital": [ 
			{
				"type": "occ",
				"energy": -0.29468,
				"method": "rhf"
			},
			{
				"type": "occ",
				"energy": -0.28704,
				"method": "rhf"
			},
			{
				"type": "occ",
				"energy": -0.28356,
				"method": "rhf"
			},
			{
				"type": "occ",
				"energy": -0.24047,
				"method": "rhf"
			},
			{
				"type": "occ",
				"energy": -0.20675,
				"method": "rhf"
			},
			{
				"type": "unocc",
				"energy": -0.03594,
				"method": "rhf"
			},
			{
				"type": "unocc",
				"energy": -0.00692,
				"method": "rhf"
			},
			{
				"type": "unocc",
				"energy": 0.03414,
				"method": "rhf"
			},
			{
				"type": "unocc",
				"energy": 0.04641,
				"method": "rhf"
			},
			{
				"type": "unocc",
				"energy": 0.06391,
				"method": "rhf"
			}
		],
		"cosmo_sigma_profile": { 
			"-0.025": 0.0,
			"-0.024": 0.0,
			"-0.023": 0.0,
			"-0.022": 0.0,
			"-0.021": 0.0,
			"-0.02": 0.0229606333379,
			"-0.019": 0.720735299214,
			"-0.018": 0.713240125387,
			"-0.017": 1.26791949394,
			"-0.016": 0.85008969325,
			"-0.015": 0.327205915283,
			"-0.014": 1.08669421223,
			"-0.013": 0.476251080817,
			"-0.012": 0.781914987857,
			"-0.011": 3.01918827149,
			"-0.01": 4.3607373457,
			"-0.009": 5.35638565134,
			"-0.008": 6.01374888766,
			"-0.007": 4.83441679345,
			"-0.006": 10.4609586257,
			"-0.005": 13.0486360886,
			"-0.004": 13.1017790567,
			"-0.003": 12.7712113594,
			"-0.002": 9.62828591013,
			"-0.001": 8.97754211428,
			"0.0": 9.05649540019,
			"0.001": 9.2739050184,
			"0.002": 9.41876188627,
			"0.003": 12.2905712423,
			"0.004": 17.6189238372,
			"0.005": 14.8879414747,
			"0.006": 10.7037440486,
			"0.007": 5.1570251565,
			"0.008": 3.99291025734,
			"0.009": 3.23935536906,
			"0.01": 4.1061084242,
			"0.011": 6.10632206149,
			"0.012": 2.68336002729,
			"0.013": 0.993257838706,
			"0.014": 0.753778859045,
			"0.015": 0.889779254873,
			"0.016": 0.140724284987,
			"0.017": 0.0,
			"0.018": 0.0,
			"0.019": 0.0,
			"0.02": 0.0,
			"0.021": 0.0,
			"0.022": 0.0,
			"0.023": 0.0,
			"0.024": 0.0,
			"0.025": 0.0
		}
	}
}
