{
	 "smiles": "OC(=O)CSC1=NC2=C(C=CC(Cl)=C2)N1CC1=CC=CC=C1", 
	 "Tm": 429.15, 
	 "num_atms": 35, 
	 "gaussian": { 
		 "optdone": 1, 
		 "sigma_profile": "yes", 
		 "theory": "DFT", 
		 "functional": "B3LYP", 
		 "basiset": "6-31G**", 
		 "properties": { 
			 "R2extent": 11213.558, 
			 "electric_dipole_moment_norm": 7.35219030358, 
			 "electric_quadrupole_moment_norm": 16.7261495922, 
			 "total_energy": -1735.88521142, 
			 "HOMO_LUMO_gap": 0.19537, 
			 "cosmo_polarized_energy": -19.24, 
			 "cosmo_cavitation_energy": 43.34, 
			 "cosmo_dispersion_energy": -30.33, 
			 "cosmo_repulsion_energy": 2.3, 
			 "cosmo_total_nonelectrostatic_energy": 15.31, 
			 "SMD_solvation_energy": 6.47 
		},
		"coords": [
			{
				"x": 2.3574623746,
				"y": -2.2481534653,
				"z": -1.9286591172,
				"element": "O" 
			},
			{
				"x": 3.2408331643,
				"y": -2.8600104741,
				"z": -1.1216794984,
				"element": "C" 
			},
			{
				"x": 3.8443584691,
				"y": -3.8462586282,
				"z": -1.4611903772,
				"element": "O" 
			},
			{
				"x": 3.4636149368,
				"y": -2.2749920025,
				"z": 0.2797494016,
				"element": "C" 
			},
			{
				"x": 2.6955415738,
				"y": -0.6437003922,
				"z": 0.6286142016,
				"element": "S" 
			},
			{
				"x": 1.2840172937,
				"y": -1.1791600727,
				"z": 1.5704556156,
				"element": "C" 
			},
			{
				"x": 0.9994226468,
				"y": -2.4244907207,
				"z": 1.8512040107,
				"element": "N" 
			},
			{
				"x": -0.1612467643,
				"y": -2.3567675328,
				"z": 2.610444592,
				"element": "C" 
			},
			{
				"x": -0.5646531486,
				"y": -1.0120385593,
				"z": 2.7661820666,
				"element": "C" 
			},
			{
				"x": -1.7024439267,
				"y": -0.6528086973,
				"z": 3.4879915202,
				"element": "C" 
			},
			{
				"x": -2.4380436765,
				"y": -1.6856124169,
				"z": 4.0654457845,
				"element": "C" 
			},
			{
				"x": -2.0349879783,
				"y": -3.0246209896,
				"z": 3.911006532,
				"element": "C" 
			},
			{
				"x": -3.0100543815,
				"y": -4.2829662176,
				"z": 4.6642634662,
				"element": "Cl" 
			},
			{
				"x": -0.9046923882,
				"y": -3.3908829141,
				"z": 3.1892277407,
				"element": "C" 
			},
			{
				"x": 0.3877925517,
				"y": -0.2606777497,
				"z": 2.0804035215,
				"element": "N" 
			},
			{
				"x": 0.4401145975,
				"y": 1.1957352045,
				"z": 2.0082171365,
				"element": "C" 
			},
			{
				"x": -0.6955096125,
				"y": 1.8250726717,
				"z": 1.2180900196,
				"element": "C" 
			},
			{
				"x": -1.1802598971,
				"y": 1.2388872217,
				"z": 0.0430810409,
				"element": "C" 
			},
			{
				"x": -2.1908445015,
				"y": 1.8600079792,
				"z": -0.6904395147,
				"element": "C" 
			},
			{
				"x": -2.7253270374,
				"y": 3.07669879,
				"z": -0.2605148793,
				"element": "C" 
			},
			{
				"x": -2.2472475007,
				"y": 3.6666642962,
				"z": 0.9100668111,
				"element": "C" 
			},
			{
				"x": -1.2401654764,
				"y": 3.0407375553,
				"z": 1.6469013089,
				"element": "C" 
			},
			{
				"x": 2.0066422812,
				"y": -1.4574996727,
				"z": -1.4806826763,
				"element": "H" 
			},
			{
				"x": 4.5375230536,
				"y": -2.1746188759,
				"z": 0.4423960462,
				"element": "H" 
			},
			{
				"x": 3.0545898767,
				"y": -2.978383851,
				"z": 1.0106052445,
				"element": "H" 
			},
			{
				"x": -2.0190905624,
				"y": 0.3791247579,
				"z": 3.591701076,
				"element": "H" 
			},
			{
				"x": -3.3325030649,
				"y": -1.4640092402,
				"z": 4.6359964141,
				"element": "H" 
			},
			{
				"x": -0.6080315686,
				"y": -4.4268258672,
				"z": 3.0782858833,
				"element": "H" 
			},
			{
				"x": 1.4052961912,
				"y": 1.4638638254,
				"z": 1.5650416363,
				"element": "H" 
			},
			{
				"x": 0.4478151441,
				"y": 1.5931118342,
				"z": 3.0296802269,
				"element": "H" 
			},
			{
				"x": -0.7756072834,
				"y": 0.288345092,
				"z": -0.2924826271,
				"element": "H" 
			},
			{
				"x": -2.5621443265,
				"y": 1.3923777747,
				"z": -1.597582888,
				"element": "H" 
			},
			{
				"x": -3.51294436,
				"y": 3.5584736178,
				"z": -0.8321450001,
				"element": "H" 
			},
			{
				"x": -2.6618767104,
				"y": 4.6091458661,
				"z": 1.2555291284,
				"element": "H" 
			},
			{
				"x": -0.874949989,
				"y": 3.5018318531,
				"z": 2.5617961522,
				"element": "H" 
			}
		],
		 "valence_orbital": [ 
			{
				"type": "occ",
				"energy": -0.27209,
				"method": "rhf"
			},
			{
				"type": "occ",
				"energy": -0.26964,
				"method": "rhf"
			},
			{
				"type": "occ",
				"energy": -0.26429,
				"method": "rhf"
			},
			{
				"type": "occ",
				"energy": -0.23996,
				"method": "rhf"
			},
			{
				"type": "occ",
				"energy": -0.22929,
				"method": "rhf"
			},
			{
				"type": "unocc",
				"energy": -0.03392,
				"method": "rhf"
			},
			{
				"type": "unocc",
				"energy": -0.02837,
				"method": "rhf"
			},
			{
				"type": "unocc",
				"energy": -0.02211,
				"method": "rhf"
			},
			{
				"type": "unocc",
				"energy": -0.00299,
				"method": "rhf"
			},
			{
				"type": "unocc",
				"energy": -0.00035,
				"method": "rhf"
			}
		],
		"cosmo_sigma_profile": { 
			"-0.025": 0.0,
			"-0.024": 0.0,
			"-0.023": 0.0,
			"-0.022": 0.0,
			"-0.021": 0.0,
			"-0.02": 0.0,
			"-0.019": 0.0,
			"-0.018": 0.0,
			"-0.017": 0.0,
			"-0.016": 0.0,
			"-0.015": 0.0,
			"-0.014": 0.297274673658,
			"-0.013": 0.456249707856,
			"-0.012": 1.03479938513,
			"-0.011": 1.27983119003,
			"-0.01": 2.22620040292,
			"-0.009": 4.92251901654,
			"-0.008": 4.96692794794,
			"-0.007": 13.948681656,
			"-0.006": 23.8866400467,
			"-0.005": 26.1750466947,
			"-0.004": 24.7624691724,
			"-0.003": 19.7478751116,
			"-0.002": 20.4178588067,
			"-0.001": 19.6413726195,
			"0.0": 20.878628522,
			"0.001": 22.1625589453,
			"0.002": 26.4326944244,
			"0.003": 31.6375431981,
			"0.004": 26.657170388,
			"0.005": 22.8178490569,
			"0.006": 7.15528613711,
			"0.007": 3.59952193027,
			"0.008": 4.63186425881,
			"0.009": 4.96487650374,
			"0.01": 5.78052426976,
			"0.011": 5.97774757838,
			"0.012": 4.72869138881,
			"0.013": 0.780926735751,
			"0.014": 0.0,
			"0.015": 0.0,
			"0.016": 0.0,
			"0.017": 0.0,
			"0.018": 0.0,
			"0.019": 0.0,
			"0.02": 0.0,
			"0.021": 0.0,
			"0.022": 0.0,
			"0.023": 0.0,
			"0.024": 0.0,
			"0.025": 0.0
		}
	}
}
