{
	 "smiles": "C(SC1=CC=CC=C1)C1=CC=CC=C1", 
	 "Tm": 315.35, 
	 "num_atms": 26, 
	 "gaussian": { 
		 "optdone": 1, 
		 "sigma_profile": "yes", 
		 "theory": "DFT", 
		 "functional": "B3LYP", 
		 "basiset": "6-31G**", 
		 "properties": { 
			 "R2extent": 4048.0708, 
			 "electric_dipole_moment_norm": 1.82377346729, 
			 "electric_quadrupole_moment_norm": 8.92154221758, 
			 "total_energy": -900.804572822, 
			 "HOMO_LUMO_gap": 0.19976, 
			 "cosmo_polarized_energy": -7.14, 
			 "cosmo_cavitation_energy": 31.33, 
			 "cosmo_dispersion_energy": -21.92, 
			 "cosmo_repulsion_energy": 1.7, 
			 "cosmo_total_nonelectrostatic_energy": 11.11, 
			 "SMD_solvation_energy": 4.63 
		},
		"coords": [
			{
				"x": 3.0824482823,
				"y": -0.9648772053,
				"z": -0.2996817586,
				"element": "C" 
			},
			{
				"x": 3.0019518131,
				"y": 0.3615544309,
				"z": -1.6052937996,
				"element": "S" 
			},
			{
				"x": 1.5482542058,
				"y": 1.2822350613,
				"z": -1.0944281047,
				"element": "C" 
			},
			{
				"x": 1.6756685688,
				"y": 2.3597379625,
				"z": -0.2060493204,
				"element": "C" 
			},
			{
				"x": 0.5520018528,
				"y": 3.0986290235,
				"z": 0.1666112183,
				"element": "C" 
			},
			{
				"x": -0.7043006148,
				"y": 2.7708043444,
				"z": -0.3483935222,
				"element": "C" 
			},
			{
				"x": -0.834952796,
				"y": 1.7022188641,
				"z": -1.2372870933,
				"element": "C" 
			},
			{
				"x": 0.2861646853,
				"y": 0.9590417801,
				"z": -1.6114025677,
				"element": "C" 
			},
			{
				"x": 1.9678039964,
				"y": -1.9754752252,
				"z": -0.3432445258,
				"element": "C" 
			},
			{
				"x": 1.9676867872,
				"y": -3.0039735972,
				"z": -1.2975272099,
				"element": "C" 
			},
			{
				"x": 0.9356566033,
				"y": -3.9393602673,
				"z": -1.3367275581,
				"element": "C" 
			},
			{
				"x": -0.1183691105,
				"y": -3.8606265608,
				"z": -0.4217529962,
				"element": "C" 
			},
			{
				"x": -0.1306414706,
				"y": -2.8407284114,
				"z": 0.5296519218,
				"element": "C" 
			},
			{
				"x": 0.9054901051,
				"y": -1.9049143621,
				"z": 0.5670988477,
				"element": "C" 
			},
			{
				"x": 4.0514307564,
				"y": -1.4365191004,
				"z": -0.4901168995,
				"element": "H" 
			},
			{
				"x": 3.1349698475,
				"y": -0.4737184294,
				"z": 0.6750849918,
				"element": "H" 
			},
			{
				"x": 2.6564111177,
				"y": 2.6172908731,
				"z": 0.1820488492,
				"element": "H" 
			},
			{
				"x": 0.6588526605,
				"y": 3.9333272506,
				"z": 0.8537449643,
				"element": "H" 
			},
			{
				"x": -1.5775944537,
				"y": 3.3495117087,
				"z": -0.0610689448,
				"element": "H" 
			},
			{
				"x": -1.8099433911,
				"y": 1.4459616634,
				"z": -1.6420477098,
				"element": "H" 
			},
			{
				"x": 0.1910760855,
				"y": 0.1289706276,
				"z": -2.3032974867,
				"element": "H" 
			},
			{
				"x": 2.7822518584,
				"y": -3.0659865628,
				"z": -2.0149129384,
				"element": "H" 
			},
			{
				"x": 0.953952239,
				"y": -4.7326546053,
				"z": -2.0788356263,
				"element": "H" 
			},
			{
				"x": -0.9218042154,
				"y": -4.5911224048,
				"z": -0.4506675669,
				"element": "H" 
			},
			{
				"x": -0.9452761244,
				"y": -2.7718456288,
				"z": 1.2451294439,
				"element": "H" 
			},
			{
				"x": 0.8918107115,
				"y": -1.1127812294,
				"z": 1.3110653919,
				"element": "H" 
			}
		],
		 "valence_orbital": [ 
			{
				"type": "occ",
				"energy": -0.25528,
				"method": "rhf"
			},
			{
				"type": "occ",
				"energy": -0.25454,
				"method": "rhf"
			},
			{
				"type": "occ",
				"energy": -0.24738,
				"method": "rhf"
			},
			{
				"type": "occ",
				"energy": -0.24069,
				"method": "rhf"
			},
			{
				"type": "occ",
				"energy": -0.2222,
				"method": "rhf"
			},
			{
				"type": "unocc",
				"energy": -0.02244,
				"method": "rhf"
			},
			{
				"type": "unocc",
				"energy": -0.00662,
				"method": "rhf"
			},
			{
				"type": "unocc",
				"energy": -0.00185,
				"method": "rhf"
			},
			{
				"type": "unocc",
				"energy": 0.00205,
				"method": "rhf"
			},
			{
				"type": "unocc",
				"energy": 0.05607,
				"method": "rhf"
			}
		],
		"cosmo_sigma_profile": { 
			"-0.025": 0.0,
			"-0.024": 0.0,
			"-0.023": 0.0,
			"-0.022": 0.0,
			"-0.021": 0.0,
			"-0.02": 0.0,
			"-0.019": 0.0,
			"-0.018": 0.0,
			"-0.017": 0.0,
			"-0.016": 0.0,
			"-0.015": 0.0,
			"-0.014": 0.0,
			"-0.013": 0.0,
			"-0.012": 0.0,
			"-0.011": 0.0,
			"-0.01": 0.0,
			"-0.009": 0.0,
			"-0.008": 0.0,
			"-0.007": 0.926878557916,
			"-0.006": 13.4619093243,
			"-0.005": 25.5081962511,
			"-0.004": 26.113940074,
			"-0.003": 21.8696331706,
			"-0.002": 18.4870818249,
			"-0.001": 14.8497556461,
			"0.0": 15.1098244043,
			"0.001": 15.7331903398,
			"0.002": 17.6885771371,
			"0.003": 19.1454758871,
			"0.004": 22.197598303,
			"0.005": 23.2755498003,
			"0.006": 9.86495803901,
			"0.007": 2.07941380551,
			"0.008": 2.69046024681,
			"0.009": 1.91352156651,
			"0.01": 1.0387228017,
			"0.011": 0.0592613640819,
			"0.012": 0.0,
			"0.013": 0.0,
			"0.014": 0.0,
			"0.015": 0.0,
			"0.016": 0.0,
			"0.017": 0.0,
			"0.018": 0.0,
			"0.019": 0.0,
			"0.02": 0.0,
			"0.021": 0.0,
			"0.022": 0.0,
			"0.023": 0.0,
			"0.024": 0.0,
			"0.025": 0.0
		}
	}
}
