{
	 "smiles": "OCC1OC(CC1O)N1C=C(I)C(=O)NC1=O", 
	 "Tm": 536.15, 
	 "num_atms": 28, 
	 "gaussian": { 
		 "optdone": 1, 
		 "sigma_profile": "no", 
		 "theory": "DFT", 
		 "functional": "B3LYP", 
		 "basiset": "6-31G**", 
		 "properties": { 
			 "R2extent": 5378.4185, 
			 "electric_dipole_moment_norm": 5.15571679886, 
			 "electric_quadrupole_moment_norm": 16.156877889, 
			 "total_energy": -846.592961354, 
			 "HOMO_LUMO_gap": 0.18376, 
			 "cosmo_polarized_energy": -95673.27, 
			 "cosmo_cavitation_energy": 35.19, 
			 "cosmo_dispersion_energy": -26.01, 
			 "cosmo_repulsion_energy": 2.02, 
			 "cosmo_total_nonelectrostatic_energy": 11.2, 
			 "SMD_solvation_energy": 6.21 
		},
		"coords": [
			{
				"x": 0.5468012039,
				"y": -3.8188049482,
				"z": -0.2567292869,
				"element": "O" 
			},
			{
				"x": -0.1519200292,
				"y": -2.9901439414,
				"z": 0.6478542973,
				"element": "C" 
			},
			{
				"x": 0.5931498884,
				"y": -1.6845028573,
				"z": 0.9038606815,
				"element": "C" 
			},
			{
				"x": 0.8193085885,
				"y": -1.0539183245,
				"z": -0.3823851023,
				"element": "O" 
			},
			{
				"x": 0.3876730951,
				"y": 0.2991757615,
				"z": -0.3328891845,
				"element": "C" 
			},
			{
				"x": -0.7219282022,
				"y": 0.3172183011,
				"z": 0.7240303774,
				"element": "C" 
			},
			{
				"x": -0.1692089788,
				"y": -0.6622559487,
				"z": 1.7688186502,
				"element": "C" 
			},
			{
				"x": 0.7883895159,
				"y": -0.0522616976,
				"z": 2.6239273071,
				"element": "O" 
			},
			{
				"x": -0.0294368191,
				"y": 0.7065711873,
				"z": -1.6793596053,
				"element": "N" 
			},
			{
				"x": -0.7557280019,
				"y": -0.1487108702,
				"z": -2.4782787649,
				"element": "C" 
			},
			{
				"x": -1.1836452012,
				"y": 0.1837433889,
				"z": -3.718569612,
				"element": "C" 
			},
			{
				"x": -2.2716093075,
				"y": -1.159160558,
				"z": -4.8998956109,
				"element": "I" 
			},
			{
				"x": -0.8742916249,
				"y": 1.5049706984,
				"z": -4.2747910293,
				"element": "C" 
			},
			{
				"x": -1.1904581728,
				"y": 1.9384982995,
				"z": -5.3660224986,
				"element": "O" 
			},
			{
				"x": -0.1248087143,
				"y": 2.2951795181,
				"z": -3.3801066527,
				"element": "N" 
			},
			{
				"x": 0.3163557237,
				"y": 1.9978430394,
				"z": -2.1037315592,
				"element": "C" 
			},
			{
				"x": 0.9355462246,
				"y": 2.7862772302,
				"z": -1.4101443721,
				"element": "O" 
			},
			{
				"x": 0.7841524745,
				"y": -3.2666508377,
				"z": -1.0151679821,
				"element": "H" 
			},
			{
				"x": -0.2469463294,
				"y": -3.5474354588,
				"z": 1.5861062605,
				"element": "H" 
			},
			{
				"x": -1.1726356158,
				"y": -2.7638264071,
				"z": 0.2908902496,
				"element": "H" 
			},
			{
				"x": 1.5666909596,
				"y": -1.8901934631,
				"z": 1.3609692064,
				"element": "H" 
			},
			{
				"x": 1.2055726949,
				"y": 0.969017838,
				"z": -0.0582311957,
				"element": "H" 
			},
			{
				"x": -1.6553929468,
				"y": -0.0622695489,
				"z": 0.2927332239,
				"element": "H" 
			},
			{
				"x": -0.9064731174,
				"y": 1.3172387671,
				"z": 1.1250409162,
				"element": "H" 
			},
			{
				"x": -0.969764453,
				"y": -1.1436729246,
				"z": 2.3492874955,
				"element": "H" 
			},
			{
				"x": 0.3374884355,
				"y": 0.6078332458,
				"z": 3.1668054669,
				"element": "H" 
			},
			{
				"x": -0.9370027364,
				"y": -1.1227180597,
				"z": -2.0436323466,
				"element": "H" 
			},
			{
				"x": 0.1137214461,
				"y": 3.2231585705,
				"z": -3.7102893294,
				"element": "H" 
			}
		],
		 "valence_orbital": [ 
			{
				"type": "occ",
				"energy": -0.28976,
				"method": "rhf"
			},
			{
				"type": "occ",
				"energy": -0.28041,
				"method": "rhf"
			},
			{
				"type": "occ",
				"energy": -0.27517,
				"method": "rhf"
			},
			{
				"type": "occ",
				"energy": -0.27041,
				"method": "rhf"
			},
			{
				"type": "occ",
				"energy": -0.24018,
				"method": "rhf"
			},
			{
				"type": "unocc",
				"energy": -0.05642,
				"method": "rhf"
			},
			{
				"type": "unocc",
				"energy": -0.04748,
				"method": "rhf"
			},
			{
				"type": "unocc",
				"energy": -0.00375,
				"method": "rhf"
			},
			{
				"type": "unocc",
				"energy": 0.03184,
				"method": "rhf"
			},
			{
				"type": "unocc",
				"energy": 0.04259,
				"method": "rhf"
			}
		],
		"cosmo_sigma_profile": { 
			"0.0": 0.0,
			"0.0": 0.0,
			"0.0": 0.0,
			"0.0": 0.0,
			"0.0": 0.0,
			"0.0": 0.0,
			"0.0": 0.0,
			"0.0": 0.0,
			"0.0": 0.0,
			"0.0": 0.0,
			"0.0": 0.0,
			"0.0": 0.0,
			"0.0": 0.0,
			"0.0": 0.0,
			"0.0": 0.0,
			"0.0": 0.0,
			"0.0": 0.0,
			"0.0": 0.0,
			"0.0": 0.0,
			"0.0": 0.0,
			"0.0": 0.0,
			"0.0": 0.0,
			"0.0": 0.0,
			"0.0": 0.0,
			"0.0": 0.0,
			"0.0": 0.0,
			"0.0": 0.0,
			"0.0": 0.0,
			"0.0": 0.0,
			"0.0": 0.0,
			"0.0": 0.0,
			"0.0": 0.0,
			"0.0": 0.0,
			"0.0": 0.0,
			"0.0": 0.0,
			"0.0": 0.0,
			"0.0": 0.0,
			"0.0": 0.0,
			"0.0": 0.0,
			"0.0": 0.0,
			"0.0": 0.0,
			"0.0": 0.0,
			"0.0": 0.0,
			"0.0": 0.0,
			"0.0": 0.0,
			"0.0": 0.0,
			"0.0": 0.0,
			"0.0": 0.0,
			"0.0": 0.0,
			"0.0": 0.0,
			"0.0": 0.0
		}
	}
}
