{
	 "smiles": "COC1=CC(Br)=CC(N)=C1", 
	 "Tm": 313.15, 
	 "num_atms": 18, 
	 "gaussian": { 
		 "optdone": 1, 
		 "sigma_profile": "yes", 
		 "theory": "DFT", 
		 "functional": "B3LYP", 
		 "basiset": "6-31G**", 
		 "properties": { 
			 "R2extent": 4074.0589, 
			 "electric_dipole_moment_norm": 4.28101998477, 
			 "electric_quadrupole_moment_norm": 14.5316927937, 
			 "total_energy": -2972.93632795, 
			 "HOMO_LUMO_gap": 0.20738, 
			 "cosmo_polarized_energy": -10.83, 
			 "cosmo_cavitation_energy": 24.14, 
			 "cosmo_dispersion_energy": -18.44, 
			 "cosmo_repulsion_energy": 1.51, 
			 "cosmo_total_nonelectrostatic_energy": 7.2, 
			 "SMD_solvation_energy": 3.75 
		},
		"coords": [
			{
				"x": -1.1651688247,
				"y": -0.1628449442,
				"z": 2.6337340739,
				"element": "C" 
			},
			{
				"x": -1.5467536458,
				"y": -0.5566166594,
				"z": 1.3259006068,
				"element": "O" 
			},
			{
				"x": -1.2914994535,
				"y": 0.2922738902,
				"z": 0.2897702352,
				"element": "C" 
			},
			{
				"x": -1.6867943111,
				"y": -0.1769826317,
				"z": -0.9737734167,
				"element": "C" 
			},
			{
				"x": -1.4560564224,
				"y": 0.6389418699,
				"z": -2.0703876117,
				"element": "C" 
			},
			{
				"x": -1.9891829625,
				"y": 0.0229538522,
				"z": -3.8044779185,
				"element": "Br" 
			},
			{
				"x": -0.856500444,
				"y": 1.8917253632,
				"z": -1.9680771389,
				"element": "C" 
			},
			{
				"x": -0.4657773306,
				"y": 2.3487955536,
				"z": -0.7005134961,
				"element": "C" 
			},
			{
				"x": 0.1894337946,
				"y": 3.5723236613,
				"z": -0.5660809216,
				"element": "N" 
			},
			{
				"x": -0.6869330775,
				"y": 1.542773827,
				"z": 0.4322119507,
				"element": "C" 
			},
			{
				"x": -1.6849340911,
				"y": 0.7508706723,
				"z": 2.9502694566,
				"element": "H" 
			},
			{
				"x": -0.0817454522,
				"y": -0.0038004728,
				"z": 2.7093650184,
				"element": "H" 
			},
			{
				"x": -1.4535050771,
				"y": -0.9841851289,
				"z": 3.2915225731,
				"element": "H" 
			},
			{
				"x": -2.1548158375,
				"y": -1.1482733502,
				"z": -1.0635052081,
				"element": "H" 
			},
			{
				"x": -0.6906783922,
				"y": 2.4981337916,
				"z": -2.8510330262,
				"element": "H" 
			},
			{
				"x": 0.1094765774,
				"y": 4.0093401937,
				"z": 0.341496354,
				"element": "H" 
			},
			{
				"x": 0.0332771083,
				"y": 4.2290653471,
				"z": -1.3180158123,
				"element": "H" 
			},
			{
				"x": -0.3734421581,
				"y": 1.9046051652,
				"z": 1.4044942816,
				"element": "H" 
			}
		],
		 "valence_orbital": [ 
			{
				"type": "occ",
				"energy": -0.32709,
				"method": "rhf"
			},
			{
				"type": "occ",
				"energy": -0.27731,
				"method": "rhf"
			},
			{
				"type": "occ",
				"energy": -0.26617,
				"method": "rhf"
			},
			{
				"type": "occ",
				"energy": -0.22598,
				"method": "rhf"
			},
			{
				"type": "occ",
				"energy": -0.20479,
				"method": "rhf"
			},
			{
				"type": "unocc",
				"energy": 0.00259,
				"method": "rhf"
			},
			{
				"type": "unocc",
				"energy": 0.01477,
				"method": "rhf"
			},
			{
				"type": "unocc",
				"energy": 0.01557,
				"method": "rhf"
			},
			{
				"type": "unocc",
				"energy": 0.07479,
				"method": "rhf"
			},
			{
				"type": "unocc",
				"energy": 0.098,
				"method": "rhf"
			}
		],
		"cosmo_sigma_profile": { 
			"-0.025": 0.0,
			"-0.024": 0.0,
			"-0.023": 0.0,
			"-0.022": 0.0,
			"-0.021": 0.0,
			"-0.02": 0.0,
			"-0.019": 0.0,
			"-0.018": 0.0,
			"-0.017": 0.0,
			"-0.016": 0.0,
			"-0.015": 0.0,
			"-0.014": 0.0,
			"-0.013": 1.11700095877,
			"-0.012": 3.12835105375,
			"-0.011": 2.75735126067,
			"-0.01": 2.78815530218,
			"-0.009": 3.52153137892,
			"-0.008": 3.25356477218,
			"-0.007": 4.45435823257,
			"-0.006": 8.37450527074,
			"-0.005": 12.5079122338,
			"-0.004": 13.1945232751,
			"-0.003": 13.8985705632,
			"-0.002": 9.71809206358,
			"-0.001": 8.64780502728,
			"0.0": 8.72376018532,
			"0.001": 8.20064468678,
			"0.002": 9.48698975767,
			"0.003": 17.7991832046,
			"0.004": 22.509596523,
			"0.005": 25.2176987892,
			"0.006": 3.78882995919,
			"0.007": 2.55772044201,
			"0.008": 2.25445016741,
			"0.009": 2.04739931008,
			"0.01": 2.47563468237,
			"0.011": 0.844788748652,
			"0.012": 0.53420667122,
			"0.013": 0.753228723932,
			"0.014": 0.403794030848,
			"0.015": 0.0,
			"0.016": 0.0,
			"0.017": 0.0,
			"0.018": 0.0,
			"0.019": 0.0,
			"0.02": 0.0,
			"0.021": 0.0,
			"0.022": 0.0,
			"0.023": 0.0,
			"0.024": 0.0,
			"0.025": 0.0
		}
	}
}
