{
	 "smiles": "OCC1=C2NN=CC2=CC=C1", 
	 "Tm": 475.15, 
	 "num_atms": 19, 
	 "gaussian": { 
		 "optdone": 1, 
		 "sigma_profile": "yes", 
		 "theory": "DFT", 
		 "functional": "B3LYP", 
		 "basiset": "6-31G**", 
		 "properties": { 
			 "R2extent": 2131.0835, 
			 "electric_dipole_moment_norm": 2.58059044019, 
			 "electric_quadrupole_moment_norm": 5.51700949338, 
			 "total_energy": -494.377486616, 
			 "HOMO_LUMO_gap": 0.18827, 
			 "cosmo_polarized_energy": -10.69, 
			 "cosmo_cavitation_energy": 22.56, 
			 "cosmo_dispersion_energy": -17.07, 
			 "cosmo_repulsion_energy": 1.36, 
			 "cosmo_total_nonelectrostatic_energy": 6.85, 
			 "SMD_solvation_energy": 2.88 
		},
		"coords": [
			{
				"x": 2.2568153967,
				"y": 0.5882061453,
				"z": 1.4585787067,
				"element": "O" 
			},
			{
				"x": 1.9915060789,
				"y": 0.3803730551,
				"z": 0.0680596349,
				"element": "C" 
			},
			{
				"x": 1.1642773809,
				"y": -0.8547893087,
				"z": -0.1959578334,
				"element": "C" 
			},
			{
				"x": 0.1082135472,
				"y": -1.2134240299,
				"z": 0.6676231399,
				"element": "C" 
			},
			{
				"x": -0.3349308716,
				"y": -0.6472352392,
				"z": 1.8291306358,
				"element": "N" 
			},
			{
				"x": -1.3913598428,
				"y": -1.3124774956,
				"z": 2.3626731206,
				"element": "N" 
			},
			{
				"x": -1.6472985357,
				"y": -2.3099737051,
				"z": 1.5324310411,
				"element": "C" 
			},
			{
				"x": -0.7386113397,
				"y": -2.324227061,
				"z": 0.4285103246,
				"element": "C" 
			},
			{
				"x": -0.5273426336,
				"y": -3.121347529,
				"z": -0.7130848964,
				"element": "C" 
			},
			{
				"x": 0.5164434915,
				"y": -2.7898467751,
				"z": -1.5616954301,
				"element": "C" 
			},
			{
				"x": 1.3497841878,
				"y": -1.6754767714,
				"z": -1.3006435086,
				"element": "C" 
			},
			{
				"x": 2.7589245406,
				"y": -0.1752682053,
				"z": 1.7750379322,
				"element": "H" 
			},
			{
				"x": 1.4466002648,
				"y": 1.2790258149,
				"z": -0.2453566279,
				"element": "H" 
			},
			{
				"x": 2.921142279,
				"y": 0.3458287734,
				"z": -0.5181436591,
				"element": "H" 
			},
			{
				"x": 0.102935685,
				"y": 0.1158608626,
				"z": 2.3224534014,
				"element": "H" 
			},
			{
				"x": -2.4634588764,
				"y": -2.9881499511,
				"z": 1.7432373911,
				"element": "H" 
			},
			{
				"x": -1.1632478809,
				"y": -3.9769129603,
				"z": -0.9207708934,
				"element": "H" 
			},
			{
				"x": 0.7070267068,
				"y": -3.3921707019,
				"z": -2.4447862436,
				"element": "H" 
			},
			{
				"x": 2.1574804215,
				"y": -1.4495949176,
				"z": -1.9931962358,
				"element": "H" 
			}
		],
		 "valence_orbital": [ 
			{
				"type": "occ",
				"energy": -0.29773,
				"method": "rhf"
			},
			{
				"type": "occ",
				"energy": -0.28687,
				"method": "rhf"
			},
			{
				"type": "occ",
				"energy": -0.27941,
				"method": "rhf"
			},
			{
				"type": "occ",
				"energy": -0.24015,
				"method": "rhf"
			},
			{
				"type": "occ",
				"energy": -0.21772,
				"method": "rhf"
			},
			{
				"type": "unocc",
				"energy": -0.02945,
				"method": "rhf"
			},
			{
				"type": "unocc",
				"energy": 0.01706,
				"method": "rhf"
			},
			{
				"type": "unocc",
				"energy": 0.05062,
				"method": "rhf"
			},
			{
				"type": "unocc",
				"energy": 0.07621,
				"method": "rhf"
			},
			{
				"type": "unocc",
				"energy": 0.10077,
				"method": "rhf"
			}
		],
		"cosmo_sigma_profile": { 
			"-0.025": 0.0,
			"-0.024": 0.0,
			"-0.023": 0.0,
			"-0.022": 0.0,
			"-0.021": 0.0,
			"-0.02": 0.0,
			"-0.019": 0.0,
			"-0.018": 0.0,
			"-0.017": 0.0,
			"-0.016": 0.502398114761,
			"-0.015": 1.33444396082,
			"-0.014": 0.824511886358,
			"-0.013": 1.45577506066,
			"-0.012": 1.39942825571,
			"-0.011": 1.3129807952,
			"-0.01": 1.49629229692,
			"-0.009": 2.07871499321,
			"-0.008": 1.26411053266,
			"-0.007": 3.43276587688,
			"-0.006": 8.55153415445,
			"-0.005": 16.1517056943,
			"-0.004": 15.7147120361,
			"-0.003": 14.2353718616,
			"-0.002": 10.979742544,
			"-0.001": 8.48921961229,
			"0.0": 8.48814569284,
			"0.001": 7.40361169147,
			"0.002": 10.4052869888,
			"0.003": 12.7389236118,
			"0.004": 14.2197085858,
			"0.005": 12.2655201464,
			"0.006": 6.10691329402,
			"0.007": 2.14501592239,
			"0.008": 2.00127309344,
			"0.009": 2.90922146585,
			"0.01": 2.20975029325,
			"0.011": 1.76873691374,
			"0.012": 2.55661072444,
			"0.013": 2.07960742741,
			"0.014": 1.95999709847,
			"0.015": 0.881810744721,
			"0.016": 0.394804771327,
			"0.017": 0.0,
			"0.018": 0.0,
			"0.019": 0.0,
			"0.02": 0.0,
			"0.021": 0.0,
			"0.022": 0.0,
			"0.023": 0.0,
			"0.024": 0.0,
			"0.025": 0.0
		}
	}
}
