{
	 "smiles": "CC1=CC=C(Cl)C=C1", 
	 "Tm": 280.65, 
	 "num_atms": 15, 
	 "gaussian": { 
		 "optdone": 1, 
		 "sigma_profile": "yes", 
		 "theory": "DFT", 
		 "functional": "B3LYP", 
		 "basiset": "6-31G**", 
		 "properties": { 
			 "R2extent": 2381.2066, 
			 "electric_dipole_moment_norm": 2.34235328036, 
			 "electric_quadrupole_moment_norm": 7.28730913232, 
			 "total_energy": -731.164420154, 
			 "HOMO_LUMO_gap": 0.22586, 
			 "cosmo_polarized_energy": -3.74, 
			 "cosmo_cavitation_energy": 20.32, 
			 "cosmo_dispersion_energy": -15.3, 
			 "cosmo_repulsion_energy": 1.27, 
			 "cosmo_total_nonelectrostatic_energy": 6.29, 
			 "SMD_solvation_energy": 3.33 
		},
		"coords": [
			{
				"x": 1.3742027817,
				"y": -0.4682051006,
				"z": 0.678602566,
				"element": "C" 
			},
			{
				"x": 0.1292006999,
				"y": 0.3866244976,
				"z": 0.7030317453,
				"element": "C" 
			},
			{
				"x": 0.1137486413,
				"y": 1.6210260598,
				"z": 1.3657145777,
				"element": "C" 
			},
			{
				"x": -1.0386303725,
				"y": 2.4050191812,
				"z": 1.4194752135,
				"element": "C" 
			},
			{
				"x": -2.1989137507,
				"y": 1.9478583076,
				"z": 0.797093858,
				"element": "C" 
			},
			{
				"x": -3.6590297751,
				"y": 2.9291149082,
				"z": 0.8533391607,
				"element": "Cl" 
			},
			{
				"x": -2.2164756062,
				"y": 0.7265466478,
				"z": 0.1257555986,
				"element": "C" 
			},
			{
				"x": -1.0528290632,
				"y": -0.0413898444,
				"z": 0.0843645518,
				"element": "C" 
			},
			{
				"x": 1.4038215563,
				"y": -1.1507490585,
				"z": 1.537341693,
				"element": "H" 
			},
			{
				"x": 2.2804782307,
				"y": 0.1432937754,
				"z": 0.7193841705,
				"element": "H" 
			},
			{
				"x": 1.4201578115,
				"y": -1.0827009392,
				"z": -0.2253941267,
				"element": "H" 
			},
			{
				"x": 1.0185990594,
				"y": 1.9811169509,
				"z": 1.8489427776,
				"element": "H" 
			},
			{
				"x": -1.0370907005,
				"y": 3.3600526544,
				"z": 1.9334187017,
				"element": "H" 
			},
			{
				"x": -3.1245132523,
				"y": 0.3854036252,
				"z": -0.3593387183,
				"element": "H" 
			},
			{
				"x": -1.0678262603,
				"y": -0.9921116654,
				"z": -0.4427317695,
				"element": "H" 
			}
		],
		 "valence_orbital": [ 
			{
				"type": "occ",
				"energy": -0.35257,
				"method": "rhf"
			},
			{
				"type": "occ",
				"energy": -0.32258,
				"method": "rhf"
			},
			{
				"type": "occ",
				"energy": -0.30835,
				"method": "rhf"
			},
			{
				"type": "occ",
				"energy": -0.26009,
				"method": "rhf"
			},
			{
				"type": "occ",
				"energy": -0.23708,
				"method": "rhf"
			},
			{
				"type": "unocc",
				"energy": -0.01122,
				"method": "rhf"
			},
			{
				"type": "unocc",
				"energy": -0.00854,
				"method": "rhf"
			},
			{
				"type": "unocc",
				"energy": 0.03271,
				"method": "rhf"
			},
			{
				"type": "unocc",
				"energy": 0.10699,
				"method": "rhf"
			},
			{
				"type": "unocc",
				"energy": 0.12499,
				"method": "rhf"
			}
		],
		"cosmo_sigma_profile": { 
			"-0.025": 0.0,
			"-0.024": 0.0,
			"-0.023": 0.0,
			"-0.022": 0.0,
			"-0.021": 0.0,
			"-0.02": 0.0,
			"-0.019": 0.0,
			"-0.018": 0.0,
			"-0.017": 0.0,
			"-0.016": 0.0,
			"-0.015": 0.0,
			"-0.014": 0.0,
			"-0.013": 0.0,
			"-0.012": 0.0,
			"-0.011": 0.0,
			"-0.01": 0.0,
			"-0.009": 0.0,
			"-0.008": 0.0,
			"-0.007": 1.9760745889,
			"-0.006": 7.08753081409,
			"-0.005": 9.99671552821,
			"-0.004": 15.0675398696,
			"-0.003": 11.936271465,
			"-0.002": 12.8274593788,
			"-0.001": 13.8398878426,
			"0.0": 16.0635976088,
			"0.001": 12.299697629,
			"0.002": 13.4246007433,
			"0.003": 15.4169925646,
			"0.004": 18.0101603793,
			"0.005": 15.3593221162,
			"0.006": 0.987872373702,
			"0.007": 0.0,
			"0.008": 0.0,
			"0.009": 0.0,
			"0.01": 0.0,
			"0.011": 0.0,
			"0.012": 0.0,
			"0.013": 0.0,
			"0.014": 0.0,
			"0.015": 0.0,
			"0.016": 0.0,
			"0.017": 0.0,
			"0.018": 0.0,
			"0.019": 0.0,
			"0.02": 0.0,
			"0.021": 0.0,
			"0.022": 0.0,
			"0.023": 0.0,
			"0.024": 0.0,
			"0.025": 0.0
		}
	}
}
