{
	 "smiles": "OC(=O)C1=C(ON=C1)C1=CC=C(Cl)C=C1", 
	 "Tm": 479.15, 
	 "num_atms": 21, 
	 "gaussian": { 
		 "optdone": 1, 
		 "sigma_profile": "yes", 
		 "theory": "DFT", 
		 "functional": "B3LYP", 
		 "basiset": "6-31G**", 
		 "properties": { 
			 "R2extent": 4396.0741, 
			 "electric_dipole_moment_norm": 2.23381337403, 
			 "electric_quadrupole_moment_norm": 13.1804159297, 
			 "total_energy": -1125.25070552, 
			 "HOMO_LUMO_gap": 0.16993, 
			 "cosmo_polarized_energy": -15.15, 
			 "cosmo_cavitation_energy": 28.36, 
			 "cosmo_dispersion_energy": -21.16, 
			 "cosmo_repulsion_energy": 1.63, 
			 "cosmo_total_nonelectrostatic_energy": 8.82, 
			 "SMD_solvation_energy": 5.41 
		},
		"coords": [
			{
				"x": 0.3800421191,
				"y": -3.5122266176,
				"z": 2.3014157305,
				"element": "O" 
			},
			{
				"x": -0.05865402,
				"y": -2.4117843367,
				"z": 1.6318797214,
				"element": "C" 
			},
			{
				"x": -0.8340779302,
				"y": -1.6597439941,
				"z": 2.1786067377,
				"element": "O" 
			},
			{
				"x": 0.4541711159,
				"y": -2.274415933,
				"z": 0.2514060466,
				"element": "C" 
			},
			{
				"x": 0.6192233481,
				"y": -1.1549439513,
				"z": -0.5554428227,
				"element": "C" 
			},
			{
				"x": 1.1431566663,
				"y": -1.5617610069,
				"z": -1.7329068409,
				"element": "O" 
			},
			{
				"x": 1.3218160495,
				"y": -2.9466337125,
				"z": -1.7489423231,
				"element": "N" 
			},
			{
				"x": 0.9152460194,
				"y": -3.3458017767,
				"z": -0.5734185513,
				"element": "C" 
			},
			{
				"x": 0.4225595964,
				"y": 0.2899209912,
				"z": -0.4337185677,
				"element": "C" 
			},
			{
				"x": -0.4062184825,
				"y": 0.8505129536,
				"z": 0.5542354545,
				"element": "C" 
			},
			{
				"x": -0.5732336514,
				"y": 2.230681414,
				"z": 0.6315407096,
				"element": "C" 
			},
			{
				"x": 0.0839090353,
				"y": 3.0562826993,
				"z": -0.2799158928,
				"element": "C" 
			},
			{
				"x": -0.1265354554,
				"y": 4.7934578933,
				"z": -0.181443592,
				"element": "Cl" 
			},
			{
				"x": 0.9074152822,
				"y": 2.5214815228,
				"z": -1.2730034507,
				"element": "C" 
			},
			{
				"x": 1.0726774249,
				"y": 1.1441050122,
				"z": -1.3472394618,
				"element": "C" 
			},
			{
				"x": 1.1213597112,
				"y": -3.9246329698,
				"z": 1.8372044381,
				"element": "H" 
			},
			{
				"x": 0.9299142184,
				"y": -4.407152134,
				"z": -0.3536098811,
				"element": "H" 
			},
			{
				"x": -0.9196293063,
				"y": 0.2022183958,
				"z": 1.253551853,
				"element": "H" 
			},
			{
				"x": -1.2142403417,
				"y": 2.6620563836,
				"z": 1.3920436813,
				"element": "H" 
			},
			{
				"x": 1.4121151187,
				"y": 3.1768129836,
				"z": -1.9737257528,
				"element": "H" 
			},
			{
				"x": 1.713283482,
				"y": 0.7244661831,
				"z": -2.1142172359,
				"element": "H" 
			}
		],
		 "valence_orbital": [ 
			{
				"type": "occ",
				"energy": -0.32318,
				"method": "rhf"
			},
			{
				"type": "occ",
				"energy": -0.30327,
				"method": "rhf"
			},
			{
				"type": "occ",
				"energy": -0.29027,
				"method": "rhf"
			},
			{
				"type": "occ",
				"energy": -0.2778,
				"method": "rhf"
			},
			{
				"type": "occ",
				"energy": -0.24942,
				"method": "rhf"
			},
			{
				"type": "unocc",
				"energy": -0.07949,
				"method": "rhf"
			},
			{
				"type": "unocc",
				"energy": -0.02944,
				"method": "rhf"
			},
			{
				"type": "unocc",
				"energy": -0.02555,
				"method": "rhf"
			},
			{
				"type": "unocc",
				"energy": -0.0003,
				"method": "rhf"
			},
			{
				"type": "unocc",
				"energy": 0.02112,
				"method": "rhf"
			}
		],
		"cosmo_sigma_profile": { 
			"-0.025": 0.0,
			"-0.024": 0.0,
			"-0.023": 0.0,
			"-0.022": 0.0,
			"-0.021": 0.0,
			"-0.02": 0.297597918059,
			"-0.019": 0.816022019787,
			"-0.018": 1.19363570021,
			"-0.017": 1.28214772692,
			"-0.016": 1.20185193604,
			"-0.015": 1.07462856101,
			"-0.014": 0.888890014606,
			"-0.013": 1.51535098842,
			"-0.012": 2.01118494523,
			"-0.011": 2.25151075088,
			"-0.01": 1.14394386125,
			"-0.009": 2.35867461355,
			"-0.008": 3.77834147679,
			"-0.007": 7.68112591964,
			"-0.006": 7.18227272291,
			"-0.005": 9.40789660644,
			"-0.004": 8.28831064324,
			"-0.003": 13.5257060027,
			"-0.002": 17.0236437224,
			"-0.001": 16.4905205684,
			"0.0": 18.5598243525,
			"0.001": 22.3167780699,
			"0.002": 22.7183781904,
			"0.003": 13.4178314387,
			"0.004": 14.5434066054,
			"0.005": 5.93437765759,
			"0.006": 5.78569591804,
			"0.007": 4.25786773792,
			"0.008": 4.99216359463,
			"0.009": 5.67824150862,
			"0.01": 5.98279849693,
			"0.011": 4.13290754361,
			"0.012": 3.29061851794,
			"0.013": 0.826634266335,
			"0.014": 0.0,
			"0.015": 0.0,
			"0.016": 0.0,
			"0.017": 0.0,
			"0.018": 0.0,
			"0.019": 0.0,
			"0.02": 0.0,
			"0.021": 0.0,
			"0.022": 0.0,
			"0.023": 0.0,
			"0.024": 0.0,
			"0.025": 0.0
		}
	}
}
