{
	 "smiles": "CCCCCCCCOC(=O)C1=CC=CC=C1C(=O)OCCCCCCCC", 
	 "Tm": 248.15, 
	 "num_atms": 66, 
	 "gaussian": { 
		 "optdone": 1, 
		 "sigma_profile": "yes", 
		 "theory": "DFT", 
		 "functional": "B3LYP", 
		 "basiset": "6-31G**", 
		 "properties": { 
			 "R2extent": 17680.1987, 
			 "electric_dipole_moment_norm": 3.1402102143, 
			 "electric_quadrupole_moment_norm": 20.5267650532, 
			 "total_energy": -1238.41022514, 
			 "HOMO_LUMO_gap": 0.2031, 
			 "cosmo_polarized_energy": -12.34, 
			 "cosmo_cavitation_energy": 66.02, 
			 "cosmo_dispersion_energy": -41.52, 
			 "cosmo_repulsion_energy": 3.29, 
			 "cosmo_total_nonelectrostatic_energy": 27.79, 
			 "SMD_solvation_energy": 10.92 
		},
		"coords": [
			{
				"x": 0.621088147,
				"y": 3.1393890023,
				"z": -3.5479056285,
				"element": "C" 
			},
			{
				"x": 0.9144764321,
				"y": 2.7926010393,
				"z": -5.0121069071,
				"element": "C" 
			},
			{
				"x": 1.6325352164,
				"y": 1.4511213521,
				"z": -5.2468738126,
				"element": "C" 
			},
			{
				"x": 3.0564246307,
				"y": 1.3571416123,
				"z": -4.647912521,
				"element": "C" 
			},
			{
				"x": 3.1649964682,
				"y": 0.7632859898,
				"z": -3.223205257,
				"element": "C" 
			},
			{
				"x": 3.4131320773,
				"y": -0.7544105133,
				"z": -3.1626318283,
				"element": "C" 
			},
			{
				"x": 2.2920678177,
				"y": -1.6291351039,
				"z": -3.7397523267,
				"element": "C" 
			},
			{
				"x": 2.5389696331,
				"y": -3.1259488662,
				"z": -3.5723216896,
				"element": "C" 
			},
			{
				"x": 2.6498806282,
				"y": -3.5008541244,
				"z": -2.1763927424,
				"element": "O" 
			},
			{
				"x": 1.4911638536,
				"y": -3.7689725006,
				"z": -1.5318641049,
				"element": "C" 
			},
			{
				"x": 0.3959497155,
				"y": -3.7027978521,
				"z": -2.05236142,
				"element": "O" 
			},
			{
				"x": 1.7321099972,
				"y": -4.2121870591,
				"z": -0.1228368914,
				"element": "C" 
			},
			{
				"x": 2.9027455081,
				"y": -4.914672781,
				"z": 0.1912135991,
				"element": "C" 
			},
			{
				"x": 3.083677642,
				"y": -5.467085789,
				"z": 1.4585181499,
				"element": "C" 
			},
			{
				"x": 2.0866737415,
				"y": -5.3311821971,
				"z": 2.4246606009,
				"element": "C" 
			},
			{
				"x": 0.9208698548,
				"y": -4.6272677646,
				"z": 2.1246316983,
				"element": "C" 
			},
			{
				"x": 0.740048458,
				"y": -4.0479237168,
				"z": 0.8651760136,
				"element": "C" 
			},
			{
				"x": -0.5154960491,
				"y": -3.2469890485,
				"z": 0.6729002015,
				"element": "C" 
			},
			{
				"x": -1.6094897809,
				"y": -3.6199091487,
				"z": 1.044207427,
				"element": "O" 
			},
			{
				"x": -0.2608998408,
				"y": -2.039670971,
				"z": 0.1341492425,
				"element": "O" 
			},
			{
				"x": -1.4098929357,
				"y": -1.211272235,
				"z": -0.1619830873,
				"element": "C" 
			},
			{
				"x": -1.8158286722,
				"y": -0.3627181442,
				"z": 1.0390689015,
				"element": "C" 
			},
			{
				"x": -2.9813343967,
				"y": 0.5789857124,
				"z": 0.6965926745,
				"element": "C" 
			},
			{
				"x": -3.512513403,
				"y": 1.4328927727,
				"z": 1.8686212071,
				"element": "C" 
			},
			{
				"x": -2.8228604328,
				"y": 2.7929864077,
				"z": 2.0937032759,
				"element": "C" 
			},
			{
				"x": -1.3538636786,
				"y": 2.7811612513,
				"z": 2.5552448928,
				"element": "C" 
			},
			{
				"x": -1.0774820584,
				"y": 2.0856938315,
				"z": 3.8997898233,
				"element": "C" 
			},
			{
				"x": -1.7798899473,
				"y": 2.730772727,
				"z": 5.1006155584,
				"element": "C" 
			},
			{
				"x": 0.0178636369,
				"y": 2.3599874831,
				"z": -3.0673934323,
				"element": "H" 
			},
			{
				"x": 0.0650407144,
				"y": 4.0800821705,
				"z": -3.4735306402,
				"element": "H" 
			},
			{
				"x": 1.5392953691,
				"y": 3.2558739165,
				"z": -2.963245352,
				"element": "H" 
			},
			{
				"x": -0.0315030596,
				"y": 2.7802115963,
				"z": -5.5691774983,
				"element": "H" 
			},
			{
				"x": 1.516099578,
				"y": 3.5967440196,
				"z": -5.4583044357,
				"element": "H" 
			},
			{
				"x": 1.6916711371,
				"y": 1.2939744789,
				"z": -6.3314451207,
				"element": "H" 
			},
			{
				"x": 1.0067290983,
				"y": 0.6368485181,
				"z": -4.8603123505,
				"element": "H" 
			},
			{
				"x": 3.496451089,
				"y": 2.3631257832,
				"z": -4.6536532782,
				"element": "H" 
			},
			{
				"x": 3.6924490167,
				"y": 0.7615764242,
				"z": -5.316489922,
				"element": "H" 
			},
			{
				"x": 3.9950771969,
				"y": 1.2509513947,
				"z": -2.696819734,
				"element": "H" 
			},
			{
				"x": 2.2635772945,
				"y": 1.0035587826,
				"z": -2.6462718005,
				"element": "H" 
			},
			{
				"x": 3.5741271061,
				"y": -1.0421651627,
				"z": -2.1168768582,
				"element": "H" 
			},
			{
				"x": 4.3512509563,
				"y": -0.9828391673,
				"z": -3.689851951,
				"element": "H" 
			},
			{
				"x": 1.3321118314,
				"y": -1.3826211347,
				"z": -3.2713169461,
				"element": "H" 
			},
			{
				"x": 2.1730635345,
				"y": -1.4425058713,
				"z": -4.8147012847,
				"element": "H" 
			},
			{
				"x": 1.7343627444,
				"y": -3.7075039068,
				"z": -4.0280529472,
				"element": "H" 
			},
			{
				"x": 3.4979116759,
				"y": -3.4215926692,
				"z": -4.0074754144,
				"element": "H" 
			},
			{
				"x": 3.6596932572,
				"y": -5.0388389248,
				"z": -0.5746127548,
				"element": "H" 
			},
			{
				"x": 3.9948765448,
				"y": -6.0127645228,
				"z": 1.6846244076,
				"element": "H" 
			},
			{
				"x": 2.2150314465,
				"y": -5.769752233,
				"z": 3.4097767333,
				"element": "H" 
			},
			{
				"x": 0.1377787267,
				"y": -4.5098874683,
				"z": 2.8663497784,
				"element": "H" 
			},
			{
				"x": -1.0870863307,
				"y": -0.5866028987,
				"z": -0.9995376714,
				"element": "H" 
			},
			{
				"x": -2.2326372287,
				"y": -1.8526913544,
				"z": -0.4879845181,
				"element": "H" 
			},
			{
				"x": -0.9410824908,
				"y": 0.198424801,
				"z": 1.3834556685,
				"element": "H" 
			},
			{
				"x": -2.1132826629,
				"y": -1.0329142412,
				"z": 1.8533687335,
				"element": "H" 
			},
			{
				"x": -2.6929072768,
				"y": 1.2413402604,
				"z": -0.1326676612,
				"element": "H" 
			},
			{
				"x": -3.8066441008,
				"y": -0.0359789344,
				"z": 0.3139717842,
				"element": "H" 
			},
			{
				"x": -3.4915734939,
				"y": 0.8369979314,
				"z": 2.7906920873,
				"element": "H" 
			},
			{
				"x": -4.5729125229,
				"y": 1.6426322031,
				"z": 1.6808313573,
				"element": "H" 
			},
			{
				"x": -2.883804467,
				"y": 3.3676369218,
				"z": 1.1591204045,
				"element": "H" 
			},
			{
				"x": -3.4183339104,
				"y": 3.3569103145,
				"z": 2.823250345,
				"element": "H" 
			},
			{
				"x": -1.0143246251,
				"y": 3.8240399733,
				"z": 2.6269204514,
				"element": "H" 
			},
			{
				"x": -0.7281020293,
				"y": 2.3216384268,
				"z": 1.7802045683,
				"element": "H" 
			},
			{
				"x": -1.3600524872,
				"y": 1.0271282727,
				"z": 3.8388545594,
				"element": "H" 
			},
			{
				"x": 0.0061591163,
				"y": 2.0943816235,
				"z": 4.0743500708,
				"element": "H" 
			},
			{
				"x": -1.5158703497,
				"y": 3.791219176,
				"z": 5.1900192934,
				"element": "H" 
			},
			{
				"x": -1.4934826307,
				"y": 2.2378531035,
				"z": 6.0355230809,
				"element": "H" 
			},
			{
				"x": -2.8700800303,
				"y": 2.6684870309,
				"z": 5.0195631984,
				"element": "H" 
			}
		],
		 "valence_orbital": [ 
			{
				"type": "occ",
				"energy": -0.28442,
				"method": "rhf"
			},
			{
				"type": "occ",
				"energy": -0.27727,
				"method": "rhf"
			},
			{
				"type": "occ",
				"energy": -0.27397,
				"method": "rhf"
			},
			{
				"type": "occ",
				"energy": -0.2624,
				"method": "rhf"
			},
			{
				"type": "occ",
				"energy": -0.25487,
				"method": "rhf"
			},
			{
				"type": "unocc",
				"energy": -0.05177,
				"method": "rhf"
			},
			{
				"type": "unocc",
				"energy": -0.02398,
				"method": "rhf"
			},
			{
				"type": "unocc",
				"energy": 0.03526,
				"method": "rhf"
			},
			{
				"type": "unocc",
				"energy": 0.04952,
				"method": "rhf"
			},
			{
				"type": "unocc",
				"energy": 0.0745,
				"method": "rhf"
			}
		],
		"cosmo_sigma_profile": { 
			"-0.025": 0.0,
			"-0.024": 0.0,
			"-0.023": 0.0,
			"-0.022": 0.0,
			"-0.021": 0.0,
			"-0.02": 0.0,
			"-0.019": 0.0,
			"-0.018": 0.0,
			"-0.017": 0.0,
			"-0.016": 0.0,
			"-0.015": 0.0,
			"-0.014": 0.0,
			"-0.013": 0.0,
			"-0.012": 0.0,
			"-0.011": 0.0,
			"-0.01": 0.0,
			"-0.009": 0.0,
			"-0.008": 0.190439451407,
			"-0.007": 4.95111152212,
			"-0.006": 9.28169120882,
			"-0.005": 15.2817694098,
			"-0.004": 20.3948838314,
			"-0.003": 30.3509570245,
			"-0.002": 69.7691176597,
			"-0.001": 93.0549346915,
			"0.0": 87.5040665422,
			"0.001": 73.0765266129,
			"0.002": 42.2994446613,
			"0.003": 18.0024326252,
			"0.004": 7.79064788206,
			"0.005": 7.6886567527,
			"0.006": 6.03557215008,
			"0.007": 4.47354807442,
			"0.008": 4.57346866556,
			"0.009": 2.8768356653,
			"0.01": 3.62767337225,
			"0.011": 5.91344526753,
			"0.012": 4.95863990056,
			"0.013": 0.319958376765,
			"0.014": 0.0,
			"0.015": 0.0,
			"0.016": 0.0,
			"0.017": 0.0,
			"0.018": 0.0,
			"0.019": 0.0,
			"0.02": 0.0,
			"0.021": 0.0,
			"0.022": 0.0,
			"0.023": 0.0,
			"0.024": 0.0,
			"0.025": 0.0
		}
	}
}
