{
	 "smiles": "C=C[Si](C1=CC=CC=C1)(C1=CC=CC=C1)C1=CC=CC=C1", 
	 "Tm": 339.65, 
	 "num_atms": 39, 
	 "gaussian": { 
		 "optdone": 1, 
		 "sigma_profile": "yes", 
		 "theory": "DFT", 
		 "functional": "B3LYP", 
		 "basiset": "6-31G**", 
		 "properties": { 
			 "R2extent": 7000.7012, 
			 "electric_dipole_moment_norm": 0.189266637314, 
			 "electric_quadrupole_moment_norm": 3.22406157975, 
			 "total_energy": -1062.47697946, 
			 "HOMO_LUMO_gap": 0.22306, 
			 "cosmo_polarized_energy": -7.21, 
			 "cosmo_cavitation_energy": 44.13, 
			 "cosmo_dispersion_energy": -27.7, 
			 "cosmo_repulsion_energy": 2.22, 
			 "cosmo_total_nonelectrostatic_energy": 18.65, 
			 "SMD_solvation_energy": 8.51 
		},
		"coords": [
			{
				"x": 0.6217236203,
				"y": -0.1268397858,
				"z": -3.5114545563,
				"element": "C" 
			},
			{
				"x": 0.5990835412,
				"y": 0.360726304,
				"z": -2.2642334736,
				"element": "C" 
			},
			{
				"x": 0.0442113201,
				"y": -0.5764939113,
				"z": -0.7293538029,
				"element": "Si" 
			},
			{
				"x": -0.797362516,
				"y": -2.1933884407,
				"z": -1.2309577745,
				"element": "C" 
			},
			{
				"x": -1.8945428287,
				"y": -2.1938708423,
				"z": -2.1160736203,
				"element": "C" 
			},
			{
				"x": -2.5283801566,
				"y": -3.3811461026,
				"z": -2.4856599248,
				"element": "C" 
			},
			{
				"x": -2.0771195826,
				"y": -4.601174848,
				"z": -1.9769782665,
				"element": "C" 
			},
			{
				"x": -0.9920628931,
				"y": -4.6257712966,
				"z": -1.0999866798,
				"element": "C" 
			},
			{
				"x": -0.3613203854,
				"y": -3.4347317546,
				"z": -0.7332572795,
				"element": "C" 
			},
			{
				"x": 1.5649764753,
				"y": -0.9345225069,
				"z": 0.338558267,
				"element": "C" 
			},
			{
				"x": 2.812549935,
				"y": -1.2070477291,
				"z": -0.2540152492,
				"element": "C" 
			},
			{
				"x": 3.9330995974,
				"y": -1.5083377551,
				"z": 0.5219599514,
				"element": "C" 
			},
			{
				"x": 3.8295799775,
				"y": -1.5418847194,
				"z": 1.9140579681,
				"element": "C" 
			},
			{
				"x": 2.6033690252,
				"y": -1.2711279871,
				"z": 2.5242684489,
				"element": "C" 
			},
			{
				"x": 1.4859792456,
				"y": -0.9692849205,
				"z": 1.7434009685,
				"element": "C" 
			},
			{
				"x": -1.1528025586,
				"y": 0.5154320652,
				"z": 0.2500774067,
				"element": "C" 
			},
			{
				"x": -0.7530961716,
				"y": 1.8016031523,
				"z": 0.6643279608,
				"element": "C" 
			},
			{
				"x": -1.6119157827,
				"y": 2.6337665638,
				"z": 1.3822313292,
				"element": "C" 
			},
			{
				"x": -2.8982369668,
				"y": 2.1958144467,
				"z": 1.70660675,
				"element": "C" 
			},
			{
				"x": -3.3156996193,
				"y": 0.9250047202,
				"z": 1.3104186808,
				"element": "C" 
			},
			{
				"x": -2.4513034762,
				"y": 0.0964781788,
				"z": 0.5903842521,
				"element": "C" 
			},
			{
				"x": 0.9646469073,
				"y": 0.4632569351,
				"z": -4.3601333561,
				"element": "H" 
			},
			{
				"x": 0.2925496811,
				"y": -1.1380498091,
				"z": -3.7400877287,
				"element": "H" 
			},
			{
				"x": 0.9428152951,
				"y": 1.3884526972,
				"z": -2.1231645967,
				"element": "H" 
			},
			{
				"x": -2.2593908157,
				"y": -1.2547470845,
				"z": -2.525327135,
				"element": "H" 
			},
			{
				"x": -3.3721959708,
				"y": -3.3548678951,
				"z": -3.1699489152,
				"element": "H" 
			},
			{
				"x": -2.5687546493,
				"y": -5.526780526,
				"z": -2.2638207339,
				"element": "H" 
			},
			{
				"x": -0.6354632652,
				"y": -5.571790582,
				"z": -0.7015238929,
				"element": "H" 
			},
			{
				"x": 0.4833956908,
				"y": -3.4718166539,
				"z": -0.0509817366,
				"element": "H" 
			},
			{
				"x": 2.9105437101,
				"y": -1.1757095527,
				"z": -1.3365142259,
				"element": "H" 
			},
			{
				"x": 4.8862972656,
				"y": -1.7129228263,
				"z": 0.0417443229,
				"element": "H" 
			},
			{
				"x": 4.7010344872,
				"y": -1.7739371423,
				"z": 2.5203260418,
				"element": "H" 
			},
			{
				"x": 2.5180662311,
				"y": -1.2911492937,
				"z": 3.6074704859,
				"element": "H" 
			},
			{
				"x": 0.5416160981,
				"y": -0.7493223417,
				"z": 2.2347863431,
				"element": "H" 
			},
			{
				"x": 0.2470047504,
				"y": 2.1608266427,
				"z": 0.4304245434,
				"element": "H" 
			},
			{
				"x": -1.2791539012,
				"y": 3.6216470146,
				"z": 1.6893377597,
				"element": "H" 
			},
			{
				"x": -3.5694251955,
				"y": 2.8418511952,
				"z": 2.2659492042,
				"element": "H" 
			},
			{
				"x": -4.3141530766,
				"y": 0.5770124753,
				"z": 1.561473499,
				"element": "H" 
			},
			{
				"x": -2.7943630427,
				"y": -0.8891560837,
				"z": 0.2884687653,
				"element": "H" 
			}
		],
		 "valence_orbital": [ 
			{
				"type": "occ",
				"energy": -0.24928,
				"method": "rhf"
			},
			{
				"type": "occ",
				"energy": -0.24757,
				"method": "rhf"
			},
			{
				"type": "occ",
				"energy": -0.24505,
				"method": "rhf"
			},
			{
				"type": "occ",
				"energy": -0.24444,
				"method": "rhf"
			},
			{
				"type": "occ",
				"energy": -0.24128,
				"method": "rhf"
			},
			{
				"type": "unocc",
				"energy": -0.01822,
				"method": "rhf"
			},
			{
				"type": "unocc",
				"energy": -0.01356,
				"method": "rhf"
			},
			{
				"type": "unocc",
				"energy": -0.01045,
				"method": "rhf"
			},
			{
				"type": "unocc",
				"energy": -0.00337,
				"method": "rhf"
			},
			{
				"type": "unocc",
				"energy": 0.00395,
				"method": "rhf"
			}
		],
		"cosmo_sigma_profile": { 
			"-0.025": 0.0,
			"-0.024": 0.0,
			"-0.023": 0.0,
			"-0.022": 0.0,
			"-0.021": 0.0,
			"-0.02": 0.0,
			"-0.019": 0.0,
			"-0.018": 0.0,
			"-0.017": 0.0,
			"-0.016": 0.0,
			"-0.015": 0.0,
			"-0.014": 0.0,
			"-0.013": 0.0,
			"-0.012": 0.0,
			"-0.011": 0.0,
			"-0.01": 0.0,
			"-0.009": 0.0,
			"-0.008": 0.0,
			"-0.007": 0.0,
			"-0.006": 8.81855198956,
			"-0.005": 27.193481778,
			"-0.004": 34.4976116419,
			"-0.003": 36.7759116615,
			"-0.002": 26.3916109873,
			"-0.001": 27.2642898019,
			"0.0": 30.4165475688,
			"0.001": 31.7465506264,
			"0.002": 28.5378777903,
			"0.003": 27.9615355503,
			"0.004": 25.9057599446,
			"0.005": 24.9830602167,
			"0.006": 18.3920706488,
			"0.007": 0.672966038088,
			"0.008": 0.0,
			"0.009": 0.0,
			"0.01": 0.0,
			"0.011": 0.0,
			"0.012": 0.0,
			"0.013": 0.0,
			"0.014": 0.0,
			"0.015": 0.0,
			"0.016": 0.0,
			"0.017": 0.0,
			"0.018": 0.0,
			"0.019": 0.0,
			"0.02": 0.0,
			"0.021": 0.0,
			"0.022": 0.0,
			"0.023": 0.0,
			"0.024": 0.0,
			"0.025": 0.0
		}
	}
}
