{
	 "smiles": "BrCC(=O)C1=CC2=C(C=C1)C1=C(C2)C=CC=C1", 
	 "Tm": 415.15, 
	 "num_atms": 28, 
	 "gaussian": { 
		 "optdone": 1, 
		 "sigma_profile": "yes", 
		 "theory": "DFT", 
		 "functional": "B3LYP", 
		 "basiset": "6-31G**", 
		 "properties": { 
			 "R2extent": 10063.8325, 
			 "electric_dipole_moment_norm": 5.09564651247, 
			 "electric_quadrupole_moment_norm": 17.8328344303, 
			 "total_energy": -3224.86967123, 
			 "HOMO_LUMO_gap": 0.15938, 
			 "cosmo_polarized_energy": -13.15, 
			 "cosmo_cavitation_energy": 34.33, 
			 "cosmo_dispersion_energy": -25.61, 
			 "cosmo_repulsion_energy": 1.96, 
			 "cosmo_total_nonelectrostatic_energy": 10.68, 
			 "SMD_solvation_energy": 4.31 
		},
		"coords": [
			{
				"x": -0.4561032082,
				"y": 6.2589415199,
				"z": -1.8389147371,
				"element": "Br" 
			},
			{
				"x": -0.8252494971,
				"y": 4.5914546413,
				"z": -0.8942790507,
				"element": "C" 
			},
			{
				"x": -0.3915327519,
				"y": 3.3432648043,
				"z": -1.6708085217,
				"element": "C" 
			},
			{
				"x": 0.1300894592,
				"y": 3.4165834264,
				"z": -2.7677102473,
				"element": "O" 
			},
			{
				"x": -0.6424168376,
				"y": 2.0244376755,
				"z": -1.0103332544,
				"element": "C" 
			},
			{
				"x": -0.2492953622,
				"y": 0.8672333468,
				"z": -1.7114310854,
				"element": "C" 
			},
			{
				"x": -0.4588085259,
				"y": -0.3777775618,
				"z": -1.1452631478,
				"element": "C" 
			},
			{
				"x": -1.0626900914,
				"y": -0.4963828248,
				"z": 0.1277015683,
				"element": "C" 
			},
			{
				"x": -1.4556144079,
				"y": 0.6458862517,
				"z": 0.8299966303,
				"element": "C" 
			},
			{
				"x": -1.2429136596,
				"y": 1.8981511321,
				"z": 0.2565103033,
				"element": "C" 
			},
			{
				"x": -1.1572068544,
				"y": -1.9186387686,
				"z": 0.4717503076,
				"element": "C" 
			},
			{
				"x": -0.6117994379,
				"y": -2.6735036508,
				"z": -0.5888823918,
				"element": "C" 
			},
			{
				"x": -0.1294267682,
				"y": -1.7525007274,
				"z": -1.6907278185,
				"element": "C" 
			},
			{
				"x": -0.5774163966,
				"y": -4.0620853393,
				"z": -0.5175095878,
				"element": "C" 
			},
			{
				"x": -1.0909330145,
				"y": -4.6950595046,
				"z": 0.6195832541,
				"element": "C" 
			},
			{
				"x": -1.6320971701,
				"y": -3.9463588766,
				"z": 1.672018298,
				"element": "C" 
			},
			{
				"x": -1.6697001963,
				"y": -2.5530930946,
				"z": 1.6069001496,
				"element": "C" 
			},
			{
				"x": -0.303473343,
				"y": 4.64915937,
				"z": 0.0626769625,
				"element": "H" 
			},
			{
				"x": -1.8992631828,
				"y": 4.5698557005,
				"z": -0.7010403954,
				"element": "H" 
			},
			{
				"x": 0.2116223427,
				"y": 0.9897328627,
				"z": -2.6864416279,
				"element": "H" 
			},
			{
				"x": -1.9204628018,
				"y": 0.5675713666,
				"z": 1.8084295227,
				"element": "H" 
			},
			{
				"x": -1.5507592898,
				"y": 2.7806028407,
				"z": 0.808000971,
				"element": "H" 
			},
			{
				"x": 0.945035731,
				"y": -1.8687708852,
				"z": -1.8844789673,
				"element": "H" 
			},
			{
				"x": -0.6390947022,
				"y": -1.9471636431,
				"z": -2.6435466432,
				"element": "H" 
			},
			{
				"x": -0.159223725,
				"y": -4.650955006,
				"z": -1.329678671,
				"element": "H" 
			},
			{
				"x": -1.0698431046,
				"y": -5.7788995458,
				"z": 0.6872771318,
				"element": "H" 
			},
			{
				"x": -2.0259584652,
				"y": -4.4557753751,
				"z": 2.5466427717,
				"element": "H" 
			},
			{
				"x": -2.0905647387,
				"y": -1.976510135,
				"z": 2.4259582766,
				"element": "H" 
			}
		],
		 "valence_orbital": [ 
			{
				"type": "occ",
				"energy": -0.27035,
				"method": "rhf"
			},
			{
				"type": "occ",
				"energy": -0.26423,
				"method": "rhf"
			},
			{
				"type": "occ",
				"energy": -0.26008,
				"method": "rhf"
			},
			{
				"type": "occ",
				"energy": -0.25437,
				"method": "rhf"
			},
			{
				"type": "occ",
				"energy": -0.22933,
				"method": "rhf"
			},
			{
				"type": "unocc",
				"energy": -0.06995,
				"method": "rhf"
			},
			{
				"type": "unocc",
				"energy": -0.0249,
				"method": "rhf"
			},
			{
				"type": "unocc",
				"energy": -0.0101,
				"method": "rhf"
			},
			{
				"type": "unocc",
				"energy": -0.00101,
				"method": "rhf"
			},
			{
				"type": "unocc",
				"energy": 0.00431,
				"method": "rhf"
			}
		],
		"cosmo_sigma_profile": { 
			"-0.025": 0.0,
			"-0.024": 0.0,
			"-0.023": 0.0,
			"-0.022": 0.0,
			"-0.021": 0.0,
			"-0.02": 0.0,
			"-0.019": 0.0,
			"-0.018": 0.0,
			"-0.017": 0.0,
			"-0.016": 0.0,
			"-0.015": 0.0,
			"-0.014": 0.0,
			"-0.013": 0.0,
			"-0.012": 0.0,
			"-0.011": 0.0,
			"-0.01": 0.328299899824,
			"-0.009": 6.50275834996,
			"-0.008": 6.77120662879,
			"-0.007": 6.01988310492,
			"-0.006": 16.3388028642,
			"-0.005": 19.1196918441,
			"-0.004": 21.811691563,
			"-0.003": 22.3924829194,
			"-0.002": 17.9960764725,
			"-0.001": 13.9504829902,
			"0.0": 14.8793747716,
			"0.001": 18.8029737581,
			"0.002": 21.050514998,
			"0.003": 24.5824628248,
			"0.004": 20.0367243985,
			"0.005": 18.4084033721,
			"0.006": 11.2218150947,
			"0.007": 3.18617824701,
			"0.008": 2.09663172709,
			"0.009": 1.89143878775,
			"0.01": 2.91771250004,
			"0.011": 4.09948926896,
			"0.012": 2.95426231358,
			"0.013": 1.16034174858,
			"0.014": 0.0119336181907,
			"0.015": 0.0,
			"0.016": 0.0,
			"0.017": 0.0,
			"0.018": 0.0,
			"0.019": 0.0,
			"0.02": 0.0,
			"0.021": 0.0,
			"0.022": 0.0,
			"0.023": 0.0,
			"0.024": 0.0,
			"0.025": 0.0
		}
	}
}
