{
	 "smiles": "ClC1=CC(Cl)=C(NCC2=CN=CC=C2)C=C1", 
	 "Tm": 350.15, 
	 "num_atms": 26, 
	 "gaussian": { 
		 "optdone": 1, 
		 "sigma_profile": "yes", 
		 "theory": "DFT", 
		 "functional": "B3LYP", 
		 "basiset": "6-31G**", 
		 "properties": { 
			 "R2extent": 6080.7298, 
			 "electric_dipole_moment_norm": 2.5281264466, 
			 "electric_quadrupole_moment_norm": 14.3267209891, 
			 "total_energy": -1493.18694261, 
			 "HOMO_LUMO_gap": 0.18209, 
			 "cosmo_polarized_energy": -10.54, 
			 "cosmo_cavitation_energy": 33.76, 
			 "cosmo_dispersion_energy": -24.41, 
			 "cosmo_repulsion_energy": 1.92, 
			 "cosmo_total_nonelectrostatic_energy": 11.26, 
			 "SMD_solvation_energy": 3.25 
		},
		"coords": [
			{
				"x": 2.0650710034,
				"y": -1.7944727354,
				"z": 4.822693504,
				"element": "Cl" 
			},
			{
				"x": 1.1630254526,
				"y": -1.0733631741,
				"z": 3.4978782647,
				"element": "C" 
			},
			{
				"x": -0.2097268622,
				"y": -0.8732973803,
				"z": 3.632700871,
				"element": "C" 
			},
			{
				"x": -0.9149901481,
				"y": -0.3033167783,
				"z": 2.5798735085,
				"element": "C" 
			},
			{
				"x": -2.6504271717,
				"y": -0.0482674048,
				"z": 2.7731114858,
				"element": "Cl" 
			},
			{
				"x": -0.292846194,
				"y": 0.0846578103,
				"z": 1.3723091622,
				"element": "C" 
			},
			{
				"x": -1.0303824478,
				"y": 0.6307057281,
				"z": 0.3359215125,
				"element": "N" 
			},
			{
				"x": -0.4158655907,
				"y": 1.3475327756,
				"z": -0.7695952813,
				"element": "C" 
			},
			{
				"x": 0.1253966096,
				"y": 0.4556830065,
				"z": -1.8770619846,
				"element": "C" 
			},
			{
				"x": 1.2032728774,
				"y": 0.8799706229,
				"z": -2.6632989069,
				"element": "C" 
			},
			{
				"x": 1.7108551496,
				"y": 0.1860363477,
				"z": -3.6880620967,
				"element": "N" 
			},
			{
				"x": 1.145213145,
				"y": -0.994719872,
				"z": -3.9666302845,
				"element": "C" 
			},
			{
				"x": 0.0735112423,
				"y": -1.5220286338,
				"z": -3.2435519491,
				"element": "C" 
			},
			{
				"x": -0.4442549806,
				"y": -0.7832640798,
				"z": -2.1821558365,
				"element": "C" 
			},
			{
				"x": 1.0951616334,
				"y": -0.1366342675,
				"z": 1.2783985096,
				"element": "C" 
			},
			{
				"x": 1.8161259857,
				"y": -0.7073243317,
				"z": 2.3239075095,
				"element": "C" 
			},
			{
				"x": -0.7258457062,
				"y": -1.1523303938,
				"z": 4.5431718712,
				"element": "H" 
			},
			{
				"x": -1.955702233,
				"y": 0.9356262526,
				"z": 0.5979774466,
				"element": "H" 
			},
			{
				"x": 0.3863936053,
				"y": 2.0134357464,
				"z": -0.4168452202,
				"element": "H" 
			},
			{
				"x": -1.1910675296,
				"y": 1.9992312074,
				"z": -1.1892146243,
				"element": "H" 
			},
			{
				"x": 1.6856366232,
				"y": 1.8349569342,
				"z": -2.4503093322,
				"element": "H" 
			},
			{
				"x": 1.5719052219,
				"y": -1.5465653625,
				"z": -4.8023040863,
				"element": "H" 
			},
			{
				"x": -0.3415750821,
				"y": -2.4900930658,
				"z": -3.506685254,
				"element": "H" 
			},
			{
				"x": -1.2700191934,
				"y": -1.1571357801,
				"z": -1.5841183519,
				"element": "H" 
			},
			{
				"x": 1.614585438,
				"y": 0.1243659675,
				"z": 0.3641159076,
				"element": "H" 
			},
			{
				"x": 2.8834491522,
				"y": -0.8682891395,
				"z": 2.2218736552,
				"element": "H" 
			}
		],
		 "valence_orbital": [ 
			{
				"type": "occ",
				"energy": -0.28829,
				"method": "rhf"
			},
			{
				"type": "occ",
				"energy": -0.26314,
				"method": "rhf"
			},
			{
				"type": "occ",
				"energy": -0.26015,
				"method": "rhf"
			},
			{
				"type": "occ",
				"energy": -0.25817,
				"method": "rhf"
			},
			{
				"type": "occ",
				"energy": -0.21258,
				"method": "rhf"
			},
			{
				"type": "unocc",
				"energy": -0.03049,
				"method": "rhf"
			},
			{
				"type": "unocc",
				"energy": -0.02404,
				"method": "rhf"
			},
			{
				"type": "unocc",
				"energy": -0.01602,
				"method": "rhf"
			},
			{
				"type": "unocc",
				"energy": -0.00485,
				"method": "rhf"
			},
			{
				"type": "unocc",
				"energy": 0.00649,
				"method": "rhf"
			}
		],
		"cosmo_sigma_profile": { 
			"-0.025": 0.0,
			"-0.024": 0.0,
			"-0.023": 0.0,
			"-0.022": 0.0,
			"-0.021": 0.0,
			"-0.02": 0.0,
			"-0.019": 0.0,
			"-0.018": 0.0,
			"-0.017": 0.0,
			"-0.016": 0.0,
			"-0.015": 0.0,
			"-0.014": 0.0,
			"-0.013": 0.181738040425,
			"-0.012": 0.922113386442,
			"-0.011": 1.15608055786,
			"-0.01": 1.07066772356,
			"-0.009": 1.14810371355,
			"-0.008": 2.65044286778,
			"-0.007": 7.55450096167,
			"-0.006": 17.5011873722,
			"-0.005": 19.4196261747,
			"-0.004": 17.2190129323,
			"-0.003": 16.0297219559,
			"-0.002": 16.0501903862,
			"-0.001": 16.102028728,
			"0.0": 18.1960524577,
			"0.001": 23.1810378284,
			"0.002": 34.2509692352,
			"0.003": 34.2328144292,
			"0.004": 22.1097809062,
			"0.005": 12.9409746939,
			"0.006": 2.08475593447,
			"0.007": 1.35645134858,
			"0.008": 1.54274914003,
			"0.009": 1.28623260555,
			"0.01": 0.794716390621,
			"0.011": 0.783707801453,
			"0.012": 1.45581233933,
			"0.013": 0.952892679744,
			"0.014": 0.75947391652,
			"0.015": 0.785004357206,
			"0.016": 1.06826102478,
			"0.017": 0.423780578611,
			"0.018": 0.0,
			"0.019": 0.0,
			"0.02": 0.0,
			"0.021": 0.0,
			"0.022": 0.0,
			"0.023": 0.0,
			"0.024": 0.0,
			"0.025": 0.0
		}
	}
}
