{
	 "smiles": "CC1=NNC=C1C1=CC=CC=C1", 
	 "Tm": 415.15, 
	 "num_atms": 22, 
	 "gaussian": { 
		 "optdone": 1, 
		 "sigma_profile": "yes", 
		 "theory": "DFT", 
		 "functional": "B3LYP", 
		 "basiset": "6-31G**", 
		 "properties": { 
			 "R2extent": 2501.2881, 
			 "electric_dipole_moment_norm": 1.81535703651, 
			 "electric_quadrupole_moment_norm": 12.2636502506, 
			 "total_energy": -496.583429426, 
			 "HOMO_LUMO_gap": 0.20378, 
			 "cosmo_polarized_energy": -10.56, 
			 "cosmo_cavitation_energy": 25.57, 
			 "cosmo_dispersion_energy": -18.91, 
			 "cosmo_repulsion_energy": 1.5, 
			 "cosmo_total_nonelectrostatic_energy": 8.16, 
			 "SMD_solvation_energy": 3.58 
		},
		"coords": [
			{
				"x": -1.4168123045,
				"y": 0.2236865864,
				"z": -2.1972695156,
				"element": "C" 
			},
			{
				"x": -2.0670918826,
				"y": 0.6295542352,
				"z": -0.9083556971,
				"element": "C" 
			},
			{
				"x": -3.2321141732,
				"y": 1.2775044861,
				"z": -0.9374874717,
				"element": "N" 
			},
			{
				"x": -3.5509811362,
				"y": 1.4727988967,
				"z": 0.360702153,
				"element": "N" 
			},
			{
				"x": -2.6331927578,
				"y": 0.9622312658,
				"z": 1.215644164,
				"element": "C" 
			},
			{
				"x": -1.6337204042,
				"y": 0.3956814164,
				"z": 0.4365370321,
				"element": "C" 
			},
			{
				"x": -0.4351189597,
				"y": -0.3033558903,
				"z": 0.9285096244,
				"element": "C" 
			},
			{
				"x": 0.7956721856,
				"y": -0.2228369445,
				"z": 0.2536180681,
				"element": "C" 
			},
			{
				"x": 1.9245135716,
				"y": -0.8830027074,
				"z": 0.7386503384,
				"element": "C" 
			},
			{
				"x": 1.8539939706,
				"y": -1.6325235339,
				"z": 1.9138244235,
				"element": "C" 
			},
			{
				"x": 0.6396676569,
				"y": -1.7192357821,
				"z": 2.5983785609,
				"element": "C" 
			},
			{
				"x": -0.4906807658,
				"y": -1.0684653959,
				"z": 2.1084006303,
				"element": "C" 
			},
			{
				"x": -1.0162807062,
				"y": -0.7930419675,
				"z": -2.1384536281,
				"element": "H" 
			},
			{
				"x": -2.1508320694,
				"y": 0.2685869612,
				"z": -3.0049783588,
				"element": "H" 
			},
			{
				"x": -0.586114767,
				"y": 0.8875564595,
				"z": -2.4650171041,
				"element": "H" 
			},
			{
				"x": -4.4027228823,
				"y": 1.9612276268,
				"z": 0.5866894566,
				"element": "H" 
			},
			{
				"x": -2.733999406,
				"y": 1.0515076375,
				"z": 2.2875787339,
				"element": "H" 
			},
			{
				"x": 0.8745856442,
				"y": 0.3786058799,
				"z": -0.6457920011,
				"element": "H" 
			},
			{
				"x": 2.86466481,
				"y": -0.8030392099,
				"z": 0.1998128743,
				"element": "H" 
			},
			{
				"x": 2.7340584546,
				"y": -2.1450837155,
				"z": 2.2912126805,
				"element": "H" 
			},
			{
				"x": 0.5693362993,
				"y": -2.3050568743,
				"z": 3.5108186833,
				"element": "H" 
			},
			{
				"x": -1.4376303779,
				"y": -1.1672994303,
				"z": 2.6317763532,
				"element": "H" 
			}
		],
		 "valence_orbital": [ 
			{
				"type": "occ",
				"energy": -0.2855,
				"method": "rhf"
			},
			{
				"type": "occ",
				"energy": -0.27226,
				"method": "rhf"
			},
			{
				"type": "occ",
				"energy": -0.24689,
				"method": "rhf"
			},
			{
				"type": "occ",
				"energy": -0.24368,
				"method": "rhf"
			},
			{
				"type": "occ",
				"energy": -0.21385,
				"method": "rhf"
			},
			{
				"type": "unocc",
				"energy": -0.01007,
				"method": "rhf"
			},
			{
				"type": "unocc",
				"energy": 0.00206,
				"method": "rhf"
			},
			{
				"type": "unocc",
				"energy": 0.02684,
				"method": "rhf"
			},
			{
				"type": "unocc",
				"energy": 0.08115,
				"method": "rhf"
			},
			{
				"type": "unocc",
				"energy": 0.08394,
				"method": "rhf"
			}
		],
		"cosmo_sigma_profile": { 
			"-0.025": 0.0,
			"-0.024": 0.0,
			"-0.023": 0.0,
			"-0.022": 0.0,
			"-0.021": 0.0,
			"-0.02": 0.0,
			"-0.019": 0.0,
			"-0.018": 0.0,
			"-0.017": 0.126085165636,
			"-0.016": 1.58016680555,
			"-0.015": 1.64477637322,
			"-0.014": 1.05630093614,
			"-0.013": 0.957731799259,
			"-0.012": 1.20470796764,
			"-0.011": 0.771640428383,
			"-0.01": 1.15810602761,
			"-0.009": 2.06619609378,
			"-0.008": 3.12741166694,
			"-0.007": 1.94621505528,
			"-0.006": 5.04665392118,
			"-0.005": 14.2708116239,
			"-0.004": 16.0473121322,
			"-0.003": 16.9193271586,
			"-0.002": 13.8624596903,
			"-0.001": 15.0239465791,
			"0.0": 14.8559773253,
			"0.001": 12.6788383189,
			"0.002": 10.1283215242,
			"0.003": 13.0403294207,
			"0.004": 16.0948849832,
			"0.005": 15.1782271631,
			"0.006": 11.4992877414,
			"0.007": 3.15923336668,
			"0.008": 1.68780149104,
			"0.009": 1.10420362772,
			"0.01": 1.5691251866,
			"0.011": 0.840566922011,
			"0.012": 0.797127551172,
			"0.013": 1.33348495935,
			"0.014": 1.16343973646,
			"0.015": 1.07470532717,
			"0.016": 0.667856199775,
			"0.017": 0.365720300644,
			"0.018": 0.0,
			"0.019": 0.0,
			"0.02": 0.0,
			"0.021": 0.0,
			"0.022": 0.0,
			"0.023": 0.0,
			"0.024": 0.0,
			"0.025": 0.0
		}
	}
}
