{
	 "smiles": "CC(OC1=CC=C2C=CC=CC2=C1)C(=O)NC1=CC=CC=C1", 
	 "Tm": 401.15, 
	 "num_atms": 39, 
	 "gaussian": { 
		 "optdone": 1, 
		 "sigma_profile": "yes", 
		 "theory": "DFT", 
		 "functional": "B3LYP", 
		 "basiset": "6-31G**", 
		 "properties": { 
			 "R2extent": 8956.7233, 
			 "electric_dipole_moment_norm": 2.22380958043, 
			 "electric_quadrupole_moment_norm": 7.85477094128, 
			 "total_energy": -939.491491573, 
			 "HOMO_LUMO_gap": 0.17108, 
			 "cosmo_polarized_energy": -12.56, 
			 "cosmo_cavitation_energy": 42.34, 
			 "cosmo_dispersion_energy": -30.04, 
			 "cosmo_repulsion_energy": 2.28, 
			 "cosmo_total_nonelectrostatic_energy": 14.58, 
			 "SMD_solvation_energy": 7.33 
		},
		"coords": [
			{
				"x": -2.7267513052,
				"y": 2.3159422608,
				"z": -1.3060749837,
				"element": "C" 
			},
			{
				"x": -2.5043760068,
				"y": 0.8154532115,
				"z": -1.1557347078,
				"element": "C" 
			},
			{
				"x": -1.287903017,
				"y": 0.3224980638,
				"z": -1.7536638099,
				"element": "O" 
			},
			{
				"x": -0.0842550555,
				"y": 0.9748737578,
				"z": -1.5532302679,
				"element": "C" 
			},
			{
				"x": 0.2916768086,
				"y": 1.5535866018,
				"z": -0.3114164177,
				"element": "C" 
			},
			{
				"x": 1.536297682,
				"y": 2.126307503,
				"z": -0.175631622,
				"element": "C" 
			},
			{
				"x": 2.467826984,
				"y": 2.1426927872,
				"z": -1.2466271899,
				"element": "C" 
			},
			{
				"x": 3.7586656445,
				"y": 2.7237424492,
				"z": -1.125741345,
				"element": "C" 
			},
			{
				"x": 4.635599951,
				"y": 2.718874103,
				"z": -2.1867746967,
				"element": "C" 
			},
			{
				"x": 4.2578209663,
				"y": 2.130578622,
				"z": -3.4197788685,
				"element": "C" 
			},
			{
				"x": 3.0146505601,
				"y": 1.558814537,
				"z": -3.569471279,
				"element": "C" 
			},
			{
				"x": 2.0852947247,
				"y": 1.5465686426,
				"z": -2.4929312377,
				"element": "C" 
			},
			{
				"x": 0.7936938849,
				"y": 0.9748225887,
				"z": -2.6164618401,
				"element": "C" 
			},
			{
				"x": -2.6937703705,
				"y": 0.3239769182,
				"z": 0.298778499,
				"element": "C" 
			},
			{
				"x": -3.4593688482,
				"y": 0.9000774722,
				"z": 1.0616830558,
				"element": "O" 
			},
			{
				"x": -1.9949283564,
				"y": -0.8182650152,
				"z": 0.5782776044,
				"element": "N" 
			},
			{
				"x": -1.9764009215,
				"y": -1.5845410157,
				"z": 1.7629259284,
				"element": "C" 
			},
			{
				"x": -1.1333397156,
				"y": -2.7069273334,
				"z": 1.7891436762,
				"element": "C" 
			},
			{
				"x": -1.0671767646,
				"y": -3.51078864,
				"z": 2.9236427054,
				"element": "C" 
			},
			{
				"x": -1.8386019078,
				"y": -3.2073509924,
				"z": 4.0473989117,
				"element": "C" 
			},
			{
				"x": -2.6749083962,
				"y": -2.0906118226,
				"z": 4.0180472088,
				"element": "C" 
			},
			{
				"x": -2.7542227615,
				"y": -1.27442693,
				"z": 2.889198258,
				"element": "C" 
			},
			{
				"x": -1.9772665315,
				"y": 2.9021309523,
				"z": -0.7711670726,
				"element": "H" 
			},
			{
				"x": -3.7057336825,
				"y": 2.5658035546,
				"z": -0.8938963854,
				"element": "H" 
			},
			{
				"x": -2.6978381911,
				"y": 2.5902283636,
				"z": -2.363652357,
				"element": "H" 
			},
			{
				"x": -3.2782927637,
				"y": 0.2952748997,
				"z": -1.7346996495,
				"element": "H" 
			},
			{
				"x": -0.390190168,
				"y": 1.5408602249,
				"z": 0.5307483019,
				"element": "H" 
			},
			{
				"x": 1.8213626265,
				"y": 2.5707383189,
				"z": 0.7743608495,
				"element": "H" 
			},
			{
				"x": 4.0426657323,
				"y": 3.1734054651,
				"z": -0.1775940267,
				"element": "H" 
			},
			{
				"x": 5.6201244133,
				"y": 3.1655143061,
				"z": -2.0836113589,
				"element": "H" 
			},
			{
				"x": 4.9575086254,
				"y": 2.1325851883,
				"z": -4.2507065539,
				"element": "H" 
			},
			{
				"x": 2.7258195091,
				"y": 1.1081848935,
				"z": -4.5154537596,
				"element": "H" 
			},
			{
				"x": 0.4823612109,
				"y": 0.5256140049,
				"z": -3.5545556742,
				"element": "H" 
			},
			{
				"x": -1.396846396,
				"y": -1.1359066482,
				"z": -0.1744686825,
				"element": "H" 
			},
			{
				"x": -0.5294538843,
				"y": -2.9462855267,
				"z": 0.9167410439,
				"element": "H" 
			},
			{
				"x": -0.4098770471,
				"y": -4.3755253966,
				"z": 2.9270868723,
				"element": "H" 
			},
			{
				"x": -1.7876091576,
				"y": -3.8332754388,
				"z": 4.9330515763,
				"element": "H" 
			},
			{
				"x": -3.2800561826,
				"y": -1.8441990916,
				"z": 4.8860386901,
				"element": "H" 
			},
			{
				"x": -3.4014018924,
				"y": -0.4090458395,
				"z": 2.8655206045,
				"element": "H" 
			}
		],
		 "valence_orbital": [ 
			{
				"type": "occ",
				"energy": -0.25298,
				"method": "rhf"
			},
			{
				"type": "occ",
				"energy": -0.24994,
				"method": "rhf"
			},
			{
				"type": "occ",
				"energy": -0.23777,
				"method": "rhf"
			},
			{
				"type": "occ",
				"energy": -0.22043,
				"method": "rhf"
			},
			{
				"type": "occ",
				"energy": -0.21274,
				"method": "rhf"
			},
			{
				"type": "unocc",
				"energy": -0.04166,
				"method": "rhf"
			},
			{
				"type": "unocc",
				"energy": -0.01622,
				"method": "rhf"
			},
			{
				"type": "unocc",
				"energy": -0.00877,
				"method": "rhf"
			},
			{
				"type": "unocc",
				"energy": -0.00022,
				"method": "rhf"
			},
			{
				"type": "unocc",
				"energy": 0.02921,
				"method": "rhf"
			}
		],
		"cosmo_sigma_profile": { 
			"-0.025": 0.0,
			"-0.024": 0.0,
			"-0.023": 0.0,
			"-0.022": 0.0,
			"-0.021": 0.0,
			"-0.02": 0.0,
			"-0.019": 0.0,
			"-0.018": 0.0,
			"-0.017": 0.0,
			"-0.016": 0.0,
			"-0.015": 0.0,
			"-0.014": 0.0,
			"-0.013": 0.201388199563,
			"-0.012": 1.11120586478,
			"-0.011": 1.44329762804,
			"-0.01": 0.673723674992,
			"-0.009": 0.941840437559,
			"-0.008": 3.61179893183,
			"-0.007": 5.16757871712,
			"-0.006": 19.2655843253,
			"-0.005": 26.5731568001,
			"-0.004": 30.3259180341,
			"-0.003": 28.7531715066,
			"-0.002": 21.6356810564,
			"-0.001": 23.1126668426,
			"0.0": 21.179082685,
			"0.001": 19.1850539536,
			"0.002": 22.1400045839,
			"0.003": 26.5422408673,
			"0.004": 35.4557857021,
			"0.005": 24.2685511986,
			"0.006": 11.4246818543,
			"0.007": 1.85145149527,
			"0.008": 1.92650948247,
			"0.009": 2.29860814275,
			"0.01": 2.65773320203,
			"0.011": 1.72034854874,
			"0.012": 3.22068542969,
			"0.013": 1.8059074094,
			"0.014": 0.0,
			"0.015": 0.0,
			"0.016": 0.0,
			"0.017": 0.0,
			"0.018": 0.0,
			"0.019": 0.0,
			"0.02": 0.0,
			"0.021": 0.0,
			"0.022": 0.0,
			"0.023": 0.0,
			"0.024": 0.0,
			"0.025": 0.0
		}
	}
}
