{
	 "smiles": "N#CN=C(OC1=CC=CC=C1)OC1=CC=CC=C1", 
	 "Tm": 430.15, 
	 "num_atms": 28, 
	 "gaussian": { 
		 "optdone": 1, 
		 "sigma_profile": "yes", 
		 "theory": "DFT", 
		 "functional": "B3LYP", 
		 "basiset": "6-31G**", 
		 "properties": { 
			 "R2extent": 5713.2281, 
			 "electric_dipole_moment_norm": 7.46358282462, 
			 "electric_quadrupole_moment_norm": 47.5239165534, 
			 "total_energy": -799.418929011, 
			 "HOMO_LUMO_gap": 0.22485, 
			 "cosmo_polarized_energy": -15.98, 
			 "cosmo_cavitation_energy": 35.43, 
			 "cosmo_dispersion_energy": -23.9, 
			 "cosmo_repulsion_energy": 1.89, 
			 "cosmo_total_nonelectrostatic_energy": 13.42, 
			 "SMD_solvation_energy": 8.58 
		},
		"coords": [
			{
				"x": 5.3973024835,
				"y": -1.0781886366,
				"z": 0.4555663868,
				"element": "N" 
			},
			{
				"x": 4.2344694163,
				"y": -1.032105583,
				"z": 0.3557221162,
				"element": "C" 
			},
			{
				"x": 2.9067490651,
				"y": -1.1186955454,
				"z": 0.2548634478,
				"element": "N" 
			},
			{
				"x": 2.1872400512,
				"y": -0.0669528611,
				"z": 0.1115935311,
				"element": "C" 
			},
			{
				"x": 2.6938529995,
				"y": 1.1693542371,
				"z": 0.0494986395,
				"element": "O" 
			},
			{
				"x": 1.8610778339,
				"y": 2.2948040261,
				"z": -0.1121318929,
				"element": "C" 
			},
			{
				"x": 1.7378733471,
				"y": 2.8454489112,
				"z": -1.3826820645,
				"element": "C" 
			},
			{
				"x": 0.9854973311,
				"y": 4.0113367395,
				"z": -1.5362353171,
				"element": "C" 
			},
			{
				"x": 0.3755702058,
				"y": 4.606233352,
				"z": -0.4298817934,
				"element": "C" 
			},
			{
				"x": 0.5207585943,
				"y": 4.0382940882,
				"z": 0.8380039248,
				"element": "C" 
			},
			{
				"x": 1.2714337738,
				"y": 2.8740298262,
				"z": 1.0063478089,
				"element": "C" 
			},
			{
				"x": 0.8576195384,
				"y": -0.1055763409,
				"z": 0.0046932007,
				"element": "O" 
			},
			{
				"x": 0.1734266338,
				"y": -1.3356786867,
				"z": 0.0681788972,
				"element": "C" 
			},
			{
				"x": -0.5468076773,
				"y": -1.7123166596,
				"z": -1.0587846394,
				"element": "C" 
			},
			{
				"x": -1.3140914598,
				"y": -2.8775843109,
				"z": -1.0053325369,
				"element": "C" 
			},
			{
				"x": -1.3503462292,
				"y": -3.6413277904,
				"z": 0.1623201143,
				"element": "C" 
			},
			{
				"x": -0.6202775356,
				"y": -3.2385842877,
				"z": 1.2834169412,
				"element": "C" 
			},
			{
				"x": 0.1480217143,
				"y": -2.0749796112,
				"z": 1.2462546613,
				"element": "C" 
			},
			{
				"x": 2.230683169,
				"y": 2.3710778334,
				"z": -2.2246680133,
				"element": "H" 
			},
			{
				"x": 0.8807627569,
				"y": 4.4546466216,
				"z": -2.5217360354,
				"element": "H" 
			},
			{
				"x": -0.2069505602,
				"y": 5.5138423296,
				"z": -0.5541064703,
				"element": "H" 
			},
			{
				"x": 0.0534842304,
				"y": 4.5027407682,
				"z": 1.7009178487,
				"element": "H" 
			},
			{
				"x": 1.4063680905,
				"y": 2.4237063442,
				"z": 1.9839902201,
				"element": "H" 
			},
			{
				"x": -0.5044468184,
				"y": -1.0985467851,
				"z": -1.9520667967,
				"element": "H" 
			},
			{
				"x": -1.8815052076,
				"y": -3.1851682206,
				"z": -1.8782775217,
				"element": "H" 
			},
			{
				"x": -1.9464003503,
				"y": -4.5478482462,
				"z": 0.2002414058,
				"element": "H" 
			},
			{
				"x": -0.6468568737,
				"y": -3.8304577738,
				"z": 2.1931049143,
				"element": "H" 
			},
			{
				"x": 0.7227914775,
				"y": -1.7526037381,
				"z": 2.106689023,
				"element": "H" 
			}
		],
		 "valence_orbital": [ 
			{
				"type": "occ",
				"energy": -0.27367,
				"method": "rhf"
			},
			{
				"type": "occ",
				"energy": -0.27022,
				"method": "rhf"
			},
			{
				"type": "occ",
				"energy": -0.26563,
				"method": "rhf"
			},
			{
				"type": "occ",
				"energy": -0.26249,
				"method": "rhf"
			},
			{
				"type": "occ",
				"energy": -0.25505,
				"method": "rhf"
			},
			{
				"type": "unocc",
				"energy": -0.0302,
				"method": "rhf"
			},
			{
				"type": "unocc",
				"energy": -0.02373,
				"method": "rhf"
			},
			{
				"type": "unocc",
				"energy": -0.02034,
				"method": "rhf"
			},
			{
				"type": "unocc",
				"energy": -0.01786,
				"method": "rhf"
			},
			{
				"type": "unocc",
				"energy": -0.00883,
				"method": "rhf"
			}
		],
		"cosmo_sigma_profile": { 
			"-0.025": 0.0,
			"-0.024": 0.0,
			"-0.023": 0.0,
			"-0.022": 0.0,
			"-0.021": 0.0,
			"-0.02": 0.0,
			"-0.019": 0.0,
			"-0.018": 0.0,
			"-0.017": 0.0,
			"-0.016": 0.0,
			"-0.015": 0.0,
			"-0.014": 0.0,
			"-0.013": 0.0,
			"-0.012": 0.0,
			"-0.011": 0.0,
			"-0.01": 0.0,
			"-0.009": 0.0,
			"-0.008": 4.40922996199,
			"-0.007": 15.05652712,
			"-0.006": 24.6640516295,
			"-0.005": 26.2844636408,
			"-0.004": 20.9973638888,
			"-0.003": 15.5580966365,
			"-0.002": 14.4769957596,
			"-0.001": 14.6325776448,
			"0.0": 15.8062030554,
			"0.001": 22.1456026147,
			"0.002": 21.3669888506,
			"0.003": 23.5715714091,
			"0.004": 26.0159799372,
			"0.005": 9.90083579251,
			"0.006": 4.33233891486,
			"0.007": 4.02283933277,
			"0.008": 2.92332843405,
			"0.009": 5.25054733767,
			"0.01": 3.15567588682,
			"0.011": 3.89382791554,
			"0.012": 2.97650099518,
			"0.013": 3.01971129737,
			"0.014": 2.22443174922,
			"0.015": 0.174850065887,
			"0.016": 0.0,
			"0.017": 0.0,
			"0.018": 0.0,
			"0.019": 0.0,
			"0.02": 0.0,
			"0.021": 0.0,
			"0.022": 0.0,
			"0.023": 0.0,
			"0.024": 0.0,
			"0.025": 0.0
		}
	}
}
