{
	 "smiles": "OC(=O)CCCCCCCBr", 
	 "Tm": 311.95, 
	 "num_atms": 26, 
	 "gaussian": { 
		 "optdone": 1, 
		 "sigma_profile": "yes", 
		 "theory": "DFT", 
		 "functional": "B3LYP", 
		 "basiset": "6-31G**", 
		 "properties": { 
			 "R2extent": 6531.784, 
			 "electric_dipole_moment_norm": 3.46068410289, 
			 "electric_quadrupole_moment_norm": 6.86086969268, 
			 "total_energy": -3035.78257528, 
			 "HOMO_LUMO_gap": 0.27041, 
			 "cosmo_polarized_energy": -10.89, 
			 "cosmo_cavitation_energy": 31.03, 
			 "cosmo_dispersion_energy": -22.38, 
			 "cosmo_repulsion_energy": 1.87, 
			 "cosmo_total_nonelectrostatic_energy": 10.51, 
			 "SMD_solvation_energy": 4.45 
		},
		"coords": [
			{
				"x": 0.505843627,
				"y": 5.4137632472,
				"z": 1.4196123019,
				"element": "O" 
			},
			{
				"x": 0.7996135654,
				"y": 4.1840782397,
				"z": 0.930581247,
				"element": "C" 
			},
			{
				"x": 1.8114386377,
				"y": 3.5901110999,
				"z": 1.2355842086,
				"element": "O" 
			},
			{
				"x": -0.265197695,
				"y": 3.7006890017,
				"z": -0.0324757302,
				"element": "C" 
			},
			{
				"x": -0.1107625158,
				"y": 2.2274833535,
				"z": -0.4226774468,
				"element": "C" 
			},
			{
				"x": -0.4498924714,
				"y": 1.2558949997,
				"z": 0.7174469691,
				"element": "C" 
			},
			{
				"x": -0.364874171,
				"y": -0.2295759171,
				"z": 0.3298328168,
				"element": "C" 
			},
			{
				"x": 1.0565178128,
				"y": -0.7148133472,
				"z": 0.0021811913,
				"element": "C" 
			},
			{
				"x": 1.1822900455,
				"y": -2.2378741289,
				"z": -0.1992593476,
				"element": "C" 
			},
			{
				"x": 0.4442209607,
				"y": -2.7304671799,
				"z": -1.436569519,
				"element": "C" 
			},
			{
				"x": 0.6886585097,
				"y": -4.6813113175,
				"z": -1.7055321422,
				"element": "Br" 
			},
			{
				"x": 1.2456123417,
				"y": 5.6559093228,
				"z": 2.0019569151,
				"element": "H" 
			},
			{
				"x": -1.2470178451,
				"y": 3.9032513912,
				"z": 0.411869386,
				"element": "H" 
			},
			{
				"x": -0.2028461914,
				"y": 4.3483575522,
				"z": -0.9169400994,
				"element": "H" 
			},
			{
				"x": 0.9176324273,
				"y": 2.0660253773,
				"z": -0.7614683999,
				"element": "H" 
			},
			{
				"x": -0.7661049692,
				"y": 2.0249814936,
				"z": -1.2795713187,
				"element": "H" 
			},
			{
				"x": -1.4683574782,
				"y": 1.4686789381,
				"z": 1.0706778973,
				"element": "H" 
			},
			{
				"x": 0.2217048517,
				"y": 1.4481521193,
				"z": 1.5628864713,
				"element": "H" 
			},
			{
				"x": -1.0349394295,
				"y": -0.4155245764,
				"z": -0.5210764409,
				"element": "H" 
			},
			{
				"x": -0.7567971587,
				"y": -0.8311202493,
				"z": 1.1612410641,
				"element": "H" 
			},
			{
				"x": 1.7255273593,
				"y": -0.4259664698,
				"z": 0.8229560558,
				"element": "H" 
			},
			{
				"x": 1.4369799638,
				"y": -0.2011593504,
				"z": -0.8902415481,
				"element": "H" 
			},
			{
				"x": 2.2403410071,
				"y": -2.5056290644,
				"z": -0.2906642366,
				"element": "H" 
			},
			{
				"x": 0.7999982548,
				"y": -2.7639140163,
				"z": 0.6834643679,
				"element": "H" 
			},
			{
				"x": -0.6342898802,
				"y": -2.591883032,
				"z": -1.374449489,
				"element": "H" 
			},
			{
				"x": 0.8166004409,
				"y": -2.2677374866,
				"z": -2.351465174,
				"element": "H" 
			}
		],
		 "valence_orbital": [ 
			{
				"type": "occ",
				"energy": -0.32134,
				"method": "rhf"
			},
			{
				"type": "occ",
				"energy": -0.31696,
				"method": "rhf"
			},
			{
				"type": "occ",
				"energy": -0.27857,
				"method": "rhf"
			},
			{
				"type": "occ",
				"energy": -0.26646,
				"method": "rhf"
			},
			{
				"type": "occ",
				"energy": -0.26592,
				"method": "rhf"
			},
			{
				"type": "unocc",
				"energy": 0.00449,
				"method": "rhf"
			},
			{
				"type": "unocc",
				"energy": 0.00646,
				"method": "rhf"
			},
			{
				"type": "unocc",
				"energy": 0.07605,
				"method": "rhf"
			},
			{
				"type": "unocc",
				"energy": 0.08833,
				"method": "rhf"
			},
			{
				"type": "unocc",
				"energy": 0.09932,
				"method": "rhf"
			}
		],
		"cosmo_sigma_profile": { 
			"-0.025": 0.0,
			"-0.024": 0.0,
			"-0.023": 0.0,
			"-0.022": 0.0,
			"-0.021": 0.0,
			"-0.02": 0.0,
			"-0.019": 0.0,
			"-0.018": 0.501603319975,
			"-0.017": 0.950348551822,
			"-0.016": 0.932683430224,
			"-0.015": 0.746467761499,
			"-0.014": 0.571496933469,
			"-0.013": 0.789302350984,
			"-0.012": 0.772935012187,
			"-0.011": 0.362862257303,
			"-0.01": 0.889216927809,
			"-0.009": 0.434537485145,
			"-0.008": 0.692244254473,
			"-0.007": 1.53124844691,
			"-0.006": 7.49816528693,
			"-0.005": 10.0388306875,
			"-0.004": 12.9640928204,
			"-0.003": 27.2711840874,
			"-0.002": 37.7518221091,
			"-0.001": 31.7914525772,
			"0.0": 23.3054034363,
			"0.001": 12.2076733959,
			"0.002": 8.55386839397,
			"0.003": 7.61453782945,
			"0.004": 7.50371991417,
			"0.005": 8.46214608195,
			"0.006": 13.0099890577,
			"0.007": 9.84622166655,
			"0.008": 2.52249295658,
			"0.009": 3.34350056925,
			"0.01": 3.08689568409,
			"0.011": 2.4904502035,
			"0.012": 4.73550402385,
			"0.013": 0.742031389539,
			"0.014": 0.0,
			"0.015": 0.0,
			"0.016": 0.0,
			"0.017": 0.0,
			"0.018": 0.0,
			"0.019": 0.0,
			"0.02": 0.0,
			"0.021": 0.0,
			"0.022": 0.0,
			"0.023": 0.0,
			"0.024": 0.0,
			"0.025": 0.0
		}
	}
}
