{
	 "smiles": "CCCC(=O)OCCC(C)C", 
	 "Tm": 200.05, 
	 "num_atms": 29, 
	 "gaussian": { 
		 "optdone": 1, 
		 "sigma_profile": "yes", 
		 "theory": "DFT", 
		 "functional": "B3LYP", 
		 "basiset": "6-31G**", 
		 "properties": { 
			 "R2extent": 3412.8074, 
			 "electric_dipole_moment_norm": 1.759534805, 
			 "electric_quadrupole_moment_norm": 9.07736503067, 
			 "total_energy": -504.29043462, 
			 "HOMO_LUMO_gap": 0.2778, 
			 "cosmo_polarized_energy": -6.23, 
			 "cosmo_cavitation_energy": 30.8, 
			 "cosmo_dispersion_energy": -21.53, 
			 "cosmo_repulsion_energy": 1.8, 
			 "cosmo_total_nonelectrostatic_energy": 11.07, 
			 "SMD_solvation_energy": 6.01 
		},
		"coords": [
			{
				"x": -2.5571382027,
				"y": -3.7185062925,
				"z": -2.0565901483,
				"element": "C" 
			},
			{
				"x": -1.8379342849,
				"y": -2.7046733038,
				"z": -2.9518125328,
				"element": "C" 
			},
			{
				"x": -0.3240740153,
				"y": -2.617390818,
				"z": -2.6841375475,
				"element": "C" 
			},
			{
				"x": 0.0332818678,
				"y": -2.158963466,
				"z": -1.2826210449,
				"element": "C" 
			},
			{
				"x": 0.7674710305,
				"y": -2.7508885207,
				"z": -0.5198514318,
				"element": "O" 
			},
			{
				"x": -0.5707361084,
				"y": -0.9825676519,
				"z": -0.9859151743,
				"element": "O" 
			},
			{
				"x": -0.3015444654,
				"y": -0.4252447622,
				"z": 0.3224478149,
				"element": "C" 
			},
			{
				"x": 0.9707380057,
				"y": 0.418253615,
				"z": 0.3093000354,
				"element": "C" 
			},
			{
				"x": 1.3168145414,
				"y": 1.0509013571,
				"z": 1.6723548985,
				"element": "C" 
			},
			{
				"x": 2.7042832668,
				"y": 1.7072785974,
				"z": 1.6137420492,
				"element": "C" 
			},
			{
				"x": 0.2598878902,
				"y": 2.06473164,
				"z": 2.1397273012,
				"element": "C" 
			},
			{
				"x": -2.46940049,
				"y": -3.4498488729,
				"z": -0.9982102786,
				"element": "H" 
			},
			{
				"x": -3.6238193365,
				"y": -3.7677518245,
				"z": -2.2974656181,
				"element": "H" 
			},
			{
				"x": -2.1392766338,
				"y": -4.7240498218,
				"z": -2.1783310196,
				"element": "H" 
			},
			{
				"x": -1.9821667965,
				"y": -2.9758917832,
				"z": -4.0045244476,
				"element": "H" 
			},
			{
				"x": -2.2791221599,
				"y": -1.7112503896,
				"z": -2.8197425778,
				"element": "H" 
			},
			{
				"x": 0.1295693724,
				"y": -1.9082269892,
				"z": -3.387959443,
				"element": "H" 
			},
			{
				"x": 0.1587192883,
				"y": -3.5873779792,
				"z": -2.8307350978,
				"element": "H" 
			},
			{
				"x": -1.1870858478,
				"y": 0.1722515334,
				"z": 0.5488731103,
				"element": "H" 
			},
			{
				"x": -0.218001494,
				"y": -1.2418062696,
				"z": 1.0449563762,
				"element": "H" 
			},
			{
				"x": 1.7976184765,
				"y": -0.2282968262,
				"z": -0.0048258041,
				"element": "H" 
			},
			{
				"x": 0.8699851413,
				"y": 1.206715767,
				"z": -0.4487683382,
				"element": "H" 
			},
			{
				"x": 1.3618698673,
				"y": 0.2401636625,
				"z": 2.4148796999,
				"element": "H" 
			},
			{
				"x": 2.7200566278,
				"y": 2.5242289834,
				"z": 0.8819155296,
				"element": "H" 
			},
			{
				"x": 3.4755831653,
				"y": 0.9856619417,
				"z": 1.3244237574,
				"element": "H" 
			},
			{
				"x": 2.9841770827,
				"y": 2.1276553595,
				"z": 2.5856387808,
				"element": "H" 
			},
			{
				"x": 0.1530046859,
				"y": 2.8792798294,
				"z": 1.412636089,
				"element": "H" 
			},
			{
				"x": -0.725713649,
				"y": 1.6082692625,
				"z": 2.276130247,
				"element": "H" 
			},
			{
				"x": 0.5464531741,
				"y": 2.5121440222,
				"z": 3.0974648152,
				"element": "H" 
			}
		],
		 "valence_orbital": [ 
			{
				"type": "occ",
				"energy": -0.32856,
				"method": "rhf"
			},
			{
				"type": "occ",
				"energy": -0.32664,
				"method": "rhf"
			},
			{
				"type": "occ",
				"energy": -0.32247,
				"method": "rhf"
			},
			{
				"type": "occ",
				"energy": -0.28791,
				"method": "rhf"
			},
			{
				"type": "occ",
				"energy": -0.26209,
				"method": "rhf"
			},
			{
				"type": "unocc",
				"energy": 0.01571,
				"method": "rhf"
			},
			{
				"type": "unocc",
				"energy": 0.08067,
				"method": "rhf"
			},
			{
				"type": "unocc",
				"energy": 0.0964,
				"method": "rhf"
			},
			{
				"type": "unocc",
				"energy": 0.12015,
				"method": "rhf"
			},
			{
				"type": "unocc",
				"energy": 0.12252,
				"method": "rhf"
			}
		],
		"cosmo_sigma_profile": { 
			"-0.025": 0.0,
			"-0.024": 0.0,
			"-0.023": 0.0,
			"-0.022": 0.0,
			"-0.021": 0.0,
			"-0.02": 0.0,
			"-0.019": 0.0,
			"-0.018": 0.0,
			"-0.017": 0.0,
			"-0.016": 0.0,
			"-0.015": 0.0,
			"-0.014": 0.0,
			"-0.013": 0.0,
			"-0.012": 0.0,
			"-0.011": 0.0,
			"-0.01": 0.0,
			"-0.009": 0.0,
			"-0.008": 0.0,
			"-0.007": 0.0,
			"-0.006": 1.31474544728,
			"-0.005": 5.98252767792,
			"-0.004": 10.3431719633,
			"-0.003": 28.5359246822,
			"-0.002": 44.6261091438,
			"-0.001": 40.2450010931,
			"0.0": 32.9243500766,
			"0.001": 30.336714279,
			"0.002": 12.8516028056,
			"0.003": 3.31666586939,
			"0.004": 3.9691856815,
			"0.005": 2.5403313268,
			"0.006": 3.62399700979,
			"0.007": 2.33792335348,
			"0.008": 2.01325205608,
			"0.009": 2.42864811244,
			"0.01": 1.24813320516,
			"0.011": 2.16505921821,
			"0.012": 4.50130296858,
			"0.013": 2.32200462954,
			"0.014": 0.222953356126,
			"0.015": 0.0,
			"0.016": 0.0,
			"0.017": 0.0,
			"0.018": 0.0,
			"0.019": 0.0,
			"0.02": 0.0,
			"0.021": 0.0,
			"0.022": 0.0,
			"0.023": 0.0,
			"0.024": 0.0,
			"0.025": 0.0
		}
	}
}
