{
	 "smiles": "C(NC1=NC2=C(N1)C=CC=C2)C1=CN=CC=C1", 
	 "Tm": 451.15, 
	 "num_atms": 29, 
	 "gaussian": { 
		 "optdone": 1, 
		 "sigma_profile": "yes", 
		 "theory": "DFT", 
		 "functional": "B3LYP", 
		 "basiset": "6-31G**", 
		 "properties": { 
			 "R2extent": 5518.0543, 
			 "electric_dipole_moment_norm": 5.25480363953, 
			 "electric_quadrupole_moment_norm": 10.0234415362, 
			 "total_energy": -721.629714635, 
			 "HOMO_LUMO_gap": 0.17404, 
			 "cosmo_polarized_energy": -20.15, 
			 "cosmo_cavitation_energy": 33.21, 
			 "cosmo_dispersion_energy": -24.33, 
			 "cosmo_repulsion_energy": 1.87, 
			 "cosmo_total_nonelectrostatic_energy": 10.75, 
			 "SMD_solvation_energy": 1.59 
		},
		"coords": [
			{
				"x": 1.0134782935,
				"y": 1.9557161941,
				"z": -0.3303292526,
				"element": "C" 
			},
			{
				"x": 0.1706595357,
				"y": 1.0708111559,
				"z": 0.4847517208,
				"element": "N" 
			},
			{
				"x": -0.6796669146,
				"y": 0.1900576311,
				"z": -0.1476685786,
				"element": "C" 
			},
			{
				"x": -0.9571174475,
				"y": 0.174183192,
				"z": -1.4307692954,
				"element": "N" 
			},
			{
				"x": -1.9253039245,
				"y": -0.8170438709,
				"z": -1.5731733979,
				"element": "C" 
			},
			{
				"x": -2.2143500047,
				"y": -1.4135081717,
				"z": -0.322491969,
				"element": "C" 
			},
			{
				"x": -1.3804609396,
				"y": -0.753922926,
				"z": 0.5801204097,
				"element": "N" 
			},
			{
				"x": -3.1430927572,
				"y": -2.437759661,
				"z": -0.1724048802,
				"element": "C" 
			},
			{
				"x": -3.7995181157,
				"y": -2.8674192225,
				"z": -1.329348536,
				"element": "C" 
			},
			{
				"x": -3.523027479,
				"y": -2.2915624205,
				"z": -2.5802491099,
				"element": "C" 
			},
			{
				"x": -2.586691344,
				"y": -1.2658039422,
				"z": -2.7189674693,
				"element": "C" 
			},
			{
				"x": 2.3458915405,
				"y": 1.3552016399,
				"z": -0.7352397716,
				"element": "C" 
			},
			{
				"x": 2.4373414015,
				"y": 0.4200753148,
				"z": -1.780135193,
				"element": "C" 
			},
			{
				"x": 3.5794328895,
				"y": -0.1594866254,
				"z": -2.1659710886,
				"element": "N" 
			},
			{
				"x": 4.6983168075,
				"y": 0.1812338965,
				"z": -1.5122389062,
				"element": "C" 
			},
			{
				"x": 4.7282858141,
				"y": 1.1022827298,
				"z": -0.4656304935,
				"element": "C" 
			},
			{
				"x": 3.5291071071,
				"y": 1.6971489948,
				"z": -0.0747486844,
				"element": "C" 
			},
			{
				"x": 0.4229879357,
				"y": 2.2145064865,
				"z": -1.2112554939,
				"element": "H" 
			},
			{
				"x": 1.1838296021,
				"y": 2.8728068504,
				"z": 0.2440125296,
				"element": "H" 
			},
			{
				"x": 0.6321840454,
				"y": 0.694455917,
				"z": 1.3036338019,
				"element": "H" 
			},
			{
				"x": -1.4314885811,
				"y": -0.8060027946,
				"z": 1.5853165074,
				"element": "H" 
			},
			{
				"x": -3.3541630097,
				"y": -2.8858617331,
				"z": 0.7942416941,
				"element": "H" 
			},
			{
				"x": -4.535323622,
				"y": -3.6627483744,
				"z": -1.2572045005,
				"element": "H" 
			},
			{
				"x": -4.0502267302,
				"y": -2.6539927469,
				"z": -3.4579476114,
				"element": "H" 
			},
			{
				"x": -2.3711771693,
				"y": -0.8198432687,
				"z": -3.6845897874,
				"element": "H" 
			},
			{
				"x": 1.5361731417,
				"y": 0.1353157496,
				"z": -2.3196603354,
				"element": "H" 
			},
			{
				"x": 5.6149161829,
				"y": -0.3027532584,
				"z": -1.8457233166,
				"element": "H" 
			},
			{
				"x": 5.665171343,
				"y": 1.3487979526,
				"z": 0.0245801942,
				"element": "H" 
			},
			{
				"x": 3.5128323991,
				"y": 2.4272153114,
				"z": 0.7321908136,
				"element": "H" 
			}
		],
		 "valence_orbital": [ 
			{
				"type": "occ",
				"energy": -0.26964,
				"method": "rhf"
			},
			{
				"type": "occ",
				"energy": -0.25603,
				"method": "rhf"
			},
			{
				"type": "occ",
				"energy": -0.24752,
				"method": "rhf"
			},
			{
				"type": "occ",
				"energy": -0.21984,
				"method": "rhf"
			},
			{
				"type": "occ",
				"energy": -0.19727,
				"method": "rhf"
			},
			{
				"type": "unocc",
				"energy": -0.02323,
				"method": "rhf"
			},
			{
				"type": "unocc",
				"energy": -0.01567,
				"method": "rhf"
			},
			{
				"type": "unocc",
				"energy": 0.00423,
				"method": "rhf"
			},
			{
				"type": "unocc",
				"energy": 0.0292,
				"method": "rhf"
			},
			{
				"type": "unocc",
				"energy": 0.06376,
				"method": "rhf"
			}
		],
		"cosmo_sigma_profile": { 
			"-0.025": 0.0,
			"-0.024": 0.0,
			"-0.023": 0.0,
			"-0.022": 0.0,
			"-0.021": 0.0,
			"-0.02": 0.0,
			"-0.019": 0.0,
			"-0.018": 0.0,
			"-0.017": 0.136584245935,
			"-0.016": 2.24343767213,
			"-0.015": 2.59873004623,
			"-0.014": 2.72251790999,
			"-0.013": 1.86355216119,
			"-0.012": 2.03006190381,
			"-0.011": 2.11623044763,
			"-0.01": 1.34225878349,
			"-0.009": 2.41310509055,
			"-0.008": 2.38423437026,
			"-0.007": 6.8555476847,
			"-0.006": 12.4258059594,
			"-0.005": 16.8198005932,
			"-0.004": 17.8145447104,
			"-0.003": 17.2055210033,
			"-0.002": 16.7625634991,
			"-0.001": 14.6202340133,
			"0.0": 13.9188054485,
			"0.001": 16.8846460655,
			"0.002": 21.1905201846,
			"0.003": 19.8093007466,
			"0.004": 14.4801957709,
			"0.005": 13.9758559353,
			"0.006": 13.3625145214,
			"0.007": 10.5562644759,
			"0.008": 4.39160689793,
			"0.009": 2.56890346036,
			"0.01": 2.60367535513,
			"0.011": 1.96788703571,
			"0.012": 1.76494591014,
			"0.013": 1.67415085881,
			"0.014": 1.25146228862,
			"0.015": 1.37646908631,
			"0.016": 1.28406459345,
			"0.017": 0.482203734291,
			"0.018": 0.0,
			"0.019": 0.0,
			"0.02": 0.0,
			"0.021": 0.0,
			"0.022": 0.0,
			"0.023": 0.0,
			"0.024": 0.0,
			"0.025": 0.0
		}
	}
}
