{
	 "smiles": "COC1=NOC(=C1)C(O)=O", 
	 "Tm": 419.15, 
	 "num_atms": 15, 
	 "gaussian": { 
		 "optdone": 1, 
		 "sigma_profile": "yes", 
		 "theory": "DFT", 
		 "functional": "B3LYP", 
		 "basiset": "6-31G**", 
		 "properties": { 
			 "R2extent": 2107.8252, 
			 "electric_dipole_moment_norm": 5.5587132234, 
			 "electric_quadrupole_moment_norm": 12.2866420946, 
			 "total_energy": -549.117696901, 
			 "HOMO_LUMO_gap": 0.20196, 
			 "cosmo_polarized_energy": -18.18, 
			 "cosmo_cavitation_energy": 20.73, 
			 "cosmo_dispersion_energy": -15.53, 
			 "cosmo_repulsion_energy": 1.27, 
			 "cosmo_total_nonelectrostatic_energy": 6.47, 
			 "SMD_solvation_energy": 6.17 
		},
		"coords": [
			{
				"x": 0.6919600832,
				"y": 3.0069216829,
				"z": 1.3798181947,
				"element": "C" 
			},
			{
				"x": 0.7812360032,
				"y": 1.6095935814,
				"z": 1.7066263839,
				"element": "O" 
			},
			{
				"x": 0.9882895004,
				"y": 0.7835775259,
				"z": 0.6786354188,
				"element": "C" 
			},
			{
				"x": 1.1084198333,
				"y": 1.1877534933,
				"z": -0.5712108208,
				"element": "N" 
			},
			{
				"x": 1.3105379892,
				"y": 0.0277391196,
				"z": -1.3135200096,
				"element": "O" 
			},
			{
				"x": 1.3055385426,
				"y": -1.0370719805,
				"z": -0.4863550497,
				"element": "C" 
			},
			{
				"x": 1.1049680548,
				"y": -0.6320573333,
				"z": 0.8017793048,
				"element": "C" 
			},
			{
				"x": 1.5111507548,
				"y": -2.3641772312,
				"z": -1.1331765256,
				"element": "C" 
			},
			{
				"x": 1.5031928601,
				"y": -3.428317286,
				"z": -0.2922639467,
				"element": "O" 
			},
			{
				"x": 1.6731737662,
				"y": -2.5022600285,
				"z": -2.3173298349,
				"element": "O" 
			},
			{
				"x": -0.1397795033,
				"y": 3.188872019,
				"z": 0.6930097156,
				"element": "H" 
			},
			{
				"x": 1.6198441447,
				"y": 3.353344514,
				"z": 0.9154633007,
				"element": "H" 
			},
			{
				"x": 0.5244111183,
				"y": 3.5183933485,
				"z": 2.3270753783,
				"element": "H" 
			},
			{
				"x": 1.0430817587,
				"y": -1.2043200413,
				"z": 1.7150213179,
				"element": "H" 
			},
			{
				"x": 1.361575094,
				"y": -3.1548913838,
				"z": 0.6246271726,
				"element": "H" 
			}
		],
		 "valence_orbital": [ 
			{
				"type": "occ",
				"energy": -0.33323,
				"method": "rhf"
			},
			{
				"type": "occ",
				"energy": -0.32226,
				"method": "rhf"
			},
			{
				"type": "occ",
				"energy": -0.2939,
				"method": "rhf"
			},
			{
				"type": "occ",
				"energy": -0.29347,
				"method": "rhf"
			},
			{
				"type": "occ",
				"energy": -0.27233,
				"method": "rhf"
			},
			{
				"type": "unocc",
				"energy": -0.07037,
				"method": "rhf"
			},
			{
				"type": "unocc",
				"energy": 0.03461,
				"method": "rhf"
			},
			{
				"type": "unocc",
				"energy": 0.03726,
				"method": "rhf"
			},
			{
				"type": "unocc",
				"energy": 0.06492,
				"method": "rhf"
			},
			{
				"type": "unocc",
				"energy": 0.08692,
				"method": "rhf"
			}
		],
		"cosmo_sigma_profile": { 
			"-0.025": 0.0,
			"-0.024": 0.0,
			"-0.023": 0.0,
			"-0.022": 0.0,
			"-0.021": 0.117834161905,
			"-0.02": 0.994053328602,
			"-0.019": 1.15550331731,
			"-0.018": 0.891947191706,
			"-0.017": 1.17834759234,
			"-0.016": 1.32302312298,
			"-0.015": 0.407030985627,
			"-0.014": 1.57708877172,
			"-0.013": 1.6013010103,
			"-0.012": 1.75957054817,
			"-0.011": 1.48411084572,
			"-0.01": 1.62664257874,
			"-0.009": 1.86492098285,
			"-0.008": 2.10769565496,
			"-0.007": 4.06720574881,
			"-0.006": 8.74883841771,
			"-0.005": 9.88867150813,
			"-0.004": 12.9051204328,
			"-0.003": 11.6873165252,
			"-0.002": 10.9131150885,
			"-0.001": 10.4954579815,
			"0.0": 6.76909673751,
			"0.001": 5.04057331039,
			"0.002": 4.67104803442,
			"0.003": 5.57668100455,
			"0.004": 5.18812230876,
			"0.005": 5.26440600766,
			"0.006": 6.23389772234,
			"0.007": 8.91755505206,
			"0.008": 8.21439752916,
			"0.009": 7.64058816898,
			"0.01": 6.78730516072,
			"0.011": 6.35419666272,
			"0.012": 2.20980301356,
			"0.013": 0.472530566641,
			"0.014": 0.0,
			"0.015": 0.0,
			"0.016": 0.0,
			"0.017": 0.0,
			"0.018": 0.0,
			"0.019": 0.0,
			"0.02": 0.0,
			"0.021": 0.0,
			"0.022": 0.0,
			"0.023": 0.0,
			"0.024": 0.0,
			"0.025": 0.0
		}
	}
}
