{
	 "smiles": "COC(C(=O)C1=CC=CC=C1)C1=CC=CC=C1", 
	 "Tm": 321.35, 
	 "num_atms": 31, 
	 "gaussian": { 
		 "optdone": 1, 
		 "sigma_profile": "yes", 
		 "theory": "DFT", 
		 "functional": "B3LYP", 
		 "basiset": "6-31G**", 
		 "properties": { 
			 "R2extent": 4409.5144, 
			 "electric_dipole_moment_norm": 3.25295040694, 
			 "electric_quadrupole_moment_norm": 7.33516856521, 
			 "total_energy": -730.458503747, 
			 "HOMO_LUMO_gap": 0.17251, 
			 "cosmo_polarized_energy": -10.43, 
			 "cosmo_cavitation_energy": 34.33, 
			 "cosmo_dispersion_energy": -23.93, 
			 "cosmo_repulsion_energy": 1.86, 
			 "cosmo_total_nonelectrostatic_energy": 12.26, 
			 "SMD_solvation_energy": 6.63 
		},
		"coords": [
			{
				"x": -2.7783172485,
				"y": 1.0807815891,
				"z": 1.8751066751,
				"element": "C" 
			},
			{
				"x": -1.4065633309,
				"y": 1.4216740142,
				"z": 1.693106322,
				"element": "O" 
			},
			{
				"x": -0.5747177904,
				"y": 0.4908410159,
				"z": 1.0202107382,
				"element": "C" 
			},
			{
				"x": -0.7937447669,
				"y": 0.5093364651,
				"z": -0.508589365,
				"element": "C" 
			},
			{
				"x": -1.8523851788,
				"y": 0.8976842038,
				"z": -0.9787933997,
				"element": "O" 
			},
			{
				"x": 0.3234062757,
				"y": 0.0674778444,
				"z": -1.4084881956,
				"element": "C" 
			},
			{
				"x": 1.5272703571,
				"y": -0.4803023739,
				"z": -0.9368291297,
				"element": "C" 
			},
			{
				"x": 2.5254195809,
				"y": -0.8616055081,
				"z": -1.8331881278,
				"element": "C" 
			},
			{
				"x": 2.3348683446,
				"y": -0.6968422489,
				"z": -3.2064007149,
				"element": "C" 
			},
			{
				"x": 1.1386988244,
				"y": -0.1537837353,
				"z": -3.6851808816,
				"element": "C" 
			},
			{
				"x": 0.1402709357,
				"y": 0.2226283945,
				"z": -2.7925062851,
				"element": "C" 
			},
			{
				"x": -0.63335835,
				"y": -0.9218302678,
				"z": 1.5973349902,
				"element": "C" 
			},
			{
				"x": -1.4418185543,
				"y": -1.9227671211,
				"z": 1.0423835184,
				"element": "C" 
			},
			{
				"x": -1.5002308433,
				"y": -3.191111102,
				"z": 1.6233871832,
				"element": "C" 
			},
			{
				"x": -0.7536663792,
				"y": -3.4736003474,
				"z": 2.7679558054,
				"element": "C" 
			},
			{
				"x": 0.0501022956,
				"y": -2.4806751859,
				"z": 3.3333964609,
				"element": "C" 
			},
			{
				"x": 0.106994143,
				"y": -1.2147354663,
				"z": 2.7516705977,
				"element": "C" 
			},
			{
				"x": -3.2983211599,
				"y": 0.963788315,
				"z": 0.9210546157,
				"element": "H" 
			},
			{
				"x": -3.2152836942,
				"y": 1.9184273022,
				"z": 2.4243559955,
				"element": "H" 
			},
			{
				"x": -2.8963436941,
				"y": 0.1687270031,
				"z": 2.4741945151,
				"element": "H" 
			},
			{
				"x": 0.4338975218,
				"y": 0.8824506586,
				"z": 1.198842564,
				"element": "H" 
			},
			{
				"x": 1.685951734,
				"y": -0.6319647918,
				"z": 0.1252528404,
				"element": "H" 
			},
			{
				"x": 3.4511245104,
				"y": -1.2888875065,
				"z": -1.4591360777,
				"element": "H" 
			},
			{
				"x": 3.1154349807,
				"y": -0.9919809985,
				"z": -3.9019727468,
				"element": "H" 
			},
			{
				"x": 0.9882992747,
				"y": -0.0254223202,
				"z": -4.7532007905,
				"element": "H" 
			},
			{
				"x": -0.7965884262,
				"y": 0.6455426626,
				"z": -3.1393606361,
				"element": "H" 
			},
			{
				"x": -2.0299479773,
				"y": -1.7115814228,
				"z": 0.1539053456,
				"element": "H" 
			},
			{
				"x": -2.1298068416,
				"y": -3.9575200352,
				"z": 1.18048943,
				"element": "H" 
			},
			{
				"x": -0.7973222611,
				"y": -4.4613987735,
				"z": 3.2176401653,
				"element": "H" 
			},
			{
				"x": 0.6321503731,
				"y": -2.6927872484,
				"z": 4.2257668155,
				"element": "H" 
			},
			{
				"x": 0.7260273449,
				"y": -0.4400630147,
				"z": 3.1974917722,
				"element": "H" 
			}
		],
		 "valence_orbital": [ 
			{
				"type": "occ",
				"energy": -0.26335,
				"method": "rhf"
			},
			{
				"type": "occ",
				"energy": -0.25873,
				"method": "rhf"
			},
			{
				"type": "occ",
				"energy": -0.25565,
				"method": "rhf"
			},
			{
				"type": "occ",
				"energy": -0.25153,
				"method": "rhf"
			},
			{
				"type": "occ",
				"energy": -0.23128,
				"method": "rhf"
			},
			{
				"type": "unocc",
				"energy": -0.05877,
				"method": "rhf"
			},
			{
				"type": "unocc",
				"energy": -0.01648,
				"method": "rhf"
			},
			{
				"type": "unocc",
				"energy": -0.01016,
				"method": "rhf"
			},
			{
				"type": "unocc",
				"energy": -0.00633,
				"method": "rhf"
			},
			{
				"type": "unocc",
				"energy": 0.03723,
				"method": "rhf"
			}
		],
		"cosmo_sigma_profile": { 
			"-0.025": 0.0,
			"-0.024": 0.0,
			"-0.023": 0.0,
			"-0.022": 0.0,
			"-0.021": 0.0,
			"-0.02": 0.0,
			"-0.019": 0.0,
			"-0.018": 0.0,
			"-0.017": 0.0,
			"-0.016": 0.0,
			"-0.015": 0.0,
			"-0.014": 0.0,
			"-0.013": 0.0,
			"-0.012": 0.0,
			"-0.011": 0.0,
			"-0.01": 0.0,
			"-0.009": 0.0,
			"-0.008": 0.673986897547,
			"-0.007": 4.71415227042,
			"-0.006": 17.9847527187,
			"-0.005": 24.3121051175,
			"-0.004": 24.6238948893,
			"-0.003": 21.5576412334,
			"-0.002": 22.4567534693,
			"-0.001": 21.7823334629,
			"0.0": 17.177819381,
			"0.001": 17.64783446,
			"0.002": 21.6730702993,
			"0.003": 21.9214180506,
			"0.004": 22.0557518257,
			"0.005": 10.6295145405,
			"0.006": 3.5929495681,
			"0.007": 2.87866826687,
			"0.008": 2.44395024464,
			"0.009": 3.46593361921,
			"0.01": 4.1426810413,
			"0.011": 4.68180433587,
			"0.012": 2.6429685404,
			"0.013": 0.985175822467,
			"0.014": 0.0,
			"0.015": 0.0,
			"0.016": 0.0,
			"0.017": 0.0,
			"0.018": 0.0,
			"0.019": 0.0,
			"0.02": 0.0,
			"0.021": 0.0,
			"0.022": 0.0,
			"0.023": 0.0,
			"0.024": 0.0,
			"0.025": 0.0
		}
	}
}
