{
	 "smiles": "OC1=NC=CC2=CC=CC=C12", 
	 "Tm": 486.65, 
	 "num_atms": 18, 
	 "gaussian": { 
		 "optdone": 1, 
		 "sigma_profile": "yes", 
		 "theory": "DFT", 
		 "functional": "B3LYP", 
		 "basiset": "6-31G**", 
		 "properties": { 
			 "R2extent": 1907.8585, 
			 "electric_dipole_moment_norm": 3.75199692297, 
			 "electric_quadrupole_moment_norm": 10.4312807603, 
			 "total_energy": -477.15478167, 
			 "HOMO_LUMO_gap": 0.17029, 
			 "cosmo_polarized_energy": -12.85, 
			 "cosmo_cavitation_energy": 21.7, 
			 "cosmo_dispersion_energy": -16.69, 
			 "cosmo_repulsion_energy": 1.3, 
			 "cosmo_total_nonelectrostatic_energy": 6.31, 
			 "SMD_solvation_energy": 2.38 
		},
		"coords": [
			{
				"x": -1.225499991,
				"y": -2.117827078,
				"z": 0.5473303757,
				"element": "O" 
			},
			{
				"x": -1.0152805582,
				"y": -1.0426951253,
				"z": -0.2544652692,
				"element": "C" 
			},
			{
				"x": -0.6712414756,
				"y": -1.3391835274,
				"z": -1.4827452823,
				"element": "N" 
			},
			{
				"x": -0.4430911803,
				"y": -0.3176895658,
				"z": -2.3482482805,
				"element": "C" 
			},
			{
				"x": -0.549967743,
				"y": 1.0107332082,
				"z": -2.0190283957,
				"element": "C" 
			},
			{
				"x": -0.9214922028,
				"y": 1.3576292699,
				"z": -0.6928584955,
				"element": "C" 
			},
			{
				"x": -1.0583907389,
				"y": 2.7015573378,
				"z": -0.2547863597,
				"element": "C" 
			},
			{
				"x": -1.4207835688,
				"y": 2.9879096311,
				"z": 1.0424216382,
				"element": "C" 
			},
			{
				"x": -1.6637493593,
				"y": 1.943156181,
				"z": 1.9643224312,
				"element": "C" 
			},
			{
				"x": -1.5389004535,
				"y": 0.6287608733,
				"z": 1.5682346853,
				"element": "C" 
			},
			{
				"x": -1.1673750972,
				"y": 0.3017932514,
				"z": 0.2391633275,
				"element": "C" 
			},
			{
				"x": -1.4760654205,
				"y": -1.8274289982,
				"z": 1.4323859669,
				"element": "H" 
			},
			{
				"x": -0.1604715318,
				"y": -0.6186100315,
				"z": -3.3546363714,
				"element": "H" 
			},
			{
				"x": -0.3556784371,
				"y": 1.786464881,
				"z": -2.752826322,
				"element": "H" 
			},
			{
				"x": -0.8711281166,
				"y": 3.5025486287,
				"z": -0.9646433024,
				"element": "H" 
			},
			{
				"x": -1.521754056,
				"y": 4.0204173749,
				"z": 1.3639465842,
				"element": "H" 
			},
			{
				"x": -1.9488457854,
				"y": 2.1785972461,
				"z": 2.985021824,
				"element": "H" 
			},
			{
				"x": -1.7326842841,
				"y": -0.1508335571,
				"z": 2.3021112458,
				"element": "H" 
			}
		],
		 "valence_orbital": [ 
			{
				"type": "occ",
				"energy": -0.33803,
				"method": "rhf"
			},
			{
				"type": "occ",
				"energy": -0.28277,
				"method": "rhf"
			},
			{
				"type": "occ",
				"energy": -0.26717,
				"method": "rhf"
			},
			{
				"type": "occ",
				"energy": -0.25787,
				"method": "rhf"
			},
			{
				"type": "occ",
				"energy": -0.21805,
				"method": "rhf"
			},
			{
				"type": "unocc",
				"energy": -0.04776,
				"method": "rhf"
			},
			{
				"type": "unocc",
				"energy": -0.02468,
				"method": "rhf"
			},
			{
				"type": "unocc",
				"energy": 0.03164,
				"method": "rhf"
			},
			{
				"type": "unocc",
				"energy": 0.05329,
				"method": "rhf"
			},
			{
				"type": "unocc",
				"energy": 0.08791,
				"method": "rhf"
			}
		],
		"cosmo_sigma_profile": { 
			"-0.025": 0.0,
			"-0.024": 0.0,
			"-0.023": 0.0,
			"-0.022": 0.0,
			"-0.021": 0.0,
			"-0.02": 0.0,
			"-0.019": 0.252863556592,
			"-0.018": 0.661718939411,
			"-0.017": 1.2173241447,
			"-0.016": 1.18517283013,
			"-0.015": 0.44374929387,
			"-0.014": 0.990957250773,
			"-0.013": 0.415002172402,
			"-0.012": 1.3291167183,
			"-0.011": 1.4974869186,
			"-0.01": 1.03266787458,
			"-0.009": 0.835381091379,
			"-0.008": 1.18757553697,
			"-0.007": 4.31346308496,
			"-0.006": 13.5997039216,
			"-0.005": 11.3526690735,
			"-0.004": 12.3346782314,
			"-0.003": 8.41579999986,
			"-0.002": 9.09799612572,
			"-0.001": 8.67161439122,
			"0.0": 10.0414177151,
			"0.001": 11.9548918648,
			"0.002": 14.7046340264,
			"0.003": 19.3545735875,
			"0.004": 14.3874961267,
			"0.005": 3.27148362306,
			"0.006": 1.96885612865,
			"0.007": 1.95722211934,
			"0.008": 2.27929890963,
			"0.009": 2.23335473058,
			"0.01": 2.47819732701,
			"0.011": 2.34368435501,
			"0.012": 2.55850514361,
			"0.013": 1.83717949289,
			"0.014": 1.70354839687,
			"0.015": 1.29143670944,
			"0.016": 1.06948729214,
			"0.017": 0.387155834223,
			"0.018": 0.0,
			"0.019": 0.0,
			"0.02": 0.0,
			"0.021": 0.0,
			"0.022": 0.0,
			"0.023": 0.0,
			"0.024": 0.0,
			"0.025": 0.0
		}
	}
}
