{
	 "smiles": "COC1=NC(Cl)=C(S1)C=O", 
	 "Tm": 317.15, 
	 "num_atms": 14, 
	 "gaussian": { 
		 "optdone": 1, 
		 "sigma_profile": "yes", 
		 "theory": "DFT", 
		 "functional": "B3LYP", 
		 "basiset": "6-31G**", 
		 "properties": { 
			 "R2extent": 2190.8434, 
			 "electric_dipole_moment_norm": 6.19265597058, 
			 "electric_quadrupole_moment_norm": 6.43248550251, 
			 "total_energy": -1256.47546184, 
			 "HOMO_LUMO_gap": 0.1725, 
			 "cosmo_polarized_energy": -13.48, 
			 "cosmo_cavitation_energy": 22.56, 
			 "cosmo_dispersion_energy": -17.39, 
			 "cosmo_repulsion_energy": 1.37, 
			 "cosmo_total_nonelectrostatic_energy": 6.54, 
			 "SMD_solvation_energy": 3.9 
		},
		"coords": [
			{
				"x": 1.2802351004,
				"y": 1.3636255229,
				"z": -2.8639907856,
				"element": "C" 
			},
			{
				"x": 0.5302990812,
				"y": 0.1784876352,
				"z": -2.5799385052,
				"element": "O" 
			},
			{
				"x": 0.3482078068,
				"y": -0.1674881121,
				"z": -1.3104008094,
				"element": "C" 
			},
			{
				"x": -0.3285898314,
				"y": -1.2395262313,
				"z": -1.0021479013,
				"element": "N" 
			},
			{
				"x": -0.3795101466,
				"y": -1.384392067,
				"z": 0.3462833456,
				"element": "C" 
			},
			{
				"x": -1.2316080355,
				"y": -2.7458611712,
				"z": 0.976692132,
				"element": "Cl" 
			},
			{
				"x": 0.2525435663,
				"y": -0.4348175229,
				"z": 1.1275980797,
				"element": "C" 
			},
			{
				"x": 0.9824777404,
				"y": 0.7573444616,
				"z": 0.0492096149,
				"element": "S" 
			},
			{
				"x": 0.3830906398,
				"y": -0.301020362,
				"z": 2.5764871967,
				"element": "C" 
			},
			{
				"x": -0.0843629069,
				"y": -1.0732873482,
				"z": 3.3930202209,
				"element": "O" 
			},
			{
				"x": 0.7920806413,
				"y": 2.2452130828,
				"z": -2.433720129,
				"element": "H" 
			},
			{
				"x": 1.3001354189,
				"y": 1.4473500006,
				"z": -3.9497621776,
				"element": "H" 
			},
			{
				"x": 2.303117892,
				"y": 1.2778166884,
				"z": -2.4806200682,
				"element": "H" 
			},
			{
				"x": 0.9652830334,
				"y": 0.5902554231,
				"z": 2.8991897865,
				"element": "H" 
			}
		],
		 "valence_orbital": [ 
			{
				"type": "occ",
				"energy": -0.32628,
				"method": "rhf"
			},
			{
				"type": "occ",
				"energy": -0.30862,
				"method": "rhf"
			},
			{
				"type": "occ",
				"energy": -0.29926,
				"method": "rhf"
			},
			{
				"type": "occ",
				"energy": -0.25817,
				"method": "rhf"
			},
			{
				"type": "occ",
				"energy": -0.24674,
				"method": "rhf"
			},
			{
				"type": "unocc",
				"energy": -0.07424,
				"method": "rhf"
			},
			{
				"type": "unocc",
				"energy": -0.02667,
				"method": "rhf"
			},
			{
				"type": "unocc",
				"energy": -0.00243,
				"method": "rhf"
			},
			{
				"type": "unocc",
				"energy": 0.03906,
				"method": "rhf"
			},
			{
				"type": "unocc",
				"energy": 0.05858,
				"method": "rhf"
			}
		],
		"cosmo_sigma_profile": { 
			"-0.025": 0.0,
			"-0.024": 0.0,
			"-0.023": 0.0,
			"-0.022": 0.0,
			"-0.021": 0.0,
			"-0.02": 0.0,
			"-0.019": 0.0,
			"-0.018": 0.0,
			"-0.017": 0.0,
			"-0.016": 0.0,
			"-0.015": 0.0,
			"-0.014": 0.0,
			"-0.013": 0.0,
			"-0.012": 0.0,
			"-0.011": 0.0,
			"-0.01": 0.00705807299047,
			"-0.009": 1.82378865029,
			"-0.008": 8.4259915028,
			"-0.007": 12.4660627968,
			"-0.006": 12.7525073606,
			"-0.005": 11.926368794,
			"-0.004": 11.6857787516,
			"-0.003": 11.0514617278,
			"-0.002": 11.4773561799,
			"-0.001": 16.0632320393,
			"0.0": 12.1161759694,
			"0.001": 10.1180082667,
			"0.002": 9.15239168178,
			"0.003": 10.7842610593,
			"0.004": 6.59738520067,
			"0.005": 5.17605789569,
			"0.006": 4.80134192217,
			"0.007": 5.51405416854,
			"0.008": 5.27157241973,
			"0.009": 2.98286846996,
			"0.01": 4.48984618679,
			"0.011": 6.20544181289,
			"0.012": 3.82171071856,
			"0.013": 1.20034971179,
			"0.014": 0.0,
			"0.015": 0.0,
			"0.016": 0.0,
			"0.017": 0.0,
			"0.018": 0.0,
			"0.019": 0.0,
			"0.02": 0.0,
			"0.021": 0.0,
			"0.022": 0.0,
			"0.023": 0.0,
			"0.024": 0.0,
			"0.025": 0.0
		}
	}
}
