{
	 "smiles": "CN1C=CN=C1SCC1=C(C=CC=C1)[N+]([O-])=O", 
	 "Tm": 360.15, 
	 "num_atms": 28, 
	 "gaussian": { 
		 "optdone": 1, 
		 "sigma_profile": "yes", 
		 "theory": "DFT", 
		 "functional": "B3LYP", 
		 "basiset": "6-31G**", 
		 "properties": { 
			 "R2extent": 5234.2304, 
			 "electric_dipole_moment_norm": 4.47891859046, 
			 "electric_quadrupole_moment_norm": 24.0412304498, 
			 "total_energy": -1138.57940812, 
			 "HOMO_LUMO_gap": 0.11658, 
			 "cosmo_polarized_energy": -12.91, 
			 "cosmo_cavitation_energy": 33.59, 
			 "cosmo_dispersion_energy": -24.57, 
			 "cosmo_repulsion_energy": 1.85, 
			 "cosmo_total_nonelectrostatic_energy": 10.87, 
			 "SMD_solvation_energy": 7.32 
		},
		"coords": [
			{
				"x": -4.1789114177,
				"y": -0.4783707412,
				"z": -1.3791937418,
				"element": "C" 
			},
			{
				"x": -3.4179484995,
				"y": -0.1803848105,
				"z": -0.1766209133,
				"element": "N" 
			},
			{
				"x": -3.8805327561,
				"y": -0.2332500264,
				"z": 1.1307185314,
				"element": "C" 
			},
			{
				"x": -2.8314086939,
				"y": 0.1642719127,
				"z": 1.9131566787,
				"element": "C" 
			},
			{
				"x": -1.7346722757,
				"y": 0.4726309825,
				"z": 1.1347583127,
				"element": "N" 
			},
			{
				"x": -2.1223350379,
				"y": 0.2604452081,
				"z": -0.108948526,
				"element": "C" 
			},
			{
				"x": -1.1739543016,
				"y": 0.5042047201,
				"z": -1.5888215539,
				"element": "S" 
			},
			{
				"x": 0.4654266568,
				"y": 0.8816388148,
				"z": -0.8217977773,
				"element": "C" 
			},
			{
				"x": 1.3209453947,
				"y": -0.3415879405,
				"z": -0.6113891441,
				"element": "C" 
			},
			{
				"x": 2.1638249685,
				"y": -0.9285951407,
				"z": -1.5765103282,
				"element": "C" 
			},
			{
				"x": 2.9610310209,
				"y": -2.0401462383,
				"z": -1.2896061683,
				"element": "C" 
			},
			{
				"x": 2.9186639982,
				"y": -2.6114038277,
				"z": -0.0236425124,
				"element": "C" 
			},
			{
				"x": 2.0870026227,
				"y": -2.0572646368,
				"z": 0.9519594212,
				"element": "C" 
			},
			{
				"x": 1.3100775936,
				"y": -0.9386506037,
				"z": 0.6596046329,
				"element": "C" 
			},
			{
				"x": 2.2568408231,
				"y": -0.4085984834,
				"z": -2.951379467,
				"element": "N" 
			},
			{
				"x": 1.3628013202,
				"y": 0.336504961,
				"z": -3.3620784432,
				"element": "O" 
			},
			{
				"x": 3.2218325215,
				"y": -0.7572231412,
				"z": -3.6306746076,
				"element": "O" 
			},
			{
				"x": -5.0552362682,
				"y": -1.0686697185,
				"z": -1.1066502269,
				"element": "H" 
			},
			{
				"x": -3.5673002832,
				"y": -1.0602532054,
				"z": -2.0738503167,
				"element": "H" 
			},
			{
				"x": -4.5086850679,
				"y": 0.4376070565,
				"z": -1.8807586929,
				"element": "H" 
			},
			{
				"x": -4.8876311746,
				"y": -0.5465603873,
				"z": 1.3596088937,
				"element": "H" 
			},
			{
				"x": -2.7942465432,
				"y": 0.2446400584,
				"z": 2.9905318764,
				"element": "H" 
			},
			{
				"x": 0.2438224579,
				"y": 1.3501643783,
				"z": 0.1373820359,
				"element": "H" 
			},
			{
				"x": 0.9239203114,
				"y": 1.6026550389,
				"z": -1.4937640025,
				"element": "H" 
			},
			{
				"x": 3.5975846826,
				"y": -2.4354014854,
				"z": -2.0707674394,
				"element": "H" 
			},
			{
				"x": 3.5297752567,
				"y": -3.4805717435,
				"z": 0.1976500209,
				"element": "H" 
			},
			{
				"x": 2.0452645112,
				"y": -2.4941859263,
				"z": 1.9453550023,
				"element": "H" 
			},
			{
				"x": 0.6550481793,
				"y": -0.5102450747,
				"z": 1.4115284553,
				"element": "H" 
			}
		],
		 "valence_orbital": [ 
			{
				"type": "occ",
				"energy": -0.27516,
				"method": "rhf"
			},
			{
				"type": "occ",
				"energy": -0.27274,
				"method": "rhf"
			},
			{
				"type": "occ",
				"energy": -0.26821,
				"method": "rhf"
			},
			{
				"type": "occ",
				"energy": -0.26385,
				"method": "rhf"
			},
			{
				"type": "occ",
				"energy": -0.20295,
				"method": "rhf"
			},
			{
				"type": "unocc",
				"energy": -0.08637,
				"method": "rhf"
			},
			{
				"type": "unocc",
				"energy": -0.02805,
				"method": "rhf"
			},
			{
				"type": "unocc",
				"energy": -0.00223,
				"method": "rhf"
			},
			{
				"type": "unocc",
				"energy": 0.02759,
				"method": "rhf"
			},
			{
				"type": "unocc",
				"energy": 0.03453,
				"method": "rhf"
			}
		],
		"cosmo_sigma_profile": { 
			"-0.025": 0.0,
			"-0.024": 0.0,
			"-0.023": 0.0,
			"-0.022": 0.0,
			"-0.021": 0.0,
			"-0.02": 0.0,
			"-0.019": 0.0,
			"-0.018": 0.0,
			"-0.017": 0.0,
			"-0.016": 0.0,
			"-0.015": 0.0,
			"-0.014": 0.0,
			"-0.013": 0.0,
			"-0.012": 0.0,
			"-0.011": 0.0,
			"-0.01": 0.0,
			"-0.009": 0.823500167521,
			"-0.008": 5.45852760507,
			"-0.007": 11.9847815223,
			"-0.006": 18.3780175911,
			"-0.005": 20.3848224943,
			"-0.004": 22.6157449222,
			"-0.003": 22.1743650856,
			"-0.002": 15.4797882802,
			"-0.001": 15.9435897251,
			"0.0": 15.1676425731,
			"0.001": 17.0960320301,
			"0.002": 21.3693776661,
			"0.003": 16.0617008858,
			"0.004": 12.4586711542,
			"0.005": 13.6970178125,
			"0.006": 11.5819468951,
			"0.007": 11.0612269137,
			"0.008": 7.82348768966,
			"0.009": 5.36577398008,
			"0.01": 3.54839841658,
			"0.011": 0.981839601679,
			"0.012": 0.899251703803,
			"0.013": 0.379326812192,
			"0.014": 0.271459621909,
			"0.015": 0.0,
			"0.016": 0.0,
			"0.017": 0.0,
			"0.018": 0.0,
			"0.019": 0.0,
			"0.02": 0.0,
			"0.021": 0.0,
			"0.022": 0.0,
			"0.023": 0.0,
			"0.024": 0.0,
			"0.025": 0.0
		}
	}
}
