{
	 "smiles": "COC1=CC=C2C(=O)C=C(OC2=C1)C1=CC=CC=C1", 
	 "Tm": 383.15, 
	 "num_atms": 31, 
	 "gaussian": { 
		 "optdone": 1, 
		 "sigma_profile": "yes", 
		 "theory": "DFT", 
		 "functional": "B3LYP", 
		 "basiset": "6-31G**", 
		 "properties": { 
			 "R2extent": 6887.1467, 
			 "electric_dipole_moment_norm": 3.74158597122, 
			 "electric_quadrupole_moment_norm": 25.9052459444, 
			 "total_energy": -842.59712214, 
			 "HOMO_LUMO_gap": 0.16771, 
			 "cosmo_polarized_energy": -13.43, 
			 "cosmo_cavitation_energy": 35.6, 
			 "cosmo_dispersion_energy": -26.2, 
			 "cosmo_repulsion_energy": 1.96, 
			 "cosmo_total_nonelectrostatic_energy": 11.36, 
			 "SMD_solvation_energy": 7.52 
		},
		"coords": [
			{
				"x": 2.9525097791,
				"y": 3.8113681544,
				"z": -3.6266024586,
				"element": "C" 
			},
			{
				"x": 1.7851534426,
				"y": 3.3274255213,
				"z": -2.9754376311,
				"element": "O" 
			},
			{
				"x": 1.9305385654,
				"y": 2.515449259,
				"z": -1.8949659338,
				"element": "C" 
			},
			{
				"x": 3.1742542157,
				"y": 2.1113214369,
				"z": -1.3664548009,
				"element": "C" 
			},
			{
				"x": 3.2046805301,
				"y": 1.2787199934,
				"z": -0.2574261371,
				"element": "C" 
			},
			{
				"x": 2.0261610501,
				"y": 0.8287443774,
				"z": 0.3523382121,
				"element": "C" 
			},
			{
				"x": 2.0466876523,
				"y": -0.0624457053,
				"z": 1.5292114339,
				"element": "C" 
			},
			{
				"x": 3.08913181,
				"y": -0.4624265397,
				"z": 2.0501323595,
				"element": "O" 
			},
			{
				"x": 0.7184422905,
				"y": -0.4317959671,
				"z": 2.0097987021,
				"element": "C" 
			},
			{
				"x": -0.4204906451,
				"y": 0.0290849918,
				"z": 1.4323058344,
				"element": "C" 
			},
			{
				"x": -0.3965496505,
				"y": 0.8548930182,
				"z": 0.3440512774,
				"element": "O" 
			},
			{
				"x": 0.8029186893,
				"y": 1.2458204839,
				"z": -0.1955193666,
				"element": "C" 
			},
			{
				"x": 0.7395341721,
				"y": 2.0809877792,
				"z": -1.3064469922,
				"element": "C" 
			},
			{
				"x": -1.7986086794,
				"y": -0.2878918717,
				"z": 1.854742316,
				"element": "C" 
			},
			{
				"x": -2.8732471655,
				"y": -0.1135657017,
				"z": 0.9661336519,
				"element": "C" 
			},
			{
				"x": -4.1724283754,
				"y": -0.4305674097,
				"z": 1.3577537161,
				"element": "C" 
			},
			{
				"x": -4.4217806765,
				"y": -0.9200451614,
				"z": 2.6408859087,
				"element": "C" 
			},
			{
				"x": -3.3611153051,
				"y": -1.0864674764,
				"z": 3.5348468253,
				"element": "C" 
			},
			{
				"x": -2.0615306805,
				"y": -0.7707711289,
				"z": 3.1483930456,
				"element": "C" 
			},
			{
				"x": 3.5602695931,
				"y": 2.9912669339,
				"z": -4.0281949437,
				"element": "H" 
			},
			{
				"x": 3.5673257098,
				"y": 4.420880484,
				"z": -2.9530422236,
				"element": "H" 
			},
			{
				"x": 2.5981500511,
				"y": 4.4325080063,
				"z": -4.4502151221,
				"element": "H" 
			},
			{
				"x": 4.10210721,
				"y": 2.4428761254,
				"z": -1.8157521663,
				"element": "H" 
			},
			{
				"x": 4.145133732,
				"y": 0.9493293084,
				"z": 0.1725707155,
				"element": "H" 
			},
			{
				"x": 0.666788392,
				"y": -1.1135605782,
				"z": 2.8489137509,
				"element": "H" 
			},
			{
				"x": -0.2148919504,
				"y": 2.3941998675,
				"z": -1.7125770247,
				"element": "H" 
			},
			{
				"x": -2.6823674935,
				"y": 0.2641238343,
				"z": -0.0314834189,
				"element": "H" 
			},
			{
				"x": -4.9913893174,
				"y": -0.2959320762,
				"z": 0.6572452377,
				"element": "H" 
			},
			{
				"x": -5.4351768711,
				"y": -1.1647653029,
				"z": 2.9451877165,
				"element": "H" 
			},
			{
				"x": -3.5473541587,
				"y": -1.4539801557,
				"z": 4.5396022753,
				"element": "H" 
			},
			{
				"x": -1.2509559163,
				"y": -0.8791845006,
				"z": 3.8612052405,
				"element": "H" 
			}
		],
		 "valence_orbital": [ 
			{
				"type": "occ",
				"energy": -0.26202,
				"method": "rhf"
			},
			{
				"type": "occ",
				"energy": -0.2504,
				"method": "rhf"
			},
			{
				"type": "occ",
				"energy": -0.23269,
				"method": "rhf"
			},
			{
				"type": "occ",
				"energy": -0.23096,
				"method": "rhf"
			},
			{
				"type": "occ",
				"energy": -0.22967,
				"method": "rhf"
			},
			{
				"type": "unocc",
				"energy": -0.06196,
				"method": "rhf"
			},
			{
				"type": "unocc",
				"energy": -0.02121,
				"method": "rhf"
			},
			{
				"type": "unocc",
				"energy": -0.0113,
				"method": "rhf"
			},
			{
				"type": "unocc",
				"energy": -0.00301,
				"method": "rhf"
			},
			{
				"type": "unocc",
				"energy": 0.03047,
				"method": "rhf"
			}
		],
		"cosmo_sigma_profile": { 
			"-0.025": 0.0,
			"-0.024": 0.0,
			"-0.023": 0.0,
			"-0.022": 0.0,
			"-0.021": 0.0,
			"-0.02": 0.0,
			"-0.019": 0.0,
			"-0.018": 0.0,
			"-0.017": 0.0,
			"-0.016": 0.0,
			"-0.015": 0.0,
			"-0.014": 0.0,
			"-0.013": 0.0,
			"-0.012": 0.0,
			"-0.011": 0.0,
			"-0.01": 0.0,
			"-0.009": 0.306221905398,
			"-0.008": 2.40036537735,
			"-0.007": 7.88895459733,
			"-0.006": 21.0433684892,
			"-0.005": 24.1662331294,
			"-0.004": 23.462570239,
			"-0.003": 19.5948868923,
			"-0.002": 18.1204832723,
			"-0.001": 18.2531352469,
			"0.0": 22.583358678,
			"0.001": 26.2592400847,
			"0.002": 29.8172996219,
			"0.003": 22.2432314983,
			"0.004": 16.8554905416,
			"0.005": 6.98426356429,
			"0.006": 2.71139277658,
			"0.007": 2.73254279355,
			"0.008": 3.02201922072,
			"0.009": 2.96283929144,
			"0.01": 1.5356764198,
			"0.011": 1.82893062258,
			"0.012": 2.21800293993,
			"0.013": 3.94311346373,
			"0.014": 4.40281476083,
			"0.015": 0.975036887241,
			"0.016": 0.0162541806648,
			"0.017": 0.0,
			"0.018": 0.0,
			"0.019": 0.0,
			"0.02": 0.0,
			"0.021": 0.0,
			"0.022": 0.0,
			"0.023": 0.0,
			"0.024": 0.0,
			"0.025": 0.0
		}
	}
}
