{
	 "smiles": "CCCC(N1N=C2C=CC=CC2=N1)C(=O)OCC", 
	 "Tm": 309.65, 
	 "num_atms": 35, 
	 "gaussian": { 
		 "optdone": 1, 
		 "sigma_profile": "yes", 
		 "theory": "DFT", 
		 "functional": "B3LYP", 
		 "basiset": "6-31G**", 
		 "properties": { 
			 "R2extent": 6183.5633, 
			 "electric_dipole_moment_norm": 1.53160834419, 
			 "electric_quadrupole_moment_norm": 7.48309304232, 
			 "total_energy": -820.321955415, 
			 "HOMO_LUMO_gap": 0.1787, 
			 "cosmo_polarized_energy": -10.82, 
			 "cosmo_cavitation_energy": 38.78, 
			 "cosmo_dispersion_energy": -26.62, 
			 "cosmo_repulsion_energy": 2.13, 
			 "cosmo_total_nonelectrostatic_energy": 14.29, 
			 "SMD_solvation_energy": 5.35 
		},
		"coords": [
			{
				"x": -0.4481142422,
				"y": 2.523684138,
				"z": 2.7838108071,
				"element": "C" 
			},
			{
				"x": -0.5159113035,
				"y": 2.293793099,
				"z": 1.2704993871,
				"element": "C" 
			},
			{
				"x": -0.3655634186,
				"y": 0.8095514695,
				"z": 0.9102226977,
				"element": "C" 
			},
			{
				"x": -0.4462335977,
				"y": 0.5341229677,
				"z": -0.6049245122,
				"element": "C" 
			},
			{
				"x": -0.5805152287,
				"y": -0.8963438245,
				"z": -0.8854998864,
				"element": "N" 
			},
			{
				"x": -0.0838331628,
				"y": -1.8301560148,
				"z": -0.0827725866,
				"element": "N" 
			},
			{
				"x": -0.3550214259,
				"y": -2.9734305627,
				"z": -0.7521109841,
				"element": "C" 
			},
			{
				"x": -0.0880692293,
				"y": -4.3210006263,
				"z": -0.4150512961,
				"element": "C" 
			},
			{
				"x": -0.4949348437,
				"y": -5.282003324,
				"z": -1.3145503449,
				"element": "C" 
			},
			{
				"x": -1.1598369331,
				"y": -4.9439343537,
				"z": -2.5325317433,
				"element": "C" 
			},
			{
				"x": -1.4318622174,
				"y": -3.6380786348,
				"z": -2.8774837007,
				"element": "C" 
			},
			{
				"x": -1.0187750586,
				"y": -2.6354492627,
				"z": -1.9689833649,
				"element": "C" 
			},
			{
				"x": -1.1449255241,
				"y": -1.2904934788,
				"z": -2.0249309433,
				"element": "N" 
			},
			{
				"x": 0.7464973365,
				"y": 1.1439660489,
				"z": -1.3537379336,
				"element": "C" 
			},
			{
				"x": 0.7734581188,
				"y": 2.309463305,
				"z": -1.6873461217,
				"element": "O" 
			},
			{
				"x": 1.7396930162,
				"y": 0.2633701584,
				"z": -1.5347533267,
				"element": "O" 
			},
			{
				"x": 2.9245095686,
				"y": 0.7478474852,
				"z": -2.2203173434,
				"element": "C" 
			},
			{
				"x": 2.7604852112,
				"y": 0.6508426237,
				"z": -3.7286776838,
				"element": "C" 
			},
			{
				"x": -1.2380153913,
				"y": 1.9736500297,
				"z": 3.3077365565,
				"element": "H" 
			},
			{
				"x": 0.5126629846,
				"y": 2.1918398421,
				"z": 3.1932709173,
				"element": "H" 
			},
			{
				"x": -0.5640070929,
				"y": 3.5846343811,
				"z": 3.0260641976,
				"element": "H" 
			},
			{
				"x": -1.474027514,
				"y": 2.6652606134,
				"z": 0.8839575349,
				"element": "H" 
			},
			{
				"x": 0.2589621045,
				"y": 2.882714969,
				"z": 0.7692231847,
				"element": "H" 
			},
			{
				"x": -1.1613203192,
				"y": 0.2288011194,
				"z": 1.3894713712,
				"element": "H" 
			},
			{
				"x": 0.5785859099,
				"y": 0.410723993,
				"z": 1.294904136,
				"element": "H" 
			},
			{
				"x": -1.3365814379,
				"y": 1.0054890223,
				"z": -1.0267161454,
				"element": "H" 
			},
			{
				"x": 0.4160360543,
				"y": -4.5747103266,
				"z": 0.511361779,
				"element": "H" 
			},
			{
				"x": -0.3093785138,
				"y": -6.3300934674,
				"z": -1.0985947757,
				"element": "H" 
			},
			{
				"x": -1.4570556268,
				"y": -5.7467171977,
				"z": -3.2009913842,
				"element": "H" 
			},
			{
				"x": -1.9381441052,
				"y": -3.379156487,
				"z": -3.8012485151,
				"element": "H" 
			},
			{
				"x": 3.7251997223,
				"y": 0.0994486316,
				"z": -1.8582930159,
				"element": "H" 
			},
			{
				"x": 3.1147870376,
				"y": 1.7763702144,
				"z": -1.9050361601,
				"element": "H" 
			},
			{
				"x": 2.5197066085,
				"y": -0.3728624141,
				"z": -4.0285752015,
				"element": "H" 
			},
			{
				"x": 3.6933724159,
				"y": 0.9452106799,
				"z": -4.2208485627,
				"element": "H" 
			},
			{
				"x": 1.9659700979,
				"y": 1.3169451837,
				"z": -4.0737470367,
				"element": "H" 
			}
		],
		 "valence_orbital": [ 
			{
				"type": "occ",
				"energy": -0.30482,
				"method": "rhf"
			},
			{
				"type": "occ",
				"energy": -0.29399,
				"method": "rhf"
			},
			{
				"type": "occ",
				"energy": -0.2829,
				"method": "rhf"
			},
			{
				"type": "occ",
				"energy": -0.247,
				"method": "rhf"
			},
			{
				"type": "occ",
				"energy": -0.22642,
				"method": "rhf"
			},
			{
				"type": "unocc",
				"energy": -0.04772,
				"method": "rhf"
			},
			{
				"type": "unocc",
				"energy": 4e-05,
				"method": "rhf"
			},
			{
				"type": "unocc",
				"energy": 0.02481,
				"method": "rhf"
			},
			{
				"type": "unocc",
				"energy": 0.03286,
				"method": "rhf"
			},
			{
				"type": "unocc",
				"energy": 0.09301,
				"method": "rhf"
			}
		],
		"cosmo_sigma_profile": { 
			"-0.025": 0.0,
			"-0.024": 0.0,
			"-0.023": 0.0,
			"-0.022": 0.0,
			"-0.021": 0.0,
			"-0.02": 0.0,
			"-0.019": 0.0,
			"-0.018": 0.0,
			"-0.017": 0.0,
			"-0.016": 0.0,
			"-0.015": 0.0,
			"-0.014": 0.0,
			"-0.013": 0.0,
			"-0.012": 0.0,
			"-0.011": 0.0,
			"-0.01": 0.0,
			"-0.009": 0.0425736863515,
			"-0.008": 1.23855332323,
			"-0.007": 4.80794379152,
			"-0.006": 12.653098207,
			"-0.005": 18.1949638065,
			"-0.004": 29.2079144149,
			"-0.003": 31.9222462003,
			"-0.002": 30.1434521645,
			"-0.001": 29.7322924672,
			"0.0": 28.1426779904,
			"0.001": 24.8841853528,
			"0.002": 19.2187563263,
			"0.003": 19.9210952661,
			"0.004": 16.4787340077,
			"0.005": 7.72958920825,
			"0.006": 4.81164324147,
			"0.007": 5.11955008664,
			"0.008": 3.32639216887,
			"0.009": 4.01885267867,
			"0.01": 4.7277017244,
			"0.011": 5.92312898077,
			"0.012": 2.82339992172,
			"0.013": 0.69295705957,
			"0.014": 0.335115162981,
			"0.015": 0.0,
			"0.016": 0.0,
			"0.017": 0.0,
			"0.018": 0.0,
			"0.019": 0.0,
			"0.02": 0.0,
			"0.021": 0.0,
			"0.022": 0.0,
			"0.023": 0.0,
			"0.024": 0.0,
			"0.025": 0.0
		}
	}
}
