{
	 "smiles": "FC1=C(CC#N)C(Cl)=CC=C1", 
	 "Tm": 315.15, 
	 "num_atms": 16, 
	 "gaussian": { 
		 "optdone": 1, 
		 "sigma_profile": "yes", 
		 "theory": "DFT", 
		 "functional": "B3LYP", 
		 "basiset": "6-31G**", 
		 "properties": { 
			 "R2extent": 3669.0518, 
			 "electric_dipole_moment_norm": 4.75047973262, 
			 "electric_quadrupole_moment_norm": 21.9036383969, 
			 "total_energy": -922.623151838, 
			 "HOMO_LUMO_gap": 0.22443, 
			 "cosmo_polarized_energy": -9.82, 
			 "cosmo_cavitation_energy": 23.55, 
			 "cosmo_dispersion_energy": -16.52, 
			 "cosmo_repulsion_energy": 1.31, 
			 "cosmo_total_nonelectrostatic_energy": 8.35, 
			 "SMD_solvation_energy": 5.67 
		},
		"coords": [
			{
				"x": 0.5907594783,
				"y": -1.378388375,
				"z": 0.5023013813,
				"element": "F" 
			},
			{
				"x": 0.0355452751,
				"y": -0.8270500945,
				"z": 1.6023623214,
				"element": "C" 
			},
			{
				"x": 0.2826804885,
				"y": 0.5258202154,
				"z": 1.8530913301,
				"element": "C" 
			},
			{
				"x": 1.1536319302,
				"y": 1.324416281,
				"z": 0.9017291305,
				"element": "C" 
			},
			{
				"x": 2.5444284421,
				"y": 1.4409670565,
				"z": 1.3619575578,
				"element": "C" 
			},
			{
				"x": 3.6442218318,
				"y": 1.5261426314,
				"z": 1.7216296838,
				"element": "N" 
			},
			{
				"x": -0.3129641,
				"y": 1.0647373896,
				"z": 3.0024377233,
				"element": "C" 
			},
			{
				"x": -0.057129172,
				"y": 2.7555687411,
				"z": 3.3990182205,
				"element": "Cl" 
			},
			{
				"x": -1.1131002093,
				"y": 0.2972013848,
				"z": 3.8489416352,
				"element": "C" 
			},
			{
				"x": -1.328212797,
				"y": -1.0481532752,
				"z": 3.5511092283,
				"element": "C" 
			},
			{
				"x": -0.7546029261,
				"y": -1.624269803,
				"z": 2.4188540522,
				"element": "C" 
			},
			{
				"x": 1.1594692661,
				"y": 0.8390811197,
				"z": -0.0780674704,
				"element": "H" 
			},
			{
				"x": 0.7492418334,
				"y": 2.333193488,
				"z": 0.7729825264,
				"element": "H" 
			},
			{
				"x": -1.5555241306,
				"y": 0.7524804991,
				"z": 4.727038828,
				"element": "H" 
			},
			{
				"x": -1.9482905683,
				"y": -1.6502149159,
				"z": 4.2074154445,
				"element": "H" 
			},
			{
				"x": -0.9042546424,
				"y": -2.6664323431,
				"z": 2.1612984073,
				"element": "H" 
			}
		],
		 "valence_orbital": [ 
			{
				"type": "occ",
				"energy": -0.3341,
				"method": "rhf"
			},
			{
				"type": "occ",
				"energy": -0.32523,
				"method": "rhf"
			},
			{
				"type": "occ",
				"energy": -0.3248,
				"method": "rhf"
			},
			{
				"type": "occ",
				"energy": -0.27505,
				"method": "rhf"
			},
			{
				"type": "occ",
				"energy": -0.26391,
				"method": "rhf"
			},
			{
				"type": "unocc",
				"energy": -0.03948,
				"method": "rhf"
			},
			{
				"type": "unocc",
				"energy": -0.02598,
				"method": "rhf"
			},
			{
				"type": "unocc",
				"energy": 0.00712,
				"method": "rhf"
			},
			{
				"type": "unocc",
				"energy": 0.03877,
				"method": "rhf"
			},
			{
				"type": "unocc",
				"energy": 0.0442,
				"method": "rhf"
			}
		],
		"cosmo_sigma_profile": { 
			"-0.025": 0.0,
			"-0.024": 0.0,
			"-0.023": 0.0,
			"-0.022": 0.0,
			"-0.021": 0.0,
			"-0.02": 0.0,
			"-0.019": 0.0,
			"-0.018": 0.0,
			"-0.017": 0.0,
			"-0.016": 0.0,
			"-0.015": 0.0,
			"-0.014": 0.0,
			"-0.013": 0.0,
			"-0.012": 0.0,
			"-0.011": 0.0,
			"-0.01": 0.189588368881,
			"-0.009": 2.71815353953,
			"-0.008": 7.09751098309,
			"-0.007": 10.7156633762,
			"-0.006": 11.8272903273,
			"-0.005": 9.28785606588,
			"-0.004": 8.79304002285,
			"-0.003": 8.91629156718,
			"-0.002": 9.93578873907,
			"-0.001": 15.4989385997,
			"0.0": 16.9389071454,
			"0.001": 19.2959291179,
			"0.002": 17.7644219831,
			"0.003": 18.1774236108,
			"0.004": 10.933590104,
			"0.005": 2.63017578964,
			"0.006": 2.73495501782,
			"0.007": 2.75204801395,
			"0.008": 3.23751327413,
			"0.009": 3.5963060436,
			"0.01": 2.97601121302,
			"0.011": 2.80758640817,
			"0.012": 2.44558000141,
			"0.013": 1.51603630262,
			"0.014": 0.0265256667003,
			"0.015": 0.0,
			"0.016": 0.0,
			"0.017": 0.0,
			"0.018": 0.0,
			"0.019": 0.0,
			"0.02": 0.0,
			"0.021": 0.0,
			"0.022": 0.0,
			"0.023": 0.0,
			"0.024": 0.0,
			"0.025": 0.0
		}
	}
}
