{
	 "smiles": "CC(C)(C)NC(=O)CCl", 
	 "Tm": 349.15, 
	 "num_atms": 21, 
	 "gaussian": { 
		 "optdone": 1, 
		 "sigma_profile": "yes", 
		 "theory": "DFT", 
		 "functional": "B3LYP", 
		 "basiset": "6-31G**", 
		 "properties": { 
			 "R2extent": 3341.3967, 
			 "electric_dipole_moment_norm": 5.70103660574, 
			 "electric_quadrupole_moment_norm": 22.734342173, 
			 "total_energy": -826.055730868, 
			 "HOMO_LUMO_gap": 0.26442, 
			 "cosmo_polarized_energy": -14.04, 
			 "cosmo_cavitation_energy": 24.63, 
			 "cosmo_dispersion_energy": -17.77, 
			 "cosmo_repulsion_energy": 1.47, 
			 "cosmo_total_nonelectrostatic_energy": 8.32, 
			 "SMD_solvation_energy": 4.62 
		},
		"coords": [
			{
				"x": -1.8399357567,
				"y": 2.0289924629,
				"z": 0.9670552238,
				"element": "C" 
			},
			{
				"x": -0.9471334209,
				"y": 0.8069312445,
				"z": 1.2556265146,
				"element": "C" 
			},
			{
				"x": -1.8311593204,
				"y": -0.3478742191,
				"z": 1.7703346364,
				"element": "C" 
			},
			{
				"x": -0.2265250024,
				"y": 0.4126427417,
				"z": -0.0480777984,
				"element": "C" 
			},
			{
				"x": 0.0060436606,
				"y": 1.2623289253,
				"z": 2.2974576122,
				"element": "N" 
			},
			{
				"x": 1.0668696779,
				"y": 0.6816831253,
				"z": 2.9522254392,
				"element": "C" 
			},
			{
				"x": 1.5724180118,
				"y": 1.2251491021,
				"z": 3.9201494187,
				"element": "O" 
			},
			{
				"x": 1.627166846,
				"y": -0.6216212395,
				"z": 2.3642433855,
				"element": "C" 
			},
			{
				"x": 2.7331575726,
				"y": -1.4595212678,
				"z": 3.498655352,
				"element": "Cl" 
			},
			{
				"x": -2.3705488831,
				"y": 2.3495410351,
				"z": 1.8705776816,
				"element": "H" 
			},
			{
				"x": -2.588955176,
				"y": 1.7820440495,
				"z": 0.2100384255,
				"element": "H" 
			},
			{
				"x": -1.2435581253,
				"y": 2.8694195333,
				"z": 0.5978141826,
				"element": "H" 
			},
			{
				"x": -1.248938,
				"y": -1.245659457,
				"z": 1.9964983061,
				"element": "H" 
			},
			{
				"x": -2.3570513922,
				"y": -0.0509928106,
				"z": 2.6825631528,
				"element": "H" 
			},
			{
				"x": -2.5771983778,
				"y": -0.6218149582,
				"z": 1.0169875074,
				"element": "H" 
			},
			{
				"x": 0.4435198986,
				"y": 1.213595818,
				"z": -0.3742764876,
				"element": "H" 
			},
			{
				"x": -0.9633333582,
				"y": 0.2389434403,
				"z": -0.8385987843,
				"element": "H" 
			},
			{
				"x": 0.3566140499,
				"y": -0.5055129106,
				"z": 0.053260074,
				"element": "H" 
			},
			{
				"x": -0.2545097903,
				"y": 2.1169391532,
				"z": 2.774828282,
				"element": "H" 
			},
			{
				"x": 0.839455059,
				"y": -1.3267966802,
				"z": 2.1034002332,
				"element": "H" 
			},
			{
				"x": 2.200201827,
				"y": -0.3924170882,
				"z": 1.4632376429,
				"element": "H" 
			}
		],
		 "valence_orbital": [ 
			{
				"type": "occ",
				"energy": -0.35181,
				"method": "rhf"
			},
			{
				"type": "occ",
				"energy": -0.29435,
				"method": "rhf"
			},
			{
				"type": "occ",
				"energy": -0.29238,
				"method": "rhf"
			},
			{
				"type": "occ",
				"energy": -0.25824,
				"method": "rhf"
			},
			{
				"type": "occ",
				"energy": -0.25238,
				"method": "rhf"
			},
			{
				"type": "unocc",
				"energy": 0.01204,
				"method": "rhf"
			},
			{
				"type": "unocc",
				"energy": 0.02954,
				"method": "rhf"
			},
			{
				"type": "unocc",
				"energy": 0.06486,
				"method": "rhf"
			},
			{
				"type": "unocc",
				"energy": 0.08453,
				"method": "rhf"
			},
			{
				"type": "unocc",
				"energy": 0.10744,
				"method": "rhf"
			}
		],
		"cosmo_sigma_profile": { 
			"-0.025": 0.0,
			"-0.024": 0.0,
			"-0.023": 0.0,
			"-0.022": 0.0,
			"-0.021": 0.0,
			"-0.02": 0.0,
			"-0.019": 0.0,
			"-0.018": 0.0,
			"-0.017": 0.0,
			"-0.016": 0.0,
			"-0.015": 0.0,
			"-0.014": 0.0,
			"-0.013": 0.0552063375771,
			"-0.012": 0.687798738274,
			"-0.011": 1.03019268675,
			"-0.01": 0.712871067416,
			"-0.009": 3.06447862499,
			"-0.008": 5.99003060774,
			"-0.007": 6.52881973263,
			"-0.006": 6.26263541228,
			"-0.005": 6.15560699952,
			"-0.004": 17.5815172201,
			"-0.003": 21.0970785424,
			"-0.002": 17.5832060815,
			"-0.001": 18.9153561745,
			"0.0": 23.368780274,
			"0.001": 10.8464143597,
			"0.002": 4.61133538962,
			"0.003": 5.97750253363,
			"0.004": 5.39414035303,
			"0.005": 6.5851741762,
			"0.006": 8.11786149953,
			"0.007": 3.24078002931,
			"0.008": 2.2710700476,
			"0.009": 1.54600763396,
			"0.01": 1.53082745583,
			"0.011": 2.06271274718,
			"0.012": 2.33625832593,
			"0.013": 5.60489949867,
			"0.014": 4.0233560819,
			"0.015": 0.943044673241,
			"0.016": 0.0,
			"0.017": 0.0,
			"0.018": 0.0,
			"0.019": 0.0,
			"0.02": 0.0,
			"0.021": 0.0,
			"0.022": 0.0,
			"0.023": 0.0,
			"0.024": 0.0,
			"0.025": 0.0
		}
	}
}
