{
	 "smiles": "COC1=CC2=C(NC=C2C2CCNCC2)C=C1", 
	 "Tm": 443.15, 
	 "num_atms": 35, 
	 "gaussian": { 
		 "optdone": 1, 
		 "sigma_profile": "yes", 
		 "theory": "DFT", 
		 "functional": "B3LYP", 
		 "basiset": "6-31G**", 
		 "properties": { 
			 "R2extent": 4843.2007, 
			 "electric_dipole_moment_norm": 2.37983778439, 
			 "electric_quadrupole_moment_norm": 13.8497978032, 
			 "total_energy": -729.058762264, 
			 "HOMO_LUMO_gap": 0.18698, 
			 "cosmo_polarized_energy": -12.72, 
			 "cosmo_cavitation_energy": 35.69, 
			 "cosmo_dispersion_energy": -25.76, 
			 "cosmo_repulsion_energy": 2.01, 
			 "cosmo_total_nonelectrostatic_energy": 11.95, 
			 "SMD_solvation_energy": 3.72 
		},
		"coords": [
			{
				"x": 1.7967504835,
				"y": -1.3401765996,
				"z": -3.9666947645,
				"element": "C" 
			},
			{
				"x": 1.9870366945,
				"y": -2.4012952835,
				"z": -3.0503471908,
				"element": "O" 
			},
			{
				"x": 1.6129559929,
				"y": -2.1975489515,
				"z": -1.745271994,
				"element": "C" 
			},
			{
				"x": 1.0587776263,
				"y": -1.0173657795,
				"z": -1.2604962167,
				"element": "C" 
			},
			{
				"x": 0.7168711033,
				"y": -0.9377820465,
				"z": 0.1079977456,
				"element": "C" 
			},
			{
				"x": 0.9497939916,
				"y": -2.0630986161,
				"z": 0.9416507429,
				"element": "C" 
			},
			{
				"x": 0.5338377614,
				"y": -1.7293423889,
				"z": 2.2159503872,
				"element": "N" 
			},
			{
				"x": 0.0508160713,
				"y": -0.4365407645,
				"z": 2.203714772,
				"element": "C" 
			},
			{
				"x": 0.1386943941,
				"y": 0.0962188639,
				"z": 0.9390408971,
				"element": "C" 
			},
			{
				"x": -0.2957642391,
				"y": 1.4865020759,
				"z": 0.5519614603,
				"element": "C" 
			},
			{
				"x": -1.4459215461,
				"y": 1.4947453949,
				"z": -0.4824192488,
				"element": "C" 
			},
			{
				"x": -1.8378496528,
				"y": 2.9259027324,
				"z": -0.8635149912,
				"element": "C" 
			},
			{
				"x": -0.6662536362,
				"y": 3.6387213572,
				"z": -1.3750266947,
				"element": "N" 
			},
			{
				"x": 0.380317539,
				"y": 3.7596143356,
				"z": -0.3588998821,
				"element": "C" 
			},
			{
				"x": 0.8716004441,
				"y": 2.3658238954,
				"z": 0.0451196469,
				"element": "C" 
			},
			{
				"x": 1.5077788478,
				"y": -3.2496064836,
				"z": 0.4505649786,
				"element": "C" 
			},
			{
				"x": 1.8354596761,
				"y": -3.3061182246,
				"z": -0.893418735,
				"element": "C" 
			},
			{
				"x": 2.3717797949,
				"y": -0.448038311,
				"z": -3.6832180533,
				"element": "H" 
			},
			{
				"x": 0.7375008199,
				"y": -1.0626302411,
				"z": -4.0554792932,
				"element": "H" 
			},
			{
				"x": 2.1534026676,
				"y": -1.7036574919,
				"z": -4.932299657,
				"element": "H" 
			},
			{
				"x": 0.8896271497,
				"y": -0.171218744,
				"z": -1.9139269732,
				"element": "H" 
			},
			{
				"x": 0.5760305778,
				"y": -2.3302356293,
				"z": 3.0218458142,
				"element": "H" 
			},
			{
				"x": -0.3265315406,
				"y": 0.0181233416,
				"z": 3.1095954332,
				"element": "H" 
			},
			{
				"x": -0.6843216599,
				"y": 1.9686365979,
				"z": 1.4626326649,
				"element": "H" 
			},
			{
				"x": -2.313080725,
				"y": 0.9628916383,
				"z": -0.0743677026,
				"element": "H" 
			},
			{
				"x": -1.1353151324,
				"y": 0.9609149261,
				"z": -1.3873447345,
				"element": "H" 
			},
			{
				"x": -2.6078601324,
				"y": 2.9117345824,
				"z": -1.6433730938,
				"element": "H" 
			},
			{
				"x": -2.2821711185,
				"y": 3.4225582427,
				"z": 0.0232997064,
				"element": "H" 
			},
			{
				"x": -0.9391858037,
				"y": 4.5618988021,
				"z": -1.700435682,
				"element": "H" 
			},
			{
				"x": 0.0297131963,
				"y": 4.2917142481,
				"z": 0.5491041392,
				"element": "H" 
			},
			{
				"x": 1.207580223,
				"y": 4.3456152752,
				"z": -0.7754790765,
				"element": "H" 
			},
			{
				"x": 1.637413069,
				"y": 2.4480068239,
				"z": 0.8249409215,
				"element": "H" 
			},
			{
				"x": 1.3433120283,
				"y": 1.8923987829,
				"z": -0.8230408013,
				"element": "H" 
			},
			{
				"x": 1.6811722746,
				"y": -4.1041611078,
				"z": 1.0989037163,
				"element": "H" 
			},
			{
				"x": 2.2704327596,
				"y": -4.2002052535,
				"z": -1.3271682411,
				"element": "H" 
			}
		],
		 "valence_orbital": [ 
			{
				"type": "occ",
				"energy": -0.28519,
				"method": "rhf"
			},
			{
				"type": "occ",
				"energy": -0.25983,
				"method": "rhf"
			},
			{
				"type": "occ",
				"energy": -0.21506,
				"method": "rhf"
			},
			{
				"type": "occ",
				"energy": -0.19534,
				"method": "rhf"
			},
			{
				"type": "occ",
				"energy": -0.18768,
				"method": "rhf"
			},
			{
				"type": "unocc",
				"energy": -0.0007,
				"method": "rhf"
			},
			{
				"type": "unocc",
				"energy": 0.04607,
				"method": "rhf"
			},
			{
				"type": "unocc",
				"energy": 0.07617,
				"method": "rhf"
			},
			{
				"type": "unocc",
				"energy": 0.08314,
				"method": "rhf"
			},
			{
				"type": "unocc",
				"energy": 0.08828,
				"method": "rhf"
			}
		],
		"cosmo_sigma_profile": { 
			"-0.025": 0.0,
			"-0.024": 0.0,
			"-0.023": 0.0,
			"-0.022": 0.0,
			"-0.021": 0.0,
			"-0.02": 0.0,
			"-0.019": 0.0,
			"-0.018": 0.0,
			"-0.017": 0.0,
			"-0.016": 0.0550308321085,
			"-0.015": 1.25352783268,
			"-0.014": 1.30926268619,
			"-0.013": 1.62289012148,
			"-0.012": 0.968487332182,
			"-0.011": 0.946339684753,
			"-0.01": 1.6944402975,
			"-0.009": 3.0565910357,
			"-0.008": 2.30432395368,
			"-0.007": 5.49109472358,
			"-0.006": 6.4135389979,
			"-0.005": 13.1809168236,
			"-0.004": 19.0155814198,
			"-0.003": 24.6415219943,
			"-0.002": 26.8565703559,
			"-0.001": 34.0519789681,
			"0.0": 30.0172756839,
			"0.001": 16.5996426828,
			"0.002": 10.9842287931,
			"0.003": 9.89111058824,
			"0.004": 11.7327142175,
			"0.005": 14.8866456657,
			"0.006": 19.1547341909,
			"0.007": 10.8438892553,
			"0.008": 2.332405283,
			"0.009": 1.87343721519,
			"0.01": 1.87699718929,
			"0.011": 2.18171165278,
			"0.012": 1.63913195231,
			"0.013": 0.425380861338,
			"0.014": 0.31974570344,
			"0.015": 0.703106641638,
			"0.016": 0.052304376146,
			"0.017": 0.533704135877,
			"0.018": 0.732927479015,
			"0.019": 0.0,
			"0.02": 0.0,
			"0.021": 0.0,
			"0.022": 0.0,
			"0.023": 0.0,
			"0.024": 0.0,
			"0.025": 0.0
		}
	}
}
