{
	 "smiles": "OC(=O)C1=CC2=C(OC1=O)C(Br)=CC(Br)=C2", 
	 "Tm": 496.15, 
	 "num_atms": 20, 
	 "gaussian": { 
		 "optdone": 1, 
		 "sigma_profile": "yes", 
		 "theory": "DFT", 
		 "functional": "B3LYP", 
		 "basiset": "6-31G**", 
		 "properties": { 
			 "R2extent": 8419.1261, 
			 "electric_dipole_moment_norm": 5.07954713533, 
			 "electric_quadrupole_moment_norm": 11.7558221371, 
			 "total_energy": -5827.19199708, 
			 "HOMO_LUMO_gap": 0.15107, 
			 "cosmo_polarized_energy": -14.84, 
			 "cosmo_cavitation_energy": 30.53, 
			 "cosmo_dispersion_energy": -23.48, 
			 "cosmo_repulsion_energy": 1.8, 
			 "cosmo_total_nonelectrostatic_energy": 8.85, 
			 "SMD_solvation_energy": 5.15 
		},
		"coords": [
			{
				"x": 0.4507023018,
				"y": 1.6311712778,
				"z": 3.6841300566,
				"element": "O" 
			},
			{
				"x": 0.2742752262,
				"y": 2.1697186452,
				"z": 2.4759348039,
				"element": "C" 
			},
			{
				"x": 0.0291652275,
				"y": 3.3453018159,
				"z": 2.3122894693,
				"element": "O" 
			},
			{
				"x": 0.3942433068,
				"y": 1.2335021635,
				"z": 1.2942003627,
				"element": "C" 
			},
			{
				"x": 0.22334896,
				"y": 1.7320370226,
				"z": 0.0421298612,
				"element": "C" 
			},
			{
				"x": 0.3252883355,
				"y": 0.8927826243,
				"z": -1.1174490209,
				"element": "C" 
			},
			{
				"x": 0.6100002074,
				"y": -0.4706463343,
				"z": -0.903979324,
				"element": "C" 
			},
			{
				"x": 0.7803161082,
				"y": -0.966182697,
				"z": 0.3509266993,
				"element": "O" 
			},
			{
				"x": 0.6885618639,
				"y": -0.1844430131,
				"z": 1.4821379281,
				"element": "C" 
			},
			{
				"x": 0.8600774431,
				"y": -0.7377346498,
				"z": 2.556046893,
				"element": "O" 
			},
			{
				"x": 0.7236017597,
				"y": -1.3471023256,
				"z": -1.9913831938,
				"element": "C" 
			},
			{
				"x": 1.1062457153,
				"y": -3.1800784992,
				"z": -1.7116228961,
				"element": "Br" 
			},
			{
				"x": 0.5536084432,
				"y": -0.8634851213,
				"z": -3.2841751026,
				"element": "C" 
			},
			{
				"x": 0.2704827585,
				"y": 0.4930884863,
				"z": -3.493750041,
				"element": "C" 
			},
			{
				"x": 0.0436895716,
				"y": 1.1229754148,
				"z": -5.2750719937,
				"element": "Br" 
			},
			{
				"x": 0.1550599645,
				"y": 1.3718575511,
				"z": -2.4299841252,
				"element": "C" 
			},
			{
				"x": 0.6382948588,
				"y": 0.6677792351,
				"z": 3.5893773622,
				"element": "H" 
			},
			{
				"x": 0.0055646467,
				"y": 2.7914902854,
				"z": -0.062483892,
				"element": "H" 
			},
			{
				"x": 0.641144582,
				"y": -1.5395469932,
				"z": -4.1252465972,
				"element": "H" 
			},
			{
				"x": -0.0639712805,
				"y": 2.4205151114,
				"z": -2.5947272499,
				"element": "H" 
			}
		],
		 "valence_orbital": [ 
			{
				"type": "occ",
				"energy": -0.31288,
				"method": "rhf"
			},
			{
				"type": "occ",
				"energy": -0.30598,
				"method": "rhf"
			},
			{
				"type": "occ",
				"energy": -0.2833,
				"method": "rhf"
			},
			{
				"type": "occ",
				"energy": -0.27851,
				"method": "rhf"
			},
			{
				"type": "occ",
				"energy": -0.26636,
				"method": "rhf"
			},
			{
				"type": "unocc",
				"energy": -0.11529,
				"method": "rhf"
			},
			{
				"type": "unocc",
				"energy": -0.0567,
				"method": "rhf"
			},
			{
				"type": "unocc",
				"energy": -0.03961,
				"method": "rhf"
			},
			{
				"type": "unocc",
				"energy": -0.03928,
				"method": "rhf"
			},
			{
				"type": "unocc",
				"energy": -0.00416,
				"method": "rhf"
			}
		],
		"cosmo_sigma_profile": { 
			"-0.025": 0.0,
			"-0.024": 0.0,
			"-0.023": 0.0,
			"-0.022": 0.0,
			"-0.021": 0.0,
			"-0.02": 0.0,
			"-0.019": 0.0,
			"-0.018": 0.0,
			"-0.017": 0.0,
			"-0.016": 0.0,
			"-0.015": 0.0,
			"-0.014": 0.0,
			"-0.013": 0.0,
			"-0.012": 0.151621524972,
			"-0.011": 1.49733321606,
			"-0.01": 2.80111231607,
			"-0.009": 5.60960689272,
			"-0.008": 7.27287182334,
			"-0.007": 10.0176650106,
			"-0.006": 10.7726647564,
			"-0.005": 14.5825686881,
			"-0.004": 14.7519961151,
			"-0.003": 21.5196029868,
			"-0.002": 17.8606124383,
			"-0.001": 23.2760333997,
			"0.0": 15.8716650869,
			"0.001": 14.5374547635,
			"0.002": 15.095458782,
			"0.003": 22.0608002679,
			"0.004": 12.0656003237,
			"0.005": 5.40606644624,
			"0.006": 5.96953987398,
			"0.007": 4.59501411082,
			"0.008": 4.4414286742,
			"0.009": 5.89776786042,
			"0.01": 6.92773940598,
			"0.011": 6.47161740906,
			"0.012": 3.52574097364,
			"0.013": 1.22206875329,
			"0.014": 0.0,
			"0.015": 0.0,
			"0.016": 0.0,
			"0.017": 0.0,
			"0.018": 0.0,
			"0.019": 0.0,
			"0.02": 0.0,
			"0.021": 0.0,
			"0.022": 0.0,
			"0.023": 0.0,
			"0.024": 0.0,
			"0.025": 0.0
		}
	}
}
