{
	 "smiles": "NS(=O)(=O)C1=C(N=CS1)C(O)=O", 
	 "Tm": 479.15, 
	 "num_atms": 16, 
	 "gaussian": { 
		 "optdone": 1, 
		 "sigma_profile": "yes", 
		 "theory": "DFT", 
		 "functional": "B3LYP", 
		 "basiset": "6-31G**", 
		 "properties": { 
			 "R2extent": 2419.727, 
			 "electric_dipole_moment_norm": 7.73682720564, 
			 "electric_quadrupole_moment_norm": 8.62111872091, 
			 "total_energy": -1361.52005847, 
			 "HOMO_LUMO_gap": 0.1944, 
			 "cosmo_polarized_energy": -25.62, 
			 "cosmo_cavitation_energy": 24.25, 
			 "cosmo_dispersion_energy": -19.1, 
			 "cosmo_repulsion_energy": 1.43, 
			 "cosmo_total_nonelectrostatic_energy": 6.58, 
			 "SMD_solvation_energy": 4.31 
		},
		"coords": [
			{
				"x": 1.779982978,
				"y": 1.8859440275,
				"z": -1.8781964054,
				"element": "N" 
			},
			{
				"x": 1.2963089022,
				"y": 0.4224564627,
				"z": -1.1680299188,
				"element": "S" 
			},
			{
				"x": 2.3749347403,
				"y": -0.0094599685,
				"z": -0.2879025022,
				"element": "O" 
			},
			{
				"x": 0.7318264559,
				"y": -0.4066184805,
				"z": -2.2256767904,
				"element": "O" 
			},
			{
				"x": -0.0518544697,
				"y": 1.041575913,
				"z": -0.1517361117,
				"element": "C" 
			},
			{
				"x": -0.8812306133,
				"y": 0.3438956123,
				"z": 0.6949599487,
				"element": "C" 
			},
			{
				"x": -1.8289568677,
				"y": 1.1033920957,
				"z": 1.3424105817,
				"element": "N" 
			},
			{
				"x": -1.7344591538,
				"y": 2.3584219339,
				"z": 1.0040938004,
				"element": "C" 
			},
			{
				"x": -0.4764731807,
				"y": 2.7238148291,
				"z": -0.1373600372,
				"element": "S" 
			},
			{
				"x": -0.8513190868,
				"y": -1.1283399606,
				"z": 0.9722336664,
				"element": "C" 
			},
			{
				"x": -1.7881326977,
				"y": -1.5287858843,
				"z": 1.8504926175,
				"element": "O" 
			},
			{
				"x": -0.0615835143,
				"y": -1.8823827164,
				"z": 0.4586412365,
				"element": "O" 
			},
			{
				"x": 1.668432048,
				"y": 1.8242765474,
				"z": -2.8871125348,
				"element": "H" 
			},
			{
				"x": 2.7433271736,
				"y": 2.0841314033,
				"z": -1.6196420723,
				"element": "H" 
			},
			{
				"x": -2.3799977444,
				"y": 3.1386290247,
				"z": 1.3909893061,
				"element": "H" 
			},
			{
				"x": -2.3011049697,
				"y": -0.7451508394,
				"z": 2.1242352154,
				"element": "H" 
			}
		],
		 "valence_orbital": [ 
			{
				"type": "occ",
				"energy": -0.31993,
				"method": "rhf"
			},
			{
				"type": "occ",
				"energy": -0.31699,
				"method": "rhf"
			},
			{
				"type": "occ",
				"energy": -0.3116,
				"method": "rhf"
			},
			{
				"type": "occ",
				"energy": -0.28489,
				"method": "rhf"
			},
			{
				"type": "occ",
				"energy": -0.27931,
				"method": "rhf"
			},
			{
				"type": "unocc",
				"energy": -0.08491,
				"method": "rhf"
			},
			{
				"type": "unocc",
				"energy": -0.03711,
				"method": "rhf"
			},
			{
				"type": "unocc",
				"energy": -0.02353,
				"method": "rhf"
			},
			{
				"type": "unocc",
				"energy": 0.02583,
				"method": "rhf"
			},
			{
				"type": "unocc",
				"energy": 0.03933,
				"method": "rhf"
			}
		],
		"cosmo_sigma_profile": { 
			"-0.025": 0.0,
			"-0.024": 0.0,
			"-0.023": 0.0,
			"-0.022": 0.0,
			"-0.021": 0.0,
			"-0.02": 0.0,
			"-0.019": 0.0,
			"-0.018": 0.0,
			"-0.017": 0.0,
			"-0.016": 0.715803622115,
			"-0.015": 2.54867079088,
			"-0.014": 3.44019677671,
			"-0.013": 3.58455288825,
			"-0.012": 5.11871520975,
			"-0.011": 5.47506583653,
			"-0.01": 4.34206065882,
			"-0.009": 3.6318103637,
			"-0.008": 5.06281125551,
			"-0.007": 6.84728158494,
			"-0.006": 6.85512577979,
			"-0.005": 7.57056825056,
			"-0.004": 10.4945816546,
			"-0.003": 13.014632645,
			"-0.002": 10.4698758725,
			"-0.001": 10.6432560364,
			"0.0": 8.93185269198,
			"0.001": 7.58176361431,
			"0.002": 5.23910201957,
			"0.003": 5.22560530388,
			"0.004": 6.47818211554,
			"0.005": 5.78179101658,
			"0.006": 5.46974943508,
			"0.007": 4.42015620192,
			"0.008": 6.295590484,
			"0.009": 13.2015407633,
			"0.01": 14.3978836105,
			"0.011": 10.7601214531,
			"0.012": 3.25169916198,
			"0.013": 0.0336122122164,
			"0.014": 0.0,
			"0.015": 0.0,
			"0.016": 0.0,
			"0.017": 0.0,
			"0.018": 0.0,
			"0.019": 0.0,
			"0.02": 0.0,
			"0.021": 0.0,
			"0.022": 0.0,
			"0.023": 0.0,
			"0.024": 0.0,
			"0.025": 0.0
		}
	}
}
