{
	 "smiles": "C(=CC1=CC=C(C=C1)N=CC1=CC=CC=C1)C1=CC=C(C=C1)N=CC1=CC=CC=C1", 
	 "Tm": 377.15, 
	 "num_atms": 52, 
	 "gaussian": { 
		 "optdone": 1, 
		 "sigma_profile": "yes", 
		 "theory": "DFT", 
		 "functional": "B3LYP", 
		 "basiset": "6-31G**", 
		 "properties": { 
			 "R2extent": 24503.5546, 
			 "electric_dipole_moment_norm": 2.83626630097, 
			 "electric_quadrupole_moment_norm": 15.5757487319, 
			 "total_energy": -1189.71885336, 
			 "HOMO_LUMO_gap": 0.12527, 
			 "cosmo_polarized_energy": -14.24, 
			 "cosmo_cavitation_energy": 58.16, 
			 "cosmo_dispersion_energy": -40.87, 
			 "cosmo_repulsion_energy": 3.05, 
			 "cosmo_total_nonelectrostatic_energy": 20.34, 
			 "SMD_solvation_energy": 7.29 
		},
		"coords": [
			{
				"x": 2.2460869243,
				"y": -4.4038469179,
				"z": 1.985538127,
				"element": "C" 
			},
			{
				"x": 1.0011658647,
				"y": -4.3133625089,
				"z": 2.5050469916,
				"element": "C" 
			},
			{
				"x": -0.0005836408,
				"y": -3.2373105858,
				"z": 2.4526938924,
				"element": "C" 
			},
			{
				"x": 0.3292252106,
				"y": -1.8690327109,
				"z": 2.3980394094,
				"element": "C" 
			},
			{
				"x": -0.6555941256,
				"y": -0.8888101384,
				"z": 2.4049060213,
				"element": "C" 
			},
			{
				"x": -2.0187223349,
				"y": -1.2379514645,
				"z": 2.4733378723,
				"element": "C" 
			},
			{
				"x": -2.3536125792,
				"y": -2.5981129791,
				"z": 2.5824250441,
				"element": "C" 
			},
			{
				"x": -1.3645935904,
				"y": -3.572705825,
				"z": 2.5664995959,
				"element": "C" 
			},
			{
				"x": -3.0633610314,
				"y": -0.3028742679,
				"z": 2.5028994145,
				"element": "N" 
			},
			{
				"x": -2.9845315437,
				"y": 0.7808504274,
				"z": 1.8221157672,
				"element": "C" 
			},
			{
				"x": -4.019398627,
				"y": 1.8199620596,
				"z": 1.8671778536,
				"element": "C" 
			},
			{
				"x": -5.1548251902,
				"y": 1.6896315525,
				"z": 2.6870596146,
				"element": "C" 
			},
			{
				"x": -6.1200341598,
				"y": 2.6901047289,
				"z": 2.7089858622,
				"element": "C" 
			},
			{
				"x": -5.9680365398,
				"y": 3.8348634402,
				"z": 1.9172330944,
				"element": "C" 
			},
			{
				"x": -4.8442432258,
				"y": 3.9735738315,
				"z": 1.1008755852,
				"element": "C" 
			},
			{
				"x": -3.8758231005,
				"y": 2.9707545615,
				"z": 1.0761928621,
				"element": "C" 
			},
			{
				"x": 2.9830299316,
				"y": -3.5260926644,
				"z": 1.0632515463,
				"element": "C" 
			},
			{
				"x": 2.3642923239,
				"y": -2.7631408341,
				"z": 0.0537751372,
				"element": "C" 
			},
			{
				"x": 3.1115499541,
				"y": -1.9907298548,
				"z": -0.8269694146,
				"element": "C" 
			},
			{
				"x": 4.5170673042,
				"y": -1.9537288227,
				"z": -0.7382152142,
				"element": "C" 
			},
			{
				"x": 5.1448477342,
				"y": -2.7538835522,
				"z": 0.2311921205,
				"element": "C" 
			},
			{
				"x": 4.3913371728,
				"y": -3.5168917616,
				"z": 1.1134108778,
				"element": "C" 
			},
			{
				"x": 5.3345899132,
				"y": -1.2122225733,
				"z": -1.6033034922,
				"element": "N" 
			},
			{
				"x": 4.9524673577,
				"y": -0.0672442573,
				"z": -2.0359591072,
				"element": "C" 
			},
			{
				"x": 5.7398177084,
				"y": 0.7200042978,
				"z": -2.9914851631,
				"element": "C" 
			},
			{
				"x": 5.2678046775,
				"y": 1.9759447392,
				"z": -3.4043038866,
				"element": "C" 
			},
			{
				"x": 5.9961396285,
				"y": 2.7439537253,
				"z": -4.3119334275,
				"element": "C" 
			},
			{
				"x": 7.2060666585,
				"y": 2.2633973618,
				"z": -4.8156510875,
				"element": "C" 
			},
			{
				"x": 7.6850795625,
				"y": 1.0121832685,
				"z": -4.4088890342,
				"element": "C" 
			},
			{
				"x": 6.9596328491,
				"y": 0.2440236565,
				"z": -3.5051630203,
				"element": "C" 
			},
			{
				"x": 2.8081771162,
				"y": -5.2899948555,
				"z": 2.2800547914,
				"element": "H" 
			},
			{
				"x": 0.6763762738,
				"y": -5.177801297,
				"z": 3.0840123329,
				"element": "H" 
			},
			{
				"x": 1.3724531113,
				"y": -1.5735038383,
				"z": 2.3738567234,
				"element": "H" 
			},
			{
				"x": -0.3696921551,
				"y": 0.1589415778,
				"z": 2.4046553811,
				"element": "H" 
			},
			{
				"x": -3.4015786869,
				"y": -2.8660472837,
				"z": 2.6716105321,
				"element": "H" 
			},
			{
				"x": -1.6457837119,
				"y": -4.6197787346,
				"z": 2.6468682097,
				"element": "H" 
			},
			{
				"x": -2.1361490527,
				"y": 0.9845885848,
				"z": 1.1512317953,
				"element": "H" 
			},
			{
				"x": -5.2544317259,
				"y": 0.7955494657,
				"z": 3.2934383492,
				"element": "H" 
			},
			{
				"x": -6.9949350735,
				"y": 2.5832092413,
				"z": 3.3439399459,
				"element": "H" 
			},
			{
				"x": -6.7241292136,
				"y": 4.6145416617,
				"z": 1.9383570931,
				"element": "H" 
			},
			{
				"x": -4.7231347806,
				"y": 4.8601059182,
				"z": 0.4852409602,
				"element": "H" 
			},
			{
				"x": -2.9995363645,
				"y": 3.0756408826,
				"z": 0.440709013,
				"element": "H" 
			},
			{
				"x": 1.2856012524,
				"y": -2.7972358542,
				"z": -0.0535410836,
				"element": "H" 
			},
			{
				"x": 2.6098021563,
				"y": -1.4464774469,
				"z": -1.6216740386,
				"element": "H" 
			},
			{
				"x": 6.229234565,
				"y": -2.7539956564,
				"z": 0.2768287444,
				"element": "H" 
			},
			{
				"x": 4.8969498325,
				"y": -4.1249448692,
				"z": 1.8594121695,
				"element": "H" 
			},
			{
				"x": 4.012364967,
				"y": 0.3961148569,
				"z": -1.7000453804,
				"element": "H" 
			},
			{
				"x": 4.3251880247,
				"y": 2.3479308822,
				"z": -3.0095711868,
				"element": "H" 
			},
			{
				"x": 5.6216047209,
				"y": 3.7141490305,
				"z": -4.625072899,
				"element": "H" 
			},
			{
				"x": 7.7756281889,
				"y": 2.8596839182,
				"z": -5.5228021997,
				"element": "H" 
			},
			{
				"x": 8.6267655408,
				"y": 0.639193902,
				"z": -4.8015078638,
				"element": "H" 
			},
			{
				"x": 7.3138839281,
				"y": -0.7278760174,
				"z": -3.1781852317,
				"element": "H" 
			}
		],
		 "valence_orbital": [ 
			{
				"type": "occ",
				"energy": -0.25054,
				"method": "rhf"
			},
			{
				"type": "occ",
				"energy": -0.24843,
				"method": "rhf"
			},
			{
				"type": "occ",
				"energy": -0.24759,
				"method": "rhf"
			},
			{
				"type": "occ",
				"energy": -0.2236,
				"method": "rhf"
			},
			{
				"type": "occ",
				"energy": -0.19424,
				"method": "rhf"
			},
			{
				"type": "unocc",
				"energy": -0.06897,
				"method": "rhf"
			},
			{
				"type": "unocc",
				"energy": -0.05719,
				"method": "rhf"
			},
			{
				"type": "unocc",
				"energy": -0.02546,
				"method": "rhf"
			},
			{
				"type": "unocc",
				"energy": -0.00586,
				"method": "rhf"
			},
			{
				"type": "unocc",
				"energy": -0.0058,
				"method": "rhf"
			}
		],
		"cosmo_sigma_profile": { 
			"-0.025": 0.0,
			"-0.024": 0.0,
			"-0.023": 0.0,
			"-0.022": 0.0,
			"-0.021": 0.0,
			"-0.02": 0.0,
			"-0.019": 0.0,
			"-0.018": 0.0,
			"-0.017": 0.0,
			"-0.016": 0.0,
			"-0.015": 0.0,
			"-0.014": 0.0,
			"-0.013": 0.0,
			"-0.012": 0.0,
			"-0.011": 0.0,
			"-0.01": 0.0,
			"-0.009": 0.0,
			"-0.008": 0.272685472087,
			"-0.007": 6.06738417613,
			"-0.006": 30.1092680364,
			"-0.005": 42.2716069304,
			"-0.004": 43.4181033414,
			"-0.003": 34.5385609077,
			"-0.002": 29.5591047298,
			"-0.001": 26.9905212603,
			"0.0": 28.1540980419,
			"0.001": 32.2733983678,
			"0.002": 37.3417893494,
			"0.003": 47.7226581767,
			"0.004": 51.9132684149,
			"0.005": 37.4401982731,
			"0.006": 5.71433992034,
			"0.007": 3.3576836077,
			"0.008": 2.80489283204,
			"0.009": 2.67143102002,
			"0.01": 2.47741917479,
			"0.011": 1.78470593924,
			"0.012": 0.49417288272,
			"0.013": 0.0,
			"0.014": 0.0,
			"0.015": 0.0,
			"0.016": 0.0,
			"0.017": 0.0,
			"0.018": 0.0,
			"0.019": 0.0,
			"0.02": 0.0,
			"0.021": 0.0,
			"0.022": 0.0,
			"0.023": 0.0,
			"0.024": 0.0,
			"0.025": 0.0
		}
	}
}
