{
	 "smiles": "COC1=CC=C(CCC2=NN=C(N)O2)C=C1", 
	 "Tm": 490.15, 
	 "num_atms": 29, 
	 "gaussian": { 
		 "optdone": 1, 
		 "sigma_profile": "yes", 
		 "theory": "DFT", 
		 "functional": "B3LYP", 
		 "basiset": "6-31G**", 
		 "properties": { 
			 "R2extent": 5359.2744, 
			 "electric_dipole_moment_norm": 5.12537977227, 
			 "electric_quadrupole_moment_norm": 19.335716716, 
			 "total_energy": -741.674260391, 
			 "HOMO_LUMO_gap": 0.21079, 
			 "cosmo_polarized_energy": -18.92, 
			 "cosmo_cavitation_energy": 33.67, 
			 "cosmo_dispersion_energy": -23.27, 
			 "cosmo_repulsion_energy": 1.85, 
			 "cosmo_total_nonelectrostatic_energy": 12.24, 
			 "SMD_solvation_energy": 4.41 
		},
		"coords": [
			{
				"x": 1.4751100142,
				"y": 1.945653991,
				"z": 3.1320465381,
				"element": "C" 
			},
			{
				"x": 0.5230586516,
				"y": 0.8968363183,
				"z": 3.1968251313,
				"element": "O" 
			},
			{
				"x": 0.4116936382,
				"y": 0.0592213609,
				"z": 2.1229115058,
				"element": "C" 
			},
			{
				"x": -0.5288636535,
				"y": -0.973416992,
				"z": 2.249275631,
				"element": "C" 
			},
			{
				"x": -0.7151999183,
				"y": -1.8782988159,
				"z": 1.2113543851,
				"element": "C" 
			},
			{
				"x": 0.0220062252,
				"y": -1.7858607145,
				"z": 0.0192879124,
				"element": "C" 
			},
			{
				"x": -0.2097504429,
				"y": -2.7540029791,
				"z": -1.1199303307,
				"element": "C" 
			},
			{
				"x": -1.2300313482,
				"y": -2.2587439589,
				"z": -2.1824594955,
				"element": "C" 
			},
			{
				"x": -2.5991112728,
				"y": -2.034001662,
				"z": -1.6387654872,
				"element": "C" 
			},
			{
				"x": -3.561831054,
				"y": -2.8778923209,
				"z": -1.4764816046,
				"element": "N" 
			},
			{
				"x": -4.6196788931,
				"y": -2.1883261935,
				"z": -0.8597076727,
				"element": "N" 
			},
			{
				"x": -4.194989643,
				"y": -0.9685511598,
				"z": -0.7185048172,
				"element": "C" 
			},
			{
				"x": -4.870303092,
				"y": 0.123700854,
				"z": -0.2389584262,
				"element": "N" 
			},
			{
				"x": -2.9334242578,
				"y": -0.7744784429,
				"z": -1.1796231662,
				"element": "O" 
			},
			{
				"x": 0.9578505115,
				"y": -0.753324526,
				"z": -0.0863779852,
				"element": "C" 
			},
			{
				"x": 1.1611338724,
				"y": 0.1669876821,
				"z": 0.9459337318,
				"element": "C" 
			},
			{
				"x": 1.4028405358,
				"y": 2.4787210326,
				"z": 4.0814361218,
				"element": "H" 
			},
			{
				"x": 1.2583047836,
				"y": 2.6418945224,
				"z": 2.311153027,
				"element": "H" 
			},
			{
				"x": 2.4961713497,
				"y": 1.5605144548,
				"z": 3.0123940783,
				"element": "H" 
			},
			{
				"x": -1.0932891864,
				"y": -1.0500738416,
				"z": 3.1731447138,
				"element": "H" 
			},
			{
				"x": -1.4446893158,
				"y": -2.6761790028,
				"z": 1.3274402728,
				"element": "H" 
			},
			{
				"x": -0.566325211,
				"y": -3.7127901677,
				"z": -0.72899269,
				"element": "H" 
			},
			{
				"x": 0.7352436413,
				"y": -2.9530251992,
				"z": -1.6388202724,
				"element": "H" 
			},
			{
				"x": -1.3092030838,
				"y": -3.0095821573,
				"z": -2.9743813064,
				"element": "H" 
			},
			{
				"x": -0.8727501595,
				"y": -1.3286703533,
				"z": -2.6360117134,
				"element": "H" 
			},
			{
				"x": -4.2968402981,
				"y": 0.7958328489,
				"z": 0.253186082,
				"element": "H" 
			},
			{
				"x": -5.7150800867,
				"y": -0.1287142967,
				"z": 0.255742471,
				"element": "H" 
			},
			{
				"x": 1.5520892248,
				"y": -0.6601640976,
				"z": -0.9928994793,
				"element": "H" 
			},
			{
				"x": 1.9013584689,
				"y": 0.9489338167,
				"z": 0.8236828449,
				"element": "H" 
			}
		],
		 "valence_orbital": [ 
			{
				"type": "occ",
				"energy": -0.30298,
				"method": "rhf"
			},
			{
				"type": "occ",
				"energy": -0.26261,
				"method": "rhf"
			},
			{
				"type": "occ",
				"energy": -0.25239,
				"method": "rhf"
			},
			{
				"type": "occ",
				"energy": -0.22739,
				"method": "rhf"
			},
			{
				"type": "occ",
				"energy": -0.21579,
				"method": "rhf"
			},
			{
				"type": "unocc",
				"energy": -0.005,
				"method": "rhf"
			},
			{
				"type": "unocc",
				"energy": 0.00609,
				"method": "rhf"
			},
			{
				"type": "unocc",
				"energy": 0.01774,
				"method": "rhf"
			},
			{
				"type": "unocc",
				"energy": 0.0556,
				"method": "rhf"
			},
			{
				"type": "unocc",
				"energy": 0.07531,
				"method": "rhf"
			}
		],
		"cosmo_sigma_profile": { 
			"-0.025": 0.0,
			"-0.024": 0.0,
			"-0.023": 0.0,
			"-0.022": 0.0,
			"-0.021": 0.0,
			"-0.02": 0.0,
			"-0.019": 0.0,
			"-0.018": 0.0,
			"-0.017": 0.0,
			"-0.016": 0.0,
			"-0.015": 1.11473545409,
			"-0.014": 2.97231311593,
			"-0.013": 2.5226426378,
			"-0.012": 2.8981261465,
			"-0.011": 2.23566284261,
			"-0.01": 1.36628554796,
			"-0.009": 2.15275858868,
			"-0.008": 1.80872478859,
			"-0.007": 1.81394951771,
			"-0.006": 9.23296480463,
			"-0.005": 24.2013223218,
			"-0.004": 29.0862653672,
			"-0.003": 28.9546091906,
			"-0.002": 21.6710646046,
			"-0.001": 14.7460323912,
			"0.0": 12.3852841565,
			"0.001": 10.6613029945,
			"0.002": 10.9918145818,
			"0.003": 11.8212215467,
			"0.004": 14.4240716349,
			"0.005": 13.2595487241,
			"0.006": 11.828520331,
			"0.007": 4.55266336615,
			"0.008": 3.57059920225,
			"0.009": 3.61207609312,
			"0.01": 4.35018711109,
			"0.011": 3.82944227835,
			"0.012": 2.81603367713,
			"0.013": 3.88844882957,
			"0.014": 2.96123288398,
			"0.015": 2.93326427849,
			"0.016": 1.77511739784,
			"0.017": 0.269019340704,
			"0.018": 0.0,
			"0.019": 0.0,
			"0.02": 0.0,
			"0.021": 0.0,
			"0.022": 0.0,
			"0.023": 0.0,
			"0.024": 0.0,
			"0.025": 0.0
		}
	}
}
