{
	 "smiles": "NCC1=NN=C2CCCN12", 
	 "Tm": 294.15, 
	 "num_atms": 20, 
	 "gaussian": { 
		 "optdone": 1, 
		 "sigma_profile": "yes", 
		 "theory": "DFT", 
		 "functional": "B3LYP", 
		 "basiset": "6-31G**", 
		 "properties": { 
			 "R2extent": 1557.0242, 
			 "electric_dipole_moment_norm": 5.68868564257, 
			 "electric_quadrupole_moment_norm": 7.15203453501, 
			 "total_energy": -453.64401688, 
			 "HOMO_LUMO_gap": 0.26542, 
			 "cosmo_polarized_energy": -19.07, 
			 "cosmo_cavitation_energy": 22.81, 
			 "cosmo_dispersion_energy": -17.2, 
			 "cosmo_repulsion_energy": 1.42, 
			 "cosmo_total_nonelectrostatic_energy": 7.03, 
			 "SMD_solvation_energy": -0.19 
		},
		"coords": [
			{
				"x": -1.7384723537,
				"y": 2.368603204,
				"z": -1.2837725912,
				"element": "N" 
			},
			{
				"x": -1.1790988475,
				"y": 1.6878836506,
				"z": -0.1222405073,
				"element": "C" 
			},
			{
				"x": -0.493718879,
				"y": 0.3794378837,
				"z": -0.4261145221,
				"element": "C" 
			},
			{
				"x": -0.359679793,
				"y": -0.1480258724,
				"z": -1.6272665404,
				"element": "N" 
			},
			{
				"x": 0.3249222882,
				"y": -1.3548825181,
				"z": -1.5076281952,
				"element": "N" 
			},
			{
				"x": 0.5710590319,
				"y": -1.5062238026,
				"z": -0.2325452708,
				"element": "C" 
			},
			{
				"x": 1.2737230873,
				"y": -2.4816377213,
				"z": 0.6646400521,
				"element": "C" 
			},
			{
				"x": 0.7792120663,
				"y": -2.0329960528,
				"z": 2.0725077465,
				"element": "C" 
			},
			{
				"x": 0.3596975321,
				"y": -0.5414638261,
				"z": 1.9247565378,
				"element": "C" 
			},
			{
				"x": 0.077216386,
				"y": -0.4583631101,
				"z": 0.495435954,
				"element": "N" 
			},
			{
				"x": -2.3817022145,
				"y": 1.7308748297,
				"z": -1.7491468548,
				"element": "H" 
			},
			{
				"x": -0.9923919578,
				"y": 2.5066878443,
				"z": -1.9629773505,
				"element": "H" 
			},
			{
				"x": -0.4692287166,
				"y": 2.3647873622,
				"z": 0.3730100223,
				"element": "H" 
			},
			{
				"x": -1.9832782106,
				"y": 1.5167136319,
				"z": 0.6067806794,
				"element": "H" 
			},
			{
				"x": 2.361511921,
				"y": -2.3797851613,
				"z": 0.5679058785,
				"element": "H" 
			},
			{
				"x": 1.0224399868,
				"y": -3.5213998487,
				"z": 0.4427633324,
				"element": "H" 
			},
			{
				"x": 1.5337649772,
				"y": -2.1665728833,
				"z": 2.85094447,
				"element": "H" 
			},
			{
				"x": -0.097617603,
				"y": -2.6229558646,
				"z": 2.3552919689,
				"element": "H" 
			},
			{
				"x": 1.1700583271,
				"y": 0.1464695773,
				"z": 2.1947993379,
				"element": "H" 
			},
			{
				"x": -0.518817028,
				"y": -0.2883513225,
				"z": 2.5246558522,
				"element": "H" 
			}
		],
		 "valence_orbital": [ 
			{
				"type": "occ",
				"energy": -0.29239,
				"method": "rhf"
			},
			{
				"type": "occ",
				"energy": -0.27811,
				"method": "rhf"
			},
			{
				"type": "occ",
				"energy": -0.24877,
				"method": "rhf"
			},
			{
				"type": "occ",
				"energy": -0.24088,
				"method": "rhf"
			},
			{
				"type": "occ",
				"energy": -0.2376,
				"method": "rhf"
			},
			{
				"type": "unocc",
				"energy": 0.02782,
				"method": "rhf"
			},
			{
				"type": "unocc",
				"energy": 0.04564,
				"method": "rhf"
			},
			{
				"type": "unocc",
				"energy": 0.06811,
				"method": "rhf"
			},
			{
				"type": "unocc",
				"energy": 0.09129,
				"method": "rhf"
			},
			{
				"type": "unocc",
				"energy": 0.1022,
				"method": "rhf"
			}
		],
		"cosmo_sigma_profile": { 
			"-0.025": 0.0,
			"-0.024": 0.0,
			"-0.023": 0.0,
			"-0.022": 0.0,
			"-0.021": 0.0,
			"-0.02": 0.0,
			"-0.019": 0.0,
			"-0.018": 0.0,
			"-0.017": 0.0,
			"-0.016": 0.0,
			"-0.015": 0.0,
			"-0.014": 0.0,
			"-0.013": 0.0,
			"-0.012": 0.0,
			"-0.011": 0.0,
			"-0.01": 0.510421081987,
			"-0.009": 2.0685407225,
			"-0.008": 2.03610806055,
			"-0.007": 4.85310804733,
			"-0.006": 17.2399420581,
			"-0.005": 29.0759658827,
			"-0.004": 25.7426869205,
			"-0.003": 16.6816029192,
			"-0.002": 12.6783520841,
			"-0.001": 8.89113905663,
			"0.0": 4.65263846165,
			"0.001": 4.61887873087,
			"0.002": 3.59592799289,
			"0.003": 3.49896758578,
			"0.004": 3.22987736752,
			"0.005": 2.71482693362,
			"0.006": 1.91270694153,
			"0.007": 2.06403885872,
			"0.008": 2.8441396207,
			"0.009": 2.78173936593,
			"0.01": 2.60520691069,
			"0.011": 2.6353531182,
			"0.012": 2.58572917824,
			"0.013": 3.25653299207,
			"0.014": 3.1274148995,
			"0.015": 4.63832473106,
			"0.016": 3.79376680204,
			"0.017": 2.75487024082,
			"0.018": 1.51372664916,
			"0.019": 0.512735123476,
			"0.02": 0.0304103439966,
			"0.021": 0.0,
			"0.022": 0.0,
			"0.023": 0.0,
			"0.024": 0.0,
			"0.025": 0.0
		}
	}
}
