{
	 "smiles": "CCCC(=O)N1CCCCC1C(O)=O", 
	 "Tm": 337.15, 
	 "num_atms": 31, 
	 "gaussian": { 
		 "optdone": 1, 
		 "sigma_profile": "yes", 
		 "theory": "DFT", 
		 "functional": "B3LYP", 
		 "basiset": "6-31G**", 
		 "properties": { 
			 "R2extent": 3580.4739, 
			 "electric_dipole_moment_norm": 7.27002159763, 
			 "electric_quadrupole_moment_norm": 22.7079769356, 
			 "total_energy": -671.772330704, 
			 "HOMO_LUMO_gap": 0.24019, 
			 "cosmo_polarized_energy": -15.82, 
			 "cosmo_cavitation_energy": 31.35, 
			 "cosmo_dispersion_energy": -22.6, 
			 "cosmo_repulsion_energy": 1.79, 
			 "cosmo_total_nonelectrostatic_energy": 10.53, 
			 "SMD_solvation_energy": 5.33 
		},
		"coords": [
			{
				"x": 2.3390246071,
				"y": -0.1394109804,
				"z": 2.9221365776,
				"element": "C" 
			},
			{
				"x": 2.8209754414,
				"y": 1.0209285864,
				"z": 2.0452375973,
				"element": "C" 
			},
			{
				"x": 1.775817071,
				"y": 1.5076583228,
				"z": 1.0314591332,
				"element": "C" 
			},
			{
				"x": 1.5791678329,
				"y": 0.5503284146,
				"z": -0.1465333693,
				"element": "C" 
			},
			{
				"x": 2.2858867676,
				"y": -0.4718355142,
				"z": -0.2071612714,
				"element": "O" 
			},
			{
				"x": 0.6736994333,
				"y": 0.8775174719,
				"z": -1.1095837761,
				"element": "N" 
			},
			{
				"x": -0.346500869,
				"y": 1.920494168,
				"z": -0.8764121035,
				"element": "C" 
			},
			{
				"x": -1.6423519697,
				"y": 1.2843024111,
				"z": -0.3477143103,
				"element": "C" 
			},
			{
				"x": -2.1474874449,
				"y": 0.1792046682,
				"z": -1.2909060619,
				"element": "C" 
			},
			{
				"x": -1.0345451773,
				"y": -0.8070557748,
				"z": -1.6848299615,
				"element": "C" 
			},
			{
				"x": 0.2018116029,
				"y": -0.0346788338,
				"z": -2.1982806572,
				"element": "C" 
			},
			{
				"x": 1.1348209282,
				"y": -0.9642042967,
				"z": -3.027189737,
				"element": "C" 
			},
			{
				"x": 2.2727763261,
				"y": -1.4165651668,
				"z": -2.5389433803,
				"element": "O" 
			},
			{
				"x": 0.7205415728,
				"y": -1.266242455,
				"z": -4.1282639406,
				"element": "O" 
			},
			{
				"x": 2.1059874024,
				"y": -1.0171160936,
				"z": 2.3145530207,
				"element": "H" 
			},
			{
				"x": 1.4414751376,
				"y": 0.1377209029,
				"z": 3.488477403,
				"element": "H" 
			},
			{
				"x": 3.1091154255,
				"y": -0.4258036654,
				"z": 3.6453088406,
				"element": "H" 
			},
			{
				"x": 3.0867450682,
				"y": 1.8736279334,
				"z": 2.6816156277,
				"element": "H" 
			},
			{
				"x": 3.7282690578,
				"y": 0.7274902027,
				"z": 1.5089916798,
				"element": "H" 
			},
			{
				"x": 0.8182535261,
				"y": 1.6704325162,
				"z": 1.54141354,
				"element": "H" 
			},
			{
				"x": 2.0730830599,
				"y": 2.483099631,
				"z": 0.6245573359,
				"element": "H" 
			},
			{
				"x": -0.5302624226,
				"y": 2.4213847473,
				"z": -1.8338084153,
				"element": "H" 
			},
			{
				"x": 0.0358943527,
				"y": 2.6777525413,
				"z": -0.1944777108,
				"element": "H" 
			},
			{
				"x": -1.4447650818,
				"y": 0.8644153836,
				"z": 0.647446876,
				"element": "H" 
			},
			{
				"x": -2.4060724597,
				"y": 2.0604737667,
				"z": -0.2204768921,
				"element": "H" 
			},
			{
				"x": -2.5410645372,
				"y": 0.6427927426,
				"z": -2.2057429369,
				"element": "H" 
			},
			{
				"x": -2.9838626435,
				"y": -0.3564074857,
				"z": -0.8285986042,
				"element": "H" 
			},
			{
				"x": -1.379988368,
				"y": -1.4762010165,
				"z": -2.4773601113,
				"element": "H" 
			},
			{
				"x": -0.7369109439,
				"y": -1.4267851467,
				"z": -0.8296648268,
				"element": "H" 
			},
			{
				"x": -0.1471988892,
				"y": 0.6468162132,
				"z": -2.9795354839,
				"element": "H" 
			},
			{
				"x": 2.3692661932,
				"y": -1.1177341943,
				"z": -1.5834140817,
				"element": "H" 
			}
		],
		 "valence_orbital": [ 
			{
				"type": "occ",
				"energy": -0.3367,
				"method": "rhf"
			},
			{
				"type": "occ",
				"energy": -0.28538,
				"method": "rhf"
			},
			{
				"type": "occ",
				"energy": -0.28008,
				"method": "rhf"
			},
			{
				"type": "occ",
				"energy": -0.26947,
				"method": "rhf"
			},
			{
				"type": "occ",
				"energy": -0.24698,
				"method": "rhf"
			},
			{
				"type": "unocc",
				"energy": -0.00679,
				"method": "rhf"
			},
			{
				"type": "unocc",
				"energy": 0.02605,
				"method": "rhf"
			},
			{
				"type": "unocc",
				"energy": 0.06255,
				"method": "rhf"
			},
			{
				"type": "unocc",
				"energy": 0.07648,
				"method": "rhf"
			},
			{
				"type": "unocc",
				"energy": 0.09573,
				"method": "rhf"
			}
		],
		"cosmo_sigma_profile": { 
			"-0.025": 0.0,
			"-0.024": 0.0,
			"-0.023": 0.0,
			"-0.022": 0.0,
			"-0.021": 0.0,
			"-0.02": 0.0,
			"-0.019": 0.0,
			"-0.018": 0.0,
			"-0.017": 0.0,
			"-0.016": 0.0,
			"-0.015": 0.0,
			"-0.014": 0.0,
			"-0.013": 0.0,
			"-0.012": 0.0,
			"-0.011": 0.0,
			"-0.01": 0.0,
			"-0.009": 0.0,
			"-0.008": 0.712016804636,
			"-0.007": 4.94741725905,
			"-0.006": 11.1841152407,
			"-0.005": 12.9242137307,
			"-0.004": 23.1691853834,
			"-0.003": 32.7500716273,
			"-0.002": 32.8928131372,
			"-0.001": 28.856839394,
			"0.0": 22.8169834518,
			"0.001": 15.5302655277,
			"0.002": 9.42470050369,
			"0.003": 3.02006252349,
			"0.004": 4.11386932964,
			"0.005": 3.46283080999,
			"0.006": 4.24533235342,
			"0.007": 4.20526146065,
			"0.008": 3.36383103355,
			"0.009": 3.89994598862,
			"0.01": 4.15332137209,
			"0.011": 5.03386170121,
			"0.012": 5.96159810032,
			"0.013": 5.03705797843,
			"0.014": 1.95339637529,
			"0.015": 0.0978643372317,
			"0.016": 0.0,
			"0.017": 0.0,
			"0.018": 0.0,
			"0.019": 0.0,
			"0.02": 0.0,
			"0.021": 0.0,
			"0.022": 0.0,
			"0.023": 0.0,
			"0.024": 0.0,
			"0.025": 0.0
		}
	}
}
