{
	 "smiles": "FC1=CC=CC=C1C=CC(=O)C1=CC=CC=C1", 
	 "Tm": 587.15, 
	 "num_atms": 28, 
	 "gaussian": { 
		 "optdone": 1, 
		 "sigma_profile": "yes", 
		 "theory": "DFT", 
		 "functional": "B3LYP", 
		 "basiset": "6-31G**", 
		 "properties": { 
			 "R2extent": 5778.9479, 
			 "electric_dipole_moment_norm": 4.74940932854, 
			 "electric_quadrupole_moment_norm": 15.6321283141, 
			 "total_energy": -753.270199974, 
			 "HOMO_LUMO_gap": 0.16241, 
			 "cosmo_polarized_energy": -10.99, 
			 "cosmo_cavitation_energy": 33.34, 
			 "cosmo_dispersion_energy": -23.83, 
			 "cosmo_repulsion_energy": 1.81, 
			 "cosmo_total_nonelectrostatic_energy": 11.32, 
			 "SMD_solvation_energy": 6.57 
		},
		"coords": [
			{
				"x": -3.9178098465,
				"y": 0.3995690858,
				"z": 1.7101274599,
				"element": "F" 
			},
			{
				"x": -3.1216608589,
				"y": -0.4097681934,
				"z": 2.4421065516,
				"element": "C" 
			},
			{
				"x": -3.6344147415,
				"y": -0.9014200308,
				"z": 3.6340090972,
				"element": "C" 
			},
			{
				"x": -2.8439407796,
				"y": -1.7363382804,
				"z": 4.4243903797,
				"element": "C" 
			},
			{
				"x": -1.5511977289,
				"y": -2.0653940279,
				"z": 4.0101464272,
				"element": "C" 
			},
			{
				"x": -1.0602023557,
				"y": -1.5585596905,
				"z": 2.8109992275,
				"element": "C" 
			},
			{
				"x": -1.8282108813,
				"y": -0.7149859365,
				"z": 1.9816425796,
				"element": "C" 
			},
			{
				"x": -1.2350438212,
				"y": -0.2245809406,
				"z": 0.7368726013,
				"element": "C" 
			},
			{
				"x": -1.8045889082,
				"y": 0.5135027331,
				"z": -0.2396373489,
				"element": "C" 
			},
			{
				"x": -1.1509245705,
				"y": 0.849343475,
				"z": -1.5296843324,
				"element": "C" 
			},
			{
				"x": -1.8574154774,
				"y": 1.0228424832,
				"z": -2.5195385097,
				"element": "O" 
			},
			{
				"x": 0.3428567032,
				"y": 0.9612390998,
				"z": -1.6480996272,
				"element": "C" 
			},
			{
				"x": 0.9200834146,
				"y": 0.6848999239,
				"z": -2.8978964673,
				"element": "C" 
			},
			{
				"x": 2.2935289584,
				"y": 0.8089064744,
				"z": -3.0848773487,
				"element": "C" 
			},
			{
				"x": 3.1074399524,
				"y": 1.2373609801,
				"z": -2.0313036664,
				"element": "C" 
			},
			{
				"x": 2.5402703847,
				"y": 1.5418858787,
				"z": -0.7931029135,
				"element": "C" 
			},
			{
				"x": 1.1651220587,
				"y": 1.4004284336,
				"z": -0.5989868814,
				"element": "C" 
			},
			{
				"x": -4.6415918076,
				"y": -0.6215830052,
				"z": 3.9231486448,
				"element": "H" 
			},
			{
				"x": -3.2387833609,
				"y": -2.1249646049,
				"z": 5.3579480861,
				"element": "H" 
			},
			{
				"x": -0.9293395045,
				"y": -2.7134848912,
				"z": 4.6193702098,
				"element": "H" 
			},
			{
				"x": -0.0545726016,
				"y": -1.815564813,
				"z": 2.4892400059,
				"element": "H" 
			},
			{
				"x": -0.2023251276,
				"y": -0.5379432021,
				"z": 0.5980793302,
				"element": "H" 
			},
			{
				"x": -2.8483549997,
				"y": 0.7989083679,
				"z": -0.1950607929,
				"element": "H" 
			},
			{
				"x": 0.2684113592,
				"y": 0.3767864851,
				"z": -3.7088122357,
				"element": "H" 
			},
			{
				"x": 2.7318768563,
				"y": 0.5795256219,
				"z": -4.0519041308,
				"element": "H" 
			},
			{
				"x": 4.1787287811,
				"y": 1.3412021862,
				"z": -2.1788989073,
				"element": "H" 
			},
			{
				"x": 3.1665179195,
				"y": 1.8952351439,
				"z": 0.0210637983,
				"element": "H" 
			},
			{
				"x": 0.7264409833,
				"y": 1.6603512442,
				"z": 0.3585587629,
				"element": "H" 
			}
		],
		 "valence_orbital": [ 
			{
				"type": "occ",
				"energy": -0.26151,
				"method": "rhf"
			},
			{
				"type": "occ",
				"energy": -0.25808,
				"method": "rhf"
			},
			{
				"type": "occ",
				"energy": -0.25737,
				"method": "rhf"
			},
			{
				"type": "occ",
				"energy": -0.24379,
				"method": "rhf"
			},
			{
				"type": "occ",
				"energy": -0.23555,
				"method": "rhf"
			},
			{
				"type": "unocc",
				"energy": -0.07314,
				"method": "rhf"
			},
			{
				"type": "unocc",
				"energy": -0.02853,
				"method": "rhf"
			},
			{
				"type": "unocc",
				"energy": -0.01329,
				"method": "rhf"
			},
			{
				"type": "unocc",
				"energy": -0.00724,
				"method": "rhf"
			},
			{
				"type": "unocc",
				"energy": 0.02371,
				"method": "rhf"
			}
		],
		"cosmo_sigma_profile": { 
			"-0.025": 0.0,
			"-0.024": 0.0,
			"-0.023": 0.0,
			"-0.022": 0.0,
			"-0.021": 0.0,
			"-0.02": 0.0,
			"-0.019": 0.0,
			"-0.018": 0.0,
			"-0.017": 0.0,
			"-0.016": 0.0,
			"-0.015": 0.0,
			"-0.014": 0.0,
			"-0.013": 0.0,
			"-0.012": 0.0,
			"-0.011": 0.0,
			"-0.01": 0.0,
			"-0.009": 0.0,
			"-0.008": 1.86454090299,
			"-0.007": 7.93428682571,
			"-0.006": 16.7903988984,
			"-0.005": 20.6598867016,
			"-0.004": 21.6402347107,
			"-0.003": 16.6489765944,
			"-0.002": 18.2153925325,
			"-0.001": 18.3587414244,
			"0.0": 24.4003803303,
			"0.001": 24.1528222853,
			"0.002": 25.3224548077,
			"0.003": 25.3469451305,
			"0.004": 22.9232307553,
			"0.005": 5.54475447771,
			"0.006": 1.75061826378,
			"0.007": 1.69145748292,
			"0.008": 1.24350948996,
			"0.009": 2.2276818088,
			"0.01": 1.53669684284,
			"0.011": 2.55711350324,
			"0.012": 3.85125595585,
			"0.013": 3.44465054983,
			"0.014": 0.533953909273,
			"0.015": 0.0,
			"0.016": 0.0,
			"0.017": 0.0,
			"0.018": 0.0,
			"0.019": 0.0,
			"0.02": 0.0,
			"0.021": 0.0,
			"0.022": 0.0,
			"0.023": 0.0,
			"0.024": 0.0,
			"0.025": 0.0
		}
	}
}
