{
	 "smiles": "CCOC(=O)CC1=CC=CC=C1", 
	 "Tm": 243.95, 
	 "num_atms": 24, 
	 "gaussian": { 
		 "optdone": 1, 
		 "sigma_profile": "yes", 
		 "theory": "DFT", 
		 "functional": "B3LYP", 
		 "basiset": "6-31G**", 
		 "properties": { 
			 "R2extent": 3050.7073, 
			 "electric_dipole_moment_norm": 1.60218078256, 
			 "electric_quadrupole_moment_norm": 4.21562754996, 
			 "total_energy": -538.763208407, 
			 "HOMO_LUMO_gap": 0.23316, 
			 "cosmo_polarized_energy": -7.63, 
			 "cosmo_cavitation_energy": 27.87, 
			 "cosmo_dispersion_energy": -19.6, 
			 "cosmo_repulsion_energy": 1.6, 
			 "cosmo_total_nonelectrostatic_energy": 9.87, 
			 "SMD_solvation_energy": 5.73 
		},
		"coords": [
			{
				"x": 2.0911387149,
				"y": 2.0823276715,
				"z": -1.2194290919,
				"element": "C" 
			},
			{
				"x": 1.406492785,
				"y": 1.0883488479,
				"z": -2.1451444027,
				"element": "C" 
			},
			{
				"x": 1.2609554427,
				"y": -0.2060045266,
				"z": -1.5091445472,
				"element": "O" 
			},
			{
				"x": 0.173653427,
				"y": -0.3736807644,
				"z": -0.7273122272,
				"element": "C" 
			},
			{
				"x": -0.6813101469,
				"y": 0.4705795425,
				"z": -0.5556336357,
				"element": "O" 
			},
			{
				"x": 0.1713942549,
				"y": -1.7443866499,
				"z": -0.0688617043,
				"element": "C" 
			},
			{
				"x": 0.6618939628,
				"y": -1.6702257086,
				"z": 1.3697288944,
				"element": "C" 
			},
			{
				"x": -0.0316945881,
				"y": -0.9051196098,
				"z": 2.3181116806,
				"element": "C" 
			},
			{
				"x": 0.4132899427,
				"y": -0.8433234383,
				"z": 3.6381336868,
				"element": "C" 
			},
			{
				"x": 1.5568688655,
				"y": -1.5442930978,
				"z": 4.0295010062,
				"element": "C" 
			},
			{
				"x": 2.2541900863,
				"y": -2.3048032895,
				"z": 3.0906520153,
				"element": "C" 
			},
			{
				"x": 1.8094149663,
				"y": -2.3644960339,
				"z": 1.768040459,
				"element": "C" 
			},
			{
				"x": 2.2563344139,
				"y": 3.0279323497,
				"z": -1.7465873211,
				"element": "H" 
			},
			{
				"x": 1.4689665154,
				"y": 2.2821650525,
				"z": -0.343697755,
				"element": "H" 
			},
			{
				"x": 3.0602671643,
				"y": 1.7004622965,
				"z": -0.8854474248,
				"element": "H" 
			},
			{
				"x": 2.0083767037,
				"y": 0.8868497657,
				"z": -3.0344796487,
				"element": "H" 
			},
			{
				"x": 0.4187672265,
				"y": 1.4449093771,
				"z": -2.4467357157,
				"element": "H" 
			},
			{
				"x": -0.8623367938,
				"y": -2.1045441622,
				"z": -0.094908005,
				"element": "H" 
			},
			{
				"x": 0.7947658463,
				"y": -2.4299707514,
				"z": -0.6464867916,
				"element": "H" 
			},
			{
				"x": -0.9133713236,
				"y": -0.350862967,
				"z": 2.0100692864,
				"element": "H" 
			},
			{
				"x": -0.1342285451,
				"y": -0.2473330182,
				"z": 4.3629655591,
				"element": "H" 
			},
			{
				"x": 1.9008464034,
				"y": -1.4973260772,
				"z": 5.0587838244,
				"element": "H" 
			},
			{
				"x": 3.1454685157,
				"y": -2.8520885472,
				"z": 3.3846335466,
				"element": "H" 
			},
			{
				"x": 2.3568561604,
				"y": -2.9577162615,
				"z": 1.0399483119,
				"element": "H" 
			}
		],
		 "valence_orbital": [ 
			{
				"type": "occ",
				"energy": -0.33739,
				"method": "rhf"
			},
			{
				"type": "occ",
				"energy": -0.29742,
				"method": "rhf"
			},
			{
				"type": "occ",
				"energy": -0.27178,
				"method": "rhf"
			},
			{
				"type": "occ",
				"energy": -0.24841,
				"method": "rhf"
			},
			{
				"type": "occ",
				"energy": -0.24115,
				"method": "rhf"
			},
			{
				"type": "unocc",
				"energy": -0.00799,
				"method": "rhf"
			},
			{
				"type": "unocc",
				"energy": -0.00037,
				"method": "rhf"
			},
			{
				"type": "unocc",
				"energy": 0.02191,
				"method": "rhf"
			},
			{
				"type": "unocc",
				"energy": 0.09643,
				"method": "rhf"
			},
			{
				"type": "unocc",
				"energy": 0.11003,
				"method": "rhf"
			}
		],
		"cosmo_sigma_profile": { 
			"-0.025": 0.0,
			"-0.024": 0.0,
			"-0.023": 0.0,
			"-0.022": 0.0,
			"-0.021": 0.0,
			"-0.02": 0.0,
			"-0.019": 0.0,
			"-0.018": 0.0,
			"-0.017": 0.0,
			"-0.016": 0.0,
			"-0.015": 0.0,
			"-0.014": 0.0,
			"-0.013": 0.0,
			"-0.012": 0.0,
			"-0.011": 0.0,
			"-0.01": 0.0,
			"-0.009": 0.0,
			"-0.008": 0.0,
			"-0.007": 0.31462411071,
			"-0.006": 9.20047017565,
			"-0.005": 18.1887814658,
			"-0.004": 24.9235375594,
			"-0.003": 26.7607409201,
			"-0.002": 20.2075445942,
			"-0.001": 18.1155060312,
			"0.0": 18.5566317608,
			"0.001": 12.6220856594,
			"0.002": 10.6402670306,
			"0.003": 12.1638039961,
			"0.004": 11.3704130495,
			"0.005": 12.2421030481,
			"0.006": 9.78196470828,
			"0.007": 2.39104190886,
			"0.008": 2.92275291728,
			"0.009": 1.7774985703,
			"0.01": 1.64920409639,
			"0.011": 2.74516144641,
			"0.012": 3.58722753428,
			"0.013": 0.393358733457,
			"0.014": 0.0,
			"0.015": 0.0,
			"0.016": 0.0,
			"0.017": 0.0,
			"0.018": 0.0,
			"0.019": 0.0,
			"0.02": 0.0,
			"0.021": 0.0,
			"0.022": 0.0,
			"0.023": 0.0,
			"0.024": 0.0,
			"0.025": 0.0
		}
	}
}
