{
	 "smiles": "CC1=CC=CC(=C2NC3=C(C=CC(F)=C3)N2C2CC2)C1=N", 
	 "Tm": 423.15, 
	 "num_atms": 37, 
	 "gaussian": { 
		 "optdone": 1, 
		 "sigma_profile": "yes", 
		 "theory": "DFT", 
		 "functional": "B3LYP", 
		 "basiset": "6-31G**", 
		 "properties": { 
			 "R2extent": 7303.7732, 
			 "electric_dipole_moment_norm": 2.40734807828, 
			 "electric_quadrupole_moment_norm": 13.5316410446, 
			 "total_energy": -921.478387748, 
			 "HOMO_LUMO_gap": 0.10486, 
			 "cosmo_polarized_energy": -17.4, 
			 "cosmo_cavitation_energy": 39.19, 
			 "cosmo_dispersion_energy": -28.26, 
			 "cosmo_repulsion_energy": 2.09, 
			 "cosmo_total_nonelectrostatic_energy": 13.02, 
			 "SMD_solvation_energy": 5.41 
		},
		"coords": [
			{
				"x": 2.3182441197,
				"y": 1.0976248749,
				"z": -4.9088933229,
				"element": "C" 
			},
			{
				"x": 1.3049411424,
				"y": 1.5789577713,
				"z": -3.9037411549,
				"element": "C" 
			},
			{
				"x": 0.381591954,
				"y": 2.5323987124,
				"z": -4.236373584,
				"element": "C" 
			},
			{
				"x": -0.5920097916,
				"y": 3.0099567567,
				"z": -3.312090265,
				"element": "C" 
			},
			{
				"x": -0.6053934698,
				"y": 2.4989754895,
				"z": -2.0428414082,
				"element": "C" 
			},
			{
				"x": 0.3143922213,
				"y": 1.4861567889,
				"z": -1.6204071804,
				"element": "C" 
			},
			{
				"x": 0.2487212098,
				"y": 1.1179755923,
				"z": -0.2500273255,
				"element": "C" 
			},
			{
				"x": -0.172020444,
				"y": 2.0170307581,
				"z": 0.7090631014,
				"element": "N" 
			},
			{
				"x": -0.1564360747,
				"y": 1.449497446,
				"z": 1.9655801474,
				"element": "C" 
			},
			{
				"x": 0.2646641794,
				"y": 0.1169472874,
				"z": 1.7893246493,
				"element": "C" 
			},
			{
				"x": 0.3599504609,
				"y": -0.729459296,
				"z": 2.8967340031,
				"element": "C" 
			},
			{
				"x": 0.044270811,
				"y": -0.2129005606,
				"z": 4.1569896232,
				"element": "C" 
			},
			{
				"x": -0.352416185,
				"y": 1.116487501,
				"z": 4.2919930243,
				"element": "C" 
			},
			{
				"x": -0.6396648055,
				"y": 1.5847645327,
				"z": 5.5238927289,
				"element": "F" 
			},
			{
				"x": -0.4696745092,
				"y": 1.984339073,
				"z": 3.2112087277,
				"element": "C" 
			},
			{
				"x": 0.5002971447,
				"y": -0.0625626804,
				"z": 0.413418715,
				"element": "N" 
			},
			{
				"x": 0.6642939618,
				"y": -1.3292712005,
				"z": -0.2741644988,
				"element": "C" 
			},
			{
				"x": -0.0814253842,
				"y": -2.567290201,
				"z": 0.1478048784,
				"element": "C" 
			},
			{
				"x": 1.4265829323,
				"y": -2.4834975298,
				"z": 0.3054178376,
				"element": "C" 
			},
			{
				"x": 1.3505927207,
				"y": 1.005129265,
				"z": -2.5494542945,
				"element": "C" 
			},
			{
				"x": 2.2619663972,
				"y": 0.1561115322,
				"z": -2.1406591933,
				"element": "N" 
			},
			{
				"x": 2.2610689428,
				"y": 0.010337434,
				"z": -5.0534764248,
				"element": "H" 
			},
			{
				"x": 3.3462067997,
				"y": 1.3180713687,
				"z": -4.5895515411,
				"element": "H" 
			},
			{
				"x": 2.16328711,
				"y": 1.5743139801,
				"z": -5.8804173938,
				"element": "H" 
			},
			{
				"x": 0.3842769119,
				"y": 2.9351714031,
				"z": -5.2477281802,
				"element": "H" 
			},
			{
				"x": -1.3315197913,
				"y": 3.7394064355,
				"z": -3.6255213155,
				"element": "H" 
			},
			{
				"x": -1.3888141198,
				"y": 2.8135870869,
				"z": -1.3565703913,
				"element": "H" 
			},
			{
				"x": -0.2316763293,
				"y": 3.002861159,
				"z": 0.5101543937,
				"element": "H" 
			},
			{
				"x": 0.6652430175,
				"y": -1.7624951823,
				"z": 2.8110372366,
				"element": "H" 
			},
			{
				"x": 0.1063009561,
				"y": -0.8349493433,
				"z": 5.0423221877,
				"element": "H" 
			},
			{
				"x": -0.7887533587,
				"y": 3.0103021737,
				"z": 3.3517740293,
				"element": "H" 
			},
			{
				"x": 0.8436863024,
				"y": -1.1512402091,
				"z": -1.3239458565,
				"element": "H" 
			},
			{
				"x": -0.6839178676,
				"y": -2.5273362077,
				"z": 1.0497817083,
				"element": "H" 
			},
			{
				"x": -0.4995193462,
				"y": -3.1924581852,
				"z": -0.6353104587,
				"element": "H" 
			},
			{
				"x": 2.059160825,
				"y": -3.0278314332,
				"z": -0.3884056899,
				"element": "H" 
			},
			{
				"x": 1.8422943484,
				"y": -2.4107193988,
				"z": 1.3032302325,
				"element": "H" 
			},
			{
				"x": 2.9228070079,
				"y": -0.0406929944,
				"z": -2.891347745,
				"element": "H" 
			}
		],
		 "valence_orbital": [ 
			{
				"type": "occ",
				"energy": -0.26412,
				"method": "rhf"
			},
			{
				"type": "occ",
				"energy": -0.24871,
				"method": "rhf"
			},
			{
				"type": "occ",
				"energy": -0.22249,
				"method": "rhf"
			},
			{
				"type": "occ",
				"energy": -0.22125,
				"method": "rhf"
			},
			{
				"type": "occ",
				"energy": -0.15316,
				"method": "rhf"
			},
			{
				"type": "unocc",
				"energy": -0.0483,
				"method": "rhf"
			},
			{
				"type": "unocc",
				"energy": -0.00972,
				"method": "rhf"
			},
			{
				"type": "unocc",
				"energy": 0.00029,
				"method": "rhf"
			},
			{
				"type": "unocc",
				"energy": 0.03988,
				"method": "rhf"
			},
			{
				"type": "unocc",
				"energy": 0.0532,
				"method": "rhf"
			}
		],
		"cosmo_sigma_profile": { 
			"-0.025": 0.0,
			"-0.024": 0.0,
			"-0.023": 0.0,
			"-0.022": 0.0,
			"-0.021": 0.0,
			"-0.02": 0.0,
			"-0.019": 0.0,
			"-0.018": 0.058778775565,
			"-0.017": 1.08333663689,
			"-0.016": 0.612939657448,
			"-0.015": 1.09567339038,
			"-0.014": 1.37097322048,
			"-0.013": 0.975853667543,
			"-0.012": 1.42519704834,
			"-0.011": 1.07471993853,
			"-0.01": 1.76622975657,
			"-0.009": 2.93478590527,
			"-0.008": 5.42407014008,
			"-0.007": 6.60978832367,
			"-0.006": 9.29013177381,
			"-0.005": 15.2997751511,
			"-0.004": 21.2862414503,
			"-0.003": 24.4259112654,
			"-0.002": 24.4360706747,
			"-0.001": 26.1230312298,
			"0.0": 26.514728115,
			"0.001": 32.765269306,
			"0.002": 23.0974459611,
			"0.003": 17.650290592,
			"0.004": 19.6875473849,
			"0.005": 10.7035621739,
			"0.006": 8.44096485484,
			"0.007": 8.80759192474,
			"0.008": 7.01333635775,
			"0.009": 1.96776977961,
			"0.01": 1.54053229997,
			"0.011": 1.74664858032,
			"0.012": 0.974511465853,
			"0.013": 0.924485527231,
			"0.014": 1.41973673108,
			"0.015": 0.950092985632,
			"0.016": 1.56110408028,
			"0.017": 0.65537842418,
			"0.018": 0.684533475407,
			"0.019": 0.627315159367,
			"0.02": 0.0,
			"0.021": 0.0,
			"0.022": 0.0,
			"0.023": 0.0,
			"0.024": 0.0,
			"0.025": 0.0
		}
	}
}
