{
	 "smiles": "OC=C(C#N)C1=CC=CC=C1", 
	 "Tm": 429.15, 
	 "num_atms": 18, 
	 "gaussian": { 
		 "optdone": 1, 
		 "sigma_profile": "yes", 
		 "theory": "DFT", 
		 "functional": "B3LYP", 
		 "basiset": "6-31G**", 
		 "properties": { 
			 "R2extent": 2316.0173, 
			 "electric_dipole_moment_norm": 3.09225663553, 
			 "electric_quadrupole_moment_norm": 12.8379681492, 
			 "total_energy": -477.116517124, 
			 "HOMO_LUMO_gap": 0.17969, 
			 "cosmo_polarized_energy": -10.58, 
			 "cosmo_cavitation_energy": 23.39, 
			 "cosmo_dispersion_energy": -16.69, 
			 "cosmo_repulsion_energy": 1.33, 
			 "cosmo_total_nonelectrostatic_energy": 8.04, 
			 "SMD_solvation_energy": 5.92 
		},
		"coords": [
			{
				"x": -0.9451127478,
				"y": -2.8500467501,
				"z": 0.7369525615,
				"element": "O" 
			},
			{
				"x": -0.7739408478,
				"y": -1.5703198488,
				"z": 0.3768865409,
				"element": "C" 
			},
			{
				"x": -0.6876054094,
				"y": -0.5012017572,
				"z": 1.2128131087,
				"element": "C" 
			},
			{
				"x": -0.8443146003,
				"y": -0.7835632568,
				"z": 2.606451383,
				"element": "C" 
			},
			{
				"x": -0.9828054856,
				"y": -1.0968019558,
				"z": 3.7211155138,
				"element": "N" 
			},
			{
				"x": -0.4785211898,
				"y": 0.8942371263,
				"z": 0.7586964666,
				"element": "C" 
			},
			{
				"x": -0.9416215179,
				"y": 1.9661633059,
				"z": 1.5392018899,
				"element": "C" 
			},
			{
				"x": -0.7693445407,
				"y": 3.2821083045,
				"z": 1.1132781144,
				"element": "C" 
			},
			{
				"x": -0.134782344,
				"y": 3.5532071819,
				"z": -0.0999358179,
				"element": "C" 
			},
			{
				"x": 0.339500202,
				"y": 2.494980886,
				"z": -0.8780825866,
				"element": "C" 
			},
			{
				"x": 0.1802613239,
				"y": 1.1788287117,
				"z": -0.4494983289,
				"element": "C" 
			},
			{
				"x": -0.9921131728,
				"y": -2.9183279054,
				"z": 1.7065182126,
				"element": "H" 
			},
			{
				"x": -0.7182540727,
				"y": -1.4598467358,
				"z": -0.7004673454,
				"element": "H" 
			},
			{
				"x": -1.4427037812,
				"y": 1.7645610107,
				"z": 2.4815700802,
				"element": "H" 
			},
			{
				"x": -1.1356918623,
				"y": 4.0966940629,
				"z": 1.731217251,
				"element": "H" 
			},
			{
				"x": -0.0006985874,
				"y": 4.5786057968,
				"z": -0.4310637726,
				"element": "H" 
			},
			{
				"x": 0.8521836141,
				"y": 2.6941944837,
				"z": -1.8147278854,
				"element": "H" 
			},
			{
				"x": 0.5937650196,
				"y": 0.3710273394,
				"z": -1.046025386,
				"element": "H" 
			}
		],
		 "valence_orbital": [ 
			{
				"type": "occ",
				"energy": -0.35165,
				"method": "rhf"
			},
			{
				"type": "occ",
				"energy": -0.34109,
				"method": "rhf"
			},
			{
				"type": "occ",
				"energy": -0.28875,
				"method": "rhf"
			},
			{
				"type": "occ",
				"energy": -0.26047,
				"method": "rhf"
			},
			{
				"type": "occ",
				"energy": -0.22865,
				"method": "rhf"
			},
			{
				"type": "unocc",
				"energy": -0.04896,
				"method": "rhf"
			},
			{
				"type": "unocc",
				"energy": -0.01186,
				"method": "rhf"
			},
			{
				"type": "unocc",
				"energy": -0.00076,
				"method": "rhf"
			},
			{
				"type": "unocc",
				"energy": 0.01962,
				"method": "rhf"
			},
			{
				"type": "unocc",
				"energy": 0.06983,
				"method": "rhf"
			}
		],
		"cosmo_sigma_profile": { 
			"-0.025": 0.0,
			"-0.024": 0.0,
			"-0.023": 0.0,
			"-0.022": 0.0,
			"-0.021": 0.0,
			"-0.02": 0.0,
			"-0.019": 0.0,
			"-0.018": 0.0,
			"-0.017": 0.236988830309,
			"-0.016": 0.72094775827,
			"-0.015": 0.806541225689,
			"-0.014": 0.759580908732,
			"-0.013": 0.473985164181,
			"-0.012": 1.14240907284,
			"-0.011": 1.32309399829,
			"-0.01": 3.00425702902,
			"-0.009": 3.31751106866,
			"-0.008": 3.62619857677,
			"-0.007": 2.93896188997,
			"-0.006": 8.23528954236,
			"-0.005": 12.572336052,
			"-0.004": 13.8393248901,
			"-0.003": 11.8406482462,
			"-0.002": 11.6656216065,
			"-0.001": 13.7453926057,
			"0.0": 13.1299391553,
			"0.001": 12.2031047326,
			"0.002": 10.3371803891,
			"0.003": 10.4109377811,
			"0.004": 12.4090984056,
			"0.005": 12.9550162365,
			"0.006": 5.64366929197,
			"0.007": 2.88432806768,
			"0.008": 4.7282538719,
			"0.009": 4.13786449377,
			"0.01": 3.20179233605,
			"0.011": 2.65183537937,
			"0.012": 2.54443297886,
			"0.013": 1.41721429486,
			"0.014": 0.00961856676967,
			"0.015": 0.0,
			"0.016": 0.0,
			"0.017": 0.0,
			"0.018": 0.0,
			"0.019": 0.0,
			"0.02": 0.0,
			"0.021": 0.0,
			"0.022": 0.0,
			"0.023": 0.0,
			"0.024": 0.0,
			"0.025": 0.0
		}
	}
}
