{
	 "smiles": "OCC12CC3CC(CC(C3)C1)C2", 
	 "Tm": 413.15, 
	 "num_atms": 30, 
	 "gaussian": { 
		 "optdone": 1, 
		 "sigma_profile": "yes", 
		 "theory": "DFT", 
		 "functional": "B3LYP", 
		 "basiset": "6-31G**", 
		 "properties": { 
			 "R2extent": 1808.4802, 
			 "electric_dipole_moment_norm": 1.33280785187, 
			 "electric_quadrupole_moment_norm": 6.24336077445, 
			 "total_energy": -505.265265776, 
			 "HOMO_LUMO_gap": 0.33222, 
			 "cosmo_polarized_energy": -5.29, 
			 "cosmo_cavitation_energy": 26.95, 
			 "cosmo_dispersion_energy": -20.67, 
			 "cosmo_repulsion_energy": 1.62, 
			 "cosmo_total_nonelectrostatic_energy": 7.9, 
			 "SMD_solvation_energy": 3.24 
		},
		"coords": [
			{
				"x": 2.2904795522,
				"y": 2.0424981659,
				"z": 0.9394470016,
				"element": "O" 
			},
			{
				"x": 1.7151124893,
				"y": 1.804957472,
				"z": -0.3419633571,
				"element": "C" 
			},
			{
				"x": 0.6261493176,
				"y": 0.7365883185,
				"z": -0.2215037947,
				"element": "C" 
			},
			{
				"x": 1.2179601244,
				"y": -0.594043114,
				"z": 0.3051871253,
				"element": "C" 
			},
			{
				"x": 0.1177787256,
				"y": -1.6700390466,
				"z": 0.4045265471,
				"element": "C" 
			},
			{
				"x": -0.4920382241,
				"y": -1.9099976089,
				"z": -0.9921582127,
				"element": "C" 
			},
			{
				"x": -1.1002592725,
				"y": -0.5946059961,
				"z": -1.5220417223,
				"element": "C" 
			},
			{
				"x": -2.2039325532,
				"y": -0.1161996508,
				"z": -0.5555464218,
				"element": "C" 
			},
			{
				"x": -1.5962400697,
				"y": 0.1259114866,
				"z": 0.8417076194,
				"element": "C" 
			},
			{
				"x": -0.9850741335,
				"y": -1.1885563082,
				"z": 1.3700966052,
				"element": "C" 
			},
			{
				"x": -0.4941651684,
				"y": 1.1998894902,
				"z": 0.7420575781,
				"element": "C" 
			},
			{
				"x": 0.0026348127,
				"y": 0.4807574673,
				"z": -1.6147784493,
				"element": "C" 
			},
			{
				"x": 2.9730787388,
				"y": 2.716812887,
				"z": 0.841843036,
				"element": "H" 
			},
			{
				"x": 1.2713159018,
				"y": 2.7285432701,
				"z": -0.7510645196,
				"element": "H" 
			},
			{
				"x": 2.4801549255,
				"y": 1.4615160491,
				"z": -1.0589714487,
				"element": "H" 
			},
			{
				"x": 1.6822362585,
				"y": -0.4237277027,
				"z": 1.2824398842,
				"element": "H" 
			},
			{
				"x": 2.0147599103,
				"y": -0.9336677082,
				"z": -0.3718252706,
				"element": "H" 
			},
			{
				"x": 0.5548601527,
				"y": -2.6039409925,
				"z": 0.7809315545,
				"element": "H" 
			},
			{
				"x": -1.2657139171,
				"y": -2.6875264461,
				"z": -0.9400008298,
				"element": "H" 
			},
			{
				"x": 0.2798471218,
				"y": -2.2742880197,
				"z": -1.6831999802,
				"element": "H" 
			},
			{
				"x": -1.5290316169,
				"y": -0.7611607609,
				"z": -2.5186571306,
				"element": "H" 
			},
			{
				"x": -3.0033135206,
				"y": -0.8667707265,
				"z": -0.4968101734,
				"element": "H" 
			},
			{
				"x": -2.661567567,
				"y": 0.807992012,
				"z": -0.9330350037,
				"element": "H" 
			},
			{
				"x": -2.3793853199,
				"y": 0.4705868178,
				"z": 1.5292894851,
				"element": "H" 
			},
			{
				"x": -1.7648693664,
				"y": -1.9559272743,
				"z": 1.4654068932,
				"element": "H" 
			},
			{
				"x": -0.5657184274,
				"y": -1.0323747999,
				"z": 2.3725621849,
				"element": "H" 
			},
			{
				"x": -0.92273642,
				"y": 2.1444314916,
				"z": 0.3777078145,
				"element": "H" 
			},
			{
				"x": -0.0636499767,
				"y": 1.4055658295,
				"z": 1.727941683,
				"element": "H" 
			},
			{
				"x": 0.7820775732,
				"y": 0.1575317723,
				"z": -2.3190593124,
				"element": "H" 
			},
			{
				"x": -0.4181500511,
				"y": 1.4148436259,
				"z": -2.0128293855,
				"element": "H" 
			}
		],
		 "valence_orbital": [ 
			{
				"type": "occ",
				"energy": -0.31227,
				"method": "rhf"
			},
			{
				"type": "occ",
				"energy": -0.2742,
				"method": "rhf"
			},
			{
				"type": "occ",
				"energy": -0.2715,
				"method": "rhf"
			},
			{
				"type": "occ",
				"energy": -0.2701,
				"method": "rhf"
			},
			{
				"type": "occ",
				"energy": -0.26101,
				"method": "rhf"
			},
			{
				"type": "unocc",
				"energy": 0.07121,
				"method": "rhf"
			},
			{
				"type": "unocc",
				"energy": 0.08196,
				"method": "rhf"
			},
			{
				"type": "unocc",
				"energy": 0.11645,
				"method": "rhf"
			},
			{
				"type": "unocc",
				"energy": 0.12382,
				"method": "rhf"
			},
			{
				"type": "unocc",
				"energy": 0.13191,
				"method": "rhf"
			}
		],
		"cosmo_sigma_profile": { 
			"-0.025": 0.0,
			"-0.024": 0.0,
			"-0.023": 0.0,
			"-0.022": 0.0,
			"-0.021": 0.0,
			"-0.02": 0.0,
			"-0.019": 0.0,
			"-0.018": 0.0,
			"-0.017": 0.0,
			"-0.016": 0.0679062396268,
			"-0.015": 1.19269669932,
			"-0.014": 0.80296397989,
			"-0.013": 1.13197455816,
			"-0.012": 0.766722658421,
			"-0.011": 1.41276636066,
			"-0.01": 0.323718889623,
			"-0.009": 0.543808518693,
			"-0.008": 0.529714323965,
			"-0.007": 0.856544352487,
			"-0.006": 1.28458551008,
			"-0.005": 1.04031161349,
			"-0.004": 0.866586270083,
			"-0.003": 3.44665589202,
			"-0.002": 27.2904262465,
			"-0.001": 50.5849137866,
			"0.0": 42.0508369842,
			"0.001": 34.9272540672,
			"0.002": 15.751086334,
			"0.003": 2.08281883777,
			"0.004": 1.76274583433,
			"0.005": 2.40219469782,
			"0.006": 1.26002718617,
			"0.007": 1.65626163418,
			"0.008": 1.84967913104,
			"0.009": 1.7792286942,
			"0.01": 1.69076658456,
			"0.011": 1.86192736769,
			"0.012": 2.37304128103,
			"0.013": 1.06572295098,
			"0.014": 0.1268619171,
			"0.015": 0.0,
			"0.016": 0.0,
			"0.017": 0.0,
			"0.018": 0.0,
			"0.019": 0.0,
			"0.02": 0.0,
			"0.021": 0.0,
			"0.022": 0.0,
			"0.023": 0.0,
			"0.024": 0.0,
			"0.025": 0.0
		}
	}
}
