{
	 "smiles": "COC(=O)C1=C(C)C2=C(S1)N=C(C)N=C2Cl", 
	 "Tm": 423.15, 
	 "num_atms": 25, 
	 "gaussian": { 
		 "optdone": 1, 
		 "sigma_profile": "yes", 
		 "theory": "DFT", 
		 "functional": "B3LYP", 
		 "basiset": "6-31G**", 
		 "properties": { 
			 "R2extent": 5555.6175, 
			 "electric_dipole_moment_norm": 1.78185246583, 
			 "electric_quadrupole_moment_norm": 7.53119758073, 
			 "total_energy": -1504.83955824, 
			 "HOMO_LUMO_gap": 0.16636, 
			 "cosmo_polarized_energy": -8.38, 
			 "cosmo_cavitation_energy": 32.59, 
			 "cosmo_dispersion_energy": -24.68, 
			 "cosmo_repulsion_energy": 1.88, 
			 "cosmo_total_nonelectrostatic_energy": 9.78, 
			 "SMD_solvation_energy": 3.67 
		},
		"coords": [
			{
				"x": -3.7371848142,
				"y": -0.862222465,
				"z": -3.3318325267,
				"element": "C" 
			},
			{
				"x": -2.7165341407,
				"y": -0.4844893425,
				"z": -2.3934690173,
				"element": "O" 
			},
			{
				"x": -1.4430176845,
				"y": -0.6011213248,
				"z": -2.8368304781,
				"element": "C" 
			},
			{
				"x": -1.1644437482,
				"y": -0.9978854112,
				"z": -3.9523789762,
				"element": "O" 
			},
			{
				"x": -0.4881019604,
				"y": -0.184858272,
				"z": -1.7872735385,
				"element": "C" 
			},
			{
				"x": 0.8879971053,
				"y": -0.1641580313,
				"z": -1.8617859425,
				"element": "C" 
			},
			{
				"x": 1.6881515418,
				"y": -0.5757844192,
				"z": -3.066728304,
				"element": "C" 
			},
			{
				"x": 1.4560540298,
				"y": 0.3095640498,
				"z": -0.6174327867,
				"element": "C" 
			},
			{
				"x": 0.4713285507,
				"y": 0.629967687,
				"z": 0.3544103952,
				"element": "C" 
			},
			{
				"x": -1.1412154426,
				"y": 0.357631689,
				"z": -0.2383411707,
				"element": "S" 
			},
			{
				"x": 0.7092166534,
				"y": 1.0874608434,
				"z": 1.5851274183,
				"element": "N" 
			},
			{
				"x": 1.9957296211,
				"y": 1.2446170447,
				"z": 1.8930905281,
				"element": "C" 
			},
			{
				"x": 2.3471795104,
				"y": 1.7560512064,
				"z": 3.2600369914,
				"element": "C" 
			},
			{
				"x": 3.0320325685,
				"y": 0.9768945714,
				"z": 1.0613799992,
				"element": "N" 
			},
			{
				"x": 2.7678392049,
				"y": 0.5284267419,
				"z": -0.142208119,
				"element": "C" 
			},
			{
				"x": 4.1742055125,
				"y": 0.2084581963,
				"z": -1.1507527421,
				"element": "Cl" 
			},
			{
				"x": -4.6824788802,
				"y": -0.7023956964,
				"z": -2.8143868072,
				"element": "H" 
			},
			{
				"x": -3.6257124394,
				"y": -1.9112479974,
				"z": -3.6165109297,
				"element": "H" 
			},
			{
				"x": -3.6792089253,
				"y": -0.2428751893,
				"z": -4.230092859,
				"element": "H" 
			},
			{
				"x": 2.3673774522,
				"y": -1.3958884254,
				"z": -2.8145082742,
				"element": "H" 
			},
			{
				"x": 1.0289903538,
				"y": -0.8913826206,
				"z": -3.8718232033,
				"element": "H" 
			},
			{
				"x": 2.3113108605,
				"y": 0.2535289713,
				"z": -3.4151762608,
				"element": "H" 
			},
			{
				"x": 2.9244261723,
				"y": 2.6827993829,
				"z": 3.1787729105,
				"element": "H" 
			},
			{
				"x": 2.9803912922,
				"y": 1.0314713831,
				"z": 3.7822563579,
				"element": "H" 
			},
			{
				"x": 1.442167606,
				"y": 1.9373374278,
				"z": 3.8400573353,
				"element": "H" 
			}
		],
		 "valence_orbital": [ 
			{
				"type": "occ",
				"energy": -0.31049,
				"method": "rhf"
			},
			{
				"type": "occ",
				"energy": -0.2863,
				"method": "rhf"
			},
			{
				"type": "occ",
				"energy": -0.27497,
				"method": "rhf"
			},
			{
				"type": "occ",
				"energy": -0.26978,
				"method": "rhf"
			},
			{
				"type": "occ",
				"energy": -0.24436,
				"method": "rhf"
			},
			{
				"type": "unocc",
				"energy": -0.078,
				"method": "rhf"
			},
			{
				"type": "unocc",
				"energy": -0.04605,
				"method": "rhf"
			},
			{
				"type": "unocc",
				"energy": -0.01012,
				"method": "rhf"
			},
			{
				"type": "unocc",
				"energy": 0.00439,
				"method": "rhf"
			},
			{
				"type": "unocc",
				"energy": 0.03421,
				"method": "rhf"
			}
		],
		"cosmo_sigma_profile": { 
			"-0.025": 0.0,
			"-0.024": 0.0,
			"-0.023": 0.0,
			"-0.022": 0.0,
			"-0.021": 0.0,
			"-0.02": 0.0,
			"-0.019": 0.0,
			"-0.018": 0.0,
			"-0.017": 0.0,
			"-0.016": 0.0,
			"-0.015": 0.0,
			"-0.014": 0.0,
			"-0.013": 0.0,
			"-0.012": 0.0,
			"-0.011": 0.0,
			"-0.01": 0.0,
			"-0.009": 0.0,
			"-0.008": 0.00667641436493,
			"-0.007": 1.6965824728,
			"-0.006": 8.07346399328,
			"-0.005": 17.014789249,
			"-0.004": 23.911329849,
			"-0.003": 30.6417740012,
			"-0.002": 29.0865312513,
			"-0.001": 31.894896239,
			"0.0": 25.9460082919,
			"0.001": 18.9443066298,
			"0.002": 15.6923009327,
			"0.003": 17.2267374768,
			"0.004": 9.6107110302,
			"0.005": 8.35465939116,
			"0.006": 5.03287291365,
			"0.007": 3.41763042959,
			"0.008": 3.23366252912,
			"0.009": 3.83326310549,
			"0.01": 4.87414469102,
			"0.011": 4.16390187797,
			"0.012": 1.94742782563,
			"0.013": 0.726733476806,
			"0.014": 0.0120934490216,
			"0.015": 0.0,
			"0.016": 0.0,
			"0.017": 0.0,
			"0.018": 0.0,
			"0.019": 0.0,
			"0.02": 0.0,
			"0.021": 0.0,
			"0.022": 0.0,
			"0.023": 0.0,
			"0.024": 0.0,
			"0.025": 0.0
		}
	}
}
