{
	 "smiles": "NS(=O)(=O)C1=CC2=C(S1)C(O)CCS2=O", 
	 "Tm": 463.15, 
	 "num_atms": 24, 
	 "gaussian": { 
		 "optdone": 1, 
		 "sigma_profile": "yes", 
		 "theory": "DFT", 
		 "functional": "B3LYP", 
		 "basiset": "6-31G**", 
		 "properties": { 
			 "R2extent": 5888.4587, 
			 "electric_dipole_moment_norm": 6.2634621696, 
			 "electric_quadrupole_moment_norm": 31.0429913249, 
			 "total_energy": -1822.22590078, 
			 "HOMO_LUMO_gap": 0.17039, 
			 "cosmo_polarized_energy": -30.11, 
			 "cosmo_cavitation_energy": 31.92, 
			 "cosmo_dispersion_energy": -24.7, 
			 "cosmo_repulsion_energy": 1.81, 
			 "cosmo_total_nonelectrostatic_energy": 9.03, 
			 "SMD_solvation_energy": 3.72 
		},
		"coords": [
			{
				"x": -3.8538894256,
				"y": -0.3757932082,
				"z": 1.0646146049,
				"element": "N" 
			},
			{
				"x": -2.8365340813,
				"y": -0.7759520264,
				"z": 2.3322603139,
				"element": "S" 
			},
			{
				"x": -2.8192479876,
				"y": -2.2346657787,
				"z": 2.3811842842,
				"element": "O" 
			},
			{
				"x": -3.2356769772,
				"y": 0.0720988301,
				"z": 3.450113889,
				"element": "O" 
			},
			{
				"x": -1.1963300625,
				"y": -0.255146908,
				"z": 1.8697406763,
				"element": "C" 
			},
			{
				"x": -0.6216712822,
				"y": 0.9466134241,
				"z": 2.1847468041,
				"element": "C" 
			},
			{
				"x": 0.6931904241,
				"y": 1.0607530792,
				"z": 1.6459033243,
				"element": "C" 
			},
			{
				"x": 1.0893347568,
				"y": -0.040401278,
				"z": 0.9226200415,
				"element": "C" 
			},
			{
				"x": -0.1368572776,
				"y": -1.2744701588,
				"z": 0.9361590166,
				"element": "S" 
			},
			{
				"x": 2.4120996263,
				"y": -0.2712557379,
				"z": 0.2375322932,
				"element": "C" 
			},
			{
				"x": 3.0835151013,
				"y": -1.2891208565,
				"z": 0.9845027267,
				"element": "O" 
			},
			{
				"x": 3.2283619873,
				"y": 1.028677894,
				"z": 0.1671530049,
				"element": "C" 
			},
			{
				"x": 3.2952553771,
				"y": 1.7387292194,
				"z": 1.514758042,
				"element": "C" 
			},
			{
				"x": 1.6852166124,
				"y": 2.5627252438,
				"z": 1.894190493,
				"element": "S" 
			},
			{
				"x": 1.4113855396,
				"y": 3.5270709378,
				"z": 0.7601563077,
				"element": "O" 
			},
			{
				"x": -3.6754490309,
				"y": -0.9106068309,
				"z": 0.2208710159,
				"element": "H" 
			},
			{
				"x": -3.9271928985,
				"y": 0.6240587179,
				"z": 0.9067247009,
				"element": "H" 
			},
			{
				"x": -1.1114578797,
				"y": 1.6998768235,
				"z": 2.7906091625,
				"element": "H" 
			},
			{
				"x": 2.222496407,
				"y": -0.6213703375,
				"z": -0.7885878687,
				"element": "H" 
			},
			{
				"x": 3.8546635069,
				"y": -1.5709985034,
				"z": 0.4736938069,
				"element": "H" 
			},
			{
				"x": 4.2389089775,
				"y": 0.7852062996,
				"z": -0.1823867554,
				"element": "H" 
			},
			{
				"x": 2.7868445538,
				"y": 1.7104559808,
				"z": -0.5693311593,
				"element": "H" 
			},
			{
				"x": 3.5248942366,
				"y": 1.0516684849,
				"z": 2.3351117357,
				"element": "H" 
			},
			{
				"x": 4.0216397966,
				"y": 2.5551466892,
				"z": 1.5112595391,
				"element": "H" 
			}
		],
		 "valence_orbital": [ 
			{
				"type": "occ",
				"energy": -0.30383,
				"method": "rhf"
			},
			{
				"type": "occ",
				"energy": -0.28493,
				"method": "rhf"
			},
			{
				"type": "occ",
				"energy": -0.272,
				"method": "rhf"
			},
			{
				"type": "occ",
				"energy": -0.26487,
				"method": "rhf"
			},
			{
				"type": "occ",
				"energy": -0.23835,
				"method": "rhf"
			},
			{
				"type": "unocc",
				"energy": -0.06796,
				"method": "rhf"
			},
			{
				"type": "unocc",
				"energy": -0.00974,
				"method": "rhf"
			},
			{
				"type": "unocc",
				"energy": -0.00512,
				"method": "rhf"
			},
			{
				"type": "unocc",
				"energy": 0.02513,
				"method": "rhf"
			},
			{
				"type": "unocc",
				"energy": 0.04269,
				"method": "rhf"
			}
		],
		"cosmo_sigma_profile": { 
			"-0.025": 0.0,
			"-0.024": 0.0,
			"-0.023": 0.0,
			"-0.022": 0.0,
			"-0.021": 0.0,
			"-0.02": 0.0,
			"-0.019": 0.0,
			"-0.018": 0.0,
			"-0.017": 0.114180679831,
			"-0.016": 2.1648444428,
			"-0.015": 3.61350304703,
			"-0.014": 4.09385424073,
			"-0.013": 3.47922242415,
			"-0.012": 4.46129603113,
			"-0.011": 4.40121572899,
			"-0.01": 3.25060987365,
			"-0.009": 4.56732787977,
			"-0.008": 6.9046884308,
			"-0.007": 12.942292502,
			"-0.006": 13.0874330678,
			"-0.005": 13.5842155902,
			"-0.004": 13.4616561812,
			"-0.003": 13.6720876348,
			"-0.002": 11.4562374094,
			"-0.001": 13.230958064,
			"0.0": 15.5616036063,
			"0.001": 13.6938055462,
			"0.002": 10.2631046403,
			"0.003": 7.62865580808,
			"0.004": 7.24619603473,
			"0.005": 5.20387193202,
			"0.006": 6.98108135177,
			"0.007": 7.82822023262,
			"0.008": 6.70953800518,
			"0.009": 6.5583600767,
			"0.01": 13.0195874732,
			"0.011": 10.9826943909,
			"0.012": 3.0124208413,
			"0.013": 3.52580501209,
			"0.014": 5.35993800086,
			"0.015": 3.5621344456,
			"0.016": 0.357023048029,
			"0.017": 0.0,
			"0.018": 0.0,
			"0.019": 0.0,
			"0.02": 0.0,
			"0.021": 0.0,
			"0.022": 0.0,
			"0.023": 0.0,
			"0.024": 0.0,
			"0.025": 0.0
		}
	}
}
