{
	 "smiles": "ClC1=C(Br)C=C2OCC(=O)NC2=C1", 
	 "Tm": 555.15, 
	 "num_atms": 18, 
	 "gaussian": { 
		 "optdone": 1, 
		 "sigma_profile": "yes", 
		 "theory": "DFT", 
		 "functional": "B3LYP", 
		 "basiset": "6-31G**", 
		 "properties": { 
			 "R2extent": 4572.3522, 
			 "electric_dipole_moment_norm": 0.704519701641, 
			 "electric_quadrupole_moment_norm": 14.5123218452, 
			 "total_energy": -3544.65833794, 
			 "HOMO_LUMO_gap": 0.19005, 
			 "cosmo_polarized_energy": -12.46, 
			 "cosmo_cavitation_energy": 26.65, 
			 "cosmo_dispersion_energy": -20.65, 
			 "cosmo_repulsion_energy": 1.63, 
			 "cosmo_total_nonelectrostatic_energy": 7.62, 
			 "SMD_solvation_energy": 4.03 
		},
		"coords": [
			{
				"x": 2.8421976871,
				"y": 0.9335619103,
				"z": -2.320196666,
				"element": "Cl" 
			},
			{
				"x": 1.5098765697,
				"y": 0.3270381895,
				"z": -1.3678624302,
				"element": "C" 
			},
			{
				"x": 0.3018455718,
				"y": 1.0238052751,
				"z": -1.2535685509,
				"element": "C" 
			},
			{
				"x": 0.013072385,
				"y": 2.6855543012,
				"z": -2.1268595324,
				"element": "Br" 
			},
			{
				"x": -0.7356883731,
				"y": 0.4897757004,
				"z": -0.4848591248,
				"element": "C" 
			},
			{
				"x": -0.567043123,
				"y": -0.7198278978,
				"z": 0.1767663227,
				"element": "C" 
			},
			{
				"x": -1.5703774147,
				"y": -1.1932419891,
				"z": 0.9749067116,
				"element": "O" 
			},
			{
				"x": -1.6286272091,
				"y": -2.6167320015,
				"z": 1.1076143896,
				"element": "C" 
			},
			{
				"x": -0.2761130458,
				"y": -3.2792687615,
				"z": 1.3581453114,
				"element": "C" 
			},
			{
				"x": -0.1614094986,
				"y": -4.3305120715,
				"z": 1.9614761964,
				"element": "O" 
			},
			{
				"x": 0.7844353535,
				"y": -2.6130918455,
				"z": 0.7917104907,
				"element": "N" 
			},
			{
				"x": 0.6480125036,
				"y": -1.4180516793,
				"z": 0.0715103291,
				"element": "C" 
			},
			{
				"x": 1.6758161004,
				"y": -0.8938909049,
				"z": -0.7083520641,
				"element": "C" 
			},
			{
				"x": -1.6768923003,
				"y": 1.0165657334,
				"z": -0.3873090277,
				"element": "H" 
			},
			{
				"x": -2.0714002999,
				"y": -3.0653045255,
				"z": 0.2052778365,
				"element": "H" 
			},
			{
				"x": -2.2778862186,
				"y": -2.8286126198,
				"z": 1.9566916174,
				"element": "H" 
			},
			{
				"x": 1.6907867432,
				"y": -3.0551740425,
				"z": 0.8786654689,
				"element": "H" 
			},
			{
				"x": 2.6168945688,
				"y": -1.425392771,
				"z": -0.8014572783,
				"element": "H" 
			}
		],
		 "valence_orbital": [ 
			{
				"type": "occ",
				"energy": -0.29504,
				"method": "rhf"
			},
			{
				"type": "occ",
				"energy": -0.29222,
				"method": "rhf"
			},
			{
				"type": "occ",
				"energy": -0.27697,
				"method": "rhf"
			},
			{
				"type": "occ",
				"energy": -0.25692,
				"method": "rhf"
			},
			{
				"type": "occ",
				"energy": -0.22894,
				"method": "rhf"
			},
			{
				"type": "unocc",
				"energy": -0.03889,
				"method": "rhf"
			},
			{
				"type": "unocc",
				"energy": -0.0285,
				"method": "rhf"
			},
			{
				"type": "unocc",
				"energy": -0.01808,
				"method": "rhf"
			},
			{
				"type": "unocc",
				"energy": 0.01086,
				"method": "rhf"
			},
			{
				"type": "unocc",
				"energy": 0.04489,
				"method": "rhf"
			}
		],
		"cosmo_sigma_profile": { 
			"-0.025": 0.0,
			"-0.024": 0.0,
			"-0.023": 0.0,
			"-0.022": 0.0,
			"-0.021": 0.0,
			"-0.02": 0.0,
			"-0.019": 0.0,
			"-0.018": 0.0,
			"-0.017": 0.0989913872644,
			"-0.016": 1.08868658755,
			"-0.015": 1.71405428641,
			"-0.014": 1.34983992228,
			"-0.013": 1.33691415495,
			"-0.012": 0.740824366397,
			"-0.011": 1.53183963774,
			"-0.01": 1.51347853985,
			"-0.009": 2.96328430077,
			"-0.008": 7.94978497712,
			"-0.007": 8.05052867301,
			"-0.006": 7.3436880274,
			"-0.005": 8.72483540313,
			"-0.004": 9.79061256969,
			"-0.003": 8.21956419483,
			"-0.002": 12.2785091103,
			"-0.001": 13.0759501738,
			"0.0": 20.2338230376,
			"0.001": 27.1154458954,
			"0.002": 17.7374166109,
			"0.003": 15.842661794,
			"0.004": 19.1326057226,
			"0.005": 8.82859582998,
			"0.006": 3.37244636529,
			"0.007": 1.67531067022,
			"0.008": 2.63829804504,
			"0.009": 2.39815127347,
			"0.01": 1.68424553046,
			"0.011": 2.56898632286,
			"0.012": 5.67519822128,
			"0.013": 2.67656792135,
			"0.014": 0.0875811019688,
			"0.015": 0.0,
			"0.016": 0.0,
			"0.017": 0.0,
			"0.018": 0.0,
			"0.019": 0.0,
			"0.02": 0.0,
			"0.021": 0.0,
			"0.022": 0.0,
			"0.023": 0.0,
			"0.024": 0.0,
			"0.025": 0.0
		}
	}
}
