{
	 "smiles": "FC(F)(F)C(F)(F)C(F)(F)C(F)(F)C(F)(F)C(F)(F)C(F)(F)C(F)(F)C(F)(F)C(F)(F)C(F)(F)C(F)(F)I", 
	 "Tm": 373.15, 
	 "num_atms": 38, 
	 "gaussian": { 
		 "optdone": 1, 
		 "sigma_profile": "no", 
		 "theory": "DFT", 
		 "functional": "B3LYP", 
		 "basiset": "6-31G**", 
		 "properties": { 
			 "R2extent": 20743.2119, 
			 "electric_dipole_moment_norm": 0.487405765251, 
			 "electric_quadrupole_moment_norm": 7.66152802383, 
			 "total_energy": -2964.54009428, 
			 "HOMO_LUMO_gap": 0.20547, 
			 "cosmo_polarized_energy": -108783.76, 
			 "cosmo_cavitation_energy": 51.32, 
			 "cosmo_dispersion_energy": -35.07, 
			 "cosmo_repulsion_energy": 2.14, 
			 "cosmo_total_nonelectrostatic_energy": 18.39, 
			 "SMD_solvation_energy": 14.66 
		},
		"coords": [
			{
				"x": 0.1440410364,
				"y": 5.0626940958,
				"z": 2.8787499724,
				"element": "F" 
			},
			{
				"x": -0.0658647977,
				"y": 5.3409016538,
				"z": 1.5852317564,
				"element": "C" 
			},
			{
				"x": -1.2812813852,
				"y": 5.8835786189,
				"z": 1.4503845537,
				"element": "F" 
			},
			{
				"x": 0.8484199328,
				"y": 6.2222365548,
				"z": 1.1702364942,
				"element": "F" 
			},
			{
				"x": -0.0024967909,
				"y": 4.0432861919,
				"z": 0.7330971903,
				"element": "C" 
			},
			{
				"x": -1.1103407947,
				"y": 3.3204993164,
				"z": 1.008520047,
				"element": "F" 
			},
			{
				"x": -0.0198133634,
				"y": 4.4093657574,
				"z": -0.5677237438,
				"element": "F" 
			},
			{
				"x": 1.2498613204,
				"y": 3.1680153446,
				"z": 1.0167713048,
				"element": "C" 
			},
			{
				"x": 2.3265965358,
				"y": 3.9916371093,
				"z": 1.070514495,
				"element": "F" 
			},
			{
				"x": 1.0981087678,
				"y": 2.5748328441,
				"z": 2.2208727609,
				"element": "F" 
			},
			{
				"x": 1.6222670301,
				"y": 2.077220843,
				"z": -0.0348168199,
				"element": "C" 
			},
			{
				"x": 2.7502859567,
				"y": 1.4829064314,
				"z": 0.4166205926,
				"element": "F" 
			},
			{
				"x": 1.9099139673,
				"y": 2.7110060337,
				"z": -1.1947647794,
				"element": "F" 
			},
			{
				"x": 0.5977729067,
				"y": 0.9648466961,
				"z": -0.4084926384,
				"element": "C" 
			},
			{
				"x": -0.4769782373,
				"y": 1.5814749129,
				"z": -0.958757823,
				"element": "F" 
			},
			{
				"x": 1.1967502288,
				"y": 0.2145639596,
				"z": -1.3618879597,
				"element": "F" 
			},
			{
				"x": 0.0191481494,
				"y": -0.0082425935,
				"z": 0.6654783124,
				"element": "C" 
			},
			{
				"x": -0.6938328627,
				"y": 0.72707922,
				"z": 1.5488431003,
				"element": "F" 
			},
			{
				"x": -0.8343212627,
				"y": -0.8226113443,
				"z": -0.0007587188,
				"element": "F" 
			},
			{
				"x": 0.9583550459,
				"y": -0.9082700168,
				"z": 1.5218346696,
				"element": "C" 
			},
			{
				"x": 1.7635825268,
				"y": -0.0951486566,
				"z": 2.2463275956,
				"element": "F" 
			},
			{
				"x": 0.156439802,
				"y": -1.5749723528,
				"z": 2.3823312347,
				"element": "F" 
			},
			{
				"x": 1.9061524123,
				"y": -1.9454702922,
				"z": 0.8439081536,
				"element": "C" 
			},
			{
				"x": 2.8404955382,
				"y": -1.2466751411,
				"z": 0.1567899464,
				"element": "F" 
			},
			{
				"x": 2.5122354166,
				"y": -2.5958388521,
				"z": 1.8642624854,
				"element": "F" 
			},
			{
				"x": 1.3889327343,
				"y": -3.0394367522,
				"z": -0.1499815651,
				"element": "C" 
			},
			{
				"x": 0.8796917492,
				"y": -2.440458322,
				"z": -1.2476929501,
				"element": "F" 
			},
			{
				"x": 2.507715916,
				"y": -3.7231134358,
				"z": -0.5006901506,
				"element": "F" 
			},
			{
				"x": 0.3649254258,
				"y": -4.073468832,
				"z": 0.3814877563,
				"element": "C" 
			},
			{
				"x": -0.726445396,
				"y": -3.4102144974,
				"z": 0.8326936221,
				"element": "F" 
			},
			{
				"x": 0.9269985307,
				"y": -4.7491585508,
				"z": 1.4049234839,
				"element": "F" 
			},
			{
				"x": -0.1999361564,
				"y": -5.1139446761,
				"z": -0.6507507846,
				"element": "C" 
			},
			{
				"x": -0.9909394627,
				"y": -5.9272101541,
				"z": 0.0844764212,
				"element": "F" 
			},
			{
				"x": -0.9561990523,
				"y": -4.4497652202,
				"z": -1.5483329504,
				"element": "F" 
			},
			{
				"x": 0.8283411577,
				"y": -5.9798976481,
				"z": -1.4263505667,
				"element": "C" 
			},
			{
				"x": 1.7462656059,
				"y": -6.4574730309,
				"z": -0.5705348693,
				"element": "F" 
			},
			{
				"x": 1.4400153137,
				"y": -5.2116452272,
				"z": -2.3430217559,
				"element": "F" 
			},
			{
				"x": -0.1401634455,
				"y": -7.6525299876,
				"z": -2.458897873,
				"element": "I" 
			}
		],
		 "valence_orbital": [ 
			{
				"type": "occ",
				"energy": -0.36614,
				"method": "rhf"
			},
			{
				"type": "occ",
				"energy": -0.35696,
				"method": "rhf"
			},
			{
				"type": "occ",
				"energy": -0.3497,
				"method": "rhf"
			},
			{
				"type": "occ",
				"energy": -0.2942,
				"method": "rhf"
			},
			{
				"type": "occ",
				"energy": -0.2922,
				"method": "rhf"
			},
			{
				"type": "unocc",
				"energy": -0.08673,
				"method": "rhf"
			},
			{
				"type": "unocc",
				"energy": -0.00151,
				"method": "rhf"
			},
			{
				"type": "unocc",
				"energy": 0.00105,
				"method": "rhf"
			},
			{
				"type": "unocc",
				"energy": 0.01513,
				"method": "rhf"
			},
			{
				"type": "unocc",
				"energy": 0.02042,
				"method": "rhf"
			}
		],
		"cosmo_sigma_profile": { 
			"0.0": 0.0,
			"0.0": 0.0,
			"0.0": 0.0,
			"0.0": 0.0,
			"0.0": 0.0,
			"0.0": 0.0,
			"0.0": 0.0,
			"0.0": 0.0,
			"0.0": 0.0,
			"0.0": 0.0,
			"0.0": 0.0,
			"0.0": 0.0,
			"0.0": 0.0,
			"0.0": 0.0,
			"0.0": 0.0,
			"0.0": 0.0,
			"0.0": 0.0,
			"0.0": 0.0,
			"0.0": 0.0,
			"0.0": 0.0,
			"0.0": 0.0,
			"0.0": 0.0,
			"0.0": 0.0,
			"0.0": 0.0,
			"0.0": 0.0,
			"0.0": 0.0,
			"0.0": 0.0,
			"0.0": 0.0,
			"0.0": 0.0,
			"0.0": 0.0,
			"0.0": 0.0,
			"0.0": 0.0,
			"0.0": 0.0,
			"0.0": 0.0,
			"0.0": 0.0,
			"0.0": 0.0,
			"0.0": 0.0,
			"0.0": 0.0,
			"0.0": 0.0,
			"0.0": 0.0,
			"0.0": 0.0,
			"0.0": 0.0,
			"0.0": 0.0,
			"0.0": 0.0,
			"0.0": 0.0,
			"0.0": 0.0,
			"0.0": 0.0,
			"0.0": 0.0,
			"0.0": 0.0,
			"0.0": 0.0,
			"0.0": 0.0
		}
	}
}
