{
	 "smiles": "CC(C)C1C=C(CC2=CC=CC=C2)C(C)=C1C", 
	 "Tm": 327.15, 
	 "num_atms": 39, 
	 "gaussian": { 
		 "optdone": 1, 
		 "sigma_profile": "yes", 
		 "theory": "DFT", 
		 "functional": "B3LYP", 
		 "basiset": "6-31G**", 
		 "properties": { 
			 "R2extent": 5667.1268, 
			 "electric_dipole_moment_norm": 0.358535521253, 
			 "electric_quadrupole_moment_norm": 3.6816587498, 
			 "total_energy": -661.065655085, 
			 "HOMO_LUMO_gap": 0.18791, 
			 "cosmo_polarized_energy": -4.72, 
			 "cosmo_cavitation_energy": 39.67, 
			 "cosmo_dispersion_energy": -26.66, 
			 "cosmo_repulsion_energy": 2.08, 
			 "cosmo_total_nonelectrostatic_energy": 15.1, 
			 "SMD_solvation_energy": 6.44 
		},
		"coords": [
			{
				"x": -1.0115841168,
				"y": 3.3557837024,
				"z": 0.2515182388,
				"element": "C" 
			},
			{
				"x": -0.8584199763,
				"y": 3.0094894753,
				"z": -1.2362343629,
				"element": "C" 
			},
			{
				"x": -0.183698035,
				"y": 4.1505258307,
				"z": -2.0135414345,
				"element": "C" 
			},
			{
				"x": -0.1735613339,
				"y": 1.6245175697,
				"z": -1.4562515575,
				"element": "C" 
			},
			{
				"x": -1.0454437309,
				"y": 0.468864378,
				"z": -1.036425269,
				"element": "C" 
			},
			{
				"x": -0.3720906074,
				"y": -0.349147884,
				"z": -0.2030623891,
				"element": "C" 
			},
			{
				"x": -0.8890997904,
				"y": -1.6184024174,
				"z": 0.4235523692,
				"element": "C" 
			},
			{
				"x": -0.2780505715,
				"y": -2.9025315113,
				"z": -0.1277338991,
				"element": "C" 
			},
			{
				"x": 0.1095567456,
				"y": -3.9362460325,
				"z": 0.7343288005,
				"element": "C" 
			},
			{
				"x": 0.6280729071,
				"y": -5.1325890237,
				"z": 0.234280063,
				"element": "C" 
			},
			{
				"x": 0.7697934395,
				"y": -5.3124585237,
				"z": -1.142154429,
				"element": "C" 
			},
			{
				"x": 0.3897366856,
				"y": -4.2874693787,
				"z": -2.0116395098,
				"element": "C" 
			},
			{
				"x": -0.1279267343,
				"y": -3.0939695657,
				"z": -1.5081698577,
				"element": "C" 
			},
			{
				"x": 0.9956957271,
				"y": 0.1936528443,
				"z": -0.0033527718,
				"element": "C" 
			},
			{
				"x": 2.014725621,
				"y": -0.4801774609,
				"z": 0.8696697585,
				"element": "C" 
			},
			{
				"x": 1.1278698737,
				"y": 1.3416563669,
				"z": -0.7152490662,
				"element": "C" 
			},
			{
				"x": 2.3511631193,
				"y": 2.2018141807,
				"z": -0.8361121531,
				"element": "C" 
			},
			{
				"x": -1.4923214323,
				"y": 2.5396144517,
				"z": 0.799185031,
				"element": "H" 
			},
			{
				"x": -1.6214156189,
				"y": 4.2569835022,
				"z": 0.3786282777,
				"element": "H" 
			},
			{
				"x": -0.039403064,
				"y": 3.5445001735,
				"z": 0.7193174654,
				"element": "H" 
			},
			{
				"x": -1.86932033,
				"y": 2.9009555183,
				"z": -1.6553744651,
				"element": "H" 
			},
			{
				"x": 0.8197835488,
				"y": 4.3695675558,
				"z": -1.6371620149,
				"element": "H" 
			},
			{
				"x": -0.0962321596,
				"y": 3.9106281111,
				"z": -3.0792552324,
				"element": "H" 
			},
			{
				"x": -0.7720164286,
				"y": 5.0709146785,
				"z": -1.9273635718,
				"element": "H" 
			},
			{
				"x": 0.0245215008,
				"y": 1.5388300962,
				"z": -2.5391883235,
				"element": "H" 
			},
			{
				"x": -2.0731477377,
				"y": 0.3471262119,
				"z": -1.3637260838,
				"element": "H" 
			},
			{
				"x": -1.9772589401,
				"y": -1.6546513199,
				"z": 0.2819096675,
				"element": "H" 
			},
			{
				"x": -0.7251056616,
				"y": -1.5932998104,
				"z": 1.508519458,
				"element": "H" 
			},
			{
				"x": 0.0023530175,
				"y": -3.803318854,
				"z": 1.8085060212,
				"element": "H" 
			},
			{
				"x": 0.923736603,
				"y": -5.9211569824,
				"z": 0.920950209,
				"element": "H" 
			},
			{
				"x": 1.1750378575,
				"y": -6.240988874,
				"z": -1.5341744226,
				"element": "H" 
			},
			{
				"x": 0.4987046894,
				"y": -4.4168169104,
				"z": -3.0851062157,
				"element": "H" 
			},
			{
				"x": -0.4141303204,
				"y": -2.295461787,
				"z": -2.1871611491,
				"element": "H" 
			},
			{
				"x": 2.973672513,
				"y": 0.0434449616,
				"z": 0.8616689087,
				"element": "H" 
			},
			{
				"x": 1.6757262763,
				"y": -0.5232151973,
				"z": 1.9131064495,
				"element": "H" 
			},
			{
				"x": 2.1898120645,
				"y": -1.5146856797,
				"z": 0.5536663537,
				"element": "H" 
			},
			{
				"x": 2.566707847,
				"y": 2.4483030001,
				"z": -1.8828188288,
				"element": "H" 
			},
			{
				"x": 2.2407507302,
				"y": 3.1574089347,
				"z": -0.306194118,
				"element": "H" 
			},
			{
				"x": 3.236005823,
				"y": 1.7071056693,
				"z": -0.4262559463,
				"element": "H" 
			}
		],
		 "valence_orbital": [ 
			{
				"type": "occ",
				"energy": -0.30293,
				"method": "rhf"
			},
			{
				"type": "occ",
				"energy": -0.2673,
				"method": "rhf"
			},
			{
				"type": "occ",
				"energy": -0.24358,
				"method": "rhf"
			},
			{
				"type": "occ",
				"energy": -0.23565,
				"method": "rhf"
			},
			{
				"type": "occ",
				"energy": -0.19575,
				"method": "rhf"
			},
			{
				"type": "unocc",
				"energy": -0.00784,
				"method": "rhf"
			},
			{
				"type": "unocc",
				"energy": 0.00374,
				"method": "rhf"
			},
			{
				"type": "unocc",
				"energy": 0.01001,
				"method": "rhf"
			},
			{
				"type": "unocc",
				"energy": 0.07952,
				"method": "rhf"
			},
			{
				"type": "unocc",
				"energy": 0.08471,
				"method": "rhf"
			}
		],
		"cosmo_sigma_profile": { 
			"-0.025": 0.0,
			"-0.024": 0.0,
			"-0.023": 0.0,
			"-0.022": 0.0,
			"-0.021": 0.0,
			"-0.02": 0.0,
			"-0.019": 0.0,
			"-0.018": 0.0,
			"-0.017": 0.0,
			"-0.016": 0.0,
			"-0.015": 0.0,
			"-0.014": 0.0,
			"-0.013": 0.0,
			"-0.012": 0.0,
			"-0.011": 0.0,
			"-0.01": 0.0,
			"-0.009": 0.0,
			"-0.008": 0.0,
			"-0.007": 0.0,
			"-0.006": 1.32602430769,
			"-0.005": 9.37556534817,
			"-0.004": 18.1057238757,
			"-0.003": 33.1694291383,
			"-0.002": 41.5338648211,
			"-0.001": 41.6481358292,
			"0.0": 39.6040590276,
			"0.001": 42.1338184481,
			"0.002": 26.8493573333,
			"0.003": 15.4554993685,
			"0.004": 14.4304200743,
			"0.005": 12.6263452663,
			"0.006": 10.9195815503,
			"0.007": 3.16244898749,
			"0.008": 0.0,
			"0.009": 0.0,
			"0.01": 0.0,
			"0.011": 0.0,
			"0.012": 0.0,
			"0.013": 0.0,
			"0.014": 0.0,
			"0.015": 0.0,
			"0.016": 0.0,
			"0.017": 0.0,
			"0.018": 0.0,
			"0.019": 0.0,
			"0.02": 0.0,
			"0.021": 0.0,
			"0.022": 0.0,
			"0.023": 0.0,
			"0.024": 0.0,
			"0.025": 0.0
		}
	}
}
