{
	 "smiles": "CC1CN(CC(C)O1)S(=O)(=O)C1=CC=C(C=C1)C(O)=O", 
	 "Tm": 542.15, 
	 "num_atms": 37, 
	 "gaussian": { 
		 "optdone": 1, 
		 "sigma_profile": "yes", 
		 "theory": "DFT", 
		 "functional": "B3LYP", 
		 "basiset": "6-31G**", 
		 "properties": { 
			 "R2extent": 7081.7254, 
			 "electric_dipole_moment_norm": 3.43548952262, 
			 "electric_quadrupole_moment_norm": 19.9187880063, 
			 "total_energy": -1334.62716932, 
			 "HOMO_LUMO_gap": 0.17299, 
			 "cosmo_polarized_energy": -18.31, 
			 "cosmo_cavitation_energy": 40.45, 
			 "cosmo_dispersion_energy": -28.05, 
			 "cosmo_repulsion_energy": 2.1, 
			 "cosmo_total_nonelectrostatic_energy": 14.5, 
			 "SMD_solvation_energy": 6.81 
		},
		"coords": [
			{
				"x": -4.1181191076,
				"y": 0.1215209512,
				"z": -0.7183894857,
				"element": "C" 
			},
			{
				"x": -3.5451634199,
				"y": -0.7311171016,
				"z": -1.8555609423,
				"element": "C" 
			},
			{
				"x": -2.4185316758,
				"y": -1.6660567786,
				"z": -1.3966111777,
				"element": "C" 
			},
			{
				"x": -1.1947380627,
				"y": -0.8613488181,
				"z": -1.2091621353,
				"element": "N" 
			},
			{
				"x": -0.7705558365,
				"y": -0.2639003755,
				"z": -2.4875775436,
				"element": "C" 
			},
			{
				"x": -1.8758672398,
				"y": 0.684845372,
				"z": -2.9785485079,
				"element": "C" 
			},
			{
				"x": -1.8862225072,
				"y": 2.0246252611,
				"z": -2.2330345204,
				"element": "C" 
			},
			{
				"x": -3.1480184864,
				"y": 0.0309196137,
				"z": -3.0023096057,
				"element": "O" 
			},
			{
				"x": 0.0448643196,
				"y": -1.6320210256,
				"z": -0.3315821534,
				"element": "S" 
			},
			{
				"x": -0.6212223984,
				"y": -2.3946863892,
				"z": 0.7283793221,
				"element": "O" 
			},
			{
				"x": 1.0092691216,
				"y": -2.2790246835,
				"z": -1.2319438129,
				"element": "O" 
			},
			{
				"x": 0.8713766856,
				"y": -0.2172319553,
				"z": 0.4123281092,
				"element": "C" 
			},
			{
				"x": 2.1507695422,
				"y": 0.1289270846,
				"z": -0.0218287424,
				"element": "C" 
			},
			{
				"x": 2.8002294707,
				"y": 1.2095183999,
				"z": 0.5756730911,
				"element": "C" 
			},
			{
				"x": 2.1674463669,
				"y": 1.9255029472,
				"z": 1.5988650164,
				"element": "C" 
			},
			{
				"x": 0.8848571798,
				"y": 1.5561123355,
				"z": 2.0316784143,
				"element": "C" 
			},
			{
				"x": 0.2318192922,
				"y": 0.4804941395,
				"z": 1.441903559,
				"element": "C" 
			},
			{
				"x": 2.8157762679,
				"y": 3.088863695,
				"z": 2.2692134522,
				"element": "C" 
			},
			{
				"x": 4.0508508102,
				"y": 3.3577993708,
				"z": 1.7831734694,
				"element": "O" 
			},
			{
				"x": 2.3084312695,
				"y": 3.7418294631,
				"z": 3.1581813438,
				"element": "O" 
			},
			{
				"x": -3.3367537599,
				"y": 0.6333679834,
				"z": -0.1525728087,
				"element": "H" 
			},
			{
				"x": -4.8066842885,
				"y": 0.8679324005,
				"z": -1.1229968789,
				"element": "H" 
			},
			{
				"x": -4.6739451622,
				"y": -0.5163091664,
				"z": -0.0224088007,
				"element": "H" 
			},
			{
				"x": -4.3520662349,
				"y": -1.3661320854,
				"z": -2.2404918104,
				"element": "H" 
			},
			{
				"x": -2.6768163686,
				"y": -2.1458538204,
				"z": -0.4516727421,
				"element": "H" 
			},
			{
				"x": -2.2536307616,
				"y": -2.4464180362,
				"z": -2.1545609908,
				"element": "H" 
			},
			{
				"x": -0.5804412606,
				"y": -1.0483190735,
				"z": -3.2331347882,
				"element": "H" 
			},
			{
				"x": 0.1555487546,
				"y": 0.2988086633,
				"z": -2.3410567354,
				"element": "H" 
			},
			{
				"x": -1.6754095552,
				"y": 0.8904612902,
				"z": -4.0369386091,
				"element": "H" 
			},
			{
				"x": -1.8692011052,
				"y": 1.8951002273,
				"z": -1.1488203341,
				"element": "H" 
			},
			{
				"x": -2.7778689623,
				"y": 2.5946873119,
				"z": -2.5064363812,
				"element": "H" 
			},
			{
				"x": -1.0053525689,
				"y": 2.6122460733,
				"z": -2.5149424746,
				"element": "H" 
			},
			{
				"x": 2.6250264385,
				"y": -0.4513595862,
				"z": -0.8054117666,
				"element": "H" 
			},
			{
				"x": 3.7947886429,
				"y": 1.4954453149,
				"z": 0.2538945548,
				"element": "H" 
			},
			{
				"x": 0.4231549733,
				"y": 2.1227441559,
				"z": 2.8328348746,
				"element": "H" 
			},
			{
				"x": -0.7531348981,
				"y": 0.1739574078,
				"z": 1.7759891174,
				"element": "H" 
			},
			{
				"x": 4.3765345248,
				"y": 4.1222694337,
				"z": 2.2863794238,
				"element": "H" 
			}
		],
		 "valence_orbital": [ 
			{
				"type": "occ",
				"energy": -0.29236,
				"method": "rhf"
			},
			{
				"type": "occ",
				"energy": -0.28966,
				"method": "rhf"
			},
			{
				"type": "occ",
				"energy": -0.28291,
				"method": "rhf"
			},
			{
				"type": "occ",
				"energy": -0.26947,
				"method": "rhf"
			},
			{
				"type": "occ",
				"energy": -0.25016,
				"method": "rhf"
			},
			{
				"type": "unocc",
				"energy": -0.07717,
				"method": "rhf"
			},
			{
				"type": "unocc",
				"energy": -0.03237,
				"method": "rhf"
			},
			{
				"type": "unocc",
				"energy": 0.02167,
				"method": "rhf"
			},
			{
				"type": "unocc",
				"energy": 0.04647,
				"method": "rhf"
			},
			{
				"type": "unocc",
				"energy": 0.06536,
				"method": "rhf"
			}
		],
		"cosmo_sigma_profile": { 
			"-0.025": 0.0,
			"-0.024": 0.0,
			"-0.023": 0.0,
			"-0.022": 0.0,
			"-0.021": 0.0,
			"-0.02": 0.0,
			"-0.019": 0.178922203212,
			"-0.018": 0.880875650401,
			"-0.017": 1.09979560715,
			"-0.016": 0.685512288824,
			"-0.015": 0.825272236284,
			"-0.014": 0.758191875205,
			"-0.013": 0.796271383453,
			"-0.012": 0.621526526461,
			"-0.011": 0.771273575766,
			"-0.01": 0.692440057703,
			"-0.009": 0.498170581742,
			"-0.008": 2.37967351561,
			"-0.007": 7.90320339357,
			"-0.006": 11.5587647823,
			"-0.005": 24.5302242179,
			"-0.004": 29.2823455606,
			"-0.003": 27.4626180174,
			"-0.002": 25.4235701055,
			"-0.001": 29.387946269,
			"0.0": 33.6453351235,
			"0.001": 31.2375267486,
			"0.002": 12.6748468005,
			"0.003": 7.34224765855,
			"0.004": 6.43408236758,
			"0.005": 4.90950084173,
			"0.006": 7.55056769649,
			"0.007": 7.25419042509,
			"0.008": 5.37570901255,
			"0.009": 6.96030282928,
			"0.01": 11.0715410081,
			"0.011": 12.9048187759,
			"0.012": 3.89927946163,
			"0.013": 1.57342643948,
			"0.014": 0.276986697836,
			"0.015": 0.0,
			"0.016": 0.0,
			"0.017": 0.0,
			"0.018": 0.0,
			"0.019": 0.0,
			"0.02": 0.0,
			"0.021": 0.0,
			"0.022": 0.0,
			"0.023": 0.0,
			"0.024": 0.0,
			"0.0": 0.0
		}
	}
}
