{
	 "smiles": "O1C=NN=C1C1=CC=NC=C1", 
	 "Tm": 393.15, 
	 "num_atms": 16, 
	 "gaussian": { 
		 "optdone": 1, 
		 "sigma_profile": "yes", 
		 "theory": "DFT", 
		 "functional": "B3LYP", 
		 "basiset": "6-31G**", 
		 "properties": { 
			 "R2extent": 1914.3968, 
			 "electric_dipole_moment_norm": 2.75708879436, 
			 "electric_quadrupole_moment_norm": 13.4597830209, 
			 "total_energy": -509.191556781, 
			 "HOMO_LUMO_gap": 0.19388, 
			 "cosmo_polarized_energy": -11.75, 
			 "cosmo_cavitation_energy": 21.37, 
			 "cosmo_dispersion_energy": -16.05, 
			 "cosmo_repulsion_energy": 1.25, 
			 "cosmo_total_nonelectrostatic_energy": 6.57, 
			 "SMD_solvation_energy": 1.68 
		},
		"coords": [
			{
				"x": -0.574395183,
				"y": 0.7414250516,
				"z": -2.4761842112,
				"element": "O" 
			},
			{
				"x": -0.0367978228,
				"y": 1.6133757043,
				"z": -3.3669980771,
				"element": "C" 
			},
			{
				"x": 1.1322005102,
				"y": 2.0423783828,
				"z": -3.0205626604,
				"element": "N" 
			},
			{
				"x": 1.4214781346,
				"y": 1.4226896508,
				"z": -1.8060772931,
				"element": "N" 
			},
			{
				"x": 0.4003590656,
				"y": 0.6693700229,
				"z": -1.5193704901,
				"element": "C" 
			},
			{
				"x": 0.2047712739,
				"y": -0.1881503116,
				"z": -0.3551978509,
				"element": "C" 
			},
			{
				"x": -0.9599112793,
				"y": -0.9465268534,
				"z": -0.185123803,
				"element": "C" 
			},
			{
				"x": -1.0707129621,
				"y": -1.7415283157,
				"z": 0.9551658035,
				"element": "C" 
			},
			{
				"x": -0.1286740528,
				"y": -1.8254302953,
				"z": 1.90197686,
				"element": "N" 
			},
			{
				"x": 0.9807738434,
				"y": -1.0939008592,
				"z": 1.7257763769,
				"element": "C" 
			},
			{
				"x": 1.2004229834,
				"y": -0.2657089018,
				"z": 0.6281968996,
				"element": "C" 
			},
			{
				"x": -0.610862066,
				"y": 1.8592138804,
				"z": -4.2470060614,
				"element": "H" 
			},
			{
				"x": -1.7568933807,
				"y": -0.9182844762,
				"z": -0.9197685407,
				"element": "H" 
			},
			{
				"x": -1.9649778927,
				"y": -2.3413861858,
				"z": 1.1130585461,
				"element": "H" 
			},
			{
				"x": 1.7360938452,
				"y": -1.1740575245,
				"z": 2.5049567001,
				"element": "H" 
			},
			{
				"x": 2.1145249831,
				"y": 0.3084210309,
				"z": 0.5274578016,
				"element": "H" 
			}
		],
		 "valence_orbital": [ 
			{
				"type": "occ",
				"energy": -0.33763,
				"method": "rhf"
			},
			{
				"type": "occ",
				"energy": -0.29235,
				"method": "rhf"
			},
			{
				"type": "occ",
				"energy": -0.27761,
				"method": "rhf"
			},
			{
				"type": "occ",
				"energy": -0.26987,
				"method": "rhf"
			},
			{
				"type": "occ",
				"energy": -0.26691,
				"method": "rhf"
			},
			{
				"type": "unocc",
				"energy": -0.07303,
				"method": "rhf"
			},
			{
				"type": "unocc",
				"energy": -0.02551,
				"method": "rhf"
			},
			{
				"type": "unocc",
				"energy": -0.00297,
				"method": "rhf"
			},
			{
				"type": "unocc",
				"energy": 0.04213,
				"method": "rhf"
			},
			{
				"type": "unocc",
				"energy": 0.09524,
				"method": "rhf"
			}
		],
		"cosmo_sigma_profile": { 
			"-0.025": 0.0,
			"-0.024": 0.0,
			"-0.023": 0.0,
			"-0.022": 0.0,
			"-0.021": 0.0,
			"-0.02": 0.0,
			"-0.019": 0.0,
			"-0.018": 0.0,
			"-0.017": 0.0,
			"-0.016": 0.0,
			"-0.015": 0.0,
			"-0.014": 0.0,
			"-0.013": 1.29425955474,
			"-0.012": 1.93093777926,
			"-0.011": 1.74152145632,
			"-0.01": 1.70710904695,
			"-0.009": 1.17995754403,
			"-0.008": 2.75507508103,
			"-0.007": 8.63808568407,
			"-0.006": 10.3346930763,
			"-0.005": 11.6160271662,
			"-0.004": 11.5605986891,
			"-0.003": 12.0855967698,
			"-0.002": 11.3357945904,
			"-0.001": 11.9096532008,
			"0.0": 15.9350901136,
			"0.001": 17.4852895471,
			"0.002": 7.07747407047,
			"0.003": 5.32853915544,
			"0.004": 5.14447974876,
			"0.005": 2.78601726402,
			"0.006": 2.70649616625,
			"0.007": 3.87380601731,
			"0.008": 3.58253104842,
			"0.009": 3.11254134638,
			"0.01": 4.04641581118,
			"0.011": 4.353559527,
			"0.012": 3.70780823838,
			"0.013": 2.42415497227,
			"0.014": 2.74820086063,
			"0.015": 0.654017094688,
			"0.016": 0.649123600174,
			"0.017": 0.0,
			"0.018": 0.0,
			"0.019": 0.0,
			"0.02": 0.0,
			"0.021": 0.0,
			"0.022": 0.0,
			"0.023": 0.0,
			"0.024": 0.0,
			"0.025": 0.0
		}
	}
}
