{
	 "smiles": "CCC1=CC2=C(C=C1)N(C)C(=O)C2=O", 
	 "Tm": 370.15, 
	 "num_atms": 25, 
	 "gaussian": { 
		 "optdone": 1, 
		 "sigma_profile": "yes", 
		 "theory": "DFT", 
		 "functional": "B3LYP", 
		 "basiset": "6-31G**", 
		 "properties": { 
			 "R2extent": 3590.372, 
			 "electric_dipole_moment_norm": 6.07906109033, 
			 "electric_quadrupole_moment_norm": 18.7447057894, 
			 "total_energy": -631.013281707, 
			 "HOMO_LUMO_gap": 0.13402, 
			 "cosmo_polarized_energy": -13.13, 
			 "cosmo_cavitation_energy": 29.33, 
			 "cosmo_dispersion_energy": -20.88, 
			 "cosmo_repulsion_energy": 1.64, 
			 "cosmo_total_nonelectrostatic_energy": 10.09, 
			 "SMD_solvation_energy": 6.36 
		},
		"coords": [
			{
				"x": -0.0390405452,
				"y": 3.3411460045,
				"z": 0.0802454694,
				"element": "C" 
			},
			{
				"x": 0.1734044982,
				"y": 2.326974414,
				"z": 1.2185656973,
				"element": "C" 
			},
			{
				"x": -0.1613353955,
				"y": 0.9057653351,
				"z": 0.815661087,
				"element": "C" 
			},
			{
				"x": 0.8028271685,
				"y": 0.0762874103,
				"z": 0.2229476077,
				"element": "C" 
			},
			{
				"x": 0.4550346122,
				"y": -1.2108514702,
				"z": -0.1696724758,
				"element": "C" 
			},
			{
				"x": -0.8526368402,
				"y": -1.7009746966,
				"z": 0.0174331463,
				"element": "C" 
			},
			{
				"x": -1.8266349595,
				"y": -0.9026062434,
				"z": 0.6034146976,
				"element": "C" 
			},
			{
				"x": -1.4569290381,
				"y": 0.3929414649,
				"z": 0.9924326639,
				"element": "C" 
			},
			{
				"x": -0.9659202172,
				"y": -3.0220229014,
				"z": -0.4498668203,
				"element": "N" 
			},
			{
				"x": -2.1692018016,
				"y": -3.8275204726,
				"z": -0.4102493146,
				"element": "C" 
			},
			{
				"x": 0.2417086281,
				"y": -3.4737125034,
				"z": -0.9642254032,
				"element": "C" 
			},
			{
				"x": 0.4607415351,
				"y": -4.5671510284,
				"z": -1.4405530396,
				"element": "O" 
			},
			{
				"x": 1.2446442285,
				"y": -2.2811265434,
				"z": -0.7972976459,
				"element": "C" 
			},
			{
				"x": 2.407752965,
				"y": -2.3085654099,
				"z": -1.1368357348,
				"element": "O" 
			},
			{
				"x": 0.585922188,
				"y": 3.0970920747,
				"z": -0.7849014336,
				"element": "H" 
			},
			{
				"x": -1.0815885558,
				"y": 3.3436037681,
				"z": -0.2545001143,
				"element": "H" 
			},
			{
				"x": 0.2150894187,
				"y": 4.3547038535,
				"z": 0.4071493334,
				"element": "H" 
			},
			{
				"x": -0.4400962761,
				"y": 2.6161542792,
				"z": 2.0801126538,
				"element": "H" 
			},
			{
				"x": 1.2165564892,
				"y": 2.3731862531,
				"z": 1.5528578128,
				"element": "H" 
			},
			{
				"x": 1.8213387824,
				"y": 0.4238557636,
				"z": 0.0698234633,
				"element": "H" 
			},
			{
				"x": -2.838330428,
				"y": -1.2598839242,
				"z": 0.763596863,
				"element": "H" 
			},
			{
				"x": -2.2088235127,
				"y": 1.0269460964,
				"z": 1.4565838021,
				"element": "H" 
			},
			{
				"x": -1.9231739482,
				"y": -4.7959585304,
				"z": -0.8483533322,
				"element": "H" 
			},
			{
				"x": -2.9738153657,
				"y": -3.361754755,
				"z": -0.9900945373,
				"element": "H" 
			},
			{
				"x": -2.51179363,
				"y": -3.9730282385,
				"z": 0.6203255541,
				"element": "H" 
			}
		],
		 "valence_orbital": [ 
			{
				"type": "occ",
				"energy": -0.30802,
				"method": "rhf"
			},
			{
				"type": "occ",
				"energy": -0.30551,
				"method": "rhf"
			},
			{
				"type": "occ",
				"energy": -0.27385,
				"method": "rhf"
			},
			{
				"type": "occ",
				"energy": -0.243,
				"method": "rhf"
			},
			{
				"type": "occ",
				"energy": -0.22684,
				"method": "rhf"
			},
			{
				"type": "unocc",
				"energy": -0.09282,
				"method": "rhf"
			},
			{
				"type": "unocc",
				"energy": -0.01843,
				"method": "rhf"
			},
			{
				"type": "unocc",
				"energy": 0.00843,
				"method": "rhf"
			},
			{
				"type": "unocc",
				"energy": 0.0809,
				"method": "rhf"
			},
			{
				"type": "unocc",
				"energy": 0.08835,
				"method": "rhf"
			}
		],
		"cosmo_sigma_profile": { 
			"-0.025": 0.0,
			"-0.024": 0.0,
			"-0.023": 0.0,
			"-0.022": 0.0,
			"-0.021": 0.0,
			"-0.02": 0.0,
			"-0.019": 0.0,
			"-0.018": 0.0,
			"-0.017": 0.0,
			"-0.016": 0.0,
			"-0.015": 0.0,
			"-0.014": 0.0,
			"-0.013": 0.0,
			"-0.012": 0.0,
			"-0.011": 0.0,
			"-0.01": 0.0,
			"-0.009": 0.0,
			"-0.008": 0.281198934964,
			"-0.007": 4.75842519781,
			"-0.006": 16.3911747714,
			"-0.005": 17.0143400958,
			"-0.004": 18.7726329398,
			"-0.003": 24.8429380866,
			"-0.002": 26.2438734222,
			"-0.001": 20.3375653661,
			"0.0": 20.3332863172,
			"0.001": 18.3974778319,
			"0.002": 13.3533738458,
			"0.003": 12.1297674595,
			"0.004": 3.55611166212,
			"0.005": 2.28551088088,
			"0.006": 2.64407746376,
			"0.007": 3.00966428254,
			"0.008": 4.13497993302,
			"0.009": 3.7340036482,
			"0.01": 6.88064727027,
			"0.011": 9.08442136463,
			"0.012": 4.3937170927,
			"0.013": 0.706587409876,
			"0.014": 0.0,
			"0.015": 0.0,
			"0.016": 0.0,
			"0.017": 0.0,
			"0.018": 0.0,
			"0.019": 0.0,
			"0.02": 0.0,
			"0.021": 0.0,
			"0.022": 0.0,
			"0.023": 0.0,
			"0.024": 0.0,
			"0.025": 0.0
		}
	}
}
