{
	 "smiles": "FC(F)=C(F)OC(F)(F)C(F)(F)C(F)(F)F", 
	 "Tm": 203.15, 
	 "num_atms": 16, 
	 "gaussian": { 
		 "optdone": 1, 
		 "sigma_profile": "yes", 
		 "theory": "DFT", 
		 "functional": "B3LYP", 
		 "basiset": "6-31G**", 
		 "properties": { 
			 "R2extent": 3941.697, 
			 "electric_dipole_moment_norm": 0.334520268444, 
			 "electric_quadrupole_moment_norm": 1.54425293265, 
			 "total_energy": -1264.07097999, 
			 "HOMO_LUMO_gap": 0.27399, 
			 "cosmo_polarized_energy": -1.44, 
			 "cosmo_cavitation_energy": 25.67, 
			 "cosmo_dispersion_energy": -17.05, 
			 "cosmo_repulsion_energy": 1.15, 
			 "cosmo_total_nonelectrostatic_energy": 9.78, 
			 "SMD_solvation_energy": 8.96 
		},
		"coords": [
			{
				"x": -3.663755905,
				"y": 1.9252268992,
				"z": -0.4424736104,
				"element": "F" 
			},
			{
				"x": -2.9685167614,
				"y": 0.9204302833,
				"z": -0.9408452049,
				"element": "C" 
			},
			{
				"x": -3.7195447273,
				"y": -0.0979598354,
				"z": -1.3165493991,
				"element": "F" 
			},
			{
				"x": -1.6449161918,
				"y": 0.9320370036,
				"z": -1.0538179461,
				"element": "C" 
			},
			{
				"x": -0.9803956752,
				"y": -0.0994938349,
				"z": -1.580426295,
				"element": "F" 
			},
			{
				"x": -0.8890466539,
				"y": 2.0204758342,
				"z": -0.7393776669,
				"element": "O" 
			},
			{
				"x": -0.4040195261,
				"y": 2.1490939287,
				"z": 0.5601439259,
				"element": "C" 
			},
			{
				"x": -1.3756699051,
				"y": 1.896847984,
				"z": 1.4602600086,
				"element": "F" 
			},
			{
				"x": -0.0127075016,
				"y": 3.422494622,
				"z": 0.6790121051,
				"element": "F" 
			},
			{
				"x": 0.7895089654,
				"y": 1.2136385939,
				"z": 0.8890818529,
				"element": "C" 
			},
			{
				"x": 0.3453569325,
				"y": -0.0654811112,
				"z": 0.8589159551,
				"element": "F" 
			},
			{
				"x": 1.2092779727,
				"y": 1.5057108697,
				"z": 2.1409544226,
				"element": "F" 
			},
			{
				"x": 2.0107022492,
				"y": 1.3207427926,
				"z": -0.0545707135,
				"element": "C" 
			},
			{
				"x": 1.6863316326,
				"y": 0.9361618213,
				"z": -1.2938329316,
				"element": "F" 
			},
			{
				"x": 2.4600642324,
				"y": 2.5818009317,
				"z": -0.0908385415,
				"element": "F" 
			},
			{
				"x": 2.9843308627,
				"y": 0.5259732175,
				"z": 0.4048640387,
				"element": "F" 
			}
		],
		 "valence_orbital": [ 
			{
				"type": "occ",
				"energy": -0.42898,
				"method": "rhf"
			},
			{
				"type": "occ",
				"energy": -0.41853,
				"method": "rhf"
			},
			{
				"type": "occ",
				"energy": -0.39467,
				"method": "rhf"
			},
			{
				"type": "occ",
				"energy": -0.36321,
				"method": "rhf"
			},
			{
				"type": "occ",
				"energy": -0.26556,
				"method": "rhf"
			},
			{
				"type": "unocc",
				"energy": 0.00843,
				"method": "rhf"
			},
			{
				"type": "unocc",
				"energy": 0.04312,
				"method": "rhf"
			},
			{
				"type": "unocc",
				"energy": 0.05136,
				"method": "rhf"
			},
			{
				"type": "unocc",
				"energy": 0.07779,
				"method": "rhf"
			},
			{
				"type": "unocc",
				"energy": 0.1183,
				"method": "rhf"
			}
		],
		"cosmo_sigma_profile": { 
			"-0.025": 0.0,
			"-0.024": 0.0,
			"-0.023": 0.0,
			"-0.022": 0.0,
			"-0.021": 0.0,
			"-0.02": 0.0,
			"-0.019": 0.0,
			"-0.018": 0.0,
			"-0.017": 0.0,
			"-0.016": 0.0,
			"-0.015": 0.0,
			"-0.014": 0.0,
			"-0.013": 0.0,
			"-0.012": 0.0,
			"-0.011": 0.0,
			"-0.01": 0.0,
			"-0.009": 0.0,
			"-0.008": 0.0,
			"-0.007": 0.0,
			"-0.006": 0.193372192056,
			"-0.005": 3.76220558207,
			"-0.004": 7.70132624672,
			"-0.003": 10.2251799468,
			"-0.002": 16.5692718125,
			"-0.001": 23.10216191,
			"0.0": 40.4585720563,
			"0.001": 79.1952593306,
			"0.002": 23.2359110124,
			"0.003": 1.88921818521,
			"0.004": 0.993898158764,
			"0.005": 0.304294298565,
			"0.006": 0.0,
			"0.007": 0.0,
			"0.008": 0.0,
			"0.009": 0.0,
			"0.01": 0.0,
			"0.011": 0.0,
			"0.012": 0.0,
			"0.013": 0.0,
			"0.014": 0.0,
			"0.015": 0.0,
			"0.016": 0.0,
			"0.017": 0.0,
			"0.018": 0.0,
			"0.019": 0.0,
			"0.02": 0.0,
			"0.021": 0.0,
			"0.022": 0.0,
			"0.023": 0.0,
			"0.024": 0.0,
			"0.025": 0.0
		}
	}
}
