{
	 "smiles": "OC(=O)C1CCN(CC1)S(=O)(=O)C1=C(Cl)C=CC(=C1)[N+]([O-])=O", 
	 "Tm": 316.15, 
	 "num_atms": 35, 
	 "gaussian": { 
		 "optdone": 1, 
		 "sigma_profile": "yes", 
		 "theory": "DFT", 
		 "functional": "B3LYP", 
		 "basiset": "6-31G**", 
		 "properties": { 
			 "R2extent": 6505.6396, 
			 "electric_dipole_moment_norm": 3.22024402181, 
			 "electric_quadrupole_moment_norm": 22.7331092603, 
			 "total_energy": -1884.16892125, 
			 "HOMO_LUMO_gap": 0.14481, 
			 "cosmo_polarized_energy": -18.02, 
			 "cosmo_cavitation_energy": 39.19, 
			 "cosmo_dispersion_energy": -27.84, 
			 "cosmo_repulsion_energy": 2.01, 
			 "cosmo_total_nonelectrostatic_energy": 13.36, 
			 "SMD_solvation_energy": 7.7 
		},
		"coords": [
			{
				"x": 0.0436847025,
				"y": 2.2145271854,
				"z": 1.5461789339,
				"element": "O" 
			},
			{
				"x": -0.3512250424,
				"y": 2.2201537236,
				"z": 0.2565610572,
				"element": "C" 
			},
			{
				"x": -1.4546127895,
				"y": 1.8487691942,
				"z": -0.0903202581,
				"element": "O" 
			},
			{
				"x": 0.7114533893,
				"y": 2.7690469721,
				"z": -0.6953591709,
				"element": "C" 
			},
			{
				"x": 0.5735778403,
				"y": 2.1062480262,
				"z": -2.0827597454,
				"element": "C" 
			},
			{
				"x": 1.3687503552,
				"y": 0.7768601101,
				"z": -2.1466381968,
				"element": "C" 
			},
			{
				"x": 1.6162669053,
				"y": 0.2936820168,
				"z": -0.7771699294,
				"element": "N" 
			},
			{
				"x": 2.5402148045,
				"y": 1.1321220534,
				"z": 0.0162485124,
				"element": "C" 
			},
			{
				"x": 2.1525960559,
				"y": 2.6184769927,
				"z": -0.1791471836,
				"element": "C" 
			},
			{
				"x": 1.620735817,
				"y": -1.3634999476,
				"z": -0.5071091182,
				"element": "S" 
			},
			{
				"x": 2.264271263,
				"y": -1.5702493552,
				"z": 0.7914721953,
				"element": "O" 
			},
			{
				"x": 2.0586369994,
				"y": -2.0865415038,
				"z": -1.6984884329,
				"element": "O" 
			},
			{
				"x": -0.1595801114,
				"y": -1.6616821775,
				"z": -0.2362661065,
				"element": "C" 
			},
			{
				"x": -1.0341571829,
				"y": -2.4136098787,
				"z": -1.0372785299,
				"element": "C" 
			},
			{
				"x": -0.5513551616,
				"y": -3.2327351823,
				"z": -2.495235825,
				"element": "Cl" 
			},
			{
				"x": -2.3871845257,
				"y": -2.5308128623,
				"z": -0.6755123385,
				"element": "C" 
			},
			{
				"x": -2.8808833599,
				"y": -1.895736496,
				"z": 0.45309328,
				"element": "C" 
			},
			{
				"x": -2.0007240906,
				"y": -1.1406872517,
				"z": 1.2282924186,
				"element": "C" 
			},
			{
				"x": -0.6565195287,
				"y": -1.0386029836,
				"z": 0.9108099784,
				"element": "C" 
			},
			{
				"x": -2.5130341364,
				"y": -0.4181769945,
				"z": 2.3947641458,
				"element": "N" 
			},
			{
				"x": -1.7620128978,
				"y": 0.3903119959,
				"z": 2.9573971631,
				"element": "O" 
			},
			{
				"x": -3.6598066423,
				"y": -0.6553650006,
				"z": 2.7549893093,
				"element": "O" 
			},
			{
				"x": -0.681349193,
				"y": 1.8154605028,
				"z": 2.0703985045,
				"element": "H" 
			},
			{
				"x": 0.4814973878,
				"y": 3.8385978151,
				"z": -0.792162331,
				"element": "H" 
			},
			{
				"x": 0.9499726205,
				"y": 2.7855685703,
				"z": -2.8541012714,
				"element": "H" 
			},
			{
				"x": -0.4858117268,
				"y": 1.9313404385,
				"z": -2.2805428786,
				"element": "H" 
			},
			{
				"x": 0.8152444942,
				"y": 0.0160635346,
				"z": -2.6994887268,
				"element": "H" 
			},
			{
				"x": 2.3269122884,
				"y": 0.908583961,
				"z": -2.668256922,
				"element": "H" 
			},
			{
				"x": 2.4431310297,
				"y": 0.8402905161,
				"z": 1.0607921184,
				"element": "H" 
			},
			{
				"x": 3.5835437665,
				"y": 0.9660555249,
				"z": -0.285008286,
				"element": "H" 
			},
			{
				"x": 2.8182494733,
				"y": 3.0849818262,
				"z": -0.913830687,
				"element": "H" 
			},
			{
				"x": 2.2900114242,
				"y": 3.153029242,
				"z": 0.7631629062,
				"element": "H" 
			},
			{
				"x": -3.0450097195,
				"y": -3.1199220556,
				"z": -1.3037787583,
				"element": "H" 
			},
			{
				"x": -3.9249685664,
				"y": -1.9643934832,
				"z": 0.7311171651,
				"element": "H" 
			},
			{
				"x": 0.0041840583,
				"y": -0.4633550293,
				"z": 1.5447770079,
				"element": "H" 
			}
		],
		 "valence_orbital": [ 
			{
				"type": "occ",
				"energy": -0.30583,
				"method": "rhf"
			},
			{
				"type": "occ",
				"energy": -0.30309,
				"method": "rhf"
			},
			{
				"type": "occ",
				"energy": -0.28728,
				"method": "rhf"
			},
			{
				"type": "occ",
				"energy": -0.27728,
				"method": "rhf"
			},
			{
				"type": "occ",
				"energy": -0.25886,
				"method": "rhf"
			},
			{
				"type": "unocc",
				"energy": -0.11405,
				"method": "rhf"
			},
			{
				"type": "unocc",
				"energy": -0.06485,
				"method": "rhf"
			},
			{
				"type": "unocc",
				"energy": -0.0289,
				"method": "rhf"
			},
			{
				"type": "unocc",
				"energy": -0.00281,
				"method": "rhf"
			},
			{
				"type": "unocc",
				"energy": 0.00348,
				"method": "rhf"
			}
		],
		"cosmo_sigma_profile": { 
			"-0.025": 0.0,
			"-0.024": 0.0,
			"-0.023": 0.0,
			"-0.022": 0.0,
			"-0.021": 0.0,
			"-0.02": 0.0,
			"-0.019": 0.0,
			"-0.018": 0.0,
			"-0.017": 0.0,
			"-0.016": 0.0,
			"-0.015": 0.0,
			"-0.014": 0.0,
			"-0.013": 0.0,
			"-0.012": 0.0,
			"-0.011": 0.0,
			"-0.01": 0.501356546386,
			"-0.009": 4.61857066611,
			"-0.008": 5.4996976685,
			"-0.007": 7.69162242181,
			"-0.006": 11.7826170504,
			"-0.005": 27.9649549855,
			"-0.004": 35.4291105925,
			"-0.003": 31.7246363761,
			"-0.002": 29.4089331316,
			"-0.001": 23.0760144739,
			"0.0": 15.8551343318,
			"0.001": 11.8614390094,
			"0.002": 15.4438749982,
			"0.003": 13.2442149022,
			"0.004": 8.9052925239,
			"0.005": 9.06717598004,
			"0.006": 12.0331704169,
			"0.007": 10.5150466906,
			"0.008": 9.20597025979,
			"0.009": 9.17228477025,
			"0.01": 9.51806673738,
			"0.011": 8.34302585982,
			"0.012": 1.99855222197,
			"0.013": 0.161959425031,
			"0.014": 0.0,
			"0.015": 0.0,
			"0.016": 0.0,
			"0.017": 0.0,
			"0.018": 0.0,
			"0.019": 0.0,
			"0.02": 0.0,
			"0.021": 0.0,
			"0.022": 0.0,
			"0.023": 0.0,
			"0.024": 0.0,
			"0.0": 0.0
		}
	}
}
