{
	 "smiles": "NC(=S)C1=CNC=N1", 
	 "Tm": 479.15, 
	 "num_atms": 13, 
	 "gaussian": { 
		 "optdone": 1, 
		 "sigma_profile": "yes", 
		 "theory": "DFT", 
		 "functional": "B3LYP", 
		 "basiset": "6-31G**", 
		 "properties": { 
			 "R2extent": 1964.319, 
			 "electric_dipole_moment_norm": 8.20100902877, 
			 "electric_quadrupole_moment_norm": 21.4020999979, 
			 "total_energy": -717.873644333, 
			 "HOMO_LUMO_gap": 0.14794, 
			 "cosmo_polarized_energy": -31.88, 
			 "cosmo_cavitation_energy": 19.19, 
			 "cosmo_dispersion_energy": -15.05, 
			 "cosmo_repulsion_energy": 1.21, 
			 "cosmo_total_nonelectrostatic_energy": 5.36, 
			 "SMD_solvation_energy": 1.57 
		},
		"coords": [
			{
				"x": -0.2782066685,
				"y": 0.5342182079,
				"z": 0.3759504015,
				"element": "N" 
			},
			{
				"x": -0.9105413178,
				"y": 0.5174387609,
				"z": -0.8247036298,
				"element": "C" 
			},
			{
				"x": -2.4420013637,
				"y": 1.1455938144,
				"z": -0.9955692236,
				"element": "S" 
			},
			{
				"x": -0.1456540596,
				"y": -0.0869223474,
				"z": -1.9308045956,
				"element": "C" 
			},
			{
				"x": 1.1281227699,
				"y": -0.633602391,
				"z": -1.8929148502,
				"element": "C" 
			},
			{
				"x": 1.3851795882,
				"y": -1.05849847,
				"z": -3.1707249552,
				"element": "N" 
			},
			{
				"x": 0.2772891515,
				"y": -0.7591424448,
				"z": -3.9244601597,
				"element": "C" 
			},
			{
				"x": -0.6520678057,
				"y": -0.1790206635,
				"z": -3.2119212513,
				"element": "N" 
			},
			{
				"x": 0.6478869978,
				"y": 0.1637958885,
				"z": 0.5191945886,
				"element": "H" 
			},
			{
				"x": -0.7663534462,
				"y": 0.939160815,
				"z": 1.1599675154,
				"element": "H" 
			},
			{
				"x": 1.8579799156,
				"y": -0.7600201947,
				"z": -1.1075536735,
				"element": "H" 
			},
			{
				"x": 2.2316598747,
				"y": -1.5061829811,
				"z": -3.4901701669,
				"element": "H" 
			},
			{
				"x": 0.2178063637,
				"y": -0.9911179941,
				"z": -4.9789899998,
				"element": "H" 
			}
		],
		 "valence_orbital": [ 
			{
				"type": "occ",
				"energy": -0.29686,
				"method": "rhf"
			},
			{
				"type": "occ",
				"energy": -0.27776,
				"method": "rhf"
			},
			{
				"type": "occ",
				"energy": -0.24925,
				"method": "rhf"
			},
			{
				"type": "occ",
				"energy": -0.21438,
				"method": "rhf"
			},
			{
				"type": "occ",
				"energy": -0.19218,
				"method": "rhf"
			},
			{
				"type": "unocc",
				"energy": -0.04424,
				"method": "rhf"
			},
			{
				"type": "unocc",
				"energy": 0.01811,
				"method": "rhf"
			},
			{
				"type": "unocc",
				"energy": 0.05438,
				"method": "rhf"
			},
			{
				"type": "unocc",
				"energy": 0.06028,
				"method": "rhf"
			},
			{
				"type": "unocc",
				"energy": 0.09893,
				"method": "rhf"
			}
		],
		"cosmo_sigma_profile": { 
			"-0.025": 0.0,
			"-0.024": 0.0,
			"-0.023": 0.0,
			"-0.022": 0.0,
			"-0.021": 0.0,
			"-0.02": 0.0,
			"-0.019": 0.0,
			"-0.018": 0.474036601602,
			"-0.017": 2.1363048379,
			"-0.016": 3.34264232615,
			"-0.015": 3.10781379099,
			"-0.014": 3.83706050921,
			"-0.013": 3.4589304779,
			"-0.012": 4.73377637201,
			"-0.011": 4.14207185422,
			"-0.01": 6.1339833366,
			"-0.009": 4.94191700368,
			"-0.008": 4.74867888108,
			"-0.007": 4.05304813665,
			"-0.006": 3.71931840828,
			"-0.005": 3.16776585701,
			"-0.004": 5.11840976122,
			"-0.003": 3.94490087299,
			"-0.002": 3.24650675867,
			"-0.001": 4.55500992711,
			"0.0": 6.36232126383,
			"0.001": 9.04530895377,
			"0.002": 8.35188512779,
			"0.003": 5.85048069479,
			"0.004": 5.12863051884,
			"0.005": 4.54298242399,
			"0.006": 4.36778575603,
			"0.007": 4.46090807968,
			"0.008": 5.67110742784,
			"0.009": 6.65561940139,
			"0.01": 6.71028046208,
			"0.011": 4.80238837154,
			"0.012": 4.67684001727,
			"0.013": 1.99723783663,
			"0.014": 1.87649721338,
			"0.015": 1.43018875048,
			"0.016": 1.15477884616,
			"0.017": 1.47156920807,
			"0.018": 1.34006190888,
			"0.019": 0.996704457028,
			"0.02": 0.613688965947,
			"0.021": 0.00136615130975,
			"0.022": 0.0,
			"0.023": 0.0,
			"0.024": 0.0,
			"0.025": 0.0
		}
	}
}
