{
	 "smiles": "OC(=O)C1=CC2=C(CCCCC2)S1", 
	 "Tm": 437.15, 
	 "num_atms": 25, 
	 "gaussian": { 
		 "optdone": 1, 
		 "sigma_profile": "yes", 
		 "theory": "DFT", 
		 "functional": "B3LYP", 
		 "basiset": "6-31G**", 
		 "properties": { 
			 "R2extent": 3563.1109, 
			 "electric_dipole_moment_norm": 6.26315561758, 
			 "electric_quadrupole_moment_norm": 23.5623492615, 
			 "total_energy": -936.945542886, 
			 "HOMO_LUMO_gap": 0.18196, 
			 "cosmo_polarized_energy": -15.03, 
			 "cosmo_cavitation_energy": 28.48, 
			 "cosmo_dispersion_energy": -21.68, 
			 "cosmo_repulsion_energy": 1.67, 
			 "cosmo_total_nonelectrostatic_energy": 8.48, 
			 "SMD_solvation_energy": 4.71 
		},
		"coords": [
			{
				"x": -1.8704310086,
				"y": 4.1340100846,
				"z": -0.3252005714,
				"element": "O" 
			},
			{
				"x": -1.4383271159,
				"y": 3.5597236494,
				"z": 0.8310834335,
				"element": "C" 
			},
			{
				"x": -1.5326225093,
				"y": 4.1610211104,
				"z": 1.8779785603,
				"element": "O" 
			},
			{
				"x": -0.8668412732,
				"y": 2.2043012128,
				"z": 0.7248689489,
				"element": "C" 
			},
			{
				"x": -0.5994977389,
				"y": 1.4128880118,
				"z": -0.371521348,
				"element": "C" 
			},
			{
				"x": -0.0288835073,
				"y": 0.1488795009,
				"z": -0.0516989465,
				"element": "C" 
			},
			{
				"x": 0.1355515578,
				"y": -0.0066434563,
				"z": 1.3124159897,
				"element": "C" 
			},
			{
				"x": 0.7043615981,
				"y": -1.1940161966,
				"z": 2.0420859032,
				"element": "C" 
			},
			{
				"x": 0.0128985895,
				"y": -2.5326815421,
				"z": 1.712078573,
				"element": "C" 
			},
			{
				"x": 0.2922329999,
				"y": -3.0844675103,
				"z": 0.3049687285,
				"element": "C" 
			},
			{
				"x": -0.2775050523,
				"y": -2.2779335492,
				"z": -0.8733365513,
				"element": "C" 
			},
			{
				"x": 0.3521013016,
				"y": -0.8868279919,
				"z": -1.0843797899,
				"element": "C" 
			},
			{
				"x": -0.4061763111,
				"y": 1.3889791609,
				"z": 2.1900232847,
				"element": "S" 
			},
			{
				"x": -1.7904926582,
				"y": 3.5162552331,
				"z": -1.0645231146,
				"element": "H" 
			},
			{
				"x": -0.7874850303,
				"y": 1.7118398829,
				"z": -1.3999180012,
				"element": "H" 
			},
			{
				"x": 1.776336024,
				"y": -1.2798746911,
				"z": 1.8095159792,
				"element": "H" 
			},
			{
				"x": 0.6446786776,
				"y": -1.0171030545,
				"z": 3.1213150802,
				"element": "H" 
			},
			{
				"x": -1.068682003,
				"y": -2.4243243694,
				"z": 1.8628717639,
				"element": "H" 
			},
			{
				"x": 0.3563274651,
				"y": -3.2740486543,
				"z": 2.4441313082,
				"element": "H" 
			},
			{
				"x": -0.1152866053,
				"y": -4.1017424571,
				"z": 0.2517588453,
				"element": "H" 
			},
			{
				"x": 1.379349811,
				"y": -3.1885182906,
				"z": 0.1727340704,
				"element": "H" 
			},
			{
				"x": -0.1218952881,
				"y": -2.8613623311,
				"z": -1.7893652066,
				"element": "H" 
			},
			{
				"x": -1.3634974743,
				"y": -2.1678678909,
				"z": -0.7564019799,
				"element": "H" 
			},
			{
				"x": 1.4463487443,
				"y": -0.9960551388,
				"z": -1.1147600006,
				"element": "H" 
			},
			{
				"x": 0.0621368072,
				"y": -0.5128307227,
				"z": -2.0728249591,
				"element": "H" 
			}
		],
		 "valence_orbital": [ 
			{
				"type": "occ",
				"energy": -0.32698,
				"method": "rhf"
			},
			{
				"type": "occ",
				"energy": -0.31024,
				"method": "rhf"
			},
			{
				"type": "occ",
				"energy": -0.27084,
				"method": "rhf"
			},
			{
				"type": "occ",
				"energy": -0.2604,
				"method": "rhf"
			},
			{
				"type": "occ",
				"energy": -0.23563,
				"method": "rhf"
			},
			{
				"type": "unocc",
				"energy": -0.05367,
				"method": "rhf"
			},
			{
				"type": "unocc",
				"energy": 0.0182,
				"method": "rhf"
			},
			{
				"type": "unocc",
				"energy": 0.02793,
				"method": "rhf"
			},
			{
				"type": "unocc",
				"energy": 0.0542,
				"method": "rhf"
			},
			{
				"type": "unocc",
				"energy": 0.07929,
				"method": "rhf"
			}
		],
		"cosmo_sigma_profile": { 
			"-0.025": 0.0,
			"-0.024": 0.0,
			"-0.023": 0.0,
			"-0.022": 0.0,
			"-0.021": 0.0,
			"-0.02": 0.0,
			"-0.019": 0.443324241385,
			"-0.018": 0.886610816775,
			"-0.017": 1.07877950566,
			"-0.016": 1.41843144456,
			"-0.015": 0.481028894708,
			"-0.014": 0.207125084697,
			"-0.013": 1.26258659998,
			"-0.012": 1.54978984693,
			"-0.011": 1.79444813163,
			"-0.01": 0.937169417068,
			"-0.009": 0.661661007305,
			"-0.008": 2.01244695065,
			"-0.007": 2.24570190598,
			"-0.006": 2.46230727331,
			"-0.005": 5.52497736621,
			"-0.004": 9.7762154367,
			"-0.003": 22.4848291748,
			"-0.002": 31.7056006375,
			"-0.001": 33.2926739652,
			"0.0": 23.3440028223,
			"0.001": 13.8024910629,
			"0.002": 13.4517618817,
			"0.003": 15.8765352883,
			"0.004": 6.57826841727,
			"0.005": 3.17782812329,
			"0.006": 3.0667927029,
			"0.007": 2.54316419293,
			"0.008": 2.21248617085,
			"0.009": 3.68723230322,
			"0.01": 4.03374135505,
			"0.011": 5.17964146362,
			"0.012": 5.79436761167,
			"0.013": 2.43398151132,
			"0.014": 0.271389926654,
			"0.015": 0.0,
			"0.016": 0.0,
			"0.017": 0.0,
			"0.018": 0.0,
			"0.019": 0.0,
			"0.02": 0.0,
			"0.021": 0.0,
			"0.022": 0.0,
			"0.023": 0.0,
			"0.024": 0.0,
			"0.0": 0.0
		}
	}
}
