{
	 "smiles": "CSC1=C(C=CC=N1)C(O)=O", 
	 "Tm": 490.15, 
	 "num_atms": 18, 
	 "gaussian": { 
		 "optdone": 1, 
		 "sigma_profile": "yes", 
		 "theory": "DFT", 
		 "functional": "B3LYP", 
		 "basiset": "6-31G**", 
		 "properties": { 
			 "R2extent": 2106.0016, 
			 "electric_dipole_moment_norm": 4.92155993258, 
			 "electric_quadrupole_moment_norm": 10.6544797691, 
			 "total_energy": -874.355024314, 
			 "HOMO_LUMO_gap": 0.1838, 
			 "cosmo_polarized_energy": -11.45, 
			 "cosmo_cavitation_energy": 23.65, 
			 "cosmo_dispersion_energy": -18.22, 
			 "cosmo_repulsion_energy": 1.41, 
			 "cosmo_total_nonelectrostatic_energy": 6.84, 
			 "SMD_solvation_energy": 4.74 
		},
		"coords": [
			{
				"x": 0.2174966879,
				"y": 0.54096851,
				"z": -3.0761246735,
				"element": "C" 
			},
			{
				"x": 0.7531120086,
				"y": -0.3880451375,
				"z": -1.6009728103,
				"element": "S" 
			},
			{
				"x": 0.5363449637,
				"y": 0.8366860083,
				"z": -0.3039849548,
				"element": "C" 
			},
			{
				"x": 0.4500240814,
				"y": 0.4552031287,
				"z": 1.0568308995,
				"element": "C" 
			},
			{
				"x": 0.3993580818,
				"y": 1.4909054191,
				"z": 1.9983601091,
				"element": "C" 
			},
			{
				"x": 0.3856311027,
				"y": 2.8184939929,
				"z": 1.5866457286,
				"element": "C" 
			},
			{
				"x": 0.4255807142,
				"y": 3.0731424595,
				"z": 0.2177843035,
				"element": "C" 
			},
			{
				"x": 0.5141758963,
				"y": 2.1088993565,
				"z": -0.704302755,
				"element": "N" 
			},
			{
				"x": 0.3930090049,
				"y": -0.9410404044,
				"z": 1.6326243364,
				"element": "C" 
			},
			{
				"x": 0.0359466202,
				"y": -1.9616203276,
				"z": 0.8297838704,
				"element": "O" 
			},
			{
				"x": 0.6274549028,
				"y": -1.1435429474,
				"z": 2.8031409027,
				"element": "O" 
			},
			{
				"x": 0.8414182956,
				"y": 1.4242555181,
				"z": -3.2009717244,
				"element": "H" 
			},
			{
				"x": 0.3495254315,
				"y": -0.1443284039,
				"z": -3.915723656,
				"element": "H" 
			},
			{
				"x": -0.829505567,
				"y": 0.8337718232,
				"z": -2.9914286396,
				"element": "H" 
			},
			{
				"x": 0.3607582856,
				"y": 1.2151073745,
				"z": 3.0466552406,
				"element": "H" 
			},
			{
				"x": 0.3360910434,
				"y": 3.6321081851,
				"z": 2.3020720685,
				"element": "H" 
			},
			{
				"x": 0.3937012932,
				"y": 4.0920342458,
				"z": -0.1631464127,
				"element": "H" 
			},
			{
				"x": -0.1679228468,
				"y": -1.659798801,
				"z": -0.0766418331,
				"element": "H" 
			}
		],
		 "valence_orbital": [ 
			{
				"type": "occ",
				"energy": -0.31371,
				"method": "rhf"
			},
			{
				"type": "occ",
				"energy": -0.29873,
				"method": "rhf"
			},
			{
				"type": "occ",
				"energy": -0.28798,
				"method": "rhf"
			},
			{
				"type": "occ",
				"energy": -0.26834,
				"method": "rhf"
			},
			{
				"type": "occ",
				"energy": -0.24593,
				"method": "rhf"
			},
			{
				"type": "unocc",
				"energy": -0.06213,
				"method": "rhf"
			},
			{
				"type": "unocc",
				"energy": -0.04126,
				"method": "rhf"
			},
			{
				"type": "unocc",
				"energy": 0.01654,
				"method": "rhf"
			},
			{
				"type": "unocc",
				"energy": 0.03917,
				"method": "rhf"
			},
			{
				"type": "unocc",
				"energy": 0.05905,
				"method": "rhf"
			}
		],
		"cosmo_sigma_profile": { 
			"-0.025": 0.0,
			"-0.024": 0.0,
			"-0.023": 0.0,
			"-0.022": 0.0,
			"-0.021": 0.0,
			"-0.02": 0.0,
			"-0.019": 0.0,
			"-0.018": 0.0,
			"-0.017": 0.0,
			"-0.016": 0.0,
			"-0.015": 0.0,
			"-0.014": 0.0,
			"-0.013": 0.0,
			"-0.012": 0.00143717375038,
			"-0.011": 0.53544640999,
			"-0.01": 1.31562603853,
			"-0.009": 1.16836706193,
			"-0.008": 3.43820841689,
			"-0.007": 10.0317600298,
			"-0.006": 12.5218526228,
			"-0.005": 12.636056144,
			"-0.004": 12.8491709905,
			"-0.003": 13.6562308135,
			"-0.002": 16.3134582523,
			"-0.001": 15.261712753,
			"0.0": 17.4240950967,
			"0.001": 14.9214918542,
			"0.002": 8.96549861594,
			"0.003": 6.4121964649,
			"0.004": 5.73533702249,
			"0.005": 4.67048564017,
			"0.006": 4.50585586372,
			"0.007": 5.60466872052,
			"0.008": 4.01984960998,
			"0.009": 4.34355701604,
			"0.01": 4.84543092464,
			"0.011": 5.43293896793,
			"0.012": 3.64831080767,
			"0.013": 1.255021829,
			"0.014": 0.0116367780232,
			"0.015": 0.0,
			"0.016": 0.0,
			"0.017": 0.0,
			"0.018": 0.0,
			"0.019": 0.0,
			"0.02": 0.0,
			"0.021": 0.0,
			"0.022": 0.0,
			"0.023": 0.0,
			"0.024": 0.0,
			"0.025": 0.0
		}
	}
}
