{
	 "smiles": "CCCCCCCCCBr", 
	 "Tm": 244.15, 
	 "num_atms": 29, 
	 "gaussian": { 
		 "optdone": 1, 
		 "sigma_profile": "yes", 
		 "theory": "DFT", 
		 "functional": "B3LYP", 
		 "basiset": "6-31G**", 
		 "properties": { 
			 "R2extent": 7341.6069, 
			 "electric_dipole_moment_norm": 2.50846157834, 
			 "electric_quadrupole_moment_norm": 15.351060507, 
			 "total_energy": -2925.84191077, 
			 "HOMO_LUMO_gap": 0.2725, 
			 "cosmo_polarized_energy": -3.73, 
			 "cosmo_cavitation_energy": 31.99, 
			 "cosmo_dispersion_energy": -23.07, 
			 "cosmo_repulsion_energy": 1.94, 
			 "cosmo_total_nonelectrostatic_energy": 10.86, 
			 "SMD_solvation_energy": 3.31 
		},
		"coords": [
			{
				"x": 0.7048344703,
				"y": -3.4020401905,
				"z": 0.4889102094,
				"element": "C" 
			},
			{
				"x": 0.2826347688,
				"y": -2.79979097,
				"z": 1.8339806623,
				"element": "C" 
			},
			{
				"x": 0.2061152432,
				"y": -1.2629063744,
				"z": 1.8804748305,
				"element": "C" 
			},
			{
				"x": -0.8515995127,
				"y": -0.6255706841,
				"z": 0.9488157792,
				"element": "C" 
			},
			{
				"x": -0.3423548019,
				"y": -0.1632891506,
				"z": -0.4310280618,
				"element": "C" 
			},
			{
				"x": 0.526787826,
				"y": 1.1023472904,
				"z": -0.3720739466,
				"element": "C" 
			},
			{
				"x": 1.125012384,
				"y": 1.5345047196,
				"z": -1.7220826083,
				"element": "C" 
			},
			{
				"x": 0.0787498049,
				"y": 1.9748832399,
				"z": -2.7616255161,
				"element": "C" 
			},
			{
				"x": 0.7436237166,
				"y": 2.4653772998,
				"z": -4.0386834399,
				"element": "C" 
			},
			{
				"x": -0.5883637072,
				"y": 3.0346356443,
				"z": -5.3949379381,
				"element": "Br" 
			},
			{
				"x": 1.6753790617,
				"y": -3.0091862272,
				"z": 0.1636414849,
				"element": "H" 
			},
			{
				"x": -0.0224073382,
				"y": -3.1878920464,
				"z": -0.3008969753,
				"element": "H" 
			},
			{
				"x": 0.7962668412,
				"y": -4.4911426192,
				"z": 0.560190377,
				"element": "H" 
			},
			{
				"x": -0.695488267,
				"y": -3.2103740551,
				"z": 2.1206308286,
				"element": "H" 
			},
			{
				"x": 0.9868232811,
				"y": -3.1332654114,
				"z": 2.6074706257,
				"element": "H" 
			},
			{
				"x": 1.1988415207,
				"y": -0.8459524452,
				"z": 1.662070984,
				"element": "H" 
			},
			{
				"x": -0.0121715549,
				"y": -0.9740103549,
				"z": 2.9159905254,
				"element": "H" 
			},
			{
				"x": -1.2990591487,
				"y": 0.2430477144,
				"z": 1.4499166912,
				"element": "H" 
			},
			{
				"x": -1.6745667353,
				"y": -1.3389378564,
				"z": 0.8079006707,
				"element": "H" 
			},
			{
				"x": -1.2102081946,
				"y": 0.0230574963,
				"z": -1.0758150264,
				"element": "H" 
			},
			{
				"x": 0.2271098693,
				"y": -0.9689523002,
				"z": -0.9118591041,
				"element": "H" 
			},
			{
				"x": -0.0681115003,
				"y": 1.9292108996,
				"z": 0.0414559841,
				"element": "H" 
			},
			{
				"x": 1.3536016237,
				"y": 0.9446365858,
				"z": 0.331893258,
				"element": "H" 
			},
			{
				"x": 1.7242011476,
				"y": 0.7100151218,
				"z": -2.1335970268,
				"element": "H" 
			},
			{
				"x": 1.8245568404,
				"y": 2.3632752728,
				"z": -1.5484942703,
				"element": "H" 
			},
			{
				"x": -0.5943203538,
				"y": 1.1465353419,
				"z": -3.0045674202,
				"element": "H" 
			},
			{
				"x": -0.5433366604,
				"y": 2.7761548269,
				"z": -2.3454277624,
				"element": "H" 
			},
			{
				"x": 1.3318004529,
				"y": 1.687672524,
				"z": -4.5269439363,
				"element": "H" 
			},
			{
				"x": 1.3717489225,
				"y": 3.3410567081,
				"z": -3.8719098784,
				"element": "H" 
			}
		],
		 "valence_orbital": [ 
			{
				"type": "occ",
				"energy": -0.31379,
				"method": "rhf"
			},
			{
				"type": "occ",
				"energy": -0.30833,
				"method": "rhf"
			},
			{
				"type": "occ",
				"energy": -0.30599,
				"method": "rhf"
			},
			{
				"type": "occ",
				"energy": -0.26683,
				"method": "rhf"
			},
			{
				"type": "occ",
				"energy": -0.26668,
				"method": "rhf"
			},
			{
				"type": "unocc",
				"energy": 0.00582,
				"method": "rhf"
			},
			{
				"type": "unocc",
				"energy": 0.08071,
				"method": "rhf"
			},
			{
				"type": "unocc",
				"energy": 0.09157,
				"method": "rhf"
			},
			{
				"type": "unocc",
				"energy": 0.10663,
				"method": "rhf"
			},
			{
				"type": "unocc",
				"energy": 0.10917,
				"method": "rhf"
			}
		],
		"cosmo_sigma_profile": { 
			"-0.025": 0.0,
			"-0.024": 0.0,
			"-0.023": 0.0,
			"-0.022": 0.0,
			"-0.021": 0.0,
			"-0.02": 0.0,
			"-0.019": 0.0,
			"-0.018": 0.0,
			"-0.017": 0.0,
			"-0.016": 0.0,
			"-0.015": 0.0,
			"-0.014": 0.0,
			"-0.013": 0.0,
			"-0.012": 0.0,
			"-0.011": 0.0,
			"-0.01": 0.0,
			"-0.009": 0.0,
			"-0.008": 0.0,
			"-0.007": 0.58852970953,
			"-0.006": 4.44630903305,
			"-0.005": 4.90536723674,
			"-0.004": 6.61055740887,
			"-0.003": 16.8013513516,
			"-0.002": 34.6005006236,
			"-0.001": 46.0444100823,
			"0.0": 49.608062435,
			"0.001": 36.7613093154,
			"0.002": 15.9708457876,
			"0.003": 5.01105517247,
			"0.004": 4.99592912212,
			"0.005": 5.30033232977,
			"0.006": 9.9416044077,
			"0.007": 7.87722564751,
			"0.008": 0.0120279827489,
			"0.009": 0.0,
			"0.01": 0.0,
			"0.011": 0.0,
			"0.012": 0.0,
			"0.013": 0.0,
			"0.014": 0.0,
			"0.015": 0.0,
			"0.016": 0.0,
			"0.017": 0.0,
			"0.018": 0.0,
			"0.019": 0.0,
			"0.02": 0.0,
			"0.021": 0.0,
			"0.022": 0.0,
			"0.023": 0.0,
			"0.024": 0.0,
			"0.025": 0.0
		}
	}
}
