{
	 "smiles": "O=C1NC2=CC=CC=C2O1", 
	 "Tm": 412.15, 
	 "num_atms": 15, 
	 "gaussian": { 
		 "optdone": 1, 
		 "sigma_profile": "yes", 
		 "theory": "DFT", 
		 "functional": "B3LYP", 
		 "basiset": "6-31G**", 
		 "properties": { 
			 "R2extent": 1992.3087, 
			 "electric_dipole_moment_norm": 4.23347654417, 
			 "electric_quadrupole_moment_norm": 13.6652759153, 
			 "total_energy": -474.974458767, 
			 "HOMO_LUMO_gap": 0.20985, 
			 "cosmo_polarized_energy": -12.05, 
			 "cosmo_cavitation_energy": 19.58, 
			 "cosmo_dispersion_energy": -15.14, 
			 "cosmo_repulsion_energy": 1.22, 
			 "cosmo_total_nonelectrostatic_energy": 5.66, 
			 "SMD_solvation_energy": 4.63 
		},
		"coords": [
			{
				"x": -0.5737245551,
				"y": -2.3913911813,
				"z": 3.1676893828,
				"element": "O" 
			},
			{
				"x": -0.0849894768,
				"y": -2.0120123859,
				"z": 2.1361661132,
				"element": "C" 
			},
			{
				"x": 0.6159746155,
				"y": -0.8471588288,
				"z": 1.8732491591,
				"element": "N" 
			},
			{
				"x": 1.008508215,
				"y": -0.800817149,
				"z": 0.5378331497,
				"element": "C" 
			},
			{
				"x": 1.7151917769,
				"y": 0.1191697634,
				"z": -0.2257764066,
				"element": "C" 
			},
			{
				"x": 1.9160789069,
				"y": -0.1974203769,
				"z": -1.5765308162,
				"element": "C" 
			},
			{
				"x": 1.4273652754,
				"y": -1.3852911823,
				"z": -2.1302897407,
				"element": "C" 
			},
			{
				"x": 0.7141194695,
				"y": -2.3110526326,
				"z": -1.3542242799,
				"element": "C" 
			},
			{
				"x": 0.523529686,
				"y": -1.9863175999,
				"z": -0.0248326217,
				"element": "C" 
			},
			{
				"x": -0.1371985727,
				"y": -2.7196389045,
				"z": 0.937814182,
				"element": "O" 
			},
			{
				"x": 0.7875572322,
				"y": -0.1626771461,
				"z": 2.5918754439,
				"element": "H" 
			},
			{
				"x": 2.0954494715,
				"y": 1.0413498327,
				"z": 0.2010647741,
				"element": "H" 
			},
			{
				"x": 2.4641142388,
				"y": 0.4975555938,
				"z": -2.2049005472,
				"element": "H" 
			},
			{
				"x": 1.6017834689,
				"y": -1.5974842783,
				"z": -3.1801977862,
				"element": "H" 
			},
			{
				"x": 0.3286402477,
				"y": -3.2360135241,
				"z": -1.7675400061,
				"element": "H" 
			}
		],
		 "valence_orbital": [ 
			{
				"type": "occ",
				"energy": -0.36406,
				"method": "rhf"
			},
			{
				"type": "occ",
				"energy": -0.32202,
				"method": "rhf"
			},
			{
				"type": "occ",
				"energy": -0.29085,
				"method": "rhf"
			},
			{
				"type": "occ",
				"energy": -0.25784,
				"method": "rhf"
			},
			{
				"type": "occ",
				"energy": -0.22728,
				"method": "rhf"
			},
			{
				"type": "unocc",
				"energy": -0.01743,
				"method": "rhf"
			},
			{
				"type": "unocc",
				"energy": -0.00067,
				"method": "rhf"
			},
			{
				"type": "unocc",
				"energy": 0.04749,
				"method": "rhf"
			},
			{
				"type": "unocc",
				"energy": 0.07057,
				"method": "rhf"
			},
			{
				"type": "unocc",
				"energy": 0.08456,
				"method": "rhf"
			}
		],
		"cosmo_sigma_profile": { 
			"-0.025": 0.0,
			"-0.024": 0.0,
			"-0.023": 0.0,
			"-0.022": 0.0,
			"-0.021": 0.0,
			"-0.02": 0.0,
			"-0.019": 0.0,
			"-0.018": 0.10017253909,
			"-0.017": 1.52337272244,
			"-0.016": 1.48874580389,
			"-0.015": 0.621794564953,
			"-0.014": 1.20442469375,
			"-0.013": 1.32850826852,
			"-0.012": 1.09588358565,
			"-0.011": 1.09538357316,
			"-0.01": 0.870067840317,
			"-0.009": 0.959696084421,
			"-0.008": 2.43138038485,
			"-0.007": 5.24517202414,
			"-0.006": 6.88979407261,
			"-0.005": 10.9744529164,
			"-0.004": 10.2694826306,
			"-0.003": 9.26882567868,
			"-0.002": 10.1653543947,
			"-0.001": 9.50088891265,
			"0.0": 8.89173035627,
			"0.001": 10.8290875769,
			"0.002": 9.89274408396,
			"0.003": 9.76833023091,
			"0.004": 9.71865457296,
			"0.005": 7.90489373999,
			"0.006": 2.56932547423,
			"0.007": 3.74044507538,
			"0.008": 3.52143753024,
			"0.009": 1.94381426219,
			"0.01": 1.91238316314,
			"0.011": 4.17583296937,
			"0.012": 6.60759155252,
			"0.013": 1.31103913116,
			"0.014": 0.0,
			"0.015": 0.0,
			"0.016": 0.0,
			"0.017": 0.0,
			"0.018": 0.0,
			"0.019": 0.0,
			"0.02": 0.0,
			"0.021": 0.0,
			"0.022": 0.0,
			"0.023": 0.0,
			"0.024": 0.0,
			"0.025": 0.0
		}
	}
}
