{
	 "smiles": "ON=C(C(=NO)C1=CC=CC=C1)C1=CC=CC=C1", 
	 "Tm": 519.15, 
	 "num_atms": 30, 
	 "gaussian": { 
		 "optdone": 1, 
		 "sigma_profile": "yes", 
		 "theory": "DFT", 
		 "functional": "B3LYP", 
		 "basiset": "6-31G**", 
		 "properties": { 
			 "R2extent": 4552.2954, 
			 "electric_dipole_moment_norm": 0.584876636565, 
			 "electric_quadrupole_moment_norm": 5.49524624289, 
			 "total_energy": -800.547530959, 
			 "HOMO_LUMO_gap": 0.18224, 
			 "cosmo_polarized_energy": -14.37, 
			 "cosmo_cavitation_energy": 34.9, 
			 "cosmo_dispersion_energy": -24.44, 
			 "cosmo_repulsion_energy": 1.93, 
			 "cosmo_total_nonelectrostatic_energy": 12.39, 
			 "SMD_solvation_energy": 6.04 
		},
		"coords": [
			{
				"x": 1.7275650481,
				"y": 2.4663221275,
				"z": -0.0635518725,
				"element": "O" 
			},
			{
				"x": 2.1188973962,
				"y": 1.1652212518,
				"z": -0.3920637289,
				"element": "N" 
			},
			{
				"x": 1.2612488246,
				"y": 0.2823422161,
				"z": -0.0149205423,
				"element": "C" 
			},
			{
				"x": -0.0095414137,
				"y": 0.6403118571,
				"z": 0.7218745242,
				"element": "C" 
			},
			{
				"x": 0.1682860881,
				"y": 0.6393938106,
				"z": 1.9969050448,
				"element": "N" 
			},
			{
				"x": -0.9699905807,
				"y": 0.9776114621,
				"z": 2.7393691234,
				"element": "O" 
			},
			{
				"x": -1.2329548433,
				"y": 0.9036679584,
				"z": -0.0766752732,
				"element": "C" 
			},
			{
				"x": -1.0925532982,
				"y": 1.346148425,
				"z": -1.4054803215,
				"element": "C" 
			},
			{
				"x": -2.2098382882,
				"y": 1.5780159401,
				"z": -2.2037809986,
				"element": "C" 
			},
			{
				"x": -3.4918531308,
				"y": 1.3575049773,
				"z": -1.6976187773,
				"element": "C" 
			},
			{
				"x": -3.6450899401,
				"y": 0.9087529013,
				"z": -0.3847291057,
				"element": "C" 
			},
			{
				"x": -2.5317025895,
				"y": 0.6878794869,
				"z": 0.4238300476,
				"element": "C" 
			},
			{
				"x": 1.5453102862,
				"y": -1.1365385601,
				"z": -0.3402909286,
				"element": "C" 
			},
			{
				"x": 0.7113793702,
				"y": -2.1596088867,
				"z": 0.1367400689,
				"element": "C" 
			},
			{
				"x": 0.9773376856,
				"y": -3.4946546663,
				"z": -0.1705927564,
				"element": "C" 
			},
			{
				"x": 2.0795247457,
				"y": -3.8292201891,
				"z": -0.9559132312,
				"element": "C" 
			},
			{
				"x": 2.9172924611,
				"y": -2.8165752678,
				"z": -1.4354428825,
				"element": "C" 
			},
			{
				"x": 2.6540654075,
				"y": -1.484951803,
				"z": -1.1346847297,
				"element": "C" 
			},
			{
				"x": 2.4647300333,
				"y": 2.9920914127,
				"z": -0.4022024946,
				"element": "H" 
			},
			{
				"x": -0.6250453617,
				"y": 0.9665742587,
				"z": 3.6420984304,
				"element": "H" 
			},
			{
				"x": -0.1012962967,
				"y": 1.5248280737,
				"z": -1.8064345154,
				"element": "H" 
			},
			{
				"x": -2.0777483858,
				"y": 1.9283604165,
				"z": -3.2233854029,
				"element": "H" 
			},
			{
				"x": -4.3639438216,
				"y": 1.5333547075,
				"z": -2.3209867257,
				"element": "H" 
			},
			{
				"x": -4.6386980165,
				"y": 0.7301076842,
				"z": 0.0164619187,
				"element": "H" 
			},
			{
				"x": -2.663418359,
				"y": 0.3459217447,
				"z": 1.4407399463,
				"element": "H" 
			},
			{
				"x": -0.1442297186,
				"y": -1.9132603832,
				"z": 0.7555557287,
				"element": "H" 
			},
			{
				"x": 0.3203418039,
				"y": -4.2725009642,
				"z": 0.2077785367,
				"element": "H" 
			},
			{
				"x": 2.2861385352,
				"y": -4.8684712634,
				"z": -1.1949661565,
				"element": "H" 
			},
			{
				"x": 3.7777027316,
				"y": -3.068128913,
				"z": -2.0492120893,
				"element": "H" 
			},
			{
				"x": 3.2993836268,
				"y": -0.6978998156,
				"z": -1.5080208368,
				"element": "H" 
			}
		],
		 "valence_orbital": [ 
			{
				"type": "occ",
				"energy": -0.26504,
				"method": "rhf"
			},
			{
				"type": "occ",
				"energy": -0.24994,
				"method": "rhf"
			},
			{
				"type": "occ",
				"energy": -0.24939,
				"method": "rhf"
			},
			{
				"type": "occ",
				"energy": -0.23165,
				"method": "rhf"
			},
			{
				"type": "occ",
				"energy": -0.22468,
				"method": "rhf"
			},
			{
				"type": "unocc",
				"energy": -0.04244,
				"method": "rhf"
			},
			{
				"type": "unocc",
				"energy": -0.03708,
				"method": "rhf"
			},
			{
				"type": "unocc",
				"energy": 0.0002,
				"method": "rhf"
			},
			{
				"type": "unocc",
				"energy": 0.00209,
				"method": "rhf"
			},
			{
				"type": "unocc",
				"energy": 0.03838,
				"method": "rhf"
			}
		],
		"cosmo_sigma_profile": { 
			"-0.025": 0.0,
			"-0.024": 0.0,
			"-0.023": 0.0,
			"-0.022": 0.0,
			"-0.021": 0.0,
			"-0.02": 0.0,
			"-0.019": 0.0,
			"-0.018": 0.889406832529,
			"-0.017": 2.33441272363,
			"-0.016": 1.88228519858,
			"-0.015": 1.68550405911,
			"-0.014": 1.15384405055,
			"-0.013": 1.20593596915,
			"-0.012": 1.65760767156,
			"-0.011": 1.59735067243,
			"-0.01": 1.67693891411,
			"-0.009": 0.829429766104,
			"-0.008": 1.44479760827,
			"-0.007": 2.01005957438,
			"-0.006": 12.9672291279,
			"-0.005": 17.9825406996,
			"-0.004": 23.8299481867,
			"-0.003": 18.3680028065,
			"-0.002": 14.9512219128,
			"-0.001": 14.4266263875,
			"0.0": 15.9680408059,
			"0.001": 17.383922332,
			"0.002": 19.9148815673,
			"0.003": 22.6618966655,
			"0.004": 29.2431813599,
			"0.005": 23.7411028088,
			"0.006": 8.00358890159,
			"0.007": 5.68212732889,
			"0.008": 5.70351876134,
			"0.009": 5.27582686534,
			"0.01": 3.25674063274,
			"0.011": 0.841521296638,
			"0.012": 0.62883769572,
			"0.013": 0.190328933913,
			"0.014": 0.0,
			"0.015": 0.0,
			"0.016": 0.0,
			"0.017": 0.0,
			"0.018": 0.0,
			"0.019": 0.0,
			"0.02": 0.0,
			"0.021": 0.0,
			"0.022": 0.0,
			"0.023": 0.0,
			"0.024": 0.0,
			"0.025": 0.0
		}
	}
}
