{
	 "smiles": "COC(=O)C1(C)C(=C)N(C(C)=O)C2=CC=CC=C12", 
	 "Tm": 333.15, 
	 "num_atms": 33, 
	 "gaussian": { 
		 "optdone": 1, 
		 "sigma_profile": "yes", 
		 "theory": "DFT", 
		 "functional": "B3LYP", 
		 "basiset": "6-31G**", 
		 "properties": { 
			 "R2extent": 4583.4214, 
			 "electric_dipole_moment_norm": 4.14034624277, 
			 "electric_quadrupole_moment_norm": 12.6788843579, 
			 "total_energy": -822.954549373, 
			 "HOMO_LUMO_gap": 0.18736, 
			 "cosmo_polarized_energy": -13.79, 
			 "cosmo_cavitation_energy": 35.71, 
			 "cosmo_dispersion_energy": -24.48, 
			 "cosmo_repulsion_energy": 1.88, 
			 "cosmo_total_nonelectrostatic_energy": 13.1, 
			 "SMD_solvation_energy": 8.84 
		},
		"coords": [
			{
				"x": -3.3852316409,
				"y": -0.4283169085,
				"z": 2.3146517897,
				"element": "C" 
			},
			{
				"x": -2.4824898425,
				"y": -0.5028110761,
				"z": 1.1972283073,
				"element": "O" 
			},
			{
				"x": -1.190882226,
				"y": -0.2247914363,
				"z": 1.4834519763,
				"element": "C" 
			},
			{
				"x": -0.7983188549,
				"y": 0.0455975341,
				"z": 2.5951547021,
				"element": "O" 
			},
			{
				"x": -0.3118726319,
				"y": -0.2457560703,
				"z": 0.2149056627,
				"element": "C" 
			},
			{
				"x": -0.7938301,
				"y": -1.2873232601,
				"z": -0.8141678164,
				"element": "C" 
			},
			{
				"x": -0.3072162596,
				"y": 1.1875945349,
				"z": -0.3629967348,
				"element": "C" 
			},
			{
				"x": -1.3399270216,
				"y": 1.7110687653,
				"z": -1.033466701,
				"element": "C" 
			},
			{
				"x": 0.9735609919,
				"y": 1.761550221,
				"z": -0.1168251228,
				"element": "N" 
			},
			{
				"x": 1.3406379493,
				"y": 3.1141830974,
				"z": -0.146642818,
				"element": "C" 
			},
			{
				"x": 0.2577085916,
				"y": 4.1707661007,
				"z": -0.2487113376,
				"element": "C" 
			},
			{
				"x": 2.5132272014,
				"y": 3.4438530554,
				"z": -0.0512524404,
				"element": "O" 
			},
			{
				"x": 1.8656104209,
				"y": 0.7369504672,
				"z": 0.3386971419,
				"element": "C" 
			},
			{
				"x": 3.2425435221,
				"y": 0.7953665088,
				"z": 0.5596723235,
				"element": "C" 
			},
			{
				"x": 3.872220827,
				"y": -0.3568182972,
				"z": 1.0430528541,
				"element": "C" 
			},
			{
				"x": 3.1589832702,
				"y": -1.5297654411,
				"z": 1.2959728811,
				"element": "C" 
			},
			{
				"x": 1.7814543669,
				"y": -1.5718986238,
				"z": 1.0602301603,
				"element": "C" 
			},
			{
				"x": 1.1456773063,
				"y": -0.4362661595,
				"z": 0.5774394044,
				"element": "C" 
			},
			{
				"x": -4.3661915311,
				"y": -0.6894834557,
				"z": 1.9179785384,
				"element": "H" 
			},
			{
				"x": -3.3948259362,
				"y": 0.5814038383,
				"z": 2.732488912,
				"element": "H" 
			},
			{
				"x": -3.086093126,
				"y": -1.1301196807,
				"z": 3.0966567529,
				"element": "H" 
			},
			{
				"x": -1.8225861646,
				"y": -1.1001858885,
				"z": -1.1237313396,
				"element": "H" 
			},
			{
				"x": -0.1471730485,
				"y": -1.2581003823,
				"z": -1.6943822896,
				"element": "H" 
			},
			{
				"x": -0.748745762,
				"y": -2.2934841616,
				"z": -0.3867652301,
				"element": "H" 
			},
			{
				"x": -2.2540004734,
				"y": 1.1364536784,
				"z": -1.1146509412,
				"element": "H" 
			},
			{
				"x": -1.3257896453,
				"y": 2.6772769761,
				"z": -1.5136851363,
				"element": "H" 
			},
			{
				"x": 0.6846715063,
				"y": 5.0846707796,
				"z": 0.1656488908,
				"element": "H" 
			},
			{
				"x": -0.6563111466,
				"y": 3.9033952,
				"z": 0.2844294464,
				"element": "H" 
			},
			{
				"x": 0.0025184105,
				"y": 4.3671354656,
				"z": -1.2953918428,
				"element": "H" 
			},
			{
				"x": 3.7940600142,
				"y": 1.7017719387,
				"z": 0.3644099728,
				"element": "H" 
			},
			{
				"x": 4.9434073781,
				"y": -0.3298424698,
				"z": 1.2210892097,
				"element": "H" 
			},
			{
				"x": 3.6719872378,
				"y": -2.4093394389,
				"z": 1.6727368496,
				"element": "H" 
			},
			{
				"x": 1.2167164162,
				"y": -2.478835411,
				"z": 1.2569739747,
				"element": "H" 
			}
		],
		 "valence_orbital": [ 
			{
				"type": "occ",
				"energy": -0.27992,
				"method": "rhf"
			},
			{
				"type": "occ",
				"energy": -0.26146,
				"method": "rhf"
			},
			{
				"type": "occ",
				"energy": -0.25718,
				"method": "rhf"
			},
			{
				"type": "occ",
				"energy": -0.24647,
				"method": "rhf"
			},
			{
				"type": "occ",
				"energy": -0.21058,
				"method": "rhf"
			},
			{
				"type": "unocc",
				"energy": -0.02322,
				"method": "rhf"
			},
			{
				"type": "unocc",
				"energy": -0.00609,
				"method": "rhf"
			},
			{
				"type": "unocc",
				"energy": 9e-05,
				"method": "rhf"
			},
			{
				"type": "unocc",
				"energy": 0.01277,
				"method": "rhf"
			},
			{
				"type": "unocc",
				"energy": 0.05715,
				"method": "rhf"
			}
		],
		"cosmo_sigma_profile": { 
			"-0.025": 0.0,
			"-0.024": 0.0,
			"-0.023": 0.0,
			"-0.022": 0.0,
			"-0.021": 0.0,
			"-0.02": 0.0,
			"-0.019": 0.0,
			"-0.018": 0.0,
			"-0.017": 0.0,
			"-0.016": 0.0,
			"-0.015": 0.0,
			"-0.014": 0.0,
			"-0.013": 0.0,
			"-0.012": 0.0,
			"-0.011": 0.0,
			"-0.01": 0.0,
			"-0.009": 0.0164704956473,
			"-0.008": 2.36692488668,
			"-0.007": 5.28613774253,
			"-0.006": 16.0253651678,
			"-0.005": 22.8547015084,
			"-0.004": 29.5249181294,
			"-0.003": 30.4715716195,
			"-0.002": 24.3047102314,
			"-0.001": 24.0065339569,
			"0.0": 18.4294386989,
			"0.001": 16.7608170899,
			"0.002": 14.7461175144,
			"0.003": 15.586725435,
			"0.004": 14.1719312548,
			"0.005": 12.8508880404,
			"0.006": 7.46070562719,
			"0.007": 3.5838748497,
			"0.008": 2.51367747865,
			"0.009": 3.9588896844,
			"0.01": 4.63065702083,
			"0.011": 5.57952523225,
			"0.012": 5.98323928858,
			"0.013": 2.10419940901,
			"0.014": 0.322343065506,
			"0.015": 0.0,
			"0.016": 0.0,
			"0.017": 0.0,
			"0.018": 0.0,
			"0.019": 0.0,
			"0.02": 0.0,
			"0.021": 0.0,
			"0.022": 0.0,
			"0.023": 0.0,
			"0.024": 0.0,
			"0.025": 0.0
		}
	}
}
