{
	 "smiles": "OC1=CC=C2C(=O)C=C(OC2=C1)C1=CC=CC=C1", 
	 "Tm": 519.15, 
	 "num_atms": 28, 
	 "gaussian": { 
		 "optdone": 1, 
		 "sigma_profile": "yes", 
		 "theory": "DFT", 
		 "functional": "B3LYP", 
		 "basiset": "6-31G**", 
		 "properties": { 
			 "R2extent": 6062.7465, 
			 "electric_dipole_moment_norm": 3.24984365624, 
			 "electric_quadrupole_moment_norm": 28.1260594864, 
			 "total_energy": -803.293244444, 
			 "HOMO_LUMO_gap": 0.16865, 
			 "cosmo_polarized_energy": -16.19, 
			 "cosmo_cavitation_energy": 32.95, 
			 "cosmo_dispersion_energy": -24.34, 
			 "cosmo_repulsion_energy": 1.82, 
			 "cosmo_total_nonelectrostatic_energy": 10.44, 
			 "SMD_solvation_energy": 6.65 
		},
		"coords": [
			{
				"x": -1.2914164491,
				"y": 3.1936924585,
				"z": -2.9534911173,
				"element": "O" 
			},
			{
				"x": -1.2624831328,
				"y": 2.9271769842,
				"z": -1.6194289473,
				"element": "C" 
			},
			{
				"x": -1.9381096618,
				"y": 3.7296677906,
				"z": -0.6779446964,
				"element": "C" 
			},
			{
				"x": -1.8731403194,
				"y": 3.4102987581,
				"z": 0.667283953,
				"element": "C" 
			},
			{
				"x": -1.1431258582,
				"y": 2.2973406134,
				"z": 1.1122331036,
				"element": "C" 
			},
			{
				"x": -1.0677351311,
				"y": 1.9380014505,
				"z": 2.5420799162,
				"element": "C" 
			},
			{
				"x": -1.6302505928,
				"y": 2.585346855,
				"z": 3.4266355093,
				"element": "O" 
			},
			{
				"x": -0.2743489442,
				"y": 0.7413073508,
				"z": 2.8062106823,
				"element": "C" 
			},
			{
				"x": 0.3501075685,
				"y": 0.04811697,
				"z": 1.8201748946,
				"element": "C" 
			},
			{
				"x": 0.2558431872,
				"y": 0.4165188885,
				"z": 0.5072534082,
				"element": "O" 
			},
			{
				"x": -0.4818862377,
				"y": 1.5163275973,
				"z": 0.1530379697,
				"element": "C" 
			},
			{
				"x": -0.5298144607,
				"y": 1.8154608898,
				"z": -1.2079769577,
				"element": "C" 
			},
			{
				"x": 1.1733806511,
				"y": -1.1638653428,
				"z": 1.9958983129,
				"element": "C" 
			},
			{
				"x": 1.4182762678,
				"y": -2.0217661543,
				"z": 0.9101179411,
				"element": "C" 
			},
			{
				"x": 2.1797684443,
				"y": -3.176333015,
				"z": 1.079787325,
				"element": "C" 
			},
			{
				"x": 2.7131511538,
				"y": -3.4908798048,
				"z": 2.3306804887,
				"element": "C" 
			},
			{
				"x": 2.4839250548,
				"y": -2.6384078647,
				"z": 3.4135687888,
				"element": "C" 
			},
			{
				"x": 1.7242654639,
				"y": -1.4835658774,
				"z": 3.2489887871,
				"element": "C" 
			},
			{
				"x": -1.8259493143,
				"y": 3.9831477688,
				"z": -3.1100883488,
				"element": "H" 
			},
			{
				"x": -2.5060430533,
				"y": 4.5942651506,
				"z": -1.013952049,
				"element": "H" 
			},
			{
				"x": -2.382030885,
				"y": 4.0064391551,
				"z": 1.4177204371,
				"element": "H" 
			},
			{
				"x": -0.2111064086,
				"y": 0.4051271637,
				"z": 3.8331240024,
				"element": "H" 
			},
			{
				"x": -0.0085186965,
				"y": 1.199570249,
				"z": -1.9309433222,
				"element": "H" 
			},
			{
				"x": 1.0035067706,
				"y": -1.7815330442,
				"z": -0.0617720563,
				"element": "H" 
			},
			{
				"x": 2.3549865925,
				"y": -3.8322494969,
				"z": 0.2321054264,
				"element": "H" 
			},
			{
				"x": 3.3080300144,
				"y": -4.3901174151,
				"z": 2.4607718709,
				"element": "H" 
			},
			{
				"x": 2.9061082702,
				"y": -2.868161086,
				"z": 4.3873391308,
				"element": "H" 
			},
			{
				"x": 1.5767097062,
				"y": -0.8166269928,
				"z": 4.0917855468,
				"element": "H" 
			}
		],
		 "valence_orbital": [ 
			{
				"type": "occ",
				"energy": -0.26299,
				"method": "rhf"
			},
			{
				"type": "occ",
				"energy": -0.25358,
				"method": "rhf"
			},
			{
				"type": "occ",
				"energy": -0.23487,
				"method": "rhf"
			},
			{
				"type": "occ",
				"energy": -0.2342,
				"method": "rhf"
			},
			{
				"type": "occ",
				"energy": -0.23175,
				"method": "rhf"
			},
			{
				"type": "unocc",
				"energy": -0.0631,
				"method": "rhf"
			},
			{
				"type": "unocc",
				"energy": -0.02223,
				"method": "rhf"
			},
			{
				"type": "unocc",
				"energy": -0.0123,
				"method": "rhf"
			},
			{
				"type": "unocc",
				"energy": -0.00642,
				"method": "rhf"
			},
			{
				"type": "unocc",
				"energy": 0.02931,
				"method": "rhf"
			}
		],
		"cosmo_sigma_profile": { 
			"-0.025": 0.0,
			"-0.024": 0.0,
			"-0.023": 0.0,
			"-0.022": 0.0,
			"-0.021": 0.0,
			"-0.02": 0.0,
			"-0.019": 0.245205709376,
			"-0.018": 1.27475275471,
			"-0.017": 0.988367866562,
			"-0.016": 1.12319623351,
			"-0.015": 0.878226131043,
			"-0.014": 1.16641788798,
			"-0.013": 0.780872445359,
			"-0.012": 1.11195614541,
			"-0.011": 1.14637450732,
			"-0.01": 1.16008056191,
			"-0.009": 1.30676315096,
			"-0.008": 3.65044331423,
			"-0.007": 6.78820263866,
			"-0.006": 14.6358935884,
			"-0.005": 16.4979079969,
			"-0.004": 15.9215491708,
			"-0.003": 13.8922046416,
			"-0.002": 14.4210782786,
			"-0.001": 18.2723108157,
			"0.0": 20.8500168837,
			"0.001": 26.1487698515,
			"0.002": 29.8479411912,
			"0.003": 21.4674075198,
			"0.004": 16.8698405185,
			"0.005": 6.23410001541,
			"0.006": 2.89095607876,
			"0.007": 3.25569531058,
			"0.008": 2.7762800277,
			"0.009": 2.47690081711,
			"0.01": 3.39447379421,
			"0.011": 2.42690266856,
			"0.012": 2.24217952889,
			"0.013": 3.80653984939,
			"0.014": 4.46150735508,
			"0.015": 1.05330356851,
			"0.016": 0.017023043048,
			"0.017": 0.0,
			"0.018": 0.0,
			"0.019": 0.0,
			"0.02": 0.0,
			"0.021": 0.0,
			"0.022": 0.0,
			"0.023": 0.0,
			"0.024": 0.0,
			"0.025": 0.0
		}
	}
}
