{
	 "smiles": "CCOC(=O)NCC1=CC=CC=C1", 
	 "Tm": 322.15, 
	 "num_atms": 26, 
	 "gaussian": { 
		 "optdone": 1, 
		 "sigma_profile": "yes", 
		 "theory": "DFT", 
		 "functional": "B3LYP", 
		 "basiset": "6-31G**", 
		 "properties": { 
			 "R2extent": 4016.909, 
			 "electric_dipole_moment_norm": 2.07955306256, 
			 "electric_quadrupole_moment_norm": 11.5122131035, 
			 "total_energy": -594.128947242, 
			 "HOMO_LUMO_gap": 0.235, 
			 "cosmo_polarized_energy": -10.0, 
			 "cosmo_cavitation_energy": 29.78, 
			 "cosmo_dispersion_energy": -21.23, 
			 "cosmo_repulsion_energy": 1.72, 
			 "cosmo_total_nonelectrostatic_energy": 10.27, 
			 "SMD_solvation_energy": 5.45 
		},
		"coords": [
			{
				"x": -0.5185553016,
				"y": -0.9705522284,
				"z": -4.1271415979,
				"element": "C" 
			},
			{
				"x": -1.0128910698,
				"y": -2.166930801,
				"z": -3.3277089968,
				"element": "C" 
			},
			{
				"x": -0.949867861,
				"y": -1.9169148914,
				"z": -1.9070384069,
				"element": "O" 
			},
			{
				"x": 0.2470731106,
				"y": -2.174022981,
				"z": -1.3134318205,
				"element": "C" 
			},
			{
				"x": 1.2327566339,
				"y": -2.6045528006,
				"z": -1.8918913879,
				"element": "O" 
			},
			{
				"x": 0.1685531219,
				"y": -1.9044999972,
				"z": 0.0217322192,
				"element": "N" 
			},
			{
				"x": 1.3495666414,
				"y": -1.9401169929,
				"z": 0.8782709533,
				"element": "C" 
			},
			{
				"x": 2.0221290267,
				"y": -0.5906961743,
				"z": 1.0599747499,
				"element": "C" 
			},
			{
				"x": 2.7022011074,
				"y": 0.008284762,
				"z": -0.0113047401,
				"element": "C" 
			},
			{
				"x": 3.3084303746,
				"y": 1.2536206389,
				"z": 0.1453137832,
				"element": "C" 
			},
			{
				"x": 3.2464159145,
				"y": 1.9172822818,
				"z": 1.3743689727,
				"element": "C" 
			},
			{
				"x": 2.5755563353,
				"y": 1.3276307168,
				"z": 2.4455631225,
				"element": "C" 
			},
			{
				"x": 1.9667725928,
				"y": 0.0800153992,
				"z": 2.2860860354,
				"element": "C" 
			},
			{
				"x": -0.6476444858,
				"y": -1.1579066912,
				"z": -5.1985770844,
				"element": "H" 
			},
			{
				"x": 0.5431768696,
				"y": -0.7973788197,
				"z": -3.9350733952,
				"element": "H" 
			},
			{
				"x": -1.0788383519,
				"y": -0.0676671627,
				"z": -3.8661012021,
				"element": "H" 
			},
			{
				"x": -2.0696312572,
				"y": -2.3681529416,
				"z": -3.521812349,
				"element": "H" 
			},
			{
				"x": -0.4267587384,
				"y": -3.0600856356,
				"z": -3.5562965272,
				"element": "H" 
			},
			{
				"x": -0.6502411237,
				"y": -1.4034171215,
				"z": 0.3345760455,
				"element": "H" 
			},
			{
				"x": 1.058240079,
				"y": -2.3470117279,
				"z": 1.8525110602,
				"element": "H" 
			},
			{
				"x": 2.0374879343,
				"y": -2.6497333939,
				"z": 0.4123497916,
				"element": "H" 
			},
			{
				"x": 2.7533238439,
				"y": -0.5130753922,
				"z": -0.9633096033,
				"element": "H" 
			},
			{
				"x": 3.8357038481,
				"y": 1.7059296683,
				"z": -0.6900932338,
				"element": "H" 
			},
			{
				"x": 3.7219101981,
				"y": 2.8864950451,
				"z": 1.495354123,
				"element": "H" 
			},
			{
				"x": 2.5253032896,
				"y": 1.8357243635,
				"z": 3.4045790971,
				"element": "H" 
			},
			{
				"x": 1.4468272676,
				"y": -0.3780671224,
				"z": 3.1248003916,
				"element": "H" 
			}
		],
		 "valence_orbital": [ 
			{
				"type": "occ",
				"energy": -0.28901,
				"method": "rhf"
			},
			{
				"type": "occ",
				"energy": -0.27205,
				"method": "rhf"
			},
			{
				"type": "occ",
				"energy": -0.25657,
				"method": "rhf"
			},
			{
				"type": "occ",
				"energy": -0.24957,
				"method": "rhf"
			},
			{
				"type": "occ",
				"energy": -0.24043,
				"method": "rhf"
			},
			{
				"type": "unocc",
				"energy": -0.00543,
				"method": "rhf"
			},
			{
				"type": "unocc",
				"energy": 7e-05,
				"method": "rhf"
			},
			{
				"type": "unocc",
				"energy": 0.05716,
				"method": "rhf"
			},
			{
				"type": "unocc",
				"energy": 0.09345,
				"method": "rhf"
			},
			{
				"type": "unocc",
				"energy": 0.10228,
				"method": "rhf"
			}
		],
		"cosmo_sigma_profile": { 
			"-0.025": 0.0,
			"-0.024": 0.0,
			"-0.023": 0.0,
			"-0.022": 0.0,
			"-0.021": 0.0,
			"-0.02": 0.0,
			"-0.019": 0.0,
			"-0.018": 0.0,
			"-0.017": 0.0,
			"-0.016": 0.0,
			"-0.015": 0.0,
			"-0.014": 0.806383617265,
			"-0.013": 0.896874581156,
			"-0.012": 0.996943527408,
			"-0.011": 0.998812087294,
			"-0.01": 0.814310267674,
			"-0.009": 0.615027650458,
			"-0.008": 0.97427990797,
			"-0.007": 0.991376945379,
			"-0.006": 7.22083763,
			"-0.005": 17.5148488555,
			"-0.004": 21.8551570623,
			"-0.003": 25.1414329073,
			"-0.002": 20.8086110133,
			"-0.001": 19.4081731166,
			"0.0": 22.5920295994,
			"0.001": 15.6434482537,
			"0.002": 13.1672263362,
			"0.003": 12.0615042532,
			"0.004": 12.0550904866,
			"0.005": 12.5532013888,
			"0.006": 10.9103163696,
			"0.007": 3.91311672885,
			"0.008": 2.40514705683,
			"0.009": 1.84427973183,
			"0.01": 1.1073768481,
			"0.011": 1.5952978217,
			"0.012": 2.01162582333,
			"0.013": 3.45682937713,
			"0.014": 0.971017060986,
			"0.015": 0.0,
			"0.016": 0.0,
			"0.017": 0.0,
			"0.018": 0.0,
			"0.019": 0.0,
			"0.02": 0.0,
			"0.021": 0.0,
			"0.022": 0.0,
			"0.023": 0.0,
			"0.024": 0.0,
			"0.025": 0.0
		}
	}
}
