{
	 "smiles": "NC1=CC=C(Cl)C=C1C(=O)C1=CC=CC=C1", 
	 "Tm": 370.65, 
	 "num_atms": 26, 
	 "gaussian": { 
		 "optdone": 1, 
		 "sigma_profile": "no", 
		 "theory": "DFT", 
		 "functional": "B3LYP", 
		 "basiset": "6-31G**", 
		 "properties": { 
			 "R2extent": 5056.8852, 
			 "electric_dipole_moment_norm": 1.08329477983, 
			 "electric_quadrupole_moment_norm": 19.7842282008, 
			 "total_energy": -1091.59074644, 
			 "HOMO_LUMO_gap": 0.1414, 
			 "cosmo_polarized_energy": -18.41, 
			 "cosmo_cavitation_energy": 31.82, 
			 "cosmo_dispersion_energy": -23.39, 
			 "cosmo_repulsion_energy": 1.82, 
			 "cosmo_total_nonelectrostatic_energy": 10.25, 
			 "SMD_solvation_energy": 5.24 
		},
		"coords": [
			{
				"x": 0.8121678038,
				"y": 0.4973504937,
				"z": 2.8045465276,
				"element": "N" 
			},
			{
				"x": 1.5540138627,
				"y": -0.045148145,
				"z": 1.798220452,
				"element": "C" 
			},
			{
				"x": 2.9668342522,
				"y": 0.0072153659,
				"z": 1.8565002339,
				"element": "C" 
			},
			{
				"x": 3.7555580797,
				"y": -0.5390216919,
				"z": 0.86050184,
				"element": "C" 
			},
			{
				"x": 3.1514651732,
				"y": -1.1622179884,
				"z": -0.2389279346,
				"element": "C" 
			},
			{
				"x": 4.1569233722,
				"y": -1.8928778447,
				"z": -1.486492277,
				"element": "Cl" 
			},
			{
				"x": 1.7731766956,
				"y": -1.2093052118,
				"z": -0.3429363662,
				"element": "C" 
			},
			{
				"x": 0.9440825629,
				"y": -0.6408163996,
				"z": 0.6474344734,
				"element": "C" 
			},
			{
				"x": -0.5312879892,
				"y": -0.717186016,
				"z": 0.5352607471,
				"element": "C" 
			},
			{
				"x": -1.2640777567,
				"y": -0.5551379169,
				"z": 1.5206404253,
				"element": "O" 
			},
			{
				"x": -1.1921335649,
				"y": -0.9939095568,
				"z": -0.7859381679,
				"element": "C" 
			},
			{
				"x": -0.750573559,
				"y": -0.432020172,
				"z": -1.9940399143,
				"element": "C" 
			},
			{
				"x": -1.4613474279,
				"y": -0.6526039154,
				"z": -3.1745745811,
				"element": "C" 
			},
			{
				"x": -2.6101013066,
				"y": -1.4450436115,
				"z": -3.1632564238,
				"element": "C" 
			},
			{
				"x": -3.0618341966,
				"y": -2.0001466583,
				"z": -1.9623288765,
				"element": "C" 
			},
			{
				"x": -2.3668112487,
				"y": -1.7627428049,
				"z": -0.7798220923,
				"element": "C" 
			},
			{
				"x": 1.2783366183,
				"y": 0.7811500304,
				"z": 3.6507225368,
				"element": "H" 
			},
			{
				"x": -0.1688834682,
				"y": 0.2449944932,
				"z": 2.8304130575,
				"element": "H" 
			},
			{
				"x": 3.4371927838,
				"y": 0.4768955387,
				"z": 2.7163794597,
				"element": "H" 
			},
			{
				"x": 4.8371111932,
				"y": -0.4981557945,
				"z": 0.9343920693,
				"element": "H" 
			},
			{
				"x": 1.3223035729,
				"y": -1.7125370214,
				"z": -1.1885299375,
				"element": "H" 
			},
			{
				"x": 0.132085473,
				"y": 0.1989351086,
				"z": -2.0074108349,
				"element": "H" 
			},
			{
				"x": -1.1181738495,
				"y": -0.2024938067,
				"z": -4.1014638817,
				"element": "H" 
			},
			{
				"x": -3.1565078182,
				"y": -1.6237594485,
				"z": -4.0849282868,
				"element": "H" 
			},
			{
				"x": -3.9598795304,
				"y": -2.6109199343,
				"z": -1.948858288,
				"element": "H" 
			},
			{
				"x": -2.7204397277,
				"y": -2.1640970918,
				"z": 0.16409604,
				"element": "H" 
			}
		],
		 "valence_orbital": [ 
			{
				"type": "occ",
				"energy": -0.26883,
				"method": "rhf"
			},
			{
				"type": "occ",
				"energy": -0.26414,
				"method": "rhf"
			},
			{
				"type": "occ",
				"energy": -0.25879,
				"method": "rhf"
			},
			{
				"type": "occ",
				"energy": -0.24887,
				"method": "rhf"
			},
			{
				"type": "occ",
				"energy": -0.20699,
				"method": "rhf"
			},
			{
				"type": "unocc",
				"energy": -0.06559,
				"method": "rhf"
			},
			{
				"type": "unocc",
				"energy": -0.01853,
				"method": "rhf"
			},
			{
				"type": "unocc",
				"energy": -0.00863,
				"method": "rhf"
			},
			{
				"type": "unocc",
				"energy": 0.00365,
				"method": "rhf"
			},
			{
				"type": "unocc",
				"energy": 0.033,
				"method": "rhf"
			}
		],
		"cosmo_sigma_profile": { 
			"0.0": 0.0,
			"0.0": 0.0,
			"0.0": 0.0,
			"0.0": 0.0,
			"0.0": 0.0,
			"0.0": 0.0,
			"0.0": 0.0,
			"0.0": 0.0,
			"0.0": 0.0,
			"0.0": 0.0,
			"0.0": 0.0,
			"0.0": 0.0,
			"0.0": 0.0,
			"0.0": 0.0,
			"0.0": 0.0,
			"0.0": 0.0,
			"0.0": 0.0,
			"0.0": 0.0,
			"0.0": 0.0,
			"0.0": 0.0,
			"0.0": 0.0,
			"0.0": 0.0,
			"0.0": 0.0,
			"0.0": 0.0,
			"0.0": 0.0,
			"0.0": 0.0,
			"0.0": 0.0,
			"0.0": 0.0,
			"0.0": 0.0,
			"0.0": 0.0,
			"0.0": 0.0,
			"0.0": 0.0,
			"0.0": 0.0,
			"0.0": 0.0,
			"0.0": 0.0,
			"0.0": 0.0,
			"0.0": 0.0,
			"0.0": 0.0,
			"0.0": 0.0,
			"0.0": 0.0,
			"0.0": 0.0,
			"0.0": 0.0,
			"0.0": 0.0,
			"0.0": 0.0,
			"0.0": 0.0,
			"0.0": 0.0,
			"0.0": 0.0,
			"0.0": 0.0,
			"0.0": 0.0,
			"0.0": 0.0,
			"0.0": 0.0
		}
	}
}
