{
	 "smiles": "NC1=NC=C(C=CC(O)=O)C=C1", 
	 "Tm": 463.15, 
	 "num_atms": 20, 
	 "gaussian": { 
		 "optdone": 1, 
		 "sigma_profile": "yes", 
		 "theory": "DFT", 
		 "functional": "B3LYP", 
		 "basiset": "6-31G**", 
		 "properties": { 
			 "R2extent": 3197.5818, 
			 "electric_dipole_moment_norm": 7.55556873637, 
			 "electric_quadrupole_moment_norm": 12.241583688, 
			 "total_energy": -569.624825048, 
			 "HOMO_LUMO_gap": 0.15466, 
			 "cosmo_polarized_energy": -22.25, 
			 "cosmo_cavitation_energy": 25.54, 
			 "cosmo_dispersion_energy": -18.82, 
			 "cosmo_repulsion_energy": 1.51, 
			 "cosmo_total_nonelectrostatic_energy": 8.23, 
			 "SMD_solvation_energy": 4.35 
		},
		"coords": [
			{
				"x": 2.8077618096,
				"y": 3.0102096464,
				"z": 0.1232691073,
				"element": "N" 
			},
			{
				"x": 1.9274394797,
				"y": 1.9654164964,
				"z": 0.0194668094,
				"element": "C" 
			},
			{
				"x": 2.1662594642,
				"y": 1.0836972212,
				"z": -0.9665905965,
				"element": "N" 
			},
			{
				"x": 1.354140792,
				"y": 0.0334618093,
				"z": -1.0691255534,
				"element": "C" 
			},
			{
				"x": 0.2569896845,
				"y": -0.2272048768,
				"z": -0.2303271026,
				"element": "C" 
			},
			{
				"x": -0.5479283311,
				"y": -1.4126983092,
				"z": -0.4626840105,
				"element": "C" 
			},
			{
				"x": -1.6272684837,
				"y": -1.8399965104,
				"z": 0.2239367304,
				"element": "C" 
			},
			{
				"x": -2.3085764189,
				"y": -3.0899255522,
				"z": -0.1851328235,
				"element": "C" 
			},
			{
				"x": -3.3900149526,
				"y": -3.4488347394,
				"z": 0.5678420504,
				"element": "O" 
			},
			{
				"x": -1.9738508462,
				"y": -3.7879906178,
				"z": -1.1169568737,
				"element": "O" 
			},
			{
				"x": 0.0255322302,
				"y": 0.7177990147,
				"z": 0.7944732129,
				"element": "C" 
			},
			{
				"x": 0.8524418504,
				"y": 1.8127813198,
				"z": 0.928987314,
				"element": "C" 
			},
			{
				"x": 2.5376698078,
				"y": 3.8353881345,
				"z": 0.6339921585,
				"element": "H" 
			},
			{
				"x": 3.4261628509,
				"y": 3.1414398436,
				"z": -0.6634779685,
				"element": "H" 
			},
			{
				"x": 1.5793738165,
				"y": -0.6601214341,
				"z": -1.8791466031,
				"element": "H" 
			},
			{
				"x": -0.2444774492,
				"y": -2.0422927262,
				"z": -1.2986336542,
				"element": "H" 
			},
			{
				"x": -2.0147113426,
				"y": -1.2872929736,
				"z": 1.0778736812,
				"element": "H" 
			},
			{
				"x": -3.5356424611,
				"y": -2.8022518627,
				"z": 1.2719108933,
				"element": "H" 
			},
			{
				"x": -0.8042786123,
				"y": 0.5881346332,
				"z": 1.4830983672,
				"element": "H" 
			},
			{
				"x": 0.6917771119,
				"y": 2.5436814834,
				"z": 1.7158248615,
				"element": "H" 
			}
		],
		 "valence_orbital": [ 
			{
				"type": "occ",
				"energy": -0.29743,
				"method": "rhf"
			},
			{
				"type": "occ",
				"energy": -0.28021,
				"method": "rhf"
			},
			{
				"type": "occ",
				"energy": -0.27037,
				"method": "rhf"
			},
			{
				"type": "occ",
				"energy": -0.26111,
				"method": "rhf"
			},
			{
				"type": "occ",
				"energy": -0.21723,
				"method": "rhf"
			},
			{
				"type": "unocc",
				"energy": -0.06257,
				"method": "rhf"
			},
			{
				"type": "unocc",
				"energy": -0.02811,
				"method": "rhf"
			},
			{
				"type": "unocc",
				"energy": 0.02447,
				"method": "rhf"
			},
			{
				"type": "unocc",
				"energy": 0.06249,
				"method": "rhf"
			},
			{
				"type": "unocc",
				"energy": 0.07066,
				"method": "rhf"
			}
		],
		"cosmo_sigma_profile": { 
			"-0.025": 0.0,
			"-0.024": 0.0,
			"-0.023": 0.0,
			"-0.022": 0.0,
			"-0.021": 0.0,
			"-0.02": 0.0,
			"-0.019": 0.306526927208,
			"-0.018": 1.10210281779,
			"-0.017": 1.25623661934,
			"-0.016": 1.17425445257,
			"-0.015": 1.25648522265,
			"-0.014": 1.86817116047,
			"-0.013": 3.12242355229,
			"-0.012": 3.317231339,
			"-0.011": 4.22838147078,
			"-0.01": 3.77847827959,
			"-0.009": 4.36265507791,
			"-0.008": 6.24832504216,
			"-0.007": 8.54362756617,
			"-0.006": 10.1241043279,
			"-0.005": 7.74419397237,
			"-0.004": 6.80811683598,
			"-0.003": 6.28370601925,
			"-0.002": 8.11593942594,
			"-0.001": 8.59184823024,
			"0.0": 11.351786402,
			"0.001": 13.1759392566,
			"0.002": 20.2172934376,
			"0.003": 16.0327620307,
			"0.004": 6.76726559023,
			"0.005": 4.7023294098,
			"0.006": 4.32809843713,
			"0.007": 5.02628964236,
			"0.008": 4.38434472906,
			"0.009": 3.83327262323,
			"0.01": 4.57596030744,
			"0.011": 6.24373101531,
			"0.012": 6.47050874488,
			"0.013": 5.60468062057,
			"0.014": 1.94963426266,
			"0.015": 0.889048313578,
			"0.016": 0.0580234613043,
			"0.017": 0.0,
			"0.018": 0.0,
			"0.019": 0.0,
			"0.02": 0.0,
			"0.021": 0.0,
			"0.022": 0.0,
			"0.023": 0.0,
			"0.024": 0.0,
			"0.025": 0.0
		}
	}
}
