{
	 "smiles": "CCOC(=O)CC(CC(=O)OCC)(C1=CC(C)=C(O)C(C)=C1)C1=CC(C)=C(O)C(C)=C1", 
	 "Tm": 451.15, 
	 "num_atms": 63, 
	 "gaussian": { 
		 "optdone": 1, 
		 "sigma_profile": "yes", 
		 "theory": "DFT", 
		 "functional": "B3LYP", 
		 "basiset": "6-31G**", 
		 "properties": { 
			 "R2extent": 13918.6449, 
			 "electric_dipole_moment_norm": 2.03830379237, 
			 "electric_quadrupole_moment_norm": 13.6456882036, 
			 "total_energy": -1423.33849497, 
			 "HOMO_LUMO_gap": 0.19571, 
			 "cosmo_polarized_energy": -21.63, 
			 "cosmo_cavitation_energy": 63.14, 
			 "cosmo_dispersion_energy": -39.79, 
			 "cosmo_repulsion_energy": 3.11, 
			 "cosmo_total_nonelectrostatic_energy": 26.46, 
			 "SMD_solvation_energy": 12.52 
		},
		"coords": [
			{
				"x": 4.2955149428,
				"y": -2.4905656706,
				"z": -4.4065769784,
				"element": "C" 
			},
			{
				"x": 4.1234309432,
				"y": -2.2884479723,
				"z": -2.9086731726,
				"element": "C" 
			},
			{
				"x": 3.142793366,
				"y": -1.2595600231,
				"z": -2.6265181371,
				"element": "O" 
			},
			{
				"x": 1.8466046209,
				"y": -1.6479578921,
				"z": -2.5824734654,
				"element": "C" 
			},
			{
				"x": 1.492421089,
				"y": -2.7932295145,
				"z": -2.7862965456,
				"element": "O" 
			},
			{
				"x": 0.9436437778,
				"y": -0.4623510969,
				"z": -2.2800863151,
				"element": "C" 
			},
			{
				"x": 0.5525200263,
				"y": -0.1700927202,
				"z": -0.7707190668,
				"element": "C" 
			},
			{
				"x": 1.8040411193,
				"y": -0.5107549594,
				"z": 0.098349444,
				"element": "C" 
			},
			{
				"x": 1.6830569011,
				"y": -0.323317867,
				"z": 1.6015047603,
				"element": "C" 
			},
			{
				"x": 1.3012648429,
				"y": 0.6749569495,
				"z": 2.1764694439,
				"element": "O" 
			},
			{
				"x": 2.125303457,
				"y": -1.4309838433,
				"z": 2.2416065823,
				"element": "O" 
			},
			{
				"x": 2.1149786139,
				"y": -1.3948602964,
				"z": 3.688878522,
				"element": "C" 
			},
			{
				"x": 0.780298184,
				"y": -1.8753259614,
				"z": 4.2381618682,
				"element": "C" 
			},
			{
				"x": -0.6312295944,
				"y": -1.0317632739,
				"z": -0.2790885339,
				"element": "C" 
			},
			{
				"x": -0.9775210266,
				"y": -2.2517275937,
				"z": -0.8679868207,
				"element": "C" 
			},
			{
				"x": -2.0268524106,
				"y": -3.0394172051,
				"z": -0.3765553338,
				"element": "C" 
			},
			{
				"x": -2.3841062854,
				"y": -4.3543919884,
				"z": -1.0312827395,
				"element": "C" 
			},
			{
				"x": -2.7431906642,
				"y": -2.5852631405,
				"z": 0.7386155094,
				"element": "C" 
			},
			{
				"x": -3.7869299425,
				"y": -3.2964274194,
				"z": 1.2765695948,
				"element": "O" 
			},
			{
				"x": -2.4257582754,
				"y": -1.3669762538,
				"z": 1.3612143238,
				"element": "C" 
			},
			{
				"x": -3.2223026227,
				"y": -0.9032228258,
				"z": 2.5548479467,
				"element": "C" 
			},
			{
				"x": -1.3748953654,
				"y": -0.6133652495,
				"z": 0.8387598338,
				"element": "C" 
			},
			{
				"x": 0.1719563285,
				"y": 1.3275436128,
				"z": -0.7795674806,
				"element": "C" 
			},
			{
				"x": 1.0464732001,
				"y": 2.345672185,
				"z": -0.3819469175,
				"element": "C" 
			},
			{
				"x": 0.7257874415,
				"y": 3.6992910793,
				"z": -0.5124222555,
				"element": "C" 
			},
			{
				"x": 1.6685547852,
				"y": 4.7859012476,
				"z": -0.0612988453,
				"element": "C" 
			},
			{
				"x": -0.5144196366,
				"y": 4.0392993464,
				"z": -1.0713368052,
				"element": "C" 
			},
			{
				"x": -0.7931398717,
				"y": 5.3788809569,
				"z": -1.1822885567,
				"element": "O" 
			},
			{
				"x": -1.4209418241,
				"y": 3.0515503914,
				"z": -1.4870688282,
				"element": "C" 
			},
			{
				"x": -2.7555973973,
				"y": 3.4394764602,
				"z": -2.0805263143,
				"element": "C" 
			},
			{
				"x": -1.0563142712,
				"y": 1.7116360368,
				"z": -1.3332070445,
				"element": "C" 
			},
			{
				"x": 4.560581731,
				"y": -1.5501816403,
				"z": -4.8986957878,
				"element": "H" 
			},
			{
				"x": 3.3745368935,
				"y": -2.8761628604,
				"z": -4.8503451019,
				"element": "H" 
			},
			{
				"x": 5.0960003206,
				"y": -3.2140457729,
				"z": -4.593942975,
				"element": "H" 
			},
			{
				"x": 5.0423913406,
				"y": -1.9205453763,
				"z": -2.4461604063,
				"element": "H" 
			},
			{
				"x": 3.8143781698,
				"y": -3.2148020438,
				"z": -2.4187223559,
				"element": "H" 
			},
			{
				"x": 0.0254548036,
				"y": -0.5850001368,
				"z": -2.8587903335,
				"element": "H" 
			},
			{
				"x": 1.4609505989,
				"y": 0.4235142724,
				"z": -2.6516222697,
				"element": "H" 
			},
			{
				"x": 2.0580563203,
				"y": -1.5586774353,
				"z": -0.0694228232,
				"element": "H" 
			},
			{
				"x": 2.6657481094,
				"y": 0.0786831885,
				"z": -0.2366887215,
				"element": "H" 
			},
			{
				"x": 2.9317413839,
				"y": -2.0582407787,
				"z": 3.9847134934,
				"element": "H" 
			},
			{
				"x": 2.3346706434,
				"y": -0.3766743966,
				"z": 4.0184172611,
				"element": "H" 
			},
			{
				"x": -0.0239682784,
				"y": -1.1989402154,
				"z": 3.9396165053,
				"element": "H" 
			},
			{
				"x": 0.5468348765,
				"y": -2.8789916745,
				"z": 3.8716145443,
				"element": "H" 
			},
			{
				"x": 0.8180353562,
				"y": -1.9063386606,
				"z": 5.3323851569,
				"element": "H" 
			},
			{
				"x": -0.4230739629,
				"y": -2.6270385816,
				"z": -1.720771151,
				"element": "H" 
			},
			{
				"x": -1.7183755172,
				"y": -4.5610094057,
				"z": -1.8722011028,
				"element": "H" 
			},
			{
				"x": -2.2947859384,
				"y": -5.2012826058,
				"z": -0.3361777889,
				"element": "H" 
			},
			{
				"x": -3.4110974749,
				"y": -4.3585132983,
				"z": -1.4235761987,
				"element": "H" 
			},
			{
				"x": -3.9124419531,
				"y": -4.1076703321,
				"z": 0.7690505372,
				"element": "H" 
			},
			{
				"x": -4.2848518012,
				"y": -0.7971273096,
				"z": 2.3081430085,
				"element": "H" 
			},
			{
				"x": -2.8552101507,
				"y": 0.0602820052,
				"z": 2.9178138759,
				"element": "H" 
			},
			{
				"x": -3.1673275704,
				"y": -1.6266381855,
				"z": 3.3763125747,
				"element": "H" 
			},
			{
				"x": -1.1335570996,
				"y": 0.331605134,
				"z": 1.3137339524,
				"element": "H" 
			},
			{
				"x": 1.9977419984,
				"y": 2.1018583753,
				"z": 0.0756330137,
				"element": "H" 
			},
			{
				"x": 1.9370735909,
				"y": 5.4509944583,
				"z": -0.889908103,
				"element": "H" 
			},
			{
				"x": 1.2080193003,
				"y": 5.4171773921,
				"z": 0.7068193394,
				"element": "H" 
			},
			{
				"x": 2.5866261794,
				"y": 4.3596192016,
				"z": 0.3512704216,
				"element": "H" 
			},
			{
				"x": -1.6728542786,
				"y": 5.4909430125,
				"z": -1.5626602317,
				"element": "H" 
			},
			{
				"x": -2.6450948393,
				"y": 4.0396839706,
				"z": -2.9946402729,
				"element": "H" 
			},
			{
				"x": -3.3342876366,
				"y": 2.5523673648,
				"z": -2.3481948992,
				"element": "H" 
			},
			{
				"x": -3.3685819922,
				"y": 4.0207281054,
				"z": -1.377323221,
				"element": "H" 
			},
			{
				"x": -1.7622775746,
				"y": 0.9476187305,
				"z": -1.6464376131,
				"element": "H" 
			}
		],
		 "valence_orbital": [ 
			{
				"type": "occ",
				"energy": -0.26303,
				"method": "rhf"
			},
			{
				"type": "occ",
				"energy": -0.22954,
				"method": "rhf"
			},
			{
				"type": "occ",
				"energy": -0.22427,
				"method": "rhf"
			},
			{
				"type": "occ",
				"energy": -0.20734,
				"method": "rhf"
			},
			{
				"type": "occ",
				"energy": -0.19778,
				"method": "rhf"
			},
			{
				"type": "unocc",
				"energy": -0.00207,
				"method": "rhf"
			},
			{
				"type": "unocc",
				"energy": 0.0064,
				"method": "rhf"
			},
			{
				"type": "unocc",
				"energy": 0.01233,
				"method": "rhf"
			},
			{
				"type": "unocc",
				"energy": 0.01866,
				"method": "rhf"
			},
			{
				"type": "unocc",
				"energy": 0.02399,
				"method": "rhf"
			}
		],
		"cosmo_sigma_profile": { 
			"-0.025": 0.0,
			"-0.024": 0.0,
			"-0.023": 0.0,
			"-0.022": 0.0,
			"-0.021": 0.0,
			"-0.02": 0.0,
			"-0.019": 0.0,
			"-0.018": 0.0,
			"-0.017": 0.0,
			"-0.016": 0.546507954869,
			"-0.015": 1.30810882701,
			"-0.014": 1.13000279733,
			"-0.013": 2.48172555007,
			"-0.012": 2.15563911082,
			"-0.011": 2.01231949277,
			"-0.01": 2.15390189389,
			"-0.009": 2.45383711131,
			"-0.008": 2.81595643076,
			"-0.007": 4.28794444364,
			"-0.006": 8.84747888902,
			"-0.005": 21.9079620359,
			"-0.004": 45.5437126458,
			"-0.003": 53.6536679851,
			"-0.002": 50.7878500941,
			"-0.001": 48.6047322508,
			"0.0": 53.1720015181,
			"0.001": 37.3776203626,
			"0.002": 23.6173030869,
			"0.003": 23.6426411956,
			"0.004": 23.6972527781,
			"0.005": 20.4748285954,
			"0.006": 16.5736918009,
			"0.007": 9.34301265003,
			"0.008": 8.39782567551,
			"0.009": 7.95176199049,
			"0.01": 6.4566141142,
			"0.011": 7.72812542527,
			"0.012": 4.83691128465,
			"0.013": 0.521495400868,
			"0.014": 0.0,
			"0.015": 0.0,
			"0.016": 0.0,
			"0.017": 0.0,
			"0.018": 0.0,
			"0.019": 0.0,
			"0.02": 0.0,
			"0.021": 0.0,
			"0.022": 0.0,
			"0.023": 0.0,
			"0.024": 0.0,
			"0.025": 0.0
		}
	}
}
