{
	 "smiles": "CC(C)(C)OC(=O)N1CCN(CC1)C1=C(CO)C=CC=C1", 
	 "Tm": 342.15, 
	 "num_atms": 45, 
	 "gaussian": { 
		 "optdone": 1, 
		 "sigma_profile": "yes", 
		 "theory": "DFT", 
		 "functional": "B3LYP", 
		 "basiset": "6-31G**", 
		 "properties": { 
			 "R2extent": 9836.4065, 
			 "electric_dipole_moment_norm": 3.00754079773, 
			 "electric_quadrupole_moment_norm": 18.4415079085, 
			 "total_energy": -959.364844483, 
			 "HOMO_LUMO_gap": 0.21764, 
			 "cosmo_polarized_energy": -13.67, 
			 "cosmo_cavitation_energy": 44.45, 
			 "cosmo_dispersion_energy": -30.86, 
			 "cosmo_repulsion_energy": 2.35, 
			 "cosmo_total_nonelectrostatic_energy": 15.94, 
			 "SMD_solvation_energy": 7.64 
		},
		"coords": [
			{
				"x": -4.6587185171,
				"y": 2.6976586382,
				"z": -1.2825360213,
				"element": "C" 
			},
			{
				"x": -4.1424971268,
				"y": 2.0755365518,
				"z": 0.0192091762,
				"element": "C" 
			},
			{
				"x": -3.5396051624,
				"y": 3.1197343006,
				"z": 0.9647793346,
				"element": "C" 
			},
			{
				"x": -5.2515707931,
				"y": 1.28560441,
				"z": 0.7194675821,
				"element": "C" 
			},
			{
				"x": -3.1492235911,
				"y": 1.0306257355,
				"z": -0.2801539516,
				"element": "O" 
			},
			{
				"x": -1.9894090593,
				"y": 1.3348347345,
				"z": -0.9105806364,
				"element": "C" 
			},
			{
				"x": -1.6584501017,
				"y": 2.4493807281,
				"z": -1.2907260361,
				"element": "O" 
			},
			{
				"x": -1.2023706948,
				"y": 0.2185567759,
				"z": -1.0623100196,
				"element": "N" 
			},
			{
				"x": 0.0361714414,
				"y": 0.3235774325,
				"z": -1.8253375088,
				"element": "C" 
			},
			{
				"x": 1.1605847231,
				"y": -0.4281520701,
				"z": -1.1117010529,
				"element": "C" 
			},
			{
				"x": 0.7594398728,
				"y": -1.8241018184,
				"z": -0.8850453417,
				"element": "N" 
			},
			{
				"x": -0.4511528145,
				"y": -1.8765672035,
				"z": -0.0405901277,
				"element": "C" 
			},
			{
				"x": -1.6061154297,
				"y": -1.1425039486,
				"z": -0.7250606378,
				"element": "C" 
			},
			{
				"x": 1.8011913431,
				"y": -2.7295998872,
				"z": -0.4634825595,
				"element": "C" 
			},
			{
				"x": 1.71353342,
				"y": -4.0870714859,
				"z": -0.8480745554,
				"element": "C" 
			},
			{
				"x": 0.5669158826,
				"y": -4.6077737525,
				"z": -1.7029139875,
				"element": "C" 
			},
			{
				"x": 0.2579213727,
				"y": -3.7928769171,
				"z": -2.8172827371,
				"element": "O" 
			},
			{
				"x": 2.7200653154,
				"y": -4.963645534,
				"z": -0.4326994063,
				"element": "C" 
			},
			{
				"x": 3.802754377,
				"y": -4.5285303062,
				"z": 0.3331943972,
				"element": "C" 
			},
			{
				"x": 3.8937028596,
				"y": -3.1848114505,
				"z": 0.6881635652,
				"element": "C" 
			},
			{
				"x": 2.8954141038,
				"y": -2.2926838702,
				"z": 0.2933735096,
				"element": "C" 
			},
			{
				"x": -3.8666628723,
				"y": 3.2432661496,
				"z": -1.7953155354,
				"element": "H" 
			},
			{
				"x": -5.478554357,
				"y": 3.3880895341,
				"z": -1.0589997704,
				"element": "H" 
			},
			{
				"x": -5.0433506357,
				"y": 1.918908948,
				"z": -1.9488165886,
				"element": "H" 
			},
			{
				"x": -4.3167193857,
				"y": 3.8261416436,
				"z": 1.2744379955,
				"element": "H" 
			},
			{
				"x": -2.7356177824,
				"y": 3.6702087039,
				"z": 0.4762264982,
				"element": "H" 
			},
			{
				"x": -3.1447029335,
				"y": 2.6351511042,
				"z": 1.8635406621,
				"element": "H" 
			},
			{
				"x": -6.0703621459,
				"y": 1.9552116912,
				"z": 0.9988320116,
				"element": "H" 
			},
			{
				"x": -5.6495329396,
				"y": 0.5094680899,
				"z": 0.0591762902,
				"element": "H" 
			},
			{
				"x": -4.8720331959,
				"y": 0.8066616298,
				"z": 1.6269750857,
				"element": "H" 
			},
			{
				"x": -0.1050415637,
				"y": -0.1006951841,
				"z": -2.8310125137,
				"element": "H" 
			},
			{
				"x": 0.2793946936,
				"y": 1.3810038829,
				"z": -1.9289327654,
				"element": "H" 
			},
			{
				"x": 2.0628516461,
				"y": -0.4194383184,
				"z": -1.7299029793,
				"element": "H" 
			},
			{
				"x": 1.385410948,
				"y": 0.0936462653,
				"z": -0.1661309509,
				"element": "H" 
			},
			{
				"x": -0.2538963238,
				"y": -1.4238541904,
				"z": 0.9461205647,
				"element": "H" 
			},
			{
				"x": -0.7300351238,
				"y": -2.9204889301,
				"z": 0.1218520973,
				"element": "H" 
			},
			{
				"x": -1.8836660822,
				"y": -1.6905191805,
				"z": -1.6385275389,
				"element": "H" 
			},
			{
				"x": -2.473165566,
				"y": -1.1067369885,
				"z": -0.0681842166,
				"element": "H" 
			},
			{
				"x": -0.323617924,
				"y": -4.7643673213,
				"z": -1.0649939694,
				"element": "H" 
			},
			{
				"x": 0.8364959662,
				"y": -5.596000141,
				"z": -2.0910140648,
				"element": "H" 
			},
			{
				"x": 0.2864623908,
				"y": -2.8802672584,
				"z": -2.4732180613,
				"element": "H" 
			},
			{
				"x": 2.6617615755,
				"y": -6.006442313,
				"z": -0.7353584512,
				"element": "H" 
			},
			{
				"x": 4.5748432945,
				"y": -5.2307816731,
				"z": 0.6332837282,
				"element": "H" 
			},
			{
				"x": 4.7353003393,
				"y": -2.8258187296,
				"z": 1.2735281898,
				"element": "H" 
			},
			{
				"x": 2.9704565566,
				"y": -1.2499384767,
				"z": 0.5826412976,
				"element": "H" 
			}
		],
		 "valence_orbital": [ 
			{
				"type": "occ",
				"energy": -0.26218,
				"method": "rhf"
			},
			{
				"type": "occ",
				"energy": -0.25291,
				"method": "rhf"
			},
			{
				"type": "occ",
				"energy": -0.24659,
				"method": "rhf"
			},
			{
				"type": "occ",
				"energy": -0.24109,
				"method": "rhf"
			},
			{
				"type": "occ",
				"energy": -0.22506,
				"method": "rhf"
			},
			{
				"type": "unocc",
				"energy": -0.00742,
				"method": "rhf"
			},
			{
				"type": "unocc",
				"energy": -0.00445,
				"method": "rhf"
			},
			{
				"type": "unocc",
				"energy": 0.04807,
				"method": "rhf"
			},
			{
				"type": "unocc",
				"energy": 0.07889,
				"method": "rhf"
			},
			{
				"type": "unocc",
				"energy": 0.08745,
				"method": "rhf"
			}
		],
		"cosmo_sigma_profile": { 
			"-0.025": 0.0,
			"-0.024": 0.0,
			"-0.023": 0.0,
			"-0.022": 0.0,
			"-0.021": 0.0,
			"-0.02": 0.0,
			"-0.019": 0.0,
			"-0.018": 0.0,
			"-0.017": 0.0,
			"-0.016": 0.0,
			"-0.015": 0.0,
			"-0.014": 0.0,
			"-0.013": 0.0,
			"-0.012": 0.0,
			"-0.011": 0.0,
			"-0.01": 0.0,
			"-0.009": 0.0,
			"-0.008": 0.0,
			"-0.007": 0.0684447127616,
			"-0.006": 7.30081785422,
			"-0.005": 23.1953955482,
			"-0.004": 43.5693007306,
			"-0.003": 48.4855880663,
			"-0.002": 37.7017772154,
			"-0.001": 31.2691031088,
			"0.0": 33.7005796005,
			"0.001": 30.0402716353,
			"0.002": 15.1406643545,
			"0.003": 11.5971733876,
			"0.004": 14.3640668615,
			"0.005": 14.0916122149,
			"0.006": 9.49916761894,
			"0.007": 3.63717978936,
			"0.008": 2.27644632625,
			"0.009": 2.07244443824,
			"0.01": 2.49793231777,
			"0.011": 3.37354381386,
			"0.012": 3.14403362763,
			"0.013": 4.33158093232,
			"0.014": 2.83090629808,
			"0.015": 2.53257203728,
			"0.016": 0.596870239705,
			"0.017": 0.0,
			"0.018": 0.0,
			"0.019": 0.0,
			"0.02": 0.0,
			"0.021": 0.0,
			"0.022": 0.0,
			"0.023": 0.0,
			"0.024": 0.0,
			"0.025": 0.0
		}
	}
}
