{
	 "smiles": "COC1=CC(=CC(OC)=C1OC)C(=O)CC1=NC2=C(C=CC=C2)N1C(F)F", 
	 "Tm": 386.15, 
	 "num_atms": 45, 
	 "gaussian": { 
		 "optdone": 1, 
		 "sigma_profile": "yes", 
		 "theory": "DFT", 
		 "functional": "B3LYP", 
		 "basiset": "6-31G**", 
		 "properties": { 
			 "R2extent": 12415.6997, 
			 "electric_dipole_moment_norm": 3.20093396527, 
			 "electric_quadrupole_moment_norm": 8.63980746255, 
			 "total_energy": -1344.91278821, 
			 "HOMO_LUMO_gap": 0.15991, 
			 "cosmo_polarized_energy": -14.52, 
			 "cosmo_cavitation_energy": 49.81, 
			 "cosmo_dispersion_energy": -33.25, 
			 "cosmo_repulsion_energy": 2.46, 
			 "cosmo_total_nonelectrostatic_energy": 19.01, 
			 "SMD_solvation_energy": 10.08 
		},
		"coords": [
			{
				"x": 0.7319907804,
				"y": 2.3174501197,
				"z": 6.0339278776,
				"element": "C" 
			},
			{
				"x": 1.4789358232,
				"y": 1.8778667826,
				"z": 4.894017979,
				"element": "O" 
			},
			{
				"x": 0.7399187516,
				"y": 1.4829076041,
				"z": 3.8092344642,
				"element": "C" 
			},
			{
				"x": 0.8152249647,
				"y": 2.2312253108,
				"z": 2.6364653757,
				"element": "C" 
			},
			{
				"x": 0.1196275483,
				"y": 1.8176130079,
				"z": 1.4941429287,
				"element": "C" 
			},
			{
				"x": -0.6616579717,
				"y": 0.6477782127,
				"z": 1.5246394489,
				"element": "C" 
			},
			{
				"x": -0.7297206618,
				"y": -0.1103281329,
				"z": 2.6934419785,
				"element": "C" 
			},
			{
				"x": -1.4374788839,
				"y": -1.2675162718,
				"z": 2.8209535557,
				"element": "O" 
			},
			{
				"x": -2.177158256,
				"y": -1.7245012714,
				"z": 1.6938332409,
				"element": "C" 
			},
			{
				"x": -0.0279493654,
				"y": 0.3049852201,
				"z": 3.8487296648,
				"element": "C" 
			},
			{
				"x": -0.1157433529,
				"y": -0.3982164474,
				"z": 5.0179551776,
				"element": "O" 
			},
			{
				"x": 0.5884921453,
				"y": -1.6476150481,
				"z": 5.0446582668,
				"element": "C" 
			},
			{
				"x": 0.2459949071,
				"y": 2.6402621238,
				"z": 0.2645316248,
				"element": "C" 
			},
			{
				"x": 1.060680309,
				"y": 3.5508213624,
				"z": 0.1719703966,
				"element": "O" 
			},
			{
				"x": -0.6704240777,
				"y": 2.3456034788,
				"z": -0.9419050795,
				"element": "C" 
			},
			{
				"x": -0.1568778827,
				"y": 1.2376953542,
				"z": -1.813676545,
				"element": "C" 
			},
			{
				"x": -0.6965489783,
				"y": 0.0486611837,
				"z": -1.8850430421,
				"element": "N" 
			},
			{
				"x": 0.0734389719,
				"y": -0.6584301197,
				"z": -2.8033843509,
				"element": "C" 
			},
			{
				"x": 1.1195199036,
				"y": 0.1512549988,
				"z": -3.2954784368,
				"element": "C" 
			},
			{
				"x": 2.0428596219,
				"y": -0.304119186,
				"z": -4.2373497478,
				"element": "C" 
			},
			{
				"x": 1.8816183394,
				"y": -1.6143438732,
				"z": -4.6826460276,
				"element": "C" 
			},
			{
				"x": 0.8445890036,
				"y": -2.4375360417,
				"z": -4.2018761466,
				"element": "C" 
			},
			{
				"x": -0.0683041368,
				"y": -1.9738618488,
				"z": -3.2600412413,
				"element": "C" 
			},
			{
				"x": 0.9676137027,
				"y": 1.3712034983,
				"z": -2.6275311809,
				"element": "N" 
			},
			{
				"x": 1.7106191,
				"y": 2.5668048024,
				"z": -2.8720683545,
				"element": "C" 
			},
			{
				"x": 3.0303232715,
				"y": 2.2563943682,
				"z": -2.9754883988,
				"element": "F" 
			},
			{
				"x": 1.3411232153,
				"y": 3.1189274971,
				"z": -4.0644845142,
				"element": "F" 
			},
			{
				"x": 0.0978296182,
				"y": 1.5185704057,
				"z": 6.4276887865,
				"element": "H" 
			},
			{
				"x": 0.1152545465,
				"y": 3.1895720196,
				"z": 5.7814574059,
				"element": "H" 
			},
			{
				"x": 1.4701818158,
				"y": 2.6062693943,
				"z": 6.7847090175,
				"element": "H" 
			},
			{
				"x": 1.4258919778,
				"y": 3.1257374557,
				"z": 2.6068937655,
				"element": "H" 
			},
			{
				"x": -1.1687991428,
				"y": 0.3081787123,
				"z": 0.6311374754,
				"element": "H" 
			},
			{
				"x": -2.9541392045,
				"y": -1.0047377098,
				"z": 1.4082948343,
				"element": "H" 
			},
			{
				"x": -2.6470769477,
				"y": -2.6581547151,
				"z": 2.0055009921,
				"element": "H" 
			},
			{
				"x": -1.5286612953,
				"y": -1.9091788267,
				"z": 0.8293059031,
				"element": "H" 
			},
			{
				"x": 1.6605375346,
				"y": -1.4896261417,
				"z": 4.8796350616,
				"element": "H" 
			},
			{
				"x": 0.1924029541,
				"y": -2.3388623858,
				"z": 4.2956244631,
				"element": "H" 
			},
			{
				"x": 0.4318934498,
				"y": -2.060019167,
				"z": 6.0429957256,
				"element": "H" 
			},
			{
				"x": -1.6717105487,
				"y": 2.0570641084,
				"z": -0.6195054441,
				"element": "H" 
			},
			{
				"x": -0.7494165743,
				"y": 3.2804775574,
				"z": -1.5043403829,
				"element": "H" 
			},
			{
				"x": 2.843122363,
				"y": 0.3275575441,
				"z": -4.6024684668,
				"element": "H" 
			},
			{
				"x": 2.5758633037,
				"y": -2.010368353,
				"z": -5.4176451305,
				"element": "H" 
			},
			{
				"x": 0.759090733,
				"y": -3.4532095515,
				"z": -4.5763514318,
				"element": "H" 
			},
			{
				"x": -0.8717893323,
				"y": -2.599921522,
				"z": -2.8858101236,
				"element": "H" 
			},
			{
				"x": 1.5648179571,
				"y": 3.2917644906,
				"z": -2.0690513646,
				"element": "H" 
			}
		],
		 "valence_orbital": [ 
			{
				"type": "occ",
				"energy": -0.26776,
				"method": "rhf"
			},
			{
				"type": "occ",
				"energy": -0.23912,
				"method": "rhf"
			},
			{
				"type": "occ",
				"energy": -0.23743,
				"method": "rhf"
			},
			{
				"type": "occ",
				"energy": -0.2301,
				"method": "rhf"
			},
			{
				"type": "occ",
				"energy": -0.22793,
				"method": "rhf"
			},
			{
				"type": "unocc",
				"energy": -0.06802,
				"method": "rhf"
			},
			{
				"type": "unocc",
				"energy": -0.0243,
				"method": "rhf"
			},
			{
				"type": "unocc",
				"energy": 0.0023,
				"method": "rhf"
			},
			{
				"type": "unocc",
				"energy": 0.00657,
				"method": "rhf"
			},
			{
				"type": "unocc",
				"energy": 0.03115,
				"method": "rhf"
			}
		],
		"cosmo_sigma_profile": { 
			"-0.025": 0.0,
			"-0.024": 0.0,
			"-0.023": 0.0,
			"-0.022": 0.0,
			"-0.021": 0.0,
			"-0.02": 0.0,
			"-0.019": 0.0,
			"-0.018": 0.0,
			"-0.017": 0.0,
			"-0.016": 0.0,
			"-0.015": 0.0,
			"-0.014": 0.0,
			"-0.013": 0.0,
			"-0.012": 0.0,
			"-0.011": 0.0,
			"-0.01": 0.256476900152,
			"-0.009": 1.47213850266,
			"-0.008": 3.835553056,
			"-0.007": 6.34396591442,
			"-0.006": 19.305115135,
			"-0.005": 29.3799754269,
			"-0.004": 36.2636114988,
			"-0.003": 40.410111515,
			"-0.002": 32.587641534,
			"-0.001": 25.0109638193,
			"0.0": 25.0513011857,
			"0.001": 29.000220426,
			"0.002": 32.3698197594,
			"0.003": 36.2794017753,
			"0.004": 28.0737640061,
			"0.005": 15.2402877612,
			"0.006": 7.47768506685,
			"0.007": 5.75021217333,
			"0.008": 4.73606356619,
			"0.009": 5.25845643945,
			"0.01": 6.38841955991,
			"0.011": 5.08439665106,
			"0.012": 1.43519443666,
			"0.013": 0.393527837677,
			"0.014": 0.545425997755,
			"0.015": 0.0657283172566,
			"0.016": 0.0,
			"0.017": 0.0,
			"0.018": 0.0,
			"0.019": 0.0,
			"0.02": 0.0,
			"0.021": 0.0,
			"0.022": 0.0,
			"0.023": 0.0,
			"0.024": 0.0,
			"0.025": 0.0
		}
	}
}
