{
	 "smiles": "OC(=O)C1=C(Cl)C2=C(N1)C=CC(F)=C2", 
	 "Tm": 553.15, 
	 "num_atms": 19, 
	 "gaussian": { 
		 "optdone": 1, 
		 "sigma_profile": "yes", 
		 "theory": "DFT", 
		 "functional": "B3LYP", 
		 "basiset": "6-31G**", 
		 "properties": { 
			 "R2extent": 3423.017, 
			 "electric_dipole_moment_norm": 2.30604821285, 
			 "electric_quadrupole_moment_norm": 23.40086454, 
			 "total_energy": -1111.2117904, 
			 "HOMO_LUMO_gap": 0.16415, 
			 "cosmo_polarized_energy": -11.96, 
			 "cosmo_cavitation_energy": 26.27, 
			 "cosmo_dispersion_energy": -19.65, 
			 "cosmo_repulsion_energy": 1.5, 
			 "cosmo_total_nonelectrostatic_energy": 8.11, 
			 "SMD_solvation_energy": 5.53 
		},
		"coords": [
			{
				"x": -0.3341610925,
				"y": 0.4695847303,
				"z": 4.1232974917,
				"element": "O" 
			},
			{
				"x": -0.4931449022,
				"y": -0.6298250557,
				"z": 3.3643320721,
				"element": "C" 
			},
			{
				"x": -0.8133838383,
				"y": -1.6944250758,
				"z": 3.8526213171,
				"element": "O" 
			},
			{
				"x": -0.2693689258,
				"y": -0.5070352697,
				"z": 1.9081197124,
				"element": "C" 
			},
			{
				"x": 0.0896501151,
				"y": 0.5184080144,
				"z": 1.0485242252,
				"element": "C" 
			},
			{
				"x": 0.4228301349,
				"y": 2.1677380363,
				"z": 1.4938075846,
				"element": "Cl" 
			},
			{
				"x": 0.1438930505,
				"y": 0.0010486236,
				"z": -0.2781668232,
				"element": "C" 
			},
			{
				"x": -0.1991985642,
				"y": -1.3787185017,
				"z": -0.1692749611,
				"element": "C" 
			},
			{
				"x": -0.4402508617,
				"y": -1.6480049506,
				"z": 1.1537751213,
				"element": "N" 
			},
			{
				"x": -0.2473462832,
				"y": -2.2136536977,
				"z": -1.2955123979,
				"element": "C" 
			},
			{
				"x": 0.0507940748,
				"y": -1.6530650174,
				"z": -2.5267045859,
				"element": "C" 
			},
			{
				"x": 0.3886460923,
				"y": -0.2881515021,
				"z": -2.6229415652,
				"element": "C" 
			},
			{
				"x": 0.6690767012,
				"y": 0.2002795347,
				"z": -3.8503289322,
				"element": "F" 
			},
			{
				"x": 0.4445563403,
				"y": 0.557428968,
				"z": -1.5357328158,
				"element": "C" 
			},
			{
				"x": -0.0792501412,
				"y": 1.2365475539,
				"z": 3.5834100322,
				"element": "H" 
			},
			{
				"x": -0.7059898683,
				"y": -2.5223702598,
				"z": 1.5844836828,
				"element": "H" 
			},
			{
				"x": -0.508892377,
				"y": -3.2633336671,
				"z": -1.2085750249,
				"element": "H" 
			},
			{
				"x": 0.0309128216,
				"y": -2.2462406729,
				"z": -3.4340967549,
				"element": "H" 
			},
			{
				"x": 0.7094275236,
				"y": 1.6012882093,
				"z": -1.6580373782,
				"element": "H" 
			}
		],
		 "valence_orbital": [ 
			{
				"type": "occ",
				"energy": -0.32326,
				"method": "rhf"
			},
			{
				"type": "occ",
				"energy": -0.29944,
				"method": "rhf"
			},
			{
				"type": "occ",
				"energy": -0.2911,
				"method": "rhf"
			},
			{
				"type": "occ",
				"energy": -0.2458,
				"method": "rhf"
			},
			{
				"type": "occ",
				"energy": -0.23305,
				"method": "rhf"
			},
			{
				"type": "unocc",
				"energy": -0.0689,
				"method": "rhf"
			},
			{
				"type": "unocc",
				"energy": -0.00289,
				"method": "rhf"
			},
			{
				"type": "unocc",
				"energy": 0.00906,
				"method": "rhf"
			},
			{
				"type": "unocc",
				"energy": 0.01162,
				"method": "rhf"
			},
			{
				"type": "unocc",
				"energy": 0.08106,
				"method": "rhf"
			}
		],
		"cosmo_sigma_profile": { 
			"-0.025": 0.0,
			"-0.024": 0.0,
			"-0.023": 0.0,
			"-0.022": 0.0,
			"-0.021": 0.0,
			"-0.02": 0.0,
			"-0.019": 0.0,
			"-0.018": 0.0,
			"-0.017": 0.0,
			"-0.016": 0.479311322094,
			"-0.015": 0.84068892872,
			"-0.014": 1.1026247031,
			"-0.013": 1.36179329964,
			"-0.012": 1.51875221913,
			"-0.011": 2.11181307548,
			"-0.01": 2.65410776237,
			"-0.009": 3.19810704131,
			"-0.008": 5.77645892497,
			"-0.007": 7.83522030883,
			"-0.006": 6.53505663208,
			"-0.005": 7.91925884242,
			"-0.004": 10.3145183844,
			"-0.003": 11.183645642,
			"-0.002": 11.2298548232,
			"-0.001": 12.0074153797,
			"0.0": 17.5232787263,
			"0.001": 27.0091559153,
			"0.002": 23.5646172998,
			"0.003": 17.4226536971,
			"0.004": 12.5928011095,
			"0.005": 6.16202274038,
			"0.006": 2.09331078418,
			"0.007": 2.53692842976,
			"0.008": 2.76064901022,
			"0.009": 3.99147929005,
			"0.01": 4.72109062165,
			"0.011": 4.0862758795,
			"0.012": 2.86745572863,
			"0.013": 0.934096130125,
			"0.014": 0.0,
			"0.015": 0.0,
			"0.016": 0.0,
			"0.017": 0.0,
			"0.018": 0.0,
			"0.019": 0.0,
			"0.02": 0.0,
			"0.021": 0.0,
			"0.022": 0.0,
			"0.023": 0.0,
			"0.024": 0.0,
			"0.025": 0.0
		}
	}
}
