{
	 "smiles": "OC(=O)C1=CC=C(C=C1)C1=NOC(=N1)C1=CC=C(F)C=C1", 
	 "Tm": 565.15, 
	 "num_atms": 30, 
	 "gaussian": { 
		 "optdone": 1, 
		 "sigma_profile": "yes", 
		 "theory": "DFT", 
		 "functional": "B3LYP", 
		 "basiset": "6-31G**", 
		 "properties": { 
			 "R2extent": 11329.2708, 
			 "electric_dipole_moment_norm": 4.63173346923, 
			 "electric_quadrupole_moment_norm": 34.0995831146, 
			 "total_energy": -1012.01176883, 
			 "HOMO_LUMO_gap": 0.17378, 
			 "cosmo_polarized_energy": -17.22, 
			 "cosmo_cavitation_energy": 37.32, 
			 "cosmo_dispersion_energy": -27.25, 
			 "cosmo_repulsion_energy": 2.0, 
			 "cosmo_total_nonelectrostatic_energy": 12.07, 
			 "SMD_solvation_energy": 6.47 
		},
		"coords": [
			{
				"x": -6.8176418434,
				"y": -0.534748503,
				"z": -3.0203781505,
				"element": "O" 
			},
			{
				"x": -6.2468055007,
				"y": -0.1464489726,
				"z": -1.8486705028,
				"element": "C" 
			},
			{
				"x": -6.9320551893,
				"y": 0.0134328996,
				"z": -0.8663373964,
				"element": "O" 
			},
			{
				"x": -4.7611334134,
				"y": 0.0615830669,
				"z": -1.8566048776,
				"element": "C" 
			},
			{
				"x": -4.0945524787,
				"y": 0.0394167844,
				"z": -0.6244529303,
				"element": "C" 
			},
			{
				"x": -2.7185080211,
				"y": 0.226961495,
				"z": -0.5639640924,
				"element": "C" 
			},
			{
				"x": -1.9866915825,
				"y": 0.4590479497,
				"z": -1.7381045176,
				"element": "C" 
			},
			{
				"x": -2.6528697591,
				"y": 0.5066076184,
				"z": -2.9721557299,
				"element": "C" 
			},
			{
				"x": -4.0278368944,
				"y": 0.3080293213,
				"z": -3.0279662809,
				"element": "C" 
			},
			{
				"x": -0.5324303279,
				"y": 0.658292816,
				"z": -1.6644333479,
				"element": "C" 
			},
			{
				"x": 0.2069545101,
				"y": 0.8750243509,
				"z": -2.7319721824,
				"element": "N" 
			},
			{
				"x": 1.499241482,
				"y": 1.0043030379,
				"z": -2.2087567958,
				"element": "O" 
			},
			{
				"x": 1.3977590212,
				"y": 0.8498446611,
				"z": -0.8720880503,
				"element": "C" 
			},
			{
				"x": 0.1704688638,
				"y": 0.6337568796,
				"z": -0.4809375959,
				"element": "N" 
			},
			{
				"x": 2.6040583735,
				"y": 0.9364899202,
				"z": -0.0575321422,
				"element": "C" 
			},
			{
				"x": 3.8583474674,
				"y": 1.1751677083,
				"z": -0.6431355204,
				"element": "C" 
			},
			{
				"x": 4.9978683112,
				"y": 1.2544921631,
				"z": 0.1506553155,
				"element": "C" 
			},
			{
				"x": 4.8669476813,
				"y": 1.0931497578,
				"z": 1.5272224256,
				"element": "C" 
			},
			{
				"x": 5.9663395124,
				"y": 1.1692016191,
				"z": 2.2970430609,
				"element": "F" 
			},
			{
				"x": 3.6360752916,
				"y": 0.8556562581,
				"z": 2.1342882946,
				"element": "C" 
			},
			{
				"x": 2.5017711133,
				"y": 0.7776922712,
				"z": 1.3347414519,
				"element": "C" 
			},
			{
				"x": -6.135650083,
				"y": -0.777845097,
				"z": -3.6615270514,
				"element": "H" 
			},
			{
				"x": -4.6769703365,
				"y": -0.128561184,
				"z": 0.2748039317,
				"element": "H" 
			},
			{
				"x": -2.1958837361,
				"y": 0.1996154337,
				"z": 0.3855930722,
				"element": "H" 
			},
			{
				"x": -2.0884247933,
				"y": 0.7060213075,
				"z": -3.8765663799,
				"element": "H" 
			},
			{
				"x": -4.5264014211,
				"y": 0.3879666911,
				"z": -3.9909289968,
				"element": "H" 
			},
			{
				"x": 3.9367216782,
				"y": 1.2978190889,
				"z": -1.7177534286,
				"element": "H" 
			},
			{
				"x": 5.9773271997,
				"y": 1.4378071071,
				"z": -0.2765656992,
				"element": "H" 
			},
			{
				"x": 3.5837761504,
				"y": 0.7368067999,
				"z": 3.2107332538,
				"element": "H" 
			},
			{
				"x": 1.5276987243,
				"y": 0.5942167494,
				"z": 1.774450863,
				"element": "H" 
			}
		],
		 "valence_orbital": [ 
			{
				"type": "occ",
				"energy": -0.28474,
				"method": "rhf"
			},
			{
				"type": "occ",
				"energy": -0.27949,
				"method": "rhf"
			},
			{
				"type": "occ",
				"energy": -0.27637,
				"method": "rhf"
			},
			{
				"type": "occ",
				"energy": -0.26762,
				"method": "rhf"
			},
			{
				"type": "occ",
				"energy": -0.25109,
				"method": "rhf"
			},
			{
				"type": "unocc",
				"energy": -0.07731,
				"method": "rhf"
			},
			{
				"type": "unocc",
				"energy": -0.06287,
				"method": "rhf"
			},
			{
				"type": "unocc",
				"energy": -0.0329,
				"method": "rhf"
			},
			{
				"type": "unocc",
				"energy": -0.02663,
				"method": "rhf"
			},
			{
				"type": "unocc",
				"energy": 0.00734,
				"method": "rhf"
			}
		],
		"cosmo_sigma_profile": { 
			"-0.025": 0.0,
			"-0.024": 0.0,
			"-0.023": 0.0,
			"-0.022": 0.0,
			"-0.021": 0.0,
			"-0.02": 0.0,
			"-0.019": 0.114356585302,
			"-0.018": 1.44828130534,
			"-0.017": 0.56429007652,
			"-0.016": 1.22465864246,
			"-0.015": 1.09626672586,
			"-0.014": 1.09408449776,
			"-0.013": 1.06698899823,
			"-0.012": 0.917104192408,
			"-0.011": 1.32253923456,
			"-0.01": 0.985564314691,
			"-0.009": 1.86332654189,
			"-0.008": 6.54550279071,
			"-0.007": 10.4200650288,
			"-0.006": 14.6350148653,
			"-0.005": 12.6025763283,
			"-0.004": 14.7103778167,
			"-0.003": 15.3675918915,
			"-0.002": 21.6574857572,
			"-0.001": 24.5754096072,
			"0.0": 30.6595728452,
			"0.001": 32.7838234112,
			"0.002": 29.9286773543,
			"0.003": 14.7483473215,
			"0.004": 13.1390364816,
			"0.005": 6.44491859103,
			"0.006": 7.28032266959,
			"0.007": 5.43080580051,
			"0.008": 6.0378879226,
			"0.009": 4.7604220774,
			"0.01": 6.61831784803,
			"0.011": 6.58179852411,
			"0.012": 4.45847835756,
			"0.013": 1.09650714542,
			"0.014": 0.0,
			"0.015": 0.0,
			"0.016": 0.0,
			"0.017": 0.0,
			"0.018": 0.0,
			"0.019": 0.0,
			"0.02": 0.0,
			"0.021": 0.0,
			"0.022": 0.0,
			"0.023": 0.0,
			"0.024": 0.0,
			"0.025": 0.0
		}
	}
}
