{
	 "smiles": "CC(C)C(=O)NC(C)C1=CC=C(S1)S(Cl)(=O)=O", 
	 "Tm": 342.15, 
	 "num_atms": 31, 
	 "gaussian": { 
		 "optdone": 1, 
		 "sigma_profile": "yes", 
		 "theory": "DFT", 
		 "functional": "B3LYP", 
		 "basiset": "6-31G**", 
		 "properties": { 
			 "R2extent": 7929.3371, 
			 "electric_dipole_moment_norm": 3.61129463905, 
			 "electric_quadrupole_moment_norm": 34.0033064855, 
			 "total_energy": -1926.41066184, 
			 "HOMO_LUMO_gap": 0.15453, 
			 "cosmo_polarized_energy": -17.43, 
			 "cosmo_cavitation_energy": 38.09, 
			 "cosmo_dispersion_energy": -26.71, 
			 "cosmo_repulsion_energy": 2.01, 
			 "cosmo_total_nonelectrostatic_energy": 13.39, 
			 "SMD_solvation_energy": 5.41 
		},
		"coords": [
			{
				"x": 1.44786221,
				"y": -0.6899027192,
				"z": 1.6449585439,
				"element": "C" 
			},
			{
				"x": 0.1136140747,
				"y": -1.4157899115,
				"z": 1.8479339569,
				"element": "C" 
			},
			{
				"x": -1.0864565377,
				"y": -0.4835521311,
				"z": 1.5762484041,
				"element": "C" 
			},
			{
				"x": -0.1356239818,
				"y": -2.7693126257,
				"z": 1.1606360163,
				"element": "C" 
			},
			{
				"x": -0.785389955,
				"y": -3.6101652855,
				"z": 1.7728457838,
				"element": "O" 
			},
			{
				"x": 0.1991605258,
				"y": -3.0847715463,
				"z": -0.1558273166,
				"element": "N" 
			},
			{
				"x": 1.1691732668,
				"y": -2.6300504251,
				"z": -1.1608845783,
				"element": "C" 
			},
			{
				"x": 2.6454958083,
				"y": -2.7956757196,
				"z": -0.7586953254,
				"element": "C" 
			},
			{
				"x": 0.811742515,
				"y": -1.2753290977,
				"z": -1.749899265,
				"element": "C" 
			},
			{
				"x": -0.4537927756,
				"y": -0.7841930557,
				"z": -1.9844691553,
				"element": "C" 
			},
			{
				"x": -0.4602311932,
				"y": 0.4602119004,
				"z": -2.6636730272,
				"element": "C" 
			},
			{
				"x": 0.8131309228,
				"y": 0.8881308009,
				"z": -2.9511153922,
				"element": "C" 
			},
			{
				"x": 2.0356734369,
				"y": -0.2123533669,
				"z": -2.3881577055,
				"element": "S" 
			},
			{
				"x": 1.2178747356,
				"y": 2.3882078949,
				"z": -3.7630211703,
				"element": "S" 
			},
			{
				"x": 1.4524276243,
				"y": 3.7424854177,
				"z": -2.1300403617,
				"element": "Cl" 
			},
			{
				"x": 0.0495451253,
				"y": 2.851201057,
				"z": -4.4986472872,
				"element": "O" 
			},
			{
				"x": 2.538669766,
				"y": 2.2611293275,
				"z": -4.3644807051,
				"element": "O" 
			},
			{
				"x": 2.3010041827,
				"y": -1.3234244175,
				"z": 1.9054550863,
				"element": "H" 
			},
			{
				"x": 1.5797474055,
				"y": -0.3165404828,
				"z": 0.6268486117,
				"element": "H" 
			},
			{
				"x": 1.4789602266,
				"y": 0.1802322655,
				"z": 2.3088930294,
				"element": "H" 
			},
			{
				"x": 0.054808107,
				"y": -1.7042578725,
				"z": 2.9020281324,
				"element": "H" 
			},
			{
				"x": -1.0867547919,
				"y": -0.1142715221,
				"z": 0.5471374973,
				"element": "H" 
			},
			{
				"x": -2.0297650571,
				"y": -1.0036703715,
				"z": 1.7640717601,
				"element": "H" 
			},
			{
				"x": -1.0368819594,
				"y": 0.3842168922,
				"z": 2.2418207769,
				"element": "H" 
			},
			{
				"x": -0.1402152166,
				"y": -4.0241158894,
				"z": -0.3266424778,
				"element": "H" 
			},
			{
				"x": 1.0110453393,
				"y": -3.3379615102,
				"z": -1.9856540061,
				"element": "H" 
			},
			{
				"x": 2.8016920166,
				"y": -3.8083021955,
				"z": -0.3786232599,
				"element": "H" 
			},
			{
				"x": 2.9527188044,
				"y": -2.0878110265,
				"z": 0.0105381947,
				"element": "H" 
			},
			{
				"x": 3.2965389863,
				"y": -2.6634798085,
				"z": -1.6294812973,
				"element": "H" 
			},
			{
				"x": -1.347206929,
				"y": -1.3142614495,
				"z": -1.6784226754,
				"element": "H" 
			},
			{
				"x": -1.3479666826,
				"y": 1.0172768742,
				"z": -2.9372807875,
				"element": "H" 
			}
		],
		 "valence_orbital": [ 
			{
				"type": "occ",
				"energy": -0.31639,
				"method": "rhf"
			},
			{
				"type": "occ",
				"energy": -0.29404,
				"method": "rhf"
			},
			{
				"type": "occ",
				"energy": -0.2777,
				"method": "rhf"
			},
			{
				"type": "occ",
				"energy": -0.26676,
				"method": "rhf"
			},
			{
				"type": "occ",
				"energy": -0.25336,
				"method": "rhf"
			},
			{
				"type": "unocc",
				"energy": -0.09883,
				"method": "rhf"
			},
			{
				"type": "unocc",
				"energy": -0.05577,
				"method": "rhf"
			},
			{
				"type": "unocc",
				"energy": -0.00955,
				"method": "rhf"
			},
			{
				"type": "unocc",
				"energy": 0.00612,
				"method": "rhf"
			},
			{
				"type": "unocc",
				"energy": 0.01013,
				"method": "rhf"
			}
		],
		"cosmo_sigma_profile": { 
			"-0.025": 0.0,
			"-0.024": 0.0,
			"-0.023": 0.0,
			"-0.022": 0.0,
			"-0.021": 0.0,
			"-0.02": 0.0,
			"-0.019": 0.0,
			"-0.018": 0.0,
			"-0.017": 0.0,
			"-0.016": 0.0,
			"-0.015": 0.0,
			"-0.014": 0.151513314449,
			"-0.013": 1.22486769698,
			"-0.012": 1.36455639491,
			"-0.011": 1.19182337788,
			"-0.01": 2.03389120092,
			"-0.009": 2.52609287137,
			"-0.008": 5.00722704685,
			"-0.007": 7.20844589414,
			"-0.006": 8.24980988237,
			"-0.005": 13.5561813838,
			"-0.004": 19.3997260373,
			"-0.003": 29.9142275199,
			"-0.002": 33.6708609688,
			"-0.001": 35.9389101916,
			"0.0": 34.2071642274,
			"0.001": 22.1703365005,
			"0.002": 12.7526126122,
			"0.003": 14.3606559113,
			"0.004": 13.1762024149,
			"0.005": 4.76909044168,
			"0.006": 5.19538899383,
			"0.007": 6.50142633163,
			"0.008": 13.0473635621,
			"0.009": 4.235656597,
			"0.01": 0.530287532359,
			"0.011": 1.56961140705,
			"0.012": 2.06016511993,
			"0.013": 3.71500565932,
			"0.014": 4.7206826327,
			"0.015": 1.17943263,
			"0.016": 0.00578896983466,
			"0.017": 0.0,
			"0.018": 0.0,
			"0.019": 0.0,
			"0.02": 0.0,
			"0.021": 0.0,
			"0.022": 0.0,
			"0.023": 0.0,
			"0.024": 0.0,
			"0.025": 0.0
		}
	}
}
