{
	 "smiles": "CC(NC(=O)C1=NOC(=C1)C1=CC=CC=C1)C(O)=O", 
	 "Tm": 438.15, 
	 "num_atms": 31, 
	 "gaussian": { 
		 "optdone": 1, 
		 "sigma_profile": "yes", 
		 "theory": "DFT", 
		 "functional": "B3LYP", 
		 "basiset": "6-31G**", 
		 "properties": { 
			 "R2extent": 7946.7578, 
			 "electric_dipole_moment_norm": 5.89896780378, 
			 "electric_quadrupole_moment_norm": 20.4007987888, 
			 "total_energy": -912.989204941, 
			 "HOMO_LUMO_gap": 0.1788, 
			 "cosmo_polarized_energy": -20.36, 
			 "cosmo_cavitation_energy": 36.61, 
			 "cosmo_dispersion_energy": -26.32, 
			 "cosmo_repulsion_energy": 2.01, 
			 "cosmo_total_nonelectrostatic_energy": 12.3, 
			 "SMD_solvation_energy": 7.94 
		},
		"coords": [
			{
				"x": 0.5238405698,
				"y": -1.1155929312,
				"z": 4.0469379811,
				"element": "C" 
			},
			{
				"x": 0.0214437712,
				"y": -2.2848279081,
				"z": 3.1715924997,
				"element": "C" 
			},
			{
				"x": -1.3546949593,
				"y": -2.1119814675,
				"z": 2.7413374701,
				"element": "N" 
			},
			{
				"x": -1.8811752859,
				"y": -1.4606006494,
				"z": 1.6654289969,
				"element": "C" 
			},
			{
				"x": -3.0884763082,
				"y": -1.4533611675,
				"z": 1.4433980563,
				"element": "O" 
			},
			{
				"x": -0.9818390592,
				"y": -0.7329158275,
				"z": 0.7069502321,
				"element": "C" 
			},
			{
				"x": 0.3280556564,
				"y": -0.619564185,
				"z": 0.8247589133,
				"element": "N" 
			},
			{
				"x": 0.7365305619,
				"y": 0.1223747684,
				"z": -0.2743489686,
				"element": "O" 
			},
			{
				"x": -0.3430858996,
				"y": 0.4448293446,
				"z": -1.0375691874,
				"element": "C" 
			},
			{
				"x": -1.4652324235,
				"y": -0.0767315868,
				"z": -0.4545515198,
				"element": "C" 
			},
			{
				"x": -0.1008981091,
				"y": 1.2314063954,
				"z": -2.244578419,
				"element": "C" 
			},
			{
				"x": 1.1994397637,
				"y": 1.636144503,
				"z": -2.5908419985,
				"element": "C" 
			},
			{
				"x": 1.4155878317,
				"y": 2.3860055241,
				"z": -3.7446155625,
				"element": "C" 
			},
			{
				"x": 0.3433364593,
				"y": 2.7413533733,
				"z": -4.5656752896,
				"element": "C" 
			},
			{
				"x": -0.952118291,
				"y": 2.3419506379,
				"z": -4.2268597573,
				"element": "C" 
			},
			{
				"x": -1.1753828908,
				"y": 1.5924632278,
				"z": -3.0754333934,
				"element": "C" 
			},
			{
				"x": 0.0803024334,
				"y": -3.5938392658,
				"z": 3.9697974574,
				"element": "C" 
			},
			{
				"x": 1.3219050254,
				"y": -4.0669683562,
				"z": 4.2227879816,
				"element": "O" 
			},
			{
				"x": -0.8946420723,
				"y": -4.1633344565,
				"z": 4.3949007055,
				"element": "O" 
			},
			{
				"x": 0.5088713521,
				"y": -0.1955221402,
				"z": 3.4607978263,
				"element": "H" 
			},
			{
				"x": 1.5510629385,
				"y": -1.2829854663,
				"z": 4.3883172782,
				"element": "H" 
			},
			{
				"x": -0.1170504047,
				"y": -0.9964745045,
				"z": 4.924904137,
				"element": "H" 
			},
			{
				"x": 0.6713548428,
				"y": -2.3692613447,
				"z": 2.2946579055,
				"element": "H" 
			},
			{
				"x": -2.0369354434,
				"y": -2.6318448828,
				"z": 3.2854047731,
				"element": "H" 
			},
			{
				"x": -2.4943557032,
				"y": -0.025877349,
				"z": -0.7685046137,
				"element": "H" 
			},
			{
				"x": 2.0321792308,
				"y": 1.3604474565,
				"z": -1.9532703456,
				"element": "H" 
			},
			{
				"x": 2.4244702094,
				"y": 2.6936441035,
				"z": -4.0029497084,
				"element": "H" 
			},
			{
				"x": 0.5151981132,
				"y": 3.3260179615,
				"z": -5.4644826691,
				"element": "H" 
			},
			{
				"x": -1.7902560266,
				"y": 2.6148271426,
				"z": -4.8609765339,
				"element": "H" 
			},
			{
				"x": -2.1845349292,
				"y": 1.2856661883,
				"z": -2.8188774773,
				"element": "H" 
			},
			{
				"x": 1.9906990463,
				"y": -3.5223471381,
				"z": 3.7828632301,
				"element": "H" 
			}
		],
		 "valence_orbital": [ 
			{
				"type": "occ",
				"energy": -0.28929,
				"method": "rhf"
			},
			{
				"type": "occ",
				"energy": -0.26857,
				"method": "rhf"
			},
			{
				"type": "occ",
				"energy": -0.2635,
				"method": "rhf"
			},
			{
				"type": "occ",
				"energy": -0.25987,
				"method": "rhf"
			},
			{
				"type": "occ",
				"energy": -0.24268,
				"method": "rhf"
			},
			{
				"type": "unocc",
				"energy": -0.06388,
				"method": "rhf"
			},
			{
				"type": "unocc",
				"energy": -0.03115,
				"method": "rhf"
			},
			{
				"type": "unocc",
				"energy": -0.01682,
				"method": "rhf"
			},
			{
				"type": "unocc",
				"energy": -0.00462,
				"method": "rhf"
			},
			{
				"type": "unocc",
				"energy": 0.03906,
				"method": "rhf"
			}
		],
		"cosmo_sigma_profile": { 
			"-0.025": 0.0,
			"-0.024": 0.0,
			"-0.023": 0.0,
			"-0.022": 0.0,
			"-0.021": 0.0,
			"-0.02": 0.295203458258,
			"-0.019": 1.22559610069,
			"-0.018": 1.2701405125,
			"-0.017": 1.51488103784,
			"-0.016": 0.747757943636,
			"-0.015": 0.617900221576,
			"-0.014": 1.07884926872,
			"-0.013": 1.41491039841,
			"-0.012": 1.42441229288,
			"-0.011": 1.00931041242,
			"-0.01": 1.03910936127,
			"-0.009": 3.71491978313,
			"-0.008": 5.47163176047,
			"-0.007": 6.82242320044,
			"-0.006": 13.3470822136,
			"-0.005": 18.9441138653,
			"-0.004": 20.0830539805,
			"-0.003": 17.8305760608,
			"-0.002": 19.1371618954,
			"-0.001": 23.7453613068,
			"0.0": 25.8687723394,
			"0.001": 19.8291197269,
			"0.002": 16.4906174082,
			"0.003": 15.4869263603,
			"0.004": 17.4095290075,
			"0.005": 8.00466042957,
			"0.006": 7.10707603143,
			"0.007": 6.54053058764,
			"0.008": 6.52340546984,
			"0.009": 6.61831192116,
			"0.01": 5.94663873443,
			"0.011": 5.41035922553,
			"0.012": 4.8012302024,
			"0.013": 5.09006033903,
			"0.014": 0.829726121924,
			"0.015": 0.0,
			"0.016": 0.0,
			"0.017": 0.0,
			"0.018": 0.0,
			"0.019": 0.0,
			"0.02": 0.0,
			"0.021": 0.0,
			"0.022": 0.0,
			"0.023": 0.0,
			"0.024": 0.0,
			"0.025": 0.0
		}
	}
}
