{
	 "smiles": "CC1=CC2=C(NC=C2)C=C1", 
	 "Tm": 333.15, 
	 "num_atms": 19, 
	 "gaussian": { 
		 "optdone": 1, 
		 "sigma_profile": "yes", 
		 "theory": "DFT", 
		 "functional": "B3LYP", 
		 "basiset": "6-31G**", 
		 "properties": { 
			 "R2extent": 1603.3549, 
			 "electric_dipole_moment_norm": 1.94612542761, 
			 "electric_quadrupole_moment_norm": 7.33985456395, 
			 "total_energy": -403.141361353, 
			 "HOMO_LUMO_gap": 0.19592, 
			 "cosmo_polarized_energy": -8.06, 
			 "cosmo_cavitation_energy": 22.19, 
			 "cosmo_dispersion_energy": -16.79, 
			 "cosmo_repulsion_energy": 1.35, 
			 "cosmo_total_nonelectrostatic_energy": 6.75, 
			 "SMD_solvation_energy": 3.83 
		},
		"coords": [
			{
				"x": -1.8323395075,
				"y": -2.0129627186,
				"z": 3.0371265152,
				"element": "C" 
			},
			{
				"x": -1.1526640262,
				"y": -1.1994899175,
				"z": 1.9583877615,
				"element": "C" 
			},
			{
				"x": -1.6741595164,
				"y": -1.1392126266,
				"z": 0.669861668,
				"element": "C" 
			},
			{
				"x": -1.026330561,
				"y": -0.376062572,
				"z": -0.3192817169,
				"element": "C" 
			},
			{
				"x": 0.1611904989,
				"y": 0.324884773,
				"z": 0.0242829688,
				"element": "C" 
			},
			{
				"x": 0.5906882613,
				"y": 0.9856978806,
				"z": -1.1101895135,
				"element": "N" 
			},
			{
				"x": -0.2844820883,
				"y": 0.7228900224,
				"z": -2.1483351944,
				"element": "C" 
			},
			{
				"x": -1.2844414754,
				"y": -0.1037450649,
				"z": -1.706570746,
				"element": "C" 
			},
			{
				"x": 0.7012106524,
				"y": 0.2767959551,
				"z": 1.3142962133,
				"element": "C" 
			},
			{
				"x": 0.0339229525,
				"y": -0.4864046696,
				"z": 2.2624837703,
				"element": "C" 
			},
			{
				"x": -2.7305419375,
				"y": -2.5072861644,
				"z": 2.6561657728,
				"element": "H" 
			},
			{
				"x": -2.1328284533,
				"y": -1.3862618337,
				"z": 3.8855373083,
				"element": "H" 
			},
			{
				"x": -1.1685171419,
				"y": -2.7905547615,
				"z": 3.4340192269,
				"element": "H" 
			},
			{
				"x": -2.5841132395,
				"y": -1.6830396681,
				"z": 0.4273653548,
				"element": "H" 
			},
			{
				"x": 1.4106518961,
				"y": 1.5659308235,
				"z": -1.1730413827,
				"element": "H" 
			},
			{
				"x": -0.1185255091,
				"y": 1.152625632,
				"z": -3.1259926272,
				"element": "H" 
			},
			{
				"x": -2.1081222852,
				"y": -0.4750958346,
				"z": -2.2995953738,
				"element": "H" 
			},
			{
				"x": 1.6098316465,
				"y": 0.8157239517,
				"z": 1.5691487895,
				"element": "H" 
			},
			{
				"x": 0.4328698335,
				"y": -0.5404332067,
				"z": 3.2725312049,
				"element": "H" 
			}
		],
		 "valence_orbital": [ 
			{
				"type": "occ",
				"energy": -0.32406,
				"method": "rhf"
			},
			{
				"type": "occ",
				"energy": -0.31474,
				"method": "rhf"
			},
			{
				"type": "occ",
				"energy": -0.2685,
				"method": "rhf"
			},
			{
				"type": "occ",
				"energy": -0.20759,
				"method": "rhf"
			},
			{
				"type": "occ",
				"energy": -0.19698,
				"method": "rhf"
			},
			{
				"type": "unocc",
				"energy": -0.00106,
				"method": "rhf"
			},
			{
				"type": "unocc",
				"energy": 0.03466,
				"method": "rhf"
			},
			{
				"type": "unocc",
				"energy": 0.0756,
				"method": "rhf"
			},
			{
				"type": "unocc",
				"energy": 0.0831,
				"method": "rhf"
			},
			{
				"type": "unocc",
				"energy": 0.11311,
				"method": "rhf"
			}
		],
		"cosmo_sigma_profile": { 
			"-0.025": 0.0,
			"-0.024": 0.0,
			"-0.023": 0.0,
			"-0.022": 0.0,
			"-0.021": 0.0,
			"-0.02": 0.0,
			"-0.019": 0.0,
			"-0.018": 0.0,
			"-0.017": 0.0,
			"-0.016": 0.141463599538,
			"-0.015": 1.32020009239,
			"-0.014": 1.65566951375,
			"-0.013": 1.15777676321,
			"-0.012": 0.893691295259,
			"-0.011": 1.2868427501,
			"-0.01": 1.38042478088,
			"-0.009": 1.23013686403,
			"-0.008": 2.30782808477,
			"-0.007": 3.71202517258,
			"-0.006": 4.47849526998,
			"-0.005": 6.91453167672,
			"-0.004": 10.8917700309,
			"-0.003": 15.5986637669,
			"-0.002": 14.582219279,
			"-0.001": 14.6375482212,
			"0.0": 14.5342172348,
			"0.001": 12.4676594604,
			"0.002": 8.11780107314,
			"0.003": 8.84402543845,
			"0.004": 9.27410510647,
			"0.005": 11.1447334123,
			"0.006": 13.1683585275,
			"0.007": 13.8234300399,
			"0.008": 3.2063901367,
			"0.009": 0.0,
			"0.01": 0.0,
			"0.011": 0.0,
			"0.012": 0.0,
			"0.013": 0.0,
			"0.014": 0.0,
			"0.015": 0.0,
			"0.016": 0.0,
			"0.017": 0.0,
			"0.018": 0.0,
			"0.019": 0.0,
			"0.02": 0.0,
			"0.021": 0.0,
			"0.022": 0.0,
			"0.023": 0.0,
			"0.024": 0.0,
			"0.025": 0.0
		}
	}
}
