{
	 "smiles": "FC1=CC=C(C=C1)C(=O)CBr", 
	 "Tm": 320.15, 
	 "num_atms": 17, 
	 "gaussian": { 
		 "optdone": 1, 
		 "sigma_profile": "yes", 
		 "theory": "DFT", 
		 "functional": "B3LYP", 
		 "basiset": "6-31G**", 
		 "properties": { 
			 "R2extent": 4271.4721, 
			 "electric_dipole_moment_norm": 2.17157408577, 
			 "electric_quadrupole_moment_norm": 10.380043867, 
			 "total_energy": -3054.92732653, 
			 "HOMO_LUMO_gap": 0.18371, 
			 "cosmo_polarized_energy": -8.2, 
			 "cosmo_cavitation_energy": 24.31, 
			 "cosmo_dispersion_energy": -17.93, 
			 "cosmo_repulsion_energy": 1.42, 
			 "cosmo_total_nonelectrostatic_energy": 7.79, 
			 "SMD_solvation_energy": 4.16 
		},
		"coords": [
			{
				"x": -3.0822548576,
				"y": 0.7738747578,
				"z": -0.0701489635,
				"element": "F" 
			},
			{
				"x": -1.8128939092,
				"y": 0.3704280903,
				"z": 0.1125617129,
				"element": "C" 
			},
			{
				"x": -1.0147609319,
				"y": 0.1329295678,
				"z": -1.0045831846,
				"element": "C" 
			},
			{
				"x": 0.2955465047,
				"y": -0.282338173,
				"z": -0.8056253858,
				"element": "C" 
			},
			{
				"x": 0.8076524106,
				"y": -0.4594403206,
				"z": 0.4918883086,
				"element": "C" 
			},
			{
				"x": -0.0265639713,
				"y": -0.2146233088,
				"z": 1.5953352679,
				"element": "C" 
			},
			{
				"x": -1.341997547,
				"y": 0.2026372967,
				"z": 1.4111754127,
				"element": "C" 
			},
			{
				"x": 2.2316721669,
				"y": -0.8789393114,
				"z": 0.6200857906,
				"element": "C" 
			},
			{
				"x": 2.9328826294,
				"y": -1.0789113725,
				"z": -0.3596991335,
				"element": "O" 
			},
			{
				"x": 2.8647263815,
				"y": -1.0188567156,
				"z": 2.0022218602,
				"element": "C" 
			},
			{
				"x": 2.2258286809,
				"y": -2.6523437348,
				"z": 2.9224924546,
				"element": "Br" 
			},
			{
				"x": -1.4268747987,
				"y": 0.2760972058,
				"z": -1.9974358842,
				"element": "H" 
			},
			{
				"x": 0.9520768127,
				"y": -0.4756799911,
				"z": -1.6469204167,
				"element": "H" 
			},
			{
				"x": 0.3353818308,
				"y": -0.3687508795,
				"z": 2.605659685,
				"element": "H" 
			},
			{
				"x": -2.0029624086,
				"y": 0.3932368639,
				"z": 2.2493018412,
				"element": "H" 
			},
			{
				"x": 2.6361444239,
				"y": -0.1875165116,
				"z": 2.6687196144,
				"element": "H" 
			},
			{
				"x": 3.9378965826,
				"y": -1.1407034635,
				"z": 1.8808710202,
				"element": "H" 
			}
		],
		 "valence_orbital": [ 
			{
				"type": "occ",
				"energy": -0.29752,
				"method": "rhf"
			},
			{
				"type": "occ",
				"energy": -0.28869,
				"method": "rhf"
			},
			{
				"type": "occ",
				"energy": -0.27664,
				"method": "rhf"
			},
			{
				"type": "occ",
				"energy": -0.26372,
				"method": "rhf"
			},
			{
				"type": "occ",
				"energy": -0.26069,
				"method": "rhf"
			},
			{
				"type": "unocc",
				"energy": -0.07698,
				"method": "rhf"
			},
			{
				"type": "unocc",
				"energy": -0.02633,
				"method": "rhf"
			},
			{
				"type": "unocc",
				"energy": -0.01506,
				"method": "rhf"
			},
			{
				"type": "unocc",
				"energy": 0.04437,
				"method": "rhf"
			},
			{
				"type": "unocc",
				"energy": 0.07896,
				"method": "rhf"
			}
		],
		"cosmo_sigma_profile": { 
			"-0.025": 0.0,
			"-0.024": 0.0,
			"-0.023": 0.0,
			"-0.022": 0.0,
			"-0.021": 0.0,
			"-0.02": 0.0,
			"-0.019": 0.0,
			"-0.018": 0.0,
			"-0.017": 0.0,
			"-0.016": 0.0,
			"-0.015": 0.0,
			"-0.014": 0.0,
			"-0.013": 0.0,
			"-0.012": 0.0,
			"-0.011": 0.0,
			"-0.01": 0.80498205326,
			"-0.009": 3.45754469125,
			"-0.008": 6.88254832307,
			"-0.007": 9.4960209708,
			"-0.006": 9.81194504366,
			"-0.005": 10.7424217948,
			"-0.004": 9.1470191545,
			"-0.003": 8.62170199273,
			"-0.002": 8.71769635622,
			"-0.001": 13.9271739076,
			"0.0": 16.9075734785,
			"0.001": 20.843041576,
			"0.002": 21.1610060253,
			"0.003": 16.9703378905,
			"0.004": 16.9278318648,
			"0.005": 8.56258914678,
			"0.006": 2.72091611693,
			"0.007": 1.58656351272,
			"0.008": 1.36027679663,
			"0.009": 2.17407293816,
			"0.01": 2.62714217745,
			"0.011": 4.01018548989,
			"0.012": 1.05520942286,
			"0.013": 0.014145483679,
			"0.014": 0.0,
			"0.015": 0.0,
			"0.016": 0.0,
			"0.017": 0.0,
			"0.018": 0.0,
			"0.019": 0.0,
			"0.02": 0.0,
			"0.021": 0.0,
			"0.022": 0.0,
			"0.023": 0.0,
			"0.024": 0.0,
			"0.025": 0.0
		}
	}
}
