{
	 "smiles": "COC(=O)C1=NN(C(=O)C1CCO)C1=CC(=CC=C1)C(O)=O", 
	 "Tm": 485.15, 
	 "num_atms": 36, 
	 "gaussian": { 
		 "optdone": 1, 
		 "sigma_profile": "yes", 
		 "theory": "DFT", 
		 "functional": "B3LYP", 
		 "basiset": "6-31G**", 
		 "properties": { 
			 "R2extent": 9291.6388, 
			 "electric_dipole_moment_norm": 4.73606319848, 
			 "electric_quadrupole_moment_norm": 7.7819414859, 
			 "total_energy": -1102.76801187, 
			 "HOMO_LUMO_gap": 0.15486, 
			 "cosmo_polarized_energy": -21.22, 
			 "cosmo_cavitation_energy": 41.57, 
			 "cosmo_dispersion_energy": -29.27, 
			 "cosmo_repulsion_energy": 2.26, 
			 "cosmo_total_nonelectrostatic_energy": 14.56, 
			 "SMD_solvation_energy": 9.89 
		},
		"coords": [
			{
				"x": 1.3229513112,
				"y": 3.0088855886,
				"z": 3.4885534472,
				"element": "C" 
			},
			{
				"x": 0.6202448533,
				"y": 2.1297856756,
				"z": 2.5929294945,
				"element": "O" 
			},
			{
				"x": 1.3742741058,
				"y": 1.5925734069,
				"z": 1.6056264688,
				"element": "C" 
			},
			{
				"x": 2.5563117385,
				"y": 1.8055734501,
				"z": 1.4569131791,
				"element": "O" 
			},
			{
				"x": 0.5348184629,
				"y": 0.7215317699,
				"z": 0.7385403013,
				"element": "C" 
			},
			{
				"x": 1.0558316219,
				"y": 0.2392468063,
				"z": -0.3416416214,
				"element": "N" 
			},
			{
				"x": 0.0975708355,
				"y": -0.4957388704,
				"z": -1.0045399245,
				"element": "N" 
			},
			{
				"x": -1.1363161003,
				"y": -0.4933126523,
				"z": -0.3319593949,
				"element": "C" 
			},
			{
				"x": -2.1544277812,
				"y": -1.0613311551,
				"z": -0.6856388637,
				"element": "O" 
			},
			{
				"x": -0.9051869798,
				"y": 0.3403968934,
				"z": 0.9257100801,
				"element": "C" 
			},
			{
				"x": -1.2435840133,
				"y": -0.4280006818,
				"z": 2.2286827533,
				"element": "C" 
			},
			{
				"x": -2.7461138417,
				"y": -0.628608134,
				"z": 2.4039044555,
				"element": "C" 
			},
			{
				"x": -3.3480426478,
				"y": 0.6615450146,
				"z": 2.4743429696,
				"element": "O" 
			},
			{
				"x": 0.4510226907,
				"y": -1.1342109916,
				"z": -2.2261937214,
				"element": "C" 
			},
			{
				"x": 1.7636556298,
				"y": -1.0147334227,
				"z": -2.6985393154,
				"element": "C" 
			},
			{
				"x": 2.1227061054,
				"y": -1.6373331575,
				"z": -3.8975384267,
				"element": "C" 
			},
			{
				"x": 1.1833941208,
				"y": -2.3773439104,
				"z": -4.6270633501,
				"element": "C" 
			},
			{
				"x": -0.116781093,
				"y": -2.4878229449,
				"z": -4.1460482078,
				"element": "C" 
			},
			{
				"x": -0.4961635767,
				"y": -1.8735268095,
				"z": -2.951389961,
				"element": "C" 
			},
			{
				"x": 3.5053099787,
				"y": -1.5395654485,
				"z": -4.4409466499,
				"element": "C" 
			},
			{
				"x": 4.3342073005,
				"y": -0.8034178987,
				"z": -3.6614532944,
				"element": "O" 
			},
			{
				"x": 3.8801583089,
				"y": -2.0567314641,
				"z": -5.4750770617,
				"element": "O" 
			},
			{
				"x": 1.7442459419,
				"y": 3.8545968493,
				"z": 2.9398342693,
				"element": "H" 
			},
			{
				"x": 2.1334355439,
				"y": 2.4752233957,
				"z": 3.9909464346,
				"element": "H" 
			},
			{
				"x": 0.5793506917,
				"y": 3.3485954586,
				"z": 4.2085832488,
				"element": "H" 
			},
			{
				"x": -1.5594088921,
				"y": 1.2214274076,
				"z": 0.9014850636,
				"element": "H" 
			},
			{
				"x": -0.861202295,
				"y": 0.1564180643,
				"z": 3.0697269301,
				"element": "H" 
			},
			{
				"x": -0.7401192208,
				"y": -1.4013661228,
				"z": 2.2388311379,
				"element": "H" 
			},
			{
				"x": -2.9208702587,
				"y": -1.1964531156,
				"z": 3.331249647,
				"element": "H" 
			},
			{
				"x": -3.1447786118,
				"y": -1.2099993669,
				"z": 1.564498925,
				"element": "H" 
			},
			{
				"x": -4.2844940548,
				"y": 0.5703032459,
				"z": 2.2630635949,
				"element": "H" 
			},
			{
				"x": 2.4901465733,
				"y": -0.4437567496,
				"z": -2.1374325485,
				"element": "H" 
			},
			{
				"x": 1.4921483676,
				"y": -2.8487309768,
				"z": -5.5532426959,
				"element": "H" 
			},
			{
				"x": -0.8549692384,
				"y": -3.0581542772,
				"z": -4.7015963813,
				"element": "H" 
			},
			{
				"x": -1.507288907,
				"y": -1.9614601338,
				"z": -2.5798827143,
				"element": "H" 
			},
			{
				"x": 5.1953633299,
				"y": -0.8098047425,
				"z": -4.1102382677,
				"element": "H" 
			}
		],
		 "valence_orbital": [ 
			{
				"type": "occ",
				"energy": -0.27825,
				"method": "rhf"
			},
			{
				"type": "occ",
				"energy": -0.27525,
				"method": "rhf"
			},
			{
				"type": "occ",
				"energy": -0.26578,
				"method": "rhf"
			},
			{
				"type": "occ",
				"energy": -0.26328,
				"method": "rhf"
			},
			{
				"type": "occ",
				"energy": -0.22974,
				"method": "rhf"
			},
			{
				"type": "unocc",
				"energy": -0.07488,
				"method": "rhf"
			},
			{
				"type": "unocc",
				"energy": -0.04812,
				"method": "rhf"
			},
			{
				"type": "unocc",
				"energy": -0.0264,
				"method": "rhf"
			},
			{
				"type": "unocc",
				"energy": 0.01881,
				"method": "rhf"
			},
			{
				"type": "unocc",
				"energy": 0.05947,
				"method": "rhf"
			}
		],
		"cosmo_sigma_profile": { 
			"-0.025": 0.0,
			"-0.024": 0.0,
			"-0.023": 0.0,
			"-0.022": 0.0,
			"-0.021": 0.0,
			"-0.02": 0.0,
			"-0.019": 0.0757265551196,
			"-0.018": 0.81781774385,
			"-0.017": 1.1407887662,
			"-0.016": 1.36851732621,
			"-0.015": 1.25168868895,
			"-0.014": 2.22705662528,
			"-0.013": 1.19777464493,
			"-0.012": 1.7611909958,
			"-0.011": 2.36229747041,
			"-0.01": 1.33432590071,
			"-0.009": 1.48390628436,
			"-0.008": 4.1395179711,
			"-0.007": 8.21070072859,
			"-0.006": 18.7837987144,
			"-0.005": 22.4788072612,
			"-0.004": 25.0028900409,
			"-0.003": 27.4819341734,
			"-0.002": 24.6590351601,
			"-0.001": 21.128735483,
			"0.0": 21.3729215169,
			"0.001": 23.4252956192,
			"0.002": 21.4747415356,
			"0.003": 18.8184442826,
			"0.004": 9.64925547991,
			"0.005": 9.2766989498,
			"0.006": 8.01706199822,
			"0.007": 8.49884452913,
			"0.008": 6.30158864157,
			"0.009": 7.10045962228,
			"0.01": 8.06912103743,
			"0.011": 11.5902339851,
			"0.012": 7.53231956928,
			"0.013": 1.9892410375,
			"0.014": 0.816088910689,
			"0.015": 0.127522765353,
			"0.016": 0.0,
			"0.017": 0.0,
			"0.018": 0.0,
			"0.019": 0.0,
			"0.02": 0.0,
			"0.021": 0.0,
			"0.022": 0.0,
			"0.023": 0.0,
			"0.024": 0.0,
			"0.025": 0.0
		}
	}
}
