{
	 "smiles": "COC(=O)C1=C(F)C=C(C=C1F)C#N", 
	 "Tm": 385.15, 
	 "num_atms": 19, 
	 "gaussian": { 
		 "optdone": 1, 
		 "sigma_profile": "yes", 
		 "theory": "DFT", 
		 "functional": "B3LYP", 
		 "basiset": "6-31G**", 
		 "properties": { 
			 "R2extent": 3124.3405, 
			 "electric_dipole_moment_norm": 3.38282894631, 
			 "electric_quadrupole_moment_norm": 14.7265119302, 
			 "total_energy": -750.815801704, 
			 "HOMO_LUMO_gap": 0.19418, 
			 "cosmo_polarized_energy": -11.72, 
			 "cosmo_cavitation_energy": 26.82, 
			 "cosmo_dispersion_energy": -18.48, 
			 "cosmo_repulsion_energy": 1.42, 
			 "cosmo_total_nonelectrostatic_energy": 9.77, 
			 "SMD_solvation_energy": 8.59 
		},
		"coords": [
			{
				"x": -2.5937094309,
				"y": -2.7815126016,
				"z": -1.3578671532,
				"element": "C" 
			},
			{
				"x": -1.8062607279,
				"y": -2.0074729055,
				"z": -0.4328339099,
				"element": "O" 
			},
			{
				"x": -0.7858066466,
				"y": -1.3276333794,
				"z": -0.9831085892,
				"element": "C" 
			},
			{
				"x": -0.4935376788,
				"y": -1.3593685127,
				"z": -2.1575182917,
				"element": "O" 
			},
			{
				"x": -0.0378128522,
				"y": -0.5300794585,
				"z": 0.0431612575,
				"element": "C" 
			},
			{
				"x": -0.6684936665,
				"y": 0.1969890709,
				"z": 1.0623421397,
				"element": "C" 
			},
			{
				"x": -2.0045135865,
				"y": 0.1800537678,
				"z": 1.1496845792,
				"element": "F" 
			},
			{
				"x": 0.0302346608,
				"y": 0.969263974,
				"z": 1.9798855828,
				"element": "C" 
			},
			{
				"x": 1.4285299256,
				"y": 1.0183667925,
				"z": 1.8886272755,
				"element": "C" 
			},
			{
				"x": 2.1051903701,
				"y": 0.3069757022,
				"z": 0.8873391886,
				"element": "C" 
			},
			{
				"x": 1.3611161697,
				"y": -0.4421322611,
				"z": -0.0131835648,
				"element": "C" 
			},
			{
				"x": 2.0188769328,
				"y": -1.1295548393,
				"z": -0.9515822801,
				"element": "F" 
			},
			{
				"x": 2.1739807207,
				"y": 1.8044130106,
				"z": 2.8290986413,
				"element": "C" 
			},
			{
				"x": 2.7777278978,
				"y": 2.4409948942,
				"z": 3.5919588214,
				"element": "N" 
			},
			{
				"x": -1.9747809204,
				"y": -3.538966512,
				"z": -1.8444080492,
				"element": "H" 
			},
			{
				"x": -3.3725903776,
				"y": -3.2477363892,
				"z": -0.7558350705,
				"element": "H" 
			},
			{
				"x": -3.0304166783,
				"y": -2.1346209158,
				"z": -2.1222304904,
				"element": "H" 
			},
			{
				"x": -0.5088989212,
				"y": 1.5191949709,
				"z": 2.741110531,
				"element": "H" 
			},
			{
				"x": 3.1846648096,
				"y": 0.328925592,
				"z": 0.8053593818,
				"element": "H" 
			}
		],
		 "valence_orbital": [ 
			{
				"type": "occ",
				"energy": -0.34926,
				"method": "rhf"
			},
			{
				"type": "occ",
				"energy": -0.31821,
				"method": "rhf"
			},
			{
				"type": "occ",
				"energy": -0.2994,
				"method": "rhf"
			},
			{
				"type": "occ",
				"energy": -0.28217,
				"method": "rhf"
			},
			{
				"type": "occ",
				"energy": -0.28059,
				"method": "rhf"
			},
			{
				"type": "unocc",
				"energy": -0.08641,
				"method": "rhf"
			},
			{
				"type": "unocc",
				"energy": -0.03396,
				"method": "rhf"
			},
			{
				"type": "unocc",
				"energy": -0.00179,
				"method": "rhf"
			},
			{
				"type": "unocc",
				"energy": 0.01938,
				"method": "rhf"
			},
			{
				"type": "unocc",
				"energy": 0.05816,
				"method": "rhf"
			}
		],
		"cosmo_sigma_profile": { 
			"-0.025": 0.0,
			"-0.024": 0.0,
			"-0.023": 0.0,
			"-0.022": 0.0,
			"-0.021": 0.0,
			"-0.02": 0.0,
			"-0.019": 0.0,
			"-0.018": 0.0,
			"-0.017": 0.0,
			"-0.016": 0.0,
			"-0.015": 0.0,
			"-0.014": 0.0,
			"-0.013": 0.0,
			"-0.012": 0.0,
			"-0.011": 0.10920751031,
			"-0.01": 3.37625771744,
			"-0.009": 3.602542687,
			"-0.008": 3.74534701737,
			"-0.007": 6.14799490156,
			"-0.006": 10.9450240121,
			"-0.005": 13.4575272231,
			"-0.004": 18.5211245947,
			"-0.003": 24.9629907627,
			"-0.002": 21.9762627127,
			"-0.001": 14.1472197893,
			"0.0": 8.44513090581,
			"0.001": 7.17116468244,
			"0.002": 12.2149766233,
			"0.003": 15.8370070374,
			"0.004": 7.27032894486,
			"0.005": 6.7817034919,
			"0.006": 5.97046759158,
			"0.007": 6.59206929796,
			"0.008": 5.70959683142,
			"0.009": 5.53065875511,
			"0.01": 6.02432981682,
			"0.011": 6.67185121942,
			"0.012": 2.10159962147,
			"0.013": 0.139003077092,
			"0.014": 0.0,
			"0.015": 0.0,
			"0.016": 0.0,
			"0.017": 0.0,
			"0.018": 0.0,
			"0.019": 0.0,
			"0.02": 0.0,
			"0.021": 0.0,
			"0.022": 0.0,
			"0.023": 0.0,
			"0.024": 0.0,
			"0.025": 0.0
		}
	}
}
