{
	 "smiles": "OC=O", 
	 "Tm": 281.31, 
	 "num_atms": 5, 
	 "gaussian": { 
		 "optdone": 1, 
		 "sigma_profile": "yes", 
		 "theory": "DFT", 
		 "functional": "B3LYP", 
		 "basiset": "6-31G**", 
		 "properties": { 
			 "R2extent": 288.999, 
			 "electric_dipole_moment_norm": 1.45025977328, 
			 "electric_quadrupole_moment_norm": 5.24845674365, 
			 "total_energy": -189.75877728, 
			 "HOMO_LUMO_gap": 0.28943, 
			 "cosmo_polarized_energy": -7.73, 
			 "cosmo_cavitation_energy": 9.12, 
			 "cosmo_dispersion_energy": -6.71, 
			 "cosmo_repulsion_energy": 0.68, 
			 "cosmo_total_nonelectrostatic_energy": 3.08, 
			 "SMD_solvation_energy": 4.26 
		},
		"coords": [
			{
				"x": 1.2198018808,
				"y": 0.867984288,
				"z": -1.6824252452,
				"element": "O" 
			},
			{
				"x": 0.6829781693,
				"y": 0.4994141603,
				"z": -0.5043967418,
				"element": "C" 
			},
			{
				"x": 0.51052818,
				"y": 1.2302699014,
				"z": 0.4381082795,
				"element": "O" 
			},
			{
				"x": 1.4299797732,
				"y": 1.8157451753,
				"z": -1.6099926138,
				"element": "H" 
			},
			{
				"x": 0.4275119967,
				"y": -0.5703135251,
				"z": -0.5377936787,
				"element": "H" 
			}
		],
		 "valence_orbital": [ 
			{
				"type": "occ",
				"energy": -0.48838,
				"method": "rhf"
			},
			{
				"type": "occ",
				"energy": -0.44873,
				"method": "rhf"
			},
			{
				"type": "occ",
				"energy": -0.40663,
				"method": "rhf"
			},
			{
				"type": "occ",
				"energy": -0.33054,
				"method": "rhf"
			},
			{
				"type": "occ",
				"energy": -0.29033,
				"method": "rhf"
			},
			{
				"type": "unocc",
				"energy": -0.0009,
				"method": "rhf"
			},
			{
				"type": "unocc",
				"energy": 0.07008,
				"method": "rhf"
			},
			{
				"type": "unocc",
				"energy": 0.13343,
				"method": "rhf"
			},
			{
				"type": "unocc",
				"energy": 0.26386,
				"method": "rhf"
			},
			{
				"type": "unocc",
				"energy": 0.27047,
				"method": "rhf"
			}
		],
		"cosmo_sigma_profile": { 
			"-0.025": 0.0,
			"-0.024": 0.0,
			"-0.023": 0.0,
			"-0.022": 0.0,
			"-0.021": 0.0,
			"-0.02": 0.0,
			"-0.019": 0.320507639973,
			"-0.018": 0.978341343934,
			"-0.017": 0.788736484622,
			"-0.016": 0.789769392851,
			"-0.015": 1.09289385263,
			"-0.014": 0.495094797994,
			"-0.013": 0.588200613348,
			"-0.012": 1.13295289877,
			"-0.011": 0.771464482409,
			"-0.01": 1.09816376966,
			"-0.009": 3.10195003665,
			"-0.008": 3.34549192308,
			"-0.007": 2.7933346743,
			"-0.006": 2.95310906593,
			"-0.005": 2.60176744828,
			"-0.004": 2.60453928124,
			"-0.003": 4.08921376673,
			"-0.002": 3.12691797634,
			"-0.001": 2.57659332183,
			"0.0": 2.33361132913,
			"0.001": 2.10886485926,
			"0.002": 2.57469816455,
			"0.003": 2.84636129463,
			"0.004": 2.15880055428,
			"0.005": 1.66465648201,
			"0.006": 2.74377457719,
			"0.007": 3.09854772087,
			"0.008": 3.1440342191,
			"0.009": 3.14516611922,
			"0.01": 3.66987790129,
			"0.011": 5.1794378319,
			"0.012": 2.41742456924,
			"0.013": 0.147156104754,
			"0.014": 0.0,
			"0.015": 0.0,
			"0.016": 0.0,
			"0.017": 0.0,
			"0.018": 0.0,
			"0.019": 0.0,
			"0.02": 0.0,
			"0.021": 0.0,
			"0.022": 0.0,
			"0.023": 0.0,
			"0.024": 0.0,
			"0.025": 0.0
		}
	}
}
