{
	 "smiles": "NC(=S)NN=CC1=CC=C(C=C1)C#N", 
	 "Tm": 518.15, 
	 "num_atms": 22, 
	 "gaussian": { 
		 "optdone": 1, 
		 "sigma_profile": "yes", 
		 "theory": "DFT", 
		 "functional": "B3LYP", 
		 "basiset": "6-31G**", 
		 "properties": { 
			 "R2extent": 5212.923, 
			 "electric_dipole_moment_norm": 5.98397313246, 
			 "electric_quadrupole_moment_norm": 15.2377901081, 
			 "total_energy": -964.937035077, 
			 "HOMO_LUMO_gap": 0.12761, 
			 "cosmo_polarized_energy": -21.5, 
			 "cosmo_cavitation_energy": 30.28, 
			 "cosmo_dispersion_energy": -21.86, 
			 "cosmo_repulsion_energy": 1.7, 
			 "cosmo_total_nonelectrostatic_energy": 10.12, 
			 "SMD_solvation_energy": 5.48 
		},
		"coords": [
			{
				"x": -0.5476022265,
				"y": -0.5643675986,
				"z": -3.761019976,
				"element": "N" 
			},
			{
				"x": -0.1290181885,
				"y": 0.5254607135,
				"z": -3.0964448728,
				"element": "C" 
			},
			{
				"x": -0.0479225032,
				"y": 2.0747449797,
				"z": -3.7259454755,
				"element": "S" 
			},
			{
				"x": 0.2804750475,
				"y": 0.2926360763,
				"z": -1.7958800718,
				"element": "N" 
			},
			{
				"x": 0.1100540379,
				"y": -0.9243924836,
				"z": -1.2307847657,
				"element": "N" 
			},
			{
				"x": 0.4420118425,
				"y": -1.1410514022,
				"z": -0.0022886146,
				"element": "C" 
			},
			{
				"x": 1.0707784836,
				"y": -0.2569253769,
				"z": 0.9956451345,
				"element": "C" 
			},
			{
				"x": 2.0198088103,
				"y": 0.7362888325,
				"z": 0.6799822537,
				"element": "C" 
			},
			{
				"x": 2.5954338035,
				"y": 1.5136417693,
				"z": 1.6790495883,
				"element": "C" 
			},
			{
				"x": 2.2352187758,
				"y": 1.3162559218,
				"z": 3.022167569,
				"element": "C" 
			},
			{
				"x": 1.305683884,
				"y": 0.3142915882,
				"z": 3.3527221179,
				"element": "C" 
			},
			{
				"x": 0.7435759807,
				"y": -0.4631638451,
				"z": 2.3499735266,
				"element": "C" 
			},
			{
				"x": 2.8226446683,
				"y": 2.1211862247,
				"z": 4.0524809898,
				"element": "C" 
			},
			{
				"x": 3.2987916888,
				"y": 2.7724777766,
				"z": 4.8904742628,
				"element": "N" 
			},
			{
				"x": -0.6093208951,
				"y": -1.4515690116,
				"z": -3.2808295909,
				"element": "H" 
			},
			{
				"x": -0.8716632686,
				"y": -0.4514263961,
				"z": -4.706700248,
				"element": "H" 
			},
			{
				"x": 0.4985876672,
				"y": 1.1233473819,
				"z": -1.2545329749,
				"element": "H" 
			},
			{
				"x": 0.1890385747,
				"y": -2.1418576708,
				"z": 0.3440890112,
				"element": "H" 
			},
			{
				"x": 2.3500743567,
				"y": 0.876587104,
				"z": -0.3436456353,
				"element": "H" 
			},
			{
				"x": 3.3304723235,
				"y": 2.2701288813,
				"z": 1.4262514599,
				"element": "H" 
			},
			{
				"x": 1.036356249,
				"y": 0.1535584047,
				"z": 4.391063428,
				"element": "H" 
			},
			{
				"x": 0.0301208879,
				"y": -1.2394518696,
				"z": 2.6112728838,
				"element": "H" 
			}
		],
		 "valence_orbital": [ 
			{
				"type": "occ",
				"energy": -0.29731,
				"method": "rhf"
			},
			{
				"type": "occ",
				"energy": -0.29457,
				"method": "rhf"
			},
			{
				"type": "occ",
				"energy": -0.26078,
				"method": "rhf"
			},
			{
				"type": "occ",
				"energy": -0.22139,
				"method": "rhf"
			},
			{
				"type": "occ",
				"energy": -0.2181,
				"method": "rhf"
			},
			{
				"type": "unocc",
				"energy": -0.09049,
				"method": "rhf"
			},
			{
				"type": "unocc",
				"energy": -0.04503,
				"method": "rhf"
			},
			{
				"type": "unocc",
				"energy": -0.02556,
				"method": "rhf"
			},
			{
				"type": "unocc",
				"energy": 0.01406,
				"method": "rhf"
			},
			{
				"type": "unocc",
				"energy": 0.02571,
				"method": "rhf"
			}
		],
		"cosmo_sigma_profile": { 
			"-0.025": 0.0,
			"-0.024": 0.0,
			"-0.023": 0.0,
			"-0.022": 0.0,
			"-0.021": 0.0,
			"-0.02": 0.0,
			"-0.019": 0.0,
			"-0.018": 0.0,
			"-0.017": 0.0,
			"-0.016": 0.0673579529844,
			"-0.015": 0.982330615371,
			"-0.014": 1.30018179399,
			"-0.013": 1.68297763417,
			"-0.012": 2.46326640623,
			"-0.011": 3.85248426478,
			"-0.01": 2.42330489777,
			"-0.009": 5.43765378285,
			"-0.008": 13.4237086122,
			"-0.007": 13.951087357,
			"-0.006": 11.5958428052,
			"-0.005": 9.21515931182,
			"-0.004": 11.4480197553,
			"-0.003": 10.5847636009,
			"-0.002": 13.5400339285,
			"-0.001": 17.7787216397,
			"0.0": 18.0563495317,
			"0.001": 21.1730964909,
			"0.002": 10.5390044415,
			"0.003": 7.78488849178,
			"0.004": 7.55097638466,
			"0.005": 8.24747777991,
			"0.006": 6.06567698551,
			"0.007": 5.99278167168,
			"0.008": 6.92622761507,
			"0.009": 8.14043271782,
			"0.01": 10.5984172666,
			"0.011": 9.65711783737,
			"0.012": 5.46450259999,
			"0.013": 1.19521030268,
			"0.014": 0.0,
			"0.015": 0.0,
			"0.016": 0.0,
			"0.017": 0.0,
			"0.018": 0.0,
			"0.019": 0.0,
			"0.02": 0.0,
			"0.021": 0.0,
			"0.022": 0.0,
			"0.023": 0.0,
			"0.024": 0.0,
			"0.025": 0.0
		}
	}
}
