{
	 "smiles": "COC(=O)C1=C(C2=C(S1)C=CC=C2)S(Cl)(=O)=O", 
	 "Tm": 372.15, 
	 "num_atms": 24, 
	 "gaussian": { 
		 "optdone": 1, 
		 "sigma_profile": "yes", 
		 "theory": "DFT", 
		 "functional": "B3LYP", 
		 "basiset": "6-31G**", 
		 "properties": { 
			 "R2extent": 5059.1126, 
			 "electric_dipole_moment_norm": 4.15116881252, 
			 "electric_quadrupole_moment_norm": 20.9182356732, 
			 "total_energy": -1942.66869583, 
			 "HOMO_LUMO_gap": 0.15563, 
			 "cosmo_polarized_energy": -11.37, 
			 "cosmo_cavitation_energy": 33.73, 
			 "cosmo_dispersion_energy": -24.77, 
			 "cosmo_repulsion_energy": 1.84, 
			 "cosmo_total_nonelectrostatic_energy": 10.8, 
			 "SMD_solvation_energy": 5.45 
		},
		"coords": [
			{
				"x": -3.1871654215,
				"y": 1.1983856612,
				"z": 1.6448337424,
				"element": "C" 
			},
			{
				"x": -1.8068760877,
				"y": 0.8289113887,
				"z": 1.4469185522,
				"element": "O" 
			},
			{
				"x": -1.6058738707,
				"y": -0.4104105917,
				"z": 0.9902236304,
				"element": "C" 
			},
			{
				"x": -2.4531131633,
				"y": -1.2651758898,
				"z": 0.8617006386,
				"element": "O" 
			},
			{
				"x": -0.1483678898,
				"y": -0.6592126196,
				"z": 0.7306840872,
				"element": "C" 
			},
			{
				"x": 0.7345468371,
				"y": -0.0527675427,
				"z": -0.1244166657,
				"element": "C" 
			},
			{
				"x": 2.082960165,
				"y": -0.5754142565,
				"z": -0.0628132943,
				"element": "C" 
			},
			{
				"x": 2.1618229594,
				"y": -1.6278240352,
				"z": 0.8797282033,
				"element": "C" 
			},
			{
				"x": 0.6112889528,
				"y": -1.9370269654,
				"z": 1.6406940841,
				"element": "S" 
			},
			{
				"x": 3.3607673198,
				"y": -2.3015743758,
				"z": 1.1353652229,
				"element": "C" 
			},
			{
				"x": 4.4928032402,
				"y": -1.9117654254,
				"z": 0.4314165211,
				"element": "C" 
			},
			{
				"x": 4.4326760154,
				"y": -0.8649802444,
				"z": -0.5065556821,
				"element": "C" 
			},
			{
				"x": 3.2454447678,
				"y": -0.19431219,
				"z": -0.7598612529,
				"element": "C" 
			},
			{
				"x": 0.2550003957,
				"y": 1.195697221,
				"z": -1.2944051897,
				"element": "S" 
			},
			{
				"x": 0.5417947769,
				"y": 0.139681999,
				"z": -3.1293586783,
				"element": "Cl" 
			},
			{
				"x": 1.2453483879,
				"y": 2.2655190456,
				"z": -1.2920130784,
				"element": "O" 
			},
			{
				"x": -1.1737788633,
				"y": 1.4587838693,
				"z": -1.2105032708,
				"element": "O" 
			},
			{
				"x": -3.159292514,
				"y": 2.2008932716,
				"z": 2.0688299722,
				"element": "H" 
			},
			{
				"x": -3.709306476,
				"y": 1.2008163901,
				"z": 0.6856838894,
				"element": "H" 
			},
			{
				"x": -3.6753700178,
				"y": 0.4985194505,
				"z": 2.3261582897,
				"element": "H" 
			},
			{
				"x": 3.4039247327,
				"y": -3.1054432087,
				"z": 1.8631878957,
				"element": "H" 
			},
			{
				"x": 5.4352557107,
				"y": -2.4196646236,
				"z": 0.6110945736,
				"element": "H" 
			},
			{
				"x": 5.3324204562,
				"y": -0.5726943464,
				"z": -1.0386228226,
				"element": "H" 
			},
			{
				"x": 3.2117895866,
				"y": 0.6206580183,
				"z": -1.4727693682,
				"element": "H" 
			}
		],
		 "valence_orbital": [ 
			{
				"type": "occ",
				"energy": -0.31474,
				"method": "rhf"
			},
			{
				"type": "occ",
				"energy": -0.30894,
				"method": "rhf"
			},
			{
				"type": "occ",
				"energy": -0.30189,
				"method": "rhf"
			},
			{
				"type": "occ",
				"energy": -0.26503,
				"method": "rhf"
			},
			{
				"type": "occ",
				"energy": -0.25312,
				"method": "rhf"
			},
			{
				"type": "unocc",
				"energy": -0.09749,
				"method": "rhf"
			},
			{
				"type": "unocc",
				"energy": -0.06596,
				"method": "rhf"
			},
			{
				"type": "unocc",
				"energy": -0.02747,
				"method": "rhf"
			},
			{
				"type": "unocc",
				"energy": -0.02163,
				"method": "rhf"
			},
			{
				"type": "unocc",
				"energy": -0.01145,
				"method": "rhf"
			}
		],
		"cosmo_sigma_profile": { 
			"-0.025": 0.0,
			"-0.024": 0.0,
			"-0.023": 0.0,
			"-0.022": 0.0,
			"-0.021": 0.0,
			"-0.02": 0.0,
			"-0.019": 0.0,
			"-0.018": 0.0,
			"-0.017": 0.0,
			"-0.016": 0.0,
			"-0.015": 0.0,
			"-0.014": 0.0,
			"-0.013": 0.0,
			"-0.012": 0.0,
			"-0.011": 0.0,
			"-0.01": 0.0924501828198,
			"-0.009": 1.49605278957,
			"-0.008": 3.38504530384,
			"-0.007": 10.8618989752,
			"-0.006": 16.9290410023,
			"-0.005": 17.2764651942,
			"-0.004": 19.793679591,
			"-0.003": 16.3310691244,
			"-0.002": 19.7164852477,
			"-0.001": 21.6027470899,
			"0.0": 21.4520377756,
			"0.001": 23.7804390239,
			"0.002": 28.6783194847,
			"0.003": 25.0740635532,
			"0.004": 9.89996377183,
			"0.005": 6.01622643127,
			"0.006": 6.93216255642,
			"0.007": 8.90648968532,
			"0.008": 7.75259010277,
			"0.009": 3.66665749272,
			"0.01": 4.31953117458,
			"0.011": 2.2266350556,
			"0.012": 0.0140820030934,
			"0.013": 0.0,
			"0.014": 0.0,
			"0.015": 0.0,
			"0.016": 0.0,
			"0.017": 0.0,
			"0.018": 0.0,
			"0.019": 0.0,
			"0.02": 0.0,
			"0.021": 0.0,
			"0.022": 0.0,
			"0.023": 0.0,
			"0.024": 0.0,
			"0.025": 0.0
		}
	}
}
