{
	 "smiles": "COC1=CC2=C(C=C1)C=C(C=O)C(Cl)=N2", 
	 "Tm": 358.15, 
	 "num_atms": 23, 
	 "gaussian": { 
		 "optdone": 1, 
		 "sigma_profile": "yes", 
		 "theory": "DFT", 
		 "functional": "B3LYP", 
		 "basiset": "6-31G**", 
		 "properties": { 
			 "R2extent": 6242.5353, 
			 "electric_dipole_moment_norm": 5.81854868588, 
			 "electric_quadrupole_moment_norm": 6.98061302967, 
			 "total_energy": -1089.36903517, 
			 "HOMO_LUMO_gap": 0.15079, 
			 "cosmo_polarized_energy": -11.92, 
			 "cosmo_cavitation_energy": 29.71, 
			 "cosmo_dispersion_energy": -22.1, 
			 "cosmo_repulsion_energy": 1.7, 
			 "cosmo_total_nonelectrostatic_energy": 9.31, 
			 "SMD_solvation_energy": 5.05 
		},
		"coords": [
			{
				"x": -0.0028404717,
				"y": 3.045174756,
				"z": 2.9823647473,
				"element": "C" 
			},
			{
				"x": -1.0942649183,
				"y": 2.1560696513,
				"z": 2.7778910728,
				"element": "O" 
			},
			{
				"x": -1.0147587537,
				"y": 1.2219195319,
				"z": 1.7974150393,
				"element": "C" 
			},
			{
				"x": -2.1172956353,
				"y": 0.3895050731,
				"z": 1.6564261995,
				"element": "C" 
			},
			{
				"x": -2.1269749029,
				"y": -0.6093585575,
				"z": 0.6671707172,
				"element": "C" 
			},
			{
				"x": -0.9927396011,
				"y": -0.7662478465,
				"z": -0.1974493931,
				"element": "C" 
			},
			{
				"x": 0.1171278365,
				"y": 0.0988405281,
				"z": -0.0284804099,
				"element": "C" 
			},
			{
				"x": 0.114371379,
				"y": 1.073084372,
				"z": 0.9440375472,
				"element": "C" 
			},
			{
				"x": -1.0532533299,
				"y": -1.7810597951,
				"z": -1.1708737434,
				"element": "C" 
			},
			{
				"x": -2.169815821,
				"y": -2.5927310773,
				"z": -1.2824064037,
				"element": "C" 
			},
			{
				"x": -2.1861728397,
				"y": -3.6487262388,
				"z": -2.3244798635,
				"element": "C" 
			},
			{
				"x": -1.2560830035,
				"y": -3.8338069485,
				"z": -3.0899331681,
				"element": "O" 
			},
			{
				"x": -3.2321378332,
				"y": -2.3337822197,
				"z": -0.3609383444,
				"element": "C" 
			},
			{
				"x": -4.6938662405,
				"y": -3.3315781192,
				"z": -0.4422847404,
				"element": "Cl" 
			},
			{
				"x": -3.2303236069,
				"y": -1.4145752716,
				"z": 0.5538595276,
				"element": "N" 
			},
			{
				"x": 0.1883332542,
				"y": 3.6615804038,
				"z": 2.0955626575,
				"element": "H" 
			},
			{
				"x": -0.2983044139,
				"y": 3.6909138139,
				"z": 3.8099698489,
				"element": "H" 
			},
			{
				"x": 0.9123428768,
				"y": 2.5060379211,
				"z": 3.2556685694,
				"element": "H" 
			},
			{
				"x": -2.9755245901,
				"y": 0.505159109,
				"z": 2.307582491,
				"element": "H" 
			},
			{
				"x": 0.9788350721,
				"y": -0.0152597461,
				"z": -0.6802504104,
				"element": "H" 
			},
			{
				"x": 0.9742806429,
				"y": 1.7222870504,
				"z": 1.0539702048,
				"element": "H" 
			},
			{
				"x": -0.2285111061,
				"y": -1.9535378978,
				"z": -1.8577625416,
				"element": "H" 
			},
			{
				"x": -3.0987239938,
				"y": -4.2689084924,
				"z": -2.372959604,
				"element": "H" 
			}
		],
		 "valence_orbital": [ 
			{
				"type": "occ",
				"energy": -0.30442,
				"method": "rhf"
			},
			{
				"type": "occ",
				"energy": -0.28248,
				"method": "rhf"
			},
			{
				"type": "occ",
				"energy": -0.25777,
				"method": "rhf"
			},
			{
				"type": "occ",
				"energy": -0.2573,
				"method": "rhf"
			},
			{
				"type": "occ",
				"energy": -0.23495,
				"method": "rhf"
			},
			{
				"type": "unocc",
				"energy": -0.08416,
				"method": "rhf"
			},
			{
				"type": "unocc",
				"energy": -0.05234,
				"method": "rhf"
			},
			{
				"type": "unocc",
				"energy": 0.00279,
				"method": "rhf"
			},
			{
				"type": "unocc",
				"energy": 0.01224,
				"method": "rhf"
			},
			{
				"type": "unocc",
				"energy": 0.02815,
				"method": "rhf"
			}
		],
		"cosmo_sigma_profile": { 
			"-0.025": 0.0,
			"-0.024": 0.0,
			"-0.023": 0.0,
			"-0.022": 0.0,
			"-0.021": 0.0,
			"-0.02": 0.0,
			"-0.019": 0.0,
			"-0.018": 0.0,
			"-0.017": 0.0,
			"-0.016": 0.0,
			"-0.015": 0.0,
			"-0.014": 0.0,
			"-0.013": 0.0,
			"-0.012": 0.0,
			"-0.011": 0.0,
			"-0.01": 0.0,
			"-0.009": 0.596504260544,
			"-0.008": 4.49513832685,
			"-0.007": 9.47969147857,
			"-0.006": 16.8400690562,
			"-0.005": 16.3733263912,
			"-0.004": 17.8470242819,
			"-0.003": 15.5601488391,
			"-0.002": 17.5949374457,
			"-0.001": 20.719130006,
			"0.0": 18.913486326,
			"0.001": 21.1753959853,
			"0.002": 18.8789604028,
			"0.003": 12.9649214777,
			"0.004": 11.3973139642,
			"0.005": 6.86859698415,
			"0.006": 5.26180680827,
			"0.007": 3.92825627115,
			"0.008": 4.54568946781,
			"0.009": 4.93311189527,
			"0.01": 4.21092642024,
			"0.011": 4.87813209487,
			"0.012": 2.72617645011,
			"0.013": 1.03114612243,
			"0.014": 0.230446864635,
			"0.015": 0.0,
			"0.016": 0.0,
			"0.017": 0.0,
			"0.018": 0.0,
			"0.019": 0.0,
			"0.02": 0.0,
			"0.021": 0.0,
			"0.022": 0.0,
			"0.023": 0.0,
			"0.024": 0.0,
			"0.0": 0.0
		}
	}
}
