{
	 "smiles": "OCCN1CCN(CC1)C(=O)C1C2CC(C=C2)C1C(O)=O", 
	 "Tm": 466.15, 
	 "num_atms": 43, 
	 "gaussian": { 
		 "optdone": 1, 
		 "sigma_profile": "yes", 
		 "theory": "DFT", 
		 "functional": "B3LYP", 
		 "basiset": "6-31G**", 
		 "properties": { 
			 "R2extent": 8539.9847, 
			 "electric_dipole_moment_norm": 3.59270533999, 
			 "electric_quadrupole_moment_norm": 23.0865582465, 
			 "total_energy": -995.214480803, 
			 "HOMO_LUMO_gap": 0.22613, 
			 "cosmo_polarized_energy": -21.95, 
			 "cosmo_cavitation_energy": 42.86, 
			 "cosmo_dispersion_energy": -29.94, 
			 "cosmo_repulsion_energy": 2.33, 
			 "cosmo_total_nonelectrostatic_energy": 15.25, 
			 "SMD_solvation_energy": 5.22 
		},
		"coords": [
			{
				"x": -5.1117553214,
				"y": -3.1221982954,
				"z": 2.4358772731,
				"element": "O" 
			},
			{
				"x": -3.9547150297,
				"y": -2.6659702161,
				"z": 1.7504960019,
				"element": "C" 
			},
			{
				"x": -2.7943475893,
				"y": -2.3893314815,
				"z": 2.7149805912,
				"element": "C" 
			},
			{
				"x": -1.6019433193,
				"y": -1.9140899552,
				"z": 2.0261440368,
				"element": "N" 
			},
			{
				"x": -0.3638706602,
				"y": -2.0653753193,
				"z": 2.7837027445,
				"element": "C" 
			},
			{
				"x": 0.8344793527,
				"y": -1.8603842248,
				"z": 1.8574159714,
				"element": "C" 
			},
			{
				"x": 0.6900471785,
				"y": -0.605398442,
				"z": 1.1023508269,
				"element": "N" 
			},
			{
				"x": -0.4469987803,
				"y": 0.2309882364,
				"z": 1.4662098897,
				"element": "C" 
			},
			{
				"x": -1.7608889738,
				"y": -0.5688020289,
				"z": 1.4496408406,
				"element": "C" 
			},
			{
				"x": 1.656606963,
				"y": -0.3314373249,
				"z": 0.1722577153,
				"element": "C" 
			},
			{
				"x": 2.5720306989,
				"y": -1.1351395959,
				"z": -0.0166771265,
				"element": "O" 
			},
			{
				"x": 1.5387946696,
				"y": 0.9601138144,
				"z": -0.6455976856,
				"element": "C" 
			},
			{
				"x": 0.5861667794,
				"y": 0.7766006844,
				"z": -1.9033159335,
				"element": "C" 
			},
			{
				"x": 1.5750458148,
				"y": 0.1593943547,
				"z": -2.92056395,
				"element": "C" 
			},
			{
				"x": 2.542148836,
				"y": 1.3638524731,
				"z": -2.855647646,
				"element": "C" 
			},
			{
				"x": 1.5669532144,
				"y": 2.5157776913,
				"z": -3.0658218227,
				"element": "C" 
			},
			{
				"x": 0.4039600455,
				"y": 2.1651249657,
				"z": -2.4995080907,
				"element": "C" 
			},
			{
				"x": 2.8928788101,
				"y": 1.3320266578,
				"z": -1.3300513864,
				"element": "C" 
			},
			{
				"x": 3.5458771063,
				"y": 2.5977412675,
				"z": -0.8338011206,
				"element": "C" 
			},
			{
				"x": 3.5455435901,
				"y": 2.6784025998,
				"z": 0.522913722,
				"element": "O" 
			},
			{
				"x": 4.0573785494,
				"y": 3.4521093753,
				"z": -1.5262404012,
				"element": "O" 
			},
			{
				"x": -4.9163736549,
				"y": -3.9957726204,
				"z": 2.7986811093,
				"element": "H" 
			},
			{
				"x": -4.2590696802,
				"y": -1.7465986401,
				"z": 1.2404732561,
				"element": "H" 
			},
			{
				"x": -3.6202025985,
				"y": -3.3736849428,
				"z": 0.977013685,
				"element": "H" 
			},
			{
				"x": -2.5401896728,
				"y": -3.3290772281,
				"z": 3.2229602492,
				"element": "H" 
			},
			{
				"x": -3.1478419448,
				"y": -1.6883508401,
				"z": 3.4959838219,
				"element": "H" 
			},
			{
				"x": -0.3017442459,
				"y": -1.3929294602,
				"z": 3.6610926718,
				"element": "H" 
			},
			{
				"x": -0.3179704036,
				"y": -3.0864924036,
				"z": 3.1753809823,
				"element": "H" 
			},
			{
				"x": 1.7703364679,
				"y": -1.8471088473,
				"z": 2.4291359097,
				"element": "H" 
			},
			{
				"x": 0.901824941,
				"y": -2.6884386246,
				"z": 1.1457532491,
				"element": "H" 
			},
			{
				"x": -0.537827772,
				"y": 1.0653391428,
				"z": 0.7730720126,
				"element": "H" 
			},
			{
				"x": -0.286487805,
				"y": 0.6625328579,
				"z": 2.4638350732,
				"element": "H" 
			},
			{
				"x": -2.1221188514,
				"y": -0.6550674191,
				"z": 0.4165078195,
				"element": "H" 
			},
			{
				"x": -2.5110809481,
				"y": 0.0206475661,
				"z": 2.0061266567,
				"element": "H" 
			},
			{
				"x": 1.1854829747,
				"y": 1.7759743933,
				"z": -0.0138185731,
				"element": "H" 
			},
			{
				"x": -0.3259472789,
				"y": 0.2149348207,
				"z": -1.6886643954,
				"element": "H" 
			},
			{
				"x": 1.1276452247,
				"y": 0.0301394366,
				"z": -3.9094774209,
				"element": "H" 
			},
			{
				"x": 2.0212625412,
				"y": -0.7789816431,
				"z": -2.5789283842,
				"element": "H" 
			},
			{
				"x": 3.4186510661,
				"y": 1.3482662405,
				"z": -3.5037469398,
				"element": "H" 
			},
			{
				"x": 1.8306913006,
				"y": 3.4728634765,
				"z": -3.4989378793,
				"element": "H" 
			},
			{
				"x": -0.4814715907,
				"y": 2.7799787401,
				"z": -2.375638707,
				"element": "H" 
			},
			{
				"x": 3.590787513,
				"y": 0.5103770983,
				"z": -1.1261777666,
				"element": "H" 
			},
			{
				"x": 4.0197524829,
				"y": 3.49904366,
				"z": 0.7391091198,
				"element": "H" 
			}
		],
		 "valence_orbital": [ 
			{
				"type": "occ",
				"energy": -0.26754,
				"method": "rhf"
			},
			{
				"type": "occ",
				"energy": -0.25319,
				"method": "rhf"
			},
			{
				"type": "occ",
				"energy": -0.24082,
				"method": "rhf"
			},
			{
				"type": "occ",
				"energy": -0.23504,
				"method": "rhf"
			},
			{
				"type": "occ",
				"energy": -0.21889,
				"method": "rhf"
			},
			{
				"type": "unocc",
				"energy": 0.00724,
				"method": "rhf"
			},
			{
				"type": "unocc",
				"energy": 0.01564,
				"method": "rhf"
			},
			{
				"type": "unocc",
				"energy": 0.03183,
				"method": "rhf"
			},
			{
				"type": "unocc",
				"energy": 0.06246,
				"method": "rhf"
			},
			{
				"type": "unocc",
				"energy": 0.06906,
				"method": "rhf"
			}
		],
		"cosmo_sigma_profile": { 
			"-0.025": 0.0,
			"-0.024": 0.0,
			"-0.023": 0.0,
			"-0.022": 0.0,
			"-0.021": 0.0,
			"-0.02": 0.0,
			"-0.019": 0.0,
			"-0.018": 0.494298729728,
			"-0.017": 0.987262267729,
			"-0.016": 0.939750196147,
			"-0.015": 1.87788452966,
			"-0.014": 1.622583173,
			"-0.013": 1.75564689968,
			"-0.012": 1.68939008367,
			"-0.011": 1.60160611753,
			"-0.01": 1.59984985912,
			"-0.009": 1.26451664668,
			"-0.008": 1.47209366414,
			"-0.007": 4.26367408431,
			"-0.006": 7.39781753852,
			"-0.005": 17.9156714057,
			"-0.004": 34.2311338118,
			"-0.003": 45.7070088279,
			"-0.002": 35.2824782237,
			"-0.001": 30.9911870799,
			"0.0": 26.1462775862,
			"0.001": 16.0673186076,
			"0.002": 11.7886491553,
			"0.003": 11.8927781358,
			"0.004": 9.57456935605,
			"0.005": 9.49589137952,
			"0.006": 7.78836355236,
			"0.007": 5.84066415201,
			"0.008": 5.75694927741,
			"0.009": 6.37817089937,
			"0.01": 5.71428531563,
			"0.011": 5.45204019377,
			"0.012": 7.8985986785,
			"0.013": 4.44954596997,
			"0.014": 6.55833389315,
			"0.015": 1.11390878147,
			"0.016": 0.0,
			"0.017": 0.0,
			"0.018": 0.0,
			"0.019": 0.0,
			"0.02": 0.0,
			"0.021": 0.0,
			"0.022": 0.0,
			"0.023": 0.0,
			"0.024": 0.0,
			"0.025": 0.0
		}
	}
}
