{
	 "smiles": "CC1=CC=CC=C1OCC(O)CO", 
	 "Tm": 343.15, 
	 "num_atms": 27, 
	 "gaussian": { 
		 "optdone": 1, 
		 "sigma_profile": "yes", 
		 "theory": "DFT", 
		 "functional": "B3LYP", 
		 "basiset": "6-31G**", 
		 "properties": { 
			 "R2extent": 3327.9705, 
			 "electric_dipole_moment_norm": 1.5696234867, 
			 "electric_quadrupole_moment_norm": 7.5605748009, 
			 "total_energy": -615.158817686, 
			 "HOMO_LUMO_gap": 0.22088, 
			 "cosmo_polarized_energy": -9.86, 
			 "cosmo_cavitation_energy": 29.73, 
			 "cosmo_dispersion_energy": -21.49, 
			 "cosmo_repulsion_energy": 1.72, 
			 "cosmo_total_nonelectrostatic_energy": 9.97, 
			 "SMD_solvation_energy": 5.09 
		},
		"coords": [
			{
				"x": 1.3197642014,
				"y": -0.1211567545,
				"z": 2.4042155956,
				"element": "C" 
			},
			{
				"x": 1.5074234339,
				"y": -0.773707045,
				"z": 1.0581483326,
				"element": "C" 
			},
			{
				"x": 2.5912137352,
				"y": -1.6102829831,
				"z": 0.7888165526,
				"element": "C" 
			},
			{
				"x": 2.7628133504,
				"y": -2.2136068179,
				"z": -0.4609166411,
				"element": "C" 
			},
			{
				"x": 1.8300714902,
				"y": -1.9781238096,
				"z": -1.4660864064,
				"element": "C" 
			},
			{
				"x": 0.7315960493,
				"y": -1.1456660885,
				"z": -1.2294095046,
				"element": "C" 
			},
			{
				"x": 0.5756125993,
				"y": -0.5482983518,
				"z": 0.0236822378,
				"element": "C" 
			},
			{
				"x": -0.4720428391,
				"y": 0.2797059127,
				"z": 0.3478939814,
				"element": "O" 
			},
			{
				"x": -1.4630171118,
				"y": 0.5699401518,
				"z": -0.6384608763,
				"element": "C" 
			},
			{
				"x": -2.4249518705,
				"y": 1.5648586249,
				"z": 0.0043856362,
				"element": "C" 
			},
			{
				"x": -1.706024152,
				"y": 2.6903370509,
				"z": 0.5009683671,
				"element": "O" 
			},
			{
				"x": -3.4266419433,
				"y": 2.1248367288,
				"z": -1.0060409123,
				"element": "C" 
			},
			{
				"x": -2.7697245511,
				"y": 2.8500815804,
				"z": -2.0294863819,
				"element": "O" 
			},
			{
				"x": 2.0937765506,
				"y": -0.4456712039,
				"z": 3.1044420993,
				"element": "H" 
			},
			{
				"x": 1.3685200667,
				"y": 0.9721671634,
				"z": 2.3317083227,
				"element": "H" 
			},
			{
				"x": 0.3419825827,
				"y": -0.363794322,
				"z": 2.8340691357,
				"element": "H" 
			},
			{
				"x": 3.315557758,
				"y": -1.7921851296,
				"z": 1.5789809301,
				"element": "H" 
			},
			{
				"x": 3.6159275714,
				"y": -2.860300566,
				"z": -0.6413087579,
				"element": "H" 
			},
			{
				"x": 1.9459493154,
				"y": -2.4389473996,
				"z": -2.4427907988,
				"element": "H" 
			},
			{
				"x": 0.0116897357,
				"y": -0.971012212,
				"z": -2.0200195789,
				"element": "H" 
			},
			{
				"x": -1.9919962605,
				"y": -0.345977527,
				"z": -0.9348903689,
				"element": "H" 
			},
			{
				"x": -1.0065172135,
				"y": 1.022287138,
				"z": -1.5263112565,
				"element": "H" 
			},
			{
				"x": -2.9677596187,
				"y": 1.0609815297,
				"z": 0.8205370222,
				"element": "H" 
			},
			{
				"x": -0.9048334186,
				"y": 2.341483872,
				"z": 0.9176283723,
				"element": "H" 
			},
			{
				"x": -3.9828938487,
				"y": 1.3117033408,
				"z": -1.4849961573,
				"element": "H" 
			},
			{
				"x": -4.1493175588,
				"y": 2.7539723623,
				"z": -0.4641478692,
				"element": "H" 
			},
			{
				"x": -2.1743780537,
				"y": 3.4571747548,
				"z": -1.5640110757,
				"element": "H" 
			}
		],
		 "valence_orbital": [ 
			{
				"type": "occ",
				"energy": -0.32191,
				"method": "rhf"
			},
			{
				"type": "occ",
				"energy": -0.28106,
				"method": "rhf"
			},
			{
				"type": "occ",
				"energy": -0.267,
				"method": "rhf"
			},
			{
				"type": "occ",
				"energy": -0.24574,
				"method": "rhf"
			},
			{
				"type": "occ",
				"energy": -0.22049,
				"method": "rhf"
			},
			{
				"type": "unocc",
				"energy": 0.00039,
				"method": "rhf"
			},
			{
				"type": "unocc",
				"energy": 0.0106,
				"method": "rhf"
			},
			{
				"type": "unocc",
				"energy": 0.06899,
				"method": "rhf"
			},
			{
				"type": "unocc",
				"energy": 0.09032,
				"method": "rhf"
			},
			{
				"type": "unocc",
				"energy": 0.10065,
				"method": "rhf"
			}
		],
		"cosmo_sigma_profile": { 
			"-0.025": 0.0,
			"-0.024": 0.0,
			"-0.023": 0.0,
			"-0.022": 0.0,
			"-0.021": 0.0,
			"-0.02": 0.0,
			"-0.019": 0.0,
			"-0.018": 0.0,
			"-0.017": 0.0,
			"-0.016": 0.0,
			"-0.015": 0.0,
			"-0.014": 0.0,
			"-0.013": 0.0393968209384,
			"-0.012": 0.586110786789,
			"-0.011": 0.75982654238,
			"-0.01": 1.55368190574,
			"-0.009": 1.14264395918,
			"-0.008": 0.685528852417,
			"-0.007": 1.81902728367,
			"-0.006": 10.4961159407,
			"-0.005": 20.2122881353,
			"-0.004": 25.6256173433,
			"-0.003": 22.7670538421,
			"-0.002": 19.1538791151,
			"-0.001": 18.4848475265,
			"0.0": 17.9067809391,
			"0.001": 14.5515496554,
			"0.002": 11.7500713636,
			"0.003": 11.4114522245,
			"0.004": 11.5488306251,
			"0.005": 10.9089302902,
			"0.006": 11.3421185479,
			"0.007": 5.11750576615,
			"0.008": 1.84613485186,
			"0.009": 2.14363139337,
			"0.01": 1.75171016941,
			"0.011": 1.70396818263,
			"0.012": 2.63907838311,
			"0.013": 2.57076946527,
			"0.014": 2.08339626341,
			"0.015": 0.563203208929,
			"0.016": 0.0,
			"0.017": 0.0,
			"0.018": 0.0,
			"0.019": 0.0,
			"0.02": 0.0,
			"0.021": 0.0,
			"0.022": 0.0,
			"0.023": 0.0,
			"0.024": 0.0,
			"0.025": 0.0
		}
	}
}
