{
	 "smiles": "NC1=C(F)C=CC=C1", 
	 "Tm": 244.15, 
	 "num_atms": 14, 
	 "gaussian": { 
		 "optdone": 1, 
		 "sigma_profile": "yes", 
		 "theory": "DFT", 
		 "functional": "B3LYP", 
		 "basiset": "6-31G**", 
		 "properties": { 
			 "R2extent": 1457.955, 
			 "electric_dipole_moment_norm": 1.64140356098, 
			 "electric_quadrupole_moment_norm": 8.86587827685, 
			 "total_energy": -386.841452514, 
			 "HOMO_LUMO_gap": 0.20749, 
			 "cosmo_polarized_energy": -6.78, 
			 "cosmo_cavitation_energy": 18.05, 
			 "cosmo_dispersion_energy": -13.62, 
			 "cosmo_repulsion_energy": 1.11, 
			 "cosmo_total_nonelectrostatic_energy": 5.55, 
			 "SMD_solvation_energy": 3.57 
		},
		"coords": [
			{
				"x": -2.6880176041,
				"y": 0.8352884413,
				"z": -1.5109157301,
				"element": "N" 
			},
			{
				"x": -1.3328162675,
				"y": 0.5848632948,
				"z": -1.713670411,
				"element": "C" 
			},
			{
				"x": -0.705598384,
				"y": -0.4622635573,
				"z": -1.0220413107,
				"element": "C" 
			},
			{
				"x": -1.4594163687,
				"y": -1.1442881241,
				"z": -0.1162092333,
				"element": "F" 
			},
			{
				"x": 0.6204211031,
				"y": -0.8061251396,
				"z": -1.2139207764,
				"element": "C" 
			},
			{
				"x": 1.3831993585,
				"y": -0.0835291868,
				"z": -2.1369759672,
				"element": "C" 
			},
			{
				"x": 0.79115894,
				"y": 0.9673321451,
				"z": -2.8388594577,
				"element": "C" 
			},
			{
				"x": -0.5489416931,
				"y": 1.2987280331,
				"z": -2.6326143903,
				"element": "C" 
			},
			{
				"x": -2.9785506356,
				"y": 1.788305545,
				"z": -1.6778344453,
				"element": "H" 
			},
			{
				"x": -3.0506813375,
				"y": 0.4619477195,
				"z": -0.6446446536,
				"element": "H" 
			},
			{
				"x": 1.0380841312,
				"y": -1.6264635458,
				"z": -0.6396110799,
				"element": "H" 
			},
			{
				"x": 2.424668944,
				"y": -0.3408334471,
				"z": -2.2992741177,
				"element": "H" 
			},
			{
				"x": 1.3735992114,
				"y": 1.5376043121,
				"z": -3.5564319827,
				"element": "H" 
			},
			{
				"x": -1.0033093977,
				"y": 2.11433351,
				"z": -3.189396444,
				"element": "H" 
			}
		],
		 "valence_orbital": [ 
			{
				"type": "occ",
				"energy": -0.36227,
				"method": "rhf"
			},
			{
				"type": "occ",
				"energy": -0.34485,
				"method": "rhf"
			},
			{
				"type": "occ",
				"energy": -0.31071,
				"method": "rhf"
			},
			{
				"type": "occ",
				"energy": -0.24239,
				"method": "rhf"
			},
			{
				"type": "occ",
				"energy": -0.20323,
				"method": "rhf"
			},
			{
				"type": "unocc",
				"energy": 0.00426,
				"method": "rhf"
			},
			{
				"type": "unocc",
				"energy": 0.01754,
				"method": "rhf"
			},
			{
				"type": "unocc",
				"energy": 0.08142,
				"method": "rhf"
			},
			{
				"type": "unocc",
				"energy": 0.0944,
				"method": "rhf"
			},
			{
				"type": "unocc",
				"energy": 0.13611,
				"method": "rhf"
			}
		],
		"cosmo_sigma_profile": { 
			"-0.025": 0.0,
			"-0.024": 0.0,
			"-0.023": 0.0,
			"-0.022": 0.0,
			"-0.021": 0.0,
			"-0.02": 0.0,
			"-0.019": 0.0,
			"-0.018": 0.0,
			"-0.017": 0.0,
			"-0.016": 0.0,
			"-0.015": 0.0,
			"-0.014": 0.0,
			"-0.013": 0.526598466313,
			"-0.012": 1.64527428994,
			"-0.011": 2.65336606012,
			"-0.01": 2.34074692672,
			"-0.009": 2.57972643097,
			"-0.008": 2.42050863897,
			"-0.007": 3.52560657983,
			"-0.006": 5.85649482903,
			"-0.005": 9.13923004862,
			"-0.004": 8.93329482571,
			"-0.003": 9.44000062948,
			"-0.002": 6.75515676267,
			"-0.001": 6.3089332733,
			"0.0": 8.34156489907,
			"0.001": 7.22382748278,
			"0.002": 11.0818211508,
			"0.003": 11.4449673279,
			"0.004": 14.6069722427,
			"0.005": 14.0059033839,
			"0.006": 7.7305714239,
			"0.007": 2.88338814945,
			"0.008": 0.844106480162,
			"0.009": 0.510369495659,
			"0.01": 0.40796953238,
			"0.011": 0.98621030852,
			"0.012": 0.611717297888,
			"0.013": 0.761048462752,
			"0.014": 0.413995844162,
			"0.015": 0.0829567963386,
			"0.016": 0.0,
			"0.017": 0.0,
			"0.018": 0.0,
			"0.019": 0.0,
			"0.02": 0.0,
			"0.021": 0.0,
			"0.022": 0.0,
			"0.023": 0.0,
			"0.024": 0.0,
			"0.025": 0.0
		}
	}
}
