{
	 "smiles": "CN(C)S(=O)(=O)C1=C(Cl)N=C2C=CC=CN12", 
	 "Tm": 383.15, 
	 "num_atms": 26, 
	 "gaussian": { 
		 "optdone": 1, 
		 "sigma_profile": "yes", 
		 "theory": "DFT", 
		 "functional": "B3LYP", 
		 "basiset": "6-31G**", 
		 "properties": { 
			 "R2extent": 4161.0706, 
			 "electric_dipole_moment_norm": 4.1887687845, 
			 "electric_quadrupole_moment_norm": 20.1809246096, 
			 "total_energy": -1521.97281095, 
			 "HOMO_LUMO_gap": 0.18281, 
			 "cosmo_polarized_energy": -14.59, 
			 "cosmo_cavitation_energy": 32.52, 
			 "cosmo_dispersion_energy": -23.55, 
			 "cosmo_repulsion_energy": 1.76, 
			 "cosmo_total_nonelectrostatic_energy": 10.73, 
			 "SMD_solvation_energy": 3.4 
		},
		"coords": [
			{
				"x": -1.3674814679,
				"y": -1.9318696644,
				"z": -3.2949706575,
				"element": "C" 
			},
			{
				"x": -0.9696534158,
				"y": -0.9674893568,
				"z": -2.2616491999,
				"element": "N" 
			},
			{
				"x": -1.1516455882,
				"y": 0.4419376761,
				"z": -2.6186080737,
				"element": "C" 
			},
			{
				"x": 0.4502608003,
				"y": -1.3121702474,
				"z": -1.4276658393,
				"element": "S" 
			},
			{
				"x": 1.5677136318,
				"y": -0.4805046254,
				"z": -1.9084536625,
				"element": "O" 
			},
			{
				"x": 0.586662816,
				"y": -2.7676763264,
				"z": -1.4057818812,
				"element": "O" 
			},
			{
				"x": 0.0518548583,
				"y": -0.7145901086,
				"z": 0.1849869168,
				"element": "C" 
			},
			{
				"x": -0.9926205131,
				"y": -1.0620386541,
				"z": 1.0456698557,
				"element": "C" 
			},
			{
				"x": -2.2983657036,
				"y": -2.1268078458,
				"z": 0.6772883345,
				"element": "Cl" 
			},
			{
				"x": -0.9052378658,
				"y": -0.4727690146,
				"z": 2.2429249644,
				"element": "N" 
			},
			{
				"x": 0.2174539034,
				"y": 0.2568390582,
				"z": 2.1900302551,
				"element": "C" 
			},
			{
				"x": 0.7938558385,
				"y": 1.0769164332,
				"z": 3.1814399504,
				"element": "C" 
			},
			{
				"x": 1.968557531,
				"y": 1.7372430593,
				"z": 2.9089242381,
				"element": "C" 
			},
			{
				"x": 2.5883290508,
				"y": 1.5898793303,
				"z": 1.6412499193,
				"element": "C" 
			},
			{
				"x": 2.0332515996,
				"y": 0.7974985159,
				"z": 0.6726683592,
				"element": "C" 
			},
			{
				"x": 0.8547947448,
				"y": 0.140423999,
				"z": 0.9456791031,
				"element": "N" 
			},
			{
				"x": -1.2135485699,
				"y": -2.9438128529,
				"z": -2.9239657835,
				"element": "H" 
			},
			{
				"x": -0.8098862253,
				"y": -1.7999502207,
				"z": -4.2326472911,
				"element": "H" 
			},
			{
				"x": -2.4329167173,
				"y": -1.78323057,
				"z": -3.4924762747,
				"element": "H" 
			},
			{
				"x": -0.5099746808,
				"y": 0.7542056669,
				"z": -3.4526243982,
				"element": "H" 
			},
			{
				"x": -0.9421886203,
				"y": 1.0758574511,
				"z": -1.7539549249,
				"element": "H" 
			},
			{
				"x": -2.1996652891,
				"y": 0.5858813479,
				"z": -2.8947390623,
				"element": "H" 
			},
			{
				"x": 0.282542086,
				"y": 1.1529173202,
				"z": 4.1335586857,
				"element": "H" 
			},
			{
				"x": 2.4266832767,
				"y": 2.3701458772,
				"z": 3.6616045414,
				"element": "H" 
			},
			{
				"x": 3.517110242,
				"y": 2.1018291677,
				"z": 1.417805926,
				"element": "H" 
			},
			{
				"x": 2.4480142777,
				"y": 0.6360345839,
				"z": -0.3114940008,
				"element": "H" 
			}
		],
		 "valence_orbital": [ 
			{
				"type": "occ",
				"energy": -0.30816,
				"method": "rhf"
			},
			{
				"type": "occ",
				"energy": -0.29655,
				"method": "rhf"
			},
			{
				"type": "occ",
				"energy": -0.26276,
				"method": "rhf"
			},
			{
				"type": "occ",
				"energy": -0.25587,
				"method": "rhf"
			},
			{
				"type": "occ",
				"energy": -0.23365,
				"method": "rhf"
			},
			{
				"type": "unocc",
				"energy": -0.05084,
				"method": "rhf"
			},
			{
				"type": "unocc",
				"energy": -0.03247,
				"method": "rhf"
			},
			{
				"type": "unocc",
				"energy": 0.02151,
				"method": "rhf"
			},
			{
				"type": "unocc",
				"energy": 0.03679,
				"method": "rhf"
			},
			{
				"type": "unocc",
				"energy": 0.05434,
				"method": "rhf"
			}
		],
		"cosmo_sigma_profile": { 
			"-0.025": 0.0,
			"-0.024": 0.0,
			"-0.023": 0.0,
			"-0.022": 0.0,
			"-0.021": 0.0,
			"-0.02": 0.0,
			"-0.019": 0.0,
			"-0.018": 0.0,
			"-0.017": 0.0,
			"-0.016": 0.0,
			"-0.015": 0.0,
			"-0.014": 0.0,
			"-0.013": 0.0,
			"-0.012": 0.0,
			"-0.011": 0.0,
			"-0.01": 0.0,
			"-0.009": 0.194477103041,
			"-0.008": 5.18298757393,
			"-0.007": 10.3928988361,
			"-0.006": 16.2337368444,
			"-0.005": 18.4907859037,
			"-0.004": 21.6539598891,
			"-0.003": 26.6807016711,
			"-0.002": 23.4163601523,
			"-0.001": 15.2598566456,
			"0.0": 17.76180395,
			"0.001": 18.1952693656,
			"0.002": 18.2741429294,
			"0.003": 13.3558067763,
			"0.004": 10.8271045748,
			"0.005": 6.76326089509,
			"0.006": 6.11566816392,
			"0.007": 4.94650204378,
			"0.008": 4.31593569646,
			"0.009": 6.11478316458,
			"0.01": 7.95798779024,
			"0.011": 6.72038095991,
			"0.012": 1.20871510005,
			"0.013": 1.33007092538,
			"0.014": 0.74797937625,
			"0.015": 0.578949629968,
			"0.016": 0.0,
			"0.017": 0.0,
			"0.018": 0.0,
			"0.019": 0.0,
			"0.02": 0.0,
			"0.021": 0.0,
			"0.022": 0.0,
			"0.023": 0.0,
			"0.024": 0.0,
			"0.025": 0.0
		}
	}
}
