{
	 "smiles": "CC(=O)C1=CC2=C(O1)C=CC=C2", 
	 "Tm": 346.65, 
	 "num_atms": 20, 
	 "gaussian": { 
		 "optdone": 1, 
		 "sigma_profile": "yes", 
		 "theory": "DFT", 
		 "functional": "B3LYP", 
		 "basiset": "6-31G**", 
		 "properties": { 
			 "R2extent": 2497.7397, 
			 "electric_dipole_moment_norm": 2.92195797027, 
			 "electric_quadrupole_moment_norm": 11.791976685, 
			 "total_energy": -536.326750663, 
			 "HOMO_LUMO_gap": 0.16629, 
			 "cosmo_polarized_energy": -7.94, 
			 "cosmo_cavitation_energy": 24.72, 
			 "cosmo_dispersion_energy": -18.22, 
			 "cosmo_repulsion_energy": 1.45, 
			 "cosmo_total_nonelectrostatic_energy": 7.95, 
			 "SMD_solvation_energy": 5.27 
		},
		"coords": [
			{
				"x": 2.8725431186,
				"y": 1.3195428434,
				"z": -2.8883111316,
				"element": "C" 
			},
			{
				"x": 1.9033605856,
				"y": 0.1567272638,
				"z": -2.9387046886,
				"element": "C" 
			},
			{
				"x": 1.9227061813,
				"y": -0.6843451243,
				"z": -3.8261378219,
				"element": "O" 
			},
			{
				"x": 0.9009356658,
				"y": 0.0565920156,
				"z": -1.8622462586,
				"element": "C" 
			},
			{
				"x": -0.0815838749,
				"y": -0.8692093649,
				"z": -1.6559090764,
				"element": "C" 
			},
			{
				"x": -0.7629325262,
				"y": -0.480074648,
				"z": -0.4552185129,
				"element": "C" 
			},
			{
				"x": -0.1118477711,
				"y": 0.6932378926,
				"z": -0.0179276461,
				"element": "C" 
			},
			{
				"x": 0.9007325736,
				"y": 1.0225799647,
				"z": -0.8714499431,
				"element": "O" 
			},
			{
				"x": -0.4754548177,
				"y": 1.3935631781,
				"z": 1.1280796412,
				"element": "C" 
			},
			{
				"x": -1.5445758651,
				"y": 0.875969284,
				"z": 1.8550676611,
				"element": "C" 
			},
			{
				"x": -2.2170020374,
				"y": -0.2946614693,
				"z": 1.4456376624,
				"element": "C" 
			},
			{
				"x": -1.8397483359,
				"y": -0.9808030125,
				"z": 0.2981404422,
				"element": "C" 
			},
			{
				"x": 3.4484440416,
				"y": 1.3000379567,
				"z": -1.956778279,
				"element": "H" 
			},
			{
				"x": 3.5453067881,
				"y": 1.2581323567,
				"z": -3.744127849,
				"element": "H" 
			},
			{
				"x": 2.3317921999,
				"y": 2.2719826675,
				"z": -2.9043625432,
				"element": "H" 
			},
			{
				"x": -0.275907056,
				"y": -1.716756873,
				"z": -2.2965036847,
				"element": "H" 
			},
			{
				"x": 0.0500116743,
				"y": 2.2922840432,
				"z": 1.4315742501,
				"element": "H" 
			},
			{
				"x": -1.8680349834,
				"y": 1.3851896912,
				"z": 2.7578379108,
				"element": "H" 
			},
			{
				"x": -3.0456385573,
				"y": -0.6630687835,
				"z": 2.0426994932,
				"element": "H" 
			},
			{
				"x": -2.3619070038,
				"y": -1.8811198819,
				"z": -0.0108596261,
				"element": "H" 
			}
		],
		 "valence_orbital": [ 
			{
				"type": "occ",
				"energy": -0.35007,
				"method": "rhf"
			},
			{
				"type": "occ",
				"energy": -0.30225,
				"method": "rhf"
			},
			{
				"type": "occ",
				"energy": -0.25393,
				"method": "rhf"
			},
			{
				"type": "occ",
				"energy": -0.24881,
				"method": "rhf"
			},
			{
				"type": "occ",
				"energy": -0.23206,
				"method": "rhf"
			},
			{
				"type": "unocc",
				"energy": -0.06577,
				"method": "rhf"
			},
			{
				"type": "unocc",
				"energy": -0.00214,
				"method": "rhf"
			},
			{
				"type": "unocc",
				"energy": 0.01179,
				"method": "rhf"
			},
			{
				"type": "unocc",
				"energy": 0.08217,
				"method": "rhf"
			},
			{
				"type": "unocc",
				"energy": 0.08956,
				"method": "rhf"
			}
		],
		"cosmo_sigma_profile": { 
			"-0.025": 0.0,
			"-0.024": 0.0,
			"-0.023": 0.0,
			"-0.022": 0.0,
			"-0.021": 0.0,
			"-0.02": 0.0,
			"-0.019": 0.0,
			"-0.018": 0.0,
			"-0.017": 0.0,
			"-0.016": 0.0,
			"-0.015": 0.0,
			"-0.014": 0.0,
			"-0.013": 0.0,
			"-0.012": 0.0,
			"-0.011": 0.0,
			"-0.01": 0.0,
			"-0.009": 0.180651150178,
			"-0.008": 1.68027092039,
			"-0.007": 4.60213341658,
			"-0.006": 13.6101529717,
			"-0.005": 17.0699228871,
			"-0.004": 15.8272928816,
			"-0.003": 14.2115913448,
			"-0.002": 13.8624969348,
			"-0.001": 16.3680303908,
			"0.0": 15.1435590777,
			"0.001": 15.324844163,
			"0.002": 17.3160530463,
			"0.003": 14.5954876564,
			"0.004": 12.6150050302,
			"0.005": 6.55678286207,
			"0.006": 3.4176823348,
			"0.007": 1.54611777019,
			"0.008": 1.18732298873,
			"0.009": 2.08034711812,
			"0.01": 2.0021393207,
			"0.011": 3.68607088425,
			"0.012": 4.03559526395,
			"0.013": 1.473641822,
			"0.014": 0.0515582185997,
			"0.015": 0.0,
			"0.016": 0.0,
			"0.017": 0.0,
			"0.018": 0.0,
			"0.019": 0.0,
			"0.02": 0.0,
			"0.021": 0.0,
			"0.022": 0.0,
			"0.023": 0.0,
			"0.024": 0.0,
			"0.025": 0.0
		}
	}
}
