{
	 "smiles": "CCOC(=O)C1=C(C)N=C(Br)S1", 
	 "Tm": 338.65, 
	 "num_atms": 20, 
	 "gaussian": { 
		 "optdone": 1, 
		 "sigma_profile": "yes", 
		 "theory": "DFT", 
		 "functional": "B3LYP", 
		 "basiset": "6-31G**", 
		 "properties": { 
			 "R2extent": 8541.7421, 
			 "electric_dipole_moment_norm": 2.67086092861, 
			 "electric_quadrupole_moment_norm": 4.58584907842, 
			 "total_energy": -3446.36212113, 
			 "HOMO_LUMO_gap": 0.18102, 
			 "cosmo_polarized_energy": -7.09, 
			 "cosmo_cavitation_energy": 28.53, 
			 "cosmo_dispersion_energy": -21.43, 
			 "cosmo_repulsion_energy": 1.7, 
			 "cosmo_total_nonelectrostatic_energy": 8.79, 
			 "SMD_solvation_energy": 3.11 
		},
		"coords": [
			{
				"x": 1.183127652,
				"y": 2.0194444876,
				"z": 0.2364227408,
				"element": "C" 
			},
			{
				"x": 1.2127704633,
				"y": 0.5701134626,
				"z": -0.2232328952,
				"element": "C" 
			},
			{
				"x": 0.0907723122,
				"y": -0.1776178712,
				"z": 0.3134087188,
				"element": "O" 
			},
			{
				"x": -1.0647337132,
				"y": -0.0999591982,
				"z": -0.3817871571,
				"element": "C" 
			},
			{
				"x": -1.2087898952,
				"y": 0.5404613667,
				"z": -1.4082123417,
				"element": "O" 
			},
			{
				"x": -2.1424016297,
				"y": -0.8842548578,
				"z": 0.2366879565,
				"element": "C" 
			},
			{
				"x": -2.1838356259,
				"y": -1.667504951,
				"z": 1.375252714,
				"element": "C" 
			},
			{
				"x": -1.0629129205,
				"y": -1.9385917517,
				"z": 2.3369753518,
				"element": "C" 
			},
			{
				"x": -3.4091012761,
				"y": -2.2508162026,
				"z": 1.6244197998,
				"element": "N" 
			},
			{
				"x": -4.2677361199,
				"y": -1.9236149564,
				"z": 0.7097289831,
				"element": "C" 
			},
			{
				"x": -6.0548616518,
				"y": -2.5330576523,
				"z": 0.7144820005,
				"element": "Br" 
			},
			{
				"x": -3.7016933834,
				"y": -0.8772741056,
				"z": -0.5547401535,
				"element": "S" 
			},
			{
				"x": 0.3073558339,
				"y": 2.5329901941,
				"z": -0.1672039451,
				"element": "H" 
			},
			{
				"x": 2.0794241632,
				"y": 2.5378359458,
				"z": -0.1200235679,
				"element": "H" 
			},
			{
				"x": 1.1615623731,
				"y": 2.0828208775,
				"z": 1.3283334945,
				"element": "H" 
			},
			{
				"x": 1.1908189065,
				"y": 0.4996948246,
				"z": -1.3129508214,
				"element": "H" 
			},
			{
				"x": 2.0906895755,
				"y": 0.0442479834,
				"z": 0.158763298,
				"element": "H" 
			},
			{
				"x": -0.2196298474,
				"y": -2.4209281627,
				"z": 1.834689118,
				"element": "H" 
			},
			{
				"x": -1.4288558754,
				"y": -2.5890139752,
				"z": 3.1324802571,
				"element": "H" 
			},
			{
				"x": -0.6828693411,
				"y": -1.0106754576,
				"z": 2.7731064491,
				"element": "H" 
			}
		],
		 "valence_orbital": [ 
			{
				"type": "occ",
				"energy": -0.30664,
				"method": "rhf"
			},
			{
				"type": "occ",
				"energy": -0.30657,
				"method": "rhf"
			},
			{
				"type": "occ",
				"energy": -0.29605,
				"method": "rhf"
			},
			{
				"type": "occ",
				"energy": -0.27722,
				"method": "rhf"
			},
			{
				"type": "occ",
				"energy": -0.24968,
				"method": "rhf"
			},
			{
				"type": "unocc",
				"energy": -0.06866,
				"method": "rhf"
			},
			{
				"type": "unocc",
				"energy": -0.01783,
				"method": "rhf"
			},
			{
				"type": "unocc",
				"energy": 0.00527,
				"method": "rhf"
			},
			{
				"type": "unocc",
				"energy": 0.01109,
				"method": "rhf"
			},
			{
				"type": "unocc",
				"energy": 0.0777,
				"method": "rhf"
			}
		],
		"cosmo_sigma_profile": { 
			"-0.025": 0.0,
			"-0.024": 0.0,
			"-0.023": 0.0,
			"-0.022": 0.0,
			"-0.021": 0.0,
			"-0.02": 0.0,
			"-0.019": 0.0,
			"-0.018": 0.0,
			"-0.017": 0.0,
			"-0.016": 0.0,
			"-0.015": 0.0,
			"-0.014": 0.0,
			"-0.013": 0.0,
			"-0.012": 0.0,
			"-0.011": 0.0,
			"-0.01": 0.0,
			"-0.009": 0.0,
			"-0.008": 0.0,
			"-0.007": 0.717531647527,
			"-0.006": 3.91056968998,
			"-0.005": 10.7324699184,
			"-0.004": 18.1704758314,
			"-0.003": 26.2986904586,
			"-0.002": 31.2949572224,
			"-0.001": 33.0821004817,
			"0.0": 28.2290826659,
			"0.001": 19.4321926275,
			"0.002": 17.737013217,
			"0.003": 12.2236188125,
			"0.004": 5.46409192269,
			"0.005": 3.74557713359,
			"0.006": 3.14285336828,
			"0.007": 3.35950296517,
			"0.008": 2.16012829013,
			"0.009": 2.36122005764,
			"0.01": 3.59276926277,
			"0.011": 4.13314971104,
			"0.012": 2.56751359618,
			"0.013": 0.453516657392,
			"0.014": 0.000251826122389,
			"0.015": 0.0,
			"0.016": 0.0,
			"0.017": 0.0,
			"0.018": 0.0,
			"0.019": 0.0,
			"0.02": 0.0,
			"0.021": 0.0,
			"0.022": 0.0,
			"0.023": 0.0,
			"0.024": 0.0,
			"0.025": 0.0
		}
	}
}
