{
	 "smiles": "O=C(NC1=CC=CC=C1)C1CC2=CC=CC=C12", 
	 "Tm": 434.15, 
	 "num_atms": 30, 
	 "gaussian": { 
		 "optdone": 1, 
		 "sigma_profile": "yes", 
		 "theory": "DFT", 
		 "functional": "B3LYP", 
		 "basiset": "6-31G**", 
		 "properties": { 
			 "R2extent": 4825.1245, 
			 "electric_dipole_moment_norm": 2.94651718814, 
			 "electric_quadrupole_moment_norm": 14.8097447544, 
			 "total_energy": -709.382801685, 
			 "HOMO_LUMO_gap": 0.20798, 
			 "cosmo_polarized_energy": -12.13, 
			 "cosmo_cavitation_energy": 33.58, 
			 "cosmo_dispersion_energy": -24.1, 
			 "cosmo_repulsion_energy": 1.86, 
			 "cosmo_total_nonelectrostatic_energy": 11.34, 
			 "SMD_solvation_energy": 5.78 
		},
		"coords": [
			{
				"x": -0.1597161631,
				"y": -0.0391328517,
				"z": -3.0108114392,
				"element": "O" 
			},
			{
				"x": -0.2082827628,
				"y": -0.2588007015,
				"z": -1.8077290132,
				"element": "C" 
			},
			{
				"x": -0.5764022018,
				"y": -1.5215988696,
				"z": -1.3714157786,
				"element": "N" 
			},
			{
				"x": -0.8116722639,
				"y": -2.0668754483,
				"z": -0.0885389341,
				"element": "C" 
			},
			{
				"x": -1.8706729371,
				"y": -2.9789388393,
				"z": 0.0523288975,
				"element": "C" 
			},
			{
				"x": -2.1278096061,
				"y": -3.5816182263,
				"z": 1.2809052102,
				"element": "C" 
			},
			{
				"x": -1.3438937294,
				"y": -3.2754225333,
				"z": 2.3955019975,
				"element": "C" 
			},
			{
				"x": -0.287953551,
				"y": -2.3745106661,
				"z": 2.2580600092,
				"element": "C" 
			},
			{
				"x": -0.0070351808,
				"y": -1.7837721368,
				"z": 1.0252461883,
				"element": "C" 
			},
			{
				"x": 0.1200883373,
				"y": 0.80938078,
				"z": -0.7756268964,
				"element": "C" 
			},
			{
				"x": -0.0118718526,
				"y": 2.2932174872,
				"z": -1.304274884,
				"element": "C" 
			},
			{
				"x": 1.471854595,
				"y": 2.4426849652,
				"z": -1.0095567721,
				"element": "C" 
			},
			{
				"x": 2.5421658447,
				"y": 3.3242598196,
				"z": -1.0430851323,
				"element": "C" 
			},
			{
				"x": 3.7811092984,
				"y": 2.8046438667,
				"z": -0.6331623905,
				"element": "C" 
			},
			{
				"x": 3.9224749704,
				"y": 1.4726407458,
				"z": -0.2197212772,
				"element": "C" 
			},
			{
				"x": 2.8299394458,
				"y": 0.5902186208,
				"z": -0.1864691136,
				"element": "C" 
			},
			{
				"x": 1.6117862538,
				"y": 1.1237441819,
				"z": -0.5830311335,
				"element": "C" 
			},
			{
				"x": -0.8585012659,
				"y": -2.0989939835,
				"z": -2.1550272815,
				"element": "H" 
			},
			{
				"x": -2.4960772398,
				"y": -3.2035942602,
				"z": -0.8077604139,
				"element": "H" 
			},
			{
				"x": -2.9509446893,
				"y": -4.2848884387,
				"z": 1.3681205247,
				"element": "H" 
			},
			{
				"x": -1.5490088454,
				"y": -3.7389449203,
				"z": 3.3554032802,
				"element": "H" 
			},
			{
				"x": 0.3416565372,
				"y": -2.1395022034,
				"z": 3.111421634,
				"element": "H" 
			},
			{
				"x": 0.8446296618,
				"y": -1.1219452112,
				"z": 0.9313577679,
				"element": "H" 
			},
			{
				"x": -0.4199205463,
				"y": 0.6345038274,
				"z": 0.1591170666,
				"element": "H" 
			},
			{
				"x": -0.6929524739,
				"y": 2.9199471959,
				"z": -0.719148175,
				"element": "H" 
			},
			{
				"x": -0.279927671,
				"y": 2.3390482202,
				"z": -2.3620731547,
				"element": "H" 
			},
			{
				"x": 2.4503922379,
				"y": 4.3563250454,
				"z": -1.369897966,
				"element": "H" 
			},
			{
				"x": 4.6574264518,
				"y": 3.4471460349,
				"z": -0.6413143507,
				"element": "H" 
			},
			{
				"x": 4.904225404,
				"y": 1.1151408774,
				"z": 0.0783931933,
				"element": "H" 
			},
			{
				"x": 2.9617939421,
				"y": -0.4426623781,
				"z": 0.1238883372,
				"element": "H" 
			}
		],
		 "valence_orbital": [ 
			{
				"type": "occ",
				"energy": -0.26237,
				"method": "rhf"
			},
			{
				"type": "occ",
				"energy": -0.26077,
				"method": "rhf"
			},
			{
				"type": "occ",
				"energy": -0.24812,
				"method": "rhf"
			},
			{
				"type": "occ",
				"energy": -0.2335,
				"method": "rhf"
			},
			{
				"type": "occ",
				"energy": -0.22627,
				"method": "rhf"
			},
			{
				"type": "unocc",
				"energy": -0.01829,
				"method": "rhf"
			},
			{
				"type": "unocc",
				"energy": -0.01273,
				"method": "rhf"
			},
			{
				"type": "unocc",
				"energy": -0.00575,
				"method": "rhf"
			},
			{
				"type": "unocc",
				"energy": 0.00512,
				"method": "rhf"
			},
			{
				"type": "unocc",
				"energy": 0.03055,
				"method": "rhf"
			}
		],
		"cosmo_sigma_profile": { 
			"-0.025": 0.0,
			"-0.024": 0.0,
			"-0.023": 0.0,
			"-0.022": 0.0,
			"-0.021": 0.0,
			"-0.02": 0.0,
			"-0.019": 0.0,
			"-0.018": 0.0,
			"-0.017": 0.0,
			"-0.016": 0.0,
			"-0.015": 0.0,
			"-0.014": 0.527084836142,
			"-0.013": 1.16963449882,
			"-0.012": 1.1528188653,
			"-0.011": 0.952410203072,
			"-0.01": 1.2080333514,
			"-0.009": 0.967599007048,
			"-0.008": 1.61521078166,
			"-0.007": 2.43454791906,
			"-0.006": 12.9340737393,
			"-0.005": 21.3162978156,
			"-0.004": 27.1652545256,
			"-0.003": 24.8501989737,
			"-0.002": 20.5011250784,
			"-0.001": 20.1080252723,
			"0.0": 18.3063130116,
			"0.001": 15.072721922,
			"0.002": 16.1285503455,
			"0.003": 17.3598694356,
			"0.004": 16.5107271621,
			"0.005": 20.4348986987,
			"0.006": 10.9901425342,
			"0.007": 1.72855108124,
			"0.008": 1.86148894707,
			"0.009": 0.985209622118,
			"0.01": 1.2995264404,
			"0.011": 2.00214221649,
			"0.012": 2.42026871808,
			"0.013": 5.23120320246,
			"0.014": 1.61745407392,
			"0.015": 0.0,
			"0.016": 0.0,
			"0.017": 0.0,
			"0.018": 0.0,
			"0.019": 0.0,
			"0.02": 0.0,
			"0.021": 0.0,
			"0.022": 0.0,
			"0.023": 0.0,
			"0.024": 0.0,
			"0.025": 0.0
		}
	}
}
