{
	 "smiles": "[O-][N+](=O)C1=CC=C(C=NNC2=CC=CC=C2)C=C1", 
	 "Tm": 439.15, 
	 "num_atms": 29, 
	 "gaussian": { 
		 "optdone": 1, 
		 "sigma_profile": "yes", 
		 "theory": "DFT", 
		 "functional": "B3LYP", 
		 "basiset": "6-31G**", 
		 "properties": { 
			 "R2extent": 8383.9488, 
			 "electric_dipole_moment_norm": 6.87244429952, 
			 "electric_quadrupole_moment_norm": 25.9712152161, 
			 "total_energy": -816.587219244, 
			 "HOMO_LUMO_gap": 0.11498, 
			 "cosmo_polarized_energy": -15.41, 
			 "cosmo_cavitation_energy": 35.32, 
			 "cosmo_dispersion_energy": -25.68, 
			 "cosmo_repulsion_energy": 1.95, 
			 "cosmo_total_nonelectrostatic_energy": 11.6, 
			 "SMD_solvation_energy": 8.02 
		},
		"coords": [
			{
				"x": -0.7340006372,
				"y": 5.5447735663,
				"z": -1.4524520324,
				"element": "O" 
			},
			{
				"x": 0.069908481,
				"y": 4.9092730714,
				"z": -2.1369136712,
				"element": "N" 
			},
			{
				"x": 0.6431291918,
				"y": 5.3530703759,
				"z": -3.1337307615,
				"element": "O" 
			},
			{
				"x": 0.3644951097,
				"y": 3.5309243124,
				"z": -1.7379415685,
				"element": "C" 
			},
			{
				"x": 1.2698582757,
				"y": 2.7853052854,
				"z": -2.4915444756,
				"element": "C" 
			},
			{
				"x": 1.5431942218,
				"y": 1.4790138542,
				"z": -2.1058392188,
				"element": "C" 
			},
			{
				"x": 0.922807176,
				"y": 0.9096634702,
				"z": -0.9766838863,
				"element": "C" 
			},
			{
				"x": 1.2399004287,
				"y": -0.4641351448,
				"z": -0.6093226518,
				"element": "C" 
			},
			{
				"x": 0.7007245,
				"y": -1.0356845775,
				"z": 0.4168673141,
				"element": "N" 
			},
			{
				"x": 1.0347607626,
				"y": -2.2947704294,
				"z": 0.6971166112,
				"element": "N" 
			},
			{
				"x": 0.5004440254,
				"y": -2.9895722431,
				"z": 1.7869730454,
				"element": "C" 
			},
			{
				"x": 0.9129271207,
				"y": -4.31358976,
				"z": 2.0013207487,
				"element": "C" 
			},
			{
				"x": 0.4017182351,
				"y": -5.0361814152,
				"z": 3.0766535471,
				"element": "C" 
			},
			{
				"x": -0.521224404,
				"y": -4.4537051641,
				"z": 3.947453059,
				"element": "C" 
			},
			{
				"x": -0.927192648,
				"y": -3.1347702738,
				"z": 3.7276083186,
				"element": "C" 
			},
			{
				"x": -0.4264448055,
				"y": -2.3974076122,
				"z": 2.6574929952,
				"element": "C" 
			},
			{
				"x": 0.0113705965,
				"y": 1.6924668672,
				"z": -0.2364005719,
				"element": "C" 
			},
			{
				"x": -0.2689248929,
				"y": 2.9966477408,
				"z": -0.6118579179,
				"element": "C" 
			},
			{
				"x": 1.7391811596,
				"y": 3.2359038966,
				"z": -3.356952653,
				"element": "H" 
			},
			{
				"x": 2.2469925214,
				"y": 0.8873840505,
				"z": -2.6848108906,
				"element": "H" 
			},
			{
				"x": 1.9599708,
				"y": -0.9985086587,
				"z": -1.2428150002,
				"element": "H" 
			},
			{
				"x": 1.7032732969,
				"y": -2.7792943231,
				"z": 0.1020000753,
				"element": "H" 
			},
			{
				"x": 1.6316644164,
				"y": -4.7730435311,
				"z": 1.3264903507,
				"element": "H" 
			},
			{
				"x": 0.7288057478,
				"y": -6.0601914831,
				"z": 3.2318923728,
				"element": "H" 
			},
			{
				"x": -0.9182883165,
				"y": -5.0186456796,
				"z": 4.7847646492,
				"element": "H" 
			},
			{
				"x": -1.6447111926,
				"y": -2.6697979841,
				"z": 4.3977540277,
				"element": "H" 
			},
			{
				"x": -0.7390510817,
				"y": -1.3752103372,
				"z": 2.4844576907,
				"element": "H" 
			},
			{
				"x": -0.4682233536,
				"y": 1.2579293327,
				"z": 0.6331477156,
				"element": "H" 
			},
			{
				"x": -0.9653647352,
				"y": 3.6116527934,
				"z": -0.0557272216,
				"element": "H" 
			}
		],
		 "valence_orbital": [ 
			{
				"type": "occ",
				"energy": -0.28273,
				"method": "rhf"
			},
			{
				"type": "occ",
				"energy": -0.27518,
				"method": "rhf"
			},
			{
				"type": "occ",
				"energy": -0.2678,
				"method": "rhf"
			},
			{
				"type": "occ",
				"energy": -0.25934,
				"method": "rhf"
			},
			{
				"type": "occ",
				"energy": -0.20618,
				"method": "rhf"
			},
			{
				"type": "unocc",
				"energy": -0.0912,
				"method": "rhf"
			},
			{
				"type": "unocc",
				"energy": -0.03835,
				"method": "rhf"
			},
			{
				"type": "unocc",
				"energy": -0.02174,
				"method": "rhf"
			},
			{
				"type": "unocc",
				"energy": -0.00922,
				"method": "rhf"
			},
			{
				"type": "unocc",
				"energy": 0.01193,
				"method": "rhf"
			}
		],
		"cosmo_sigma_profile": { 
			"-0.025": 0.0,
			"-0.024": 0.0,
			"-0.023": 0.0,
			"-0.022": 0.0,
			"-0.021": 0.0,
			"-0.02": 0.0,
			"-0.019": 0.0,
			"-0.018": 0.0,
			"-0.017": 0.0,
			"-0.016": 0.0421451829303,
			"-0.015": 1.19438401237,
			"-0.014": 1.90884512532,
			"-0.013": 1.21573882056,
			"-0.012": 1.81786751387,
			"-0.011": 1.89232916102,
			"-0.01": 1.65734295916,
			"-0.009": 1.35160142063,
			"-0.008": 4.5899736503,
			"-0.007": 8.95184529318,
			"-0.006": 12.7366137768,
			"-0.005": 18.0018881701,
			"-0.004": 17.5992784277,
			"-0.003": 18.707836269,
			"-0.002": 14.1086128062,
			"-0.001": 17.7735359348,
			"0.0": 19.0650461609,
			"0.001": 22.7452014863,
			"0.002": 30.6285994462,
			"0.003": 20.3271547205,
			"0.004": 15.0063204156,
			"0.005": 13.7905901615,
			"0.006": 12.6250653079,
			"0.007": 5.81988156881,
			"0.008": 9.97057114827,
			"0.009": 5.10144281535,
			"0.01": 4.15634395446,
			"0.011": 1.03210415715,
			"0.012": 0.0,
			"0.013": 0.0,
			"0.014": 0.0,
			"0.015": 0.0,
			"0.016": 0.0,
			"0.017": 0.0,
			"0.018": 0.0,
			"0.019": 0.0,
			"0.02": 0.0,
			"0.021": 0.0,
			"0.022": 0.0,
			"0.023": 0.0,
			"0.024": 0.0,
			"0.025": 0.0
		}
	}
}
