{
	 "smiles": "CC1=C(C(=O)N2CCCCC2)C2=CC=C(C=C2N1)C(F)(F)F", 
	 "Tm": 447.15, 
	 "num_atms": 39, 
	 "gaussian": { 
		 "optdone": 1, 
		 "sigma_profile": "yes", 
		 "theory": "DFT", 
		 "functional": "B3LYP", 
		 "basiset": "6-31G**", 
		 "properties": { 
			 "R2extent": 10295.0747, 
			 "electric_dipole_moment_norm": 6.66742024849, 
			 "electric_quadrupole_moment_norm": 24.357523207, 
			 "total_energy": -1104.2454133, 
			 "HOMO_LUMO_gap": 0.18793, 
			 "cosmo_polarized_energy": -17.09, 
			 "cosmo_cavitation_energy": 41.8, 
			 "cosmo_dispersion_energy": -29.09, 
			 "cosmo_repulsion_energy": 2.15, 
			 "cosmo_total_nonelectrostatic_energy": 14.86, 
			 "SMD_solvation_energy": 7.33 
		},
		"coords": [
			{
				"x": 3.3231097144,
				"y": -0.247465043,
				"z": -1.2392420706,
				"element": "C" 
			},
			{
				"x": 2.1628462093,
				"y": 0.690045555,
				"z": -1.1346505169,
				"element": "C" 
			},
			{
				"x": 0.9517485016,
				"y": 0.5685615035,
				"z": -0.4722178193,
				"element": "C" 
			},
			{
				"x": 0.4583525219,
				"y": -0.5337805456,
				"z": 0.3954098659,
				"element": "C" 
			},
			{
				"x": -0.0784872501,
				"y": -0.2718048195,
				"z": 1.4728785252,
				"element": "O" 
			},
			{
				"x": 0.6537889209,
				"y": -1.842974612,
				"z": -0.0186841597,
				"element": "N" 
			},
			{
				"x": 0.2561876385,
				"y": -2.9107651374,
				"z": 0.9086467258,
				"element": "C" 
			},
			{
				"x": -1.1196586019,
				"y": -3.4899647183,
				"z": 0.553582623,
				"element": "C" 
			},
			{
				"x": -1.1488503563,
				"y": -3.9626321267,
				"z": -0.9074853318,
				"element": "C" 
			},
			{
				"x": -0.6963934435,
				"y": -2.8386182455,
				"z": -1.8507549503,
				"element": "C" 
			},
			{
				"x": 0.6638242567,
				"y": -2.2580090373,
				"z": -1.4261502413,
				"element": "C" 
			},
			{
				"x": 0.2581793624,
				"y": 1.825581669,
				"z": -0.6263737671,
				"element": "C" 
			},
			{
				"x": -0.9755930483,
				"y": 2.3197488525,
				"z": -0.1705463364,
				"element": "C" 
			},
			{
				"x": -1.3579876599,
				"y": 3.6019508371,
				"z": -0.5338327531,
				"element": "C" 
			},
			{
				"x": -0.5279432199,
				"y": 4.4072381593,
				"z": -1.3448083548,
				"element": "C" 
			},
			{
				"x": 0.7035827023,
				"y": 3.9488025048,
				"z": -1.8026186786,
				"element": "C" 
			},
			{
				"x": 1.0777360329,
				"y": 2.6575063939,
				"z": -1.4293799469,
				"element": "C" 
			},
			{
				"x": 2.2250313657,
				"y": 1.9408159581,
				"z": -1.7170051147,
				"element": "N" 
			},
			{
				"x": -0.9856210551,
				"y": 5.7982798974,
				"z": -1.6773842202,
				"element": "C" 
			},
			{
				"x": -0.9864302423,
				"y": 6.6036407341,
				"z": -0.5878126939,
				"element": "F" 
			},
			{
				"x": -0.1996441418,
				"y": 6.3922661716,
				"z": -2.6054439083,
				"element": "F" 
			},
			{
				"x": -2.2513904846,
				"y": 5.8086901928,
				"z": -2.1588127173,
				"element": "F" 
			},
			{
				"x": 4.2585907794,
				"y": 0.2556410341,
				"z": -0.9682520559,
				"element": "H" 
			},
			{
				"x": 3.4425201219,
				"y": -0.6391613814,
				"z": -2.2573869758,
				"element": "H" 
			},
			{
				"x": 3.1843636379,
				"y": -1.0935358426,
				"z": -0.5652106219,
				"element": "H" 
			},
			{
				"x": 0.2598412825,
				"y": -2.4922400143,
				"z": 1.9144813547,
				"element": "H" 
			},
			{
				"x": 1.01818862,
				"y": -3.7010847962,
				"z": 0.8509728984,
				"element": "H" 
			},
			{
				"x": -1.3557605278,
				"y": -4.3170333135,
				"z": 1.2336665259,
				"element": "H" 
			},
			{
				"x": -1.8762168288,
				"y": -2.7123627126,
				"z": 0.7147336814,
				"element": "H" 
			},
			{
				"x": -0.4758857967,
				"y": -4.8247718548,
				"z": -1.0231288744,
				"element": "H" 
			},
			{
				"x": -2.1512044376,
				"y": -4.3101313495,
				"z": -1.1824027556,
				"element": "H" 
			},
			{
				"x": -1.4386100567,
				"y": -2.0297788592,
				"z": -1.8449066716,
				"element": "H" 
			},
			{
				"x": -0.6249812362,
				"y": -3.2016905763,
				"z": -2.8833436528,
				"element": "H" 
			},
			{
				"x": 1.4481205524,
				"y": -3.0167952807,
				"z": -1.5607105249,
				"element": "H" 
			},
			{
				"x": 0.918081653,
				"y": -1.4020521329,
				"z": -2.0501413208,
				"element": "H" 
			},
			{
				"x": -1.5997210051,
				"y": 1.7069823925,
				"z": 0.469784594,
				"element": "H" 
			},
			{
				"x": -2.3074891415,
				"y": 4.0012769332,
				"z": -0.1927644249,
				"element": "H" 
			},
			{
				"x": 1.3347059841,
				"y": 4.5758901206,
				"z": -2.422151365,
				"element": "H" 
			},
			{
				"x": 3.0236686765,
				"y": 2.29793349,
				"z": -2.2176539694,
				"element": "H" 
			}
		],
		 "valence_orbital": [ 
			{
				"type": "occ",
				"energy": -0.2863,
				"method": "rhf"
			},
			{
				"type": "occ",
				"energy": -0.24858,
				"method": "rhf"
			},
			{
				"type": "occ",
				"energy": -0.23217,
				"method": "rhf"
			},
			{
				"type": "occ",
				"energy": -0.2306,
				"method": "rhf"
			},
			{
				"type": "occ",
				"energy": -0.21515,
				"method": "rhf"
			},
			{
				"type": "unocc",
				"energy": -0.02722,
				"method": "rhf"
			},
			{
				"type": "unocc",
				"energy": 0.0003,
				"method": "rhf"
			},
			{
				"type": "unocc",
				"energy": 0.0135,
				"method": "rhf"
			},
			{
				"type": "unocc",
				"energy": 0.0652,
				"method": "rhf"
			},
			{
				"type": "unocc",
				"energy": 0.07458,
				"method": "rhf"
			}
		],
		"cosmo_sigma_profile": { 
			"-0.025": 0.0,
			"-0.024": 0.0,
			"-0.023": 0.0,
			"-0.022": 0.0,
			"-0.021": 0.0,
			"-0.02": 0.0,
			"-0.019": 0.0,
			"-0.018": 0.0,
			"-0.017": 0.0447149495044,
			"-0.016": 1.25966884089,
			"-0.015": 1.68439207654,
			"-0.014": 0.973823439979,
			"-0.013": 0.857457345605,
			"-0.012": 1.44102514795,
			"-0.011": 1.79038067426,
			"-0.01": 1.55879275525,
			"-0.009": 1.08069979888,
			"-0.008": 2.05576697396,
			"-0.007": 2.70960764709,
			"-0.006": 5.97937243616,
			"-0.005": 10.1259482223,
			"-0.004": 18.7076439266,
			"-0.003": 32.7934623585,
			"-0.002": 42.7952119628,
			"-0.001": 36.794293198,
			"0.0": 28.5938171265,
			"0.001": 20.5989483645,
			"0.002": 24.0381793083,
			"0.003": 43.6252850133,
			"0.004": 21.6388329861,
			"0.005": 7.30551723586,
			"0.006": 2.75803563818,
			"0.007": 2.4271434563,
			"0.008": 1.28833350221,
			"0.009": 2.23596421077,
			"0.01": 1.39177627063,
			"0.011": 2.38267424825,
			"0.012": 1.47099760486,
			"0.013": 2.06549663018,
			"0.014": 4.11068884332,
			"0.015": 1.40780114465,
			"0.016": 0.0291243887665,
			"0.017": 0.0,
			"0.018": 0.0,
			"0.019": 0.0,
			"0.02": 0.0,
			"0.021": 0.0,
			"0.022": 0.0,
			"0.023": 0.0,
			"0.024": 0.0,
			"0.025": 0.0
		}
	}
}
