{
	 "smiles": "OC(=O)C=CC1=C(C=C2OCOC2=C1)[N+]([O-])=O", 
	 "Tm": 290.15, 
	 "num_atms": 24, 
	 "gaussian": { 
		 "optdone": 1, 
		 "sigma_profile": "yes", 
		 "theory": "DFT", 
		 "functional": "B3LYP", 
		 "basiset": "6-31G**", 
		 "properties": { 
			 "R2extent": 4180.8367, 
			 "electric_dipole_moment_norm": 5.7884229398, 
			 "electric_quadrupole_moment_norm": 14.6268453335, 
			 "total_energy": -891.235617508, 
			 "HOMO_LUMO_gap": 0.14455, 
			 "cosmo_polarized_energy": -17.3, 
			 "cosmo_cavitation_energy": 30.3, 
			 "cosmo_dispersion_energy": -21.97, 
			 "cosmo_repulsion_energy": 1.72, 
			 "cosmo_total_nonelectrostatic_energy": 10.05, 
			 "SMD_solvation_energy": 9.31 
		},
		"coords": [
			{
				"x": -2.2991663882,
				"y": -1.2465530337,
				"z": 0.9571484022,
				"element": "O" 
			},
			{
				"x": -3.3476937097,
				"y": -0.779339152,
				"z": 0.2331675581,
				"element": "C" 
			},
			{
				"x": -4.4359590557,
				"y": -1.3214758256,
				"z": 0.2557082522,
				"element": "O" 
			},
			{
				"x": -3.0793824178,
				"y": 0.4457758832,
				"z": -0.5497791213,
				"element": "C" 
			},
			{
				"x": -1.9209068717,
				"y": 1.0893360229,
				"z": -0.7816481397,
				"element": "C" 
			},
			{
				"x": -0.5406867882,
				"y": 0.6457070755,
				"z": -0.4813561696,
				"element": "C" 
			},
			{
				"x": 0.417661421,
				"y": 1.4505595221,
				"z": 0.1674546075,
				"element": "C" 
			},
			{
				"x": 1.7560369606,
				"y": 1.0540281221,
				"z": 0.3637044408,
				"element": "C" 
			},
			{
				"x": 2.1069756361,
				"y": -0.1795317303,
				"z": -0.1255529984,
				"element": "C" 
			},
			{
				"x": 3.3244012984,
				"y": -0.8014395365,
				"z": -0.0816026352,
				"element": "O" 
			},
			{
				"x": 3.1488467631,
				"y": -2.0719097636,
				"z": -0.7215674921,
				"element": "C" 
			},
			{
				"x": 1.7844129023,
				"y": -2.1560201216,
				"z": -1.1675407181,
				"element": "O" 
			},
			{
				"x": 1.1818683457,
				"y": -0.9976872779,
				"z": -0.7778148308,
				"element": "C" 
			},
			{
				"x": -0.1271445583,
				"y": -0.6135068149,
				"z": -0.9721658675,
				"element": "C" 
			},
			{
				"x": 0.0548083751,
				"y": 2.7609426413,
				"z": 0.7121027211,
				"element": "N" 
			},
			{
				"x": 0.9454065283,
				"y": 3.4306124185,
				"z": 1.2379072014,
				"element": "O" 
			},
			{
				"x": -1.1186864584,
				"y": 3.1308293955,
				"z": 0.6166778551,
				"element": "O" 
			},
			{
				"x": -2.6396780149,
				"y": -2.0258538154,
				"z": 1.4276301306,
				"element": "H" 
			},
			{
				"x": -3.993837659,
				"y": 0.8758484773,
				"z": -0.9448627897,
				"element": "H" 
			},
			{
				"x": -1.9941390243,
				"y": 2.0338195415,
				"z": -1.3131254169,
				"element": "H" 
			},
			{
				"x": 2.4467901564,
				"y": 1.706566521,
				"z": 0.8786370428,
				"element": "H" 
			},
			{
				"x": 3.3454310698,
				"y": -2.8762301519,
				"z": -0.0035575551,
				"element": "H" 
			},
			{
				"x": 3.8177734788,
				"y": -2.1434144293,
				"z": -1.5861065766,
				"element": "H" 
			},
			{
				"x": -0.8272319894,
				"y": -1.2526639683,
				"z": -1.4937579009,
				"element": "H" 
			}
		],
		 "valence_orbital": [ 
			{
				"type": "occ",
				"energy": -0.29897,
				"method": "rhf"
			},
			{
				"type": "occ",
				"energy": -0.28194,
				"method": "rhf"
			},
			{
				"type": "occ",
				"energy": -0.27776,
				"method": "rhf"
			},
			{
				"type": "occ",
				"energy": -0.26925,
				"method": "rhf"
			},
			{
				"type": "occ",
				"energy": -0.23775,
				"method": "rhf"
			},
			{
				"type": "unocc",
				"energy": -0.0932,
				"method": "rhf"
			},
			{
				"type": "unocc",
				"energy": -0.05696,
				"method": "rhf"
			},
			{
				"type": "unocc",
				"energy": -0.0198,
				"method": "rhf"
			},
			{
				"type": "unocc",
				"energy": 0.00659,
				"method": "rhf"
			},
			{
				"type": "unocc",
				"energy": 0.07012,
				"method": "rhf"
			}
		],
		"cosmo_sigma_profile": { 
			"-0.025": 0.0,
			"-0.024": 0.0,
			"-0.023": 0.0,
			"-0.022": 0.0,
			"-0.021": 0.0,
			"-0.02": 0.0,
			"-0.019": 0.0,
			"-0.018": 0.576740733124,
			"-0.017": 0.785688366449,
			"-0.016": 0.89487198568,
			"-0.015": 0.81624250152,
			"-0.014": 0.723810912442,
			"-0.013": 1.15569017898,
			"-0.012": 0.303979687362,
			"-0.011": 0.444193415551,
			"-0.01": 0.642399845165,
			"-0.009": 4.11251430592,
			"-0.008": 10.7150050507,
			"-0.007": 14.9738802519,
			"-0.006": 13.6392894847,
			"-0.005": 13.0280176862,
			"-0.004": 10.7519971408,
			"-0.003": 12.2163930161,
			"-0.002": 16.6353560809,
			"-0.001": 18.7266647966,
			"0.0": 20.2258399102,
			"0.001": 12.7983544683,
			"0.002": 8.03664462826,
			"0.003": 8.52688492882,
			"0.004": 9.41046133308,
			"0.005": 8.04301610325,
			"0.006": 8.46547709444,
			"0.007": 11.1454197022,
			"0.008": 13.3590974299,
			"0.009": 6.02091499771,
			"0.01": 6.00013838662,
			"0.011": 3.20381501994,
			"0.012": 5.40886018163,
			"0.013": 1.25704457445,
			"0.014": 0.0,
			"0.015": 0.0,
			"0.016": 0.0,
			"0.017": 0.0,
			"0.018": 0.0,
			"0.019": 0.0,
			"0.02": 0.0,
			"0.021": 0.0,
			"0.022": 0.0,
			"0.023": 0.0,
			"0.024": 0.0,
			"0.025": 0.0
		}
	}
}
