{
	 "smiles": "OCC1OC(C(O)C1O)N1C=NC2=C1N=CN=C2NCC1=CC=CO1", 
	 "Tm": 426.15, 
	 "num_atms": 42, 
	 "gaussian": { 
		 "optdone": 1, 
		 "sigma_profile": "yes", 
		 "theory": "DFT", 
		 "functional": "B3LYP", 
		 "basiset": "6-31G**", 
		 "properties": { 
			 "R2extent": 13775.3775, 
			 "electric_dipole_moment_norm": 2.41610016969, 
			 "electric_quadrupole_moment_norm": 26.1662008071, 
			 "total_energy": -1231.67219054, 
			 "HOMO_LUMO_gap": 0.18977, 
			 "cosmo_polarized_energy": -22.81, 
			 "cosmo_cavitation_energy": 45.62, 
			 "cosmo_dispersion_energy": -32.79, 
			 "cosmo_repulsion_energy": 2.49, 
			 "cosmo_total_nonelectrostatic_energy": 15.31, 
			 "SMD_solvation_energy": 4.83 
		},
		"coords": [
			{
				"x": 3.739478424,
				"y": -3.4284434266,
				"z": 0.3635120187,
				"element": "O" 
			},
			{
				"x": 2.9268299643,
				"y": -3.1966827485,
				"z": 1.5005315179,
				"element": "C" 
			},
			{
				"x": 2.10792171,
				"y": -1.9185879282,
				"z": 1.3098319196,
				"element": "C" 
			},
			{
				"x": 1.315199747,
				"y": -2.0546675661,
				"z": 0.1087212528,
				"element": "O" 
			},
			{
				"x": -0.0597291151,
				"y": -2.2659451669,
				"z": 0.4034918609,
				"element": "C" 
			},
			{
				"x": -0.2088262325,
				"y": -2.2709204355,
				"z": 1.936133997,
				"element": "C" 
			},
			{
				"x": -0.2627871647,
				"y": -3.6166049814,
				"z": 2.3690110623,
				"element": "O" 
			},
			{
				"x": 1.0975849286,
				"y": -1.599773437,
				"z": 2.4258688676,
				"element": "C" 
			},
			{
				"x": 1.5228479686,
				"y": -2.1522452997,
				"z": 3.6724197145,
				"element": "O" 
			},
			{
				"x": -0.8696959275,
				"y": -1.269591294,
				"z": -0.2843624167,
				"element": "N" 
			},
			{
				"x": -1.5906749663,
				"y": -1.4931256286,
				"z": -1.4462427703,
				"element": "C" 
			},
			{
				"x": -2.1656433375,
				"y": -0.4235237903,
				"z": -1.9360182751,
				"element": "N" 
			},
			{
				"x": -1.7958205341,
				"y": 0.5781482265,
				"z": -1.0572541547,
				"element": "C" 
			},
			{
				"x": -0.9878442066,
				"y": 0.0867663514,
				"z": -0.0294650358,
				"element": "C" 
			},
			{
				"x": -0.4694099484,
				"y": 0.8023299756,
				"z": 0.9822090803,
				"element": "N" 
			},
			{
				"x": -0.8157318157,
				"y": 2.0906282467,
				"z": 0.9012623128,
				"element": "C" 
			},
			{
				"x": -1.5795050058,
				"y": 2.7001408981,
				"z": -0.0180131667,
				"element": "N" 
			},
			{
				"x": -2.0881656715,
				"y": 1.961000872,
				"z": -1.0211511172,
				"element": "C" 
			},
			{
				"x": -2.8600739186,
				"y": 2.5363028198,
				"z": -1.9752989845,
				"element": "N" 
			},
			{
				"x": -3.223327277,
				"y": 3.9409069976,
				"z": -2.0083206992,
				"element": "C" 
			},
			{
				"x": -2.9849786082,
				"y": 4.5325103522,
				"z": -3.3637888241,
				"element": "C" 
			},
			{
				"x": -2.1133832916,
				"y": 4.2600561293,
				"z": -4.3770732832,
				"element": "C" 
			},
			{
				"x": -2.3845195264,
				"y": 5.2176020122,
				"z": -5.4116491211,
				"element": "C" 
			},
			{
				"x": -3.3974038371,
				"y": 5.9984771378,
				"z": -4.9498120993,
				"element": "C" 
			},
			{
				"x": -3.7799985217,
				"y": 5.5914945874,
				"z": -3.7026562761,
				"element": "O" 
			},
			{
				"x": 3.1457470704,
				"y": -3.3846010013,
				"z": -0.3999148476,
				"element": "H" 
			},
			{
				"x": 2.2478744531,
				"y": -4.039126574,
				"z": 1.6972664188,
				"element": "H" 
			},
			{
				"x": 3.5919097831,
				"y": -3.0879713907,
				"z": 2.3611874892,
				"element": "H" 
			},
			{
				"x": 2.7950281884,
				"y": -1.0852105306,
				"z": 1.1303127153,
				"element": "H" 
			},
			{
				"x": -0.3826930806,
				"y": -3.2372221909,
				"z": 0.0150412674,
				"element": "H" 
			},
			{
				"x": -1.1027107463,
				"y": -1.7176184787,
				"z": 2.252154921,
				"element": "H" 
			},
			{
				"x": 0.2532410738,
				"y": -3.6391796431,
				"z": 3.1934785745,
				"element": "H" 
			},
			{
				"x": 0.9426973397,
				"y": -0.5208270363,
				"z": 2.4882809685,
				"element": "H" 
			},
			{
				"x": 1.207953158,
				"y": -1.5796376779,
				"z": 4.3823601886,
				"element": "H" 
			},
			{
				"x": -1.6504394511,
				"y": -2.486008814,
				"z": -1.8735119483,
				"element": "H" 
			},
			{
				"x": -0.4302178289,
				"y": 2.7371513772,
				"z": 1.6872472442,
				"element": "H" 
			},
			{
				"x": -3.2252281683,
				"y": 1.9212247737,
				"z": -2.6891083326,
				"element": "H" 
			},
			{
				"x": -4.2794908857,
				"y": 4.0866593766,
				"z": -1.7410735716,
				"element": "H" 
			},
			{
				"x": -2.6271222268,
				"y": 4.4374639606,
				"z": -1.2363414147,
				"element": "H" 
			},
			{
				"x": -1.3674958827,
				"y": 3.478779884,
				"z": -4.3839061929,
				"element": "H" 
			},
			{
				"x": -1.8890937753,
				"y": 5.3050788855,
				"z": -6.3679340644,
				"element": "H" 
			},
			{
				"x": -3.9403028569,
				"y": 6.8371921759,
				"z": -5.356726796,
				"element": "H" 
			}
		],
		 "valence_orbital": [ 
			{
				"type": "occ",
				"energy": -0.26926,
				"method": "rhf"
			},
			{
				"type": "occ",
				"energy": -0.25899,
				"method": "rhf"
			},
			{
				"type": "occ",
				"energy": -0.25291,
				"method": "rhf"
			},
			{
				"type": "occ",
				"energy": -0.22734,
				"method": "rhf"
			},
			{
				"type": "occ",
				"energy": -0.21539,
				"method": "rhf"
			},
			{
				"type": "unocc",
				"energy": -0.02562,
				"method": "rhf"
			},
			{
				"type": "unocc",
				"energy": -0.00202,
				"method": "rhf"
			},
			{
				"type": "unocc",
				"energy": 0.01262,
				"method": "rhf"
			},
			{
				"type": "unocc",
				"energy": 0.03,
				"method": "rhf"
			},
			{
				"type": "unocc",
				"energy": 0.03745,
				"method": "rhf"
			}
		],
		"cosmo_sigma_profile": { 
			"-0.025": 0.0,
			"-0.024": 0.0,
			"-0.023": 0.0,
			"-0.022": 0.0,
			"-0.021": 0.0,
			"-0.02": 0.0,
			"-0.019": 0.0,
			"-0.018": 0.115611777492,
			"-0.017": 1.31522024019,
			"-0.016": 1.14560773586,
			"-0.015": 1.08080690454,
			"-0.014": 0.882100385462,
			"-0.013": 1.74817817789,
			"-0.012": 2.26229071389,
			"-0.011": 3.64349106418,
			"-0.01": 6.22663227333,
			"-0.009": 7.20447827353,
			"-0.008": 6.29386534932,
			"-0.007": 10.2613170324,
			"-0.006": 15.9021989222,
			"-0.005": 21.8926256607,
			"-0.004": 22.5336067507,
			"-0.003": 22.6223033148,
			"-0.002": 23.1767553295,
			"-0.001": 24.9795891233,
			"0.0": 27.5111427031,
			"0.001": 22.5293554156,
			"0.002": 19.2918527765,
			"0.003": 22.053054693,
			"0.004": 17.983483065,
			"0.005": 17.768600711,
			"0.006": 11.897200973,
			"0.007": 10.5302349129,
			"0.008": 9.41858456991,
			"0.009": 6.55569393009,
			"0.01": 4.76930742182,
			"0.011": 4.21852481882,
			"0.012": 5.22721193971,
			"0.013": 4.4216036071,
			"0.014": 3.318679892,
			"0.015": 1.21755838043,
			"0.016": 0.00468812473665,
			"0.017": 0.0,
			"0.018": 0.0,
			"0.019": 0.0,
			"0.02": 0.0,
			"0.021": 0.0,
			"0.022": 0.0,
			"0.023": 0.0,
			"0.024": 0.0,
			"0.025": 0.0
		}
	}
}
