{
	 "smiles": "CC1=NN(C2=C1C=C(S2)C(O)=O)C1=CC(=CC=C1)C(F)(F)F", 
	 "Tm": 545.15, 
	 "num_atms": 31, 
	 "gaussian": { 
		 "optdone": 1, 
		 "sigma_profile": "yes", 
		 "theory": "DFT", 
		 "functional": "B3LYP", 
		 "basiset": "6-31G**", 
		 "properties": { 
			 "R2extent": 10009.495, 
			 "electric_dipole_moment_norm": 2.1301420563, 
			 "electric_quadrupole_moment_norm": 36.4764983572, 
			 "total_energy": -1496.55858038, 
			 "HOMO_LUMO_gap": 0.16838, 
			 "cosmo_polarized_energy": -16.18, 
			 "cosmo_cavitation_energy": 39.51, 
			 "cosmo_dispersion_energy": -28.47, 
			 "cosmo_repulsion_energy": 2.05, 
			 "cosmo_total_nonelectrostatic_energy": 13.1, 
			 "SMD_solvation_energy": 8.02 
		},
		"coords": [
			{
				"x": 0.3186685463,
				"y": 3.8453483987,
				"z": 1.118582079,
				"element": "C" 
			},
			{
				"x": 0.2536423462,
				"y": 2.6342513813,
				"z": 0.2438726899,
				"element": "C" 
			},
			{
				"x": 0.7223831425,
				"y": 1.469522871,
				"z": 0.6643294141,
				"element": "N" 
			},
			{
				"x": 0.5283839827,
				"y": 0.5565583742,
				"z": -0.3538053666,
				"element": "N" 
			},
			{
				"x": -0.0732339176,
				"y": 1.1692147389,
				"z": -1.4101153661,
				"element": "C" 
			},
			{
				"x": -0.270471995,
				"y": 2.5113936846,
				"z": -1.0817199094,
				"element": "C" 
			},
			{
				"x": -0.9117665832,
				"y": 3.2375211145,
				"z": -2.1236364128,
				"element": "C" 
			},
			{
				"x": -1.2019492263,
				"y": 2.4518436845,
				"z": -3.2081921343,
				"element": "C" 
			},
			{
				"x": -0.658026351,
				"y": 0.761912174,
				"z": -2.9932327027,
				"element": "S" 
			},
			{
				"x": -1.8791577721,
				"y": 2.9318351181,
				"z": -4.4323219211,
				"element": "C" 
			},
			{
				"x": -2.3367527254,
				"y": 1.9926898053,
				"z": -5.3055573886,
				"element": "O" 
			},
			{
				"x": -2.0279651176,
				"y": 4.1076992037,
				"z": -4.6706668941,
				"element": "O" 
			},
			{
				"x": 0.9241092348,
				"y": -0.7890939962,
				"z": -0.1782625813,
				"element": "C" 
			},
			{
				"x": 1.1898881972,
				"y": -1.2568038371,
				"z": 1.1140882909,
				"element": "C" 
			},
			{
				"x": 1.5677631384,
				"y": -2.5847333988,
				"z": 1.2930002803,
				"element": "C" 
			},
			{
				"x": 1.6785297644,
				"y": -3.4557625322,
				"z": 0.2043347748,
				"element": "C" 
			},
			{
				"x": 1.4176713158,
				"y": -2.9765361002,
				"z": -1.0766744011,
				"element": "C" 
			},
			{
				"x": 1.0481727436,
				"y": -1.6466215705,
				"z": -1.277297469,
				"element": "C" 
			},
			{
				"x": 1.9099025679,
				"y": -3.078699754,
				"z": 2.6754596459,
				"element": "C" 
			},
			{
				"x": 3.2383309557,
				"y": -2.9938730271,
				"z": 2.914301822,
				"element": "F" 
			},
			{
				"x": 1.2876347915,
				"y": -2.3652351733,
				"z": 3.6372033044,
				"element": "F" 
			},
			{
				"x": 1.5639102232,
				"y": -4.3748464454,
				"z": 2.8392282604,
				"element": "F" 
			},
			{
				"x": 0.7742335532,
				"y": 3.5876192482,
				"z": 2.0764358941,
				"element": "H" 
			},
			{
				"x": -0.681680333,
				"y": 4.2514518985,
				"z": 1.3042124843,
				"element": "H" 
			},
			{
				"x": 0.9125769325,
				"y": 4.6380130309,
				"z": 0.6506494083,
				"element": "H" 
			},
			{
				"x": -1.1738435205,
				"y": 4.2882637816,
				"z": -2.1065362897,
				"element": "H" 
			},
			{
				"x": -2.3332435415,
				"y": 1.1080677363,
				"z": -4.9121861433,
				"element": "H" 
			},
			{
				"x": 1.0947175949,
				"y": -0.5820709842,
				"z": 1.9539789702,
				"element": "H" 
			},
			{
				"x": 1.9601865768,
				"y": -4.4906013704,
				"z": 0.3623012157,
				"element": "H" 
			},
			{
				"x": 1.5081229411,
				"y": -3.6379346069,
				"z": -1.9323924715,
				"element": "H" 
			},
			{
				"x": 0.8847625344,
				"y": -1.2842934478,
				"z": -2.2859810829,
				"element": "H" 
			}
		],
		 "valence_orbital": [ 
			{
				"type": "occ",
				"energy": -0.28537,
				"method": "rhf"
			},
			{
				"type": "occ",
				"energy": -0.28373,
				"method": "rhf"
			},
			{
				"type": "occ",
				"energy": -0.28056,
				"method": "rhf"
			},
			{
				"type": "occ",
				"energy": -0.26033,
				"method": "rhf"
			},
			{
				"type": "occ",
				"energy": -0.2337,
				"method": "rhf"
			},
			{
				"type": "unocc",
				"energy": -0.06532,
				"method": "rhf"
			},
			{
				"type": "unocc",
				"energy": -0.04653,
				"method": "rhf"
			},
			{
				"type": "unocc",
				"energy": -0.0395,
				"method": "rhf"
			},
			{
				"type": "unocc",
				"energy": -0.02156,
				"method": "rhf"
			},
			{
				"type": "unocc",
				"energy": 0.01311,
				"method": "rhf"
			}
		],
		"cosmo_sigma_profile": { 
			"-0.025": 0.0,
			"-0.024": 0.0,
			"-0.023": 0.0,
			"-0.022": 0.0,
			"-0.021": 0.0,
			"-0.02": 0.0,
			"-0.019": 0.115894509502,
			"-0.018": 0.87397732311,
			"-0.017": 0.756983824562,
			"-0.016": 0.658315414902,
			"-0.015": 0.798152645848,
			"-0.014": 0.742910762204,
			"-0.013": 1.7267072891,
			"-0.012": 1.05032768103,
			"-0.011": 0.941295565581,
			"-0.01": 0.582725298809,
			"-0.009": 1.33905670971,
			"-0.008": 3.33768002621,
			"-0.007": 8.11463938419,
			"-0.006": 12.0701600606,
			"-0.005": 17.8479994307,
			"-0.004": 20.5983183722,
			"-0.003": 17.9234320608,
			"-0.002": 21.6484352768,
			"-0.001": 27.0336516119,
			"0.0": 31.3097186096,
			"0.001": 34.5262680181,
			"0.002": 37.8191730631,
			"0.003": 34.6730898154,
			"0.004": 7.03122227915,
			"0.005": 3.41166397582,
			"0.006": 3.62105102009,
			"0.007": 3.76316635299,
			"0.008": 4.12607084995,
			"0.009": 4.59075010838,
			"0.01": 6.4226368548,
			"0.011": 5.62735714775,
			"0.012": 4.50809539367,
			"0.013": 0.879106375189,
			"0.014": 0.0,
			"0.015": 0.0,
			"0.016": 0.0,
			"0.017": 0.0,
			"0.018": 0.0,
			"0.019": 0.0,
			"0.02": 0.0,
			"0.021": 0.0,
			"0.022": 0.0,
			"0.023": 0.0,
			"0.024": 0.0,
			"0.025": 0.0
		}
	}
}
