{
	 "smiles": "ClC1=C(Cl)C=C(C=C1)C(=O)N=C=S", 
	 "Tm": 323.15, 
	 "num_atms": 16, 
	 "gaussian": { 
		 "optdone": 1, 
		 "sigma_profile": "yes", 
		 "theory": "DFT", 
		 "functional": "B3LYP", 
		 "basiset": "6-31G**", 
		 "properties": { 
			 "R2extent": 5688.5649, 
			 "electric_dipole_moment_norm": 2.3349767729, 
			 "electric_quadrupole_moment_norm": 5.88920060959, 
			 "total_energy": -1755.19917365, 
			 "HOMO_LUMO_gap": 0.17083, 
			 "cosmo_polarized_energy": -5.89, 
			 "cosmo_cavitation_energy": 28.41, 
			 "cosmo_dispersion_energy": -21.21, 
			 "cosmo_repulsion_energy": 1.65, 
			 "cosmo_total_nonelectrostatic_energy": 8.85, 
			 "SMD_solvation_energy": 5.45 
		},
		"coords": [
			{
				"x": 2.3652832338,
				"y": -2.6430262743,
				"z": -1.1125753737,
				"element": "Cl" 
			},
			{
				"x": 1.3500237598,
				"y": -1.6036205511,
				"z": -0.1547790081,
				"element": "C" 
			},
			{
				"x": 1.8751433155,
				"y": -0.842050077,
				"z": 0.9040027322,
				"element": "C" 
			},
			{
				"x": 3.5693049948,
				"y": -0.8996936638,
				"z": 1.3116947348,
				"element": "Cl" 
			},
			{
				"x": 1.0314025354,
				"y": -0.0226701437,
				"z": 1.646835801,
				"element": "C" 
			},
			{
				"x": -0.3340176015,
				"y": 0.0456902845,
				"z": 1.344492081,
				"element": "C" 
			},
			{
				"x": -0.8543581163,
				"y": -0.7140519447,
				"z": 0.2892408368,
				"element": "C" 
			},
			{
				"x": -0.0137980782,
				"y": -1.5337426303,
				"z": -0.4548761694,
				"element": "C" 
			},
			{
				"x": -1.1779814294,
				"y": 0.939165651,
				"z": 2.175934672,
				"element": "C" 
			},
			{
				"x": -0.7651610002,
				"y": 1.6117163044,
				"z": 3.0965908137,
				"element": "O" 
			},
			{
				"x": -2.5479152705,
				"y": 0.9469424199,
				"z": 1.7999086218,
				"element": "N" 
			},
			{
				"x": -3.5661717403,
				"y": 1.494275866,
				"z": 2.1687551406,
				"element": "C" 
			},
			{
				"x": -4.9465457061,
				"y": 2.1374940096,
				"z": 2.5505982553,
				"element": "S" 
			},
			{
				"x": 1.4237226597,
				"y": 0.5693432797,
				"z": 2.4653900253,
				"element": "H" 
			},
			{
				"x": -1.9115052637,
				"y": -0.661412774,
				"z": 0.0548154791,
				"element": "H" 
			},
			{
				"x": -0.4023262929,
				"y": -2.1274597562,
				"z": -1.2744286425,
				"element": "H" 
			}
		],
		 "valence_orbital": [ 
			{
				"type": "occ",
				"energy": -0.31655,
				"method": "rhf"
			},
			{
				"type": "occ",
				"energy": -0.28536,
				"method": "rhf"
			},
			{
				"type": "occ",
				"energy": -0.28169,
				"method": "rhf"
			},
			{
				"type": "occ",
				"energy": -0.2811,
				"method": "rhf"
			},
			{
				"type": "occ",
				"energy": -0.26871,
				"method": "rhf"
			},
			{
				"type": "unocc",
				"energy": -0.09788,
				"method": "rhf"
			},
			{
				"type": "unocc",
				"energy": -0.05547,
				"method": "rhf"
			},
			{
				"type": "unocc",
				"energy": -0.04238,
				"method": "rhf"
			},
			{
				"type": "unocc",
				"energy": -0.02896,
				"method": "rhf"
			},
			{
				"type": "unocc",
				"energy": -0.00999,
				"method": "rhf"
			}
		],
		"cosmo_sigma_profile": { 
			"-0.025": 0.0,
			"-0.024": 0.0,
			"-0.023": 0.0,
			"-0.022": 0.0,
			"-0.021": 0.0,
			"-0.02": 0.0,
			"-0.019": 0.0,
			"-0.018": 0.0,
			"-0.017": 0.0,
			"-0.016": 0.0,
			"-0.015": 0.0,
			"-0.014": 0.0,
			"-0.013": 0.0,
			"-0.012": 0.0,
			"-0.011": 0.0,
			"-0.01": 0.0,
			"-0.009": 0.804654694222,
			"-0.008": 4.12184279725,
			"-0.007": 4.52544579047,
			"-0.006": 4.59480185245,
			"-0.005": 6.51842980834,
			"-0.004": 10.7352936081,
			"-0.003": 16.6509579548,
			"-0.002": 24.170333405,
			"-0.001": 36.5017303168,
			"0.0": 31.6560417977,
			"0.001": 23.6385346472,
			"0.002": 26.0950482718,
			"0.003": 22.7494494501,
			"0.004": 10.1468258244,
			"0.005": 3.04538860624,
			"0.006": 1.56346324374,
			"0.007": 1.76423160916,
			"0.008": 1.56330589632,
			"0.009": 3.20690045041,
			"0.01": 4.04541885705,
			"0.011": 0.531364637539,
			"0.012": 0.0,
			"0.013": 0.0,
			"0.014": 0.0,
			"0.015": 0.0,
			"0.016": 0.0,
			"0.017": 0.0,
			"0.018": 0.0,
			"0.019": 0.0,
			"0.02": 0.0,
			"0.021": 0.0,
			"0.022": 0.0,
			"0.023": 0.0,
			"0.024": 0.0,
			"0.025": 0.0
		}
	}
}
