{
	 "smiles": "[O-][N+](=O)C1=CC2=CC(=CC3=C2C(=C1)C(=O)OC3=O)[N+]([O-])=O", 
	 "Tm": 490.15, 
	 "num_atms": 25, 
	 "gaussian": { 
		 "optdone": 1, 
		 "sigma_profile": "yes", 
		 "theory": "DFT", 
		 "functional": "B3LYP", 
		 "basiset": "6-31G**", 
		 "properties": { 
			 "R2extent": 7642.4545, 
			 "electric_dipole_moment_norm": 2.47161945898, 
			 "electric_quadrupole_moment_norm": 26.5423082127, 
			 "total_energy": -1095.57597817, 
			 "HOMO_LUMO_gap": 0.14833, 
			 "cosmo_polarized_energy": -21.24, 
			 "cosmo_cavitation_energy": 32.92, 
			 "cosmo_dispersion_energy": -24.05, 
			 "cosmo_repulsion_energy": 1.76, 
			 "cosmo_total_nonelectrostatic_energy": 10.63, 
			 "SMD_solvation_energy": 11.75 
		},
		"coords": [
			{
				"x": -2.6515752083,
				"y": -0.258498152,
				"z": -4.0281577688,
				"element": "O" 
			},
			{
				"x": -2.53664091,
				"y": 0.3097363257,
				"z": -2.9464158372,
				"element": "N" 
			},
			{
				"x": -3.4480375762,
				"y": 0.8444204883,
				"z": -2.3199393527,
				"element": "O" 
			},
			{
				"x": -1.1856333096,
				"y": 0.3532161323,
				"z": -2.3482798282,
				"element": "C" 
			},
			{
				"x": -1.0209353244,
				"y": 0.9830928984,
				"z": -1.1347486961,
				"element": "C" 
			},
			{
				"x": 0.2687267293,
				"y": 1.0321849342,
				"z": -0.549809431,
				"element": "C" 
			},
			{
				"x": 0.5114299689,
				"y": 1.6631293384,
				"z": 0.6955062651,
				"element": "C" 
			},
			{
				"x": 1.7903300379,
				"y": 1.6738633756,
				"z": 1.2062210021,
				"element": "C" 
			},
			{
				"x": 2.8805786761,
				"y": 1.0809423533,
				"z": 0.5424007329,
				"element": "C" 
			},
			{
				"x": 2.6619159317,
				"y": 0.4614208088,
				"z": -0.6728161702,
				"element": "C" 
			},
			{
				"x": 1.3631406218,
				"y": 0.4240165799,
				"z": -1.2401258672,
				"element": "C" 
			},
			{
				"x": 1.1426606154,
				"y": -0.2126461448,
				"z": -2.4875672901,
				"element": "C" 
			},
			{
				"x": -0.1214561284,
				"y": -0.251144488,
				"z": -3.0433722182,
				"element": "C" 
			},
			{
				"x": 2.2759240378,
				"y": -0.8449409883,
				"z": -3.2072048804,
				"element": "C" 
			},
			{
				"x": 2.1846098109,
				"y": -1.4059072726,
				"z": -4.2665305807,
				"element": "O" 
			},
			{
				"x": 3.521284696,
				"y": -0.775335823,
				"z": -2.6013795147,
				"element": "O" 
			},
			{
				"x": 3.8003757526,
				"y": -0.1687735133,
				"z": -1.3860649531,
				"element": "C" 
			},
			{
				"x": 4.9329386985,
				"y": -0.186843811,
				"z": -0.9833637497,
				"element": "O" 
			},
			{
				"x": 2.0286769236,
				"y": 2.3358451633,
				"z": 2.5061528884,
				"element": "N" 
			},
			{
				"x": 1.0608151695,
				"y": 2.8456075952,
				"z": 3.0650726982,
				"element": "O" 
			},
			{
				"x": 3.1786384157,
				"y": 2.3291367955,
				"z": 2.9348902829,
				"element": "O" 
			},
			{
				"x": -1.8766677919,
				"y": 1.4318351364,
				"z": -0.6438689288,
				"element": "H" 
			},
			{
				"x": -0.2907049124,
				"y": 2.1357143625,
				"z": 1.2503515299,
				"element": "H" 
			},
			{
				"x": 3.8717684862,
				"y": 1.1108775389,
				"z": 0.9777973602,
				"element": "H" 
			},
			{
				"x": -0.2924634107,
				"y": -0.7368496337,
				"z": -3.9961476924,
				"element": "H" 
			}
		],
		 "valence_orbital": [ 
			{
				"type": "occ",
				"energy": -0.32425,
				"method": "rhf"
			},
			{
				"type": "occ",
				"energy": -0.32382,
				"method": "rhf"
			},
			{
				"type": "occ",
				"energy": -0.32256,
				"method": "rhf"
			},
			{
				"type": "occ",
				"energy": -0.31032,
				"method": "rhf"
			},
			{
				"type": "occ",
				"energy": -0.29343,
				"method": "rhf"
			},
			{
				"type": "unocc",
				"energy": -0.1451,
				"method": "rhf"
			},
			{
				"type": "unocc",
				"energy": -0.1276,
				"method": "rhf"
			},
			{
				"type": "unocc",
				"energy": -0.10444,
				"method": "rhf"
			},
			{
				"type": "unocc",
				"energy": -0.08074,
				"method": "rhf"
			},
			{
				"type": "unocc",
				"energy": -0.04602,
				"method": "rhf"
			}
		],
		"cosmo_sigma_profile": { 
			"-0.025": 0.0,
			"-0.024": 0.0,
			"-0.023": 0.0,
			"-0.022": 0.0,
			"-0.021": 0.0,
			"-0.02": 0.0,
			"-0.019": 0.0,
			"-0.018": 0.0,
			"-0.017": 0.0,
			"-0.016": 0.0,
			"-0.015": 0.0,
			"-0.014": 0.0,
			"-0.013": 0.319946327745,
			"-0.012": 1.93843282519,
			"-0.011": 3.43109345327,
			"-0.01": 3.48679896579,
			"-0.009": 4.28682040526,
			"-0.008": 8.13046866545,
			"-0.007": 11.0182387188,
			"-0.006": 14.8742818872,
			"-0.005": 24.5812442603,
			"-0.004": 34.9557613589,
			"-0.003": 20.4630593062,
			"-0.002": 8.53022022647,
			"-0.001": 6.92689647074,
			"0.0": 6.86610771529,
			"0.001": 7.09683930308,
			"0.002": 7.33381079222,
			"0.003": 8.02707495813,
			"0.004": 9.23726901899,
			"0.005": 10.2305081588,
			"0.006": 18.261113482,
			"0.007": 20.8011724266,
			"0.008": 15.1272966025,
			"0.009": 13.7045726098,
			"0.01": 6.94628250299,
			"0.011": 1.28215360236,
			"0.012": 0.0,
			"0.013": 0.0,
			"0.014": 0.0,
			"0.015": 0.0,
			"0.016": 0.0,
			"0.017": 0.0,
			"0.018": 0.0,
			"0.019": 0.0,
			"0.02": 0.0,
			"0.021": 0.0,
			"0.022": 0.0,
			"0.023": 0.0,
			"0.024": 0.0,
			"0.025": 0.0
		}
	}
}
