{
	 "smiles": "N#CCCN1CCOCC1", 
	 "Tm": 293.65, 
	 "num_atms": 22, 
	 "gaussian": { 
		 "optdone": 1, 
		 "sigma_profile": "yes", 
		 "theory": "DFT", 
		 "functional": "B3LYP", 
		 "basiset": "6-31G**", 
		 "properties": { 
			 "R2extent": 2036.0266, 
			 "electric_dipole_moment_norm": 3.08639897615, 
			 "electric_quadrupole_moment_norm": 24.6945607643, 
			 "total_energy": -458.658718445, 
			 "HOMO_LUMO_gap": 0.24735, 
			 "cosmo_polarized_energy": -12.43, 
			 "cosmo_cavitation_energy": 24.49, 
			 "cosmo_dispersion_energy": -17.68, 
			 "cosmo_repulsion_energy": 1.45, 
			 "cosmo_total_nonelectrostatic_energy": 8.26, 
			 "SMD_solvation_energy": 3.24 
		},
		"coords": [
			{
				"x": -2.5547465855,
				"y": 4.3233561749,
				"z": -0.2196613719,
				"element": "N" 
			},
			{
				"x": -1.6195713589,
				"y": 3.6376995817,
				"z": -0.2741154577,
				"element": "C" 
			},
			{
				"x": -0.4578882273,
				"y": 2.7476132997,
				"z": -0.3246678936,
				"element": "C" 
			},
			{
				"x": -0.7624642147,
				"y": 1.3497921862,
				"z": 0.2663308342,
				"element": "C" 
			},
			{
				"x": 0.426121513,
				"y": 0.5047003889,
				"z": 0.190481377,
				"element": "N" 
			},
			{
				"x": 0.6033218819,
				"y": -0.1858377634,
				"z": -1.0965394173,
				"element": "C" 
			},
			{
				"x": -0.2508837633,
				"y": -1.4543065269,
				"z": -1.2082622054,
				"element": "C" 
			},
			{
				"x": 0.0078724215,
				"y": -2.3363060761,
				"z": -0.1216119828,
				"element": "O" 
			},
			{
				"x": -0.2604010343,
				"y": -1.7112744657,
				"z": 1.1293408209,
				"element": "C" 
			},
			{
				"x": 0.5945452931,
				"y": -0.4506641293,
				"z": 1.2940793796,
				"element": "C" 
			},
			{
				"x": -0.134107855,
				"y": 2.6592310075,
				"z": -1.3678449192,
				"element": "H" 
			},
			{
				"x": 0.3718609756,
				"y": 3.1993441879,
				"z": 0.228536585,
				"element": "H" 
			},
			{
				"x": -1.0398625149,
				"y": 1.4747647652,
				"z": 1.3171969145,
				"element": "H" 
			},
			{
				"x": -1.6464879317,
				"y": 0.9326434931,
				"z": -0.2417405637,
				"element": "H" 
			},
			{
				"x": 0.3764085249,
				"y": 0.5010350089,
				"z": -1.9196584169,
				"element": "H" 
			},
			{
				"x": 1.6603702224,
				"y": -0.4661209291,
				"z": -1.1881953447,
				"element": "H" 
			},
			{
				"x": -0.0111806492,
				"y": -2.0065796975,
				"z": -2.1223779969,
				"element": "H" 
			},
			{
				"x": -1.323935597,
				"y": -1.1982782901,
				"z": -1.2386826027,
				"element": "H" 
			},
			{
				"x": -1.3333673935,
				"y": -1.463807984,
				"z": 1.2077943582,
				"element": "H" 
			},
			{
				"x": -0.0252748803,
				"y": -2.4496748918,
				"z": 1.9024983198,
				"element": "H" 
			},
			{
				"x": 1.6503989173,
				"y": -0.7510145048,
				"z": 1.3166982378,
				"element": "H" 
			},
			{
				"x": 0.3728722559,
				"y": 0.0487851647,
				"z": 2.2436013458,
				"element": "H" 
			}
		],
		 "valence_orbital": [ 
			{
				"type": "occ",
				"energy": -0.32405,
				"method": "rhf"
			},
			{
				"type": "occ",
				"energy": -0.32286,
				"method": "rhf"
			},
			{
				"type": "occ",
				"energy": -0.31907,
				"method": "rhf"
			},
			{
				"type": "occ",
				"energy": -0.27964,
				"method": "rhf"
			},
			{
				"type": "occ",
				"energy": -0.21462,
				"method": "rhf"
			},
			{
				"type": "unocc",
				"energy": 0.03273,
				"method": "rhf"
			},
			{
				"type": "unocc",
				"energy": 0.03856,
				"method": "rhf"
			},
			{
				"type": "unocc",
				"energy": 0.06503,
				"method": "rhf"
			},
			{
				"type": "unocc",
				"energy": 0.09482,
				"method": "rhf"
			},
			{
				"type": "unocc",
				"energy": 0.09641,
				"method": "rhf"
			}
		],
		"cosmo_sigma_profile": { 
			"-0.025": 0.0,
			"-0.024": 0.0,
			"-0.023": 0.0,
			"-0.022": 0.0,
			"-0.021": 0.0,
			"-0.02": 0.0,
			"-0.019": 0.0,
			"-0.018": 0.0,
			"-0.017": 0.0,
			"-0.016": 0.0,
			"-0.015": 0.0,
			"-0.014": 0.0,
			"-0.013": 0.0,
			"-0.012": 0.0,
			"-0.011": 0.0,
			"-0.01": 0.0,
			"-0.009": 0.044142896378,
			"-0.008": 3.038052831,
			"-0.007": 6.144986729,
			"-0.006": 9.02360010867,
			"-0.005": 18.8658506324,
			"-0.004": 27.1773104779,
			"-0.003": 26.6239021188,
			"-0.002": 19.1377524604,
			"-0.001": 11.1982369513,
			"0.0": 7.8745694575,
			"0.001": 5.54666736221,
			"0.002": 4.00212478937,
			"0.003": 4.30975569803,
			"0.004": 5.01637781219,
			"0.005": 3.6613476342,
			"0.006": 4.58823178626,
			"0.007": 4.59168975521,
			"0.008": 5.32724424834,
			"0.009": 5.25682333225,
			"0.01": 4.67152944731,
			"0.011": 5.25740556265,
			"0.012": 4.20302212449,
			"0.013": 4.46592250571,
			"0.014": 1.77309074043,
			"0.015": 0.0,
			"0.016": 0.0,
			"0.017": 0.0,
			"0.018": 0.0,
			"0.019": 0.0,
			"0.02": 0.0,
			"0.021": 0.0,
			"0.022": 0.0,
			"0.023": 0.0,
			"0.024": 0.0,
			"0.025": 0.0
		}
	}
}
