{
	 "smiles": "CN1CCC(=CC1)C1=CC=CC=C1", 
	 "Tm": 312.35, 
	 "num_atms": 28, 
	 "gaussian": { 
		 "optdone": 1, 
		 "sigma_profile": "yes", 
		 "theory": "DFT", 
		 "functional": "B3LYP", 
		 "basiset": "6-31G**", 
		 "properties": { 
			 "R2extent": 3230.7482, 
			 "electric_dipole_moment_norm": 0.541718533927, 
			 "electric_quadrupole_moment_norm": 5.15489375448, 
			 "total_energy": -521.047086764, 
			 "HOMO_LUMO_gap": 0.18604, 
			 "cosmo_polarized_energy": -5.54, 
			 "cosmo_cavitation_energy": 29.16, 
			 "cosmo_dispersion_energy": -21.5, 
			 "cosmo_repulsion_energy": 1.69, 
			 "cosmo_total_nonelectrostatic_energy": 9.35, 
			 "SMD_solvation_energy": 1.63 
		},
		"coords": [
			{
				"x": -0.1127678297,
				"y": 0.4498281545,
				"z": -3.2921951429,
				"element": "C" 
			},
			{
				"x": 0.5114082985,
				"y": 1.212108895,
				"z": -2.2148063459,
				"element": "N" 
			},
			{
				"x": 1.646444318,
				"y": 0.5204986637,
				"z": -1.6028213503,
				"element": "C" 
			},
			{
				"x": 1.2601516902,
				"y": -0.756760567,
				"z": -0.8307495746,
				"element": "C" 
			},
			{
				"x": 0.0284006653,
				"y": -0.5452345178,
				"z": 0.0321563747,
				"element": "C" 
			},
			{
				"x": -0.7271327646,
				"y": 0.5547436662,
				"z": -0.1390660607,
				"element": "C" 
			},
			{
				"x": -0.4375092644,
				"y": 1.6169874559,
				"z": -1.1767313459,
				"element": "C" 
			},
			{
				"x": -0.3304644097,
				"y": -1.5852782382,
				"z": 1.0333593531,
				"element": "C" 
			},
			{
				"x": -1.677612275,
				"y": -1.911668483,
				"z": 1.2770458185,
				"element": "C" 
			},
			{
				"x": -2.0292176611,
				"y": -2.8686643868,
				"z": 2.2269672521,
				"element": "C" 
			},
			{
				"x": -1.0405166377,
				"y": -3.5354467605,
				"z": 2.9534955821,
				"element": "C" 
			},
			{
				"x": 0.3013769182,
				"y": -3.2346469061,
				"z": 2.7161839652,
				"element": "C" 
			},
			{
				"x": 0.6514363798,
				"y": -2.2760185957,
				"z": 1.7653975477,
				"element": "C" 
			},
			{
				"x": -0.866037108,
				"y": 1.0722997459,
				"z": -3.7866595937,
				"element": "H" 
			},
			{
				"x": -0.606930966,
				"y": -0.4845442729,
				"z": -2.9730395408,
				"element": "H" 
			},
			{
				"x": 0.647324817,
				"y": 0.192794891,
				"z": -4.0376854507,
				"element": "H" 
			},
			{
				"x": 2.1261104905,
				"y": 1.225580479,
				"z": -0.9115846017,
				"element": "H" 
			},
			{
				"x": 2.3806689809,
				"y": 0.2855483445,
				"z": -2.3818467034,
				"element": "H" 
			},
			{
				"x": 1.0759445627,
				"y": -1.5908959125,
				"z": -1.5228221704,
				"element": "H" 
			},
			{
				"x": 2.1128958612,
				"y": -1.0725754442,
				"z": -0.2178700153,
				"element": "H" 
			},
			{
				"x": -1.5780767025,
				"y": 0.7322408526,
				"z": 0.5164806902,
				"element": "H" 
			},
			{
				"x": -0.0475931928,
				"y": 2.5168448624,
				"z": -0.6730773243,
				"element": "H" 
			},
			{
				"x": -1.3712803801,
				"y": 1.9314313295,
				"z": -1.6598851177,
				"element": "H" 
			},
			{
				"x": -2.4521171895,
				"y": -1.42234878,
				"z": 0.6942466677,
				"element": "H" 
			},
			{
				"x": -3.0773871408,
				"y": -3.1041379206,
				"z": 2.3901107543,
				"element": "H" 
			},
			{
				"x": -1.3126067374,
				"y": -4.2860731952,
				"z": 3.6899359444,
				"element": "H" 
			},
			{
				"x": 1.0808378673,
				"y": -3.7455158081,
				"z": 3.2748666494,
				"element": "H" 
			},
			{
				"x": 1.7015494097,
				"y": -2.0496975515,
				"z": 1.6090937389,
				"element": "H" 
			}
		],
		 "valence_orbital": [ 
			{
				"type": "occ",
				"energy": -0.32042,
				"method": "rhf"
			},
			{
				"type": "occ",
				"energy": -0.26903,
				"method": "rhf"
			},
			{
				"type": "occ",
				"energy": -0.24676,
				"method": "rhf"
			},
			{
				"type": "occ",
				"energy": -0.2168,
				"method": "rhf"
			},
			{
				"type": "occ",
				"energy": -0.20312,
				"method": "rhf"
			},
			{
				"type": "unocc",
				"energy": -0.01708,
				"method": "rhf"
			},
			{
				"type": "unocc",
				"energy": 0.00238,
				"method": "rhf"
			},
			{
				"type": "unocc",
				"energy": 0.04947,
				"method": "rhf"
			},
			{
				"type": "unocc",
				"energy": 0.08419,
				"method": "rhf"
			},
			{
				"type": "unocc",
				"energy": 0.09838,
				"method": "rhf"
			}
		],
		"cosmo_sigma_profile": { 
			"-0.025": 0.0,
			"-0.024": 0.0,
			"-0.023": 0.0,
			"-0.022": 0.0,
			"-0.021": 0.0,
			"-0.02": 0.0,
			"-0.019": 0.0,
			"-0.018": 0.0,
			"-0.017": 0.0,
			"-0.016": 0.0,
			"-0.015": 0.0,
			"-0.014": 0.0,
			"-0.013": 0.0,
			"-0.012": 0.0,
			"-0.011": 0.0,
			"-0.01": 0.0,
			"-0.009": 0.0,
			"-0.008": 0.0,
			"-0.007": 0.0203622877287,
			"-0.006": 3.28604459272,
			"-0.005": 10.3781203242,
			"-0.004": 19.8010400808,
			"-0.003": 32.9012923462,
			"-0.002": 29.6361584817,
			"-0.001": 29.1531186218,
			"0.0": 22.8771200039,
			"0.001": 14.0416064161,
			"0.002": 11.3881322991,
			"0.003": 12.3564362003,
			"0.004": 12.1693348704,
			"0.005": 11.6984238222,
			"0.006": 11.338335218,
			"0.007": 2.49130981756,
			"0.008": 0.749988533055,
			"0.009": 0.743801954175,
			"0.01": 0.651047039969,
			"0.011": 0.632200119874,
			"0.012": 0.672601090339,
			"0.013": 0.748852077289,
			"0.014": 0.167057977016,
			"0.015": 0.367641399518,
			"0.016": 0.699532102333,
			"0.017": 0.407121426631,
			"0.018": 0.0,
			"0.019": 0.0,
			"0.02": 0.0,
			"0.021": 0.0,
			"0.022": 0.0,
			"0.023": 0.0,
			"0.024": 0.0,
			"0.025": 0.0
		}
	}
}
