{
	 "smiles": "CCCCCCSC1=NC2=CC=C(NC(=O)COC3=CC=C(Cl)C=C3Cl)C=C2S1", 
	 "Tm": 378.15, 
	 "num_atms": 51, 
	 "gaussian": { 
		 "optdone": 1, 
		 "sigma_profile": "yes", 
		 "theory": "DFT", 
		 "functional": "B3LYP", 
		 "basiset": "6-31G**", 
		 "properties": { 
			 "R2extent": 28506.1658, 
			 "electric_dipole_moment_norm": 3.10767315688, 
			 "electric_quadrupole_moment_norm": 29.0343297935, 
			 "total_energy": -2790.23236949, 
			 "HOMO_LUMO_gap": 0.16832, 
			 "cosmo_polarized_energy": -18.34, 
			 "cosmo_cavitation_energy": 61.86, 
			 "cosmo_dispersion_energy": -44.02, 
			 "cosmo_repulsion_energy": 3.31, 
			 "cosmo_total_nonelectrostatic_energy": 21.15, 
			 "SMD_solvation_energy": 7.12 
		},
		"coords": [
			{
				"x": 0.6870860071,
				"y": -0.5250066038,
				"z": 7.5552249737,
				"element": "C" 
			},
			{
				"x": 0.1323222318,
				"y": -1.0202284688,
				"z": 6.21417088,
				"element": "C" 
			},
			{
				"x": -0.429277,
				"y": 0.087484915,
				"z": 5.3075392709,
				"element": "C" 
			},
			{
				"x": 0.6181946295,
				"y": 1.0876760942,
				"z": 4.7972650646,
				"element": "C" 
			},
			{
				"x": 0.0224623335,
				"y": 2.1355295791,
				"z": 3.8452922906,
				"element": "C" 
			},
			{
				"x": 1.0746839961,
				"y": 3.1341670987,
				"z": 3.3552731381,
				"element": "C" 
			},
			{
				"x": 0.433659575,
				"y": 4.4646724496,
				"z": 2.259373968,
				"element": "S" 
			},
			{
				"x": 0.2330698878,
				"y": 3.6605072948,
				"z": 0.7046992511,
				"element": "C" 
			},
			{
				"x": -0.4230237133,
				"y": 4.2270511628,
				"z": -0.2525901719,
				"element": "N" 
			},
			{
				"x": -0.3921976258,
				"y": 3.4657867071,
				"z": -1.4087755991,
				"element": "C" 
			},
			{
				"x": -1.0074289707,
				"y": 3.8004913266,
				"z": -2.6219361504,
				"element": "C" 
			},
			{
				"x": -0.9154473552,
				"y": 2.9442096829,
				"z": -3.7114530127,
				"element": "C" 
			},
			{
				"x": -0.2041412538,
				"y": 1.7300987443,
				"z": -3.6015745152,
				"element": "C" 
			},
			{
				"x": -0.0767971979,
				"y": 0.8246154269,
				"z": -4.6783294906,
				"element": "N" 
			},
			{
				"x": -0.6109436546,
				"y": 0.8961466083,
				"z": -5.933511656,
				"element": "C" 
			},
			{
				"x": -1.3098057978,
				"y": 1.7954409821,
				"z": -6.3806396198,
				"element": "O" 
			},
			{
				"x": -0.2049053575,
				"y": -0.276328284,
				"z": -6.8406384806,
				"element": "C" 
			},
			{
				"x": 0.1606944779,
				"y": -1.464082705,
				"z": -6.1419533335,
				"element": "O" 
			},
			{
				"x": -0.8323454977,
				"y": -2.2937846364,
				"z": -5.69725249,
				"element": "C" 
			},
			{
				"x": -2.1972578529,
				"y": -1.9875611624,
				"z": -5.7225477478,
				"element": "C" 
			},
			{
				"x": -3.1403229195,
				"y": -2.8999147274,
				"z": -5.246594668,
				"element": "C" 
			},
			{
				"x": -2.717544057,
				"y": -4.1234851851,
				"z": -4.7369958643,
				"element": "C" 
			},
			{
				"x": -3.8958701283,
				"y": -5.2766241705,
				"z": -4.1364595376,
				"element": "Cl" 
			},
			{
				"x": -1.3616044853,
				"y": -4.4483571614,
				"z": -4.6913866691,
				"element": "C" 
			},
			{
				"x": -0.42865354,
				"y": -3.5338890502,
				"z": -5.1695647275,
				"element": "C" 
			},
			{
				"x": 1.2724620792,
				"y": -3.9363634734,
				"z": -5.1096139165,
				"element": "Cl" 
			},
			{
				"x": 0.4177533328,
				"y": 1.3739346298,
				"z": -2.3973532845,
				"element": "C" 
			},
			{
				"x": 0.3206111919,
				"y": 2.2465802026,
				"z": -1.3178175072,
				"element": "C" 
			},
			{
				"x": 0.9851250131,
				"y": 2.0781752865,
				"z": 0.2975256553,
				"element": "S" 
			},
			{
				"x": 1.0196457295,
				"y": -1.363046561,
				"z": 8.1763858536,
				"element": "H" 
			},
			{
				"x": 1.5444485137,
				"y": 0.1431805062,
				"z": 7.4234941108,
				"element": "H" 
			},
			{
				"x": -0.0765059526,
				"y": 0.0232425411,
				"z": 8.119429215,
				"element": "H" 
			},
			{
				"x": 0.9165889502,
				"y": -1.566811352,
				"z": 5.6725322572,
				"element": "H" 
			},
			{
				"x": -0.6650524503,
				"y": -1.7490258423,
				"z": 6.4069017508,
				"element": "H" 
			},
			{
				"x": -1.2165729,
				"y": 0.6326723454,
				"z": 5.8474999402,
				"element": "H" 
			},
			{
				"x": -0.9209351288,
				"y": -0.3779130755,
				"z": 4.4427754937,
				"element": "H" 
			},
			{
				"x": 1.4201933998,
				"y": 0.5396359018,
				"z": 4.2820819659,
				"element": "H" 
			},
			{
				"x": 1.0926486458,
				"y": 1.5994921784,
				"z": 5.6448489621,
				"element": "H" 
			},
			{
				"x": -0.4357181966,
				"y": 1.6331730952,
				"z": 2.9853740738,
				"element": "H" 
			},
			{
				"x": -0.7814496216,
				"y": 2.684660946,
				"z": 4.3499668207,
				"element": "H" 
			},
			{
				"x": 1.5007611178,
				"y": 3.691278566,
				"z": 4.1963449378,
				"element": "H" 
			},
			{
				"x": 1.9126965731,
				"y": 2.6355176478,
				"z": 2.8567646367,
				"element": "H" 
			},
			{
				"x": -1.553573348,
				"y": 4.7347241547,
				"z": -2.6975618516,
				"element": "H" 
			},
			{
				"x": -1.3848027512,
				"y": 3.1913552014,
				"z": -4.6529607676,
				"element": "H" 
			},
			{
				"x": 0.4683507965,
				"y": -0.0093533391,
				"z": -4.4979401097,
				"element": "H" 
			},
			{
				"x": 0.6891891566,
				"y": 0.0137614372,
				"z": -7.4008068377,
				"element": "H" 
			},
			{
				"x": -1.0131350057,
				"y": -0.4513404094,
				"z": -7.5558828018,
				"element": "H" 
			},
			{
				"x": -2.5399446996,
				"y": -1.0312275753,
				"z": -6.0997511361,
				"element": "H" 
			},
			{
				"x": -4.1951958846,
				"y": -2.6520964875,
				"z": -5.2693916808,
				"element": "H" 
			},
			{
				"x": -1.0309467876,
				"y": -5.3995870384,
				"z": -4.292794024,
				"element": "H" 
			},
			{
				"x": 0.9638514952,
				"y": 0.4382645963,
				"z": -2.3160868592,
				"element": "H" 
			}
		],
		 "valence_orbital": [ 
			{
				"type": "occ",
				"energy": -0.26986,
				"method": "rhf"
			},
			{
				"type": "occ",
				"energy": -0.26118,
				"method": "rhf"
			},
			{
				"type": "occ",
				"energy": -0.24068,
				"method": "rhf"
			},
			{
				"type": "occ",
				"energy": -0.24011,
				"method": "rhf"
			},
			{
				"type": "occ",
				"energy": -0.21066,
				"method": "rhf"
			},
			{
				"type": "unocc",
				"energy": -0.04234,
				"method": "rhf"
			},
			{
				"type": "unocc",
				"energy": -0.0341,
				"method": "rhf"
			},
			{
				"type": "unocc",
				"energy": -0.02162,
				"method": "rhf"
			},
			{
				"type": "unocc",
				"energy": -0.01322,
				"method": "rhf"
			},
			{
				"type": "unocc",
				"energy": -0.00535,
				"method": "rhf"
			}
		],
		"cosmo_sigma_profile": { 
			"-0.025": 0.0,
			"-0.024": 0.0,
			"-0.023": 0.0,
			"-0.022": 0.0,
			"-0.021": 0.0,
			"-0.02": 0.0,
			"-0.019": 0.0,
			"-0.018": 0.0,
			"-0.017": 0.0,
			"-0.016": 0.0,
			"-0.015": 0.0,
			"-0.014": 0.657680194243,
			"-0.013": 0.965958069595,
			"-0.012": 1.0227972646,
			"-0.011": 1.89444567934,
			"-0.01": 1.15084157097,
			"-0.009": 5.07798310281,
			"-0.008": 11.9791979664,
			"-0.007": 15.1565477826,
			"-0.006": 16.396474489,
			"-0.005": 17.9932883723,
			"-0.004": 18.8046098849,
			"-0.003": 26.7550126284,
			"-0.002": 45.7025670773,
			"-0.001": 49.5035077319,
			"0.0": 56.0964830673,
			"0.001": 60.9059627891,
			"0.002": 47.3486998087,
			"0.003": 40.1780114834,
			"0.004": 32.5353835133,
			"0.005": 14.7064830118,
			"0.006": 7.20887052423,
			"0.007": 6.5433880018,
			"0.008": 4.62727268559,
			"0.009": 3.41949769541,
			"0.01": 2.99970463416,
			"0.011": 2.56675332709,
			"0.012": 4.19289384051,
			"0.013": 2.84520216661,
			"0.014": 0.665839599943,
			"0.015": 0.0161279789169,
			"0.016": 0.0,
			"0.017": 0.0,
			"0.018": 0.0,
			"0.019": 0.0,
			"0.02": 0.0,
			"0.021": 0.0,
			"0.022": 0.0,
			"0.023": 0.0,
			"0.024": 0.0,
			"0.025": 0.0
		}
	}
}
