{
	 "smiles": "NC1=C(F)C=C(Br)C=C1", 
	 "Tm": 313.15, 
	 "num_atms": 14, 
	 "gaussian": { 
		 "optdone": 1, 
		 "sigma_profile": "yes", 
		 "theory": "DFT", 
		 "functional": "B3LYP", 
		 "basiset": "6-31G**", 
		 "properties": { 
			 "R2extent": 3064.1004, 
			 "electric_dipole_moment_norm": 3.0521091871, 
			 "electric_quadrupole_moment_norm": 10.9168026482, 
			 "total_energy": -2957.64249248, 
			 "HOMO_LUMO_gap": 0.19792, 
			 "cosmo_polarized_energy": -7.54, 
			 "cosmo_cavitation_energy": 20.87, 
			 "cosmo_dispersion_energy": -16.02, 
			 "cosmo_repulsion_energy": 1.3, 
			 "cosmo_total_nonelectrostatic_energy": 6.14, 
			 "SMD_solvation_energy": 2.86 
		},
		"coords": [
			{
				"x": 0.5416352122,
				"y": -1.8696226609,
				"z": 3.6527676953,
				"element": "N" 
			},
			{
				"x": 0.5588653828,
				"y": -1.7014212314,
				"z": 2.2732304698,
				"element": "C" 
			},
			{
				"x": 1.7763584109,
				"y": -1.4822173995,
				"z": 1.6103338434,
				"element": "C" 
			},
			{
				"x": 2.8903736467,
				"y": -1.3728370682,
				"z": 2.3793448118,
				"element": "F" 
			},
			{
				"x": 1.8831543305,
				"y": -1.3620328657,
				"z": 0.2363033324,
				"element": "C" 
			},
			{
				"x": 0.719523223,
				"y": -1.4633145756,
				"z": -0.5278946676,
				"element": "C" 
			},
			{
				"x": 0.8290449021,
				"y": -1.3010613158,
				"z": -2.4288487236,
				"element": "Br" 
			},
			{
				"x": -0.5136683307,
				"y": -1.6766666982,
				"z": 0.0826508785,
				"element": "C" 
			},
			{
				"x": -0.5879426477,
				"y": -1.7948927396,
				"z": 1.4710275139,
				"element": "C" 
			},
			{
				"x": -0.3244173834,
				"y": -1.6252581232,
				"z": 4.1111209096,
				"element": "H" 
			},
			{
				"x": 1.357115269,
				"y": -1.5092640253,
				"z": 4.1280966546,
				"element": "H" 
			},
			{
				"x": 2.8530644606,
				"y": -1.1895051912,
				"z": -0.2137005078,
				"element": "H" 
			},
			{
				"x": -1.4129642021,
				"y": -1.7520050047,
				"z": -0.5173785336,
				"element": "H" 
			},
			{
				"x": -1.550942274,
				"y": -1.9686011007,
				"z": 1.9433463233,
				"element": "H" 
			}
		],
		 "valence_orbital": [ 
			{
				"type": "occ",
				"energy": -0.34375,
				"method": "rhf"
			},
			{
				"type": "occ",
				"energy": -0.28406,
				"method": "rhf"
			},
			{
				"type": "occ",
				"energy": -0.28302,
				"method": "rhf"
			},
			{
				"type": "occ",
				"energy": -0.25733,
				"method": "rhf"
			},
			{
				"type": "occ",
				"energy": -0.20882,
				"method": "rhf"
			},
			{
				"type": "unocc",
				"energy": -0.0109,
				"method": "rhf"
			},
			{
				"type": "unocc",
				"energy": 0.00209,
				"method": "rhf"
			},
			{
				"type": "unocc",
				"energy": 0.0082,
				"method": "rhf"
			},
			{
				"type": "unocc",
				"energy": 0.07422,
				"method": "rhf"
			},
			{
				"type": "unocc",
				"energy": 0.11048,
				"method": "rhf"
			}
		],
		"cosmo_sigma_profile": { 
			"-0.025": 0.0,
			"-0.024": 0.0,
			"-0.023": 0.0,
			"-0.022": 0.0,
			"-0.021": 0.0,
			"-0.02": 0.0,
			"-0.019": 0.0,
			"-0.018": 0.0,
			"-0.017": 0.0,
			"-0.016": 0.0,
			"-0.015": 0.0,
			"-0.014": 0.0507712343447,
			"-0.013": 1.25735248438,
			"-0.012": 2.70012192927,
			"-0.011": 1.87369488746,
			"-0.01": 2.92033509484,
			"-0.009": 2.81324545618,
			"-0.008": 3.55933760442,
			"-0.007": 5.56621215875,
			"-0.006": 6.08116454061,
			"-0.005": 7.63242568313,
			"-0.004": 6.53865812767,
			"-0.003": 7.23977075503,
			"-0.002": 7.89842248737,
			"-0.001": 7.63201582514,
			"0.0": 8.95793880864,
			"0.001": 15.5421933383,
			"0.002": 16.6460257059,
			"0.003": 21.9622837861,
			"0.004": 23.9240020972,
			"0.005": 13.3588784866,
			"0.006": 1.36053753421,
			"0.007": 0.737071338307,
			"0.008": 0.696158654966,
			"0.009": 0.863560319787,
			"0.01": 0.804920083233,
			"0.011": 0.313713150885,
			"0.012": 0.793206450283,
			"0.013": 0.605012082796,
			"0.014": 0.0946085733019,
			"0.015": 0.0,
			"0.016": 0.0,
			"0.017": 0.0,
			"0.018": 0.0,
			"0.019": 0.0,
			"0.02": 0.0,
			"0.021": 0.0,
			"0.022": 0.0,
			"0.023": 0.0,
			"0.024": 0.0,
			"0.025": 0.0
		}
	}
}
