{
	 "smiles": "CC1=C(C)C2=C(S1)N=C(CN1CCOCC1)N=C2Cl", 
	 "Tm": 376.15, 
	 "num_atms": 35, 
	 "gaussian": { 
		 "optdone": 1, 
		 "sigma_profile": "yes", 
		 "theory": "DFT", 
		 "functional": "B3LYP", 
		 "basiset": "6-31G**", 
		 "properties": { 
			 "R2extent": 7859.8722, 
			 "electric_dipole_moment_norm": 3.728286813, 
			 "electric_quadrupole_moment_norm": 10.3290109125, 
			 "total_energy": -1602.87453259, 
			 "HOMO_LUMO_gap": 0.15543, 
			 "cosmo_polarized_energy": -10.19, 
			 "cosmo_cavitation_energy": 39.81, 
			 "cosmo_dispersion_energy": -29.11, 
			 "cosmo_repulsion_energy": 2.21, 
			 "cosmo_total_nonelectrostatic_energy": 12.9, 
			 "SMD_solvation_energy": 0.96 
		},
		"coords": [
			{
				"x": -2.6683592409,
				"y": 3.2589796229,
				"z": -2.1391131676,
				"element": "C" 
			},
			{
				"x": -1.9980534249,
				"y": 1.9434740597,
				"z": -1.8509497801,
				"element": "C" 
			},
			{
				"x": -2.4710441569,
				"y": 0.9083270677,
				"z": -1.0896159333,
				"element": "C" 
			},
			{
				"x": -3.8066197707,
				"y": 0.9437008966,
				"z": -0.3943253505,
				"element": "C" 
			},
			{
				"x": -1.5304256885,
				"y": -0.1924976218,
				"z": -1.0489862459,
				"element": "C" 
			},
			{
				"x": -0.3519338381,
				"y": 0.0598220672,
				"z": -1.8017710945,
				"element": "C" 
			},
			{
				"x": -0.4089771889,
				"y": 1.6374058385,
				"z": -2.5487314702,
				"element": "S" 
			},
			{
				"x": 0.6765381506,
				"y": -0.7721376623,
				"z": -1.9467556374,
				"element": "N" 
			},
			{
				"x": 0.5565025622,
				"y": -1.9418908098,
				"z": -1.3124176618,
				"element": "C" 
			},
			{
				"x": 1.715080702,
				"y": -2.9210882166,
				"z": -1.3965116946,
				"element": "C" 
			},
			{
				"x": 2.7109551083,
				"y": -2.8182095685,
				"z": -0.3288206041,
				"element": "N" 
			},
			{
				"x": 2.2294245176,
				"y": -3.1738684549,
				"z": 1.0073575962,
				"element": "C" 
			},
			{
				"x": 3.4225667295,
				"y": -3.2541402537,
				"z": 1.9588206193,
				"element": "C" 
			},
			{
				"x": 4.1417616525,
				"y": -2.0276604617,
				"z": 1.9888937569,
				"element": "O" 
			},
			{
				"x": 4.6108493454,
				"y": -1.6859600282,
				"z": 0.6912116182,
				"element": "C" 
			},
			{
				"x": 3.4553755664,
				"y": -1.5585038062,
				"z": -0.3010609286,
				"element": "C" 
			},
			{
				"x": -0.5069081039,
				"y": -2.3069180547,
				"z": -0.5611741907,
				"element": "N" 
			},
			{
				"x": -1.5057572567,
				"y": -1.4606453399,
				"z": -0.4382042525,
				"element": "C" 
			},
			{
				"x": -2.8518800931,
				"y": -2.0184393868,
				"z": 0.5556676772,
				"element": "Cl" 
			},
			{
				"x": -2.8617023179,
				"y": 3.8164083181,
				"z": -1.2160933359,
				"element": "H" 
			},
			{
				"x": -2.0500780973,
				"y": 3.8909365195,
				"z": -2.781257882,
				"element": "H" 
			},
			{
				"x": -3.6280900372,
				"y": 3.1125981535,
				"z": -2.646621408,
				"element": "H" 
			},
			{
				"x": -4.4579914998,
				"y": 0.1327542102,
				"z": -0.7340007951,
				"element": "H" 
			},
			{
				"x": -3.6986354842,
				"y": 0.832998417,
				"z": 0.6888886703,
				"element": "H" 
			},
			{
				"x": -4.3181801422,
				"y": 1.8890996404,
				"z": -0.5866015427,
				"element": "H" 
			},
			{
				"x": 1.3073916405,
				"y": -3.9368733963,
				"z": -1.3804410949,
				"element": "H" 
			},
			{
				"x": 2.2253652538,
				"y": -2.7590087001,
				"z": -2.351190808,
				"element": "H" 
			},
			{
				"x": 1.5027643699,
				"y": -2.4444899622,
				"z": 1.4061359174,
				"element": "H" 
			},
			{
				"x": 1.7243357607,
				"y": -4.1452997885,
				"z": 0.9584909199,
				"element": "H" 
			},
			{
				"x": 4.0869516985,
				"y": -4.07567321,
				"z": 1.6442607986,
				"element": "H" 
			},
			{
				"x": 3.0871619414,
				"y": -3.4445711324,
				"z": 2.9827266511,
				"element": "H" 
			},
			{
				"x": 5.3192251679,
				"y": -2.4496667878,
				"z": 0.3302678439,
				"element": "H" 
			},
			{
				"x": 5.1403999577,
				"y": -0.7336361579,
				"z": 0.7910207729,
				"element": "H" 
			},
			{
				"x": 2.826198923,
				"y": -0.6989203496,
				"z": -0.0082325629,
				"element": "H" 
			},
			{
				"x": 3.8462872931,
				"y": -1.3518056613,
				"z": -1.3040654005,
				"element": "H" 
			}
		],
		 "valence_orbital": [ 
			{
				"type": "occ",
				"energy": -0.27032,
				"method": "rhf"
			},
			{
				"type": "occ",
				"energy": -0.26588,
				"method": "rhf"
			},
			{
				"type": "occ",
				"energy": -0.24904,
				"method": "rhf"
			},
			{
				"type": "occ",
				"energy": -0.23295,
				"method": "rhf"
			},
			{
				"type": "occ",
				"energy": -0.20941,
				"method": "rhf"
			},
			{
				"type": "unocc",
				"energy": -0.05398,
				"method": "rhf"
			},
			{
				"type": "unocc",
				"energy": -0.03863,
				"method": "rhf"
			},
			{
				"type": "unocc",
				"energy": -4e-05,
				"method": "rhf"
			},
			{
				"type": "unocc",
				"energy": 0.01937,
				"method": "rhf"
			},
			{
				"type": "unocc",
				"energy": 0.03506,
				"method": "rhf"
			}
		],
		"cosmo_sigma_profile": { 
			"-0.025": 0.0,
			"-0.024": 0.0,
			"-0.023": 0.0,
			"-0.022": 0.0,
			"-0.021": 0.0,
			"-0.02": 0.0,
			"-0.019": 0.0,
			"-0.018": 0.0,
			"-0.017": 0.0,
			"-0.016": 0.0,
			"-0.015": 0.0,
			"-0.014": 0.0,
			"-0.013": 0.0,
			"-0.012": 0.0,
			"-0.011": 0.0,
			"-0.01": 0.0,
			"-0.009": 0.0,
			"-0.008": 0.0,
			"-0.007": 0.24285547362,
			"-0.006": 3.58717922459,
			"-0.005": 17.9542570655,
			"-0.004": 29.6949117411,
			"-0.003": 39.9463655974,
			"-0.002": 47.4356179675,
			"-0.001": 38.2540956929,
			"0.0": 28.7804450016,
			"0.001": 26.2704064975,
			"0.002": 19.4249780947,
			"0.003": 15.554201591,
			"0.004": 13.0236250185,
			"0.005": 6.81607167728,
			"0.006": 5.9757089861,
			"0.007": 3.68514174754,
			"0.008": 4.57558967338,
			"0.009": 4.26322377646,
			"0.01": 3.10993320421,
			"0.011": 2.54639091688,
			"0.012": 2.94199130179,
			"0.013": 3.20618260105,
			"0.014": 0.936153383355,
			"0.015": 0.0,
			"0.016": 0.0,
			"0.017": 0.0,
			"0.018": 0.0,
			"0.019": 0.0,
			"0.02": 0.0,
			"0.021": 0.0,
			"0.022": 0.0,
			"0.023": 0.0,
			"0.024": 0.0,
			"0.025": 0.0
		}
	}
}
