{
	 "smiles": "O=S1(=O)CCCO1", 
	 "Tm": 304.95, 
	 "num_atms": 13, 
	 "gaussian": { 
		 "optdone": 1, 
		 "sigma_profile": "yes", 
		 "theory": "DFT", 
		 "functional": "B3LYP", 
		 "basiset": "6-31G**", 
		 "properties": { 
			 "R2extent": 798.3999, 
			 "electric_dipole_moment_norm": 5.83323115691, 
			 "electric_quadrupole_moment_norm": 4.72022607086, 
			 "total_energy": -741.718372346, 
			 "HOMO_LUMO_gap": 0.32887, 
			 "cosmo_polarized_energy": -14.91, 
			 "cosmo_cavitation_energy": 17.23, 
			 "cosmo_dispersion_energy": -14.17, 
			 "cosmo_repulsion_energy": 1.15, 
			 "cosmo_total_nonelectrostatic_energy": 4.2, 
			 "SMD_solvation_energy": 1.81 
		},
		"coords": [
			{
				"x": -1.1325271435,
				"y": -0.9582177722,
				"z": 0.1344444604,
				"element": "O" 
			},
			{
				"x": -0.4190908645,
				"y": 0.2759810542,
				"z": 0.4496855513,
				"element": "S" 
			},
			{
				"x": -0.6955545641,
				"y": 1.0098886966,
				"z": 1.6774372855,
				"element": "O" 
			},
			{
				"x": 1.3809695662,
				"y": 0.0232801497,
				"z": 0.1767116644,
				"element": "C" 
			},
			{
				"x": 1.7449374278,
				"y": 1.0049695308,
				"z": -0.9414582992,
				"element": "C" 
			},
			{
				"x": 0.4567371455,
				"y": 1.186284847,
				"z": -1.7584448587,
				"element": "C" 
			},
			{
				"x": -0.6093722966,
				"y": 1.3514575579,
				"z": -0.802965925,
				"element": "O" 
			},
			{
				"x": 1.8846814156,
				"y": 0.2078748326,
				"z": 1.1258778791,
				"element": "H" 
			},
			{
				"x": 1.4945892424,
				"y": -1.0225884713,
				"z": -0.1140348268,
				"element": "H" 
			},
			{
				"x": 2.0430021698,
				"y": 1.9671087855,
				"z": -0.5160762173,
				"element": "H" 
			},
			{
				"x": 2.5661858407,
				"y": 0.6297933359,
				"z": -1.5581174902,
				"element": "H" 
			},
			{
				"x": 0.4618960306,
				"y": 2.0898397482,
				"z": -2.3699176565,
				"element": "H" 
			},
			{
				"x": 0.2531460301,
				"y": 0.3175277051,
				"z": -2.396941567,
				"element": "H" 
			}
		],
		 "valence_orbital": [ 
			{
				"type": "occ",
				"energy": -0.34767,
				"method": "rhf"
			},
			{
				"type": "occ",
				"energy": -0.34455,
				"method": "rhf"
			},
			{
				"type": "occ",
				"energy": -0.31774,
				"method": "rhf"
			},
			{
				"type": "occ",
				"energy": -0.31257,
				"method": "rhf"
			},
			{
				"type": "occ",
				"energy": -0.29242,
				"method": "rhf"
			},
			{
				"type": "unocc",
				"energy": 0.03645,
				"method": "rhf"
			},
			{
				"type": "unocc",
				"energy": 0.04391,
				"method": "rhf"
			},
			{
				"type": "unocc",
				"energy": 0.06612,
				"method": "rhf"
			},
			{
				"type": "unocc",
				"energy": 0.07422,
				"method": "rhf"
			},
			{
				"type": "unocc",
				"energy": 0.07885,
				"method": "rhf"
			}
		],
		"cosmo_sigma_profile": { 
			"-0.025": 0.0,
			"-0.024": 0.0,
			"-0.023": 0.0,
			"-0.022": 0.0,
			"-0.021": 0.0,
			"-0.02": 0.0,
			"-0.019": 0.0,
			"-0.018": 0.0,
			"-0.017": 0.0,
			"-0.016": 0.0,
			"-0.015": 0.0,
			"-0.014": 0.0,
			"-0.013": 0.0,
			"-0.012": 0.0,
			"-0.011": 0.0,
			"-0.01": 0.040462096479,
			"-0.009": 2.74324091075,
			"-0.008": 8.12388411621,
			"-0.007": 14.2868887041,
			"-0.006": 18.2617321505,
			"-0.005": 13.6883025343,
			"-0.004": 8.8358746771,
			"-0.003": 5.92796049369,
			"-0.002": 2.91461684618,
			"-0.001": 2.61357654965,
			"0.0": 2.65377997521,
			"0.001": 2.2433822947,
			"0.002": 2.47628308342,
			"0.003": 3.22069137871,
			"0.004": 2.42734243355,
			"0.005": 2.56426804168,
			"0.006": 3.84442988791,
			"0.007": 5.65339678408,
			"0.008": 4.98746262723,
			"0.009": 7.72479886793,
			"0.01": 13.5145030854,
			"0.011": 7.33663125818,
			"0.012": 0.0595613710427,
			"0.013": 0.0,
			"0.014": 0.0,
			"0.015": 0.0,
			"0.016": 0.0,
			"0.017": 0.0,
			"0.018": 0.0,
			"0.019": 0.0,
			"0.02": 0.0,
			"0.021": 0.0,
			"0.022": 0.0,
			"0.023": 0.0,
			"0.024": 0.0,
			"0.025": 0.0
		}
	}
}
