{
	 "smiles": "CC1=CC=C(Br)C=C1[N+]([O-])=O", 
	 "Tm": 320.15, 
	 "num_atms": 17, 
	 "gaussian": { 
		 "optdone": 1, 
		 "sigma_profile": "yes", 
		 "theory": "DFT", 
		 "functional": "B3LYP", 
		 "basiset": "6-31G**", 
		 "properties": { 
			 "R2extent": 5430.6538, 
			 "electric_dipole_moment_norm": 3.88316271614, 
			 "electric_quadrupole_moment_norm": 8.5150000458, 
			 "total_energy": -3046.86547562, 
			 "HOMO_LUMO_gap": 0.16513, 
			 "cosmo_polarized_energy": -7.36, 
			 "cosmo_cavitation_energy": 23.9, 
			 "cosmo_dispersion_energy": -18.12, 
			 "cosmo_repulsion_energy": 1.45, 
			 "cosmo_total_nonelectrostatic_energy": 7.23, 
			 "SMD_solvation_energy": 5.09 
		},
		"coords": [
			{
				"x": 0.1365859495,
				"y": -1.3185229711,
				"z": -0.2300644695,
				"element": "C" 
			},
			{
				"x": -0.5639048653,
				"y": -0.0161742934,
				"z": -0.5291088948,
				"element": "C" 
			},
			{
				"x": 0.167479418,
				"y": 1.1786293275,
				"z": -0.4307062165,
				"element": "C" 
			},
			{
				"x": -0.3866904741,
				"y": 2.4294247374,
				"z": -0.6869665826,
				"element": "C" 
			},
			{
				"x": -1.7255666711,
				"y": 2.5152329742,
				"z": -1.0665037667,
				"element": "C" 
			},
			{
				"x": -2.5052957211,
				"y": 4.2173190734,
				"z": -1.4230586513,
				"element": "Br" 
			},
			{
				"x": -2.4939672809,
				"y": 1.3671766925,
				"z": -1.1877064487,
				"element": "C" 
			},
			{
				"x": -1.9115483581,
				"y": 0.1259402358,
				"z": -0.91643917,
				"element": "C" 
			},
			{
				"x": -2.8081121755,
				"y": -1.0396940973,
				"z": -1.0641071208,
				"element": "N" 
			},
			{
				"x": -3.9197989209,
				"y": -0.8464499544,
				"z": -1.554339277,
				"element": "O" 
			},
			{
				"x": -2.4017692087,
				"y": -2.1383956007,
				"z": -0.6863923953,
				"element": "O" 
			},
			{
				"x": 0.0498055987,
				"y": -2.0256778283,
				"z": -1.0583681104,
				"element": "H" 
			},
			{
				"x": -0.2984620291,
				"y": -1.8159062699,
				"z": 0.6402999823,
				"element": "H" 
			},
			{
				"x": 1.1952896666,
				"y": -1.1279205002,
				"z": -0.0365129368,
				"element": "H" 
			},
			{
				"x": 1.2123450874,
				"y": 1.1196673667,
				"z": -0.1410166799,
				"element": "H" 
			},
			{
				"x": 0.2147100071,
				"y": 3.326679041,
				"z": -0.5947771641,
				"element": "H" 
			},
			{
				"x": -3.5321000225,
				"y": 1.4056720667,
				"z": -1.4871320979,
				"element": "H" 
			}
		],
		 "valence_orbital": [ 
			{
				"type": "occ",
				"energy": -0.31225,
				"method": "rhf"
			},
			{
				"type": "occ",
				"energy": -0.3015,
				"method": "rhf"
			},
			{
				"type": "occ",
				"energy": -0.29578,
				"method": "rhf"
			},
			{
				"type": "occ",
				"energy": -0.28898,
				"method": "rhf"
			},
			{
				"type": "occ",
				"energy": -0.25981,
				"method": "rhf"
			},
			{
				"type": "unocc",
				"energy": -0.09468,
				"method": "rhf"
			},
			{
				"type": "unocc",
				"energy": -0.03507,
				"method": "rhf"
			},
			{
				"type": "unocc",
				"energy": -0.01219,
				"method": "rhf"
			},
			{
				"type": "unocc",
				"energy": -0.00843,
				"method": "rhf"
			},
			{
				"type": "unocc",
				"energy": 0.09542,
				"method": "rhf"
			}
		],
		"cosmo_sigma_profile": { 
			"-0.025": 0.0,
			"-0.024": 0.0,
			"-0.023": 0.0,
			"-0.022": 0.0,
			"-0.021": 0.0,
			"-0.02": 0.0,
			"-0.019": 0.0,
			"-0.018": 0.0,
			"-0.017": 0.0,
			"-0.016": 0.0,
			"-0.015": 0.0,
			"-0.014": 0.0,
			"-0.013": 0.0,
			"-0.012": 0.0,
			"-0.011": 0.0,
			"-0.01": 0.0,
			"-0.009": 0.167757412635,
			"-0.008": 2.85213742708,
			"-0.007": 6.91210620144,
			"-0.006": 8.57379099962,
			"-0.005": 10.4222077751,
			"-0.004": 12.9467009602,
			"-0.003": 15.098201102,
			"-0.002": 15.8114789564,
			"-0.001": 21.5723628488,
			"0.0": 22.1182545391,
			"0.001": 16.9959712869,
			"0.002": 10.4753517053,
			"0.003": 11.1492715121,
			"0.004": 12.3248319185,
			"0.005": 4.01174413728,
			"0.006": 3.55934347783,
			"0.007": 6.61051260929,
			"0.008": 6.12076489624,
			"0.009": 4.51511235796,
			"0.01": 2.53825154135,
			"0.011": 0.082672805849,
			"0.012": 0.0,
			"0.013": 0.0,
			"0.014": 0.0,
			"0.015": 0.0,
			"0.016": 0.0,
			"0.017": 0.0,
			"0.018": 0.0,
			"0.019": 0.0,
			"0.02": 0.0,
			"0.021": 0.0,
			"0.022": 0.0,
			"0.023": 0.0,
			"0.024": 0.0,
			"0.025": 0.0
		}
	}
}
