{
	 "smiles": "NCCCN1CCN(CC1)C1=NC=CC=N1", 
	 "Tm": 346.15, 
	 "num_atms": 35, 
	 "gaussian": { 
		 "optdone": 1, 
		 "sigma_profile": "yes", 
		 "theory": "DFT", 
		 "functional": "B3LYP", 
		 "basiset": "6-31G**", 
		 "properties": { 
			 "R2extent": 6336.9192, 
			 "electric_dipole_moment_norm": 1.18435974687, 
			 "electric_quadrupole_moment_norm": 7.82114595632, 
			 "total_energy": -704.371774349, 
			 "HOMO_LUMO_gap": 0.1793, 
			 "cosmo_polarized_energy": -11.53, 
			 "cosmo_cavitation_energy": 35.9, 
			 "cosmo_dispersion_energy": -26.3, 
			 "cosmo_repulsion_energy": 2.08, 
			 "cosmo_total_nonelectrostatic_energy": 11.68, 
			 "SMD_solvation_energy": -0.58 
		},
		"coords": [
			{
				"x": -0.2158812938,
				"y": -5.3243992594,
				"z": 3.1860598832,
				"element": "N" 
			},
			{
				"x": -0.7634146815,
				"y": -5.1792573668,
				"z": 1.8339939869,
				"element": "C" 
			},
			{
				"x": -1.0920438615,
				"y": -3.7512074885,
				"z": 1.3564648273,
				"element": "C" 
			},
			{
				"x": 0.1470688694,
				"y": -2.8607930485,
				"z": 1.2133372653,
				"element": "C" 
			},
			{
				"x": -0.1337259992,
				"y": -1.5474972003,
				"z": 0.6290183479,
				"element": "N" 
			},
			{
				"x": 1.0910402745,
				"y": -0.8854451964,
				"z": 0.1757544718,
				"element": "C" 
			},
			{
				"x": 0.769550571,
				"y": 0.4201982525,
				"z": -0.5521935546,
				"element": "C" 
			},
			{
				"x": -0.0348794337,
				"y": 1.2865679128,
				"z": 0.3018210633,
				"element": "N" 
			},
			{
				"x": -1.2302739465,
				"y": 0.6517058429,
				"z": 0.8442080626,
				"element": "C" 
			},
			{
				"x": -0.8656902468,
				"y": -0.6622436763,
				"z": 1.5371730176,
				"element": "C" 
			},
			{
				"x": 0.1847997614,
				"y": 2.634524155,
				"z": 0.3930885257,
				"element": "C" 
			},
			{
				"x": -0.6933927346,
				"y": 3.3596272616,
				"z": 1.1251833299,
				"element": "N" 
			},
			{
				"x": -0.4445602802,
				"y": 4.663616088,
				"z": 1.2233873355,
				"element": "C" 
			},
			{
				"x": 0.6468955865,
				"y": 5.2834168918,
				"z": 0.6157797811,
				"element": "C" 
			},
			{
				"x": 1.4799387606,
				"y": 4.440764308,
				"z": -0.119523349,
				"element": "C" 
			},
			{
				"x": 1.2702103828,
				"y": 3.1322632244,
				"z": -0.244858626,
				"element": "N" 
			},
			{
				"x": -0.8440018162,
				"y": -4.8964459875,
				"z": 3.8632159992,
				"element": "H" 
			},
			{
				"x": 0.6694696519,
				"y": -4.8311250558,
				"z": 3.2667306558,
				"element": "H" 
			},
			{
				"x": -1.6759978475,
				"y": -5.784941229,
				"z": 1.780271708,
				"element": "H" 
			},
			{
				"x": -0.0516860267,
				"y": -5.6416231901,
				"z": 1.1371814085,
				"element": "H" 
			},
			{
				"x": -1.5946556265,
				"y": -3.7992370559,
				"z": 0.382146682,
				"element": "H" 
			},
			{
				"x": -1.8104052059,
				"y": -3.306676799,
				"z": 2.0580829708,
				"element": "H" 
			},
			{
				"x": 0.6581525636,
				"y": -2.7623600243,
				"z": 2.1926585228,
				"element": "H" 
			},
			{
				"x": 0.8558543313,
				"y": -3.3672931923,
				"z": 0.5453027253,
				"element": "H" 
			},
			{
				"x": 1.7771700555,
				"y": -0.6686711016,
				"z": 1.0187664035,
				"element": "H" 
			},
			{
				"x": 1.6174428152,
				"y": -1.5545134496,
				"z": -0.5144380825,
				"element": "H" 
			},
			{
				"x": 0.2117418372,
				"y": 0.1890343837,
				"z": -1.4726249681,
				"element": "H" 
			},
			{
				"x": 1.6815481139,
				"y": 0.9491098651,
				"z": -0.8244487857,
				"element": "H" 
			},
			{
				"x": -1.9386821723,
				"y": 0.4411823678,
				"z": 0.0283240293,
				"element": "H" 
			},
			{
				"x": -1.7034562018,
				"y": 1.3403067874,
				"z": 1.5424366397,
				"element": "H" 
			},
			{
				"x": -0.2746085083,
				"y": -0.4406144734,
				"z": 2.4486974225,
				"element": "H" 
			},
			{
				"x": -1.7907005224,
				"y": -1.1519187188,
				"z": 1.8550950518,
				"element": "H" 
			},
			{
				"x": -1.1553904473,
				"y": 5.2399515205,
				"z": 1.8153737677,
				"element": "H" 
			},
			{
				"x": 0.8313533825,
				"y": 6.3472111508,
				"z": 0.7035975455,
				"element": "H" 
			},
			{
				"x": 2.3563098953,
				"y": 4.8332835011,
				"z": -0.6350640644,
				"element": "H" 
			}
		],
		 "valence_orbital": [ 
			{
				"type": "occ",
				"energy": -0.29891,
				"method": "rhf"
			},
			{
				"type": "occ",
				"energy": -0.23736,
				"method": "rhf"
			},
			{
				"type": "occ",
				"energy": -0.23483,
				"method": "rhf"
			},
			{
				"type": "occ",
				"energy": -0.21714,
				"method": "rhf"
			},
			{
				"type": "occ",
				"energy": -0.20623,
				"method": "rhf"
			},
			{
				"type": "unocc",
				"energy": -0.02693,
				"method": "rhf"
			},
			{
				"type": "unocc",
				"energy": 0.00579,
				"method": "rhf"
			},
			{
				"type": "unocc",
				"energy": 0.07629,
				"method": "rhf"
			},
			{
				"type": "unocc",
				"energy": 0.09458,
				"method": "rhf"
			},
			{
				"type": "unocc",
				"energy": 0.10541,
				"method": "rhf"
			}
		],
		"cosmo_sigma_profile": { 
			"-0.025": 0.0,
			"-0.024": 0.0,
			"-0.023": 0.0,
			"-0.022": 0.0,
			"-0.021": 0.0,
			"-0.02": 0.0,
			"-0.019": 0.0,
			"-0.018": 0.0,
			"-0.017": 0.0,
			"-0.016": 0.0,
			"-0.015": 0.0,
			"-0.014": 0.0,
			"-0.013": 0.0,
			"-0.012": 0.0,
			"-0.011": 0.0,
			"-0.01": 0.0470682421971,
			"-0.009": 1.08854490157,
			"-0.008": 2.74221611863,
			"-0.007": 5.85842111268,
			"-0.006": 9.90820589761,
			"-0.005": 12.2253369342,
			"-0.004": 21.1212331135,
			"-0.003": 33.4550884313,
			"-0.002": 37.4437636312,
			"-0.001": 35.8691117913,
			"0.0": 24.9974263717,
			"0.001": 19.2255666327,
			"0.002": 15.8617489718,
			"0.003": 13.0350268652,
			"0.004": 6.95772598573,
			"0.005": 5.93418795352,
			"0.006": 5.11751040607,
			"0.007": 4.39685292554,
			"0.008": 4.5064494557,
			"0.009": 3.92739816278,
			"0.01": 3.7954336838,
			"0.011": 3.75558493707,
			"0.012": 2.32198744512,
			"0.013": 1.51764427413,
			"0.014": 0.785636026462,
			"0.015": 0.819994626836,
			"0.016": 0.785082928585,
			"0.017": 0.697806411842,
			"0.018": 0.797463446458,
			"0.019": 0.578997538794,
			"0.02": 0.452034749352,
			"0.021": 0.00630961347644,
			"0.022": 0.0,
			"0.023": 0.0,
			"0.024": 0.0,
			"0.025": 0.0
		}
	}
}
