{
	 "smiles": "BrC=C", 
	 "Tm": 135.15, 
	 "num_atms": 6, 
	 "gaussian": { 
		 "optdone": 1, 
		 "sigma_profile": "yes", 
		 "theory": "DFT", 
		 "functional": "B3LYP", 
		 "basiset": "6-31G**", 
		 "properties": { 
			 "R2extent": 656.455, 
			 "electric_dipole_moment_norm": 1.50099220851, 
			 "electric_quadrupole_moment_norm": 2.44025966241, 
			 "total_energy": -2649.39492252, 
			 "HOMO_LUMO_gap": 0.25115, 
			 "cosmo_polarized_energy": -2.84, 
			 "cosmo_cavitation_energy": 12.05, 
			 "cosmo_dispersion_energy": -9.33, 
			 "cosmo_repulsion_energy": 0.88, 
			 "cosmo_total_nonelectrostatic_energy": 3.59, 
			 "SMD_solvation_energy": 2.19 
		},
		"coords": [
			{
				"x": -2.011499368,
				"y": 0.3719325902,
				"z": 0.2652035848,
				"element": "Br" 
			},
			{
				"x": -0.2558052448,
				"y": -0.1317805337,
				"z": -0.2841008949,
				"element": "C" 
			},
			{
				"x": 0.695603502,
				"y": -0.4940040015,
				"z": 0.5662514383,
				"element": "C" 
			},
			{
				"x": -0.1325477181,
				"y": -0.0865938533,
				"z": -1.3591910492,
				"element": "H" 
			},
			{
				"x": 1.6753101382,
				"y": -0.7693562476,
				"z": 0.1857136472,
				"element": "H" 
			},
			{
				"x": 0.5404386906,
				"y": -0.5290979541,
				"z": 1.6386232739,
				"element": "H" 
			}
		],
		 "valence_orbital": [ 
			{
				"type": "occ",
				"energy": -0.44109,
				"method": "rhf"
			},
			{
				"type": "occ",
				"energy": -0.36847,
				"method": "rhf"
			},
			{
				"type": "occ",
				"energy": -0.33884,
				"method": "rhf"
			},
			{
				"type": "occ",
				"energy": -0.28616,
				"method": "rhf"
			},
			{
				"type": "occ",
				"energy": -0.25528,
				"method": "rhf"
			},
			{
				"type": "unocc",
				"energy": -0.00413,
				"method": "rhf"
			},
			{
				"type": "unocc",
				"energy": 0.01251,
				"method": "rhf"
			},
			{
				"type": "unocc",
				"energy": 0.10959,
				"method": "rhf"
			},
			{
				"type": "unocc",
				"energy": 0.13457,
				"method": "rhf"
			},
			{
				"type": "unocc",
				"energy": 0.21752,
				"method": "rhf"
			}
		],
		"cosmo_sigma_profile": { 
			"-0.025": 0.0,
			"-0.024": 0.0,
			"-0.023": 0.0,
			"-0.022": 0.0,
			"-0.021": 0.0,
			"-0.02": 0.0,
			"-0.019": 0.0,
			"-0.018": 0.0,
			"-0.017": 0.0,
			"-0.016": 0.0,
			"-0.015": 0.0,
			"-0.014": 0.0,
			"-0.013": 0.0,
			"-0.012": 0.0,
			"-0.011": 0.0,
			"-0.01": 0.0,
			"-0.009": 1.19947473901,
			"-0.008": 1.67966293915,
			"-0.007": 4.93903103515,
			"-0.006": 4.56586536241,
			"-0.005": 5.6024169665,
			"-0.004": 5.50327082185,
			"-0.003": 5.99249622105,
			"-0.002": 7.02513487472,
			"-0.001": 5.52141935678,
			"0.0": 6.90440918321,
			"0.001": 6.92678140779,
			"0.002": 6.87490821043,
			"0.003": 10.8304440452,
			"0.004": 12.399705932,
			"0.005": 13.5882275476,
			"0.006": 0.352850976187,
			"0.007": 0.0,
			"0.008": 0.0,
			"0.009": 0.0,
			"0.01": 0.0,
			"0.011": 0.0,
			"0.012": 0.0,
			"0.013": 0.0,
			"0.014": 0.0,
			"0.015": 0.0,
			"0.016": 0.0,
			"0.017": 0.0,
			"0.018": 0.0,
			"0.019": 0.0,
			"0.02": 0.0,
			"0.021": 0.0,
			"0.022": 0.0,
			"0.023": 0.0,
			"0.024": 0.0,
			"0.025": 0.0
		}
	}
}
