{
	 "smiles": "COC1=CC=C(NC(=S)C(=O)C2=CC=CC=C2)C=C1", 
	 "Tm": 422.15, 
	 "num_atms": 32, 
	 "gaussian": { 
		 "optdone": 1, 
		 "sigma_profile": "yes", 
		 "theory": "DFT", 
		 "functional": "B3LYP", 
		 "basiset": "6-31G**", 
		 "properties": { 
			 "R2extent": 8992.6125, 
			 "electric_dipole_moment_norm": 3.10418449677, 
			 "electric_quadrupole_moment_norm": 27.315374512, 
			 "total_energy": -1182.80633872, 
			 "HOMO_LUMO_gap": 0.11604, 
			 "cosmo_polarized_energy": -13.35, 
			 "cosmo_cavitation_energy": 38.17, 
			 "cosmo_dispersion_energy": -28.23, 
			 "cosmo_repulsion_energy": 2.1, 
			 "cosmo_total_nonelectrostatic_energy": 12.05, 
			 "SMD_solvation_energy": 6.81 
		},
		"coords": [
			{
				"x": 5.4179081916,
				"y": -3.3523396434,
				"z": -2.0250528196,
				"element": "C" 
			},
			{
				"x": 4.0230150268,
				"y": -3.3428769785,
				"z": -2.2873197785,
				"element": "O" 
			},
			{
				"x": 3.2207931505,
				"y": -2.5797858756,
				"z": -1.4937371466,
				"element": "C" 
			},
			{
				"x": 1.8513711159,
				"y": -2.6101848742,
				"z": -1.7932296714,
				"element": "C" 
			},
			{
				"x": 0.936105812,
				"y": -1.875248515,
				"z": -1.0525457934,
				"element": "C" 
			},
			{
				"x": 1.3826597064,
				"y": -1.0802159745,
				"z": 0.019225222,
				"element": "C" 
			},
			{
				"x": 0.5559995852,
				"y": -0.2855437454,
				"z": 0.8332265561,
				"element": "N" 
			},
			{
				"x": -0.770984779,
				"y": -0.0678014377,
				"z": 0.8976805765,
				"element": "C" 
			},
			{
				"x": -1.9855244997,
				"y": -0.7683799187,
				"z": -0.0059867703,
				"element": "S" 
			},
			{
				"x": -1.0460120418,
				"y": 0.8994982118,
				"z": 2.0701056191,
				"element": "C" 
			},
			{
				"x": -0.1509463361,
				"y": 1.0424799083,
				"z": 2.9007905129,
				"element": "O" 
			},
			{
				"x": -2.3328249622,
				"y": 1.6273893987,
				"z": 2.2271409769,
				"element": "C" 
			},
			{
				"x": -2.7095133624,
				"y": 1.9706839641,
				"z": 3.5380139292,
				"element": "C" 
			},
			{
				"x": -3.8658146374,
				"y": 2.7078245543,
				"z": 3.7702681358,
				"element": "C" 
			},
			{
				"x": -4.6441346248,
				"y": 3.1406471095,
				"z": 2.6927398678,
				"element": "C" 
			},
			{
				"x": -4.2610476337,
				"y": 2.8314699092,
				"z": 1.3863240404,
				"element": "C" 
			},
			{
				"x": -3.1167811346,
				"y": 2.0714893699,
				"z": 1.1492581373,
				"element": "C" 
			},
			{
				"x": 2.7546077157,
				"y": -1.0506015559,
				"z": 0.3144104941,
				"element": "C" 
			},
			{
				"x": 3.671042738,
				"y": -1.789975632,
				"z": -0.4269424829,
				"element": "C" 
			},
			{
				"x": 5.8591154429,
				"y": -4.0198279696,
				"z": -2.7665240088,
				"element": "H" 
			},
			{
				"x": 5.8570971871,
				"y": -2.3522961913,
				"z": -2.1337958917,
				"element": "H" 
			},
			{
				"x": 5.6381631454,
				"y": -3.7341841159,
				"z": -1.0198590487,
				"element": "H" 
			},
			{
				"x": 1.5185568078,
				"y": -3.2275859132,
				"z": -2.6209916793,
				"element": "H" 
			},
			{
				"x": -0.1175151947,
				"y": -1.9128529586,
				"z": -1.289443697,
				"element": "H" 
			},
			{
				"x": 1.0348101466,
				"y": 0.1877537607,
				"z": 1.6015963051,
				"element": "H" 
			},
			{
				"x": -2.0830791888,
				"y": 1.6451648511,
				"z": 4.3615138885,
				"element": "H" 
			},
			{
				"x": -4.1577860253,
				"y": 2.9512786492,
				"z": 4.7874794049,
				"element": "H" 
			},
			{
				"x": -5.544233796,
				"y": 3.7220919033,
				"z": 2.8715609063,
				"element": "H" 
			},
			{
				"x": -4.8563494828,
				"y": 3.179223361,
				"z": 0.5474711687,
				"element": "H" 
			},
			{
				"x": -2.8267740428,
				"y": 1.8328387818,
				"z": 0.1346023724,
				"element": "H" 
			},
			{
				"x": 3.1129609884,
				"y": -0.4378711542,
				"z": 1.1382292569,
				"element": "H" 
			},
			{
				"x": 4.721414982,
				"y": -1.7421612794,
				"z": -0.1668085829,
				"element": "H" 
			}
		],
		 "valence_orbital": [ 
			{
				"type": "occ",
				"energy": -0.2619,
				"method": "rhf"
			},
			{
				"type": "occ",
				"energy": -0.26044,
				"method": "rhf"
			},
			{
				"type": "occ",
				"energy": -0.25667,
				"method": "rhf"
			},
			{
				"type": "occ",
				"energy": -0.20884,
				"method": "rhf"
			},
			{
				"type": "occ",
				"energy": -0.20697,
				"method": "rhf"
			},
			{
				"type": "unocc",
				"energy": -0.09093,
				"method": "rhf"
			},
			{
				"type": "unocc",
				"energy": -0.03144,
				"method": "rhf"
			},
			{
				"type": "unocc",
				"energy": -0.01133,
				"method": "rhf"
			},
			{
				"type": "unocc",
				"energy": -0.00623,
				"method": "rhf"
			},
			{
				"type": "unocc",
				"energy": 0.02008,
				"method": "rhf"
			}
		],
		"cosmo_sigma_profile": { 
			"-0.025": 0.0,
			"-0.024": 0.0,
			"-0.023": 0.0,
			"-0.022": 0.0,
			"-0.021": 0.0,
			"-0.02": 0.0,
			"-0.019": 0.0,
			"-0.018": 0.0,
			"-0.017": 0.0,
			"-0.016": 0.0,
			"-0.015": 0.0,
			"-0.014": 0.0102655324417,
			"-0.013": 0.838821324174,
			"-0.012": 0.677740468839,
			"-0.011": 1.42461948598,
			"-0.01": 1.03736847227,
			"-0.009": 1.52125877343,
			"-0.008": 1.86011582456,
			"-0.007": 6.74757043062,
			"-0.006": 21.1882783991,
			"-0.005": 26.3006987052,
			"-0.004": 26.7525393856,
			"-0.003": 21.3029949247,
			"-0.002": 18.9689723964,
			"-0.001": 15.2208625486,
			"0.0": 17.6680484557,
			"0.001": 17.7272449459,
			"0.002": 23.5181649751,
			"0.003": 31.8058609195,
			"0.004": 27.7547885048,
			"0.005": 11.0772329438,
			"0.006": 9.26642220694,
			"0.007": 9.20516147408,
			"0.008": 6.44662746851,
			"0.009": 5.01555646416,
			"0.01": 4.86692110226,
			"0.011": 0.812994665403,
			"0.012": 0.0,
			"0.013": 0.0,
			"0.014": 0.0,
			"0.015": 0.0,
			"0.016": 0.0,
			"0.017": 0.0,
			"0.018": 0.0,
			"0.019": 0.0,
			"0.02": 0.0,
			"0.021": 0.0,
			"0.022": 0.0,
			"0.023": 0.0,
			"0.024": 0.0,
			"0.025": 0.0
		}
	}
}
