{
	 "smiles": "NCCC1=CC=C(OCC(N)=O)C=C1", 
	 "Tm": 370.15, 
	 "num_atms": 28, 
	 "gaussian": { 
		 "optdone": 1, 
		 "sigma_profile": "yes", 
		 "theory": "DFT", 
		 "functional": "B3LYP", 
		 "basiset": "6-31G**", 
		 "properties": { 
			 "R2extent": 4788.7713, 
			 "electric_dipole_moment_norm": 4.90705754704, 
			 "electric_quadrupole_moment_norm": 21.1515804164, 
			 "total_energy": -649.448096325, 
			 "HOMO_LUMO_gap": 0.21322, 
			 "cosmo_polarized_energy": -21.72, 
			 "cosmo_cavitation_energy": 31.9, 
			 "cosmo_dispersion_energy": -23.21, 
			 "cosmo_repulsion_energy": 1.9, 
			 "cosmo_total_nonelectrostatic_energy": 10.59, 
			 "SMD_solvation_energy": 5.79 
		},
		"coords": [
			{
				"x": 4.7556769052,
				"y": 1.7731016791,
				"z": 0.4723254305,
				"element": "N" 
			},
			{
				"x": 3.9610862648,
				"y": 3.0067293254,
				"z": 0.4555720039,
				"element": "C" 
			},
			{
				"x": 2.7474316696,
				"y": 2.905805649,
				"z": 1.4008465212,
				"element": "C" 
			},
			{
				"x": 1.6265812769,
				"y": 2.0093067227,
				"z": 0.9158311793,
				"element": "C" 
			},
			{
				"x": 0.3810301138,
				"y": 2.5544517421,
				"z": 0.5645593111,
				"element": "C" 
			},
			{
				"x": -0.6637788486,
				"y": 1.7572739892,
				"z": 0.1112517916,
				"element": "C" 
			},
			{
				"x": -0.4853043432,
				"y": 0.3732976102,
				"z": -0.0042912304,
				"element": "C" 
			},
			{
				"x": -1.5719660596,
				"y": -0.3266469522,
				"z": -0.4595233141,
				"element": "O" 
			},
			{
				"x": -1.4674819709,
				"y": -1.7246730229,
				"z": -0.5615044297,
				"element": "C" 
			},
			{
				"x": -2.8413496984,
				"y": -2.2772512074,
				"z": -0.962829571,
				"element": "C" 
			},
			{
				"x": -2.7747479073,
				"y": -3.4828690972,
				"z": -1.6123104912,
				"element": "N" 
			},
			{
				"x": -3.8893288648,
				"y": -1.7378904423,
				"z": -0.6647222397,
				"element": "O" 
			},
			{
				"x": 0.7475856514,
				"y": -0.1936516793,
				"z": 0.3366644796,
				"element": "C" 
			},
			{
				"x": 1.7852270392,
				"y": 0.6242462845,
				"z": 0.7933418662,
				"element": "C" 
			},
			{
				"x": 5.2663041691,
				"y": 1.7079344698,
				"z": 1.350464555,
				"element": "H" 
			},
			{
				"x": 5.4555906499,
				"y": 1.7961428949,
				"z": -0.2646472768,
				"element": "H" 
			},
			{
				"x": 3.6030939312,
				"y": 3.1642859581,
				"z": -0.5682590133,
				"element": "H" 
			},
			{
				"x": 4.5413680995,
				"y": 3.9052989094,
				"z": 0.7308067579,
				"element": "H" 
			},
			{
				"x": 3.107229343,
				"y": 2.5693939298,
				"z": 2.384000409,
				"element": "H" 
			},
			{
				"x": 2.3521098235,
				"y": 3.9167223438,
				"z": 1.5551068916,
				"element": "H" 
			},
			{
				"x": 0.2239750704,
				"y": 3.627208315,
				"z": 0.6518490456,
				"element": "H" 
			},
			{
				"x": -1.6270479306,
				"y": 2.1804415572,
				"z": -0.1541433487,
				"element": "H" 
			},
			{
				"x": -0.6973287846,
				"y": -2.0155254877,
				"z": -1.2931760513,
				"element": "H" 
			},
			{
				"x": -1.1913980168,
				"y": -2.177695623,
				"z": 0.4036064513,
				"element": "H" 
			},
			{
				"x": -3.6472203751,
				"y": -3.8845696583,
				"z": -1.9225143256,
				"element": "H" 
			},
			{
				"x": -1.9238204871,
				"y": -3.8136075623,
				"z": -2.0387824923,
				"element": "H" 
			},
			{
				"x": 0.9159201458,
				"y": -1.2613171831,
				"z": 0.2525993436,
				"element": "H" 
			},
			{
				"x": 2.7450631336,
				"y": 0.1807565355,
				"z": 1.0347777466,
				"element": "H" 
			}
		],
		 "valence_orbital": [ 
			{
				"type": "occ",
				"energy": -0.27277,
				"method": "rhf"
			},
			{
				"type": "occ",
				"energy": -0.25102,
				"method": "rhf"
			},
			{
				"type": "occ",
				"energy": -0.24195,
				"method": "rhf"
			},
			{
				"type": "occ",
				"energy": -0.23318,
				"method": "rhf"
			},
			{
				"type": "occ",
				"energy": -0.20604,
				"method": "rhf"
			},
			{
				"type": "unocc",
				"energy": 0.00718,
				"method": "rhf"
			},
			{
				"type": "unocc",
				"energy": 0.01887,
				"method": "rhf"
			},
			{
				"type": "unocc",
				"energy": 0.02586,
				"method": "rhf"
			},
			{
				"type": "unocc",
				"energy": 0.06735,
				"method": "rhf"
			},
			{
				"type": "unocc",
				"energy": 0.08148,
				"method": "rhf"
			}
		],
		"cosmo_sigma_profile": { 
			"-0.025": 0.0,
			"-0.024": 0.0,
			"-0.023": 0.0,
			"-0.022": 0.0,
			"-0.021": 0.0,
			"-0.02": 0.0,
			"-0.019": 0.0,
			"-0.018": 0.0,
			"-0.017": 0.0,
			"-0.016": 0.0,
			"-0.015": 0.81312148827,
			"-0.014": 2.09573752018,
			"-0.013": 2.69712747187,
			"-0.012": 3.22271844,
			"-0.011": 2.91799011032,
			"-0.01": 2.6657674452,
			"-0.009": 4.8622589064,
			"-0.008": 5.69593117447,
			"-0.007": 11.3351282874,
			"-0.006": 12.2356969643,
			"-0.005": 11.1553601774,
			"-0.004": 13.459909966,
			"-0.003": 18.1551380398,
			"-0.002": 18.4668584052,
			"-0.001": 20.3211550403,
			"0.0": 17.2109010049,
			"0.001": 10.5125345647,
			"0.002": 10.6916993308,
			"0.003": 11.3453290027,
			"0.004": 11.592780152,
			"0.005": 10.2703763995,
			"0.006": 12.3461915808,
			"0.007": 6.02585758748,
			"0.008": 3.58728162697,
			"0.009": 2.30978303577,
			"0.01": 2.59754768432,
			"0.011": 4.00147486576,
			"0.012": 3.36607078532,
			"0.013": 6.14378530431,
			"0.014": 5.16175973454,
			"0.015": 2.03468316932,
			"0.016": 0.949284762433,
			"0.017": 0.00857409021826,
			"0.018": 0.0,
			"0.019": 0.0,
			"0.02": 0.0,
			"0.021": 0.0,
			"0.022": 0.0,
			"0.023": 0.0,
			"0.024": 0.0,
			"0.025": 0.0
		}
	}
}
