{
	 "smiles": "CC1=C2NC(=C(CC(O)=O)C2=CC=C1)C1=CC=CC=C1", 
	 "Tm": 433.15, 
	 "num_atms": 35, 
	 "gaussian": { 
		 "optdone": 1, 
		 "sigma_profile": "yes", 
		 "theory": "DFT", 
		 "functional": "B3LYP", 
		 "basiset": "6-31G**", 
		 "properties": { 
			 "R2extent": 6174.3757, 
			 "electric_dipole_moment_norm": 1.50344051761, 
			 "electric_quadrupole_moment_norm": 11.4889292721, 
			 "total_energy": -862.092819744, 
			 "HOMO_LUMO_gap": 0.16358, 
			 "cosmo_polarized_energy": -14.35, 
			 "cosmo_cavitation_energy": 38.47, 
			 "cosmo_dispersion_energy": -27.15, 
			 "cosmo_repulsion_energy": 2.06, 
			 "cosmo_total_nonelectrostatic_energy": 13.38, 
			 "SMD_solvation_energy": 6.93 
		},
		"coords": [
			{
				"x": 2.5402018796,
				"y": 2.3757703353,
				"z": -1.623640773,
				"element": "C" 
			},
			{
				"x": 1.7714522329,
				"y": 2.213132718,
				"z": -0.3369884147,
				"element": "C" 
			},
			{
				"x": 0.8703647892,
				"y": 1.1515988817,
				"z": -0.1533511884,
				"element": "C" 
			},
			{
				"x": 0.5395177747,
				"y": 0.122075266,
				"z": -1.0111130176,
				"element": "N" 
			},
			{
				"x": -0.4265292606,
				"y": -0.6910593824,
				"z": -0.4278438678,
				"element": "C" 
			},
			{
				"x": -0.6887669612,
				"y": -0.2128054208,
				"z": 0.8459405947,
				"element": "C" 
			},
			{
				"x": -1.5783082584,
				"y": -0.8387380233,
				"z": 1.8881624937,
				"element": "C" 
			},
			{
				"x": -2.9164223724,
				"y": -0.1247686891,
				"z": 1.9860637434,
				"element": "C" 
			},
			{
				"x": -2.930459745,
				"y": 0.7982121808,
				"z": 2.976376119,
				"element": "O" 
			},
			{
				"x": -3.8737050961,
				"y": -0.3135526199,
				"z": 1.2648477784,
				"element": "O" 
			},
			{
				"x": 0.1212163386,
				"y": 0.9625937145,
				"z": 1.0363888215,
				"element": "C" 
			},
			{
				"x": 0.290356487,
				"y": 1.8679897235,
				"z": 2.1003432342,
				"element": "C" 
			},
			{
				"x": 1.1810795689,
				"y": 2.9197993483,
				"z": 1.9377351681,
				"element": "C" 
			},
			{
				"x": 1.9052592811,
				"y": 3.0882215368,
				"z": 0.7390237155,
				"element": "C" 
			},
			{
				"x": -0.9356554695,
				"y": -1.8616517906,
				"z": -1.154504297,
				"element": "C" 
			},
			{
				"x": -2.2863645118,
				"y": -2.2479815845,
				"z": -1.0659808634,
				"element": "C" 
			},
			{
				"x": -2.7464699435,
				"y": -3.3619399562,
				"z": -1.7683664677,
				"element": "C" 
			},
			{
				"x": -1.8817798956,
				"y": -4.0983047156,
				"z": -2.5802634301,
				"element": "C" 
			},
			{
				"x": -0.5420492314,
				"y": -3.7168170814,
				"z": -2.6835761021,
				"element": "C" 
			},
			{
				"x": -0.0723772852,
				"y": -2.6127584064,
				"z": -1.9756952417,
				"element": "C" 
			},
			{
				"x": 1.8715684975,
				"y": 2.5309682942,
				"z": -2.4808293957,
				"element": "H" 
			},
			{
				"x": 3.2132406998,
				"y": 3.2354538424,
				"z": -1.5733125625,
				"element": "H" 
			},
			{
				"x": 3.1494077639,
				"y": 1.4900093667,
				"z": -1.8456208612,
				"element": "H" 
			},
			{
				"x": 0.7830109227,
				"y": 0.0787036833,
				"z": -1.9876773926,
				"element": "H" 
			},
			{
				"x": -1.7844931642,
				"y": -1.8809729306,
				"z": 1.6333429609,
				"element": "H" 
			},
			{
				"x": -1.0889146962,
				"y": -0.8088741357,
				"z": 2.8666367738,
				"element": "H" 
			},
			{
				"x": -3.7975695591,
				"y": 1.2361116446,
				"z": 2.9293730708,
				"element": "H" 
			},
			{
				"x": -0.2790660434,
				"y": 1.7556955921,
				"z": 3.0177449262,
				"element": "H" 
			},
			{
				"x": 1.3243014452,
				"y": 3.6334136647,
				"z": 2.7440382733,
				"element": "H" 
			},
			{
				"x": 2.5917778969,
				"y": 3.9263124159,
				"z": 0.6481545213,
				"element": "H" 
			},
			{
				"x": -2.9771764456,
				"y": -1.6604868081,
				"z": -0.4689814812,
				"element": "H" 
			},
			{
				"x": -3.7924137719,
				"y": -3.6450820239,
				"z": -1.6909384545,
				"element": "H" 
			},
			{
				"x": -2.2478933428,
				"y": -4.9608559115,
				"z": -3.1295702609,
				"element": "H" 
			},
			{
				"x": 0.1410840614,
				"y": -4.286655474,
				"z": -3.3072240512,
				"element": "H" 
			},
			{
				"x": 0.9792754142,
				"y": -2.3449572547,
				"z": -2.0326940715,
				"element": "H" 
			}
		],
		 "valence_orbital": [ 
			{
				"type": "occ",
				"energy": -0.26666,
				"method": "rhf"
			},
			{
				"type": "occ",
				"energy": -0.25408,
				"method": "rhf"
			},
			{
				"type": "occ",
				"energy": -0.25194,
				"method": "rhf"
			},
			{
				"type": "occ",
				"energy": -0.21133,
				"method": "rhf"
			},
			{
				"type": "occ",
				"energy": -0.19449,
				"method": "rhf"
			},
			{
				"type": "unocc",
				"energy": -0.03091,
				"method": "rhf"
			},
			{
				"type": "unocc",
				"energy": -0.00454,
				"method": "rhf"
			},
			{
				"type": "unocc",
				"energy": 0.01052,
				"method": "rhf"
			},
			{
				"type": "unocc",
				"energy": 0.01485,
				"method": "rhf"
			},
			{
				"type": "unocc",
				"energy": 0.03017,
				"method": "rhf"
			}
		],
		"cosmo_sigma_profile": { 
			"-0.025": 0.0,
			"-0.024": 0.0,
			"-0.023": 0.0,
			"-0.022": 0.0,
			"-0.021": 0.0,
			"-0.02": 0.0,
			"-0.019": 0.0172728820886,
			"-0.018": 0.775791452728,
			"-0.017": 0.989965876678,
			"-0.016": 0.771875051259,
			"-0.015": 1.0442489755,
			"-0.014": 1.12900373943,
			"-0.013": 1.25284915416,
			"-0.012": 1.72912106718,
			"-0.011": 1.96095712159,
			"-0.01": 2.26385100011,
			"-0.009": 2.71809538187,
			"-0.008": 2.35998074303,
			"-0.007": 2.64734692001,
			"-0.006": 8.62335656245,
			"-0.005": 18.5538826959,
			"-0.004": 26.3892287879,
			"-0.003": 25.7527932675,
			"-0.002": 23.5107087945,
			"-0.001": 19.9717446771,
			"0.0": 20.7701130034,
			"0.001": 18.4961586892,
			"0.002": 20.1371255086,
			"0.003": 21.6403506746,
			"0.004": 22.9334265495,
			"0.005": 25.0771714587,
			"0.006": 13.3885183297,
			"0.007": 9.02715309015,
			"0.008": 3.04095071021,
			"0.009": 1.99393216684,
			"0.01": 2.66896104985,
			"0.011": 3.13120695682,
			"0.012": 1.90969971851,
			"0.013": 0.0,
			"0.014": 0.0,
			"0.015": 0.0,
			"0.016": 0.0,
			"0.017": 0.0,
			"0.018": 0.0,
			"0.019": 0.0,
			"0.02": 0.0,
			"0.021": 0.0,
			"0.022": 0.0,
			"0.023": 0.0,
			"0.024": 0.0,
			"0.025": 0.0
		}
	}
}
