{
	 "smiles": "OC1=C(C=CC=C1)C(=O)OCC1=CC=C(Br)C=C1", 
	 "Tm": 343.15, 
	 "num_atms": 29, 
	 "gaussian": { 
		 "optdone": 1, 
		 "sigma_profile": "yes", 
		 "theory": "DFT", 
		 "functional": "B3LYP", 
		 "basiset": "6-31G**", 
		 "properties": { 
			 "R2extent": 12184.2202, 
			 "electric_dipole_moment_norm": 0.27820792584, 
			 "electric_quadrupole_moment_norm": 12.1278500452, 
			 "total_energy": -3337.21327286, 
			 "HOMO_LUMO_gap": 0.18074, 
			 "cosmo_polarized_energy": -10.85, 
			 "cosmo_cavitation_energy": 36.66, 
			 "cosmo_dispersion_energy": -26.48, 
			 "cosmo_repulsion_energy": 2.04, 
			 "cosmo_total_nonelectrostatic_energy": 12.22, 
			 "SMD_solvation_energy": 6.06 
		},
		"coords": [
			{
				"x": 2.5334800543,
				"y": -0.4711524781,
				"z": 0.7897329853,
				"element": "O" 
			},
			{
				"x": 1.7658495396,
				"y": -0.8624845551,
				"z": 1.8283923213,
				"element": "C" 
			},
			{
				"x": 0.3644705547,
				"y": -1.0683733004,
				"z": 1.7606138016,
				"element": "C" 
			},
			{
				"x": -0.3219940952,
				"y": -1.4785598785,
				"z": 2.9211615026,
				"element": "C" 
			},
			{
				"x": 0.3412411706,
				"y": -1.6832922549,
				"z": 4.1196358684,
				"element": "C" 
			},
			{
				"x": 1.7276200762,
				"y": -1.4765501328,
				"z": 4.1753475163,
				"element": "C" 
			},
			{
				"x": 2.4292909246,
				"y": -1.0728534677,
				"z": 3.0490747506,
				"element": "C" 
			},
			{
				"x": -0.4586254979,
				"y": -0.8843997895,
				"z": 0.5444662333,
				"element": "C" 
			},
			{
				"x": -1.6580972933,
				"y": -1.0562141403,
				"z": 0.4694555565,
				"element": "O" 
			},
			{
				"x": 0.2755682574,
				"y": -0.4846796768,
				"z": -0.5458879155,
				"element": "O" 
			},
			{
				"x": -0.4754463636,
				"y": -0.2852274339,
				"z": -1.777154866,
				"element": "C" 
			},
			{
				"x": 0.4907513182,
				"y": 0.1457745709,
				"z": -2.844667137,
				"element": "C" 
			},
			{
				"x": 0.7734589308,
				"y": 1.5026959014,
				"z": -3.0448698655,
				"element": "C" 
			},
			{
				"x": 1.6822230745,
				"y": 1.910577088,
				"z": -4.0204589074,
				"element": "C" 
			},
			{
				"x": 2.3141326863,
				"y": 0.9445789806,
				"z": -4.8025283961,
				"element": "C" 
			},
			{
				"x": 3.5556060703,
				"y": 1.4913635417,
				"z": -6.1466076565,
				"element": "Br" 
			},
			{
				"x": 2.0519742921,
				"y": -0.4131971712,
				"z": -4.6242160268,
				"element": "C" 
			},
			{
				"x": 1.140365365,
				"y": -0.8031212773,
				"z": -3.6439365012,
				"element": "C" 
			},
			{
				"x": 1.9638122985,
				"y": -0.359518622,
				"z": 0.0070879435,
				"element": "H" 
			},
			{
				"x": -1.3932476382,
				"y": -1.6279506427,
				"z": 2.8383873069,
				"element": "H" 
			},
			{
				"x": -0.2049643001,
				"y": -1.9991206222,
				"z": 5.0023215747,
				"element": "H" 
			},
			{
				"x": 2.2629939027,
				"y": -1.6327217033,
				"z": 5.1078331809,
				"element": "H" 
			},
			{
				"x": 3.5013265595,
				"y": -0.9088277038,
				"z": 3.0759339978,
				"element": "H" 
			},
			{
				"x": -1.2458518321,
				"y": 0.4671453712,
				"z": -1.5902408347,
				"element": "H" 
			},
			{
				"x": -0.9761668405,
				"y": -1.2236038061,
				"z": -2.028654179,
				"element": "H" 
			},
			{
				"x": 0.2768498181,
				"y": 2.2521093405,
				"z": -2.4342157036,
				"element": "H" 
			},
			{
				"x": 1.8952087539,
				"y": 2.9621595092,
				"z": -4.1741300017,
				"element": "H" 
			},
			{
				"x": 2.5496801101,
				"y": -1.151048416,
				"z": -5.242812976,
				"element": "H" 
			},
			{
				"x": 0.9311901037,
				"y": -1.8602072311,
				"z": -3.5026635731,
				"element": "H" 
			}
		],
		 "valence_orbital": [ 
			{
				"type": "occ",
				"energy": -0.2867,
				"method": "rhf"
			},
			{
				"type": "occ",
				"energy": -0.27591,
				"method": "rhf"
			},
			{
				"type": "occ",
				"energy": -0.26006,
				"method": "rhf"
			},
			{
				"type": "occ",
				"energy": -0.25243,
				"method": "rhf"
			},
			{
				"type": "occ",
				"energy": -0.22741,
				"method": "rhf"
			},
			{
				"type": "unocc",
				"energy": -0.04667,
				"method": "rhf"
			},
			{
				"type": "unocc",
				"energy": -0.03469,
				"method": "rhf"
			},
			{
				"type": "unocc",
				"energy": -0.02639,
				"method": "rhf"
			},
			{
				"type": "unocc",
				"energy": -0.00127,
				"method": "rhf"
			},
			{
				"type": "unocc",
				"energy": 0.0052,
				"method": "rhf"
			}
		],
		"cosmo_sigma_profile": { 
			"-0.025": 0.0,
			"-0.024": 0.0,
			"-0.023": 0.0,
			"-0.022": 0.0,
			"-0.021": 0.0,
			"-0.02": 0.0,
			"-0.019": 0.0,
			"-0.018": 0.0,
			"-0.017": 0.0,
			"-0.016": 0.0,
			"-0.015": 0.0,
			"-0.014": 0.0,
			"-0.013": 0.0,
			"-0.012": 0.0,
			"-0.011": 0.0,
			"-0.01": 0.0,
			"-0.009": 0.0,
			"-0.008": 1.03657460639,
			"-0.007": 15.0322338008,
			"-0.006": 19.5605244883,
			"-0.005": 20.9833099998,
			"-0.004": 20.7650749071,
			"-0.003": 21.444812551,
			"-0.002": 19.7431144495,
			"-0.001": 18.1498090411,
			"0.0": 18.745022353,
			"0.001": 23.0015496838,
			"0.002": 29.5624974385,
			"0.003": 31.9383700222,
			"0.004": 24.0965777496,
			"0.005": 11.0097304122,
			"0.006": 2.36160588623,
			"0.007": 2.48855650472,
			"0.008": 3.12662761134,
			"0.009": 3.03521111832,
			"0.01": 3.68828338996,
			"0.011": 5.53223066004,
			"0.012": 2.22303840313,
			"0.013": 0.0,
			"0.014": 0.0,
			"0.015": 0.0,
			"0.016": 0.0,
			"0.017": 0.0,
			"0.018": 0.0,
			"0.019": 0.0,
			"0.02": 0.0,
			"0.021": 0.0,
			"0.022": 0.0,
			"0.023": 0.0,
			"0.024": 0.0,
			"0.025": 0.0
		}
	}
}
