{
	 "smiles": "ClC1=C(Cl)C(=O)C(NCC2=CC=CC=C2)=C(Cl)C1=O", 
	 "Tm": 504.15, 
	 "num_atms": 27, 
	 "gaussian": { 
		 "optdone": 1, 
		 "sigma_profile": "yes", 
		 "theory": "DFT", 
		 "functional": "B3LYP", 
		 "basiset": "6-31G**", 
		 "properties": { 
			 "R2extent": 9934.3151, 
			 "electric_dipole_moment_norm": 4.29090645552, 
			 "electric_quadrupole_moment_norm": 23.7179325136, 
			 "total_energy": -2085.93717485, 
			 "HOMO_LUMO_gap": 0.09922, 
			 "cosmo_polarized_energy": -13.56, 
			 "cosmo_cavitation_energy": 37.27, 
			 "cosmo_dispersion_energy": -26.64, 
			 "cosmo_repulsion_energy": 2.06, 
			 "cosmo_total_nonelectrostatic_energy": 12.69, 
			 "SMD_solvation_energy": 5.75 
		},
		"coords": [
			{
				"x": 1.4959002058,
				"y": 3.7889388429,
				"z": 4.9245786239,
				"element": "Cl" 
			},
			{
				"x": 0.6637574469,
				"y": 2.8264460761,
				"z": 3.7695118522,
				"element": "C" 
			},
			{
				"x": 1.1434677014,
				"y": 1.653861445,
				"z": 3.3059526172,
				"element": "C" 
			},
			{
				"x": 2.6492545058,
				"y": 0.9756247271,
				"z": 3.81555982,
				"element": "Cl" 
			},
			{
				"x": 0.3830856239,
				"y": 0.839438513,
				"z": 2.3105466311,
				"element": "C" 
			},
			{
				"x": 0.8137474272,
				"y": -0.240102165,
				"z": 1.9419956888,
				"element": "O" 
			},
			{
				"x": -0.9238606356,
				"y": 1.3891679693,
				"z": 1.7914107517,
				"element": "C" 
			},
			{
				"x": -1.6534681694,
				"y": 0.6721551644,
				"z": 0.9010903997,
				"element": "N" 
			},
			{
				"x": -1.2631528726,
				"y": -0.4373636434,
				"z": 0.0094024813,
				"element": "C" 
			},
			{
				"x": -0.5408020244,
				"y": 0.0202407793,
				"z": -1.2469156393,
				"element": "C" 
			},
			{
				"x": 0.852976303,
				"y": -0.0737938254,
				"z": -1.3497785063,
				"element": "C" 
			},
			{
				"x": 1.5077550989,
				"y": 0.3656038539,
				"z": -2.5021204175,
				"element": "C" 
			},
			{
				"x": 0.7779561445,
				"y": 0.9048287451,
				"z": -3.5625234288,
				"element": "C" 
			},
			{
				"x": -0.6126289695,
				"y": 0.9987038429,
				"z": -3.4701875508,
				"element": "C" 
			},
			{
				"x": -1.2654344809,
				"y": 0.5564236485,
				"z": -2.3200199075,
				"element": "C" 
			},
			{
				"x": -1.3731216227,
				"y": 2.5853640347,
				"z": 2.3033254105,
				"element": "C" 
			},
			{
				"x": -2.8978586277,
				"y": 3.2446823922,
				"z": 1.7580010232,
				"element": "Cl" 
			},
			{
				"x": -0.6629921108,
				"y": 3.3806044315,
				"z": 3.2946474855,
				"element": "C" 
			},
			{
				"x": -1.0750651204,
				"y": 4.4417529306,
				"z": 3.7353414855,
				"element": "O" 
			},
			{
				"x": -2.4957440852,
				"y": 1.1560826209,
				"z": 0.6145479132,
				"element": "H" 
			},
			{
				"x": -0.6614588676,
				"y": -1.1478259925,
				"z": 0.5682027882,
				"element": "H" 
			},
			{
				"x": -2.2035337236,
				"y": -0.9268303887,
				"z": -0.2626891503,
				"element": "H" 
			},
			{
				"x": 1.4220888726,
				"y": -0.4931588886,
				"z": -0.5258427829,
				"element": "H" 
			},
			{
				"x": 2.588687768,
				"y": 0.2834622526,
				"z": -2.5714686299,
				"element": "H" 
			},
			{
				"x": 1.288292428,
				"y": 1.2451538173,
				"z": -4.4588534477,
				"element": "H" 
			},
			{
				"x": -1.1876507502,
				"y": 1.4095386384,
				"z": -4.2950440699,
				"element": "H" 
			},
			{
				"x": -2.3499974656,
				"y": 0.6222001782,
				"z": -2.2591714413,
				"element": "H" 
			}
		],
		 "valence_orbital": [ 
			{
				"type": "occ",
				"energy": -0.28295,
				"method": "rhf"
			},
			{
				"type": "occ",
				"energy": -0.28072,
				"method": "rhf"
			},
			{
				"type": "occ",
				"energy": -0.26174,
				"method": "rhf"
			},
			{
				"type": "occ",
				"energy": -0.26071,
				"method": "rhf"
			},
			{
				"type": "occ",
				"energy": -0.23421,
				"method": "rhf"
			},
			{
				"type": "unocc",
				"energy": -0.13499,
				"method": "rhf"
			},
			{
				"type": "unocc",
				"energy": -0.02751,
				"method": "rhf"
			},
			{
				"type": "unocc",
				"energy": -0.01823,
				"method": "rhf"
			},
			{
				"type": "unocc",
				"energy": -0.01298,
				"method": "rhf"
			},
			{
				"type": "unocc",
				"energy": -0.01145,
				"method": "rhf"
			}
		],
		"cosmo_sigma_profile": { 
			"-0.025": 0.0,
			"-0.024": 0.0,
			"-0.023": 0.0,
			"-0.022": 0.0,
			"-0.021": 0.0,
			"-0.02": 0.0,
			"-0.019": 0.0,
			"-0.018": 0.0,
			"-0.017": 0.0,
			"-0.016": 0.0,
			"-0.015": 0.0,
			"-0.014": 0.385029285427,
			"-0.013": 0.956149038669,
			"-0.012": 1.02228387017,
			"-0.011": 0.99888683021,
			"-0.01": 1.02174514233,
			"-0.009": 2.31015700734,
			"-0.008": 3.80495136611,
			"-0.007": 5.99411740662,
			"-0.006": 11.8708978434,
			"-0.005": 19.0288783113,
			"-0.004": 23.7892786373,
			"-0.003": 26.4451507663,
			"-0.002": 25.1903364203,
			"-0.001": 23.8119225294,
			"0.0": 22.0428413028,
			"0.001": 23.7867187477,
			"0.002": 26.3579810749,
			"0.003": 24.427978716,
			"0.004": 16.4791804821,
			"0.005": 14.8784412718,
			"0.006": 8.52961012503,
			"0.007": 4.1301385407,
			"0.008": 3.87083309718,
			"0.009": 4.53686678959,
			"0.01": 4.52791888002,
			"0.011": 5.08799868507,
			"0.012": 1.53429438839,
			"0.013": 0.0,
			"0.014": 0.0,
			"0.015": 0.0,
			"0.016": 0.0,
			"0.017": 0.0,
			"0.018": 0.0,
			"0.019": 0.0,
			"0.02": 0.0,
			"0.021": 0.0,
			"0.022": 0.0,
			"0.023": 0.0,
			"0.024": 0.0,
			"0.025": 0.0
		}
	}
}
