{
	 "smiles": "O=C1NC2=C(C=CC=C2)N2CCC12", 
	 "Tm": 443.15, 
	 "num_atms": 23, 
	 "gaussian": { 
		 "optdone": 1, 
		 "sigma_profile": "yes", 
		 "theory": "DFT", 
		 "functional": "B3LYP", 
		 "basiset": "6-31G**", 
		 "properties": { 
			 "R2extent": 2433.8394, 
			 "electric_dipole_moment_norm": 2.17524105561, 
			 "electric_quadrupole_moment_norm": 10.3757028933, 
			 "total_energy": -571.802247037, 
			 "HOMO_LUMO_gap": 0.18578, 
			 "cosmo_polarized_energy": -11.25, 
			 "cosmo_cavitation_energy": 25.85, 
			 "cosmo_dispersion_energy": -19.37, 
			 "cosmo_repulsion_energy": 1.52, 
			 "cosmo_total_nonelectrostatic_energy": 8.0, 
			 "SMD_solvation_energy": 2.7 
		},
		"coords": [
			{
				"x": 2.8328414333,
				"y": 1.5463245091,
				"z": -0.3190600137,
				"element": "O" 
			},
			{
				"x": 1.9199402338,
				"y": 0.7584108055,
				"z": -0.5181526014,
				"element": "C" 
			},
			{
				"x": 2.0948024558,
				"y": -0.6029791934,
				"z": -0.4747410166,
				"element": "N" 
			},
			{
				"x": 1.0750795251,
				"y": -1.5742438687,
				"z": -0.5401252573,
				"element": "C" 
			},
			{
				"x": -0.2705477348,
				"y": -1.1521880896,
				"z": -0.5721993382,
				"element": "C" 
			},
			{
				"x": -1.2817360179,
				"y": -2.1181755042,
				"z": -0.5361740041,
				"element": "C" 
			},
			{
				"x": -0.9696874046,
				"y": -3.4769652798,
				"z": -0.4804447329,
				"element": "C" 
			},
			{
				"x": 0.3648649127,
				"y": -3.8868319183,
				"z": -0.4882661961,
				"element": "C" 
			},
			{
				"x": 1.3852598087,
				"y": -2.935948204,
				"z": -0.5233955349,
				"element": "C" 
			},
			{
				"x": -0.5626820069,
				"y": 0.2191463522,
				"z": -0.6430496955,
				"element": "N" 
			},
			{
				"x": -1.1270170525,
				"y": 1.0004373777,
				"z": 0.4878162278,
				"element": "C" 
			},
			{
				"x": -0.1659002327,
				"y": 2.168389772,
				"z": 0.1319894607,
				"element": "C" 
			},
			{
				"x": 0.5097970064,
				"y": 1.2066333761,
				"z": -0.8788015536,
				"element": "C" 
			},
			{
				"x": 3.0427203388,
				"y": -0.9061844042,
				"z": -0.2888020827,
				"element": "H" 
			},
			{
				"x": -2.3155873842,
				"y": -1.7869183983,
				"z": -0.5632684512,
				"element": "H" 
			},
			{
				"x": -1.7676889248,
				"y": -4.2124425653,
				"z": -0.4503440289,
				"element": "H" 
			},
			{
				"x": 0.6159632168,
				"y": -4.9426262503,
				"z": -0.4643322178,
				"element": "H" 
			},
			{
				"x": 2.4274692307,
				"y": -3.2459322169,
				"z": -0.5111463992,
				"element": "H" 
			},
			{
				"x": -2.1985718284,
				"y": 1.2069929008,
				"z": 0.3961026912,
				"element": "H" 
			},
			{
				"x": -0.9368628091,
				"y": 0.5446917642,
				"z": 1.4688164601,
				"element": "H" 
			},
			{
				"x": -0.6537951272,
				"y": 3.0241068828,
				"z": -0.3372866094,
				"element": "H" 
			},
			{
				"x": 0.4857475348,
				"y": 2.5193920373,
				"z": 0.9329241549,
				"element": "H" 
			},
			{
				"x": 0.5477908261,
				"y": 1.5716101149,
				"z": -1.9151592612,
				"element": "H" 
			}
		],
		 "valence_orbital": [ 
			{
				"type": "occ",
				"energy": -0.30581,
				"method": "rhf"
			},
			{
				"type": "occ",
				"energy": -0.28705,
				"method": "rhf"
			},
			{
				"type": "occ",
				"energy": -0.25542,
				"method": "rhf"
			},
			{
				"type": "occ",
				"energy": -0.22986,
				"method": "rhf"
			},
			{
				"type": "occ",
				"energy": -0.19825,
				"method": "rhf"
			},
			{
				"type": "unocc",
				"energy": -0.01247,
				"method": "rhf"
			},
			{
				"type": "unocc",
				"energy": -0.00397,
				"method": "rhf"
			},
			{
				"type": "unocc",
				"energy": 0.03575,
				"method": "rhf"
			},
			{
				"type": "unocc",
				"energy": 0.08236,
				"method": "rhf"
			},
			{
				"type": "unocc",
				"energy": 0.09214,
				"method": "rhf"
			}
		],
		"cosmo_sigma_profile": { 
			"-0.025": 0.0,
			"-0.024": 0.0,
			"-0.023": 0.0,
			"-0.022": 0.0,
			"-0.021": 0.0,
			"-0.02": 0.0,
			"-0.019": 0.0,
			"-0.018": 0.0,
			"-0.017": 0.0,
			"-0.016": 0.0,
			"-0.015": 0.442707547053,
			"-0.014": 1.13352339678,
			"-0.013": 1.43379071106,
			"-0.012": 1.27495898932,
			"-0.011": 1.1166638678,
			"-0.01": 1.10888901361,
			"-0.009": 0.934811190556,
			"-0.008": 1.23835407037,
			"-0.007": 1.93275571694,
			"-0.006": 6.80670308356,
			"-0.005": 16.7267616374,
			"-0.004": 22.427805724,
			"-0.003": 21.9997021077,
			"-0.002": 18.1363315065,
			"-0.001": 18.4269110715,
			"0.0": 10.2065705274,
			"0.001": 9.18641105885,
			"0.002": 10.5316660663,
			"0.003": 9.50701830944,
			"0.004": 8.92913005718,
			"0.005": 9.75219896918,
			"0.006": 9.65198793832,
			"0.007": 3.3539734639,
			"0.008": 1.88460864361,
			"0.009": 1.78704087649,
			"0.01": 1.98845508801,
			"0.011": 1.93663663595,
			"0.012": 2.98013026033,
			"0.013": 5.87124829445,
			"0.014": 2.53457359739,
			"0.015": 0.0535330870593,
			"0.016": 0.0,
			"0.017": 0.0,
			"0.018": 0.0,
			"0.019": 0.0,
			"0.02": 0.0,
			"0.021": 0.0,
			"0.022": 0.0,
			"0.023": 0.0,
			"0.024": 0.0,
			"0.025": 0.0
		}
	}
}
