{
	 "smiles": "OC(=O)C1=C(N(N=C1)C1=NN=C(Cl)C=C1)C(F)(F)F", 
	 "Tm": 373.15, 
	 "num_atms": 23, 
	 "gaussian": { 
		 "optdone": 1, 
		 "sigma_profile": "yes", 
		 "theory": "DFT", 
		 "functional": "B3LYP", 
		 "basiset": "6-31G**", 
		 "properties": { 
			 "R2extent": 6910.657, 
			 "electric_dipole_moment_norm": 4.83014391608, 
			 "electric_quadrupole_moment_norm": 17.7983630539, 
			 "total_energy": -1474.4672748, 
			 "HOMO_LUMO_gap": 0.18498, 
			 "cosmo_polarized_energy": -17.43, 
			 "cosmo_cavitation_energy": 32.19, 
			 "cosmo_dispersion_energy": -23.27, 
			 "cosmo_repulsion_energy": 1.71, 
			 "cosmo_total_nonelectrostatic_energy": 10.63, 
			 "SMD_solvation_energy": 5.46 
		},
		"coords": [
			{
				"x": -4.8257673983,
				"y": -1.0737933741,
				"z": 0.6097884447,
				"element": "O" 
			},
			{
				"x": -4.1112524597,
				"y": 0.0591771038,
				"z": 0.7046597819,
				"element": "C" 
			},
			{
				"x": -4.6607285315,
				"y": 1.1133233713,
				"z": 0.9357209779,
				"element": "O" 
			},
			{
				"x": -2.6286063796,
				"y": 0.0377908405,
				"z": 0.4815723291,
				"element": "C" 
			},
			{
				"x": -1.6500933447,
				"y": -0.9107267054,
				"z": 0.1806595671,
				"element": "C" 
			},
			{
				"x": -0.4685021268,
				"y": -0.2172132323,
				"z": 0.0511620263,
				"element": "N" 
			},
			{
				"x": -0.6330081632,
				"y": 1.1150298709,
				"z": 0.2714674203,
				"element": "N" 
			},
			{
				"x": -1.9173260566,
				"y": 1.2660676834,
				"z": 0.5242509614,
				"element": "C" 
			},
			{
				"x": 0.8214779618,
				"y": -0.6463956769,
				"z": -0.3578085166,
				"element": "C" 
			},
			{
				"x": 0.8602288598,
				"y": -1.6724186104,
				"z": -1.1961056106,
				"element": "N" 
			},
			{
				"x": 2.0365661695,
				"y": -2.1261991255,
				"z": -1.6281789551,
				"element": "N" 
			},
			{
				"x": 3.142511593,
				"y": -1.5147233812,
				"z": -1.233588807,
				"element": "C" 
			},
			{
				"x": 4.6405713743,
				"y": -2.1559557106,
				"z": -1.8540164408,
				"element": "Cl" 
			},
			{
				"x": 3.170771343,
				"y": -0.4077685493,
				"z": -0.3691196851,
				"element": "C" 
			},
			{
				"x": 1.9557770584,
				"y": 0.0460708137,
				"z": 0.0959275206,
				"element": "C" 
			},
			{
				"x": -1.7209763455,
				"y": -2.4125596164,
				"z": 0.0835968614,
				"element": "C" 
			},
			{
				"x": -1.8577076201,
				"y": -2.8570781097,
				"z": -1.1674512146,
				"element": "F" 
			},
			{
				"x": -2.8174670796,
				"y": -2.8644969344,
				"z": 0.7767082564,
				"element": "F" 
			},
			{
				"x": -0.6639299466,
				"y": -3.0058257926,
				"z": 0.6526959048,
				"element": "F" 
			},
			{
				"x": -4.2568529222,
				"y": -1.8511357654,
				"z": 0.5130071433,
				"element": "H" 
			},
			{
				"x": -2.340028389,
				"y": 2.2381788095,
				"z": 0.7313018269,
				"element": "H" 
			},
			{
				"x": 4.1086166586,
				"y": 0.0532526959,
				"z": -0.0827904491,
				"element": "H" 
			},
			{
				"x": 1.8577257449,
				"y": 0.8906993951,
				"z": 0.766140657,
				"element": "H" 
			}
		],
		 "valence_orbital": [ 
			{
				"type": "occ",
				"energy": -0.31761,
				"method": "rhf"
			},
			{
				"type": "occ",
				"energy": -0.30245,
				"method": "rhf"
			},
			{
				"type": "occ",
				"energy": -0.28591,
				"method": "rhf"
			},
			{
				"type": "occ",
				"energy": -0.28098,
				"method": "rhf"
			},
			{
				"type": "occ",
				"energy": -0.27528,
				"method": "rhf"
			},
			{
				"type": "unocc",
				"energy": -0.0903,
				"method": "rhf"
			},
			{
				"type": "unocc",
				"energy": -0.08425,
				"method": "rhf"
			},
			{
				"type": "unocc",
				"energy": -0.04137,
				"method": "rhf"
			},
			{
				"type": "unocc",
				"energy": -0.01467,
				"method": "rhf"
			},
			{
				"type": "unocc",
				"energy": 0.00779,
				"method": "rhf"
			}
		],
		"cosmo_sigma_profile": { 
			"-0.025": 0.0,
			"-0.024": 0.0,
			"-0.023": 0.0,
			"-0.022": 0.0,
			"-0.021": 0.0,
			"-0.02": 0.0,
			"-0.019": 0.0,
			"-0.018": 0.00138135440283,
			"-0.017": 0.0559524520469,
			"-0.016": 0.222349774793,
			"-0.015": 0.31163323131,
			"-0.014": 0.37792785367,
			"-0.013": 0.83485332844,
			"-0.012": 1.12207901394,
			"-0.011": 1.82205408129,
			"-0.01": 5.0564664505,
			"-0.009": 6.61724572161,
			"-0.008": 6.01282868872,
			"-0.007": 7.30403721117,
			"-0.006": 9.92778624151,
			"-0.005": 13.0719334701,
			"-0.004": 18.934406405,
			"-0.003": 20.9225965578,
			"-0.002": 17.4862365216,
			"-0.001": 17.3127971973,
			"0.0": 17.8129875742,
			"0.001": 25.1905371588,
			"0.002": 18.4948047339,
			"0.003": 14.7315277489,
			"0.004": 8.18853282109,
			"0.005": 6.49523754726,
			"0.006": 6.72866706561,
			"0.007": 5.86118547877,
			"0.008": 6.12110620577,
			"0.009": 7.16943853016,
			"0.01": 7.20685421184,
			"0.011": 7.01023251987,
			"0.012": 3.73442401099,
			"0.013": 1.56274614373,
			"0.014": 0.0561724359499,
			"0.015": 0.0,
			"0.016": 0.0,
			"0.017": 0.0,
			"0.018": 0.0,
			"0.019": 0.0,
			"0.02": 0.0,
			"0.021": 0.0,
			"0.022": 0.0,
			"0.023": 0.0,
			"0.024": 0.0,
			"0.025": 0.0
		}
	}
}
