{
	 "smiles": "CCOC1=C(OCC2=CC=NC=C2)C=CC(=C1)C(O)=O", 
	 "Tm": 512.15, 
	 "num_atms": 35, 
	 "gaussian": { 
		 "optdone": 1, 
		 "sigma_profile": "yes", 
		 "theory": "DFT", 
		 "functional": "B3LYP", 
		 "basiset": "6-31G**", 
		 "properties": { 
			 "R2extent": 7766.575, 
			 "electric_dipole_moment_norm": 5.3771971407, 
			 "electric_quadrupole_moment_norm": 39.1489774808, 
			 "total_energy": -936.265015343, 
			 "HOMO_LUMO_gap": 0.18151, 
			 "cosmo_polarized_energy": -22.86, 
			 "cosmo_cavitation_energy": 39.55, 
			 "cosmo_dispersion_energy": -27.58, 
			 "cosmo_repulsion_energy": 2.15, 
			 "cosmo_total_nonelectrostatic_energy": 14.12, 
			 "SMD_solvation_energy": 7.04 
		},
		"coords": [
			{
				"x": -1.1995742512,
				"y": -4.1453004595,
				"z": -1.7535510227,
				"element": "C" 
			},
			{
				"x": -0.9391076278,
				"y": -2.8000120966,
				"z": -2.4235383938,
				"element": "C" 
			},
			{
				"x": -0.9199598,
				"y": -1.7154786226,
				"z": -1.4911884553,
				"element": "O" 
			},
			{
				"x": 0.199100271,
				"y": -1.4678995703,
				"z": -0.7584497802,
				"element": "C" 
			},
			{
				"x": 0.0986117621,
				"y": -0.3738199418,
				"z": 0.1429930132,
				"element": "C" 
			},
			{
				"x": -1.1134288173,
				"y": 0.2500150603,
				"z": 0.1571257412,
				"element": "O" 
			},
			{
				"x": -1.2645343508,
				"y": 1.4544381447,
				"z": 0.9008418595,
				"element": "C" 
			},
			{
				"x": -1.4711504421,
				"y": 1.2396098174,
				"z": 2.3870959481,
				"element": "C" 
			},
			{
				"x": -2.0272396515,
				"y": 0.0587812856,
				"z": 2.8850903073,
				"element": "C" 
			},
			{
				"x": -2.2398249389,
				"y": -0.0559340522,
				"z": 4.2590829654,
				"element": "C" 
			},
			{
				"x": -1.9484525237,
				"y": 0.9053262779,
				"z": 5.1449063397,
				"element": "N" 
			},
			{
				"x": -1.4183553736,
				"y": 2.0337451946,
				"z": 4.6578006236,
				"element": "C" 
			},
			{
				"x": -1.1592729009,
				"y": 2.2481323737,
				"z": 3.3035545868,
				"element": "C" 
			},
			{
				"x": 1.2009801866,
				"y": -0.0089713191,
				"z": 0.9156149968,
				"element": "C" 
			},
			{
				"x": 2.4058155718,
				"y": -0.7045091426,
				"z": 0.8034478633,
				"element": "C" 
			},
			{
				"x": 2.5124306296,
				"y": -1.7897903558,
				"z": -0.063282446,
				"element": "C" 
			},
			{
				"x": 1.40184718,
				"y": -2.1635648515,
				"z": -0.8462812719,
				"element": "C" 
			},
			{
				"x": 3.8240828113,
				"y": -2.501900056,
				"z": -0.1374796417,
				"element": "C" 
			},
			{
				"x": 3.8003483099,
				"y": -3.7778636827,
				"z": -0.6213108922,
				"element": "O" 
			},
			{
				"x": 4.8747262916,
				"y": -2.0103432588,
				"z": 0.203495964,
				"element": "O" 
			},
			{
				"x": -2.1409205657,
				"y": -4.1145590013,
				"z": -1.1980759939,
				"element": "H" 
			},
			{
				"x": -1.2711853755,
				"y": -4.9328704769,
				"z": -2.5109015129,
				"element": "H" 
			},
			{
				"x": -0.4031527468,
				"y": -4.4156187861,
				"z": -1.0546326156,
				"element": "H" 
			},
			{
				"x": -1.7575589322,
				"y": -2.5530682361,
				"z": -3.104997599,
				"element": "H" 
			},
			{
				"x": -0.0149604897,
				"y": -2.8113621599,
				"z": -3.0157975058,
				"element": "H" 
			},
			{
				"x": -0.4198400096,
				"y": 2.1314167096,
				"z": 0.7197282953,
				"element": "H" 
			},
			{
				"x": -2.1574948962,
				"y": 1.9233171202,
				"z": 0.473355342,
				"element": "H" 
			},
			{
				"x": -2.2825141777,
				"y": -0.7543179436,
				"z": 2.2139521824,
				"element": "H" 
			},
			{
				"x": -2.6680867672,
				"y": -0.9693039571,
				"z": 4.6685600868,
				"element": "H" 
			},
			{
				"x": -1.1816467556,
				"y": 2.8068385976,
				"z": 5.3869383442,
				"element": "H" 
			},
			{
				"x": -0.7197349267,
				"y": 3.1868327068,
				"z": 2.9756828586,
				"element": "H" 
			},
			{
				"x": 1.1238602711,
				"y": 0.8088412236,
				"z": 1.6214397921,
				"element": "H" 
			},
			{
				"x": 3.2680207708,
				"y": -0.419779768,
				"z": 1.3953524331,
				"element": "H" 
			},
			{
				"x": 1.4948262802,
				"y": -2.9671758749,
				"z": -1.5681792267,
				"element": "H" 
			},
			{
				"x": 2.8880459848,
				"y": -4.0960508987,
				"z": -0.6583931859,
				"element": "H" 
			}
		],
		 "valence_orbital": [ 
			{
				"type": "occ",
				"energy": -0.27001,
				"method": "rhf"
			},
			{
				"type": "occ",
				"energy": -0.26764,
				"method": "rhf"
			},
			{
				"type": "occ",
				"energy": -0.26006,
				"method": "rhf"
			},
			{
				"type": "occ",
				"energy": -0.25729,
				"method": "rhf"
			},
			{
				"type": "occ",
				"energy": -0.22217,
				"method": "rhf"
			},
			{
				"type": "unocc",
				"energy": -0.04066,
				"method": "rhf"
			},
			{
				"type": "unocc",
				"energy": -0.03412,
				"method": "rhf"
			},
			{
				"type": "unocc",
				"energy": -0.02065,
				"method": "rhf"
			},
			{
				"type": "unocc",
				"energy": -0.00993,
				"method": "rhf"
			},
			{
				"type": "unocc",
				"energy": 0.04855,
				"method": "rhf"
			}
		],
		"cosmo_sigma_profile": { 
			"-0.025": 0.0,
			"-0.024": 0.0,
			"-0.023": 0.0,
			"-0.022": 0.0,
			"-0.021": 0.0,
			"-0.02": 0.0,
			"-0.019": 0.0,
			"-0.018": 0.025416128839,
			"-0.017": 0.850350793425,
			"-0.016": 1.42022368131,
			"-0.015": 0.998633617272,
			"-0.014": 0.775350055286,
			"-0.013": 1.06753195873,
			"-0.012": 1.08510249116,
			"-0.011": 1.55903472803,
			"-0.01": 0.993058316667,
			"-0.009": 1.49029871836,
			"-0.008": 6.10586115404,
			"-0.007": 11.8516990497,
			"-0.006": 20.8133071309,
			"-0.005": 23.0194137096,
			"-0.004": 24.2466762259,
			"-0.003": 23.0255378262,
			"-0.002": 20.5097401259,
			"-0.001": 18.8363825239,
			"0.0": 21.9898336124,
			"0.001": 21.6279512139,
			"0.002": 26.5727842463,
			"0.003": 17.4996729823,
			"0.004": 10.7416356885,
			"0.005": 6.38073602652,
			"0.006": 4.63957168407,
			"0.007": 5.02102486988,
			"0.008": 5.803473334,
			"0.009": 5.66135896033,
			"0.01": 6.84938267617,
			"0.011": 7.26017610392,
			"0.012": 7.97001572684,
			"0.013": 4.63075322435,
			"0.014": 1.74252698212,
			"0.015": 1.02668982222,
			"0.016": 0.905721817538,
			"0.017": 0.301265320497,
			"0.018": 0.0,
			"0.019": 0.0,
			"0.02": 0.0,
			"0.021": 0.0,
			"0.022": 0.0,
			"0.023": 0.0,
			"0.024": 0.0,
			"0.025": 0.0
		}
	}
}
