{
	 "smiles": "COCC1=CC=CC=C1", 
	 "Tm": 220.65, 
	 "num_atms": 19, 
	 "gaussian": { 
		 "optdone": 1, 
		 "sigma_profile": "yes", 
		 "theory": "DFT", 
		 "functional": "B3LYP", 
		 "basiset": "6-31G**", 
		 "properties": { 
			 "R2extent": 1329.3079, 
			 "electric_dipole_moment_norm": 1.12927937199, 
			 "electric_quadrupole_moment_norm": 4.05113723169, 
			 "total_energy": -386.085524447, 
			 "HOMO_LUMO_gap": 0.23952, 
			 "cosmo_polarized_energy": -5.05, 
			 "cosmo_cavitation_energy": 22.05, 
			 "cosmo_dispersion_energy": -16.16, 
			 "cosmo_repulsion_energy": 1.34, 
			 "cosmo_total_nonelectrostatic_energy": 7.22, 
			 "SMD_solvation_energy": 4.37 
		},
		"coords": [
			{
				"x": 1.1808900366,
				"y": -2.3022519642,
				"z": 1.5842643314,
				"element": "C" 
			},
			{
				"x": -0.1902040815,
				"y": -2.2373342906,
				"z": 1.2352717065,
				"element": "O" 
			},
			{
				"x": -0.7381488453,
				"y": -0.9348066786,
				"z": 1.3471196792,
				"element": "C" 
			},
			{
				"x": -0.2697224225,
				"y": 0.0307443393,
				"z": 0.2716221841,
				"element": "C" 
			},
			{
				"x": -0.0887644137,
				"y": -0.414896177,
				"z": -1.0442810815,
				"element": "C" 
			},
			{
				"x": 0.2997468114,
				"y": 0.4743536365,
				"z": -2.0458296109,
				"element": "C" 
			},
			{
				"x": 0.5063149267,
				"y": 1.8236118489,
				"z": -1.7463998637,
				"element": "C" 
			},
			{
				"x": 0.3291275596,
				"y": 2.2755040019,
				"z": -0.4380327008,
				"element": "C" 
			},
			{
				"x": -0.0505448756,
				"y": 1.3808083767,
				"z": 0.564967781,
				"element": "C" 
			},
			{
				"x": 1.8068793508,
				"y": -1.6856516092,
				"z": 0.9247055013,
				"element": "H" 
			},
			{
				"x": 1.3464525255,
				"y": -1.9780159866,
				"z": 2.6238128745,
				"element": "H" 
			},
			{
				"x": 1.485259036,
				"y": -3.3472297628,
				"z": 1.4881050285,
				"element": "H" 
			},
			{
				"x": -0.5325227312,
				"y": -0.5094034241,
				"z": 2.3434819851,
				"element": "H" 
			},
			{
				"x": -1.8233258966,
				"y": -1.0757888001,
				"z": 1.2721297151,
				"element": "H" 
			},
			{
				"x": -0.246285351,
				"y": -1.4657429895,
				"z": -1.2690040576,
				"element": "H" 
			},
			{
				"x": 0.4400295127,
				"y": 0.1157167394,
				"z": -3.0619199126,
				"element": "H" 
			},
			{
				"x": 0.8072497173,
				"y": 2.5163434423,
				"z": -2.5272028937,
				"element": "H" 
			},
			{
				"x": 0.4949926785,
				"y": 3.3214759193,
				"z": -0.1952398315,
				"element": "H" 
			},
			{
				"x": -0.1774235378,
				"y": 1.7356633786,
				"z": 1.5855291657,
				"element": "H" 
			}
		],
		 "valence_orbital": [ 
			{
				"type": "occ",
				"energy": -0.33919,
				"method": "rhf"
			},
			{
				"type": "occ",
				"energy": -0.30946,
				"method": "rhf"
			},
			{
				"type": "occ",
				"energy": -0.25683,
				"method": "rhf"
			},
			{
				"type": "occ",
				"energy": -0.24821,
				"method": "rhf"
			},
			{
				"type": "occ",
				"energy": -0.24177,
				"method": "rhf"
			},
			{
				"type": "unocc",
				"energy": -0.00225,
				"method": "rhf"
			},
			{
				"type": "unocc",
				"energy": 0.00062,
				"method": "rhf"
			},
			{
				"type": "unocc",
				"energy": 0.09616,
				"method": "rhf"
			},
			{
				"type": "unocc",
				"energy": 0.10606,
				"method": "rhf"
			},
			{
				"type": "unocc",
				"energy": 0.13164,
				"method": "rhf"
			}
		],
		"cosmo_sigma_profile": { 
			"-0.025": 0.0,
			"-0.024": 0.0,
			"-0.023": 0.0,
			"-0.022": 0.0,
			"-0.021": 0.0,
			"-0.02": 0.0,
			"-0.019": 0.0,
			"-0.018": 0.0,
			"-0.017": 0.0,
			"-0.016": 0.0,
			"-0.015": 0.0,
			"-0.014": 0.0,
			"-0.013": 0.0,
			"-0.012": 0.0,
			"-0.011": 0.0,
			"-0.01": 0.0,
			"-0.009": 0.0,
			"-0.008": 0.0,
			"-0.007": 0.0,
			"-0.006": 2.79321360838,
			"-0.005": 14.5938604464,
			"-0.004": 18.5528461629,
			"-0.003": 24.4789645003,
			"-0.002": 19.8778682693,
			"-0.001": 15.3162228008,
			"0.0": 11.8199098779,
			"0.001": 10.1533039837,
			"0.002": 10.3265510204,
			"0.003": 8.94038561977,
			"0.004": 9.13785604075,
			"0.005": 9.30840671449,
			"0.006": 9.32718052477,
			"0.007": 2.46015016068,
			"0.008": 1.40599580504,
			"0.009": 0.773916388044,
			"0.01": 1.17616473396,
			"0.011": 0.966595989186,
			"0.012": 1.12003524286,
			"0.013": 1.52221912546,
			"0.014": 0.31759763391,
			"0.015": 0.0,
			"0.016": 0.0,
			"0.017": 0.0,
			"0.018": 0.0,
			"0.019": 0.0,
			"0.02": 0.0,
			"0.021": 0.0,
			"0.022": 0.0,
			"0.023": 0.0,
			"0.024": 0.0,
			"0.025": 0.0
		}
	}
}
