{
	 "smiles": "N#CCCC#N", 
	 "Tm": 328.15, 
	 "num_atms": 10, 
	 "gaussian": { 
		 "optdone": 1, 
		 "sigma_profile": "yes", 
		 "theory": "DFT", 
		 "functional": "B3LYP", 
		 "basiset": "6-31G**", 
		 "properties": { 
			 "R2extent": 680.4633, 
			 "electric_dipole_moment_norm": 5.45116146339, 
			 "electric_quadrupole_moment_norm": 8.02713077943, 
			 "total_energy": -264.298298867, 
			 "HOMO_LUMO_gap": 0.34128, 
			 "cosmo_polarized_energy": -16.91, 
			 "cosmo_cavitation_energy": 16.06, 
			 "cosmo_dispersion_energy": -10.59, 
			 "cosmo_repulsion_energy": 0.95, 
			 "cosmo_total_nonelectrostatic_energy": 6.42, 
			 "SMD_solvation_energy": 5.8 
		},
		"coords": [
			{
				"x": -1.503152794,
				"y": -1.1537271166,
				"z": -1.4848754151,
				"element": "N" 
			},
			{
				"x": -0.6420446855,
				"y": -0.4867215521,
				"z": -1.0858278812,
				"element": "C" 
			},
			{
				"x": 0.4316173606,
				"y": 0.3691761986,
				"z": -0.5753193946,
				"element": "C" 
			},
			{
				"x": 0.5313527832,
				"y": 0.3625259456,
				"z": 0.9709623752,
				"element": "C" 
			},
			{
				"x": 0.9539996712,
				"y": -0.9306414997,
				"z": 1.5141793344,
				"element": "C" 
			},
			{
				"x": 1.3034669235,
				"y": -1.9518774173,
				"z": 1.9391786422,
				"element": "N" 
			},
			{
				"x": 0.2462904692,
				"y": 1.3952410056,
				"z": -0.9106578272,
				"element": "H" 
			},
			{
				"x": 1.3816917347,
				"y": 0.0493010405,
				"z": -1.0152964322,
				"element": "H" 
			},
			{
				"x": 1.2576638382,
				"y": 1.1222042408,
				"z": 1.2791238389,
				"element": "H" 
			},
			{
				"x": -0.4327853013,
				"y": 0.6360191547,
				"z": 1.4116327596,
				"element": "H" 
			}
		],
		 "valence_orbital": [ 
			{
				"type": "occ",
				"energy": -0.37066,
				"method": "rhf"
			},
			{
				"type": "occ",
				"energy": -0.3519,
				"method": "rhf"
			},
			{
				"type": "occ",
				"energy": -0.3418,
				"method": "rhf"
			},
			{
				"type": "occ",
				"energy": -0.33891,
				"method": "rhf"
			},
			{
				"type": "occ",
				"energy": -0.33554,
				"method": "rhf"
			},
			{
				"type": "unocc",
				"energy": 0.00574,
				"method": "rhf"
			},
			{
				"type": "unocc",
				"energy": 0.0061,
				"method": "rhf"
			},
			{
				"type": "unocc",
				"energy": 0.0169,
				"method": "rhf"
			},
			{
				"type": "unocc",
				"energy": 0.03368,
				"method": "rhf"
			},
			{
				"type": "unocc",
				"energy": 0.0908,
				"method": "rhf"
			}
		],
		"cosmo_sigma_profile": { 
			"-0.025": 0.0,
			"-0.024": 0.0,
			"-0.023": 0.0,
			"-0.022": 0.0,
			"-0.021": 0.0,
			"-0.02": 0.0,
			"-0.019": 0.0,
			"-0.018": 0.0,
			"-0.017": 0.0,
			"-0.016": 0.0,
			"-0.015": 0.0,
			"-0.014": 0.0,
			"-0.013": 0.0,
			"-0.012": 0.0,
			"-0.011": 0.0,
			"-0.01": 8.31033454105,
			"-0.009": 16.420340884,
			"-0.008": 9.70942762985,
			"-0.007": 7.68034337283,
			"-0.006": 8.0409054758,
			"-0.005": 3.62788729316,
			"-0.004": 2.54874878368,
			"-0.003": 2.523219884,
			"-0.002": 2.40239868494,
			"-0.001": 3.70769602805,
			"0.0": 3.43183562679,
			"0.001": 3.52897322871,
			"0.002": 3.14814723917,
			"0.003": 3.66855949319,
			"0.004": 3.39432331829,
			"0.005": 5.31166039264,
			"0.006": 4.51829058274,
			"0.007": 5.70429554832,
			"0.008": 6.97949787527,
			"0.009": 6.51267934149,
			"0.01": 6.47742237467,
			"0.011": 4.94225672653,
			"0.012": 4.73800492468,
			"0.013": 2.55518265019,
			"0.014": 0.0112700369785,
			"0.015": 0.0,
			"0.016": 0.0,
			"0.017": 0.0,
			"0.018": 0.0,
			"0.019": 0.0,
			"0.02": 0.0,
			"0.021": 0.0,
			"0.022": 0.0,
			"0.023": 0.0,
			"0.024": 0.0,
			"0.025": 0.0
		}
	}
}
