{
	 "smiles": "COC1=CC=C(C=C1)C(=O)NC1=CC(C=O)=CC=C1", 
	 "Tm": 402.15, 
	 "num_atms": 32, 
	 "gaussian": { 
		 "optdone": 1, 
		 "sigma_profile": "yes", 
		 "theory": "DFT", 
		 "functional": "B3LYP", 
		 "basiset": "6-31G**", 
		 "properties": { 
			 "R2extent": 8616.8811, 
			 "electric_dipole_moment_norm": 7.91854670189, 
			 "electric_quadrupole_moment_norm": 18.5019586906, 
			 "total_energy": -859.855052384, 
			 "HOMO_LUMO_gap": 0.16741, 
			 "cosmo_polarized_energy": -21.2, 
			 "cosmo_cavitation_energy": 37.34, 
			 "cosmo_dispersion_energy": -27.0, 
			 "cosmo_repulsion_energy": 2.04, 
			 "cosmo_total_nonelectrostatic_energy": 12.38, 
			 "SMD_solvation_energy": 8.54 
		},
		"coords": [
			{
				"x": 0.5835119555,
				"y": -0.4307457613,
				"z": -6.267359963,
				"element": "C" 
			},
			{
				"x": 1.1089538796,
				"y": -1.3938019082,
				"z": -5.364712831,
				"element": "O" 
			},
			{
				"x": 0.8181252946,
				"y": -1.2718908718,
				"z": -4.0425880829,
				"element": "C" 
			},
			{
				"x": 0.0290080928,
				"y": -0.2537868536,
				"z": -3.4914942419,
				"element": "C" 
			},
			{
				"x": -0.2071129928,
				"y": -0.2350643199,
				"z": -2.1157802015,
				"element": "C" 
			},
			{
				"x": 0.3288899196,
				"y": -1.2147570101,
				"z": -1.2721786141,
				"element": "C" 
			},
			{
				"x": 1.1389089584,
				"y": -2.2148351538,
				"z": -1.839354771,
				"element": "C" 
			},
			{
				"x": 1.3752093542,
				"y": -2.2518270367,
				"z": -3.2027034359,
				"element": "C" 
			},
			{
				"x": 0.1339765251,
				"y": -1.2515392158,
				"z": 0.212557494,
				"element": "C" 
			},
			{
				"x": 0.9109826261,
				"y": -1.8467133826,
				"z": 0.9496415844,
				"element": "O" 
			},
			{
				"x": -0.988353173,
				"y": -0.5835202874,
				"z": 0.6741406712,
				"element": "N" 
			},
			{
				"x": -1.4264724781,
				"y": -0.4161959577,
				"z": 2.0001610762,
				"element": "C" 
			},
			{
				"x": -0.6999252166,
				"y": -0.8401284945,
				"z": 3.1192159884,
				"element": "C" 
			},
			{
				"x": -1.2199519637,
				"y": -0.6121318587,
				"z": 4.4009077431,
				"element": "C" 
			},
			{
				"x": -0.4552664214,
				"y": -1.0569835024,
				"z": 5.5918557616,
				"element": "C" 
			},
			{
				"x": 0.6216659484,
				"y": -1.6187335824,
				"z": 5.5593772742,
				"element": "O" 
			},
			{
				"x": -2.4506433052,
				"y": 0.0288378062,
				"z": 4.58264346,
				"element": "C" 
			},
			{
				"x": -3.1717100755,
				"y": 0.4490519426,
				"z": 3.4659358089,
				"element": "C" 
			},
			{
				"x": -2.6645270388,
				"y": 0.2296854283,
				"z": 2.189152895,
				"element": "C" 
			},
			{
				"x": -0.5137526947,
				"y": -0.4277139676,
				"z": -6.2603080714,
				"element": "H" 
			},
			{
				"x": 0.9356455493,
				"y": -0.7238997522,
				"z": -7.2571530618,
				"element": "H" 
			},
			{
				"x": 0.9486365866,
				"y": 0.5782641725,
				"z": -6.0382999371,
				"element": "H" 
			},
			{
				"x": -0.3904127134,
				"y": 0.527421326,
				"z": -4.1137117843,
				"element": "H" 
			},
			{
				"x": -0.7867869145,
				"y": 0.5902708364,
				"z": -1.7103381114,
				"element": "H" 
			},
			{
				"x": 1.5751993625,
				"y": -2.9568919375,
				"z": -1.1795670289,
				"element": "H" 
			},
			{
				"x": 1.9907741933,
				"y": -3.0255340209,
				"z": -3.6493904411,
				"element": "H" 
			},
			{
				"x": -1.6327433018,
				"y": -0.2605288726,
				"z": -0.0318043885,
				"element": "H" 
			},
			{
				"x": 0.2490221192,
				"y": -1.3450688763,
				"z": 3.0064944142,
				"element": "H" 
			},
			{
				"x": -0.9523497918,
				"y": -0.8329413626,
				"z": 6.5630731626,
				"element": "H" 
			},
			{
				"x": -2.8345242132,
				"y": 0.1935361812,
				"z": 5.5860657605,
				"element": "H" 
			},
			{
				"x": -4.1287727802,
				"y": 0.9481871429,
				"z": 3.5835783597,
				"element": "H" 
			},
			{
				"x": -3.2318052903,
				"y": 0.5612791505,
				"z": 1.3218435115,
				"element": "H" 
			}
		],
		 "valence_orbital": [ 
			{
				"type": "occ",
				"energy": -0.26101,
				"method": "rhf"
			},
			{
				"type": "occ",
				"energy": -0.25759,
				"method": "rhf"
			},
			{
				"type": "occ",
				"energy": -0.24783,
				"method": "rhf"
			},
			{
				"type": "occ",
				"energy": -0.23701,
				"method": "rhf"
			},
			{
				"type": "occ",
				"energy": -0.22552,
				"method": "rhf"
			},
			{
				"type": "unocc",
				"energy": -0.05811,
				"method": "rhf"
			},
			{
				"type": "unocc",
				"energy": -0.04064,
				"method": "rhf"
			},
			{
				"type": "unocc",
				"energy": -0.01596,
				"method": "rhf"
			},
			{
				"type": "unocc",
				"energy": 0.0009,
				"method": "rhf"
			},
			{
				"type": "unocc",
				"energy": 0.04194,
				"method": "rhf"
			}
		],
		"cosmo_sigma_profile": { 
			"-0.025": 0.0,
			"-0.024": 0.0,
			"-0.023": 0.0,
			"-0.022": 0.0,
			"-0.021": 0.0,
			"-0.02": 0.0,
			"-0.019": 0.0,
			"-0.018": 0.0,
			"-0.017": 0.0,
			"-0.016": 0.0870203063225,
			"-0.015": 1.39454922715,
			"-0.014": 0.893509683135,
			"-0.013": 1.77696620703,
			"-0.012": 1.16651363791,
			"-0.011": 1.25856233987,
			"-0.01": 1.66702019168,
			"-0.009": 1.9422654132,
			"-0.008": 2.802422596,
			"-0.007": 11.6234029062,
			"-0.006": 21.9942753027,
			"-0.005": 23.4729101152,
			"-0.004": 21.3558464998,
			"-0.003": 18.6497141869,
			"-0.002": 15.2115188833,
			"-0.001": 15.4277779891,
			"0.0": 16.177986692,
			"0.001": 20.2524040276,
			"0.002": 24.4081490963,
			"0.003": 30.1332316902,
			"0.004": 20.9933730101,
			"0.005": 6.72398226832,
			"0.006": 4.54973351613,
			"0.007": 5.07317875575,
			"0.008": 5.3499409006,
			"0.009": 4.68727085148,
			"0.01": 5.42671477964,
			"0.011": 6.0791491101,
			"0.012": 5.88055283599,
			"0.013": 2.86694236471,
			"0.014": 0.122126856736,
			"0.015": 0.0,
			"0.016": 0.0,
			"0.017": 0.0,
			"0.018": 0.0,
			"0.019": 0.0,
			"0.02": 0.0,
			"0.021": 0.0,
			"0.022": 0.0,
			"0.023": 0.0,
			"0.024": 0.0,
			"0.025": 0.0
		}
	}
}
