{
	 "smiles": "OC(=O)CCN1C(=O)CC2=C(C=CC=C2)C1=O", 
	 "Tm": 422.15, 
	 "num_atms": 28, 
	 "gaussian": { 
		 "optdone": 1, 
		 "sigma_profile": "yes", 
		 "theory": "DFT", 
		 "functional": "B3LYP", 
		 "basiset": "6-31G**", 
		 "properties": { 
			 "R2extent": 4210.151, 
			 "electric_dipole_moment_norm": 4.6851230955, 
			 "electric_quadrupole_moment_norm": 11.7208233717, 
			 "total_energy": -819.609146182, 
			 "HOMO_LUMO_gap": 0.20322, 
			 "cosmo_polarized_energy": -17.36, 
			 "cosmo_cavitation_energy": 32.02, 
			 "cosmo_dispersion_energy": -22.69, 
			 "cosmo_repulsion_energy": 1.74, 
			 "cosmo_total_nonelectrostatic_energy": 11.07, 
			 "SMD_solvation_energy": 7.19 
		},
		"coords": [
			{
				"x": 2.7233563945,
				"y": -0.1875307173,
				"z": -2.0752131416,
				"element": "O" 
			},
			{
				"x": 2.157630576,
				"y": -0.7860391328,
				"z": -3.1561172996,
				"element": "C" 
			},
			{
				"x": 2.6733089576,
				"y": -1.7212097765,
				"z": -3.7246759201,
				"element": "O" 
			},
			{
				"x": 0.8423968008,
				"y": -0.1399547884,
				"z": -3.5328149881,
				"element": "C" 
			},
			{
				"x": -0.3367779769,
				"y": -0.565517273,
				"z": -2.6337101744,
				"element": "C" 
			},
			{
				"x": -0.2187568733,
				"y": -0.0976591862,
				"z": -1.2436115567,
				"element": "N" 
			},
			{
				"x": -0.5406545865,
				"y": 1.2365203855,
				"z": -0.996399953,
				"element": "C" 
			},
			{
				"x": -0.9093317675,
				"y": 1.9688357816,
				"z": -1.9003233265,
				"element": "O" 
			},
			{
				"x": -0.4218303716,
				"y": 1.7568573407,
				"z": 0.4237637731,
				"element": "C" 
			},
			{
				"x": 0.02492611,
				"y": 0.7813060271,
				"z": 1.4771135977,
				"element": "C" 
			},
			{
				"x": 0.346750266,
				"y": -0.5345518579,
				"z": 1.1246808514,
				"element": "C" 
			},
			{
				"x": 0.7719087405,
				"y": -1.4494283478,
				"z": 2.100021608,
				"element": "C" 
			},
			{
				"x": 0.8746693709,
				"y": -1.0537566515,
				"z": 3.4275815931,
				"element": "C" 
			},
			{
				"x": 0.5536076793,
				"y": 0.261011443,
				"z": 3.7856365156,
				"element": "C" 
			},
			{
				"x": 0.1330074564,
				"y": 1.1699145622,
				"z": 2.8174202994,
				"element": "C" 
			},
			{
				"x": 0.2514795094,
				"y": -1.0106714242,
				"z": -0.2792456676,
				"element": "C" 
			},
			{
				"x": 0.5504284799,
				"y": -2.1496363172,
				"z": -0.605901943,
				"element": "O" 
			},
			{
				"x": 3.5281433962,
				"y": -0.6974574942,
				"z": -1.8812469789,
				"element": "H" 
			},
			{
				"x": 0.616253189,
				"y": -0.4452571181,
				"z": -4.5570497801,
				"element": "H" 
			},
			{
				"x": 0.9372043728,
				"y": 0.9485110213,
				"z": -3.501138199,
				"element": "H" 
			},
			{
				"x": -1.2509862479,
				"y": -0.1340770611,
				"z": -3.0430198949,
				"element": "H" 
			},
			{
				"x": -0.4202003631,
				"y": -1.6507740792,
				"z": -2.5993165932,
				"element": "H" 
			},
			{
				"x": 0.2610500615,
				"y": 2.6143428508,
				"z": 0.3747750757,
				"element": "H" 
			},
			{
				"x": -1.4005481247,
				"y": 2.1841008204,
				"z": 0.6742621148,
				"element": "H" 
			},
			{
				"x": 1.0119216864,
				"y": -2.4591695995,
				"z": 1.7857113592,
				"element": "H" 
			},
			{
				"x": 1.2020342989,
				"y": -1.7608435219,
				"z": 4.1835241764,
				"element": "H" 
			},
			{
				"x": 0.6317213683,
				"y": 0.5764007861,
				"z": 4.8221308054,
				"element": "H" 
			},
			{
				"x": -0.114212403,
				"y": 2.1898333282,
				"z": 3.1008636467,
				"element": "H" 
			}
		],
		 "valence_orbital": [ 
			{
				"type": "occ",
				"energy": -0.27871,
				"method": "rhf"
			},
			{
				"type": "occ",
				"energy": -0.27056,
				"method": "rhf"
			},
			{
				"type": "occ",
				"energy": -0.26879,
				"method": "rhf"
			},
			{
				"type": "occ",
				"energy": -0.26704,
				"method": "rhf"
			},
			{
				"type": "occ",
				"energy": -0.26366,
				"method": "rhf"
			},
			{
				"type": "unocc",
				"energy": -0.06044,
				"method": "rhf"
			},
			{
				"type": "unocc",
				"energy": -0.02449,
				"method": "rhf"
			},
			{
				"type": "unocc",
				"energy": -0.00928,
				"method": "rhf"
			},
			{
				"type": "unocc",
				"energy": 0.01069,
				"method": "rhf"
			},
			{
				"type": "unocc",
				"energy": 0.0596,
				"method": "rhf"
			}
		],
		"cosmo_sigma_profile": { 
			"-0.025": 0.0,
			"-0.024": 0.0,
			"-0.023": 0.0,
			"-0.022": 0.0,
			"-0.021": 0.0,
			"-0.02": 0.0,
			"-0.019": 0.0,
			"-0.018": 0.498003227709,
			"-0.017": 1.38348954896,
			"-0.016": 0.376289358288,
			"-0.015": 0.821035419518,
			"-0.014": 1.12784061225,
			"-0.013": 0.167897045262,
			"-0.012": 0.528786919203,
			"-0.011": 0.708006094474,
			"-0.01": 0.92331321596,
			"-0.009": 0.36786419092,
			"-0.008": 3.44404381873,
			"-0.007": 9.81981812035,
			"-0.006": 22.2442694836,
			"-0.005": 22.1056667993,
			"-0.004": 21.4702503073,
			"-0.003": 20.5399173665,
			"-0.002": 13.7079779831,
			"-0.001": 12.0351456845,
			"0.0": 12.1941480128,
			"0.001": 13.8228181972,
			"0.002": 15.7860864373,
			"0.003": 16.1956430746,
			"0.004": 12.2928425173,
			"0.005": 5.52589517587,
			"0.006": 4.50322680161,
			"0.007": 4.47630948434,
			"0.008": 5.9042916445,
			"0.009": 4.73438121535,
			"0.01": 5.26141981061,
			"0.011": 9.79018945808,
			"0.012": 9.98961583816,
			"0.013": 1.87547639275,
			"0.014": 0.0249395506375,
			"0.015": 0.0,
			"0.016": 0.0,
			"0.017": 0.0,
			"0.018": 0.0,
			"0.019": 0.0,
			"0.02": 0.0,
			"0.021": 0.0,
			"0.022": 0.0,
			"0.023": 0.0,
			"0.024": 0.0,
			"0.025": 0.0
		}
	}
}
