{
	 "smiles": "CSC1=CC=C(C=NO)C=C1", 
	 "Tm": 388.15, 
	 "num_atms": 20, 
	 "gaussian": { 
		 "optdone": 1, 
		 "sigma_profile": "yes", 
		 "theory": "DFT", 
		 "functional": "B3LYP", 
		 "basiset": "6-31G**", 
		 "properties": { 
			 "R2extent": 2989.382, 
			 "electric_dipole_moment_norm": 1.66625805024, 
			 "electric_quadrupole_moment_norm": 15.7644845783, 
			 "total_energy": -838.376529346, 
			 "HOMO_LUMO_gap": 0.16726, 
			 "cosmo_polarized_energy": -10.37, 
			 "cosmo_cavitation_energy": 25.58, 
			 "cosmo_dispersion_energy": -19.51, 
			 "cosmo_repulsion_energy": 1.51, 
			 "cosmo_total_nonelectrostatic_energy": 7.58, 
			 "SMD_solvation_energy": 4.49 
		},
		"coords": [
			{
				"x": -1.6772203812,
				"y": 0.6897788716,
				"z": 4.2666031127,
				"element": "C" 
			},
			{
				"x": -1.8184266265,
				"y": 1.8406926776,
				"z": 2.8621931673,
				"element": "S" 
			},
			{
				"x": -1.0860011938,
				"y": 0.9473219955,
				"z": 1.510748961,
				"element": "C" 
			},
			{
				"x": -1.0546696679,
				"y": 1.6003667899,
				"z": 0.2658050119,
				"element": "C" 
			},
			{
				"x": -0.5044632082,
				"y": 0.9888011603,
				"z": -0.8521565307,
				"element": "C" 
			},
			{
				"x": 0.0405947039,
				"y": -0.3108845133,
				"z": -0.766836016,
				"element": "C" 
			},
			{
				"x": 0.6467003592,
				"y": -1.0563988055,
				"z": -1.873472438,
				"element": "C" 
			},
			{
				"x": 0.8477064758,
				"y": -0.7932293341,
				"z": -3.1164753579,
				"element": "N" 
			},
			{
				"x": 0.3941448587,
				"y": 0.4757920611,
				"z": -3.5066682008,
				"element": "O" 
			},
			{
				"x": 0.0022958002,
				"y": -0.9520079112,
				"z": 0.4843072137,
				"element": "C" 
			},
			{
				"x": -0.5483645698,
				"y": -0.3433205833,
				"z": 1.6079251861,
				"element": "C" 
			},
			{
				"x": -0.6335788029,
				"y": 0.4632230397,
				"z": 4.4967812232,
				"element": "H" 
			},
			{
				"x": -2.1213307525,
				"y": 1.2106678089,
				"z": 5.1172891321,
				"element": "H" 
			},
			{
				"x": -2.2341677368,
				"y": -0.2327681478,
				"z": 4.087248584,
				"element": "H" 
			},
			{
				"x": -1.4679706412,
				"y": 2.6011992491,
				"z": 0.1752244432,
				"element": "H" 
			},
			{
				"x": -0.4925285895,
				"y": 1.5117768315,
				"z": -1.797392043,
				"element": "H" 
			},
			{
				"x": 1.0142410963,
				"y": -2.0503234799,
				"z": -1.6172187366,
				"element": "H" 
			},
			{
				"x": 0.6253402033,
				"y": 0.4912690317,
				"z": -4.4443971718,
				"element": "H" 
			},
			{
				"x": 0.4146515219,
				"y": -1.9535842548,
				"z": 0.5795685076,
				"element": "H" 
			},
			{
				"x": -0.553352849,
				"y": -0.8807724867,
				"z": 2.549021952,
				"element": "H" 
			}
		],
		 "valence_orbital": [ 
			{
				"type": "occ",
				"energy": -0.30662,
				"method": "rhf"
			},
			{
				"type": "occ",
				"energy": -0.26791,
				"method": "rhf"
			},
			{
				"type": "occ",
				"energy": -0.25726,
				"method": "rhf"
			},
			{
				"type": "occ",
				"energy": -0.25558,
				"method": "rhf"
			},
			{
				"type": "occ",
				"energy": -0.20696,
				"method": "rhf"
			},
			{
				"type": "unocc",
				"energy": -0.0397,
				"method": "rhf"
			},
			{
				"type": "unocc",
				"energy": -0.00566,
				"method": "rhf"
			},
			{
				"type": "unocc",
				"energy": 0.03256,
				"method": "rhf"
			},
			{
				"type": "unocc",
				"energy": 0.05581,
				"method": "rhf"
			},
			{
				"type": "unocc",
				"energy": 0.06543,
				"method": "rhf"
			}
		],
		"cosmo_sigma_profile": { 
			"-0.025": 0.0,
			"-0.024": 0.0,
			"-0.023": 0.0,
			"-0.022": 0.0,
			"-0.021": 0.0,
			"-0.02": 0.0,
			"-0.019": 0.0,
			"-0.018": 0.0460884730916,
			"-0.017": 1.02731977357,
			"-0.016": 0.751857478496,
			"-0.015": 1.20932909101,
			"-0.014": 0.354018875779,
			"-0.013": 0.57830737627,
			"-0.012": 1.32256877138,
			"-0.011": 0.989783256323,
			"-0.01": 0.37186959336,
			"-0.009": 0.293207966897,
			"-0.008": 1.56546403371,
			"-0.007": 8.04205544882,
			"-0.006": 16.2869132153,
			"-0.005": 12.8628890321,
			"-0.004": 14.0242200287,
			"-0.003": 12.7051921503,
			"-0.002": 12.9386027642,
			"-0.001": 9.88249601797,
			"0.0": 9.12170428319,
			"0.001": 9.64206202512,
			"0.002": 13.0456418082,
			"0.003": 17.0952292566,
			"0.004": 22.9032087951,
			"0.005": 12.4320236363,
			"0.006": 7.55637356571,
			"0.007": 6.73235474755,
			"0.008": 4.62729395598,
			"0.009": 2.77564019335,
			"0.01": 1.3666332568,
			"0.011": 1.14857648865,
			"0.012": 0.600605989032,
			"0.013": 1.19670638792,
			"0.014": 0.439810821303,
			"0.015": 0.0,
			"0.016": 0.0,
			"0.017": 0.0,
			"0.018": 0.0,
			"0.019": 0.0,
			"0.02": 0.0,
			"0.021": 0.0,
			"0.022": 0.0,
			"0.023": 0.0,
			"0.024": 0.0,
			"0.025": 0.0
		}
	}
}
