{
	 "smiles": "COC1=CC=C(C=C(/C(O)=O)C(=CC2=CC=C(OC)C=C2)C(O)=O)C=C1", 
	 "Tm": 536.15, 
	 "num_atms": 44, 
	 "gaussian": { 
		 "optdone": 1, 
		 "sigma_profile": "yes", 
		 "theory": "DFT", 
		 "functional": "B3LYP", 
		 "basiset": "6-31G**", 
		 "properties": { 
			 "R2extent": 16057.687, 
			 "electric_dipole_moment_norm": 3.84635797346, 
			 "electric_quadrupole_moment_norm": 40.9725024091, 
			 "total_energy": -1224.2840274, 
			 "HOMO_LUMO_gap": 0.13079, 
			 "cosmo_polarized_energy": -24.52, 
			 "cosmo_cavitation_energy": 49.6, 
			 "cosmo_dispersion_energy": -34.26, 
			 "cosmo_repulsion_energy": 2.6, 
			 "cosmo_total_nonelectrostatic_energy": 17.94, 
			 "SMD_solvation_energy": 11.52 
		},
		"coords": [
			{
				"x": 5.9824206451,
				"y": -4.4592744786,
				"z": 0.227088054,
				"element": "C" 
			},
			{
				"x": 5.9010803271,
				"y": -3.128574182,
				"z": 0.7188680462,
				"element": "O" 
			},
			{
				"x": 4.6930890699,
				"y": -2.5037333451,
				"z": 0.6997364924,
				"element": "C" 
			},
			{
				"x": 3.5030173709,
				"y": -3.0786369718,
				"z": 0.2332196407,
				"element": "C" 
			},
			{
				"x": 2.319098465,
				"y": -2.3445140088,
				"z": 0.2585138014,
				"element": "C" 
			},
			{
				"x": 2.2825775018,
				"y": -1.0219364809,
				"z": 0.7364561539,
				"element": "C" 
			},
			{
				"x": 1.0698014095,
				"y": -0.2020411846,
				"z": 0.7969257142,
				"element": "C" 
			},
			{
				"x": -0.0594973405,
				"y": -0.2660554523,
				"z": 0.0397143038,
				"element": "C" 
			},
			{
				"x": -0.1563527478,
				"y": -1.2143969584,
				"z": -1.1333307973,
				"element": "C" 
			},
			{
				"x": 0.7472731739,
				"y": -0.9948992757,
				"z": -2.1201964255,
				"element": "O" 
			},
			{
				"x": -0.9755454991,
				"y": -2.096261225,
				"z": -1.2495743768,
				"element": "O" 
			},
			{
				"x": -1.228760712,
				"y": 0.5937183705,
				"z": 0.2936672649,
				"element": "C" 
			},
			{
				"x": -2.4483346449,
				"y": 0.3844182483,
				"z": -0.2664645786,
				"element": "C" 
			},
			{
				"x": -3.6687701597,
				"y": 1.1809856798,
				"z": -0.1514092852,
				"element": "C" 
			},
			{
				"x": -4.9074657544,
				"y": 0.5354824863,
				"z": -0.3624556582,
				"element": "C" 
			},
			{
				"x": -6.1085945256,
				"y": 1.2174162951,
				"z": -0.2650970755,
				"element": "C" 
			},
			{
				"x": -6.1152146901,
				"y": 2.5903051558,
				"z": 0.0289452013,
				"element": "C" 
			},
			{
				"x": -7.3425133429,
				"y": 3.1753514524,
				"z": 0.1013703673,
				"element": "O" 
			},
			{
				"x": -7.4137096895,
				"y": 4.5612878483,
				"z": 0.4005704775,
				"element": "C" 
			},
			{
				"x": -4.8985782906,
				"y": 3.262135567,
				"z": 0.2084060936,
				"element": "C" 
			},
			{
				"x": -3.6982858172,
				"y": 2.5603379183,
				"z": 0.115763322,
				"element": "C" 
			},
			{
				"x": -1.0130488561,
				"y": 1.7023292016,
				"z": 1.2903745907,
				"element": "C" 
			},
			{
				"x": -0.2767024738,
				"y": 2.7236842832,
				"z": 0.7724101408,
				"element": "O" 
			},
			{
				"x": -1.4080326621,
				"y": 1.709790714,
				"z": 2.4332346443,
				"element": "O" 
			},
			{
				"x": 3.4894218671,
				"y": -0.4773542026,
				"z": 1.2298898417,
				"element": "C" 
			},
			{
				"x": 4.6741371686,
				"y": -1.1938526053,
				"z": 1.2063430302,
				"element": "C" 
			},
			{
				"x": 7.0279582305,
				"y": -4.7531206354,
				"z": 0.3287461943,
				"element": "H" 
			},
			{
				"x": 5.3560183275,
				"y": -5.1445051412,
				"z": 0.8117766896,
				"element": "H" 
			},
			{
				"x": 5.6911022171,
				"y": -4.5175713985,
				"z": -0.8290618366,
				"element": "H" 
			},
			{
				"x": 3.482429594,
				"y": -4.0968915431,
				"z": -0.1359564583,
				"element": "H" 
			},
			{
				"x": 1.4064744928,
				"y": -2.8294692484,
				"z": -0.0701838894,
				"element": "H" 
			},
			{
				"x": 1.0956215297,
				"y": 0.5561574514,
				"z": 1.57701638,
				"element": "H" 
			},
			{
				"x": 1.333053595,
				"y": -0.2683666621,
				"z": -1.8596713626,
				"element": "H" 
			},
			{
				"x": -2.5528646661,
				"y": -0.5173659164,
				"z": -0.8625094985,
				"element": "H" 
			},
			{
				"x": -4.9157677816,
				"y": -0.526445922,
				"z": -0.5928113873,
				"element": "H" 
			},
			{
				"x": -7.0580716385,
				"y": 0.7146182093,
				"z": -0.4161438969,
				"element": "H" 
			},
			{
				"x": -6.9688383533,
				"y": 4.7870094154,
				"z": 1.3779775892,
				"element": "H" 
			},
			{
				"x": -8.4757079864,
				"y": 4.8098889955,
				"z": 0.4230977898,
				"element": "H" 
			},
			{
				"x": -6.9179522006,
				"y": 5.1673457633,
				"z": -0.368521737,
				"element": "H" 
			},
			{
				"x": -4.8741978976,
				"y": 4.3270783904,
				"z": 0.4064416098,
				"element": "H" 
			},
			{
				"x": -2.7708015186,
				"y": 3.1134165853,
				"z": 0.2132843676,
				"element": "H" 
			},
			{
				"x": -0.1728600255,
				"y": 3.3679568269,
				"z": 1.4946903128,
				"element": "H" 
			},
			{
				"x": 3.4891069784,
				"y": 0.5336335989,
				"z": 1.6294196475,
				"element": "H" 
			},
			{
				"x": 5.6000873106,
				"y": -0.7680816185,
				"z": 1.5784405022,
				"element": "H" 
			}
		],
		 "valence_orbital": [ 
			{
				"type": "occ",
				"energy": -0.26281,
				"method": "rhf"
			},
			{
				"type": "occ",
				"energy": -0.26059,
				"method": "rhf"
			},
			{
				"type": "occ",
				"energy": -0.25396,
				"method": "rhf"
			},
			{
				"type": "occ",
				"energy": -0.22791,
				"method": "rhf"
			},
			{
				"type": "occ",
				"energy": -0.1957,
				"method": "rhf"
			},
			{
				"type": "unocc",
				"energy": -0.06491,
				"method": "rhf"
			},
			{
				"type": "unocc",
				"energy": -0.01449,
				"method": "rhf"
			},
			{
				"type": "unocc",
				"energy": -0.01165,
				"method": "rhf"
			},
			{
				"type": "unocc",
				"energy": -0.00737,
				"method": "rhf"
			},
			{
				"type": "unocc",
				"energy": 0.00239,
				"method": "rhf"
			}
		],
		"cosmo_sigma_profile": { 
			"-0.025": 0.0,
			"-0.024": 0.0,
			"-0.023": 0.0,
			"-0.022": 0.0,
			"-0.021": 0.0,
			"-0.02": 0.0,
			"-0.019": 0.220590060156,
			"-0.018": 1.37173200066,
			"-0.017": 1.44755180544,
			"-0.016": 1.79603217356,
			"-0.015": 1.51076673802,
			"-0.014": 1.02686442437,
			"-0.013": 0.657638854674,
			"-0.012": 2.25112095675,
			"-0.011": 2.25031537493,
			"-0.01": 1.0859498421,
			"-0.009": 1.60568621752,
			"-0.008": 2.79158637561,
			"-0.007": 9.51953870408,
			"-0.006": 28.070402973,
			"-0.005": 33.0252166135,
			"-0.004": 33.4051528384,
			"-0.003": 30.3686819987,
			"-0.002": 20.7138881681,
			"-0.001": 20.1491121603,
			"0.0": 17.1230788174,
			"0.001": 21.2309676933,
			"0.002": 25.7250656976,
			"0.003": 28.6559148643,
			"0.004": 31.8621578208,
			"0.005": 17.2741611956,
			"0.006": 9.95091515648,
			"0.007": 7.57912921482,
			"0.008": 7.89990640617,
			"0.009": 10.6643148574,
			"0.01": 10.1713048525,
			"0.011": 9.59466817385,
			"0.012": 4.28024930589,
			"0.013": 0.301591316879,
			"0.014": 0.0,
			"0.015": 0.0,
			"0.016": 0.0,
			"0.017": 0.0,
			"0.018": 0.0,
			"0.019": 0.0,
			"0.02": 0.0,
			"0.021": 0.0,
			"0.022": 0.0,
			"0.023": 0.0,
			"0.024": 0.0,
			"0.025": 0.0
		}
	}
}
