{
	 "smiles": "C1CN(CCN1)C1=C2SC=CC2=NC=N1", 
	 "Tm": 372.15, 
	 "num_atms": 27, 
	 "gaussian": { 
		 "optdone": 1, 
		 "sigma_profile": "yes", 
		 "theory": "DFT", 
		 "functional": "B3LYP", 
		 "basiset": "6-31G**", 
		 "properties": { 
			 "R2extent": 4261.4661, 
			 "electric_dipole_moment_norm": 2.39953620935, 
			 "electric_quadrupole_moment_norm": 14.1904208828, 
			 "total_energy": -1005.47026418, 
			 "HOMO_LUMO_gap": 0.17398, 
			 "cosmo_polarized_energy": -12.0, 
			 "cosmo_cavitation_energy": 30.12, 
			 "cosmo_dispersion_energy": -23.18, 
			 "cosmo_repulsion_energy": 1.73, 
			 "cosmo_total_nonelectrostatic_energy": 8.67, 
			 "SMD_solvation_energy": -0.9 
		},
		"coords": [
			{
				"x": 0.5221766594,
				"y": 1.5283368171,
				"z": 1.3331364324,
				"element": "C" 
			},
			{
				"x": 1.2149376536,
				"y": 0.6161381712,
				"z": 0.2911996892,
				"element": "C" 
			},
			{
				"x": 0.2158570708,
				"y": 0.0075984944,
				"z": -0.5803350334,
				"element": "N" 
			},
			{
				"x": -0.5268557226,
				"y": 0.979615313,
				"z": -1.3984473507,
				"element": "C" 
			},
			{
				"x": -0.6064555875,
				"y": 2.3308896169,
				"z": -0.6478813364,
				"element": "C" 
			},
			{
				"x": -0.6864453357,
				"y": 2.1772891329,
				"z": 0.8036917608,
				"element": "N" 
			},
			{
				"x": 0.1449625826,
				"y": -1.3209841333,
				"z": -0.9064389746,
				"element": "C" 
			},
			{
				"x": 0.6811705444,
				"y": -2.3988809505,
				"z": -0.1443498379,
				"element": "C" 
			},
			{
				"x": 1.5093238867,
				"y": -2.4470997775,
				"z": 1.4067090934,
				"element": "S" 
			},
			{
				"x": 1.5981068656,
				"y": -4.1902256632,
				"z": 1.3461240689,
				"element": "C" 
			},
			{
				"x": 1.0318680362,
				"y": -4.7150945793,
				"z": 0.2309195582,
				"element": "C" 
			},
			{
				"x": 0.4823614188,
				"y": -3.7068822612,
				"z": -0.6372987052,
				"element": "C" 
			},
			{
				"x": -0.184581263,
				"y": -3.9775049651,
				"z": -1.7839702914,
				"element": "N" 
			},
			{
				"x": -0.6610089221,
				"y": -2.9019258806,
				"z": -2.3930099659,
				"element": "C" 
			},
			{
				"x": -0.5346113856,
				"y": -1.6178073538,
				"z": -2.0294955257,
				"element": "N" 
			},
			{
				"x": 0.243704382,
				"y": 0.9472611672,
				"z": 2.2179211481,
				"element": "H" 
			},
			{
				"x": 1.2409520746,
				"y": 2.2920552654,
				"z": 1.6608629729,
				"element": "H" 
			},
			{
				"x": 1.9067980552,
				"y": 1.207551429,
				"z": -0.3270571944,
				"element": "H" 
			},
			{
				"x": 1.8252729231,
				"y": -0.1417791567,
				"z": 0.7785187868,
				"element": "H" 
			},
			{
				"x": -1.5263566722,
				"y": 0.5744309896,
				"z": -1.5725696249,
				"element": "H" 
			},
			{
				"x": -0.0629719967,
				"y": 1.1011745333,
				"z": -2.3886699777,
				"element": "H" 
			},
			{
				"x": -1.4787237892,
				"y": 2.8868104417,
				"z": -1.0060181516,
				"element": "H" 
			},
			{
				"x": 0.2685643571,
				"y": 2.9524122427,
				"z": -0.8728958122,
				"element": "H" 
			},
			{
				"x": -1.4934461448,
				"y": 1.5997933453,
				"z": 1.0239080715,
				"element": "H" 
			},
			{
				"x": 2.0763348709,
				"y": -4.7155842682,
				"z": 2.1619348075,
				"element": "H" 
			},
			{
				"x": 0.9759541944,
				"y": -5.7720069744,
				"z": 0.0024831321,
				"element": "H" 
			},
			{
				"x": -1.2224887562,
				"y": -3.0716809961,
				"z": -3.3107717399,
				"element": "H" 
			}
		],
		 "valence_orbital": [ 
			{
				"type": "occ",
				"energy": -0.26583,
				"method": "rhf"
			},
			{
				"type": "occ",
				"energy": -0.24907,
				"method": "rhf"
			},
			{
				"type": "occ",
				"energy": -0.24621,
				"method": "rhf"
			},
			{
				"type": "occ",
				"energy": -0.23081,
				"method": "rhf"
			},
			{
				"type": "occ",
				"energy": -0.21185,
				"method": "rhf"
			},
			{
				"type": "unocc",
				"energy": -0.03787,
				"method": "rhf"
			},
			{
				"type": "unocc",
				"energy": -0.0069,
				"method": "rhf"
			},
			{
				"type": "unocc",
				"energy": 0.01614,
				"method": "rhf"
			},
			{
				"type": "unocc",
				"energy": 0.04497,
				"method": "rhf"
			},
			{
				"type": "unocc",
				"energy": 0.06892,
				"method": "rhf"
			}
		],
		"cosmo_sigma_profile": { 
			"-0.025": 0.0,
			"-0.024": 0.0,
			"-0.023": 0.0,
			"-0.022": 0.0,
			"-0.021": 0.0,
			"-0.02": 0.0,
			"-0.019": 0.0,
			"-0.018": 0.0,
			"-0.017": 0.0,
			"-0.016": 0.0,
			"-0.015": 0.0,
			"-0.014": 0.0,
			"-0.013": 0.0,
			"-0.012": 0.0,
			"-0.011": 0.0448749785533,
			"-0.01": 1.24890186964,
			"-0.009": 3.58063723637,
			"-0.008": 3.94703618058,
			"-0.007": 4.99782548467,
			"-0.006": 6.79309925623,
			"-0.005": 14.4083018009,
			"-0.004": 27.5339757724,
			"-0.003": 29.5388241637,
			"-0.002": 19.3615678177,
			"-0.001": 14.2123784449,
			"0.0": 15.7617902675,
			"0.001": 20.1742819969,
			"0.002": 19.7635396522,
			"0.003": 15.3260013778,
			"0.004": 9.85979074862,
			"0.005": 4.66620910646,
			"0.006": 4.00818364825,
			"0.007": 2.97888756046,
			"0.008": 4.35387170295,
			"0.009": 3.3848352394,
			"0.01": 2.70776348059,
			"0.011": 2.38133746843,
			"0.012": 1.97018164372,
			"0.013": 1.78508703999,
			"0.014": 1.6482443053,
			"0.015": 1.99857503964,
			"0.016": 1.2655208718,
			"0.017": 0.921826705279,
			"0.018": 0.417278425451,
			"0.019": 0.0492064055765,
			"0.02": 0.0,
			"0.021": 0.0,
			"0.022": 0.0,
			"0.023": 0.0,
			"0.024": 0.0,
			"0.025": 0.0
		}
	}
}
