{
	 "smiles": "NC(=O)C1=C(F)C(F)=CC=C1", 
	 "Tm": 389.15, 
	 "num_atms": 16, 
	 "gaussian": { 
		 "optdone": 1, 
		 "sigma_profile": "yes", 
		 "theory": "DFT", 
		 "functional": "B3LYP", 
		 "basiset": "6-31G**", 
		 "properties": { 
			 "R2extent": 2706.908, 
			 "electric_dipole_moment_norm": 1.577653609, 
			 "electric_quadrupole_moment_norm": 16.4368422326, 
			 "total_energy": -599.414598758, 
			 "HOMO_LUMO_gap": 0.20802, 
			 "cosmo_polarized_energy": -10.15, 
			 "cosmo_cavitation_energy": 21.37, 
			 "cosmo_dispersion_energy": -15.93, 
			 "cosmo_repulsion_energy": 1.24, 
			 "cosmo_total_nonelectrostatic_energy": 6.67, 
			 "SMD_solvation_energy": 5.35 
		},
		"coords": [
			{
				"x": -0.087732408,
				"y": -2.4597819177,
				"z": -1.0390938762,
				"element": "N" 
			},
			{
				"x": 0.3566097397,
				"y": -2.1563825774,
				"z": 0.2106263485,
				"element": "C" 
			},
			{
				"x": 1.4539122555,
				"y": -2.5184824917,
				"z": 0.6198244447,
				"element": "O" 
			},
			{
				"x": -0.5600671332,
				"y": -1.3431699615,
				"z": 1.0990376538,
				"element": "C" 
			},
			{
				"x": -1.8288138001,
				"y": -0.8698620211,
				"z": 0.7584426584,
				"element": "C" 
			},
			{
				"x": -2.3819263714,
				"y": -1.1071122603,
				"z": -0.4577446062,
				"element": "F" 
			},
			{
				"x": -2.5900850264,
				"y": -0.1266118344,
				"z": 1.6595309603,
				"element": "C" 
			},
			{
				"x": -3.8042387879,
				"y": 0.3014072964,
				"z": 1.2736211953,
				"element": "F" 
			},
			{
				"x": -2.1059967756,
				"y": 0.1648117067,
				"z": 2.9256925278,
				"element": "C" 
			},
			{
				"x": -0.8378554224,
				"y": -0.3003710793,
				"z": 3.2851687054,
				"element": "C" 
			},
			{
				"x": -0.0809826901,
				"y": -1.0414731011,
				"z": 2.384103647,
				"element": "C" 
			},
			{
				"x": -0.9869290146,
				"y": -2.1660931479,
				"z": -1.3816726242,
				"element": "H" 
			},
			{
				"x": 0.5294993893,
				"y": -3.0016525752,
				"z": -1.6236871136,
				"element": "H" 
			},
			{
				"x": -2.7231871751,
				"y": 0.7452656083,
				"z": 3.6029638055,
				"element": "H" 
			},
			{
				"x": -0.4456852083,
				"y": -0.0801559538,
				"z": 4.2726247192,
				"element": "H" 
			},
			{
				"x": 0.9050784286,
				"y": -1.4142356899,
				"z": 2.6368615542,
				"element": "H" 
			}
		],
		 "valence_orbital": [ 
			{
				"type": "occ",
				"energy": -0.36358,
				"method": "rhf"
			},
			{
				"type": "occ",
				"energy": -0.27314,
				"method": "rhf"
			},
			{
				"type": "occ",
				"energy": -0.26908,
				"method": "rhf"
			},
			{
				"type": "occ",
				"energy": -0.26018,
				"method": "rhf"
			},
			{
				"type": "occ",
				"energy": -0.25664,
				"method": "rhf"
			},
			{
				"type": "unocc",
				"energy": -0.04862,
				"method": "rhf"
			},
			{
				"type": "unocc",
				"energy": -0.01234,
				"method": "rhf"
			},
			{
				"type": "unocc",
				"energy": 0.05683,
				"method": "rhf"
			},
			{
				"type": "unocc",
				"energy": 0.05912,
				"method": "rhf"
			},
			{
				"type": "unocc",
				"energy": 0.09517,
				"method": "rhf"
			}
		],
		"cosmo_sigma_profile": { 
			"-0.025": 0.0,
			"-0.024": 0.0,
			"-0.023": 0.0,
			"-0.022": 0.0,
			"-0.021": 0.0,
			"-0.02": 0.0,
			"-0.019": 0.0,
			"-0.018": 0.0,
			"-0.017": 0.0,
			"-0.016": 0.0,
			"-0.015": 0.0631349120729,
			"-0.014": 0.954583301918,
			"-0.013": 1.40857980417,
			"-0.012": 1.68495458953,
			"-0.011": 1.87747217135,
			"-0.01": 2.17602404688,
			"-0.009": 1.91114856009,
			"-0.008": 3.62368967408,
			"-0.007": 5.7237993801,
			"-0.006": 6.67839294644,
			"-0.005": 7.30899767415,
			"-0.004": 8.13977041327,
			"-0.003": 7.89741037545,
			"-0.002": 13.3321485502,
			"-0.001": 14.2811071207,
			"0.0": 14.6235796648,
			"0.001": 15.0564998565,
			"0.002": 16.705874866,
			"0.003": 19.1666427235,
			"0.004": 9.36948764092,
			"0.005": 1.60122611551,
			"0.006": 1.50619488615,
			"0.007": 1.35998628667,
			"0.008": 1.31333653193,
			"0.009": 1.0047202664,
			"0.01": 1.98184580711,
			"0.011": 1.48685713775,
			"0.012": 2.20233520217,
			"0.013": 4.91360219949,
			"0.014": 2.5724487881,
			"0.015": 0.141172008657,
			"0.016": 0.0,
			"0.017": 0.0,
			"0.018": 0.0,
			"0.019": 0.0,
			"0.02": 0.0,
			"0.021": 0.0,
			"0.022": 0.0,
			"0.023": 0.0,
			"0.024": 0.0,
			"0.025": 0.0
		}
	}
}
