{
	 "smiles": "ClC(Cl)C1=CC(=CC=C1)C(Cl)=O", 
	 "Tm": 333.15, 
	 "num_atms": 17, 
	 "gaussian": { 
		 "optdone": 1, 
		 "sigma_profile": "yes", 
		 "theory": "DFT", 
		 "functional": "B3LYP", 
		 "basiset": "6-31G**", 
		 "properties": { 
			 "R2extent": 4625.7468, 
			 "electric_dipole_moment_norm": 2.26659846907, 
			 "electric_quadrupole_moment_norm": 14.4974808001, 
			 "total_energy": -1763.67152576, 
			 "HOMO_LUMO_gap": 0.19351, 
			 "cosmo_polarized_energy": -8.32, 
			 "cosmo_cavitation_energy": 27.39, 
			 "cosmo_dispersion_energy": -20.06, 
			 "cosmo_repulsion_energy": 1.62, 
			 "cosmo_total_nonelectrostatic_energy": 8.95, 
			 "SMD_solvation_energy": 4.51 
		},
		"coords": [
			{
				"x": 0.9098476666,
				"y": -2.3878006557,
				"z": -1.2620464116,
				"element": "Cl" 
			},
			{
				"x": 1.777100557,
				"y": -1.5401196988,
				"z": 0.083964919,
				"element": "C" 
			},
			{
				"x": 3.5552349374,
				"y": -1.4935657685,
				"z": -0.2602398235,
				"element": "Cl" 
			},
			{
				"x": 1.2209814491,
				"y": -0.1636775489,
				"z": 0.3235355995,
				"element": "C" 
			},
			{
				"x": 0.6529602372,
				"y": 0.1273861492,
				"z": 1.5602034992,
				"element": "C" 
			},
			{
				"x": 0.1238035632,
				"y": 1.4053894547,
				"z": 1.8155884439,
				"element": "C" 
			},
			{
				"x": 0.1689936807,
				"y": 2.3882931987,
				"z": 0.8214342071,
				"element": "C" 
			},
			{
				"x": 0.7397583479,
				"y": 2.09214635,
				"z": -0.4177088534,
				"element": "C" 
			},
			{
				"x": 1.2627896372,
				"y": 0.8275744656,
				"z": -0.6690751799,
				"element": "C" 
			},
			{
				"x": -0.458233018,
				"y": 1.6104746212,
				"z": 3.1655427547,
				"element": "C" 
			},
			{
				"x": -1.1402326472,
				"y": 3.274755714,
				"z": 3.4768471892,
				"element": "Cl" 
			},
			{
				"x": -0.5110629331,
				"y": 0.7918929069,
				"z": 4.033866684,
				"element": "O" 
			},
			{
				"x": 1.6606633763,
				"y": -2.1754824281,
				"z": 0.9585855111,
				"element": "H" 
			},
			{
				"x": 0.607640008,
				"y": -0.6203379705,
				"z": 2.3453290349,
				"element": "H" 
			},
			{
				"x": -0.237798743,
				"y": 3.3731060484,
				"z": 1.0156642507,
				"element": "H" 
			},
			{
				"x": 0.7750087639,
				"y": 2.854439417,
				"z": -1.1892225782,
				"element": "H" 
			},
			{
				"x": 1.7058451169,
				"y": 0.6007257446,
				"z": -1.6336692469,
				"element": "H" 
			}
		],
		 "valence_orbital": [ 
			{
				"type": "occ",
				"energy": -0.31873,
				"method": "rhf"
			},
			{
				"type": "occ",
				"energy": -0.31691,
				"method": "rhf"
			},
			{
				"type": "occ",
				"energy": -0.30351,
				"method": "rhf"
			},
			{
				"type": "occ",
				"energy": -0.29148,
				"method": "rhf"
			},
			{
				"type": "occ",
				"energy": -0.28487,
				"method": "rhf"
			},
			{
				"type": "unocc",
				"energy": -0.09136,
				"method": "rhf"
			},
			{
				"type": "unocc",
				"energy": -0.05181,
				"method": "rhf"
			},
			{
				"type": "unocc",
				"energy": -0.02489,
				"method": "rhf"
			},
			{
				"type": "unocc",
				"energy": -0.00288,
				"method": "rhf"
			},
			{
				"type": "unocc",
				"energy": 0.01123,
				"method": "rhf"
			}
		],
		"cosmo_sigma_profile": { 
			"-0.025": 0.0,
			"-0.024": 0.0,
			"-0.023": 0.0,
			"-0.022": 0.0,
			"-0.021": 0.0,
			"-0.02": 0.0,
			"-0.019": 0.0,
			"-0.018": 0.0,
			"-0.017": 0.0,
			"-0.016": 0.0,
			"-0.015": 0.0,
			"-0.014": 0.0,
			"-0.013": 0.0,
			"-0.012": 0.868464010144,
			"-0.011": 3.13739992039,
			"-0.01": 2.00018212045,
			"-0.009": 2.51726148355,
			"-0.008": 4.14316038276,
			"-0.007": 7.64096928979,
			"-0.006": 8.32710729472,
			"-0.005": 7.62427834617,
			"-0.004": 10.7120834015,
			"-0.003": 11.4470682742,
			"-0.002": 15.9916130227,
			"-0.001": 17.3725607602,
			"0.0": 20.8047247408,
			"0.001": 23.4872751215,
			"0.002": 19.4820623725,
			"0.003": 18.324613972,
			"0.004": 28.0774469387,
			"0.005": 12.7401818832,
			"0.006": 2.77953004378,
			"0.007": 2.88251594964,
			"0.008": 3.81764435818,
			"0.009": 2.60583956633,
			"0.01": 0.216462262685,
			"0.011": 0.0,
			"0.012": 0.0,
			"0.013": 0.0,
			"0.014": 0.0,
			"0.015": 0.0,
			"0.016": 0.0,
			"0.017": 0.0,
			"0.018": 0.0,
			"0.019": 0.0,
			"0.02": 0.0,
			"0.021": 0.0,
			"0.022": 0.0,
			"0.023": 0.0,
			"0.024": 0.0,
			"0.025": 0.0
		}
	}
}
