{
	 "smiles": "CCOCCOC(=O)C(C)OC1=CC=C(OC2=NC=C(C=C2Cl)C(F)(F)F)C=C1", 
	 "Tm": 333.15, 
	 "num_atms": 48, 
	 "gaussian": { 
		 "optdone": 1, 
		 "sigma_profile": "yes", 
		 "theory": "DFT", 
		 "functional": "B3LYP", 
		 "basiset": "6-31G**", 
		 "properties": { 
			 "R2extent": 26286.4677, 
			 "electric_dipole_moment_norm": 3.44021284661, 
			 "electric_quadrupole_moment_norm": 10.9640669366, 
			 "total_energy": -1926.04229089, 
			 "HOMO_LUMO_gap": 0.17689, 
			 "cosmo_polarized_energy": -17.16, 
			 "cosmo_cavitation_energy": 57.45, 
			 "cosmo_dispersion_energy": -38.37, 
			 "cosmo_repulsion_energy": 2.94, 
			 "cosmo_total_nonelectrostatic_energy": 22.02, 
			 "SMD_solvation_energy": 10.98 
		},
		"coords": [
			{
				"x": 5.4315556846,
				"y": -4.2618904637,
				"z": -0.6444662735,
				"element": "C" 
			},
			{
				"x": 4.326901167,
				"y": -3.2243387488,
				"z": -0.7572668387,
				"element": "C" 
			},
			{
				"x": 4.7600945556,
				"y": -2.2225914415,
				"z": -1.6738892288,
				"element": "O" 
			},
			{
				"x": 3.7807308999,
				"y": -1.2832419681,
				"z": -2.0636167657,
				"element": "C" 
			},
			{
				"x": 3.6157098211,
				"y": -0.1092352147,
				"z": -1.1118583686,
				"element": "C" 
			},
			{
				"x": 2.905832703,
				"y": -0.5507443463,
				"z": 0.0719514173,
				"element": "O" 
			},
			{
				"x": 2.5452633147,
				"y": 0.4229668746,
				"z": 0.939313883,
				"element": "C" 
			},
			{
				"x": 2.7471719056,
				"y": 1.6010648177,
				"z": 0.7696886771,
				"element": "O" 
			},
			{
				"x": 1.8926710008,
				"y": -0.18979377,
				"z": 2.1869666831,
				"element": "C" 
			},
			{
				"x": 2.9461221187,
				"y": -0.3747899021,
				"z": 3.2787050518,
				"element": "C" 
			},
			{
				"x": 0.9054880337,
				"y": 0.677911747,
				"z": 2.7190053772,
				"element": "O" 
			},
			{
				"x": -0.2721856074,
				"y": 0.8487662101,
				"z": 2.0409481673,
				"element": "C" 
			},
			{
				"x": -0.5973648014,
				"y": 0.2280586375,
				"z": 0.8301024694,
				"element": "C" 
			},
			{
				"x": -1.8438131836,
				"y": 0.4689619269,
				"z": 0.2432975068,
				"element": "C" 
			},
			{
				"x": -2.7483630865,
				"y": 1.3173879364,
				"z": 0.863735736,
				"element": "C" 
			},
			{
				"x": -4.024998644,
				"y": 1.4557638475,
				"z": 0.3018972474,
				"element": "O" 
			},
			{
				"x": -4.3654160801,
				"y": 2.6057861788,
				"z": -0.3174940391,
				"element": "C" 
			},
			{
				"x": -3.4852132108,
				"y": 3.5875648192,
				"z": -0.441003782,
				"element": "N" 
			},
			{
				"x": -3.8538293844,
				"y": 4.7103339073,
				"z": -1.0687961532,
				"element": "C" 
			},
			{
				"x": -5.1251398917,
				"y": 4.8982149991,
				"z": -1.6010141493,
				"element": "C" 
			},
			{
				"x": -6.0605557082,
				"y": 3.8625195841,
				"z": -1.4691583707,
				"element": "C" 
			},
			{
				"x": -5.6843483378,
				"y": 2.7006066623,
				"z": -0.820440865,
				"element": "C" 
			},
			{
				"x": -6.810568391,
				"y": 1.3843454195,
				"z": -0.6229586253,
				"element": "Cl" 
			},
			{
				"x": -5.4902016542,
				"y": 6.1521369591,
				"z": -2.3408245461,
				"element": "C" 
			},
			{
				"x": -6.7499531238,
				"y": 6.5483580689,
				"z": -2.0492554012,
				"element": "F" 
			},
			{
				"x": -5.4397136094,
				"y": 5.975716186,
				"z": -3.6812596568,
				"element": "F" 
			},
			{
				"x": -4.6578497234,
				"y": 7.1710356116,
				"z": -2.0414288401,
				"element": "F" 
			},
			{
				"x": -2.4349772384,
				"y": 1.9380522876,
				"z": 2.0732430104,
				"element": "C" 
			},
			{
				"x": -1.197548374,
				"y": 1.7043534744,
				"z": 2.6573569184,
				"element": "C" 
			},
			{
				"x": 6.3551346236,
				"y": -3.8016829367,
				"z": -0.2811361763,
				"element": "H" 
			},
			{
				"x": 5.635923463,
				"y": -4.7142119777,
				"z": -1.61912964,
				"element": "H" 
			},
			{
				"x": 5.1413300764,
				"y": -5.0531616186,
				"z": 0.0540568025,
				"element": "H" 
			},
			{
				"x": 4.1043972876,
				"y": -2.7848818364,
				"z": 0.224468148,
				"element": "H" 
			},
			{
				"x": 3.3961515844,
				"y": -3.6875844214,
				"z": -1.1244585781,
				"element": "H" 
			},
			{
				"x": 4.1141402503,
				"y": -0.8751548902,
				"z": -3.0254053871,
				"element": "H" 
			},
			{
				"x": 2.8041388913,
				"y": -1.7669987396,
				"z": -2.2251492177,
				"element": "H" 
			},
			{
				"x": 4.5908331596,
				"y": 0.2888901668,
				"z": -0.8152905256,
				"element": "H" 
			},
			{
				"x": 3.0443151295,
				"y": 0.6962413471,
				"z": -1.5842452184,
				"element": "H" 
			},
			{
				"x": 1.4539408942,
				"y": -1.1590348164,
				"z": 1.9196735814,
				"element": "H" 
			},
			{
				"x": 2.4812996182,
				"y": -0.8054828787,
				"z": 4.168823521,
				"element": "H" 
			},
			{
				"x": 3.3821247746,
				"y": 0.5927425732,
				"z": 3.5397763497,
				"element": "H" 
			},
			{
				"x": 3.7397754334,
				"y": -1.0434020175,
				"z": 2.9341205041,
				"element": "H" 
			},
			{
				"x": 0.0987033127,
				"y": -0.4336841384,
				"z": 0.3286590568,
				"element": "H" 
			},
			{
				"x": -2.1136160901,
				"y": -0.007216067,
				"z": -0.6933664807,
				"element": "H" 
			},
			{
				"x": -3.10180569,
				"y": 5.4904175911,
				"z": -1.1419563463,
				"element": "H" 
			},
			{
				"x": -7.0670181399,
				"y": 3.9666438378,
				"z": -1.8586537198,
				"element": "H" 
			},
			{
				"x": -3.1561009538,
				"y": 2.5941986507,
				"z": 2.5482911667,
				"element": "H" 
			},
			{
				"x": -0.9236687794,
				"y": 2.1727818716,
				"z": 3.5964419188,
				"element": "H" 
			}
		],
		 "valence_orbital": [ 
			{
				"type": "occ",
				"energy": -0.28162,
				"method": "rhf"
			},
			{
				"type": "occ",
				"energy": -0.26178,
				"method": "rhf"
			},
			{
				"type": "occ",
				"energy": -0.26133,
				"method": "rhf"
			},
			{
				"type": "occ",
				"energy": -0.25329,
				"method": "rhf"
			},
			{
				"type": "occ",
				"energy": -0.22441,
				"method": "rhf"
			},
			{
				"type": "unocc",
				"energy": -0.04752,
				"method": "rhf"
			},
			{
				"type": "unocc",
				"energy": -0.03438,
				"method": "rhf"
			},
			{
				"type": "unocc",
				"energy": -0.01571,
				"method": "rhf"
			},
			{
				"type": "unocc",
				"energy": -0.00025,
				"method": "rhf"
			},
			{
				"type": "unocc",
				"energy": 0.00452,
				"method": "rhf"
			}
		],
		"cosmo_sigma_profile": { 
			"-0.025": 0.0,
			"-0.024": 0.0,
			"-0.023": 0.0,
			"-0.022": 0.0,
			"-0.021": 0.0,
			"-0.02": 0.0,
			"-0.019": 0.0,
			"-0.018": 0.0,
			"-0.017": 0.0,
			"-0.016": 0.0,
			"-0.015": 0.0,
			"-0.014": 0.0,
			"-0.013": 0.0,
			"-0.012": 0.0,
			"-0.011": 0.0,
			"-0.01": 0.485081070839,
			"-0.009": 1.44477670431,
			"-0.008": 3.20287201975,
			"-0.007": 10.4174997027,
			"-0.006": 21.9466721858,
			"-0.005": 28.8184958666,
			"-0.004": 33.229283445,
			"-0.003": 43.0124127755,
			"-0.002": 43.2329287231,
			"-0.001": 45.4433858062,
			"0.0": 34.306839729,
			"0.001": 29.3233806651,
			"0.002": 41.874250769,
			"0.003": 44.6769086908,
			"0.004": 21.7993205182,
			"0.005": 9.40682498404,
			"0.006": 8.37719945164,
			"0.007": 7.52393663417,
			"0.008": 7.36250957149,
			"0.009": 5.49344654551,
			"0.01": 4.33100725181,
			"0.011": 6.88534766754,
			"0.012": 4.62405579421,
			"0.013": 1.57121003853,
			"0.014": 0.103020987324,
			"0.015": 0.0,
			"0.016": 0.0,
			"0.017": 0.0,
			"0.018": 0.0,
			"0.019": 0.0,
			"0.02": 0.0,
			"0.021": 0.0,
			"0.022": 0.0,
			"0.023": 0.0,
			"0.024": 0.0,
			"0.025": 0.0
		}
	}
}
