{
	 "smiles": "S=P(C1=CC=CC=C1)(C1=CC=CC=C1)C1=CC=CC=C1", 
	 "Tm": 436.15, 
	 "num_atms": 35, 
	 "gaussian": { 
		 "optdone": 1, 
		 "sigma_profile": "yes", 
		 "theory": "DFT", 
		 "functional": "B3LYP", 
		 "basiset": "6-31G**", 
		 "properties": { 
			 "R2extent": 7113.2074, 
			 "electric_dipole_moment_norm": 5.10733624994, 
			 "electric_quadrupole_moment_norm": 20.3266404312, 
			 "total_energy": -1434.52068245, 
			 "HOMO_LUMO_gap": 0.18078, 
			 "cosmo_polarized_energy": -13.99, 
			 "cosmo_cavitation_energy": 40.97, 
			 "cosmo_dispersion_energy": -28.34, 
			 "cosmo_repulsion_energy": 2.12, 
			 "cosmo_total_nonelectrostatic_energy": 14.75, 
			 "SMD_solvation_energy": 6.23 
		},
		"coords": [
			{
				"x": 3.4107310846,
				"y": 1.9609748579,
				"z": -0.7703820823,
				"element": "S" 
			},
			{
				"x": 1.899261181,
				"y": 0.691314559,
				"z": -0.6392667971,
				"element": "P" 
			},
			{
				"x": 0.2987553448,
				"y": 1.3972065933,
				"z": -1.2164217017,
				"element": "C" 
			},
			{
				"x": -0.685581202,
				"y": 0.6097890789,
				"z": -1.831877373,
				"element": "C" 
			},
			{
				"x": -1.8938416669,
				"y": 1.18373155,
				"z": -2.2330315258,
				"element": "C" 
			},
			{
				"x": -2.1262858001,
				"y": 2.5440850843,
				"z": -2.0258515557,
				"element": "C" 
			},
			{
				"x": -1.145515536,
				"y": 3.3336754622,
				"z": -1.4210037432,
				"element": "C" 
			},
			{
				"x": 0.0634954128,
				"y": 2.7659523458,
				"z": -1.0208482959,
				"element": "C" 
			},
			{
				"x": 2.1415391185,
				"y": -0.839444065,
				"z": -1.6348573718,
				"element": "C" 
			},
			{
				"x": 2.8559719417,
				"y": -0.746963855,
				"z": -2.8382417769,
				"element": "C" 
			},
			{
				"x": 3.0397706377,
				"y": -1.8776943285,
				"z": -3.6330762604,
				"element": "C" 
			},
			{
				"x": 2.5200265361,
				"y": -3.1105720706,
				"z": -3.2316938568,
				"element": "C" 
			},
			{
				"x": 1.8175759741,
				"y": -3.2112129842,
				"z": -2.0300529014,
				"element": "C" 
			},
			{
				"x": 1.6285951277,
				"y": -2.0811871002,
				"z": -1.231558093,
				"element": "C" 
			},
			{
				"x": 1.5812442986,
				"y": 0.1074277604,
				"z": 1.0785749916,
				"element": "C" 
			},
			{
				"x": 2.6730446843,
				"y": -0.0383917112,
				"z": 1.9468120045,
				"element": "C" 
			},
			{
				"x": 2.4775827541,
				"y": -0.5018061997,
				"z": 3.2472439229,
				"element": "C" 
			},
			{
				"x": 1.1923998031,
				"y": -0.8162646425,
				"z": 3.6952213034,
				"element": "C" 
			},
			{
				"x": 0.1007205091,
				"y": -0.6629527767,
				"z": 2.8395367822,
				"element": "C" 
			},
			{
				"x": 0.2914341769,
				"y": -0.2014573252,
				"z": 1.5353416945,
				"element": "C" 
			},
			{
				"x": -0.5089119167,
				"y": -0.4460681318,
				"z": -2.0100269259,
				"element": "H" 
			},
			{
				"x": -2.6482943913,
				"y": 0.5679161706,
				"z": -2.714176465,
				"element": "H" 
			},
			{
				"x": -3.0651576236,
				"y": 2.989543096,
				"z": -2.3422647812,
				"element": "H" 
			},
			{
				"x": -1.3182456355,
				"y": 4.3949077356,
				"z": -1.2673460564,
				"element": "H" 
			},
			{
				"x": 0.839631622,
				"y": 3.3803618642,
				"z": -0.5749372613,
				"element": "H" 
			},
			{
				"x": 3.2809773759,
				"y": 0.2078859288,
				"z": -3.13214094,
				"element": "H" 
			},
			{
				"x": 3.5960541626,
				"y": -1.7971281792,
				"z": -4.5624415608,
				"element": "H" 
			},
			{
				"x": 2.6694697277,
				"y": -3.9915110335,
				"z": -3.8494672911,
				"element": "H" 
			},
			{
				"x": 1.4220883261,
				"y": -4.1700738103,
				"z": -1.7074047761,
				"element": "H" 
			},
			{
				"x": 1.0928887764,
				"y": -2.1725711054,
				"z": -0.2921595296,
				"element": "H" 
			},
			{
				"x": 3.666214025,
				"y": 0.2330041814,
				"z": 1.6023007187,
				"element": "H" 
			},
			{
				"x": 3.3286801943,
				"y": -0.6098060898,
				"z": 3.9132980378,
				"element": "H" 
			},
			{
				"x": 1.0415475548,
				"y": -1.1715609893,
				"z": 4.710622321,
				"element": "H" 
			},
			{
				"x": -0.9021262324,
				"y": -0.8943097674,
				"z": 3.1869579793,
				"element": "H" 
			},
			{
				"x": -0.5655403452,
				"y": -0.0724001032,
				"z": 0.8821191666,
				"element": "H" 
			}
		],
		 "valence_orbital": [ 
			{
				"type": "occ",
				"energy": -0.25892,
				"method": "rhf"
			},
			{
				"type": "occ",
				"energy": -0.25892,
				"method": "rhf"
			},
			{
				"type": "occ",
				"energy": -0.25566,
				"method": "rhf"
			},
			{
				"type": "occ",
				"energy": -0.21298,
				"method": "rhf"
			},
			{
				"type": "occ",
				"energy": -0.21295,
				"method": "rhf"
			},
			{
				"type": "unocc",
				"energy": -0.03217,
				"method": "rhf"
			},
			{
				"type": "unocc",
				"energy": -0.03211,
				"method": "rhf"
			},
			{
				"type": "unocc",
				"energy": -0.02349,
				"method": "rhf"
			},
			{
				"type": "unocc",
				"energy": -0.01821,
				"method": "rhf"
			},
			{
				"type": "unocc",
				"energy": -0.00723,
				"method": "rhf"
			}
		],
		"cosmo_sigma_profile": { 
			"-0.025": 0.0,
			"-0.024": 0.0,
			"-0.023": 0.0,
			"-0.022": 0.0,
			"-0.021": 0.0,
			"-0.02": 0.0,
			"-0.019": 0.0,
			"-0.018": 0.0,
			"-0.017": 0.0,
			"-0.016": 0.0,
			"-0.015": 0.0,
			"-0.014": 0.0,
			"-0.013": 0.0,
			"-0.012": 0.0,
			"-0.011": 0.0,
			"-0.01": 0.006807112629,
			"-0.009": 0.106255527358,
			"-0.008": 0.195800030143,
			"-0.007": 4.89439559924,
			"-0.006": 22.3152160325,
			"-0.005": 32.2236354178,
			"-0.004": 31.6228850752,
			"-0.003": 22.7524929334,
			"-0.002": 23.4162829367,
			"-0.001": 21.0792456656,
			"0.0": 21.8532393702,
			"0.001": 23.6472515375,
			"0.002": 25.9043334477,
			"0.003": 27.2709460637,
			"0.004": 34.1271403425,
			"0.005": 9.07700437162,
			"0.006": 5.07317053206,
			"0.007": 4.40075489605,
			"0.008": 4.90025392167,
			"0.009": 6.46022006941,
			"0.01": 5.15437791589,
			"0.011": 3.68195712452,
			"0.012": 0.786807337674,
			"0.013": 0.0,
			"0.014": 0.0,
			"0.015": 0.0,
			"0.016": 0.0,
			"0.017": 0.0,
			"0.018": 0.0,
			"0.019": 0.0,
			"0.02": 0.0,
			"0.021": 0.0,
			"0.022": 0.0,
			"0.023": 0.0,
			"0.024": 0.0,
			"0.025": 0.0
		}
	}
}
