{
	 "smiles": "COC1=CC=C(C=C1)N=C(S)SC", 
	 "Tm": 385.15, 
	 "num_atms": 24, 
	 "gaussian": { 
		 "optdone": 1, 
		 "sigma_profile": "yes", 
		 "theory": "DFT", 
		 "functional": "B3LYP", 
		 "basiset": "6-31G**", 
		 "properties": { 
			 "R2extent": 5384.0745, 
			 "electric_dipole_moment_norm": 3.279681265, 
			 "electric_quadrupole_moment_norm": 10.2262644465, 
			 "total_energy": -1275.90479087, 
			 "HOMO_LUMO_gap": 0.16654, 
			 "cosmo_polarized_energy": -9.61, 
			 "cosmo_cavitation_energy": 30.93, 
			 "cosmo_dispersion_energy": -23.07, 
			 "cosmo_repulsion_energy": 1.76, 
			 "cosmo_total_nonelectrostatic_energy": 9.62, 
			 "SMD_solvation_energy": 4.42 
		},
		"coords": [
			{
				"x": -0.8983945239,
				"y": 4.1501050459,
				"z": -0.7600388877,
				"element": "C" 
			},
			{
				"x": -0.900294406,
				"y": 3.2096096159,
				"z": -1.8213082913,
				"element": "O" 
			},
			{
				"x": -0.9126645992,
				"y": 1.8808903975,
				"z": -1.5055227768,
				"element": "C" 
			},
			{
				"x": -0.9388300313,
				"y": 0.9950332,
				"z": -2.5935799466,
				"element": "C" 
			},
			{
				"x": -0.9419453795,
				"y": -0.3778769471,
				"z": -2.3858243653,
				"element": "C" 
			},
			{
				"x": -0.9256697892,
				"y": -0.9045465601,
				"z": -1.079236485,
				"element": "C" 
			},
			{
				"x": -0.9381764918,
				"y": -0.0118837723,
				"z": 0.0001389969,
				"element": "C" 
			},
			{
				"x": -0.9117417795,
				"y": 1.3683303176,
				"z": -0.2021698057,
				"element": "C" 
			},
			{
				"x": -1.0198010814,
				"y": -2.2783241429,
				"z": -0.810506155,
				"element": "N" 
			},
			{
				"x": -0.3901042223,
				"y": -3.227276229,
				"z": -1.3658422574,
				"element": "C" 
			},
			{
				"x": -1.036476722,
				"y": -4.8737135795,
				"z": -1.0749625251,
				"element": "S" 
			},
			{
				"x": 1.0487343968,
				"y": -3.2253897659,
				"z": -2.4720626521,
				"element": "S" 
			},
			{
				"x": 2.0346919348,
				"y": -1.7972831536,
				"z": -1.8847163732,
				"element": "C" 
			},
			{
				"x": -0.8916044186,
				"y": 5.1351770907,
				"z": -1.2292445811,
				"element": "H" 
			},
			{
				"x": -1.7944008358,
				"y": 4.056083417,
				"z": -0.1327322199,
				"element": "H" 
			},
			{
				"x": -0.0070831067,
				"y": 4.0468959383,
				"z": -0.1271833713,
				"element": "H" 
			},
			{
				"x": -0.9621921435,
				"y": 1.4086206927,
				"z": -3.5967050414,
				"element": "H" 
			},
			{
				"x": -0.9746903797,
				"y": -1.0531522938,
				"z": -3.2347506676,
				"element": "H" 
			},
			{
				"x": -0.9628399979,
				"y": -0.4144810379,
				"z": 1.0077829371,
				"element": "H" 
			},
			{
				"x": -0.9066572978,
				"y": 2.0280003493,
				"z": 0.6574502364,
				"element": "H" 
			},
			{
				"x": 0.0703085186,
				"y": -5.5486545983,
				"z": -1.4449590739,
				"element": "H" 
			},
			{
				"x": 1.6573936075,
				"y": -0.8536898472,
				"z": -2.2771243524,
				"element": "H" 
			},
			{
				"x": 2.0493262307,
				"y": -1.7716390456,
				"z": -0.7945224245,
				"element": "H" 
			},
			{
				"x": 3.0471125177,
				"y": -1.9792350916,
				"z": -2.2519799173,
				"element": "H" 
			}
		],
		 "valence_orbital": [ 
			{
				"type": "occ",
				"energy": -0.27139,
				"method": "rhf"
			},
			{
				"type": "occ",
				"energy": -0.25533,
				"method": "rhf"
			},
			{
				"type": "occ",
				"energy": -0.25474,
				"method": "rhf"
			},
			{
				"type": "occ",
				"energy": -0.2449,
				"method": "rhf"
			},
			{
				"type": "occ",
				"energy": -0.20083,
				"method": "rhf"
			},
			{
				"type": "unocc",
				"energy": -0.03429,
				"method": "rhf"
			},
			{
				"type": "unocc",
				"energy": -0.00539,
				"method": "rhf"
			},
			{
				"type": "unocc",
				"energy": 0.00525,
				"method": "rhf"
			},
			{
				"type": "unocc",
				"energy": 0.03208,
				"method": "rhf"
			},
			{
				"type": "unocc",
				"energy": 0.04031,
				"method": "rhf"
			}
		],
		"cosmo_sigma_profile": { 
			"-0.025": 0.0,
			"-0.024": 0.0,
			"-0.023": 0.0,
			"-0.022": 0.0,
			"-0.021": 0.0,
			"-0.02": 0.0,
			"-0.019": 0.0,
			"-0.018": 0.0,
			"-0.017": 0.0,
			"-0.016": 0.0,
			"-0.015": 0.0,
			"-0.014": 0.0,
			"-0.013": 0.0,
			"-0.012": 0.0,
			"-0.011": 0.78739036872,
			"-0.01": 1.61941216666,
			"-0.009": 1.06200356252,
			"-0.008": 1.52876502649,
			"-0.007": 4.24304914467,
			"-0.006": 11.8601027631,
			"-0.005": 22.4432805766,
			"-0.004": 20.9684561203,
			"-0.003": 22.6357904998,
			"-0.002": 21.0194284606,
			"-0.001": 16.1244496939,
			"0.0": 15.4064202954,
			"0.001": 14.3292815179,
			"0.002": 15.9941233164,
			"0.003": 18.6673587907,
			"0.004": 18.2599142961,
			"0.005": 16.6245527069,
			"0.006": 8.64294667683,
			"0.007": 7.42644626846,
			"0.008": 3.85719313009,
			"0.009": 2.41376059665,
			"0.01": 2.73000120361,
			"0.011": 1.06156741054,
			"0.012": 0.652261511736,
			"0.013": 0.279352537485,
			"0.014": 0.0,
			"0.015": 0.0,
			"0.016": 0.0,
			"0.017": 0.0,
			"0.018": 0.0,
			"0.019": 0.0,
			"0.02": 0.0,
			"0.021": 0.0,
			"0.022": 0.0,
			"0.023": 0.0,
			"0.024": 0.0,
			"0.025": 0.0
		}
	}
}
