{
	 "smiles": "OC(=O)CCNS(=O)(=O)C1=CC(Cl)=CC=C1", 
	 "Tm": 417.15, 
	 "num_atms": 26, 
	 "gaussian": { 
		 "optdone": 1, 
		 "sigma_profile": "yes", 
		 "theory": "DFT", 
		 "functional": "B3LYP", 
		 "basiset": "6-31G**", 
		 "properties": { 
			 "R2extent": 5585.8118, 
			 "electric_dipole_moment_norm": 5.46304966388, 
			 "electric_quadrupole_moment_norm": 16.1268411501, 
			 "total_energy": -1562.96038558, 
			 "HOMO_LUMO_gap": 0.21456, 
			 "cosmo_polarized_energy": -19.39, 
			 "cosmo_cavitation_energy": 34.08, 
			 "cosmo_dispersion_energy": -24.55, 
			 "cosmo_repulsion_energy": 1.91, 
			 "cosmo_total_nonelectrostatic_energy": 11.44, 
			 "SMD_solvation_energy": 5.14 
		},
		"coords": [
			{
				"x": -3.4117431241,
				"y": 3.0115209053,
				"z": -1.1194728393,
				"element": "O" 
			},
			{
				"x": -2.2886891824,
				"y": 2.3115398082,
				"z": -0.8662836428,
				"element": "C" 
			},
			{
				"x": -1.3975264985,
				"y": 2.7389591306,
				"z": -0.1574082498,
				"element": "O" 
			},
			{
				"x": -2.2808851122,
				"y": 0.9751063258,
				"z": -1.5760926564,
				"element": "C" 
			},
			{
				"x": -1.1864986099,
				"y": 0.0362804713,
				"z": -1.0656789662,
				"element": "C" 
			},
			{
				"x": 0.1349788861,
				"y": 0.6139554499,
				"z": -1.3283003079,
				"element": "N" 
			},
			{
				"x": 1.4867524768,
				"y": -0.3717088215,
				"z": -1.3079704506,
				"element": "S" 
			},
			{
				"x": 1.1460173625,
				"y": -1.5620042636,
				"z": -2.0894670399,
				"element": "O" 
			},
			{
				"x": 2.6137510081,
				"y": 0.4995991896,
				"z": -1.6368508527,
				"element": "O" 
			},
			{
				"x": 1.7149034285,
				"y": -0.9087970907,
				"z": 0.3992934936,
				"element": "C" 
			},
			{
				"x": 1.1351089306,
				"y": -2.1090962847,
				"z": 0.8140878028,
				"element": "C" 
			},
			{
				"x": 1.2905949396,
				"y": -2.4900463367,
				"z": 2.1462342496,
				"element": "C" 
			},
			{
				"x": 0.5736194856,
				"y": -3.994838181,
				"z": 2.6963912273,
				"element": "Cl" 
			},
			{
				"x": 2.009268117,
				"y": -1.703203565,
				"z": 3.0471163669,
				"element": "C" 
			},
			{
				"x": 2.5888190394,
				"y": -0.5130475747,
				"z": 2.6029171503,
				"element": "C" 
			},
			{
				"x": 2.4469599407,
				"y": -0.1058968834,
				"z": 1.276829722,
				"element": "C" 
			},
			{
				"x": -3.3209810528,
				"y": 3.8618379325,
				"z": -0.6562244399,
				"element": "H" 
			},
			{
				"x": -3.2672826963,
				"y": 0.5132597027,
				"z": -1.4632836774,
				"element": "H" 
			},
			{
				"x": -2.1428710722,
				"y": 1.1679096951,
				"z": -2.6467903835,
				"element": "H" 
			},
			{
				"x": -1.2459598368,
				"y": -0.9093403211,
				"z": -1.6083314327,
				"element": "H" 
			},
			{
				"x": -1.3419402462,
				"y": -0.1702038386,
				"z": 0.0032112003,
				"element": "H" 
			},
			{
				"x": 0.2903415793,
				"y": 1.4911037637,
				"z": -0.8344893402,
				"element": "H" 
			},
			{
				"x": 0.6037027539,
				"y": -2.7363217471,
				"z": 0.1084135775,
				"element": "H" 
			},
			{
				"x": 2.1186045892,
				"y": -2.0243648142,
				"z": 4.0769648508,
				"element": "H" 
			},
			{
				"x": 3.1600441898,
				"y": 0.0949253056,
				"z": 3.2976049489,
				"element": "H" 
			},
			{
				"x": 2.9118107041,
				"y": 0.804572042,
				"z": 0.9152796894,
				"element": "H" 
			}
		],
		 "valence_orbital": [ 
			{
				"type": "occ",
				"energy": -0.30419,
				"method": "rhf"
			},
			{
				"type": "occ",
				"energy": -0.29909,
				"method": "rhf"
			},
			{
				"type": "occ",
				"energy": -0.29082,
				"method": "rhf"
			},
			{
				"type": "occ",
				"energy": -0.27407,
				"method": "rhf"
			},
			{
				"type": "occ",
				"energy": -0.26157,
				"method": "rhf"
			},
			{
				"type": "unocc",
				"energy": -0.04701,
				"method": "rhf"
			},
			{
				"type": "unocc",
				"energy": -0.03222,
				"method": "rhf"
			},
			{
				"type": "unocc",
				"energy": -0.0142,
				"method": "rhf"
			},
			{
				"type": "unocc",
				"energy": 0.01388,
				"method": "rhf"
			},
			{
				"type": "unocc",
				"energy": 0.06079,
				"method": "rhf"
			}
		],
		"cosmo_sigma_profile": { 
			"-0.025": 0.0,
			"-0.024": 0.0,
			"-0.023": 0.0,
			"-0.022": 0.0,
			"-0.021": 0.0,
			"-0.02": 0.0,
			"-0.019": 0.232375771109,
			"-0.018": 0.869681089666,
			"-0.017": 0.890078234971,
			"-0.016": 1.17574725778,
			"-0.015": 0.640632506972,
			"-0.014": 0.1712204225,
			"-0.013": 0.414292207007,
			"-0.012": 1.64513637926,
			"-0.011": 1.86133753228,
			"-0.01": 1.09708421572,
			"-0.009": 1.08295627695,
			"-0.008": 6.02837107359,
			"-0.007": 15.2703654252,
			"-0.006": 18.6676929522,
			"-0.005": 18.673188219,
			"-0.004": 16.3438415535,
			"-0.003": 16.1993754192,
			"-0.002": 15.0306157314,
			"-0.001": 14.45623891,
			"0.0": 18.1457052852,
			"0.001": 23.5294042347,
			"0.002": 17.2304593518,
			"0.003": 12.040776485,
			"0.004": 14.5111845997,
			"0.005": 7.00960326299,
			"0.006": 5.40358120868,
			"0.007": 6.54037956899,
			"0.008": 7.43440131589,
			"0.009": 7.13435180825,
			"0.01": 9.41239701413,
			"0.011": 11.1342624662,
			"0.012": 3.46940460526,
			"0.013": 0.0,
			"0.014": 0.0,
			"0.015": 0.0,
			"0.016": 0.0,
			"0.017": 0.0,
			"0.018": 0.0,
			"0.019": 0.0,
			"0.02": 0.0,
			"0.021": 0.0,
			"0.022": 0.0,
			"0.023": 0.0,
			"0.024": 0.0,
			"0.025": 0.0
		}
	}
}
