{
	 "smiles": "C1CNCC(C1)C1=CC=CC=C1", 
	 "Tm": 287.65, 
	 "num_atms": 27, 
	 "gaussian": { 
		 "optdone": 1, 
		 "sigma_profile": "yes", 
		 "theory": "DFT", 
		 "functional": "B3LYP", 
		 "basiset": "6-31G**", 
		 "properties": { 
			 "R2extent": 2588.4348, 
			 "electric_dipole_moment_norm": 0.87377265922, 
			 "electric_quadrupole_moment_norm": 3.99246344504, 
			 "total_energy": -482.968152335, 
			 "HOMO_LUMO_gap": 0.22021, 
			 "cosmo_polarized_energy": -5.76, 
			 "cosmo_cavitation_energy": 27.84, 
			 "cosmo_dispersion_energy": -20.6, 
			 "cosmo_repulsion_energy": 1.65, 
			 "cosmo_total_nonelectrostatic_energy": 8.89, 
			 "SMD_solvation_energy": 1.85 
		},
		"coords": [
			{
				"x": -1.3326484131,
				"y": -1.1750210773,
				"z": -2.8118802564,
				"element": "C" 
			},
			{
				"x": -2.3261867337,
				"y": -0.0256402677,
				"z": -2.6155321092,
				"element": "C" 
			},
			{
				"x": -2.5871930546,
				"y": 0.1493466963,
				"z": -1.1863340037,
				"element": "N" 
			},
			{
				"x": -1.3823669498,
				"y": 0.5181691157,
				"z": -0.4440103835,
				"element": "C" 
			},
			{
				"x": -0.3413347135,
				"y": -0.6183946367,
				"z": -0.5367215868,
				"element": "C" 
			},
			{
				"x": -0.0397191885,
				"y": -0.9186612694,
				"z": -2.0225187755,
				"element": "C" 
			},
			{
				"x": 0.9052660633,
				"y": -0.3202100817,
				"z": 0.2768793989,
				"element": "C" 
			},
			{
				"x": 1.7532792759,
				"y": 0.7531124383,
				"z": -0.0395742239,
				"element": "C" 
			},
			{
				"x": 2.8903682671,
				"y": 1.0204588373,
				"z": 0.7234437897,
				"element": "C" 
			},
			{
				"x": 3.2063497006,
				"y": 0.2168591246,
				"z": 1.8208321429,
				"element": "C" 
			},
			{
				"x": 2.3742329226,
				"y": -0.8543505824,
				"z": 2.1477679798,
				"element": "C" 
			},
			{
				"x": 1.2364586709,
				"y": -1.115902084,
				"z": 1.3823038139,
				"element": "C" 
			},
			{
				"x": -1.1098177891,
				"y": -1.2987793998,
				"z": -3.8782823929,
				"element": "H" 
			},
			{
				"x": -1.799848854,
				"y": -2.1044862394,
				"z": -2.4638997991,
				"element": "H" 
			},
			{
				"x": -1.9124368427,
				"y": 0.8886880288,
				"z": -3.0875676768,
				"element": "H" 
			},
			{
				"x": -3.273261741,
				"y": -0.2492381834,
				"z": -3.1192690867,
				"element": "H" 
			},
			{
				"x": -3.3062679678,
				"y": 0.8531667,
				"z": -1.0462463212,
				"element": "H" 
			},
			{
				"x": -1.6513130136,
				"y": 0.6868948064,
				"z": 0.6044951292,
				"element": "H" 
			},
			{
				"x": -0.9206479029,
				"y": 1.4542861699,
				"z": -0.8158947403,
				"element": "H" 
			},
			{
				"x": -0.8202360121,
				"y": -1.5091589155,
				"z": -0.1102354916,
				"element": "H" 
			},
			{
				"x": 0.6389246193,
				"y": -1.7759985605,
				"z": -2.0989975185,
				"element": "H" 
			},
			{
				"x": 0.4887035153,
				"y": -0.0626051756,
				"z": -2.4642604961,
				"element": "H" 
			},
			{
				"x": 1.5252744933,
				"y": 1.3883569749,
				"z": -0.8912523555,
				"element": "H" 
			},
			{
				"x": 3.5315016294,
				"y": 1.8572277508,
				"z": 0.4595089216,
				"element": "H" 
			},
			{
				"x": 4.0926576051,
				"y": 0.423733539,
				"z": 2.4139061622,
				"element": "H" 
			},
			{
				"x": 2.6092968021,
				"y": -1.4878469903,
				"z": 2.9987616217,
				"element": "H" 
			},
			{
				"x": 0.5926656115,
				"y": -1.952106718,
				"z": 1.6448782578,
				"element": "H" 
			}
		],
		 "valence_orbital": [ 
			{
				"type": "occ",
				"energy": -0.30885,
				"method": "rhf"
			},
			{
				"type": "occ",
				"energy": -0.3044,
				"method": "rhf"
			},
			{
				"type": "occ",
				"energy": -0.24427,
				"method": "rhf"
			},
			{
				"type": "occ",
				"energy": -0.23649,
				"method": "rhf"
			},
			{
				"type": "occ",
				"energy": -0.21679,
				"method": "rhf"
			},
			{
				"type": "unocc",
				"energy": 0.00342,
				"method": "rhf"
			},
			{
				"type": "unocc",
				"energy": 0.00555,
				"method": "rhf"
			},
			{
				"type": "unocc",
				"energy": 0.086,
				"method": "rhf"
			},
			{
				"type": "unocc",
				"energy": 0.0956,
				"method": "rhf"
			},
			{
				"type": "unocc",
				"energy": 0.10847,
				"method": "rhf"
			}
		],
		"cosmo_sigma_profile": { 
			"-0.025": 0.0,
			"-0.024": 0.0,
			"-0.023": 0.0,
			"-0.022": 0.0,
			"-0.021": 0.0,
			"-0.02": 0.0,
			"-0.019": 0.0,
			"-0.018": 0.0,
			"-0.017": 0.0,
			"-0.016": 0.0,
			"-0.015": 0.0,
			"-0.014": 0.0,
			"-0.013": 0.0,
			"-0.012": 0.0,
			"-0.011": 0.0,
			"-0.01": 0.682316590017,
			"-0.009": 1.20085854095,
			"-0.008": 1.39520286122,
			"-0.007": 1.35236195952,
			"-0.006": 2.05456460523,
			"-0.005": 10.2753372589,
			"-0.004": 14.3491185263,
			"-0.003": 24.0853891844,
			"-0.002": 24.8254860314,
			"-0.001": 32.89078524,
			"0.0": 29.7904808989,
			"0.001": 15.9646476571,
			"0.002": 10.806484721,
			"0.003": 9.63574902447,
			"0.004": 8.62579922669,
			"0.005": 8.83102428917,
			"0.006": 9.16751047905,
			"0.007": 5.17980841662,
			"0.008": 0.789083609991,
			"0.009": 0.644923886331,
			"0.01": 0.818194207654,
			"0.011": 0.580749790549,
			"0.012": 0.26843065659,
			"0.013": 0.571369286597,
			"0.014": 0.683464815775,
			"0.015": 0.35091344535,
			"0.016": 0.671882392993,
			"0.017": 0.390914991153,
			"0.018": 0.382442315732,
			"0.019": 0.0557948892968,
			"0.02": 0.0,
			"0.021": 0.0,
			"0.022": 0.0,
			"0.023": 0.0,
			"0.024": 0.0,
			"0.025": 0.0
		}
	}
}
