{
	 "smiles": "CC(C)CCC#N", 
	 "Tm": 222.15, 
	 "num_atms": 18, 
	 "gaussian": { 
		 "optdone": 1, 
		 "sigma_profile": "yes", 
		 "theory": "DFT", 
		 "functional": "B3LYP", 
		 "basiset": "6-31G**", 
		 "properties": { 
			 "R2extent": 1289.5208, 
			 "electric_dipole_moment_norm": 3.82126848311, 
			 "electric_quadrupole_moment_norm": 14.4218431766, 
			 "total_energy": -290.018904067, 
			 "HOMO_LUMO_gap": 0.3483, 
			 "cosmo_polarized_energy": -8.12, 
			 "cosmo_cavitation_energy": 20.98, 
			 "cosmo_dispersion_energy": -14.51, 
			 "cosmo_repulsion_energy": 1.24, 
			 "cosmo_total_nonelectrostatic_energy": 7.72, 
			 "SMD_solvation_energy": 5.02 
		},
		"coords": [
			{
				"x": -0.7513888601,
				"y": 2.3269383787,
				"z": -1.2373089593,
				"element": "C" 
			},
			{
				"x": -1.2098196274,
				"y": 0.9588881996,
				"z": -0.7106297352,
				"element": "C" 
			},
			{
				"x": -1.3764609395,
				"y": -0.0404124436,
				"z": -1.865510311,
				"element": "C" 
			},
			{
				"x": -0.2288350687,
				"y": 0.4565140392,
				"z": 0.3657550722,
				"element": "C" 
			},
			{
				"x": -0.6444481957,
				"y": -0.845336934,
				"z": 1.0873513794,
				"element": "C" 
			},
			{
				"x": -1.9265207815,
				"y": -0.7287018976,
				"z": 1.7899360535,
				"element": "C" 
			},
			{
				"x": -2.9428103825,
				"y": -0.6197533001,
				"z": 2.3405808171,
				"element": "N" 
			},
			{
				"x": -1.4587939503,
				"y": 2.7216131617,
				"z": -1.9738199589,
				"element": "H" 
			},
			{
				"x": 0.2283622203,
				"y": 2.2530962216,
				"z": -1.725351695,
				"element": "H" 
			},
			{
				"x": -0.6669610296,
				"y": 3.0602648134,
				"z": -0.4280760635,
				"element": "H" 
			},
			{
				"x": -2.1896880361,
				"y": 1.0926501187,
				"z": -0.2312463801,
				"element": "H" 
			},
			{
				"x": -1.7851234571,
				"y": -0.9995497112,
				"z": -1.531408458,
				"element": "H" 
			},
			{
				"x": -0.4155164099,
				"y": -0.2358028471,
				"z": -2.3579049085,
				"element": "H" 
			},
			{
				"x": -2.0613491607,
				"y": 0.3546445355,
				"z": -2.6227307519,
				"element": "H" 
			},
			{
				"x": 0.7546005701,
				"y": 0.2796123195,
				"z": -0.0891818369,
				"element": "H" 
			},
			{
				"x": -0.089264751,
				"y": 1.2394441656,
				"z": 1.1202071473,
				"element": "H" 
			},
			{
				"x": 0.120286354,
				"y": -1.1246607802,
				"z": 1.821227057,
				"element": "H" 
			},
			{
				"x": -0.7175684943,
				"y": -1.6788480398,
				"z": 0.3801115319,
				"element": "H" 
			}
		],
		 "valence_orbital": [ 
			{
				"type": "occ",
				"energy": -0.34305,
				"method": "rhf"
			},
			{
				"type": "occ",
				"energy": -0.33846,
				"method": "rhf"
			},
			{
				"type": "occ",
				"energy": -0.33383,
				"method": "rhf"
			},
			{
				"type": "occ",
				"energy": -0.31756,
				"method": "rhf"
			},
			{
				"type": "occ",
				"energy": -0.31471,
				"method": "rhf"
			},
			{
				"type": "unocc",
				"energy": 0.03359,
				"method": "rhf"
			},
			{
				"type": "unocc",
				"energy": 0.04086,
				"method": "rhf"
			},
			{
				"type": "unocc",
				"energy": 0.08065,
				"method": "rhf"
			},
			{
				"type": "unocc",
				"energy": 0.10383,
				"method": "rhf"
			},
			{
				"type": "unocc",
				"energy": 0.11834,
				"method": "rhf"
			}
		],
		"cosmo_sigma_profile": { 
			"-0.025": 0.0,
			"-0.024": 0.0,
			"-0.023": 0.0,
			"-0.022": 0.0,
			"-0.021": 0.0,
			"-0.02": 0.0,
			"-0.019": 0.0,
			"-0.018": 0.0,
			"-0.017": 0.0,
			"-0.016": 0.0,
			"-0.015": 0.0,
			"-0.014": 0.0,
			"-0.013": 0.0,
			"-0.012": 0.0,
			"-0.011": 0.0,
			"-0.01": 0.0,
			"-0.009": 0.0,
			"-0.008": 1.40054441715,
			"-0.007": 5.35997175632,
			"-0.006": 5.69463398555,
			"-0.005": 6.35311918279,
			"-0.004": 13.2840195375,
			"-0.003": 16.8245072407,
			"-0.002": 23.4911800742,
			"-0.001": 20.2047732923,
			"0.0": 17.5062494211,
			"0.001": 16.7624929761,
			"0.002": 7.6754957372,
			"0.003": 1.97458503734,
			"0.004": 1.72814446584,
			"0.005": 2.03246265563,
			"0.006": 2.47409374337,
			"0.007": 2.24066290591,
			"0.008": 3.03233678579,
			"0.009": 3.25042519668,
			"0.01": 3.57034483208,
			"0.011": 3.08966821145,
			"0.012": 2.7670458881,
			"0.013": 2.33196886977,
			"0.014": 0.843899393353,
			"0.015": 0.0,
			"0.016": 0.0,
			"0.017": 0.0,
			"0.018": 0.0,
			"0.019": 0.0,
			"0.02": 0.0,
			"0.021": 0.0,
			"0.022": 0.0,
			"0.023": 0.0,
			"0.024": 0.0,
			"0.025": 0.0
		}
	}
}
