{
	 "smiles": "CC(C)(O)C1(C)CCC(C(O)=O)C(C)(C)O1", 
	 "Tm": 384.15, 
	 "num_atms": 38, 
	 "gaussian": { 
		 "optdone": 1, 
		 "sigma_profile": "yes", 
		 "theory": "DFT", 
		 "functional": "B3LYP", 
		 "basiset": "6-31G**", 
		 "properties": { 
			 "R2extent": 3882.7694, 
			 "electric_dipole_moment_norm": 3.54335133172, 
			 "electric_quadrupole_moment_norm": 12.0255836025, 
			 "total_energy": -771.451770033, 
			 "HOMO_LUMO_gap": 0.23761, 
			 "cosmo_polarized_energy": -12.99, 
			 "cosmo_cavitation_energy": 34.82, 
			 "cosmo_dispersion_energy": -24.42, 
			 "cosmo_repulsion_energy": 1.84, 
			 "cosmo_total_nonelectrostatic_energy": 12.24, 
			 "SMD_solvation_energy": 6.81 
		},
		"coords": [
			{
				"x": -2.7620975388,
				"y": -0.8530410735,
				"z": 0.0197080947,
				"element": "C" 
			},
			{
				"x": -1.9744023378,
				"y": -0.9279876631,
				"z": 1.3399540151,
				"element": "C" 
			},
			{
				"x": -2.1908055463,
				"y": -2.3019340845,
				"z": 1.9844276126,
				"element": "C" 
			},
			{
				"x": -2.5372666609,
				"y": 0.0217536813,
				"z": 2.2510236018,
				"element": "O" 
			},
			{
				"x": -0.4465985322,
				"y": -0.5730571898,
				"z": 1.1715092053,
				"element": "C" 
			},
			{
				"x": 0.2864793025,
				"y": -0.7175143772,
				"z": 2.5170101958,
				"element": "C" 
			},
			{
				"x": 0.2557130817,
				"y": -1.3635334126,
				"z": 0.0621429912,
				"element": "C" 
			},
			{
				"x": 1.670967992,
				"y": -0.8323024475,
				"z": -0.2006614671,
				"element": "C" 
			},
			{
				"x": 1.7438092587,
				"y": 0.7114027763,
				"z": -0.3864680773,
				"element": "C" 
			},
			{
				"x": 2.8505784033,
				"y": 1.2942301076,
				"z": 0.4805175683,
				"element": "C" 
			},
			{
				"x": 3.5333590942,
				"y": 2.26983658,
				"z": -0.1689863438,
				"element": "O" 
			},
			{
				"x": 3.1375121203,
				"y": 0.9634899888,
				"z": 1.6122696114,
				"element": "O" 
			},
			{
				"x": 0.3591748888,
				"y": 1.4434851546,
				"z": -0.1709532669,
				"element": "C" 
			},
			{
				"x": 0.5323739312,
				"y": 2.8960885661,
				"z": 0.2975201753,
				"element": "C" 
			},
			{
				"x": -0.3990119897,
				"y": 1.4541085916,
				"z": -1.5153102919,
				"element": "C" 
			},
			{
				"x": -0.4476664441,
				"y": 0.8525522644,
				"z": 0.8600148993,
				"element": "O" 
			},
			{
				"x": -2.4933036135,
				"y": -1.6493084441,
				"z": -0.6819679731,
				"element": "H" 
			},
			{
				"x": -2.6125970662,
				"y": 0.1098019427,
				"z": -0.4733972526,
				"element": "H" 
			},
			{
				"x": -3.8261057539,
				"y": -0.952178238,
				"z": 0.2507735499,
				"element": "H" 
			},
			{
				"x": -3.2648649579,
				"y": -2.4860389085,
				"z": 2.0802714531,
				"element": "H" 
			},
			{
				"x": -1.7625696978,
				"y": -3.1050203485,
				"z": 1.3766272584,
				"element": "H" 
			},
			{
				"x": -1.7566635456,
				"y": -2.3437680783,
				"z": 2.9847126231,
				"element": "H" 
			},
			{
				"x": -2.2133424932,
				"y": 0.8844411896,
				"z": 1.9487975644,
				"element": "H" 
			},
			{
				"x": 0.4434731293,
				"y": -1.7691638005,
				"z": 2.7768039371,
				"element": "H" 
			},
			{
				"x": -0.3113605765,
				"y": -0.2524574366,
				"z": 3.3034935823,
				"element": "H" 
			},
			{
				"x": 1.258163415,
				"y": -0.2233516746,
				"z": 2.4798523696,
				"element": "H" 
			},
			{
				"x": 0.3206524439,
				"y": -2.4159906799,
				"z": 0.3571548334,
				"element": "H" 
			},
			{
				"x": -0.3355387055,
				"y": -1.336717461,
				"z": -0.8563707861,
				"element": "H" 
			},
			{
				"x": 2.312777751,
				"y": -1.1063948502,
				"z": 0.6394857274,
				"element": "H" 
			},
			{
				"x": 2.0861019003,
				"y": -1.3234866476,
				"z": -1.0864333494,
				"element": "H" 
			},
			{
				"x": 2.0309460712,
				"y": 0.9440035097,
				"z": -1.4148679676,
				"element": "H" 
			},
			{
				"x": 4.1976192241,
				"y": 2.5990022428,
				"z": 0.4606158922,
				"element": "H" 
			},
			{
				"x": 1.0019235567,
				"y": 2.9268344269,
				"z": 1.2840300483,
				"element": "H" 
			},
			{
				"x": -0.4521573433,
				"y": 3.3650057382,
				"z": 0.380516747,
				"element": "H" 
			},
			{
				"x": 1.1380933256,
				"y": 3.4738013776,
				"z": -0.4051373112,
				"element": "H" 
			},
			{
				"x": 0.1385587461,
				"y": 2.0654513893,
				"z": -2.2478338266,
				"element": "H" 
			},
			{
				"x": -1.39201956,
				"y": 1.8894912976,
				"z": -1.3732667593,
				"element": "H" 
			},
			{
				"x": -0.5212052729,
				"y": 0.4548659911,
				"z": -1.9386788842,
				"element": "H" 
			}
		],
		 "valence_orbital": [ 
			{
				"type": "occ",
				"energy": -0.30158,
				"method": "rhf"
			},
			{
				"type": "occ",
				"energy": -0.28943,
				"method": "rhf"
			},
			{
				"type": "occ",
				"energy": -0.28124,
				"method": "rhf"
			},
			{
				"type": "occ",
				"energy": -0.26047,
				"method": "rhf"
			},
			{
				"type": "occ",
				"energy": -0.23957,
				"method": "rhf"
			},
			{
				"type": "unocc",
				"energy": -0.00196,
				"method": "rhf"
			},
			{
				"type": "unocc",
				"energy": 0.06315,
				"method": "rhf"
			},
			{
				"type": "unocc",
				"energy": 0.07613,
				"method": "rhf"
			},
			{
				"type": "unocc",
				"energy": 0.09621,
				"method": "rhf"
			},
			{
				"type": "unocc",
				"energy": 0.10045,
				"method": "rhf"
			}
		],
		"cosmo_sigma_profile": { 
			"-0.025": 0.0,
			"-0.024": 0.0,
			"-0.023": 0.0,
			"-0.022": 0.0,
			"-0.021": 0.0,
			"-0.02": 0.0,
			"-0.019": 0.0,
			"-0.018": 0.542241366631,
			"-0.017": 1.22826453271,
			"-0.016": 0.547199786917,
			"-0.015": 0.570477698932,
			"-0.014": 1.00612718391,
			"-0.013": 0.865401478379,
			"-0.012": 0.695228614494,
			"-0.011": 0.521145533026,
			"-0.01": 1.10778725913,
			"-0.009": 1.39701829795,
			"-0.008": 0.794299837252,
			"-0.007": 0.885081684912,
			"-0.006": 1.89412279034,
			"-0.005": 6.51485417613,
			"-0.004": 20.1528931339,
			"-0.003": 36.3217489145,
			"-0.002": 32.7556432124,
			"-0.001": 32.3904944509,
			"0.0": 31.4028771551,
			"0.001": 26.5406272979,
			"0.002": 15.0309235298,
			"0.003": 8.64146916195,
			"0.004": 6.61853163814,
			"0.005": 5.66374575007,
			"0.006": 5.19004910758,
			"0.007": 4.75774571469,
			"0.008": 4.91622086651,
			"0.009": 4.17114303777,
			"0.01": 3.24519940163,
			"0.011": 4.16640141049,
			"0.012": 3.14140751469,
			"0.013": 1.28742361325,
			"0.014": 1.54712198011,
			"0.015": 1.51820844603,
			"0.016": 0.0361248338949,
			"0.017": 0.0,
			"0.018": 0.0,
			"0.019": 0.0,
			"0.02": 0.0,
			"0.021": 0.0,
			"0.022": 0.0,
			"0.023": 0.0,
			"0.024": 0.0,
			"0.025": 0.0
		}
	}
}
