{
	 "smiles": "[O-][N+](=O)C1=CC(C#N)=C(SC2=CC=C(Cl)C=C2)C=C1", 
	 "Tm": 441.15, 
	 "num_atms": 26, 
	 "gaussian": { 
		 "optdone": 1, 
		 "sigma_profile": "yes", 
		 "theory": "DFT", 
		 "functional": "B3LYP", 
		 "basiset": "6-31G**", 
		 "properties": { 
			 "R2extent": 8445.564, 
			 "electric_dipole_moment_norm": 3.79855862927, 
			 "electric_quadrupole_moment_norm": 16.1572535247, 
			 "total_energy": -1617.80483778, 
			 "HOMO_LUMO_gap": 0.13543, 
			 "cosmo_polarized_energy": -14.14, 
			 "cosmo_cavitation_energy": 36.69, 
			 "cosmo_dispersion_energy": -25.57, 
			 "cosmo_repulsion_energy": 1.93, 
			 "cosmo_total_nonelectrostatic_energy": 13.05, 
			 "SMD_solvation_energy": 8.83 
		},
		"coords": [
			{
				"x": -2.7524522649,
				"y": -1.9573139991,
				"z": -5.6498662721,
				"element": "O" 
			},
			{
				"x": -3.0910297011,
				"y": -2.1200387708,
				"z": -4.4792147801,
				"element": "N" 
			},
			{
				"x": -4.2370281193,
				"y": -2.3479871172,
				"z": -4.0978063743,
				"element": "O" 
			},
			{
				"x": -2.0379246728,
				"y": -2.0342764811,
				"z": -3.4531198758,
				"element": "C" 
			},
			{
				"x": -2.3838438957,
				"y": -2.223795842,
				"z": -2.1209443258,
				"element": "C" 
			},
			{
				"x": -1.3847260748,
				"y": -2.1486170438,
				"z": -1.1414851978,
				"element": "C" 
			},
			{
				"x": -1.7487470294,
				"y": -2.4246025235,
				"z": 0.2175820552,
				"element": "C" 
			},
			{
				"x": -2.0750376249,
				"y": -2.6752678419,
				"z": 1.3050495638,
				"element": "N" 
			},
			{
				"x": -0.0483827962,
				"y": -1.8485803086,
				"z": -1.5087037591,
				"element": "C" 
			},
			{
				"x": 1.3023006582,
				"y": -1.7793102928,
				"z": -0.3394208145,
				"element": "S" 
			},
			{
				"x": 0.7681187782,
				"y": -0.5347903865,
				"z": 0.8440613748,
				"element": "C" 
			},
			{
				"x": 0.5232115785,
				"y": 0.7836363433,
				"z": 0.4386198031,
				"element": "C" 
			},
			{
				"x": 0.184760353,
				"y": 1.7543014515,
				"z": 1.3785672387,
				"element": "C" 
			},
			{
				"x": 0.1201229082,
				"y": 1.403044282,
				"z": 2.728381014,
				"element": "C" 
			},
			{
				"x": -0.2893726358,
				"y": 2.62722207,
				"z": 3.915424559,
				"element": "Cl" 
			},
			{
				"x": 0.3756976458,
				"y": 0.0984285121,
				"z": 3.1479848559,
				"element": "C" 
			},
			{
				"x": 0.6912750296,
				"y": -0.8736737289,
				"z": 2.19893782,
				"element": "C" 
			},
			{
				"x": 0.2570562848,
				"y": -1.6756405779,
				"z": -2.8661584846,
				"element": "C" 
			},
			{
				"x": -0.7273164375,
				"y": -1.7734501404,
				"z": -3.8451375222,
				"element": "C" 
			},
			{
				"x": -3.4099066537,
				"y": -2.4450069648,
				"z": -1.8556886701,
				"element": "H" 
			},
			{
				"x": 0.5986255756,
				"y": 1.0548269085,
				"z": -0.6094793052,
				"element": "H" 
			},
			{
				"x": -0.0125304745,
				"y": 2.7754344651,
				"z": 1.0719287116,
				"element": "H" 
			},
			{
				"x": 0.3112866689,
				"y": -0.1588789654,
				"z": 4.1990815498,
				"element": "H" 
			},
			{
				"x": 0.861291767,
				"y": -1.8978767065,
				"z": 2.5120117708,
				"element": "H" 
			},
			{
				"x": 1.2790852083,
				"y": -1.4484028028,
				"z": -3.149149664,
				"element": "H" 
			},
			{
				"x": -0.5017340756,
				"y": -1.6353835384,
				"z": -4.8952552711,
				"element": "H" 
			}
		],
		 "valence_orbital": [ 
			{
				"type": "occ",
				"energy": -0.3093,
				"method": "rhf"
			},
			{
				"type": "occ",
				"energy": -0.29724,
				"method": "rhf"
			},
			{
				"type": "occ",
				"energy": -0.28161,
				"method": "rhf"
			},
			{
				"type": "occ",
				"energy": -0.27729,
				"method": "rhf"
			},
			{
				"type": "occ",
				"energy": -0.24803,
				"method": "rhf"
			},
			{
				"type": "unocc",
				"energy": -0.1126,
				"method": "rhf"
			},
			{
				"type": "unocc",
				"energy": -0.07906,
				"method": "rhf"
			},
			{
				"type": "unocc",
				"energy": -0.04555,
				"method": "rhf"
			},
			{
				"type": "unocc",
				"energy": -0.03775,
				"method": "rhf"
			},
			{
				"type": "unocc",
				"energy": -0.02866,
				"method": "rhf"
			}
		],
		"cosmo_sigma_profile": { 
			"-0.025": 0.0,
			"-0.024": 0.0,
			"-0.023": 0.0,
			"-0.022": 0.0,
			"-0.021": 0.0,
			"-0.02": 0.0,
			"-0.019": 0.0,
			"-0.018": 0.0,
			"-0.017": 0.0,
			"-0.016": 0.0,
			"-0.015": 0.0,
			"-0.014": 0.0,
			"-0.013": 0.0,
			"-0.012": 0.0,
			"-0.011": 0.0,
			"-0.01": 0.885380866856,
			"-0.009": 4.10477073908,
			"-0.008": 8.78560924531,
			"-0.007": 14.48551863,
			"-0.006": 12.9883884679,
			"-0.005": 15.5715166244,
			"-0.004": 17.602877672,
			"-0.003": 27.605769827,
			"-0.002": 25.5786452917,
			"-0.001": 19.0649825286,
			"0.0": 17.6025216632,
			"0.001": 22.3604145107,
			"0.002": 23.625498715,
			"0.003": 18.4970470218,
			"0.004": 18.7744369394,
			"0.005": 10.693663172,
			"0.006": 10.2511428401,
			"0.007": 11.3368208866,
			"0.008": 8.28628817143,
			"0.009": 6.21389457015,
			"0.01": 2.71836560781,
			"0.011": 2.30921811171,
			"0.012": 1.82304644867,
			"0.013": 0.207000146818,
			"0.014": 0.0,
			"0.015": 0.0,
			"0.016": 0.0,
			"0.017": 0.0,
			"0.018": 0.0,
			"0.019": 0.0,
			"0.02": 0.0,
			"0.021": 0.0,
			"0.022": 0.0,
			"0.023": 0.0,
			"0.024": 0.0,
			"0.025": 0.0
		}
	}
}
