{
	 "smiles": "CC(=O)O[C@@H]1[C@@H](OC(C)=O)C(=O)OC1=O", 
	 "Tm": 405.15, 
	 "num_atms": 23, 
	 "gaussian": { 
		 "optdone": 1, 
		 "sigma_profile": "yes", 
		 "theory": "DFT", 
		 "functional": "B3LYP", 
		 "basiset": "6-31G**", 
		 "properties": { 
			 "R2extent": 3609.6576, 
			 "electric_dipole_moment_norm": 3.98146370321, 
			 "electric_quadrupole_moment_norm": 11.0869764963, 
			 "total_energy": -836.262016011, 
			 "HOMO_LUMO_gap": 0.24987, 
			 "cosmo_polarized_energy": -16.38, 
			 "cosmo_cavitation_energy": 30.13, 
			 "cosmo_dispersion_energy": -20.43, 
			 "cosmo_repulsion_energy": 1.67, 
			 "cosmo_total_nonelectrostatic_energy": 11.37, 
			 "SMD_solvation_energy": 9.81 
		},
		"coords": [
			{
				"x": -0.7486653021,
				"y": -2.8761505532,
				"z": 1.9731007617,
				"element": "C" 
			},
			{
				"x": -1.2311856807,
				"y": -1.5421376329,
				"z": 1.473771433,
				"element": "C" 
			},
			{
				"x": -2.3043555107,
				"y": -1.035827302,
				"z": 1.6914650144,
				"element": "O" 
			},
			{
				"x": -0.2585841594,
				"y": -0.9431212325,
				"z": 0.7084663652,
				"element": "O" 
			},
			{
				"x": -0.5420126274,
				"y": 0.3597740455,
				"z": 0.2306558932,
				"element": "C" 
			},
			{
				"x": -0.1717601914,
				"y": 0.5567972248,
				"z": -1.2317545076,
				"element": "C" 
			},
			{
				"x": -1.2630420514,
				"y": 0.3690252238,
				"z": -2.1149347742,
				"element": "O" 
			},
			{
				"x": -1.0181158257,
				"y": -0.3747815559,
				"z": -3.2450738583,
				"element": "C" 
			},
			{
				"x": -2.2429539467,
				"y": -0.4104154844,
				"z": -4.117000387,
				"element": "C" 
			},
			{
				"x": 0.0421487882,
				"y": -0.9050261128,
				"z": -3.4689399671,
				"element": "O" 
			},
			{
				"x": 0.3038897785,
				"y": 2.0106834423,
				"z": -1.2659835079,
				"element": "C" 
			},
			{
				"x": 0.3743961956,
				"y": 2.7530453093,
				"z": -2.1966994306,
				"element": "O" 
			},
			{
				"x": 0.6833694542,
				"y": 2.3779051196,
				"z": 0.0214398047,
				"element": "O" 
			},
			{
				"x": 0.3314443117,
				"y": 1.3953968108,
				"z": 0.9418415629,
				"element": "C" 
			},
			{
				"x": 0.6790873182,
				"y": 1.4243528833,
				"z": 2.0822844314,
				"element": "O" 
			},
			{
				"x": -0.3678223743,
				"y": -3.4783093658,
				"z": 1.1439814034,
				"element": "H" 
			},
			{
				"x": -1.566371331,
				"y": -3.3918008251,
				"z": 2.4748782018,
				"element": "H" 
			},
			{
				"x": 0.0775267871,
				"y": -2.7226174714,
				"z": 2.6742592976,
				"element": "H" 
			},
			{
				"x": -1.5974294561,
				"y": 0.6010231432,
				"z": 0.4075008372,
				"element": "H" 
			},
			{
				"x": 0.6596899353,
				"y": -0.0977265614,
				"z": -1.5210063079,
				"element": "H" 
			},
			{
				"x": -2.0772554852,
				"y": -1.0978027639,
				"z": -4.9454698562,
				"element": "H" 
			},
			{
				"x": -2.4409525236,
				"y": 0.5940925707,
				"z": -4.503723387,
				"element": "H" 
			},
			{
				"x": -3.1163461029,
				"y": -0.715978912,
				"z": -3.5348590228,
				"element": "H" 
			}
		],
		 "valence_orbital": [ 
			{
				"type": "occ",
				"energy": -0.34568,
				"method": "rhf"
			},
			{
				"type": "occ",
				"energy": -0.30731,
				"method": "rhf"
			},
			{
				"type": "occ",
				"energy": -0.30566,
				"method": "rhf"
			},
			{
				"type": "occ",
				"energy": -0.3007,
				"method": "rhf"
			},
			{
				"type": "occ",
				"energy": -0.29785,
				"method": "rhf"
			},
			{
				"type": "unocc",
				"energy": -0.04798,
				"method": "rhf"
			},
			{
				"type": "unocc",
				"energy": -0.02986,
				"method": "rhf"
			},
			{
				"type": "unocc",
				"energy": -0.01487,
				"method": "rhf"
			},
			{
				"type": "unocc",
				"energy": -0.01249,
				"method": "rhf"
			},
			{
				"type": "unocc",
				"energy": 0.08837,
				"method": "rhf"
			}
		],
		"cosmo_sigma_profile": { 
			"-0.025": 0.0,
			"-0.024": 0.0,
			"-0.023": 0.0,
			"-0.022": 0.0,
			"-0.021": 0.0,
			"-0.02": 0.0,
			"-0.019": 0.0,
			"-0.018": 0.0,
			"-0.017": 0.0,
			"-0.016": 0.0904896544815,
			"-0.015": 1.04699202603,
			"-0.014": 1.72673571278,
			"-0.013": 1.86052488929,
			"-0.012": 1.65628884369,
			"-0.011": 1.66922181278,
			"-0.01": 2.35559275354,
			"-0.009": 2.27995154612,
			"-0.008": 3.08268604279,
			"-0.007": 12.1040573381,
			"-0.006": 13.9423904241,
			"-0.005": 19.0970039968,
			"-0.004": 17.4061375466,
			"-0.003": 21.1089606662,
			"-0.002": 18.2599673487,
			"-0.001": 10.9992869819,
			"0.0": 9.16770099488,
			"0.001": 9.45115880596,
			"0.002": 8.0635735941,
			"0.003": 7.90908681845,
			"0.004": 10.3202471834,
			"0.005": 11.7755799889,
			"0.006": 8.66312744293,
			"0.007": 7.57657775996,
			"0.008": 11.1853411569,
			"0.009": 13.48914818,
			"0.01": 7.94653978119,
			"0.011": 5.37533581928,
			"0.012": 0.916914771223,
			"0.013": 0.0,
			"0.014": 0.0,
			"0.015": 0.0,
			"0.016": 0.0,
			"0.017": 0.0,
			"0.018": 0.0,
			"0.019": 0.0,
			"0.02": 0.0,
			"0.021": 0.0,
			"0.022": 0.0,
			"0.023": 0.0,
			"0.024": 0.0,
			"0.025": 0.0
		}
	}
}
