{
	 "smiles": "OC1=C(C=C(C=C1)C#N)[N+]([O-])=O", 
	 "Tm": 419.15, 
	 "num_atms": 16, 
	 "gaussian": { 
		 "optdone": 1, 
		 "sigma_profile": "yes", 
		 "theory": "DFT", 
		 "functional": "B3LYP", 
		 "basiset": "6-31G**", 
		 "properties": { 
			 "R2extent": 2676.4663, 
			 "electric_dipole_moment_norm": 3.35393644692, 
			 "electric_quadrupole_moment_norm": 17.2491514368, 
			 "total_energy": -604.214142597, 
			 "HOMO_LUMO_gap": 0.14852, 
			 "cosmo_polarized_energy": -12.23, 
			 "cosmo_cavitation_energy": 22.54, 
			 "cosmo_dispersion_energy": -16.39, 
			 "cosmo_repulsion_energy": 1.29, 
			 "cosmo_total_nonelectrostatic_energy": 7.44, 
			 "SMD_solvation_energy": 7.84 
		},
		"coords": [
			{
				"x": 0.5978836006,
				"y": 1.1754403632,
				"z": 1.7509207583,
				"element": "O" 
			},
			{
				"x": 0.1962243364,
				"y": 0.9597609503,
				"z": 0.5022362664,
				"element": "C" 
			},
			{
				"x": -1.0957294736,
				"y": 1.2843096684,
				"z": 0.0133191046,
				"element": "C" 
			},
			{
				"x": -1.4601094273,
				"y": 1.0333626706,
				"z": -1.3123754458,
				"element": "C" 
			},
			{
				"x": -0.5422430025,
				"y": 0.4516154724,
				"z": -2.1824551129,
				"element": "C" 
			},
			{
				"x": 0.7507846645,
				"y": 0.1223978649,
				"z": -1.7075302846,
				"element": "C" 
			},
			{
				"x": 1.1077281624,
				"y": 0.3713655418,
				"z": -0.3981782688,
				"element": "C" 
			},
			{
				"x": -0.8998605193,
				"y": 0.1880684895,
				"z": -3.5439035771,
				"element": "C" 
			},
			{
				"x": -1.1784936181,
				"y": -0.0307806025,
				"z": -4.6517664541,
				"element": "N" 
			},
			{
				"x": -2.084212239,
				"y": 1.891608654,
				"z": 0.8845544396,
				"element": "N" 
			},
			{
				"x": -3.1894095119,
				"y": 2.1609460188,
				"z": 0.4360140778,
				"element": "O" 
			},
			{
				"x": -1.7576712244,
				"y": 2.11644987,
				"z": 2.0725582616,
				"element": "O" 
			},
			{
				"x": -0.1661634491,
				"y": 1.5881037368,
				"z": 2.2247773542,
				"element": "H" 
			},
			{
				"x": -2.4578004153,
				"y": 1.2989733547,
				"z": -1.6381765622,
				"element": "H" 
			},
			{
				"x": 1.4647589626,
				"y": -0.3309581455,
				"z": -2.3869519939,
				"element": "H" 
			},
			{
				"x": 2.094513154,
				"y": 0.1236360926,
				"z": -0.0237425631,
				"element": "H" 
			}
		],
		 "valence_orbital": [ 
			{
				"type": "occ",
				"energy": -0.34154,
				"method": "rhf"
			},
			{
				"type": "occ",
				"energy": -0.33849,
				"method": "rhf"
			},
			{
				"type": "occ",
				"energy": -0.32653,
				"method": "rhf"
			},
			{
				"type": "occ",
				"energy": -0.31228,
				"method": "rhf"
			},
			{
				"type": "occ",
				"energy": -0.26855,
				"method": "rhf"
			},
			{
				"type": "unocc",
				"energy": -0.12003,
				"method": "rhf"
			},
			{
				"type": "unocc",
				"energy": -0.06489,
				"method": "rhf"
			},
			{
				"type": "unocc",
				"energy": -0.03243,
				"method": "rhf"
			},
			{
				"type": "unocc",
				"energy": 0.02012,
				"method": "rhf"
			},
			{
				"type": "unocc",
				"energy": 0.05821,
				"method": "rhf"
			}
		],
		"cosmo_sigma_profile": { 
			"-0.025": 0.0,
			"-0.024": 0.0,
			"-0.023": 0.0,
			"-0.022": 0.0,
			"-0.021": 0.0,
			"-0.02": 0.0,
			"-0.019": 0.0,
			"-0.018": 0.0,
			"-0.017": 0.0,
			"-0.016": 0.0,
			"-0.015": 0.0,
			"-0.014": 0.0,
			"-0.013": 0.0,
			"-0.012": 0.159717242895,
			"-0.011": 0.486027117479,
			"-0.01": 1.44539046509,
			"-0.009": 7.349030989,
			"-0.008": 9.49100943089,
			"-0.007": 9.29491700188,
			"-0.006": 8.63698252871,
			"-0.005": 8.04789359484,
			"-0.004": 10.4305387852,
			"-0.003": 14.3441264637,
			"-0.002": 16.7230132684,
			"-0.001": 14.3392546329,
			"0.0": 8.8521641146,
			"0.001": 5.47468951613,
			"0.002": 6.00088812801,
			"0.003": 5.48791557083,
			"0.004": 6.59410526529,
			"0.005": 6.35755519028,
			"0.006": 9.37287652511,
			"0.007": 9.73436504497,
			"0.008": 8.81158355155,
			"0.009": 7.02250064005,
			"0.01": 2.93153360297,
			"0.011": 2.77090502989,
			"0.012": 2.35044045214,
			"0.013": 0.827482651147,
			"0.014": 0.0,
			"0.015": 0.0,
			"0.016": 0.0,
			"0.017": 0.0,
			"0.018": 0.0,
			"0.019": 0.0,
			"0.02": 0.0,
			"0.021": 0.0,
			"0.022": 0.0,
			"0.023": 0.0,
			"0.024": 0.0,
			"0.025": 0.0
		}
	}
}
