{
	 "smiles": "CCOC(=O)C1=NN(C(C)=C1C(=O)C1=NOC(=C1S(=O)(=O)C1=CC=CC=C1)C1=CC=C(Br)C=C1)C1=CC=C(C)C=C1", 
	 "Tm": 443.15, 
	 "num_atms": 65, 
	 "gaussian": { 
		 "optdone": 1, 
		 "sigma_profile": "yes", 
		 "theory": "DFT", 
		 "functional": "B3LYP", 
		 "basiset": "6-31G**", 
		 "properties": { 
			 "R2extent": 40255.0248, 
			 "electric_dipole_moment_norm": 9.09770704189, 
			 "electric_quadrupole_moment_norm": 27.0434033067, 
			 "total_energy": -4742.7238517, 
			 "HOMO_LUMO_gap": 0.16604, 
			 "cosmo_polarized_energy": -25.53, 
			 "cosmo_cavitation_energy": 73.56, 
			 "cosmo_dispersion_energy": -48.3, 
			 "cosmo_repulsion_energy": 3.61, 
			 "cosmo_total_nonelectrostatic_energy": 28.88, 
			 "SMD_solvation_energy": 10.59 
		},
		"coords": [
			{
				"x": -3.2155098319,
				"y": -0.9959282776,
				"z": 3.2263611681,
				"element": "C" 
			},
			{
				"x": -2.9043989829,
				"y": -1.8834181558,
				"z": 2.0307469562,
				"element": "C" 
			},
			{
				"x": -2.4347403382,
				"y": -1.1024679189,
				"z": 0.9043813536,
				"element": "O" 
			},
			{
				"x": -1.1241253053,
				"y": -0.8211538038,
				"z": 0.8754728785,
				"element": "C" 
			},
			{
				"x": -0.317505032,
				"y": -1.1953891124,
				"z": 1.7081419407,
				"element": "O" 
			},
			{
				"x": -0.7601447623,
				"y": 0.0295784615,
				"z": -0.2880302947,
				"element": "C" 
			},
			{
				"x": -1.6648858153,
				"y": 0.8278462064,
				"z": -0.8392414918,
				"element": "N" 
			},
			{
				"x": -0.9862533336,
				"y": 1.5433907964,
				"z": -1.7726674494,
				"element": "N" 
			},
			{
				"x": 0.3481683682,
				"y": 1.2432612162,
				"z": -1.8045798376,
				"element": "C" 
			},
			{
				"x": 1.3416420268,
				"y": 1.9129461572,
				"z": -2.6988614079,
				"element": "C" 
			},
			{
				"x": 0.5349060223,
				"y": 0.2367376111,
				"z": -0.854381832,
				"element": "C" 
			},
			{
				"x": 1.821254646,
				"y": -0.4242993199,
				"z": -0.5807815896,
				"element": "C" 
			},
			{
				"x": 2.9028363349,
				"y": 0.1269798514,
				"z": -0.7457503848,
				"element": "O" 
			},
			{
				"x": 1.8110910311,
				"y": -1.873286525,
				"z": -0.1903231242,
				"element": "C" 
			},
			{
				"x": 0.9313466071,
				"y": -2.660073771,
				"z": -0.7691613015,
				"element": "N" 
			},
			{
				"x": 1.2470648613,
				"y": -3.9467761104,
				"z": -0.3588313261,
				"element": "O" 
			},
			{
				"x": 2.3127699754,
				"y": -3.9242263016,
				"z": 0.4770310462,
				"element": "C" 
			},
			{
				"x": 2.7178620955,
				"y": -2.6153387654,
				"z": 0.6311369498,
				"element": "C" 
			},
			{
				"x": 4.032113715,
				"y": -2.077037666,
				"z": 1.7280712261,
				"element": "S" 
			},
			{
				"x": 3.9230577154,
				"y": -2.9205772399,
				"z": 2.9288968143,
				"element": "O" 
			},
			{
				"x": 5.2928678419,
				"y": -2.054362218,
				"z": 0.9692540374,
				"element": "O" 
			},
			{
				"x": 3.6188929857,
				"y": -0.3999602208,
				"z": 2.2058712303,
				"element": "C" 
			},
			{
				"x": 4.4895070118,
				"y": 0.6272100999,
				"z": 1.8425366669,
				"element": "C" 
			},
			{
				"x": 4.2249391335,
				"y": 1.9200509703,
				"z": 2.2936568296,
				"element": "C" 
			},
			{
				"x": 3.1004236099,
				"y": 2.169616415,
				"z": 3.0837128734,
				"element": "C" 
			},
			{
				"x": 2.2356437585,
				"y": 1.1290179084,
				"z": 3.432899462,
				"element": "C" 
			},
			{
				"x": 2.4949986145,
				"y": -0.1720533123,
				"z": 3.0028262675,
				"element": "C" 
			},
			{
				"x": 2.7615627762,
				"y": -5.2305519266,
				"z": 0.9596526157,
				"element": "C" 
			},
			{
				"x": 4.1183483371,
				"y": -5.4879505276,
				"z": 1.2141156782,
				"element": "C" 
			},
			{
				"x": 4.5264649818,
				"y": -6.7479933142,
				"z": 1.6417126976,
				"element": "C" 
			},
			{
				"x": 3.5765848033,
				"y": -7.7546648063,
				"z": 1.8110771117,
				"element": "C" 
			},
			{
				"x": 4.1349378606,
				"y": -9.4820934398,
				"z": 2.3986667347,
				"element": "Br" 
			},
			{
				"x": 2.225313161,
				"y": -7.5245541933,
				"z": 1.5527052561,
				"element": "C" 
			},
			{
				"x": 1.8231119892,
				"y": -6.2636468825,
				"z": 1.1240448326,
				"element": "C" 
			},
			{
				"x": -1.7051831278,
				"y": 2.5189610131,
				"z": -2.530549889,
				"element": "C" 
			},
			{
				"x": -2.6238037546,
				"y": 3.3423212856,
				"z": -1.8725460848,
				"element": "C" 
			},
			{
				"x": -3.344293748,
				"y": 4.2840953453,
				"z": -2.5998736803,
				"element": "C" 
			},
			{
				"x": -3.1647293049,
				"y": 4.4332956982,
				"z": -3.9835899002,
				"element": "C" 
			},
			{
				"x": -3.9283306128,
				"y": 5.483144234,
				"z": -4.7546103951,
				"element": "C" 
			},
			{
				"x": -2.2484444586,
				"y": 3.589149588,
				"z": -4.6216797381,
				"element": "C" 
			},
			{
				"x": -1.5261850897,
				"y": 2.6308964221,
				"z": -3.9102781016,
				"element": "C" 
			},
			{
				"x": -2.3055766978,
				"y": -0.5201023879,
				"z": 3.6003018916,
				"element": "H" 
			},
			{
				"x": -3.9369672176,
				"y": -0.2193477913,
				"z": 2.9567171286,
				"element": "H" 
			},
			{
				"x": -3.6433620852,
				"y": -1.5991948892,
				"z": 4.033926331,
				"element": "H" 
			},
			{
				"x": -2.1500555717,
				"y": -2.633695145,
				"z": 2.2785831357,
				"element": "H" 
			},
			{
				"x": -3.8018457105,
				"y": -2.3794141138,
				"z": 1.6548403069,
				"element": "H" 
			},
			{
				"x": 1.3926573453,
				"y": 1.4293281389,
				"z": -3.6813461378,
				"element": "H" 
			},
			{
				"x": 1.0811582334,
				"y": 2.9625319293,
				"z": -2.8579703844,
				"element": "H" 
			},
			{
				"x": 2.3275320482,
				"y": 1.8454732907,
				"z": -2.2406529262,
				"element": "H" 
			},
			{
				"x": 5.3470387732,
				"y": 0.4045923742,
				"z": 1.2185389837,
				"element": "H" 
			},
			{
				"x": 4.8939832063,
				"y": 2.731500155,
				"z": 2.0239628275,
				"element": "H" 
			},
			{
				"x": 2.8964968539,
				"y": 3.1792049761,
				"z": 3.4290282543,
				"element": "H" 
			},
			{
				"x": 1.3615025317,
				"y": 1.3268782152,
				"z": 4.045483688,
				"element": "H" 
			},
			{
				"x": 1.8310267185,
				"y": -0.9859630173,
				"z": 3.2690190028,
				"element": "H" 
			},
			{
				"x": 4.8615435515,
				"y": -4.7141443548,
				"z": 1.0608936858,
				"element": "H" 
			},
			{
				"x": 5.5738433065,
				"y": -6.9461829606,
				"z": 1.836188437,
				"element": "H" 
			},
			{
				"x": 1.4999228752,
				"y": -8.3184077322,
				"z": 1.6871014544,
				"element": "H" 
			},
			{
				"x": 0.7746189136,
				"y": -6.0739899375,
				"z": 0.9217576965,
				"element": "H" 
			},
			{
				"x": -2.7705882782,
				"y": 3.2249472718,
				"z": -0.8051756507,
				"element": "H" 
			},
			{
				"x": -4.05904136,
				"y": 4.9183627725,
				"z": -2.0820601527,
				"element": "H" 
			},
			{
				"x": -3.4628539643,
				"y": 6.4704532568,
				"z": -4.6444381325,
				"element": "H" 
			},
			{
				"x": -4.9591078652,
				"y": 5.5704855998,
				"z": -4.397398891,
				"element": "H" 
			},
			{
				"x": -3.9580323328,
				"y": 5.2526484134,
				"z": -5.8231523392,
				"element": "H" 
			},
			{
				"x": -2.1060365436,
				"y": 3.6673488943,
				"z": -5.6960865368,
				"element": "H" 
			},
			{
				"x": -0.8522334966,
				"y": 1.9604915705,
				"z": -4.4311964715,
				"element": "H" 
			}
		],
		 "valence_orbital": [ 
			{
				"type": "occ",
				"energy": -0.26234,
				"method": "rhf"
			},
			{
				"type": "occ",
				"energy": -0.26063,
				"method": "rhf"
			},
			{
				"type": "occ",
				"energy": -0.25873,
				"method": "rhf"
			},
			{
				"type": "occ",
				"energy": -0.24563,
				"method": "rhf"
			},
			{
				"type": "occ",
				"energy": -0.23681,
				"method": "rhf"
			},
			{
				"type": "unocc",
				"energy": -0.07077,
				"method": "rhf"
			},
			{
				"type": "unocc",
				"energy": -0.05905,
				"method": "rhf"
			},
			{
				"type": "unocc",
				"energy": -0.04342,
				"method": "rhf"
			},
			{
				"type": "unocc",
				"energy": -0.03225,
				"method": "rhf"
			},
			{
				"type": "unocc",
				"energy": -0.02217,
				"method": "rhf"
			}
		],
		"cosmo_sigma_profile": { 
			"-0.025": 0.0,
			"-0.024": 0.0,
			"-0.023": 0.0,
			"-0.022": 0.0,
			"-0.021": 0.0,
			"-0.02": 0.0,
			"-0.019": 0.0,
			"-0.018": 0.0,
			"-0.017": 0.0,
			"-0.016": 0.0,
			"-0.015": 0.0,
			"-0.014": 0.0,
			"-0.013": 0.0,
			"-0.012": 0.0,
			"-0.011": 0.0,
			"-0.01": 0.0,
			"-0.009": 0.201434430366,
			"-0.008": 5.81257394457,
			"-0.007": 17.3672223166,
			"-0.006": 28.8858732535,
			"-0.005": 39.0845204507,
			"-0.004": 50.4350256467,
			"-0.003": 47.700502451,
			"-0.002": 53.0948562367,
			"-0.001": 48.4384590969,
			"0.0": 49.7204344903,
			"0.001": 50.9756384927,
			"0.002": 45.2169228938,
			"0.003": 39.4354467886,
			"0.004": 36.0366341579,
			"0.005": 15.9555616618,
			"0.006": 11.112140352,
			"0.007": 9.89208591138,
			"0.008": 9.31476067001,
			"0.009": 10.1930051745,
			"0.01": 12.0912256969,
			"0.011": 8.1049610691,
			"0.012": 1.83514279731,
			"0.013": 1.4015828873,
			"0.014": 0.507979903322,
			"0.015": 0.0,
			"0.016": 0.0,
			"0.017": 0.0,
			"0.018": 0.0,
			"0.019": 0.0,
			"0.02": 0.0,
			"0.021": 0.0,
			"0.022": 0.0,
			"0.023": 0.0,
			"0.024": 0.0,
			"0.025": 0.0
		}
	}
}
