{
	 "smiles": "CC1OC2=C(NC1=O)C=CC(C)=C2", 
	 "Tm": 428.15, 
	 "num_atms": 24, 
	 "gaussian": { 
		 "optdone": 1, 
		 "sigma_profile": "yes", 
		 "theory": "DFT", 
		 "functional": "B3LYP", 
		 "basiset": "6-31G**", 
		 "properties": { 
			 "R2extent": 2606.919, 
			 "electric_dipole_moment_norm": 2.83304254469, 
			 "electric_quadrupole_moment_norm": 10.0882333354, 
			 "total_energy": -592.914169034, 
			 "HOMO_LUMO_gap": 0.19627, 
			 "cosmo_polarized_energy": -11.06, 
			 "cosmo_cavitation_energy": 27.27, 
			 "cosmo_dispersion_energy": -20.03, 
			 "cosmo_repulsion_energy": 1.59, 
			 "cosmo_total_nonelectrostatic_energy": 8.83, 
			 "SMD_solvation_energy": 5.39 
		},
		"coords": [
			{
				"x": 2.1686144482,
				"y": -0.0706581814,
				"z": 2.542291103,
				"element": "C" 
			},
			{
				"x": 1.2317153137,
				"y": -1.149917744,
				"z": 1.9923710486,
				"element": "C" 
			},
			{
				"x": 1.4132700828,
				"y": -1.329059341,
				"z": 0.5753296303,
				"element": "O" 
			},
			{
				"x": 0.7766163888,
				"y": -0.431775981,
				"z": -0.2412286936,
				"element": "C" 
			},
			{
				"x": -0.4352363676,
				"y": 0.1542339949,
				"z": 0.1602161157,
				"element": "C" 
			},
			{
				"x": -0.9434709528,
				"y": -0.1912518625,
				"z": 1.4246151044,
				"element": "N" 
			},
			{
				"x": -0.2206717179,
				"y": -0.855054316,
				"z": 2.380597296,
				"element": "C" 
			},
			{
				"x": -0.6704187145,
				"y": -1.1476613443,
				"z": 3.4774585291,
				"element": "O" 
			},
			{
				"x": -1.0945634013,
				"y": 1.0219801746,
				"z": -0.7079459718,
				"element": "C" 
			},
			{
				"x": -0.559560196,
				"y": 1.2899788355,
				"z": -1.9698918679,
				"element": "C" 
			},
			{
				"x": 0.6428451882,
				"y": 0.7062651239,
				"z": -2.3836725987,
				"element": "C" 
			},
			{
				"x": 1.2298272158,
				"y": 0.9966011395,
				"z": -3.7452019414,
				"element": "C" 
			},
			{
				"x": 1.3062450365,
				"y": -0.1543203209,
				"z": -1.4962664606,
				"element": "C" 
			},
			{
				"x": 2.0588607997,
				"y": -0.0026681296,
				"z": 3.6279284567,
				"element": "H" 
			},
			{
				"x": 3.2047056378,
				"y": -0.3249558221,
				"z": 2.3036276771,
				"element": "H" 
			},
			{
				"x": 1.9410136941,
				"y": 0.9068357938,
				"z": 2.1058653071,
				"element": "H" 
			},
			{
				"x": 1.4782710295,
				"y": -2.1184371848,
				"z": 2.4324383203,
				"element": "H" 
			},
			{
				"x": -1.8885948891,
				"y": 0.0668570694,
				"z": 1.6782710974,
				"element": "H" 
			},
			{
				"x": -2.0309322804,
				"y": 1.4797805271,
				"z": -0.3993540152,
				"element": "H" 
			},
			{
				"x": -1.0885024591,
				"y": 1.9631710292,
				"z": -2.6382581056,
				"element": "H" 
			},
			{
				"x": 0.5777314165,
				"y": 1.6536213105,
				"z": -4.3270651091,
				"element": "H" 
			},
			{
				"x": 2.2079009379,
				"y": 1.4852753952,
				"z": -3.664137962,
				"element": "H" 
			},
			{
				"x": 1.3778966829,
				"y": 0.0762720173,
				"z": -4.3216755224,
				"element": "H" 
			},
			{
				"x": 2.2420371064,
				"y": -0.6312121833,
				"z": -1.7728114374,
				"element": "H" 
			}
		],
		 "valence_orbital": [ 
			{
				"type": "occ",
				"energy": -0.32088,
				"method": "rhf"
			},
			{
				"type": "occ",
				"energy": -0.30283,
				"method": "rhf"
			},
			{
				"type": "occ",
				"energy": -0.25747,
				"method": "rhf"
			},
			{
				"type": "occ",
				"energy": -0.23794,
				"method": "rhf"
			},
			{
				"type": "occ",
				"energy": -0.2103,
				"method": "rhf"
			},
			{
				"type": "unocc",
				"energy": -0.01403,
				"method": "rhf"
			},
			{
				"type": "unocc",
				"energy": -0.00123,
				"method": "rhf"
			},
			{
				"type": "unocc",
				"energy": 0.03431,
				"method": "rhf"
			},
			{
				"type": "unocc",
				"energy": 0.07978,
				"method": "rhf"
			},
			{
				"type": "unocc",
				"energy": 0.09283,
				"method": "rhf"
			}
		],
		"cosmo_sigma_profile": { 
			"-0.025": 0.0,
			"-0.024": 0.0,
			"-0.023": 0.0,
			"-0.022": 0.0,
			"-0.021": 0.0,
			"-0.02": 0.0,
			"-0.019": 0.0,
			"-0.018": 0.0,
			"-0.017": 0.0,
			"-0.016": 0.114970029587,
			"-0.015": 1.11921920088,
			"-0.014": 1.18526702367,
			"-0.013": 1.41945901003,
			"-0.012": 0.68450629277,
			"-0.011": 1.06456871984,
			"-0.01": 1.50964308612,
			"-0.009": 1.22199415374,
			"-0.008": 1.24139854124,
			"-0.007": 4.08128267212,
			"-0.006": 4.86966306916,
			"-0.005": 10.9615030796,
			"-0.004": 20.9482025138,
			"-0.003": 22.0257215545,
			"-0.002": 19.4591024948,
			"-0.001": 20.2215375022,
			"0.0": 20.9677254247,
			"0.001": 13.4357916042,
			"0.002": 10.1037519049,
			"0.003": 10.7784738632,
			"0.004": 11.4742817016,
			"0.005": 9.35742303983,
			"0.006": 5.26456210797,
			"0.007": 2.53199020153,
			"0.008": 2.28269494719,
			"0.009": 2.66965107932,
			"0.01": 2.24256496307,
			"0.011": 2.02606650919,
			"0.012": 3.60881532548,
			"0.013": 5.29957335774,
			"0.014": 1.54160543616,
			"0.015": 0.0,
			"0.016": 0.0,
			"0.017": 0.0,
			"0.018": 0.0,
			"0.019": 0.0,
			"0.02": 0.0,
			"0.021": 0.0,
			"0.022": 0.0,
			"0.023": 0.0,
			"0.024": 0.0,
			"0.025": 0.0
		}
	}
}
