{
	 "smiles": "NCC(=O)NCC(=O)NCC(=O)NCC(O)=O", 
	 "Tm": 573.15, 
	 "num_atms": 31, 
	 "gaussian": { 
		 "optdone": 1, 
		 "sigma_profile": "yes", 
		 "theory": "DFT", 
		 "functional": "B3LYP", 
		 "basiset": "6-31G**", 
		 "properties": { 
			 "R2extent": 6335.8973, 
			 "electric_dipole_moment_norm": 8.44802496327, 
			 "electric_quadrupole_moment_norm": 18.7334572509, 
			 "total_energy": -908.458511798, 
			 "HOMO_LUMO_gap": 0.19998, 
			 "cosmo_polarized_energy": -34.54, 
			 "cosmo_cavitation_energy": 36.51, 
			 "cosmo_dispersion_energy": -25.35, 
			 "cosmo_repulsion_energy": 2.05, 
			 "cosmo_total_nonelectrostatic_energy": 13.2, 
			 "SMD_solvation_energy": 5.73 
		},
		"coords": [
			{
				"x": -3.4765827891,
				"y": -1.3669362846,
				"z": 4.5407148498,
				"element": "N" 
			},
			{
				"x": -2.8268796533,
				"y": -1.9301465143,
				"z": 3.366068567,
				"element": "C" 
			},
			{
				"x": -1.8835929077,
				"y": -0.9545040663,
				"z": 2.6406983782,
				"element": "C" 
			},
			{
				"x": -1.4621023536,
				"y": 0.0607284231,
				"z": 3.1900398167,
				"element": "O" 
			},
			{
				"x": -1.5352704998,
				"y": -1.3081841389,
				"z": 1.375556486,
				"element": "N" 
			},
			{
				"x": -0.5306272716,
				"y": -0.5871919993,
				"z": 0.6295016616,
				"element": "C" 
			},
			{
				"x": 0.0410846646,
				"y": -1.5239411739,
				"z": -0.4331722082,
				"element": "C" 
			},
			{
				"x": -0.4211950741,
				"y": -2.6446933362,
				"z": -0.612216253,
				"element": "O" 
			},
			{
				"x": 1.1191009727,
				"y": -1.076645918,
				"z": -1.1530547411,
				"element": "N" 
			},
			{
				"x": 1.5708605195,
				"y": 0.2916124323,
				"z": -1.2409611804,
				"element": "C" 
			},
			{
				"x": 0.6894054862,
				"y": 1.1545590344,
				"z": -2.1657025341,
				"element": "C" 
			},
			{
				"x": -0.3990768208,
				"y": 0.767239219,
				"z": -2.5560206847,
				"element": "O" 
			},
			{
				"x": 1.1960015324,
				"y": 2.3745095954,
				"z": -2.5523968095,
				"element": "N" 
			},
			{
				"x": 2.3215349259,
				"y": 3.0751489333,
				"z": -1.9816916569,
				"element": "C" 
			},
			{
				"x": 2.0735875049,
				"y": 3.6008747605,
				"z": -0.5665840839,
				"element": "C" 
			},
			{
				"x": 3.0123544265,
				"y": 4.5054656566,
				"z": -0.2223438607,
				"element": "O" 
			},
			{
				"x": 1.1821197209,
				"y": 3.2390781204,
				"z": 0.1649949283,
				"element": "O" 
			},
			{
				"x": -2.7647150422,
				"y": -0.8513516944,
				"z": 5.0573231683,
				"element": "H" 
			},
			{
				"x": -4.1308541721,
				"y": -0.6491535545,
				"z": 4.2343187332,
				"element": "H" 
			},
			{
				"x": -2.22746331,
				"y": -2.8001183142,
				"z": 3.6702984934,
				"element": "H" 
			},
			{
				"x": -3.5839049124,
				"y": -2.3100860846,
				"z": 2.6700977345,
				"element": "H" 
			},
			{
				"x": -1.7891381641,
				"y": -2.2077315319,
				"z": 0.982382481,
				"element": "H" 
			},
			{
				"x": -0.9493412909,
				"y": 0.2981364618,
				"z": 0.1327840964,
				"element": "H" 
			},
			{
				"x": 0.2485752459,
				"y": -0.2269709116,
				"z": 1.3122374476,
				"element": "H" 
			},
			{
				"x": 1.327549751,
				"y": -1.6805663224,
				"z": -1.9383845217,
				"element": "H" 
			},
			{
				"x": 1.5756748486,
				"y": 0.7544958086,
				"z": -0.2497969651,
				"element": "H" 
			},
			{
				"x": 2.6087851725,
				"y": 0.2913641348,
				"z": -1.5914524236,
				"element": "H" 
			},
			{
				"x": 0.5114537485,
				"y": 2.9314077874,
				"z": -3.0486883452,
				"element": "H" 
			},
			{
				"x": 2.5903788382,
				"y": 3.9143994267,
				"z": -2.6284554976,
				"element": "H" 
			},
			{
				"x": 3.2112073675,
				"y": 2.4352637377,
				"z": -1.9420298652,
				"element": "H" 
			},
			{
				"x": 2.826769536,
				"y": 4.7716383132,
				"z": 0.6947347889,
				"element": "H" 
			}
		],
		 "valence_orbital": [ 
			{
				"type": "occ",
				"energy": -0.26809,
				"method": "rhf"
			},
			{
				"type": "occ",
				"energy": -0.26006,
				"method": "rhf"
			},
			{
				"type": "occ",
				"energy": -0.2458,
				"method": "rhf"
			},
			{
				"type": "occ",
				"energy": -0.242,
				"method": "rhf"
			},
			{
				"type": "occ",
				"energy": -0.22465,
				"method": "rhf"
			},
			{
				"type": "unocc",
				"energy": -0.02467,
				"method": "rhf"
			},
			{
				"type": "unocc",
				"energy": 0.00424,
				"method": "rhf"
			},
			{
				"type": "unocc",
				"energy": 0.01902,
				"method": "rhf"
			},
			{
				"type": "unocc",
				"energy": 0.04135,
				"method": "rhf"
			},
			{
				"type": "unocc",
				"energy": 0.05181,
				"method": "rhf"
			}
		],
		"cosmo_sigma_profile": { 
			"-0.025": 0.0,
			"-0.024": 0.0,
			"-0.023": 0.0,
			"-0.022": 0.0,
			"-0.021": 0.0,
			"-0.02": 0.0,
			"-0.019": 0.583611963306,
			"-0.018": 0.88171892784,
			"-0.017": 0.799184648953,
			"-0.016": 1.25088018455,
			"-0.015": 1.31559772318,
			"-0.014": 3.10846928835,
			"-0.013": 2.03047331312,
			"-0.012": 4.10023003878,
			"-0.011": 4.39814662705,
			"-0.01": 8.2467788739,
			"-0.009": 12.3401280473,
			"-0.008": 12.665242921,
			"-0.007": 12.222393726,
			"-0.006": 14.8041257439,
			"-0.005": 17.8241301591,
			"-0.004": 13.2860247617,
			"-0.003": 13.2073433518,
			"-0.002": 13.135757089,
			"-0.001": 14.969775831,
			"0.0": 11.5137037563,
			"0.001": 8.8440362461,
			"0.002": 9.38608000623,
			"0.003": 10.1238599759,
			"0.004": 10.8268748551,
			"0.005": 8.76601996388,
			"0.006": 7.08357559437,
			"0.007": 7.42006973132,
			"0.008": 8.32305016003,
			"0.009": 7.79140512735,
			"0.01": 6.47099900887,
			"0.011": 8.78067152378,
			"0.012": 9.20910772476,
			"0.013": 10.9079020469,
			"0.014": 6.06617968767,
			"0.015": 0.838704125574,
			"0.016": 0.854516281529,
			"0.017": 0.407561926802,
			"0.018": 0.776446356111,
			"0.019": 0.608430921228,
			"0.02": 0.0567688625816,
			"0.021": 0.0,
			"0.022": 0.0,
			"0.023": 0.0,
			"0.024": 0.0,
			"0.025": 0.0
		}
	}
}
