{
	 "smiles": "CN1CCN(CC1)C(=O)CC#N", 
	 "Tm": 392.15, 
	 "num_atms": 25, 
	 "gaussian": { 
		 "optdone": 1, 
		 "sigma_profile": "yes", 
		 "theory": "DFT", 
		 "functional": "B3LYP", 
		 "basiset": "6-31G**", 
		 "properties": { 
			 "R2extent": 3099.3681, 
			 "electric_dipole_moment_norm": 4.72574165714, 
			 "electric_quadrupole_moment_norm": 18.6419896242, 
			 "total_energy": -552.135898822, 
			 "HOMO_LUMO_gap": 0.2191, 
			 "cosmo_polarized_energy": -15.24, 
			 "cosmo_cavitation_energy": 27.6, 
			 "cosmo_dispersion_energy": -19.45, 
			 "cosmo_repulsion_energy": 1.55, 
			 "cosmo_total_nonelectrostatic_energy": 9.7, 
			 "SMD_solvation_energy": 3.25 
		},
		"coords": [
			{
				"x": -2.6919964437,
				"y": -0.1698558593,
				"z": -0.3869426349,
				"element": "C" 
			},
			{
				"x": -1.3886231974,
				"y": 0.4565584056,
				"z": -0.5415538182,
				"element": "N" 
			},
			{
				"x": -0.6729047283,
				"y": 0.0845283906,
				"z": -1.7692485408,
				"element": "C" 
			},
			{
				"x": 0.4255344023,
				"y": -0.9665557273,
				"z": -1.5568178617,
				"element": "C" 
			},
			{
				"x": 1.4011261673,
				"y": -0.4445546852,
				"z": -0.5875132335,
				"element": "N" 
			},
			{
				"x": 0.9051496718,
				"y": 0.5577430519,
				"z": 0.3709822013,
				"element": "C" 
			},
			{
				"x": -0.569566618,
				"y": 0.3082328912,
				"z": 0.665233088,
				"element": "C" 
			},
			{
				"x": 2.6865103884,
				"y": -0.8773821378,
				"z": -0.4524897288,
				"element": "C" 
			},
			{
				"x": 3.4579092409,
				"y": -0.4502906632,
				"z": 0.3966491048,
				"element": "O" 
			},
			{
				"x": 3.1656843098,
				"y": -1.9895027288,
				"z": -1.4202788417,
				"element": "C" 
			},
			{
				"x": 3.3341527709,
				"y": -1.5341876705,
				"z": -2.8003862132,
				"element": "C" 
			},
			{
				"x": 3.4507177273,
				"y": -1.1628646501,
				"z": -3.8943797869,
				"element": "N" 
			},
			{
				"x": -2.6502807978,
				"y": -1.2681035547,
				"z": -0.2472866904,
				"element": "H" 
			},
			{
				"x": -3.1950530344,
				"y": 0.25216493,
				"z": 0.4898822949,
				"element": "H" 
			},
			{
				"x": -3.3167899087,
				"y": 0.041584994,
				"z": -1.2598709144,
				"element": "H" 
			},
			{
				"x": -1.389220241,
				"y": -0.2952738622,
				"z": -2.5034509205,
				"element": "H" 
			},
			{
				"x": -0.2083418321,
				"y": 0.9749762821,
				"z": -2.2131963534,
				"element": "H" 
			},
			{
				"x": 0.9126147191,
				"y": -1.1655081637,
				"z": -2.5142410317,
				"element": "H" 
			},
			{
				"x": -0.0154455315,
				"y": -1.9081331134,
				"z": -1.1968670495,
				"element": "H" 
			},
			{
				"x": 1.0489247223,
				"y": 1.5695700929,
				"z": -0.0293453963,
				"element": "H" 
			},
			{
				"x": 1.5054455977,
				"y": 0.4749262637,
				"z": 1.277811555,
				"element": "H" 
			},
			{
				"x": -0.9130512048,
				"y": 1.0187815515,
				"z": 1.4276985576,
				"element": "H" 
			},
			{
				"x": -0.6682944735,
				"y": -0.7027861065,
				"z": 1.1066623239,
				"element": "H" 
			},
			{
				"x": 4.1300127698,
				"y": -2.3222772621,
				"z": -1.0300378125,
				"element": "H" 
			},
			{
				"x": 2.4790855236,
				"y": -2.8439906689,
				"z": -1.4133122973,
				"element": "H" 
			}
		],
		 "valence_orbital": [ 
			{
				"type": "occ",
				"energy": -0.3395,
				"method": "rhf"
			},
			{
				"type": "occ",
				"energy": -0.33129,
				"method": "rhf"
			},
			{
				"type": "occ",
				"energy": -0.26289,
				"method": "rhf"
			},
			{
				"type": "occ",
				"energy": -0.25212,
				"method": "rhf"
			},
			{
				"type": "occ",
				"energy": -0.21874,
				"method": "rhf"
			},
			{
				"type": "unocc",
				"energy": 0.00036,
				"method": "rhf"
			},
			{
				"type": "unocc",
				"energy": 0.02861,
				"method": "rhf"
			},
			{
				"type": "unocc",
				"energy": 0.03948,
				"method": "rhf"
			},
			{
				"type": "unocc",
				"energy": 0.06102,
				"method": "rhf"
			},
			{
				"type": "unocc",
				"energy": 0.09418,
				"method": "rhf"
			}
		],
		"cosmo_sigma_profile": { 
			"-0.025": 0.0,
			"-0.024": 0.0,
			"-0.023": 0.0,
			"-0.022": 0.0,
			"-0.021": 0.0,
			"-0.02": 0.0,
			"-0.019": 0.0,
			"-0.018": 0.0,
			"-0.017": 0.0,
			"-0.016": 0.0,
			"-0.015": 0.0,
			"-0.014": 0.0,
			"-0.013": 0.0,
			"-0.012": 0.0,
			"-0.011": 0.0,
			"-0.01": 1.58717108998,
			"-0.009": 5.68022059963,
			"-0.008": 4.93960661438,
			"-0.007": 4.56311621022,
			"-0.006": 6.95109387796,
			"-0.005": 13.6625557457,
			"-0.004": 26.1989108398,
			"-0.003": 28.3863198916,
			"-0.002": 25.0893362094,
			"-0.001": 19.5621042862,
			"0.0": 12.9362420856,
			"0.001": 5.62764549194,
			"0.002": 4.85819430964,
			"0.003": 4.32130591661,
			"0.004": 4.50807964285,
			"0.005": 4.38571679143,
			"0.006": 4.12315268644,
			"0.007": 4.77469137152,
			"0.008": 4.25931812634,
			"0.009": 5.21999377025,
			"0.01": 4.80770097739,
			"0.011": 5.48328677513,
			"0.012": 5.20645637295,
			"0.013": 6.94573238068,
			"0.014": 1.8773500656,
			"0.015": 0.469952988167,
			"0.016": 0.257987881578,
			"0.017": 0.0,
			"0.018": 0.0,
			"0.019": 0.0,
			"0.02": 0.0,
			"0.021": 0.0,
			"0.022": 0.0,
			"0.023": 0.0,
			"0.024": 0.0,
			"0.0": 0.0
		}
	}
}
