{
	 "smiles": "CC1=CC(=CC(C)=C1)C(=O)N1CCNCC1", 
	 "Tm": 399.15, 
	 "num_atms": 34, 
	 "gaussian": { 
		 "optdone": 1, 
		 "sigma_profile": "yes", 
		 "theory": "DFT", 
		 "functional": "B3LYP", 
		 "basiset": "6-31G**", 
		 "properties": { 
			 "R2extent": 4609.0773, 
			 "electric_dipole_moment_norm": 3.34866301977, 
			 "electric_quadrupole_moment_norm": 11.4236778347, 
			 "total_energy": -690.979361121, 
			 "HOMO_LUMO_gap": 0.19999, 
			 "cosmo_polarized_energy": -12.44, 
			 "cosmo_cavitation_energy": 35.35, 
			 "cosmo_dispersion_energy": -25.22, 
			 "cosmo_repulsion_energy": 1.99, 
			 "cosmo_total_nonelectrostatic_energy": 12.13, 
			 "SMD_solvation_energy": 3.5 
		},
		"coords": [
			{
				"x": -4.1656597881,
				"y": -0.8716978675,
				"z": -2.6350364039,
				"element": "C" 
			},
			{
				"x": -3.2344913602,
				"y": -0.9402805688,
				"z": -1.4467564027,
				"element": "C" 
			},
			{
				"x": -2.3152410363,
				"y": 0.0831891955,
				"z": -1.1983628098,
				"element": "C" 
			},
			{
				"x": -1.4172272125,
				"y": -0.001445901,
				"z": -0.1290339329,
				"element": "C" 
			},
			{
				"x": -1.4704740464,
				"y": -1.1064547358,
				"z": 0.7301027809,
				"element": "C" 
			},
			{
				"x": -2.399349447,
				"y": -2.1323310608,
				"z": 0.5220342321,
				"element": "C" 
			},
			{
				"x": -2.4945959183,
				"y": -3.2972041017,
				"z": 1.480447048,
				"element": "C" 
			},
			{
				"x": -3.2616156875,
				"y": -2.0379433183,
				"z": -0.5769140554,
				"element": "C" 
			},
			{
				"x": -0.5157015348,
				"y": 1.1794304894,
				"z": 0.1236775265,
				"element": "C" 
			},
			{
				"x": -0.972465739,
				"y": 2.3191630165,
				"z": 0.0444071785,
				"element": "O" 
			},
			{
				"x": 0.7936274638,
				"y": 0.9404181618,
				"z": 0.4879085431,
				"element": "N" 
			},
			{
				"x": 1.6358490487,
				"y": 2.083151163,
				"z": 0.8557725836,
				"element": "C" 
			},
			{
				"x": 2.7034666343,
				"y": 2.3407088061,
				"z": -0.2101181822,
				"element": "C" 
			},
			{
				"x": 3.4805774775,
				"y": 1.1149424708,
				"z": -0.4107844761,
				"element": "N" 
			},
			{
				"x": 2.6285212981,
				"y": 0.0224534554,
				"z": -0.8766275618,
				"element": "C" 
			},
			{
				"x": 1.554352797,
				"y": -0.2729422616,
				"z": 0.1786535778,
				"element": "C" 
			},
			{
				"x": -4.4030652474,
				"y": 0.1639563184,
				"z": -2.8953347048,
				"element": "H" 
			},
			{
				"x": -3.7129924406,
				"y": -1.334589865,
				"z": -3.5210847954,
				"element": "H" 
			},
			{
				"x": -5.1052588503,
				"y": -1.3969933029,
				"z": -2.4387344322,
				"element": "H" 
			},
			{
				"x": -2.2921342597,
				"y": 0.9670720485,
				"z": -1.8287024763,
				"element": "H" 
			},
			{
				"x": -0.8012388875,
				"y": -1.1563761844,
				"z": 1.5850079431,
				"element": "H" 
			},
			{
				"x": -2.7703877079,
				"y": -4.2208147652,
				"z": 0.9620191865,
				"element": "H" 
			},
			{
				"x": -1.5463243417,
				"y": -3.4694279617,
				"z": 1.9982186831,
				"element": "H" 
			},
			{
				"x": -3.257032189,
				"y": -3.1165822363,
				"z": 2.2484826978,
				"element": "H" 
			},
			{
				"x": -3.9812548135,
				"y": -2.8352474793,
				"z": -0.7537495264,
				"element": "H" 
			},
			{
				"x": 0.9855351723,
				"y": 2.9486882411,
				"z": 0.9773371508,
				"element": "H" 
			},
			{
				"x": 2.1295210112,
				"y": 1.8542734972,
				"z": 1.809153717,
				"element": "H" 
			},
			{
				"x": 3.3747658009,
				"y": 3.1370777847,
				"z": 0.1296195851,
				"element": "H" 
			},
			{
				"x": 2.201533225,
				"y": 2.6897412747,
				"z": -1.1314583015,
				"element": "H" 
			},
			{
				"x": 4.2287376033,
				"y": 1.2806352696,
				"z": -1.0778245512,
				"element": "H" 
			},
			{
				"x": 2.1201812474,
				"y": 0.2473139365,
				"z": -1.8341294706,
				"element": "H" 
			},
			{
				"x": 3.242083212,
				"y": -0.8733260244,
				"z": -1.0255440742,
				"element": "H" 
			},
			{
				"x": 0.8809992882,
				"y": -1.0483488393,
				"z": -0.1831874347,
				"element": "H" 
			},
			{
				"x": 2.042959228,
				"y": -0.6331086549,
				"z": 1.0939411583,
				"element": "H" 
			}
		],
		 "valence_orbital": [ 
			{
				"type": "occ",
				"energy": -0.25343,
				"method": "rhf"
			},
			{
				"type": "occ",
				"energy": -0.23948,
				"method": "rhf"
			},
			{
				"type": "occ",
				"energy": -0.23737,
				"method": "rhf"
			},
			{
				"type": "occ",
				"energy": -0.23011,
				"method": "rhf"
			},
			{
				"type": "occ",
				"energy": -0.22053,
				"method": "rhf"
			},
			{
				"type": "unocc",
				"energy": -0.02054,
				"method": "rhf"
			},
			{
				"type": "unocc",
				"energy": 0.00109,
				"method": "rhf"
			},
			{
				"type": "unocc",
				"energy": 0.05299,
				"method": "rhf"
			},
			{
				"type": "unocc",
				"energy": 0.08568,
				"method": "rhf"
			},
			{
				"type": "unocc",
				"energy": 0.09754,
				"method": "rhf"
			}
		],
		"cosmo_sigma_profile": { 
			"-0.025": 0.0,
			"-0.024": 0.0,
			"-0.023": 0.0,
			"-0.022": 0.0,
			"-0.021": 0.0,
			"-0.02": 0.0,
			"-0.019": 0.0,
			"-0.018": 0.0,
			"-0.017": 0.0,
			"-0.016": 0.0,
			"-0.015": 0.0,
			"-0.014": 0.0,
			"-0.013": 0.0,
			"-0.012": 0.0,
			"-0.011": 0.183197171319,
			"-0.01": 1.52131370168,
			"-0.009": 1.20021447167,
			"-0.008": 1.10231621912,
			"-0.007": 1.62533194328,
			"-0.006": 1.64297970476,
			"-0.005": 9.15245495583,
			"-0.004": 33.9986866861,
			"-0.003": 35.9576915473,
			"-0.002": 42.0355910336,
			"-0.001": 35.5399188855,
			"0.0": 29.0898081984,
			"0.001": 15.8507053325,
			"0.002": 9.60554558961,
			"0.003": 9.87070697455,
			"0.004": 8.90450737095,
			"0.005": 9.27079700967,
			"0.006": 5.61566529426,
			"0.007": 2.26481387398,
			"0.008": 2.08637994989,
			"0.009": 2.02954575338,
			"0.01": 2.41187958617,
			"0.011": 2.27122496737,
			"0.012": 1.9660186218,
			"0.013": 3.31826087688,
			"0.014": 5.48649272827,
			"0.015": 1.81571903757,
			"0.016": 0.253056756817,
			"0.017": 0.461459136015,
			"0.018": 0.194372100646,
			"0.019": 0.0,
			"0.02": 0.0,
			"0.021": 0.0,
			"0.022": 0.0,
			"0.023": 0.0,
			"0.024": 0.0,
			"0.025": 0.0
		}
	}
}
