{
	 "smiles": "COC1=CC=C(C=C1)C(N)C1=CC(=CC=C1)S(C)(=O)=O", 
	 "Tm": 354.15, 
	 "num_atms": 37, 
	 "gaussian": { 
		 "optdone": 1, 
		 "sigma_profile": "yes", 
		 "theory": "DFT", 
		 "functional": "B3LYP", 
		 "basiset": "6-31G**", 
		 "properties": { 
			 "R2extent": 8299.8167, 
			 "electric_dipole_moment_norm": 5.13936475938, 
			 "electric_quadrupole_moment_norm": 23.6550422481, 
			 "total_energy": -1260.37695819, 
			 "HOMO_LUMO_gap": 0.18068, 
			 "cosmo_polarized_energy": -21.55, 
			 "cosmo_cavitation_energy": 42.08, 
			 "cosmo_dispersion_energy": -29.48, 
			 "cosmo_repulsion_energy": 2.25, 
			 "cosmo_total_nonelectrostatic_energy": 14.86, 
			 "SMD_solvation_energy": 7.03 
		},
		"coords": [
			{
				"x": -2.8459012512,
				"y": 2.6274270993,
				"z": -4.3557629372,
				"element": "C" 
			},
			{
				"x": -1.5588726537,
				"y": 2.0970993698,
				"z": -4.6312457875,
				"element": "O" 
			},
			{
				"x": -0.7651434835,
				"y": 1.7475981004,
				"z": -3.577619188,
				"element": "C" 
			},
			{
				"x": -1.1217981421,
				"y": 1.8858777419,
				"z": -2.2295873214,
				"element": "C" 
			},
			{
				"x": -0.2277143665,
				"y": 1.4914740532,
				"z": -1.2329095029,
				"element": "C" 
			},
			{
				"x": 1.0265763964,
				"y": 0.9607925952,
				"z": -1.5495080318,
				"element": "C" 
			},
			{
				"x": 1.3702113559,
				"y": 0.8360821497,
				"z": -2.9025652345,
				"element": "C" 
			},
			{
				"x": 0.4907980053,
				"y": 1.220308236,
				"z": -3.9084999483,
				"element": "C" 
			},
			{
				"x": 1.9946538092,
				"y": 0.5201672246,
				"z": -0.4548243081,
				"element": "C" 
			},
			{
				"x": 2.1249145913,
				"y": 1.5879842458,
				"z": 0.5442778459,
				"element": "N" 
			},
			{
				"x": 1.5282201231,
				"y": -0.7722132033,
				"z": 0.2198473181,
				"element": "C" 
			},
			{
				"x": 0.7950959077,
				"y": -0.7469599926,
				"z": 1.4106705904,
				"element": "C" 
			},
			{
				"x": 0.3531014754,
				"y": -1.9465319546,
				"z": 1.971696723,
				"element": "C" 
			},
			{
				"x": 0.6103571048,
				"y": -3.1807459924,
				"z": 1.3751204529,
				"element": "C" 
			},
			{
				"x": 1.3461861888,
				"y": -3.2025686395,
				"z": 0.1892949233,
				"element": "C" 
			},
			{
				"x": 1.8022670156,
				"y": -2.011516879,
				"z": -0.3750357473,
				"element": "C" 
			},
			{
				"x": -0.5850211568,
				"y": -1.9000563307,
				"z": 3.5085033436,
				"element": "S" 
			},
			{
				"x": 0.6964004466,
				"y": -1.8848477095,
				"z": 4.7870787356,
				"element": "C" 
			},
			{
				"x": -1.2900972968,
				"y": -0.6107124965,
				"z": 3.5810863657,
				"element": "O" 
			},
			{
				"x": -1.3142440016,
				"y": -3.1726459475,
				"z": 3.6336988953,
				"element": "O" 
			},
			{
				"x": -3.3031130389,
				"y": 2.8280250789,
				"z": -5.325952468,
				"element": "H" 
			},
			{
				"x": -2.7857216315,
				"y": 3.5635646686,
				"z": -3.7856898031,
				"element": "H" 
			},
			{
				"x": -3.4696425889,
				"y": 1.912391387,
				"z": -3.8041787995,
				"element": "H" 
			},
			{
				"x": -2.0853557808,
				"y": 2.2924057678,
				"z": -1.9459826911,
				"element": "H" 
			},
			{
				"x": -0.5106742079,
				"y": 1.6040536656,
				"z": -0.191077531,
				"element": "H" 
			},
			{
				"x": 2.3441836443,
				"y": 0.4359807146,
				"z": -3.1753749819,
				"element": "H" 
			},
			{
				"x": 0.7551507312,
				"y": 1.1271102081,
				"z": -4.9567883263,
				"element": "H" 
			},
			{
				"x": 2.9495795119,
				"y": 0.283980156,
				"z": -0.9560204976,
				"element": "H" 
			},
			{
				"x": 2.8814923334,
				"y": 1.3751595857,
				"z": 1.1906426952,
				"element": "H" 
			},
			{
				"x": 2.3555028375,
				"y": 2.4619556439,
				"z": 0.0800478186,
				"element": "H" 
			},
			{
				"x": 0.564481599,
				"y": 0.202232513,
				"z": 1.8814142955,
				"element": "H" 
			},
			{
				"x": 0.2272076709,
				"y": -4.0902336606,
				"z": 1.8248948078,
				"element": "H" 
			},
			{
				"x": 1.5611953056,
				"y": -4.1497216483,
				"z": -0.2965227994,
				"element": "H" 
			},
			{
				"x": 2.372946948,
				"y": -2.0417004746,
				"z": -1.3000843791,
				"element": "H" 
			},
			{
				"x": 1.2947418752,
				"y": -2.793365435,
				"z": 4.7063986138,
				"element": "H" 
			},
			{
				"x": 1.3134131567,
				"y": -0.9934398935,
				"z": 4.6666258431,
				"element": "H" 
			},
			{
				"x": 0.1722215667,
				"y": -1.8578099476,
				"z": 5.7446310161,
				"element": "H" 
			}
		],
		 "valence_orbital": [ 
			{
				"type": "occ",
				"energy": -0.2675,
				"method": "rhf"
			},
			{
				"type": "occ",
				"energy": -0.26385,
				"method": "rhf"
			},
			{
				"type": "occ",
				"energy": -0.25181,
				"method": "rhf"
			},
			{
				"type": "occ",
				"energy": -0.24658,
				"method": "rhf"
			},
			{
				"type": "occ",
				"energy": -0.21613,
				"method": "rhf"
			},
			{
				"type": "unocc",
				"energy": -0.03545,
				"method": "rhf"
			},
			{
				"type": "unocc",
				"energy": -0.01908,
				"method": "rhf"
			},
			{
				"type": "unocc",
				"energy": -0.00253,
				"method": "rhf"
			},
			{
				"type": "unocc",
				"energy": 0.01389,
				"method": "rhf"
			},
			{
				"type": "unocc",
				"energy": 0.07213,
				"method": "rhf"
			}
		],
		"cosmo_sigma_profile": { 
			"-0.025": 0.0,
			"-0.024": 0.0,
			"-0.023": 0.0,
			"-0.022": 0.0,
			"-0.021": 0.0,
			"-0.02": 0.0,
			"-0.019": 0.0,
			"-0.018": 0.0,
			"-0.017": 0.0,
			"-0.016": 0.0,
			"-0.015": 0.0,
			"-0.014": 0.0,
			"-0.013": 0.0,
			"-0.012": 0.0,
			"-0.011": 0.0728891734374,
			"-0.01": 1.98799628964,
			"-0.009": 3.90900707331,
			"-0.008": 7.69680637522,
			"-0.007": 11.7374329936,
			"-0.006": 22.7813043469,
			"-0.005": 32.4870670058,
			"-0.004": 32.3861713719,
			"-0.003": 29.101953727,
			"-0.002": 19.4500474417,
			"-0.001": 15.9113220833,
			"0.0": 14.019260133,
			"0.001": 16.4780516013,
			"0.002": 16.5743488998,
			"0.003": 23.2136195814,
			"0.004": 17.9384863809,
			"0.005": 14.1609841561,
			"0.006": 10.9693069655,
			"0.007": 4.03131643735,
			"0.008": 4.23655104459,
			"0.009": 6.00933298027,
			"0.01": 5.61389305767,
			"0.011": 10.0528765138,
			"0.012": 9.89204330225,
			"0.013": 2.29090995722,
			"0.014": 0.499727070063,
			"0.015": 0.111572553983,
			"0.016": 0.0,
			"0.017": 0.0,
			"0.018": 0.0,
			"0.019": 0.0,
			"0.02": 0.0,
			"0.021": 0.0,
			"0.022": 0.0,
			"0.023": 0.0,
			"0.024": 0.0,
			"0.025": 0.0
		}
	}
}
