{
	 "smiles": "NNC(=O)C(=O)NC1CCCCC1", 
	 "Tm": 511.15, 
	 "num_atms": 28, 
	 "gaussian": { 
		 "optdone": 1, 
		 "sigma_profile": "yes", 
		 "theory": "DFT", 
		 "functional": "B3LYP", 
		 "basiset": "6-31G**", 
		 "properties": { 
			 "R2extent": 3382.3672, 
			 "electric_dipole_moment_norm": 2.36702430068, 
			 "electric_quadrupole_moment_norm": 6.69444472604, 
			 "total_energy": -628.594968032, 
			 "HOMO_LUMO_gap": 0.20451, 
			 "cosmo_polarized_energy": -12.79, 
			 "cosmo_cavitation_energy": 29.5, 
			 "cosmo_dispersion_energy": -21.68, 
			 "cosmo_repulsion_energy": 1.75, 
			 "cosmo_total_nonelectrostatic_energy": 9.56, 
			 "SMD_solvation_energy": 5.78 
		},
		"coords": [
			{
				"x": -1.499431502,
				"y": -3.6990132989,
				"z": -1.4490342045,
				"element": "N" 
			},
			{
				"x": -0.8501119528,
				"y": -2.453165593,
				"z": -1.5216298053,
				"element": "N" 
			},
			{
				"x": -0.28964184,
				"y": -1.8789603642,
				"z": -0.4329542842,
				"element": "C" 
			},
			{
				"x": -0.1901162117,
				"y": -2.4382592393,
				"z": 0.6582929046,
				"element": "O" 
			},
			{
				"x": 0.164493012,
				"y": -0.4398580726,
				"z": -0.7546608718,
				"element": "C" 
			},
			{
				"x": -0.1737913406,
				"y": 0.0629230224,
				"z": -1.8290749563,
				"element": "O" 
			},
			{
				"x": 0.9320545105,
				"y": 0.2192068571,
				"z": 0.1446242513,
				"element": "N" 
			},
			{
				"x": 1.4415653577,
				"y": -0.1762724831,
				"z": 1.4748813239,
				"element": "C" 
			},
			{
				"x": 0.4239123598,
				"y": 0.1403859238,
				"z": 2.5837598399,
				"element": "C" 
			},
			{
				"x": 0.1082805543,
				"y": 1.6480419724,
				"z": 2.6908968636,
				"element": "C" 
			},
			{
				"x": 1.3474580255,
				"y": 2.5371674824,
				"z": 2.408831601,
				"element": "C" 
			},
			{
				"x": 2.6536768038,
				"y": 1.7764566094,
				"z": 2.6740419605,
				"element": "C" 
			},
			{
				"x": 2.7908260818,
				"y": 0.5472924986,
				"z": 1.7486284485,
				"element": "C" 
			},
			{
				"x": -0.7863871627,
				"y": -4.4256682404,
				"z": -1.5185770587,
				"element": "H" 
			},
			{
				"x": -1.8725123071,
				"y": -3.7753681977,
				"z": -0.5017999481,
				"element": "H" 
			},
			{
				"x": -1.0430618284,
				"y": -1.8622577621,
				"z": -2.3209038733,
				"element": "H" 
			},
			{
				"x": 1.1452818045,
				"y": 1.1586007114,
				"z": -0.1703656785,
				"element": "H" 
			},
			{
				"x": 1.5953154755,
				"y": -1.2532051206,
				"z": 1.4409785551,
				"element": "H" 
			},
			{
				"x": 0.8527171214,
				"y": -0.2200528717,
				"z": 3.5275528309,
				"element": "H" 
			},
			{
				"x": -0.4846901446,
				"y": -0.4433271764,
				"z": 2.4154097066,
				"element": "H" 
			},
			{
				"x": -0.6972908261,
				"y": 1.9104051637,
				"z": 1.9967094958,
				"element": "H" 
			},
			{
				"x": -0.2775527462,
				"y": 1.8542291173,
				"z": 3.695616201,
				"element": "H" 
			},
			{
				"x": 1.3063955876,
				"y": 3.4502012943,
				"z": 3.0125165333,
				"element": "H" 
			},
			{
				"x": 1.3395267676,
				"y": 2.8755781831,
				"z": 1.3628889149,
				"element": "H" 
			},
			{
				"x": 3.519936986,
				"y": 2.4344502827,
				"z": 2.5434521116,
				"element": "H" 
			},
			{
				"x": 2.6715175095,
				"y": 1.4546107195,
				"z": 3.7231739377,
				"element": "H" 
			},
			{
				"x": 3.2337277191,
				"y": 0.8446555391,
				"z": 0.7903346469,
				"element": "H" 
			},
			{
				"x": 3.4914021856,
				"y": -0.1679969571,
				"z": 2.1926105536,
				"element": "H" 
			}
		],
		 "valence_orbital": [ 
			{
				"type": "occ",
				"energy": -0.29944,
				"method": "rhf"
			},
			{
				"type": "occ",
				"energy": -0.29725,
				"method": "rhf"
			},
			{
				"type": "occ",
				"energy": -0.25608,
				"method": "rhf"
			},
			{
				"type": "occ",
				"energy": -0.25307,
				"method": "rhf"
			},
			{
				"type": "occ",
				"energy": -0.24,
				"method": "rhf"
			},
			{
				"type": "unocc",
				"energy": -0.03549,
				"method": "rhf"
			},
			{
				"type": "unocc",
				"energy": 0.0623,
				"method": "rhf"
			},
			{
				"type": "unocc",
				"energy": 0.08315,
				"method": "rhf"
			},
			{
				"type": "unocc",
				"energy": 0.08565,
				"method": "rhf"
			},
			{
				"type": "unocc",
				"energy": 0.09615,
				"method": "rhf"
			}
		],
		"cosmo_sigma_profile": { 
			"-0.025": 0.0,
			"-0.024": 0.0,
			"-0.023": 0.0,
			"-0.022": 0.0,
			"-0.021": 0.0,
			"-0.02": 0.0,
			"-0.019": 0.0,
			"-0.018": 0.0,
			"-0.017": 0.0,
			"-0.016": 0.0,
			"-0.015": 0.0,
			"-0.014": 0.0,
			"-0.013": 0.20092259954,
			"-0.012": 2.51872104039,
			"-0.011": 3.9196013844,
			"-0.01": 4.09052608084,
			"-0.009": 4.04657679872,
			"-0.008": 3.88605800192,
			"-0.007": 4.19194350119,
			"-0.006": 4.03983561135,
			"-0.005": 4.55232950182,
			"-0.004": 7.70735772577,
			"-0.003": 19.8180498511,
			"-0.002": 32.5173699422,
			"-0.001": 32.3500370303,
			"0.0": 30.5576312871,
			"0.001": 21.6045711854,
			"0.002": 6.38853999771,
			"0.003": 4.1529349567,
			"0.004": 3.3349229239,
			"0.005": 3.18194411049,
			"0.006": 4.33189897269,
			"0.007": 3.36274750372,
			"0.008": 2.80976758263,
			"0.009": 2.45884734352,
			"0.01": 4.08047748455,
			"0.011": 4.48925415397,
			"0.012": 5.50822520161,
			"0.013": 5.7689506781,
			"0.014": 2.01986386954,
			"0.015": 0.51386644128,
			"0.016": 0.496282825546,
			"0.017": 0.084007595988,
			"0.018": 0.0,
			"0.019": 0.0,
			"0.02": 0.0,
			"0.021": 0.0,
			"0.022": 0.0,
			"0.023": 0.0,
			"0.024": 0.0,
			"0.025": 0.0
		}
	}
}
