{
	 "smiles": "CC1=C(C=C(C=C1N(=O)=O)N(=O)=O)C(N)=O", 
	 "Tm": 450.15, 
	 "num_atms": 23, 
	 "gaussian": { 
		 "optdone": 1, 
		 "sigma_profile": "yes", 
		 "theory": "DFT", 
		 "functional": "B3LYP", 
		 "basiset": "6-31G**", 
		 "properties": { 
			 "R2extent": 4446.8918, 
			 "electric_dipole_moment_norm": 5.67764138794, 
			 "electric_quadrupole_moment_norm": 16.5483857654, 
			 "total_energy": -849.251268455, 
			 "HOMO_LUMO_gap": 0.16444, 
			 "cosmo_polarized_energy": -20.13, 
			 "cosmo_cavitation_energy": 29.18, 
			 "cosmo_dispersion_energy": -20.98, 
			 "cosmo_repulsion_energy": 1.63, 
			 "cosmo_total_nonelectrostatic_energy": 9.83, 
			 "SMD_solvation_energy": 10.29 
		},
		"coords": [
			{
				"x": 1.5541596606,
				"y": -1.6878445932,
				"z": 0.1457061556,
				"element": "C" 
			},
			{
				"x": 0.7050460497,
				"y": -0.6966228897,
				"z": -0.6184758613,
				"element": "C" 
			},
			{
				"x": 0.7626341044,
				"y": 0.6927478242,
				"z": -0.3535753645,
				"element": "C" 
			},
			{
				"x": 0.0718648531,
				"y": 1.610532107,
				"z": -1.152486736,
				"element": "C" 
			},
			{
				"x": -0.7200051939,
				"y": 1.157412324,
				"z": -2.1966275192,
				"element": "C" 
			},
			{
				"x": -0.8289847281,
				"y": -0.1935747305,
				"z": -2.4882751923,
				"element": "C" 
			},
			{
				"x": -0.1252408481,
				"y": -1.0895950528,
				"z": -1.6923928483,
				"element": "C" 
			},
			{
				"x": -0.3087243821,
				"y": -2.5147060459,
				"z": -2.0437698072,
				"element": "N" 
			},
			{
				"x": -0.5842332427,
				"y": -2.7747888456,
				"z": -3.2120400483,
				"element": "O" 
			},
			{
				"x": -0.2046155187,
				"y": -3.3468021798,
				"z": -1.1433838072,
				"element": "O" 
			},
			{
				"x": -1.4601421596,
				"y": 2.1288094727,
				"z": -3.0225148258,
				"element": "N" 
			},
			{
				"x": -2.1460094456,
				"y": 1.6814401382,
				"z": -3.9387771528,
				"element": "O" 
			},
			{
				"x": -1.3422811034,
				"y": 3.3173443953,
				"z": -2.7363552531,
				"element": "O" 
			},
			{
				"x": 1.584277203,
				"y": 1.3425990585,
				"z": 0.7456094534,
				"element": "C" 
			},
			{
				"x": 1.5706731211,
				"y": 0.7360874321,
				"z": 1.9702772505,
				"element": "N" 
			},
			{
				"x": 2.1889707237,
				"y": 2.383718542,
				"z": 0.5368768244,
				"element": "O" 
			},
			{
				"x": 2.3891477819,
				"y": -1.1859851475,
				"z": 0.6321287103,
				"element": "H" 
			},
			{
				"x": 1.9428572946,
				"y": -2.4624702087,
				"z": -0.5163263901,
				"element": "H" 
			},
			{
				"x": 0.9665136813,
				"y": -2.2131612423,
				"z": 0.9057214514,
				"element": "H" 
			},
			{
				"x": 0.1656031241,
				"y": 2.6714483465,
				"z": -0.9579333059,
				"element": "H" 
			},
			{
				"x": -1.4358852705,
				"y": -0.5415720484,
				"z": -3.3128858908,
				"element": "H" 
			},
			{
				"x": 2.011756189,
				"y": 1.238400094,
				"z": 2.7274938019,
				"element": "H" 
			},
			{
				"x": 0.9092181064,
				"y": 0.0118832498,
				"z": 2.2010063554,
				"element": "H" 
			}
		],
		 "valence_orbital": [ 
			{
				"type": "occ",
				"energy": -0.30804,
				"method": "rhf"
			},
			{
				"type": "occ",
				"energy": -0.30555,
				"method": "rhf"
			},
			{
				"type": "occ",
				"energy": -0.30051,
				"method": "rhf"
			},
			{
				"type": "occ",
				"energy": -0.29776,
				"method": "rhf"
			},
			{
				"type": "occ",
				"energy": -0.27662,
				"method": "rhf"
			},
			{
				"type": "unocc",
				"energy": -0.11218,
				"method": "rhf"
			},
			{
				"type": "unocc",
				"energy": -0.10345,
				"method": "rhf"
			},
			{
				"type": "unocc",
				"energy": -0.05982,
				"method": "rhf"
			},
			{
				"type": "unocc",
				"energy": -0.01892,
				"method": "rhf"
			},
			{
				"type": "unocc",
				"energy": 0.01924,
				"method": "rhf"
			}
		],
		"cosmo_sigma_profile": { 
			"-0.025": 0.0,
			"-0.024": 0.0,
			"-0.023": 0.0,
			"-0.022": 0.0,
			"-0.021": 0.0,
			"-0.02": 0.0,
			"-0.019": 0.0,
			"-0.018": 0.0,
			"-0.017": 0.0,
			"-0.016": 0.00524224935372,
			"-0.015": 1.4468023915,
			"-0.014": 2.49885174904,
			"-0.013": 2.04963040076,
			"-0.012": 2.85408959178,
			"-0.011": 3.1899895988,
			"-0.01": 3.05708302676,
			"-0.009": 2.53946750371,
			"-0.008": 5.43077931781,
			"-0.007": 8.2835001544,
			"-0.006": 10.1612975031,
			"-0.005": 12.0468170426,
			"-0.004": 19.4265089414,
			"-0.003": 24.0568734226,
			"-0.002": 17.5331604654,
			"-0.001": 11.5504354275,
			"0.0": 8.27038271993,
			"0.001": 7.88981691164,
			"0.002": 7.26380291997,
			"0.003": 7.07635436015,
			"0.004": 6.45580267663,
			"0.005": 8.13771731791,
			"0.006": 12.3713220694,
			"0.007": 18.60239871,
			"0.008": 10.5127672463,
			"0.009": 7.97861756366,
			"0.01": 1.88918461164,
			"0.011": 1.96314372507,
			"0.012": 3.58674306918,
			"0.013": 4.80395209622,
			"0.014": 0.463296264669,
			"0.015": 0.0,
			"0.016": 0.0,
			"0.017": 0.0,
			"0.018": 0.0,
			"0.019": 0.0,
			"0.02": 0.0,
			"0.021": 0.0,
			"0.022": 0.0,
			"0.023": 0.0,
			"0.024": 0.0,
			"0.025": 0.0
		}
	}
}
