{
	 "smiles": "CC1=CC(C)=C(Br)C(C)=C1Br", 
	 "Tm": 338.65, 
	 "num_atms": 21, 
	 "gaussian": { 
		 "optdone": 1, 
		 "sigma_profile": "yes", 
		 "theory": "DFT", 
		 "functional": "B3LYP", 
		 "basiset": "6-31G**", 
		 "properties": { 
			 "R2extent": 4644.1858, 
			 "electric_dipole_moment_norm": 1.54665873741, 
			 "electric_quadrupole_moment_norm": 7.07406017786, 
			 "total_energy": -5491.81399035, 
			 "HOMO_LUMO_gap": 0.21759, 
			 "cosmo_polarized_energy": -3.28, 
			 "cosmo_cavitation_energy": 27.5, 
			 "cosmo_dispersion_energy": -21.01, 
			 "cosmo_repulsion_energy": 1.66, 
			 "cosmo_total_nonelectrostatic_energy": 8.14, 
			 "SMD_solvation_energy": 2.85 
		},
		"coords": [
			{
				"x": -0.630065449,
				"y": 3.0038965881,
				"z": 0.485779563,
				"element": "C" 
			},
			{
				"x": 0.4294992515,
				"y": 1.9404531555,
				"z": 0.3532372884,
				"element": "C" 
			},
			{
				"x": 1.7259109581,
				"y": 2.1819591186,
				"z": 0.8140220017,
				"element": "C" 
			},
			{
				"x": 2.7582862221,
				"y": 1.2463876741,
				"z": 0.7128260449,
				"element": "C" 
			},
			{
				"x": 4.1361318217,
				"y": 1.5833557028,
				"z": 1.22189982,
				"element": "C" 
			},
			{
				"x": 2.4445792765,
				"y": 0.0135389986,
				"z": 0.1258131701,
				"element": "C" 
			},
			{
				"x": 3.8651702103,
				"y": -1.273834441,
				"z": -0.0484739816,
				"element": "Br" 
			},
			{
				"x": 1.1614630691,
				"y": -0.3139446539,
				"z": -0.3478663037,
				"element": "C" 
			},
			{
				"x": 0.857346686,
				"y": -1.6544465481,
				"z": -0.966367586,
				"element": "C" 
			},
			{
				"x": 0.1821538388,
				"y": 0.6878017742,
				"z": -0.223446284,
				"element": "C" 
			},
			{
				"x": -1.5920632179,
				"y": 0.3525153825,
				"z": -0.8909979074,
				"element": "Br" 
			},
			{
				"x": -0.2223595695,
				"y": 3.8929938467,
				"z": 0.9730404791,
				"element": "H" 
			},
			{
				"x": -1.0248931712,
				"y": 3.2976508154,
				"z": -0.492492956,
				"element": "H" 
			},
			{
				"x": -1.4815935506,
				"y": 2.6477555325,
				"z": 1.0748772426,
				"element": "H" 
			},
			{
				"x": 1.9430021991,
				"y": 3.1453545222,
				"z": 1.2675915008,
				"element": "H" 
			},
			{
				"x": 4.4606757219,
				"y": 0.8767883559,
				"z": 1.9928818133,
				"element": "H" 
			},
			{
				"x": 4.1520665603,
				"y": 2.5893129045,
				"z": 1.6484450266,
				"element": "H" 
			},
			{
				"x": 4.8800616752,
				"y": 1.5375374996,
				"z": 0.419614511,
				"element": "H" 
			},
			{
				"x": 1.4978885446,
				"y": -2.4316848268,
				"z": -0.5495359933,
				"element": "H" 
			},
			{
				"x": 1.0305738581,
				"y": -1.6306855502,
				"z": -2.0492847201,
				"element": "H" 
			},
			{
				"x": -0.1851349354,
				"y": -1.9306058512,
				"z": -0.8078627292,
				"element": "H" 
			}
		],
		 "valence_orbital": [ 
			{
				"type": "occ",
				"energy": -0.2972,
				"method": "rhf"
			},
			{
				"type": "occ",
				"energy": -0.28981,
				"method": "rhf"
			},
			{
				"type": "occ",
				"energy": -0.28095,
				"method": "rhf"
			},
			{
				"type": "occ",
				"energy": -0.24392,
				"method": "rhf"
			},
			{
				"type": "occ",
				"energy": -0.23423,
				"method": "rhf"
			},
			{
				"type": "unocc",
				"energy": -0.01664,
				"method": "rhf"
			},
			{
				"type": "unocc",
				"energy": -0.01329,
				"method": "rhf"
			},
			{
				"type": "unocc",
				"energy": -0.0103,
				"method": "rhf"
			},
			{
				"type": "unocc",
				"energy": 0.03213,
				"method": "rhf"
			},
			{
				"type": "unocc",
				"energy": 0.1057,
				"method": "rhf"
			}
		],
		"cosmo_sigma_profile": { 
			"-0.025": 0.0,
			"-0.024": 0.0,
			"-0.023": 0.0,
			"-0.022": 0.0,
			"-0.021": 0.0,
			"-0.02": 0.0,
			"-0.019": 0.0,
			"-0.018": 0.0,
			"-0.017": 0.0,
			"-0.016": 0.0,
			"-0.015": 0.0,
			"-0.014": 0.0,
			"-0.013": 0.0,
			"-0.012": 0.0,
			"-0.011": 0.0,
			"-0.01": 0.0,
			"-0.009": 0.0,
			"-0.008": 0.0,
			"-0.007": 0.238131244915,
			"-0.006": 3.83275351158,
			"-0.005": 7.22300207255,
			"-0.004": 14.9486623895,
			"-0.003": 19.0600126185,
			"-0.002": 21.5143783812,
			"-0.001": 30.7472265645,
			"0.0": 31.314703344,
			"0.001": 20.2529920157,
			"0.002": 25.5366054149,
			"0.003": 25.839261994,
			"0.004": 15.7925909348,
			"0.005": 7.61269663405,
			"0.006": 0.0594113038643,
			"0.007": 0.0,
			"0.008": 0.0,
			"0.009": 0.0,
			"0.01": 0.0,
			"0.011": 0.0,
			"0.012": 0.0,
			"0.013": 0.0,
			"0.014": 0.0,
			"0.015": 0.0,
			"0.016": 0.0,
			"0.017": 0.0,
			"0.018": 0.0,
			"0.019": 0.0,
			"0.02": 0.0,
			"0.021": 0.0,
			"0.022": 0.0,
			"0.023": 0.0,
			"0.024": 0.0,
			"0.025": 0.0
		}
	}
}
