{
	 "smiles": "BrC1=CN=C(Br)S1", 
	 "Tm": 320.15, 
	 "num_atms": 8, 
	 "gaussian": { 
		 "optdone": 1, 
		 "sigma_profile": "yes", 
		 "theory": "DFT", 
		 "functional": "B3LYP", 
		 "basiset": "6-31G**", 
		 "properties": { 
			 "R2extent": 3101.2059, 
			 "electric_dipole_moment_norm": 1.09443747195, 
			 "electric_quadrupole_moment_norm": 4.81165221104, 
			 "total_energy": -5710.63572723, 
			 "HOMO_LUMO_gap": 0.19682, 
			 "cosmo_polarized_energy": -3.71, 
			 "cosmo_cavitation_energy": 19.13, 
			 "cosmo_dispersion_energy": -15.84, 
			 "cosmo_repulsion_energy": 1.28, 
			 "cosmo_total_nonelectrostatic_energy": 4.58, 
			 "SMD_solvation_energy": -0.78 
		},
		"coords": [
			{
				"x": 1.4995809785,
				"y": -0.1404868164,
				"z": 1.9901508754,
				"element": "Br" 
			},
			{
				"x": 0.1880962839,
				"y": 0.3020046858,
				"z": 0.7197820965,
				"element": "C" 
			},
			{
				"x": -1.1250957405,
				"y": -0.0706566457,
				"z": 0.7152485094,
				"element": "C" 
			},
			{
				"x": -1.8677676223,
				"y": 0.3997525577,
				"z": -0.344976533,
				"element": "N" 
			},
			{
				"x": -1.1366843504,
				"y": 1.1158166553,
				"z": -1.1320898555,
				"element": "C" 
			},
			{
				"x": -1.7794381848,
				"y": 1.9430503399,
				"z": -2.702017816,
				"element": "Br" 
			},
			{
				"x": 0.544607625,
				"y": 1.2987636687,
				"z": -0.6697493034,
				"element": "S" 
			},
			{
				"x": -1.5953989895,
				"y": -0.6900444454,
				"z": 1.4682520266,
				"element": "H" 
			}
		],
		 "valence_orbital": [ 
			{
				"type": "occ",
				"energy": -0.31826,
				"method": "rhf"
			},
			{
				"type": "occ",
				"energy": -0.31,
				"method": "rhf"
			},
			{
				"type": "occ",
				"energy": -0.30089,
				"method": "rhf"
			},
			{
				"type": "occ",
				"energy": -0.29655,
				"method": "rhf"
			},
			{
				"type": "occ",
				"energy": -0.24862,
				"method": "rhf"
			},
			{
				"type": "unocc",
				"energy": -0.0518,
				"method": "rhf"
			},
			{
				"type": "unocc",
				"energy": -0.03283,
				"method": "rhf"
			},
			{
				"type": "unocc",
				"energy": -0.01975,
				"method": "rhf"
			},
			{
				"type": "unocc",
				"energy": 0.01404,
				"method": "rhf"
			},
			{
				"type": "unocc",
				"energy": 0.02598,
				"method": "rhf"
			}
		],
		"cosmo_sigma_profile": { 
			"-0.025": 0.0,
			"-0.024": 0.0,
			"-0.023": 0.0,
			"-0.022": 0.0,
			"-0.021": 0.0,
			"-0.02": 0.0,
			"-0.019": 0.0,
			"-0.018": 0.0,
			"-0.017": 0.0,
			"-0.016": 0.0,
			"-0.015": 0.0,
			"-0.014": 0.0,
			"-0.013": 0.0,
			"-0.012": 0.0,
			"-0.011": 0.0,
			"-0.01": 0.099341539271,
			"-0.009": 1.55276712151,
			"-0.008": 1.92189098088,
			"-0.007": 2.63778111596,
			"-0.006": 4.161273762,
			"-0.005": 4.13290601805,
			"-0.004": 8.07887851971,
			"-0.003": 13.2207926662,
			"-0.002": 16.3638725353,
			"-0.001": 19.4041818213,
			"0.0": 19.9106199933,
			"0.001": 21.0226771174,
			"0.002": 21.0083394197,
			"0.003": 16.6460728929,
			"0.004": 3.02242013196,
			"0.005": 2.54363847979,
			"0.006": 1.4518241865,
			"0.007": 1.18215637138,
			"0.008": 0.819638396323,
			"0.009": 1.30984508095,
			"0.01": 1.04454988299,
			"0.011": 1.03414369392,
			"0.012": 0.93121908803,
			"0.013": 0.635536608381,
			"0.014": 6.4142348682e-06,
			"0.015": 0.0,
			"0.016": 0.0,
			"0.017": 0.0,
			"0.018": 0.0,
			"0.019": 0.0,
			"0.02": 0.0,
			"0.021": 0.0,
			"0.022": 0.0,
			"0.023": 0.0,
			"0.024": 0.0,
			"0.025": 0.0
		}
	}
}
