{
	 "smiles": "CN(C)CCO", 
	 "Tm": 214.15, 
	 "num_atms": 17, 
	 "gaussian": { 
		 "optdone": 1, 
		 "sigma_profile": "yes", 
		 "theory": "DFT", 
		 "functional": "B3LYP", 
		 "basiset": "6-31G**", 
		 "properties": { 
			 "R2extent": 706.4199, 
			 "electric_dipole_moment_norm": 1.06159789469, 
			 "electric_quadrupole_moment_norm": 6.50094720791, 
			 "total_energy": -289.003857425, 
			 "HOMO_LUMO_gap": 0.26382, 
			 "cosmo_polarized_energy": -7.21, 
			 "cosmo_cavitation_energy": 18.72, 
			 "cosmo_dispersion_energy": -13.79, 
			 "cosmo_repulsion_energy": 1.19, 
			 "cosmo_total_nonelectrostatic_energy": 6.11, 
			 "SMD_solvation_energy": 1.21 
		},
		"coords": [
			{
				"x": 1.3908097659,
				"y": 0.6043608163,
				"z": 1.2995326524,
				"element": "C" 
			},
			{
				"x": 0.0154130538,
				"y": 0.6328433401,
				"z": 0.8168049136,
				"element": "N" 
			},
			{
				"x": -0.7873037249,
				"y": -0.4529233088,
				"z": 1.3546727585,
				"element": "C" 
			},
			{
				"x": -0.1382528617,
				"y": 0.8361519758,
				"z": -0.6181919744,
				"element": "C" 
			},
			{
				"x": 0.2789375183,
				"y": -0.2970988368,
				"z": -1.57121712,
				"element": "C" 
			},
			{
				"x": 1.6688972221,
				"y": -0.6008007867,
				"z": -1.5456455719,
				"element": "O" 
			},
			{
				"x": 1.9538915408,
				"y": -0.2958783813,
				"z": 1.0075347046,
				"element": "H" 
			},
			{
				"x": 1.9299921429,
				"y": 1.4782851798,
				"z": 0.9165306425,
				"element": "H" 
			},
			{
				"x": 1.3872618077,
				"y": 0.6716466929,
				"z": 2.3940346619,
				"element": "H" 
			},
			{
				"x": -1.8256620481,
				"y": -0.3469877221,
				"z": 1.0208587081,
				"element": "H" 
			},
			{
				"x": -0.4400656284,
				"y": -1.46415102,
				"z": 1.0721262183,
				"element": "H" 
			},
			{
				"x": -0.7809108492,
				"y": -0.4007763566,
				"z": 2.449291498,
				"element": "H" 
			},
			{
				"x": -1.197676887,
				"y": 1.0563659089,
				"z": -0.8166126664,
				"element": "H" 
			},
			{
				"x": 0.4200794845,
				"y": 1.7449427768,
				"z": -0.8894074027,
				"element": "H" 
			},
			{
				"x": -0.2283748728,
				"y": -1.2293101604,
				"z": -1.3023364933,
				"element": "H" 
			},
			{
				"x": -0.0548716958,
				"y": -0.0342830626,
				"z": -2.589960838,
				"element": "H" 
			},
			{
				"x": 2.1498360321,
				"y": 0.2029129449,
				"z": -1.7828146912,
				"element": "H" 
			}
		],
		 "valence_orbital": [ 
			{
				"type": "occ",
				"energy": -0.36,
				"method": "rhf"
			},
			{
				"type": "occ",
				"energy": -0.35297,
				"method": "rhf"
			},
			{
				"type": "occ",
				"energy": -0.32358,
				"method": "rhf"
			},
			{
				"type": "occ",
				"energy": -0.2753,
				"method": "rhf"
			},
			{
				"type": "occ",
				"energy": -0.19606,
				"method": "rhf"
			},
			{
				"type": "unocc",
				"energy": 0.06776,
				"method": "rhf"
			},
			{
				"type": "unocc",
				"energy": 0.10661,
				"method": "rhf"
			},
			{
				"type": "unocc",
				"energy": 0.12211,
				"method": "rhf"
			},
			{
				"type": "unocc",
				"energy": 0.13807,
				"method": "rhf"
			},
			{
				"type": "unocc",
				"energy": 0.14354,
				"method": "rhf"
			}
		],
		"cosmo_sigma_profile": { 
			"-0.025": 0.0,
			"-0.024": 0.0,
			"-0.023": 0.0,
			"-0.022": 0.0,
			"-0.021": 0.0,
			"-0.02": 0.0,
			"-0.019": 0.0,
			"-0.018": 0.0,
			"-0.017": 0.0,
			"-0.016": 0.0,
			"-0.015": 0.459161918264,
			"-0.014": 1.07013867579,
			"-0.013": 0.99277147768,
			"-0.012": 0.939075473364,
			"-0.011": 0.724400816555,
			"-0.01": 1.03413244175,
			"-0.009": 1.13060169284,
			"-0.008": 0.726854219011,
			"-0.007": 1.17141698993,
			"-0.006": 1.51313528388,
			"-0.005": 2.09226585638,
			"-0.004": 7.1399932818,
			"-0.003": 23.4782203256,
			"-0.002": 19.9122245263,
			"-0.001": 17.1280452125,
			"0.0": 19.7876579627,
			"0.001": 11.602910466,
			"0.002": 4.47961686579,
			"0.003": 3.48974767621,
			"0.004": 2.13242607561,
			"0.005": 2.58631297846,
			"0.006": 2.34347027019,
			"0.007": 2.41548876093,
			"0.008": 1.94608184112,
			"0.009": 1.98876050888,
			"0.01": 1.89179930608,
			"0.011": 1.87741338709,
			"0.012": 1.68741879254,
			"0.013": 1.91678241602,
			"0.014": 1.90491541834,
			"0.015": 1.78362207127,
			"0.016": 0.461439755569,
			"0.017": 0.0607038324217,
			"0.018": 0.0,
			"0.019": 0.0,
			"0.02": 0.0,
			"0.021": 0.0,
			"0.022": 0.0,
			"0.023": 0.0,
			"0.024": 0.0,
			"0.025": 0.0
		}
	}
}
