{
	 "smiles": "CC(C)(C)OC(=O)N1CCC(C1)C(O)=O", 
	 "Tm": 408.15, 
	 "num_atms": 32, 
	 "gaussian": { 
		 "optdone": 1, 
		 "sigma_profile": "yes", 
		 "theory": "DFT", 
		 "functional": "B3LYP", 
		 "basiset": "6-31G**", 
		 "properties": { 
			 "R2extent": 5539.5496, 
			 "electric_dipole_moment_norm": 2.68314406061, 
			 "electric_quadrupole_moment_norm": 30.2236571506, 
			 "total_energy": -747.0013198, 
			 "HOMO_LUMO_gap": 0.23663, 
			 "cosmo_polarized_energy": -19.63, 
			 "cosmo_cavitation_energy": 33.99, 
			 "cosmo_dispersion_energy": -23.77, 
			 "cosmo_repulsion_energy": 1.89, 
			 "cosmo_total_nonelectrostatic_energy": 12.11, 
			 "SMD_solvation_energy": 6.96 
		},
		"coords": [
			{
				"x": 0.5590389584,
				"y": 1.6712285266,
				"z": -1.5343909748,
				"element": "C" 
			},
			{
				"x": 0.6579134483,
				"y": 1.5590826504,
				"z": -0.0091104365,
				"element": "C" 
			},
			{
				"x": 2.1073873625,
				"y": 1.7236776561,
				"z": 0.4554938272,
				"element": "C" 
			},
			{
				"x": -0.2589957236,
				"y": 2.5568652732,
				"z": 0.7067571353,
				"element": "C" 
			},
			{
				"x": 0.3395876656,
				"y": 0.187839872,
				"z": 0.417250686,
				"element": "O" 
			},
			{
				"x": -0.8847554526,
				"y": -0.3464473828,
				"z": 0.1822160281,
				"element": "C" 
			},
			{
				"x": -1.823205162,
				"y": 0.2019251477,
				"z": -0.3804565814,
				"element": "O" 
			},
			{
				"x": -0.9445024207,
				"y": -1.6198203443,
				"z": 0.6672921222,
				"element": "N" 
			},
			{
				"x": -2.1779947553,
				"y": -2.3985023425,
				"z": 0.5578696423,
				"element": "C" 
			},
			{
				"x": -1.9381317142,
				"y": -3.5662554084,
				"z": 1.5234964477,
				"element": "C" 
			},
			{
				"x": -0.3992623159,
				"y": -3.7632572427,
				"z": 1.4640366923,
				"element": "C" 
			},
			{
				"x": 0.1393133464,
				"y": -2.3286488918,
				"z": 1.353630684,
				"element": "C" 
			},
			{
				"x": 0.1568167551,
				"y": -4.5285182318,
				"z": 2.6574234447,
				"element": "C" 
			},
			{
				"x": -0.2000395755,
				"y": -5.8400671057,
				"z": 2.7168874308,
				"element": "O" 
			},
			{
				"x": 0.8471706825,
				"y": -4.0516047484,
				"z": 3.5227203895,
				"element": "O" 
			},
			{
				"x": 0.9044847478,
				"y": 2.6599757888,
				"z": -1.8536031185,
				"element": "H" 
			},
			{
				"x": 1.1955173603,
				"y": 0.9193988779,
				"z": -2.0121635617,
				"element": "H" 
			},
			{
				"x": -0.4687521702,
				"y": 1.5302877638,
				"z": -1.8694099105,
				"element": "H" 
			},
			{
				"x": 2.7537987693,
				"y": 0.9830195704,
				"z": -0.0244723784,
				"element": "H" 
			},
			{
				"x": 2.1824794359,
				"y": 1.595596312,
				"z": 1.539193201,
				"element": "H" 
			},
			{
				"x": 2.4735343042,
				"y": 2.7219088246,
				"z": 0.19770386,
				"element": "H" 
			},
			{
				"x": -0.1925054692,
				"y": 2.4223430272,
				"z": 1.7911208266,
				"element": "H" 
			},
			{
				"x": -1.2956270166,
				"y": 2.425301631,
				"z": 0.3959982332,
				"element": "H" 
			},
			{
				"x": 0.0552775021,
				"y": 3.5790695477,
				"z": 0.4718262121,
				"element": "H" 
			},
			{
				"x": -3.0446605536,
				"y": -1.7887430979,
				"z": 0.8251611617,
				"element": "H" 
			},
			{
				"x": -2.3300673117,
				"y": -2.7508675658,
				"z": -0.4719955359,
				"element": "H" 
			},
			{
				"x": -2.5052646941,
				"y": -4.4596011265,
				"z": 1.245763348,
				"element": "H" 
			},
			{
				"x": -2.2301746686,
				"y": -3.2841469092,
				"z": 2.5408631322,
				"element": "H" 
			},
			{
				"x": -0.1511817162,
				"y": -4.3203315392,
				"z": 0.5495024404,
				"element": "H" 
			},
			{
				"x": 1.0712935301,
				"y": -2.2743241163,
				"z": 0.7854907726,
				"element": "H" 
			},
			{
				"x": 0.3332893869,
				"y": -1.9189067907,
				"z": 2.350681194,
				"element": "H" 
			},
			{
				"x": -0.7460825354,
				"y": -6.0756776253,
				"z": 1.9534235858,
				"element": "H" 
			}
		],
		 "valence_orbital": [ 
			{
				"type": "occ",
				"energy": -0.3245,
				"method": "rhf"
			},
			{
				"type": "occ",
				"energy": -0.28474,
				"method": "rhf"
			},
			{
				"type": "occ",
				"energy": -0.2807,
				"method": "rhf"
			},
			{
				"type": "occ",
				"energy": -0.25865,
				"method": "rhf"
			},
			{
				"type": "occ",
				"energy": -0.23796,
				"method": "rhf"
			},
			{
				"type": "unocc",
				"energy": -0.00133,
				"method": "rhf"
			},
			{
				"type": "unocc",
				"energy": 0.03497,
				"method": "rhf"
			},
			{
				"type": "unocc",
				"energy": 0.0547,
				"method": "rhf"
			},
			{
				"type": "unocc",
				"energy": 0.08241,
				"method": "rhf"
			},
			{
				"type": "unocc",
				"energy": 0.0951,
				"method": "rhf"
			}
		],
		"cosmo_sigma_profile": { 
			"-0.025": 0.0,
			"-0.024": 0.0,
			"-0.023": 0.0,
			"-0.022": 0.0,
			"-0.021": 0.0,
			"-0.02": 0.0,
			"-0.019": 0.196629612356,
			"-0.018": 1.17830072534,
			"-0.017": 1.13295499891,
			"-0.016": 1.1292273053,
			"-0.015": 1.43322690898,
			"-0.014": 0.875827902951,
			"-0.013": 1.02717028603,
			"-0.012": 1.12523090527,
			"-0.011": 1.32829996953,
			"-0.01": 1.58588904148,
			"-0.009": 1.23318407725,
			"-0.008": 1.99696462613,
			"-0.007": 4.01083386011,
			"-0.006": 6.94212205192,
			"-0.005": 13.9554413394,
			"-0.004": 24.1193170335,
			"-0.003": 27.8741351749,
			"-0.002": 22.7486021178,
			"-0.001": 22.0246433299,
			"0.0": 28.937169265,
			"0.001": 26.2455554371,
			"0.002": 8.55924774888,
			"0.003": 5.93245940222,
			"0.004": 5.5106721233,
			"0.005": 6.43490692082,
			"0.006": 6.83503397337,
			"0.007": 4.72120836178,
			"0.008": 4.87533248246,
			"0.009": 4.88072387567,
			"0.01": 6.08861268824,
			"0.011": 6.95013878164,
			"0.012": 5.95072439237,
			"0.013": 3.58616657182,
			"0.014": 2.83976494905,
			"0.015": 0.104849720325,
			"0.016": 0.0,
			"0.017": 0.0,
			"0.018": 0.0,
			"0.019": 0.0,
			"0.02": 0.0,
			"0.021": 0.0,
			"0.022": 0.0,
			"0.023": 0.0,
			"0.024": 0.0,
			"0.025": 0.0
		}
	}
}
