{
	 "smiles": "CC1=C(C(=O)C2=CC=CC=C2)C(=O)N2C=C(Br)C=CC2=N1", 
	 "Tm": 519.15, 
	 "num_atms": 32, 
	 "gaussian": { 
		 "optdone": 1, 
		 "sigma_profile": "yes", 
		 "theory": "DFT", 
		 "functional": "B3LYP", 
		 "basiset": "6-31G**", 
		 "properties": { 
			 "R2extent": 10640.5488, 
			 "electric_dipole_moment_norm": 3.835659938, 
			 "electric_quadrupole_moment_norm": 17.4558535626, 
			 "total_energy": -3447.69224926, 
			 "HOMO_LUMO_gap": 0.14347, 
			 "cosmo_polarized_energy": -15.35, 
			 "cosmo_cavitation_energy": 39.17, 
			 "cosmo_dispersion_energy": -28.37, 
			 "cosmo_repulsion_energy": 2.15, 
			 "cosmo_total_nonelectrostatic_energy": 12.94, 
			 "SMD_solvation_energy": 5.18 
		},
		"coords": [
			{
				"x": -1.8838203857,
				"y": 3.1107330588,
				"z": 0.6223401348,
				"element": "C" 
			},
			{
				"x": -0.5735462518,
				"y": 2.4208366379,
				"z": 0.3441727405,
				"element": "C" 
			},
			{
				"x": -0.4345989947,
				"y": 1.4515837325,
				"z": -0.6559067355,
				"element": "C" 
			},
			{
				"x": -1.5846432478,
				"y": 1.1122621141,
				"z": -1.5666009259,
				"element": "C" 
			},
			{
				"x": -2.2505348236,
				"y": 2.0190242686,
				"z": -2.05496999,
				"element": "O" 
			},
			{
				"x": -1.9423219269,
				"y": -0.3146422897,
				"z": -1.832183363,
				"element": "C" 
			},
			{
				"x": -1.5095650938,
				"y": -1.3682336972,
				"z": -1.0146513556,
				"element": "C" 
			},
			{
				"x": -1.932603524,
				"y": -2.672167071,
				"z": -1.2653496839,
				"element": "C" 
			},
			{
				"x": -2.7815138122,
				"y": -2.9367423435,
				"z": -2.3423425949,
				"element": "C" 
			},
			{
				"x": -3.2178370761,
				"y": -1.8916998409,
				"z": -3.1622767981,
				"element": "C" 
			},
			{
				"x": -2.8081429008,
				"y": -0.5873608979,
				"z": -2.902824525,
				"element": "C" 
			},
			{
				"x": 0.8421416529,
				"y": 0.8607049646,
				"z": -0.9275850185,
				"element": "C" 
			},
			{
				"x": 1.1466057948,
				"y": 0.0518252011,
				"z": -1.793873916,
				"element": "O" 
			},
			{
				"x": 1.9030802089,
				"y": 1.3361882256,
				"z": -0.0305418088,
				"element": "N" 
			},
			{
				"x": 3.156050682,
				"y": 0.8016445234,
				"z": -0.2236061366,
				"element": "C" 
			},
			{
				"x": 4.1952624845,
				"y": 1.1839514217,
				"z": 0.5696540008,
				"element": "C" 
			},
			{
				"x": 5.9197280367,
				"y": 0.437271836,
				"z": 0.29779536,
				"element": "Br" 
			},
			{
				"x": 3.9910262158,
				"y": 2.1425256527,
				"z": 1.599672237,
				"element": "C" 
			},
			{
				"x": 2.7427968467,
				"y": 2.6700797868,
				"z": 1.7788842076,
				"element": "C" 
			},
			{
				"x": 1.6435841891,
				"y": 2.2791101765,
				"z": 0.9561784369,
				"element": "C" 
			},
			{
				"x": 0.4434569002,
				"y": 2.8077960141,
				"z": 1.1454026883,
				"element": "N" 
			},
			{
				"x": -1.8267235837,
				"y": 3.6007797635,
				"z": 1.5950075098,
				"element": "H" 
			},
			{
				"x": -2.7263994385,
				"y": 2.4152143223,
				"z": 0.6021786667,
				"element": "H" 
			},
			{
				"x": -2.0818912827,
				"y": 3.8599050064,
				"z": -0.1496850184,
				"element": "H" 
			},
			{
				"x": -0.8538584766,
				"y": -1.1668641456,
				"z": -0.1743347681,
				"element": "H" 
			},
			{
				"x": -1.5989027926,
				"y": -3.4819452596,
				"z": -0.6231574399,
				"element": "H" 
			},
			{
				"x": -3.1041665489,
				"y": -3.9548885447,
				"z": -2.5414721024,
				"element": "H" 
			},
			{
				"x": -3.8790756428,
				"y": -2.0964587195,
				"z": -3.9992879347,
				"element": "H" 
			},
			{
				"x": -3.1456336681,
				"y": 0.2412683017,
				"z": -3.5161678033,
				"element": "H" 
			},
			{
				"x": 3.2124996462,
				"y": 0.0855914624,
				"z": -1.0324920786,
				"element": "H" 
			},
			{
				"x": 4.8219336673,
				"y": 2.4443277616,
				"z": 2.227053554,
				"element": "H" 
			},
			{
				"x": 2.5299131462,
				"y": 3.4049785777,
				"z": 2.5456704608,
				"element": "H" 
			}
		],
		 "valence_orbital": [ 
			{
				"type": "occ",
				"energy": -0.27272,
				"method": "rhf"
			},
			{
				"type": "occ",
				"energy": -0.25346,
				"method": "rhf"
			},
			{
				"type": "occ",
				"energy": -0.25041,
				"method": "rhf"
			},
			{
				"type": "occ",
				"energy": -0.24724,
				"method": "rhf"
			},
			{
				"type": "occ",
				"energy": -0.22713,
				"method": "rhf"
			},
			{
				"type": "unocc",
				"energy": -0.08366,
				"method": "rhf"
			},
			{
				"type": "unocc",
				"energy": -0.06325,
				"method": "rhf"
			},
			{
				"type": "unocc",
				"energy": -0.04564,
				"method": "rhf"
			},
			{
				"type": "unocc",
				"energy": -0.01816,
				"method": "rhf"
			},
			{
				"type": "unocc",
				"energy": -0.00094,
				"method": "rhf"
			}
		],
		"cosmo_sigma_profile": { 
			"-0.025": 0.0,
			"-0.024": 0.0,
			"-0.023": 0.0,
			"-0.022": 0.0,
			"-0.021": 0.0,
			"-0.02": 0.0,
			"-0.019": 0.0,
			"-0.018": 0.0,
			"-0.017": 0.0,
			"-0.016": 0.0,
			"-0.015": 0.0,
			"-0.014": 0.0,
			"-0.013": 0.0,
			"-0.012": 0.0,
			"-0.011": 0.0,
			"-0.01": 0.321608426201,
			"-0.009": 3.36288198043,
			"-0.008": 4.79006461955,
			"-0.007": 6.45475467311,
			"-0.006": 17.6173563981,
			"-0.005": 24.7471930153,
			"-0.004": 26.2318456526,
			"-0.003": 24.4648984337,
			"-0.002": 27.3194514188,
			"-0.001": 30.88917171,
			"0.0": 25.7709917889,
			"0.001": 17.8100658992,
			"0.002": 19.1440456801,
			"0.003": 25.0045642557,
			"0.004": 17.806094308,
			"0.005": 7.8096389976,
			"0.006": 5.94568370299,
			"0.007": 4.49149385917,
			"0.008": 3.90739372921,
			"0.009": 5.10888771826,
			"0.01": 4.81333749747,
			"0.011": 6.25630124032,
			"0.012": 6.64916627841,
			"0.013": 1.86941006897,
			"0.014": 0.226473460018,
			"0.015": 0.0,
			"0.016": 0.0,
			"0.017": 0.0,
			"0.018": 0.0,
			"0.019": 0.0,
			"0.02": 0.0,
			"0.021": 0.0,
			"0.022": 0.0,
			"0.023": 0.0,
			"0.024": 0.0,
			"0.025": 0.0
		}
	}
}
