{
	 "smiles": "COC1=C(OCC2=C(Cl)C=C(Cl)C=C2)C=CC(C=O)=C1", 
	 "Tm": 388.15, 
	 "num_atms": 32, 
	 "gaussian": { 
		 "optdone": 1, 
		 "sigma_profile": "yes", 
		 "theory": "DFT", 
		 "functional": "B3LYP", 
		 "basiset": "6-31G**", 
		 "properties": { 
			 "R2extent": 9321.7558, 
			 "electric_dipole_moment_norm": 3.86055368568, 
			 "electric_quadrupole_moment_norm": 26.2443133515, 
			 "total_energy": -1724.84975843, 
			 "HOMO_LUMO_gap": 0.17957, 
			 "cosmo_polarized_energy": -13.01, 
			 "cosmo_cavitation_energy": 40.67, 
			 "cosmo_dispersion_energy": -28.32, 
			 "cosmo_repulsion_energy": 2.2, 
			 "cosmo_total_nonelectrostatic_energy": 14.55, 
			 "SMD_solvation_energy": 8.26 
		},
		"coords": [
			{
				"x": -1.9202152693,
				"y": 0.7409144849,
				"z": 4.7401198662,
				"element": "C" 
			},
			{
				"x": -2.5938240672,
				"y": 0.3155088229,
				"z": 3.5516298271,
				"element": "O" 
			},
			{
				"x": -2.1862580429,
				"y": 0.9182202315,
				"z": 2.3887585853,
				"element": "C" 
			},
			{
				"x": -0.9513365512,
				"y": 0.5637430743,
				"z": 1.7849217672,
				"element": "C" 
			},
			{
				"x": -0.2043508758,
				"y": -0.3431002292,
				"z": 2.4807489162,
				"element": "O" 
			},
			{
				"x": 1.067923369,
				"y": -0.7388716515,
				"z": 1.9767185727,
				"element": "C" 
			},
			{
				"x": 0.9738634256,
				"y": -1.8039329209,
				"z": 0.8999521997,
				"element": "C" 
			},
			{
				"x": 2.0651210835,
				"y": -2.1202308579,
				"z": 0.080882471,
				"element": "C" 
			},
			{
				"x": 3.5880748937,
				"y": -1.2524786757,
				"z": 0.26682546,
				"element": "Cl" 
			},
			{
				"x": 2.0013959006,
				"y": -3.1183652057,
				"z": -0.8900644157,
				"element": "C" 
			},
			{
				"x": 0.8088440559,
				"y": -3.8228407699,
				"z": -1.041373908,
				"element": "C" 
			},
			{
				"x": 0.7096795025,
				"y": -5.0792818384,
				"z": -2.2605510578,
				"element": "Cl" 
			},
			{
				"x": -0.2977867322,
				"y": -3.5455336578,
				"z": -0.2404891826,
				"element": "C" 
			},
			{
				"x": -0.2015761717,
				"y": -2.5431052749,
				"z": 0.7219135995,
				"element": "C" 
			},
			{
				"x": -0.5883774473,
				"y": 1.12742472,
				"z": 0.5570222976,
				"element": "C" 
			},
			{
				"x": -1.4381390212,
				"y": 2.0443223323,
				"z": -0.0615887141,
				"element": "C" 
			},
			{
				"x": -2.6540295332,
				"y": 2.4005948194,
				"z": 0.5273937233,
				"element": "C" 
			},
			{
				"x": -3.5468854179,
				"y": 3.3682726041,
				"z": -0.1380472034,
				"element": "C" 
			},
			{
				"x": -4.6206807426,
				"y": 3.7391375976,
				"z": 0.2998939792,
				"element": "O" 
			},
			{
				"x": -3.0177903943,
				"y": 1.8287721419,
				"z": 1.7590047079,
				"element": "C" 
			},
			{
				"x": -0.8519685854,
				"y": 0.5054251389,
				"z": 4.7027693431,
				"element": "H" 
			},
			{
				"x": -2.0535169493,
				"y": 1.8183035284,
				"z": 4.9002703047,
				"element": "H" 
			},
			{
				"x": -2.383797108,
				"y": 0.1946750318,
				"z": 5.5637266322,
				"element": "H" 
			},
			{
				"x": 1.599020776,
				"y": -1.1363227681,
				"z": 2.8480705652,
				"element": "H" 
			},
			{
				"x": 1.6339107724,
				"y": 0.1299483476,
				"z": 1.6250058969,
				"element": "H" 
			},
			{
				"x": 2.8612478103,
				"y": -3.33811326,
				"z": -1.5106392506,
				"element": "H" 
			},
			{
				"x": -1.2174878813,
				"y": -4.1048856233,
				"z": -0.3672689987,
				"element": "H" 
			},
			{
				"x": -1.0540159218,
				"y": -2.3206459871,
				"z": 1.3544663783,
				"element": "H" 
			},
			{
				"x": 0.3361257811,
				"y": 0.8420298599,
				"z": 0.0702130239,
				"element": "H" 
			},
			{
				"x": -1.1541230812,
				"y": 2.4776695386,
				"z": -1.0173462127,
				"element": "H" 
			},
			{
				"x": -3.161628889,
				"y": 3.7571993235,
				"z": -1.1077472671,
				"element": "H" 
			},
			{
				"x": -3.9653186879,
				"y": 2.095247123,
				"z": 2.2153080932,
				"element": "H" 
			}
		],
		 "valence_orbital": [ 
			{
				"type": "occ",
				"energy": -0.27402,
				"method": "rhf"
			},
			{
				"type": "occ",
				"energy": -0.26178,
				"method": "rhf"
			},
			{
				"type": "occ",
				"energy": -0.25725,
				"method": "rhf"
			},
			{
				"type": "occ",
				"energy": -0.25069,
				"method": "rhf"
			},
			{
				"type": "occ",
				"energy": -0.23673,
				"method": "rhf"
			},
			{
				"type": "unocc",
				"energy": -0.05716,
				"method": "rhf"
			},
			{
				"type": "unocc",
				"energy": -0.03635,
				"method": "rhf"
			},
			{
				"type": "unocc",
				"energy": -0.03471,
				"method": "rhf"
			},
			{
				"type": "unocc",
				"energy": -0.0132,
				"method": "rhf"
			},
			{
				"type": "unocc",
				"energy": -0.00382,
				"method": "rhf"
			}
		],
		"cosmo_sigma_profile": { 
			"-0.025": 0.0,
			"-0.024": 0.0,
			"-0.023": 0.0,
			"-0.022": 0.0,
			"-0.021": 0.0,
			"-0.02": 0.0,
			"-0.019": 0.0,
			"-0.018": 0.0,
			"-0.017": 0.0,
			"-0.016": 0.0,
			"-0.015": 0.0,
			"-0.014": 0.0,
			"-0.013": 0.0,
			"-0.012": 0.0,
			"-0.011": 0.0,
			"-0.01": 0.0,
			"-0.009": 0.367148467395,
			"-0.008": 5.27890405392,
			"-0.007": 13.8078991771,
			"-0.006": 17.5004738817,
			"-0.005": 19.0579314289,
			"-0.004": 20.8331259554,
			"-0.003": 24.1522244461,
			"-0.002": 25.8413054657,
			"-0.001": 24.1865160745,
			"0.0": 27.8124316085,
			"0.001": 34.8142802352,
			"0.002": 34.6966164474,
			"0.003": 26.235600391,
			"0.004": 20.0171213967,
			"0.005": 7.07511594961,
			"0.006": 3.05227714406,
			"0.007": 2.96458499211,
			"0.008": 3.12648667874,
			"0.009": 4.22874966335,
			"0.01": 4.18817004415,
			"0.011": 5.02384534444,
			"0.012": 4.66762014435,
			"0.013": 1.40530253505,
			"0.014": 0.0547031655436,
			"0.015": 0.0,
			"0.016": 0.0,
			"0.017": 0.0,
			"0.018": 0.0,
			"0.019": 0.0,
			"0.02": 0.0,
			"0.021": 0.0,
			"0.022": 0.0,
			"0.023": 0.0,
			"0.024": 0.0,
			"0.0": 0.0
		}
	}
}
