{
	 "smiles": "[O-][N+](=O)C1=C2OCCC(=O)C2=CC(Br)=C1", 
	 "Tm": 378.15, 
	 "num_atms": 21, 
	 "gaussian": { 
		 "optdone": 1, 
		 "sigma_profile": "yes", 
		 "theory": "DFT", 
		 "functional": "B3LYP", 
		 "basiset": "6-31G**", 
		 "properties": { 
			 "R2extent": 4888.0976, 
			 "electric_dipole_moment_norm": 3.01148703799, 
			 "electric_quadrupole_moment_norm": 18.6341378985, 
			 "total_energy": -3273.5065975, 
			 "HOMO_LUMO_gap": 0.15409, 
			 "cosmo_polarized_energy": -13.37, 
			 "cosmo_cavitation_energy": 28.54, 
			 "cosmo_dispersion_energy": -21.42, 
			 "cosmo_repulsion_energy": 1.68, 
			 "cosmo_total_nonelectrostatic_energy": 8.8, 
			 "SMD_solvation_energy": 6.6 
		},
		"coords": [
			{
				"x": 1.4379580054,
				"y": 1.6796138887,
				"z": -1.6222120902,
				"element": "O" 
			},
			{
				"x": 0.2747554587,
				"y": 1.2917015079,
				"z": -1.6143758237,
				"element": "N" 
			},
			{
				"x": -0.6074277817,
				"y": 1.6854472068,
				"z": -2.3789799808,
				"element": "O" 
			},
			{
				"x": -0.1076542903,
				"y": 0.2516039903,
				"z": -0.6439015124,
				"element": "C" 
			},
			{
				"x": 0.5894856514,
				"y": 0.0590915011,
				"z": 0.569628597,
				"element": "C" 
			},
			{
				"x": 1.6016363601,
				"y": 0.8789686856,
				"z": 0.9011739291,
				"element": "O" 
			},
			{
				"x": 2.5111081116,
				"y": 0.4012312021,
				"z": 1.9115041489,
				"element": "C" 
			},
			{
				"x": 1.7713428818,
				"y": -0.0873223347,
				"z": 3.1490609635,
				"element": "C" 
			},
			{
				"x": 0.7584690288,
				"y": -1.1553817744,
				"z": 2.7703335968,
				"element": "C" 
			},
			{
				"x": 0.4357460034,
				"y": -2.0588832395,
				"z": 3.5213243346,
				"element": "O" 
			},
			{
				"x": 0.1472288816,
				"y": -0.9798946118,
				"z": 1.4219942615,
				"element": "C" 
			},
			{
				"x": -0.9185815552,
				"y": -1.8070047264,
				"z": 1.0493950175,
				"element": "C" 
			},
			{
				"x": -1.5796231418,
				"y": -1.5954897941,
				"z": -0.1521300735,
				"element": "C" 
			},
			{
				"x": -3.0368551507,
				"y": -2.7135736212,
				"z": -0.6567132745,
				"element": "Br" 
			},
			{
				"x": -1.1882423747,
				"y": -0.5556035664,
				"z": -0.9918238865,
				"element": "C" 
			},
			{
				"x": 3.164164356,
				"y": 1.248019894,
				"z": 2.1254168365,
				"element": "H" 
			},
			{
				"x": 3.1140787318,
				"y": -0.4046434791,
				"z": 1.4726011466,
				"element": "H" 
			},
			{
				"x": 1.226366175,
				"y": 0.7464352265,
				"z": 3.6123613462,
				"element": "H" 
			},
			{
				"x": 2.4613699269,
				"y": -0.4891921606,
				"z": 3.8956493412,
				"element": "H" 
			},
			{
				"x": -1.2156308608,
				"y": -2.5919523831,
				"z": 1.7358800934,
				"element": "H" 
			},
			{
				"x": -1.7001944171,
				"y": -0.3564714118,
				"z": -1.9242869713,
				"element": "H" 
			}
		],
		 "valence_orbital": [ 
			{
				"type": "occ",
				"energy": -0.30623,
				"method": "rhf"
			},
			{
				"type": "occ",
				"energy": -0.30288,
				"method": "rhf"
			},
			{
				"type": "occ",
				"energy": -0.28914,
				"method": "rhf"
			},
			{
				"type": "occ",
				"energy": -0.27394,
				"method": "rhf"
			},
			{
				"type": "occ",
				"energy": -0.25437,
				"method": "rhf"
			},
			{
				"type": "unocc",
				"energy": -0.10028,
				"method": "rhf"
			},
			{
				"type": "unocc",
				"energy": -0.07712,
				"method": "rhf"
			},
			{
				"type": "unocc",
				"energy": -0.02437,
				"method": "rhf"
			},
			{
				"type": "unocc",
				"energy": -0.01211,
				"method": "rhf"
			},
			{
				"type": "unocc",
				"energy": 0.01427,
				"method": "rhf"
			}
		],
		"cosmo_sigma_profile": { 
			"-0.025": 0.0,
			"-0.024": 0.0,
			"-0.023": 0.0,
			"-0.022": 0.0,
			"-0.021": 0.0,
			"-0.02": 0.0,
			"-0.019": 0.0,
			"-0.018": 0.0,
			"-0.017": 0.0,
			"-0.016": 0.0,
			"-0.015": 0.0,
			"-0.014": 0.0,
			"-0.013": 0.0,
			"-0.012": 0.0,
			"-0.011": 0.0,
			"-0.01": 0.0,
			"-0.009": 0.78591900961,
			"-0.008": 8.24543301652,
			"-0.007": 17.0616032891,
			"-0.006": 17.0504882587,
			"-0.005": 14.9403904934,
			"-0.004": 13.5430267617,
			"-0.003": 17.0568633855,
			"-0.002": 15.2546612078,
			"-0.001": 19.7973055072,
			"0.0": 12.9115576307,
			"0.001": 9.3197634052,
			"0.002": 11.3138343876,
			"0.003": 12.5108041574,
			"0.004": 12.0222849374,
			"0.005": 5.26986142387,
			"0.006": 5.22415833156,
			"0.007": 10.2361532533,
			"0.008": 10.3748065761,
			"0.009": 7.91648599148,
			"0.01": 5.86195554282,
			"0.011": 4.05356909666,
			"0.012": 1.60466299164,
			"0.013": 0.0989607577479,
			"0.014": 0.0,
			"0.015": 0.0,
			"0.016": 0.0,
			"0.017": 0.0,
			"0.018": 0.0,
			"0.019": 0.0,
			"0.02": 0.0,
			"0.021": 0.0,
			"0.022": 0.0,
			"0.023": 0.0,
			"0.024": 0.0,
			"0.025": 0.0
		}
	}
}
