{
	 "smiles": "O=C1NC2CCC1C2", 
	 "Tm": 349.35, 
	 "num_atms": 17, 
	 "gaussian": { 
		 "optdone": 1, 
		 "sigma_profile": "yes", 
		 "theory": "DFT", 
		 "functional": "B3LYP", 
		 "basiset": "6-31G**", 
		 "properties": { 
			 "R2extent": 1541.6675, 
			 "electric_dipole_moment_norm": 3.9382781758, 
			 "electric_quadrupole_moment_norm": 9.16249997926, 
			 "total_energy": -364.044182631, 
			 "HOMO_LUMO_gap": 0.26382, 
			 "cosmo_polarized_energy": -10.52, 
			 "cosmo_cavitation_energy": 18.63, 
			 "cosmo_dispersion_energy": -14.53, 
			 "cosmo_repulsion_energy": 1.22, 
			 "cosmo_total_nonelectrostatic_energy": 5.31, 
			 "SMD_solvation_energy": 2.49 
		},
		"coords": [
			{
				"x": 1.0358319645,
				"y": 0.4762545831,
				"z": -2.2203645815,
				"element": "O" 
			},
			{
				"x": -0.1171886863,
				"y": 0.1150368892,
				"z": -2.0740187482,
				"element": "C" 
			},
			{
				"x": -0.6837689214,
				"y": -1.0622867437,
				"z": -2.5362340572,
				"element": "N" 
			},
			{
				"x": -2.0157435383,
				"y": -1.2218025576,
				"z": -1.929671524,
				"element": "C" 
			},
			{
				"x": -1.8497198728,
				"y": -1.433800977,
				"z": -0.4003452249,
				"element": "C" 
			},
			{
				"x": -1.3072067126,
				"y": -0.042048697,
				"z": 0.0630380497,
				"element": "C" 
			},
			{
				"x": -1.2460092578,
				"y": 0.7760252289,
				"z": -1.2682173708,
				"element": "C" 
			},
			{
				"x": -2.4951852532,
				"y": 0.2427783964,
				"z": -1.9989804281,
				"element": "C" 
			},
			{
				"x": -0.0853239195,
				"y": -1.8456034862,
				"z": -2.7633310472,
				"element": "H" 
			},
			{
				"x": -2.6163180606,
				"y": -1.9683303576,
				"z": -2.4523399066,
				"element": "H" 
			},
			{
				"x": -1.1589770715,
				"y": -2.2534888763,
				"z": -0.1827394,
				"element": "H" 
			},
			{
				"x": -2.8089539825,
				"y": -1.6741292208,
				"z": 0.0699800443,
				"element": "H" 
			},
			{
				"x": -0.3299804535,
				"y": -0.1030671439,
				"z": 0.5488245261,
				"element": "H" 
			},
			{
				"x": -1.9960325614,
				"y": 0.4403997197,
				"z": 0.763274502,
				"element": "H" 
			},
			{
				"x": -1.1238464641,
				"y": 1.8518142239,
				"z": -1.1481635818,
				"element": "H" 
			},
			{
				"x": -2.595565705,
				"y": 0.6038947847,
				"z": -3.0256555193,
				"element": "H" 
			},
			{
				"x": -3.4265115038,
				"y": 0.4152542343,
				"z": -1.4508557324,
				"element": "H" 
			}
		],
		 "valence_orbital": [ 
			{
				"type": "occ",
				"energy": -0.35546,
				"method": "rhf"
			},
			{
				"type": "occ",
				"energy": -0.3336,
				"method": "rhf"
			},
			{
				"type": "occ",
				"energy": -0.33227,
				"method": "rhf"
			},
			{
				"type": "occ",
				"energy": -0.25276,
				"method": "rhf"
			},
			{
				"type": "occ",
				"energy": -0.23223,
				"method": "rhf"
			},
			{
				"type": "unocc",
				"energy": 0.03159,
				"method": "rhf"
			},
			{
				"type": "unocc",
				"energy": 0.07628,
				"method": "rhf"
			},
			{
				"type": "unocc",
				"energy": 0.11168,
				"method": "rhf"
			},
			{
				"type": "unocc",
				"energy": 0.11363,
				"method": "rhf"
			},
			{
				"type": "unocc",
				"energy": 0.13619,
				"method": "rhf"
			}
		],
		"cosmo_sigma_profile": { 
			"-0.025": 0.0,
			"-0.024": 0.0,
			"-0.023": 0.0,
			"-0.022": 0.0,
			"-0.021": 0.0,
			"-0.02": 0.0,
			"-0.019": 0.0,
			"-0.018": 0.0,
			"-0.017": 0.0,
			"-0.016": 0.0,
			"-0.015": 0.0,
			"-0.014": 0.287855537046,
			"-0.013": 1.36455959956,
			"-0.012": 1.13317707596,
			"-0.011": 0.706718657433,
			"-0.01": 1.37568868713,
			"-0.009": 0.89403271775,
			"-0.008": 0.938169272905,
			"-0.007": 0.994489318059,
			"-0.006": 2.28375133738,
			"-0.005": 6.22912328148,
			"-0.004": 14.948630879,
			"-0.003": 22.7216791544,
			"-0.002": 20.0035010599,
			"-0.001": 18.1825558078,
			"0.0": 15.4108178991,
			"0.001": 5.19953381608,
			"0.002": 2.19695043576,
			"0.003": 1.48332421619,
			"0.004": 2.69687236526,
			"0.005": 1.75765038614,
			"0.006": 1.84586270156,
			"0.007": 2.17570861485,
			"0.008": 2.14660259426,
			"0.009": 1.67206533621,
			"0.01": 0.754277654558,
			"0.011": 1.42523009291,
			"0.012": 1.97988521575,
			"0.013": 3.78086173762,
			"0.014": 6.02085692843,
			"0.015": 2.36585209517,
			"0.016": 0.112325559355,
			"0.017": 0.0,
			"0.018": 0.0,
			"0.019": 0.0,
			"0.02": 0.0,
			"0.021": 0.0,
			"0.022": 0.0,
			"0.023": 0.0,
			"0.024": 0.0,
			"0.025": 0.0
		}
	}
}
