{
	 "smiles": "CC1=CC(=NN1C1=NC(C)=CC(C)=N1)C(O)=O", 
	 "Tm": 463.15, 
	 "num_atms": 29, 
	 "gaussian": { 
		 "optdone": 1, 
		 "sigma_profile": "yes", 
		 "theory": "DFT", 
		 "functional": "B3LYP", 
		 "basiset": "6-31G**", 
		 "properties": { 
			 "R2extent": 5765.1729, 
			 "electric_dipole_moment_norm": 9.07335071294, 
			 "electric_quadrupole_moment_norm": 32.8227531557, 
			 "total_energy": -795.873328749, 
			 "HOMO_LUMO_gap": 0.19402, 
			 "cosmo_polarized_energy": -16.36, 
			 "cosmo_cavitation_energy": 34.07, 
			 "cosmo_dispersion_energy": -24.34, 
			 "cosmo_repulsion_energy": 1.91, 
			 "cosmo_total_nonelectrostatic_energy": 11.64, 
			 "SMD_solvation_energy": 5.18 
		},
		"coords": [
			{
				"x": -0.5746802043,
				"y": -0.8130702787,
				"z": -2.3315711594,
				"element": "C" 
			},
			{
				"x": -1.5135120423,
				"y": -1.0920530667,
				"z": -1.2017683208,
				"element": "C" 
			},
			{
				"x": -2.5265936482,
				"y": -2.0225378239,
				"z": -1.1586355168,
				"element": "C" 
			},
			{
				"x": -3.1106600452,
				"y": -1.8872095422,
				"z": 0.1211525692,
				"element": "C" 
			},
			{
				"x": -2.5159501508,
				"y": -0.944043608,
				"z": 0.8374366488,
				"element": "N" 
			},
			{
				"x": -1.5378847583,
				"y": -0.4513329088,
				"z": 0.0379641046,
				"element": "N" 
			},
			{
				"x": -0.711011298,
				"y": 0.5917867057,
				"z": 0.5327698448,
				"element": "C" 
			},
			{
				"x": 0.2327654386,
				"y": 1.0353306791,
				"z": -0.2965352348,
				"element": "N" 
			},
			{
				"x": 1.0175913811,
				"y": 2.0222747212,
				"z": 0.1674970984,
				"element": "C" 
			},
			{
				"x": 2.0914846387,
				"y": 2.5392083564,
				"z": -0.7532830163,
				"element": "C" 
			},
			{
				"x": 0.8350298368,
				"y": 2.5381889232,
				"z": 1.4509782532,
				"element": "C" 
			},
			{
				"x": -0.1886296161,
				"y": 1.9953386663,
				"z": 2.2350693904,
				"element": "C" 
			},
			{
				"x": -0.4629680919,
				"y": 2.4857152082,
				"z": 3.6320110449,
				"element": "C" 
			},
			{
				"x": -0.9704117321,
				"y": 1.01063925,
				"z": 1.7698558432,
				"element": "N" 
			},
			{
				"x": -4.2478073322,
				"y": -2.6396700463,
				"z": 0.7151688893,
				"element": "C" 
			},
			{
				"x": -4.5616894913,
				"y": -2.2628851335,
				"z": 1.9731670799,
				"element": "O" 
			},
			{
				"x": -4.8445783491,
				"y": -3.5146200117,
				"z": 0.1310160696,
				"element": "O" 
			},
			{
				"x": 0.4677945495,
				"y": -0.9703579181,
				"z": -2.0447259082,
				"element": "H" 
			},
			{
				"x": -0.6517015897,
				"y": 0.2191938134,
				"z": -2.6812525141,
				"element": "H" 
			},
			{
				"x": -0.8220672237,
				"y": -1.4868723289,
				"z": -3.1557216494,
				"element": "H" 
			},
			{
				"x": -2.8135585838,
				"y": -2.7103275643,
				"z": -1.9389528556,
				"element": "H" 
			},
			{
				"x": 1.9575134626,
				"y": 3.6092205425,
				"z": -0.9459448227,
				"element": "H" 
			},
			{
				"x": 3.0829692643,
				"y": 2.4129009002,
				"z": -0.3049568359,
				"element": "H" 
			},
			{
				"x": 2.062426982,
				"y": 2.003182319,
				"z": -1.7026863993,
				"element": "H" 
			},
			{
				"x": 1.4670959356,
				"y": 3.3352631221,
				"z": 1.8288866933,
				"element": "H" 
			},
			{
				"x": 0.4184315019,
				"y": 2.3569998138,
				"z": 4.2698449352,
				"element": "H" 
			},
			{
				"x": -0.7072685515,
				"y": 3.553691015,
				"z": 3.6287177946,
				"element": "H" 
			},
			{
				"x": -1.2974796817,
				"y": 1.9312984713,
				"z": 4.0624104451,
				"element": "H" 
			},
			{
				"x": -3.9496506007,
				"y": -1.5485522763,
				"z": 2.2314875289,
				"element": "H" 
			}
		],
		 "valence_orbital": [ 
			{
				"type": "occ",
				"energy": -0.29778,
				"method": "rhf"
			},
			{
				"type": "occ",
				"energy": -0.26494,
				"method": "rhf"
			},
			{
				"type": "occ",
				"energy": -0.26104,
				"method": "rhf"
			},
			{
				"type": "occ",
				"energy": -0.257,
				"method": "rhf"
			},
			{
				"type": "occ",
				"energy": -0.2532,
				"method": "rhf"
			},
			{
				"type": "unocc",
				"energy": -0.05918,
				"method": "rhf"
			},
			{
				"type": "unocc",
				"energy": -0.04731,
				"method": "rhf"
			},
			{
				"type": "unocc",
				"energy": -0.00908,
				"method": "rhf"
			},
			{
				"type": "unocc",
				"energy": 0.02826,
				"method": "rhf"
			},
			{
				"type": "unocc",
				"energy": 0.09054,
				"method": "rhf"
			}
		],
		"cosmo_sigma_profile": { 
			"-0.025": 0.0,
			"-0.024": 0.0,
			"-0.023": 0.0,
			"-0.022": 0.0,
			"-0.021": 0.0,
			"-0.02": 0.0,
			"-0.019": 0.0,
			"-0.018": 0.0,
			"-0.017": 0.0,
			"-0.016": 0.0,
			"-0.015": 0.0679675915689,
			"-0.014": 0.246247507114,
			"-0.013": 0.957497114875,
			"-0.012": 0.326978974734,
			"-0.011": 0.446036462388,
			"-0.01": 0.911236724378,
			"-0.009": 0.511249331578,
			"-0.008": 1.99915241826,
			"-0.007": 4.48004124785,
			"-0.006": 9.90217140869,
			"-0.005": 20.7810916411,
			"-0.004": 22.6073053413,
			"-0.003": 26.5561243229,
			"-0.002": 32.4913813089,
			"-0.001": 34.3211736363,
			"0.0": 24.2346869338,
			"0.001": 16.4148921225,
			"0.002": 11.9925916277,
			"0.003": 8.7792742436,
			"0.004": 6.95936898945,
			"0.005": 7.32628594217,
			"0.006": 3.27138417532,
			"0.007": 4.12314894079,
			"0.008": 4.29874338874,
			"0.009": 4.6245092015,
			"0.01": 6.37171369442,
			"0.011": 6.03434699729,
			"0.012": 6.00317136194,
			"0.013": 1.94822563386,
			"0.014": 0.897045740971,
			"0.015": 0.804764978422,
			"0.016": 0.808727203869,
			"0.017": 0.184512843726,
			"0.018": 0.0,
			"0.019": 0.0,
			"0.02": 0.0,
			"0.021": 0.0,
			"0.022": 0.0,
			"0.023": 0.0,
			"0.024": 0.0,
			"0.025": 0.0
		}
	}
}
