{
	 "smiles": "NC1=C(F)C=CC(=C1)S(=O)(=O)NC1CC1", 
	 "Tm": 375.15, 
	 "num_atms": 26, 
	 "gaussian": { 
		 "optdone": 1, 
		 "sigma_profile": "yes", 
		 "theory": "DFT", 
		 "functional": "B3LYP", 
		 "basiset": "6-31G**", 
		 "properties": { 
			 "R2extent": 4220.8823, 
			 "electric_dipole_moment_norm": 6.15754375543, 
			 "electric_quadrupole_moment_norm": 12.1063883268, 
			 "total_energy": -1107.45870884, 
			 "HOMO_LUMO_gap": 0.19241, 
			 "cosmo_polarized_energy": -18.75, 
			 "cosmo_cavitation_energy": 31.56, 
			 "cosmo_dispersion_energy": -22.7, 
			 "cosmo_repulsion_energy": 1.73, 
			 "cosmo_total_nonelectrostatic_energy": 10.58, 
			 "SMD_solvation_energy": 4.25 
		},
		"coords": [
			{
				"x": 3.1067436724,
				"y": -0.24077048,
				"z": 1.7208683913,
				"element": "N" 
			},
			{
				"x": 2.4810836455,
				"y": 0.5958502209,
				"z": 0.8121295101,
				"element": "C" 
			},
			{
				"x": 2.9415053766,
				"y": 1.9135058741,
				"z": 0.6436437678,
				"element": "C" 
			},
			{
				"x": 3.9484850675,
				"y": 2.3192396769,
				"z": 1.4562388785,
				"element": "F" 
			},
			{
				"x": 2.4203922527,
				"y": 2.7864858456,
				"z": -0.2950085031,
				"element": "C" 
			},
			{
				"x": 1.3758642981,
				"y": 2.361217446,
				"z": -1.1186765343,
				"element": "C" 
			},
			{
				"x": 0.8936432826,
				"y": 1.0610272125,
				"z": -0.958291746,
				"element": "C" 
			},
			{
				"x": 1.4277740228,
				"y": 0.1804999821,
				"z": -0.0152318125,
				"element": "C" 
			},
			{
				"x": -0.4826400952,
				"y": 0.5082430281,
				"z": -1.9743569613,
				"element": "S" 
			},
			{
				"x": -0.4876765601,
				"y": 1.3132945651,
				"z": -3.1978299095,
				"element": "O" 
			},
			{
				"x": -0.4483960165,
				"y": -0.9542770044,
				"z": -1.9954776017,
				"element": "O" 
			},
			{
				"x": -1.8977224261,
				"y": 0.9632337433,
				"z": -1.1684536739,
				"element": "N" 
			},
			{
				"x": -2.1443312904,
				"y": 0.5141415128,
				"z": 0.1793463009,
				"element": "C" 
			},
			{
				"x": -3.5857912413,
				"y": 0.2381152161,
				"z": 0.5411398166,
				"element": "C" 
			},
			{
				"x": -2.6216397261,
				"y": -0.9032630213,
				"z": 0.3665136785,
				"element": "C" 
			},
			{
				"x": 3.6494605682,
				"y": 0.2227385969,
				"z": 2.4346265644,
				"element": "H" 
			},
			{
				"x": 2.5686241419,
				"y": -1.0258821674,
				"z": 2.0553885402,
				"element": "H" 
			},
			{
				"x": 2.8395525856,
				"y": 3.783736477,
				"z": -0.3746562459,
				"element": "H" 
			},
			{
				"x": 0.9641041199,
				"y": 3.0094892732,
				"z": -1.8828951684,
				"element": "H" 
			},
			{
				"x": 1.0474814254,
				"y": -0.8336476261,
				"z": 0.048269136,
				"element": "H" 
			},
			{
				"x": -2.0774857177,
				"y": 1.9496653673,
				"z": -1.3357855291,
				"element": "H" 
			},
			{
				"x": -1.5074110839,
				"y": 0.9360038422,
				"z": 0.9578517149,
				"element": "H" 
			},
			{
				"x": -4.3236791004,
				"y": 0.3959373949,
				"z": -0.2384473788,
				"element": "H" 
			},
			{
				"x": -3.9105196513,
				"y": 0.5053340249,
				"z": 1.541907894,
				"element": "H" 
			},
			{
				"x": -2.2768067337,
				"y": -1.43312259,
				"z": 1.2488432762,
				"element": "H" 
			},
			{
				"x": -2.7001148165,
				"y": -1.5071964106,
				"z": -0.529356405,
				"element": "H" 
			}
		],
		 "valence_orbital": [ 
			{
				"type": "occ",
				"energy": -0.29767,
				"method": "rhf"
			},
			{
				"type": "occ",
				"energy": -0.29174,
				"method": "rhf"
			},
			{
				"type": "occ",
				"energy": -0.27507,
				"method": "rhf"
			},
			{
				"type": "occ",
				"energy": -0.26172,
				"method": "rhf"
			},
			{
				"type": "occ",
				"energy": -0.22318,
				"method": "rhf"
			},
			{
				"type": "unocc",
				"energy": -0.03077,
				"method": "rhf"
			},
			{
				"type": "unocc",
				"energy": -0.01265,
				"method": "rhf"
			},
			{
				"type": "unocc",
				"energy": 0.05947,
				"method": "rhf"
			},
			{
				"type": "unocc",
				"energy": 0.06871,
				"method": "rhf"
			},
			{
				"type": "unocc",
				"energy": 0.08743,
				"method": "rhf"
			}
		],
		"cosmo_sigma_profile": { 
			"-0.025": 0.0,
			"-0.024": 0.0,
			"-0.023": 0.0,
			"-0.022": 0.0,
			"-0.021": 0.0,
			"-0.02": 0.0,
			"-0.019": 0.0,
			"-0.018": 0.0,
			"-0.017": 0.0,
			"-0.016": 0.0,
			"-0.015": 0.387999287596,
			"-0.014": 1.20894026681,
			"-0.013": 3.08057964994,
			"-0.012": 3.03326432026,
			"-0.011": 3.93414412459,
			"-0.01": 3.98869268157,
			"-0.009": 3.22994362408,
			"-0.008": 4.88900318081,
			"-0.007": 6.53366854138,
			"-0.006": 8.16338759775,
			"-0.005": 16.4711001168,
			"-0.004": 14.5217705716,
			"-0.003": 15.0121018633,
			"-0.002": 13.6739204615,
			"-0.001": 16.7395271165,
			"0.0": 20.2918588072,
			"0.001": 18.5437532335,
			"0.002": 18.0761099555,
			"0.003": 18.4667084682,
			"0.004": 12.5001994967,
			"0.005": 6.48051926997,
			"0.006": 5.56726195789,
			"0.007": 4.96068446214,
			"0.008": 4.65262476453,
			"0.009": 4.97345456373,
			"0.01": 6.68012677031,
			"0.011": 9.07152975322,
			"0.012": 5.22102757239,
			"0.013": 0.209108441266,
			"0.014": 0.0,
			"0.015": 0.0,
			"0.016": 0.0,
			"0.017": 0.0,
			"0.018": 0.0,
			"0.019": 0.0,
			"0.02": 0.0,
			"0.021": 0.0,
			"0.022": 0.0,
			"0.023": 0.0,
			"0.024": 0.0,
			"0.025": 0.0
		}
	}
}
