{
	 "smiles": "BrC1=CC2=C(NC(=O)CN2)C=C1", 
	 "Tm": 433.15, 
	 "num_atms": 19, 
	 "gaussian": { 
		 "optdone": 1, 
		 "sigma_profile": "yes", 
		 "theory": "DFT", 
		 "functional": "B3LYP", 
		 "basiset": "6-31G**", 
		 "properties": { 
			 "R2extent": 4512.4352, 
			 "electric_dipole_moment_norm": 1.05677182495, 
			 "electric_quadrupole_moment_norm": 25.2731723397, 
			 "total_energy": -3065.21752333, 
			 "HOMO_LUMO_gap": 0.18521, 
			 "cosmo_polarized_energy": -14.26, 
			 "cosmo_cavitation_energy": 25.26, 
			 "cosmo_dispersion_energy": -19.57, 
			 "cosmo_repulsion_energy": 1.55, 
			 "cosmo_total_nonelectrostatic_energy": 7.25, 
			 "SMD_solvation_energy": 2.57 
		},
		"coords": [
			{
				"x": 1.4627157165,
				"y": -1.5576029629,
				"z": 3.7673541972,
				"element": "Br" 
			},
			{
				"x": 0.9811775345,
				"y": -1.1820217756,
				"z": 1.9551236829,
				"element": "C" 
			},
			{
				"x": 1.9211822937,
				"y": -0.5803085057,
				"z": 1.1197845209,
				"element": "C" 
			},
			{
				"x": 1.5859858408,
				"y": -0.2918673874,
				"z": -0.2070238753,
				"element": "C" 
			},
			{
				"x": 0.2985192973,
				"y": -0.6297915777,
				"z": -0.6782046928,
				"element": "C" 
			},
			{
				"x": -0.022532401,
				"y": -0.2935837501,
				"z": -2.0052092818,
				"element": "N" 
			},
			{
				"x": 0.8843552717,
				"y": 0.0748910037,
				"z": -2.9692396122,
				"element": "C" 
			},
			{
				"x": 0.5603339653,
				"y": 0.3299005718,
				"z": -4.1167016617,
				"element": "O" 
			},
			{
				"x": 2.3380744675,
				"y": 0.0756792943,
				"z": -2.5026430625,
				"element": "C" 
			},
			{
				"x": 2.4408626304,
				"y": 0.3759400255,
				"z": -1.079152439,
				"element": "N" 
			},
			{
				"x": -0.6191169,
				"y": -1.24352615,
				"z": 0.170523193,
				"element": "C" 
			},
			{
				"x": -0.2886903685,
				"y": -1.5218453014,
				"z": 1.4990639752,
				"element": "C" 
			},
			{
				"x": 2.9062625081,
				"y": -0.3274391956,
				"z": 1.4973306713,
				"element": "H" 
			},
			{
				"x": -0.9818858558,
				"y": -0.3666150291,
				"z": -2.3191110438,
				"element": "H" 
			},
			{
				"x": 2.7683703066,
				"y": -0.9052818444,
				"z": -2.7747385058,
				"element": "H" 
			},
			{
				"x": 2.8613162101,
				"y": 0.8388908681,
				"z": -3.0815524001,
				"element": "H" 
			},
			{
				"x": 3.387920826,
				"y": 0.4864383859,
				"z": -0.7422908211,
				"element": "H" 
			},
			{
				"x": -1.6056143421,
				"y": -1.5014048283,
				"z": -0.205471415,
				"element": "H" 
			},
			{
				"x": -1.0060370011,
				"y": -1.9937518412,
				"z": 2.1588585706,
				"element": "H" 
			}
		],
		 "valence_orbital": [ 
			{
				"type": "occ",
				"energy": -0.28732,
				"method": "rhf"
			},
			{
				"type": "occ",
				"energy": -0.28471,
				"method": "rhf"
			},
			{
				"type": "occ",
				"energy": -0.26629,
				"method": "rhf"
			},
			{
				"type": "occ",
				"energy": -0.23859,
				"method": "rhf"
			},
			{
				"type": "occ",
				"energy": -0.20657,
				"method": "rhf"
			},
			{
				"type": "unocc",
				"energy": -0.02136,
				"method": "rhf"
			},
			{
				"type": "unocc",
				"energy": -0.00925,
				"method": "rhf"
			},
			{
				"type": "unocc",
				"energy": 0.0061,
				"method": "rhf"
			},
			{
				"type": "unocc",
				"energy": 0.02722,
				"method": "rhf"
			},
			{
				"type": "unocc",
				"energy": 0.0706,
				"method": "rhf"
			}
		],
		"cosmo_sigma_profile": { 
			"-0.025": 0.0,
			"-0.024": 0.0,
			"-0.023": 0.0,
			"-0.022": 0.0,
			"-0.021": 0.0,
			"-0.02": 0.0,
			"-0.019": 0.0,
			"-0.018": 0.0,
			"-0.017": 0.0,
			"-0.016": 0.0467206357522,
			"-0.015": 1.11866093417,
			"-0.014": 1.88210933111,
			"-0.013": 2.75879783408,
			"-0.012": 2.60039022715,
			"-0.011": 2.82866940538,
			"-0.01": 2.82871664809,
			"-0.009": 3.52034773804,
			"-0.008": 3.3559425668,
			"-0.007": 6.56918419022,
			"-0.006": 11.7743878884,
			"-0.005": 10.8548700933,
			"-0.004": 11.2555682007,
			"-0.003": 9.81087359269,
			"-0.002": 9.05223675683,
			"-0.001": 9.27500253618,
			"0.0": 10.2715985654,
			"0.001": 12.5704990986,
			"0.002": 13.9264036192,
			"0.003": 19.7425762647,
			"0.004": 21.7526005743,
			"0.005": 14.3799913903,
			"0.006": 2.90023692233,
			"0.007": 2.25162105264,
			"0.008": 1.36877821794,
			"0.009": 1.47836922377,
			"0.01": 1.8385948393,
			"0.011": 2.24764551881,
			"0.012": 3.11808588841,
			"0.013": 5.93049004847,
			"0.014": 1.6479251319,
			"0.015": 0.0,
			"0.016": 0.0,
			"0.017": 0.0,
			"0.018": 0.0,
			"0.019": 0.0,
			"0.02": 0.0,
			"0.021": 0.0,
			"0.022": 0.0,
			"0.023": 0.0,
			"0.024": 0.0,
			"0.025": 0.0
		}
	}
}
