{
	 "smiles": "OC(=O)CNS(=O)(=O)CC1=CC=CC=C1", 
	 "Tm": 427.15, 
	 "num_atms": 26, 
	 "gaussian": { 
		 "optdone": 1, 
		 "sigma_profile": "yes", 
		 "theory": "DFT", 
		 "functional": "B3LYP", 
		 "basiset": "6-31G**", 
		 "properties": { 
			 "R2extent": 4456.96, 
			 "electric_dipole_moment_norm": 4.58657616311, 
			 "electric_quadrupole_moment_norm": 17.2836544131, 
			 "total_energy": -1103.36849555, 
			 "HOMO_LUMO_gap": 0.22877, 
			 "cosmo_polarized_energy": -22.31, 
			 "cosmo_cavitation_energy": 31.96, 
			 "cosmo_dispersion_energy": -22.96, 
			 "cosmo_repulsion_energy": 1.77, 
			 "cosmo_total_nonelectrostatic_energy": 10.78, 
			 "SMD_solvation_energy": 5.17 
		},
		"coords": [
			{
				"x": 0.7145361155,
				"y": -3.3765283132,
				"z": 1.9883658086,
				"element": "O" 
			},
			{
				"x": 0.1273255491,
				"y": -2.73896691,
				"z": 0.956182921,
				"element": "C" 
			},
			{
				"x": -1.0725981545,
				"y": -2.6135087919,
				"z": 0.8414445609,
				"element": "O" 
			},
			{
				"x": 1.1678480628,
				"y": -2.2225738435,
				"z": -0.0285616567,
				"element": "C" 
			},
			{
				"x": 0.6150639678,
				"y": -1.6272363792,
				"z": -1.2250017921,
				"element": "N" 
			},
			{
				"x": 0.3344983666,
				"y": 0.032768464,
				"z": -1.3308320459,
				"element": "S" 
			},
			{
				"x": 1.3993227793,
				"y": 0.6620729144,
				"z": -0.5440207922,
				"element": "O" 
			},
			{
				"x": 0.1414496582,
				"y": 0.3059748757,
				"z": -2.7544645565,
				"element": "O" 
			},
			{
				"x": -1.2666733515,
				"y": 0.3589463744,
				"z": -0.4914362182,
				"element": "C" 
			},
			{
				"x": -1.6044724863,
				"y": 1.8244575191,
				"z": -0.5026837159,
				"element": "C" 
			},
			{
				"x": -1.2159849828,
				"y": 2.6487220058,
				"z": 0.5614437282,
				"element": "C" 
			},
			{
				"x": -1.5231650964,
				"y": 4.0088787916,
				"z": 0.5504309736,
				"element": "C" 
			},
			{
				"x": -2.2170809563,
				"y": 4.5607606543,
				"z": -0.5280763475,
				"element": "C" 
			},
			{
				"x": -2.5990951895,
				"y": 3.7476155366,
				"z": -1.5970375883,
				"element": "C" 
			},
			{
				"x": -2.2921366569,
				"y": 2.3875571103,
				"z": -1.5859739372,
				"element": "C" 
			},
			{
				"x": 0.0017188006,
				"y": -3.6786860649,
				"z": 2.576555311,
				"element": "H" 
			},
			{
				"x": 1.7990111085,
				"y": -1.4788725462,
				"z": 0.4676973281,
				"element": "H" 
			},
			{
				"x": 1.8291932369,
				"y": -3.0550716275,
				"z": -0.2973399925,
				"element": "H" 
			},
			{
				"x": -0.0777238083,
				"y": -2.1735676387,
				"z": -1.7252038933,
				"element": "H" 
			},
			{
				"x": -2.0016939116,
				"y": -0.2428597544,
				"z": -1.0313804945,
				"element": "H" 
			},
			{
				"x": -1.1675601728,
				"y": -0.0441595303,
				"z": 0.5175199286,
				"element": "H" 
			},
			{
				"x": -0.6683866141,
				"y": 2.2223790553,
				"z": 1.3971642926,
				"element": "H" 
			},
			{
				"x": -1.2196906463,
				"y": 4.6370882418,
				"z": 1.3828081606,
				"element": "H" 
			},
			{
				"x": -2.4581677221,
				"y": 5.6198247018,
				"z": -0.5360628039,
				"element": "H" 
			},
			{
				"x": -3.1351580585,
				"y": 4.1722565265,
				"z": -2.440758477,
				"element": "H" 
			},
			{
				"x": -2.5792798372,
				"y": 1.7582286282,
				"z": -2.4232787015,
				"element": "H" 
			}
		],
		 "valence_orbital": [ 
			{
				"type": "occ",
				"energy": -0.30203,
				"method": "rhf"
			},
			{
				"type": "occ",
				"energy": -0.29963,
				"method": "rhf"
			},
			{
				"type": "occ",
				"energy": -0.28398,
				"method": "rhf"
			},
			{
				"type": "occ",
				"energy": -0.25181,
				"method": "rhf"
			},
			{
				"type": "occ",
				"energy": -0.24559,
				"method": "rhf"
			},
			{
				"type": "unocc",
				"energy": -0.01682,
				"method": "rhf"
			},
			{
				"type": "unocc",
				"energy": -0.01431,
				"method": "rhf"
			},
			{
				"type": "unocc",
				"energy": -0.00343,
				"method": "rhf"
			},
			{
				"type": "unocc",
				"energy": 0.0556,
				"method": "rhf"
			},
			{
				"type": "unocc",
				"energy": 0.06214,
				"method": "rhf"
			}
		],
		"cosmo_sigma_profile": { 
			"-0.025": 0.0,
			"-0.024": 0.0,
			"-0.023": 0.0,
			"-0.022": 0.0,
			"-0.021": 0.0,
			"-0.02": 0.0,
			"-0.019": 0.448414283884,
			"-0.018": 0.925236124812,
			"-0.017": 0.883906875999,
			"-0.016": 0.737110252544,
			"-0.015": 2.05639234794,
			"-0.014": 1.95114754231,
			"-0.013": 2.5132659164,
			"-0.012": 1.77605110999,
			"-0.011": 2.15107270903,
			"-0.01": 2.03989443782,
			"-0.009": 3.84184904469,
			"-0.008": 8.20764328309,
			"-0.007": 9.70664342148,
			"-0.006": 16.3751548923,
			"-0.005": 16.7828250755,
			"-0.004": 18.0213980538,
			"-0.003": 14.2917405932,
			"-0.002": 11.09738643,
			"-0.001": 9.89267823209,
			"0.0": 10.3224507292,
			"0.001": 11.2476068157,
			"0.002": 11.007508312,
			"0.003": 11.2836181041,
			"0.004": 14.5504244687,
			"0.005": 16.3869184186,
			"0.006": 8.10072646948,
			"0.007": 6.59892923951,
			"0.008": 8.20106270847,
			"0.009": 6.33324938863,
			"0.01": 8.90083920786,
			"0.011": 12.0801857811,
			"0.012": 4.94001950194,
			"0.013": 0.0,
			"0.014": 0.0,
			"0.015": 0.0,
			"0.016": 0.0,
			"0.017": 0.0,
			"0.018": 0.0,
			"0.019": 0.0,
			"0.02": 0.0,
			"0.021": 0.0,
			"0.022": 0.0,
			"0.023": 0.0,
			"0.024": 0.0,
			"0.025": 0.0
		}
	}
}
