{
	 "smiles": "BrCC(=O)C1=CC2=C(O1)C=CC(Br)=C2", 
	 "Tm": 413.15, 
	 "num_atms": 20, 
	 "gaussian": { 
		 "optdone": 1, 
		 "sigma_profile": "yes", 
		 "theory": "DFT", 
		 "functional": "B3LYP", 
		 "basiset": "6-31G**", 
		 "properties": { 
			 "R2extent": 8232.8936, 
			 "electric_dipole_moment_norm": 2.19951098201, 
			 "electric_quadrupole_moment_norm": 11.4765685394, 
			 "total_energy": -5677.92141153, 
			 "HOMO_LUMO_gap": 0.15662, 
			 "cosmo_polarized_energy": -9.37, 
			 "cosmo_cavitation_energy": 30.23, 
			 "cosmo_dispersion_energy": -22.6, 
			 "cosmo_repulsion_energy": 1.79, 
			 "cosmo_total_nonelectrostatic_energy": 9.43, 
			 "SMD_solvation_energy": 3.68 
		},
		"coords": [
			{
				"x": -1.2250359441,
				"y": -4.2252294579,
				"z": -0.0532224384,
				"element": "Br" 
			},
			{
				"x": -0.186499713,
				"y": -3.302140714,
				"z": -1.4622935961,
				"element": "C" 
			},
			{
				"x": 0.7433439635,
				"y": -2.2860453476,
				"z": -0.8196010775,
				"element": "C" 
			},
			{
				"x": 1.9364789661,
				"y": -2.5115793992,
				"z": -0.6929659735,
				"element": "O" 
			},
			{
				"x": 0.1675696381,
				"y": -1.0126501772,
				"z": -0.3660978879,
				"element": "C" 
			},
			{
				"x": 0.7619442741,
				"y": 0.0372909917,
				"z": 0.2754738671,
				"element": "C" 
			},
			{
				"x": -0.2603658748,
				"y": 1.0242142004,
				"z": 0.4633005412,
				"element": "C" 
			},
			{
				"x": -1.4272345319,
				"y": 0.4703946338,
				"z": -0.1040913904,
				"element": "C" 
			},
			{
				"x": -1.1693311207,
				"y": -0.7676546825,
				"z": -0.6114134524,
				"element": "O" 
			},
			{
				"x": -2.6539530161,
				"y": 1.1261336095,
				"z": -0.125504704,
				"element": "C" 
			},
			{
				"x": -2.6957084888,
				"y": 2.3915290137,
				"z": 0.4509993027,
				"element": "C" 
			},
			{
				"x": -1.538817111,
				"y": 2.9601190535,
				"z": 1.0218515239,
				"element": "C" 
			},
			{
				"x": -1.6735299118,
				"y": 4.7038334265,
				"z": 1.7950358815,
				"element": "Br" 
			},
			{
				"x": -0.3172331979,
				"y": 2.3044479957,
				"z": 1.0422745526,
				"element": "C" 
			},
			{
				"x": -0.9217641383,
				"y": -2.8485271488,
				"z": -2.1250671073,
				"element": "H" 
			},
			{
				"x": 0.4036534391,
				"y": -4.0645306677,
				"z": -1.9647061338,
				"element": "H" 
			},
			{
				"x": 1.8001621402,
				"y": 0.0781361475,
				"z": 0.5698180023,
				"element": "H" 
			},
			{
				"x": -3.5334418254,
				"y": 0.6717874701,
				"z": -0.5673548452,
				"element": "H" 
			},
			{
				"x": -3.6236987273,
				"y": 2.950750893,
				"z": 0.4656904905,
				"element": "H" 
			},
			{
				"x": 0.5564611801,
				"y": 2.7646201595,
				"z": 1.4883744445,
				"element": "H" 
			}
		],
		 "valence_orbital": [ 
			{
				"type": "occ",
				"energy": -0.29551,
				"method": "rhf"
			},
			{
				"type": "occ",
				"energy": -0.28477,
				"method": "rhf"
			},
			{
				"type": "occ",
				"energy": -0.26935,
				"method": "rhf"
			},
			{
				"type": "occ",
				"energy": -0.24986,
				"method": "rhf"
			},
			{
				"type": "occ",
				"energy": -0.24778,
				"method": "rhf"
			},
			{
				"type": "unocc",
				"energy": -0.09116,
				"method": "rhf"
			},
			{
				"type": "unocc",
				"energy": -0.03077,
				"method": "rhf"
			},
			{
				"type": "unocc",
				"energy": -0.01565,
				"method": "rhf"
			},
			{
				"type": "unocc",
				"energy": -0.00273,
				"method": "rhf"
			},
			{
				"type": "unocc",
				"energy": 0.00874,
				"method": "rhf"
			}
		],
		"cosmo_sigma_profile": { 
			"-0.025": 0.0,
			"-0.024": 0.0,
			"-0.023": 0.0,
			"-0.022": 0.0,
			"-0.021": 0.0,
			"-0.02": 0.0,
			"-0.019": 0.0,
			"-0.018": 0.0,
			"-0.017": 0.0,
			"-0.016": 0.0,
			"-0.015": 0.0,
			"-0.014": 0.0,
			"-0.013": 0.0,
			"-0.012": 0.0,
			"-0.011": 0.0,
			"-0.01": 0.0903959996877,
			"-0.009": 3.61622478671,
			"-0.008": 10.2274061833,
			"-0.007": 12.2959493021,
			"-0.006": 12.3562677546,
			"-0.005": 10.0388300191,
			"-0.004": 10.8945871141,
			"-0.003": 10.5330483634,
			"-0.002": 13.6065758186,
			"-0.001": 17.6280486935,
			"0.0": 24.9187536384,
			"0.001": 28.0633455852,
			"0.002": 24.6214517295,
			"0.003": 17.9124150228,
			"0.004": 20.1760087301,
			"0.005": 15.9681903261,
			"0.006": 4.2321088903,
			"0.007": 1.13688994352,
			"0.008": 1.78933277294,
			"0.009": 2.10594603048,
			"0.01": 3.48060389776,
			"0.011": 3.93854456427,
			"0.012": 0.652018141618,
			"0.013": 0.0,
			"0.014": 0.0,
			"0.015": 0.0,
			"0.016": 0.0,
			"0.017": 0.0,
			"0.018": 0.0,
			"0.019": 0.0,
			"0.02": 0.0,
			"0.021": 0.0,
			"0.022": 0.0,
			"0.023": 0.0,
			"0.024": 0.0,
			"0.025": 0.0
		}
	}
}
