{
	 "smiles": "CCS(=O)(=O)NCCS(Cl)(=O)=O", 
	 "Tm": 342.15, 
	 "num_atms": 22, 
	 "gaussian": { 
		 "optdone": 1, 
		 "sigma_profile": "yes", 
		 "theory": "DFT", 
		 "functional": "B3LYP", 
		 "basiset": "6-31G**", 
		 "properties": { 
			 "R2extent": 4434.9725, 
			 "electric_dipole_moment_norm": 4.66532474111, 
			 "electric_quadrupole_moment_norm": 15.8431041535, 
			 "total_energy": -1770.54068502, 
			 "HOMO_LUMO_gap": 0.19315, 
			 "cosmo_polarized_energy": -19.55, 
			 "cosmo_cavitation_energy": 30.24, 
			 "cosmo_dispersion_energy": -22.47, 
			 "cosmo_repulsion_energy": 1.73, 
			 "cosmo_total_nonelectrostatic_energy": 9.5, 
			 "SMD_solvation_energy": 2.83 
		},
		"coords": [
			{
				"x": -2.7337798389,
				"y": -2.0357991132,
				"z": 1.8259718747,
				"element": "C" 
			},
			{
				"x": -1.7529199388,
				"y": -1.3612901905,
				"z": 2.7764430514,
				"element": "C" 
			},
			{
				"x": -0.1243803526,
				"y": -1.0564442695,
				"z": 2.0424790776,
				"element": "S" 
			},
			{
				"x": 0.3192389409,
				"y": -2.2709905448,
				"z": 1.3469865182,
				"element": "O" 
			},
			{
				"x": 0.704396774,
				"y": -0.4178901996,
				"z": 3.0692120535,
				"element": "O" 
			},
			{
				"x": -0.4924698887,
				"y": 0.083498947,
				"z": 0.830464588,
				"element": "N" 
			},
			{
				"x": 0.1473139514,
				"y": -0.1035989343,
				"z": -0.4752116079,
				"element": "C" 
			},
			{
				"x": -0.6204224519,
				"y": 0.6430824431,
				"z": -1.5697079623,
				"element": "C" 
			},
			{
				"x": -0.3189136171,
				"y": 2.436592255,
				"z": -1.454646665,
				"element": "S" 
			},
			{
				"x": -1.716936242,
				"y": 3.1339565014,
				"z": -2.8936333834,
				"element": "Cl" 
			},
			{
				"x": -0.7677556401,
				"y": 2.9143159904,
				"z": -0.1479152383,
				"element": "O" 
			},
			{
				"x": 1.0149733763,
				"y": 2.7420050634,
				"z": -1.955713423,
				"element": "O" 
			},
			{
				"x": -2.335116588,
				"y": -2.9877119043,
				"z": 1.4680255335,
				"element": "H" 
			},
			{
				"x": -3.6746022582,
				"y": -2.228584119,
				"z": 2.3497988403,
				"element": "H" 
			},
			{
				"x": -2.9460642419,
				"y": -1.3959932809,
				"z": 0.9657382618,
				"element": "H" 
			},
			{
				"x": -2.1049868563,
				"y": -0.3894351368,
				"z": 3.1334916942,
				"element": "H" 
			},
			{
				"x": -1.5278633284,
				"y": -1.9809633754,
				"z": 3.6499907171,
				"element": "H" 
			},
			{
				"x": -0.3783464031,
				"y": 1.0256490748,
				"z": 1.201144404,
				"element": "H" 
			},
			{
				"x": 1.2045250364,
				"y": 0.1921493563,
				"z": -0.4880286311,
				"element": "H" 
			},
			{
				"x": 0.1101431059,
				"y": -1.1693350437,
				"z": -0.7129293602,
				"element": "H" 
			},
			{
				"x": -1.6983182843,
				"y": 0.5014055666,
				"z": -1.4740167755,
				"element": "H" 
			},
			{
				"x": -0.2822152547,
				"y": 0.359880914,
				"z": -2.5689435675,
				"element": "H" 
			}
		],
		 "valence_orbital": [ 
			{
				"type": "occ",
				"energy": -0.3294,
				"method": "rhf"
			},
			{
				"type": "occ",
				"energy": -0.32782,
				"method": "rhf"
			},
			{
				"type": "occ",
				"energy": -0.31796,
				"method": "rhf"
			},
			{
				"type": "occ",
				"energy": -0.30938,
				"method": "rhf"
			},
			{
				"type": "occ",
				"energy": -0.28826,
				"method": "rhf"
			},
			{
				"type": "unocc",
				"energy": -0.09511,
				"method": "rhf"
			},
			{
				"type": "unocc",
				"energy": 0.01636,
				"method": "rhf"
			},
			{
				"type": "unocc",
				"energy": 0.04105,
				"method": "rhf"
			},
			{
				"type": "unocc",
				"energy": 0.05093,
				"method": "rhf"
			},
			{
				"type": "unocc",
				"energy": 0.06507,
				"method": "rhf"
			}
		],
		"cosmo_sigma_profile": { 
			"-0.025": 0.0,
			"-0.024": 0.0,
			"-0.023": 0.0,
			"-0.022": 0.0,
			"-0.021": 0.0,
			"-0.02": 0.0,
			"-0.019": 0.0,
			"-0.018": 0.0,
			"-0.017": 0.0,
			"-0.016": 0.0,
			"-0.015": 0.0,
			"-0.014": 0.0,
			"-0.013": 0.0416782307602,
			"-0.012": 0.86026689905,
			"-0.011": 3.52157323776,
			"-0.01": 6.40272417314,
			"-0.009": 8.13781306097,
			"-0.008": 10.7977025861,
			"-0.007": 12.4993490065,
			"-0.006": 11.6548589269,
			"-0.005": 10.8015802077,
			"-0.004": 15.8708081949,
			"-0.003": 11.6164397794,
			"-0.002": 12.8893562114,
			"-0.001": 16.9668013408,
			"0.0": 12.5611011111,
			"0.001": 10.0027188164,
			"0.002": 13.093411993,
			"0.003": 17.2307204359,
			"0.004": 7.22998757848,
			"0.005": 4.90531016377,
			"0.006": 5.56729117368,
			"0.007": 7.89310971612,
			"0.008": 11.8220949507,
			"0.009": 7.70340808348,
			"0.01": 6.29726093337,
			"0.011": 10.3900729817,
			"0.012": 4.37928308031,
			"0.013": 0.00268688664501,
			"0.014": 0.0,
			"0.015": 0.0,
			"0.016": 0.0,
			"0.017": 0.0,
			"0.018": 0.0,
			"0.019": 0.0,
			"0.02": 0.0,
			"0.021": 0.0,
			"0.022": 0.0,
			"0.023": 0.0,
			"0.024": 0.0,
			"0.025": 0.0
		}
	}
}
