{
	 "smiles": "FC(F)C(F)(F)Cl", 
	 "Tm": 156.15, 
	 "num_atms": 8, 
	 "gaussian": { 
		 "optdone": 1, 
		 "sigma_profile": "yes", 
		 "theory": "DFT", 
		 "functional": "B3LYP", 
		 "basiset": "6-31G**", 
		 "properties": { 
			 "R2extent": 1965.2222, 
			 "electric_dipole_moment_norm": 1.380487758, 
			 "electric_quadrupole_moment_norm": 3.60327666437, 
			 "total_energy": -936.346306676, 
			 "HOMO_LUMO_gap": 0.3366, 
			 "cosmo_polarized_energy": -3.38, 
			 "cosmo_cavitation_energy": 15.76, 
			 "cosmo_dispersion_energy": -11.27, 
			 "cosmo_repulsion_energy": 0.9, 
			 "cosmo_total_nonelectrostatic_energy": 5.39, 
			 "SMD_solvation_energy": 4.2 
		},
		"coords": [
			{
				"x": -1.0270466181,
				"y": 2.8846849174,
				"z": -1.8106274925,
				"element": "F" 
			},
			{
				"x": -1.5194381234,
				"y": 1.9448688017,
				"z": -0.9738387179,
				"element": "C" 
			},
			{
				"x": -2.8658496162,
				"y": 1.9066272184,
				"z": -1.0817140522,
				"element": "F" 
			},
			{
				"x": -0.9371445213,
				"y": 0.5708142793,
				"z": -1.3485359491,
				"element": "C" 
			},
			{
				"x": 0.4002675671,
				"y": 0.6245439129,
				"z": -1.2067942688,
				"element": "F" 
			},
			{
				"x": -1.418790999,
				"y": -0.3429620287,
				"z": -0.4855922515,
				"element": "F" 
			},
			{
				"x": -1.3411152623,
				"y": 0.0875109312,
				"z": -3.0158202151,
				"element": "Cl" 
			},
			{
				"x": -1.2373824266,
				"y": 2.1842119678,
				"z": 0.0588229471,
				"element": "H" 
			}
		],
		 "valence_orbital": [ 
			{
				"type": "occ",
				"energy": -0.41801,
				"method": "rhf"
			},
			{
				"type": "occ",
				"energy": -0.41297,
				"method": "rhf"
			},
			{
				"type": "occ",
				"energy": -0.36084,
				"method": "rhf"
			},
			{
				"type": "occ",
				"energy": -0.34077,
				"method": "rhf"
			},
			{
				"type": "occ",
				"energy": -0.34056,
				"method": "rhf"
			},
			{
				"type": "unocc",
				"energy": -0.00396,
				"method": "rhf"
			},
			{
				"type": "unocc",
				"energy": 0.0687,
				"method": "rhf"
			},
			{
				"type": "unocc",
				"energy": 0.09817,
				"method": "rhf"
			},
			{
				"type": "unocc",
				"energy": 0.1235,
				"method": "rhf"
			},
			{
				"type": "unocc",
				"energy": 0.19528,
				"method": "rhf"
			}
		],
		"cosmo_sigma_profile": { 
			"-0.025": 0.0,
			"-0.024": 0.0,
			"-0.023": 0.0,
			"-0.022": 0.0,
			"-0.021": 0.0,
			"-0.02": 0.0,
			"-0.019": 0.0,
			"-0.018": 0.0,
			"-0.017": 0.0,
			"-0.016": 0.0,
			"-0.015": 0.0,
			"-0.014": 0.0,
			"-0.013": 0.166238202622,
			"-0.012": 2.58494502052,
			"-0.011": 2.66867775887,
			"-0.01": 1.84471849943,
			"-0.009": 1.38584928307,
			"-0.008": 1.28719612286,
			"-0.007": 1.12596921618,
			"-0.006": 1.46650127212,
			"-0.005": 1.59573699459,
			"-0.004": 2.78040443698,
			"-0.003": 3.36772798196,
			"-0.002": 5.6798047471,
			"-0.001": 6.71961210672,
			"0.0": 12.4890555862,
			"0.001": 24.7049684903,
			"0.002": 35.6224521704,
			"0.003": 22.5206335764,
			"0.004": 0.610687683759,
			"0.005": 0.0,
			"0.006": 0.0,
			"0.007": 0.0,
			"0.008": 0.0,
			"0.009": 0.0,
			"0.01": 0.0,
			"0.011": 0.0,
			"0.012": 0.0,
			"0.013": 0.0,
			"0.014": 0.0,
			"0.015": 0.0,
			"0.016": 0.0,
			"0.017": 0.0,
			"0.018": 0.0,
			"0.019": 0.0,
			"0.02": 0.0,
			"0.021": 0.0,
			"0.022": 0.0,
			"0.023": 0.0,
			"0.024": 0.0,
			"0.025": 0.0
		}
	}
}
