{
	 "smiles": "NCC1CC(=O)NC2=C1C=CC=C2", 
	 "Tm": 416.15, 
	 "num_atms": 25, 
	 "gaussian": { 
		 "optdone": 1, 
		 "sigma_profile": "yes", 
		 "theory": "DFT", 
		 "functional": "B3LYP", 
		 "basiset": "6-31G**", 
		 "properties": { 
			 "R2extent": 2719.4551, 
			 "electric_dipole_moment_norm": 2.67445966131, 
			 "electric_quadrupole_moment_norm": 13.1885413079, 
			 "total_energy": -573.045788321, 
			 "HOMO_LUMO_gap": 0.20294, 
			 "cosmo_polarized_energy": -14.25, 
			 "cosmo_cavitation_energy": 27.09, 
			 "cosmo_dispersion_energy": -19.9, 
			 "cosmo_repulsion_energy": 1.58, 
			 "cosmo_total_nonelectrostatic_energy": 8.77, 
			 "SMD_solvation_energy": 3.93 
		},
		"coords": [
			{
				"x": -1.1225457188,
				"y": -0.563659767,
				"z": 1.7657362995,
				"element": "N" 
			},
			{
				"x": 0.1064479774,
				"y": -1.0737585419,
				"z": 1.1572272492,
				"element": "C" 
			},
			{
				"x": -0.0057064426,
				"y": -1.1932073469,
				"z": -0.3824920645,
				"element": "C" 
			},
			{
				"x": -1.1498983814,
				"y": -2.1348968159,
				"z": -0.8060379132,
				"element": "C" 
			},
			{
				"x": -2.5280761533,
				"y": -1.4938807946,
				"z": -0.7255777275,
				"element": "C" 
			},
			{
				"x": -3.5338128179,
				"y": -2.0857562048,
				"z": -0.3594097317,
				"element": "O" 
			},
			{
				"x": -2.5707293075,
				"y": -0.1922793333,
				"z": -1.1668959055,
				"element": "N" 
			},
			{
				"x": -1.4484620249,
				"y": 0.6164893719,
				"z": -1.410836736,
				"element": "C" 
			},
			{
				"x": -0.1654964252,
				"y": 0.1556600762,
				"z": -1.0614833924,
				"element": "C" 
			},
			{
				"x": 0.9303597304,
				"y": 0.9774668029,
				"z": -1.3329678141,
				"element": "C" 
			},
			{
				"x": 0.7751870673,
				"y": 2.235377963,
				"z": -1.9179298858,
				"element": "C" 
			},
			{
				"x": -0.5051106342,
				"y": 2.6835086762,
				"z": -2.2462587221,
				"element": "C" 
			},
			{
				"x": -1.6131472097,
				"y": 1.8755257056,
				"z": -2.0008006397,
				"element": "C" 
			},
			{
				"x": -1.8210323767,
				"y": -1.2980947128,
				"z": 1.8465580493,
				"element": "H" 
			},
			{
				"x": -0.9400185449,
				"y": -0.2314721342,
				"z": 2.7075572837,
				"element": "H" 
			},
			{
				"x": 0.4252107887,
				"y": -2.0576448592,
				"z": 1.5472980227,
				"element": "H" 
			},
			{
				"x": 0.9135916914,
				"y": -0.3685175773,
				"z": 1.3842700803,
				"element": "H" 
			},
			{
				"x": 0.9389230771,
				"y": -1.6388926348,
				"z": -0.7201170893,
				"element": "H" 
			},
			{
				"x": -1.0049825866,
				"y": -2.4348016841,
				"z": -1.852535339,
				"element": "H" 
			},
			{
				"x": -1.1737164602,
				"y": -3.0495599188,
				"z": -0.2080811575,
				"element": "H" 
			},
			{
				"x": -3.4881537653,
				"y": 0.2340842841,
				"z": -1.1542739795,
				"element": "H" 
			},
			{
				"x": 1.9258746643,
				"y": 0.6225350174,
				"z": -1.0748005244,
				"element": "H" 
			},
			{
				"x": 1.6433831824,
				"y": 2.855858178,
				"z": -2.1172375899,
				"element": "H" 
			},
			{
				"x": -0.6444438815,
				"y": 3.6590060115,
				"z": -2.702918973,
				"element": "H" 
			},
			{
				"x": -2.610945448,
				"y": 2.2146102391,
				"z": -2.2676917997,
				"element": "H" 
			}
		],
		 "valence_orbital": [ 
			{
				"type": "occ",
				"energy": -0.29964,
				"method": "rhf"
			},
			{
				"type": "occ",
				"energy": -0.24824,
				"method": "rhf"
			},
			{
				"type": "occ",
				"energy": -0.24605,
				"method": "rhf"
			},
			{
				"type": "occ",
				"energy": -0.2358,
				"method": "rhf"
			},
			{
				"type": "occ",
				"energy": -0.21148,
				"method": "rhf"
			},
			{
				"type": "unocc",
				"energy": -0.00854,
				"method": "rhf"
			},
			{
				"type": "unocc",
				"energy": -0.00284,
				"method": "rhf"
			},
			{
				"type": "unocc",
				"energy": 0.04351,
				"method": "rhf"
			},
			{
				"type": "unocc",
				"energy": 0.07692,
				"method": "rhf"
			},
			{
				"type": "unocc",
				"energy": 0.09314,
				"method": "rhf"
			}
		],
		"cosmo_sigma_profile": { 
			"-0.025": 0.0,
			"-0.024": 0.0,
			"-0.023": 0.0,
			"-0.022": 0.0,
			"-0.021": 0.0,
			"-0.02": 0.0,
			"-0.019": 0.0,
			"-0.018": 0.0,
			"-0.017": 0.0,
			"-0.016": 0.0,
			"-0.015": 0.165500543423,
			"-0.014": 0.881336871116,
			"-0.013": 1.37318325912,
			"-0.012": 0.994829678336,
			"-0.011": 1.22406651378,
			"-0.01": 1.91565995476,
			"-0.009": 2.86377864216,
			"-0.008": 3.46178180392,
			"-0.007": 4.82199221411,
			"-0.006": 8.72247971762,
			"-0.005": 17.0512779361,
			"-0.004": 21.6497315448,
			"-0.003": 23.1264686102,
			"-0.002": 18.951353816,
			"-0.001": 14.2486617837,
			"0.0": 10.5982311339,
			"0.001": 7.52867333894,
			"0.002": 9.01580955159,
			"0.003": 9.45273335953,
			"0.004": 8.58525867809,
			"0.005": 9.05333969193,
			"0.006": 8.73970406745,
			"0.007": 3.43508714111,
			"0.008": 2.50464879772,
			"0.009": 1.8504326367,
			"0.01": 2.34478631495,
			"0.011": 2.51942051594,
			"0.012": 2.89460620541,
			"0.013": 5.33040566818,
			"0.014": 4.99199878124,
			"0.015": 1.46530386069,
			"0.016": 0.782701532087,
			"0.017": 0.178779585381,
			"0.018": 0.0,
			"0.019": 0.0,
			"0.02": 0.0,
			"0.021": 0.0,
			"0.022": 0.0,
			"0.023": 0.0,
			"0.024": 0.0,
			"0.025": 0.0
		}
	}
}
