{
	 "smiles": "COC1=CC=C(NN=C(/C#N)C2=NC(C)=C(S2)N=NC2=CC=CC=C2)C=C1", 
	 "Tm": 451.15, 
	 "num_atms": 43, 
	 "gaussian": { 
		 "optdone": 1, 
		 "sigma_profile": "yes", 
		 "theory": "DFT", 
		 "functional": "B3LYP", 
		 "basiset": "6-31G**", 
		 "properties": { 
			 "R2extent": 17897.3114, 
			 "electric_dipole_moment_norm": 3.64870126072, 
			 "electric_quadrupole_moment_norm": 38.2279691256, 
			 "total_energy": -1535.45206916, 
			 "HOMO_LUMO_gap": 0.10161, 
			 "cosmo_polarized_energy": -19.39, 
			 "cosmo_cavitation_energy": 51.82, 
			 "cosmo_dispersion_energy": -35.91, 
			 "cosmo_repulsion_energy": 2.67, 
			 "cosmo_total_nonelectrostatic_energy": 18.58, 
			 "SMD_solvation_energy": 6.37 
		},
		"coords": [
			{
				"x": -6.0037154285,
				"y": 0.599358344,
				"z": -5.4981721288,
				"element": "C" 
			},
			{
				"x": -5.9836479476,
				"y": 1.7389089705,
				"z": -4.6520057802,
				"element": "O" 
			},
			{
				"x": -4.9818171229,
				"y": 1.8438646852,
				"z": -3.7334080609,
				"element": "C" 
			},
			{
				"x": -3.9581488255,
				"y": 0.9041298089,
				"z": -3.553444808,
				"element": "C" 
			},
			{
				"x": -2.9779446394,
				"y": 1.1077141034,
				"z": -2.5823277468,
				"element": "C" 
			},
			{
				"x": -3.0125447558,
				"y": 2.2521801961,
				"z": -1.7818661401,
				"element": "C" 
			},
			{
				"x": -2.0468062761,
				"y": 2.4998775828,
				"z": -0.7906647609,
				"element": "N" 
			},
			{
				"x": -1.0582089197,
				"y": 1.6691410842,
				"z": -0.5509167951,
				"element": "N" 
			},
			{
				"x": -0.1738256244,
				"y": 1.9408419911,
				"z": 0.3809094605,
				"element": "C" 
			},
			{
				"x": -0.2623405129,
				"y": 3.1483820344,
				"z": 1.1515314654,
				"element": "C" 
			},
			{
				"x": -0.4805565153,
				"y": 4.1626562849,
				"z": 1.6816942844,
				"element": "N" 
			},
			{
				"x": 0.9104943171,
				"y": 1.0112639332,
				"z": 0.635734209,
				"element": "C" 
			},
			{
				"x": 1.8479721537,
				"y": 1.2326074327,
				"z": 1.524039606,
				"element": "N" 
			},
			{
				"x": 2.7255824811,
				"y": 0.1868813478,
				"z": 1.6253243585,
				"element": "C" 
			},
			{
				"x": 3.9118168977,
				"y": 0.3169909528,
				"z": 2.5312087605,
				"element": "C" 
			},
			{
				"x": 2.4352000458,
				"y": -0.8879151149,
				"z": 0.7935798989,
				"element": "C" 
			},
			{
				"x": 1.0420164185,
				"y": -0.5208437967,
				"z": -0.21193098,
				"element": "S" 
			},
			{
				"x": 3.2097873418,
				"y": -1.9956790287,
				"z": 0.4202588065,
				"element": "N" 
			},
			{
				"x": 3.7689028989,
				"y": -2.7793888385,
				"z": 1.2293550513,
				"element": "N" 
			},
			{
				"x": 3.4748293194,
				"y": -2.8333533396,
				"z": 2.6247672032,
				"element": "C" 
			},
			{
				"x": 4.5526128336,
				"y": -3.1334681369,
				"z": 3.4716885443,
				"element": "C" 
			},
			{
				"x": 4.3406673305,
				"y": -3.3200663587,
				"z": 4.8356345402,
				"element": "C" 
			},
			{
				"x": 3.0457333473,
				"y": -3.2626058788,
				"z": 5.3570100255,
				"element": "C" 
			},
			{
				"x": 1.9645351212,
				"y": -3.013631273,
				"z": 4.5058915275,
				"element": "C" 
			},
			{
				"x": 2.1704298595,
				"y": -2.7915668387,
				"z": 3.1462975486,
				"element": "C" 
			},
			{
				"x": -4.0371737266,
				"y": 3.194730532,
				"z": -1.9605139689,
				"element": "C" 
			},
			{
				"x": -5.0108484996,
				"y": 2.9916853175,
				"z": -2.9265244456,
				"element": "C" 
			},
			{
				"x": -5.1000785343,
				"y": 0.5398159324,
				"z": -6.1183280594,
				"element": "H" 
			},
			{
				"x": -6.8744901691,
				"y": 0.7195609153,
				"z": -6.144126252,
				"element": "H" 
			},
			{
				"x": -6.106732298,
				"y": -0.3299470006,
				"z": -4.9232490794,
				"element": "H" 
			},
			{
				"x": -3.910384503,
				"y": 0.0094926252,
				"z": -4.162416808,
				"element": "H" 
			},
			{
				"x": -2.1856864449,
				"y": 0.3820478703,
				"z": -2.4438135019,
				"element": "H" 
			},
			{
				"x": -2.1230540274,
				"y": 3.3612270378,
				"z": -0.2487611534,
				"element": "H" 
			},
			{
				"x": 4.1616951568,
				"y": 1.3739695144,
				"z": 2.6455656337,
				"element": "H" 
			},
			{
				"x": 3.7008758119,
				"y": -0.0952286806,
				"z": 3.5249681219,
				"element": "H" 
			},
			{
				"x": 4.7790538383,
				"y": -0.2161382226,
				"z": 2.1332446936,
				"element": "H" 
			},
			{
				"x": 5.545496298,
				"y": -3.2113209873,
				"z": 3.0399979228,
				"element": "H" 
			},
			{
				"x": 5.1828697258,
				"y": -3.5302274122,
				"z": 5.4882479305,
				"element": "H" 
			},
			{
				"x": 2.87649098,
				"y": -3.4271131008,
				"z": 6.4168791215,
				"element": "H" 
			},
			{
				"x": 0.9539153116,
				"y": -2.9941787619,
				"z": 4.9032995743,
				"element": "H" 
			},
			{
				"x": 1.3270864997,
				"y": -2.6122428979,
				"z": 2.4889002061,
				"element": "H" 
			},
			{
				"x": -4.0701978581,
				"y": 4.0876890117,
				"z": -1.3412149374,
				"element": "H" 
			},
			{
				"x": -5.8079613593,
				"y": 3.7119981597,
				"z": -3.0753430878,
				"element": "H" 
			}
		],
		 "valence_orbital": [ 
			{
				"type": "occ",
				"energy": -0.26478,
				"method": "rhf"
			},
			{
				"type": "occ",
				"energy": -0.26245,
				"method": "rhf"
			},
			{
				"type": "occ",
				"energy": -0.24916,
				"method": "rhf"
			},
			{
				"type": "occ",
				"energy": -0.22119,
				"method": "rhf"
			},
			{
				"type": "occ",
				"energy": -0.19637,
				"method": "rhf"
			},
			{
				"type": "unocc",
				"energy": -0.09476,
				"method": "rhf"
			},
			{
				"type": "unocc",
				"energy": -0.06759,
				"method": "rhf"
			},
			{
				"type": "unocc",
				"energy": -0.01826,
				"method": "rhf"
			},
			{
				"type": "unocc",
				"energy": -0.01508,
				"method": "rhf"
			},
			{
				"type": "unocc",
				"energy": -0.00774,
				"method": "rhf"
			}
		],
		"cosmo_sigma_profile": { 
			"-0.025": 0.0,
			"-0.024": 0.0,
			"-0.023": 0.0,
			"-0.022": 0.0,
			"-0.021": 0.0,
			"-0.02": 0.0,
			"-0.019": 0.0,
			"-0.018": 0.0,
			"-0.017": 0.0,
			"-0.016": 0.0,
			"-0.015": 0.535442153633,
			"-0.014": 1.44122562712,
			"-0.013": 1.25076624561,
			"-0.012": 0.919993176503,
			"-0.011": 1.72913463379,
			"-0.01": 1.94303371817,
			"-0.009": 1.66412348474,
			"-0.008": 2.24126221776,
			"-0.007": 7.19747200046,
			"-0.006": 23.7085473827,
			"-0.005": 33.0131011781,
			"-0.004": 32.0991336622,
			"-0.003": 31.171204943,
			"-0.002": 28.8318869124,
			"-0.001": 33.5163770266,
			"0.0": 33.21889235,
			"0.001": 34.0613230024,
			"0.002": 33.0071253819,
			"0.003": 32.7649896203,
			"0.004": 25.1596646545,
			"0.005": 10.2631284642,
			"0.006": 7.63444366018,
			"0.007": 7.74490713214,
			"0.008": 7.14601490113,
			"0.009": 7.02843903476,
			"0.01": 7.1511302758,
			"0.011": 6.11528433801,
			"0.012": 4.53629217328,
			"0.013": 1.59382932808,
			"0.014": 0.465961168482,
			"0.015": 0.0,
			"0.016": 0.0,
			"0.017": 0.0,
			"0.018": 0.0,
			"0.019": 0.0,
			"0.02": 0.0,
			"0.021": 0.0,
			"0.022": 0.0,
			"0.023": 0.0,
			"0.024": 0.0,
			"0.025": 0.0
		}
	}
}
