{
	 "smiles": "OC(=O)CCNS(=O)(=O)C1=C(Cl)C=CC=C1Cl", 
	 "Tm": 393.15, 
	 "num_atms": 26, 
	 "gaussian": { 
		 "optdone": 1, 
		 "sigma_profile": "yes", 
		 "theory": "DFT", 
		 "functional": "B3LYP", 
		 "basiset": "6-31G**", 
		 "properties": { 
			 "R2extent": 6180.851, 
			 "electric_dipole_moment_norm": 7.34087024133, 
			 "electric_quadrupole_moment_norm": 21.1246159215, 
			 "total_energy": -2022.51080228, 
			 "HOMO_LUMO_gap": 0.20754, 
			 "cosmo_polarized_energy": -27.1, 
			 "cosmo_cavitation_energy": 35.53, 
			 "cosmo_dispersion_energy": -25.64, 
			 "cosmo_repulsion_energy": 1.98, 
			 "cosmo_total_nonelectrostatic_energy": 11.87, 
			 "SMD_solvation_energy": 5.76 
		},
		"coords": [
			{
				"x": 0.0778889571,
				"y": -1.71647903,
				"z": -5.1515581994,
				"element": "O" 
			},
			{
				"x": -0.5444324265,
				"y": -1.9415529495,
				"z": -3.9638938183,
				"element": "C" 
			},
			{
				"x": -1.700332241,
				"y": -2.2797970848,
				"z": -3.9380154473,
				"element": "O" 
			},
			{
				"x": 0.3169883578,
				"y": -1.7324787069,
				"z": -2.7245508861,
				"element": "C" 
			},
			{
				"x": -0.4562976729,
				"y": -2.0310905757,
				"z": -1.438947186,
				"element": "C" 
			},
			{
				"x": 0.4127112893,
				"y": -1.7788556585,
				"z": -0.2788262025,
				"element": "N" 
			},
			{
				"x": -0.2800318071,
				"y": -1.4531982852,
				"z": 1.2205968133,
				"element": "S" 
			},
			{
				"x": -1.7269400627,
				"y": -1.4419842191,
				"z": 1.0442847851,
				"element": "O" 
			},
			{
				"x": 0.364880144,
				"y": -2.3102929492,
				"z": 2.2134442719,
				"element": "O" 
			},
			{
				"x": 0.2983500753,
				"y": 0.2536541521,
				"z": 1.5537678515,
				"element": "C" 
			},
			{
				"x": -0.5707318841,
				"y": 1.3295313541,
				"z": 1.8369706588,
				"element": "C" 
			},
			{
				"x": -2.3146922362,
				"y": 1.2074557249,
				"z": 1.8824157503,
				"element": "Cl" 
			},
			{
				"x": -0.0681979541,
				"y": 2.6049116356,
				"z": 2.1184674587,
				"element": "C" 
			},
			{
				"x": 1.2999690559,
				"y": 2.8354402541,
				"z": 2.1339716006,
				"element": "C" 
			},
			{
				"x": 2.1828888228,
				"y": 1.7925016425,
				"z": 1.8734692289,
				"element": "C" 
			},
			{
				"x": 1.6850070572,
				"y": 0.5221827301,
				"z": 1.594951597,
				"element": "C" 
			},
			{
				"x": 2.9008224703,
				"y": -0.7092408475,
				"z": 1.2992627979,
				"element": "Cl" 
			},
			{
				"x": 0.9964953347,
				"y": -1.4476960245,
				"z": -5.0079594879,
				"element": "H" 
			},
			{
				"x": 1.2061579372,
				"y": -2.3738746939,
				"z": -2.8038030543,
				"element": "H" 
			},
			{
				"x": 0.6839068832,
				"y": -0.6982235248,
				"z": -2.7078889434,
				"element": "H" 
			},
			{
				"x": -0.8354397703,
				"y": -3.0585646612,
				"z": -1.4558044697,
				"element": "H" 
			},
			{
				"x": -1.3271530404,
				"y": -1.3795800467,
				"z": -1.3664761788,
				"element": "H" 
			},
			{
				"x": 1.1697719054,
				"y": -2.4427983288,
				"z": -0.1493115264,
				"element": "H" 
			},
			{
				"x": -0.7697173706,
				"y": 3.4037414365,
				"z": 2.3277361407,
				"element": "H" 
			},
			{
				"x": 1.6811540622,
				"y": 3.8274804581,
				"z": 2.3540386108,
				"element": "H" 
			},
			{
				"x": 3.2550741137,
				"y": 1.9483081984,
				"z": 1.8891578346,
				"element": "H" 
			}
		],
		 "valence_orbital": [ 
			{
				"type": "occ",
				"energy": -0.30339,
				"method": "rhf"
			},
			{
				"type": "occ",
				"energy": -0.29293,
				"method": "rhf"
			},
			{
				"type": "occ",
				"energy": -0.28403,
				"method": "rhf"
			},
			{
				"type": "occ",
				"energy": -0.27096,
				"method": "rhf"
			},
			{
				"type": "occ",
				"energy": -0.26503,
				"method": "rhf"
			},
			{
				"type": "unocc",
				"energy": -0.05749,
				"method": "rhf"
			},
			{
				"type": "unocc",
				"energy": -0.04218,
				"method": "rhf"
			},
			{
				"type": "unocc",
				"energy": -0.01846,
				"method": "rhf"
			},
			{
				"type": "unocc",
				"energy": -0.00089,
				"method": "rhf"
			},
			{
				"type": "unocc",
				"energy": 0.03723,
				"method": "rhf"
			}
		],
		"cosmo_sigma_profile": { 
			"-0.025": 0.0,
			"-0.024": 0.0,
			"-0.023": 0.0,
			"-0.022": 0.0,
			"-0.021": 0.0,
			"-0.02": 0.17712872448,
			"-0.019": 0.752474905991,
			"-0.018": 1.25577778757,
			"-0.017": 1.04403011371,
			"-0.016": 1.28774161547,
			"-0.015": 0.932075614265,
			"-0.014": 1.71303169482,
			"-0.013": 2.33602197122,
			"-0.012": 2.47909210095,
			"-0.011": 2.48655738195,
			"-0.01": 2.66973911385,
			"-0.009": 4.54894619922,
			"-0.008": 11.346950749,
			"-0.007": 13.048534722,
			"-0.006": 13.8738195287,
			"-0.005": 12.9862969838,
			"-0.004": 13.123780524,
			"-0.003": 11.7241807524,
			"-0.002": 15.2786898748,
			"-0.001": 19.2405659345,
			"0.0": 23.6883877281,
			"0.001": 20.8782691503,
			"0.002": 15.7976742372,
			"0.003": 14.8562196669,
			"0.004": 12.3260864618,
			"0.005": 7.16965096987,
			"0.006": 6.6299329638,
			"0.007": 6.49628503792,
			"0.008": 7.68144069887,
			"0.009": 7.94575433903,
			"0.01": 14.5734172838,
			"0.011": 11.3731390423,
			"0.012": 4.58310165666,
			"0.013": 1.06921443484,
			"0.014": 0.0,
			"0.015": 0.0,
			"0.016": 0.0,
			"0.017": 0.0,
			"0.018": 0.0,
			"0.019": 0.0,
			"0.02": 0.0,
			"0.021": 0.0,
			"0.022": 0.0,
			"0.023": 0.0,
			"0.024": 0.0,
			"0.025": 0.0
		}
	}
}
