{
	 "smiles": "CC1=CC(C)=C(C=O)C=C1", 
	 "Tm": 264.15, 
	 "num_atms": 20, 
	 "gaussian": { 
		 "optdone": 1, 
		 "sigma_profile": "yes", 
		 "theory": "DFT", 
		 "functional": "B3LYP", 
		 "basiset": "6-31G**", 
		 "properties": { 
			 "R2extent": 1680.5094, 
			 "electric_dipole_moment_norm": 3.47959915651, 
			 "electric_quadrupole_moment_norm": 5.79982245159, 
			 "total_energy": -424.215095686, 
			 "HOMO_LUMO_gap": 0.18957, 
			 "cosmo_polarized_energy": -6.89, 
			 "cosmo_cavitation_energy": 23.45, 
			 "cosmo_dispersion_energy": -17.07, 
			 "cosmo_repulsion_energy": 1.37, 
			 "cosmo_total_nonelectrostatic_energy": 7.75, 
			 "SMD_solvation_energy": 5.09 
		},
		"coords": [
			{
				"x": -2.42003193,
				"y": 2.715208745,
				"z": -0.5722647554,
				"element": "C" 
			},
			{
				"x": -1.7062263235,
				"y": 1.3932004215,
				"z": -0.4282371629,
				"element": "C" 
			},
			{
				"x": -0.3080485895,
				"y": 1.3439690472,
				"z": -0.3298590236,
				"element": "C" 
			},
			{
				"x": 0.4034740901,
				"y": 0.1459618908,
				"z": -0.2245772453,
				"element": "C" 
			},
			{
				"x": 1.9078741102,
				"y": 0.1760422018,
				"z": -0.1217341738,
				"element": "C" 
			},
			{
				"x": -0.3380230007,
				"y": -1.0627181064,
				"z": -0.2158903749,
				"element": "C" 
			},
			{
				"x": 0.2801733532,
				"y": -2.3986181709,
				"z": -0.107255545,
				"element": "C" 
			},
			{
				"x": 1.4707595673,
				"y": -2.6432187117,
				"z": -0.0152692179,
				"element": "O" 
			},
			{
				"x": -1.7377247047,
				"y": -1.0187335623,
				"z": -0.3104724009,
				"element": "C" 
			},
			{
				"x": -2.4191470505,
				"y": 0.1874856652,
				"z": -0.4139212196,
				"element": "C" 
			},
			{
				"x": -1.8838917803,
				"y": 3.5186752063,
				"z": -0.0587344152,
				"element": "H" 
			},
			{
				"x": -3.435678781,
				"y": 2.6681175505,
				"z": -0.1688339585,
				"element": "H" 
			},
			{
				"x": -2.5015111629,
				"y": 3.0019942791,
				"z": -1.6283320236,
				"element": "H" 
			},
			{
				"x": 0.249102308,
				"y": 2.2783815611,
				"z": -0.3338126551,
				"element": "H" 
			},
			{
				"x": 2.2551144197,
				"y": -0.3001912163,
				"z": 0.7996623728,
				"element": "H" 
			},
			{
				"x": 2.2710702645,
				"y": 1.2072873998,
				"z": -0.1465614758,
				"element": "H" 
			},
			{
				"x": 2.3750962578,
				"y": -0.3841723383,
				"z": -0.936719457,
				"element": "H" 
			},
			{
				"x": -0.4614404549,
				"y": -3.2304556746,
				"z": -0.1160856844,
				"element": "H" 
			},
			{
				"x": -2.2927188379,
				"y": -1.9543899986,
				"z": -0.2978730519,
				"element": "H" 
			},
			{
				"x": -3.5036217549,
				"y": 0.1984738109,
				"z": -0.4822285322,
				"element": "H" 
			}
		],
		 "valence_orbital": [ 
			{
				"type": "occ",
				"energy": -0.34604,
				"method": "rhf"
			},
			{
				"type": "occ",
				"energy": -0.34421,
				"method": "rhf"
			},
			{
				"type": "occ",
				"energy": -0.25567,
				"method": "rhf"
			},
			{
				"type": "occ",
				"energy": -0.24784,
				"method": "rhf"
			},
			{
				"type": "occ",
				"energy": -0.24576,
				"method": "rhf"
			},
			{
				"type": "unocc",
				"energy": -0.05619,
				"method": "rhf"
			},
			{
				"type": "unocc",
				"energy": -0.00753,
				"method": "rhf"
			},
			{
				"type": "unocc",
				"energy": 0.0418,
				"method": "rhf"
			},
			{
				"type": "unocc",
				"energy": 0.09614,
				"method": "rhf"
			},
			{
				"type": "unocc",
				"energy": 0.10883,
				"method": "rhf"
			}
		],
		"cosmo_sigma_profile": { 
			"-0.025": 0.0,
			"-0.024": 0.0,
			"-0.023": 0.0,
			"-0.022": 0.0,
			"-0.021": 0.0,
			"-0.02": 0.0,
			"-0.019": 0.0,
			"-0.018": 0.0,
			"-0.017": 0.0,
			"-0.016": 0.0,
			"-0.015": 0.0,
			"-0.014": 0.0,
			"-0.013": 0.0,
			"-0.012": 0.0,
			"-0.011": 0.0,
			"-0.01": 0.0,
			"-0.009": 0.0,
			"-0.008": 0.0237571214875,
			"-0.007": 2.29742184422,
			"-0.006": 6.28856698259,
			"-0.005": 13.0007596053,
			"-0.004": 19.2050665054,
			"-0.003": 16.7058138155,
			"-0.002": 16.8170124528,
			"-0.001": 21.4618137376,
			"0.0": 22.2426094457,
			"0.001": 14.7337796118,
			"0.002": 8.69393136563,
			"0.003": 10.6614264721,
			"0.004": 12.4848394545,
			"0.005": 4.22178641162,
			"0.006": 2.17844128616,
			"0.007": 1.52235755402,
			"0.008": 2.22809694622,
			"0.009": 1.28335575318,
			"0.01": 2.1353625359,
			"0.011": 2.88936900366,
			"0.012": 2.85186715157,
			"0.013": 1.72153377674,
			"0.014": 0.171519184323,
			"0.015": 0.0,
			"0.016": 0.0,
			"0.017": 0.0,
			"0.018": 0.0,
			"0.019": 0.0,
			"0.02": 0.0,
			"0.021": 0.0,
			"0.022": 0.0,
			"0.023": 0.0,
			"0.024": 0.0,
			"0.025": 0.0
		}
	}
}
