{
	 "smiles": "COC1=CC=C(C)C=C1OC", 
	 "Tm": 298.65, 
	 "num_atms": 23, 
	 "gaussian": { 
		 "optdone": 1, 
		 "sigma_profile": "yes", 
		 "theory": "DFT", 
		 "functional": "B3LYP", 
		 "basiset": "6-31G**", 
		 "properties": { 
			 "R2extent": 2794.2145, 
			 "electric_dipole_moment_norm": 0.1881747592, 
			 "electric_quadrupole_moment_norm": 7.63307502583, 
			 "total_energy": -500.610304888, 
			 "HOMO_LUMO_gap": 0.22361, 
			 "cosmo_polarized_energy": -5.54, 
			 "cosmo_cavitation_energy": 25.91, 
			 "cosmo_dispersion_energy": -18.73, 
			 "cosmo_repulsion_energy": 1.52, 
			 "cosmo_total_nonelectrostatic_energy": 8.71, 
			 "SMD_solvation_energy": 6.02 
		},
		"coords": [
			{
				"x": -0.0680996742,
				"y": 2.2163637032,
				"z": -1.3040882167,
				"element": "C" 
			},
			{
				"x": -1.1236117172,
				"y": 1.2495292614,
				"z": -1.3389356806,
				"element": "O" 
			},
			{
				"x": -0.7148525556,
				"y": -0.0544595429,
				"z": -1.1514985403,
				"element": "C" 
			},
			{
				"x": -1.0849962743,
				"y": -0.7237018574,
				"z": 0.0136475062,
				"element": "C" 
			},
			{
				"x": -0.7109953472,
				"y": -2.0530282367,
				"z": 0.2194414275,
				"element": "C" 
			},
			{
				"x": 0.0533373612,
				"y": -2.7399944661,
				"z": -0.7303443662,
				"element": "C" 
			},
			{
				"x": 0.4962809916,
				"y": -4.1662993824,
				"z": -0.4999028313,
				"element": "C" 
			},
			{
				"x": 0.4078942947,
				"y": -2.0651161248,
				"z": -1.9067512533,
				"element": "C" 
			},
			{
				"x": 0.0290841147,
				"y": -0.7422768743,
				"z": -2.1294780931,
				"element": "C" 
			},
			{
				"x": 0.4302066898,
				"y": -0.1240813019,
				"z": -3.2950794248,
				"element": "O" 
			},
			{
				"x": -0.6306562314,
				"y": 0.180722665,
				"z": -4.2074360523,
				"element": "C" 
			},
			{
				"x": -0.5372624333,
				"y": 3.1889489903,
				"z": -1.4678962771,
				"element": "H" 
			},
			{
				"x": 0.4281024349,
				"y": 2.2148971076,
				"z": -0.3251427857,
				"element": "H" 
			},
			{
				"x": 0.6731390667,
				"y": 2.0267575366,
				"z": -2.0868664796,
				"element": "H" 
			},
			{
				"x": -1.6709594035,
				"y": -0.1837477648,
				"z": 0.7511038757,
				"element": "H" 
			},
			{
				"x": -1.0105164009,
				"y": -2.556732043,
				"z": 1.1347149738,
				"element": "H" 
			},
			{
				"x": 1.5560807481,
				"y": -4.2145262528,
				"z": -0.2202370572,
				"element": "H" 
			},
			{
				"x": -0.0769339117,
				"y": -4.6364893415,
				"z": 0.3041753141,
				"element": "H" 
			},
			{
				"x": 0.3741010307,
				"y": -4.7755803372,
				"z": -1.4015945506,
				"element": "H" 
			},
			{
				"x": 0.9879372993,
				"y": -2.5612409289,
				"z": -2.6802464514,
				"element": "H" 
			},
			{
				"x": -1.3648591857,
				"y": 0.8549251667,
				"z": -3.755696949,
				"element": "H" 
			},
			{
				"x": -1.1337195276,
				"y": -0.7369916943,
				"z": -4.5379392711,
				"element": "H" 
			},
			{
				"x": -0.164601369,
				"y": 0.6650217178,
				"z": -5.068248817,
				"element": "H" 
			}
		],
		 "valence_orbital": [ 
			{
				"type": "occ",
				"energy": -0.32326,
				"method": "rhf"
			},
			{
				"type": "occ",
				"energy": -0.28972,
				"method": "rhf"
			},
			{
				"type": "occ",
				"energy": -0.25909,
				"method": "rhf"
			},
			{
				"type": "occ",
				"energy": -0.23681,
				"method": "rhf"
			},
			{
				"type": "occ",
				"energy": -0.22004,
				"method": "rhf"
			},
			{
				"type": "unocc",
				"energy": 0.00357,
				"method": "rhf"
			},
			{
				"type": "unocc",
				"energy": 0.00942,
				"method": "rhf"
			},
			{
				"type": "unocc",
				"energy": 0.08967,
				"method": "rhf"
			},
			{
				"type": "unocc",
				"energy": 0.10985,
				"method": "rhf"
			},
			{
				"type": "unocc",
				"energy": 0.12604,
				"method": "rhf"
			}
		],
		"cosmo_sigma_profile": { 
			"-0.025": 0.0,
			"-0.024": 0.0,
			"-0.023": 0.0,
			"-0.022": 0.0,
			"-0.021": 0.0,
			"-0.02": 0.0,
			"-0.019": 0.0,
			"-0.018": 0.0,
			"-0.017": 0.0,
			"-0.016": 0.0,
			"-0.015": 0.0,
			"-0.014": 0.0,
			"-0.013": 0.0,
			"-0.012": 0.0,
			"-0.011": 0.0,
			"-0.01": 0.0,
			"-0.009": 0.0,
			"-0.008": 0.0,
			"-0.007": 0.0,
			"-0.006": 2.68151582734,
			"-0.005": 11.6026481263,
			"-0.004": 21.5345145141,
			"-0.003": 27.0514468723,
			"-0.002": 27.111651711,
			"-0.001": 18.352614455,
			"0.0": 22.2304064487,
			"0.001": 13.6405496286,
			"0.002": 9.92618803777,
			"0.003": 10.2458913865,
			"0.004": 10.9307409677,
			"0.005": 10.9335917077,
			"0.006": 6.11535950318,
			"0.007": 2.90850819777,
			"0.008": 1.75118108532,
			"0.009": 1.77206268001,
			"0.01": 1.4631992698,
			"0.011": 2.59300615418,
			"0.012": 1.52243767354,
			"0.013": 0.213550047071,
			"0.014": 0.0,
			"0.015": 0.0,
			"0.016": 0.0,
			"0.017": 0.0,
			"0.018": 0.0,
			"0.019": 0.0,
			"0.02": 0.0,
			"0.021": 0.0,
			"0.022": 0.0,
			"0.023": 0.0,
			"0.024": 0.0,
			"0.025": 0.0
		}
	}
}
