{
	 "smiles": "CC1=NC(C)=C(CC(O)=O)C(=O)N1", 
	 "Tm": 503.15, 
	 "num_atms": 23, 
	 "gaussian": { 
		 "optdone": 1, 
		 "sigma_profile": "yes", 
		 "theory": "DFT", 
		 "functional": "B3LYP", 
		 "basiset": "6-31G**", 
		 "properties": { 
			 "R2extent": 2898.0505, 
			 "electric_dipole_moment_norm": 2.20922708656, 
			 "electric_quadrupole_moment_norm": 15.2148870472, 
			 "total_energy": -646.098807057, 
			 "HOMO_LUMO_gap": 0.18928, 
			 "cosmo_polarized_energy": -19.19, 
			 "cosmo_cavitation_energy": 27.37, 
			 "cosmo_dispersion_energy": -19.77, 
			 "cosmo_repulsion_energy": 1.59, 
			 "cosmo_total_nonelectrostatic_energy": 9.19, 
			 "SMD_solvation_energy": 5.35 
		},
		"coords": [
			{
				"x": -1.8024901335,
				"y": 2.3284058023,
				"z": -0.9040624038,
				"element": "C" 
			},
			{
				"x": -0.7563181683,
				"y": 1.3625459079,
				"z": -0.4241524319,
				"element": "C" 
			},
			{
				"x": -0.3409214045,
				"y": 1.3975515998,
				"z": 0.8099963989,
				"element": "N" 
			},
			{
				"x": 0.6153457667,
				"y": 0.4787075272,
				"z": 1.1998763406,
				"element": "C" 
			},
			{
				"x": 1.0096072979,
				"y": 0.5745009466,
				"z": 2.6496068579,
				"element": "C" 
			},
			{
				"x": 1.1485166214,
				"y": -0.4615042869,
				"z": 0.3497612422,
				"element": "C" 
			},
			{
				"x": 2.1781223256,
				"y": -1.4830344877,
				"z": 0.7437019844,
				"element": "C" 
			},
			{
				"x": 1.6526991619,
				"y": -2.5910654832,
				"z": 1.6419137903,
				"element": "C" 
			},
			{
				"x": 2.6053350316,
				"y": -3.5334799943,
				"z": 1.8432476032,
				"element": "O" 
			},
			{
				"x": 0.5529303441,
				"y": -2.6597798898,
				"z": 2.1438621537,
				"element": "O" 
			},
			{
				"x": 0.7017159545,
				"y": -0.5104501716,
				"z": -1.0323894008,
				"element": "C" 
			},
			{
				"x": 1.0836703526,
				"y": -1.2804516373,
				"z": -1.9092342094,
				"element": "O" 
			},
			{
				"x": -0.2713754407,
				"y": 0.4642690571,
				"z": -1.3279508336,
				"element": "N" 
			},
			{
				"x": -2.0793143662,
				"y": 2.9854739285,
				"z": -0.0804279588,
				"element": "H" 
			},
			{
				"x": -1.4276755211,
				"y": 2.9343064634,
				"z": -1.7368096308,
				"element": "H" 
			},
			{
				"x": -2.6951419701,
				"y": 1.7971763744,
				"z": -1.2535070054,
				"element": "H" 
			},
			{
				"x": 0.7139998421,
				"y": 1.5467437461,
				"z": 3.0463854728,
				"element": "H" 
			},
			{
				"x": 0.5021228945,
				"y": -0.2086935735,
				"z": 3.2230744838,
				"element": "H" 
			},
			{
				"x": 2.0862563854,
				"y": 0.4382899582,
				"z": 2.7925277333,
				"element": "H" 
			},
			{
				"x": 3.0313311332,
				"y": -1.0293247207,
				"z": 1.2638322936,
				"element": "H" 
			},
			{
				"x": 2.5772311808,
				"y": -1.949455419,
				"z": -0.1622107761,
				"element": "H" 
			},
			{
				"x": 2.2047475922,
				"y": -4.2010876702,
				"z": 2.4249948624,
				"element": "H" 
			},
			{
				"x": -0.6080948803,
				"y": 0.4535560225,
				"z": -2.2839365666,
				"element": "H" 
			}
		],
		 "valence_orbital": [ 
			{
				"type": "occ",
				"energy": -0.30172,
				"method": "rhf"
			},
			{
				"type": "occ",
				"energy": -0.27556,
				"method": "rhf"
			},
			{
				"type": "occ",
				"energy": -0.27507,
				"method": "rhf"
			},
			{
				"type": "occ",
				"energy": -0.25689,
				"method": "rhf"
			},
			{
				"type": "occ",
				"energy": -0.23076,
				"method": "rhf"
			},
			{
				"type": "unocc",
				"energy": -0.04148,
				"method": "rhf"
			},
			{
				"type": "unocc",
				"energy": 0.00464,
				"method": "rhf"
			},
			{
				"type": "unocc",
				"energy": 0.01241,
				"method": "rhf"
			},
			{
				"type": "unocc",
				"energy": 0.0726,
				"method": "rhf"
			},
			{
				"type": "unocc",
				"energy": 0.08013,
				"method": "rhf"
			}
		],
		"cosmo_sigma_profile": { 
			"-0.025": 0.0,
			"-0.024": 0.0,
			"-0.023": 0.0,
			"-0.022": 0.0,
			"-0.021": 0.0,
			"-0.02": 0.0,
			"-0.019": 0.0208984468055,
			"-0.018": 0.638434735198,
			"-0.017": 1.2990594159,
			"-0.016": 1.58767536975,
			"-0.015": 1.46670637917,
			"-0.014": 1.74585250692,
			"-0.013": 1.72565864885,
			"-0.012": 2.62044875493,
			"-0.011": 2.06304598604,
			"-0.01": 1.70817721239,
			"-0.009": 1.35577406549,
			"-0.008": 3.47965111171,
			"-0.007": 7.98037554474,
			"-0.006": 9.92806804139,
			"-0.005": 10.0120001157,
			"-0.004": 13.128036684,
			"-0.003": 18.8553265054,
			"-0.002": 20.8141239205,
			"-0.001": 18.9489260998,
			"0.0": 14.0278780447,
			"0.001": 10.7356946418,
			"0.002": 6.24931979231,
			"0.003": 6.62806371162,
			"0.004": 6.17530350208,
			"0.005": 5.63029968351,
			"0.006": 4.61936663191,
			"0.007": 5.48390011027,
			"0.008": 5.3467566475,
			"0.009": 5.59526413373,
			"0.01": 4.87903819282,
			"0.011": 5.72585199963,
			"0.012": 5.40740916267,
			"0.013": 5.61349769588,
			"0.014": 4.48283722082,
			"0.015": 0.312244402071,
			"0.016": 0.0,
			"0.017": 0.0,
			"0.018": 0.0,
			"0.019": 0.0,
			"0.02": 0.0,
			"0.021": 0.0,
			"0.022": 0.0,
			"0.023": 0.0,
			"0.024": 0.0,
			"0.025": 0.0
		}
	}
}
