{
	 "smiles": "CNC(=O)COC1=CC=C(O)C=C1", 
	 "Tm": 399.15, 
	 "num_atms": 24, 
	 "gaussian": { 
		 "optdone": 1, 
		 "sigma_profile": "yes", 
		 "theory": "DFT", 
		 "functional": "B3LYP", 
		 "basiset": "6-31G**", 
		 "properties": { 
			 "R2extent": 3705.6519, 
			 "electric_dipole_moment_norm": 4.05954504101, 
			 "electric_quadrupole_moment_norm": 17.038022542, 
			 "total_energy": -629.994825811, 
			 "HOMO_LUMO_gap": 0.21075, 
			 "cosmo_polarized_energy": -19.2, 
			 "cosmo_cavitation_energy": 28.25, 
			 "cosmo_dispersion_energy": -20.61, 
			 "cosmo_repulsion_energy": 1.66, 
			 "cosmo_total_nonelectrostatic_energy": 9.29, 
			 "SMD_solvation_energy": 5.55 
		},
		"coords": [
			{
				"x": -2.2801674476,
				"y": -1.6424622156,
				"z": 2.2133680628,
				"element": "C" 
			},
			{
				"x": -2.9418498835,
				"y": -0.8270851525,
				"z": 1.2080235825,
				"element": "N" 
			},
			{
				"x": -2.439394638,
				"y": -0.4281164794,
				"z": -0.0020556492,
				"element": "C" 
			},
			{
				"x": -3.0573453446,
				"y": 0.3302552992,
				"z": -0.7352097005,
				"element": "O" 
			},
			{
				"x": -1.0686725398,
				"y": -1.0243475071,
				"z": -0.369600022,
				"element": "C" 
			},
			{
				"x": -0.6106023664,
				"y": -0.6126068281,
				"z": -1.6372235347,
				"element": "O" 
			},
			{
				"x": 0.097206406,
				"y": 0.5826179455,
				"z": -1.6779390692,
				"element": "C" 
			},
			{
				"x": -0.5561330463,
				"y": 1.7847765671,
				"z": -1.9508569853,
				"element": "C" 
			},
			{
				"x": 0.182517263,
				"y": 2.9638376917,
				"z": -2.0542139636,
				"element": "C" 
			},
			{
				"x": 1.5712106267,
				"y": 2.9452016683,
				"z": -1.884034865,
				"element": "C" 
			},
			{
				"x": 2.3427388288,
				"y": 4.0727139679,
				"z": -1.973554928,
				"element": "O" 
			},
			{
				"x": 2.2235789178,
				"y": 1.7375547781,
				"z": -1.6124400213,
				"element": "C" 
			},
			{
				"x": 1.4853264466,
				"y": 0.5606280953,
				"z": -1.5130174206,
				"element": "C" 
			},
			{
				"x": -3.0034810474,
				"y": -1.8880895245,
				"z": 2.9932823756,
				"element": "H" 
			},
			{
				"x": -1.4329299848,
				"y": -1.1300529465,
				"z": 2.6883169785,
				"element": "H" 
			},
			{
				"x": -1.9193364226,
				"y": -2.5872224616,
				"z": 1.7931912077,
				"element": "H" 
			},
			{
				"x": -3.8252345344,
				"y": -0.3937982897,
				"z": 1.4394551746,
				"element": "H" 
			},
			{
				"x": -1.1605045079,
				"y": -2.1171506226,
				"z": -0.4064163976,
				"element": "H" 
			},
			{
				"x": -0.3378948408,
				"y": -0.7840342319,
				"z": 0.4170322112,
				"element": "H" 
			},
			{
				"x": -1.6334737123,
				"y": 1.7754641807,
				"z": -2.0644625995,
				"element": "H" 
			},
			{
				"x": -0.3256775543,
				"y": 3.90234492,
				"z": -2.2679045614,
				"element": "H" 
			},
			{
				"x": 1.7733989545,
				"y": 4.8260919558,
				"z": -2.1758880232,
				"element": "H" 
			},
			{
				"x": 3.3019025157,
				"y": 1.7380313212,
				"z": -1.4921946504,
				"element": "H" 
			},
			{
				"x": 1.9816179116,
				"y": -0.3863521313,
				"z": -1.3226572012,
				"element": "H" 
			}
		],
		 "valence_orbital": [ 
			{
				"type": "occ",
				"energy": -0.27705,
				"method": "rhf"
			},
			{
				"type": "occ",
				"energy": -0.25502,
				"method": "rhf"
			},
			{
				"type": "occ",
				"energy": -0.24666,
				"method": "rhf"
			},
			{
				"type": "occ",
				"energy": -0.24554,
				"method": "rhf"
			},
			{
				"type": "occ",
				"energy": -0.20848,
				"method": "rhf"
			},
			{
				"type": "unocc",
				"energy": 0.00227,
				"method": "rhf"
			},
			{
				"type": "unocc",
				"energy": 0.02222,
				"method": "rhf"
			},
			{
				"type": "unocc",
				"energy": 0.02742,
				"method": "rhf"
			},
			{
				"type": "unocc",
				"energy": 0.07068,
				"method": "rhf"
			},
			{
				"type": "unocc",
				"energy": 0.07547,
				"method": "rhf"
			}
		],
		"cosmo_sigma_profile": { 
			"-0.025": 0.0,
			"-0.024": 0.0,
			"-0.023": 0.0,
			"-0.022": 0.0,
			"-0.021": 0.0,
			"-0.02": 0.0,
			"-0.019": 0.0,
			"-0.018": 0.173060601909,
			"-0.017": 1.1915998752,
			"-0.016": 0.963773348989,
			"-0.015": 1.04775118824,
			"-0.014": 1.11075867771,
			"-0.013": 3.14431478463,
			"-0.012": 1.94257331242,
			"-0.011": 1.5829420132,
			"-0.01": 1.57927962229,
			"-0.009": 2.77648480891,
			"-0.008": 3.6050635792,
			"-0.007": 7.59332584845,
			"-0.006": 14.3837103444,
			"-0.005": 14.7659876015,
			"-0.004": 17.94786104,
			"-0.003": 17.7053693855,
			"-0.002": 14.220587798,
			"-0.001": 8.65095454756,
			"0.0": 8.46265664023,
			"0.001": 10.1077487382,
			"0.002": 9.07898100595,
			"0.003": 10.2155150022,
			"0.004": 15.5405036874,
			"0.005": 15.8230387258,
			"0.006": 6.38483755988,
			"0.007": 3.68023899265,
			"0.008": 3.88210905207,
			"0.009": 4.0712888383,
			"0.01": 4.16365884192,
			"0.011": 4.91369897922,
			"0.012": 4.94073031956,
			"0.013": 3.69882626003,
			"0.014": 3.75713346856,
			"0.015": 0.355964351011,
			"0.016": 0.0,
			"0.017": 0.0,
			"0.018": 0.0,
			"0.019": 0.0,
			"0.02": 0.0,
			"0.021": 0.0,
			"0.022": 0.0,
			"0.023": 0.0,
			"0.024": 0.0,
			"0.025": 0.0
		}
	}
}
