{
	 "smiles": "CC1=CC(O)=C(C=C1C)C1CC2CCC1(C)C2(C)C", 
	 "Tm": 368.15, 
	 "num_atms": 45, 
	 "gaussian": { 
		 "optdone": 1, 
		 "sigma_profile": "yes", 
		 "theory": "DFT", 
		 "functional": "B3LYP", 
		 "basiset": "6-31G**", 
		 "properties": { 
			 "R2extent": 6030.9011, 
			 "electric_dipole_moment_norm": 1.91248573851, 
			 "electric_quadrupole_moment_norm": 8.02399996697, 
			 "total_energy": -776.815610065, 
			 "HOMO_LUMO_gap": 0.2109, 
			 "cosmo_polarized_energy": -6.91, 
			 "cosmo_cavitation_energy": 40.79, 
			 "cosmo_dispersion_energy": -28.94, 
			 "cosmo_repulsion_energy": 2.18, 
			 "cosmo_total_nonelectrostatic_energy": 14.03, 
			 "SMD_solvation_energy": 6.71 
		},
		"coords": [
			{
				"x": -3.8745269124,
				"y": 3.9939747095,
				"z": -1.4387157825,
				"element": "C" 
			},
			{
				"x": -2.7797951594,
				"y": 3.0058141135,
				"z": -1.1177534005,
				"element": "C" 
			},
			{
				"x": -2.2631397298,
				"y": 2.9185993145,
				"z": 0.1734195532,
				"element": "C" 
			},
			{
				"x": -1.2498071116,
				"y": 2.0165909516,
				"z": 0.5213188049,
				"element": "C" 
			},
			{
				"x": -0.7933497039,
				"y": 1.9908977648,
				"z": 1.8149343933,
				"element": "O" 
			},
			{
				"x": -0.6934942893,
				"y": 1.1511235252,
				"z": -0.4371472803,
				"element": "C" 
			},
			{
				"x": -1.2304360406,
				"y": 1.2723508142,
				"z": -1.7333320596,
				"element": "C" 
			},
			{
				"x": -2.246722287,
				"y": 2.1539819345,
				"z": -2.1038320918,
				"element": "C" 
			},
			{
				"x": -2.7485449608,
				"y": 2.1925027341,
				"z": -3.5279702374,
				"element": "C" 
			},
			{
				"x": 0.374683608,
				"y": 0.0649452119,
				"z": -0.2718747442,
				"element": "C" 
			},
			{
				"x": -0.164270694,
				"y": -1.3531143334,
				"z": 0.1264035976,
				"element": "C" 
			},
			{
				"x": 1.0334838945,
				"y": -1.9827682705,
				"z": 0.8653985552,
				"element": "C" 
			},
			{
				"x": 2.2078877946,
				"y": -2.0987056319,
				"z": -0.1409928839,
				"element": "C" 
			},
			{
				"x": 2.7244322355,
				"y": -0.629619231,
				"z": -0.2490404259,
				"element": "C" 
			},
			{
				"x": 1.7003109085,
				"y": 0.1851766283,
				"z": 0.6017608842,
				"element": "C" 
			},
			{
				"x": 2.1905822558,
				"y": 1.5934077268,
				"z": 0.9139896644,
				"element": "C" 
			},
			{
				"x": 1.4900630556,
				"y": -0.8270490941,
				"z": 1.8048384881,
				"element": "C" 
			},
			{
				"x": 0.4436040419,
				"y": -0.4618490436,
				"z": 2.8707036533,
				"element": "C" 
			},
			{
				"x": 2.7816214636,
				"y": -1.1439836078,
				"z": 2.5917416769,
				"element": "C" 
			},
			{
				"x": -4.7721507455,
				"y": 3.4919909246,
				"z": -1.8199711422,
				"element": "H" 
			},
			{
				"x": -3.5616315303,
				"y": 4.7062522779,
				"z": -2.2119662205,
				"element": "H" 
			},
			{
				"x": -4.1645917955,
				"y": 4.5686015083,
				"z": -0.5548772507,
				"element": "H" 
			},
			{
				"x": -2.6597533856,
				"y": 3.5756189858,
				"z": 0.9475171591,
				"element": "H" 
			},
			{
				"x": -1.2866155558,
				"y": 2.6415443896,
				"z": 2.3306534783,
				"element": "H" 
			},
			{
				"x": -0.8202287147,
				"y": 0.6237672738,
				"z": -2.5049957888,
				"element": "H" 
			},
			{
				"x": -2.2177739602,
				"y": 1.4679246883,
				"z": -4.1514215114,
				"element": "H" 
			},
			{
				"x": -3.819356299,
				"y": 1.9610851975,
				"z": -3.5905105066,
				"element": "H" 
			},
			{
				"x": -2.6143977823,
				"y": 3.1819936893,
				"z": -3.9829116511,
				"element": "H" 
			},
			{
				"x": 0.7417652971,
				"y": -0.0318070722,
				"z": -1.2972648842,
				"element": "H" 
			},
			{
				"x": -0.4653174601,
				"y": -1.9311994451,
				"z": -0.7541928853,
				"element": "H" 
			},
			{
				"x": -1.0417083538,
				"y": -1.2796613409,
				"z": 0.7741062637,
				"element": "H" 
			},
			{
				"x": 0.7888540867,
				"y": -2.9230204654,
				"z": 1.3713597953,
				"element": "H" 
			},
			{
				"x": 1.8708943074,
				"y": -2.4961018626,
				"z": -1.1045020525,
				"element": "H" 
			},
			{
				"x": 2.9868002199,
				"y": -2.7754721287,
				"z": 0.2229279896,
				"element": "H" 
			},
			{
				"x": 2.765950434,
				"y": -0.2662799844,
				"z": -1.2810897297,
				"element": "H" 
			},
			{
				"x": 3.7354057377,
				"y": -0.5264984126,
				"z": 0.1563124037,
				"element": "H" 
			},
			{
				"x": 1.4966436713,
				"y": 2.1329998523,
				"z": 1.5600865696,
				"element": "H" 
			},
			{
				"x": 2.3109280496,
				"y": 2.1744223146,
				"z": -0.0082966444,
				"element": "H" 
			},
			{
				"x": 3.1696845322,
				"y": 1.5614792893,
				"z": 1.4059122709,
				"element": "H" 
			},
			{
				"x": 0.3194639725,
				"y": -1.3088258063,
				"z": 3.5570343642,
				"element": "H" 
			},
			{
				"x": -0.5322067784,
				"y": -0.2023140862,
				"z": 2.4703324382,
				"element": "H" 
			},
			{
				"x": 0.7786288741,
				"y": 0.3943388001,
				"z": 3.4651123486,
				"element": "H" 
			},
			{
				"x": 3.6073328423,
				"y": -1.5123269451,
				"z": 1.9818210447,
				"element": "H" 
			},
			{
				"x": 2.573441251,
				"y": -1.9080652163,
				"z": 3.3493546051,
				"element": "H" 
			},
			{
				"x": 3.1358567162,
				"y": -0.253922642,
				"z": 3.1240191716,
				"element": "H" 
			}
		],
		 "valence_orbital": [ 
			{
				"type": "occ",
				"energy": -0.29242,
				"method": "rhf"
			},
			{
				"type": "occ",
				"energy": -0.27734,
				"method": "rhf"
			},
			{
				"type": "occ",
				"energy": -0.2655,
				"method": "rhf"
			},
			{
				"type": "occ",
				"energy": -0.23135,
				"method": "rhf"
			},
			{
				"type": "occ",
				"energy": -0.20512,
				"method": "rhf"
			},
			{
				"type": "unocc",
				"energy": 0.00578,
				"method": "rhf"
			},
			{
				"type": "unocc",
				"energy": 0.01936,
				"method": "rhf"
			},
			{
				"type": "unocc",
				"energy": 0.06847,
				"method": "rhf"
			},
			{
				"type": "unocc",
				"energy": 0.08461,
				"method": "rhf"
			},
			{
				"type": "unocc",
				"energy": 0.09088,
				"method": "rhf"
			}
		],
		"cosmo_sigma_profile": { 
			"-0.025": 0.0,
			"-0.024": 0.0,
			"-0.023": 0.0,
			"-0.022": 0.0,
			"-0.021": 0.0,
			"-0.02": 0.0,
			"-0.019": 0.0,
			"-0.018": 0.0,
			"-0.017": 0.564813135474,
			"-0.016": 1.15213841136,
			"-0.015": 0.910820936468,
			"-0.014": 1.11437957911,
			"-0.013": 0.899127239528,
			"-0.012": 0.741547038908,
			"-0.011": 0.707129368172,
			"-0.01": 0.740303699836,
			"-0.009": 0.914792516199,
			"-0.008": 1.90396733042,
			"-0.007": 0.955053214874,
			"-0.006": 1.17410701139,
			"-0.005": 2.15469384109,
			"-0.004": 10.7918119985,
			"-0.003": 22.2191198729,
			"-0.002": 36.3169905426,
			"-0.001": 44.8668169915,
			"0.0": 49.1429689169,
			"0.001": 44.5749312424,
			"0.002": 38.9056069504,
			"0.003": 17.8196079815,
			"0.004": 12.3639102752,
			"0.005": 10.314888905,
			"0.006": 8.04896049942,
			"0.007": 5.59230155111,
			"0.008": 0.423501712773,
			"0.009": 0.0,
			"0.01": 0.0,
			"0.011": 0.0,
			"0.012": 0.0,
			"0.013": 0.0,
			"0.014": 0.0,
			"0.015": 0.0,
			"0.016": 0.0,
			"0.017": 0.0,
			"0.018": 0.0,
			"0.019": 0.0,
			"0.02": 0.0,
			"0.021": 0.0,
			"0.022": 0.0,
			"0.023": 0.0,
			"0.024": 0.0,
			"0.025": 0.0
		}
	}
}
