{
	 "smiles": "CCOC(=O)C1=CNC(=S)NC1=O", 
	 "Tm": 525.15, 
	 "num_atms": 21, 
	 "gaussian": { 
		 "optdone": 1, 
		 "sigma_profile": "yes", 
		 "theory": "DFT", 
		 "functional": "B3LYP", 
		 "basiset": "6-31G**", 
		 "properties": { 
			 "R2extent": 4410.0716, 
			 "electric_dipole_moment_norm": 2.8183873066, 
			 "electric_quadrupole_moment_norm": 12.9516883185, 
			 "total_energy": -1004.96639647, 
			 "HOMO_LUMO_gap": 0.15963, 
			 "cosmo_polarized_energy": -20.51, 
			 "cosmo_cavitation_energy": 28.0, 
			 "cosmo_dispersion_energy": -20.98, 
			 "cosmo_repulsion_energy": 1.64, 
			 "cosmo_total_nonelectrostatic_energy": 8.66, 
			 "SMD_solvation_energy": 5.95 
		},
		"coords": [
			{
				"x": 0.4797890631,
				"y": 3.2340725631,
				"z": -0.0399321594,
				"element": "C" 
			},
			{
				"x": 0.5211873813,
				"y": 2.2664488505,
				"z": 1.132730774,
				"element": "C" 
			},
			{
				"x": -0.2898579585,
				"y": 1.0926391863,
				"z": 0.8737017937,
				"element": "O" 
			},
			{
				"x": 0.2925770166,
				"y": 0.1004783461,
				"z": 0.1927697832,
				"element": "C" 
			},
			{
				"x": 1.4445759938,
				"y": 0.1193339866,
				"z": -0.2105542889,
				"element": "O" 
			},
			{
				"x": -0.6067622426,
				"y": -1.064712814,
				"z": -0.0319709122,
				"element": "C" 
			},
			{
				"x": -0.0632667686,
				"y": -2.1132428564,
				"z": -0.7120809263,
				"element": "C" 
			},
			{
				"x": -0.7542856999,
				"y": -3.2497726372,
				"z": -0.9953360538,
				"element": "N" 
			},
			{
				"x": -2.0723274008,
				"y": -3.4616151954,
				"z": -0.6273058072,
				"element": "C" 
			},
			{
				"x": -2.8775423113,
				"y": -4.8676405156,
				"z": -0.9960808012,
				"element": "S" 
			},
			{
				"x": -2.6074957276,
				"y": -2.4061590906,
				"z": 0.0524070506,
				"element": "N" 
			},
			{
				"x": -2.0039371301,
				"y": -1.165602405,
				"z": 0.4135876468,
				"element": "C" 
			},
			{
				"x": -2.668260596,
				"y": -0.3521443829,
				"z": 1.0228913242,
				"element": "O" 
			},
			{
				"x": 0.9457641653,
				"y": 2.7904133394,
				"z": -0.9231434723,
				"element": "H" 
			},
			{
				"x": 1.0284730534,
				"y": 4.1466587455,
				"z": 0.2154732398,
				"element": "H" 
			},
			{
				"x": -0.551300983,
				"y": 3.5084405886,
				"z": -0.280290132,
				"element": "H" 
			},
			{
				"x": 0.0743925586,
				"y": 2.7019642411,
				"z": 2.0288494275,
				"element": "H" 
			},
			{
				"x": 1.5434403918,
				"y": 1.9483389441,
				"z": 1.349943519,
				"element": "H" 
			},
			{
				"x": 0.9651685036,
				"y": -2.0639790127,
				"z": -1.0528360535,
				"element": "H" 
			},
			{
				"x": -0.3195942989,
				"y": -4.0092574175,
				"z": -1.5021276519,
				"element": "H" 
			},
			{
				"x": -3.5725370102,
				"y": -2.504062464,
				"z": 0.3473036998,
				"element": "H" 
			}
		],
		 "valence_orbital": [ 
			{
				"type": "occ",
				"energy": -0.28912,
				"method": "rhf"
			},
			{
				"type": "occ",
				"energy": -0.28233,
				"method": "rhf"
			},
			{
				"type": "occ",
				"energy": -0.28145,
				"method": "rhf"
			},
			{
				"type": "occ",
				"energy": -0.24408,
				"method": "rhf"
			},
			{
				"type": "occ",
				"energy": -0.23915,
				"method": "rhf"
			},
			{
				"type": "unocc",
				"energy": -0.07952,
				"method": "rhf"
			},
			{
				"type": "unocc",
				"energy": -0.04395,
				"method": "rhf"
			},
			{
				"type": "unocc",
				"energy": 0.01132,
				"method": "rhf"
			},
			{
				"type": "unocc",
				"energy": 0.03637,
				"method": "rhf"
			},
			{
				"type": "unocc",
				"energy": 0.08549,
				"method": "rhf"
			}
		],
		"cosmo_sigma_profile": { 
			"-0.025": 0.0,
			"-0.024": 0.0,
			"-0.023": 0.0,
			"-0.022": 0.0,
			"-0.021": 0.0,
			"-0.02": 0.0,
			"-0.019": 0.285304220867,
			"-0.018": 1.6173945212,
			"-0.017": 1.16656082273,
			"-0.016": 2.62447198443,
			"-0.015": 1.01261718684,
			"-0.014": 1.92503654218,
			"-0.013": 2.27246477858,
			"-0.012": 2.27613342654,
			"-0.011": 2.84122276274,
			"-0.01": 2.0256233881,
			"-0.009": 1.84879130459,
			"-0.008": 2.9064633382,
			"-0.007": 5.27874774093,
			"-0.006": 6.7175053345,
			"-0.005": 11.9597056435,
			"-0.004": 21.0825805949,
			"-0.003": 23.1445762091,
			"-0.002": 18.3698302506,
			"-0.001": 12.2730746153,
			"0.0": 12.5220009132,
			"0.001": 7.69753438967,
			"0.002": 6.78747530123,
			"0.003": 6.24669245378,
			"0.004": 7.84517460718,
			"0.005": 6.97376068718,
			"0.006": 6.33857110145,
			"0.007": 7.39735622487,
			"0.008": 10.9786840761,
			"0.009": 8.54257929767,
			"0.01": 5.57589067746,
			"0.011": 6.37589596386,
			"0.012": 7.5591972761,
			"0.013": 1.70492051622,
			"0.014": 1.70682290696,
			"0.015": 0.219063156164,
			"0.016": 0.0,
			"0.017": 0.0,
			"0.018": 0.0,
			"0.019": 0.0,
			"0.02": 0.0,
			"0.021": 0.0,
			"0.022": 0.0,
			"0.023": 0.0,
			"0.024": 0.0,
			"0.025": 0.0
		}
	}
}
