{
	 "smiles": "OC1=CC=C(C=C1)C#CC1=CC=C(F)C=C1", 
	 "Tm": 422.15, 
	 "num_atms": 25, 
	 "gaussian": { 
		 "optdone": 1, 
		 "sigma_profile": "yes", 
		 "theory": "DFT", 
		 "functional": "B3LYP", 
		 "basiset": "6-31G**", 
		 "properties": { 
			 "R2extent": 7499.0109, 
			 "electric_dipole_moment_norm": 2.31665145415, 
			 "electric_quadrupole_moment_norm": 13.0927966516, 
			 "total_energy": -713.915622694, 
			 "HOMO_LUMO_gap": 0.18747, 
			 "cosmo_polarized_energy": -10.83, 
			 "cosmo_cavitation_energy": 32.1, 
			 "cosmo_dispersion_energy": -23.1, 
			 "cosmo_repulsion_energy": 1.79, 
			 "cosmo_total_nonelectrostatic_energy": 10.79, 
			 "SMD_solvation_energy": 6.38 
		},
		"coords": [
			{
				"x": 4.6896361842,
				"y": 1.7906479742,
				"z": 3.3420465953,
				"element": "O" 
			},
			{
				"x": 3.6144091581,
				"y": 1.7193448734,
				"z": 2.5057865736,
				"element": "C" 
			},
			{
				"x": 3.4381477044,
				"y": 2.5888664631,
				"z": 1.4229019326,
				"element": "C" 
			},
			{
				"x": 2.3190809584,
				"y": 2.4654014035,
				"z": 0.6054226534,
				"element": "C" 
			},
			{
				"x": 1.3517233504,
				"y": 1.4728169022,
				"z": 0.8495578391,
				"element": "C" 
			},
			{
				"x": 1.5469518293,
				"y": 0.6063240042,
				"z": 1.9453109553,
				"element": "C" 
			},
			{
				"x": 2.661863362,
				"y": 0.7254940012,
				"z": 2.7638767414,
				"element": "C" 
			},
			{
				"x": 0.203553575,
				"y": 1.346642071,
				"z": 0.010410767,
				"element": "C" 
			},
			{
				"x": -0.7745006808,
				"y": 1.2390168471,
				"z": -0.7042416204,
				"element": "C" 
			},
			{
				"x": -1.9233820498,
				"y": 1.1118929171,
				"z": -1.5435446704,
				"element": "C" 
			},
			{
				"x": -1.8950144678,
				"y": 0.2791855511,
				"z": -2.6803429551,
				"element": "C" 
			},
			{
				"x": -3.0121916153,
				"y": 0.1526285393,
				"z": -3.5009137008,
				"element": "C" 
			},
			{
				"x": -4.1634171847,
				"y": 0.8644354431,
				"z": -3.1800851006,
				"element": "C" 
			},
			{
				"x": -5.2481818234,
				"y": 0.7446824415,
				"z": -3.9726332552,
				"element": "F" 
			},
			{
				"x": -4.2302998614,
				"y": 1.6959353004,
				"z": -2.0669568474,
				"element": "C" 
			},
			{
				"x": -3.1085603845,
				"y": 1.8166911305,
				"z": -1.2517733149,
				"element": "C" 
			},
			{
				"x": 5.2668955805,
				"y": 2.5114845364,
				"z": 3.0582841581,
				"element": "H" 
			},
			{
				"x": 4.1764268947,
				"y": 3.3619473592,
				"z": 1.2199152235,
				"element": "H" 
			},
			{
				"x": 2.1855553676,
				"y": 3.1410814432,
				"z": -0.2331187553,
				"element": "H" 
			},
			{
				"x": 0.8096888095,
				"y": -0.1641507056,
				"z": 2.1463973084,
				"element": "H" 
			},
			{
				"x": 2.8142723219,
				"y": 0.0602965111,
				"z": 3.607237176,
				"element": "H" 
			},
			{
				"x": -0.9871755902,
				"y": -0.2674539684,
				"z": -2.9126948394,
				"element": "H" 
			},
			{
				"x": -3.0035337235,
				"y": -0.4847639019,
				"z": -4.3784215396,
				"element": "H" 
			},
			{
				"x": -5.1483354313,
				"y": 2.232626569,
				"z": -1.8535871077,
				"element": "H" 
			},
			{
				"x": -3.1398122834,
				"y": 2.4598262941,
				"z": -0.3786342167,
				"element": "H" 
			}
		],
		 "valence_orbital": [ 
			{
				"type": "occ",
				"energy": -0.28357,
				"method": "rhf"
			},
			{
				"type": "occ",
				"energy": -0.26417,
				"method": "rhf"
			},
			{
				"type": "occ",
				"energy": -0.25965,
				"method": "rhf"
			},
			{
				"type": "occ",
				"energy": -0.22334,
				"method": "rhf"
			},
			{
				"type": "occ",
				"energy": -0.2121,
				"method": "rhf"
			},
			{
				"type": "unocc",
				"energy": -0.02463,
				"method": "rhf"
			},
			{
				"type": "unocc",
				"energy": -0.01832,
				"method": "rhf"
			},
			{
				"type": "unocc",
				"energy": -0.01284,
				"method": "rhf"
			},
			{
				"type": "unocc",
				"energy": -0.00802,
				"method": "rhf"
			},
			{
				"type": "unocc",
				"energy": 0.06469,
				"method": "rhf"
			}
		],
		"cosmo_sigma_profile": { 
			"-0.025": 0.0,
			"-0.024": 0.0,
			"-0.023": 0.0,
			"-0.022": 0.0,
			"-0.021": 0.0,
			"-0.02": 0.0,
			"-0.019": 0.0,
			"-0.018": 0.532125372565,
			"-0.017": 1.49484839616,
			"-0.016": 0.750952030051,
			"-0.015": 1.28977936883,
			"-0.014": 1.05008904951,
			"-0.013": 1.11473035755,
			"-0.012": 0.886342855292,
			"-0.011": 1.15889211966,
			"-0.01": 0.719801942717,
			"-0.009": 1.20872978771,
			"-0.008": 2.0759429005,
			"-0.007": 9.09401009281,
			"-0.006": 14.0321919427,
			"-0.005": 15.5472981949,
			"-0.004": 14.4379234784,
			"-0.003": 11.0661281177,
			"-0.002": 11.0499008802,
			"-0.001": 11.8647003722,
			"0.0": 17.1776405266,
			"0.001": 19.159327088,
			"0.002": 23.0717738601,
			"0.003": 36.6314132638,
			"0.004": 33.6462831384,
			"0.005": 15.5783908427,
			"0.006": 6.71399791525,
			"0.007": 1.57022958962,
			"0.008": 1.09437117705,
			"0.009": 1.84855077367,
			"0.01": 1.49049334021,
			"0.011": 1.75767418757,
			"0.012": 0.12883950733,
			"0.013": 0.0,
			"0.014": 0.0,
			"0.015": 0.0,
			"0.016": 0.0,
			"0.017": 0.0,
			"0.018": 0.0,
			"0.019": 0.0,
			"0.02": 0.0,
			"0.021": 0.0,
			"0.022": 0.0,
			"0.023": 0.0,
			"0.024": 0.0,
			"0.025": 0.0
		}
	}
}
