{
	 "smiles": "COC1=C(NC(=O)CNC(=O)CCl)C=C(C)C=C1", 
	 "Tm": 395.15, 
	 "num_atms": 33, 
	 "gaussian": { 
		 "optdone": 1, 
		 "sigma_profile": "yes", 
		 "theory": "DFT", 
		 "functional": "B3LYP", 
		 "basiset": "6-31G**", 
		 "properties": { 
			 "R2extent": 5606.9325, 
			 "electric_dipole_moment_norm": 5.82817990543, 
			 "electric_quadrupole_moment_norm": 13.6954165395, 
			 "total_energy": -1261.6976498, 
			 "HOMO_LUMO_gap": 0.20379, 
			 "cosmo_polarized_energy": -19.46, 
			 "cosmo_cavitation_energy": 37.77, 
			 "cosmo_dispersion_energy": -25.64, 
			 "cosmo_repulsion_energy": 2.0, 
			 "cosmo_total_nonelectrostatic_energy": 14.13, 
			 "SMD_solvation_energy": 7.18 
		},
		"coords": [
			{
				"x": -2.2471323903,
				"y": 0.090512199,
				"z": -1.3389525173,
				"element": "C" 
			},
			{
				"x": -0.9601206033,
				"y": -0.4303634887,
				"z": -1.0014299381,
				"element": "O" 
			},
			{
				"x": 0.1396197512,
				"y": 0.2412997327,
				"z": -1.4250906422,
				"element": "C" 
			},
			{
				"x": 1.3715430528,
				"y": -0.1935466428,
				"z": -0.8829385027,
				"element": "C" 
			},
			{
				"x": 1.3782062928,
				"y": -1.2699723439,
				"z": 0.0569985189,
				"element": "N" 
			},
			{
				"x": 1.2591510062,
				"y": -1.1528210914,
				"z": 1.4214253366,
				"element": "C" 
			},
			{
				"x": 1.0398271463,
				"y": -2.1245246852,
				"z": 2.1333844679,
				"element": "O" 
			},
			{
				"x": 1.4118615864,
				"y": 0.2536852073,
				"z": 2.0320837081,
				"element": "C" 
			},
			{
				"x": 0.3156638499,
				"y": 1.1627424959,
				"z": 1.7151125247,
				"element": "N" 
			},
			{
				"x": -0.9983483329,
				"y": 1.0479166661,
				"z": 2.1093613649,
				"element": "C" 
			},
			{
				"x": -1.8828170719,
				"y": 1.6828554841,
				"z": 1.5598391025,
				"element": "O" 
			},
			{
				"x": -1.2273636913,
				"y": 0.1240100429,
				"z": 3.3127033401,
				"element": "C" 
			},
			{
				"x": -2.9576520201,
				"y": -0.00137752,
				"z": 3.7538317369,
				"element": "Cl" 
			},
			{
				"x": 2.5593616649,
				"y": 0.4232192388,
				"z": -1.2674138019,
				"element": "C" 
			},
			{
				"x": 2.5732564884,
				"y": 1.4975926842,
				"z": -2.169920775,
				"element": "C" 
			},
			{
				"x": 3.8738397823,
				"y": 2.1419976083,
				"z": -2.589151165,
				"element": "C" 
			},
			{
				"x": 1.3448409397,
				"y": 1.9266099787,
				"z": -2.6794072391,
				"element": "C" 
			},
			{
				"x": 0.1395882695,
				"y": 1.3145870461,
				"z": -2.3211391887,
				"element": "C" 
			},
			{
				"x": -2.3742318829,
				"y": 1.0979034942,
				"z": -0.9308896588,
				"element": "H" 
			},
			{
				"x": -2.4055455523,
				"y": 0.0882146948,
				"z": -2.4240441684,
				"element": "H" 
			},
			{
				"x": -2.9668026053,
				"y": -0.5787264417,
				"z": -0.8673864336,
				"element": "H" 
			},
			{
				"x": 1.0645796315,
				"y": -2.1759116934,
				"z": -0.2750997642,
				"element": "H" 
			},
			{
				"x": 1.4933645281,
				"y": 0.1064933157,
				"z": 3.1109175612,
				"element": "H" 
			},
			{
				"x": 2.3364959208,
				"y": 0.7235396058,
				"z": 1.6881222544,
				"element": "H" 
			},
			{
				"x": 0.4134974821,
				"y": 1.7204050615,
				"z": 0.8761059601,
				"element": "H" 
			},
			{
				"x": -0.854993749,
				"y": -0.8826912672,
				"z": 3.1131376587,
				"element": "H" 
			},
			{
				"x": -0.6929618697,
				"y": 0.5173399313,
				"z": 4.1818175893,
				"element": "H" 
			},
			{
				"x": 3.4881199919,
				"y": 0.0481350253,
				"z": -0.844958786,
				"element": "H" 
			},
			{
				"x": 4.5378557499,
				"y": 2.3039625921,
				"z": -1.733516243,
				"element": "H" 
			},
			{
				"x": 3.701266284,
				"y": 3.1101934876,
				"z": -3.0673324779,
				"element": "H" 
			},
			{
				"x": 4.4187776952,
				"y": 1.5146679598,
				"z": -3.3052558387,
				"element": "H" 
			},
			{
				"x": 1.3186430846,
				"y": 2.7609122103,
				"z": -3.3756844271,
				"element": "H" 
			},
			{
				"x": -0.7907904294,
				"y": 1.6848394119,
				"z": -2.7346295565,
				"element": "H" 
			}
		],
		 "valence_orbital": [ 
			{
				"type": "occ",
				"energy": -0.2808,
				"method": "rhf"
			},
			{
				"type": "occ",
				"energy": -0.26524,
				"method": "rhf"
			},
			{
				"type": "occ",
				"energy": -0.26176,
				"method": "rhf"
			},
			{
				"type": "occ",
				"energy": -0.2464,
				"method": "rhf"
			},
			{
				"type": "occ",
				"energy": -0.22925,
				"method": "rhf"
			},
			{
				"type": "unocc",
				"energy": -0.02546,
				"method": "rhf"
			},
			{
				"type": "unocc",
				"energy": -0.0081,
				"method": "rhf"
			},
			{
				"type": "unocc",
				"energy": 0.00122,
				"method": "rhf"
			},
			{
				"type": "unocc",
				"energy": 0.01486,
				"method": "rhf"
			},
			{
				"type": "unocc",
				"energy": 0.03153,
				"method": "rhf"
			}
		],
		"cosmo_sigma_profile": { 
			"-0.025": 0.0,
			"-0.024": 0.0,
			"-0.023": 0.0,
			"-0.022": 0.0,
			"-0.021": 0.0,
			"-0.02": 0.0,
			"-0.019": 0.0,
			"-0.018": 0.0,
			"-0.017": 0.0,
			"-0.016": 0.0,
			"-0.015": 0.0109949757356,
			"-0.014": 0.552840581505,
			"-0.013": 0.916139465842,
			"-0.012": 0.878569581544,
			"-0.011": 0.797598530291,
			"-0.01": 2.26893121627,
			"-0.009": 5.41703606966,
			"-0.008": 6.11724600804,
			"-0.007": 8.07754425303,
			"-0.006": 16.2411462589,
			"-0.005": 21.3672984691,
			"-0.004": 27.569089716,
			"-0.003": 25.3849683758,
			"-0.002": 18.7662686776,
			"-0.001": 19.2045430116,
			"0.0": 20.9509849409,
			"0.001": 17.8822715932,
			"0.002": 15.4422273584,
			"0.003": 18.5014730316,
			"0.004": 16.58926521,
			"0.005": 13.345726537,
			"0.006": 9.48703277344,
			"0.007": 5.60469310025,
			"0.008": 3.99954585347,
			"0.009": 2.91043690641,
			"0.01": 2.98148980989,
			"0.011": 3.51497762,
			"0.012": 6.18294474616,
			"0.013": 7.39430142932,
			"0.014": 2.23130372405,
			"0.015": 0.0504135191583,
			"0.016": 0.0,
			"0.017": 0.0,
			"0.018": 0.0,
			"0.019": 0.0,
			"0.02": 0.0,
			"0.021": 0.0,
			"0.022": 0.0,
			"0.023": 0.0,
			"0.024": 0.0,
			"0.025": 0.0
		}
	}
}
