{
	 "smiles": "CC(C)C(C)C=CC(C)C1CCC2C(CCCC12C)=C/C=C1/CC(O)CCC1C", 
	 "Tm": 399.15, 
	 "num_atms": 75, 
	 "gaussian": { 
		 "optdone": 1, 
		 "sigma_profile": "yes", 
		 "theory": "DFT", 
		 "functional": "B3LYP", 
		 "basiset": "6-31G**", 
		 "properties": { 
			 "R2extent": 19553.2948, 
			 "electric_dipole_moment_norm": 1.92894120439, 
			 "electric_quadrupole_moment_norm": 13.8530775653, 
			 "total_energy": -1169.92911377, 
			 "HOMO_LUMO_gap": 0.1814, 
			 "cosmo_polarized_energy": -8.09, 
			 "cosmo_cavitation_energy": 67.78, 
			 "cosmo_dispersion_energy": -43.16, 
			 "cosmo_repulsion_energy": 3.28, 
			 "cosmo_total_nonelectrostatic_energy": 27.91, 
			 "SMD_solvation_energy": 9.68 
		},
		"coords": [
			{
				"x": -4.7046597464,
				"y": 5.3534996595,
				"z": -2.2467700985,
				"element": "C" 
			},
			{
				"x": -3.9929548282,
				"y": 4.598548876,
				"z": -1.1122865052,
				"element": "C" 
			},
			{
				"x": -4.0831768752,
				"y": 3.0848973307,
				"z": -1.3586866633,
				"element": "C" 
			},
			{
				"x": -2.520509798,
				"y": 5.0601012683,
				"z": -0.9187926218,
				"element": "C" 
			},
			{
				"x": -2.4097910484,
				"y": 6.5810212138,
				"z": -0.6730250763,
				"element": "C" 
			},
			{
				"x": -1.845397011,
				"y": 4.3319610466,
				"z": 0.2222958762,
				"element": "C" 
			},
			{
				"x": -0.643780226,
				"y": 3.7477928442,
				"z": 0.1740925009,
				"element": "C" 
			},
			{
				"x": 0.0960650775,
				"y": 3.1693765961,
				"z": 1.3591706997,
				"element": "C" 
			},
			{
				"x": 1.1949163457,
				"y": 4.1747532371,
				"z": 1.7796468059,
				"element": "C" 
			},
			{
				"x": 0.7126730288,
				"y": 1.7697221371,
				"z": 1.1010324705,
				"element": "C" 
			},
			{
				"x": 1.4954014825,
				"y": 1.2267288824,
				"z": 2.3302208257,
				"element": "C" 
			},
			{
				"x": 1.449590847,
				"y": -0.3196382741,
				"z": 2.2448405275,
				"element": "C" 
			},
			{
				"x": 0.679459881,
				"y": -0.6457295562,
				"z": 0.9364803422,
				"element": "C" 
			},
			{
				"x": -0.0625065896,
				"y": -1.9632997021,
				"z": 0.9543682832,
				"element": "C" 
			},
			{
				"x": -1.301224409,
				"y": -1.9872223947,
				"z": 1.823207769,
				"element": "C" 
			},
			{
				"x": -2.2385378893,
				"y": -0.8063610701,
				"z": 1.5084873648,
				"element": "C" 
			},
			{
				"x": -1.4896144376,
				"y": 0.5308090194,
				"z": 1.6023834313,
				"element": "C" 
			},
			{
				"x": -0.2399467291,
				"y": 0.5989549909,
				"z": 0.6887408127,
				"element": "C" 
			},
			{
				"x": -0.6508651017,
				"y": 0.6522158657,
				"z": -0.7926056362,
				"element": "C" 
			},
			{
				"x": 0.303146924,
				"y": -3.0634271349,
				"z": 0.2551539345,
				"element": "C" 
			},
			{
				"x": 1.4544942655,
				"y": -3.2149335412,
				"z": -0.6206301082,
				"element": "C" 
			},
			{
				"x": 1.8182370899,
				"y": -4.3402280047,
				"z": -1.2784677985,
				"element": "C" 
			},
			{
				"x": 2.997767477,
				"y": -4.3570815589,
				"z": -2.2156954576,
				"element": "C" 
			},
			{
				"x": 2.5125403407,
				"y": -4.546066353,
				"z": -3.676646302,
				"element": "C" 
			},
			{
				"x": 2.1339578538,
				"y": -3.3013997092,
				"z": -4.2563111264,
				"element": "O" 
			},
			{
				"x": 1.3550211856,
				"y": -5.578394956,
				"z": -3.7443321082,
				"element": "C" 
			},
			{
				"x": 1.311909291,
				"y": -6.4862692722,
				"z": -2.5085226382,
				"element": "C" 
			},
			{
				"x": 1.0618886923,
				"y": -5.6653287269,
				"z": -1.2183378079,
				"element": "C" 
			},
			{
				"x": 1.4317396486,
				"y": -6.4779505596,
				"z": 0.0375538539,
				"element": "C" 
			},
			{
				"x": -4.7902798439,
				"y": 6.4253169345,
				"z": -2.0490407346,
				"element": "H" 
			},
			{
				"x": -4.1692847541,
				"y": 5.2284105738,
				"z": -3.1963723009,
				"element": "H" 
			},
			{
				"x": -5.7189843904,
				"y": 4.9652558264,
				"z": -2.3888109183,
				"element": "H" 
			},
			{
				"x": -4.5263474204,
				"y": 4.8204087609,
				"z": -0.1743411405,
				"element": "H" 
			},
			{
				"x": -3.6386049279,
				"y": 2.5119170931,
				"z": -0.5403752989,
				"element": "H" 
			},
			{
				"x": -5.1262176523,
				"y": 2.7676194348,
				"z": -1.4652397141,
				"element": "H" 
			},
			{
				"x": -3.5578056767,
				"y": 2.8081195543,
				"z": -2.2813657347,
				"element": "H" 
			},
			{
				"x": -1.9729436011,
				"y": 4.8266110323,
				"z": -1.8444729478,
				"element": "H" 
			},
			{
				"x": -2.9804598746,
				"y": 6.8770034195,
				"z": 0.2157860254,
				"element": "H" 
			},
			{
				"x": -1.3664930962,
				"y": 6.8643476891,
				"z": -0.5058671,
				"element": "H" 
			},
			{
				"x": -2.7834808548,
				"y": 7.162359202,
				"z": -1.5206788123,
				"element": "H" 
			},
			{
				"x": -2.3814110757,
				"y": 4.3519765493,
				"z": 1.1754264812,
				"element": "H" 
			},
			{
				"x": -0.0983274043,
				"y": 3.7464461913,
				"z": -0.772642253,
				"element": "H" 
			},
			{
				"x": -0.6108526779,
				"y": 3.086255714,
				"z": 2.1960762456,
				"element": "H" 
			},
			{
				"x": 1.7179864144,
				"y": 3.8533503131,
				"z": 2.6850028032,
				"element": "H" 
			},
			{
				"x": 0.757029068,
				"y": 5.1588291019,
				"z": 1.9709970755,
				"element": "H" 
			},
			{
				"x": 1.9412833062,
				"y": 4.2919217901,
				"z": 0.9845335857,
				"element": "H" 
			},
			{
				"x": 1.4294826163,
				"y": 1.884112759,
				"z": 0.2725452978,
				"element": "H" 
			},
			{
				"x": 2.5222021095,
				"y": 1.6032721591,
				"z": 2.3437918434,
				"element": "H" 
			},
			{
				"x": 1.0290569273,
				"y": 1.5734678141,
				"z": 3.260218411,
				"element": "H" 
			},
			{
				"x": 0.9366259754,
				"y": -0.7394344994,
				"z": 3.1156021585,
				"element": "H" 
			},
			{
				"x": 2.4461844836,
				"y": -0.770939166,
				"z": 2.2282611416,
				"element": "H" 
			},
			{
				"x": 1.4106626886,
				"y": -0.6508850745,
				"z": 0.1210051966,
				"element": "H" 
			},
			{
				"x": -1.0121428732,
				"y": -1.9184395614,
				"z": 2.883466938,
				"element": "H" 
			},
			{
				"x": -1.8264594508,
				"y": -2.9415318578,
				"z": 1.7073836267,
				"element": "H" 
			},
			{
				"x": -2.6621678584,
				"y": -0.9355230326,
				"z": 0.5052530558,
				"element": "H" 
			},
			{
				"x": -3.084853641,
				"y": -0.8076113374,
				"z": 2.2060899723,
				"element": "H" 
			},
			{
				"x": -1.1906729658,
				"y": 0.6843098661,
				"z": 2.6482315078,
				"element": "H" 
			},
			{
				"x": -2.164752926,
				"y": 1.3573407763,
				"z": 1.353303572,
				"element": "H" 
			},
			{
				"x": -1.1353217023,
				"y": -0.2792725969,
				"z": -1.102800361,
				"element": "H" 
			},
			{
				"x": 0.2298671468,
				"y": 0.78637071,
				"z": -1.4317868177,
				"element": "H" 
			},
			{
				"x": -1.3401481065,
				"y": 1.475271382,
				"z": -0.9943328551,
				"element": "H" 
			},
			{
				"x": -0.3316150777,
				"y": -3.941454379,
				"z": 0.3657828274,
				"element": "H" 
			},
			{
				"x": 2.096543057,
				"y": -2.3452527048,
				"z": -0.7487322181,
				"element": "H" 
			},
			{
				"x": 3.5814451239,
				"y": -3.4333213317,
				"z": -2.1595543548,
				"element": "H" 
			},
			{
				"x": 3.6733500041,
				"y": -5.1846295761,
				"z": -1.9569712557,
				"element": "H" 
			},
			{
				"x": 3.3570702396,
				"y": -4.8872926515,
				"z": -4.2854642186,
				"element": "H" 
			},
			{
				"x": 1.4610618446,
				"y": -2.918879282,
				"z": -3.6738373538,
				"element": "H" 
			},
			{
				"x": 0.4125758408,
				"y": -5.0179093994,
				"z": -3.8064228757,
				"element": "H" 
			},
			{
				"x": 1.4217223805,
				"y": -6.1638547191,
				"z": -4.6673323615,
				"element": "H" 
			},
			{
				"x": 0.5282544584,
				"y": -7.2452794489,
				"z": -2.6134490691,
				"element": "H" 
			},
			{
				"x": 2.2572607543,
				"y": -7.0389652765,
				"z": -2.4210243602,
				"element": "H" 
			},
			{
				"x": -0.0137544375,
				"y": -5.4484090892,
				"z": -1.1742824911,
				"element": "H" 
			},
			{
				"x": 1.1778169654,
				"y": -5.9346152978,
				"z": 0.9522398194,
				"element": "H" 
			},
			{
				"x": 0.902824331,
				"y": -7.4380435391,
				"z": 0.0495410566,
				"element": "H" 
			},
			{
				"x": 2.5069318126,
				"y": -6.6888029797,
				"z": 0.0627933566,
				"element": "H" 
			}
		],
		 "valence_orbital": [ 
			{
				"type": "occ",
				"energy": -0.28338,
				"method": "rhf"
			},
			{
				"type": "occ",
				"energy": -0.28258,
				"method": "rhf"
			},
			{
				"type": "occ",
				"energy": -0.2544,
				"method": "rhf"
			},
			{
				"type": "occ",
				"energy": -0.23497,
				"method": "rhf"
			},
			{
				"type": "occ",
				"energy": -0.19843,
				"method": "rhf"
			},
			{
				"type": "unocc",
				"energy": -0.01703,
				"method": "rhf"
			},
			{
				"type": "unocc",
				"energy": 0.02442,
				"method": "rhf"
			},
			{
				"type": "unocc",
				"energy": 0.07138,
				"method": "rhf"
			},
			{
				"type": "unocc",
				"energy": 0.08053,
				"method": "rhf"
			},
			{
				"type": "unocc",
				"energy": 0.08439,
				"method": "rhf"
			}
		],
		"cosmo_sigma_profile": { 
			"-0.025": 0.0,
			"-0.024": 0.0,
			"-0.023": 0.0,
			"-0.022": 0.0,
			"-0.021": 0.0,
			"-0.02": 0.0,
			"-0.019": 0.0,
			"-0.018": 0.0,
			"-0.017": 0.0,
			"-0.016": 0.0,
			"-0.015": 0.0,
			"-0.014": 0.0,
			"-0.013": 0.0,
			"-0.012": 0.33765291078,
			"-0.011": 0.59905579946,
			"-0.01": 0.887803222548,
			"-0.009": 0.500479128871,
			"-0.008": 0.714756973201,
			"-0.007": 1.05464111434,
			"-0.006": 1.2067680923,
			"-0.005": 2.16899998011,
			"-0.004": 7.2902111807,
			"-0.003": 40.1861787472,
			"-0.002": 95.277570047,
			"-0.001": 98.6300678367,
			"0.0": 91.2322129969,
			"0.001": 79.8049812048,
			"0.002": 48.1782742692,
			"0.003": 13.9270467744,
			"0.004": 10.1278195722,
			"0.005": 7.04317707777,
			"0.006": 5.14667878467,
			"0.007": 3.47825823169,
			"0.008": 0.792262546627,
			"0.009": 1.97442734955,
			"0.01": 1.28786539451,
			"0.011": 1.40791721622,
			"0.012": 0.597597299329,
			"0.013": 1.40870022939,
			"0.014": 2.38341986853,
			"0.015": 1.87027074924,
			"0.016": 0.0861605788418,
			"0.017": 0.0,
			"0.018": 0.0,
			"0.019": 0.0,
			"0.02": 0.0,
			"0.021": 0.0,
			"0.022": 0.0,
			"0.023": 0.0,
			"0.024": 0.0,
			"0.025": 0.0
		}
	}
}
