{
	 "smiles": "OC(=O)COC1=CC2=C(C=C1)C1=C(CCC1)C(=O)O2", 
	 "Tm": 444.15, 
	 "num_atms": 31, 
	 "gaussian": { 
		 "optdone": 1, 
		 "sigma_profile": "yes", 
		 "theory": "DFT", 
		 "functional": "B3LYP", 
		 "basiset": "6-31G**", 
		 "properties": { 
			 "R2extent": 7487.1151, 
			 "electric_dipole_moment_norm": 7.53674407685, 
			 "electric_quadrupole_moment_norm": 22.7400257964, 
			 "total_energy": -916.852995107, 
			 "HOMO_LUMO_gap": 0.16449, 
			 "cosmo_polarized_energy": -20.8, 
			 "cosmo_cavitation_energy": 35.15, 
			 "cosmo_dispersion_energy": -25.73, 
			 "cosmo_repulsion_energy": 1.98, 
			 "cosmo_total_nonelectrostatic_energy": 11.4, 
			 "SMD_solvation_energy": 7.74 
		},
		"coords": [
			{
				"x": 3.1824321537,
				"y": -3.8569306359,
				"z": -3.1078609061,
				"element": "O" 
			},
			{
				"x": 2.7703384835,
				"y": -3.2057493466,
				"z": -4.2116071143,
				"element": "C" 
			},
			{
				"x": 2.2478461808,
				"y": -3.7607382426,
				"z": -5.1440646174,
				"element": "O" 
			},
			{
				"x": 3.0738469477,
				"y": -1.7024643535,
				"z": -4.2215630562,
				"element": "C" 
			},
			{
				"x": 3.3576462816,
				"y": -1.1845847664,
				"z": -2.923126675,
				"element": "O" 
			},
			{
				"x": 2.3097444842,
				"y": -0.7805156162,
				"z": -2.12491198,
				"element": "C" 
			},
			{
				"x": 0.9703926536,
				"y": -1.0431046641,
				"z": -2.4036557512,
				"element": "C" 
			},
			{
				"x": -0.00108585,
				"y": -0.5832110416,
				"z": -1.5077348514,
				"element": "C" 
			},
			{
				"x": 0.3424592427,
				"y": 0.1267044804,
				"z": -0.3385793581,
				"element": "C" 
			},
			{
				"x": 1.7084417321,
				"y": 0.3642477671,
				"z": -0.0891295607,
				"element": "C" 
			},
			{
				"x": 2.6836267462,
				"y": -0.0779477435,
				"z": -0.9651240028,
				"element": "C" 
			},
			{
				"x": -0.7466115273,
				"y": 0.5498456656,
				"z": 0.5021387207,
				"element": "C" 
			},
			{
				"x": -2.0328668214,
				"y": 0.2590911195,
				"z": 0.1755544417,
				"element": "C" 
			},
			{
				"x": -3.0195450344,
				"y": 0.7569405422,
				"z": 1.1992088943,
				"element": "C" 
			},
			{
				"x": -2.1539508599,
				"y": 1.7136517475,
				"z": 2.0638758442,
				"element": "C" 
			},
			{
				"x": -0.6779819612,
				"y": 1.2952702736,
				"z": 1.8146769404,
				"element": "C" 
			},
			{
				"x": -2.3833631331,
				"y": -0.4860448927,
				"z": -1.0176634778,
				"element": "C" 
			},
			{
				"x": -3.4900765932,
				"y": -0.8034067786,
				"z": -1.3840601542,
				"element": "O" 
			},
			{
				"x": -1.2943441621,
				"y": -0.8639272402,
				"z": -1.8248484402,
				"element": "O" 
			},
			{
				"x": 3.5670376482,
				"y": -3.2059948047,
				"z": -2.4956995327,
				"element": "H" 
			},
			{
				"x": 3.9843549732,
				"y": -1.5465522304,
				"z": -4.8083134673,
				"element": "H" 
			},
			{
				"x": 2.2554924559,
				"y": -1.1699950486,
				"z": -4.712071883,
				"element": "H" 
			},
			{
				"x": 0.641471724,
				"y": -1.6001531588,
				"z": -3.2720762772,
				"element": "H" 
			},
			{
				"x": 1.99648819,
				"y": 0.9086893462,
				"z": 0.8046502885,
				"element": "H" 
			},
			{
				"x": 3.7362839489,
				"y": 0.1096454389,
				"z": -0.785264483,
				"element": "H" 
			},
			{
				"x": -3.4191685015,
				"y": -0.082137309,
				"z": 1.7847128963,
				"element": "H" 
			},
			{
				"x": -3.8820272252,
				"y": 1.2524004781,
				"z": 0.7430271074,
				"element": "H" 
			},
			{
				"x": -2.4214882682,
				"y": 1.6841728546,
				"z": 3.1230094302,
				"element": "H" 
			},
			{
				"x": -2.2981861057,
				"y": 2.7432461636,
				"z": 1.7210998278,
				"element": "H" 
			},
			{
				"x": 0.0046290685,
				"y": 2.1517966611,
				"z": 1.7827875009,
				"element": "H" 
			},
			{
				"x": -0.3024368718,
				"y": 0.6256553353,
				"z": 2.601313696,
				"element": "H" 
			}
		],
		 "valence_orbital": [ 
			{
				"type": "occ",
				"energy": -0.29771,
				"method": "rhf"
			},
			{
				"type": "occ",
				"energy": -0.27656,
				"method": "rhf"
			},
			{
				"type": "occ",
				"energy": -0.27513,
				"method": "rhf"
			},
			{
				"type": "occ",
				"energy": -0.26224,
				"method": "rhf"
			},
			{
				"type": "occ",
				"energy": -0.22843,
				"method": "rhf"
			},
			{
				"type": "unocc",
				"energy": -0.06394,
				"method": "rhf"
			},
			{
				"type": "unocc",
				"energy": -0.02474,
				"method": "rhf"
			},
			{
				"type": "unocc",
				"energy": -0.00223,
				"method": "rhf"
			},
			{
				"type": "unocc",
				"energy": -9e-05,
				"method": "rhf"
			},
			{
				"type": "unocc",
				"energy": 0.06742,
				"method": "rhf"
			}
		],
		"cosmo_sigma_profile": { 
			"-0.025": 0.0,
			"-0.024": 0.0,
			"-0.023": 0.0,
			"-0.022": 0.0,
			"-0.021": 0.0,
			"-0.02": 0.0,
			"-0.019": 0.0,
			"-0.018": 0.0,
			"-0.017": 0.0486447681665,
			"-0.016": 0.432594551249,
			"-0.015": 0.949912556368,
			"-0.014": 0.394632966375,
			"-0.013": 0.458055791154,
			"-0.012": 0.918152771278,
			"-0.011": 1.57754445308,
			"-0.01": 3.69151467053,
			"-0.009": 6.11279210677,
			"-0.008": 6.47824386577,
			"-0.007": 8.46505819405,
			"-0.006": 10.3329912782,
			"-0.005": 14.4732841622,
			"-0.004": 21.3919864586,
			"-0.003": 25.085864373,
			"-0.002": 27.5499507939,
			"-0.001": 23.1378525611,
			"0.0": 23.4175972131,
			"0.001": 18.9561790939,
			"0.002": 13.2416983994,
			"0.003": 10.1514590874,
			"0.004": 4.92587249883,
			"0.005": 5.20586818229,
			"0.006": 4.79503733054,
			"0.007": 5.84746833024,
			"0.008": 5.59444082339,
			"0.009": 6.80708352038,
			"0.01": 6.62554447754,
			"0.011": 9.0747444899,
			"0.012": 10.2074454029,
			"0.013": 3.51507409569,
			"0.014": 0.195466632887,
			"0.015": 0.0,
			"0.016": 0.0,
			"0.017": 0.0,
			"0.018": 0.0,
			"0.019": 0.0,
			"0.02": 0.0,
			"0.021": 0.0,
			"0.022": 0.0,
			"0.023": 0.0,
			"0.024": 0.0,
			"0.025": 0.0
		}
	}
}
