{
	 "smiles": "S=C1NCCC2=CC=CC=C12", 
	 "Tm": 371.15, 
	 "num_atms": 20, 
	 "gaussian": { 
		 "optdone": 1, 
		 "sigma_profile": "yes", 
		 "theory": "DFT", 
		 "functional": "B3LYP", 
		 "basiset": "6-31G**", 
		 "properties": { 
			 "R2extent": 1984.6609, 
			 "electric_dipole_moment_norm": 5.16175079794, 
			 "electric_quadrupole_moment_norm": 13.2377337845, 
			 "total_energy": -801.339995298, 
			 "HOMO_LUMO_gap": 0.14307, 
			 "cosmo_polarized_energy": -13.89, 
			 "cosmo_cavitation_energy": 24.28, 
			 "cosmo_dispersion_energy": -18.86, 
			 "cosmo_repulsion_energy": 1.46, 
			 "cosmo_total_nonelectrostatic_energy": 6.88, 
			 "SMD_solvation_energy": 2.08 
		},
		"coords": [
			{
				"x": -1.3749406654,
				"y": 0.1262298982,
				"z": 2.5653183339,
				"element": "S" 
			},
			{
				"x": -0.3320519125,
				"y": -0.5998672804,
				"z": 1.4729229862,
				"element": "C" 
			},
			{
				"x": 0.3522239931,
				"y": -1.7148890693,
				"z": 1.8176665993,
				"element": "N" 
			},
			{
				"x": 1.156296028,
				"y": -2.5139769095,
				"z": 0.8970248052,
				"element": "C" 
			},
			{
				"x": 1.9571124059,
				"y": -1.5836702567,
				"z": -0.0092445815,
				"element": "C" 
			},
			{
				"x": 1.0385834809,
				"y": -0.5606730289,
				"z": -0.6366594984,
				"element": "C" 
			},
			{
				"x": 1.27744346,
				"y": -0.0542079208,
				"z": -1.9166159726,
				"element": "C" 
			},
			{
				"x": 0.4320361796,
				"y": 0.9045388382,
				"z": -2.4739042607,
				"element": "C" 
			},
			{
				"x": -0.6675607732,
				"y": 1.3701313198,
				"z": -1.7479877595,
				"element": "C" 
			},
			{
				"x": -0.9134859038,
				"y": 0.8792040566,
				"z": -0.4702122383,
				"element": "C" 
			},
			{
				"x": -0.0699089585,
				"y": -0.0867062044,
				"z": 0.099957928,
				"element": "C" 
			},
			{
				"x": 0.1321240339,
				"y": -2.086303078,
				"z": 2.7324325062,
				"element": "H" 
			},
			{
				"x": 1.8160781321,
				"y": -3.15335211,
				"z": 1.4897929721,
				"element": "H" 
			},
			{
				"x": 0.5102573719,
				"y": -3.1682222805,
				"z": 0.2924726581,
				"element": "H" 
			},
			{
				"x": 2.4752953396,
				"y": -2.1638022175,
				"z": -0.7794297988,
				"element": "H" 
			},
			{
				"x": 2.7277552,
				"y": -1.0766118733,
				"z": 0.5879651989,
				"element": "H" 
			},
			{
				"x": 2.1324478035,
				"y": -0.4181178438,
				"z": -2.480940104,
				"element": "H" 
			},
			{
				"x": 0.6280551158,
				"y": 1.2836020171,
				"z": -3.4728728292,
				"element": "H" 
			},
			{
				"x": -1.3311388458,
				"y": 2.1140765916,
				"z": -2.1782600602,
				"element": "H" 
			},
			{
				"x": -1.7572214854,
				"y": 1.2311173515,
				"z": 0.1131731151,
				"element": "H" 
			}
		],
		 "valence_orbital": [ 
			{
				"type": "occ",
				"energy": -0.33399,
				"method": "rhf"
			},
			{
				"type": "occ",
				"energy": -0.26027,
				"method": "rhf"
			},
			{
				"type": "occ",
				"energy": -0.2524,
				"method": "rhf"
			},
			{
				"type": "occ",
				"energy": -0.21702,
				"method": "rhf"
			},
			{
				"type": "occ",
				"energy": -0.20293,
				"method": "rhf"
			},
			{
				"type": "unocc",
				"energy": -0.05986,
				"method": "rhf"
			},
			{
				"type": "unocc",
				"energy": -0.01019,
				"method": "rhf"
			},
			{
				"type": "unocc",
				"energy": 0.03025,
				"method": "rhf"
			},
			{
				"type": "unocc",
				"energy": 0.07005,
				"method": "rhf"
			},
			{
				"type": "unocc",
				"energy": 0.09572,
				"method": "rhf"
			}
		],
		"cosmo_sigma_profile": { 
			"-0.025": 0.0,
			"-0.024": 0.0,
			"-0.023": 0.0,
			"-0.022": 0.0,
			"-0.021": 0.0,
			"-0.02": 0.0,
			"-0.019": 0.0,
			"-0.018": 0.0,
			"-0.017": 0.0,
			"-0.016": 0.0,
			"-0.015": 0.172237943562,
			"-0.014": 1.30901723872,
			"-0.013": 0.925995293567,
			"-0.012": 1.20086590436,
			"-0.011": 1.14219749553,
			"-0.01": 0.799629926284,
			"-0.009": 1.11480727688,
			"-0.008": 1.17069285873,
			"-0.007": 3.40550732905,
			"-0.006": 11.8126443284,
			"-0.005": 20.4941539507,
			"-0.004": 22.8679852063,
			"-0.003": 15.1756854686,
			"-0.002": 11.4903949237,
			"-0.001": 8.66012885515,
			"0.0": 8.61213310211,
			"0.001": 8.92497677361,
			"0.002": 10.363996724,
			"0.003": 11.4457419228,
			"0.004": 15.352793758,
			"0.005": 6.63685422738,
			"0.006": 4.4380563381,
			"0.007": 3.57073259115,
			"0.008": 4.72495164735,
			"0.009": 6.20502656658,
			"0.01": 7.39960874353,
			"0.011": 4.39819266802,
			"0.012": 2.02739085354,
			"0.013": 0.0723527183455,
			"0.014": 0.0,
			"0.015": 0.0,
			"0.016": 0.0,
			"0.017": 0.0,
			"0.018": 0.0,
			"0.019": 0.0,
			"0.02": 0.0,
			"0.021": 0.0,
			"0.022": 0.0,
			"0.023": 0.0,
			"0.024": 0.0,
			"0.025": 0.0
		}
	}
}
