{
	 "smiles": "CCC1(NC(=O)NC1=O)C1=CC=CC=C1", 
	 "Tm": 477.15, 
	 "num_atms": 27, 
	 "gaussian": { 
		 "optdone": 1, 
		 "sigma_profile": "yes", 
		 "theory": "DFT", 
		 "functional": "B3LYP", 
		 "basiset": "6-31G**", 
		 "properties": { 
			 "R2extent": 3255.5572, 
			 "electric_dipole_moment_norm": 2.69063319128, 
			 "electric_quadrupole_moment_norm": 11.3363344711, 
			 "total_energy": -686.40063464, 
			 "HOMO_LUMO_gap": 0.22758, 
			 "cosmo_polarized_energy": -15.85, 
			 "cosmo_cavitation_energy": 30.27, 
			 "cosmo_dispersion_energy": -21.34, 
			 "cosmo_repulsion_energy": 1.68, 
			 "cosmo_total_nonelectrostatic_energy": 10.61, 
			 "SMD_solvation_energy": 6.79 
		},
		"coords": [
			{
				"x": -1.8145249934,
				"y": -1.7587103707,
				"z": -2.0045182737,
				"element": "C" 
			},
			{
				"x": -0.8217735196,
				"y": -1.8044686154,
				"z": -0.8401826354,
				"element": "C" 
			},
			{
				"x": -0.9243141762,
				"y": -0.5966164384,
				"z": 0.1319583172,
				"element": "C" 
			},
			{
				"x": -2.1936980459,
				"y": -0.5924997724,
				"z": 0.8562598993,
				"element": "N" 
			},
			{
				"x": -2.0757172853,
				"y": -0.8538859563,
				"z": 2.1982696203,
				"element": "C" 
			},
			{
				"x": -2.9540548073,
				"y": -0.9967154247,
				"z": 3.0224008124,
				"element": "O" 
			},
			{
				"x": -0.6881918816,
				"y": -0.9289598719,
				"z": 2.4418666967,
				"element": "N" 
			},
			{
				"x": 0.0741305325,
				"y": -0.8283826829,
				"z": 1.3004536558,
				"element": "C" 
			},
			{
				"x": 1.2798287034,
				"y": -0.9281232862,
				"z": 1.2139709965,
				"element": "O" 
			},
			{
				"x": -0.6242124417,
				"y": 0.7371730733,
				"z": -0.5648576895,
				"element": "C" 
			},
			{
				"x": 0.6173345022,
				"y": 0.9315766717,
				"z": -1.1902577086,
				"element": "C" 
			},
			{
				"x": 0.9013278301,
				"y": 2.1316270669,
				"z": -1.8405296555,
				"element": "C" 
			},
			{
				"x": -0.0482568568,
				"y": 3.1549466025,
				"z": -1.8807373249,
				"element": "C" 
			},
			{
				"x": -1.2801611654,
				"y": 2.9720654287,
				"z": -1.2540348194,
				"element": "C" 
			},
			{
				"x": -1.5645709307,
				"y": 1.7728156279,
				"z": -0.5968304097,
				"element": "C" 
			},
			{
				"x": -1.677923872,
				"y": -0.860021376,
				"z": -2.6124561044,
				"element": "H" 
			},
			{
				"x": -2.854103825,
				"y": -1.7792966046,
				"z": -1.6574274043,
				"element": "H" 
			},
			{
				"x": -1.6768617756,
				"y": -2.6297373178,
				"z": -2.6519520232,
				"element": "H" 
			},
			{
				"x": 0.2038782566,
				"y": -1.8408840508,
				"z": -1.2186801799,
				"element": "H" 
			},
			{
				"x": -0.9728951753,
				"y": -2.7199825102,
				"z": -0.2553794952,
				"element": "H" 
			},
			{
				"x": -3.0956719188,
				"y": -0.6777580131,
				"z": 0.4146893636,
				"element": "H" 
			},
			{
				"x": -0.3117775618,
				"y": -1.10776038,
				"z": 3.3618736495,
				"element": "H" 
			},
			{
				"x": 1.373452053,
				"y": 0.1561931311,
				"z": -1.1371992873,
				"element": "H" 
			},
			{
				"x": 1.869897061,
				"y": 2.2679328865,
				"z": -2.3129934202,
				"element": "H" 
			},
			{
				"x": 0.1739033089,
				"y": 4.0880101718,
				"z": -2.3903482536,
				"element": "H" 
			},
			{
				"x": -2.0240041618,
				"y": 3.7635847253,
				"z": -1.2696382235,
				"element": "H" 
			},
			{
				"x": -2.5182378536,
				"y": 1.6493772859,
				"z": -0.095320103,
				"element": "H" 
			}
		],
		 "valence_orbital": [ 
			{
				"type": "occ",
				"energy": -0.28978,
				"method": "rhf"
			},
			{
				"type": "occ",
				"energy": -0.27166,
				"method": "rhf"
			},
			{
				"type": "occ",
				"energy": -0.26651,
				"method": "rhf"
			},
			{
				"type": "occ",
				"energy": -0.25501,
				"method": "rhf"
			},
			{
				"type": "occ",
				"energy": -0.24893,
				"method": "rhf"
			},
			{
				"type": "unocc",
				"energy": -0.02135,
				"method": "rhf"
			},
			{
				"type": "unocc",
				"energy": -0.00725,
				"method": "rhf"
			},
			{
				"type": "unocc",
				"energy": 0.00185,
				"method": "rhf"
			},
			{
				"type": "unocc",
				"energy": 0.05404,
				"method": "rhf"
			},
			{
				"type": "unocc",
				"energy": 0.06845,
				"method": "rhf"
			}
		],
		"cosmo_sigma_profile": { 
			"-0.025": 0.0,
			"-0.024": 0.0,
			"-0.023": 0.0,
			"-0.022": 0.0,
			"-0.021": 0.0,
			"-0.02": 0.0,
			"-0.019": 0.0,
			"-0.018": 0.0,
			"-0.017": 0.392347065335,
			"-0.016": 1.43101116462,
			"-0.015": 1.29728619016,
			"-0.014": 2.0591506763,
			"-0.013": 1.99472942431,
			"-0.012": 1.5427743985,
			"-0.011": 1.30338245124,
			"-0.01": 2.88894077997,
			"-0.009": 2.65196695651,
			"-0.008": 2.16012125724,
			"-0.007": 2.87430085927,
			"-0.006": 7.99566202756,
			"-0.005": 13.7550403824,
			"-0.004": 19.9070350892,
			"-0.003": 21.2418519767,
			"-0.002": 21.9275748297,
			"-0.001": 20.4493286315,
			"0.0": 18.7518129404,
			"0.001": 14.4873426636,
			"0.002": 10.3395654785,
			"0.003": 9.63401280572,
			"0.004": 10.9021523793,
			"0.005": 11.9121830305,
			"0.006": 5.83351550902,
			"0.007": 3.27078835888,
			"0.008": 1.78212763502,
			"0.009": 2.60485678296,
			"0.01": 3.73961601991,
			"0.011": 5.35071530149,
			"0.012": 8.51685056354,
			"0.013": 6.09013497447,
			"0.014": 0.668920480204,
			"0.015": 0.0,
			"0.016": 0.0,
			"0.017": 0.0,
			"0.018": 0.0,
			"0.019": 0.0,
			"0.02": 0.0,
			"0.021": 0.0,
			"0.022": 0.0,
			"0.023": 0.0,
			"0.024": 0.0,
			"0.025": 0.0
		}
	}
}
