{
	 "smiles": "NC1=CC(=O)NC(=O)N1CC1=CC=C(Cl)C=C1", 
	 "Tm": 553.15, 
	 "num_atms": 27, 
	 "gaussian": { 
		 "optdone": 1, 
		 "sigma_profile": "yes", 
		 "theory": "DFT", 
		 "functional": "B3LYP", 
		 "basiset": "6-31G**", 
		 "properties": { 
			 "R2extent": 6077.4478, 
			 "electric_dipole_moment_norm": 4.93237126441, 
			 "electric_quadrupole_moment_norm": 23.9118066105, 
			 "total_energy": -1200.13680476, 
			 "HOMO_LUMO_gap": 0.19208, 
			 "cosmo_polarized_energy": -21.24, 
			 "cosmo_cavitation_energy": 32.99, 
			 "cosmo_dispersion_energy": -24.08, 
			 "cosmo_repulsion_energy": 1.86, 
			 "cosmo_total_nonelectrostatic_energy": 10.76, 
			 "SMD_solvation_energy": 6.52 
		},
		"coords": [
			{
				"x": -0.2459774102,
				"y": -0.1789128386,
				"z": -2.6193814846,
				"element": "N" 
			},
			{
				"x": -0.4533640253,
				"y": -1.5050690043,
				"z": -2.2914903662,
				"element": "C" 
			},
			{
				"x": -0.1269822904,
				"y": -2.53793784,
				"z": -3.1259898666,
				"element": "C" 
			},
			{
				"x": -0.4146362742,
				"y": -3.903058131,
				"z": -2.7718495581,
				"element": "C" 
			},
			{
				"x": -0.1790858634,
				"y": -4.9058627807,
				"z": -3.4304660438,
				"element": "O" 
			},
			{
				"x": -1.0096147354,
				"y": -4.0310414093,
				"z": -1.4907756285,
				"element": "N" 
			},
			{
				"x": -1.3409102965,
				"y": -3.0337987072,
				"z": -0.6087943124,
				"element": "C" 
			},
			{
				"x": -1.8318026361,
				"y": -3.2458215805,
				"z": 0.4923914956,
				"element": "O" 
			},
			{
				"x": -1.0785547616,
				"y": -1.7299322805,
				"z": -1.0684916352,
				"element": "N" 
			},
			{
				"x": -1.5841014339,
				"y": -0.6208270131,
				"z": -0.238676978,
				"element": "C" 
			},
			{
				"x": -0.5179699857,
				"y": 0.0740482911,
				"z": 0.5887424609,
				"element": "C" 
			},
			{
				"x": 0.2685103491,
				"y": -0.6556094419,
				"z": 1.4927318834,
				"element": "C" 
			},
			{
				"x": 1.2365465182,
				"y": -0.0222848301,
				"z": 2.2675295258,
				"element": "C" 
			},
			{
				"x": 1.4181574435,
				"y": 1.3574079806,
				"z": 2.1428606152,
				"element": "C" 
			},
			{
				"x": 2.6401743953,
				"y": 2.1587911796,
				"z": 3.1161252263,
				"element": "Cl" 
			},
			{
				"x": 0.6430165783,
				"y": 2.107010026,
				"z": 1.2618175692,
				"element": "C" 
			},
			{
				"x": -0.3222207257,
				"y": 1.4563607799,
				"z": 0.488702107,
				"element": "C" 
			},
			{
				"x": 0.2960801164,
				"y": -0.0525129169,
				"z": -3.462994185,
				"element": "H" 
			},
			{
				"x": 0.0662667876,
				"y": 0.4214793351,
				"z": -1.8656504638,
				"element": "H" 
			},
			{
				"x": 0.3812439163,
				"y": -2.3539670873,
				"z": -4.063057644,
				"element": "H" 
			},
			{
				"x": -1.1981324581,
				"y": -4.9743147743,
				"z": -1.1751487566,
				"element": "H" 
			},
			{
				"x": -2.0847041503,
				"y": 0.0938825742,
				"z": -0.8967931504,
				"element": "H" 
			},
			{
				"x": -2.3293263408,
				"y": -1.0719389298,
				"z": 0.4183775372,
				"element": "H" 
			},
			{
				"x": 0.1064953394,
				"y": -1.7241819522,
				"z": 1.597936652,
				"element": "H" 
			},
			{
				"x": 1.8422540322,
				"y": -0.5873494662,
				"z": 2.9673501547,
				"element": "H" 
			},
			{
				"x": 0.7897452576,
				"y": 3.1783511925,
				"z": 1.181509761,
				"element": "H" 
			},
			{
				"x": -0.9382073465,
				"y": 2.0421896249,
				"z": -0.190414915,
				"element": "H" 
			}
		],
		 "valence_orbital": [ 
			{
				"type": "occ",
				"energy": -0.28018,
				"method": "rhf"
			},
			{
				"type": "occ",
				"energy": -0.27791,
				"method": "rhf"
			},
			{
				"type": "occ",
				"energy": -0.25975,
				"method": "rhf"
			},
			{
				"type": "occ",
				"energy": -0.2512,
				"method": "rhf"
			},
			{
				"type": "occ",
				"energy": -0.22697,
				"method": "rhf"
			},
			{
				"type": "unocc",
				"energy": -0.03489,
				"method": "rhf"
			},
			{
				"type": "unocc",
				"energy": -0.03237,
				"method": "rhf"
			},
			{
				"type": "unocc",
				"energy": -0.01829,
				"method": "rhf"
			},
			{
				"type": "unocc",
				"energy": 0.01327,
				"method": "rhf"
			},
			{
				"type": "unocc",
				"energy": 0.01925,
				"method": "rhf"
			}
		],
		"cosmo_sigma_profile": { 
			"-0.025": 0.0,
			"-0.024": 0.0,
			"-0.023": 0.0,
			"-0.022": 0.0,
			"-0.021": 0.0,
			"-0.02": 0.0,
			"-0.019": 0.0,
			"-0.018": 0.0,
			"-0.017": 0.0,
			"-0.016": 0.130805292611,
			"-0.015": 1.28321852258,
			"-0.014": 2.36157355298,
			"-0.013": 2.21944660702,
			"-0.012": 3.04017199699,
			"-0.011": 3.17916599792,
			"-0.01": 2.64935558457,
			"-0.009": 3.88563881827,
			"-0.008": 6.73721230239,
			"-0.007": 11.5691857021,
			"-0.006": 12.9552386439,
			"-0.005": 12.5979182397,
			"-0.004": 15.9528103287,
			"-0.003": 16.6829971849,
			"-0.002": 13.8860946908,
			"-0.001": 16.2478701136,
			"0.0": 16.4842603534,
			"0.001": 18.8559341374,
			"0.002": 20.1404547305,
			"0.003": 22.2864161832,
			"0.004": 16.8619321193,
			"0.005": 8.81260725198,
			"0.006": 2.89796956681,
			"0.007": 3.02732802625,
			"0.008": 2.68803952591,
			"0.009": 2.73992932354,
			"0.01": 2.96625394502,
			"0.011": 3.71512925197,
			"0.012": 5.08267853229,
			"0.013": 6.74231039591,
			"0.014": 5.84500966965,
			"0.015": 1.47198801668,
			"0.016": 0.0,
			"0.017": 0.0,
			"0.018": 0.0,
			"0.019": 0.0,
			"0.02": 0.0,
			"0.021": 0.0,
			"0.022": 0.0,
			"0.023": 0.0,
			"0.024": 0.0,
			"0.025": 0.0
		}
	}
}
