{
	 "smiles": "CC1CCC(C)(COC(=O)C2=CC=C(C=C2)[N+]([O-])=O)C1(C)C", 
	 "Tm": 368.15, 
	 "num_atms": 45, 
	 "gaussian": { 
		 "optdone": 1, 
		 "sigma_profile": "yes", 
		 "theory": "DFT", 
		 "functional": "B3LYP", 
		 "basiset": "6-31G**", 
		 "properties": { 
			 "R2extent": 10447.8039, 
			 "electric_dipole_moment_norm": 4.90887648042, 
			 "electric_quadrupole_moment_norm": 24.5604032502, 
			 "total_energy": -1017.24536412, 
			 "HOMO_LUMO_gap": 0.18183, 
			 "cosmo_polarized_energy": -10.06, 
			 "cosmo_cavitation_energy": 45.03, 
			 "cosmo_dispersion_energy": -30.83, 
			 "cosmo_repulsion_energy": 2.29, 
			 "cosmo_total_nonelectrostatic_energy": 16.49, 
			 "SMD_solvation_energy": 10.25 
		},
		"coords": [
			{
				"x": 1.9620269902,
				"y": 4.0689322658,
				"z": -0.0514813295,
				"element": "C" 
			},
			{
				"x": 0.7164095515,
				"y": 3.7744239727,
				"z": -0.898645789,
				"element": "C" 
			},
			{
				"x": -0.5910963949,
				"y": 4.1778374756,
				"z": -0.1608190623,
				"element": "C" 
			},
			{
				"x": -1.6138363113,
				"y": 3.0840518158,
				"z": -0.4960546989,
				"element": "C" 
			},
			{
				"x": -0.7820495934,
				"y": 1.7808545707,
				"z": -0.6099574322,
				"element": "C" 
			},
			{
				"x": -1.5731584741,
				"y": 0.6625311263,
				"z": -1.3083082226,
				"element": "C" 
			},
			{
				"x": -0.4756892963,
				"y": 1.331173917,
				"z": 0.8386595639,
				"element": "C" 
			},
			{
				"x": 0.1223793186,
				"y": 0.0102948423,
				"z": 0.9006140082,
				"element": "O" 
			},
			{
				"x": -0.5944507455,
				"y": -0.98305989,
				"z": 1.4654379429,
				"element": "C" 
			},
			{
				"x": -1.7128716885,
				"y": -0.8584710754,
				"z": 1.9242640236,
				"element": "O" 
			},
			{
				"x": 0.1535141236,
				"y": -2.2807568768,
				"z": 1.4666667652,
				"element": "C" 
			},
			{
				"x": 1.4498429292,
				"y": -2.4006121361,
				"z": 0.9456932212,
				"element": "C" 
			},
			{
				"x": 2.101222378,
				"y": -3.6304034393,
				"z": 0.9710581482,
				"element": "C" 
			},
			{
				"x": 1.4388760306,
				"y": -4.7257883711,
				"z": 1.5218402003,
				"element": "C" 
			},
			{
				"x": 0.1508956496,
				"y": -4.6325906451,
				"z": 2.0470941896,
				"element": "C" 
			},
			{
				"x": -0.4896392246,
				"y": -3.3988469499,
				"z": 2.0160125157,
				"element": "C" 
			},
			{
				"x": 2.1260744809,
				"y": -6.0308031006,
				"z": 1.5500496967,
				"element": "N" 
			},
			{
				"x": 1.5208323696,
				"y": -6.981743482,
				"z": 2.0417117108,
				"element": "O" 
			},
			{
				"x": 3.2613296942,
				"y": -6.0864642123,
				"z": 1.0799849466,
				"element": "O" 
			},
			{
				"x": 0.5086913778,
				"y": 2.2757915733,
				"z": -1.3873383179,
				"element": "C" 
			},
			{
				"x": 0.2434495018,
				"y": 2.3128508627,
				"z": -2.9108239988,
				"element": "C" 
			},
			{
				"x": 1.7405629985,
				"y": 1.3769761351,
				"z": -1.1755241378,
				"element": "C" 
			},
			{
				"x": 1.9676538922,
				"y": 3.5074751586,
				"z": 0.8896324394,
				"element": "H" 
			},
			{
				"x": 1.9902344313,
				"y": 5.1332127406,
				"z": 0.2081089249,
				"element": "H" 
			},
			{
				"x": 2.8904145281,
				"y": 3.837550134,
				"z": -0.5825911008,
				"element": "H" 
			},
			{
				"x": 0.8052794484,
				"y": 4.3914296427,
				"z": -1.8009327605,
				"element": "H" 
			},
			{
				"x": -0.9354253967,
				"y": 5.1766184877,
				"z": -0.4475487622,
				"element": "H" 
			},
			{
				"x": -0.4161263089,
				"y": 4.2136444126,
				"z": 0.9217880697,
				"element": "H" 
			},
			{
				"x": -2.420679327,
				"y": 3.005321369,
				"z": 0.2412336189,
				"element": "H" 
			},
			{
				"x": -2.0911349749,
				"y": 3.2890027581,
				"z": -1.4609157127,
				"element": "H" 
			},
			{
				"x": -1.9911577743,
				"y": 1.0031476878,
				"z": -2.2584382158,
				"element": "H" 
			},
			{
				"x": -2.406324854,
				"y": 0.3344158513,
				"z": -0.6777829209,
				"element": "H" 
			},
			{
				"x": -0.9489708458,
				"y": -0.2136261731,
				"z": -1.509891835,
				"element": "H" 
			},
			{
				"x": -1.398621801,
				"y": 1.3049195192,
				"z": 1.420626241,
				"element": "H" 
			},
			{
				"x": 0.2387419351,
				"y": 1.9926448562,
				"z": 1.332527085,
				"element": "H" 
			},
			{
				"x": 1.941248228,
				"y": -1.5318627149,
				"z": 0.5249702046,
				"element": "H" 
			},
			{
				"x": 3.1017242859,
				"y": -3.7558083033,
				"z": 0.5769892519,
				"element": "H" 
			},
			{
				"x": -0.3206367924,
				"y": -5.5131965543,
				"z": 2.4644352757,
				"element": "H" 
			},
			{
				"x": -1.4912663145,
				"y": -3.2790265628,
				"z": 2.4131908738,
				"element": "H" 
			},
			{
				"x": 0.1021054905,
				"y": 1.3107388376,
				"z": -3.3270527837,
				"element": "H" 
			},
			{
				"x": -0.6354352478,
				"y": 2.9126707635,
				"z": -3.1687290432,
				"element": "H" 
			},
			{
				"x": 1.1028182388,
				"y": 2.7607591968,
				"z": -3.4217504205,
				"element": "H" 
			},
			{
				"x": 2.5863237559,
				"y": 1.7443866352,
				"z": -1.7669321328,
				"element": "H" 
			},
			{
				"x": 2.0632664099,
				"y": 1.3251575727,
				"z": -0.1336781296,
				"element": "H" 
			},
			{
				"x": 1.5320533279,
				"y": 0.3546463062,
				"z": -1.5072921109,
				"element": "H" 
			}
		],
		 "valence_orbital": [ 
			{
				"type": "occ",
				"energy": -0.2969,
				"method": "rhf"
			},
			{
				"type": "occ",
				"energy": -0.29587,
				"method": "rhf"
			},
			{
				"type": "occ",
				"energy": -0.28871,
				"method": "rhf"
			},
			{
				"type": "occ",
				"energy": -0.28785,
				"method": "rhf"
			},
			{
				"type": "occ",
				"energy": -0.28388,
				"method": "rhf"
			},
			{
				"type": "unocc",
				"energy": -0.10205,
				"method": "rhf"
			},
			{
				"type": "unocc",
				"energy": -0.03712,
				"method": "rhf"
			},
			{
				"type": "unocc",
				"energy": -0.03286,
				"method": "rhf"
			},
			{
				"type": "unocc",
				"energy": 0.0488,
				"method": "rhf"
			},
			{
				"type": "unocc",
				"energy": 0.06426,
				"method": "rhf"
			}
		],
		"cosmo_sigma_profile": { 
			"-0.025": 0.0,
			"-0.024": 0.0,
			"-0.023": 0.0,
			"-0.022": 0.0,
			"-0.021": 0.0,
			"-0.02": 0.0,
			"-0.019": 0.0,
			"-0.018": 0.0,
			"-0.017": 0.0,
			"-0.016": 0.0,
			"-0.015": 0.0,
			"-0.014": 0.0,
			"-0.013": 0.0,
			"-0.012": 0.0,
			"-0.011": 0.0,
			"-0.01": 0.0,
			"-0.009": 0.0371712224859,
			"-0.008": 2.36863302625,
			"-0.007": 6.18942081392,
			"-0.006": 8.55337993648,
			"-0.005": 10.559693927,
			"-0.004": 14.001218909,
			"-0.003": 27.3176863336,
			"-0.002": 50.1609069664,
			"-0.001": 55.2785353734,
			"0.0": 56.1956227859,
			"0.001": 46.5356621282,
			"0.002": 21.5112465713,
			"0.003": 6.1446707664,
			"0.004": 5.12758750819,
			"0.005": 4.62036865884,
			"0.006": 5.84728081599,
			"0.007": 10.7556943545,
			"0.008": 6.87859701157,
			"0.009": 5.81616810323,
			"0.01": 3.54733008442,
			"0.011": 3.50695912622,
			"0.012": 1.35461198876,
			"0.013": 0.0,
			"0.014": 0.0,
			"0.015": 0.0,
			"0.016": 0.0,
			"0.017": 0.0,
			"0.018": 0.0,
			"0.019": 0.0,
			"0.02": 0.0,
			"0.021": 0.0,
			"0.022": 0.0,
			"0.023": 0.0,
			"0.024": 0.0,
			"0.025": 0.0
		}
	}
}
