{
	 "smiles": "NC(=O)C1CCN(CCCN2C3=C(SC4=C2C=C(Cl)C=C4)C=CC=C3)CC1", 
	 "Tm": 412.15, 
	 "num_atms": 51, 
	 "gaussian": { 
		 "optdone": 1, 
		 "sigma_profile": "yes", 
		 "theory": "DFT", 
		 "functional": "B3LYP", 
		 "basiset": "6-31G**", 
		 "properties": { 
			 "R2extent": 15921.569, 
			 "electric_dipole_moment_norm": 3.82689777496, 
			 "electric_quadrupole_moment_norm": 24.8377375616, 
			 "total_energy": -1912.5637743, 
			 "HOMO_LUMO_gap": 0.17315, 
			 "cosmo_polarized_energy": -19.53, 
			 "cosmo_cavitation_energy": 54.33, 
			 "cosmo_dispersion_energy": -37.75, 
			 "cosmo_repulsion_energy": 2.83, 
			 "cosmo_total_nonelectrostatic_energy": 19.42, 
			 "SMD_solvation_energy": 6.36 
		},
		"coords": [
			{
				"x": 5.3778502868,
				"y": 3.854377625,
				"z": -1.0410665139,
				"element": "N" 
			},
			{
				"x": 4.7532154785,
				"y": 4.0954710651,
				"z": -2.2366908141,
				"element": "C" 
			},
			{
				"x": 5.1799570935,
				"y": 4.9222622592,
				"z": -3.0305654338,
				"element": "O" 
			},
			{
				"x": 3.4662660172,
				"y": 3.3139090802,
				"z": -2.5169100605,
				"element": "C" 
			},
			{
				"x": 3.3560531529,
				"y": 1.8959781103,
				"z": -1.8927851919,
				"element": "C" 
			},
			{
				"x": 2.4867527884,
				"y": 1.8674329343,
				"z": -0.6312778211,
				"element": "C" 
			},
			{
				"x": 1.1038626271,
				"y": 2.2600944906,
				"z": -0.9267813206,
				"element": "N" 
			},
			{
				"x": 0.3395218447,
				"y": 2.5519631173,
				"z": 0.2859547825,
				"element": "C" 
			},
			{
				"x": 0.0608226525,
				"y": 1.3080153845,
				"z": 1.14286232,
				"element": "C" 
			},
			{
				"x": -0.6970705555,
				"y": 0.2308751297,
				"z": 0.3545344435,
				"element": "C" 
			},
			{
				"x": -0.8613929045,
				"y": -1.0139537055,
				"z": 1.1089623508,
				"element": "N" 
			},
			{
				"x": -1.6057619337,
				"y": -1.0041249714,
				"z": 2.3164855471,
				"element": "C" 
			},
			{
				"x": -1.3891389377,
				"y": -2.0142347952,
				"z": 3.2736455648,
				"element": "C" 
			},
			{
				"x": -0.118841039,
				"y": -3.2273125923,
				"z": 2.9662195803,
				"element": "S" 
			},
			{
				"x": -0.3614435614,
				"y": -3.3982531613,
				"z": 1.2102998067,
				"element": "C" 
			},
			{
				"x": -0.6800731324,
				"y": -2.2521123265,
				"z": 0.4527064242,
				"element": "C" 
			},
			{
				"x": -0.8165023345,
				"y": -2.3863434131,
				"z": -0.9380292631,
				"element": "C" 
			},
			{
				"x": -0.5861311838,
				"y": -3.6216205233,
				"z": -1.5416819486,
				"element": "C" 
			},
			{
				"x": -0.7357208847,
				"y": -3.7469565472,
				"z": -3.2909810883,
				"element": "Cl" 
			},
			{
				"x": -0.2650575075,
				"y": -4.7546168738,
				"z": -0.8005291971,
				"element": "C" 
			},
			{
				"x": -0.1769851438,
				"y": -4.6315009722,
				"z": 0.5868030456,
				"element": "C" 
			},
			{
				"x": -2.1177359132,
				"y": -2.039638359,
				"z": 4.4631419269,
				"element": "C" 
			},
			{
				"x": -3.0487210938,
				"y": -1.037347813,
				"z": 4.7401267408,
				"element": "C" 
			},
			{
				"x": -3.2705419888,
				"y": -0.0321343911,
				"z": 3.8002476619,
				"element": "C" 
			},
			{
				"x": -2.5705793367,
				"y": -0.0234012514,
				"z": 2.5927115849,
				"element": "C" 
			},
			{
				"x": 0.9993436311,
				"y": 3.2957439694,
				"z": -1.9783192482,
				"element": "C" 
			},
			{
				"x": 2.248083294,
				"y": 4.1777911588,
				"z": -2.0900063135,
				"element": "C" 
			},
			{
				"x": 6.1635957501,
				"y": 4.4407833716,
				"z": -0.8028521321,
				"element": "H" 
			},
			{
				"x": 4.9849445176,
				"y": 3.2604671218,
				"z": -0.3294800299,
				"element": "H" 
			},
			{
				"x": 3.4456468222,
				"y": 3.2214307649,
				"z": -3.6067180808,
				"element": "H" 
			},
			{
				"x": 4.346479978,
				"y": 1.4855351689,
				"z": -1.6703914052,
				"element": "H" 
			},
			{
				"x": 2.9055399924,
				"y": 1.2184971734,
				"z": -2.6258937021,
				"element": "H" 
			},
			{
				"x": 2.9284568897,
				"y": 2.5261283582,
				"z": 0.1475144238,
				"element": "H" 
			},
			{
				"x": 2.49393057,
				"y": 0.8570084761,
				"z": -0.2071127968,
				"element": "H" 
			},
			{
				"x": 0.8398012694,
				"y": 3.3093493572,
				"z": 0.922385936,
				"element": "H" 
			},
			{
				"x": -0.6201471809,
				"y": 2.9844855113,
				"z": -0.0205444306,
				"element": "H" 
			},
			{
				"x": -0.5048982555,
				"y": 1.6216729897,
				"z": 2.0257550769,
				"element": "H" 
			},
			{
				"x": 0.9933793993,
				"y": 0.8724482233,
				"z": 1.5176813823,
				"element": "H" 
			},
			{
				"x": -1.6608978331,
				"y": 0.6259899445,
				"z": -0.0042068653,
				"element": "H" 
			},
			{
				"x": -0.109228572,
				"y": 0.0064514936,
				"z": -0.5349267935,
				"element": "H" 
			},
			{
				"x": -1.1069718893,
				"y": -1.5441477198,
				"z": -1.5524390383,
				"element": "H" 
			},
			{
				"x": -0.0971035956,
				"y": -5.7068145671,
				"z": -1.2894683391,
				"element": "H" 
			},
			{
				"x": 0.0557706032,
				"y": -5.5022922016,
				"z": 1.1919390268,
				"element": "H" 
			},
			{
				"x": -1.9418804098,
				"y": -2.8410270603,
				"z": 5.1744411984,
				"element": "H" 
			},
			{
				"x": -3.5976479029,
				"y": -1.0493854085,
				"z": 5.6764398455,
				"element": "H" 
			},
			{
				"x": -4.0021543856,
				"y": 0.7464788473,
				"z": 3.9949857488,
				"element": "H" 
			},
			{
				"x": -2.7779255488,
				"y": 0.7518199377,
				"z": 1.8639894454,
				"element": "H" 
			},
			{
				"x": 0.1185864948,
				"y": 3.9119994451,
				"z": -1.7735089355,
				"element": "H" 
			},
			{
				"x": 0.8190718354,
				"y": 2.8118991637,
				"z": -2.9492886519,
				"element": "H" 
			},
			{
				"x": 2.0950979688,
				"y": 4.9841218365,
				"z": -2.8132614204,
				"element": "H" 
			},
			{
				"x": 2.4436220665,
				"y": 4.6561371443,
				"z": -1.1218170281,
				"element": "H" 
			}
		],
		 "valence_orbital": [ 
			{
				"type": "occ",
				"energy": -0.2517,
				"method": "rhf"
			},
			{
				"type": "occ",
				"energy": -0.2414,
				"method": "rhf"
			},
			{
				"type": "occ",
				"energy": -0.22941,
				"method": "rhf"
			},
			{
				"type": "occ",
				"energy": -0.21559,
				"method": "rhf"
			},
			{
				"type": "occ",
				"energy": -0.19364,
				"method": "rhf"
			},
			{
				"type": "unocc",
				"energy": -0.02049,
				"method": "rhf"
			},
			{
				"type": "unocc",
				"energy": -0.01676,
				"method": "rhf"
			},
			{
				"type": "unocc",
				"energy": -0.0093,
				"method": "rhf"
			},
			{
				"type": "unocc",
				"energy": 0.00302,
				"method": "rhf"
			},
			{
				"type": "unocc",
				"energy": 0.02474,
				"method": "rhf"
			}
		],
		"cosmo_sigma_profile": { 
			"-0.025": 0.0,
			"-0.024": 0.0,
			"-0.023": 0.0,
			"-0.022": 0.0,
			"-0.021": 0.0,
			"-0.02": 0.0,
			"-0.019": 0.0,
			"-0.018": 0.0,
			"-0.017": 0.0,
			"-0.016": 0.0,
			"-0.015": 0.0,
			"-0.014": 0.26674675575,
			"-0.013": 1.45469433148,
			"-0.012": 1.77075931676,
			"-0.011": 2.38747604332,
			"-0.01": 2.90195961218,
			"-0.009": 1.63140502935,
			"-0.008": 3.46505128735,
			"-0.007": 8.90128864408,
			"-0.006": 15.2612624347,
			"-0.005": 18.524606489,
			"-0.004": 31.0649655316,
			"-0.003": 45.5465359491,
			"-0.002": 46.6833411212,
			"-0.001": 41.1715817991,
			"0.0": 32.2732355556,
			"0.001": 25.3542038351,
			"0.002": 29.7442835931,
			"0.003": 35.7084180651,
			"0.004": 30.1061326597,
			"0.005": 22.1483769679,
			"0.006": 8.53386585053,
			"0.007": 4.69613631892,
			"0.008": 3.77349804601,
			"0.009": 1.9825080561,
			"0.01": 1.82423891136,
			"0.011": 1.71744549826,
			"0.012": 1.97751406446,
			"0.013": 2.03103055083,
			"0.014": 5.73196701792,
			"0.015": 3.47079669252,
			"0.016": 0.287442141609,
			"0.017": 0.0,
			"0.018": 0.0,
			"0.019": 0.0,
			"0.02": 0.0,
			"0.021": 0.0,
			"0.022": 0.0,
			"0.023": 0.0,
			"0.024": 0.0,
			"0.025": 0.0
		}
	}
}
