{
	 "smiles": "CC(C)(C)C1=CC=C(C=C1)C(C)(C)C", 
	 "Tm": 352.65, 
	 "num_atms": 36, 
	 "gaussian": { 
		 "optdone": 1, 
		 "sigma_profile": "yes", 
		 "theory": "DFT", 
		 "functional": "B3LYP", 
		 "basiset": "6-31G**", 
		 "properties": { 
			 "R2extent": 4488.4812, 
			 "electric_dipole_moment_norm": 0.0314760226204, 
			 "electric_quadrupole_moment_norm": 4.8934257581, 
			 "total_energy": -546.779479145, 
			 "HOMO_LUMO_gap": 0.23315, 
			 "cosmo_polarized_energy": -3.45, 
			 "cosmo_cavitation_energy": 35.11, 
			 "cosmo_dispersion_energy": -24.48, 
			 "cosmo_repulsion_energy": 1.9, 
			 "cosmo_total_nonelectrostatic_energy": 12.53, 
			 "SMD_solvation_energy": 6.23 
		},
		"coords": [
			{
				"x": 0.4674368077,
				"y": -3.1295204173,
				"z": -1.0128094297,
				"element": "C" 
			},
			{
				"x": 1.0229222034,
				"y": -2.3471819393,
				"z": 0.2011876738,
				"element": "C" 
			},
			{
				"x": 0.1039642786,
				"y": -2.5816860116,
				"z": 1.4238476483,
				"element": "C" 
			},
			{
				"x": 2.418375533,
				"y": -2.9074754501,
				"z": 0.5352212673,
				"element": "C" 
			},
			{
				"x": 1.0611107411,
				"y": -0.8449830036,
				"z": -0.1308384554,
				"element": "C" 
			},
			{
				"x": -0.1234323511,
				"y": -0.1635327175,
				"z": -0.4616353704,
				"element": "C" 
			},
			{
				"x": -0.1266603148,
				"y": 1.1928807938,
				"z": -0.7673535007,
				"element": "C" 
			},
			{
				"x": 1.0544804022,
				"y": 1.9556944403,
				"z": -0.7619061862,
				"element": "C" 
			},
			{
				"x": 2.2324930205,
				"y": 1.2784838228,
				"z": -0.4328202075,
				"element": "C" 
			},
			{
				"x": 2.23575748,
				"y": -0.0868050665,
				"z": -0.1252241735,
				"element": "C" 
			},
			{
				"x": 1.0092951903,
				"y": 3.4549064735,
				"z": -1.1063993681,
				"element": "C" 
			},
			{
				"x": 0.4538747709,
				"y": 3.6379305654,
				"z": -2.5390191423,
				"element": "C" 
			},
			{
				"x": 2.4015311018,
				"y": 4.1111294836,
				"z": -1.0439315641,
				"element": "C" 
			},
			{
				"x": 0.0860495853,
				"y": 4.1868436029,
				"z": -0.1032795385,
				"element": "C" 
			},
			{
				"x": -0.5433870063,
				"y": -2.805335139,
				"z": -1.2776954495,
				"element": "H" 
			},
			{
				"x": 1.1038138902,
				"y": -2.9892821111,
				"z": -1.8928003323,
				"element": "H" 
			},
			{
				"x": 0.4258514162,
				"y": -4.2020243657,
				"z": -0.7904393598,
				"element": "H" 
			},
			{
				"x": 0.0593607142,
				"y": -3.6488643089,
				"z": 1.6699975825,
				"element": "H" 
			},
			{
				"x": 0.4776238705,
				"y": -2.0455288698,
				"z": 2.3024433381,
				"element": "H" 
			},
			{
				"x": -0.9184178906,
				"y": -2.2407113378,
				"z": 1.2355081434,
				"element": "H" 
			},
			{
				"x": 2.8573300188,
				"y": -2.4135638539,
				"z": 1.4083804376,
				"element": "H" 
			},
			{
				"x": 3.1127321682,
				"y": -2.7981670557,
				"z": -0.3043941162,
				"element": "H" 
			},
			{
				"x": 2.3426389033,
				"y": -3.9756421166,
				"z": 0.7638085068,
				"element": "H" 
			},
			{
				"x": -1.0679775855,
				"y": -0.7002594346,
				"z": -0.4824066059,
				"element": "H" 
			},
			{
				"x": -1.0736137259,
				"y": 1.6644199603,
				"z": -1.0155801932,
				"element": "H" 
			},
			{
				"x": 3.178670379,
				"y": 1.8077601122,
				"z": -0.4099610408,
				"element": "H" 
			},
			{
				"x": 3.1843264003,
				"y": -0.5508491738,
				"z": 0.1213700865,
				"element": "H" 
			},
			{
				"x": 0.4072931876,
				"y": 4.7018661336,
				"z": -2.7984636697,
				"element": "H" 
			},
			{
				"x": 1.0931025236,
				"y": 3.1366390584,
				"z": -3.2732641091,
				"element": "H" 
			},
			{
				"x": -0.5548683068,
				"y": 3.2264835772,
				"z": -2.6396521366,
				"element": "H" 
			},
			{
				"x": 2.3207523977,
				"y": 5.1738105054,
				"z": -1.2952301856,
				"element": "H" 
			},
			{
				"x": 2.8401512063,
				"y": 4.0411745995,
				"z": -0.0430548642,
				"element": "H" 
			},
			{
				"x": 3.0986256755,
				"y": 3.6560063696,
				"z": -1.7552402922,
				"element": "H" 
			},
			{
				"x": 0.0362393329,
				"y": 5.2561303307,
				"z": -0.3390339091,
				"element": "H" 
			},
			{
				"x": -0.9343887482,
				"y": 3.7930099566,
				"z": -0.1276448642,
				"element": "H" 
			},
			{
				"x": 0.4596427301,
				"y": 4.0815425868,
				"z": 0.9206133804,
				"element": "H" 
			}
		],
		 "valence_orbital": [ 
			{
				"type": "occ",
				"energy": -0.31857,
				"method": "rhf"
			},
			{
				"type": "occ",
				"energy": -0.30619,
				"method": "rhf"
			},
			{
				"type": "occ",
				"energy": -0.30451,
				"method": "rhf"
			},
			{
				"type": "occ",
				"energy": -0.23961,
				"method": "rhf"
			},
			{
				"type": "occ",
				"energy": -0.2264,
				"method": "rhf"
			},
			{
				"type": "unocc",
				"energy": 0.00675,
				"method": "rhf"
			},
			{
				"type": "unocc",
				"energy": 0.00844,
				"method": "rhf"
			},
			{
				"type": "unocc",
				"energy": 0.08206,
				"method": "rhf"
			},
			{
				"type": "unocc",
				"energy": 0.08909,
				"method": "rhf"
			},
			{
				"type": "unocc",
				"energy": 0.11826,
				"method": "rhf"
			}
		],
		"cosmo_sigma_profile": { 
			"-0.025": 0.0,
			"-0.024": 0.0,
			"-0.023": 0.0,
			"-0.022": 0.0,
			"-0.021": 0.0,
			"-0.02": 0.0,
			"-0.019": 0.0,
			"-0.018": 0.0,
			"-0.017": 0.0,
			"-0.016": 0.0,
			"-0.015": 0.0,
			"-0.014": 0.0,
			"-0.013": 0.0,
			"-0.012": 0.0,
			"-0.011": 0.0,
			"-0.01": 0.0,
			"-0.009": 0.0,
			"-0.008": 0.0,
			"-0.007": 0.0,
			"-0.006": 0.0,
			"-0.005": 3.06484398596,
			"-0.004": 11.7635027826,
			"-0.003": 26.6416199255,
			"-0.002": 49.2080000298,
			"-0.001": 37.446792613,
			"0.0": 35.0292886248,
			"0.001": 46.8212383792,
			"0.002": 26.9333414278,
			"0.003": 7.11483217556,
			"0.004": 6.8735829742,
			"0.005": 6.51247637001,
			"0.006": 6.55969002212,
			"0.007": 7.03100246953,
			"0.008": 0.721037249938,
			"0.009": 0.0,
			"0.01": 0.0,
			"0.011": 0.0,
			"0.012": 0.0,
			"0.013": 0.0,
			"0.014": 0.0,
			"0.015": 0.0,
			"0.016": 0.0,
			"0.017": 0.0,
			"0.018": 0.0,
			"0.019": 0.0,
			"0.02": 0.0,
			"0.021": 0.0,
			"0.022": 0.0,
			"0.023": 0.0,
			"0.024": 0.0,
			"0.025": 0.0
		}
	}
}
