{
	 "smiles": "CCCCCCCCCCCCCCCCOC=C", 
	 "Tm": 289.15, 
	 "num_atms": 55, 
	 "gaussian": { 
		 "optdone": 1, 
		 "sigma_profile": "yes", 
		 "theory": "DFT", 
		 "functional": "B3LYP", 
		 "basiset": "6-31G**", 
		 "properties": { 
			 "R2extent": 13558.2924, 
			 "electric_dipole_moment_norm": 0.876649011863, 
			 "electric_quadrupole_moment_norm": 5.20111384513, 
			 "total_energy": -782.847236014, 
			 "HOMO_LUMO_gap": 0.26811, 
			 "cosmo_polarized_energy": -4.0, 
			 "cosmo_cavitation_energy": 53.74, 
			 "cosmo_dispersion_energy": -35.92, 
			 "cosmo_repulsion_energy": 2.91, 
			 "cosmo_total_nonelectrostatic_energy": 20.74, 
			 "SMD_solvation_energy": 8.28 
		},
		"coords": [
			{
				"x": -5.0990054434,
				"y": 1.4647347017,
				"z": -3.5968191057,
				"element": "C" 
			},
			{
				"x": -5.4915514478,
				"y": 2.9011397788,
				"z": -3.2249838496,
				"element": "C" 
			},
			{
				"x": -5.6311345825,
				"y": 3.1848411572,
				"z": -1.7133939179,
				"element": "C" 
			},
			{
				"x": -4.3493483816,
				"y": 3.6240667838,
				"z": -0.9778861244,
				"element": "C" 
			},
			{
				"x": -3.2078381636,
				"y": 2.5996065325,
				"z": -0.8510455785,
				"element": "C" 
			},
			{
				"x": -3.5656553391,
				"y": 1.3482838205,
				"z": -0.0349618263,
				"element": "C" 
			},
			{
				"x": -2.3787692355,
				"y": 0.4131062453,
				"z": 0.2526440142,
				"element": "C" 
			},
			{
				"x": -1.7821161717,
				"y": -0.2720012571,
				"z": -0.9852101924,
				"element": "C" 
			},
			{
				"x": -0.6501162994,
				"y": -1.2518220864,
				"z": -0.6489416669,
				"element": "C" 
			},
			{
				"x": -0.0754379023,
				"y": -1.9611693953,
				"z": -1.8851021748,
				"element": "C" 
			},
			{
				"x": 1.0559329634,
				"y": -2.9741253445,
				"z": -1.5998935941,
				"element": "C" 
			},
			{
				"x": 2.4920495929,
				"y": -2.423357817,
				"z": -1.6619030743,
				"element": "C" 
			},
			{
				"x": 2.8582071015,
				"y": -1.3575261188,
				"z": -0.6191648611,
				"element": "C" 
			},
			{
				"x": 4.3434310012,
				"y": -0.9708120445,
				"z": -0.6725990924,
				"element": "C" 
			},
			{
				"x": 4.750520784,
				"y": 0.156717703,
				"z": 0.2899483623,
				"element": "C" 
			},
			{
				"x": 4.6426181551,
				"y": -0.1936832644,
				"z": 1.7695570216,
				"element": "C" 
			},
			{
				"x": 5.5216317629,
				"y": -1.2878343641,
				"z": 2.0351027029,
				"element": "O" 
			},
			{
				"x": 5.5660947242,
				"y": -1.7561539148,
				"z": 3.3075658876,
				"element": "C" 
			},
			{
				"x": 4.8924167858,
				"y": -1.3231795796,
				"z": 4.3783138543,
				"element": "C" 
			},
			{
				"x": -5.0681016804,
				"y": 1.3366308752,
				"z": -4.6844147238,
				"element": "H" 
			},
			{
				"x": -5.8277660796,
				"y": 0.7473640411,
				"z": -3.2017428855,
				"element": "H" 
			},
			{
				"x": -4.117103275,
				"y": 1.1842859134,
				"z": -3.205560195,
				"element": "H" 
			},
			{
				"x": -6.4513163754,
				"y": 3.1227121678,
				"z": -3.7089711852,
				"element": "H" 
			},
			{
				"x": -4.770526013,
				"y": 3.6067701644,
				"z": -3.6606776496,
				"element": "H" 
			},
			{
				"x": -6.0727954906,
				"y": 2.3098039736,
				"z": -1.2177906182,
				"element": "H" 
			},
			{
				"x": -6.3614131196,
				"y": 3.9937667749,
				"z": -1.5831942227,
				"element": "H" 
			},
			{
				"x": -4.632813804,
				"y": 3.9471498709,
				"z": 0.0338344211,
				"element": "H" 
			},
			{
				"x": -3.9585468507,
				"y": 4.5205019437,
				"z": -1.4791222563,
				"element": "H" 
			},
			{
				"x": -2.851938694,
				"y": 2.314476923,
				"z": -1.8479517368,
				"element": "H" 
			},
			{
				"x": -2.3576040186,
				"y": 3.0992771658,
				"z": -0.3651882703,
				"element": "H" 
			},
			{
				"x": -3.9993609212,
				"y": 1.6695176082,
				"z": 0.9223908337,
				"element": "H" 
			},
			{
				"x": -4.3527958174,
				"y": 0.7785960106,
				"z": -0.546456495,
				"element": "H" 
			},
			{
				"x": -1.5896794007,
				"y": 0.978720668,
				"z": 0.769282672,
				"element": "H" 
			},
			{
				"x": -2.7049702144,
				"y": -0.3624903072,
				"z": 0.959055999,
				"element": "H" 
			},
			{
				"x": -2.5794640205,
				"y": -0.8092094675,
				"z": -1.5195713775,
				"element": "H" 
			},
			{
				"x": -1.4034691112,
				"y": 0.4838790449,
				"z": -1.6861846491,
				"element": "H" 
			},
			{
				"x": 0.1433174077,
				"y": -0.7152790304,
				"z": -0.1140204135,
				"element": "H" 
			},
			{
				"x": -1.0252368497,
				"y": -2.0106191922,
				"z": 0.0528270068,
				"element": "H" 
			},
			{
				"x": -0.9019157108,
				"y": -2.4843951491,
				"z": -2.3842804547,
				"element": "H" 
			},
			{
				"x": 0.2788562743,
				"y": -1.2121295122,
				"z": -2.6081524492,
				"element": "H" 
			},
			{
				"x": 0.9893535795,
				"y": -3.7883755908,
				"z": -2.3323169938,
				"element": "H" 
			},
			{
				"x": 0.8860629128,
				"y": -3.4425792079,
				"z": -0.619977718,
				"element": "H" 
			},
			{
				"x": 2.6724874654,
				"y": -2.0152218445,
				"z": -2.666996778,
				"element": "H" 
			},
			{
				"x": 3.1870638147,
				"y": -3.2675111419,
				"z": -1.5529769028,
				"element": "H" 
			},
			{
				"x": 2.2487273233,
				"y": -0.4572928515,
				"z": -0.7745865406,
				"element": "H" 
			},
			{
				"x": 2.6039672431,
				"y": -1.7339855751,
				"z": 0.3808636949,
				"element": "H" 
			},
			{
				"x": 4.5913277549,
				"y": -0.6563483175,
				"z": -1.6951198248,
				"element": "H" 
			},
			{
				"x": 4.9594084357,
				"y": -1.8536400455,
				"z": -0.4639457432,
				"element": "H" 
			},
			{
				"x": 5.7859444894,
				"y": 0.4540708267,
				"z": 0.0850809765,
				"element": "H" 
			},
			{
				"x": 4.1281790558,
				"y": 1.0442612051,
				"z": 0.1125739948,
				"element": "H" 
			},
			{
				"x": 4.9298328411,
				"y": 0.6652894948,
				"z": 2.3924554154,
				"element": "H" 
			},
			{
				"x": 3.6170014297,
				"y": -0.4748630463,
				"z": 2.0461813395,
				"element": "H" 
			},
			{
				"x": 6.264843392,
				"y": -2.5865892387,
				"z": 3.3688734199,
				"element": "H" 
			},
			{
				"x": 5.0494307664,
				"y": -1.8166720268,
				"z": 5.3297082488,
				"element": "H" 
			},
			{
				"x": 4.1907833572,
				"y": -0.4987046631,
				"z": 4.3543452765,
				"element": "H" 
			}
		],
		 "valence_orbital": [ 
			{
				"type": "occ",
				"energy": -0.30323,
				"method": "rhf"
			},
			{
				"type": "occ",
				"energy": -0.30003,
				"method": "rhf"
			},
			{
				"type": "occ",
				"energy": -0.29767,
				"method": "rhf"
			},
			{
				"type": "occ",
				"energy": -0.29232,
				"method": "rhf"
			},
			{
				"type": "occ",
				"energy": -0.22324,
				"method": "rhf"
			},
			{
				"type": "unocc",
				"energy": 0.04487,
				"method": "rhf"
			},
			{
				"type": "unocc",
				"energy": 0.0792,
				"method": "rhf"
			},
			{
				"type": "unocc",
				"energy": 0.08458,
				"method": "rhf"
			},
			{
				"type": "unocc",
				"energy": 0.09777,
				"method": "rhf"
			},
			{
				"type": "unocc",
				"energy": 0.10009,
				"method": "rhf"
			}
		],
		"cosmo_sigma_profile": { 
			"-0.025": 0.0,
			"-0.024": 0.0,
			"-0.023": 0.0,
			"-0.022": 0.0,
			"-0.021": 0.0,
			"-0.02": 0.0,
			"-0.019": 0.0,
			"-0.018": 0.0,
			"-0.017": 0.0,
			"-0.016": 0.0,
			"-0.015": 0.0,
			"-0.014": 0.0,
			"-0.013": 0.0,
			"-0.012": 0.0,
			"-0.011": 0.0,
			"-0.01": 0.0,
			"-0.009": 0.0,
			"-0.008": 0.0,
			"-0.007": 0.663850456157,
			"-0.006": 1.95730058147,
			"-0.005": 4.09938545832,
			"-0.004": 10.7553874711,
			"-0.003": 18.0019674402,
			"-0.002": 46.5768064017,
			"-0.001": 90.1101422218,
			"0.0": 99.489844699,
			"0.001": 73.3205664803,
			"0.002": 34.8550281806,
			"0.003": 6.35759432085,
			"0.004": 5.9148677277,
			"0.005": 5.59458900048,
			"0.006": 4.79411510477,
			"0.007": 3.99786251834,
			"0.008": 3.42330431136,
			"0.009": 1.02199193268,
			"0.01": 0.748041195288,
			"0.011": 0.351951128976,
			"0.012": 0.0,
			"0.013": 0.0,
			"0.014": 0.0,
			"0.015": 0.0,
			"0.016": 0.0,
			"0.017": 0.0,
			"0.018": 0.0,
			"0.019": 0.0,
			"0.02": 0.0,
			"0.021": 0.0,
			"0.022": 0.0,
			"0.023": 0.0,
			"0.024": 0.0,
			"0.025": 0.0
		}
	}
}
