{
	 "smiles": "COC(=O)C1=CC2=C(NCCC2)C=C1", 
	 "Tm": 345.15, 
	 "num_atms": 27, 
	 "gaussian": { 
		 "optdone": 1, 
		 "sigma_profile": "yes", 
		 "theory": "DFT", 
		 "functional": "B3LYP", 
		 "basiset": "6-31G**", 
		 "properties": { 
			 "R2extent": 3958.1981, 
			 "electric_dipole_moment_norm": 3.8663502997, 
			 "electric_quadrupole_moment_norm": 7.93051001449, 
			 "total_energy": -632.231736957, 
			 "HOMO_LUMO_gap": 0.17471, 
			 "cosmo_polarized_energy": -11.72, 
			 "cosmo_cavitation_energy": 29.63, 
			 "cosmo_dispersion_energy": -22.24, 
			 "cosmo_repulsion_energy": 1.75, 
			 "cosmo_total_nonelectrostatic_energy": 9.14, 
			 "SMD_solvation_energy": 5.15 
		},
		"coords": [
			{
				"x": -3.8953232876,
				"y": 0.7573533415,
				"z": 3.973490733,
				"element": "C" 
			},
			{
				"x": -2.8456259715,
				"y": 1.161319493,
				"z": 3.0865637762,
				"element": "O" 
			},
			{
				"x": -2.3096963169,
				"y": 0.1614234713,
				"z": 2.3363766514,
				"element": "C" 
			},
			{
				"x": -2.6964046668,
				"y": -0.9916545089,
				"z": 2.4145248052,
				"element": "O" 
			},
			{
				"x": -1.2329363765,
				"y": 0.6376675132,
				"z": 1.443013779,
				"element": "C" 
			},
			{
				"x": -0.5962357449,
				"y": -0.2971738827,
				"z": 0.6132421412,
				"element": "C" 
			},
			{
				"x": 0.4219347496,
				"y": 0.0617176167,
				"z": -0.2612076646,
				"element": "C" 
			},
			{
				"x": 0.8381826113,
				"y": 1.416907999,
				"z": -0.3006864647,
				"element": "C" 
			},
			{
				"x": 1.8834073282,
				"y": 1.8089000685,
				"z": -1.1153326863,
				"element": "N" 
			},
			{
				"x": 2.4091274372,
				"y": 0.935519878,
				"z": -2.1545082531,
				"element": "C" 
			},
			{
				"x": 2.472710887,
				"y": -0.4999341314,
				"z": -1.6279636996,
				"element": "C" 
			},
			{
				"x": 1.0792954918,
				"y": -0.9569578711,
				"z": -1.1742355177,
				"element": "C" 
			},
			{
				"x": 0.2018847487,
				"y": 2.3596285141,
				"z": 0.5338511418,
				"element": "C" 
			},
			{
				"x": -0.8183800881,
				"y": 1.9782382344,
				"z": 1.3898438058,
				"element": "C" 
			},
			{
				"x": -4.2094306122,
				"y": 1.6636679398,
				"z": 4.4923762366,
				"element": "H" 
			},
			{
				"x": -3.5352224473,
				"y": 0.0128911443,
				"z": 4.6887319846,
				"element": "H" 
			},
			{
				"x": -4.7315934865,
				"y": 0.3269089562,
				"z": 3.4159492197,
				"element": "H" 
			},
			{
				"x": -0.9252567029,
				"y": -1.3312796341,
				"z": 0.6656811698,
				"element": "H" 
			},
			{
				"x": 1.9835823287,
				"y": 2.8023639727,
				"z": -1.2616494105,
				"element": "H" 
			},
			{
				"x": 1.7881753136,
				"y": 0.9653230607,
				"z": -3.0661783641,
				"element": "H" 
			},
			{
				"x": 3.4076985897,
				"y": 1.2910875675,
				"z": -2.4300965394,
				"element": "H" 
			},
			{
				"x": 2.861237445,
				"y": -1.1621649344,
				"z": -2.408500359,
				"element": "H" 
			},
			{
				"x": 3.1724624068,
				"y": -0.5364112223,
				"z": -0.7850129452,
				"element": "H" 
			},
			{
				"x": 1.1423009084,
				"y": -1.9256113803,
				"z": -0.6661819835,
				"element": "H" 
			},
			{
				"x": 0.4488378871,
				"y": -1.1188070291,
				"z": -2.060470677,
				"element": "H" 
			},
			{
				"x": 0.5265947962,
				"y": 3.3972158275,
				"z": 0.5024078995,
				"element": "H" 
			},
			{
				"x": -1.299227228,
				"y": 2.7139599959,
				"z": 2.024371221,
				"element": "H" 
			}
		],
		 "valence_orbital": [ 
			{
				"type": "occ",
				"energy": -0.29334,
				"method": "rhf"
			},
			{
				"type": "occ",
				"energy": -0.28489,
				"method": "rhf"
			},
			{
				"type": "occ",
				"energy": -0.256,
				"method": "rhf"
			},
			{
				"type": "occ",
				"energy": -0.24123,
				"method": "rhf"
			},
			{
				"type": "occ",
				"energy": -0.19577,
				"method": "rhf"
			},
			{
				"type": "unocc",
				"energy": -0.02106,
				"method": "rhf"
			},
			{
				"type": "unocc",
				"energy": 0.00306,
				"method": "rhf"
			},
			{
				"type": "unocc",
				"energy": 0.07291,
				"method": "rhf"
			},
			{
				"type": "unocc",
				"energy": 0.07669,
				"method": "rhf"
			},
			{
				"type": "unocc",
				"energy": 0.10676,
				"method": "rhf"
			}
		],
		"cosmo_sigma_profile": { 
			"-0.025": 0.0,
			"-0.024": 0.0,
			"-0.023": 0.0,
			"-0.022": 0.0,
			"-0.021": 0.0,
			"-0.02": 0.0,
			"-0.019": 0.0,
			"-0.018": 0.0,
			"-0.017": 0.0,
			"-0.016": 0.0,
			"-0.015": 0.0,
			"-0.014": 0.0147651592785,
			"-0.013": 1.10524693075,
			"-0.012": 1.6112849431,
			"-0.011": 0.905553846034,
			"-0.01": 2.0372480825,
			"-0.009": 1.1828469103,
			"-0.008": 1.76957356701,
			"-0.007": 1.60930440059,
			"-0.006": 5.2227546247,
			"-0.005": 11.4439402898,
			"-0.004": 19.9834630894,
			"-0.003": 32.1078108285,
			"-0.002": 27.7287723313,
			"-0.001": 21.5163945656,
			"0.0": 15.3784033148,
			"0.001": 10.316215583,
			"0.002": 11.7825382076,
			"0.003": 12.6125897723,
			"0.004": 14.0118214304,
			"0.005": 14.2024394464,
			"0.006": 7.61263821071,
			"0.007": 4.15073586122,
			"0.008": 2.14174755274,
			"0.009": 1.96825839679,
			"0.01": 1.51436579645,
			"0.011": 2.13106180978,
			"0.012": 3.1812390811,
			"0.013": 4.30291674659,
			"0.014": 0.0792983431911,
			"0.015": 0.0,
			"0.016": 0.0,
			"0.017": 0.0,
			"0.018": 0.0,
			"0.019": 0.0,
			"0.02": 0.0,
			"0.021": 0.0,
			"0.022": 0.0,
			"0.023": 0.0,
			"0.024": 0.0,
			"0.025": 0.0
		}
	}
}
