{
	 "smiles": "COC1=C(SC)C=C(C=O)C=C1", 
	 "Tm": 318.15, 
	 "num_atms": 22, 
	 "gaussian": { 
		 "optdone": 1, 
		 "sigma_profile": "yes", 
		 "theory": "DFT", 
		 "functional": "B3LYP", 
		 "basiset": "6-31G**", 
		 "properties": { 
			 "R2extent": 2780.6211, 
			 "electric_dipole_moment_norm": 4.14562014782, 
			 "electric_quadrupole_moment_norm": 14.124680053, 
			 "total_energy": -897.593843317, 
			 "HOMO_LUMO_gap": 0.16171, 
			 "cosmo_polarized_energy": -9.72, 
			 "cosmo_cavitation_energy": 27.77, 
			 "cosmo_dispersion_energy": -20.0, 
			 "cosmo_repulsion_energy": 1.56, 
			 "cosmo_total_nonelectrostatic_energy": 9.33, 
			 "SMD_solvation_energy": 6.78 
		},
		"coords": [
			{
				"x": 0.6735073324,
				"y": -2.2490946707,
				"z": -1.1685036365,
				"element": "C" 
			},
			{
				"x": 1.0123843597,
				"y": -1.4110950714,
				"z": -0.0552814054,
				"element": "O" 
			},
			{
				"x": 0.0748375087,
				"y": -0.457105329,
				"z": 0.2535204345,
				"element": "C" 
			},
			{
				"x": 0.1423391654,
				"y": 0.8346076044,
				"z": -0.3189508038,
				"element": "C" 
			},
			{
				"x": 1.3723786775,
				"y": 1.266484308,
				"z": -1.5463921589,
				"element": "S" 
			},
			{
				"x": 2.9318201714,
				"y": 1.0465271634,
				"z": -0.6061294917,
				"element": "C" 
			},
			{
				"x": -0.8179808904,
				"y": 1.7775751917,
				"z": 0.0471790766,
				"element": "C" 
			},
			{
				"x": -1.8313760646,
				"y": 1.458099088,
				"z": 0.9634902965,
				"element": "C" 
			},
			{
				"x": -2.8416185485,
				"y": 2.4719498496,
				"z": 1.3374805602,
				"element": "C" 
			},
			{
				"x": -2.8832451729,
				"y": 3.6051116461,
				"z": 0.8974186495,
				"element": "O" 
			},
			{
				"x": -1.8714200626,
				"y": 0.1821304514,
				"z": 1.5382734782,
				"element": "C" 
			},
			{
				"x": -0.9190169465,
				"y": -0.7695810336,
				"z": 1.1863379291,
				"element": "C" 
			},
			{
				"x": -0.2558743528,
				"y": -2.7988539103,
				"z": -0.9747374248,
				"element": "H" 
			},
			{
				"x": 0.56938658,
				"y": -1.6600706479,
				"z": -2.0857786995,
				"element": "H" 
			},
			{
				"x": 1.4967532735,
				"y": -2.9567709472,
				"z": -1.2799033697,
				"element": "H" 
			},
			{
				"x": 3.0212858301,
				"y": 0.0191551481,
				"z": -0.2535533991,
				"element": "H" 
			},
			{
				"x": 2.9778691933,
				"y": 1.7458246673,
				"z": 0.2308736284,
				"element": "H" 
			},
			{
				"x": 3.739864625,
				"y": 1.2702081266,
				"z": -1.3064629815,
				"element": "H" 
			},
			{
				"x": -0.7909711878,
				"y": 2.7788173031,
				"z": -0.3703853356,
				"element": "H" 
			},
			{
				"x": -3.5942615622,
				"y": 2.119330363,
				"z": 2.0783507917,
				"element": "H" 
			},
			{
				"x": -2.6467781879,
				"y": -0.0607750297,
				"z": 2.2610485378,
				"element": "H" 
			},
			{
				"x": -0.9236837406,
				"y": -1.7634742708,
				"z": 1.622605324,
				"element": "H" 
			}
		],
		 "valence_orbital": [ 
			{
				"type": "occ",
				"energy": -0.28697,
				"method": "rhf"
			},
			{
				"type": "occ",
				"energy": -0.27353,
				"method": "rhf"
			},
			{
				"type": "occ",
				"energy": -0.25932,
				"method": "rhf"
			},
			{
				"type": "occ",
				"energy": -0.25589,
				"method": "rhf"
			},
			{
				"type": "occ",
				"energy": -0.22621,
				"method": "rhf"
			},
			{
				"type": "unocc",
				"energy": -0.0645,
				"method": "rhf"
			},
			{
				"type": "unocc",
				"energy": -0.02715,
				"method": "rhf"
			},
			{
				"type": "unocc",
				"energy": 0.02575,
				"method": "rhf"
			},
			{
				"type": "unocc",
				"energy": 0.04722,
				"method": "rhf"
			},
			{
				"type": "unocc",
				"energy": 0.07834,
				"method": "rhf"
			}
		],
		"cosmo_sigma_profile": { 
			"-0.025": 0.0,
			"-0.024": 0.0,
			"-0.023": 0.0,
			"-0.022": 0.0,
			"-0.021": 0.0,
			"-0.02": 0.0,
			"-0.019": 0.0,
			"-0.018": 0.0,
			"-0.017": 0.0,
			"-0.016": 0.0,
			"-0.015": 0.0,
			"-0.014": 0.0,
			"-0.013": 0.0,
			"-0.012": 0.0,
			"-0.011": 0.0,
			"-0.01": 0.0,
			"-0.009": 0.0,
			"-0.008": 2.02913123675,
			"-0.007": 7.24845804063,
			"-0.006": 11.8325981421,
			"-0.005": 14.4459838508,
			"-0.004": 19.0073320418,
			"-0.003": 21.583551314,
			"-0.002": 20.2861919086,
			"-0.001": 19.2635467058,
			"0.0": 16.2931191975,
			"0.001": 18.2878313211,
			"0.002": 18.9782718494,
			"0.003": 10.4578383284,
			"0.004": 7.09193238729,
			"0.005": 6.94256791999,
			"0.006": 5.24817022551,
			"0.007": 4.74545902653,
			"0.008": 3.42916736492,
			"0.009": 4.29165799876,
			"0.01": 3.35496051509,
			"0.011": 4.74970006738,
			"0.012": 2.77179870511,
			"0.013": 0.752704758508,
			"0.014": 0.0,
			"0.015": 0.0,
			"0.016": 0.0,
			"0.017": 0.0,
			"0.018": 0.0,
			"0.019": 0.0,
			"0.02": 0.0,
			"0.021": 0.0,
			"0.022": 0.0,
			"0.023": 0.0,
			"0.024": 0.0,
			"0.025": 0.0
		}
	}
}
