{
	 "smiles": "COCC1=NC2=C(C(C)=C(S2)C(O)=O)C(OC)=N1", 
	 "Tm": 462.15, 
	 "num_atms": 30, 
	 "gaussian": { 
		 "optdone": 1, 
		 "sigma_profile": "yes", 
		 "theory": "DFT", 
		 "functional": "B3LYP", 
		 "basiset": "6-31G**", 
		 "properties": { 
			 "R2extent": 5914.1682, 
			 "electric_dipole_moment_norm": 1.74118599523, 
			 "electric_quadrupole_moment_norm": 11.801327741, 
			 "total_energy": -1234.99356756, 
			 "HOMO_LUMO_gap": 0.16508, 
			 "cosmo_polarized_energy": -13.81, 
			 "cosmo_cavitation_energy": 35.95, 
			 "cosmo_dispersion_energy": -26.16, 
			 "cosmo_repulsion_energy": 2.0, 
			 "cosmo_total_nonelectrostatic_energy": 11.78, 
			 "SMD_solvation_energy": 6.2 
		},
		"coords": [
			{
				"x": -1.0039157904,
				"y": 1.6180452717,
				"z": 4.8332023509,
				"element": "C" 
			},
			{
				"x": -1.0957936564,
				"y": 2.6654937627,
				"z": 3.8853534611,
				"element": "O" 
			},
			{
				"x": -1.7628235985,
				"y": 2.2961157829,
				"z": 2.7049151618,
				"element": "C" 
			},
			{
				"x": -0.9920835971,
				"y": 1.3527928828,
				"z": 1.7919580576,
				"element": "C" 
			},
			{
				"x": -1.7274844798,
				"y": 0.6067622654,
				"z": 0.9703082588,
				"element": "N" 
			},
			{
				"x": -1.0195714572,
				"y": -0.1648426622,
				"z": 0.1358240726,
				"element": "C" 
			},
			{
				"x": 0.387800095,
				"y": -0.241778159,
				"z": 0.0905148772,
				"element": "C" 
			},
			{
				"x": 0.8866221445,
				"y": -1.1598244805,
				"z": -0.9002392139,
				"element": "C" 
			},
			{
				"x": 2.34928454,
				"y": -1.4114756043,
				"z": -1.1368064032,
				"element": "C" 
			},
			{
				"x": -0.1579150994,
				"y": -1.7535358034,
				"z": -1.5784751901,
				"element": "C" 
			},
			{
				"x": -1.7566579004,
				"y": -1.2205117292,
				"z": -1.0378199442,
				"element": "S" 
			},
			{
				"x": -0.0703400406,
				"y": -2.7443838188,
				"z": -2.6620139885,
				"element": "C" 
			},
			{
				"x": -1.3017798089,
				"y": -3.1135899541,
				"z": -3.1014871259,
				"element": "O" 
			},
			{
				"x": 0.947373531,
				"y": -3.2088047666,
				"z": -3.1420079576,
				"element": "O" 
			},
			{
				"x": 1.0344499492,
				"y": 0.600201459,
				"z": 1.0321038411,
				"element": "C" 
			},
			{
				"x": 2.3732533429,
				"y": 0.5980240391,
				"z": 1.0731915579,
				"element": "O" 
			},
			{
				"x": 3.0061546656,
				"y": 1.4684771076,
				"z": 2.02728929,
				"element": "C" 
			},
			{
				"x": 0.3546684373,
				"y": 1.3813275373,
				"z": 1.8577295309,
				"element": "N" 
			},
			{
				"x": -1.9983066314,
				"y": 1.2300564459,
				"z": 5.1040444382,
				"element": "H" 
			},
			{
				"x": -0.5338292918,
				"y": 2.037768695,
				"z": 5.7257251607,
				"element": "H" 
			},
			{
				"x": -0.3885949926,
				"y": 0.7840577951,
				"z": 4.4686187222,
				"element": "H" 
			},
			{
				"x": -2.7440734269,
				"y": 1.8405801433,
				"z": 2.9066231913,
				"element": "H" 
			},
			{
				"x": -1.9425537771,
				"y": 3.2274167348,
				"z": 2.1529659389,
				"element": "H" 
			},
			{
				"x": 2.8226598469,
				"y": -1.7730300781,
				"z": -0.2181779849,
				"element": "H" 
			},
			{
				"x": 2.4962381481,
				"y": -2.1380851512,
				"z": -1.9323926585,
				"element": "H" 
			},
			{
				"x": 2.8551262447,
				"y": -0.4758729414,
				"z": -1.3963465464,
				"element": "H" 
			},
			{
				"x": -1.1525449851,
				"y": -3.7622565059,
				"z": -3.8086219866,
				"element": "H" 
			},
			{
				"x": 2.7170097548,
				"y": 1.201698373,
				"z": 3.0463575374,
				"element": "H" 
			},
			{
				"x": 4.0758087197,
				"y": 1.3202123047,
				"z": 1.8790449991,
				"element": "H" 
			},
			{
				"x": 2.7299191137,
				"y": 2.5093610545,
				"z": 1.8452185521,
				"element": "H" 
			}
		],
		 "valence_orbital": [ 
			{
				"type": "occ",
				"energy": -0.28175,
				"method": "rhf"
			},
			{
				"type": "occ",
				"energy": -0.26703,
				"method": "rhf"
			},
			{
				"type": "occ",
				"energy": -0.26619,
				"method": "rhf"
			},
			{
				"type": "occ",
				"energy": -0.25894,
				"method": "rhf"
			},
			{
				"type": "occ",
				"energy": -0.23324,
				"method": "rhf"
			},
			{
				"type": "unocc",
				"energy": -0.06816,
				"method": "rhf"
			},
			{
				"type": "unocc",
				"energy": -0.02655,
				"method": "rhf"
			},
			{
				"type": "unocc",
				"energy": -0.0033,
				"method": "rhf"
			},
			{
				"type": "unocc",
				"energy": 0.01818,
				"method": "rhf"
			},
			{
				"type": "unocc",
				"energy": 0.0745,
				"method": "rhf"
			}
		],
		"cosmo_sigma_profile": { 
			"-0.025": 0.0,
			"-0.024": 0.0,
			"-0.023": 0.0,
			"-0.022": 0.0,
			"-0.021": 0.0,
			"-0.02": 0.0,
			"-0.019": 0.141106020713,
			"-0.018": 1.11825341034,
			"-0.017": 0.78899845331,
			"-0.016": 0.656157705918,
			"-0.015": 0.902456198935,
			"-0.014": 0.689076268554,
			"-0.013": 0.491091910042,
			"-0.012": 0.826559697938,
			"-0.011": 1.10912061554,
			"-0.01": 0.665927841454,
			"-0.009": 0.362246622681,
			"-0.008": 0.655519231847,
			"-0.007": 3.09595541745,
			"-0.006": 8.12748063492,
			"-0.005": 15.8961772619,
			"-0.004": 23.5097572919,
			"-0.003": 31.5376840172,
			"-0.002": 32.6982298382,
			"-0.001": 28.4263509018,
			"0.0": 27.2345417568,
			"0.001": 19.3409406035,
			"0.002": 16.2231463221,
			"0.003": 14.6921951555,
			"0.004": 10.9431752491,
			"0.005": 7.73547830673,
			"0.006": 7.18345652353,
			"0.007": 6.05290234206,
			"0.008": 3.77523493753,
			"0.009": 3.73574303472,
			"0.01": 5.88312397124,
			"0.011": 5.76008131416,
			"0.012": 3.30149804787,
			"0.013": 2.76242332404,
			"0.014": 1.09949273546,
			"0.015": 0.48585701793,
			"0.016": 0.115929893964,
			"0.017": 0.0,
			"0.018": 0.0,
			"0.019": 0.0,
			"0.02": 0.0,
			"0.021": 0.0,
			"0.022": 0.0,
			"0.023": 0.0,
			"0.024": 0.0,
			"0.025": 0.0
		}
	}
}
