{
	 "smiles": "CC(=O)NC1C(O)C(O)C(CO)OC1OC1=CC=C(C=C1)[N+]([O-])=O", 
	 "Tm": 537.15, 
	 "num_atms": 42, 
	 "gaussian": { 
		 "optdone": 1, 
		 "sigma_profile": "yes", 
		 "theory": "DFT", 
		 "functional": "B3LYP", 
		 "basiset": "6-31G**", 
		 "properties": { 
			 "R2extent": 10285.2918, 
			 "electric_dipole_moment_norm": 4.61832861758, 
			 "electric_quadrupole_moment_norm": 38.0726809567, 
			 "total_energy": -1255.51075696, 
			 "HOMO_LUMO_gap": 0.16477, 
			 "cosmo_polarized_energy": -30.3, 
			 "cosmo_cavitation_energy": 45.68, 
			 "cosmo_dispersion_energy": -30.86, 
			 "cosmo_repulsion_energy": 2.36, 
			 "cosmo_total_nonelectrostatic_energy": 17.18, 
			 "SMD_solvation_energy": 10.11 
		},
		"coords": [
			{
				"x": 0.1993555106,
				"y": 1.2741463129,
				"z": -3.8835860856,
				"element": "C" 
			},
			{
				"x": 1.6081494026,
				"y": 1.601404667,
				"z": -3.4133153745,
				"element": "C" 
			},
			{
				"x": 2.2961660244,
				"y": 2.4337459626,
				"z": -3.9846119862,
				"element": "O" 
			},
			{
				"x": 2.0828321364,
				"y": 0.9666878817,
				"z": -2.2790593646,
				"element": "N" 
			},
			{
				"x": 1.5815555171,
				"y": -0.2577420696,
				"z": -1.6718337085,
				"element": "C" 
			},
			{
				"x": 2.6865278725,
				"y": -0.8754156232,
				"z": -0.7974188908,
				"element": "C" 
			},
			{
				"x": 3.8767257709,
				"y": -0.9507836703,
				"z": -1.5583628933,
				"element": "O" 
			},
			{
				"x": 2.915906316,
				"y": -0.0600042359,
				"z": 0.4789788807,
				"element": "C" 
			},
			{
				"x": 3.90888462,
				"y": -0.778534376,
				"z": 1.2125483073,
				"element": "O" 
			},
			{
				"x": 1.6040493624,
				"y": 0.0773609241,
				"z": 1.2554950698,
				"element": "C" 
			},
			{
				"x": 1.6942538406,
				"y": 0.9810596465,
				"z": 2.4794434296,
				"element": "C" 
			},
			{
				"x": 0.4707830995,
				"y": 1.048322084,
				"z": 3.179840177,
				"element": "O" 
			},
			{
				"x": 0.6180436533,
				"y": 0.6900054884,
				"z": 0.3963605982,
				"element": "O" 
			},
			{
				"x": 0.3345748805,
				"y": 0.0015833334,
				"z": -0.7910464151,
				"element": "C" 
			},
			{
				"x": -0.2343046201,
				"y": -1.2858189455,
				"z": -0.551311219,
				"element": "O" 
			},
			{
				"x": -1.5160316956,
				"y": -1.3869427591,
				"z": -0.0869285224,
				"element": "C" 
			},
			{
				"x": -2.0396068677,
				"y": -2.6895167744,
				"z": -0.0570430892,
				"element": "C" 
			},
			{
				"x": -3.3363874949,
				"y": -2.909120164,
				"z": 0.3805664446,
				"element": "C" 
			},
			{
				"x": -4.1078789376,
				"y": -1.8178420356,
				"z": 0.7864476685,
				"element": "C" 
			},
			{
				"x": -3.6007253296,
				"y": -0.521266998,
				"z": 0.768774505,
				"element": "C" 
			},
			{
				"x": -2.2961145783,
				"y": -0.3000247292,
				"z": 0.3358816328,
				"element": "C" 
			},
			{
				"x": -5.4806085794,
				"y": -2.042754662,
				"z": 1.2455536153,
				"element": "N" 
			},
			{
				"x": -6.1362713284,
				"y": -1.0600054749,
				"z": 1.5941105684,
				"element": "O" 
			},
			{
				"x": -5.897396765,
				"y": -3.2017310068,
				"z": 1.2541144715,
				"element": "O" 
			},
			{
				"x": -0.5331419871,
				"y": 1.8421123751,
				"z": -3.2989580249,
				"element": "H" 
			},
			{
				"x": 0.1161684334,
				"y": 1.5898158228,
				"z": -4.9235101044,
				"element": "H" 
			},
			{
				"x": -0.052997436,
				"y": 0.2126424117,
				"z": -3.8045144139,
				"element": "H" 
			},
			{
				"x": 3.0830871188,
				"y": 1.1003285489,
				"z": -2.180778799,
				"element": "H" 
			},
			{
				"x": 1.2967902653,
				"y": -0.9941036471,
				"z": -2.4332709276,
				"element": "H" 
			},
			{
				"x": 2.3510595998,
				"y": -1.8773742063,
				"z": -0.491933893,
				"element": "H" 
			},
			{
				"x": 4.5698438684,
				"y": -1.2075333916,
				"z": -0.9316172469,
				"element": "H" 
			},
			{
				"x": 3.2791408454,
				"y": 0.9411953912,
				"z": 0.2065698098,
				"element": "H" 
			},
			{
				"x": 4.3654016029,
				"y": -0.1705056989,
				"z": 1.8062979178,
				"element": "H" 
			},
			{
				"x": 1.2562000249,
				"y": -0.9150132343,
				"z": 1.5688378082,
				"element": "H" 
			},
			{
				"x": 2.4324346134,
				"y": 0.5679241318,
				"z": 3.1745158219,
				"element": "H" 
			},
			{
				"x": 2.0408992544,
				"y": 1.9785600108,
				"z": 2.1608704345,
				"element": "H" 
			},
			{
				"x": -0.1971728144,
				"y": 1.3298045384,
				"z": 2.5398747567,
				"element": "H" 
			},
			{
				"x": -0.3878671795,
				"y": 0.6287551856,
				"z": -1.3193378514,
				"element": "H" 
			},
			{
				"x": -1.4123664808,
				"y": -3.5099946736,
				"z": -0.387781764,
				"element": "H" 
			},
			{
				"x": -3.7642818976,
				"y": -3.9032600712,
				"z": 0.4098269928,
				"element": "H" 
			},
			{
				"x": -4.2278830484,
				"y": 0.2967820479,
				"z": 1.1005935357,
				"element": "H" 
			},
			{
				"x": -1.889896593,
				"y": 0.7029516828,
				"z": 0.3505181282,
				"element": "H" 
			}
		],
		 "valence_orbital": [ 
			{
				"type": "occ",
				"energy": -0.28667,
				"method": "rhf"
			},
			{
				"type": "occ",
				"energy": -0.2813,
				"method": "rhf"
			},
			{
				"type": "occ",
				"energy": -0.26415,
				"method": "rhf"
			},
			{
				"type": "occ",
				"energy": -0.26236,
				"method": "rhf"
			},
			{
				"type": "occ",
				"energy": -0.25208,
				"method": "rhf"
			},
			{
				"type": "unocc",
				"energy": -0.08731,
				"method": "rhf"
			},
			{
				"type": "unocc",
				"energy": -0.03595,
				"method": "rhf"
			},
			{
				"type": "unocc",
				"energy": 0.00254,
				"method": "rhf"
			},
			{
				"type": "unocc",
				"energy": 0.0118,
				"method": "rhf"
			},
			{
				"type": "unocc",
				"energy": 0.02914,
				"method": "rhf"
			}
		],
		"cosmo_sigma_profile": { 
			"-0.025": 0.0,
			"-0.024": 0.0,
			"-0.023": 0.0,
			"-0.022": 0.0,
			"-0.021": 0.0,
			"-0.02": 0.0,
			"-0.019": 0.0,
			"-0.018": 0.0,
			"-0.017": 0.261104751831,
			"-0.016": 1.23062359672,
			"-0.015": 0.970077899565,
			"-0.014": 1.25584162642,
			"-0.013": 2.49805875974,
			"-0.012": 1.73387224078,
			"-0.011": 2.12316760436,
			"-0.01": 2.51065090031,
			"-0.009": 5.53627772182,
			"-0.008": 12.1741460091,
			"-0.007": 19.2267162219,
			"-0.006": 18.8718390486,
			"-0.005": 22.6738553372,
			"-0.004": 25.6373558208,
			"-0.003": 24.2392630426,
			"-0.002": 23.7225862508,
			"-0.001": 25.0644211085,
			"0.0": 23.5568740473,
			"0.001": 22.8488264591,
			"0.002": 17.1251995291,
			"0.003": 9.77648567894,
			"0.004": 9.15861125581,
			"0.005": 10.2893032276,
			"0.006": 8.36215685392,
			"0.007": 10.497821928,
			"0.008": 15.6677994811,
			"0.009": 8.20099388708,
			"0.01": 7.37212387752,
			"0.011": 5.94114598348,
			"0.012": 5.82152370651,
			"0.013": 7.19037244701,
			"0.014": 6.7369648282,
			"0.015": 0.964945347397,
			"0.016": 0.0,
			"0.017": 0.0,
			"0.018": 0.0,
			"0.019": 0.0,
			"0.02": 0.0,
			"0.021": 0.0,
			"0.022": 0.0,
			"0.023": 0.0,
			"0.024": 0.0,
			"0.025": 0.0
		}
	}
}
