{
	 "smiles": "ClC1=C(Br)C=C2CC(=O)NC2=C1", 
	 "Tm": 493.15, 
	 "num_atms": 17, 
	 "gaussian": { 
		 "optdone": 1, 
		 "sigma_profile": "yes", 
		 "theory": "DFT", 
		 "functional": "B3LYP", 
		 "basiset": "6-31G**", 
		 "properties": { 
			 "R2extent": 4217.8975, 
			 "electric_dipole_moment_norm": 0.282490106021, 
			 "electric_quadrupole_moment_norm": 19.4365944908, 
			 "total_energy": -3469.45235327, 
			 "HOMO_LUMO_gap": 0.19265, 
			 "cosmo_polarized_energy": -12.51, 
			 "cosmo_cavitation_energy": 25.56, 
			 "cosmo_dispersion_energy": -19.72, 
			 "cosmo_repulsion_energy": 1.57, 
			 "cosmo_total_nonelectrostatic_energy": 7.41, 
			 "SMD_solvation_energy": 3.4 
		},
		"coords": [
			{
				"x": 1.5304101598,
				"y": 1.5523219819,
				"z": -2.0545018644,
				"element": "Cl" 
			},
			{
				"x": 0.9936120002,
				"y": 0.4021503034,
				"z": -0.8542036611,
				"element": "C" 
			},
			{
				"x": 1.3308000925,
				"y": -0.9539188304,
				"z": -0.9359043616,
				"element": "C" 
			},
			{
				"x": 2.3950201435,
				"y": -1.6393543737,
				"z": -2.3561086369,
				"element": "Br" 
			},
			{
				"x": 0.8814145447,
				"y": -1.8496424483,
				"z": 0.0470940493,
				"element": "C" 
			},
			{
				"x": 0.1058730836,
				"y": -1.3841636482,
				"z": 1.0931855209,
				"element": "C" 
			},
			{
				"x": -0.5144911616,
				"y": -2.082347224,
				"z": 2.2761109708,
				"element": "C" 
			},
			{
				"x": -1.2385731129,
				"y": -0.9482890855,
				"z": 3.0264478699,
				"element": "C" 
			},
			{
				"x": -1.8862336664,
				"y": -1.0184950507,
				"z": 4.0487210288,
				"element": "O" 
			},
			{
				"x": -1.0063676441,
				"y": 0.2118156348,
				"z": 2.2934031741,
				"element": "N" 
			},
			{
				"x": -0.2238774176,
				"y": -0.017916231,
				"z": 1.1602306594,
				"element": "C" 
			},
			{
				"x": 0.207943724,
				"y": 0.8869906321,
				"z": 0.2012796573,
				"element": "C" 
			},
			{
				"x": 1.1513810071,
				"y": -2.896998426,
				"z": -0.0307980741,
				"element": "H" 
			},
			{
				"x": 0.2153359049,
				"y": -2.5504961823,
				"z": 2.9457884867,
				"element": "H" 
			},
			{
				"x": -1.2405790571,
				"y": -2.8556585997,
				"z": 2.0021401688,
				"element": "H" 
			},
			{
				"x": -1.379500283,
				"y": 1.1048422606,
				"z": 2.5804292779,
				"element": "H" 
			},
			{
				"x": -0.0422683178,
				"y": 1.940559287,
				"z": 0.2465857343,
				"element": "H" 
			}
		],
		 "valence_orbital": [ 
			{
				"type": "occ",
				"energy": -0.29348,
				"method": "rhf"
			},
			{
				"type": "occ",
				"energy": -0.29042,
				"method": "rhf"
			},
			{
				"type": "occ",
				"energy": -0.27081,
				"method": "rhf"
			},
			{
				"type": "occ",
				"energy": -0.26636,
				"method": "rhf"
			},
			{
				"type": "occ",
				"energy": -0.22897,
				"method": "rhf"
			},
			{
				"type": "unocc",
				"energy": -0.03632,
				"method": "rhf"
			},
			{
				"type": "unocc",
				"energy": -0.02717,
				"method": "rhf"
			},
			{
				"type": "unocc",
				"energy": -0.01581,
				"method": "rhf"
			},
			{
				"type": "unocc",
				"energy": 0.01642,
				"method": "rhf"
			},
			{
				"type": "unocc",
				"energy": 0.04599,
				"method": "rhf"
			}
		],
		"cosmo_sigma_profile": { 
			"-0.025": 0.0,
			"-0.024": 0.0,
			"-0.023": 0.0,
			"-0.022": 0.0,
			"-0.021": 0.0,
			"-0.02": 0.0,
			"-0.019": 0.0,
			"-0.018": 0.0,
			"-0.017": 0.0367895026629,
			"-0.016": 1.28364412753,
			"-0.015": 1.33270143761,
			"-0.014": 1.21676842312,
			"-0.013": 1.30933005901,
			"-0.012": 1.18823162614,
			"-0.011": 1.0348941556,
			"-0.01": 1.53991324227,
			"-0.009": 1.91810523712,
			"-0.008": 5.03669120012,
			"-0.007": 8.9640752771,
			"-0.006": 8.80776794852,
			"-0.005": 11.2667564291,
			"-0.004": 9.98009158641,
			"-0.003": 10.2414243,
			"-0.002": 9.81954382165,
			"-0.001": 11.057607968,
			"0.0": 16.9731715624,
			"0.001": 23.0089359857,
			"0.002": 22.1089178155,
			"0.003": 15.1242757288,
			"0.004": 18.2089179856,
			"0.005": 8.59641720215,
			"0.006": 2.60151020531,
			"0.007": 1.21972838325,
			"0.008": 1.3061399509,
			"0.009": 1.28507697488,
			"0.01": 1.54928236796,
			"0.011": 2.63587795554,
			"0.012": 4.72414027167,
			"0.013": 4.74605896289,
			"0.014": 0.562839161636,
			"0.015": 0.0,
			"0.016": 0.0,
			"0.017": 0.0,
			"0.018": 0.0,
			"0.019": 0.0,
			"0.02": 0.0,
			"0.021": 0.0,
			"0.022": 0.0,
			"0.023": 0.0,
			"0.024": 0.0,
			"0.025": 0.0
		}
	}
}
