{
	 "smiles": "O=P(C1CCCCC1)(C1=CC=CC=C1)C1=CC=CC=C1", 
	 "Tm": 439.65, 
	 "num_atms": 41, 
	 "gaussian": { 
		 "optdone": 1, 
		 "sigma_profile": "yes", 
		 "theory": "DFT", 
		 "functional": "B3LYP", 
		 "basiset": "6-31G**", 
		 "properties": { 
			 "R2extent": 6257.8998, 
			 "electric_dipole_moment_norm": 4.18938749342, 
			 "electric_quadrupole_moment_norm": 17.5160161427, 
			 "total_energy": -1115.18058616, 
			 "HOMO_LUMO_gap": 0.21582, 
			 "cosmo_polarized_energy": -15.57, 
			 "cosmo_cavitation_energy": 41.88, 
			 "cosmo_dispersion_energy": -28.82, 
			 "cosmo_repulsion_energy": 2.19, 
			 "cosmo_total_nonelectrostatic_energy": 15.26, 
			 "SMD_solvation_energy": 6.91 
		},
		"coords": [
			{
				"x": 0.9536320162,
				"y": -1.7092052682,
				"z": 2.1774001325,
				"element": "O" 
			},
			{
				"x": 0.9648873012,
				"y": -0.6076869778,
				"z": 1.1497245667,
				"element": "P" 
			},
			{
				"x": -0.4165678428,
				"y": 0.5964741341,
				"z": 1.4323058124,
				"element": "C" 
			},
			{
				"x": -0.5189036141,
				"y": 1.7981444975,
				"z": 0.4431472782,
				"element": "C" 
			},
			{
				"x": -1.7118885827,
				"y": 1.6618250688,
				"z": -0.5140374838,
				"element": "C" 
			},
			{
				"x": -3.0526604292,
				"y": 1.5924894029,
				"z": 0.2476365315,
				"element": "C" 
			},
			{
				"x": -2.9340994123,
				"y": 0.7982738165,
				"z": 1.574261432,
				"element": "C" 
			},
			{
				"x": -1.7528171025,
				"y": -0.1812604946,
				"z": 1.5454821706,
				"element": "C" 
			},
			{
				"x": 0.767498135,
				"y": -1.284293549,
				"z": -0.5455141843,
				"element": "C" 
			},
			{
				"x": 1.0253735006,
				"y": -0.5653328273,
				"z": -1.7238772697,
				"element": "C" 
			},
			{
				"x": 0.8129227699,
				"y": -1.1553346316,
				"z": -2.9704943834,
				"element": "C" 
			},
			{
				"x": 0.3446855532,
				"y": -2.4691191976,
				"z": -3.0530160373,
				"element": "C" 
			},
			{
				"x": 0.0956937034,
				"y": -3.1945688181,
				"z": -1.886782777,
				"element": "C" 
			},
			{
				"x": 0.3072638801,
				"y": -2.6063602225,
				"z": -0.6386134231,
				"element": "C" 
			},
			{
				"x": 2.5170389934,
				"y": 0.3698479642,
				"z": 1.1063095264,
				"element": "C" 
			},
			{
				"x": 2.6653328436,
				"y": 1.5445331415,
				"z": 1.8600249426,
				"element": "C" 
			},
			{
				"x": 3.8898075769,
				"y": 2.2122634421,
				"z": 1.9040109957,
				"element": "C" 
			},
			{
				"x": 4.9860914744,
				"y": 1.7104826229,
				"z": 1.2010049445,
				"element": "C" 
			},
			{
				"x": 4.8549430647,
				"y": 0.5364936094,
				"z": 0.456641971,
				"element": "C" 
			},
			{
				"x": 3.630347589,
				"y": -0.1292109216,
				"z": 0.4105422818,
				"element": "C" 
			},
			{
				"x": -0.1959991682,
				"y": 0.9861626235,
				"z": 2.4349857116,
				"element": "H" 
			},
			{
				"x": 0.4081286015,
				"y": 1.9287532312,
				"z": -0.1246256554,
				"element": "H" 
			},
			{
				"x": -0.6355749498,
				"y": 2.721722097,
				"z": 1.0245348532,
				"element": "H" 
			},
			{
				"x": -1.5797478948,
				"y": 0.7587957047,
				"z": -1.1206355902,
				"element": "H" 
			},
			{
				"x": -1.7220833346,
				"y": 2.5019370986,
				"z": -1.217921292,
				"element": "H" 
			},
			{
				"x": -3.8074455556,
				"y": 1.1323325058,
				"z": -0.4006308888,
				"element": "H" 
			},
			{
				"x": -3.4107476734,
				"y": 2.6069843075,
				"z": 0.4604674087,
				"element": "H" 
			},
			{
				"x": -2.7927292838,
				"y": 1.4910047952,
				"z": 2.4143567323,
				"element": "H" 
			},
			{
				"x": -3.8656513918,
				"y": 0.2596508433,
				"z": 1.7798943492,
				"element": "H" 
			},
			{
				"x": -1.8692579762,
				"y": -0.8658457531,
				"z": 0.6956170111,
				"element": "H" 
			},
			{
				"x": -1.7300332334,
				"y": -0.8052890361,
				"z": 2.442429707,
				"element": "H" 
			},
			{
				"x": 1.4109652643,
				"y": 0.4484279978,
				"z": -1.6737071449,
				"element": "H" 
			},
			{
				"x": 1.0190701708,
				"y": -0.5924586967,
				"z": -3.8764871378,
				"element": "H" 
			},
			{
				"x": 0.182233533,
				"y": -2.9271645029,
				"z": -4.0246714545,
				"element": "H" 
			},
			{
				"x": -0.2582827172,
				"y": -4.2197626435,
				"z": -1.9479465183,
				"element": "H" 
			},
			{
				"x": 0.1360227677,
				"y": -3.1625527725,
				"z": 0.2780545581,
				"element": "H" 
			},
			{
				"x": 1.8270135693,
				"y": 1.9457298022,
				"z": 2.4208075683,
				"element": "H" 
			},
			{
				"x": 3.9870816494,
				"y": 3.1225093633,
				"z": 2.4887028109,
				"element": "H" 
			},
			{
				"x": 5.9393812607,
				"y": 2.2301330759,
				"z": 1.2356872585,
				"element": "H" 
			},
			{
				"x": 5.7063414132,
				"y": 0.1381633317,
				"z": -0.0877396571,
				"element": "H" 
			},
			{
				"x": 3.5387335309,
				"y": -1.0423881644,
				"z": -0.169429657,
				"element": "H" 
			}
		],
		 "valence_orbital": [ 
			{
				"type": "occ",
				"energy": -0.26063,
				"method": "rhf"
			},
			{
				"type": "occ",
				"energy": -0.25742,
				"method": "rhf"
			},
			{
				"type": "occ",
				"energy": -0.25444,
				"method": "rhf"
			},
			{
				"type": "occ",
				"energy": -0.24778,
				"method": "rhf"
			},
			{
				"type": "occ",
				"energy": -0.24189,
				"method": "rhf"
			},
			{
				"type": "unocc",
				"energy": -0.02607,
				"method": "rhf"
			},
			{
				"type": "unocc",
				"energy": -0.0234,
				"method": "rhf"
			},
			{
				"type": "unocc",
				"energy": -0.01377,
				"method": "rhf"
			},
			{
				"type": "unocc",
				"energy": -0.00479,
				"method": "rhf"
			},
			{
				"type": "unocc",
				"energy": 0.06708,
				"method": "rhf"
			}
		],
		"cosmo_sigma_profile": { 
			"-0.025": 0.0,
			"-0.024": 0.0,
			"-0.023": 0.0,
			"-0.022": 0.0,
			"-0.021": 0.0,
			"-0.02": 0.0,
			"-0.019": 0.0,
			"-0.018": 0.0,
			"-0.017": 0.0,
			"-0.016": 0.0,
			"-0.015": 0.0,
			"-0.014": 0.0,
			"-0.013": 0.0,
			"-0.012": 0.0,
			"-0.011": 0.0,
			"-0.01": 0.0,
			"-0.009": 0.0101766107217,
			"-0.008": 0.431838980365,
			"-0.007": 4.0289818067,
			"-0.006": 18.3556763704,
			"-0.005": 22.0705192838,
			"-0.004": 24.6878453951,
			"-0.003": 25.2402696605,
			"-0.002": 36.3374022849,
			"-0.001": 39.368885401,
			"0.0": 38.4682014729,
			"0.001": 30.8682044656,
			"0.002": 17.8169760156,
			"0.003": 16.7699374711,
			"0.004": 20.4513336975,
			"0.005": 10.6515735357,
			"0.006": 1.61337074629,
			"0.007": 1.55469210453,
			"0.008": 1.91209773469,
			"0.009": 1.6280432803,
			"0.01": 1.16744675209,
			"0.011": 1.21260254565,
			"0.012": 0.685556152984,
			"0.013": 1.28146362255,
			"0.014": 2.10636755976,
			"0.015": 1.38881387589,
			"0.016": 4.3354123893,
			"0.017": 3.77669829484,
			"0.018": 0.308299148344,
			"0.019": 0.0,
			"0.02": 0.0,
			"0.021": 0.0,
			"0.022": 0.0,
			"0.023": 0.0,
			"0.024": 0.0,
			"0.025": 0.0
		}
	}
}
