{
	 "smiles": "CC1=NOC2=C1C=C(N)C=N2", 
	 "Tm": 453.15, 
	 "num_atms": 18, 
	 "gaussian": { 
		 "optdone": 1, 
		 "sigma_profile": "yes", 
		 "theory": "DFT", 
		 "functional": "B3LYP", 
		 "basiset": "6-31G**", 
		 "properties": { 
			 "R2extent": 1753.8133, 
			 "electric_dipole_moment_norm": 6.02598965565, 
			 "electric_quadrupole_moment_norm": 11.6536965333, 
			 "total_energy": -510.398826582, 
			 "HOMO_LUMO_gap": 0.16425, 
			 "cosmo_polarized_energy": -16.09, 
			 "cosmo_cavitation_energy": 22.53, 
			 "cosmo_dispersion_energy": -16.96, 
			 "cosmo_repulsion_energy": 1.35, 
			 "cosmo_total_nonelectrostatic_energy": 6.93, 
			 "SMD_solvation_energy": 2.21 
		},
		"coords": [
			{
				"x": 1.7190669968,
				"y": -1.6638568156,
				"z": -1.404627097,
				"element": "C" 
			},
			{
				"x": 1.1424967401,
				"y": -1.1883594902,
				"z": -0.1094380217,
				"element": "C" 
			},
			{
				"x": 1.5918620546,
				"y": -1.6625506577,
				"z": 1.0282017517,
				"element": "N" 
			},
			{
				"x": 0.8785943462,
				"y": -1.04600163,
				"z": 2.0703660376,
				"element": "O" 
			},
			{
				"x": -0.0113139315,
				"y": -0.1865909444,
				"z": 1.5103823784,
				"element": "C" 
			},
			{
				"x": 0.1000939087,
				"y": -0.2245384092,
				"z": 0.1165362743,
				"element": "C" 
			},
			{
				"x": -0.7442854619,
				"y": 0.5959615477,
				"z": -0.6382348854,
				"element": "C" 
			},
			{
				"x": -1.6434826474,
				"y": 1.4022886398,
				"z": 0.0676756544,
				"element": "C" 
			},
			{
				"x": -2.4908538716,
				"y": 2.3058291575,
				"z": -0.5778703477,
				"element": "N" 
			},
			{
				"x": -1.642056188,
				"y": 1.3348699982,
				"z": 1.48826059,
				"element": "C" 
			},
			{
				"x": -0.8458898003,
				"y": 0.5565330991,
				"z": 2.2204699609,
				"element": "N" 
			},
			{
				"x": 2.500030566,
				"y": -2.4028702406,
				"z": -1.2154723518,
				"element": "H" 
			},
			{
				"x": 0.9469076561,
				"y": -2.1222064977,
				"z": -2.0322713206,
				"element": "H" 
			},
			{
				"x": 2.1531437957,
				"y": -0.8310611474,
				"z": -1.968694358,
				"element": "H" 
			},
			{
				"x": -0.7079799612,
				"y": 0.6167746685,
				"z": -1.7241325141,
				"element": "H" 
			},
			{
				"x": -2.7198791791,
				"y": 2.0711485388,
				"z": -1.533980064,
				"element": "H" 
			},
			{
				"x": -3.3142651689,
				"y": 2.5682245481,
				"z": -0.0531875499,
				"element": "H" 
			},
			{
				"x": -2.3388898542,
				"y": 1.9634056351,
				"z": 2.0423158631,
				"element": "H" 
			}
		],
		 "valence_orbital": [ 
			{
				"type": "occ",
				"energy": -0.30856,
				"method": "rhf"
			},
			{
				"type": "occ",
				"energy": -0.3061,
				"method": "rhf"
			},
			{
				"type": "occ",
				"energy": -0.27269,
				"method": "rhf"
			},
			{
				"type": "occ",
				"energy": -0.2606,
				"method": "rhf"
			},
			{
				"type": "occ",
				"energy": -0.21764,
				"method": "rhf"
			},
			{
				"type": "unocc",
				"energy": -0.05339,
				"method": "rhf"
			},
			{
				"type": "unocc",
				"energy": 0.00812,
				"method": "rhf"
			},
			{
				"type": "unocc",
				"energy": 0.03712,
				"method": "rhf"
			},
			{
				"type": "unocc",
				"energy": 0.06639,
				"method": "rhf"
			},
			{
				"type": "unocc",
				"energy": 0.0933,
				"method": "rhf"
			}
		],
		"cosmo_sigma_profile": { 
			"-0.025": 0.0,
			"-0.024": 0.0,
			"-0.023": 0.0,
			"-0.022": 0.0,
			"-0.021": 0.0,
			"-0.02": 0.0,
			"-0.019": 0.0,
			"-0.018": 0.0,
			"-0.017": 0.0,
			"-0.016": 0.0,
			"-0.015": 0.0,
			"-0.014": 0.0144014880595,
			"-0.013": 2.08858458154,
			"-0.012": 3.28569198492,
			"-0.011": 3.09585545039,
			"-0.01": 4.02645972091,
			"-0.009": 4.07074205771,
			"-0.008": 4.43863287555,
			"-0.007": 3.95666069807,
			"-0.006": 8.11483893761,
			"-0.005": 12.8093823143,
			"-0.004": 9.58565921537,
			"-0.003": 10.0079156441,
			"-0.002": 10.6239449034,
			"-0.001": 15.0985514143,
			"0.0": 12.1940514413,
			"0.001": 12.9056896064,
			"0.002": 9.3326269173,
			"0.003": 6.4464593492,
			"0.004": 4.93722730827,
			"0.005": 3.48874840997,
			"0.006": 4.00668402802,
			"0.007": 6.37263647859,
			"0.008": 8.70670474863,
			"0.009": 6.04317687561,
			"0.01": 3.26910762748,
			"0.011": 2.25327961509,
			"0.012": 3.34683830911,
			"0.013": 2.83058925707,
			"0.014": 2.06266741338,
			"0.015": 0.652431786298,
			"0.016": 0.0,
			"0.017": 0.0,
			"0.018": 0.0,
			"0.019": 0.0,
			"0.02": 0.0,
			"0.021": 0.0,
			"0.022": 0.0,
			"0.023": 0.0,
			"0.024": 0.0,
			"0.025": 0.0
		}
	}
}
