{
	 "smiles": "CN1C=CC2=CC(N)=CC=C12", 
	 "Tm": 375.15, 
	 "num_atms": 21, 
	 "gaussian": { 
		 "optdone": 1, 
		 "sigma_profile": "yes", 
		 "theory": "DFT", 
		 "functional": "B3LYP", 
		 "basiset": "6-31G**", 
		 "properties": { 
			 "R2extent": 2521.2913, 
			 "electric_dipole_moment_norm": 1.85863191353, 
			 "electric_quadrupole_moment_norm": 12.8049098158, 
			 "total_energy": -458.488108604, 
			 "HOMO_LUMO_gap": 0.17673, 
			 "cosmo_polarized_energy": -10.89, 
			 "cosmo_cavitation_energy": 24.17, 
			 "cosmo_dispersion_energy": -18.04, 
			 "cosmo_repulsion_energy": 1.43, 
			 "cosmo_total_nonelectrostatic_energy": 7.56, 
			 "SMD_solvation_energy": 4.19 
		},
		"coords": [
			{
				"x": 1.8224771489,
				"y": -1.9556155764,
				"z": -3.3039629667,
				"element": "C" 
			},
			{
				"x": 1.3404192349,
				"y": -2.0454589159,
				"z": -1.9436039441,
				"element": "N" 
			},
			{
				"x": 1.9359144707,
				"y": -2.7389667036,
				"z": -0.9072579413,
				"element": "C" 
			},
			{
				"x": 1.2043267749,
				"y": -2.5957523259,
				"z": 0.244775654,
				"element": "C" 
			},
			{
				"x": 0.0799972296,
				"y": -1.7623640655,
				"z": -0.0744429577,
				"element": "C" 
			},
			{
				"x": -1.0107744364,
				"y": -1.2670888864,
				"z": 0.6603800963,
				"element": "C" 
			},
			{
				"x": -1.9573127414,
				"y": -0.4593377098,
				"z": 0.0286542909,
				"element": "C" 
			},
			{
				"x": -3.0252490482,
				"y": 0.1061564078,
				"z": 0.7536991451,
				"element": "N" 
			},
			{
				"x": -1.8139794383,
				"y": -0.1481266865,
				"z": -1.3472568982,
				"element": "C" 
			},
			{
				"x": -0.7480430479,
				"y": -0.6289885071,
				"z": -2.0964064601,
				"element": "C" 
			},
			{
				"x": 0.1958373985,
				"y": -1.4353268801,
				"z": -1.4534129266,
				"element": "C" 
			},
			{
				"x": 1.0846138533,
				"y": -2.3501297036,
				"z": -4.0127255738,
				"element": "H" 
			},
			{
				"x": 2.7383521255,
				"y": -2.5421400077,
				"z": -3.3985397026,
				"element": "H" 
			},
			{
				"x": 2.0459622906,
				"y": -0.9177889176,
				"z": -3.578812236,
				"element": "H" 
			},
			{
				"x": 2.8512920361,
				"y": -3.2875207429,
				"z": -1.0833262294,
				"element": "H" 
			},
			{
				"x": 1.4415259658,
				"y": -3.0318197832,
				"z": 1.2047760839,
				"element": "H" 
			},
			{
				"x": -1.1168639077,
				"y": -1.5060268149,
				"z": 1.7161358949,
				"element": "H" 
			},
			{
				"x": -3.2642469014,
				"y": -0.4109300192,
				"z": 1.5903024547,
				"element": "H" 
			},
			{
				"x": -3.8534158419,
				"y": 0.2701483498,
				"z": 0.1953570134,
				"element": "H" 
			},
			{
				"x": -2.5561101984,
				"y": 0.4901520405,
				"z": -1.8202820274,
				"element": "H" 
			},
			{
				"x": -0.6611229672,
				"y": -0.3791745517,
				"z": -3.1498507692,
				"element": "H" 
			}
		],
		 "valence_orbital": [ 
			{
				"type": "occ",
				"energy": -0.32359,
				"method": "rhf"
			},
			{
				"type": "occ",
				"energy": -0.2744,
				"method": "rhf"
			},
			{
				"type": "occ",
				"energy": -0.25581,
				"method": "rhf"
			},
			{
				"type": "occ",
				"energy": -0.19263,
				"method": "rhf"
			},
			{
				"type": "occ",
				"energy": -0.17519,
				"method": "rhf"
			},
			{
				"type": "unocc",
				"energy": 0.00154,
				"method": "rhf"
			},
			{
				"type": "unocc",
				"energy": 0.0481,
				"method": "rhf"
			},
			{
				"type": "unocc",
				"energy": 0.08202,
				"method": "rhf"
			},
			{
				"type": "unocc",
				"energy": 0.09359,
				"method": "rhf"
			},
			{
				"type": "unocc",
				"energy": 0.09523,
				"method": "rhf"
			}
		],
		"cosmo_sigma_profile": { 
			"-0.025": 0.0,
			"-0.024": 0.0,
			"-0.023": 0.0,
			"-0.022": 0.0,
			"-0.021": 0.0,
			"-0.02": 0.0,
			"-0.019": 0.0,
			"-0.018": 0.0,
			"-0.017": 0.0,
			"-0.016": 0.0,
			"-0.015": 0.0,
			"-0.014": 0.0,
			"-0.013": 0.0,
			"-0.012": 0.506372171092,
			"-0.011": 2.47895456355,
			"-0.01": 2.4085510647,
			"-0.009": 2.97355339078,
			"-0.008": 4.14491580302,
			"-0.007": 6.43435138044,
			"-0.006": 7.41197980395,
			"-0.005": 16.1220402678,
			"-0.004": 18.1992289032,
			"-0.003": 16.3107269593,
			"-0.002": 16.3021917021,
			"-0.001": 9.30229347785,
			"0.0": 8.45814599537,
			"0.001": 7.80758772417,
			"0.002": 6.7921765599,
			"0.003": 6.5318442467,
			"0.004": 8.1895847781,
			"0.005": 9.30688433159,
			"0.006": 10.8835889354,
			"0.007": 15.0546215805,
			"0.008": 10.259665207,
			"0.009": 0.499236828149,
			"0.01": 0.46622165564,
			"0.011": 1.3717224828,
			"0.012": 0.740265492714,
			"0.013": 1.06645924357,
			"0.014": 0.35936247965,
			"0.015": 0.615017775031,
			"0.016": 0.788252733647,
			"0.017": 0.0650075153218,
			"0.018": 0.0,
			"0.019": 0.0,
			"0.02": 0.0,
			"0.021": 0.0,
			"0.022": 0.0,
			"0.023": 0.0,
			"0.024": 0.0,
			"0.025": 0.0
		}
	}
}
