{
	 "smiles": "CC1=CC=C(C=C1)C1NCC(CCl)O1", 
	 "Tm": 335.15, 
	 "num_atms": 28, 
	 "gaussian": { 
		 "optdone": 1, 
		 "sigma_profile": "yes", 
		 "theory": "DFT", 
		 "functional": "B3LYP", 
		 "basiset": "6-31G**", 
		 "properties": { 
			 "R2extent": 4439.8434, 
			 "electric_dipole_moment_norm": 2.80967956536, 
			 "electric_quadrupole_moment_norm": 15.8048665018, 
			 "total_energy": -1017.7725401, 
			 "HOMO_LUMO_gap": 0.23239, 
			 "cosmo_polarized_energy": -11.2, 
			 "cosmo_cavitation_energy": 31.75, 
			 "cosmo_dispersion_energy": -22.85, 
			 "cosmo_repulsion_energy": 1.83, 
			 "cosmo_total_nonelectrostatic_energy": 10.73, 
			 "SMD_solvation_energy": 2.67 
		},
		"coords": [
			{
				"x": 3.9292874566,
				"y": 1.0227734322,
				"z": 2.9688717619,
				"element": "C" 
			},
			{
				"x": 2.737210286,
				"y": 0.5737121393,
				"z": 2.1566108763,
				"element": "C" 
			},
			{
				"x": 1.6670505226,
				"y": 1.4417286939,
				"z": 1.9026733656,
				"element": "C" 
			},
			{
				"x": 0.5782190011,
				"y": 1.0399498442,
				"z": 1.1289546384,
				"element": "C" 
			},
			{
				"x": 0.5323405683,
				"y": -0.2474981414,
				"z": 0.5825698784,
				"element": "C" 
			},
			{
				"x": 1.5932520083,
				"y": -1.1245841783,
				"z": 0.8369157602,
				"element": "C" 
			},
			{
				"x": 2.6781416199,
				"y": -0.7163482086,
				"z": 1.6125867859,
				"element": "C" 
			},
			{
				"x": -0.6832188856,
				"y": -0.7122213615,
				"z": -0.2128378091,
				"element": "C" 
			},
			{
				"x": -1.2753789543,
				"y": 0.362432796,
				"z": -0.9959979694,
				"element": "N" 
			},
			{
				"x": -0.4984778432,
				"y": 0.3275803968,
				"z": -2.2412567023,
				"element": "C" 
			},
			{
				"x": -0.1238413621,
				"y": -1.1736873097,
				"z": -2.4282079162,
				"element": "C" 
			},
			{
				"x": 1.31227982,
				"y": -1.3380661002,
				"z": -2.9039882217,
				"element": "C" 
			},
			{
				"x": 1.7421438882,
				"y": -3.0678280157,
				"z": -3.2420170028,
				"element": "Cl" 
			},
			{
				"x": -0.3347832279,
				"y": -1.7611955626,
				"z": -1.1431629813,
				"element": "O" 
			},
			{
				"x": 4.7020516779,
				"y": 1.4671198007,
				"z": 2.3286478365,
				"element": "H" 
			},
			{
				"x": 4.3914659302,
				"y": 0.1844757502,
				"z": 3.4990268185,
				"element": "H" 
			},
			{
				"x": 3.6483200009,
				"y": 1.7783873473,
				"z": 3.7088477457,
				"element": "H" 
			},
			{
				"x": 1.6861478485,
				"y": 2.4475802059,
				"z": 2.3161705887,
				"element": "H" 
			},
			{
				"x": -0.2413195623,
				"y": 1.7245099265,
				"z": 0.9347348865,
				"element": "H" 
			},
			{
				"x": 1.563835015,
				"y": -2.1258637117,
				"z": 0.4194211154,
				"element": "H" 
			},
			{
				"x": 3.4927694534,
				"y": -1.4124273705,
				"z": 1.798790595,
				"element": "H" 
			},
			{
				"x": -1.4336020707,
				"y": -1.1329884076,
				"z": 0.4667656626,
				"element": "H" 
			},
			{
				"x": -2.2371626701,
				"y": 0.1041968725,
				"z": -1.206344257,
				"element": "H" 
			},
			{
				"x": 0.4034598777,
				"y": 0.9384122877,
				"z": -2.1202198806,
				"element": "H" 
			},
			{
				"x": -1.0734638813,
				"y": 0.7315062312,
				"z": -3.0771853501,
				"element": "H" 
			},
			{
				"x": -0.7981554102,
				"y": -1.6664479423,
				"z": -3.1404649239,
				"element": "H" 
			},
			{
				"x": 2.0110524098,
				"y": -0.9819014736,
				"z": -2.146229386,
				"element": "H" 
			},
			{
				"x": 1.4714764832,
				"y": -0.7948079406,
				"z": -3.8385759153,
				"element": "H" 
			}
		],
		 "valence_orbital": [ 
			{
				"type": "occ",
				"energy": -0.28988,
				"method": "rhf"
			},
			{
				"type": "occ",
				"energy": -0.26309,
				"method": "rhf"
			},
			{
				"type": "occ",
				"energy": -0.25627,
				"method": "rhf"
			},
			{
				"type": "occ",
				"energy": -0.2448,
				"method": "rhf"
			},
			{
				"type": "occ",
				"energy": -0.23425,
				"method": "rhf"
			},
			{
				"type": "unocc",
				"energy": -0.00186,
				"method": "rhf"
			},
			{
				"type": "unocc",
				"energy": 0.0012,
				"method": "rhf"
			},
			{
				"type": "unocc",
				"energy": 0.02867,
				"method": "rhf"
			},
			{
				"type": "unocc",
				"energy": 0.07198,
				"method": "rhf"
			},
			{
				"type": "unocc",
				"energy": 0.10316,
				"method": "rhf"
			}
		],
		"cosmo_sigma_profile": { 
			"-0.025": 0.0,
			"-0.024": 0.0,
			"-0.023": 0.0,
			"-0.022": 0.0,
			"-0.021": 0.0,
			"-0.02": 0.0,
			"-0.019": 0.0,
			"-0.018": 0.0,
			"-0.017": 0.0,
			"-0.016": 0.0,
			"-0.015": 0.0,
			"-0.014": 0.0,
			"-0.013": 0.0,
			"-0.012": 0.491561643369,
			"-0.011": 1.69309546624,
			"-0.01": 1.55465028906,
			"-0.009": 1.76147107131,
			"-0.008": 2.43782876019,
			"-0.007": 6.10045900428,
			"-0.006": 12.4287922993,
			"-0.005": 18.1827952269,
			"-0.004": 21.3844920708,
			"-0.003": 22.0332404185,
			"-0.002": 18.8862377147,
			"-0.001": 17.453871504,
			"0.0": 21.4712378101,
			"0.001": 15.5727157481,
			"0.002": 12.3712965588,
			"0.003": 13.1518250236,
			"0.004": 13.6958817736,
			"0.005": 12.9592207916,
			"0.006": 16.8366126193,
			"0.007": 9.32424198172,
			"0.008": 2.91298122295,
			"0.009": 2.36781562469,
			"0.01": 1.99759717523,
			"0.011": 1.67814751306,
			"0.012": 1.91078968068,
			"0.013": 1.2357652248,
			"0.014": 0.107448117038,
			"0.015": 0.0,
			"0.016": 0.0,
			"0.017": 0.0,
			"0.018": 0.0,
			"0.019": 0.0,
			"0.02": 0.0,
			"0.021": 0.0,
			"0.022": 0.0,
			"0.023": 0.0,
			"0.024": 0.0,
			"0.025": 0.0
		}
	}
}
