{
	 "smiles": "CC1=CC=C(NC(=O)C=NO)C=C1", 
	 "Tm": 419.15, 
	 "num_atms": 23, 
	 "gaussian": { 
		 "optdone": 1, 
		 "sigma_profile": "yes", 
		 "theory": "DFT", 
		 "functional": "B3LYP", 
		 "basiset": "6-31G**", 
		 "properties": { 
			 "R2extent": 3354.5056, 
			 "electric_dipole_moment_norm": 3.61112759398, 
			 "electric_quadrupole_moment_norm": 14.9920007741, 
			 "total_energy": -608.890728367, 
			 "HOMO_LUMO_gap": 0.15374, 
			 "cosmo_polarized_energy": -12.68, 
			 "cosmo_cavitation_energy": 27.64, 
			 "cosmo_dispersion_energy": -20.32, 
			 "cosmo_repulsion_energy": 1.61, 
			 "cosmo_total_nonelectrostatic_energy": 8.92, 
			 "SMD_solvation_energy": 5.54 
		},
		"coords": [
			{
				"x": 3.5241153724,
				"y": -2.20028014,
				"z": -2.317682837,
				"element": "C" 
			},
			{
				"x": 2.3126847386,
				"y": -1.4872906375,
				"z": -1.7652517607,
				"element": "C" 
			},
			{
				"x": 2.4223063272,
				"y": -0.2308768133,
				"z": -1.1571200763,
				"element": "C" 
			},
			{
				"x": 1.3228181826,
				"y": 0.4324415088,
				"z": -0.6140508737,
				"element": "C" 
			},
			{
				"x": 0.0566332466,
				"y": -0.169343494,
				"z": -0.6749304105,
				"element": "C" 
			},
			{
				"x": -1.1179586182,
				"y": 0.4174286374,
				"z": -0.1595766528,
				"element": "N" 
			},
			{
				"x": -1.2531240954,
				"y": 1.6232393469,
				"z": 0.471315066,
				"element": "C" 
			},
			{
				"x": -0.3434955894,
				"y": 2.4166610862,
				"z": 0.6985694058,
				"element": "O" 
			},
			{
				"x": -2.6386115402,
				"y": 2.0088683438,
				"z": 0.9257746437,
				"element": "C" 
			},
			{
				"x": -3.790078822,
				"y": 1.4505480312,
				"z": 0.8620853364,
				"element": "N" 
			},
			{
				"x": -3.7863706712,
				"y": 0.1977719591,
				"z": 0.2318751888,
				"element": "O" 
			},
			{
				"x": -0.0715174673,
				"y": -1.4272962736,
				"z": -1.2851169654,
				"element": "C" 
			},
			{
				"x": 1.0395151641,
				"y": -2.0701867015,
				"z": -1.8200827594,
				"element": "C" 
			},
			{
				"x": 3.2584278168,
				"y": -2.8521421578,
				"z": -3.1557414841,
				"element": "H" 
			},
			{
				"x": 4.2800315964,
				"y": -1.4910580564,
				"z": -2.6684769477,
				"element": "H" 
			},
			{
				"x": 3.9998632788,
				"y": -2.830143934,
				"z": -1.5550090833,
				"element": "H" 
			},
			{
				"x": 3.3959115929,
				"y": 0.2506843747,
				"z": -1.1048608001,
				"element": "H" 
			},
			{
				"x": 1.4293112426,
				"y": 1.4029736605,
				"z": -0.1512382367,
				"element": "H" 
			},
			{
				"x": -1.9717055043,
				"y": -0.1159067784,
				"z": -0.2661783194,
				"element": "H" 
			},
			{
				"x": -2.6500806065,
				"y": 2.9792750989,
				"z": 1.4156463528,
				"element": "H" 
			},
			{
				"x": -4.7147434817,
				"y": -0.0656118067,
				"z": 0.2743133635,
				"element": "H" 
			},
			{
				"x": -1.0492968697,
				"y": -1.900253999,
				"z": -1.3435411462,
				"element": "H" 
			},
			{
				"x": 0.913064707,
				"y": -3.0423012553,
				"z": -2.2903210039,
				"element": "H" 
			}
		],
		 "valence_orbital": [ 
			{
				"type": "occ",
				"energy": -0.30291,
				"method": "rhf"
			},
			{
				"type": "occ",
				"energy": -0.28606,
				"method": "rhf"
			},
			{
				"type": "occ",
				"energy": -0.25749,
				"method": "rhf"
			},
			{
				"type": "occ",
				"energy": -0.24877,
				"method": "rhf"
			},
			{
				"type": "occ",
				"energy": -0.21405,
				"method": "rhf"
			},
			{
				"type": "unocc",
				"energy": -0.06031,
				"method": "rhf"
			},
			{
				"type": "unocc",
				"energy": 0.00012,
				"method": "rhf"
			},
			{
				"type": "unocc",
				"energy": 0.01174,
				"method": "rhf"
			},
			{
				"type": "unocc",
				"energy": 0.0443,
				"method": "rhf"
			},
			{
				"type": "unocc",
				"energy": 0.08854,
				"method": "rhf"
			}
		],
		"cosmo_sigma_profile": { 
			"-0.025": 0.0,
			"-0.024": 0.0,
			"-0.023": 0.0,
			"-0.022": 0.0,
			"-0.021": 0.0,
			"-0.02": 0.0560838103967,
			"-0.019": 0.711939524625,
			"-0.018": 1.20576539146,
			"-0.017": 1.03418591535,
			"-0.016": 0.901123028119,
			"-0.015": 0.42772684396,
			"-0.014": 0.687306080613,
			"-0.013": 0.396048636207,
			"-0.012": 0.657113511215,
			"-0.011": 1.47206745847,
			"-0.01": 1.86513583855,
			"-0.009": 1.96143447365,
			"-0.008": 3.38589790686,
			"-0.007": 3.49975882675,
			"-0.006": 5.01772401309,
			"-0.005": 8.39975054455,
			"-0.004": 16.0955477887,
			"-0.003": 19.2609636725,
			"-0.002": 18.9704925748,
			"-0.001": 18.2551665884,
			"0.0": 17.8094806982,
			"0.001": 16.0905851342,
			"0.002": 15.0757401799,
			"0.003": 13.594959283,
			"0.004": 13.214096216,
			"0.005": 12.8791406641,
			"0.006": 8.80737378902,
			"0.007": 2.91470996772,
			"0.008": 1.49829877101,
			"0.009": 2.55457006569,
			"0.01": 2.82720583059,
			"0.011": 2.80500127395,
			"0.012": 3.36652873402,
			"0.013": 2.3648374374,
			"0.014": 0.376867029859,
			"0.015": 0.0,
			"0.016": 0.0,
			"0.017": 0.0,
			"0.018": 0.0,
			"0.019": 0.0,
			"0.02": 0.0,
			"0.021": 0.0,
			"0.022": 0.0,
			"0.023": 0.0,
			"0.024": 0.0,
			"0.025": 0.0
		}
	}
}
