{
	 "smiles": "OC(=O)C1=C(O)C(CC2=C3C=CC=CC3=CC(C(O)=O)=C2O)=C2C=CC=CC2=C1", 
	 "Tm": 588.15, 
	 "num_atms": 45, 
	 "gaussian": { 
		 "optdone": 1, 
		 "sigma_profile": "yes", 
		 "theory": "DFT", 
		 "functional": "B3LYP", 
		 "basiset": "6-31G**", 
		 "properties": { 
			 "R2extent": 11545.3496, 
			 "electric_dipole_moment_norm": 3.28103764227, 
			 "electric_quadrupole_moment_norm": 29.493609342, 
			 "total_energy": -1337.48118555, 
			 "HOMO_LUMO_gap": 0.13079, 
			 "cosmo_polarized_energy": -26.72, 
			 "cosmo_cavitation_energy": 47.68, 
			 "cosmo_dispersion_energy": -33.67, 
			 "cosmo_repulsion_energy": 2.45, 
			 "cosmo_total_nonelectrostatic_energy": 16.45, 
			 "SMD_solvation_energy": 9.92 
		},
		"coords": [
			{
				"x": 5.1908167636,
				"y": 3.3833924323,
				"z": 0.3385810669,
				"element": "O" 
			},
			{
				"x": 4.6172161149,
				"y": 2.2492824167,
				"z": -0.1068782723,
				"element": "C" 
			},
			{
				"x": 5.350725865,
				"y": 1.3584533611,
				"z": -0.5229797402,
				"element": "O" 
			},
			{
				"x": 3.1392946031,
				"y": 2.1339611513,
				"z": -0.0803144633,
				"element": "C" 
			},
			{
				"x": 2.5225982173,
				"y": 1.0182878162,
				"z": -0.7471786047,
				"element": "C" 
			},
			{
				"x": 3.289829902,
				"y": 0.0925263824,
				"z": -1.3620632683,
				"element": "O" 
			},
			{
				"x": 1.1364223816,
				"y": 0.863302443,
				"z": -0.765921925,
				"element": "C" 
			},
			{
				"x": 0.5536014485,
				"y": -0.3420631962,
				"z": -1.5045134195,
				"element": "C" 
			},
			{
				"x": -0.2906706943,
				"y": -1.3179320975,
				"z": -0.6840619565,
				"element": "C" 
			},
			{
				"x": 0.3232839093,
				"y": -2.1181424644,
				"z": 0.3365592684,
				"element": "C" 
			},
			{
				"x": 1.7228964098,
				"y": -2.102806549,
				"z": 0.5970145712,
				"element": "C" 
			},
			{
				"x": 2.2702751716,
				"y": -2.8848802109,
				"z": 1.5921849337,
				"element": "C" 
			},
			{
				"x": 1.4614610374,
				"y": -3.7263247085,
				"z": 2.3908862586,
				"element": "C" 
			},
			{
				"x": 0.1080309441,
				"y": -3.7801597847,
				"z": 2.1558237445,
				"element": "C" 
			},
			{
				"x": -0.4862179765,
				"y": -2.9954408095,
				"z": 1.1308804933,
				"element": "C" 
			},
			{
				"x": -1.8713489935,
				"y": -3.076971195,
				"z": 0.8709252153,
				"element": "C" 
			},
			{
				"x": -2.4657923581,
				"y": -2.3459738307,
				"z": -0.1375146168,
				"element": "C" 
			},
			{
				"x": -3.9368902552,
				"y": -2.4463207011,
				"z": -0.3465971896,
				"element": "C" 
			},
			{
				"x": -4.4626144793,
				"y": -3.5431827959,
				"z": 0.273770399,
				"element": "O" 
			},
			{
				"x": -4.644487257,
				"y": -1.6749833695,
				"z": -0.9588848788,
				"element": "O" 
			},
			{
				"x": -1.6516860807,
				"y": -1.4762110293,
				"z": -0.9358687174,
				"element": "C" 
			},
			{
				"x": -2.2989650546,
				"y": -0.8120273452,
				"z": -1.936378362,
				"element": "O" 
			},
			{
				"x": 0.3182849518,
				"y": 1.8562178275,
				"z": -0.1445216754,
				"element": "C" 
			},
			{
				"x": -1.1061933825,
				"y": 1.8335385438,
				"z": -0.1925838812,
				"element": "C" 
			},
			{
				"x": -1.8581484276,
				"y": 2.7991956594,
				"z": 0.4382008155,
				"element": "C" 
			},
			{
				"x": -1.24500651,
				"y": 3.8495640426,
				"z": 1.1645128212,
				"element": "C" 
			},
			{
				"x": 0.1246202437,
				"y": 3.919299521,
				"z": 1.2197449588,
				"element": "C" 
			},
			{
				"x": 0.9323899453,
				"y": 2.9474435268,
				"z": 0.5647440065,
				"element": "C" 
			},
			{
				"x": 2.3359801057,
				"y": 3.0474362176,
				"z": 0.5810722992,
				"element": "C" 
			},
			{
				"x": 4.5223493171,
				"y": 4.0609418419,
				"z": 0.5082752795,
				"element": "H" 
			},
			{
				"x": 4.2354284184,
				"y": 0.3233640921,
				"z": -1.1720820204,
				"element": "H" 
			},
			{
				"x": 1.3849329671,
				"y": -0.8832185403,
				"z": -1.9603605551,
				"element": "H" 
			},
			{
				"x": -0.0188492545,
				"y": 0.0493525913,
				"z": -2.3561961111,
				"element": "H" 
			},
			{
				"x": 2.380045848,
				"y": -1.4930040229,
				"z": -0.0092058359,
				"element": "H" 
			},
			{
				"x": 3.3432793438,
				"y": -2.8568048928,
				"z": 1.7608160737,
				"element": "H" 
			},
			{
				"x": 1.9104894,
				"y": -4.3308756919,
				"z": 3.1730935766,
				"element": "H" 
			},
			{
				"x": -0.5326261398,
				"y": -4.4311825729,
				"z": 2.7451065316,
				"element": "H" 
			},
			{
				"x": -2.4844700674,
				"y": -3.7352738386,
				"z": 1.4755723058,
				"element": "H" 
			},
			{
				"x": -5.4183375836,
				"y": -3.486467618,
				"z": 0.1121347515,
				"element": "H" 
			},
			{
				"x": -1.6468157313,
				"y": -0.4178612351,
				"z": -2.5294863337,
				"element": "H" 
			},
			{
				"x": -1.6196037486,
				"y": 1.0593730966,
				"z": -0.7453026582,
				"element": "H" 
			},
			{
				"x": -2.9414331843,
				"y": 2.752070588,
				"z": 0.3758608136,
				"element": "H" 
			},
			{
				"x": -1.8564037763,
				"y": 4.5959520491,
				"z": 1.6620160696,
				"element": "H" 
			},
			{
				"x": 0.6170920243,
				"y": 4.7258801702,
				"z": 1.7573929721,
				"element": "H" 
			},
			{
				"x": 2.7686156216,
				"y": 3.8643727291,
				"z": 1.1559252593,
				"element": "H" 
			}
		],
		 "valence_orbital": [ 
			{
				"type": "occ",
				"energy": -0.26328,
				"method": "rhf"
			},
			{
				"type": "occ",
				"energy": -0.25353,
				"method": "rhf"
			},
			{
				"type": "occ",
				"energy": -0.23801,
				"method": "rhf"
			},
			{
				"type": "occ",
				"energy": -0.21924,
				"method": "rhf"
			},
			{
				"type": "occ",
				"energy": -0.20932,
				"method": "rhf"
			},
			{
				"type": "unocc",
				"energy": -0.07853,
				"method": "rhf"
			},
			{
				"type": "unocc",
				"energy": -0.05512,
				"method": "rhf"
			},
			{
				"type": "unocc",
				"energy": -0.03135,
				"method": "rhf"
			},
			{
				"type": "unocc",
				"energy": -0.01664,
				"method": "rhf"
			},
			{
				"type": "unocc",
				"energy": 0.00782,
				"method": "rhf"
			}
		],
		"cosmo_sigma_profile": { 
			"-0.025": 0.0,
			"-0.024": 0.0,
			"-0.023": 0.0,
			"-0.022": 0.0,
			"-0.021": 0.0,
			"-0.02": 0.363333999311,
			"-0.019": 0.882986304546,
			"-0.018": 1.58373957559,
			"-0.017": 3.27725814125,
			"-0.016": 1.9295181515,
			"-0.015": 3.48065408293,
			"-0.014": 2.30967273879,
			"-0.013": 2.45416074351,
			"-0.012": 2.21921776471,
			"-0.011": 3.76068173174,
			"-0.01": 3.11674099603,
			"-0.009": 3.16567015616,
			"-0.008": 3.67772459059,
			"-0.007": 7.36685633243,
			"-0.006": 17.4788545249,
			"-0.005": 18.6583796735,
			"-0.004": 22.3025300959,
			"-0.003": 21.6896856803,
			"-0.002": 23.8777448383,
			"-0.001": 20.7401287716,
			"0.0": 24.1028186337,
			"0.001": 27.8098476754,
			"0.002": 34.6812464799,
			"0.003": 37.2786935913,
			"0.004": 27.9810195869,
			"0.005": 17.3308421314,
			"0.006": 6.6166346636,
			"0.007": 6.40688653476,
			"0.008": 6.76591399001,
			"0.009": 7.8655192446,
			"0.01": 5.34194338438,
			"0.011": 4.88258742868,
			"0.012": 6.39991540509,
			"0.013": 2.25175387316,
			"0.014": 1.44659120614,
			"0.015": 1.29300011263,
			"0.016": 0.754601100129,
			"0.017": 0.00536064084417,
			"0.018": 0.0,
			"0.019": 0.0,
			"0.02": 0.0,
			"0.021": 0.0,
			"0.022": 0.0,
			"0.023": 0.0,
			"0.024": 0.0,
			"0.025": 0.0
		}
	}
}
