{
	 "smiles": "O=C1CN(C1)C(C1=CC=CC=C1)C1=CC=CC=C1", 
	 "Tm": 352.15, 
	 "num_atms": 33, 
	 "gaussian": { 
		 "optdone": 1, 
		 "sigma_profile": "yes", 
		 "theory": "DFT", 
		 "functional": "B3LYP", 
		 "basiset": "6-31G**", 
		 "properties": { 
			 "R2extent": 4920.3734, 
			 "electric_dipole_moment_norm": 2.58559541112, 
			 "electric_quadrupole_moment_norm": 16.1063868648, 
			 "total_energy": -748.671112156, 
			 "HOMO_LUMO_gap": 0.20471, 
			 "cosmo_polarized_energy": -10.83, 
			 "cosmo_cavitation_energy": 36.53, 
			 "cosmo_dispersion_energy": -24.87, 
			 "cosmo_repulsion_energy": 1.95, 
			 "cosmo_total_nonelectrostatic_energy": 13.61, 
			 "SMD_solvation_energy": 5.73 
		},
		"coords": [
			{
				"x": -3.5317369338,
				"y": 2.7875492985,
				"z": 0.2344795575,
				"element": "O" 
			},
			{
				"x": -2.6263491939,
				"y": 2.0277411506,
				"z": 0.0199882957,
				"element": "C" 
			},
			{
				"x": -1.3661291621,
				"y": 1.5935799963,
				"z": 0.7775875129,
				"element": "C" 
			},
			{
				"x": -1.2056387453,
				"y": 0.5068022113,
				"z": -0.2264155911,
				"element": "N" 
			},
			{
				"x": -2.2524834197,
				"y": 1.0730314416,
				"z": -1.1199110393,
				"element": "C" 
			},
			{
				"x": 0.1255162719,
				"y": 0.3121721151,
				"z": -0.7948461878,
				"element": "C" 
			},
			{
				"x": 1.1151686257,
				"y": -0.1023425573,
				"z": 0.2941262622,
				"element": "C" 
			},
			{
				"x": 0.7467880116,
				"y": -0.9976242925,
				"z": 1.3071633185,
				"element": "C" 
			},
			{
				"x": 1.6702776732,
				"y": -1.3898839024,
				"z": 2.2763116303,
				"element": "C" 
			},
			{
				"x": 2.9765518809,
				"y": -0.8963662081,
				"z": 2.2457359705,
				"element": "C" 
			},
			{
				"x": 3.3512185417,
				"y": -0.0024280338,
				"z": 1.241812653,
				"element": "C" 
			},
			{
				"x": 2.4240193151,
				"y": 0.3931573432,
				"z": 0.2762852004,
				"element": "C" 
			},
			{
				"x": 0.0764449678,
				"y": -0.7112320579,
				"z": -1.9294286534,
				"element": "C" 
			},
			{
				"x": -0.7202916075,
				"y": -1.8601954594,
				"z": -1.8366831273,
				"element": "C" 
			},
			{
				"x": -0.7312769615,
				"y": -2.7998663032,
				"z": -2.8676042825,
				"element": "C" 
			},
			{
				"x": 0.0563385786,
				"y": -2.6075224026,
				"z": -4.0049480924,
				"element": "C" 
			},
			{
				"x": 0.8509795818,
				"y": -1.4649152787,
				"z": -4.1066131431,
				"element": "C" 
			},
			{
				"x": 0.8562084791,
				"y": -0.5230917487,
				"z": -3.0763737529,
				"element": "C" 
			},
			{
				"x": -0.5850544395,
				"y": 2.3709294284,
				"z": 0.73860043,
				"element": "H" 
			},
			{
				"x": -1.4847414704,
				"y": 1.2655903737,
				"z": 1.8153154003,
				"element": "H" 
			},
			{
				"x": -3.0155796799,
				"y": 0.3664892442,
				"z": -1.461975892,
				"element": "H" 
			},
			{
				"x": -1.8608145549,
				"y": 1.6216901794,
				"z": -1.9925226167,
				"element": "H" 
			},
			{
				"x": 0.5022948561,
				"y": 1.2596175425,
				"z": -1.2303627613,
				"element": "H" 
			},
			{
				"x": -0.2704995244,
				"y": -1.3746541529,
				"z": 1.3355218751,
				"element": "H" 
			},
			{
				"x": 1.3688296935,
				"y": -2.0818373426,
				"z": 3.057913235,
				"element": "H" 
			},
			{
				"x": 3.6945518858,
				"y": -1.2023033751,
				"z": 3.0012158056,
				"element": "H" 
			},
			{
				"x": 4.3626041777,
				"y": 0.3932039088,
				"z": 1.2127512362,
				"element": "H" 
			},
			{
				"x": 2.7207016631,
				"y": 1.0955823946,
				"z": -0.4990846331,
				"element": "H" 
			},
			{
				"x": -1.3383923512,
				"y": -2.0055623544,
				"z": -0.9565401187,
				"element": "H" 
			},
			{
				"x": -1.3571588922,
				"y": -3.6840011236,
				"z": -2.7830534877,
				"element": "H" 
			},
			{
				"x": 0.0465737279,
				"y": -3.3398188105,
				"z": -4.8071442456,
				"element": "H" 
			},
			{
				"x": 1.4620137317,
				"y": -1.301769227,
				"z": -4.9899555332,
				"element": "H" 
			},
			{
				"x": 1.4723652732,
				"y": 0.3685780024,
				"z": -3.1652452251,
				"element": "H" 
			}
		],
		 "valence_orbital": [ 
			{
				"type": "occ",
				"energy": -0.25466,
				"method": "rhf"
			},
			{
				"type": "occ",
				"energy": -0.25356,
				"method": "rhf"
			},
			{
				"type": "occ",
				"energy": -0.24903,
				"method": "rhf"
			},
			{
				"type": "occ",
				"energy": -0.23581,
				"method": "rhf"
			},
			{
				"type": "occ",
				"energy": -0.23458,
				"method": "rhf"
			},
			{
				"type": "unocc",
				"energy": -0.02987,
				"method": "rhf"
			},
			{
				"type": "unocc",
				"energy": -0.01463,
				"method": "rhf"
			},
			{
				"type": "unocc",
				"energy": -0.00808,
				"method": "rhf"
			},
			{
				"type": "unocc",
				"energy": 0.00313,
				"method": "rhf"
			},
			{
				"type": "unocc",
				"energy": 0.00977,
				"method": "rhf"
			}
		],
		"cosmo_sigma_profile": { 
			"-0.025": 0.0,
			"-0.024": 0.0,
			"-0.023": 0.0,
			"-0.022": 0.0,
			"-0.021": 0.0,
			"-0.02": 0.0,
			"-0.019": 0.0,
			"-0.018": 0.0,
			"-0.017": 0.0,
			"-0.016": 0.0,
			"-0.015": 0.0,
			"-0.014": 0.0,
			"-0.013": 0.0,
			"-0.012": 0.0,
			"-0.011": 0.0,
			"-0.01": 0.0,
			"-0.009": 0.0,
			"-0.008": 0.213748642859,
			"-0.007": 2.83902853023,
			"-0.006": 16.1485848065,
			"-0.005": 30.8483840846,
			"-0.004": 31.5866169058,
			"-0.003": 31.6465687558,
			"-0.002": 20.8986233459,
			"-0.001": 18.7649473988,
			"0.0": 15.0069104276,
			"0.001": 16.2080424422,
			"0.002": 15.8487622394,
			"0.003": 15.7039696541,
			"0.004": 17.9803976704,
			"0.005": 19.9828078651,
			"0.006": 18.4088614184,
			"0.007": 2.93994552678,
			"0.008": 1.77006323119,
			"0.009": 3.33544831618,
			"0.01": 4.17829824003,
			"0.011": 4.68546391495,
			"0.012": 1.62533757731,
			"0.013": 0.0,
			"0.014": 0.0,
			"0.015": 0.0,
			"0.016": 0.0,
			"0.017": 0.0,
			"0.018": 0.0,
			"0.019": 0.0,
			"0.02": 0.0,
			"0.021": 0.0,
			"0.022": 0.0,
			"0.023": 0.0,
			"0.024": 0.0,
			"0.025": 0.0
		}
	}
}
