{
	 "smiles": "CC1=CC=C(C=C1)C12CC3CC(CC(C3)(C1)C(O)=O)C2", 
	 "Tm": 448.15, 
	 "num_atms": 42, 
	 "gaussian": { 
		 "optdone": 1, 
		 "sigma_profile": "yes", 
		 "theory": "DFT", 
		 "functional": "B3LYP", 
		 "basiset": "6-31G**", 
		 "properties": { 
			 "R2extent": 6415.4164, 
			 "electric_dipole_moment_norm": 1.6836151609, 
			 "electric_quadrupole_moment_norm": 8.68608356626, 
			 "total_energy": -849.677131472, 
			 "HOMO_LUMO_gap": 0.2299, 
			 "cosmo_polarized_energy": -10.11, 
			 "cosmo_cavitation_energy": 39.54, 
			 "cosmo_dispersion_energy": -28.57, 
			 "cosmo_repulsion_energy": 2.15, 
			 "cosmo_total_nonelectrostatic_energy": 13.12, 
			 "SMD_solvation_energy": 6.54 
		},
		"coords": [
			{
				"x": 3.1405409119,
				"y": -2.9254104975,
				"z": -4.3180989839,
				"element": "C" 
			},
			{
				"x": 2.2567135312,
				"y": -2.0489796615,
				"z": -3.4623736433,
				"element": "C" 
			},
			{
				"x": 2.7835648471,
				"y": -0.9513110126,
				"z": -2.7664491261,
				"element": "C" 
			},
			{
				"x": 1.9694012536,
				"y": -0.1306980925,
				"z": -1.9919799187,
				"element": "C" 
			},
			{
				"x": 0.5875123582,
				"y": -0.36357602,
				"z": -1.8700738917,
				"element": "C" 
			},
			{
				"x": 0.0675590246,
				"y": -1.4626086833,
				"z": -2.5649381103,
				"element": "C" 
			},
			{
				"x": 0.8855406419,
				"y": -2.2866824222,
				"z": -3.3432310774,
				"element": "C" 
			},
			{
				"x": -0.2756179671,
				"y": 0.5637596059,
				"z": -1.0049866595,
				"element": "C" 
			},
			{
				"x": -0.181293809,
				"y": 2.0277949844,
				"z": -1.5224481707,
				"element": "C" 
			},
			{
				"x": -1.0028913081,
				"y": 2.9793925814,
				"z": -0.630676562,
				"element": "C" 
			},
			{
				"x": -2.4829419328,
				"y": 2.5537493546,
				"z": -0.6500202648,
				"element": "C" 
			},
			{
				"x": -2.5982139433,
				"y": 1.1146596285,
				"z": -0.1136230126,
				"element": "C" 
			},
			{
				"x": -2.0794764061,
				"y": 1.0564598916,
				"z": 1.3355460339,
				"element": "C" 
			},
			{
				"x": -0.5902575108,
				"y": 1.4927747474,
				"z": 1.3662776809,
				"element": "C" 
			},
			{
				"x": -0.4677718845,
				"y": 2.928578228,
				"z": 0.8131734645,
				"element": "C" 
			},
			{
				"x": 0.2295975003,
				"y": 0.52569523,
				"z": 0.4663527519,
				"element": "C" 
			},
			{
				"x": -0.0512433799,
				"y": 1.4396340038,
				"z": 2.7881197251,
				"element": "C" 
			},
			{
				"x": -0.1762805271,
				"y": 0.2056792206,
				"z": 3.3437831406,
				"element": "O" 
			},
			{
				"x": 0.4470195093,
				"y": 2.3629680318,
				"z": 3.3967481895,
				"element": "O" 
			},
			{
				"x": -1.7712901776,
				"y": 0.160578719,
				"z": -0.9988674986,
				"element": "C" 
			},
			{
				"x": 3.4388299808,
				"y": -2.411913854,
				"z": -5.2405868573,
				"element": "H" 
			},
			{
				"x": 2.6290863025,
				"y": -3.8481914336,
				"z": -4.6064927958,
				"element": "H" 
			},
			{
				"x": 4.0614653421,
				"y": -3.2008402042,
				"z": -3.7927588312,
				"element": "H" 
			},
			{
				"x": 3.8480980266,
				"y": -0.736855827,
				"z": -2.8314070301,
				"element": "H" 
			},
			{
				"x": 2.4246347688,
				"y": 0.7070497027,
				"z": -1.471112921,
				"element": "H" 
			},
			{
				"x": -0.9896327467,
				"y": -1.6959195369,
				"z": -2.5080733971,
				"element": "H" 
			},
			{
				"x": 0.4423630053,
				"y": -3.1315172132,
				"z": -3.8655426747,
				"element": "H" 
			},
			{
				"x": -0.5420124484,
				"y": 2.0679165812,
				"z": -2.5581100699,
				"element": "H" 
			},
			{
				"x": 0.865662803,
				"y": 2.3519500879,
				"z": -1.5421375671,
				"element": "H" 
			},
			{
				"x": -0.906990561,
				"y": 4.0032480685,
				"z": -1.0133067054,
				"element": "H" 
			},
			{
				"x": -3.0837251742,
				"y": 3.2366373992,
				"z": -0.0354370347,
				"element": "H" 
			},
			{
				"x": -2.8800641653,
				"y": 2.6088922947,
				"z": -1.6718592601,
				"element": "H" 
			},
			{
				"x": -3.6480588063,
				"y": 0.7957193437,
				"z": -0.129381423,
				"element": "H" 
			},
			{
				"x": -2.6737897204,
				"y": 1.7197334184,
				"z": 1.9772285067,
				"element": "H" 
			},
			{
				"x": -2.1771873671,
				"y": 0.0430336469,
				"z": 1.7389026476,
				"element": "H" 
			},
			{
				"x": -1.0247500001,
				"y": 3.6195101116,
				"z": 1.4560483376,
				"element": "H" 
			},
			{
				"x": 0.5795328664,
				"y": 3.2485479474,
				"z": 0.8495411161,
				"element": "H" 
			},
			{
				"x": 1.2881985485,
				"y": 0.8074111764,
				"z": 0.5057963865,
				"element": "H" 
			},
			{
				"x": 0.1575034355,
				"y": -0.4959916062,
				"z": 0.8538917967,
				"element": "H" 
			},
			{
				"x": 0.2003741818,
				"y": 0.2786731837,
				"z": 4.2367225697,
				"element": "H" 
			},
			{
				"x": -1.8800564116,
				"y": -0.8670765527,
				"z": -0.6296019297,
				"element": "H" 
			},
			{
				"x": -2.1655525923,
				"y": 0.1776254279,
				"z": -2.0227569308,
				"element": "H" 
			}
		],
		 "valence_orbital": [ 
			{
				"type": "occ",
				"energy": -0.28682,
				"method": "rhf"
			},
			{
				"type": "occ",
				"energy": -0.28158,
				"method": "rhf"
			},
			{
				"type": "occ",
				"energy": -0.26298,
				"method": "rhf"
			},
			{
				"type": "occ",
				"energy": -0.24346,
				"method": "rhf"
			},
			{
				"type": "occ",
				"energy": -0.22829,
				"method": "rhf"
			},
			{
				"type": "unocc",
				"energy": 0.00161,
				"method": "rhf"
			},
			{
				"type": "unocc",
				"energy": 0.00343,
				"method": "rhf"
			},
			{
				"type": "unocc",
				"energy": 0.01578,
				"method": "rhf"
			},
			{
				"type": "unocc",
				"energy": 0.06608,
				"method": "rhf"
			},
			{
				"type": "unocc",
				"energy": 0.08419,
				"method": "rhf"
			}
		],
		"cosmo_sigma_profile": { 
			"-0.025": 0.0,
			"-0.024": 0.0,
			"-0.023": 0.0,
			"-0.022": 0.0,
			"-0.021": 0.0,
			"-0.02": 0.0,
			"-0.019": 0.0,
			"-0.018": 0.564834667828,
			"-0.017": 0.885027737597,
			"-0.016": 0.67554903537,
			"-0.015": 1.06585539668,
			"-0.014": 0.581339449872,
			"-0.013": 0.465212956655,
			"-0.012": 0.200080135743,
			"-0.011": 0.839065725339,
			"-0.01": 1.02135987227,
			"-0.009": 0.338323117167,
			"-0.008": 0.631929676679,
			"-0.007": 1.18231778987,
			"-0.006": 0.977282698593,
			"-0.005": 7.1090334448,
			"-0.004": 18.3079894724,
			"-0.003": 32.2148217888,
			"-0.002": 52.9682456807,
			"-0.001": 42.1546826643,
			"0.0": 40.6835335826,
			"0.001": 26.0653290187,
			"0.002": 12.0616064695,
			"0.003": 9.77218020795,
			"0.004": 10.9171014112,
			"0.005": 10.0714452707,
			"0.006": 10.8610797457,
			"0.007": 7.76484360263,
			"0.008": 2.91929120035,
			"0.009": 2.45182803254,
			"0.01": 1.90066782549,
			"0.011": 2.77421558991,
			"0.012": 5.15642736965,
			"0.013": 1.11994017657,
			"0.014": 0.0,
			"0.015": 0.0,
			"0.016": 0.0,
			"0.017": 0.0,
			"0.018": 0.0,
			"0.019": 0.0,
			"0.02": 0.0,
			"0.021": 0.0,
			"0.022": 0.0,
			"0.023": 0.0,
			"0.024": 0.0,
			"0.0": 0.0
		}
	}
}
