{
	 "smiles": "CC1=NC(COC2=CC=C(C=O)C=C2)=CS1", 
	 "Tm": 320.15, 
	 "num_atms": 27, 
	 "gaussian": { 
		 "optdone": 1, 
		 "sigma_profile": "yes", 
		 "theory": "DFT", 
		 "functional": "B3LYP", 
		 "basiset": "6-31G**", 
		 "properties": { 
			 "R2extent": 5590.5306, 
			 "electric_dipole_moment_norm": 5.72618547813, 
			 "electric_quadrupole_moment_norm": 18.8156884841, 
			 "total_energy": -1067.27141659, 
			 "HOMO_LUMO_gap": 0.18228, 
			 "cosmo_polarized_energy": -14.79, 
			 "cosmo_cavitation_energy": 33.78, 
			 "cosmo_dispersion_energy": -24.41, 
			 "cosmo_repulsion_energy": 1.87, 
			 "cosmo_total_nonelectrostatic_energy": 11.24, 
			 "SMD_solvation_energy": 5.38 
		},
		"coords": [
			{
				"x": -3.0168036924,
				"y": -2.0173364505,
				"z": -2.845652193,
				"element": "C" 
			},
			{
				"x": -2.9534057482,
				"y": -1.0900589551,
				"z": -1.670975423,
				"element": "C" 
			},
			{
				"x": -2.1968611551,
				"y": -0.0351060268,
				"z": -1.6066427982,
				"element": "N" 
			},
			{
				"x": -2.3383099009,
				"y": 0.6253790051,
				"z": -0.4023702661,
				"element": "C" 
			},
			{
				"x": -1.567184073,
				"y": 1.8983542515,
				"z": -0.1733601344,
				"element": "C" 
			},
			{
				"x": -0.161151493,
				"y": 1.7686821506,
				"z": -0.3990829308,
				"element": "O" 
			},
			{
				"x": 0.6344195938,
				"y": 1.1621093527,
				"z": 0.520209737,
				"element": "C" 
			},
			{
				"x": 2.0001271638,
				"y": 1.1066223551,
				"z": 0.1759590046,
				"element": "C" 
			},
			{
				"x": 2.9119033778,
				"y": 0.5348073562,
				"z": 1.0430466255,
				"element": "C" 
			},
			{
				"x": 2.4873508962,
				"y": 0.0021791689,
				"z": 2.2753147109,
				"element": "C" 
			},
			{
				"x": 3.4537886926,
				"y": -0.6084106503,
				"z": 3.2032540786,
				"element": "C" 
			},
			{
				"x": 4.6518831929,
				"y": -0.7028448359,
				"z": 3.0018122851,
				"element": "O" 
			},
			{
				"x": 1.1294494724,
				"y": 0.0579392576,
				"z": 2.6063207993,
				"element": "C" 
			},
			{
				"x": 0.1975849064,
				"y": 0.6301447152,
				"z": 1.7423422963,
				"element": "C" 
			},
			{
				"x": -3.2294483548,
				"y": 0.06720489,
				"z": 0.4705272452,
				"element": "C" 
			},
			{
				"x": -3.9350575213,
				"y": -1.3547289153,
				"z": -0.2243409186,
				"element": "S" 
			},
			{
				"x": -2.3515676229,
				"y": -1.6359678586,
				"z": -3.6222152175,
				"element": "H" 
			},
			{
				"x": -4.0319369488,
				"y": -2.0856761549,
				"z": -3.2502732007,
				"element": "H" 
			},
			{
				"x": -2.6973138874,
				"y": -3.0290455399,
				"z": -2.5742333545,
				"element": "H" 
			},
			{
				"x": -1.8764717255,
				"y": 2.6499234145,
				"z": -0.9050793238,
				"element": "H" 
			},
			{
				"x": -1.7680351952,
				"y": 2.2953062469,
				"z": 0.8288918297,
				"element": "H" 
			},
			{
				"x": 2.30426026,
				"y": 1.5244076869,
				"z": -0.7779948729,
				"element": "H" 
			},
			{
				"x": 3.9674266429,
				"y": 0.4851109877,
				"z": 0.7947877845,
				"element": "H" 
			},
			{
				"x": 3.0038250589,
				"y": -0.9973077451,
				"z": 4.1455024598,
				"element": "H" 
			},
			{
				"x": 0.7935859348,
				"y": -0.3565662745,
				"z": 3.5544670409,
				"element": "H" 
			},
			{
				"x": -0.8493472732,
				"y": 0.6431640378,
				"z": 2.0147651364,
				"element": "H" 
			},
			{
				"x": -3.5063106006,
				"y": 0.4056145301,
				"z": 1.4594195996,
				"element": "H" 
			}
		],
		 "valence_orbital": [ 
			{
				"type": "occ",
				"energy": -0.28178,
				"method": "rhf"
			},
			{
				"type": "occ",
				"energy": -0.26304,
				"method": "rhf"
			},
			{
				"type": "occ",
				"energy": -0.2513,
				"method": "rhf"
			},
			{
				"type": "occ",
				"energy": -0.24418,
				"method": "rhf"
			},
			{
				"type": "occ",
				"energy": -0.23085,
				"method": "rhf"
			},
			{
				"type": "unocc",
				"energy": -0.04857,
				"method": "rhf"
			},
			{
				"type": "unocc",
				"energy": -0.03583,
				"method": "rhf"
			},
			{
				"type": "unocc",
				"energy": -0.0103,
				"method": "rhf"
			},
			{
				"type": "unocc",
				"energy": 0.00753,
				"method": "rhf"
			},
			{
				"type": "unocc",
				"energy": 0.02755,
				"method": "rhf"
			}
		],
		"cosmo_sigma_profile": { 
			"-0.025": 0.0,
			"-0.024": 0.0,
			"-0.023": 0.0,
			"-0.022": 0.0,
			"-0.021": 0.0,
			"-0.02": 0.0,
			"-0.019": 0.0,
			"-0.018": 0.0,
			"-0.017": 0.0,
			"-0.016": 0.0,
			"-0.015": 0.0,
			"-0.014": 0.0,
			"-0.013": 0.0,
			"-0.012": 0.0,
			"-0.011": 0.0,
			"-0.01": 0.734275098968,
			"-0.009": 3.75949809016,
			"-0.008": 4.4638472415,
			"-0.007": 10.1367432097,
			"-0.006": 17.9974604472,
			"-0.005": 22.1247977877,
			"-0.004": 20.9257789255,
			"-0.003": 18.124056053,
			"-0.002": 17.9416346046,
			"-0.001": 17.6015711575,
			"0.0": 14.9940403267,
			"0.001": 21.9861418944,
			"0.002": 25.7015457927,
			"0.003": 26.192330479,
			"0.004": 10.8588857533,
			"0.005": 4.05715763286,
			"0.006": 4.3223290975,
			"0.007": 4.036064401,
			"0.008": 4.21615493965,
			"0.009": 3.81766793501,
			"0.01": 3.95897689274,
			"0.011": 4.52570544206,
			"0.012": 5.92779899143,
			"0.013": 2.55945917739,
			"0.014": 0.939854542986,
			"0.015": 0.71547617058,
			"0.016": 0.0,
			"0.017": 0.0,
			"0.018": 0.0,
			"0.019": 0.0,
			"0.02": 0.0,
			"0.021": 0.0,
			"0.022": 0.0,
			"0.023": 0.0,
			"0.024": 0.0,
			"0.025": 0.0
		}
	}
}
