{
	 "smiles": "NC1=C(CC2=CC=CC=C2)C(N)=NN1", 
	 "Tm": 421.15, 
	 "num_atms": 26, 
	 "gaussian": { 
		 "optdone": 1, 
		 "sigma_profile": "yes", 
		 "theory": "DFT", 
		 "functional": "B3LYP", 
		 "basiset": "6-31G**", 
		 "properties": { 
			 "R2extent": 3061.2266, 
			 "electric_dipole_moment_norm": 2.09142725668, 
			 "electric_quadrupole_moment_norm": 9.67145780273, 
			 "total_energy": -607.286343258, 
			 "HOMO_LUMO_gap": 0.18463, 
			 "cosmo_polarized_energy": -16.93, 
			 "cosmo_cavitation_energy": 29.56, 
			 "cosmo_dispersion_energy": -21.13, 
			 "cosmo_repulsion_energy": 1.69, 
			 "cosmo_total_nonelectrostatic_energy": 10.12, 
			 "SMD_solvation_energy": 3.55 
		},
		"coords": [
			{
				"x": -2.117691867,
				"y": 0.5202133624,
				"z": 0.8644271493,
				"element": "N" 
			},
			{
				"x": -1.5598672309,
				"y": -0.6723197005,
				"z": 0.4010291915,
				"element": "C" 
			},
			{
				"x": -0.7269949025,
				"y": -0.9367358474,
				"z": -0.6799000216,
				"element": "C" 
			},
			{
				"x": -0.0731417592,
				"y": 0.0297109871,
				"z": -1.631779092,
				"element": "C" 
			},
			{
				"x": 0.5125241125,
				"y": 1.2699835214,
				"z": -0.9714871977,
				"element": "C" 
			},
			{
				"x": 0.0741478232,
				"y": 2.5528322553,
				"z": -1.3242956801,
				"element": "C" 
			},
			{
				"x": 0.6178374344,
				"y": 3.6910904012,
				"z": -0.7193918726,
				"element": "C" 
			},
			{
				"x": 1.6133742278,
				"y": 3.5597470115,
				"z": 0.2476744701,
				"element": "C" 
			},
			{
				"x": 2.0594149648,
				"y": 2.2841275941,
				"z": 0.6082938603,
				"element": "C" 
			},
			{
				"x": 1.5115521238,
				"y": 1.1521768915,
				"z": 0.0077680248,
				"element": "C" 
			},
			{
				"x": -0.5908549525,
				"y": -2.3568542465,
				"z": -0.6575532307,
				"element": "C" 
			},
			{
				"x": 0.2252177878,
				"y": -3.1148274548,
				"z": -1.5114823814,
				"element": "N" 
			},
			{
				"x": -1.2621187083,
				"y": -2.9300294868,
				"z": 0.3319762993,
				"element": "N" 
			},
			{
				"x": -1.8256664608,
				"y": -1.8643905599,
				"z": 0.9966927988,
				"element": "N" 
			},
			{
				"x": -1.6509070544,
				"y": 1.3280152791,
				"z": 0.4672420931,
				"element": "H" 
			},
			{
				"x": -2.1154101885,
				"y": 0.5939337973,
				"z": 1.8763328461,
				"element": "H" 
			},
			{
				"x": -0.7690519394,
				"y": 0.3511154565,
				"z": -2.4198817015,
				"element": "H" 
			},
			{
				"x": 0.7343452617,
				"y": -0.5089649529,
				"z": -2.1451686686,
				"element": "H" 
			},
			{
				"x": -0.6954966899,
				"y": 2.6621407403,
				"z": -2.0852088851,
				"element": "H" 
			},
			{
				"x": 0.2631817943,
				"y": 4.6767405566,
				"z": -1.008080932,
				"element": "H" 
			},
			{
				"x": 2.0399430083,
				"y": 4.4413067854,
				"z": 0.7176084886,
				"element": "H" 
			},
			{
				"x": 2.8367682198,
				"y": 2.1729979848,
				"z": 1.3594146524,
				"element": "H" 
			},
			{
				"x": 1.8528387954,
				"y": 0.1618448395,
				"z": 0.297370475,
				"element": "H" 
			},
			{
				"x": 0.1225100853,
				"y": -4.1032898102,
				"z": -1.3070183531,
				"element": "H" 
			},
			{
				"x": 0.025237103,
				"y": -2.9492299033,
				"z": -2.4919845779,
				"element": "H" 
			},
			{
				"x": -2.5283909885,
				"y": -2.0480355017,
				"z": 1.6939022449,
				"element": "H" 
			}
		],
		 "valence_orbital": [ 
			{
				"type": "occ",
				"energy": -0.26964,
				"method": "rhf"
			},
			{
				"type": "occ",
				"energy": -0.25135,
				"method": "rhf"
			},
			{
				"type": "occ",
				"energy": -0.243,
				"method": "rhf"
			},
			{
				"type": "occ",
				"energy": -0.20147,
				"method": "rhf"
			},
			{
				"type": "occ",
				"energy": -0.18895,
				"method": "rhf"
			},
			{
				"type": "unocc",
				"energy": -0.00432,
				"method": "rhf"
			},
			{
				"type": "unocc",
				"energy": -0.00066,
				"method": "rhf"
			},
			{
				"type": "unocc",
				"energy": 0.04815,
				"method": "rhf"
			},
			{
				"type": "unocc",
				"energy": 0.07888,
				"method": "rhf"
			},
			{
				"type": "unocc",
				"energy": 0.08495,
				"method": "rhf"
			}
		],
		"cosmo_sigma_profile": { 
			"-0.025": 0.0,
			"-0.024": 0.0,
			"-0.023": 0.0,
			"-0.022": 0.0,
			"-0.021": 0.0,
			"-0.02": 0.0,
			"-0.019": 0.0,
			"-0.018": 0.0,
			"-0.017": 0.0,
			"-0.016": 0.0870595858224,
			"-0.015": 1.38640090268,
			"-0.014": 1.63768959228,
			"-0.013": 2.88889094288,
			"-0.012": 2.74976893246,
			"-0.011": 4.31107102301,
			"-0.01": 4.838484382,
			"-0.009": 4.20051497868,
			"-0.008": 4.8656044292,
			"-0.007": 4.04070053062,
			"-0.006": 7.2225672151,
			"-0.005": 13.6669839664,
			"-0.004": 18.5255300756,
			"-0.003": 19.9232057691,
			"-0.002": 14.6423802766,
			"-0.001": 12.8198213946,
			"0.0": 11.9856582639,
			"0.001": 13.2417303405,
			"0.002": 10.2402051773,
			"0.003": 12.5024548344,
			"0.004": 11.7906549673,
			"0.005": 12.6227432418,
			"0.006": 11.8110778624,
			"0.007": 5.65460684567,
			"0.008": 3.48300887176,
			"0.009": 3.41875333785,
			"0.01": 3.49584335908,
			"0.011": 2.70723258502,
			"0.012": 2.36624071411,
			"0.013": 2.19023384636,
			"0.014": 2.95002810546,
			"0.015": 2.54213953215,
			"0.016": 1.6071375671,
			"0.017": 1.02197288418,
			"0.018": 0.294276870724,
			"0.019": 0.0,
			"0.02": 0.0,
			"0.021": 0.0,
			"0.022": 0.0,
			"0.023": 0.0,
			"0.024": 0.0,
			"0.025": 0.0
		}
	}
}
