{
	 "smiles": "NC(=O)C1=CC(F)=C(N)C=C1", 
	 "Tm": 426.15, 
	 "num_atms": 18, 
	 "gaussian": { 
		 "optdone": 1, 
		 "sigma_profile": "yes", 
		 "theory": "DFT", 
		 "functional": "B3LYP", 
		 "basiset": "6-31G**", 
		 "properties": { 
			 "R2extent": 2151.7263, 
			 "electric_dipole_moment_norm": 4.674619807, 
			 "electric_quadrupole_moment_norm": 17.7049255728, 
			 "total_energy": -555.547696252, 
			 "HOMO_LUMO_gap": 0.18678, 
			 "cosmo_polarized_energy": -16.81, 
			 "cosmo_cavitation_energy": 22.85, 
			 "cosmo_dispersion_energy": -17.02, 
			 "cosmo_repulsion_energy": 1.36, 
			 "cosmo_total_nonelectrostatic_energy": 7.19, 
			 "SMD_solvation_energy": 5.12 
		},
		"coords": [
			{
				"x": -3.0626948985,
				"y": 1.2458275017,
				"z": -2.0632534298,
				"element": "N" 
			},
			{
				"x": -2.0368014299,
				"y": 1.773135242,
				"z": -1.3071714095,
				"element": "C" 
			},
			{
				"x": -1.7269281368,
				"y": 2.9567163137,
				"z": -1.3876612444,
				"element": "O" 
			},
			{
				"x": -1.3493530068,
				"y": 0.8326032755,
				"z": -0.3696840305,
				"element": "C" 
			},
			{
				"x": -0.1314180137,
				"y": 1.2571362742,
				"z": 0.1862704108,
				"element": "C" 
			},
			{
				"x": 0.5432911563,
				"y": 0.428323294,
				"z": 1.0536302097,
				"element": "C" 
			},
			{
				"x": 1.7220002199,
				"y": 0.8245861916,
				"z": 1.60310535,
				"element": "F" 
			},
			{
				"x": 0.0644292849,
				"y": -0.8391422039,
				"z": 1.4325305452,
				"element": "C" 
			},
			{
				"x": 0.8239329638,
				"y": -1.6367017366,
				"z": 2.2698559003,
				"element": "N" 
			},
			{
				"x": -1.1650829434,
				"y": -1.2429115649,
				"z": 0.8874873074,
				"element": "C" 
			},
			{
				"x": -1.8572189132,
				"y": -0.4198091677,
				"z": 0.0024907275,
				"element": "C" 
			},
			{
				"x": -3.4168468928,
				"y": 1.8648761901,
				"z": -2.7786168766,
				"element": "H" 
			},
			{
				"x": -3.0700163991,
				"y": 0.2613082326,
				"z": -2.2808278115,
				"element": "H" 
			},
			{
				"x": 0.2639971424,
				"y": 2.2339759857,
				"z": -0.0673286982,
				"element": "H" 
			},
			{
				"x": 0.3258933801,
				"y": -2.3396357074,
				"z": 2.7954538815,
				"element": "H" 
			},
			{
				"x": 1.5313964388,
				"y": -1.1496747855,
				"z": 2.800806426,
				"element": "H" 
			},
			{
				"x": -1.5758091832,
				"y": -2.20878941,
				"z": 1.169044651,
				"element": "H" 
			},
			{
				"x": -2.8218707689,
				"y": -0.7524239251,
				"z": -0.368331909,
				"element": "H" 
			}
		],
		 "valence_orbital": [ 
			{
				"type": "occ",
				"energy": -0.31716,
				"method": "rhf"
			},
			{
				"type": "occ",
				"energy": -0.26807,
				"method": "rhf"
			},
			{
				"type": "occ",
				"energy": -0.2537,
				"method": "rhf"
			},
			{
				"type": "occ",
				"energy": -0.24424,
				"method": "rhf"
			},
			{
				"type": "occ",
				"energy": -0.21354,
				"method": "rhf"
			},
			{
				"type": "unocc",
				"energy": -0.02676,
				"method": "rhf"
			},
			{
				"type": "unocc",
				"energy": -0.00435,
				"method": "rhf"
			},
			{
				"type": "unocc",
				"energy": 0.06656,
				"method": "rhf"
			},
			{
				"type": "unocc",
				"energy": 0.07193,
				"method": "rhf"
			},
			{
				"type": "unocc",
				"energy": 0.08529,
				"method": "rhf"
			}
		],
		"cosmo_sigma_profile": { 
			"-0.025": 0.0,
			"-0.024": 0.0,
			"-0.023": 0.0,
			"-0.022": 0.0,
			"-0.021": 0.0,
			"-0.02": 0.0,
			"-0.019": 0.0,
			"-0.018": 0.0,
			"-0.017": 0.0,
			"-0.016": 0.0,
			"-0.015": 0.0,
			"-0.014": 1.08267101443,
			"-0.013": 4.21576604238,
			"-0.012": 4.68191567436,
			"-0.011": 4.96834973601,
			"-0.01": 4.99808416467,
			"-0.009": 4.72825854545,
			"-0.008": 5.61168594652,
			"-0.007": 5.56479847336,
			"-0.006": 6.98322600447,
			"-0.005": 6.40488797935,
			"-0.004": 7.19839040123,
			"-0.003": 5.4208352619,
			"-0.002": 6.53704185163,
			"-0.001": 7.09039901819,
			"0.0": 8.00081423401,
			"0.001": 14.0450940858,
			"0.002": 15.3729270987,
			"0.003": 14.4602724329,
			"0.004": 18.6743978771,
			"0.005": 7.99915746657,
			"0.006": 3.80036647199,
			"0.007": 2.28451671965,
			"0.008": 2.01999639985,
			"0.009": 2.93105810773,
			"0.01": 3.34156437831,
			"0.011": 2.01943770627,
			"0.012": 1.6683772271,
			"0.013": 4.52381197187,
			"0.014": 4.59069779385,
			"0.015": 0.697926788399,
			"0.016": 0.0,
			"0.017": 0.0,
			"0.018": 0.0,
			"0.019": 0.0,
			"0.02": 0.0,
			"0.021": 0.0,
			"0.022": 0.0,
			"0.023": 0.0,
			"0.024": 0.0,
			"0.025": 0.0
		}
	}
}
