{
	 "smiles": "CCOC1=C(OCC)C=C(C=C1)C(=O)N1CCCC(C1)C(O)=O", 
	 "Tm": 463.15, 
	 "num_atms": 46, 
	 "gaussian": { 
		 "optdone": 1, 
		 "sigma_profile": "yes", 
		 "theory": "DFT", 
		 "functional": "B3LYP", 
		 "basiset": "6-31G**", 
		 "properties": { 
			 "R2extent": 11307.369, 
			 "electric_dipole_moment_norm": 4.63191182774, 
			 "electric_quadrupole_moment_norm": 24.1528035023, 
			 "total_energy": -1092.55338107, 
			 "HOMO_LUMO_gap": 0.20364, 
			 "cosmo_polarized_energy": -19.79, 
			 "cosmo_cavitation_energy": 47.72, 
			 "cosmo_dispersion_energy": -32.62, 
			 "cosmo_repulsion_energy": 2.54, 
			 "cosmo_total_nonelectrostatic_energy": 17.65, 
			 "SMD_solvation_energy": 9.28 
		},
		"coords": [
			{
				"x": 4.4415316156,
				"y": -2.9928465861,
				"z": -3.3205920445,
				"element": "C" 
			},
			{
				"x": 3.2095218108,
				"y": -2.1915140746,
				"z": -2.9423158215,
				"element": "C" 
			},
			{
				"x": 3.2448698611,
				"y": -1.9834561909,
				"z": -1.5151587144,
				"element": "O" 
			},
			{
				"x": 2.1907622169,
				"y": -1.2744652615,
				"z": -0.9929570453,
				"element": "C" 
			},
			{
				"x": 0.8859214586,
				"y": -1.8087790613,
				"z": -0.9509325011,
				"element": "C" 
			},
			{
				"x": 0.6065636954,
				"y": -3.0470505506,
				"z": -1.4844040956,
				"element": "O" 
			},
			{
				"x": 1.0783121887,
				"y": -4.1629685505,
				"z": -0.7014914222,
				"element": "C" 
			},
			{
				"x": 0.6629208235,
				"y": -5.4366279525,
				"z": -1.4144304477,
				"element": "C" 
			},
			{
				"x": -0.1442127409,
				"y": -1.0652951055,
				"z": -0.3831343746,
				"element": "C" 
			},
			{
				"x": 0.0898780975,
				"y": 0.2147584836,
				"z": 0.1381250624,
				"element": "C" 
			},
			{
				"x": 1.3947838435,
				"y": 0.7246582329,
				"z": 0.1246426032,
				"element": "C" 
			},
			{
				"x": 2.4331610868,
				"y": -0.0163165939,
				"z": -0.4384636543,
				"element": "C" 
			},
			{
				"x": -1.0656156597,
				"y": 0.9070323275,
				"z": 0.8065347394,
				"element": "C" 
			},
			{
				"x": -1.8920155439,
				"y": 0.2554039681,
				"z": 1.4444568051,
				"element": "O" 
			},
			{
				"x": -1.1606329976,
				"y": 2.2805098818,
				"z": 0.720922315,
				"element": "N" 
			},
			{
				"x": -0.5689815431,
				"y": 3.0898581849,
				"z": -0.3615415316,
				"element": "C" 
			},
			{
				"x": -1.6013353517,
				"y": 4.0820152662,
				"z": -0.9062821617,
				"element": "C" 
			},
			{
				"x": -2.0808590933,
				"y": 5.0651491686,
				"z": 0.183778287,
				"element": "C" 
			},
			{
				"x": -2.0916380569,
				"y": 4.4090361775,
				"z": 1.5871001192,
				"element": "C" 
			},
			{
				"x": -2.2591785331,
				"y": 2.8819287291,
				"z": 1.4928224746,
				"element": "C" 
			},
			{
				"x": -0.8987388919,
				"y": 4.7154207516,
				"z": 2.4921974474,
				"element": "C" 
			},
			{
				"x": 0.0755428693,
				"y": 5.460118064,
				"z": 1.9102918846,
				"element": "O" 
			},
			{
				"x": -0.8156260093,
				"y": 4.3397681535,
				"z": 3.640327693,
				"element": "O" 
			},
			{
				"x": 4.4369240421,
				"y": -3.9688692843,
				"z": -2.8264927835,
				"element": "H" 
			},
			{
				"x": 4.4669813159,
				"y": -3.1541026659,
				"z": -4.4029451308,
				"element": "H" 
			},
			{
				"x": 5.3529505171,
				"y": -2.4642391813,
				"z": -3.0267038737,
				"element": "H" 
			},
			{
				"x": 3.2087954742,
				"y": -1.2133470267,
				"z": -3.4433495391,
				"element": "H" 
			},
			{
				"x": 2.2889602449,
				"y": -2.7178113181,
				"z": -3.2155330875,
				"element": "H" 
			},
			{
				"x": 2.167565759,
				"y": -4.1017849027,
				"z": -0.5935743282,
				"element": "H" 
			},
			{
				"x": 0.630794523,
				"y": -4.1097118632,
				"z": 0.3002508983,
				"element": "H" 
			},
			{
				"x": -0.4240995342,
				"y": -5.4783246338,
				"z": -1.5280644607,
				"element": "H" 
			},
			{
				"x": 1.1145328357,
				"y": -5.4915960291,
				"z": -2.4094863618,
				"element": "H" 
			},
			{
				"x": 0.9859423828,
				"y": -6.3107968376,
				"z": -0.84033954,
				"element": "H" 
			},
			{
				"x": -1.1391921615,
				"y": -1.4934600964,
				"z": -0.3316766703,
				"element": "H" 
			},
			{
				"x": 1.6078991511,
				"y": 1.6914031351,
				"z": 0.5684870019,
				"element": "H" 
			},
			{
				"x": 3.4505139093,
				"y": 0.361826118,
				"z": -0.4532978099,
				"element": "H" 
			},
			{
				"x": -0.229488048,
				"y": 2.4217478848,
				"z": -1.1542444209,
				"element": "H" 
			},
			{
				"x": 0.3079464719,
				"y": 3.642188782,
				"z": 0.0007535233,
				"element": "H" 
			},
			{
				"x": -2.4500975236,
				"y": 3.515922095,
				"z": -1.3075217681,
				"element": "H" 
			},
			{
				"x": -1.1633581055,
				"y": 4.629653302,
				"z": -1.7473816619,
				"element": "H" 
			},
			{
				"x": -3.0934499538,
				"y": 5.4056226405,
				"z": -0.0558627982,
				"element": "H" 
			},
			{
				"x": -1.4461383456,
				"y": 5.9536592723,
				"z": 0.1980306875,
				"element": "H" 
			},
			{
				"x": -2.9508948946,
				"y": 4.7764545478,
				"z": 2.1601194048,
				"element": "H" 
			},
			{
				"x": -3.2299636126,
				"y": 2.6501580265,
				"z": 1.033958565,
				"element": "H" 
			},
			{
				"x": -2.2623570662,
				"y": 2.4362278186,
				"z": 2.4875524745,
				"element": "H" 
			},
			{
				"x": 0.7558974722,
				"y": 5.5795427549,
				"z": 2.5949260629,
				"element": "H" 
			}
		],
		 "valence_orbital": [ 
			{
				"type": "occ",
				"energy": -0.26174,
				"method": "rhf"
			},
			{
				"type": "occ",
				"energy": -0.25256,
				"method": "rhf"
			},
			{
				"type": "occ",
				"energy": -0.24043,
				"method": "rhf"
			},
			{
				"type": "occ",
				"energy": -0.23218,
				"method": "rhf"
			},
			{
				"type": "occ",
				"energy": -0.22792,
				"method": "rhf"
			},
			{
				"type": "unocc",
				"energy": -0.02428,
				"method": "rhf"
			},
			{
				"type": "unocc",
				"energy": -0.00155,
				"method": "rhf"
			},
			{
				"type": "unocc",
				"energy": 0.00239,
				"method": "rhf"
			},
			{
				"type": "unocc",
				"energy": 0.05714,
				"method": "rhf"
			},
			{
				"type": "unocc",
				"energy": 0.06258,
				"method": "rhf"
			}
		],
		"cosmo_sigma_profile": { 
			"-0.025": 0.0,
			"-0.024": 0.0,
			"-0.023": 0.0,
			"-0.022": 0.0,
			"-0.021": 0.0,
			"-0.02": 0.0,
			"-0.019": 0.0698580348173,
			"-0.018": 0.863342862381,
			"-0.017": 0.769796763333,
			"-0.016": 0.766585971979,
			"-0.015": 0.663763305083,
			"-0.014": 0.719807217392,
			"-0.013": 0.382035087728,
			"-0.012": 0.972278176744,
			"-0.011": 1.30011097861,
			"-0.01": 0.527500536027,
			"-0.009": 0.304196362037,
			"-0.008": 0.402078407275,
			"-0.007": 3.56801377473,
			"-0.006": 7.92284792631,
			"-0.005": 15.4279052286,
			"-0.004": 36.6508663914,
			"-0.003": 51.5877566285,
			"-0.002": 47.7133663852,
			"-0.001": 38.8240843946,
			"0.0": 37.6406099948,
			"0.001": 22.4367352412,
			"0.002": 16.3401968847,
			"0.003": 17.7230173415,
			"0.004": 12.2907536472,
			"0.005": 7.83964360538,
			"0.006": 6.40684174455,
			"0.007": 5.1455591738,
			"0.008": 5.86229980716,
			"0.009": 5.11280284811,
			"0.01": 5.21918810246,
			"0.011": 6.78662093043,
			"0.012": 6.71834801424,
			"0.013": 3.25084535202,
			"0.014": 4.80809880113,
			"0.015": 0.757110233578,
			"0.016": 0.0,
			"0.017": 0.0,
			"0.018": 0.0,
			"0.019": 0.0,
			"0.02": 0.0,
			"0.021": 0.0,
			"0.022": 0.0,
			"0.023": 0.0,
			"0.024": 0.0,
			"0.025": 0.0
		}
	}
}
