{
	 "smiles": "CC1=CC(=C(C#N)C(=O)N1)C(F)(F)F", 
	 "Tm": 507.15, 
	 "num_atms": 19, 
	 "gaussian": { 
		 "optdone": 1, 
		 "sigma_profile": "yes", 
		 "theory": "DFT", 
		 "functional": "B3LYP", 
		 "basiset": "6-31G**", 
		 "properties": { 
			 "R2extent": 3904.642, 
			 "electric_dipole_moment_norm": 8.70664158904, 
			 "electric_quadrupole_moment_norm": 24.4883510835, 
			 "total_energy": -792.105451106, 
			 "HOMO_LUMO_gap": 0.1542, 
			 "cosmo_polarized_energy": -21.51, 
			 "cosmo_cavitation_energy": 26.3, 
			 "cosmo_dispersion_energy": -18.14, 
			 "cosmo_repulsion_energy": 1.38, 
			 "cosmo_total_nonelectrostatic_energy": 9.54, 
			 "SMD_solvation_energy": 7.62 
		},
		"coords": [
			{
				"x": 1.062633548,
				"y": -1.6293429015,
				"z": 0.9911162095,
				"element": "C" 
			},
			{
				"x": -0.0716670041,
				"y": -0.6503816738,
				"z": 0.9252476912,
				"element": "C" 
			},
			{
				"x": -0.5319551084,
				"y": -0.0768014178,
				"z": -0.2302327603,
				"element": "C" 
			},
			{
				"x": -1.6156826723,
				"y": 0.8411992662,
				"z": -0.183780062,
				"element": "C" 
			},
			{
				"x": -2.2240437865,
				"y": 1.1741437415,
				"z": 1.0099701629,
				"element": "C" 
			},
			{
				"x": -3.315752132,
				"y": 2.0834301818,
				"z": 1.1566706946,
				"element": "C" 
			},
			{
				"x": -4.2030067803,
				"y": 2.8129941702,
				"z": 1.3366183183,
				"element": "N" 
			},
			{
				"x": -1.752286289,
				"y": 0.5741566676,
				"z": 2.271741102,
				"element": "C" 
			},
			{
				"x": -2.2050644715,
				"y": 0.7873839253,
				"z": 3.3840106859,
				"element": "O" 
			},
			{
				"x": -0.6763753749,
				"y": -0.317972947,
				"z": 2.1021132619,
				"element": "N" 
			},
			{
				"x": -2.028821764,
				"y": 1.4046125161,
				"z": -1.5319845615,
				"element": "C" 
			},
			{
				"x": -0.9797727668,
				"y": 2.0381782878,
				"z": -2.1018755517,
				"element": "F" 
			},
			{
				"x": -2.3797966377,
				"y": 0.3951927738,
				"z": -2.3593947682,
				"element": "F" 
			},
			{
				"x": -3.048891001,
				"y": 2.2652580257,
				"z": -1.4774096712,
				"element": "F" 
			},
			{
				"x": 0.7304143386,
				"y": -2.5839103285,
				"z": 1.4151554526,
				"element": "H" 
			},
			{
				"x": 1.4668474238,
				"y": -1.8185451189,
				"z": -0.004170566,
				"element": "H" 
			},
			{
				"x": 1.8715638478,
				"y": -1.2476501282,
				"z": 1.6246099099,
				"element": "H" 
			},
			{
				"x": -0.0702596498,
				"y": -0.3232232014,
				"z": -1.1768025317,
				"element": "H" 
			},
			{
				"x": -0.3559837197,
				"y": -0.7275218388,
				"z": 2.9726969838,
				"element": "H" 
			}
		],
		 "valence_orbital": [ 
			{
				"type": "occ",
				"energy": -0.35846,
				"method": "rhf"
			},
			{
				"type": "occ",
				"energy": -0.32766,
				"method": "rhf"
			},
			{
				"type": "occ",
				"energy": -0.31804,
				"method": "rhf"
			},
			{
				"type": "occ",
				"energy": -0.28179,
				"method": "rhf"
			},
			{
				"type": "occ",
				"energy": -0.24713,
				"method": "rhf"
			},
			{
				"type": "unocc",
				"energy": -0.09293,
				"method": "rhf"
			},
			{
				"type": "unocc",
				"energy": -0.02212,
				"method": "rhf"
			},
			{
				"type": "unocc",
				"energy": 0.03111,
				"method": "rhf"
			},
			{
				"type": "unocc",
				"energy": 0.04459,
				"method": "rhf"
			},
			{
				"type": "unocc",
				"energy": 0.04922,
				"method": "rhf"
			}
		],
		"cosmo_sigma_profile": { 
			"-0.025": 0.0,
			"-0.024": 0.0,
			"-0.023": 0.0,
			"-0.022": 0.0,
			"-0.021": 0.0,
			"-0.02": 0.0,
			"-0.019": 0.0,
			"-0.018": 0.0,
			"-0.017": 0.656474748428,
			"-0.016": 1.39948008956,
			"-0.015": 1.22905669402,
			"-0.014": 0.835495243215,
			"-0.013": 1.15834809872,
			"-0.012": 1.15480101477,
			"-0.011": 1.12217281227,
			"-0.01": 1.75702105096,
			"-0.009": 3.2888160962,
			"-0.008": 5.3260950818,
			"-0.007": 8.87252363575,
			"-0.006": 9.53089894241,
			"-0.005": 11.0392292446,
			"-0.004": 14.5920994387,
			"-0.003": 20.1404535255,
			"-0.002": 12.4399951985,
			"-0.001": 9.9805148245,
			"0.0": 11.4284559277,
			"0.001": 13.6799368731,
			"0.002": 26.769098876,
			"0.003": 7.56564855329,
			"0.004": 3.20670593722,
			"0.005": 4.09164341326,
			"0.006": 3.63500461899,
			"0.007": 3.98533753911,
			"0.008": 6.00246374625,
			"0.009": 4.72003787899,
			"0.01": 5.31047928863,
			"0.011": 4.62521739785,
			"0.012": 7.5636813259,
			"0.013": 4.6944524904,
			"0.014": 0.0299275104425,
			"0.015": 0.0,
			"0.016": 0.0,
			"0.017": 0.0,
			"0.018": 0.0,
			"0.019": 0.0,
			"0.02": 0.0,
			"0.021": 0.0,
			"0.022": 0.0,
			"0.023": 0.0,
			"0.024": 0.0,
			"0.025": 0.0
		}
	}
}
