{
	 "smiles": "NC1=NOC(=C1)C1=C(F)C=C(F)C=C1", 
	 "Tm": 396.15, 
	 "num_atms": 20, 
	 "gaussian": { 
		 "optdone": 1, 
		 "sigma_profile": "yes", 
		 "theory": "DFT", 
		 "functional": "B3LYP", 
		 "basiset": "6-31G**", 
		 "properties": { 
			 "R2extent": 3339.7396, 
			 "electric_dipole_moment_norm": 2.20055618651, 
			 "electric_quadrupole_moment_norm": 12.8271149285, 
			 "total_energy": -730.922407303, 
			 "HOMO_LUMO_gap": 0.1772, 
			 "cosmo_polarized_energy": -11.73, 
			 "cosmo_cavitation_energy": 26.12, 
			 "cosmo_dispersion_energy": -19.31, 
			 "cosmo_repulsion_energy": 1.46, 
			 "cosmo_total_nonelectrostatic_energy": 8.27, 
			 "SMD_solvation_energy": 5.06 
		},
		"coords": [
			{
				"x": 2.7149633394,
				"y": -3.8056986634,
				"z": -1.1081810175,
				"element": "N" 
			},
			{
				"x": 2.2730858095,
				"y": -2.6261059094,
				"z": -0.5323305207,
				"element": "C" 
			},
			{
				"x": 3.032242757,
				"y": -1.9601078214,
				"z": 0.3179228223,
				"element": "N" 
			},
			{
				"x": 2.2354163351,
				"y": -0.8864902931,
				"z": 0.752489894,
				"element": "O" 
			},
			{
				"x": 1.0331310051,
				"y": -0.9362016691,
				"z": 0.1333848003,
				"element": "C" 
			},
			{
				"x": 0.9908752037,
				"y": -2.0208658276,
				"z": -0.698275381,
				"element": "C" 
			},
			{
				"x": 0.0872032967,
				"y": 0.1209578092,
				"z": 0.4754726015,
				"element": "C" 
			},
			{
				"x": -1.1900485729,
				"y": 0.1919094156,
				"z": -0.0998646176,
				"element": "C" 
			},
			{
				"x": -1.5632645467,
				"y": -0.7424379988,
				"z": -0.9993430858,
				"element": "F" 
			},
			{
				"x": -2.1043671291,
				"y": 1.1877290253,
				"z": 0.2109227639,
				"element": "C" 
			},
			{
				"x": -1.7209187917,
				"y": 2.1512593629,
				"z": 1.1366496176,
				"element": "C" 
			},
			{
				"x": -2.5930963816,
				"y": 3.125101217,
				"z": 1.4515111238,
				"element": "F" 
			},
			{
				"x": -0.4678507139,
				"y": 2.1358349361,
				"z": 1.7422310535,
				"element": "C" 
			},
			{
				"x": 0.4230218416,
				"y": 1.1222908093,
				"z": 1.4062987598,
				"element": "C" 
			},
			{
				"x": 3.7120066757,
				"y": -3.9480051899,
				"z": -1.0052800011,
				"element": "H" 
			},
			{
				"x": 2.4049898472,
				"y": -3.9491103714,
				"z": -2.0595553242,
				"element": "H" 
			},
			{
				"x": 0.1741314105,
				"y": -2.3504298919,
				"z": -1.3174955772,
				"element": "H" 
			},
			{
				"x": -3.0817452585,
				"y": 1.2080260825,
				"z": -0.2550499883,
				"element": "H" 
			},
			{
				"x": -0.2074967953,
				"y": 2.9055712512,
				"z": 2.4594193192,
				"element": "H" 
			},
			{
				"x": 1.4038206682,
				"y": 1.0903737269,
				"z": 1.8660727575,
				"element": "H" 
			}
		],
		 "valence_orbital": [ 
			{
				"type": "occ",
				"energy": -0.29834,
				"method": "rhf"
			},
			{
				"type": "occ",
				"energy": -0.29265,
				"method": "rhf"
			},
			{
				"type": "occ",
				"energy": -0.26986,
				"method": "rhf"
			},
			{
				"type": "occ",
				"energy": -0.24057,
				"method": "rhf"
			},
			{
				"type": "occ",
				"energy": -0.2248,
				"method": "rhf"
			},
			{
				"type": "unocc",
				"energy": -0.0476,
				"method": "rhf"
			},
			{
				"type": "unocc",
				"energy": -0.01988,
				"method": "rhf"
			},
			{
				"type": "unocc",
				"energy": 0.03744,
				"method": "rhf"
			},
			{
				"type": "unocc",
				"energy": 0.064,
				"method": "rhf"
			},
			{
				"type": "unocc",
				"energy": 0.07487,
				"method": "rhf"
			}
		],
		"cosmo_sigma_profile": { 
			"-0.025": 0.0,
			"-0.024": 0.0,
			"-0.023": 0.0,
			"-0.022": 0.0,
			"-0.021": 0.0,
			"-0.02": 0.0,
			"-0.019": 0.0,
			"-0.018": 0.0,
			"-0.017": 0.0,
			"-0.016": 0.0,
			"-0.015": 0.0,
			"-0.014": 0.716857445495,
			"-0.013": 2.13036053999,
			"-0.012": 2.94913542998,
			"-0.011": 2.68824929195,
			"-0.01": 2.60685263691,
			"-0.009": 3.90189516328,
			"-0.008": 6.01635106982,
			"-0.007": 7.43005658212,
			"-0.006": 7.34962002816,
			"-0.005": 7.34820527381,
			"-0.004": 6.68724076837,
			"-0.003": 5.94362802861,
			"-0.002": 9.24806107619,
			"-0.001": 18.9070941496,
			"0.0": 27.692472754,
			"0.001": 22.1265478719,
			"0.002": 17.8308517491,
			"0.003": 18.0903588317,
			"0.004": 11.9625850074,
			"0.005": 3.31276178491,
			"0.006": 3.27490371968,
			"0.007": 3.36228547037,
			"0.008": 3.64900472953,
			"0.009": 3.94018048721,
			"0.01": 2.33935564049,
			"0.011": 2.02763441434,
			"0.012": 2.55666517528,
			"0.013": 1.84572767245,
			"0.014": 1.64632555413,
			"0.015": 0.97249151357,
			"0.016": 0.0359735056372,
			"0.017": 0.0,
			"0.018": 0.0,
			"0.019": 0.0,
			"0.02": 0.0,
			"0.021": 0.0,
			"0.022": 0.0,
			"0.023": 0.0,
			"0.024": 0.0,
			"0.025": 0.0
		}
	}
}
