{
	 "smiles": "NS(=O)(=O)CC1=C(F)C=CC(Cl)=C1", 
	 "Tm": 460.15, 
	 "num_atms": 20, 
	 "gaussian": { 
		 "optdone": 1, 
		 "sigma_profile": "yes", 
		 "theory": "DFT", 
		 "functional": "B3LYP", 
		 "basiset": "6-31G**", 
		 "properties": { 
			 "R2extent": 3546.2007, 
			 "electric_dipole_moment_norm": 3.61876716714, 
			 "electric_quadrupole_moment_norm": 10.3942615712, 
			 "total_energy": -1434.3154587, 
			 "HOMO_LUMO_gap": 0.20973, 
			 "cosmo_polarized_energy": -15.78, 
			 "cosmo_cavitation_energy": 28.18, 
			 "cosmo_dispersion_energy": -20.63, 
			 "cosmo_repulsion_energy": 1.59, 
			 "cosmo_total_nonelectrostatic_energy": 9.14, 
			 "SMD_solvation_energy": 4.47 
		},
		"coords": [
			{
				"x": -2.3129180029,
				"y": -0.7407976182,
				"z": 0.3560149365,
				"element": "N" 
			},
			{
				"x": -1.5679542939,
				"y": 0.0550068688,
				"z": 1.6487825499,
				"element": "S" 
			},
			{
				"x": -0.8915260586,
				"y": -0.9562742745,
				"z": 2.4674762983,
				"element": "O" 
			},
			{
				"x": -2.5347331312,
				"y": 0.9954789076,
				"z": 2.2216841522,
				"element": "O" 
			},
			{
				"x": -0.2877002461,
				"y": 1.056581338,
				"z": 0.8168061966,
				"element": "C" 
			},
			{
				"x": 0.6820744949,
				"y": 0.2539196569,
				"z": 0.0010785576,
				"element": "C" 
			},
			{
				"x": 0.6139119669,
				"y": 0.2692646818,
				"z": -1.3946489658,
				"element": "C" 
			},
			{
				"x": -0.3295693504,
				"y": 1.0251625966,
				"z": -1.994033782,
				"element": "F" 
			},
			{
				"x": 1.4931883755,
				"y": -0.451624261,
				"z": -2.1926047807,
				"element": "C" 
			},
			{
				"x": 2.4774088515,
				"y": -1.2305367684,
				"z": -1.5871139353,
				"element": "C" 
			},
			{
				"x": 2.5572204821,
				"y": -1.2645278404,
				"z": -0.1939278737,
				"element": "C" 
			},
			{
				"x": 3.7961156536,
				"y": -2.2438362383,
				"z": 0.5739154914,
				"element": "Cl" 
			},
			{
				"x": 1.6747794084,
				"y": -0.5345025497,
				"z": 0.5986587513,
				"element": "C" 
			},
			{
				"x": -3.2903997279,
				"y": -0.4666139199,
				"z": 0.3066588873,
				"element": "H" 
			},
			{
				"x": -2.2102194565,
				"y": -1.7457453402,
				"z": 0.4671588216,
				"element": "H" 
			},
			{
				"x": -0.8284410269,
				"y": 1.781383507,
				"z": 0.2078458496,
				"element": "H" 
			},
			{
				"x": 0.1997360447,
				"y": 1.5795950961,
				"z": 1.6445702896,
				"element": "H" 
			},
			{
				"x": 1.3995353177,
				"y": -0.396632811,
				"z": -3.2714354117,
				"element": "H" 
			},
			{
				"x": 3.1754356454,
				"y": -1.8022093072,
				"z": -2.1879669999,
				"element": "H" 
			},
			{
				"x": 1.740555054,
				"y": -0.5867917241,
				"z": 1.6792809671,
				"element": "H" 
			}
		],
		 "valence_orbital": [ 
			{
				"type": "occ",
				"energy": -0.32016,
				"method": "rhf"
			},
			{
				"type": "occ",
				"energy": -0.31003,
				"method": "rhf"
			},
			{
				"type": "occ",
				"energy": -0.30135,
				"method": "rhf"
			},
			{
				"type": "occ",
				"energy": -0.27494,
				"method": "rhf"
			},
			{
				"type": "occ",
				"energy": -0.25075,
				"method": "rhf"
			},
			{
				"type": "unocc",
				"energy": -0.04102,
				"method": "rhf"
			},
			{
				"type": "unocc",
				"energy": -0.02075,
				"method": "rhf"
			},
			{
				"type": "unocc",
				"energy": 0.02046,
				"method": "rhf"
			},
			{
				"type": "unocc",
				"energy": 0.04904,
				"method": "rhf"
			},
			{
				"type": "unocc",
				"energy": 0.07723,
				"method": "rhf"
			}
		],
		"cosmo_sigma_profile": { 
			"-0.025": 0.0,
			"-0.024": 0.0,
			"-0.023": 0.0,
			"-0.022": 0.0,
			"-0.021": 0.0,
			"-0.02": 0.0,
			"-0.019": 0.0,
			"-0.018": 0.0,
			"-0.017": 0.0,
			"-0.016": 0.0438039531668,
			"-0.015": 1.41815958866,
			"-0.014": 2.26282070155,
			"-0.013": 2.6011790196,
			"-0.012": 2.77850549101,
			"-0.011": 1.61763110333,
			"-0.01": 2.72700454143,
			"-0.009": 4.79636947375,
			"-0.008": 9.1455386969,
			"-0.007": 10.2956382435,
			"-0.006": 10.0022396882,
			"-0.005": 9.11159724851,
			"-0.004": 8.86706872792,
			"-0.003": 8.11155325061,
			"-0.002": 9.642439533,
			"-0.001": 12.3266755414,
			"0.0": 14.3477877338,
			"0.001": 19.4371430379,
			"0.002": 20.2951950961,
			"0.003": 15.7839728162,
			"0.004": 17.787578204,
			"0.005": 8.38242364973,
			"0.006": 3.89690978618,
			"0.007": 3.92312955815,
			"0.008": 4.41289898649,
			"0.009": 3.09897353663,
			"0.01": 6.60100367601,
			"0.011": 10.1315025149,
			"0.012": 3.49535886246,
			"0.013": 0.0,
			"0.014": 0.0,
			"0.015": 0.0,
			"0.016": 0.0,
			"0.017": 0.0,
			"0.018": 0.0,
			"0.019": 0.0,
			"0.02": 0.0,
			"0.021": 0.0,
			"0.022": 0.0,
			"0.023": 0.0,
			"0.024": 0.0,
			"0.025": 0.0
		}
	}
}
