{
	 "smiles": "ClCC(=O)NC(=O)NCC1=CC=CS1", 
	 "Tm": 422.15, 
	 "num_atms": 23, 
	 "gaussian": { 
		 "optdone": 1, 
		 "sigma_profile": "yes", 
		 "theory": "DFT", 
		 "functional": "B3LYP", 
		 "basiset": "6-31G**", 
		 "properties": { 
			 "R2extent": 4826.5575, 
			 "electric_dipole_moment_norm": 5.00633257884, 
			 "electric_quadrupole_moment_norm": 9.61928663519, 
			 "total_energy": -1428.61332283, 
			 "HOMO_LUMO_gap": 0.19998, 
			 "cosmo_polarized_energy": -18.32, 
			 "cosmo_cavitation_energy": 31.71, 
			 "cosmo_dispersion_energy": -22.22, 
			 "cosmo_repulsion_energy": 1.72, 
			 "cosmo_total_nonelectrostatic_energy": 11.22, 
			 "SMD_solvation_energy": 6.62 
		},
		"coords": [
			{
				"x": -3.1306474011,
				"y": 1.555982866,
				"z": -0.0861155046,
				"element": "Cl" 
			},
			{
				"x": -2.7224297226,
				"y": 0.6600451267,
				"z": 1.4334657551,
				"element": "C" 
			},
			{
				"x": -1.610201493,
				"y": 1.3646376954,
				"z": 2.20825995,
				"element": "C" 
			},
			{
				"x": -1.8565973087,
				"y": 1.9116332017,
				"z": 3.2675107506,
				"element": "O" 
			},
			{
				"x": -0.3246831094,
				"y": 1.4103714944,
				"z": 1.6806575311,
				"element": "N" 
			},
			{
				"x": 0.2272599732,
				"y": 0.9566279285,
				"z": 0.4510349304,
				"element": "C" 
			},
			{
				"x": 0.9884849582,
				"y": 1.6599798286,
				"z": -0.1881259932,
				"element": "O" 
			},
			{
				"x": -0.1330245288,
				"y": -0.3154135437,
				"z": 0.0951898756,
				"element": "N" 
			},
			{
				"x": 0.4070925257,
				"y": -0.899562574,
				"z": -1.1345911529,
				"element": "C" 
			},
			{
				"x": -0.3316318278,
				"y": -2.1463242439,
				"z": -1.5189675869,
				"element": "C" 
			},
			{
				"x": 0.1853125951,
				"y": -3.4034771701,
				"z": -1.693369534,
				"element": "C" 
			},
			{
				"x": -0.7902848854,
				"y": -4.3707894712,
				"z": -2.0855319033,
				"element": "C" 
			},
			{
				"x": -2.0427132848,
				"y": -3.8360280095,
				"z": -2.1984559718,
				"element": "C" 
			},
			{
				"x": -2.0526526233,
				"y": -2.1388450244,
				"z": -1.836417593,
				"element": "S" 
			},
			{
				"x": -2.4818771466,
				"y": -0.3601566103,
				"z": 1.139300335,
				"element": "H" 
			},
			{
				"x": -3.6042268339,
				"y": 0.6774174375,
				"z": 2.0699512773,
				"element": "H" 
			},
			{
				"x": 0.2353300246,
				"y": 2.14147085,
				"z": 2.1053058456,
				"element": "H" 
			},
			{
				"x": -0.3689094608,
				"y": -0.9619781205,
				"z": 0.8349411623,
				"element": "H" 
			},
			{
				"x": 0.3414856326,
				"y": -0.1272831231,
				"z": -1.9065796712,
				"element": "H" 
			},
			{
				"x": 1.4722020524,
				"y": -1.1429828275,
				"z": -1.0237189763,
				"element": "H" 
			},
			{
				"x": 1.2365648088,
				"y": -3.6295698221,
				"z": -1.5484876206,
				"element": "H" 
			},
			{
				"x": -0.5667854453,
				"y": -5.4154223208,
				"z": -2.2690695416,
				"element": "H" 
			},
			{
				"x": -2.9637674994,
				"y": -4.3341335679,
				"z": -2.4681863637,
				"element": "H" 
			}
		],
		 "valence_orbital": [ 
			{
				"type": "occ",
				"energy": -0.2858,
				"method": "rhf"
			},
			{
				"type": "occ",
				"energy": -0.28059,
				"method": "rhf"
			},
			{
				"type": "occ",
				"energy": -0.26793,
				"method": "rhf"
			},
			{
				"type": "occ",
				"energy": -0.26262,
				"method": "rhf"
			},
			{
				"type": "occ",
				"energy": -0.24336,
				"method": "rhf"
			},
			{
				"type": "unocc",
				"energy": -0.04338,
				"method": "rhf"
			},
			{
				"type": "unocc",
				"energy": -0.02808,
				"method": "rhf"
			},
			{
				"type": "unocc",
				"energy": 0.01234,
				"method": "rhf"
			},
			{
				"type": "unocc",
				"energy": 0.02382,
				"method": "rhf"
			},
			{
				"type": "unocc",
				"energy": 0.04212,
				"method": "rhf"
			}
		],
		"cosmo_sigma_profile": { 
			"-0.025": 0.0,
			"-0.024": 0.0,
			"-0.023": 0.0,
			"-0.022": 0.0,
			"-0.021": 0.0,
			"-0.02": 0.0,
			"-0.019": 0.0,
			"-0.018": 0.0,
			"-0.017": 0.0,
			"-0.016": 0.900686831975,
			"-0.015": 2.49765358681,
			"-0.014": 2.12392796402,
			"-0.013": 1.70764013879,
			"-0.012": 1.90968844655,
			"-0.011": 2.2457086753,
			"-0.01": 1.95723439476,
			"-0.009": 3.04093146691,
			"-0.008": 6.47160478913,
			"-0.007": 9.17396676157,
			"-0.006": 15.951505793,
			"-0.005": 15.4693484115,
			"-0.004": 14.2655500473,
			"-0.003": 12.6388333127,
			"-0.002": 14.42848796,
			"-0.001": 14.4912948766,
			"0.0": 14.2558201627,
			"0.001": 12.8511618919,
			"0.002": 17.6673514997,
			"0.003": 21.5019963832,
			"0.004": 20.1329007796,
			"0.005": 15.4025454196,
			"0.006": 5.65450520946,
			"0.007": 2.23483983585,
			"0.008": 2.60432147432,
			"0.009": 3.13851817989,
			"0.01": 3.81523793775,
			"0.011": 6.9771286567,
			"0.012": 8.37130594906,
			"0.013": 2.90763787244,
			"0.014": 0.047308304995,
			"0.015": 0.0,
			"0.016": 0.0,
			"0.017": 0.0,
			"0.018": 0.0,
			"0.019": 0.0,
			"0.02": 0.0,
			"0.021": 0.0,
			"0.022": 0.0,
			"0.023": 0.0,
			"0.024": 0.0,
			"0.025": 0.0
		}
	}
}
