{
	 "smiles": "CC1=CC(=CC=C1O)C1(OC(=O)C2=CC=CC=C12)C1=CC=C(O)C(C)=C1", 
	 "Tm": 497.15, 
	 "num_atms": 44, 
	 "gaussian": { 
		 "optdone": 1, 
		 "sigma_profile": "yes", 
		 "theory": "DFT", 
		 "functional": "B3LYP", 
		 "basiset": "6-31G**", 
		 "properties": { 
			 "R2extent": 9562.8289, 
			 "electric_dipole_moment_norm": 7.18052189329, 
			 "electric_quadrupole_moment_norm": 15.9189170125, 
			 "total_energy": -1150.10529846, 
			 "HOMO_LUMO_gap": 0.16963, 
			 "cosmo_polarized_energy": -22.5, 
			 "cosmo_cavitation_energy": 47.4, 
			 "cosmo_dispersion_energy": -31.99, 
			 "cosmo_repulsion_energy": 2.45, 
			 "cosmo_total_nonelectrostatic_energy": 17.86, 
			 "SMD_solvation_energy": 9.2 
		},
		"coords": [
			{
				"x": 1.0424886811,
				"y": 3.1333860137,
				"z": -4.3497963153,
				"element": "C" 
			},
			{
				"x": 0.6929535016,
				"y": 1.7473823294,
				"z": -3.8605290162,
				"element": "C" 
			},
			{
				"x": 0.9443090414,
				"y": 1.3558574942,
				"z": -2.5395505743,
				"element": "C" 
			},
			{
				"x": 0.6238008155,
				"y": 0.0805647981,
				"z": -2.067837567,
				"element": "C" 
			},
			{
				"x": 0.0436932173,
				"y": -0.832474176,
				"z": -2.9624455084,
				"element": "C" 
			},
			{
				"x": -0.2108594437,
				"y": -0.4742891315,
				"z": -4.2787752491,
				"element": "C" 
			},
			{
				"x": 0.1085106276,
				"y": 0.8114316101,
				"z": -4.72933385,
				"element": "C" 
			},
			{
				"x": -0.1765258557,
				"y": 1.0993176633,
				"z": -6.0345079343,
				"element": "O" 
			},
			{
				"x": 0.9426899074,
				"y": -0.3894245048,
				"z": -0.6474318293,
				"element": "C" 
			},
			{
				"x": 2.0004895981,
				"y": -1.4016666552,
				"z": -0.7703134819,
				"element": "O" 
			},
			{
				"x": 3.1548476049,
				"y": -1.0266099804,
				"z": -0.1298361757,
				"element": "C" 
			},
			{
				"x": 4.1550220034,
				"y": -1.7015625719,
				"z": -0.1381189786,
				"element": "O" 
			},
			{
				"x": 2.894216719,
				"y": 0.2715085481,
				"z": 0.5292098587,
				"element": "C" 
			},
			{
				"x": 3.7393362065,
				"y": 1.0248693025,
				"z": 1.3419509935,
				"element": "C" 
			},
			{
				"x": 3.235598041,
				"y": 2.2083135762,
				"z": 1.8795821731,
				"element": "C" 
			},
			{
				"x": 1.9171645937,
				"y": 2.6056995987,
				"z": 1.6077600612,
				"element": "C" 
			},
			{
				"x": 1.0788545246,
				"y": 1.8380206294,
				"z": 0.7936629865,
				"element": "C" 
			},
			{
				"x": 1.5910872961,
				"y": 0.6628246474,
				"z": 0.2471221676,
				"element": "C" 
			},
			{
				"x": -0.2615913638,
				"y": -1.0284530036,
				"z": 0.05180841,
				"element": "C" 
			},
			{
				"x": -0.1161063668,
				"y": -2.1566970058,
				"z": 0.8667726137,
				"element": "C" 
			},
			{
				"x": -1.2093807154,
				"y": -2.6804098006,
				"z": 1.5501288672,
				"element": "C" 
			},
			{
				"x": -2.4647524622,
				"y": -2.0790380552,
				"z": 1.4367443288,
				"element": "C" 
			},
			{
				"x": -3.4935530411,
				"y": -2.6463895439,
				"z": 2.1366956354,
				"element": "O" 
			},
			{
				"x": -2.6414458325,
				"y": -0.9440142764,
				"z": 0.6245147547,
				"element": "C" 
			},
			{
				"x": -4.0024954924,
				"y": -0.3024827628,
				"z": 0.4898843945,
				"element": "C" 
			},
			{
				"x": -1.5285537805,
				"y": -0.4430883686,
				"z": -0.0568005778,
				"element": "C" 
			},
			{
				"x": 0.1596693534,
				"y": 3.6821239014,
				"z": -4.7063127248,
				"element": "H" 
			},
			{
				"x": 1.7705482094,
				"y": 3.1097673962,
				"z": -5.1725136672,
				"element": "H" 
			},
			{
				"x": 1.4875300809,
				"y": 3.7283958266,
				"z": -3.5489314091,
				"element": "H" 
			},
			{
				"x": 1.4064897045,
				"y": 2.0773102411,
				"z": -1.8734944718,
				"element": "H" 
			},
			{
				"x": -0.2028916958,
				"y": -1.8326926622,
				"z": -2.6214132969,
				"element": "H" 
			},
			{
				"x": -0.6548340914,
				"y": -1.1749394663,
				"z": -4.9782510819,
				"element": "H" 
			},
			{
				"x": 0.1081874513,
				"y": 1.9992440037,
				"z": -6.2366768177,
				"element": "H" 
			},
			{
				"x": 4.7502939815,
				"y": 0.6849808227,
				"z": 1.5436841816,
				"element": "H" 
			},
			{
				"x": 3.8601226811,
				"y": 2.8248392073,
				"z": 2.518990814,
				"element": "H" 
			},
			{
				"x": 1.5383335403,
				"y": 3.5256820347,
				"z": 2.0440464566,
				"element": "H" 
			},
			{
				"x": 0.0562602771,
				"y": 2.1495300952,
				"z": 0.6049210013,
				"element": "H" 
			},
			{
				"x": 0.8506638227,
				"y": -2.6386809661,
				"z": 0.9537329439,
				"element": "H" 
			},
			{
				"x": -1.1096825363,
				"y": -3.5611239249,
				"z": 2.1760583127,
				"element": "H" 
			},
			{
				"x": -4.3063698491,
				"y": -2.1519443275,
				"z": 1.9743010278,
				"element": "H" 
			},
			{
				"x": -4.386470574,
				"y": 0.05923765,
				"z": 1.4538577712,
				"element": "H" 
			},
			{
				"x": -3.9631203868,
				"y": 0.5577291286,
				"z": -0.1824111814,
				"element": "H" 
			},
			{
				"x": -4.7476631559,
				"y": -0.997002918,
				"z": 0.0778691056,
				"element": "H" 
			},
			{
				"x": -1.6643648379,
				"y": 0.4193675834,
				"z": -0.7037171511,
				"element": "H" 
			}
		],
		 "valence_orbital": [ 
			{
				"type": "occ",
				"energy": -0.26334,
				"method": "rhf"
			},
			{
				"type": "occ",
				"energy": -0.25097,
				"method": "rhf"
			},
			{
				"type": "occ",
				"energy": -0.24638,
				"method": "rhf"
			},
			{
				"type": "occ",
				"energy": -0.22264,
				"method": "rhf"
			},
			{
				"type": "occ",
				"energy": -0.21568,
				"method": "rhf"
			},
			{
				"type": "unocc",
				"energy": -0.04605,
				"method": "rhf"
			},
			{
				"type": "unocc",
				"energy": -0.02285,
				"method": "rhf"
			},
			{
				"type": "unocc",
				"energy": -0.00923,
				"method": "rhf"
			},
			{
				"type": "unocc",
				"energy": 0.00052,
				"method": "rhf"
			},
			{
				"type": "unocc",
				"energy": 0.00562,
				"method": "rhf"
			}
		],
		"cosmo_sigma_profile": { 
			"-0.025": 0.0,
			"-0.024": 0.0,
			"-0.023": 0.0,
			"-0.022": 0.0,
			"-0.021": 0.0,
			"-0.02": 0.0,
			"-0.019": 0.0,
			"-0.018": 0.0,
			"-0.017": 0.0,
			"-0.016": 0.85167960567,
			"-0.015": 1.77447044337,
			"-0.014": 2.0413960508,
			"-0.013": 2.06574710974,
			"-0.012": 1.91952820017,
			"-0.011": 1.73891193059,
			"-0.01": 2.80525480715,
			"-0.009": 2.95836622998,
			"-0.008": 2.53039162099,
			"-0.007": 7.17558113409,
			"-0.006": 18.2853160766,
			"-0.005": 30.5903737997,
			"-0.004": 27.4571402765,
			"-0.003": 26.3891213297,
			"-0.002": 25.5653155231,
			"-0.001": 30.1844811424,
			"0.0": 28.1282616116,
			"0.001": 20.853103451,
			"0.002": 24.8114735693,
			"0.003": 28.7827716305,
			"0.004": 23.4082462972,
			"0.005": 19.7325062071,
			"0.006": 7.11283479478,
			"0.007": 5.61131220772,
			"0.008": 6.40188610554,
			"0.009": 5.13457640236,
			"0.01": 7.29632925021,
			"0.011": 8.67672040742,
			"0.012": 6.16261847034,
			"0.013": 1.42208162097,
			"0.014": 0.000720825494996,
			"0.015": 0.0,
			"0.016": 0.0,
			"0.017": 0.0,
			"0.018": 0.0,
			"0.019": 0.0,
			"0.02": 0.0,
			"0.021": 0.0,
			"0.022": 0.0,
			"0.023": 0.0,
			"0.024": 0.0,
			"0.025": 0.0
		}
	}
}
