{
	 "smiles": "NC(C(=O)N[C@H]1[C@H]2SCC(Cl)=C(N2C1=O)C(O)=O)C1=CC=CC=C1", 
	 "Tm": 600.15, 
	 "num_atms": 38, 
	 "gaussian": { 
		 "optdone": 1, 
		 "sigma_profile": "yes", 
		 "theory": "DFT", 
		 "functional": "B3LYP", 
		 "basiset": "6-31G**", 
		 "properties": { 
			 "R2extent": 12361.4029, 
			 "electric_dipole_moment_norm": 4.87386652361, 
			 "electric_quadrupole_moment_norm": 44.1886071892, 
			 "total_energy": -1903.54220329, 
			 "HOMO_LUMO_gap": 0.18082, 
			 "cosmo_polarized_energy": -25.92, 
			 "cosmo_cavitation_energy": 45.49, 
			 "cosmo_dispersion_energy": -31.64, 
			 "cosmo_repulsion_energy": 2.39, 
			 "cosmo_total_nonelectrostatic_energy": 16.24, 
			 "SMD_solvation_energy": 6.92 
		},
		"coords": [
			{
				"x": 0.4897183816,
				"y": -0.5799912509,
				"z": -4.4217899975,
				"element": "N" 
			},
			{
				"x": 0.3217507217,
				"y": -0.1801700467,
				"z": -3.0278160755,
				"element": "C" 
			},
			{
				"x": 1.5167079861,
				"y": -0.6224257844,
				"z": -2.1433606355,
				"element": "C" 
			},
			{
				"x": 2.5742526526,
				"y": -0.9980924347,
				"z": -2.6280724115,
				"element": "O" 
			},
			{
				"x": 1.340820028,
				"y": -0.4778059835,
				"z": -0.7838583902,
				"element": "N" 
			},
			{
				"x": 2.371970786,
				"y": -0.8348756463,
				"z": 0.1357155051,
				"element": "C" 
			},
			{
				"x": 2.8686243041,
				"y": 0.1986078476,
				"z": 1.2072846117,
				"element": "C" 
			},
			{
				"x": 1.796802766,
				"y": 1.6578716366,
				"z": 1.4401216245,
				"element": "S" 
			},
			{
				"x": 2.3000281339,
				"y": 1.9196299204,
				"z": 3.1895415545,
				"element": "C" 
			},
			{
				"x": 2.3959194249,
				"y": 0.6837991558,
				"z": 4.0557855473,
				"element": "C" 
			},
			{
				"x": 2.3878491731,
				"y": 1.1051525446,
				"z": 5.7476646517,
				"element": "Cl" 
			},
			{
				"x": 2.5073894831,
				"y": -0.5950796266,
				"z": 3.6282042576,
				"element": "C" 
			},
			{
				"x": 2.5956544333,
				"y": -0.8153731622,
				"z": 2.2313226011,
				"element": "N" 
			},
			{
				"x": 1.9814788653,
				"y": -1.6932706453,
				"z": 1.3550453751,
				"element": "C" 
			},
			{
				"x": 1.3533243036,
				"y": -2.7179138436,
				"z": 1.5460523363,
				"element": "O" 
			},
			{
				"x": 2.6447189785,
				"y": -1.804932385,
				"z": 4.5426628591,
				"element": "C" 
			},
			{
				"x": 2.1538120103,
				"y": -2.9649084526,
				"z": 4.0975029253,
				"element": "O" 
			},
			{
				"x": 3.1863764896,
				"y": -1.7223469295,
				"z": 5.6186647285,
				"element": "O" 
			},
			{
				"x": -1.0263502276,
				"y": -0.6270819834,
				"z": -2.484700904,
				"element": "C" 
			},
			{
				"x": -2.0762960192,
				"y": 0.2879083571,
				"z": -2.3416920835,
				"element": "C" 
			},
			{
				"x": -3.3264724264,
				"y": -0.1288204466,
				"z": -1.8803579707,
				"element": "C" 
			},
			{
				"x": -3.5414639344,
				"y": -1.4692040516,
				"z": -1.5571849239,
				"element": "C" 
			},
			{
				"x": -2.5011886099,
				"y": -2.3911469171,
				"z": -1.6952425977,
				"element": "C" 
			},
			{
				"x": -1.2526450205,
				"y": -1.9724552698,
				"z": -2.1544450888,
				"element": "C" 
			},
			{
				"x": 1.4827936879,
				"y": -0.5245398013,
				"z": -4.6453798332,
				"element": "H" 
			},
			{
				"x": 0.2401117902,
				"y": -1.5620074127,
				"z": -4.5182147778,
				"element": "H" 
			},
			{
				"x": 0.350607436,
				"y": 0.9195336276,
				"z": -2.9892884463,
				"element": "H" 
			},
			{
				"x": 0.4114627885,
				"y": -0.2826720985,
				"z": -0.43697546,
				"element": "H" 
			},
			{
				"x": 3.1968743679,
				"y": -1.2572153357,
				"z": -0.4449481593,
				"element": "H" 
			},
			{
				"x": 3.9209286096,
				"y": 0.4896770607,
				"z": 1.1613508137,
				"element": "H" 
			},
			{
				"x": 1.5427550604,
				"y": 2.5869957252,
				"z": 3.6085785436,
				"element": "H" 
			},
			{
				"x": 3.2540360052,
				"y": 2.4584666754,
				"z": 3.2223855342,
				"element": "H" 
			},
			{
				"x": 1.7111385594,
				"y": -2.9255634377,
				"z": 3.2158774481,
				"element": "H" 
			},
			{
				"x": -1.9150964068,
				"y": 1.3303405827,
				"z": -2.603581589,
				"element": "H" 
			},
			{
				"x": -4.1310423176,
				"y": 0.5932767468,
				"z": -1.7761959027,
				"element": "H" 
			},
			{
				"x": -4.5129305813,
				"y": -1.7945016605,
				"z": -1.196849333,
				"element": "H" 
			},
			{
				"x": -2.6594626996,
				"y": -3.4347653483,
				"z": -1.4400362005,
				"element": "H" 
			},
			{
				"x": -0.4458589836,
				"y": -2.696099926,
				"z": -2.2472701366,
				"element": "H" 
			}
		],
		 "valence_orbital": [ 
			{
				"type": "occ",
				"energy": -0.26792,
				"method": "rhf"
			},
			{
				"type": "occ",
				"energy": -0.26686,
				"method": "rhf"
			},
			{
				"type": "occ",
				"energy": -0.26222,
				"method": "rhf"
			},
			{
				"type": "occ",
				"energy": -0.25225,
				"method": "rhf"
			},
			{
				"type": "occ",
				"energy": -0.24882,
				"method": "rhf"
			},
			{
				"type": "unocc",
				"energy": -0.068,
				"method": "rhf"
			},
			{
				"type": "unocc",
				"energy": -0.02689,
				"method": "rhf"
			},
			{
				"type": "unocc",
				"energy": -0.0234,
				"method": "rhf"
			},
			{
				"type": "unocc",
				"energy": -0.01988,
				"method": "rhf"
			},
			{
				"type": "unocc",
				"energy": -0.01777,
				"method": "rhf"
			}
		],
		"cosmo_sigma_profile": { 
			"-0.025": 0.0,
			"-0.024": 0.0,
			"-0.023": 0.0,
			"-0.022": 0.0,
			"-0.021": 0.0,
			"-0.02": 0.0,
			"-0.019": 0.0,
			"-0.018": 0.0,
			"-0.017": 0.0,
			"-0.016": 0.0,
			"-0.015": 0.0,
			"-0.014": 0.0,
			"-0.013": 0.261140019224,
			"-0.012": 0.772003817737,
			"-0.011": 0.994134638686,
			"-0.01": 3.19120541861,
			"-0.009": 10.39882406,
			"-0.008": 15.9644048571,
			"-0.007": 15.2163905717,
			"-0.006": 25.0834764676,
			"-0.005": 25.6834854023,
			"-0.004": 27.7799243566,
			"-0.003": 22.7267332551,
			"-0.002": 20.6803618189,
			"-0.001": 21.0659369832,
			"0.0": 17.9811403137,
			"0.001": 18.0132900471,
			"0.002": 21.2980598214,
			"0.003": 20.3100545332,
			"0.004": 17.1423777798,
			"0.005": 16.5765993647,
			"0.006": 9.64149657268,
			"0.007": 7.14929442893,
			"0.008": 7.70860201333,
			"0.009": 8.41368399055,
			"0.01": 9.80517165098,
			"0.011": 9.29015809218,
			"0.012": 8.96630726963,
			"0.013": 1.54064468957,
			"0.014": 0.391398021346,
			"0.015": 0.45840131802,
			"0.016": 0.650699699979,
			"0.017": 0.892032429655,
			"0.018": 0.435127094165,
			"0.019": 0.357499205306,
			"0.02": 0.0,
			"0.021": 0.0,
			"0.022": 0.0,
			"0.023": 0.0,
			"0.024": 0.0,
			"0.025": 0.0
		}
	}
}
