{
	 "smiles": "COC1=CC=CC=C1C1=CC=CC=C1OC", 
	 "Tm": 428.15, 
	 "num_atms": 30, 
	 "gaussian": { 
		 "optdone": 1, 
		 "sigma_profile": "yes", 
		 "theory": "DFT", 
		 "functional": "B3LYP", 
		 "basiset": "6-31G**", 
		 "properties": { 
			 "R2extent": 3686.0382, 
			 "electric_dipole_moment_norm": 2.49727654256, 
			 "electric_quadrupole_moment_norm": 5.36529933555, 
			 "total_energy": -692.348896262, 
			 "HOMO_LUMO_gap": 0.19198, 
			 "cosmo_polarized_energy": -8.38, 
			 "cosmo_cavitation_energy": 33.02, 
			 "cosmo_dispersion_energy": -23.09, 
			 "cosmo_repulsion_energy": 1.82, 
			 "cosmo_total_nonelectrostatic_energy": 11.74, 
			 "SMD_solvation_energy": 6.98 
		},
		"coords": [
			{
				"x": -1.8636957009,
				"y": -0.8553116651,
				"z": 2.3556417996,
				"element": "C" 
			},
			{
				"x": -2.1881459638,
				"y": -0.7508348475,
				"z": 0.9700390226,
				"element": "O" 
			},
			{
				"x": -1.9464152586,
				"y": 0.4919896504,
				"z": 0.4139206774,
				"element": "C" 
			},
			{
				"x": -3.040195785,
				"y": 1.3390969973,
				"z": 0.2207538758,
				"element": "C" 
			},
			{
				"x": -2.8682612805,
				"y": 2.5884020317,
				"z": -0.3720273448,
				"element": "C" 
			},
			{
				"x": -1.5912717205,
				"y": 2.99428086,
				"z": -0.7634613506,
				"element": "C" 
			},
			{
				"x": -0.5023666555,
				"y": 2.1472368145,
				"z": -0.5686003064,
				"element": "C" 
			},
			{
				"x": -0.6491692242,
				"y": 0.878774475,
				"z": 0.017770658,
				"element": "C" 
			},
			{
				"x": 0.5158634554,
				"y": -0.0409199427,
				"z": 0.1541168263,
				"element": "C" 
			},
			{
				"x": 0.4436368887,
				"y": -1.3507653701,
				"z": -0.338185254,
				"element": "C" 
			},
			{
				"x": 1.5244371534,
				"y": -2.2296376965,
				"z": -0.2550891611,
				"element": "C" 
			},
			{
				"x": 2.7102981099,
				"y": -1.8004593219,
				"z": 0.3345237946,
				"element": "C" 
			},
			{
				"x": 2.8155207362,
				"y": -0.5033994212,
				"z": 0.8413576966,
				"element": "C" 
			},
			{
				"x": 1.7287828523,
				"y": 0.374860247,
				"z": 0.7557593962,
				"element": "C" 
			},
			{
				"x": 1.7563621943,
				"y": 1.6522448646,
				"z": 1.2450246961,
				"element": "O" 
			},
			{
				"x": 2.9350265351,
				"y": 2.1094556391,
				"z": 1.8858005394,
				"element": "C" 
			},
			{
				"x": -2.1085585035,
				"y": -1.8764065846,
				"z": 2.6562580723,
				"element": "H" 
			},
			{
				"x": -0.797855441,
				"y": -0.6720511199,
				"z": 2.5358882401,
				"element": "H" 
			},
			{
				"x": -2.4554326561,
				"y": -0.1488677687,
				"z": 2.9529197171,
				"element": "H" 
			},
			{
				"x": -4.0192033323,
				"y": 0.9914141708,
				"z": 0.5357582695,
				"element": "H" 
			},
			{
				"x": -3.7244755999,
				"y": 3.2390935821,
				"z": -0.5253449772,
				"element": "H" 
			},
			{
				"x": -1.4431755104,
				"y": 3.9646852453,
				"z": -1.2282516531,
				"element": "H" 
			},
			{
				"x": 0.4873487991,
				"y": 2.4626475038,
				"z": -0.8803719315,
				"element": "H" 
			},
			{
				"x": -0.4853393275,
				"y": -1.6774258853,
				"z": -0.7920727079,
				"element": "H" 
			},
			{
				"x": 1.4378178807,
				"y": -3.2364869524,
				"z": -0.6516550909,
				"element": "H" 
			},
			{
				"x": 3.5630856515,
				"y": -2.4696623126,
				"z": 0.4064294333,
				"element": "H" 
			},
			{
				"x": 3.743221391,
				"y": -0.1859418054,
				"z": 1.3019939309,
				"element": "H" 
			},
			{
				"x": 2.726542594,
				"y": 3.133151368,
				"z": 2.2010997113,
				"element": "H" 
			},
			{
				"x": 3.179579194,
				"y": 1.5035123932,
				"z": 2.7679675974,
				"element": "H" 
			},
			{
				"x": 3.7958385242,
				"y": 2.1108248511,
				"z": 1.2044358231,
				"element": "H" 
			}
		],
		 "valence_orbital": [ 
			{
				"type": "occ",
				"energy": -0.26555,
				"method": "rhf"
			},
			{
				"type": "occ",
				"energy": -0.25897,
				"method": "rhf"
			},
			{
				"type": "occ",
				"energy": -0.23582,
				"method": "rhf"
			},
			{
				"type": "occ",
				"energy": -0.22672,
				"method": "rhf"
			},
			{
				"type": "occ",
				"energy": -0.20907,
				"method": "rhf"
			},
			{
				"type": "unocc",
				"energy": -0.01709,
				"method": "rhf"
			},
			{
				"type": "unocc",
				"energy": 0.01052,
				"method": "rhf"
			},
			{
				"type": "unocc",
				"energy": 0.01436,
				"method": "rhf"
			},
			{
				"type": "unocc",
				"energy": 0.02769,
				"method": "rhf"
			},
			{
				"type": "unocc",
				"energy": 0.09131,
				"method": "rhf"
			}
		],
		"cosmo_sigma_profile": { 
			"-0.025": 0.0,
			"-0.024": 0.0,
			"-0.023": 0.0,
			"-0.022": 0.0,
			"-0.021": 0.0,
			"-0.02": 0.0,
			"-0.019": 0.0,
			"-0.018": 0.0,
			"-0.017": 0.0,
			"-0.016": 0.0,
			"-0.015": 0.0,
			"-0.014": 0.0,
			"-0.013": 0.0,
			"-0.012": 0.0,
			"-0.011": 0.0,
			"-0.01": 0.0,
			"-0.009": 0.0,
			"-0.008": 0.0,
			"-0.007": 0.259486495124,
			"-0.006": 9.03395297037,
			"-0.005": 24.8865549237,
			"-0.004": 28.3174230778,
			"-0.003": 31.707956203,
			"-0.002": 23.8807337557,
			"-0.001": 18.6013425144,
			"0.0": 16.2412146144,
			"0.001": 13.6251979121,
			"0.002": 16.775227212,
			"0.003": 16.7329635774,
			"0.004": 17.8610015272,
			"0.005": 18.8413081667,
			"0.006": 13.6755729231,
			"0.007": 3.72701478813,
			"0.008": 2.28891184945,
			"0.009": 1.64737104015,
			"0.01": 2.32104892267,
			"0.011": 1.59473843794,
			"0.012": 0.746088831653,
			"0.013": 0.0873453929549,
			"0.014": 0.0,
			"0.015": 0.0,
			"0.016": 0.0,
			"0.017": 0.0,
			"0.018": 0.0,
			"0.019": 0.0,
			"0.02": 0.0,
			"0.021": 0.0,
			"0.022": 0.0,
			"0.023": 0.0,
			"0.024": 0.0,
			"0.025": 0.0
		}
	}
}
