{
	 "smiles": "CC1=C(C=CC(O)=O)C=CC(N)=N1", 
	 "Tm": 527.15, 
	 "num_atms": 23, 
	 "gaussian": { 
		 "optdone": 1, 
		 "sigma_profile": "yes", 
		 "theory": "DFT", 
		 "functional": "B3LYP", 
		 "basiset": "6-31G**", 
		 "properties": { 
			 "R2extent": 4706.989, 
			 "electric_dipole_moment_norm": 6.85367481648, 
			 "electric_quadrupole_moment_norm": 45.7141791512, 
			 "total_energy": -608.942462071, 
			 "HOMO_LUMO_gap": 0.15113, 
			 "cosmo_polarized_energy": -21.08, 
			 "cosmo_cavitation_energy": 27.84, 
			 "cosmo_dispersion_energy": -20.28, 
			 "cosmo_repulsion_energy": 1.62, 
			 "cosmo_total_nonelectrostatic_energy": 9.18, 
			 "SMD_solvation_energy": 4.87 
		},
		"coords": [
			{
				"x": 0.9826557302,
				"y": -1.8567608567,
				"z": 0.7065271853,
				"element": "C" 
			},
			{
				"x": -0.3514786082,
				"y": -1.1615344197,
				"z": 0.5518140478,
				"element": "C" 
			},
			{
				"x": -0.8640902069,
				"y": -0.2785928745,
				"z": 1.5343521467,
				"element": "C" 
			},
			{
				"x": -0.1172857376,
				"y": 0.0127605574,
				"z": 2.7520177198,
				"element": "C" 
			},
			{
				"x": -0.5489973458,
				"y": 0.6884611833,
				"z": 3.8387722542,
				"element": "C" 
			},
			{
				"x": 0.2473096855,
				"y": 0.9155212532,
				"z": 5.0668073161,
				"element": "C" 
			},
			{
				"x": 1.6072838486,
				"y": 0.8269040828,
				"z": 4.9631355975,
				"element": "O" 
			},
			{
				"x": -0.258727475,
				"y": 1.1610142829,
				"z": 6.1387802639,
				"element": "O" 
			},
			{
				"x": -2.1236816097,
				"y": 0.2997600716,
				"z": 1.2670946064,
				"element": "C" 
			},
			{
				"x": -2.8079878571,
				"y": 0.0067452899,
				"z": 0.1073828739,
				"element": "C" 
			},
			{
				"x": -2.2083992524,
				"y": -0.890252904,
				"z": -0.8038870894,
				"element": "C" 
			},
			{
				"x": -2.8022656994,
				"y": -1.2024347538,
				"z": -2.0003374024,
				"element": "N" 
			},
			{
				"x": -1.0120836277,
				"y": -1.4545442152,
				"z": -0.5742703501,
				"element": "N" 
			},
			{
				"x": 1.809738074,
				"y": -1.1401902087,
				"z": 0.7732198114,
				"element": "H" 
			},
			{
				"x": 1.0156447338,
				"y": -2.480413895,
				"z": 1.6065795241,
				"element": "H" 
			},
			{
				"x": 1.1496089653,
				"y": -2.4921545709,
				"z": -0.1635680123,
				"element": "H" 
			},
			{
				"x": 0.8917502545,
				"y": -0.3949220062,
				"z": 2.7786062489,
				"element": "H" 
			},
			{
				"x": -1.571481753,
				"y": 1.0411460195,
				"z": 3.9255714538,
				"element": "H" 
			},
			{
				"x": 1.8628952039,
				"y": 0.8299536519,
				"z": 4.0305951588,
				"element": "H" 
			},
			{
				"x": -2.5589386332,
				"y": 0.9955235263,
				"z": 1.977692745,
				"element": "H" 
			},
			{
				"x": -3.7713328984,
				"y": 0.4581480873,
				"z": -0.1086451983,
				"element": "H" 
			},
			{
				"x": -2.3997983925,
				"y": -1.985072469,
				"z": -2.494533626,
				"element": "H" 
			},
			{
				"x": -3.794637399,
				"y": -1.0627648325,
				"z": -2.1050072752,
				"element": "H" 
			}
		],
		 "valence_orbital": [ 
			{
				"type": "occ",
				"energy": -0.29396,
				"method": "rhf"
			},
			{
				"type": "occ",
				"energy": -0.28184,
				"method": "rhf"
			},
			{
				"type": "occ",
				"energy": -0.27027,
				"method": "rhf"
			},
			{
				"type": "occ",
				"energy": -0.25919,
				"method": "rhf"
			},
			{
				"type": "occ",
				"energy": -0.21552,
				"method": "rhf"
			},
			{
				"type": "unocc",
				"energy": -0.06439,
				"method": "rhf"
			},
			{
				"type": "unocc",
				"energy": -0.02488,
				"method": "rhf"
			},
			{
				"type": "unocc",
				"energy": 0.02093,
				"method": "rhf"
			},
			{
				"type": "unocc",
				"energy": 0.06326,
				"method": "rhf"
			},
			{
				"type": "unocc",
				"energy": 0.07177,
				"method": "rhf"
			}
		],
		"cosmo_sigma_profile": { 
			"-0.025": 0.0,
			"-0.024": 0.0,
			"-0.023": 0.0,
			"-0.022": 0.0,
			"-0.021": 0.0,
			"-0.02": 0.0,
			"-0.019": 0.0,
			"-0.018": 0.439026590973,
			"-0.017": 0.780055028967,
			"-0.016": 1.34443191899,
			"-0.015": 0.612833638904,
			"-0.014": 1.8502926815,
			"-0.013": 3.39327331949,
			"-0.012": 3.10509371173,
			"-0.011": 2.96302120737,
			"-0.01": 4.60898745911,
			"-0.009": 3.97692536136,
			"-0.008": 5.92849761861,
			"-0.007": 6.99072919095,
			"-0.006": 9.20332624588,
			"-0.005": 12.15662485,
			"-0.004": 11.007521297,
			"-0.003": 10.5167672746,
			"-0.002": 12.1632001883,
			"-0.001": 13.4414070731,
			"0.0": 13.897360846,
			"0.001": 11.8837458325,
			"0.002": 17.482926192,
			"0.003": 16.7685041769,
			"0.004": 7.68355219571,
			"0.005": 5.15812747056,
			"0.006": 4.34430088,
			"0.007": 4.81283569095,
			"0.008": 4.22877044409,
			"0.009": 5.18041988753,
			"0.01": 4.318612988,
			"0.011": 6.62457186444,
			"0.012": 6.82220946254,
			"0.013": 5.71113717495,
			"0.014": 1.99203047016,
			"0.015": 0.0,
			"0.016": 0.0,
			"0.017": 0.0,
			"0.018": 0.0,
			"0.019": 0.0,
			"0.02": 0.0,
			"0.021": 0.0,
			"0.022": 0.0,
			"0.023": 0.0,
			"0.024": 0.0,
			"0.025": 0.0
		}
	}
}
