{
	 "smiles": "SC1=NC(C2=CC=CC=C2)=C(C#N)C(=O)N1", 
	 "Tm": 601.15, 
	 "num_atms": 23, 
	 "gaussian": { 
		 "optdone": 1, 
		 "sigma_profile": "yes", 
		 "theory": "DFT", 
		 "functional": "B3LYP", 
		 "basiset": "6-31G**", 
		 "properties": { 
			 "R2extent": 4834.9733, 
			 "electric_dipole_moment_norm": 6.10417045879, 
			 "electric_quadrupole_moment_norm": 27.8770569175, 
			 "total_energy": -1061.04309424, 
			 "HOMO_LUMO_gap": 0.15489, 
			 "cosmo_polarized_energy": -23.13, 
			 "cosmo_cavitation_energy": 30.92, 
			 "cosmo_dispersion_energy": -22.51, 
			 "cosmo_repulsion_energy": 1.7, 
			 "cosmo_total_nonelectrostatic_energy": 10.11, 
			 "SMD_solvation_energy": 5.51 
		},
		"coords": [
			{
				"x": 2.5919058937,
				"y": 4.1625037362,
				"z": 1.3107352265,
				"element": "S" 
			},
			{
				"x": 2.2353554009,
				"y": 2.6211536218,
				"z": 0.5058176973,
				"element": "C" 
			},
			{
				"x": 1.0601152139,
				"y": 2.1195454788,
				"z": 0.7372050192,
				"element": "N" 
			},
			{
				"x": 0.7089709716,
				"y": 0.9291204513,
				"z": 0.1446442988,
				"element": "C" 
			},
			{
				"x": -0.669823887,
				"y": 0.4854687753,
				"z": 0.4531001133,
				"element": "C" 
			},
			{
				"x": -1.2547691509,
				"y": 0.9005825366,
				"z": 1.6645476312,
				"element": "C" 
			},
			{
				"x": -2.5472717077,
				"y": 0.5077629992,
				"z": 1.9975719312,
				"element": "C" 
			},
			{
				"x": -3.2880069056,
				"y": -0.2850859588,
				"z": 1.1176184957,
				"element": "C" 
			},
			{
				"x": -2.7271683363,
				"y": -0.6810878022,
				"z": -0.0977727825,
				"element": "C" 
			},
			{
				"x": -1.4279962588,
				"y": -0.3034531346,
				"z": -0.4301357682,
				"element": "C" 
			},
			{
				"x": 1.6155512062,
				"y": 0.2260086097,
				"z": -0.6485601096,
				"element": "C" 
			},
			{
				"x": 1.3743038449,
				"y": -1.0652544661,
				"z": -1.2016199735,
				"element": "C" 
			},
			{
				"x": 1.2068711888,
				"y": -2.1224932219,
				"z": -1.6590439707,
				"element": "N" 
			},
			{
				"x": 2.9369441096,
				"y": 0.7806073996,
				"z": -0.9362012059,
				"element": "C" 
			},
			{
				"x": 3.8166689189,
				"y": 0.2950859175,
				"z": -1.6234865147,
				"element": "O" 
			},
			{
				"x": 3.1514841096,
				"y": 2.0350316127,
				"z": -0.3066239379,
				"element": "N" 
			},
			{
				"x": 3.8720370212,
				"y": 4.2745035019,
				"z": 0.9008675732,
				"element": "H" 
			},
			{
				"x": -0.6802679993,
				"y": 1.5284340756,
				"z": 2.3351968535,
				"element": "H" 
			},
			{
				"x": -2.9790650704,
				"y": 0.8238869539,
				"z": 2.9424882321,
				"element": "H" 
			},
			{
				"x": -4.2990727069,
				"y": -0.5871496343,
				"z": 1.3750556615,
				"element": "H" 
			},
			{
				"x": -3.3022262851,
				"y": -1.2835665897,
				"z": -0.7941558384,
				"element": "H" 
			},
			{
				"x": -1.0177367699,
				"y": -0.6097567576,
				"z": -1.3838942018,
				"element": "H" 
			},
			{
				"x": 4.0568971988,
				"y": 2.446651895,
				"z": -0.4981544304,
				"element": "H" 
			}
		],
		 "valence_orbital": [ 
			{
				"type": "occ",
				"energy": -0.30446,
				"method": "rhf"
			},
			{
				"type": "occ",
				"energy": -0.28416,
				"method": "rhf"
			},
			{
				"type": "occ",
				"energy": -0.26842,
				"method": "rhf"
			},
			{
				"type": "occ",
				"energy": -0.2626,
				"method": "rhf"
			},
			{
				"type": "occ",
				"energy": -0.2454,
				"method": "rhf"
			},
			{
				"type": "unocc",
				"energy": -0.09051,
				"method": "rhf"
			},
			{
				"type": "unocc",
				"energy": -0.03479,
				"method": "rhf"
			},
			{
				"type": "unocc",
				"energy": -0.02845,
				"method": "rhf"
			},
			{
				"type": "unocc",
				"energy": -0.01241,
				"method": "rhf"
			},
			{
				"type": "unocc",
				"energy": 0.0053,
				"method": "rhf"
			}
		],
		"cosmo_sigma_profile": { 
			"-0.025": 0.0,
			"-0.024": 0.0,
			"-0.023": 0.0,
			"-0.022": 0.0,
			"-0.021": 0.00405041356926,
			"-0.02": 0.69252570797,
			"-0.019": 1.36228242039,
			"-0.018": 1.73283601926,
			"-0.017": 1.42459565399,
			"-0.016": 1.37665897928,
			"-0.015": 1.13648622248,
			"-0.014": 1.96893477647,
			"-0.013": 1.88594016336,
			"-0.012": 2.31722174223,
			"-0.011": 1.71578775992,
			"-0.01": 1.39580748798,
			"-0.009": 2.05508331659,
			"-0.008": 1.50238209665,
			"-0.007": 4.00643727799,
			"-0.006": 12.9475331223,
			"-0.005": 17.9265864637,
			"-0.004": 17.3169087687,
			"-0.003": 15.6905374553,
			"-0.002": 14.0149355273,
			"-0.001": 14.7974231774,
			"0.0": 13.5927467165,
			"0.001": 15.1762872471,
			"0.002": 17.6862753827,
			"0.003": 19.4375963044,
			"0.004": 19.2130301052,
			"0.005": 7.78425797817,
			"0.006": 4.40870039657,
			"0.007": 5.24265380949,
			"0.008": 6.4082887628,
			"0.009": 5.63094535032,
			"0.01": 4.68980996291,
			"0.011": 6.67844316472,
			"0.012": 7.70038760447,
			"0.013": 2.12610025575,
			"0.014": 0.0201544211957,
			"0.015": 0.0,
			"0.016": 0.0,
			"0.017": 0.0,
			"0.018": 0.0,
			"0.019": 0.0,
			"0.02": 0.0,
			"0.021": 0.0,
			"0.022": 0.0,
			"0.023": 0.0,
			"0.024": 0.0,
			"0.025": 0.0
		}
	}
}
