{
	 "smiles": "[O-][N+](=O)C1=C(Br)C=CS1", 
	 "Tm": 354.15, 
	 "num_atms": 11, 
	 "gaussian": { 
		 "optdone": 1, 
		 "sigma_profile": "yes", 
		 "theory": "DFT", 
		 "functional": "B3LYP", 
		 "basiset": "6-31G**", 
		 "properties": { 
			 "R2extent": 2856.0399, 
			 "electric_dipole_moment_norm": 4.95104792342, 
			 "electric_quadrupole_moment_norm": 5.13970784967, 
			 "total_energy": -3328.28601491, 
			 "HOMO_LUMO_gap": 0.16654, 
			 "cosmo_polarized_energy": -9.16, 
			 "cosmo_cavitation_energy": 20.11, 
			 "cosmo_dispersion_energy": -16.05, 
			 "cosmo_repulsion_energy": 1.26, 
			 "cosmo_total_nonelectrostatic_energy": 5.33, 
			 "SMD_solvation_energy": 4.81 
		},
		"coords": [
			{
				"x": -0.4917563968,
				"y": -2.3047394676,
				"z": 1.3787203079,
				"element": "O" 
			},
			{
				"x": -0.8691376204,
				"y": -1.1751472175,
				"z": 1.7126840748,
				"element": "N" 
			},
			{
				"x": -1.1653930049,
				"y": -0.8320731839,
				"z": 2.8547920499,
				"element": "O" 
			},
			{
				"x": -0.9599567621,
				"y": -0.2029320189,
				"z": 0.6599675078,
				"element": "C" 
			},
			{
				"x": -1.3414865451,
				"y": 1.1226354735,
				"z": 0.7012291381,
				"element": "C" 
			},
			{
				"x": -1.8820597746,
				"y": 2.1029286135,
				"z": 2.2099262294,
				"element": "Br" 
			},
			{
				"x": -1.2883628123,
				"y": 1.7300140266,
				"z": -0.5852846091,
				"element": "C" 
			},
			{
				"x": -0.8725141188,
				"y": 0.8582891969,
				"z": -1.5558998777,
				"element": "C" 
			},
			{
				"x": -0.5335314859,
				"y": -0.7200076895,
				"z": -0.9459718829,
				"element": "S" 
			},
			{
				"x": -1.5505514473,
				"y": 2.7655251515,
				"z": -0.758947815,
				"element": "H" 
			},
			{
				"x": -0.7462500318,
				"y": 1.0637071156,
				"z": -2.6105151231,
				"element": "H" 
			}
		],
		 "valence_orbital": [ 
			{
				"type": "occ",
				"energy": -0.31318,
				"method": "rhf"
			},
			{
				"type": "occ",
				"energy": -0.30649,
				"method": "rhf"
			},
			{
				"type": "occ",
				"energy": -0.28766,
				"method": "rhf"
			},
			{
				"type": "occ",
				"energy": -0.28268,
				"method": "rhf"
			},
			{
				"type": "occ",
				"energy": -0.26932,
				"method": "rhf"
			},
			{
				"type": "unocc",
				"energy": -0.10278,
				"method": "rhf"
			},
			{
				"type": "unocc",
				"energy": -0.02881,
				"method": "rhf"
			},
			{
				"type": "unocc",
				"energy": -0.02039,
				"method": "rhf"
			},
			{
				"type": "unocc",
				"energy": 0.01799,
				"method": "rhf"
			},
			{
				"type": "unocc",
				"energy": 0.03457,
				"method": "rhf"
			}
		],
		"cosmo_sigma_profile": { 
			"-0.025": 0.0,
			"-0.024": 0.0,
			"-0.023": 0.0,
			"-0.022": 0.0,
			"-0.021": 0.0,
			"-0.02": 0.0,
			"-0.019": 0.0,
			"-0.018": 0.0,
			"-0.017": 0.0,
			"-0.016": 0.0,
			"-0.015": 0.0,
			"-0.014": 0.0,
			"-0.013": 0.0,
			"-0.012": 0.036776243663,
			"-0.011": 2.05570763998,
			"-0.01": 2.61143950063,
			"-0.009": 3.30880700337,
			"-0.008": 4.01062949184,
			"-0.007": 4.61109268382,
			"-0.006": 7.08197607786,
			"-0.005": 6.38824245674,
			"-0.004": 8.38226250587,
			"-0.003": 8.48452847709,
			"-0.002": 14.2095185346,
			"-0.001": 17.6707507623,
			"0.0": 16.124093144,
			"0.001": 15.8371956155,
			"0.002": 11.4020259271,
			"0.003": 9.15044490202,
			"0.004": 3.81606282582,
			"0.005": 4.18736678265,
			"0.006": 3.81034595418,
			"0.007": 9.3748999689,
			"0.008": 9.07340883297,
			"0.009": 4.42217114118,
			"0.01": 1.90175863424,
			"0.011": 0.0487604477422,
			"0.012": 0.0,
			"0.013": 0.0,
			"0.014": 0.0,
			"0.015": 0.0,
			"0.016": 0.0,
			"0.017": 0.0,
			"0.018": 0.0,
			"0.019": 0.0,
			"0.02": 0.0,
			"0.021": 0.0,
			"0.022": 0.0,
			"0.023": 0.0,
			"0.024": 0.0,
			"0.025": 0.0
		}
	}
}
