{
	 "smiles": "COC1=CC=C(N)C(OC)=C1", 
	 "Tm": 307.35, 
	 "num_atms": 22, 
	 "gaussian": { 
		 "optdone": 1, 
		 "sigma_profile": "yes", 
		 "theory": "DFT", 
		 "functional": "B3LYP", 
		 "basiset": "6-31G**", 
		 "properties": { 
			 "R2extent": 2109.6309, 
			 "electric_dipole_moment_norm": 2.59124273467, 
			 "electric_quadrupole_moment_norm": 11.6067079484, 
			 "total_energy": -516.653368242, 
			 "HOMO_LUMO_gap": 0.18932, 
			 "cosmo_polarized_energy": -10.77, 
			 "cosmo_cavitation_energy": 25.13, 
			 "cosmo_dispersion_energy": -18.69, 
			 "cosmo_repulsion_energy": 1.52, 
			 "cosmo_total_nonelectrostatic_energy": 7.96, 
			 "SMD_solvation_energy": 5.71 
		},
		"coords": [
			{
				"x": -0.9722093714,
				"y": 2.7455533435,
				"z": -1.1752301028,
				"element": "C" 
			},
			{
				"x": 0.2148788426,
				"y": 2.6563776655,
				"z": -0.4136907306,
				"element": "O" 
			},
			{
				"x": 0.4652524777,
				"y": 1.4889423036,
				"z": 0.2650468841,
				"element": "C" 
			},
			{
				"x": 1.648049318,
				"y": 1.4476083069,
				"z": 1.0042776172,
				"element": "C" 
			},
			{
				"x": 1.9772168898,
				"y": 0.301713819,
				"z": 1.7259303246,
				"element": "C" 
			},
			{
				"x": 1.1509923404,
				"y": -0.8263933429,
				"z": 1.7302803711,
				"element": "C" 
			},
			{
				"x": 1.4350385768,
				"y": -1.9666607768,
				"z": 2.497080991,
				"element": "N" 
			},
			{
				"x": -0.0371983801,
				"y": -0.7700797302,
				"z": 0.9732477546,
				"element": "C" 
			},
			{
				"x": -0.7906896575,
				"y": -1.9204219858,
				"z": 1.010474573,
				"element": "O" 
			},
			{
				"x": -1.9963497013,
				"y": -1.9613573088,
				"z": 0.2708359953,
				"element": "C" 
			},
			{
				"x": -0.3837749311,
				"y": 0.372645393,
				"z": 0.2475799289,
				"element": "C" 
			},
			{
				"x": -1.8699134669,
				"y": 2.6317504296,
				"z": -0.5514191508,
				"element": "H" 
			},
			{
				"x": -0.9749527495,
				"y": 3.7421094472,
				"z": -1.6210131242,
				"element": "H" 
			},
			{
				"x": -1.0024684252,
				"y": 1.9960499759,
				"z": -1.9786656774,
				"element": "H" 
			},
			{
				"x": 2.2964170336,
				"y": 2.3169790821,
				"z": 1.0069352824,
				"element": "H" 
			},
			{
				"x": 2.8958780338,
				"y": 0.2805457051,
				"z": 2.3070161054,
				"element": "H" 
			},
			{
				"x": 2.4240292044,
				"y": -2.1460472489,
				"z": 2.6102163543,
				"element": "H" 
			},
			{
				"x": 0.941012717,
				"y": -2.7881822385,
				"z": 2.1736591688,
				"element": "H" 
			},
			{
				"x": -2.708634534,
				"y": -1.1999134844,
				"z": 0.6150036138,
				"element": "H" 
			},
			{
				"x": -1.8191944151,
				"y": -1.8241764376,
				"z": -0.8044374031,
				"element": "H" 
			},
			{
				"x": -2.4243029771,
				"y": -2.9512911404,
				"z": 0.4390314858,
				"element": "H" 
			},
			{
				"x": -1.2998768251,
				"y": 0.3880482233,
				"z": -0.3260602614,
				"element": "H" 
			}
		],
		 "valence_orbital": [ 
			{
				"type": "occ",
				"energy": -0.31943,
				"method": "rhf"
			},
			{
				"type": "occ",
				"energy": -0.31009,
				"method": "rhf"
			},
			{
				"type": "occ",
				"energy": -0.26481,
				"method": "rhf"
			},
			{
				"type": "occ",
				"energy": -0.22501,
				"method": "rhf"
			},
			{
				"type": "occ",
				"energy": -0.17159,
				"method": "rhf"
			},
			{
				"type": "unocc",
				"energy": 0.01773,
				"method": "rhf"
			},
			{
				"type": "unocc",
				"energy": 0.03812,
				"method": "rhf"
			},
			{
				"type": "unocc",
				"energy": 0.08878,
				"method": "rhf"
			},
			{
				"type": "unocc",
				"energy": 0.09571,
				"method": "rhf"
			},
			{
				"type": "unocc",
				"energy": 0.11089,
				"method": "rhf"
			}
		],
		"cosmo_sigma_profile": { 
			"-0.025": 0.0,
			"-0.024": 0.0,
			"-0.023": 0.0,
			"-0.022": 0.0,
			"-0.021": 0.0,
			"-0.02": 0.0,
			"-0.019": 0.0,
			"-0.018": 0.0,
			"-0.017": 0.0,
			"-0.016": 0.0,
			"-0.015": 0.0,
			"-0.014": 0.0,
			"-0.013": 0.0,
			"-0.012": 0.647913611418,
			"-0.011": 1.27538268856,
			"-0.01": 1.83083233337,
			"-0.009": 2.40269537598,
			"-0.008": 2.58663411476,
			"-0.007": 2.43020342903,
			"-0.006": 8.86684193764,
			"-0.005": 20.9940681189,
			"-0.004": 21.0980484254,
			"-0.003": 21.9774746402,
			"-0.002": 14.6424215898,
			"-0.001": 9.6174717802,
			"0.0": 7.57070742425,
			"0.001": 7.22591290937,
			"0.002": 6.8020594878,
			"0.003": 8.44301051516,
			"0.004": 11.3522498582,
			"0.005": 12.2249507532,
			"0.006": 13.2974407283,
			"0.007": 8.06949784339,
			"0.008": 3.79998843667,
			"0.009": 3.45347034258,
			"0.01": 1.83629027698,
			"0.011": 2.51081987805,
			"0.012": 0.730116978769,
			"0.013": 0.750271543889,
			"0.014": 0.887242814379,
			"0.015": 0.598495255283,
			"0.016": 0.464126970841,
			"0.017": 0.0339810456013,
			"0.018": 0.0,
			"0.019": 0.0,
			"0.02": 0.0,
			"0.021": 0.0,
			"0.022": 0.0,
			"0.023": 0.0,
			"0.024": 0.0,
			"0.025": 0.0
		}
	}
}
