{
	 "smiles": "C1OC2=CC=C(C=C2O1)N1N=N1", 
	 "Tm": 402.15, 
	 "num_atms": 17, 
	 "gaussian": { 
		 "optdone": 1, 
		 "sigma_profile": "yes", 
		 "theory": "DFT", 
		 "functional": "B3LYP", 
		 "basiset": "6-31G**", 
		 "properties": { 
			 "R2extent": 3525.6458, 
			 "electric_dipole_moment_norm": 2.60542182957, 
			 "electric_quadrupole_moment_norm": 11.1536857186, 
			 "total_energy": -584.293399259, 
			 "HOMO_LUMO_gap": 0.13817, 
			 "cosmo_polarized_energy": -6.54, 
			 "cosmo_cavitation_energy": 22.43, 
			 "cosmo_dispersion_energy": -16.87, 
			 "cosmo_repulsion_energy": 1.32, 
			 "cosmo_total_nonelectrostatic_energy": 6.89, 
			 "SMD_solvation_energy": 2.89 
		},
		"coords": [
			{
				"x": 0.1759427002,
				"y": 2.5006348246,
				"z": 4.3864850612,
				"element": "C" 
			},
			{
				"x": 0.9161118637,
				"y": 2.5686521757,
				"z": 3.1610033385,
				"element": "O" 
			},
			{
				"x": 0.6763540724,
				"y": 1.3893440057,
				"z": 2.5032777699,
				"element": "C" 
			},
			{
				"x": 1.160773115,
				"y": 0.9727904491,
				"z": 1.2811314066,
				"element": "C" 
			},
			{
				"x": 0.7576355431,
				"y": -0.2968060703,
				"z": 0.8254029192,
				"element": "C" 
			},
			{
				"x": -0.0996157392,
				"y": -1.091680007,
				"z": 1.5921382638,
				"element": "C" 
			},
			{
				"x": -0.5890766533,
				"y": -0.6536944753,
				"z": 2.8424358411,
				"element": "C" 
			},
			{
				"x": -0.1796209488,
				"y": 0.5911468605,
				"z": 3.2646511912,
				"element": "C" 
			},
			{
				"x": -0.5070164131,
				"y": 1.2405335772,
				"z": 4.4258827279,
				"element": "O" 
			},
			{
				"x": -0.5794192462,
				"y": -2.4017734506,
				"z": 1.2332155443,
				"element": "N" 
			},
			{
				"x": 0.3987786598,
				"y": -3.0638237785,
				"z": 0.2559886666,
				"element": "N" 
			},
			{
				"x": -0.551261242,
				"y": -2.5657610632,
				"z": -0.2907448364,
				"element": "N" 
			},
			{
				"x": -0.5581652642,
				"y": 3.3148184062,
				"z": 4.4164336028,
				"element": "H" 
			},
			{
				"x": 0.8667315809,
				"y": 2.5681398687,
				"z": 5.2355739133,
				"element": "H" 
			},
			{
				"x": 1.8249572124,
				"y": 1.5974010009,
				"z": 0.6951161122,
				"element": "H" 
			},
			{
				"x": 1.1230884256,
				"y": -0.648665764,
				"z": -0.1307767043,
				"element": "H" 
			},
			{
				"x": -1.2526976663,
				"y": -1.2806565598,
				"z": 3.4253851822,
				"element": "H" 
			}
		],
		 "valence_orbital": [ 
			{
				"type": "occ",
				"energy": -0.35919,
				"method": "rhf"
			},
			{
				"type": "occ",
				"energy": -0.30147,
				"method": "rhf"
			},
			{
				"type": "occ",
				"energy": -0.29788,
				"method": "rhf"
			},
			{
				"type": "occ",
				"energy": -0.25371,
				"method": "rhf"
			},
			{
				"type": "occ",
				"energy": -0.21435,
				"method": "rhf"
			},
			{
				"type": "unocc",
				"energy": -0.07618,
				"method": "rhf"
			},
			{
				"type": "unocc",
				"energy": -0.01558,
				"method": "rhf"
			},
			{
				"type": "unocc",
				"energy": -0.00795,
				"method": "rhf"
			},
			{
				"type": "unocc",
				"energy": 0.04536,
				"method": "rhf"
			},
			{
				"type": "unocc",
				"energy": 0.07128,
				"method": "rhf"
			}
		],
		"cosmo_sigma_profile": { 
			"-0.025": 0.0,
			"-0.024": 0.0,
			"-0.023": 0.0,
			"-0.022": 0.0,
			"-0.021": 0.0,
			"-0.02": 0.0,
			"-0.019": 0.0,
			"-0.018": 0.0,
			"-0.017": 0.0,
			"-0.016": 0.0,
			"-0.015": 0.0,
			"-0.014": 0.0,
			"-0.013": 0.0,
			"-0.012": 0.0,
			"-0.011": 0.0,
			"-0.01": 0.0,
			"-0.009": 0.0,
			"-0.008": 6.28788182586,
			"-0.007": 13.2303575339,
			"-0.006": 11.1933533254,
			"-0.005": 8.57735095358,
			"-0.004": 7.01712110101,
			"-0.003": 10.4783978558,
			"-0.002": 9.09408768987,
			"-0.001": 9.75588002847,
			"0.0": 11.6576994867,
			"0.001": 18.8721574799,
			"0.002": 22.7913558141,
			"0.003": 17.1028212859,
			"0.004": 10.4197566697,
			"0.005": 6.43987614269,
			"0.006": 4.88596143625,
			"0.007": 4.12064234872,
			"0.008": 3.53074453093,
			"0.009": 3.7798765792,
			"0.01": 1.3200309763,
			"0.011": 0.717714998593,
			"0.012": 0.433107641972,
			"0.013": 0.0,
			"0.014": 0.0,
			"0.015": 0.0,
			"0.016": 0.0,
			"0.017": 0.0,
			"0.018": 0.0,
			"0.019": 0.0,
			"0.02": 0.0,
			"0.021": 0.0,
			"0.022": 0.0,
			"0.023": 0.0,
			"0.024": 0.0,
			"0.025": 0.0
		}
	}
}
