{
	 "smiles": "NC1=CC(=C(C=C1)N1CCOCC1)S(=O)(=O)NC1=C(Cl)C=CC=C1", 
	 "Tm": 493.15, 
	 "num_atms": 42, 
	 "gaussian": { 
		 "optdone": 1, 
		 "sigma_profile": "yes", 
		 "theory": "DFT", 
		 "functional": "B3LYP", 
		 "basiset": "6-31G**", 
		 "properties": { 
			 "R2extent": 9492.7438, 
			 "electric_dipole_moment_norm": 4.74482702846, 
			 "electric_quadrupole_moment_norm": 31.1432878345, 
			 "total_energy": -1868.75035837, 
			 "HOMO_LUMO_gap": 0.17438, 
			 "cosmo_polarized_energy": -20.4, 
			 "cosmo_cavitation_energy": 45.65, 
			 "cosmo_dispersion_energy": -32.32, 
			 "cosmo_repulsion_energy": 2.4, 
			 "cosmo_total_nonelectrostatic_energy": 15.74, 
			 "SMD_solvation_energy": 6.6 
		},
		"coords": [
			{
				"x": 0.5098345391,
				"y": -4.9378511605,
				"z": 0.7973263113,
				"element": "N" 
			},
			{
				"x": 0.0428462897,
				"y": -3.6581610961,
				"z": 0.5157736885,
				"element": "C" 
			},
			{
				"x": 0.803328024,
				"y": -2.5277566902,
				"z": 0.8537498973,
				"element": "C" 
			},
			{
				"x": 0.3617119652,
				"y": -1.2497994557,
				"z": 0.5136995437,
				"element": "C" 
			},
			{
				"x": -0.8576670008,
				"y": -1.0302635539,
				"z": -0.1541331283,
				"element": "C" 
			},
			{
				"x": -1.6018000502,
				"y": -2.175213997,
				"z": -0.4807245039,
				"element": "C" 
			},
			{
				"x": -1.1676957014,
				"y": -3.4586648267,
				"z": -0.1685802349,
				"element": "C" 
			},
			{
				"x": -1.3187627939,
				"y": 0.2876315152,
				"z": -0.4506374422,
				"element": "N" 
			},
			{
				"x": -2.2601927656,
				"y": 0.8132960295,
				"z": 0.5622492456,
				"element": "C" 
			},
			{
				"x": -2.9194286097,
				"y": 2.0860291077,
				"z": 0.047341418,
				"element": "C" 
			},
			{
				"x": -3.696754547,
				"y": 1.8774271405,
				"z": -1.1322808635,
				"element": "O" 
			},
			{
				"x": -3.2713611146,
				"y": 0.7816064225,
				"z": -1.9358974889,
				"element": "C" 
			},
			{
				"x": -1.7654844126,
				"y": 0.5373477109,
				"z": -1.8389227764,
				"element": "C" 
			},
			{
				"x": 1.4663840658,
				"y": 0.1010002158,
				"z": 0.9740335947,
				"element": "S" 
			},
			{
				"x": 0.7351673664,
				"y": 1.1770487827,
				"z": 1.6418056956,
				"element": "O" 
			},
			{
				"x": 2.6278991082,
				"y": -0.5162040264,
				"z": 1.6255096996,
				"element": "O" 
			},
			{
				"x": 2.0118776497,
				"y": 0.6460788107,
				"z": -0.5575851063,
				"element": "N" 
			},
			{
				"x": 2.0936944182,
				"y": 2.0068035712,
				"z": -0.9325262986,
				"element": "C" 
			},
			{
				"x": 3.2613796627,
				"y": 2.5043583332,
				"z": -1.5404102303,
				"element": "C" 
			},
			{
				"x": 4.653881557,
				"y": 1.4440093076,
				"z": -1.770769077,
				"element": "Cl" 
			},
			{
				"x": 3.347276133,
				"y": 3.8206247409,
				"z": -1.988454095,
				"element": "C" 
			},
			{
				"x": 2.2641758492,
				"y": 4.680146932,
				"z": -1.8183165628,
				"element": "C" 
			},
			{
				"x": 1.0984482136,
				"y": 4.2044576649,
				"z": -1.2152410826,
				"element": "C" 
			},
			{
				"x": 1.007302312,
				"y": 2.8828477294,
				"z": -0.7897164675,
				"element": "C" 
			},
			{
				"x": 1.1909411164,
				"y": -5.0026968041,
				"z": 1.5405818384,
				"element": "H" 
			},
			{
				"x": -0.1938644246,
				"y": -5.6603405253,
				"z": 0.8540348943,
				"element": "H" 
			},
			{
				"x": 1.7510330502,
				"y": -2.6342333256,
				"z": 1.3700611071,
				"element": "H" 
			},
			{
				"x": -2.5536737448,
				"y": -2.0523955951,
				"z": -0.9890440286,
				"element": "H" 
			},
			{
				"x": -1.7747095665,
				"y": -4.3161800654,
				"z": -0.448122738,
				"element": "H" 
			},
			{
				"x": -1.7045673684,
				"y": 1.027814556,
				"z": 1.4797816884,
				"element": "H" 
			},
			{
				"x": -3.0455666404,
				"y": 0.0774268802,
				"z": 0.805367448,
				"element": "H" 
			},
			{
				"x": -3.5978953475,
				"y": 2.4837315096,
				"z": 0.8093707831,
				"element": "H" 
			},
			{
				"x": -2.1508157298,
				"y": 2.8507927616,
				"z": -0.142847554,
				"element": "H" 
			},
			{
				"x": -3.5473057855,
				"y": 1.021335454,
				"z": -2.9690227638,
				"element": "H" 
			},
			{
				"x": -3.8223982638,
				"y": -0.1301484283,
				"z": -1.6521648018,
				"element": "H" 
			},
			{
				"x": -1.4837312971,
				"y": -0.3081302932,
				"z": -2.4733503457,
				"element": "H" 
			},
			{
				"x": -1.2383255853,
				"y": 1.4181133815,
				"z": -2.2298808822,
				"element": "H" 
			},
			{
				"x": 2.8625678342,
				"y": 0.1304308703,
				"z": -0.7713999045,
				"element": "H" 
			},
			{
				"x": 4.2636870254,
				"y": 4.1605884063,
				"z": -2.4580467551,
				"element": "H" 
			},
			{
				"x": 2.333117672,
				"y": 5.7085154052,
				"z": -2.1582318857,
				"element": "H" 
			},
			{
				"x": 0.2452463562,
				"y": 4.8631742302,
				"z": -1.0839417554,
				"element": "H" 
			},
			{
				"x": 0.1046005413,
				"y": 2.5005023738,
				"z": -0.3341380804,
				"element": "H" 
			}
		],
		 "valence_orbital": [ 
			{
				"type": "occ",
				"energy": -0.25014,
				"method": "rhf"
			},
			{
				"type": "occ",
				"energy": -0.24911,
				"method": "rhf"
			},
			{
				"type": "occ",
				"energy": -0.23165,
				"method": "rhf"
			},
			{
				"type": "occ",
				"energy": -0.22399,
				"method": "rhf"
			},
			{
				"type": "occ",
				"energy": -0.21055,
				"method": "rhf"
			},
			{
				"type": "unocc",
				"energy": -0.03617,
				"method": "rhf"
			},
			{
				"type": "unocc",
				"energy": -0.01041,
				"method": "rhf"
			},
			{
				"type": "unocc",
				"energy": -0.0097,
				"method": "rhf"
			},
			{
				"type": "unocc",
				"energy": -0.00724,
				"method": "rhf"
			},
			{
				"type": "unocc",
				"energy": 0.02398,
				"method": "rhf"
			}
		],
		"cosmo_sigma_profile": { 
			"-0.025": 0.0,
			"-0.024": 0.0,
			"-0.023": 0.0,
			"-0.022": 0.0,
			"-0.021": 0.0,
			"-0.02": 0.0,
			"-0.019": 0.0,
			"-0.018": 0.0,
			"-0.017": 0.0,
			"-0.016": 0.0,
			"-0.015": 0.0,
			"-0.014": 0.0,
			"-0.013": 1.97492387176,
			"-0.012": 3.71638448541,
			"-0.011": 3.76071913266,
			"-0.01": 3.90107217184,
			"-0.009": 3.90569289249,
			"-0.008": 4.81290027345,
			"-0.007": 7.54000974806,
			"-0.006": 15.8364685714,
			"-0.005": 24.4540697684,
			"-0.004": 27.5551129452,
			"-0.003": 30.0345072268,
			"-0.002": 28.6545072607,
			"-0.001": 22.6349388094,
			"0.0": 21.6923251878,
			"0.001": 23.6609936794,
			"0.002": 24.3044636744,
			"0.003": 30.2903059645,
			"0.004": 28.4764456614,
			"0.005": 9.52444061942,
			"0.006": 6.54779822278,
			"0.007": 7.79898568542,
			"0.008": 5.14825268824,
			"0.009": 6.08202691844,
			"0.01": 8.31760118881,
			"0.011": 7.47905737038,
			"0.012": 3.29004868862,
			"0.013": 2.34832467011,
			"0.014": 1.13684048061,
			"0.015": 0.0,
			"0.016": 0.0,
			"0.017": 0.0,
			"0.018": 0.0,
			"0.019": 0.0,
			"0.02": 0.0,
			"0.021": 0.0,
			"0.022": 0.0,
			"0.023": 0.0,
			"0.024": 0.0,
			"0.025": 0.0
		}
	}
}
