{
	 "smiles": "ClC1=C(NC(=O)C2=CNC3=C2C=CC=C3)C=CC=C1", 
	 "Tm": 487.15, 
	 "num_atms": 30, 
	 "gaussian": { 
		 "optdone": 1, 
		 "sigma_profile": "yes", 
		 "theory": "DFT", 
		 "functional": "B3LYP", 
		 "basiset": "6-31G**", 
		 "properties": { 
			 "R2extent": 7455.7377, 
			 "electric_dipole_moment_norm": 3.72618567707, 
			 "electric_quadrupole_moment_norm": 27.3763972285, 
			 "total_energy": -1223.17427384, 
			 "HOMO_LUMO_gap": 0.1755, 
			 "cosmo_polarized_energy": -17.0, 
			 "cosmo_cavitation_energy": 36.08, 
			 "cosmo_dispersion_energy": -26.7, 
			 "cosmo_repulsion_energy": 2.0, 
			 "cosmo_total_nonelectrostatic_energy": 11.38, 
			 "SMD_solvation_energy": 5.86 
		},
		"coords": [
			{
				"x": 0.1175787763,
				"y": 0.2384767616,
				"z": 3.3753910457,
				"element": "Cl" 
			},
			{
				"x": 1.5251162722,
				"y": 0.1344091255,
				"z": 2.3050390837,
				"element": "C" 
			},
			{
				"x": 1.3362062628,
				"y": 0.0288612388,
				"z": 0.9113833007,
				"element": "C" 
			},
			{
				"x": 0.032889424,
				"y": -0.0008847918,
				"z": 0.4045201332,
				"element": "N" 
			},
			{
				"x": -0.3853126198,
				"y": -0.0778436919,
				"z": -0.9181698563,
				"element": "C" 
			},
			{
				"x": 0.3876593331,
				"y": -0.0605321503,
				"z": -1.8727031447,
				"element": "O" 
			},
			{
				"x": -1.8461884696,
				"y": -0.1784618751,
				"z": -1.0943925693,
				"element": "C" 
			},
			{
				"x": -2.8032613558,
				"y": -0.5263958982,
				"z": -0.160158592,
				"element": "C" 
			},
			{
				"x": -4.043822286,
				"y": -0.5125737222,
				"z": -0.7436382405,
				"element": "N" 
			},
			{
				"x": -3.9257479155,
				"y": -0.1624661929,
				"z": -2.0799160746,
				"element": "C" 
			},
			{
				"x": -2.5476773554,
				"y": 0.0482893348,
				"z": -2.3391461237,
				"element": "C" 
			},
			{
				"x": -2.1443787303,
				"y": 0.4129060395,
				"z": -3.6351235318,
				"element": "C" 
			},
			{
				"x": -3.1163892971,
				"y": 0.5568508493,
				"z": -4.6169780145,
				"element": "C" 
			},
			{
				"x": -4.4822827947,
				"y": 0.3446718157,
				"z": -4.3364760746,
				"element": "C" 
			},
			{
				"x": -4.9084144062,
				"y": -0.0184663449,
				"z": -3.0644535008,
				"element": "C" 
			},
			{
				"x": 2.4874691847,
				"y": -0.0522433167,
				"z": 0.1057940502,
				"element": "C" 
			},
			{
				"x": 3.7550227287,
				"y": -0.0292929226,
				"z": 0.6817955479,
				"element": "C" 
			},
			{
				"x": 3.918685261,
				"y": 0.0761331153,
				"z": 2.0632767048,
				"element": "C" 
			},
			{
				"x": 2.7913232171,
				"y": 0.1589173002,
				"z": 2.8791274685,
				"element": "C" 
			},
			{
				"x": -0.6902175484,
				"y": 0.123615733,
				"z": 1.0980719727,
				"element": "H" 
			},
			{
				"x": -2.695644404,
				"y": -0.8188583719,
				"z": 0.8753956998,
				"element": "H" 
			},
			{
				"x": -4.9035538488,
				"y": -0.7556248287,
				"z": -0.2780404386,
				"element": "H" 
			},
			{
				"x": -1.0925100984,
				"y": 0.5637558288,
				"z": -3.8461067413,
				"element": "H" 
			},
			{
				"x": -2.8213453153,
				"y": 0.8356585097,
				"z": -5.6242945922,
				"element": "H" 
			},
			{
				"x": -5.2150373482,
				"y": 0.465248374,
				"z": -5.128919982,
				"element": "H" 
			},
			{
				"x": -5.9596005857,
				"y": -0.1833792581,
				"z": -2.8458777067,
				"element": "H" 
			},
			{
				"x": 2.3561647747,
				"y": -0.1253092044,
				"z": -0.9641424782,
				"element": "H" 
			},
			{
				"x": 4.6249384517,
				"y": -0.0930488277,
				"z": 0.0349465096,
				"element": "H" 
			},
			{
				"x": 4.9089469196,
				"y": 0.0952595369,
				"z": 2.5068647938,
				"element": "H" 
			},
			{
				"x": 2.8833837732,
				"y": 0.2418278344,
				"z": 3.9564313513,
				"element": "H" 
			}
		],
		 "valence_orbital": [ 
			{
				"type": "occ",
				"energy": -0.25425,
				"method": "rhf"
			},
			{
				"type": "occ",
				"energy": -0.24933,
				"method": "rhf"
			},
			{
				"type": "occ",
				"energy": -0.23063,
				"method": "rhf"
			},
			{
				"type": "occ",
				"energy": -0.22617,
				"method": "rhf"
			},
			{
				"type": "occ",
				"energy": -0.21119,
				"method": "rhf"
			},
			{
				"type": "unocc",
				"energy": -0.03569,
				"method": "rhf"
			},
			{
				"type": "unocc",
				"energy": -0.00874,
				"method": "rhf"
			},
			{
				"type": "unocc",
				"energy": -0.00791,
				"method": "rhf"
			},
			{
				"type": "unocc",
				"energy": 0.02065,
				"method": "rhf"
			},
			{
				"type": "unocc",
				"energy": 0.02228,
				"method": "rhf"
			}
		],
		"cosmo_sigma_profile": { 
			"-0.025": 0.0,
			"-0.024": 0.0,
			"-0.023": 0.0,
			"-0.022": 0.0,
			"-0.021": 0.0,
			"-0.02": 0.0,
			"-0.019": 0.0,
			"-0.018": 0.0,
			"-0.017": 0.213923945951,
			"-0.016": 1.77089013985,
			"-0.015": 1.69391223189,
			"-0.014": 1.20907844644,
			"-0.013": 1.17686454651,
			"-0.012": 1.94797944604,
			"-0.011": 2.34311804152,
			"-0.01": 4.3745352137,
			"-0.009": 4.7982939247,
			"-0.008": 3.44955189456,
			"-0.007": 5.89586564888,
			"-0.006": 10.8495036533,
			"-0.005": 14.1984607382,
			"-0.004": 16.9431728675,
			"-0.003": 16.953160803,
			"-0.002": 15.5524760045,
			"-0.001": 16.6300399909,
			"0.0": 19.0455457859,
			"0.001": 22.9779167323,
			"0.002": 27.4075459217,
			"0.003": 29.0045725566,
			"0.004": 28.7187823577,
			"0.005": 18.4736286281,
			"0.006": 11.5808756783,
			"0.007": 4.63898202848,
			"0.008": 1.35777511554,
			"0.009": 2.04016141431,
			"0.01": 1.9835363695,
			"0.011": 1.86909912062,
			"0.012": 2.71160226979,
			"0.013": 1.24295881481,
			"0.014": 0.0,
			"0.015": 0.0,
			"0.016": 0.0,
			"0.017": 0.0,
			"0.018": 0.0,
			"0.019": 0.0,
			"0.02": 0.0,
			"0.021": 0.0,
			"0.022": 0.0,
			"0.023": 0.0,
			"0.024": 0.0,
			"0.025": 0.0
		}
	}
}
