{
	 "smiles": "CCCN1C(=O)N(C)C(=O)C2=C1N=C(CC(C)C)N=C2S", 
	 "Tm": 458.15, 
	 "num_atms": 41, 
	 "gaussian": { 
		 "optdone": 1, 
		 "sigma_profile": "yes", 
		 "theory": "DFT", 
		 "functional": "B3LYP", 
		 "basiset": "6-31G**", 
		 "properties": { 
			 "R2extent": 7811.5608, 
			 "electric_dipole_moment_norm": 2.20535116705, 
			 "electric_quadrupole_moment_norm": 12.5210553337, 
			 "total_energy": -1313.27268982, 
			 "HOMO_LUMO_gap": 0.18047, 
			 "cosmo_polarized_energy": -10.85, 
			 "cosmo_cavitation_energy": 44.04, 
			 "cosmo_dispersion_energy": -30.34, 
			 "cosmo_repulsion_energy": 2.27, 
			 "cosmo_total_nonelectrostatic_energy": 15.97, 
			 "SMD_solvation_energy": 5.94 
		},
		"coords": [
			{
				"x": -2.4975738512,
				"y": 0.4690853397,
				"z": -3.6425213656,
				"element": "C" 
			},
			{
				"x": -1.2533071991,
				"y": 0.480266179,
				"z": -2.749270533,
				"element": "C" 
			},
			{
				"x": -0.5667913226,
				"y": -0.8884922914,
				"z": -2.7250189049,
				"element": "C" 
			},
			{
				"x": 0.6494622537,
				"y": -0.9021739477,
				"z": -1.882084335,
				"element": "N" 
			},
			{
				"x": 1.8432841292,
				"y": -0.5355601698,
				"z": -2.5019863152,
				"element": "C" 
			},
			{
				"x": 1.8888835721,
				"y": -0.2132707602,
				"z": -3.6780579448,
				"element": "O" 
			},
			{
				"x": 2.9934666252,
				"y": -0.5673230719,
				"z": -1.7064591572,
				"element": "N" 
			},
			{
				"x": 4.2535025208,
				"y": -0.2004499795,
				"z": -2.3682785504,
				"element": "C" 
			},
			{
				"x": 3.0288310016,
				"y": -0.8630156349,
				"z": -0.3420450533,
				"element": "C" 
			},
			{
				"x": 4.1050740936,
				"y": -0.8113266404,
				"z": 0.2598694455,
				"element": "O" 
			},
			{
				"x": 1.7415184845,
				"y": -1.2135894646,
				"z": 0.2594578265,
				"element": "C" 
			},
			{
				"x": 0.5739685524,
				"y": -1.2155211369,
				"z": -0.5376325862,
				"element": "C" 
			},
			{
				"x": -0.6375292711,
				"y": -1.5153727063,
				"z": -0.0561192104,
				"element": "N" 
			},
			{
				"x": -0.708159716,
				"y": -1.8330385865,
				"z": 1.2436512931,
				"element": "C" 
			},
			{
				"x": -2.0671778826,
				"y": -2.1780636959,
				"z": 1.7958123942,
				"element": "C" 
			},
			{
				"x": -2.8238778298,
				"y": -0.9986264152,
				"z": 2.4746073179,
				"element": "C" 
			},
			{
				"x": -3.0895710543,
				"y": 0.1611825497,
				"z": 1.5044483675,
				"element": "C" 
			},
			{
				"x": -2.1348255448,
				"y": -0.5127039737,
				"z": 3.7573120433,
				"element": "C" 
			},
			{
				"x": 0.3249355663,
				"y": -1.8652156784,
				"z": 2.0950967488,
				"element": "N" 
			},
			{
				"x": 1.5385906227,
				"y": -1.5557739258,
				"z": 1.6235520293,
				"element": "C" 
			},
			{
				"x": 2.7937859011,
				"y": -1.6320642117,
				"z": 2.8530418876,
				"element": "S" 
			},
			{
				"x": -2.2428788438,
				"y": 0.2120345263,
				"z": -4.6766918691,
				"element": "H" 
			},
			{
				"x": -2.9796674994,
				"y": 1.4511225371,
				"z": -3.6540069172,
				"element": "H" 
			},
			{
				"x": -3.2359647454,
				"y": -0.2594119212,
				"z": -3.2890638344,
				"element": "H" 
			},
			{
				"x": -0.5387246245,
				"y": 1.2273162424,
				"z": -3.1123084615,
				"element": "H" 
			},
			{
				"x": -1.5292663343,
				"y": 0.7581362647,
				"z": -1.7257472541,
				"element": "H" 
			},
			{
				"x": -1.237387233,
				"y": -1.6483540838,
				"z": -2.3251906016,
				"element": "H" 
			},
			{
				"x": -0.2481357516,
				"y": -1.1719214803,
				"z": -3.7286747411,
				"element": "H" 
			},
			{
				"x": 4.3842379707,
				"y": 0.8856312275,
				"z": -2.3669115433,
				"element": "H" 
			},
			{
				"x": 5.0703830709,
				"y": -0.6605000802,
				"z": -1.817362193,
				"element": "H" 
			},
			{
				"x": 4.2180840823,
				"y": -0.5504205437,
				"z": -3.3978336651,
				"element": "H" 
			},
			{
				"x": -2.6768465624,
				"y": -2.558264297,
				"z": 0.9707988091,
				"element": "H" 
			},
			{
				"x": -1.9374264916,
				"y": -2.9772879464,
				"z": 2.5323589252,
				"element": "H" 
			},
			{
				"x": -3.7978488134,
				"y": -1.4195299735,
				"z": 2.760993975,
				"element": "H" 
			},
			{
				"x": -3.721102585,
				"y": 0.9201923844,
				"z": 1.9783829782,
				"element": "H" 
			},
			{
				"x": -3.5958376438,
				"y": -0.1811636355,
				"z": 0.5958254365,
				"element": "H" 
			},
			{
				"x": -2.1578818126,
				"y": 0.6503590205,
				"z": 1.1998626487,
				"element": "H" 
			},
			{
				"x": -1.1518676949,
				"y": -0.07971781,
				"z": 3.5486697167,
				"element": "H" 
			},
			{
				"x": -1.9847339536,
				"y": -1.333359583,
				"z": 4.4660644127,
				"element": "H" 
			},
			{
				"x": -2.743541476,
				"y": 0.2535209115,
				"z": 4.249782799,
				"element": "H" 
			},
			{
				"x": 3.7915172897,
				"y": -1.2692335373,
				"z": 2.0043759815,
				"element": "H" 
			}
		],
		 "valence_orbital": [ 
			{
				"type": "occ",
				"energy": -0.28729,
				"method": "rhf"
			},
			{
				"type": "occ",
				"energy": -0.27766,
				"method": "rhf"
			},
			{
				"type": "occ",
				"energy": -0.26365,
				"method": "rhf"
			},
			{
				"type": "occ",
				"energy": -0.26032,
				"method": "rhf"
			},
			{
				"type": "occ",
				"energy": -0.24958,
				"method": "rhf"
			},
			{
				"type": "unocc",
				"energy": -0.06911,
				"method": "rhf"
			},
			{
				"type": "unocc",
				"energy": -0.043,
				"method": "rhf"
			},
			{
				"type": "unocc",
				"energy": 0.00279,
				"method": "rhf"
			},
			{
				"type": "unocc",
				"energy": 0.03267,
				"method": "rhf"
			},
			{
				"type": "unocc",
				"energy": 0.04721,
				"method": "rhf"
			}
		],
		"cosmo_sigma_profile": { 
			"-0.025": 0.0,
			"-0.024": 0.0,
			"-0.023": 0.0,
			"-0.022": 0.0,
			"-0.021": 0.0,
			"-0.02": 0.0,
			"-0.019": 0.0,
			"-0.018": 0.0,
			"-0.017": 0.0,
			"-0.016": 0.0,
			"-0.015": 0.0,
			"-0.014": 0.0,
			"-0.013": 0.0,
			"-0.012": 0.0,
			"-0.011": 0.0,
			"-0.01": 0.0,
			"-0.009": 0.0356334355256,
			"-0.008": 1.73950388392,
			"-0.007": 2.24662738305,
			"-0.006": 5.96645810933,
			"-0.005": 12.2947880378,
			"-0.004": 24.2309451365,
			"-0.003": 49.5604827803,
			"-0.002": 54.0240200474,
			"-0.001": 43.1094202497,
			"0.0": 34.8880270473,
			"0.001": 31.82963591,
			"0.002": 17.4852240247,
			"0.003": 10.0350391747,
			"0.004": 11.0776624065,
			"0.005": 11.867270257,
			"0.006": 9.88661794736,
			"0.007": 7.11341784805,
			"0.008": 4.50298687878,
			"0.009": 4.08966156831,
			"0.01": 4.69425054576,
			"0.011": 4.3943705373,
			"0.012": 3.90236670632,
			"0.013": 0.247359181473,
			"0.014": 0.0,
			"0.015": 0.0,
			"0.016": 0.0,
			"0.017": 0.0,
			"0.018": 0.0,
			"0.019": 0.0,
			"0.02": 0.0,
			"0.021": 0.0,
			"0.022": 0.0,
			"0.023": 0.0,
			"0.024": 0.0,
			"0.025": 0.0
		}
	}
}
