{
	 "smiles": "CCNC(=O)NC1=C(C(O)=O)C(F)=CC=C1", 
	 "Tm": 433.15, 
	 "num_atms": 27, 
	 "gaussian": { 
		 "optdone": 1, 
		 "sigma_profile": "yes", 
		 "theory": "DFT", 
		 "functional": "B3LYP", 
		 "basiset": "6-31G**", 
		 "properties": { 
			 "R2extent": 4406.4035, 
			 "electric_dipole_moment_norm": 3.49204090755, 
			 "electric_quadrupole_moment_norm": 12.5574607433, 
			 "total_energy": -822.741285769, 
			 "HOMO_LUMO_gap": 0.18353, 
			 "cosmo_polarized_energy": -15.95, 
			 "cosmo_cavitation_energy": 32.08, 
			 "cosmo_dispersion_energy": -22.3, 
			 "cosmo_repulsion_energy": 1.77, 
			 "cosmo_total_nonelectrostatic_energy": 11.55, 
			 "SMD_solvation_energy": 7.09 
		},
		"coords": [
			{
				"x": 3.6512263719,
				"y": -0.0237212329,
				"z": -2.5329454896,
				"element": "C" 
			},
			{
				"x": 2.7103812905,
				"y": 0.9871000717,
				"z": -1.8804064388,
				"element": "C" 
			},
			{
				"x": 1.6951889545,
				"y": 0.315455679,
				"z": -1.0747063189,
				"element": "N" 
			},
			{
				"x": 1.1263801065,
				"y": 0.9721647598,
				"z": -0.0244366732,
				"element": "C" 
			},
			{
				"x": 1.4602292877,
				"y": 2.0768129826,
				"z": 0.3855125404,
				"element": "O" 
			},
			{
				"x": 0.0622272502,
				"y": 0.2790983289,
				"z": 0.626140828,
				"element": "N" 
			},
			{
				"x": 0.0964594241,
				"y": -1.1182649896,
				"z": 0.9205350402,
				"element": "C" 
			},
			{
				"x": -0.5150783075,
				"y": -2.0653436581,
				"z": 0.0712206954,
				"element": "C" 
			},
			{
				"x": -1.1777781885,
				"y": -1.6721468419,
				"z": -1.2074016945,
				"element": "C" 
			},
			{
				"x": -2.4491858924,
				"y": -2.0989675168,
				"z": -1.2830254382,
				"element": "O" 
			},
			{
				"x": -0.6501118543,
				"y": -1.0400767228,
				"z": -2.1040973526,
				"element": "O" 
			},
			{
				"x": -0.5014251066,
				"y": -3.4110249316,
				"z": 0.4564856193,
				"element": "C" 
			},
			{
				"x": -1.0527204672,
				"y": -4.323059296,
				"z": -0.3665791507,
				"element": "F" 
			},
			{
				"x": 0.0691533344,
				"y": -3.8484513336,
				"z": 1.6422594321,
				"element": "C" 
			},
			{
				"x": 0.641583219,
				"y": -2.8985250362,
				"z": 2.4874079907,
				"element": "C" 
			},
			{
				"x": 0.6565173157,
				"y": -1.5521368049,
				"z": 2.1302082115,
				"element": "C" 
			},
			{
				"x": 4.1644925241,
				"y": -0.624920158,
				"z": -1.7763327135,
				"element": "H" 
			},
			{
				"x": 3.1072098248,
				"y": -0.7061135826,
				"z": -3.1958936226,
				"element": "H" 
			},
			{
				"x": 4.4052715009,
				"y": 0.4923843496,
				"z": -3.135684366,
				"element": "H" 
			},
			{
				"x": 3.254592602,
				"y": 1.6598717334,
				"z": -1.214438831,
				"element": "H" 
			},
			{
				"x": 2.2404351974,
				"y": 1.6172423779,
				"z": -2.6498608944,
				"element": "H" 
			},
			{
				"x": 1.0938102706,
				"y": -0.3487316217,
				"z": -1.5555763512,
				"element": "H" 
			},
			{
				"x": -0.1737098729,
				"y": 0.833227811,
				"z": 1.4420598858,
				"element": "H" 
			},
			{
				"x": -2.7804563591,
				"y": -1.8264007528,
				"z": -2.1562944502,
				"element": "H" 
			},
			{
				"x": 0.0552552428,
				"y": -4.9055353874,
				"z": 1.8816195444,
				"element": "H" 
			},
			{
				"x": 1.0887900687,
				"y": -3.2132192333,
				"z": 3.425160478,
				"element": "H" 
			},
			{
				"x": 1.1134622627,
				"y": -0.8163189936,
				"z": 2.7844695195,
				"element": "H" 
			}
		],
		 "valence_orbital": [ 
			{
				"type": "occ",
				"energy": -0.28684,
				"method": "rhf"
			},
			{
				"type": "occ",
				"energy": -0.26707,
				"method": "rhf"
			},
			{
				"type": "occ",
				"energy": -0.26568,
				"method": "rhf"
			},
			{
				"type": "occ",
				"energy": -0.2454,
				"method": "rhf"
			},
			{
				"type": "occ",
				"energy": -0.23511,
				"method": "rhf"
			},
			{
				"type": "unocc",
				"energy": -0.05158,
				"method": "rhf"
			},
			{
				"type": "unocc",
				"energy": -0.02344,
				"method": "rhf"
			},
			{
				"type": "unocc",
				"energy": 0.00847,
				"method": "rhf"
			},
			{
				"type": "unocc",
				"energy": 0.05451,
				"method": "rhf"
			},
			{
				"type": "unocc",
				"energy": 0.06902,
				"method": "rhf"
			}
		],
		"cosmo_sigma_profile": { 
			"-0.025": 0.0,
			"-0.024": 0.0,
			"-0.023": 0.0,
			"-0.022": 0.0,
			"-0.021": 0.0,
			"-0.02": 0.0409224052966,
			"-0.019": 0.698057361115,
			"-0.018": 0.927454684503,
			"-0.017": 1.12230327578,
			"-0.016": 0.835425097649,
			"-0.015": 0.739424862791,
			"-0.014": 0.399700029787,
			"-0.013": 1.4981879946,
			"-0.012": 2.05267953032,
			"-0.011": 1.73668234036,
			"-0.01": 1.6268666003,
			"-0.009": 2.28234640289,
			"-0.008": 4.20270646166,
			"-0.007": 7.82492452012,
			"-0.006": 8.97309095804,
			"-0.005": 8.86811401901,
			"-0.004": 12.3094515437,
			"-0.003": 21.2201696634,
			"-0.002": 20.0607134563,
			"-0.001": 23.6059199338,
			"0.0": 24.2888115996,
			"0.001": 20.7203094268,
			"0.002": 16.0352134198,
			"0.003": 17.5685235307,
			"0.004": 11.0013647775,
			"0.005": 6.35361417378,
			"0.006": 7.45947352547,
			"0.007": 5.64072703832,
			"0.008": 5.05799723492,
			"0.009": 3.07857243817,
			"0.01": 3.18028460696,
			"0.011": 2.17216872084,
			"0.012": 1.81763543677,
			"0.013": 3.24579336941,
			"0.014": 5.78044772811,
			"0.015": 0.446712549271,
			"0.016": 0.0,
			"0.017": 0.0,
			"0.018": 0.0,
			"0.019": 0.0,
			"0.02": 0.0,
			"0.021": 0.0,
			"0.022": 0.0,
			"0.023": 0.0,
			"0.024": 0.0,
			"0.025": 0.0
		}
	}
}
