{
	 "smiles": "CNN", 
	 "Tm": 252.15, 
	 "num_atms": 9, 
	 "gaussian": { 
		 "optdone": 1, 
		 "sigma_profile": "yes", 
		 "theory": "DFT", 
		 "functional": "B3LYP", 
		 "basiset": "6-31G**", 
		 "properties": { 
			 "R2extent": 407.1048, 
			 "electric_dipole_moment_norm": 1.75241238868, 
			 "electric_quadrupole_moment_norm": 5.37126755059, 
			 "total_energy": -151.179834988, 
			 "HOMO_LUMO_gap": 0.30892, 
			 "cosmo_polarized_energy": -7.15, 
			 "cosmo_cavitation_energy": 11.7, 
			 "cosmo_dispersion_energy": -8.94, 
			 "cosmo_repulsion_energy": 0.87, 
			 "cosmo_total_nonelectrostatic_energy": 3.63, 
			 "SMD_solvation_energy": 2.0 
		},
		"coords": [
			{
				"x": -1.1175972644,
				"y": -0.6517124802,
				"z": -0.1639414992,
				"element": "C" 
			},
			{
				"x": -1.6483858982,
				"y": 0.5298552138,
				"z": -0.8304375995,
				"element": "N" 
			},
			{
				"x": -0.839579753,
				"y": 1.011533172,
				"z": -1.9039515792,
				"element": "N" 
			},
			{
				"x": -0.2098949481,
				"y": -0.3859797422,
				"z": 0.3902301438,
				"element": "H" 
			},
			{
				"x": -0.8608359418,
				"y": -1.4802629733,
				"z": -0.8519017192,
				"element": "H" 
			},
			{
				"x": -1.8543614509,
				"y": -1.0226625947,
				"z": 0.5567173443,
				"element": "H" 
			},
			{
				"x": -2.5616645166,
				"y": 0.3268946908,
				"z": -1.2257207763,
				"element": "H" 
			},
			{
				"x": -0.1131271582,
				"y": 1.5961231159,
				"z": -1.4969074374,
				"element": "H" 
			},
			{
				"x": -0.3624530688,
				"y": 0.2362115977,
				"z": -2.3763868773,
				"element": "H" 
			}
		],
		 "valence_orbital": [ 
			{
				"type": "occ",
				"energy": -0.45608,
				"method": "rhf"
			},
			{
				"type": "occ",
				"energy": -0.40382,
				"method": "rhf"
			},
			{
				"type": "occ",
				"energy": -0.37726,
				"method": "rhf"
			},
			{
				"type": "occ",
				"energy": -0.24393,
				"method": "rhf"
			},
			{
				"type": "occ",
				"energy": -0.22766,
				"method": "rhf"
			},
			{
				"type": "unocc",
				"energy": 0.08126,
				"method": "rhf"
			},
			{
				"type": "unocc",
				"energy": 0.11547,
				"method": "rhf"
			},
			{
				"type": "unocc",
				"energy": 0.14252,
				"method": "rhf"
			},
			{
				"type": "unocc",
				"energy": 0.15569,
				"method": "rhf"
			},
			{
				"type": "unocc",
				"energy": 0.16101,
				"method": "rhf"
			}
		],
		"cosmo_sigma_profile": { 
			"-0.025": 0.0,
			"-0.024": 0.0,
			"-0.023": 0.0,
			"-0.022": 0.0,
			"-0.021": 0.0,
			"-0.02": 0.0,
			"-0.019": 0.0,
			"-0.018": 0.0,
			"-0.017": 0.0,
			"-0.016": 0.0,
			"-0.015": 0.0,
			"-0.014": 0.0,
			"-0.013": 0.0,
			"-0.012": 0.0,
			"-0.011": 0.0161219730045,
			"-0.01": 1.64516624443,
			"-0.009": 3.34509329429,
			"-0.008": 3.81421475668,
			"-0.007": 4.58001353335,
			"-0.006": 4.08722015953,
			"-0.005": 4.5990886838,
			"-0.004": 6.14571931491,
			"-0.003": 8.87660950088,
			"-0.002": 9.4755089318,
			"-0.001": 9.24767789775,
			"0.0": 7.87971940202,
			"0.001": 2.41089291869,
			"0.002": 2.33491209352,
			"0.003": 1.19936169109,
			"0.004": 1.27289272324,
			"0.005": 1.29468043214,
			"0.006": 1.11441086808,
			"0.007": 1.30635345371,
			"0.008": 1.68679382341,
			"0.009": 1.82673687465,
			"0.01": 1.20080061822,
			"0.011": 1.50747965785,
			"0.012": 1.36511551356,
			"0.013": 0.913112997326,
			"0.014": 1.64531673241,
			"0.015": 1.6258939377,
			"0.016": 1.11441575832,
			"0.017": 1.19257336605,
			"0.018": 0.877121133177,
			"0.019": 0.461261579399,
			"0.02": 0.0,
			"0.021": 0.0,
			"0.022": 0.0,
			"0.023": 0.0,
			"0.024": 0.0,
			"0.025": 0.0
		}
	}
}
