{
	 "smiles": "CC1=C(F)C=C(C=C1)N1N=C(C(O)=O)C2=C1CCCC2", 
	 "Tm": 482.15, 
	 "num_atms": 35, 
	 "gaussian": { 
		 "optdone": 1, 
		 "sigma_profile": "yes", 
		 "theory": "DFT", 
		 "functional": "B3LYP", 
		 "basiset": "6-31G**", 
		 "properties": { 
			 "R2extent": 7470.0386, 
			 "electric_dipole_moment_norm": 6.76469128564, 
			 "electric_quadrupole_moment_norm": 41.1410623348, 
			 "total_energy": -940.431043262, 
			 "HOMO_LUMO_gap": 0.19312, 
			 "cosmo_polarized_energy": -19.82, 
			 "cosmo_cavitation_energy": 38.08, 
			 "cosmo_dispersion_energy": -27.5, 
			 "cosmo_repulsion_energy": 2.08, 
			 "cosmo_total_nonelectrostatic_energy": 12.66, 
			 "SMD_solvation_energy": 6.38 
		},
		"coords": [
			{
				"x": 5.0908081333,
				"y": -1.7252488376,
				"z": 2.8659691594,
				"element": "C" 
			},
			{
				"x": 3.8654392096,
				"y": -1.0015334673,
				"z": 2.3725382646,
				"element": "C" 
			},
			{
				"x": 3.3212607098,
				"y": -1.2976320447,
				"z": 1.1221277984,
				"element": "C" 
			},
			{
				"x": 3.9276142405,
				"y": -2.2413760793,
				"z": 0.3659059316,
				"element": "F" 
			},
			{
				"x": 2.2008828978,
				"y": -0.6660362773,
				"z": 0.6007029797,
				"element": "C" 
			},
			{
				"x": 1.5666543805,
				"y": 0.3086247372,
				"z": 1.3771317307,
				"element": "C" 
			},
			{
				"x": 2.0772474945,
				"y": 0.6450116135,
				"z": 2.6345440953,
				"element": "C" 
			},
			{
				"x": 3.2136418362,
				"y": -0.0055267854,
				"z": 3.1103450797,
				"element": "C" 
			},
			{
				"x": 0.4112595147,
				"y": 0.9870385644,
				"z": 0.89451628,
				"element": "N" 
			},
			{
				"x": 0.2311151945,
				"y": 2.2772453324,
				"z": 1.2452502656,
				"element": "N" 
			},
			{
				"x": -0.9413297212,
				"y": 2.6287003519,
				"z": 0.7144934041,
				"element": "C" 
			},
			{
				"x": -1.4140739333,
				"y": 4.0292510548,
				"z": 0.9062145485,
				"element": "C" 
			},
			{
				"x": -2.7350105488,
				"y": 4.2418980745,
				"z": 0.6299171539,
				"element": "O" 
			},
			{
				"x": -0.7167476054,
				"y": 4.9444648508,
				"z": 1.263069871,
				"element": "O" 
			},
			{
				"x": -1.5335686369,
				"y": 1.5440166369,
				"z": 0.0039481487,
				"element": "C" 
			},
			{
				"x": -0.637212942,
				"y": 0.5019018849,
				"z": 0.1434949466,
				"element": "C" 
			},
			{
				"x": -0.8250440856,
				"y": -0.8867948045,
				"z": -0.3921567014,
				"element": "C" 
			},
			{
				"x": -2.3029632484,
				"y": -1.0805784583,
				"z": -0.7875726052,
				"element": "C" 
			},
			{
				"x": -2.8314179899,
				"y": 0.1148683894,
				"z": -1.5957528279,
				"element": "C" 
			},
			{
				"x": -2.8244815921,
				"y": 1.4122808231,
				"z": -0.7621351855,
				"element": "C" 
			},
			{
				"x": 5.940854396,
				"y": -1.5719309365,
				"z": 2.1924044468,
				"element": "H" 
			},
			{
				"x": 5.3757383405,
				"y": -1.3735752695,
				"z": 3.860324866,
				"element": "H" 
			},
			{
				"x": 4.9206459503,
				"y": -2.8059482048,
				"z": 2.9201464441,
				"element": "H" 
			},
			{
				"x": 1.8692275971,
				"y": -0.9212606003,
				"z": -0.3968322637,
				"element": "H" 
			},
			{
				"x": 1.5869048551,
				"y": 1.4170219618,
				"z": 3.2140202527,
				"element": "H" 
			},
			{
				"x": 3.6053392216,
				"y": 0.2618497827,
				"z": 4.0877568297,
				"element": "H" 
			},
			{
				"x": -3.1914674486,
				"y": 3.4029207428,
				"z": 0.481710353,
				"element": "H" 
			},
			{
				"x": -0.1935104683,
				"y": -1.0468870285,
				"z": -1.2771789477,
				"element": "H" 
			},
			{
				"x": -0.5185592187,
				"y": -1.6374787235,
				"z": 0.3450836356,
				"element": "H" 
			},
			{
				"x": -2.9088588677,
				"y": -1.2041059962,
				"z": 0.1193113007,
				"element": "H" 
			},
			{
				"x": -2.4052495659,
				"y": -2.0048343649,
				"z": -1.3655844035,
				"element": "H" 
			},
			{
				"x": -2.2031055089,
				"y": 0.2553468855,
				"z": -2.484761509,
				"element": "H" 
			},
			{
				"x": -3.8460977457,
				"y": -0.0867045555,
				"z": -1.9543309235,
				"element": "H" 
			},
			{
				"x": -2.982050573,
				"y": 2.2772006552,
				"z": -1.418326865,
				"element": "H" 
			},
			{
				"x": -3.6803842716,
				"y": 1.3851100922,
				"z": -0.0674955543,
				"element": "H" 
			}
		],
		 "valence_orbital": [ 
			{
				"type": "occ",
				"energy": -0.28677,
				"method": "rhf"
			},
			{
				"type": "occ",
				"energy": -0.26298,
				"method": "rhf"
			},
			{
				"type": "occ",
				"energy": -0.26007,
				"method": "rhf"
			},
			{
				"type": "occ",
				"energy": -0.24962,
				"method": "rhf"
			},
			{
				"type": "occ",
				"energy": -0.23485,
				"method": "rhf"
			},
			{
				"type": "unocc",
				"energy": -0.04173,
				"method": "rhf"
			},
			{
				"type": "unocc",
				"energy": -0.01504,
				"method": "rhf"
			},
			{
				"type": "unocc",
				"energy": -0.00642,
				"method": "rhf"
			},
			{
				"type": "unocc",
				"energy": 0.02646,
				"method": "rhf"
			},
			{
				"type": "unocc",
				"energy": 0.06173,
				"method": "rhf"
			}
		],
		"cosmo_sigma_profile": { 
			"-0.025": 0.0,
			"-0.024": 0.0,
			"-0.023": 0.0,
			"-0.022": 0.0,
			"-0.021": 0.0,
			"-0.02": 0.0,
			"-0.019": 0.0,
			"-0.018": 0.0,
			"-0.017": 0.0,
			"-0.016": 0.0,
			"-0.015": 0.829552003692,
			"-0.014": 1.0885304187,
			"-0.013": 1.30341150287,
			"-0.012": 1.35617727215,
			"-0.011": 0.719769411747,
			"-0.01": 1.13937835414,
			"-0.009": 1.45207042922,
			"-0.008": 3.42301074484,
			"-0.007": 4.27207094687,
			"-0.006": 9.84326248666,
			"-0.005": 17.6590451717,
			"-0.004": 23.7224442724,
			"-0.003": 33.8565088085,
			"-0.002": 32.6838839316,
			"-0.001": 30.5527741973,
			"0.0": 26.4591215727,
			"0.001": 19.6090691443,
			"0.002": 17.4980991159,
			"0.003": 14.3685366021,
			"0.004": 15.4050885153,
			"0.005": 5.38435101825,
			"0.006": 3.71964322255,
			"0.007": 3.43686777582,
			"0.008": 3.16783066719,
			"0.009": 4.03716897144,
			"0.01": 5.45146922283,
			"0.011": 5.88784250088,
			"0.012": 6.78122618717,
			"0.013": 3.73765101657,
			"0.014": 1.71675314485,
			"0.015": 1.3168256042,
			"0.016": 0.0617778263749,
			"0.017": 0.0,
			"0.018": 0.0,
			"0.019": 0.0,
			"0.02": 0.0,
			"0.021": 0.0,
			"0.022": 0.0,
			"0.023": 0.0,
			"0.024": 0.0,
			"0.025": 0.0
		}
	}
}
