{
	 "smiles": "CC1=CSC(N)=N1", 
	 "Tm": 317.95, 
	 "num_atms": 13, 
	 "gaussian": { 
		 "optdone": 1, 
		 "sigma_profile": "yes", 
		 "theory": "DFT", 
		 "functional": "B3LYP", 
		 "basiset": "6-31G**", 
		 "properties": { 
			 "R2extent": 1360.6714, 
			 "electric_dipole_moment_norm": 1.36686184744, 
			 "electric_quadrupole_moment_norm": 10.5131457233, 
			 "total_energy": -663.731052343, 
			 "HOMO_LUMO_gap": 0.20707, 
			 "cosmo_polarized_energy": -9.2, 
			 "cosmo_cavitation_energy": 18.38, 
			 "cosmo_dispersion_energy": -14.54, 
			 "cosmo_repulsion_energy": 1.19, 
			 "cosmo_total_nonelectrostatic_energy": 5.03, 
			 "SMD_solvation_energy": 1.72 
		},
		"coords": [
			{
				"x": 0.7950151078,
				"y": 2.8841945268,
				"z": -0.2873364618,
				"element": "C" 
			},
			{
				"x": 1.086748998,
				"y": 1.4388321205,
				"z": -0.0130800526,
				"element": "C" 
			},
			{
				"x": 0.6075315226,
				"y": 0.7155472865,
				"z": 1.0371230868,
				"element": "C" 
			},
			{
				"x": 1.2071999257,
				"y": -0.9282165186,
				"z": 0.9695653344,
				"element": "S" 
			},
			{
				"x": 2.0584380678,
				"y": -0.4881826082,
				"z": -0.51877066,
				"element": "C" 
			},
			{
				"x": 2.8763461441,
				"y": -1.3927105742,
				"z": -1.1616838173,
				"element": "N" 
			},
			{
				"x": 1.9050929751,
				"y": 0.7473031951,
				"z": -0.894583605,
				"element": "N" 
			},
			{
				"x": 0.3203331682,
				"y": 3.0039106011,
				"z": -1.2674734665,
				"element": "H" 
			},
			{
				"x": 1.7218229957,
				"y": 3.4681661209,
				"z": -0.305109342,
				"element": "H" 
			},
			{
				"x": 0.1334100707,
				"y": 3.3069144084,
				"z": 0.4727929663,
				"element": "H" 
			},
			{
				"x": -0.0519392406,
				"y": 1.0309973857,
				"z": 1.8322540562,
				"element": "H" 
			},
			{
				"x": 2.5968560795,
				"y": -2.3627305614,
				"z": -1.1243221048,
				"element": "H" 
			},
			{
				"x": 3.1453441853,
				"y": -1.0827253826,
				"z": -2.0866759336,
				"element": "H" 
			}
		],
		 "valence_orbital": [ 
			{
				"type": "occ",
				"energy": -0.34624,
				"method": "rhf"
			},
			{
				"type": "occ",
				"energy": -0.31044,
				"method": "rhf"
			},
			{
				"type": "occ",
				"energy": -0.26666,
				"method": "rhf"
			},
			{
				"type": "occ",
				"energy": -0.26506,
				"method": "rhf"
			},
			{
				"type": "occ",
				"energy": -0.20354,
				"method": "rhf"
			},
			{
				"type": "unocc",
				"energy": 0.00353,
				"method": "rhf"
			},
			{
				"type": "unocc",
				"energy": 0.018,
				"method": "rhf"
			},
			{
				"type": "unocc",
				"energy": 0.06682,
				"method": "rhf"
			},
			{
				"type": "unocc",
				"energy": 0.07584,
				"method": "rhf"
			},
			{
				"type": "unocc",
				"energy": 0.10666,
				"method": "rhf"
			}
		],
		"cosmo_sigma_profile": { 
			"-0.025": 0.0,
			"-0.024": 0.0,
			"-0.023": 0.0,
			"-0.022": 0.0,
			"-0.021": 0.0,
			"-0.02": 0.0,
			"-0.019": 0.0,
			"-0.018": 0.0,
			"-0.017": 0.0,
			"-0.016": 0.0,
			"-0.015": 0.216416805099,
			"-0.014": 1.50661491314,
			"-0.013": 2.37162455264,
			"-0.012": 2.69548495434,
			"-0.011": 2.70384648971,
			"-0.01": 2.4479564232,
			"-0.009": 2.07239267988,
			"-0.008": 2.08836216531,
			"-0.007": 3.75778441579,
			"-0.006": 3.81926560104,
			"-0.005": 5.61056592856,
			"-0.004": 8.81539649401,
			"-0.003": 7.34035191472,
			"-0.002": 10.1995855688,
			"-0.001": 9.58334326917,
			"0.0": 12.5218918116,
			"0.001": 8.78014243424,
			"0.002": 10.2049755822,
			"0.003": 9.45123910219,
			"0.004": 11.6557186284,
			"0.005": 10.5308596251,
			"0.006": 5.19522698201,
			"0.007": 2.23236877188,
			"0.008": 1.65489873838,
			"0.009": 2.12723840688,
			"0.01": 1.86354129476,
			"0.011": 2.16088321214,
			"0.012": 1.21925683218,
			"0.013": 1.12773379398,
			"0.014": 0.76511734658,
			"0.015": 0.878956481554,
			"0.016": 0.418861111818,
			"0.017": 0.00219111965285,
			"0.018": 0.0,
			"0.019": 0.0,
			"0.02": 0.0,
			"0.021": 0.0,
			"0.022": 0.0,
			"0.023": 0.0,
			"0.024": 0.0,
			"0.025": 0.0
		}
	}
}
