{
	 "smiles": "C[Si](C)(OC1=CC=CC=C1)OC1=CC=CC=C1", 
	 "Tm": 250.15, 
	 "num_atms": 33, 
	 "gaussian": { 
		 "optdone": 1, 
		 "sigma_profile": "yes", 
		 "theory": "DFT", 
		 "functional": "B3LYP", 
		 "basiset": "6-31G**", 
		 "properties": { 
			 "R2extent": 4845.7507, 
			 "electric_dipole_moment_norm": 1.51380402959, 
			 "electric_quadrupole_moment_norm": 7.48494475731, 
			 "total_energy": -983.188084355, 
			 "HOMO_LUMO_gap": 0.22287, 
			 "cosmo_polarized_energy": -7.75, 
			 "cosmo_cavitation_energy": 38.19, 
			 "cosmo_dispersion_energy": -23.88, 
			 "cosmo_repulsion_energy": 1.97, 
			 "cosmo_total_nonelectrostatic_energy": 16.28, 
			 "SMD_solvation_energy": 7.29 
		},
		"coords": [
			{
				"x": -1.2318169321,
				"y": -3.4105086268,
				"z": -0.5602134704,
				"element": "C" 
			},
			{
				"x": -0.5603998704,
				"y": -1.672846164,
				"z": -0.5006424403,
				"element": "Si" 
			},
			{
				"x": -0.0067372063,
				"y": -0.9949352373,
				"z": -2.1578225712,
				"element": "C" 
			},
			{
				"x": -1.820692561,
				"y": -0.7650324484,
				"z": 0.1278417594,
				"element": "O" 
			},
			{
				"x": -1.87139912,
				"y": 0.5825113777,
				"z": 0.3872721448,
				"element": "C" 
			},
			{
				"x": -1.5314116482,
				"y": 1.0587600988,
				"z": 1.658910584,
				"element": "C" 
			},
			{
				"x": -1.6311616997,
				"y": 2.4234163652,
				"z": 1.9345522896,
				"element": "C" 
			},
			{
				"x": -2.0693921569,
				"y": 3.3152485554,
				"z": 0.9529089954,
				"element": "C" 
			},
			{
				"x": -2.412332835,
				"y": 2.8320854287,
				"z": -0.3117044963,
				"element": "C" 
			},
			{
				"x": -2.3163536963,
				"y": 1.4698319241,
				"z": -0.5990077379,
				"element": "C" 
			},
			{
				"x": 0.7302863496,
				"y": -1.690705038,
				"z": 0.5685394846,
				"element": "O" 
			},
			{
				"x": 1.937878597,
				"y": -1.0386517478,
				"z": 0.5223585293,
				"element": "C" 
			},
			{
				"x": 3.1068484748,
				"y": -1.8076432207,
				"z": 0.5080977985,
				"element": "C" 
			},
			{
				"x": 4.3512306382,
				"y": -1.178267646,
				"z": 0.4968503211,
				"element": "C" 
			},
			{
				"x": 4.4397296412,
				"y": 0.2158453455,
				"z": 0.4989988379,
				"element": "C" 
			},
			{
				"x": 3.2697706362,
				"y": 0.9770163425,
				"z": 0.520141061,
				"element": "C" 
			},
			{
				"x": 2.0182378075,
				"y": 0.3584503659,
				"z": 0.5360816216,
				"element": "C" 
			},
			{
				"x": -1.4729528597,
				"y": -3.7605096356,
				"z": 0.4480790698,
				"element": "H" 
			},
			{
				"x": -2.1444627874,
				"y": -3.4603991937,
				"z": -1.1622340469,
				"element": "H" 
			},
			{
				"x": -0.4985890537,
				"y": -4.0998886192,
				"z": -0.990863618,
				"element": "H" 
			},
			{
				"x": -0.8112704411,
				"y": -1.0821579467,
				"z": -2.8955875253,
				"element": "H" 
			},
			{
				"x": 0.2785669914,
				"y": 0.0591236929,
				"z": -2.0932363596,
				"element": "H" 
			},
			{
				"x": 0.8592043003,
				"y": -1.549441658,
				"z": -2.5346090546,
				"element": "H" 
			},
			{
				"x": -1.1994137569,
				"y": 0.3535639588,
				"z": 2.4138281093,
				"element": "H" 
			},
			{
				"x": -1.3670042953,
				"y": 2.7885042078,
				"z": 2.9230905586,
				"element": "H" 
			},
			{
				"x": -2.1473589521,
				"y": 4.3756354486,
				"z": 1.1728339849,
				"element": "H" 
			},
			{
				"x": -2.7597714504,
				"y": 3.5167230496,
				"z": -1.0804115515,
				"element": "H" 
			},
			{
				"x": -2.5933980832,
				"y": 1.0814365415,
				"z": -1.5739358977,
				"element": "H" 
			},
			{
				"x": 3.0219158138,
				"y": -2.8897047566,
				"z": 0.511894913,
				"element": "H" 
			},
			{
				"x": 5.2547351458,
				"y": -1.7815911031,
				"z": 0.4857648557,
				"element": "H" 
			},
			{
				"x": 5.4100069572,
				"y": 0.7030409467,
				"z": 0.4891114183,
				"element": "H" 
			},
			{
				"x": 3.3260971804,
				"y": 2.0619896684,
				"z": 0.5302355804,
				"element": "H" 
			},
			{
				"x": 1.1082108723,
				"y": 0.9486997238,
				"z": 0.5776768524,
				"element": "H" 
			}
		],
		 "valence_orbital": [ 
			{
				"type": "occ",
				"energy": -0.28575,
				"method": "rhf"
			},
			{
				"type": "occ",
				"energy": -0.2514,
				"method": "rhf"
			},
			{
				"type": "occ",
				"energy": -0.24783,
				"method": "rhf"
			},
			{
				"type": "occ",
				"energy": -0.23117,
				"method": "rhf"
			},
			{
				"type": "occ",
				"energy": -0.22654,
				"method": "rhf"
			},
			{
				"type": "unocc",
				"energy": -0.00367,
				"method": "rhf"
			},
			{
				"type": "unocc",
				"energy": 0.00076,
				"method": "rhf"
			},
			{
				"type": "unocc",
				"energy": 0.00768,
				"method": "rhf"
			},
			{
				"type": "unocc",
				"energy": 0.01052,
				"method": "rhf"
			},
			{
				"type": "unocc",
				"energy": 0.07648,
				"method": "rhf"
			}
		],
		"cosmo_sigma_profile": { 
			"-0.025": 0.0,
			"-0.024": 0.0,
			"-0.023": 0.0,
			"-0.022": 0.0,
			"-0.021": 0.0,
			"-0.02": 0.0,
			"-0.019": 0.0,
			"-0.018": 0.0,
			"-0.017": 0.0,
			"-0.016": 0.0,
			"-0.015": 0.0,
			"-0.014": 0.0,
			"-0.013": 0.0,
			"-0.012": 0.0,
			"-0.011": 0.0,
			"-0.01": 0.0,
			"-0.009": 0.0,
			"-0.008": 0.0,
			"-0.007": 0.00460337405194,
			"-0.006": 9.074174753,
			"-0.005": 22.2916963795,
			"-0.004": 31.2483199648,
			"-0.003": 32.3979152,
			"-0.002": 25.7666990915,
			"-0.001": 26.349354811,
			"0.0": 27.5821652474,
			"0.001": 22.9781031315,
			"0.002": 19.824847558,
			"0.003": 18.7352552727,
			"0.004": 20.8405634747,
			"0.005": 19.8095146545,
			"0.006": 12.6907786562,
			"0.007": 2.31624269042,
			"0.008": 2.29761628385,
			"0.009": 2.12256972635,
			"0.01": 2.18836114331,
			"0.011": 1.21292592473,
			"0.012": 0.0163755493485,
			"0.013": 0.0,
			"0.014": 0.0,
			"0.015": 0.0,
			"0.016": 0.0,
			"0.017": 0.0,
			"0.018": 0.0,
			"0.019": 0.0,
			"0.02": 0.0,
			"0.021": 0.0,
			"0.022": 0.0,
			"0.023": 0.0,
			"0.024": 0.0,
			"0.025": 0.0
		}
	}
}
