{
	 "smiles": "OC(=O)C1=NC(=CC=C1)N1CCOCC1", 
	 "Tm": 401.15, 
	 "num_atms": 27, 
	 "gaussian": { 
		 "optdone": 1, 
		 "sigma_profile": "yes", 
		 "theory": "DFT", 
		 "functional": "B3LYP", 
		 "basiset": "6-31G**", 
		 "properties": { 
			 "R2extent": 4202.0103, 
			 "electric_dipole_moment_norm": 6.13530897673, 
			 "electric_quadrupole_moment_norm": 27.1655326152, 
			 "total_energy": -723.46801241, 
			 "HOMO_LUMO_gap": 0.16395, 
			 "cosmo_polarized_energy": -15.38, 
			 "cosmo_cavitation_energy": 29.82, 
			 "cosmo_dispersion_energy": -22.25, 
			 "cosmo_repulsion_energy": 1.73, 
			 "cosmo_total_nonelectrostatic_energy": 9.3, 
			 "SMD_solvation_energy": 4.91 
		},
		"coords": [
			{
				"x": -2.1453207938,
				"y": 2.2174814932,
				"z": -2.7247747808,
				"element": "O" 
			},
			{
				"x": -2.7280408921,
				"y": 1.014007335,
				"z": -2.8577287859,
				"element": "C" 
			},
			{
				"x": -3.5306523225,
				"y": 0.7607152183,
				"z": -3.7275230788,
				"element": "O" 
			},
			{
				"x": -2.2825502217,
				"y": 0.0104592382,
				"z": -1.82062281,
				"element": "C" 
			},
			{
				"x": -1.401370521,
				"y": 0.4730810608,
				"z": -0.9177460608,
				"element": "N" 
			},
			{
				"x": -0.9501465032,
				"y": -0.3586368177,
				"z": 0.039731729,
				"element": "C" 
			},
			{
				"x": -1.3991467497,
				"y": -1.7054748124,
				"z": 0.0993148115,
				"element": "C" 
			},
			{
				"x": -2.3021326159,
				"y": -2.1556753102,
				"z": -0.8500734499,
				"element": "C" 
			},
			{
				"x": -2.7669658903,
				"y": -1.2893871379,
				"z": -1.8459280438,
				"element": "C" 
			},
			{
				"x": -0.0519134279,
				"y": 0.1444221121,
				"z": 0.9480567851,
				"element": "N" 
			},
			{
				"x": 0.2784630105,
				"y": 1.5687035444,
				"z": 0.9930980148,
				"element": "C" 
			},
			{
				"x": 0.5148020216,
				"y": 1.9981770708,
				"z": 2.4391678262,
				"element": "C" 
			},
			{
				"x": 1.5237887416,
				"y": 1.2370686581,
				"z": 3.1061435209,
				"element": "O" 
			},
			{
				"x": 1.8427899673,
				"y": 0.0047251418,
				"z": 2.4811668506,
				"element": "C" 
			},
			{
				"x": 0.6164158883,
				"y": -0.7152204676,
				"z": 1.9233794848,
				"element": "C" 
			},
			{
				"x": -1.5459950116,
				"y": 2.1323049786,
				"z": -1.9535803147,
				"element": "H" 
			},
			{
				"x": -1.0610277253,
				"y": -2.3686936993,
				"z": 0.885179324,
				"element": "H" 
			},
			{
				"x": -2.6527285129,
				"y": -3.1830248291,
				"z": -0.8093491024,
				"element": "H" 
			},
			{
				"x": -3.4720870877,
				"y": -1.587568242,
				"z": -2.6111636156,
				"element": "H" 
			},
			{
				"x": 1.1583540893,
				"y": 1.7944138477,
				"z": 0.3734513169,
				"element": "H" 
			},
			{
				"x": -0.5576076819,
				"y": 2.1369014482,
				"z": 0.5824056463,
				"element": "H" 
			},
			{
				"x": -0.4289337001,
				"y": 1.9116787581,
				"z": 2.9974816267,
				"element": "H" 
			},
			{
				"x": 0.8238300111,
				"y": 3.0494376421,
				"z": 2.4633307551,
				"element": "H" 
			},
			{
				"x": 2.5738720703,
				"y": 0.1533475333,
				"z": 1.6708281115,
				"element": "H" 
			},
			{
				"x": 2.3174774581,
				"y": -0.6191200023,
				"z": 3.2442773387,
				"element": "H" 
			},
			{
				"x": 0.9472448952,
				"y": -1.6445082567,
				"z": 1.4429049659,
				"element": "H" 
			},
			{
				"x": -0.0602184958,
				"y": -0.9893155054,
				"z": 2.7473719351,
				"element": "H" 
			}
		],
		 "valence_orbital": [ 
			{
				"type": "occ",
				"energy": -0.29934,
				"method": "rhf"
			},
			{
				"type": "occ",
				"energy": -0.29446,
				"method": "rhf"
			},
			{
				"type": "occ",
				"energy": -0.26483,
				"method": "rhf"
			},
			{
				"type": "occ",
				"energy": -0.25878,
				"method": "rhf"
			},
			{
				"type": "occ",
				"energy": -0.22024,
				"method": "rhf"
			},
			{
				"type": "unocc",
				"energy": -0.05629,
				"method": "rhf"
			},
			{
				"type": "unocc",
				"energy": -0.01604,
				"method": "rhf"
			},
			{
				"type": "unocc",
				"energy": 0.06102,
				"method": "rhf"
			},
			{
				"type": "unocc",
				"energy": 0.06536,
				"method": "rhf"
			},
			{
				"type": "unocc",
				"energy": 0.09178,
				"method": "rhf"
			}
		],
		"cosmo_sigma_profile": { 
			"-0.025": 0.0,
			"-0.024": 0.0,
			"-0.023": 0.0,
			"-0.022": 0.0,
			"-0.021": 0.0,
			"-0.02": 0.0,
			"-0.019": 0.0,
			"-0.018": 0.0,
			"-0.017": 0.0,
			"-0.016": 0.0,
			"-0.015": 0.0,
			"-0.014": 0.0,
			"-0.013": 0.0,
			"-0.012": 0.0121217787044,
			"-0.011": 0.258407009477,
			"-0.01": 0.933439519476,
			"-0.009": 0.714050734944,
			"-0.008": 1.04233508138,
			"-0.007": 6.2828102169,
			"-0.006": 13.3555207499,
			"-0.005": 25.6508884544,
			"-0.004": 30.8607286093,
			"-0.003": 22.3558145731,
			"-0.002": 16.2054281626,
			"-0.001": 12.8118949936,
			"0.0": 11.6552166921,
			"0.001": 18.6836896387,
			"0.002": 14.997056348,
			"0.003": 12.0564398823,
			"0.004": 4.97882580904,
			"0.005": 3.85020298304,
			"0.006": 3.27980673006,
			"0.007": 4.06220466715,
			"0.008": 4.44916730648,
			"0.009": 4.17205159978,
			"0.01": 5.97912753791,
			"0.011": 6.41198257799,
			"0.012": 7.04502237406,
			"0.013": 3.40665378195,
			"0.014": 0.620589464511,
			"0.015": 0.0,
			"0.016": 0.0,
			"0.017": 0.0,
			"0.018": 0.0,
			"0.019": 0.0,
			"0.02": 0.0,
			"0.021": 0.0,
			"0.022": 0.0,
			"0.023": 0.0,
			"0.024": 0.0,
			"0.025": 0.0
		}
	}
}
