{
	 "smiles": "COC1=CC=C(CC2(C)NC(=O)NC2=O)C=C1", 
	 "Tm": 470.15, 
	 "num_atms": 31, 
	 "gaussian": { 
		 "optdone": 1, 
		 "sigma_profile": "yes", 
		 "theory": "DFT", 
		 "functional": "B3LYP", 
		 "basiset": "6-31G**", 
		 "properties": { 
			 "R2extent": 5942.783, 
			 "electric_dipole_moment_norm": 3.95466994577, 
			 "electric_quadrupole_moment_norm": 16.2152666031, 
			 "total_energy": -800.924695178, 
			 "HOMO_LUMO_gap": 0.20605, 
			 "cosmo_polarized_energy": -19.84, 
			 "cosmo_cavitation_energy": 34.54, 
			 "cosmo_dispersion_energy": -24.38, 
			 "cosmo_repulsion_energy": 1.89, 
			 "cosmo_total_nonelectrostatic_energy": 12.06, 
			 "SMD_solvation_energy": 7.58 
		},
		"coords": [
			{
				"x": 4.0683831021,
				"y": -3.2745467299,
				"z": 1.1515515132,
				"element": "C" 
			},
			{
				"x": 2.7319879091,
				"y": -3.1420320095,
				"z": 0.6960591304,
				"element": "O" 
			},
			{
				"x": 2.0748679039,
				"y": -1.9740970417,
				"z": 0.953984493,
				"element": "C" 
			},
			{
				"x": 2.6197083423,
				"y": -0.8883296834,
				"z": 1.6472117385,
				"element": "C" 
			},
			{
				"x": 1.8413494944,
				"y": 0.2547473219,
				"z": 1.8523787756,
				"element": "C" 
			},
			{
				"x": 0.52926571,
				"y": 0.3516101777,
				"z": 1.3802757201,
				"element": "C" 
			},
			{
				"x": -0.2896318899,
				"y": 1.5982302266,
				"z": 1.6374772803,
				"element": "C" 
			},
			{
				"x": -0.3934555441,
				"y": 2.6452065973,
				"z": 0.4773945605,
				"element": "C" 
			},
			{
				"x": 0.9688615408,
				"y": 2.9740491995,
				"z": -0.1420980739,
				"element": "C" 
			},
			{
				"x": -1.0856638046,
				"y": 3.8427655351,
				"z": 0.9626982785,
				"element": "N" 
			},
			{
				"x": -2.348796735,
				"y": 4.0053920997,
				"z": 0.4534156208,
				"element": "C" 
			},
			{
				"x": -3.1858861834,
				"y": 4.8349811645,
				"z": 0.7425303464,
				"element": "O" 
			},
			{
				"x": -2.4855414425,
				"y": 2.9907045082,
				"z": -0.5180158144,
				"element": "N" 
			},
			{
				"x": -1.3793949034,
				"y": 2.1735654908,
				"z": -0.6170677293,
				"element": "C" 
			},
			{
				"x": -1.2174854909,
				"y": 1.2653453328,
				"z": -1.4062790645,
				"element": "O" 
			},
			{
				"x": 0.0000140901,
				"y": -0.7540310404,
				"z": 0.6914119933,
				"element": "C" 
			},
			{
				"x": 0.7565388645,
				"y": -1.8976739441,
				"z": 0.4790196786,
				"element": "C" 
			},
			{
				"x": 4.3973382474,
				"y": -4.2666515476,
				"z": 0.8383891147,
				"element": "H" 
			},
			{
				"x": 4.1337970459,
				"y": -3.2022029605,
				"z": 2.2450998783,
				"element": "H" 
			},
			{
				"x": 4.726685319,
				"y": -2.5188174676,
				"z": 0.7035007363,
				"element": "H" 
			},
			{
				"x": 3.6311045543,
				"y": -0.9202132284,
				"z": 2.0346289855,
				"element": "H" 
			},
			{
				"x": 2.2744119026,
				"y": 1.0862018701,
				"z": 2.403926474,
				"element": "H" 
			},
			{
				"x": -1.3108728024,
				"y": 1.3332207117,
				"z": 1.935954087,
				"element": "H" 
			},
			{
				"x": 0.1485200009,
				"y": 2.136348513,
				"z": 2.4874590241,
				"element": "H" 
			},
			{
				"x": 1.3795118905,
				"y": 2.0874355018,
				"z": -0.6283239632,
				"element": "H" 
			},
			{
				"x": 1.6715723851,
				"y": 3.3058200139,
				"z": 0.6294066904,
				"element": "H" 
			},
			{
				"x": 0.8673471541,
				"y": 3.7717981695,
				"z": -0.8826720609,
				"element": "H" 
			},
			{
				"x": -0.8233459451,
				"y": 4.3373875571,
				"z": 1.8018328248,
				"element": "H" 
			},
			{
				"x": -3.2986275201,
				"y": 2.9191211704,
				"z": -1.1127310953,
				"element": "H" 
			},
			{
				"x": -1.0127480871,
				"y": -0.7130253613,
				"z": 0.3051845981,
				"element": "H" 
			},
			{
				"x": 0.3482848911,
				"y": -2.7504101473,
				"z": -0.0534037408,
				"element": "H" 
			}
		],
		 "valence_orbital": [ 
			{
				"type": "occ",
				"energy": -0.28688,
				"method": "rhf"
			},
			{
				"type": "occ",
				"energy": -0.26792,
				"method": "rhf"
			},
			{
				"type": "occ",
				"energy": -0.26062,
				"method": "rhf"
			},
			{
				"type": "occ",
				"energy": -0.24988,
				"method": "rhf"
			},
			{
				"type": "occ",
				"energy": -0.21672,
				"method": "rhf"
			},
			{
				"type": "unocc",
				"energy": -0.01067,
				"method": "rhf"
			},
			{
				"type": "unocc",
				"energy": -0.0027,
				"method": "rhf"
			},
			{
				"type": "unocc",
				"energy": 0.00881,
				"method": "rhf"
			},
			{
				"type": "unocc",
				"energy": 0.0613,
				"method": "rhf"
			},
			{
				"type": "unocc",
				"energy": 0.07047,
				"method": "rhf"
			}
		],
		"cosmo_sigma_profile": { 
			"-0.025": 0.0,
			"-0.024": 0.0,
			"-0.023": 0.0,
			"-0.022": 0.0,
			"-0.021": 0.0,
			"-0.02": 0.0,
			"-0.019": 0.0,
			"-0.018": 0.0,
			"-0.017": 0.224545948327,
			"-0.016": 1.2738965332,
			"-0.015": 1.82841190676,
			"-0.014": 2.26415612712,
			"-0.013": 2.15809056709,
			"-0.012": 1.54694577278,
			"-0.011": 2.24247601275,
			"-0.01": 2.53507213063,
			"-0.009": 1.34056721486,
			"-0.008": 2.51606287683,
			"-0.007": 2.66236825237,
			"-0.006": 12.0006068877,
			"-0.005": 26.2918479761,
			"-0.004": 25.7528315603,
			"-0.003": 24.4358470034,
			"-0.002": 20.4310493966,
			"-0.001": 17.9757134823,
			"0.0": 15.2330137012,
			"0.001": 12.1627654021,
			"0.002": 11.0304762372,
			"0.003": 10.6318790922,
			"0.004": 13.3457501939,
			"0.005": 13.4031708308,
			"0.006": 9.17939249553,
			"0.007": 4.27613423956,
			"0.008": 4.13673980641,
			"0.009": 4.15033803136,
			"0.01": 5.17924271345,
			"0.011": 5.36744303403,
			"0.012": 7.97096373168,
			"0.013": 7.7878655175,
			"0.014": 1.25401809986,
			"0.015": 0.0,
			"0.016": 0.0,
			"0.017": 0.0,
			"0.018": 0.0,
			"0.019": 0.0,
			"0.02": 0.0,
			"0.021": 0.0,
			"0.022": 0.0,
			"0.023": 0.0,
			"0.024": 0.0,
			"0.025": 0.0
		}
	}
}
