{
	 "smiles": "OC(=O)C=CC1=CC=C(OCC2=CC=CC=C2)C=C1", 
	 "Tm": 415.15, 
	 "num_atms": 33, 
	 "gaussian": { 
		 "optdone": 1, 
		 "sigma_profile": "yes", 
		 "theory": "DFT", 
		 "functional": "B3LYP", 
		 "basiset": "6-31G**", 
		 "properties": { 
			 "R2extent": 7797.6714, 
			 "electric_dipole_moment_norm": 1.49032901736, 
			 "electric_quadrupole_moment_norm": 7.02181005012, 
			 "total_energy": -843.803525999, 
			 "HOMO_LUMO_gap": 0.15498, 
			 "cosmo_polarized_energy": -12.63, 
			 "cosmo_cavitation_energy": 37.82, 
			 "cosmo_dispersion_energy": -26.98, 
			 "cosmo_repulsion_energy": 2.08, 
			 "cosmo_total_nonelectrostatic_energy": 12.92, 
			 "SMD_solvation_energy": 7.71 
		},
		"coords": [
			{
				"x": -5.9050289026,
				"y": -1.5666924524,
				"z": -2.898051351,
				"element": "O" 
			},
			{
				"x": -4.7111675116,
				"y": -1.1074833625,
				"z": -2.426264625,
				"element": "C" 
			},
			{
				"x": -3.6842934968,
				"y": -1.2859732507,
				"z": -3.0630271785,
				"element": "O" 
			},
			{
				"x": -4.9075369254,
				"y": -0.4311546223,
				"z": -1.1386862068,
				"element": "C" 
			},
			{
				"x": -4.0194994324,
				"y": 0.1773508394,
				"z": -0.3108482655,
				"element": "C" 
			},
			{
				"x": -2.5819664218,
				"y": 0.4245526498,
				"z": -0.3054425786,
				"element": "C" 
			},
			{
				"x": -2.067175304,
				"y": 1.1368351996,
				"z": 0.8040269255,
				"element": "C" 
			},
			{
				"x": -0.7210518339,
				"y": 1.4349209279,
				"z": 0.920998234,
				"element": "C" 
			},
			{
				"x": 0.1734696426,
				"y": 1.0252814078,
				"z": -0.0804572392,
				"element": "C" 
			},
			{
				"x": 1.4749579817,
				"y": 1.3801777958,
				"z": 0.1180527405,
				"element": "O" 
			},
			{
				"x": 2.4407445377,
				"y": 1.1169082912,
				"z": -0.9020086804,
				"element": "C" 
			},
			{
				"x": 2.915505443,
				"y": -0.3222385703,
				"z": -0.9504282698,
				"element": "C" 
			},
			{
				"x": 3.0027523404,
				"y": -1.0876541215,
				"z": 0.2182732749,
				"element": "C" 
			},
			{
				"x": 3.4914822664,
				"y": -2.3932114788,
				"z": 0.1704171567,
				"element": "C" 
			},
			{
				"x": 3.9065440236,
				"y": -2.9453939116,
				"z": -1.0435564101,
				"element": "C" 
			},
			{
				"x": 3.8248902027,
				"y": -2.1864158058,
				"z": -2.2119324807,
				"element": "C" 
			},
			{
				"x": 3.3274533202,
				"y": -0.8829397013,
				"z": -2.1648063594,
				"element": "C" 
			},
			{
				"x": -0.3073449674,
				"y": 0.3094379014,
				"z": -1.1859061743,
				"element": "C" 
			},
			{
				"x": -1.6640607265,
				"y": 0.0180187265,
				"z": -1.29478833,
				"element": "C" 
			},
			{
				"x": -5.699838482,
				"y": -1.9981600392,
				"z": -3.7434427954,
				"element": "H" 
			},
			{
				"x": -5.9447232281,
				"y": -0.4296280179,
				"z": -0.8189440586,
				"element": "H" 
			},
			{
				"x": -4.4968421606,
				"y": 0.5896375615,
				"z": 0.5787819977,
				"element": "H" 
			},
			{
				"x": -2.7482403029,
				"y": 1.4633754697,
				"z": 1.586026576,
				"element": "H" 
			},
			{
				"x": -0.3346256069,
				"y": 1.9877745514,
				"z": 1.7707643474,
				"element": "H" 
			},
			{
				"x": 3.2749139581,
				"y": 1.7794978649,
				"z": -0.6469573583,
				"element": "H" 
			},
			{
				"x": 2.0580551404,
				"y": 1.43310394,
				"z": -1.8807003016,
				"element": "H" 
			},
			{
				"x": 2.6763590404,
				"y": -0.6579996686,
				"z": 1.1602825244,
				"element": "H" 
			},
			{
				"x": 3.5486345568,
				"y": -2.9805341014,
				"z": 1.0825154911,
				"element": "H" 
			},
			{
				"x": 4.2865923761,
				"y": -3.9622386208,
				"z": -1.0791011143,
				"element": "H" 
			},
			{
				"x": 4.138687444,
				"y": -2.6105261258,
				"z": -3.1614670865,
				"element": "H" 
			},
			{
				"x": 3.2574286776,
				"y": -0.2987678247,
				"z": -3.0799190635,
				"element": "H" 
			},
			{
				"x": 0.3687342583,
				"y": -0.044322608,
				"z": -1.9544828698,
				"element": "H" 
			},
			{
				"x": -2.0261099066,
				"y": -0.5354388433,
				"z": -2.151320471,
				"element": "H" 
			}
		],
		 "valence_orbital": [ 
			{
				"type": "occ",
				"energy": -0.26454,
				"method": "rhf"
			},
			{
				"type": "occ",
				"energy": -0.25543,
				"method": "rhf"
			},
			{
				"type": "occ",
				"energy": -0.25446,
				"method": "rhf"
			},
			{
				"type": "occ",
				"energy": -0.24773,
				"method": "rhf"
			},
			{
				"type": "occ",
				"energy": -0.2138,
				"method": "rhf"
			},
			{
				"type": "unocc",
				"energy": -0.05882,
				"method": "rhf"
			},
			{
				"type": "unocc",
				"energy": -0.0106,
				"method": "rhf"
			},
			{
				"type": "unocc",
				"energy": -0.00732,
				"method": "rhf"
			},
			{
				"type": "unocc",
				"energy": 0.00075,
				"method": "rhf"
			},
			{
				"type": "unocc",
				"energy": 0.02861,
				"method": "rhf"
			}
		],
		"cosmo_sigma_profile": { 
			"-0.025": 0.0,
			"-0.024": 0.0,
			"-0.023": 0.0,
			"-0.022": 0.0,
			"-0.021": 0.0,
			"-0.02": 0.0,
			"-0.019": 0.0,
			"-0.018": 0.206578507149,
			"-0.017": 0.870117761627,
			"-0.016": 0.984473662755,
			"-0.015": 0.48999478241,
			"-0.014": 0.874329495751,
			"-0.013": 0.924317792625,
			"-0.012": 0.443311662684,
			"-0.011": 0.37368441275,
			"-0.01": 1.37547037579,
			"-0.009": 0.512051472703,
			"-0.008": 1.11234116299,
			"-0.007": 7.54365772562,
			"-0.006": 20.0495301118,
			"-0.005": 23.308206334,
			"-0.004": 22.8518773457,
			"-0.003": 19.7794591259,
			"-0.002": 16.2983187759,
			"-0.001": 18.0919930384,
			"0.0": 19.1386327721,
			"0.001": 18.2756906938,
			"0.002": 25.3614528422,
			"0.003": 30.3945742369,
			"0.004": 29.2670927421,
			"0.005": 15.4170215572,
			"0.006": 7.71112572793,
			"0.007": 5.17432993366,
			"0.008": 3.87731366583,
			"0.009": 4.07080163371,
			"0.01": 3.05305675737,
			"0.011": 2.38679038728,
			"0.012": 2.14699015332,
			"0.013": 0.269298726946,
			"0.014": 0.0,
			"0.015": 0.0,
			"0.016": 0.0,
			"0.017": 0.0,
			"0.018": 0.0,
			"0.019": 0.0,
			"0.02": 0.0,
			"0.021": 0.0,
			"0.022": 0.0,
			"0.023": 0.0,
			"0.024": 0.0,
			"0.025": 0.0
		}
	}
}
