{
	 "smiles": "SC1=NC2=CC3=C(OCCO3)C=C2N1", 
	 "Tm": 573.15, 
	 "num_atms": 22, 
	 "gaussian": { 
		 "optdone": 1, 
		 "sigma_profile": "yes", 
		 "theory": "DFT", 
		 "functional": "B3LYP", 
		 "basiset": "6-31G**", 
		 "properties": { 
			 "R2extent": 4899.0789, 
			 "electric_dipole_moment_norm": 2.59009028607, 
			 "electric_quadrupole_moment_norm": 12.1428948966, 
			 "total_energy": -1005.89809827, 
			 "HOMO_LUMO_gap": 0.18325, 
			 "cosmo_polarized_energy": -15.41, 
			 "cosmo_cavitation_energy": 27.53, 
			 "cosmo_dispersion_energy": -21.86, 
			 "cosmo_repulsion_energy": 1.66, 
			 "cosmo_total_nonelectrostatic_energy": 7.33, 
			 "SMD_solvation_energy": 2.21 
		},
		"coords": [
			{
				"x": -1.7890646349,
				"y": 5.9332817525,
				"z": 0.219669746,
				"element": "S" 
			},
			{
				"x": -1.2204743981,
				"y": 4.2576950567,
				"z": 0.1857743075,
				"element": "C" 
			},
			{
				"x": -1.0162111724,
				"y": 3.5387120413,
				"z": -0.8865303739,
				"element": "N" 
			},
			{
				"x": -0.5786785286,
				"y": 2.3078428615,
				"z": -0.4039111758,
				"element": "C" 
			},
			{
				"x": -0.2234107562,
				"y": 1.1504694633,
				"z": -1.1018213537,
				"element": "C" 
			},
			{
				"x": 0.1825529368,
				"y": 0.0380485661,
				"z": -0.3710479038,
				"element": "C" 
			},
			{
				"x": 0.2448004513,
				"y": 0.0735989934,
				"z": 1.0454179929,
				"element": "C" 
			},
			{
				"x": 0.6523652407,
				"y": -1.0197854394,
				"z": 1.7757602908,
				"element": "O" 
			},
			{
				"x": 1.3268886444,
				"y": -2.0172508872,
				"z": 1.0108759996,
				"element": "C" 
			},
			{
				"x": 0.5713069448,
				"y": -2.2805094806,
				"z": -0.2804300046,
				"element": "C" 
			},
			{
				"x": 0.533699494,
				"y": -1.0967229365,
				"z": -1.0716773356,
				"element": "O" 
			},
			{
				"x": -0.1170340681,
				"y": 1.2181085133,
				"z": 1.755506502,
				"element": "C" 
			},
			{
				"x": -0.5295558305,
				"y": 2.3180572757,
				"z": 1.0096965485,
				"element": "C" 
			},
			{
				"x": -0.9507380741,
				"y": 3.5939896039,
				"z": 1.3642845934,
				"element": "N" 
			},
			{
				"x": -1.8581920308,
				"y": 6.0181651834,
				"z": -1.1212316934,
				"element": "H" 
			},
			{
				"x": -0.2618944802,
				"y": 1.1009025914,
				"z": -2.1839082054,
				"element": "H" 
			},
			{
				"x": 1.3707070182,
				"y": -2.9110065364,
				"z": 1.6388412686,
				"element": "H" 
			},
			{
				"x": 2.3505685177,
				"y": -1.6888373493,
				"z": 0.7830132907,
				"element": "H" 
			},
			{
				"x": -0.4499967989,
				"y": -2.6170405711,
				"z": -0.0519422164,
				"element": "H" 
			},
			{
				"x": 1.0698519343,
				"y": -3.0427478332,
				"z": -0.8850417243,
				"element": "H" 
			},
			{
				"x": -0.0599560774,
				"y": 1.2118571824,
				"z": 2.83847682,
				"element": "H" 
			},
			{
				"x": -1.0389343319,
				"y": 3.9655719487,
				"z": 2.296824627,
				"element": "H" 
			}
		],
		 "valence_orbital": [ 
			{
				"type": "occ",
				"energy": -0.2947,
				"method": "rhf"
			},
			{
				"type": "occ",
				"energy": -0.27454,
				"method": "rhf"
			},
			{
				"type": "occ",
				"energy": -0.26189,
				"method": "rhf"
			},
			{
				"type": "occ",
				"energy": -0.21328,
				"method": "rhf"
			},
			{
				"type": "occ",
				"energy": -0.19325,
				"method": "rhf"
			},
			{
				"type": "unocc",
				"energy": -0.01,
				"method": "rhf"
			},
			{
				"type": "unocc",
				"energy": 0.00447,
				"method": "rhf"
			},
			{
				"type": "unocc",
				"energy": 0.03221,
				"method": "rhf"
			},
			{
				"type": "unocc",
				"energy": 0.05721,
				"method": "rhf"
			},
			{
				"type": "unocc",
				"energy": 0.06782,
				"method": "rhf"
			}
		],
		"cosmo_sigma_profile": { 
			"-0.025": 0.0,
			"-0.024": 0.0,
			"-0.023": 0.0,
			"-0.022": 0.0,
			"-0.021": 0.0,
			"-0.02": 0.0,
			"-0.019": 0.0,
			"-0.018": 0.0,
			"-0.017": 0.854092844228,
			"-0.016": 1.83165255009,
			"-0.015": 1.32301428902,
			"-0.014": 1.05873119801,
			"-0.013": 1.48998054223,
			"-0.012": 2.06474940617,
			"-0.011": 2.80653440103,
			"-0.01": 1.95356640222,
			"-0.009": 2.84252510124,
			"-0.008": 2.4930258528,
			"-0.007": 7.95921378468,
			"-0.006": 14.9687918902,
			"-0.005": 14.4955532489,
			"-0.004": 14.009666525,
			"-0.003": 11.1532328797,
			"-0.002": 8.82271543983,
			"-0.001": 10.1097597283,
			"0.0": 7.41481941579,
			"0.001": 12.7854241925,
			"0.002": 17.7479650951,
			"0.003": 15.794632366,
			"0.004": 20.7450039051,
			"0.005": 14.7771729939,
			"0.006": 7.4146294674,
			"0.007": 5.18037612232,
			"0.008": 4.52817475743,
			"0.009": 4.37037201683,
			"0.01": 3.93374324901,
			"0.011": 2.8977764338,
			"0.012": 0.855925327585,
			"0.013": 0.609919517765,
			"0.014": 1.58498854024,
			"0.015": 0.71966352337,
			"0.016": 0.804346104695,
			"0.017": 0.240009528427,
			"0.018": 0.0,
			"0.019": 0.0,
			"0.02": 0.0,
			"0.021": 0.0,
			"0.022": 0.0,
			"0.023": 0.0,
			"0.024": 0.0,
			"0.025": 0.0
		}
	}
}
