{
	 "smiles": "ClCC(=O)NC1CCCCCCC1", 
	 "Tm": 356.15, 
	 "num_atms": 31, 
	 "gaussian": { 
		 "optdone": 1, 
		 "sigma_profile": "yes", 
		 "theory": "DFT", 
		 "functional": "B3LYP", 
		 "basiset": "6-31G**", 
		 "properties": { 
			 "R2extent": 4137.7506, 
			 "electric_dipole_moment_norm": 2.25915782096, 
			 "electric_quadrupole_moment_norm": 6.47265001294, 
			 "total_energy": -982.105594452, 
			 "HOMO_LUMO_gap": 0.26762, 
			 "cosmo_polarized_energy": -9.37, 
			 "cosmo_cavitation_energy": 31.97, 
			 "cosmo_dispersion_energy": -23.2, 
			 "cosmo_repulsion_energy": 1.88, 
			 "cosmo_total_nonelectrostatic_energy": 10.65, 
			 "SMD_solvation_energy": 4.38 
		},
		"coords": [
			{
				"x": -1.790069094,
				"y": 2.064073885,
				"z": 3.4424931471,
				"element": "Cl" 
			},
			{
				"x": -2.8940628384,
				"y": 2.2215548644,
				"z": 2.0044786174,
				"element": "C" 
			},
			{
				"x": -2.3736890774,
				"y": 1.6871590314,
				"z": 0.6660033697,
				"element": "C" 
			},
			{
				"x": -3.1209031004,
				"y": 1.8022103229,
				"z": -0.3001830291,
				"element": "O" 
			},
			{
				"x": -1.1475104057,
				"y": 1.1219342042,
				"z": 0.6351826549,
				"element": "N" 
			},
			{
				"x": -0.5600175604,
				"y": 0.5844685893,
				"z": -0.6003628959,
				"element": "C" 
			},
			{
				"x": 0.1610151647,
				"y": 1.6912708695,
				"z": -1.4016584525,
				"element": "C" 
			},
			{
				"x": 1.4501048792,
				"y": 2.3185616124,
				"z": -0.8282508733,
				"element": "C" 
			},
			{
				"x": 2.5641653292,
				"y": 1.3946194751,
				"z": -0.2933934575,
				"element": "C" 
			},
			{
				"x": 3.147473436,
				"y": 0.3147795157,
				"z": -1.2323816533,
				"element": "C" 
			},
			{
				"x": 2.1819978404,
				"y": -0.5616720713,
				"z": -2.0560787863,
				"element": "C" 
			},
			{
				"x": 1.0913703826,
				"y": -1.3669046472,
				"z": -1.3144512718,
				"element": "C" 
			},
			{
				"x": 0.2426776394,
				"y": -0.6805254264,
				"z": -0.224759102,
				"element": "C" 
			},
			{
				"x": -3.8152383479,
				"y": 1.692946336,
				"z": 2.2500214266,
				"element": "H" 
			},
			{
				"x": -3.1162804934,
				"y": 3.2823293985,
				"z": 1.8888347759,
				"element": "H" 
			},
			{
				"x": -0.607056212,
				"y": 1.1019360832,
				"z": 1.4889762874,
				"element": "H" 
			},
			{
				"x": -1.4157513978,
				"y": 0.2826869193,
				"z": -1.2140321246,
				"element": "H" 
			},
			{
				"x": 0.3441692628,
				"y": 1.304211576,
				"z": -2.4066084475,
				"element": "H" 
			},
			{
				"x": -0.5732631487,
				"y": 2.4942642758,
				"z": -1.535694716,
				"element": "H" 
			},
			{
				"x": 1.1734971057,
				"y": 2.9942022201,
				"z": -0.0080916824,
				"element": "H" 
			},
			{
				"x": 1.8678544252,
				"y": 2.966824199,
				"z": -1.610389519,
				"element": "H" 
			},
			{
				"x": 2.2251536322,
				"y": 0.9267043031,
				"z": 0.6355321215,
				"element": "H" 
			},
			{
				"x": 3.3980766827,
				"y": 2.0401107503,
				"z": 0.0125321749,
				"element": "H" 
			},
			{
				"x": 3.7931573762,
				"y": -0.3348594426,
				"z": -0.6253529239,
				"element": "H" 
			},
			{
				"x": 3.8180600425,
				"y": 0.8050512107,
				"z": -1.9510915939,
				"element": "H" 
			},
			{
				"x": 2.7943348601,
				"y": -1.2896242677,
				"z": -2.6045218707,
				"element": "H" 
			},
			{
				"x": 1.7218957144,
				"y": 0.0532444681,
				"z": -2.8338912738,
				"element": "H" 
			},
			{
				"x": 1.5668168665,
				"y": -2.2298206889,
				"z": -0.8297108662,
				"element": "H" 
			},
			{
				"x": 0.4200153136,
				"y": -1.7914505382,
				"z": -2.0730696845,
				"element": "H" 
			},
			{
				"x": -0.4834370293,
				"y": -1.417793502,
				"z": 0.1400839296,
				"element": "H" 
			},
			{
				"x": 0.8821427521,
				"y": -0.4607935259,
				"z": 0.636035719,
				"element": "H" 
			}
		],
		 "valence_orbital": [ 
			{
				"type": "occ",
				"energy": -0.30931,
				"method": "rhf"
			},
			{
				"type": "occ",
				"energy": -0.30202,
				"method": "rhf"
			},
			{
				"type": "occ",
				"energy": -0.29788,
				"method": "rhf"
			},
			{
				"type": "occ",
				"energy": -0.2575,
				"method": "rhf"
			},
			{
				"type": "occ",
				"energy": -0.2521,
				"method": "rhf"
			},
			{
				"type": "unocc",
				"energy": 0.01552,
				"method": "rhf"
			},
			{
				"type": "unocc",
				"energy": 0.02168,
				"method": "rhf"
			},
			{
				"type": "unocc",
				"energy": 0.06475,
				"method": "rhf"
			},
			{
				"type": "unocc",
				"energy": 0.08481,
				"method": "rhf"
			},
			{
				"type": "unocc",
				"energy": 0.10084,
				"method": "rhf"
			}
		],
		"cosmo_sigma_profile": { 
			"-0.025": 0.0,
			"-0.024": 0.0,
			"-0.023": 0.0,
			"-0.022": 0.0,
			"-0.021": 0.0,
			"-0.02": 0.0,
			"-0.019": 0.0,
			"-0.018": 0.0,
			"-0.017": 0.0,
			"-0.016": 0.0,
			"-0.015": 0.0,
			"-0.014": 0.0,
			"-0.013": 0.0,
			"-0.012": 0.0,
			"-0.011": 0.134583060855,
			"-0.01": 1.43853906326,
			"-0.009": 3.26053215689,
			"-0.008": 4.60695183397,
			"-0.007": 5.90086902262,
			"-0.006": 4.6588137466,
			"-0.005": 5.24075236287,
			"-0.004": 8.76667769914,
			"-0.003": 13.9592756136,
			"-0.002": 34.4682265429,
			"-0.001": 39.4946163525,
			"0.0": 46.432850801,
			"0.001": 29.2444968031,
			"0.002": 9.68303565922,
			"0.003": 4.98691850562,
			"0.004": 6.40947036847,
			"0.005": 7.79732770174,
			"0.006": 6.05512345184,
			"0.007": 1.43387426076,
			"0.008": 1.41935978946,
			"0.009": 0.85183779109,
			"0.01": 1.88102040027,
			"0.011": 1.28810975166,
			"0.012": 1.79033691275,
			"0.013": 4.03024700303,
			"0.014": 4.17836867461,
			"0.015": 0.156993936262,
			"0.016": 0.0,
			"0.017": 0.0,
			"0.018": 0.0,
			"0.019": 0.0,
			"0.02": 0.0,
			"0.021": 0.0,
			"0.022": 0.0,
			"0.023": 0.0,
			"0.024": 0.0,
			"0.025": 0.0
		}
	}
}
