{
	 "smiles": "COC(=O)C1=C(C=C(C=C1[N+]([O-])=O)[N+]([O-])=O)[N+]([O-])=O", 
	 "Tm": 429.15, 
	 "num_atms": 24, 
	 "gaussian": { 
		 "optdone": 1, 
		 "sigma_profile": "yes", 
		 "theory": "DFT", 
		 "functional": "B3LYP", 
		 "basiset": "6-31G**", 
		 "properties": { 
			 "R2extent": 5330.204, 
			 "electric_dipole_moment_norm": 2.08685810011, 
			 "electric_quadrupole_moment_norm": 12.6706697439, 
			 "total_energy": -1073.58169636, 
			 "HOMO_LUMO_gap": 0.1667, 
			 "cosmo_polarized_energy": -16.99, 
			 "cosmo_cavitation_energy": 32.3, 
			 "cosmo_dispersion_energy": -22.45, 
			 "cosmo_repulsion_energy": 1.71, 
			 "cosmo_total_nonelectrostatic_energy": 11.56, 
			 "SMD_solvation_energy": 13.17 
		},
		"coords": [
			{
				"x": -0.8980828738,
				"y": 0.4008404778,
				"z": 3.4537995838,
				"element": "C" 
			},
			{
				"x": -0.6727853456,
				"y": 0.1999357222,
				"z": 2.0414027697,
				"element": "O" 
			},
			{
				"x": 0.5264104067,
				"y": -0.2799352954,
				"z": 1.7261293815,
				"element": "C" 
			},
			{
				"x": 1.4233298151,
				"y": -0.5703511859,
				"z": 2.4776866687,
				"element": "O" 
			},
			{
				"x": 0.6717256636,
				"y": -0.4495485656,
				"z": 0.2191863489,
				"element": "C" 
			},
			{
				"x": 0.5221000881,
				"y": -1.7039186537,
				"z": -0.39386157,
				"element": "C" 
			},
			{
				"x": 0.7610803244,
				"y": -1.9203064392,
				"z": -1.7459602837,
				"element": "C" 
			},
			{
				"x": 1.1522820957,
				"y": -0.8384523282,
				"z": -2.5215173368,
				"element": "C" 
			},
			{
				"x": 1.310809467,
				"y": 0.4294284595,
				"z": -1.9828024019,
				"element": "C" 
			},
			{
				"x": 1.0756452533,
				"y": 0.5993197171,
				"z": -0.6222115541,
				"element": "C" 
			},
			{
				"x": 1.2752819376,
				"y": 1.9694840766,
				"z": -0.0877325855,
				"element": "N" 
			},
			{
				"x": 1.2189778077,
				"y": 2.1200464383,
				"z": 1.1277918224,
				"element": "O" 
			},
			{
				"x": 1.4897777356,
				"y": 2.8592327751,
				"z": -0.9042592613,
				"element": "O" 
			},
			{
				"x": 1.4022683153,
				"y": -1.0421819788,
				"z": -3.9638078505,
				"element": "N" 
			},
			{
				"x": 1.7525668378,
				"y": -0.0620355795,
				"z": -4.6132813443,
				"element": "O" 
			},
			{
				"x": 1.2402321347,
				"y": -2.1763411825,
				"z": -4.4029047693,
				"element": "O" 
			},
			{
				"x": 0.0652562793,
				"y": -2.8786844249,
				"z": 0.3886448343,
				"element": "N" 
			},
			{
				"x": -0.4261201478,
				"y": -2.6677836206,
				"z": 1.4920363412,
				"element": "O" 
			},
			{
				"x": 0.196512047,
				"y": -3.979842884,
				"z": -0.1347793053,
				"element": "O" 
			},
			{
				"x": -0.7970770626,
				"y": -0.54679944,
				"z": 3.986606468,
				"element": "H" 
			},
			{
				"x": -1.9145759325,
				"y": 0.7831795917,
				"z": 3.5319972243,
				"element": "H" 
			},
			{
				"x": -0.179815014,
				"y": 1.1233712232,
				"z": 3.8466825868,
				"element": "H" 
			},
			{
				"x": 0.6413110926,
				"y": -2.9054585387,
				"z": -2.176550918,
				"element": "H" 
			},
			{
				"x": 1.6108890748,
				"y": 1.2668016355,
				"z": -2.5982948489,
				"element": "H" 
			}
		],
		 "valence_orbital": [ 
			{
				"type": "occ",
				"energy": -0.32882,
				"method": "rhf"
			},
			{
				"type": "occ",
				"energy": -0.32757,
				"method": "rhf"
			},
			{
				"type": "occ",
				"energy": -0.32449,
				"method": "rhf"
			},
			{
				"type": "occ",
				"energy": -0.32288,
				"method": "rhf"
			},
			{
				"type": "occ",
				"energy": -0.30277,
				"method": "rhf"
			},
			{
				"type": "unocc",
				"energy": -0.13607,
				"method": "rhf"
			},
			{
				"type": "unocc",
				"energy": -0.13458,
				"method": "rhf"
			},
			{
				"type": "unocc",
				"energy": -0.1117,
				"method": "rhf"
			},
			{
				"type": "unocc",
				"energy": -0.03761,
				"method": "rhf"
			},
			{
				"type": "unocc",
				"energy": -0.03594,
				"method": "rhf"
			}
		],
		"cosmo_sigma_profile": { 
			"-0.025": 0.0,
			"-0.024": 0.0,
			"-0.023": 0.0,
			"-0.022": 0.0,
			"-0.021": 0.0,
			"-0.02": 0.0,
			"-0.019": 0.0,
			"-0.018": 0.0,
			"-0.017": 0.0,
			"-0.016": 0.0,
			"-0.015": 0.0,
			"-0.014": 0.0,
			"-0.013": 0.0,
			"-0.012": 0.0,
			"-0.011": 0.324522893143,
			"-0.01": 2.72896283085,
			"-0.009": 6.10204886749,
			"-0.008": 9.72973009336,
			"-0.007": 18.4459071357,
			"-0.006": 25.9084563328,
			"-0.005": 18.455882815,
			"-0.004": 16.8720590959,
			"-0.003": 10.0294466819,
			"-0.002": 9.54171753686,
			"-0.001": 7.65549272899,
			"0.0": 8.82241253653,
			"0.001": 10.3739229409,
			"0.002": 10.4136537093,
			"0.003": 9.81369626356,
			"0.004": 13.4346567854,
			"0.005": 18.5847853241,
			"0.006": 25.279063996,
			"0.007": 16.0099705087,
			"0.008": 10.7894058138,
			"0.009": 3.74669803991,
			"0.01": 4.76229667848,
			"0.011": 2.26797764955,
			"0.012": 0.0158845368182,
			"0.013": 0.0,
			"0.014": 0.0,
			"0.015": 0.0,
			"0.016": 0.0,
			"0.017": 0.0,
			"0.018": 0.0,
			"0.019": 0.0,
			"0.02": 0.0,
			"0.021": 0.0,
			"0.022": 0.0,
			"0.023": 0.0,
			"0.024": 0.0,
			"0.025": 0.0
		}
	}
}
