{
	 "smiles": "CC1=C(C=CC=C1I)[N+]([O-])=O", 
	 "Tm": 308.15, 
	 "num_atms": 17, 
	 "gaussian": { 
		 "optdone": 1, 
		 "sigma_profile": "yes", 
		 "theory": "DFT", 
		 "functional": "B3LYP", 
		 "basiset": "6-31G**", 
		 "properties": { 
			 "R2extent": 1863.0345, 
			 "electric_dipole_moment_norm": 3.16052827704, 
			 "electric_quadrupole_moment_norm": 11.9653970047, 
			 "total_energy": -486.842304718, 
			 "HOMO_LUMO_gap": 0.16608, 
			 "cosmo_polarized_energy": -7.36, 
			 "cosmo_cavitation_energy": 24.31, 
			 "cosmo_dispersion_energy": -19.35, 
			 "cosmo_repulsion_energy": 1.5, 
			 "cosmo_total_nonelectrostatic_energy": 6.47, 
			 "SMD_solvation_energy": 5.56 
		},
		"coords": [
			{
				"x": -0.5678307701,
				"y": -2.5212721937,
				"z": 0.0497929721,
				"element": "C" 
			},
			{
				"x": -0.1420703635,
				"y": -1.0748510914,
				"z": 0.0980128907,
				"element": "C" 
			},
			{
				"x": -0.2627274558,
				"y": -0.1972953126,
				"z": -1.0007819377,
				"element": "C" 
			},
			{
				"x": 0.1891252,
				"y": 1.1216451284,
				"z": -0.9930620596,
				"element": "C" 
			},
			{
				"x": 0.757958236,
				"y": 1.6372487651,
				"z": 0.1635519223,
				"element": "C" 
			},
			{
				"x": 0.8791530602,
				"y": 0.8247501611,
				"z": 1.2891150582,
				"element": "C" 
			},
			{
				"x": 0.442350559,
				"y": -0.5016173356,
				"z": 1.2454361604,
				"element": "C" 
			},
			{
				"x": 0.6855606941,
				"y": -1.620106934,
				"z": 3.0420141678,
				"element": "I" 
			},
			{
				"x": -0.9118419998,
				"y": -0.6307742475,
				"z": -2.2553049088,
				"element": "N" 
			},
			{
				"x": -0.5268633864,
				"y": -0.1038602717,
				"z": -3.29827478,
				"element": "O" 
			},
			{
				"x": -1.8157439069,
				"y": -1.4626174511,
				"z": -2.184896289,
				"element": "O" 
			},
			{
				"x": -0.5037304954,
				"y": -2.9307789263,
				"z": -0.9569532691,
				"element": "H" 
			},
			{
				"x": 0.0542095489,
				"y": -3.1179534005,
				"z": 0.7181126392,
				"element": "H" 
			},
			{
				"x": -1.60929059,
				"y": -2.6293944404,
				"z": 0.3707400012,
				"element": "H" 
			},
			{
				"x": 0.0786839461,
				"y": 1.7163281325,
				"z": -1.8908861066,
				"element": "H" 
			},
			{
				"x": 1.102778005,
				"y": 2.6655186695,
				"z": 0.1946982084,
				"element": "H" 
			},
			{
				"x": 1.3164797187,
				"y": 1.2191307482,
				"z": 2.1989853306,
				"element": "H" 
			}
		],
		 "valence_orbital": [ 
			{
				"type": "occ",
				"energy": -0.31063,
				"method": "rhf"
			},
			{
				"type": "occ",
				"energy": -0.29906,
				"method": "rhf"
			},
			{
				"type": "occ",
				"energy": -0.27921,
				"method": "rhf"
			},
			{
				"type": "occ",
				"energy": -0.27869,
				"method": "rhf"
			},
			{
				"type": "occ",
				"energy": -0.25753,
				"method": "rhf"
			},
			{
				"type": "unocc",
				"energy": -0.09145,
				"method": "rhf"
			},
			{
				"type": "unocc",
				"energy": -0.05374,
				"method": "rhf"
			},
			{
				"type": "unocc",
				"energy": -0.03795,
				"method": "rhf"
			},
			{
				"type": "unocc",
				"energy": -0.01795,
				"method": "rhf"
			},
			{
				"type": "unocc",
				"energy": 0.03255,
				"method": "rhf"
			}
		],
		"cosmo_sigma_profile": { 
			"-0.025": 0.0,
			"-0.024": 0.0,
			"-0.023": 0.0,
			"-0.022": 0.0,
			"-0.021": 0.0,
			"-0.02": 0.0,
			"-0.019": 0.0,
			"-0.018": 0.0,
			"-0.017": 0.0,
			"-0.016": 0.0,
			"-0.015": 0.0,
			"-0.014": 0.0,
			"-0.013": 0.0,
			"-0.012": 0.0,
			"-0.011": 0.0,
			"-0.01": 0.0,
			"-0.009": 0.305635396377,
			"-0.008": 4.1040487512,
			"-0.007": 9.52827835315,
			"-0.006": 9.53441597538,
			"-0.005": 10.7705360475,
			"-0.004": 10.906529285,
			"-0.003": 13.8053333654,
			"-0.002": 14.8899374274,
			"-0.001": 18.8765452799,
			"0.0": 19.262505336,
			"0.001": 20.2286591669,
			"0.002": 16.2862173575,
			"0.003": 10.929330791,
			"0.004": 10.8630771542,
			"0.005": 4.19037031653,
			"0.006": 4.18059357908,
			"0.007": 8.13735762732,
			"0.008": 6.7906219319,
			"0.009": 4.37348479687,
			"0.01": 1.91701213059,
			"0.011": 0.030287367863,
			"0.012": 0.0,
			"0.013": 0.0,
			"0.014": 0.0,
			"0.015": 0.0,
			"0.016": 0.0,
			"0.017": 0.0,
			"0.018": 0.0,
			"0.019": 0.0,
			"0.02": 0.0,
			"0.021": 0.0,
			"0.022": 0.0,
			"0.023": 0.0,
			"0.024": 0.0,
			"0.025": 0.0
		}
	}
}
