{
	 "smiles": "COC1=CC(C)=CC=C1S(N)(=O)=O", 
	 "Tm": 442.15, 
	 "num_atms": 24, 
	 "gaussian": { 
		 "optdone": 1, 
		 "sigma_profile": "yes", 
		 "theory": "DFT", 
		 "functional": "B3LYP", 
		 "basiset": "6-31G**", 
		 "properties": { 
			 "R2extent": 3781.4661, 
			 "electric_dipole_moment_norm": 6.2525656406, 
			 "electric_quadrupole_moment_norm": 22.670963723, 
			 "total_energy": -990.015552047, 
			 "HOMO_LUMO_gap": 0.21935, 
			 "cosmo_polarized_energy": -16.58, 
			 "cosmo_cavitation_energy": 28.41, 
			 "cosmo_dispersion_energy": -21.24, 
			 "cosmo_repulsion_energy": 1.63, 
			 "cosmo_total_nonelectrostatic_energy": 8.81, 
			 "SMD_solvation_energy": 5.28 
		},
		"coords": [
			{
				"x": -0.0974555994,
				"y": -2.8445444268,
				"z": 3.1588751927,
				"element": "C" 
			},
			{
				"x": 0.6178739161,
				"y": -1.7857020859,
				"z": 2.4946548905,
				"element": "O" 
			},
			{
				"x": -0.0563799546,
				"y": -1.1781915844,
				"z": 1.4573068839,
				"element": "C" 
			},
			{
				"x": -1.0513062676,
				"y": -0.2348691096,
				"z": 1.7113332742,
				"element": "C" 
			},
			{
				"x": -1.6922107069,
				"y": 0.4367766741,
				"z": 0.6618503527,
				"element": "C" 
			},
			{
				"x": -2.7465161301,
				"y": 1.4789316909,
				"z": 0.9489002754,
				"element": "C" 
			},
			{
				"x": -1.3071292695,
				"y": 0.1476113628,
				"z": -0.6551058529,
				"element": "C" 
			},
			{
				"x": -0.3074245567,
				"y": -0.7858169104,
				"z": -0.9208183358,
				"element": "C" 
			},
			{
				"x": 0.3150633672,
				"y": -1.4541334016,
				"z": 0.1337965481,
				"element": "C" 
			},
			{
				"x": 1.5517035205,
				"y": -2.7094877592,
				"z": -0.2214112214,
				"element": "S" 
			},
			{
				"x": 2.9237546884,
				"y": -2.2683961838,
				"z": 0.6382743248,
				"element": "N" 
			},
			{
				"x": 1.0840692051,
				"y": -3.9710861268,
				"z": 0.3539140359,
				"element": "O" 
			},
			{
				"x": 1.8953563523,
				"y": -2.5909410215,
				"z": -1.6387621059,
				"element": "O" 
			},
			{
				"x": -1.0579025264,
				"y": -2.4831039773,
				"z": 3.5428675102,
				"element": "H" 
			},
			{
				"x": -0.2507781922,
				"y": -3.682664779,
				"z": 2.4736939288,
				"element": "H" 
			},
			{
				"x": 0.5322840306,
				"y": -3.1568941261,
				"z": 3.993310115,
				"element": "H" 
			},
			{
				"x": -1.3116115091,
				"y": -0.0192791355,
				"z": 2.7439203818,
				"element": "H" 
			},
			{
				"x": -2.2938706608,
				"y": 2.4711364773,
				"z": 1.0679859588,
				"element": "H" 
			},
			{
				"x": -3.4710073614,
				"y": 1.5475867848,
				"z": 0.1325509408,
				"element": "H" 
			},
			{
				"x": -3.2906653661,
				"y": 1.2563773089,
				"z": 1.8712029538,
				"element": "H" 
			},
			{
				"x": -1.7936179612,
				"y": 0.6594385411,
				"z": -1.4806522284,
				"element": "H" 
			},
			{
				"x": -0.002271617,
				"y": -1.0125554709,
				"z": -1.9367214285,
				"element": "H" 
			},
			{
				"x": 3.3588956029,
				"y": -1.444411843,
				"z": 0.233169775,
				"element": "H" 
			},
			{
				"x": 2.6948469962,
				"y": -2.1448808983,
				"z": 1.6229638303,
				"element": "H" 
			}
		],
		 "valence_orbital": [ 
			{
				"type": "occ",
				"energy": -0.30383,
				"method": "rhf"
			},
			{
				"type": "occ",
				"energy": -0.29602,
				"method": "rhf"
			},
			{
				"type": "occ",
				"energy": -0.28846,
				"method": "rhf"
			},
			{
				"type": "occ",
				"energy": -0.26508,
				"method": "rhf"
			},
			{
				"type": "occ",
				"energy": -0.25384,
				"method": "rhf"
			},
			{
				"type": "unocc",
				"energy": -0.03449,
				"method": "rhf"
			},
			{
				"type": "unocc",
				"energy": -0.02075,
				"method": "rhf"
			},
			{
				"type": "unocc",
				"energy": 0.06346,
				"method": "rhf"
			},
			{
				"type": "unocc",
				"energy": 0.06874,
				"method": "rhf"
			},
			{
				"type": "unocc",
				"energy": 0.08483,
				"method": "rhf"
			}
		],
		"cosmo_sigma_profile": { 
			"-0.025": 0.0,
			"-0.024": 0.0,
			"-0.023": 0.0,
			"-0.022": 0.0,
			"-0.021": 0.0,
			"-0.02": 0.0,
			"-0.019": 0.0,
			"-0.018": 0.0,
			"-0.017": 0.0,
			"-0.016": 0.0868240688808,
			"-0.015": 1.39916603676,
			"-0.014": 1.03174488034,
			"-0.013": 1.47926836503,
			"-0.012": 1.52580340355,
			"-0.011": 2.45741810609,
			"-0.01": 1.49336920496,
			"-0.009": 1.59422713174,
			"-0.008": 1.71446965961,
			"-0.007": 4.39769437523,
			"-0.006": 10.3278235105,
			"-0.005": 18.1120258248,
			"-0.004": 19.3192906027,
			"-0.003": 20.9147852578,
			"-0.002": 17.2471004259,
			"-0.001": 17.3292032087,
			"0.0": 14.6499453328,
			"0.001": 11.8480170299,
			"0.002": 13.5931432896,
			"0.003": 12.0147797336,
			"0.004": 6.93860267058,
			"0.005": 3.9201191477,
			"0.006": 4.15181509059,
			"0.007": 4.90469777467,
			"0.008": 5.3607629508,
			"0.009": 4.38197181341,
			"0.01": 7.43859288313,
			"0.011": 9.11575510166,
			"0.012": 6.15323589974,
			"0.013": 0.378962791506,
			"0.014": 0.018468673922,
			"0.015": 0.0,
			"0.016": 0.0,
			"0.017": 0.0,
			"0.018": 0.0,
			"0.019": 0.0,
			"0.02": 0.0,
			"0.021": 0.0,
			"0.022": 0.0,
			"0.023": 0.0,
			"0.024": 0.0,
			"0.025": 0.0
		}
	}
}
