{
	 "smiles": "ClCC(=O)NC(=O)NC1CCS(=O)(=O)C1", 
	 "Tm": 447.15, 
	 "num_atms": 26, 
	 "gaussian": { 
		 "optdone": 1, 
		 "sigma_profile": "yes", 
		 "theory": "DFT", 
		 "functional": "B3LYP", 
		 "basiset": "6-31G**", 
		 "properties": { 
			 "R2extent": 7035.2478, 
			 "electric_dipole_moment_norm": 5.14152018959, 
			 "electric_quadrupole_moment_norm": 37.8223466904, 
			 "total_energy": -1542.12618441, 
			 "HOMO_LUMO_gap": 0.25678, 
			 "cosmo_polarized_energy": -27.4, 
			 "cosmo_cavitation_energy": 32.61, 
			 "cosmo_dispersion_energy": -24.52, 
			 "cosmo_repulsion_energy": 1.9, 
			 "cosmo_total_nonelectrostatic_energy": 9.99, 
			 "SMD_solvation_energy": 4.93 
		},
		"coords": [
			{
				"x": -2.8339851699,
				"y": -5.9653725072,
				"z": -1.1560990231,
				"element": "Cl" 
			},
			{
				"x": -2.332325221,
				"y": -4.2465202214,
				"z": -1.2174168404,
				"element": "C" 
			},
			{
				"x": -1.1680738542,
				"y": -3.9671499949,
				"z": -0.2715096441,
				"element": "C" 
			},
			{
				"x": -0.6220813322,
				"y": -4.801615077,
				"z": 0.4163737831,
				"element": "O" 
			},
			{
				"x": -0.7149451012,
				"y": -2.6402445256,
				"z": -0.209557504,
				"element": "N" 
			},
			{
				"x": -1.1598164719,
				"y": -1.5194663397,
				"z": -0.9200616373,
				"element": "C" 
			},
			{
				"x": -2.0519257422,
				"y": -1.5635927996,
				"z": -1.7601349789,
				"element": "O" 
			},
			{
				"x": -0.4884222437,
				"y": -0.3698631365,
				"z": -0.5999335266,
				"element": "N" 
			},
			{
				"x": -0.8923482181,
				"y": 0.8931622448,
				"z": -1.2083526915,
				"element": "C" 
			},
			{
				"x": -2.1021649019,
				"y": 1.5635207354,
				"z": -0.4931229896,
				"element": "C" 
			},
			{
				"x": -1.6170315978,
				"y": 2.2452631704,
				"z": 0.8024187425,
				"element": "C" 
			},
			{
				"x": 0.2090579995,
				"y": 2.4331251386,
				"z": 0.6308650336,
				"element": "S" 
			},
			{
				"x": 0.6400843471,
				"y": 3.8238375671,
				"z": 0.8102090234,
				"element": "O" 
			},
			{
				"x": 0.8481880752,
				"y": 1.34129411,
				"z": 1.4026141689,
				"element": "O" 
			},
			{
				"x": 0.2504888697,
				"y": 1.9083739093,
				"z": -1.1198435895,
				"element": "C" 
			},
			{
				"x": -3.1892246972,
				"y": -3.623471717,
				"z": -0.9623684029,
				"element": "H" 
			},
			{
				"x": -2.0539872926,
				"y": -3.9996542857,
				"z": -2.2417564615,
				"element": "H" 
			},
			{
				"x": 0.0692082205,
				"y": -2.5463521005,
				"z": 0.4260919238,
				"element": "H" 
			},
			{
				"x": 0.1037683244,
				"y": -0.3142257834,
				"z": 0.2227583911,
				"element": "H" 
			},
			{
				"x": -1.156096277,
				"y": 0.6823763133,
				"z": -2.2462768211,
				"element": "H" 
			},
			{
				"x": -2.5274284106,
				"y": 2.313001543,
				"z": -1.1682910954,
				"element": "H" 
			},
			{
				"x": -2.8776404352,
				"y": 0.8206942337,
				"z": -0.2975189993,
				"element": "H" 
			},
			{
				"x": -2.0357427239,
				"y": 3.2400872829,
				"z": 0.959456026,
				"element": "H" 
			},
			{
				"x": -1.7637947143,
				"y": 1.6410448342,
				"z": 1.6994568339,
				"element": "H" 
			},
			{
				"x": 0.0561880543,
				"y": 2.7857987355,
				"z": -1.7409953806,
				"element": "H" 
			},
			{
				"x": 1.2407505145,
				"y": 1.5025486704,
				"z": -1.3315043404,
				"element": "H" 
			}
		],
		 "valence_orbital": [ 
			{
				"type": "occ",
				"energy": -0.29949,
				"method": "rhf"
			},
			{
				"type": "occ",
				"energy": -0.2966,
				"method": "rhf"
			},
			{
				"type": "occ",
				"energy": -0.29338,
				"method": "rhf"
			},
			{
				"type": "occ",
				"energy": -0.28409,
				"method": "rhf"
			},
			{
				"type": "occ",
				"energy": -0.28134,
				"method": "rhf"
			},
			{
				"type": "unocc",
				"energy": -0.02456,
				"method": "rhf"
			},
			{
				"type": "unocc",
				"energy": 0.02523,
				"method": "rhf"
			},
			{
				"type": "unocc",
				"energy": 0.03003,
				"method": "rhf"
			},
			{
				"type": "unocc",
				"energy": 0.03223,
				"method": "rhf"
			},
			{
				"type": "unocc",
				"energy": 0.04576,
				"method": "rhf"
			}
		],
		"cosmo_sigma_profile": { 
			"-0.025": 0.0,
			"-0.024": 0.0,
			"-0.023": 0.0,
			"-0.022": 0.0,
			"-0.021": 0.0,
			"-0.02": 0.0,
			"-0.019": 0.0,
			"-0.018": 0.508823972677,
			"-0.017": 1.52148898249,
			"-0.016": 1.35597294539,
			"-0.015": 0.987155480388,
			"-0.014": 0.881667701104,
			"-0.013": 0.893681255643,
			"-0.012": 1.09772785285,
			"-0.011": 1.41922036522,
			"-0.01": 1.98033625871,
			"-0.009": 7.63345616429,
			"-0.008": 13.8095972572,
			"-0.007": 17.5202413596,
			"-0.006": 18.8374362183,
			"-0.005": 18.2702443841,
			"-0.004": 16.8412113449,
			"-0.003": 13.7263800494,
			"-0.002": 12.3568346509,
			"-0.001": 10.3470856229,
			"0.0": 8.27282050121,
			"0.001": 7.51977607366,
			"0.002": 8.22087458787,
			"0.003": 8.71026600468,
			"0.004": 8.04746401902,
			"0.005": 10.1231275439,
			"0.006": 10.8513165889,
			"0.007": 5.78875996748,
			"0.008": 6.0910541817,
			"0.009": 6.7638338466,
			"0.01": 8.87043907592,
			"0.011": 15.6983032586,
			"0.012": 11.8200402643,
			"0.013": 2.95788939812,
			"0.014": 0.145506925906,
			"0.015": 0.0,
			"0.016": 0.0,
			"0.017": 0.0,
			"0.018": 0.0,
			"0.019": 0.0,
			"0.02": 0.0,
			"0.021": 0.0,
			"0.022": 0.0,
			"0.023": 0.0,
			"0.024": 0.0,
			"0.025": 0.0
		}
	}
}
