{
	 "smiles": "SC1=NNC(=N1)C1=CN=CC=C1", 
	 "Tm": 578.15, 
	 "num_atms": 18, 
	 "gaussian": { 
		 "optdone": 1, 
		 "sigma_profile": "yes", 
		 "theory": "DFT", 
		 "functional": "B3LYP", 
		 "basiset": "6-31G**", 
		 "properties": { 
			 "R2extent": 3133.9193, 
			 "electric_dipole_moment_norm": 1.52926233851, 
			 "electric_quadrupole_moment_norm": 10.4259699309, 
			 "total_energy": -887.533547453, 
			 "HOMO_LUMO_gap": 0.17169, 
			 "cosmo_polarized_energy": -14.87, 
			 "cosmo_cavitation_energy": 24.92, 
			 "cosmo_dispersion_energy": -19.33, 
			 "cosmo_repulsion_energy": 1.48, 
			 "cosmo_total_nonelectrostatic_energy": 7.07, 
			 "SMD_solvation_energy": -0.28 
		},
		"coords": [
			{
				"x": 3.4124600694,
				"y": 2.4471154227,
				"z": -0.5977763314,
				"element": "S" 
			},
			{
				"x": 2.3859980529,
				"y": 1.2899832146,
				"z": 0.2557714395,
				"element": "C" 
			},
			{
				"x": 2.4726907666,
				"y": 1.0492884684,
				"z": 1.5596832543,
				"element": "N" 
			},
			{
				"x": 1.5000754216,
				"y": 0.1112013654,
				"z": 1.724324706,
				"element": "N" 
			},
			{
				"x": 0.8881979391,
				"y": -0.1642049518,
				"z": 0.545911756,
				"element": "C" 
			},
			{
				"x": 1.4391221085,
				"y": 0.5793528921,
				"z": -0.4103424876,
				"element": "N" 
			},
			{
				"x": -0.2010018062,
				"y": -1.1217443081,
				"z": 0.3501330417,
				"element": "C" 
			},
			{
				"x": -0.7441148138,
				"y": -1.8814116422,
				"z": 1.3977744247,
				"element": "C" 
			},
			{
				"x": -1.736226867,
				"y": -2.7605230981,
				"z": 1.2468861304,
				"element": "N" 
			},
			{
				"x": -2.2370353207,
				"y": -2.9196031739,
				"z": 0.0151325793,
				"element": "C" 
			},
			{
				"x": -1.7738063565,
				"y": -2.2170052649,
				"z": -1.1001317595,
				"element": "C" 
			},
			{
				"x": -0.7400594928,
				"y": -1.3037080274,
				"z": -0.9320597637,
				"element": "C" 
			},
			{
				"x": 4.0990416113,
				"y": 2.8120134613,
				"z": 0.5018652083,
				"element": "H" 
			},
			{
				"x": 1.3331957653,
				"y": -0.2686929335,
				"z": 2.6435749717,
				"element": "H" 
			},
			{
				"x": -0.3634788318,
				"y": -1.7803247907,
				"z": 2.4141407683,
				"element": "H" 
			},
			{
				"x": -3.0451333147,
				"y": -3.6415705897,
				"z": -0.0837176758,
				"element": "H" 
			},
			{
				"x": -2.2165117614,
				"y": -2.3852734012,
				"z": -2.0766257151,
				"element": "H" 
			},
			{
				"x": -0.3391131696,
				"y": -0.7293926432,
				"z": -1.7603445471,
				"element": "H" 
			}
		],
		 "valence_orbital": [ 
			{
				"type": "occ",
				"energy": -0.29362,
				"method": "rhf"
			},
			{
				"type": "occ",
				"energy": -0.29085,
				"method": "rhf"
			},
			{
				"type": "occ",
				"energy": -0.27013,
				"method": "rhf"
			},
			{
				"type": "occ",
				"energy": -0.266,
				"method": "rhf"
			},
			{
				"type": "occ",
				"energy": -0.23042,
				"method": "rhf"
			},
			{
				"type": "unocc",
				"energy": -0.05873,
				"method": "rhf"
			},
			{
				"type": "unocc",
				"energy": -0.03618,
				"method": "rhf"
			},
			{
				"type": "unocc",
				"energy": 0.01893,
				"method": "rhf"
			},
			{
				"type": "unocc",
				"energy": 0.02455,
				"method": "rhf"
			},
			{
				"type": "unocc",
				"energy": 0.05201,
				"method": "rhf"
			}
		],
		"cosmo_sigma_profile": { 
			"-0.025": 0.0,
			"-0.024": 0.0,
			"-0.023": 0.0,
			"-0.022": 0.0,
			"-0.021": 0.0,
			"-0.02": 0.0,
			"-0.019": 0.00316022277931,
			"-0.018": 0.872720332507,
			"-0.017": 1.85019630992,
			"-0.016": 1.61242706954,
			"-0.015": 1.39276379261,
			"-0.014": 0.983912650493,
			"-0.013": 1.03047498705,
			"-0.012": 1.91560593166,
			"-0.011": 2.38812778906,
			"-0.01": 2.71132330933,
			"-0.009": 2.27163417486,
			"-0.008": 3.96146836113,
			"-0.007": 7.70809522084,
			"-0.006": 9.09088106041,
			"-0.005": 8.70435287954,
			"-0.004": 8.21478422093,
			"-0.003": 7.75325898674,
			"-0.002": 9.97613543226,
			"-0.001": 12.6633282085,
			"0.0": 16.5233280701,
			"0.001": 20.6107537433,
			"0.002": 17.4053176682,
			"0.003": 11.3383212749,
			"0.004": 11.2587279957,
			"0.005": 7.2459311195,
			"0.006": 6.09279303742,
			"0.007": 6.58211785566,
			"0.008": 4.76562799146,
			"0.009": 3.00501791155,
			"0.01": 3.18715218082,
			"0.011": 2.61012260144,
			"0.012": 3.25258717531,
			"0.013": 1.71369462007,
			"0.014": 1.68326575019,
			"0.015": 0.765543198842,
			"0.016": 0.60127752008,
			"0.017": 0.0401177792589,
			"0.018": 0.0,
			"0.019": 0.0,
			"0.02": 0.0,
			"0.021": 0.0,
			"0.022": 0.0,
			"0.023": 0.0,
			"0.024": 0.0,
			"0.025": 0.0
		}
	}
}
