{
	 "smiles": "OC(=O)CCNC(=O)N1CCC2=C(C1)C=CC=C2", 
	 "Tm": 418.15, 
	 "num_atms": 34, 
	 "gaussian": { 
		 "optdone": 1, 
		 "sigma_profile": "yes", 
		 "theory": "DFT", 
		 "functional": "B3LYP", 
		 "basiset": "6-31G**", 
		 "properties": { 
			 "R2extent": 7275.4042, 
			 "electric_dipole_moment_norm": 7.13233848398, 
			 "electric_quadrupole_moment_norm": 37.5206604759, 
			 "total_energy": -840.24325938, 
			 "HOMO_LUMO_gap": 0.23156, 
			 "cosmo_polarized_energy": -22.79, 
			 "cosmo_cavitation_energy": 36.4, 
			 "cosmo_dispersion_energy": -26.2, 
			 "cosmo_repulsion_energy": 2.01, 
			 "cosmo_total_nonelectrostatic_energy": 12.22, 
			 "SMD_solvation_energy": 7.03 
		},
		"coords": [
			{
				"x": -4.5288588792,
				"y": 1.6465283517,
				"z": -1.8217094383,
				"element": "O" 
			},
			{
				"x": -4.2970031185,
				"y": 2.5396643083,
				"z": -2.8116645293,
				"element": "C" 
			},
			{
				"x": -5.2082968279,
				"y": 3.0565285611,
				"z": -3.4120464434,
				"element": "O" 
			},
			{
				"x": -2.8254109865,
				"y": 2.8102742277,
				"z": -3.1213856519,
				"element": "C" 
			},
			{
				"x": -1.9042096486,
				"y": 2.9551751393,
				"z": -1.8999645725,
				"element": "C" 
			},
			{
				"x": -1.8237607333,
				"y": 1.7112269497,
				"z": -1.1013272421,
				"element": "N" 
			},
			{
				"x": -0.9107222119,
				"y": 0.7343765188,
				"z": -1.5693183732,
				"element": "C" 
			},
			{
				"x": -0.3748426598,
				"y": 0.8471505286,
				"z": -2.6665011689,
				"element": "O" 
			},
			{
				"x": -0.6871404779,
				"y": -0.329279779,
				"z": -0.7311464585,
				"element": "N" 
			},
			{
				"x": -1.4785493024,
				"y": -0.695190903,
				"z": 0.4413550272,
				"element": "C" 
			},
			{
				"x": -0.5573958571,
				"y": -0.8638833623,
				"z": 1.6520375596,
				"element": "C" 
			},
			{
				"x": 0.6133841343,
				"y": -1.7715318741,
				"z": 1.3274833793,
				"element": "C" 
			},
			{
				"x": 0.9980932461,
				"y": -1.9878547071,
				"z": -0.0055199786,
				"element": "C" 
			},
			{
				"x": 0.25500082,
				"y": -1.3562318891,
				"z": -1.1692779903,
				"element": "C" 
			},
			{
				"x": 2.0839525324,
				"y": -2.8300958867,
				"z": -0.2802568311,
				"element": "C" 
			},
			{
				"x": 2.7895659734,
				"y": -3.4488144524,
				"z": 0.7478085165,
				"element": "C" 
			},
			{
				"x": 2.4107702633,
				"y": -3.2315913337,
				"z": 2.0753395885,
				"element": "C" 
			},
			{
				"x": 1.3298006007,
				"y": -2.4003358654,
				"z": 2.3553492334,
				"element": "C" 
			},
			{
				"x": -3.6658291404,
				"y": 1.3656038053,
				"z": -1.4492417059,
				"element": "H" 
			},
			{
				"x": -2.7873678519,
				"y": 3.7226727138,
				"z": -3.7204442791,
				"element": "H" 
			},
			{
				"x": -2.4413548715,
				"y": 1.9951250928,
				"z": -3.7453831106,
				"element": "H" 
			},
			{
				"x": -2.2823327596,
				"y": 3.7348826574,
				"z": -1.2318999178,
				"element": "H" 
			},
			{
				"x": -0.9067797669,
				"y": 3.2451484172,
				"z": -2.2428122215,
				"element": "H" 
			},
			{
				"x": -1.7565355273,
				"y": 1.8885456499,
				"z": -0.1062647769,
				"element": "H" 
			},
			{
				"x": -2.2527710576,
				"y": 0.0490009684,
				"z": 0.6290608967,
				"element": "H" 
			},
			{
				"x": -1.998183898,
				"y": -1.6426478946,
				"z": 0.2347193992,
				"element": "H" 
			},
			{
				"x": -0.1892174978,
				"y": 0.1235978826,
				"z": 1.9638641527,
				"element": "H" 
			},
			{
				"x": -1.1271820715,
				"y": -1.2677945603,
				"z": 2.4971600217,
				"element": "H" 
			},
			{
				"x": -0.2793865755,
				"y": -2.1377988104,
				"z": -1.7340278603,
				"element": "H" 
			},
			{
				"x": 0.9493155206,
				"y": -0.8889789669,
				"z": -1.8698463299,
				"element": "H" 
			},
			{
				"x": 2.3780697702,
				"y": -2.996857973,
				"z": -1.3141000291,
				"element": "H" 
			},
			{
				"x": 3.6311481004,
				"y": -4.095115431,
				"z": 0.5165477377,
				"element": "H" 
			},
			{
				"x": 2.9525145553,
				"y": -3.7109976371,
				"z": 2.8853909321,
				"element": "H" 
			},
			{
				"x": 1.0287162045,
				"y": -2.2342004468,
				"z": 3.3872224644,
				"element": "H" 
			}
		],
		 "valence_orbital": [ 
			{
				"type": "occ",
				"energy": -0.27504,
				"method": "rhf"
			},
			{
				"type": "occ",
				"energy": -0.26138,
				"method": "rhf"
			},
			{
				"type": "occ",
				"energy": -0.25258,
				"method": "rhf"
			},
			{
				"type": "occ",
				"energy": -0.25075,
				"method": "rhf"
			},
			{
				"type": "occ",
				"energy": -0.24776,
				"method": "rhf"
			},
			{
				"type": "unocc",
				"energy": -0.0162,
				"method": "rhf"
			},
			{
				"type": "unocc",
				"energy": -0.01033,
				"method": "rhf"
			},
			{
				"type": "unocc",
				"energy": 0.0223,
				"method": "rhf"
			},
			{
				"type": "unocc",
				"energy": 0.02678,
				"method": "rhf"
			},
			{
				"type": "unocc",
				"energy": 0.04867,
				"method": "rhf"
			}
		],
		"cosmo_sigma_profile": { 
			"-0.025": 0.0,
			"-0.024": 0.0,
			"-0.023": 0.0,
			"-0.022": 0.0,
			"-0.021": 0.0,
			"-0.02": 0.0,
			"-0.019": 0.0,
			"-0.018": 0.0,
			"-0.017": 0.0,
			"-0.016": 0.0,
			"-0.015": 0.321307990252,
			"-0.014": 1.3187515813,
			"-0.013": 1.82120323811,
			"-0.012": 1.70664396817,
			"-0.011": 1.77539954255,
			"-0.01": 1.95214518637,
			"-0.009": 1.88007632773,
			"-0.008": 4.63658003418,
			"-0.007": 7.94264900157,
			"-0.006": 12.1887055985,
			"-0.005": 26.7253776956,
			"-0.004": 34.8555779974,
			"-0.003": 31.8776241524,
			"-0.002": 20.212743973,
			"-0.001": 15.6294833641,
			"0.0": 12.5391494949,
			"0.001": 11.0589790793,
			"0.002": 11.1528081366,
			"0.003": 9.99265909993,
			"0.004": 10.0868541709,
			"0.005": 11.0751051392,
			"0.006": 11.9655243044,
			"0.007": 5.75647680476,
			"0.008": 3.20288669635,
			"0.009": 4.06606605377,
			"0.01": 5.07411005446,
			"0.011": 6.07703391685,
			"0.012": 8.85657843653,
			"0.013": 7.89861469967,
			"0.014": 3.58287749315,
			"0.015": 0.0,
			"0.016": 0.0,
			"0.017": 0.0,
			"0.018": 0.0,
			"0.019": 0.0,
			"0.02": 0.0,
			"0.021": 0.0,
			"0.022": 0.0,
			"0.023": 0.0,
			"0.024": 0.0,
			"0.025": 0.0
		}
	}
}
