{
	 "smiles": "FC1=CC=C(C=C1)N1C(=O)NC2=C(C(=CS2)C2=CC=CC=C2)C1=O", 
	 "Tm": 574.15, 
	 "num_atms": 35, 
	 "gaussian": { 
		 "optdone": 1, 
		 "sigma_profile": "yes", 
		 "theory": "DFT", 
		 "functional": "B3LYP", 
		 "basiset": "6-31G**", 
		 "properties": { 
			 "R2extent": 9671.6632, 
			 "electric_dipole_moment_norm": 3.9729933262, 
			 "electric_quadrupole_moment_norm": 9.53753349247, 
			 "total_energy": -1450.54318609, 
			 "HOMO_LUMO_gap": 0.18088, 
			 "cosmo_polarized_energy": -20.08, 
			 "cosmo_cavitation_energy": 42.43, 
			 "cosmo_dispersion_energy": -30.25, 
			 "cosmo_repulsion_energy": 2.21, 
			 "cosmo_total_nonelectrostatic_energy": 14.38, 
			 "SMD_solvation_energy": 8.48 
		},
		"coords": [
			{
				"x": -3.5869519988,
				"y": 5.1044895187,
				"z": -2.1114042047,
				"element": "F" 
			},
			{
				"x": -3.1116382089,
				"y": 3.9941598773,
				"z": -1.5120600717,
				"element": "C" 
			},
			{
				"x": -2.3890479904,
				"y": 4.1243857632,
				"z": -0.3311449254,
				"element": "C" 
			},
			{
				"x": -1.9035431429,
				"y": 2.9733308134,
				"z": 0.2857376839,
				"element": "C" 
			},
			{
				"x": -2.1406254682,
				"y": 1.7226311628,
				"z": -0.284638142,
				"element": "C" 
			},
			{
				"x": -2.8637442336,
				"y": 1.6128892693,
				"z": -1.4723154772,
				"element": "C" 
			},
			{
				"x": -3.3602720086,
				"y": 2.756422108,
				"z": -2.0946884827,
				"element": "C" 
			},
			{
				"x": -1.6291156658,
				"y": 0.5337135343,
				"z": 0.3578109611,
				"element": "N" 
			},
			{
				"x": -2.5687928859,
				"y": -0.2708839271,
				"z": 1.0157822973,
				"element": "C" 
			},
			{
				"x": -3.759049895,
				"y": -0.0266740571,
				"z": 1.0790711901,
				"element": "O" 
			},
			{
				"x": -2.0321901167,
				"y": -1.4093881735,
				"z": 1.6109378812,
				"element": "N" 
			},
			{
				"x": -0.6992177132,
				"y": -1.7236804419,
				"z": 1.5574634559,
				"element": "C" 
			},
			{
				"x": 0.23470292,
				"y": -0.931556658,
				"z": 0.9224065407,
				"element": "C" 
			},
			{
				"x": 1.5687652127,
				"y": -1.507604935,
				"z": 0.9777166614,
				"element": "C" 
			},
			{
				"x": 1.563557046,
				"y": -2.6968945707,
				"z": 1.653289715,
				"element": "C" 
			},
			{
				"x": -0.0180846094,
				"y": -3.1656880215,
				"z": 2.2385166223,
				"element": "S" 
			},
			{
				"x": 2.8259057477,
				"y": -0.9557368766,
				"z": 0.4139868352,
				"element": "C" 
			},
			{
				"x": 3.2047399485,
				"y": 0.3817045003,
				"z": 0.6109173121,
				"element": "C" 
			},
			{
				"x": 4.42840742,
				"y": 0.8464067809,
				"z": 0.1341462197,
				"element": "C" 
			},
			{
				"x": 5.2938924918,
				"y": -0.0108757564,
				"z": -0.5493429233,
				"element": "C" 
			},
			{
				"x": 4.925587253,
				"y": -1.3405298843,
				"z": -0.7561072917,
				"element": "C" 
			},
			{
				"x": 3.7017191467,
				"y": -1.8084110355,
				"z": -0.2783056489,
				"element": "C" 
			},
			{
				"x": -0.2203764212,
				"y": 0.2860757875,
				"z": 0.2501613428,
				"element": "C" 
			},
			{
				"x": 0.4830507736,
				"y": 1.0678420828,
				"z": -0.364762386,
				"element": "O" 
			},
			{
				"x": -2.217410932,
				"y": 5.1095671328,
				"z": 0.0877298303,
				"element": "H" 
			},
			{
				"x": -1.3362649159,
				"y": 3.0452357856,
				"z": 1.2073388148,
				"element": "H" 
			},
			{
				"x": -3.0423224845,
				"y": 0.6344644185,
				"z": -1.9049908609,
				"element": "H" 
			},
			{
				"x": -3.9294097145,
				"y": 2.7007112707,
				"z": -3.0158013379,
				"element": "H" 
			},
			{
				"x": -2.7076085507,
				"y": -1.996870686,
				"z": 2.0791038372,
				"element": "H" 
			},
			{
				"x": 2.4121245074,
				"y": -3.3236036517,
				"z": 1.8856516128,
				"element": "H" 
			},
			{
				"x": 2.5371191503,
				"y": 1.0574480267,
				"z": 1.131069902,
				"element": "H" 
			},
			{
				"x": 4.7061914565,
				"y": 1.8838446199,
				"z": 0.2962413042,
				"element": "H" 
			},
			{
				"x": 6.2447751957,
				"y": 0.3575455784,
				"z": -0.9234518164,
				"element": "H" 
			},
			{
				"x": 5.5855708059,
				"y": -2.0134309125,
				"z": -1.2961573367,
				"element": "H" 
			},
			{
				"x": 3.4077578804,
				"y": -2.8382384434,
				"z": -0.4591091145,
				"element": "H" 
			}
		],
		 "valence_orbital": [ 
			{
				"type": "occ",
				"energy": -0.26216,
				"method": "rhf"
			},
			{
				"type": "occ",
				"energy": -0.24891,
				"method": "rhf"
			},
			{
				"type": "occ",
				"energy": -0.24642,
				"method": "rhf"
			},
			{
				"type": "occ",
				"energy": -0.24245,
				"method": "rhf"
			},
			{
				"type": "occ",
				"energy": -0.22264,
				"method": "rhf"
			},
			{
				"type": "unocc",
				"energy": -0.04176,
				"method": "rhf"
			},
			{
				"type": "unocc",
				"energy": -0.0308,
				"method": "rhf"
			},
			{
				"type": "unocc",
				"energy": -0.0133,
				"method": "rhf"
			},
			{
				"type": "unocc",
				"energy": -0.01127,
				"method": "rhf"
			},
			{
				"type": "unocc",
				"energy": -0.00475,
				"method": "rhf"
			}
		],
		"cosmo_sigma_profile": { 
			"-0.025": 0.0,
			"-0.024": 0.0,
			"-0.023": 0.0,
			"-0.022": 0.0,
			"-0.021": 0.0,
			"-0.02": 0.0,
			"-0.019": 0.0,
			"-0.018": 0.356284052845,
			"-0.017": 1.37290949385,
			"-0.016": 1.46847825286,
			"-0.015": 1.08155585971,
			"-0.014": 1.36185087215,
			"-0.013": 0.848952599807,
			"-0.012": 0.761638127801,
			"-0.011": 1.29040123863,
			"-0.01": 0.899771987069,
			"-0.009": 2.32363520007,
			"-0.008": 5.29056125693,
			"-0.007": 10.8461298094,
			"-0.006": 16.9855925674,
			"-0.005": 24.7103699508,
			"-0.004": 24.0194254635,
			"-0.003": 23.161835698,
			"-0.002": 21.7966009869,
			"-0.001": 20.3997727726,
			"0.0": 27.307519681,
			"0.001": 27.4305472631,
			"0.002": 25.768470968,
			"0.003": 24.5886278438,
			"0.004": 23.2886911667,
			"0.005": 13.3945448417,
			"0.006": 9.76974566127,
			"0.007": 3.36024758938,
			"0.008": 3.46393235346,
			"0.009": 4.08780877035,
			"0.01": 4.39081019413,
			"0.011": 5.17553807523,
			"0.012": 9.90268714293,
			"0.013": 3.56291438436,
			"0.014": 0.0,
			"0.015": 0.0,
			"0.016": 0.0,
			"0.017": 0.0,
			"0.018": 0.0,
			"0.019": 0.0,
			"0.02": 0.0,
			"0.021": 0.0,
			"0.022": 0.0,
			"0.023": 0.0,
			"0.024": 0.0,
			"0.025": 0.0
		}
	}
}
