{
	 "smiles": "FC1=C(C=C(Cl)C=C1)C#N", 
	 "Tm": 341.15, 
	 "num_atms": 13, 
	 "gaussian": { 
		 "optdone": 1, 
		 "sigma_profile": "yes", 
		 "theory": "DFT", 
		 "functional": "B3LYP", 
		 "basiset": "6-31G**", 
		 "properties": { 
			 "R2extent": 4314.7661, 
			 "electric_dipole_moment_norm": 4.09750356437, 
			 "electric_quadrupole_moment_norm": 4.73971549885, 
			 "total_energy": -883.30807594, 
			 "HOMO_LUMO_gap": 0.19528, 
			 "cosmo_polarized_energy": -8.35, 
			 "cosmo_cavitation_energy": 21.28, 
			 "cosmo_dispersion_energy": -15.14, 
			 "cosmo_repulsion_energy": 1.21, 
			 "cosmo_total_nonelectrostatic_energy": 7.36, 
			 "SMD_solvation_energy": 5.3 
		},
		"coords": [
			{
				"x": 0.5970851073,
				"y": 0.5393894045,
				"z": -0.3422472228,
				"element": "F" 
			},
			{
				"x": 0.4001676885,
				"y": 0.2781876066,
				"z": -1.6406727338,
				"element": "C" 
			},
			{
				"x": 0.0897519933,
				"y": -1.0325496358,
				"z": -2.029358796,
				"element": "C" 
			},
			{
				"x": -0.1167349606,
				"y": -1.3057053933,
				"z": -3.3925650126,
				"element": "C" 
			},
			{
				"x": -0.0090966375,
				"y": -0.2751808115,
				"z": -4.3205151939,
				"element": "C" 
			},
			{
				"x": -0.2667898104,
				"y": -0.6175648422,
				"z": -6.0191360141,
				"element": "Cl" 
			},
			{
				"x": 0.3009669169,
				"y": 1.0274611455,
				"z": -3.9199254088,
				"element": "C" 
			},
			{
				"x": 0.5067929833,
				"y": 1.3043938145,
				"z": -2.5695795979,
				"element": "C" 
			},
			{
				"x": -0.0137567374,
				"y": -2.0705702274,
				"z": -1.0501950737,
				"element": "C" 
			},
			{
				"x": -0.1011603357,
				"y": -2.9240754546,
				"z": -0.2657131142,
				"element": "N" 
			},
			{
				"x": -0.3573187469,
				"y": -2.3135507526,
				"z": -3.7086341614,
				"element": "H" 
			},
			{
				"x": 0.3802346546,
				"y": 1.8165959895,
				"z": -4.6589542017,
				"element": "H" 
			},
			{
				"x": 0.7485578846,
				"y": 2.3046691569,
				"z": -2.2286034692,
				"element": "H" 
			}
		],
		 "valence_orbital": [ 
			{
				"type": "occ",
				"energy": -0.3458,
				"method": "rhf"
			},
			{
				"type": "occ",
				"energy": -0.3426,
				"method": "rhf"
			},
			{
				"type": "occ",
				"energy": -0.33459,
				"method": "rhf"
			},
			{
				"type": "occ",
				"energy": -0.29173,
				"method": "rhf"
			},
			{
				"type": "occ",
				"energy": -0.26735,
				"method": "rhf"
			},
			{
				"type": "unocc",
				"energy": -0.07207,
				"method": "rhf"
			},
			{
				"type": "unocc",
				"energy": -0.0391,
				"method": "rhf"
			},
			{
				"type": "unocc",
				"energy": 0.00347,
				"method": "rhf"
			},
			{
				"type": "unocc",
				"energy": 0.02213,
				"method": "rhf"
			},
			{
				"type": "unocc",
				"energy": 0.05779,
				"method": "rhf"
			}
		],
		"cosmo_sigma_profile": { 
			"-0.025": 0.0,
			"-0.024": 0.0,
			"-0.023": 0.0,
			"-0.022": 0.0,
			"-0.021": 0.0,
			"-0.02": 0.0,
			"-0.019": 0.0,
			"-0.018": 0.0,
			"-0.017": 0.0,
			"-0.016": 0.0,
			"-0.015": 0.0,
			"-0.014": 0.0,
			"-0.013": 0.0,
			"-0.012": 0.0,
			"-0.011": 0.0,
			"-0.01": 1.11321863827,
			"-0.009": 5.61176864938,
			"-0.008": 6.11397308344,
			"-0.007": 5.59048468343,
			"-0.006": 4.61336782988,
			"-0.005": 5.55669424433,
			"-0.004": 7.49263973297,
			"-0.003": 12.7668036366,
			"-0.002": 16.516145079,
			"-0.001": 17.5023442155,
			"0.0": 19.0629538397,
			"0.001": 10.6914210438,
			"0.002": 13.1177131943,
			"0.003": 16.800093601,
			"0.004": 9.92134841513,
			"0.005": 3.2393258721,
			"0.006": 2.75971644636,
			"0.007": 3.12656637006,
			"0.008": 3.30686162637,
			"0.009": 3.1899265422,
			"0.01": 2.81555977867,
			"0.011": 2.46880397178,
			"0.012": 2.01206197885,
			"0.013": 0.336340653918,
			"0.014": 0.0,
			"0.015": 0.0,
			"0.016": 0.0,
			"0.017": 0.0,
			"0.018": 0.0,
			"0.019": 0.0,
			"0.02": 0.0,
			"0.021": 0.0,
			"0.022": 0.0,
			"0.023": 0.0,
			"0.024": 0.0,
			"0.025": 0.0
		}
	}
}
