{
	 "smiles": "O=C1CC2CCCC3=C2C1=CC=C3", 
	 "Tm": 369.15, 
	 "num_atms": 25, 
	 "gaussian": { 
		 "optdone": 1, 
		 "sigma_profile": "yes", 
		 "theory": "DFT", 
		 "functional": "B3LYP", 
		 "basiset": "6-31G**", 
		 "properties": { 
			 "R2extent": 2838.8204, 
			 "electric_dipole_moment_norm": 3.98707521123, 
			 "electric_quadrupole_moment_norm": 12.2075015314, 
			 "total_energy": -539.751554936, 
			 "HOMO_LUMO_gap": 0.18485, 
			 "cosmo_polarized_energy": -8.32, 
			 "cosmo_cavitation_energy": 26.56, 
			 "cosmo_dispersion_energy": -19.91, 
			 "cosmo_repulsion_energy": 1.56, 
			 "cosmo_total_nonelectrostatic_energy": 8.21, 
			 "SMD_solvation_energy": 4.07 
		},
		"coords": [
			{
				"x": -1.1832040972,
				"y": 2.6359898589,
				"z": -2.7145976979,
				"element": "O" 
			},
			{
				"x": -1.0350942178,
				"y": 1.7847971332,
				"z": -1.8587134669,
				"element": "C" 
			},
			{
				"x": -0.2493995413,
				"y": 1.9501897191,
				"z": -0.5367596245,
				"element": "C" 
			},
			{
				"x": -0.0334195067,
				"y": 0.511794154,
				"z": -0.0132608556,
				"element": "C" 
			},
			{
				"x": -0.0921260252,
				"y": 0.2016753897,
				"z": 1.4867826064,
				"element": "C" 
			},
			{
				"x": -0.0186568869,
				"y": -1.329485574,
				"z": 1.6704562848,
				"element": "C" 
			},
			{
				"x": -1.1885625705,
				"y": -2.0910329683,
				"z": 1.0034865987,
				"element": "C" 
			},
			{
				"x": -1.6159274699,
				"y": -1.50524553,
				"z": -0.3309616124,
				"element": "C" 
			},
			{
				"x": -1.1079683844,
				"y": -0.271370481,
				"z": -0.7322531318,
				"element": "C" 
			},
			{
				"x": -1.6107981649,
				"y": 0.4129385458,
				"z": -1.839524556,
				"element": "C" 
			},
			{
				"x": -2.5785095176,
				"y": -0.1661642627,
				"z": -2.6623145552,
				"element": "C" 
			},
			{
				"x": -3.0486734483,
				"y": -1.4344238176,
				"z": -2.3162150533,
				"element": "C" 
			},
			{
				"x": -2.5911681134,
				"y": -2.0817640583,
				"z": -1.1575670061,
				"element": "C" 
			},
			{
				"x": -0.8871430128,
				"y": 2.5234767223,
				"z": 0.1499310232,
				"element": "H" 
			},
			{
				"x": 0.6656273195,
				"y": 2.5274119222,
				"z": -0.6912875486,
				"element": "H" 
			},
			{
				"x": 0.9446910165,
				"y": 0.1633977171,
				"z": -0.3796060793,
				"element": "H" 
			},
			{
				"x": 0.7323109835,
				"y": 0.6836648409,
				"z": 2.0245143616,
				"element": "H" 
			},
			{
				"x": -1.0270048823,
				"y": 0.5922316047,
				"z": 1.9118811563,
				"element": "H" 
			},
			{
				"x": 0.0125274919,
				"y": -1.5841328254,
				"z": 2.7353473545,
				"element": "H" 
			},
			{
				"x": 0.9302623042,
				"y": -1.6792156703,
				"z": 1.2428410425,
				"element": "H" 
			},
			{
				"x": -2.0602883179,
				"y": -2.0703039134,
				"z": 1.6728625808,
				"element": "H" 
			},
			{
				"x": -0.9257653874,
				"y": -3.1506196929,
				"z": 0.8948327871,
				"element": "H" 
			},
			{
				"x": -2.963356368,
				"y": 0.3705516887,
				"z": -3.5241433692,
				"element": "H" 
			},
			{
				"x": -3.8030472275,
				"y": -1.9183604642,
				"z": -2.9300617813,
				"element": "H" 
			},
			{
				"x": -3.0172059755,
				"y": -3.0462000385,
				"z": -0.888569458,
				"element": "H" 
			}
		],
		 "valence_orbital": [ 
			{
				"type": "occ",
				"energy": -0.32898,
				"method": "rhf"
			},
			{
				"type": "occ",
				"energy": -0.31692,
				"method": "rhf"
			},
			{
				"type": "occ",
				"energy": -0.25144,
				"method": "rhf"
			},
			{
				"type": "occ",
				"energy": -0.24493,
				"method": "rhf"
			},
			{
				"type": "occ",
				"energy": -0.23515,
				"method": "rhf"
			},
			{
				"type": "unocc",
				"energy": -0.0503,
				"method": "rhf"
			},
			{
				"type": "unocc",
				"energy": -0.00618,
				"method": "rhf"
			},
			{
				"type": "unocc",
				"energy": 0.04293,
				"method": "rhf"
			},
			{
				"type": "unocc",
				"energy": 0.08727,
				"method": "rhf"
			},
			{
				"type": "unocc",
				"energy": 0.10578,
				"method": "rhf"
			}
		],
		"cosmo_sigma_profile": { 
			"-0.025": 0.0,
			"-0.024": 0.0,
			"-0.023": 0.0,
			"-0.022": 0.0,
			"-0.021": 0.0,
			"-0.02": 0.0,
			"-0.019": 0.0,
			"-0.018": 0.0,
			"-0.017": 0.0,
			"-0.016": 0.0,
			"-0.015": 0.0,
			"-0.014": 0.0,
			"-0.013": 0.0,
			"-0.012": 0.0,
			"-0.011": 0.0,
			"-0.01": 0.0,
			"-0.009": 0.0,
			"-0.008": 0.0,
			"-0.007": 0.068580998526,
			"-0.006": 5.17229406991,
			"-0.005": 10.5875435424,
			"-0.004": 20.2832174179,
			"-0.003": 30.0011753359,
			"-0.002": 29.4185683301,
			"-0.001": 26.8889902694,
			"0.0": 20.0675091319,
			"0.001": 10.7365690201,
			"0.002": 9.42942681975,
			"0.003": 9.52393885542,
			"0.004": 11.3033341411,
			"0.005": 5.71770558866,
			"0.006": 1.67956756073,
			"0.007": 2.01963556718,
			"0.008": 1.11682048357,
			"0.009": 1.34990945043,
			"0.01": 2.26926745965,
			"0.011": 2.56094021196,
			"0.012": 4.81458552293,
			"0.013": 3.55473331846,
			"0.014": 0.708712278984,
			"0.015": 0.0,
			"0.016": 0.0,
			"0.017": 0.0,
			"0.018": 0.0,
			"0.019": 0.0,
			"0.02": 0.0,
			"0.021": 0.0,
			"0.022": 0.0,
			"0.023": 0.0,
			"0.024": 0.0,
			"0.025": 0.0
		}
	}
}
