{
	 "smiles": "CCCCOCCOCCOC(C)=O", 
	 "Tm": 241.15, 
	 "num_atms": 34, 
	 "gaussian": { 
		 "optdone": 1, 
		 "sigma_profile": "yes", 
		 "theory": "DFT", 
		 "functional": "B3LYP", 
		 "basiset": "6-31G**", 
		 "properties": { 
			 "R2extent": 4365.7641, 
			 "electric_dipole_moment_norm": 0.675886935811, 
			 "electric_quadrupole_moment_norm": 14.816185042, 
			 "total_energy": -694.009081762, 
			 "HOMO_LUMO_gap": 0.24438, 
			 "cosmo_polarized_energy": -11.2, 
			 "cosmo_cavitation_energy": 36.84, 
			 "cosmo_dispersion_energy": -24.27, 
			 "cosmo_repulsion_energy": 1.99, 
			 "cosmo_total_nonelectrostatic_energy": 14.56, 
			 "SMD_solvation_energy": 7.27 
		},
		"coords": [
			{
				"x": 4.8988628578,
				"y": 2.7601938956,
				"z": 0.7429802459,
				"element": "C" 
			},
			{
				"x": 3.8918576038,
				"y": 1.6391341735,
				"z": 0.4698985449,
				"element": "C" 
			},
			{
				"x": 2.8973770677,
				"y": 1.9853270044,
				"z": -0.6455086157,
				"element": "C" 
			},
			{
				"x": 1.8988264159,
				"y": 0.8724257127,
				"z": -0.9401033752,
				"element": "C" 
			},
			{
				"x": 2.6207200872,
				"y": -0.2549389419,
				"z": -1.433693259,
				"element": "O" 
			},
			{
				"x": 1.8272950066,
				"y": -1.3693200467,
				"z": -1.790730535,
				"element": "C" 
			},
			{
				"x": 1.4725283772,
				"y": -2.2731573463,
				"z": -0.6083837531,
				"element": "C" 
			},
			{
				"x": 0.5420399531,
				"y": -1.709730653,
				"z": 0.3082372853,
				"element": "O" 
			},
			{
				"x": -0.813927598,
				"y": -1.8501313215,
				"z": -0.0726914469,
				"element": "C" 
			},
			{
				"x": -1.6830277506,
				"y": -1.1469185201,
				"z": 0.9534369179,
				"element": "C" 
			},
			{
				"x": -1.5126255053,
				"y": 0.2852416506,
				"z": 0.9230780888,
				"element": "O" 
			},
			{
				"x": -2.271098725,
				"y": 0.9618836403,
				"z": 0.0259250459,
				"element": "C" 
			},
			{
				"x": -1.9993311574,
				"y": 2.4447083286,
				"z": 0.1077384301,
				"element": "C" 
			},
			{
				"x": -3.052641963,
				"y": 0.4306805657,
				"z": -0.7334836923,
				"element": "O" 
			},
			{
				"x": 5.4922577728,
				"y": 2.9862700817,
				"z": -0.1505239449,
				"element": "H" 
			},
			{
				"x": 5.5952635114,
				"y": 2.4864063703,
				"z": 1.5424574629,
				"element": "H" 
			},
			{
				"x": 4.394267243,
				"y": 3.6855990715,
				"z": 1.0452223864,
				"element": "H" 
			},
			{
				"x": 3.3347343581,
				"y": 1.4113343911,
				"z": 1.3890290375,
				"element": "H" 
			},
			{
				"x": 4.4201198147,
				"y": 0.7196608945,
				"z": 0.1953385875,
				"element": "H" 
			},
			{
				"x": 2.3325022303,
				"y": 2.8881990683,
				"z": -0.3738871836,
				"element": "H" 
			},
			{
				"x": 3.4424726339,
				"y": 2.2211597377,
				"z": -1.5688858916,
				"element": "H" 
			},
			{
				"x": 1.3332154407,
				"y": 0.6050519364,
				"z": -0.0382031971,
				"element": "H" 
			},
			{
				"x": 1.1734992016,
				"y": 1.2050702898,
				"z": -1.703409741,
				"element": "H" 
			},
			{
				"x": 2.4259247201,
				"y": -1.959841559,
				"z": -2.4961158755,
				"element": "H" 
			},
			{
				"x": 0.9172087678,
				"y": -1.0480594352,
				"z": -2.3234025591,
				"element": "H" 
			},
			{
				"x": 2.3849473485,
				"y": -2.4617676651,
				"z": -0.0333612067,
				"element": "H" 
			},
			{
				"x": 1.1016962231,
				"y": -3.240753006,
				"z": -0.9874820754,
				"element": "H" 
			},
			{
				"x": -1.0983478891,
				"y": -2.9165548958,
				"z": -0.1004989488,
				"element": "H" 
			},
			{
				"x": -1.0130638637,
				"y": -1.4304205856,
				"z": -1.0682310683,
				"element": "H" 
			},
			{
				"x": -1.387931272,
				"y": -1.4464423575,
				"z": 1.9611302115,
				"element": "H" 
			},
			{
				"x": -2.7332109346,
				"y": -1.3910139182,
				"z": 0.7763089124,
				"element": "H" 
			},
			{
				"x": -2.683888796,
				"y": 2.9756542492,
				"z": -0.5529350754,
				"element": "H" 
			},
			{
				"x": -2.1151769227,
				"y": 2.7962783736,
				"z": 1.1365319674,
				"element": "H" 
			},
			{
				"x": -0.9663442581,
				"y": 2.6478708164,
				"z": -0.1914816795,
				"element": "H" 
			}
		],
		 "valence_orbital": [ 
			{
				"type": "occ",
				"energy": -0.30393,
				"method": "rhf"
			},
			{
				"type": "occ",
				"energy": -0.29813,
				"method": "rhf"
			},
			{
				"type": "occ",
				"energy": -0.27937,
				"method": "rhf"
			},
			{
				"type": "occ",
				"energy": -0.27265,
				"method": "rhf"
			},
			{
				"type": "occ",
				"energy": -0.23476,
				"method": "rhf"
			},
			{
				"type": "unocc",
				"energy": 0.00962,
				"method": "rhf"
			},
			{
				"type": "unocc",
				"energy": 0.07658,
				"method": "rhf"
			},
			{
				"type": "unocc",
				"energy": 0.08994,
				"method": "rhf"
			},
			{
				"type": "unocc",
				"energy": 0.09961,
				"method": "rhf"
			},
			{
				"type": "unocc",
				"energy": 0.10881,
				"method": "rhf"
			}
		],
		"cosmo_sigma_profile": { 
			"-0.025": 0.0,
			"-0.024": 0.0,
			"-0.023": 0.0,
			"-0.022": 0.0,
			"-0.021": 0.0,
			"-0.02": 0.0,
			"-0.019": 0.0,
			"-0.018": 0.0,
			"-0.017": 0.0,
			"-0.016": 0.0,
			"-0.015": 0.0,
			"-0.014": 0.0,
			"-0.013": 0.0,
			"-0.012": 0.0,
			"-0.011": 0.0,
			"-0.01": 0.0,
			"-0.009": 0.0,
			"-0.008": 0.0,
			"-0.007": 0.404477695844,
			"-0.006": 6.606597089,
			"-0.005": 22.174408261,
			"-0.004": 31.5481876783,
			"-0.003": 35.390016207,
			"-0.002": 36.1515055264,
			"-0.001": 31.2024868732,
			"0.0": 26.0707424204,
			"0.001": 23.4159246695,
			"0.002": 14.0377687646,
			"0.003": 6.21920846413,
			"0.004": 6.99376183055,
			"0.005": 6.69497100873,
			"0.006": 5.33306131667,
			"0.007": 6.37386224839,
			"0.008": 6.05032807646,
			"0.009": 4.07365510335,
			"0.01": 3.6243129185,
			"0.011": 4.77573432607,
			"0.012": 6.36347723385,
			"0.013": 2.19025293125,
			"0.014": 0.0874816188532,
			"0.015": 0.0,
			"0.016": 0.0,
			"0.017": 0.0,
			"0.018": 0.0,
			"0.019": 0.0,
			"0.02": 0.0,
			"0.021": 0.0,
			"0.022": 0.0,
			"0.023": 0.0,
			"0.024": 0.0,
			"0.025": 0.0
		}
	}
}
