{
	 "smiles": "ClC1=C(CC(=O)C2=CC=CC=C2)C=CC=C1", 
	 "Tm": 342.15, 
	 "num_atms": 27, 
	 "gaussian": { 
		 "optdone": 1, 
		 "sigma_profile": "yes", 
		 "theory": "DFT", 
		 "functional": "B3LYP", 
		 "basiset": "6-31G**", 
		 "properties": { 
			 "R2extent": 4114.0648, 
			 "electric_dipole_moment_norm": 4.18609154463, 
			 "electric_quadrupole_moment_norm": 8.67105713221, 
			 "total_energy": -1075.5361726, 
			 "HOMO_LUMO_gap": 0.18495, 
			 "cosmo_polarized_energy": -10.99, 
			 "cosmo_cavitation_energy": 32.59, 
			 "cosmo_dispersion_energy": -22.85, 
			 "cosmo_repulsion_energy": 1.78, 
			 "cosmo_total_nonelectrostatic_energy": 11.52, 
			 "SMD_solvation_energy": 5.55 
		},
		"coords": [
			{
				"x": 0.7172564434,
				"y": 1.1559441902,
				"z": -2.8565595581,
				"element": "Cl" 
			},
			{
				"x": -0.6382145547,
				"y": 0.3664510113,
				"z": -2.0603370974,
				"element": "C" 
			},
			{
				"x": -0.4221993704,
				"y": -0.7612355091,
				"z": -1.2522212414,
				"element": "C" 
			},
			{
				"x": 0.9470727706,
				"y": -1.3727206427,
				"z": -1.0340967655,
				"element": "C" 
			},
			{
				"x": 2.0687623115,
				"y": -0.5110676993,
				"z": -0.4175829066,
				"element": "C" 
			},
			{
				"x": 3.1603766051,
				"y": -0.4991040403,
				"z": -0.9628330088,
				"element": "O" 
			},
			{
				"x": 1.8550880217,
				"y": 0.2392326117,
				"z": 0.8620892461,
				"element": "C" 
			},
			{
				"x": 2.8645822327,
				"y": 1.1302593199,
				"z": 1.2644719246,
				"element": "C" 
			},
			{
				"x": 2.7484432799,
				"y": 1.8397948784,
				"z": 2.454997177,
				"element": "C" 
			},
			{
				"x": 1.6256938048,
				"y": 1.6595940976,
				"z": 3.269167418,
				"element": "C" 
			},
			{
				"x": 0.6219582792,
				"y": 0.7695542144,
				"z": 2.8843755046,
				"element": "C" 
			},
			{
				"x": 0.7322804934,
				"y": 0.0656105616,
				"z": 1.6848333895,
				"element": "C" 
			},
			{
				"x": -1.5600698834,
				"y": -1.360375231,
				"z": -0.6880161829,
				"element": "C" 
			},
			{
				"x": -2.8425068414,
				"y": -0.8563328189,
				"z": -0.8950736983,
				"element": "C" 
			},
			{
				"x": -3.0199706229,
				"y": 0.2766264604,
				"z": -1.6891658038,
				"element": "C" 
			},
			{
				"x": -1.9142377581,
				"y": 0.8882369116,
				"z": -2.2767964906,
				"element": "C" 
			},
			{
				"x": 1.3635115002,
				"y": -1.7192720276,
				"z": -1.9845987529,
				"element": "H" 
			},
			{
				"x": 0.8315165408,
				"y": -2.2567325226,
				"z": -0.3941113049,
				"element": "H" 
			},
			{
				"x": 3.7310980514,
				"y": 1.2441716308,
				"z": 0.6221522361,
				"element": "H" 
			},
			{
				"x": 3.5312999631,
				"y": 2.5312749469,
				"z": 2.7528775194,
				"element": "H" 
			},
			{
				"x": 1.5347070744,
				"y": 2.2112328151,
				"z": 4.200679556,
				"element": "H" 
			},
			{
				"x": -0.2491519157,
				"y": 0.6242869779,
				"z": 3.5165625157,
				"element": "H" 
			},
			{
				"x": -0.0589069816,
				"y": -0.6159296779,
				"z": 1.3969051518,
				"element": "H" 
			},
			{
				"x": -1.4272498643,
				"y": -2.2488289825,
				"z": -0.0753690867,
				"element": "H" 
			},
			{
				"x": -3.6971993729,
				"y": -1.3483838579,
				"z": -0.4410417555,
				"element": "H" 
			},
			{
				"x": -4.0124689784,
				"y": 0.6827475014,
				"z": -1.8588454478,
				"element": "H" 
			},
			{
				"x": -2.0306712285,
				"y": 1.7637648805,
				"z": -2.9059625373,
				"element": "H" 
			}
		],
		 "valence_orbital": [ 
			{
				"type": "occ",
				"energy": -0.26837,
				"method": "rhf"
			},
			{
				"type": "occ",
				"energy": -0.25865,
				"method": "rhf"
			},
			{
				"type": "occ",
				"energy": -0.25609,
				"method": "rhf"
			},
			{
				"type": "occ",
				"energy": -0.25121,
				"method": "rhf"
			},
			{
				"type": "occ",
				"energy": -0.24,
				"method": "rhf"
			},
			{
				"type": "unocc",
				"energy": -0.05505,
				"method": "rhf"
			},
			{
				"type": "unocc",
				"energy": -0.01918,
				"method": "rhf"
			},
			{
				"type": "unocc",
				"energy": -0.0181,
				"method": "rhf"
			},
			{
				"type": "unocc",
				"energy": -0.00579,
				"method": "rhf"
			},
			{
				"type": "unocc",
				"energy": 0.02665,
				"method": "rhf"
			}
		],
		"cosmo_sigma_profile": { 
			"-0.025": 0.0,
			"-0.024": 0.0,
			"-0.023": 0.0,
			"-0.022": 0.0,
			"-0.021": 0.0,
			"-0.02": 0.0,
			"-0.019": 0.0,
			"-0.018": 0.0,
			"-0.017": 0.0,
			"-0.016": 0.0,
			"-0.015": 0.0,
			"-0.014": 0.0,
			"-0.013": 0.0,
			"-0.012": 0.0,
			"-0.011": 0.0,
			"-0.01": 0.0,
			"-0.009": 0.316712997704,
			"-0.008": 2.67065801447,
			"-0.007": 9.35842816417,
			"-0.006": 18.04893467,
			"-0.005": 21.2661851706,
			"-0.004": 20.8251184962,
			"-0.003": 15.6585299318,
			"-0.002": 16.8878157032,
			"-0.001": 13.7041581986,
			"0.0": 16.1892190648,
			"0.001": 19.4740238264,
			"0.002": 25.3962470665,
			"0.003": 28.3299869003,
			"0.004": 28.3625825239,
			"0.005": 9.02667239676,
			"0.006": 2.57287625262,
			"0.007": 2.38007391819,
			"0.008": 1.38711679361,
			"0.009": 1.89591264023,
			"0.01": 2.18633033706,
			"0.011": 3.00112472449,
			"0.012": 3.59226649492,
			"0.013": 0.829048003411,
			"0.014": 0.00590112992155,
			"0.015": 0.0,
			"0.016": 0.0,
			"0.017": 0.0,
			"0.018": 0.0,
			"0.019": 0.0,
			"0.02": 0.0,
			"0.021": 0.0,
			"0.022": 0.0,
			"0.023": 0.0,
			"0.024": 0.0,
			"0.025": 0.0
		}
	}
}
