{
	 "smiles": "COC1=C(C=C(Br)C=C1)C(=O)CBr", 
	 "Tm": 366.15, 
	 "num_atms": 21, 
	 "gaussian": { 
		 "optdone": 1, 
		 "sigma_profile": "yes", 
		 "theory": "DFT", 
		 "functional": "B3LYP", 
		 "basiset": "6-31G**", 
		 "properties": { 
			 "R2extent": 5444.7559, 
			 "electric_dipole_moment_norm": 2.22715695226, 
			 "electric_quadrupole_moment_norm": 11.4094580634, 
			 "total_energy": -5641.00856446, 
			 "HOMO_LUMO_gap": 0.16898, 
			 "cosmo_polarized_energy": -10.24, 
			 "cosmo_cavitation_energy": 29.94, 
			 "cosmo_dispersion_energy": -21.95, 
			 "cosmo_repulsion_energy": 1.77, 
			 "cosmo_total_nonelectrostatic_energy": 9.75, 
			 "SMD_solvation_energy": 4.08 
		},
		"coords": [
			{
				"x": 2.1115849128,
				"y": 2.7907690884,
				"z": -0.1409372976,
				"element": "C" 
			},
			{
				"x": 1.7090435702,
				"y": 1.5751433886,
				"z": -0.7836810209,
				"element": "O" 
			},
			{
				"x": 0.9623907847,
				"y": 0.7166483632,
				"z": -0.0284638017,
				"element": "C" 
			},
			{
				"x": -0.4486116682,
				"y": 0.6793646186,
				"z": -0.1220106654,
				"element": "C" 
			},
			{
				"x": -1.146077932,
				"y": -0.3111279152,
				"z": 0.5906233422,
				"element": "C" 
			},
			{
				"x": -0.4666170902,
				"y": -1.2086759439,
				"z": 1.4042540335,
				"element": "C" 
			},
			{
				"x": -1.4479699455,
				"y": -2.5201953996,
				"z": 2.386073431,
				"element": "Br" 
			},
			{
				"x": 0.9239387498,
				"y": -1.1699236536,
				"z": 1.5041934018,
				"element": "C" 
			},
			{
				"x": 1.6271182411,
				"y": -0.2128208004,
				"z": 0.7785941895,
				"element": "C" 
			},
			{
				"x": -1.1968524508,
				"y": 1.6833629766,
				"z": -0.9385642827,
				"element": "C" 
			},
			{
				"x": -0.7719309828,
				"y": 2.8054723584,
				"z": -1.1533010741,
				"element": "O" 
			},
			{
				"x": -2.5736924804,
				"y": 1.32622878,
				"z": -1.497798577,
				"element": "C" 
			},
			{
				"x": -2.5025602135,
				"y": -0.2189039483,
				"z": -2.7254153538,
				"element": "Br" 
			},
			{
				"x": 2.6714244474,
				"y": 2.5827885576,
				"z": 0.779927666,
				"element": "H" 
			},
			{
				"x": 2.7614648336,
				"y": 3.3052988384,
				"z": -0.8505593423,
				"element": "H" 
			},
			{
				"x": 1.2406342296,
				"y": 3.41441373,
				"z": 0.0767013452,
				"element": "H" 
			},
			{
				"x": -2.2240817003,
				"y": -0.3816055107,
				"z": 0.5196851022,
				"element": "H" 
			},
			{
				"x": 1.4476317783,
				"y": -1.8838570595,
				"z": 2.1297821803,
				"element": "H" 
			},
			{
				"x": 2.7114494348,
				"y": -0.1821524379,
				"z": 0.8124015725,
				"element": "H" 
			},
			{
				"x": -2.9331938909,
				"y": 2.1738757767,
				"z": -2.0756883327,
				"element": "H" 
			},
			{
				"x": -3.2933926276,
				"y": 1.0644961927,
				"z": -0.7213165158,
				"element": "H" 
			}
		],
		 "valence_orbital": [ 
			{
				"type": "occ",
				"energy": -0.28887,
				"method": "rhf"
			},
			{
				"type": "occ",
				"energy": -0.2817,
				"method": "rhf"
			},
			{
				"type": "occ",
				"energy": -0.27589,
				"method": "rhf"
			},
			{
				"type": "occ",
				"energy": -0.26066,
				"method": "rhf"
			},
			{
				"type": "occ",
				"energy": -0.24603,
				"method": "rhf"
			},
			{
				"type": "unocc",
				"energy": -0.07705,
				"method": "rhf"
			},
			{
				"type": "unocc",
				"energy": -0.02566,
				"method": "rhf"
			},
			{
				"type": "unocc",
				"energy": -0.0185,
				"method": "rhf"
			},
			{
				"type": "unocc",
				"energy": -0.00359,
				"method": "rhf"
			},
			{
				"type": "unocc",
				"energy": 0.03092,
				"method": "rhf"
			}
		],
		"cosmo_sigma_profile": { 
			"-0.025": 0.0,
			"-0.024": 0.0,
			"-0.023": 0.0,
			"-0.022": 0.0,
			"-0.021": 0.0,
			"-0.02": 0.0,
			"-0.019": 0.0,
			"-0.018": 0.0,
			"-0.017": 0.0,
			"-0.016": 0.0,
			"-0.015": 0.0,
			"-0.014": 0.0,
			"-0.013": 0.0,
			"-0.012": 0.501052437165,
			"-0.011": 2.00643309917,
			"-0.01": 2.0153991132,
			"-0.009": 2.67650819634,
			"-0.008": 5.76702569614,
			"-0.007": 7.48999044935,
			"-0.006": 9.51639573761,
			"-0.005": 13.7136063975,
			"-0.004": 15.1029449762,
			"-0.003": 16.786725071,
			"-0.002": 18.5429753199,
			"-0.001": 15.9182212359,
			"0.0": 16.7619661852,
			"0.001": 24.8761322978,
			"0.002": 20.427872566,
			"0.003": 16.1770453245,
			"0.004": 21.7520802181,
			"0.005": 14.6775482867,
			"0.006": 3.50455837985,
			"0.007": 2.26700860706,
			"0.008": 3.77366398617,
			"0.009": 3.63835301975,
			"0.01": 4.49624819421,
			"0.011": 3.11126673262,
			"0.012": 0.390233161623,
			"0.013": 0.0,
			"0.014": 0.0,
			"0.015": 0.0,
			"0.016": 0.0,
			"0.017": 0.0,
			"0.018": 0.0,
			"0.019": 0.0,
			"0.02": 0.0,
			"0.021": 0.0,
			"0.022": 0.0,
			"0.023": 0.0,
			"0.024": 0.0,
			"0.025": 0.0
		}
	}
}
