{
	 "smiles": "CC(=O)N1CCC(CC1)C(Cl)=O", 
	 "Tm": 405.15, 
	 "num_atms": 24, 
	 "gaussian": { 
		 "optdone": 1, 
		 "sigma_profile": "yes", 
		 "theory": "DFT", 
		 "functional": "B3LYP", 
		 "basiset": "6-31G**", 
		 "properties": { 
			 "R2extent": 3157.2004, 
			 "electric_dipole_moment_norm": 3.33196702415, 
			 "electric_quadrupole_moment_norm": 15.7603205275, 
			 "total_energy": -977.503945706, 
			 "HOMO_LUMO_gap": 0.19155, 
			 "cosmo_polarized_energy": -13.01, 
			 "cosmo_cavitation_energy": 27.69, 
			 "cosmo_dispersion_energy": -20.07, 
			 "cosmo_repulsion_energy": 1.6, 
			 "cosmo_total_nonelectrostatic_energy": 9.22, 
			 "SMD_solvation_energy": 5.11 
		},
		"coords": [
			{
				"x": -0.8543300534,
				"y": 0.7986890728,
				"z": 3.373723234,
				"element": "C" 
			},
			{
				"x": -1.4535166553,
				"y": -0.1620664694,
				"z": 2.354049233,
				"element": "C" 
			},
			{
				"x": -2.4784839478,
				"y": -0.7867481931,
				"z": 2.6079539882,
				"element": "O" 
			},
			{
				"x": -0.8022338708,
				"y": -0.29849584,
				"z": 1.1466023448,
				"element": "N" 
			},
			{
				"x": -1.3562253766,
				"y": -1.1960262266,
				"z": 0.1344007472,
				"element": "C" 
			},
			{
				"x": -0.3301650837,
				"y": -2.2592582843,
				"z": -0.2723822835,
				"element": "C" 
			},
			{
				"x": 1.0124341023,
				"y": -1.6265944083,
				"z": -0.725624,
				"element": "C" 
			},
			{
				"x": 1.5063225361,
				"y": -0.6028779271,
				"z": 0.3179510622,
				"element": "C" 
			},
			{
				"x": 0.4151174088,
				"y": 0.396575012,
				"z": 0.7400898773,
				"element": "C" 
			},
			{
				"x": 0.891509454,
				"y": -0.9895022686,
				"z": -2.0995314675,
				"element": "C" 
			},
			{
				"x": 0.6918593898,
				"y": -2.2386722913,
				"z": -3.4338808259,
				"element": "Cl" 
			},
			{
				"x": 0.9212058556,
				"y": 0.1655718326,
				"z": -2.3820064682,
				"element": "O" 
			},
			{
				"x": -1.5001524321,
				"y": 0.7783623485,
				"z": 4.2508194224,
				"element": "H" 
			},
			{
				"x": 0.1571440615,
				"y": 0.5036336251,
				"z": 3.6721494725,
				"element": "H" 
			},
			{
				"x": -0.8063584422,
				"y": 1.8234085883,
				"z": 2.9909814019,
				"element": "H" 
			},
			{
				"x": -2.2471100909,
				"y": -1.6555106524,
				"z": 0.5621740735,
				"element": "H" 
			},
			{
				"x": -1.6632987311,
				"y": -0.6071224777,
				"z": -0.7429505041,
				"element": "H" 
			},
			{
				"x": -0.1176995116,
				"y": -2.8991739315,
				"z": 0.5910623758,
				"element": "H" 
			},
			{
				"x": -0.7362146223,
				"y": -2.8986948819,
				"z": -1.061245156,
				"element": "H" 
			},
			{
				"x": 1.7487796396,
				"y": -2.4302928395,
				"z": -0.8375179588,
				"element": "H" 
			},
			{
				"x": 1.8340755439,
				"y": -1.1653065391,
				"z": 1.1999882683,
				"element": "H" 
			},
			{
				"x": 2.3731693052,
				"y": -0.0552851146,
				"z": -0.0652819563,
				"element": "H" 
			},
			{
				"x": 0.1919712835,
				"y": 1.0678600982,
				"z": -0.0992197671,
				"element": "H" 
			},
			{
				"x": 0.7842002374,
				"y": 1.0122277679,
				"z": 1.5595948862,
				"element": "H" 
			}
		],
		 "valence_orbital": [ 
			{
				"type": "occ",
				"energy": -0.32621,
				"method": "rhf"
			},
			{
				"type": "occ",
				"energy": -0.32149,
				"method": "rhf"
			},
			{
				"type": "occ",
				"energy": -0.30098,
				"method": "rhf"
			},
			{
				"type": "occ",
				"energy": -0.24734,
				"method": "rhf"
			},
			{
				"type": "occ",
				"energy": -0.24071,
				"method": "rhf"
			},
			{
				"type": "unocc",
				"energy": -0.04916,
				"method": "rhf"
			},
			{
				"type": "unocc",
				"energy": 0.00873,
				"method": "rhf"
			},
			{
				"type": "unocc",
				"energy": 0.02553,
				"method": "rhf"
			},
			{
				"type": "unocc",
				"energy": 0.06829,
				"method": "rhf"
			},
			{
				"type": "unocc",
				"energy": 0.10007,
				"method": "rhf"
			}
		],
		"cosmo_sigma_profile": { 
			"-0.025": 0.0,
			"-0.024": 0.0,
			"-0.023": 0.0,
			"-0.022": 0.0,
			"-0.021": 0.0,
			"-0.02": 0.0,
			"-0.019": 0.0,
			"-0.018": 0.0,
			"-0.017": 0.0,
			"-0.016": 0.0,
			"-0.015": 0.0,
			"-0.014": 0.0,
			"-0.013": 0.0,
			"-0.012": 0.0,
			"-0.011": 0.0,
			"-0.01": 0.0,
			"-0.009": 0.0,
			"-0.008": 0.723939577652,
			"-0.007": 4.24595333371,
			"-0.006": 12.2319260442,
			"-0.005": 24.1230463315,
			"-0.004": 23.8270067357,
			"-0.003": 24.7088376833,
			"-0.002": 21.3715735305,
			"-0.001": 17.6769141369,
			"0.0": 11.9701691225,
			"0.001": 8.42551215456,
			"0.002": 8.20138113001,
			"0.003": 9.28341742877,
			"0.004": 11.5677572548,
			"0.005": 9.84125179503,
			"0.006": 5.00465158298,
			"0.007": 3.9358869403,
			"0.008": 5.43933357602,
			"0.009": 2.64441562593,
			"0.01": 0.908732028673,
			"0.011": 1.68940062833,
			"0.012": 1.62504285167,
			"0.013": 2.70454735299,
			"0.014": 5.03292153394,
			"0.015": 2.05361855517,
			"0.016": 0.134292575861,
			"0.017": 0.0,
			"0.018": 0.0,
			"0.019": 0.0,
			"0.02": 0.0,
			"0.021": 0.0,
			"0.022": 0.0,
			"0.023": 0.0,
			"0.024": 0.0,
			"0.025": 0.0
		}
	}
}
