{
	 "smiles": "FC1=C(Cl)C=C(C=C1)N1C=C(C=O)N=N1", 
	 "Tm": 422.15, 
	 "num_atms": 20, 
	 "gaussian": { 
		 "optdone": 1, 
		 "sigma_profile": "yes", 
		 "theory": "DFT", 
		 "functional": "B3LYP", 
		 "basiset": "6-31G**", 
		 "properties": { 
			 "R2extent": 5418.8214, 
			 "electric_dipole_moment_norm": 6.28714796788, 
			 "electric_quadrupole_moment_norm": 28.9218958796, 
			 "total_energy": -1145.40791601, 
			 "HOMO_LUMO_gap": 0.18721, 
			 "cosmo_polarized_energy": -19.11, 
			 "cosmo_cavitation_energy": 28.64, 
			 "cosmo_dispersion_energy": -20.9, 
			 "cosmo_repulsion_energy": 1.59, 
			 "cosmo_total_nonelectrostatic_energy": 9.32, 
			 "SMD_solvation_energy": 5.18 
		},
		"coords": [
			{
				"x": -2.4791589295,
				"y": 2.5463168355,
				"z": -2.8107171627,
				"element": "F" 
			},
			{
				"x": -1.5965845645,
				"y": 2.1545136953,
				"z": -1.8842698603,
				"element": "C" 
			},
			{
				"x": -2.024994833,
				"y": 1.4056961092,
				"z": -0.784503989,
				"element": "C" 
			},
			{
				"x": -3.7079816042,
				"y": 0.9889247209,
				"z": -0.6303722092,
				"element": "Cl" 
			},
			{
				"x": -1.1073006431,
				"y": 0.9983247674,
				"z": 0.1787133116,
				"element": "C" 
			},
			{
				"x": 0.2403264255,
				"y": 1.3457715035,
				"z": 0.032776087,
				"element": "C" 
			},
			{
				"x": 0.6675977324,
				"y": 2.0947130902,
				"z": -1.0674829262,
				"element": "C" 
			},
			{
				"x": -0.2582646771,
				"y": 2.4979803084,
				"z": -2.0265533915,
				"element": "C" 
			},
			{
				"x": 1.1665444184,
				"y": 0.9211389924,
				"z": 1.0272346472,
				"element": "N" 
			},
			{
				"x": 2.5027560531,
				"y": 1.1208222361,
				"z": 1.1202611806,
				"element": "C" 
			},
			{
				"x": 2.8748631001,
				"y": 0.4840113356,
				"z": 2.2899234904,
				"element": "C" 
			},
			{
				"x": 4.2249594064,
				"y": 0.3941051099,
				"z": 2.8658119881,
				"element": "C" 
			},
			{
				"x": 4.5042719178,
				"y": -0.177258234,
				"z": 3.8983104114,
				"element": "O" 
			},
			{
				"x": 1.7514973886,
				"y": -0.0714901783,
				"z": 2.8518103863,
				"element": "N" 
			},
			{
				"x": 0.7319559807,
				"y": 0.1846497865,
				"z": 2.1062542605,
				"element": "N" 
			},
			{
				"x": -1.4280471836,
				"y": 0.4184512984,
				"z": 1.0338344933,
				"element": "H" 
			},
			{
				"x": 1.7082812941,
				"y": 2.3696135537,
				"z": -1.1909065938,
				"element": "H" 
			},
			{
				"x": 0.0440205214,
				"y": 3.0795103684,
				"z": -2.8901915173,
				"element": "H" 
			},
			{
				"x": 3.0787737111,
				"y": 1.6707004043,
				"z": 0.3942265798,
				"element": "H" 
			},
			{
				"x": 5.0027844853,
				"y": 0.9103042967,
				"z": 2.2593408138,
				"element": "H" 
			}
		],
		 "valence_orbital": [ 
			{
				"type": "occ",
				"energy": -0.29769,
				"method": "rhf"
			},
			{
				"type": "occ",
				"energy": -0.29217,
				"method": "rhf"
			},
			{
				"type": "occ",
				"energy": -0.28099,
				"method": "rhf"
			},
			{
				"type": "occ",
				"energy": -0.26388,
				"method": "rhf"
			},
			{
				"type": "occ",
				"energy": -0.26004,
				"method": "rhf"
			},
			{
				"type": "unocc",
				"energy": -0.07283,
				"method": "rhf"
			},
			{
				"type": "unocc",
				"energy": -0.05572,
				"method": "rhf"
			},
			{
				"type": "unocc",
				"energy": -0.04569,
				"method": "rhf"
			},
			{
				"type": "unocc",
				"energy": 0.00331,
				"method": "rhf"
			},
			{
				"type": "unocc",
				"energy": 0.00501,
				"method": "rhf"
			}
		],
		"cosmo_sigma_profile": { 
			"-0.025": 0.0,
			"-0.024": 0.0,
			"-0.023": 0.0,
			"-0.022": 0.0,
			"-0.021": 0.0,
			"-0.02": 0.0,
			"-0.019": 0.0,
			"-0.018": 0.0,
			"-0.017": 0.0,
			"-0.016": 0.0,
			"-0.015": 0.0172366955608,
			"-0.014": 0.960023158242,
			"-0.013": 2.06621020279,
			"-0.012": 2.38649869868,
			"-0.011": 2.83599722451,
			"-0.01": 2.87751206166,
			"-0.009": 4.30925094466,
			"-0.008": 7.04707984134,
			"-0.007": 9.15496709061,
			"-0.006": 8.00552729013,
			"-0.005": 8.28267082942,
			"-0.004": 11.1570810241,
			"-0.003": 13.145199184,
			"-0.002": 19.7263448692,
			"-0.001": 22.2058740028,
			"0.0": 21.3375107904,
			"0.001": 14.1784464572,
			"0.002": 11.8028019303,
			"0.003": 19.9033019801,
			"0.004": 12.8283864113,
			"0.005": 3.30566323179,
			"0.006": 3.93978826695,
			"0.007": 3.72111994027,
			"0.008": 4.68003778932,
			"0.009": 6.15463909889,
			"0.01": 4.79871280716,
			"0.011": 6.19733325367,
			"0.012": 4.91879435716,
			"0.013": 1.75997867365,
			"0.014": 1.04299077912,
			"0.015": 0.0328798090519,
			"0.016": 0.0,
			"0.017": 0.0,
			"0.018": 0.0,
			"0.019": 0.0,
			"0.02": 0.0,
			"0.021": 0.0,
			"0.022": 0.0,
			"0.023": 0.0,
			"0.024": 0.0,
			"0.025": 0.0
		}
	}
}
