{
	 "smiles": "COC(=O)C1=CN(CCCC#N)N=N1", 
	 "Tm": 349.15, 
	 "num_atms": 24, 
	 "gaussian": { 
		 "optdone": 1, 
		 "sigma_profile": "yes", 
		 "theory": "DFT", 
		 "functional": "B3LYP", 
		 "basiset": "6-31G**", 
		 "properties": { 
			 "R2extent": 4390.0557, 
			 "electric_dipole_moment_norm": 7.48698632629, 
			 "electric_quadrupole_moment_norm": 13.8678198856, 
			 "total_energy": -680.280722135, 
			 "HOMO_LUMO_gap": 0.24199, 
			 "cosmo_polarized_energy": -24.74, 
			 "cosmo_cavitation_energy": 30.25, 
			 "cosmo_dispersion_energy": -21.01, 
			 "cosmo_repulsion_energy": 1.68, 
			 "cosmo_total_nonelectrostatic_energy": 10.92, 
			 "SMD_solvation_energy": 6.85 
		},
		"coords": [
			{
				"x": -1.5243837581,
				"y": -5.1641141341,
				"z": -1.8723723161,
				"element": "C" 
			},
			{
				"x": -1.2581752352,
				"y": -3.9079265889,
				"z": -1.2277950736,
				"element": "O" 
			},
			{
				"x": 0.0308234016,
				"y": -3.4869433635,
				"z": -1.30739832,
				"element": "C" 
			},
			{
				"x": 0.9094631185,
				"y": -4.0969202149,
				"z": -1.8722070905,
				"element": "O" 
			},
			{
				"x": 0.1869005878,
				"y": -2.1935033193,
				"z": -0.612755623,
				"element": "C" 
			},
			{
				"x": -0.7667498739,
				"y": -1.4379580345,
				"z": 0.0453811547,
				"element": "C" 
			},
			{
				"x": -0.0877294262,
				"y": -0.3629214129,
				"z": 0.4995063428,
				"element": "N" 
			},
			{
				"x": -0.5813833526,
				"y": 0.798770211,
				"z": 1.2374211848,
				"element": "C" 
			},
			{
				"x": -0.6747966204,
				"y": 2.0647005887,
				"z": 0.3722399698,
				"element": "C" 
			},
			{
				"x": 0.6928325908,
				"y": 2.701751651,
				"z": 0.0398154254,
				"element": "C" 
			},
			{
				"x": 1.3557639717,
				"y": 3.2252757004,
				"z": 1.2378889209,
				"element": "C" 
			},
			{
				"x": 1.8476031165,
				"y": 3.6279168123,
				"z": 2.2092392646,
				"element": "N" 
			},
			{
				"x": 1.2257182636,
				"y": -0.4448912319,
				"z": 0.1398095705,
				"element": "N" 
			},
			{
				"x": 1.3868198831,
				"y": -1.5447234474,
				"z": -0.529410634,
				"element": "N" 
			},
			{
				"x": -0.921710172,
				"y": -5.9600587645,
				"z": -1.4278957794,
				"element": "H" 
			},
			{
				"x": -2.5861160245,
				"y": -5.355598068,
				"z": -1.7172691358,
				"element": "H" 
			},
			{
				"x": -1.2965427036,
				"y": -5.1053060641,
				"z": -2.9396329433,
				"element": "H" 
			},
			{
				"x": -1.8200617532,
				"y": -1.5931805555,
				"z": 0.2148719096,
				"element": "H" 
			},
			{
				"x": -1.5673932304,
				"y": 0.5320765675,
				"z": 1.6246308547,
				"element": "H" 
			},
			{
				"x": 0.0834772111,
				"y": 0.9612144814,
				"z": 2.0906863621,
				"element": "H" 
			},
			{
				"x": -1.2934159799,
				"y": 2.7942167939,
				"z": 0.9055531146,
				"element": "H" 
			},
			{
				"x": -1.1893647912,
				"y": 1.8264951333,
				"z": -0.5646650487,
				"element": "H" 
			},
			{
				"x": 0.5568860016,
				"y": 3.5245648235,
				"z": -0.670359692,
				"element": "H" 
			},
			{
				"x": 1.3524347747,
				"y": 1.9616624365,
				"z": -0.4253824181,
				"element": "H" 
			}
		],
		 "valence_orbital": [ 
			{
				"type": "occ",
				"energy": -0.31202,
				"method": "rhf"
			},
			{
				"type": "occ",
				"energy": -0.30537,
				"method": "rhf"
			},
			{
				"type": "occ",
				"energy": -0.28284,
				"method": "rhf"
			},
			{
				"type": "occ",
				"energy": -0.27993,
				"method": "rhf"
			},
			{
				"type": "occ",
				"energy": -0.27792,
				"method": "rhf"
			},
			{
				"type": "unocc",
				"energy": -0.03593,
				"method": "rhf"
			},
			{
				"type": "unocc",
				"energy": -0.0213,
				"method": "rhf"
			},
			{
				"type": "unocc",
				"energy": 0.0245,
				"method": "rhf"
			},
			{
				"type": "unocc",
				"energy": 0.03593,
				"method": "rhf"
			},
			{
				"type": "unocc",
				"energy": 0.06504,
				"method": "rhf"
			}
		],
		"cosmo_sigma_profile": { 
			"-0.025": 0.0,
			"-0.024": 0.0,
			"-0.023": 0.0,
			"-0.022": 0.0,
			"-0.021": 0.0,
			"-0.02": 0.0,
			"-0.019": 0.0,
			"-0.018": 0.0,
			"-0.017": 0.0,
			"-0.016": 0.0,
			"-0.015": 0.0,
			"-0.014": 0.0,
			"-0.013": 0.0,
			"-0.012": 0.880433146621,
			"-0.011": 2.64439965399,
			"-0.01": 2.44928673151,
			"-0.009": 3.51488947508,
			"-0.008": 6.88962133866,
			"-0.007": 10.876084751,
			"-0.006": 25.7737131512,
			"-0.005": 24.4457428913,
			"-0.004": 18.8646258765,
			"-0.003": 19.1958910274,
			"-0.002": 12.6301804814,
			"-0.001": 12.4744433936,
			"0.0": 8.48707476335,
			"0.001": 8.23541949016,
			"0.002": 7.11308774388,
			"0.003": 5.33762411965,
			"0.004": 7.62514848307,
			"0.005": 4.88024432139,
			"0.006": 6.87822295363,
			"0.007": 4.99697633178,
			"0.008": 6.82371237446,
			"0.009": 8.3704606943,
			"0.01": 7.94178422827,
			"0.011": 8.94196433901,
			"0.012": 7.45026395385,
			"0.013": 5.25911220245,
			"0.014": 1.79634444671,
			"0.015": 0.918930556764,
			"0.016": 0.0,
			"0.017": 0.0,
			"0.018": 0.0,
			"0.019": 0.0,
			"0.02": 0.0,
			"0.021": 0.0,
			"0.022": 0.0,
			"0.023": 0.0,
			"0.024": 0.0,
			"0.025": 0.0
		}
	}
}
