{
	 "smiles": "COC(=O)C1(CC2=CC(OC)=CC=C2C(=O)O1)C(=O)OC", 
	 "Tm": 407.15, 
	 "num_atms": 35, 
	 "gaussian": { 
		 "optdone": 1, 
		 "sigma_profile": "yes", 
		 "theory": "DFT", 
		 "functional": "B3LYP", 
		 "basiset": "6-31G**", 
		 "properties": { 
			 "R2extent": 6751.7968, 
			 "electric_dipole_moment_norm": 4.96965243151, 
			 "electric_quadrupole_moment_norm": 29.007715127, 
			 "total_energy": -1068.49963557, 
			 "HOMO_LUMO_gap": 0.19393, 
			 "cosmo_polarized_energy": -20.34, 
			 "cosmo_cavitation_energy": 39.93, 
			 "cosmo_dispersion_energy": -27.33, 
			 "cosmo_repulsion_energy": 2.13, 
			 "cosmo_total_nonelectrostatic_energy": 14.72, 
			 "SMD_solvation_energy": 11.22 
		},
		"coords": [
			{
				"x": -0.6906170649,
				"y": 3.8951862964,
				"z": -0.207110063,
				"element": "C" 
			},
			{
				"x": -1.1370915913,
				"y": 2.5300550681,
				"z": -0.3185285696,
				"element": "O" 
			},
			{
				"x": -0.4427011646,
				"y": 1.6346118469,
				"z": 0.4105879582,
				"element": "C" 
			},
			{
				"x": 0.5055977821,
				"y": 1.8970934006,
				"z": 1.1070785559,
				"element": "O" 
			},
			{
				"x": -1.0208457532,
				"y": 0.2188201739,
				"z": 0.192048822,
				"element": "C" 
			},
			{
				"x": -0.7645912658,
				"y": -0.2673453712,
				"z": -1.2390356276,
				"element": "C" 
			},
			{
				"x": 0.7075523619,
				"y": -0.5264478922,
				"z": -1.4357213994,
				"element": "C" 
			},
			{
				"x": 1.3235348513,
				"y": -0.3948339502,
				"z": -2.6733415803,
				"element": "C" 
			},
			{
				"x": 2.6911445117,
				"y": -0.6786634996,
				"z": -2.8207762164,
				"element": "C" 
			},
			{
				"x": 3.1889005459,
				"y": -0.5127610981,
				"z": -4.0737937918,
				"element": "O" 
			},
			{
				"x": 4.5667520282,
				"y": -0.7814463153,
				"z": -4.3000664579,
				"element": "C" 
			},
			{
				"x": 3.4459712961,
				"y": -1.0990186966,
				"z": -1.7141876809,
				"element": "C" 
			},
			{
				"x": 2.8235520585,
				"y": -1.2285085297,
				"z": -0.4767995525,
				"element": "C" 
			},
			{
				"x": 1.4640535706,
				"y": -0.9424847144,
				"z": -0.323206426,
				"element": "C" 
			},
			{
				"x": 0.8399953856,
				"y": -1.1202734456,
				"z": 1.0077144857,
				"element": "C" 
			},
			{
				"x": 1.3608869534,
				"y": -1.675840832,
				"z": 1.9450095948,
				"element": "O" 
			},
			{
				"x": -0.4538283179,
				"y": -0.6646786865,
				"z": 1.1610986225,
				"element": "O" 
			},
			{
				"x": -2.5338838662,
				"y": 0.2167854347,
				"z": 0.5002961458,
				"element": "C" 
			},
			{
				"x": -3.3783648308,
				"y": -0.2507048781,
				"z": -0.2284787076,
				"element": "O" 
			},
			{
				"x": -2.7724779771,
				"y": 0.7819324201,
				"z": 1.689859821,
				"element": "O" 
			},
			{
				"x": -4.1484636561,
				"y": 0.7808057883,
				"z": 2.1144076335,
				"element": "C" 
			},
			{
				"x": -1.3548418565,
				"y": 4.4741910932,
				"z": -0.8477259172,
				"element": "H" 
			},
			{
				"x": -0.7607367673,
				"y": 4.2334324244,
				"z": 0.8291852386,
				"element": "H" 
			},
			{
				"x": 0.3451690912,
				"y": 3.984991284,
				"z": -0.542417569,
				"element": "H" 
			},
			{
				"x": -1.3493032086,
				"y": -1.1824421589,
				"z": -1.3862001983,
				"element": "H" 
			},
			{
				"x": -1.1451238953,
				"y": 0.4695439767,
				"z": -1.9499124281,
				"element": "H" 
			},
			{
				"x": 0.7660891543,
				"y": -0.0733429136,
				"z": -3.5476355839,
				"element": "H" 
			},
			{
				"x": 4.8142372278,
				"y": -1.8274946146,
				"z": -4.0817808649,
				"element": "H" 
			},
			{
				"x": 4.7395113481,
				"y": -0.5841894661,
				"z": -5.3587625377,
				"element": "H" 
			},
			{
				"x": 5.2090035551,
				"y": -0.1252575049,
				"z": -3.6999446934,
				"element": "H" 
			},
			{
				"x": 4.5014970334,
				"y": -1.322078608,
				"z": -1.8094186472,
				"element": "H" 
			},
			{
				"x": 3.3833160501,
				"y": -1.5551385496,
				"z": 0.3931394435,
				"element": "H" 
			},
			{
				"x": -4.7669187865,
				"y": 1.3330706965,
				"z": 1.4028529507,
				"element": "H" 
			},
			{
				"x": -4.1527653976,
				"y": 1.266024098,
				"z": 3.0894881388,
				"element": "H" 
			},
			{
				"x": -4.5195094056,
				"y": -0.2435922766,
				"z": 2.1920771016,
				"element": "H" 
			}
		],
		 "valence_orbital": [ 
			{
				"type": "occ",
				"energy": -0.30021,
				"method": "rhf"
			},
			{
				"type": "occ",
				"energy": -0.27783,
				"method": "rhf"
			},
			{
				"type": "occ",
				"energy": -0.26192,
				"method": "rhf"
			},
			{
				"type": "occ",
				"energy": -0.25869,
				"method": "rhf"
			},
			{
				"type": "occ",
				"energy": -0.23285,
				"method": "rhf"
			},
			{
				"type": "unocc",
				"energy": -0.03892,
				"method": "rhf"
			},
			{
				"type": "unocc",
				"energy": -0.01963,
				"method": "rhf"
			},
			{
				"type": "unocc",
				"energy": -0.00823,
				"method": "rhf"
			},
			{
				"type": "unocc",
				"energy": 0.00048,
				"method": "rhf"
			},
			{
				"type": "unocc",
				"energy": 0.06327,
				"method": "rhf"
			}
		],
		"cosmo_sigma_profile": { 
			"-0.025": 0.0,
			"-0.024": 0.0,
			"-0.023": 0.0,
			"-0.022": 0.0,
			"-0.021": 0.0,
			"-0.02": 0.0,
			"-0.019": 0.0,
			"-0.018": 0.0,
			"-0.017": 0.0,
			"-0.016": 0.0,
			"-0.015": 0.0,
			"-0.014": 0.0,
			"-0.013": 0.0,
			"-0.012": 0.0,
			"-0.011": 0.0,
			"-0.01": 0.0,
			"-0.009": 0.0,
			"-0.008": 0.83000398277,
			"-0.007": 15.7058874328,
			"-0.006": 31.4449503731,
			"-0.005": 29.9665117187,
			"-0.004": 36.2527239352,
			"-0.003": 23.7913070964,
			"-0.002": 17.0806729569,
			"-0.001": 14.2328703988,
			"0.0": 14.1610656644,
			"0.001": 16.3109934127,
			"0.002": 22.9040937061,
			"0.003": 17.212127732,
			"0.004": 9.81620024184,
			"0.005": 8.50838572012,
			"0.006": 7.26006593519,
			"0.007": 8.87934105932,
			"0.008": 9.34975010129,
			"0.009": 8.7712416033,
			"0.01": 12.1195879388,
			"0.011": 7.71114131661,
			"0.012": 3.77998698694,
			"0.013": 1.04180802082,
			"0.014": 0.0,
			"0.015": 0.0,
			"0.016": 0.0,
			"0.017": 0.0,
			"0.018": 0.0,
			"0.019": 0.0,
			"0.02": 0.0,
			"0.021": 0.0,
			"0.022": 0.0,
			"0.023": 0.0,
			"0.024": 0.0,
			"0.025": 0.0
		}
	}
}
