{
	 "smiles": "CCOC(=O)C(=O)C1=NC=CN1CC1=CC=CC=C1", 
	 "Tm": 331.15, 
	 "num_atms": 33, 
	 "gaussian": { 
		 "optdone": 1, 
		 "sigma_profile": "yes", 
		 "theory": "DFT", 
		 "functional": "B3LYP", 
		 "basiset": "6-31G**", 
		 "properties": { 
			 "R2extent": 6334.9402, 
			 "electric_dipole_moment_norm": 3.96780400852, 
			 "electric_quadrupole_moment_norm": 20.8363854236, 
			 "total_energy": -877.097716802, 
			 "HOMO_LUMO_gap": 0.17885, 
			 "cosmo_polarized_energy": -15.9, 
			 "cosmo_cavitation_energy": 38.51, 
			 "cosmo_dispersion_energy": -26.47, 
			 "cosmo_repulsion_energy": 2.08, 
			 "cosmo_total_nonelectrostatic_energy": 14.12, 
			 "SMD_solvation_energy": 7.0 
		},
		"coords": [
			{
				"x": -3.8776604183,
				"y": 2.7016797702,
				"z": 1.313603822,
				"element": "C" 
			},
			{
				"x": -3.5431135575,
				"y": 2.2715590871,
				"z": -0.1009590547,
				"element": "C" 
			},
			{
				"x": -2.3669859121,
				"y": 1.4227082084,
				"z": -0.0296929507,
				"element": "O" 
			},
			{
				"x": -1.9104528066,
				"y": 0.9621433962,
				"z": -1.1989833295,
				"element": "C" 
			},
			{
				"x": -2.4004291276,
				"y": 1.1643672593,
				"z": -2.2857287052,
				"element": "O" 
			},
			{
				"x": -0.703444787,
				"y": 0.032741771,
				"z": -0.9980402363,
				"element": "C" 
			},
			{
				"x": -0.8909026519,
				"y": -1.1665072895,
				"z": -0.8248305056,
				"element": "O" 
			},
			{
				"x": 0.5970450242,
				"y": 0.6851387552,
				"z": -1.0903506627,
				"element": "C" 
			},
			{
				"x": 0.7243560314,
				"y": 2.0095749079,
				"z": -1.1750725298,
				"element": "N" 
			},
			{
				"x": 2.058918539,
				"y": 2.2462181749,
				"z": -1.2234091405,
				"element": "C" 
			},
			{
				"x": 2.758935796,
				"y": 1.0519557028,
				"z": -1.1723921754,
				"element": "C" 
			},
			{
				"x": 1.8264758117,
				"y": 0.0589926136,
				"z": -1.0901961347,
				"element": "N" 
			},
			{
				"x": 2.124509466,
				"y": -1.3867843412,
				"z": -1.0152675782,
				"element": "C" 
			},
			{
				"x": 2.569201065,
				"y": -1.8279339955,
				"z": 0.3650140059,
				"element": "C" 
			},
			{
				"x": 3.9274709353,
				"y": -2.0043787002,
				"z": 0.6521558889,
				"element": "C" 
			},
			{
				"x": 4.3387302831,
				"y": -2.3977791395,
				"z": 1.9271297074,
				"element": "C" 
			},
			{
				"x": 3.3909110187,
				"y": -2.6187867184,
				"z": 2.926995932,
				"element": "C" 
			},
			{
				"x": 2.0325678497,
				"y": -2.450821214,
				"z": 2.6458848186,
				"element": "C" 
			},
			{
				"x": 1.6219309893,
				"y": -2.0596469221,
				"z": 1.3719451201,
				"element": "C" 
			},
			{
				"x": -3.0485286963,
				"y": 3.2593969234,
				"z": 1.7578747873,
				"element": "H" 
			},
			{
				"x": -4.0901642855,
				"y": 1.8352120323,
				"z": 1.9462656259,
				"element": "H" 
			},
			{
				"x": -4.7618539243,
				"y": 3.3467167899,
				"z": 1.3041672293,
				"element": "H" 
			},
			{
				"x": -3.3163409393,
				"y": 3.1220772484,
				"z": -0.7505693667,
				"element": "H" 
			},
			{
				"x": -4.35497208,
				"y": 1.7030543382,
				"z": -0.5647826988,
				"element": "H" 
			},
			{
				"x": 2.4613814856,
				"y": 3.2472058023,
				"z": -1.2951846567,
				"element": "H" 
			},
			{
				"x": 3.8167664159,
				"y": 0.835603964,
				"z": -1.1894868806,
				"element": "H" 
			},
			{
				"x": 2.9072999398,
				"y": -1.589528271,
				"z": -1.7516255861,
				"element": "H" 
			},
			{
				"x": 1.2166591528,
				"y": -1.9078964602,
				"z": -1.3152262618,
				"element": "H" 
			},
			{
				"x": 4.6688097789,
				"y": -1.8424794268,
				"z": -0.1273625791,
				"element": "H" 
			},
			{
				"x": 5.3957566467,
				"y": -2.5345696136,
				"z": 2.1365192952,
				"element": "H" 
			},
			{
				"x": 3.7079813242,
				"y": -2.9264847507,
				"z": 3.9192749696,
				"element": "H" 
			},
			{
				"x": 1.2910366715,
				"y": -2.6306440848,
				"z": 3.4189583018,
				"element": "H" 
			},
			{
				"x": 0.5664049618,
				"y": -1.9396058176,
				"z": 1.1463715288,
				"element": "H" 
			}
		],
		 "valence_orbital": [ 
			{
				"type": "occ",
				"energy": -0.28779,
				"method": "rhf"
			},
			{
				"type": "occ",
				"energy": -0.25894,
				"method": "rhf"
			},
			{
				"type": "occ",
				"energy": -0.25611,
				"method": "rhf"
			},
			{
				"type": "occ",
				"energy": -0.24888,
				"method": "rhf"
			},
			{
				"type": "occ",
				"energy": -0.24472,
				"method": "rhf"
			},
			{
				"type": "unocc",
				"energy": -0.06587,
				"method": "rhf"
			},
			{
				"type": "unocc",
				"energy": -0.01549,
				"method": "rhf"
			},
			{
				"type": "unocc",
				"energy": -0.01053,
				"method": "rhf"
			},
			{
				"type": "unocc",
				"energy": 0.01075,
				"method": "rhf"
			},
			{
				"type": "unocc",
				"energy": 0.03671,
				"method": "rhf"
			}
		],
		"cosmo_sigma_profile": { 
			"-0.025": 0.0,
			"-0.024": 0.0,
			"-0.023": 0.0,
			"-0.022": 0.0,
			"-0.021": 0.0,
			"-0.02": 0.0,
			"-0.019": 0.0,
			"-0.018": 0.0,
			"-0.017": 0.0,
			"-0.016": 0.0,
			"-0.015": 0.0,
			"-0.014": 0.0,
			"-0.013": 0.0,
			"-0.012": 0.0,
			"-0.011": 0.0,
			"-0.01": 0.891730990478,
			"-0.009": 3.4796225836,
			"-0.008": 5.20844777151,
			"-0.007": 7.19088210073,
			"-0.006": 15.42257273,
			"-0.005": 23.2856869605,
			"-0.004": 32.1631290763,
			"-0.003": 27.1546187729,
			"-0.002": 22.6253996432,
			"-0.001": 21.8216771493,
			"0.0": 22.251728386,
			"0.001": 17.7536227471,
			"0.002": 17.8232303662,
			"0.003": 16.3859678688,
			"0.004": 15.4914960528,
			"0.005": 14.7835447363,
			"0.006": 9.75000179928,
			"0.007": 6.52157024105,
			"0.008": 4.65680274947,
			"0.009": 5.73438982317,
			"0.01": 6.95782783591,
			"0.011": 7.58672666221,
			"0.012": 1.10478306555,
			"0.013": 1.08312487323,
			"0.014": 0.451759488287,
			"0.015": 0.0,
			"0.016": 0.0,
			"0.017": 0.0,
			"0.018": 0.0,
			"0.019": 0.0,
			"0.02": 0.0,
			"0.021": 0.0,
			"0.022": 0.0,
			"0.023": 0.0,
			"0.024": 0.0,
			"0.025": 0.0
		}
	}
}
