{
	 "smiles": "COC1=C(OC)C=C(CCNC(N)=S)C=C1", 
	 "Tm": 433.15, 
	 "num_atms": 32, 
	 "gaussian": { 
		 "optdone": 1, 
		 "sigma_profile": "yes", 
		 "theory": "DFT", 
		 "functional": "B3LYP", 
		 "basiset": "6-31G**", 
		 "properties": { 
			 "R2extent": 4519.0856, 
			 "electric_dipole_moment_norm": 5.24245904514, 
			 "electric_quadrupole_moment_norm": 23.1290745645, 
			 "total_energy": -1086.94534655, 
			 "HOMO_LUMO_gap": 0.18916, 
			 "cosmo_polarized_energy": -20.32, 
			 "cosmo_cavitation_energy": 36.27, 
			 "cosmo_dispersion_energy": -24.88, 
			 "cosmo_repulsion_energy": 1.92, 
			 "cosmo_total_nonelectrostatic_energy": 13.3, 
			 "SMD_solvation_energy": 6.03 
		},
		"coords": [
			{
				"x": -2.9405500892,
				"y": -3.2822749755,
				"z": -0.0491939629,
				"element": "C" 
			},
			{
				"x": -2.8191516637,
				"y": -1.9241650677,
				"z": -0.4824647742,
				"element": "O" 
			},
			{
				"x": -1.833699992,
				"y": -1.178975557,
				"z": 0.1119675621,
				"element": "C" 
			},
			{
				"x": -0.4593170661,
				"y": -1.4701383987,
				"z": -0.0657289086,
				"element": "C" 
			},
			{
				"x": -0.1668073497,
				"y": -2.5528415722,
				"z": -0.8372363785,
				"element": "O" 
			},
			{
				"x": 1.1939864872,
				"y": -2.7784538667,
				"z": -1.1965949215,
				"element": "C" 
			},
			{
				"x": 0.4976265321,
				"y": -0.6430116068,
				"z": 0.5284020486,
				"element": "C" 
			},
			{
				"x": 0.1242372351,
				"y": 0.4967507327,
				"z": 1.2601366447,
				"element": "C" 
			},
			{
				"x": 1.1834716872,
				"y": 1.4305670125,
				"z": 1.8033066261,
				"element": "C" 
			},
			{
				"x": 1.6608956804,
				"y": 2.4879831081,
				"z": 0.777427775,
				"element": "C" 
			},
			{
				"x": 2.3242184433,
				"y": 1.9285102775,
				"z": -0.3928118103,
				"element": "N" 
			},
			{
				"x": 1.7946707451,
				"y": 1.6716896689,
				"z": -1.6169608303,
				"element": "C" 
			},
			{
				"x": 0.4610216824,
				"y": 1.910121682,
				"z": -1.7791361571,
				"element": "N" 
			},
			{
				"x": 2.7677798305,
				"y": 1.1223668699,
				"z": -2.8842515758,
				"element": "S" 
			},
			{
				"x": -1.2354031228,
				"y": 0.7873020336,
				"z": 1.408358682,
				"element": "C" 
			},
			{
				"x": -2.2002203163,
				"y": -0.0548480511,
				"z": 0.8463293296,
				"element": "C" 
			},
			{
				"x": -2.0464298649,
				"y": -3.8633430023,
				"z": -0.2897626204,
				"element": "H" 
			},
			{
				"x": -3.799509669,
				"y": -3.6927719947,
				"z": -0.5837578868,
				"element": "H" 
			},
			{
				"x": -3.1314460481,
				"y": -3.3311590652,
				"z": 1.0308129618,
				"element": "H" 
			},
			{
				"x": 1.1826249931,
				"y": -3.6314154147,
				"z": -1.8762819551,
				"element": "H" 
			},
			{
				"x": 1.8059455085,
				"y": -3.0263804715,
				"z": -0.3200456169,
				"element": "H" 
			},
			{
				"x": 1.6221171045,
				"y": -1.9079417303,
				"z": -1.7079433787,
				"element": "H" 
			},
			{
				"x": 1.5509991496,
				"y": -0.8585333744,
				"z": 0.3955099173,
				"element": "H" 
			},
			{
				"x": 2.0557151691,
				"y": 0.8595239098,
				"z": 2.1428593818,
				"element": "H" 
			},
			{
				"x": 0.797244771,
				"y": 1.9684058697,
				"z": 2.6774263754,
				"element": "H" 
			},
			{
				"x": 2.3684344088,
				"y": 3.1671339675,
				"z": 1.2664226217,
				"element": "H" 
			},
			{
				"x": 0.818173008,
				"y": 3.1021190329,
				"z": 0.4444958589,
				"element": "H" 
			},
			{
				"x": 3.317931051,
				"y": 1.7561602448,
				"z": -0.3447037251,
				"element": "H" 
			},
			{
				"x": 0.0951031817,
				"y": 1.6002427988,
				"z": -2.6669599789,
				"element": "H" 
			},
			{
				"x": -0.1636956278,
				"y": 1.8013251372,
				"z": -0.9898310422,
				"element": "H" 
			},
			{
				"x": -1.5472201706,
				"y": 1.6599127494,
				"z": 1.9765228566,
				"element": "H" 
			},
			{
				"x": -3.2601456882,
				"y": 0.1500390535,
				"z": 0.9593868816,
				"element": "H" 
			}
		],
		 "valence_orbital": [ 
			{
				"type": "occ",
				"energy": -0.27024,
				"method": "rhf"
			},
			{
				"type": "occ",
				"energy": -0.24591,
				"method": "rhf"
			},
			{
				"type": "occ",
				"energy": -0.2193,
				"method": "rhf"
			},
			{
				"type": "occ",
				"energy": -0.20639,
				"method": "rhf"
			},
			{
				"type": "occ",
				"energy": -0.19761,
				"method": "rhf"
			},
			{
				"type": "unocc",
				"energy": -0.00845,
				"method": "rhf"
			},
			{
				"type": "unocc",
				"energy": -0.00244,
				"method": "rhf"
			},
			{
				"type": "unocc",
				"energy": 0.0065,
				"method": "rhf"
			},
			{
				"type": "unocc",
				"energy": 0.0644,
				"method": "rhf"
			},
			{
				"type": "unocc",
				"energy": 0.08093,
				"method": "rhf"
			}
		],
		"cosmo_sigma_profile": { 
			"-0.025": 0.0,
			"-0.024": 0.0,
			"-0.023": 0.0,
			"-0.022": 0.0,
			"-0.021": 0.0,
			"-0.02": 0.0,
			"-0.019": 0.0,
			"-0.018": 0.0,
			"-0.017": 0.0,
			"-0.016": 0.0,
			"-0.015": 0.139619520914,
			"-0.014": 1.08156507864,
			"-0.013": 1.96274899098,
			"-0.012": 1.98493158372,
			"-0.011": 2.16013790701,
			"-0.01": 1.69597741186,
			"-0.009": 3.16835934539,
			"-0.008": 3.61796366191,
			"-0.007": 4.48536922409,
			"-0.006": 12.8477299376,
			"-0.005": 25.4270397612,
			"-0.004": 28.8975390844,
			"-0.003": 28.2556831666,
			"-0.002": 23.4143283176,
			"-0.001": 17.0937521633,
			"0.0": 15.5130895488,
			"0.001": 15.8818688433,
			"0.002": 13.5738224249,
			"0.003": 12.0247333708,
			"0.004": 12.5458282947,
			"0.005": 10.9161040894,
			"0.006": 8.60028040278,
			"0.007": 6.15887185325,
			"0.008": 6.01575894198,
			"0.009": 6.32091403625,
			"0.01": 6.67480771749,
			"0.011": 6.10681508341,
			"0.012": 7.99023130465,
			"0.013": 3.82749007125,
			"0.014": 0.0291014628462,
			"0.015": 0.0,
			"0.016": 0.0,
			"0.017": 0.0,
			"0.018": 0.0,
			"0.019": 0.0,
			"0.02": 0.0,
			"0.021": 0.0,
			"0.022": 0.0,
			"0.023": 0.0,
			"0.024": 0.0,
			"0.025": 0.0
		}
	}
}
