{
	 "smiles": "ClCC1C(CCl)C2(Cl)C(Cl)=C(Cl)C1(Cl)C2(Cl)Cl", 
	 "Tm": 378.15, 
	 "num_atms": 23, 
	 "gaussian": { 
		 "optdone": 1, 
		 "sigma_profile": "yes", 
		 "theory": "DFT", 
		 "functional": "B3LYP", 
		 "basiset": "6-31G**", 
		 "properties": { 
			 "R2extent": 6872.5138, 
			 "electric_dipole_moment_norm": 1.19645572421, 
			 "electric_quadrupole_moment_norm": 10.9618980035, 
			 "total_energy": -4028.05387612, 
			 "HOMO_LUMO_gap": 0.21885, 
			 "cosmo_polarized_energy": -11.45, 
			 "cosmo_cavitation_energy": 37.59, 
			 "cosmo_dispersion_energy": -25.99, 
			 "cosmo_repulsion_energy": 2.0, 
			 "cosmo_total_nonelectrostatic_energy": 13.61, 
			 "SMD_solvation_energy": 3.76 
		},
		"coords": [
			{
				"x": -3.1042717642,
				"y": -0.4959118957,
				"z": -3.3517802489,
				"element": "Cl" 
			},
			{
				"x": -2.5303543367,
				"y": -0.8009525564,
				"z": -1.6584111541,
				"element": "C" 
			},
			{
				"x": -1.493648207,
				"y": 0.2369055019,
				"z": -1.2046039961,
				"element": "C" 
			},
			{
				"x": -1.55652148,
				"y": 0.53920644,
				"z": 0.3424319528,
				"element": "C" 
			},
			{
				"x": -2.3280242863,
				"y": 1.8350395066,
				"z": 0.5884118282,
				"element": "C" 
			},
			{
				"x": -2.8481846622,
				"y": 2.0711056805,
				"z": 2.3047958777,
				"element": "Cl" 
			},
			{
				"x": -0.043474063,
				"y": 0.5101887989,
				"z": 0.7617533946,
				"element": "C" 
			},
			{
				"x": 0.2682337984,
				"y": 0.4316253546,
				"z": 2.505616086,
				"element": "Cl" 
			},
			{
				"x": 0.6747980388,
				"y": 1.6305925545,
				"z": 0.0023172608,
				"element": "C" 
			},
			{
				"x": 1.1964386135,
				"y": 3.1000276013,
				"z": 0.712638269,
				"element": "Cl" 
			},
			{
				"x": 0.7305592547,
				"y": 1.2739945191,
				"z": -1.2895178035,
				"element": "C" 
			},
			{
				"x": 1.3080927221,
				"y": 2.1891540559,
				"z": -2.6150605664,
				"element": "Cl" 
			},
			{
				"x": 0.0354118896,
				"y": -0.0868074566,
				"z": -1.4247679789,
				"element": "C" 
			},
			{
				"x": 0.4358572734,
				"y": -1.0194807967,
				"z": -2.8775758247,
				"element": "Cl" 
			},
			{
				"x": 0.477052209,
				"y": -0.7186765825,
				"z": -0.0639273428,
				"element": "C" 
			},
			{
				"x": 2.2390047122,
				"y": -0.9973393598,
				"z": 0.0714276295,
				"element": "Cl" 
			},
			{
				"x": -0.3417135509,
				"y": -2.266549222,
				"z": 0.3466238917,
				"element": "Cl" 
			},
			{
				"x": -2.1475370235,
				"y": -1.8182137771,
				"z": -1.6363675354,
				"element": "H" 
			},
			{
				"x": -3.4209458049,
				"y": -0.7437800874,
				"z": -1.0307998093,
				"element": "H" 
			},
			{
				"x": -1.699330727,
				"y": 1.1575938311,
				"z": -1.7572522514,
				"element": "H" 
			},
			{
				"x": -2.0622637245,
				"y": -0.2775821672,
				"z": 0.86192883,
				"element": "H" 
			},
			{
				"x": -3.2477404393,
				"y": 1.8212201699,
				"z": 0.0002596253,
				"element": "H" 
			},
			{
				"x": -1.7501384422,
				"y": 2.7158398871,
				"z": 0.304259866,
				"element": "H" 
			}
		],
		 "valence_orbital": [ 
			{
				"type": "occ",
				"energy": -0.31334,
				"method": "rhf"
			},
			{
				"type": "occ",
				"energy": -0.31163,
				"method": "rhf"
			},
			{
				"type": "occ",
				"energy": -0.30649,
				"method": "rhf"
			},
			{
				"type": "occ",
				"energy": -0.30068,
				"method": "rhf"
			},
			{
				"type": "occ",
				"energy": -0.27289,
				"method": "rhf"
			},
			{
				"type": "unocc",
				"energy": -0.05404,
				"method": "rhf"
			},
			{
				"type": "unocc",
				"energy": -0.05074,
				"method": "rhf"
			},
			{
				"type": "unocc",
				"energy": -0.01708,
				"method": "rhf"
			},
			{
				"type": "unocc",
				"energy": -0.00518,
				"method": "rhf"
			},
			{
				"type": "unocc",
				"energy": 0.00106,
				"method": "rhf"
			}
		],
		"cosmo_sigma_profile": { 
			"-0.025": 0.0,
			"-0.024": 0.0,
			"-0.023": 0.0,
			"-0.022": 0.0,
			"-0.021": 0.0,
			"-0.02": 0.0,
			"-0.019": 0.0,
			"-0.018": 0.0,
			"-0.017": 0.0,
			"-0.016": 0.0,
			"-0.015": 0.0,
			"-0.014": 0.0,
			"-0.013": 0.0,
			"-0.012": 0.016133751207,
			"-0.011": 1.44008188087,
			"-0.01": 4.62313127837,
			"-0.009": 6.57967781041,
			"-0.008": 7.81224588861,
			"-0.007": 7.67724781971,
			"-0.006": 7.70113390055,
			"-0.005": 10.9960559504,
			"-0.004": 15.2551884068,
			"-0.003": 14.8810157643,
			"-0.002": 18.4408950505,
			"-0.001": 22.5970941586,
			"0.0": 25.5898534913,
			"0.001": 33.8229619073,
			"0.002": 44.6126803198,
			"0.003": 39.3551034699,
			"0.004": 19.8812434561,
			"0.005": 16.3854985809,
			"0.006": 17.2652288868,
			"0.007": 0.79112836752,
			"0.008": 0.0,
			"0.009": 0.0,
			"0.01": 0.0,
			"0.011": 0.0,
			"0.012": 0.0,
			"0.013": 0.0,
			"0.014": 0.0,
			"0.015": 0.0,
			"0.016": 0.0,
			"0.017": 0.0,
			"0.018": 0.0,
			"0.019": 0.0,
			"0.02": 0.0,
			"0.021": 0.0,
			"0.022": 0.0,
			"0.023": 0.0,
			"0.024": 0.0,
			"0.025": 0.0
		}
	}
}
