{
	 "smiles": "CC(C)NC(=O)C(C(F)(F)F)C(F)(F)F", 
	 "Tm": 409.15, 
	 "num_atms": 24, 
	 "gaussian": { 
		 "optdone": 1, 
		 "sigma_profile": "yes", 
		 "theory": "DFT", 
		 "functional": "B3LYP", 
		 "basiset": "6-31G**", 
		 "properties": { 
			 "R2extent": 4550.5432, 
			 "electric_dipole_moment_norm": 4.36455974641, 
			 "electric_quadrupole_moment_norm": 5.14448101075, 
			 "total_energy": -1001.21731384, 
			 "HOMO_LUMO_gap": 0.2663, 
			 "cosmo_polarized_energy": -11.98, 
			 "cosmo_cavitation_energy": 29.55, 
			 "cosmo_dispersion_energy": -19.84, 
			 "cosmo_repulsion_energy": 1.47, 
			 "cosmo_total_nonelectrostatic_energy": 11.18, 
			 "SMD_solvation_energy": 7.32 
		},
		"coords": [
			{
				"x": -1.7985971467,
				"y": 1.8162771821,
				"z": 1.1930919505,
				"element": "C" 
			},
			{
				"x": -0.4024200634,
				"y": 1.775799274,
				"z": 0.5564399439,
				"element": "C" 
			},
			{
				"x": -0.4478680764,
				"y": 1.9054569235,
				"z": -0.9711901717,
				"element": "C" 
			},
			{
				"x": 0.3542418405,
				"y": 0.5737870117,
				"z": 0.9690421145,
				"element": "N" 
			},
			{
				"x": -0.0399376926,
				"y": -0.6982249992,
				"z": 0.6991482904,
				"element": "C" 
			},
			{
				"x": -0.9973248823,
				"y": -1.0031297923,
				"z": 0.0062579118,
				"element": "O" 
			},
			{
				"x": 0.8742573502,
				"y": -1.7833050634,
				"z": 1.3409977277,
				"element": "C" 
			},
			{
				"x": 0.6127092777,
				"y": -1.8822030748,
				"z": 2.8461837014,
				"element": "C" 
			},
			{
				"x": -0.6913236242,
				"y": -2.0233991562,
				"z": 3.1233114863,
				"element": "F" 
			},
			{
				"x": 1.0385544843,
				"y": -0.7403619259,
				"z": 3.4534918567,
				"element": "F" 
			},
			{
				"x": 1.2752232679,
				"y": -2.8990583312,
				"z": 3.4191035846,
				"element": "F" 
			},
			{
				"x": 0.7213459906,
				"y": -3.1309588184,
				"z": 0.6270654368,
				"element": "C" 
			},
			{
				"x": 0.8923911463,
				"y": -2.9781096304,
				"z": -0.6967573745,
				"element": "F" 
			},
			{
				"x": -0.4701971724,
				"y": -3.6985713595,
				"z": 0.8499251618,
				"element": "F" 
			},
			{
				"x": 1.6731407452,
				"y": -3.9918224638,
				"z": 1.0526890885,
				"element": "F" 
			},
			{
				"x": -2.300779321,
				"y": 2.7537797241,
				"z": 0.9338321643,
				"element": "H" 
			},
			{
				"x": -2.4069872456,
				"y": 0.984103802,
				"z": 0.8325954572,
				"element": "H" 
			},
			{
				"x": -1.7329187725,
				"y": 1.7544462483,
				"z": 2.2838732816,
				"element": "H" 
			},
			{
				"x": 0.1839431078,
				"y": 2.6128763038,
				"z": 0.9530404251,
				"element": "H" 
			},
			{
				"x": -0.9318088383,
				"y": 2.8472612319,
				"z": -1.2485073409,
				"element": "H" 
			},
			{
				"x": -1.0111931825,
				"y": 1.079807641,
				"z": -1.4098599607,
				"element": "H" 
			},
			{
				"x": 0.5622757726,
				"y": 1.9021155079,
				"z": -1.391658843,
				"element": "H" 
			},
			{
				"x": 1.0640984862,
				"y": 0.6978804236,
				"z": 1.6756544123,
				"element": "H" 
			},
			{
				"x": 1.9247745487,
				"y": -1.4995466588,
				"z": 1.2274296952,
				"element": "H" 
			}
		],
		 "valence_orbital": [ 
			{
				"type": "occ",
				"energy": -0.37498,
				"method": "rhf"
			},
			{
				"type": "occ",
				"energy": -0.35507,
				"method": "rhf"
			},
			{
				"type": "occ",
				"energy": -0.35181,
				"method": "rhf"
			},
			{
				"type": "occ",
				"energy": -0.27317,
				"method": "rhf"
			},
			{
				"type": "occ",
				"energy": -0.26768,
				"method": "rhf"
			},
			{
				"type": "unocc",
				"energy": -0.00138,
				"method": "rhf"
			},
			{
				"type": "unocc",
				"energy": 0.05685,
				"method": "rhf"
			},
			{
				"type": "unocc",
				"energy": 0.08378,
				"method": "rhf"
			},
			{
				"type": "unocc",
				"energy": 0.09916,
				"method": "rhf"
			},
			{
				"type": "unocc",
				"energy": 0.10786,
				"method": "rhf"
			}
		],
		"cosmo_sigma_profile": { 
			"-0.025": 0.0,
			"-0.024": 0.0,
			"-0.023": 0.0,
			"-0.022": 0.0,
			"-0.021": 0.0,
			"-0.02": 0.0,
			"-0.019": 0.0,
			"-0.018": 0.0,
			"-0.017": 0.0,
			"-0.016": 0.0,
			"-0.015": 0.00965502695047,
			"-0.014": 1.31718344173,
			"-0.013": 2.02283305129,
			"-0.012": 2.90143206159,
			"-0.011": 3.31792467156,
			"-0.01": 2.89010937148,
			"-0.009": 2.51923313816,
			"-0.008": 1.82832955144,
			"-0.007": 2.24471576862,
			"-0.006": 3.12254803659,
			"-0.005": 4.97298029492,
			"-0.004": 8.38932832781,
			"-0.003": 14.9620951338,
			"-0.002": 16.5254678004,
			"-0.001": 18.7679027646,
			"0.0": 24.5512769107,
			"0.001": 31.0370200241,
			"0.002": 50.8466878688,
			"0.003": 16.7625411131,
			"0.004": 4.04199638269,
			"0.005": 2.77912360427,
			"0.006": 2.25262404158,
			"0.007": 2.81562480419,
			"0.008": 2.42649586129,
			"0.009": 1.49605697424,
			"0.01": 2.32022509269,
			"0.011": 2.27441986745,
			"0.012": 3.09229979314,
			"0.013": 0.598954294755,
			"0.014": 0.0,
			"0.015": 0.0,
			"0.016": 0.0,
			"0.017": 0.0,
			"0.018": 0.0,
			"0.019": 0.0,
			"0.02": 0.0,
			"0.021": 0.0,
			"0.022": 0.0,
			"0.023": 0.0,
			"0.024": 0.0,
			"0.025": 0.0
		}
	}
}
