{
	 "smiles": "CS(=O)(=O)C1=CC(N)=C(F)C=C1", 
	 "Tm": 343.15, 
	 "num_atms": 20, 
	 "gaussian": { 
		 "optdone": 1, 
		 "sigma_profile": "yes", 
		 "theory": "DFT", 
		 "functional": "B3LYP", 
		 "basiset": "6-31G**", 
		 "properties": { 
			 "R2extent": 3224.2288, 
			 "electric_dipole_moment_norm": 5.70135818643, 
			 "electric_quadrupole_moment_norm": 18.6399737744, 
			 "total_energy": -974.725692961, 
			 "HOMO_LUMO_gap": 0.19195, 
			 "cosmo_polarized_energy": -17.85, 
			 "cosmo_cavitation_energy": 25.91, 
			 "cosmo_dispersion_energy": -19.33, 
			 "cosmo_repulsion_energy": 1.48, 
			 "cosmo_total_nonelectrostatic_energy": 8.06, 
			 "SMD_solvation_energy": 4.64 
		},
		"coords": [
			{
				"x": -0.3053432579,
				"y": -1.4100804258,
				"z": -4.053000399,
				"element": "C" 
			},
			{
				"x": -1.5089250459,
				"y": -0.5501026434,
				"z": -3.0100015722,
				"element": "S" 
			},
			{
				"x": -2.6055931207,
				"y": -1.4924858553,
				"z": -2.7398013487,
				"element": "O" 
			},
			{
				"x": -1.7652311775,
				"y": 0.7611638785,
				"z": -3.6276424681,
				"element": "O" 
			},
			{
				"x": -0.6155165261,
				"y": -0.2761931938,
				"z": -1.472758927,
				"element": "C" 
			},
			{
				"x": 0.0562413441,
				"y": 0.93528486,
				"z": -1.3021768969,
				"element": "C" 
			},
			{
				"x": 0.7741741078,
				"y": 1.1739326125,
				"z": -0.1219316891,
				"element": "C" 
			},
			{
				"x": 1.4101462053,
				"y": 2.3727567904,
				"z": 0.1510528633,
				"element": "N" 
			},
			{
				"x": 0.7784047236,
				"y": 0.1461120553,
				"z": 0.8383402776,
				"element": "C" 
			},
			{
				"x": 1.4887685077,
				"y": 0.3708424062,
				"z": 1.9710255518,
				"element": "F" 
			},
			{
				"x": 0.1046913284,
				"y": -1.0514284184,
				"z": 0.6760107171,
				"element": "C" 
			},
			{
				"x": -0.6147057123,
				"y": -1.2761469181,
				"z": -0.5003403993,
				"element": "C" 
			},
			{
				"x": -0.0261131157,
				"y": -2.3512766645,
				"z": -3.5778276532,
				"element": "H" 
			},
			{
				"x": -0.805741807,
				"y": -1.5976996529,
				"z": -5.0052488784,
				"element": "H" 
			},
			{
				"x": 0.5647820952,
				"y": -0.7690073538,
				"z": -4.2002814144,
				"element": "H" 
			},
			{
				"x": -0.007668176,
				"y": 1.6978733576,
				"z": -2.0719064478,
				"element": "H" 
			},
			{
				"x": 2.1032957235,
				"y": 2.3391447146,
				"z": 0.884078083,
				"element": "H" 
			},
			{
				"x": 1.6760448345,
				"y": 2.9338175429,
				"z": -0.6442171263,
				"element": "H" 
			},
			{
				"x": 0.1456528512,
				"y": -1.7890575669,
				"z": 1.4701611413,
				"element": "H" 
			},
			{
				"x": -1.1779637823,
				"y": -2.1897495251,
				"z": -0.6495334138,
				"element": "H" 
			}
		],
		 "valence_orbital": [ 
			{
				"type": "occ",
				"energy": -0.30834,
				"method": "rhf"
			},
			{
				"type": "occ",
				"energy": -0.2925,
				"method": "rhf"
			},
			{
				"type": "occ",
				"energy": -0.28575,
				"method": "rhf"
			},
			{
				"type": "occ",
				"energy": -0.2693,
				"method": "rhf"
			},
			{
				"type": "occ",
				"energy": -0.22489,
				"method": "rhf"
			},
			{
				"type": "unocc",
				"energy": -0.03294,
				"method": "rhf"
			},
			{
				"type": "unocc",
				"energy": -0.01366,
				"method": "rhf"
			},
			{
				"type": "unocc",
				"energy": 0.062,
				"method": "rhf"
			},
			{
				"type": "unocc",
				"energy": 0.06997,
				"method": "rhf"
			},
			{
				"type": "unocc",
				"energy": 0.08462,
				"method": "rhf"
			}
		],
		"cosmo_sigma_profile": { 
			"-0.025": 0.0,
			"-0.024": 0.0,
			"-0.023": 0.0,
			"-0.022": 0.0,
			"-0.021": 0.0,
			"-0.02": 0.0,
			"-0.019": 0.0,
			"-0.018": 0.0,
			"-0.017": 0.0,
			"-0.016": 0.0,
			"-0.015": 0.0,
			"-0.014": 0.427622013139,
			"-0.013": 1.88553341942,
			"-0.012": 2.91303989781,
			"-0.011": 1.97643351816,
			"-0.01": 3.27571576333,
			"-0.009": 4.10919213851,
			"-0.008": 8.42455754785,
			"-0.007": 11.205203986,
			"-0.006": 12.8653999803,
			"-0.005": 11.1701055316,
			"-0.004": 12.774109299,
			"-0.003": 10.8104898249,
			"-0.002": 6.95528230783,
			"-0.001": 9.80129937589,
			"0.0": 11.2356866699,
			"0.001": 14.0891085991,
			"0.002": 14.9444018917,
			"0.003": 14.9795676795,
			"0.004": 9.96921669319,
			"0.005": 3.27382448626,
			"0.006": 2.76359299926,
			"0.007": 4.15815066206,
			"0.008": 3.13916329878,
			"0.009": 4.12789082128,
			"0.01": 4.66730919402,
			"0.011": 8.93639013191,
			"0.012": 10.0704710436,
			"0.013": 1.66115243068,
			"0.014": 0.0,
			"0.015": 0.0,
			"0.016": 0.0,
			"0.017": 0.0,
			"0.018": 0.0,
			"0.019": 0.0,
			"0.02": 0.0,
			"0.021": 0.0,
			"0.022": 0.0,
			"0.023": 0.0,
			"0.024": 0.0,
			"0.025": 0.0
		}
	}
}
