{
	 "smiles": "NC1=C(I)C=C(Cl)C=N1", 
	 "Tm": 370.15, 
	 "num_atms": 13, 
	 "gaussian": { 
		 "optdone": 1, 
		 "sigma_profile": "no", 
		 "theory": "DFT", 
		 "functional": "B3LYP", 
		 "basiset": "6-31G**", 
		 "properties": { 
			 "R2extent": 1758.8319, 
			 "electric_dipole_moment_norm": 2.10341232525, 
			 "electric_quadrupole_moment_norm": 7.61141708685, 
			 "total_energy": -774.026444844, 
			 "HOMO_LUMO_gap": 0.17082, 
			 "cosmo_polarized_energy": -88322.21, 
			 "cosmo_cavitation_energy": 22.23, 
			 "cosmo_dispersion_energy": -18.34, 
			 "cosmo_repulsion_energy": 1.47, 
			 "cosmo_total_nonelectrostatic_energy": 5.37, 
			 "SMD_solvation_energy": 1.34 
		},
		"coords": [
			{
				"x": -0.2368736359,
				"y": 2.9633193738,
				"z": -1.3140352077,
				"element": "N" 
			},
			{
				"x": -0.3268288052,
				"y": 1.6352394081,
				"z": -0.99475231,
				"element": "C" 
			},
			{
				"x": 0.0774831237,
				"y": 0.5957556924,
				"z": -1.8685784338,
				"element": "C" 
			},
			{
				"x": 0.7988313023,
				"y": 1.016264396,
				"z": -3.8192000607,
				"element": "I" 
			},
			{
				"x": -0.002419379,
				"y": -0.724125462,
				"z": -1.4470354373,
				"element": "C" 
			},
			{
				"x": -0.4803376716,
				"y": -0.9853714905,
				"z": -0.1613975144,
				"element": "C" 
			},
			{
				"x": -0.6013136691,
				"y": -2.6320761457,
				"z": 0.4263864487,
				"element": "Cl" 
			},
			{
				"x": -0.8642201267,
				"y": 0.0853602793,
				"z": 0.6413777769,
				"element": "C" 
			},
			{
				"x": -0.7930300951,
				"y": 1.3518668393,
				"z": 0.2342370293,
				"element": "N" 
			},
			{
				"x": -0.7277689656,
				"y": 3.586757195,
				"z": -0.6910241321,
				"element": "H" 
			},
			{
				"x": -0.1752934963,
				"y": 3.2336180258,
				"z": -2.2830940133,
				"element": "H" 
			},
			{
				"x": 0.2987078635,
				"y": -1.5376053394,
				"z": -2.0962206824,
				"element": "H" 
			},
			{
				"x": -1.2464364449,
				"y": -0.086202772,
				"z": 1.6446365368,
				"element": "H" 
			}
		],
		 "valence_orbital": [ 
			{
				"type": "occ",
				"energy": -0.3129,
				"method": "rhf"
			},
			{
				"type": "occ",
				"energy": -0.28785,
				"method": "rhf"
			},
			{
				"type": "occ",
				"energy": -0.27294,
				"method": "rhf"
			},
			{
				"type": "occ",
				"energy": -0.26877,
				"method": "rhf"
			},
			{
				"type": "occ",
				"energy": -0.22324,
				"method": "rhf"
			},
			{
				"type": "unocc",
				"energy": -0.05242,
				"method": "rhf"
			},
			{
				"type": "unocc",
				"energy": -0.04105,
				"method": "rhf"
			},
			{
				"type": "unocc",
				"energy": -0.01204,
				"method": "rhf"
			},
			{
				"type": "unocc",
				"energy": 0.02736,
				"method": "rhf"
			},
			{
				"type": "unocc",
				"energy": 0.03534,
				"method": "rhf"
			}
		],
		"cosmo_sigma_profile": { 
			"0.0": 0.0,
			"0.0": 0.0,
			"0.0": 0.0,
			"0.0": 0.0,
			"0.0": 0.0,
			"0.0": 0.0,
			"0.0": 0.0,
			"0.0": 0.0,
			"0.0": 0.0,
			"0.0": 0.0,
			"0.0": 0.0,
			"0.0": 0.0,
			"0.0": 0.0,
			"0.0": 0.0,
			"0.0": 0.0,
			"0.0": 0.0,
			"0.0": 0.0,
			"0.0": 0.0,
			"0.0": 0.0,
			"0.0": 0.0,
			"0.0": 0.0,
			"0.0": 0.0,
			"0.0": 0.0,
			"0.0": 0.0,
			"0.0": 0.0,
			"0.0": 0.0,
			"0.0": 0.0,
			"0.0": 0.0,
			"0.0": 0.0,
			"0.0": 0.0,
			"0.0": 0.0,
			"0.0": 0.0,
			"0.0": 0.0,
			"0.0": 0.0,
			"0.0": 0.0,
			"0.0": 0.0,
			"0.0": 0.0,
			"0.0": 0.0,
			"0.0": 0.0,
			"0.0": 0.0,
			"0.0": 0.0,
			"0.0": 0.0,
			"0.0": 0.0,
			"0.0": 0.0,
			"0.0": 0.0,
			"0.0": 0.0,
			"0.0": 0.0,
			"0.0": 0.0,
			"0.0": 0.0,
			"0.0": 0.0,
			"0.0": 0.0
		}
	}
}
