{
	 "smiles": "OC1OC(=O)C(Cl)=C1Cl", 
	 "Tm": 453.15, 
	 "num_atms": 11, 
	 "gaussian": { 
		 "optdone": 1, 
		 "sigma_profile": "yes", 
		 "theory": "DFT", 
		 "functional": "B3LYP", 
		 "basiset": "6-31G**", 
		 "properties": { 
			 "R2extent": 2554.9379, 
			 "electric_dipole_moment_norm": 3.78144349687, 
			 "electric_quadrupole_moment_norm": 17.094588454, 
			 "total_energy": -1299.656448, 
			 "HOMO_LUMO_gap": 0.2069, 
			 "cosmo_polarized_energy": -12.36, 
			 "cosmo_cavitation_energy": 19.98, 
			 "cosmo_dispersion_energy": -15.12, 
			 "cosmo_repulsion_energy": 1.28, 
			 "cosmo_total_nonelectrostatic_energy": 6.14, 
			 "SMD_solvation_energy": 4.35 
		},
		"coords": [
			{
				"x": 3.6926379105,
				"y": -2.0423442205,
				"z": -0.1614777573,
				"element": "O" 
			},
			{
				"x": 2.7500926314,
				"y": -1.1014659081,
				"z": 0.2132096665,
				"element": "C" 
			},
			{
				"x": 2.0717691398,
				"y": -1.4753621055,
				"z": 1.4290819999,
				"element": "O" 
			},
			{
				"x": 0.7306440747,
				"y": -1.6640314304,
				"z": 1.2002236724,
				"element": "C" 
			},
			{
				"x": -0.0499246989,
				"y": -1.987969635,
				"z": 2.0499804622,
				"element": "O" 
			},
			{
				"x": 0.4833617418,
				"y": -1.3710051628,
				"z": -0.2448664452,
				"element": "C" 
			},
			{
				"x": -1.0765348442,
				"y": -1.4779488983,
				"z": -0.9338562251,
				"element": "Cl" 
			},
			{
				"x": 1.6457489346,
				"y": -1.0437051266,
				"z": -0.8196932528,
				"element": "C" 
			},
			{
				"x": 1.9647289009,
				"y": -0.6212677264,
				"z": -2.4450352175,
				"element": "Cl" 
			},
			{
				"x": 4.4382934469,
				"y": -1.9950162192,
				"z": 0.4523661395,
				"element": "H" 
			},
			{
				"x": 3.1940827624,
				"y": -0.113083567,
				"z": 0.3948669574,
				"element": "H" 
			}
		],
		 "valence_orbital": [ 
			{
				"type": "occ",
				"energy": -0.34256,
				"method": "rhf"
			},
			{
				"type": "occ",
				"energy": -0.33618,
				"method": "rhf"
			},
			{
				"type": "occ",
				"energy": -0.32437,
				"method": "rhf"
			},
			{
				"type": "occ",
				"energy": -0.29523,
				"method": "rhf"
			},
			{
				"type": "occ",
				"energy": -0.28143,
				"method": "rhf"
			},
			{
				"type": "unocc",
				"energy": -0.07453,
				"method": "rhf"
			},
			{
				"type": "unocc",
				"energy": -0.00268,
				"method": "rhf"
			},
			{
				"type": "unocc",
				"energy": 0.03918,
				"method": "rhf"
			},
			{
				"type": "unocc",
				"energy": 0.04822,
				"method": "rhf"
			},
			{
				"type": "unocc",
				"energy": 0.06327,
				"method": "rhf"
			}
		],
		"cosmo_sigma_profile": { 
			"-0.025": 0.0,
			"-0.024": 0.0,
			"-0.023": 0.0,
			"-0.022": 0.0,
			"-0.021": 0.0,
			"-0.02": 0.0,
			"-0.019": 0.692844406004,
			"-0.018": 1.30779260645,
			"-0.017": 1.235563183,
			"-0.016": 1.0204529181,
			"-0.015": 1.09066089435,
			"-0.014": 0.752287501675,
			"-0.013": 0.66091702887,
			"-0.012": 0.995930327974,
			"-0.011": 1.41706407606,
			"-0.01": 3.93312504289,
			"-0.009": 3.60715152378,
			"-0.008": 2.60523917235,
			"-0.007": 2.62423336597,
			"-0.006": 3.59833148475,
			"-0.005": 5.50935767891,
			"-0.004": 7.75134475022,
			"-0.003": 10.2218997129,
			"-0.002": 10.1424372506,
			"-0.001": 10.3145911812,
			"0.0": 10.8059551023,
			"0.001": 15.9917575353,
			"0.002": 19.5374472992,
			"0.003": 7.50924588081,
			"0.004": 5.94997467316,
			"0.005": 4.35175543999,
			"0.006": 5.14809829582,
			"0.007": 5.15904414368,
			"0.008": 5.28099767256,
			"0.009": 5.19461246769,
			"0.01": 7.34843143757,
			"0.011": 3.15337356192,
			"0.012": 0.0815983938485,
			"0.013": 0.0,
			"0.014": 0.0,
			"0.015": 0.0,
			"0.016": 0.0,
			"0.017": 0.0,
			"0.018": 0.0,
			"0.019": 0.0,
			"0.02": 0.0,
			"0.021": 0.0,
			"0.022": 0.0,
			"0.023": 0.0,
			"0.024": 0.0,
			"0.025": 0.0
		}
	}
}
