{
	 "smiles": "CC(C)NC(=O)C(C)C", 
	 "Tm": 377.15, 
	 "num_atms": 24, 
	 "gaussian": { 
		 "optdone": 1, 
		 "sigma_profile": "yes", 
		 "theory": "DFT", 
		 "functional": "B3LYP", 
		 "basiset": "6-31G**", 
		 "properties": { 
			 "R2extent": 1764.3643, 
			 "electric_dipole_moment_norm": 3.33064579324, 
			 "electric_quadrupole_moment_norm": 3.38045770126, 
			 "total_energy": -405.800655932, 
			 "HOMO_LUMO_gap": 0.27288, 
			 "cosmo_polarized_energy": -10.68, 
			 "cosmo_cavitation_energy": 26.13, 
			 "cosmo_dispersion_energy": -18.14, 
			 "cosmo_repulsion_energy": 1.53, 
			 "cosmo_total_nonelectrostatic_energy": 9.53, 
			 "SMD_solvation_energy": 4.93 
		},
		"coords": [
			{
				"x": -1.8009975379,
				"y": -0.213838371,
				"z": -2.5147510658,
				"element": "C" 
			},
			{
				"x": -2.0840316534,
				"y": -0.1369392923,
				"z": -1.0077825042,
				"element": "C" 
			},
			{
				"x": -3.4961406837,
				"y": 0.3697470906,
				"z": -0.7034353741,
				"element": "C" 
			},
			{
				"x": -1.1003417174,
				"y": 0.7048122333,
				"z": -0.3227610526,
				"element": "N" 
			},
			{
				"x": 0.0867165594,
				"y": 0.2169116348,
				"z": 0.1457383354,
				"element": "C" 
			},
			{
				"x": 0.3860508683,
				"y": -0.9721914616,
				"z": 0.0762006008,
				"element": "O" 
			},
			{
				"x": 1.0274448599,
				"y": 1.2459247773,
				"z": 0.784645688,
				"element": "C" 
			},
			{
				"x": 1.2771750272,
				"y": 0.8594501937,
				"z": 2.2514581003,
				"element": "C" 
			},
			{
				"x": 2.3414951581,
				"y": 1.2918028195,
				"z": -0.0124615458,
				"element": "C" 
			},
			{
				"x": -2.5111669521,
				"y": -0.8852562327,
				"z": -3.0094109361,
				"element": "H" 
			},
			{
				"x": -0.7912353845,
				"y": -0.5944003392,
				"z": -2.6892364979,
				"element": "H" 
			},
			{
				"x": -1.8869485092,
				"y": 0.7741429081,
				"z": -2.9825588385,
				"element": "H" 
			},
			{
				"x": -1.9523717648,
				"y": -1.1360558765,
				"z": -0.5817348742,
				"element": "H" 
			},
			{
				"x": -4.2443470413,
				"y": -0.273365006,
				"z": -1.1764165348,
				"element": "H" 
			},
			{
				"x": -3.6867481174,
				"y": 0.3842091565,
				"z": 0.3738207923,
				"element": "H" 
			},
			{
				"x": -3.645037845,
				"y": 1.3855197202,
				"z": -1.0919883246,
				"element": "H" 
			},
			{
				"x": -1.2532491707,
				"y": 1.7029079175,
				"z": -0.3103929408,
				"element": "H" 
			},
			{
				"x": 0.5587180717,
				"y": 2.2395608377,
				"z": 0.7547808656,
				"element": "H" 
			},
			{
				"x": 1.6861016374,
				"y": -0.1533924357,
				"z": 2.3022778642,
				"element": "H" 
			},
			{
				"x": 1.988121518,
				"y": 1.5493401141,
				"z": 2.7176092688,
				"element": "H" 
			},
			{
				"x": 0.3504927338,
				"y": 0.8799466052,
				"z": 2.8345337289,
				"element": "H" 
			},
			{
				"x": 2.7928425854,
				"y": 0.2961115853,
				"z": -0.0395613946,
				"element": "H" 
			},
			{
				"x": 2.1740918971,
				"y": 1.6154812583,
				"z": -1.0453310628,
				"element": "H" 
			},
			{
				"x": 3.0506654611,
				"y": 1.9858701628,
				"z": 0.4501577028,
				"element": "H" 
			}
		],
		 "valence_orbital": [ 
			{
				"type": "occ",
				"energy": -0.34092,
				"method": "rhf"
			},
			{
				"type": "occ",
				"energy": -0.33388,
				"method": "rhf"
			},
			{
				"type": "occ",
				"energy": -0.3269,
				"method": "rhf"
			},
			{
				"type": "occ",
				"energy": -0.24657,
				"method": "rhf"
			},
			{
				"type": "occ",
				"energy": -0.23629,
				"method": "rhf"
			},
			{
				"type": "unocc",
				"energy": 0.03659,
				"method": "rhf"
			},
			{
				"type": "unocc",
				"energy": 0.07089,
				"method": "rhf"
			},
			{
				"type": "unocc",
				"energy": 0.09912,
				"method": "rhf"
			},
			{
				"type": "unocc",
				"energy": 0.11171,
				"method": "rhf"
			},
			{
				"type": "unocc",
				"energy": 0.13603,
				"method": "rhf"
			}
		],
		"cosmo_sigma_profile": { 
			"-0.025": 0.0,
			"-0.024": 0.0,
			"-0.023": 0.0,
			"-0.022": 0.0,
			"-0.021": 0.0,
			"-0.02": 0.0,
			"-0.019": 0.0,
			"-0.018": 0.0,
			"-0.017": 0.0,
			"-0.016": 0.0,
			"-0.015": 0.0,
			"-0.014": 0.0585863195435,
			"-0.013": 0.904440076954,
			"-0.012": 1.09494013551,
			"-0.011": 1.36825677324,
			"-0.01": 1.37687071807,
			"-0.009": 1.51389195316,
			"-0.008": 1.8018880305,
			"-0.007": 1.16473289642,
			"-0.006": 2.06836802643,
			"-0.005": 2.68246560012,
			"-0.004": 7.06277998197,
			"-0.003": 26.6596982414,
			"-0.002": 29.7448628781,
			"-0.001": 27.6955525963,
			"0.0": 28.9695625525,
			"0.001": 28.8175997305,
			"0.002": 9.04769404099,
			"0.003": 3.76000594497,
			"0.004": 2.65690904984,
			"0.005": 2.36577587148,
			"0.006": 2.20990284131,
			"0.007": 2.00446564199,
			"0.008": 2.32786944102,
			"0.009": 1.19420106488,
			"0.01": 1.21394292733,
			"0.011": 1.46271348597,
			"0.012": 2.01370167112,
			"0.013": 1.39653096631,
			"0.014": 3.71839107391,
			"0.015": 3.45965765472,
			"0.016": 0.0517164424946,
			"0.017": 0.0,
			"0.018": 0.0,
			"0.019": 0.0,
			"0.02": 0.0,
			"0.021": 0.0,
			"0.022": 0.0,
			"0.023": 0.0,
			"0.024": 0.0,
			"0.025": 0.0
		}
	}
}
