{
	 "smiles": "CNS(O)(=O)=O", 
	 "Tm": 464.15, 
	 "num_atms": 11, 
	 "gaussian": { 
		 "optdone": 1, 
		 "sigma_profile": "yes", 
		 "theory": "DFT", 
		 "functional": "B3LYP", 
		 "basiset": "6-31G**", 
		 "properties": { 
			 "R2extent": 1116.9494, 
			 "electric_dipole_moment_norm": 3.92892175794, 
			 "electric_quadrupole_moment_norm": 11.0760558481, 
			 "total_energy": -719.652959593, 
			 "HOMO_LUMO_gap": 0.32032, 
			 "cosmo_polarized_energy": -14.71, 
			 "cosmo_cavitation_energy": 16.18, 
			 "cosmo_dispersion_energy": -13.07, 
			 "cosmo_repulsion_energy": 1.08, 
			 "cosmo_total_nonelectrostatic_energy": 4.19, 
			 "SMD_solvation_energy": 1.69 
		},
		"coords": [
			{
				"x": 0.897651685,
				"y": -0.0966094882,
				"z": 0.7619297188,
				"element": "C" 
			},
			{
				"x": 1.3130829589,
				"y": 0.9675874012,
				"z": -0.1574158277,
				"element": "N" 
			},
			{
				"x": 0.5569600515,
				"y": 1.099332603,
				"z": -1.6205154769,
				"element": "S" 
			},
			{
				"x": -1.0184438068,
				"y": 1.332831901,
				"z": -1.1737083494,
				"element": "O" 
			},
			{
				"x": 1.0413777129,
				"y": 2.3214882022,
				"z": -2.2353230474,
				"element": "O" 
			},
			{
				"x": 0.5895706697,
				"y": -0.1895046818,
				"z": -2.2988906902,
				"element": "O" 
			},
			{
				"x": 0.9289027101,
				"y": -1.046615212,
				"z": 0.2260920741,
				"element": "H" 
			},
			{
				"x": 1.6224779127,
				"y": -0.137666379,
				"z": 1.5776395387,
				"element": "H" 
			},
			{
				"x": -0.1076234437,
				"y": 0.0587586437,
				"z": 1.1705028757,
				"element": "H" 
			},
			{
				"x": 1.4410195971,
				"y": 1.8869209922,
				"z": 0.2538747489,
				"element": "H" 
			},
			{
				"x": -1.5621760474,
				"y": 0.8174760177,
				"z": -1.7925855645,
				"element": "H" 
			}
		],
		 "valence_orbital": [ 
			{
				"type": "occ",
				"energy": -0.36024,
				"method": "rhf"
			},
			{
				"type": "occ",
				"energy": -0.34017,
				"method": "rhf"
			},
			{
				"type": "occ",
				"energy": -0.32693,
				"method": "rhf"
			},
			{
				"type": "occ",
				"energy": -0.3106,
				"method": "rhf"
			},
			{
				"type": "occ",
				"energy": -0.29065,
				"method": "rhf"
			},
			{
				"type": "unocc",
				"energy": 0.02967,
				"method": "rhf"
			},
			{
				"type": "unocc",
				"energy": 0.06729,
				"method": "rhf"
			},
			{
				"type": "unocc",
				"energy": 0.0832,
				"method": "rhf"
			},
			{
				"type": "unocc",
				"energy": 0.09198,
				"method": "rhf"
			},
			{
				"type": "unocc",
				"energy": 0.10444,
				"method": "rhf"
			}
		],
		"cosmo_sigma_profile": { 
			"-0.025": 0.0,
			"-0.024": 0.0,
			"-0.023": 0.0,
			"-0.022": 0.0,
			"-0.021": 0.0,
			"-0.02": 0.398035682791,
			"-0.019": 1.10341245539,
			"-0.018": 0.949814356694,
			"-0.017": 0.930687487269,
			"-0.016": 1.61513287036,
			"-0.015": 1.88846843753,
			"-0.014": 1.95636515072,
			"-0.013": 1.65252608051,
			"-0.012": 1.88359885103,
			"-0.011": 0.978100226229,
			"-0.01": 2.05632855267,
			"-0.009": 2.29128076354,
			"-0.008": 1.97581590308,
			"-0.007": 3.20748392657,
			"-0.006": 4.94549137857,
			"-0.005": 6.57120907194,
			"-0.004": 7.78979985127,
			"-0.003": 10.7185435184,
			"-0.002": 6.4076443152,
			"-0.001": 3.71530235229,
			"0.0": 2.23343101595,
			"0.001": 4.60424967947,
			"0.002": 4.09249974344,
			"0.003": 4.15836996014,
			"0.004": 4.52683555316,
			"0.005": 3.9841770985,
			"0.006": 5.30723197477,
			"0.007": 4.82927699269,
			"0.008": 5.63703227493,
			"0.009": 9.3254196529,
			"0.01": 12.7768349371,
			"0.011": 2.9858109079,
			"0.012": 0.0,
			"0.013": 0.0,
			"0.014": 0.0,
			"0.015": 0.0,
			"0.016": 0.0,
			"0.017": 0.0,
			"0.018": 0.0,
			"0.019": 0.0,
			"0.02": 0.0,
			"0.021": 0.0,
			"0.022": 0.0,
			"0.023": 0.0,
			"0.024": 0.0,
			"0.025": 0.0
		}
	}
}
