{
	 "smiles": "CCCCCCCCOC1=CC=C(C=O)C=C1OCCCCCCCC", 
	 "Tm": 328.15, 
	 "num_atms": 64, 
	 "gaussian": { 
		 "optdone": 1, 
		 "sigma_profile": "yes", 
		 "theory": "DFT", 
		 "functional": "B3LYP", 
		 "basiset": "6-31G**", 
		 "properties": { 
			 "R2extent": 16888.0217, 
			 "electric_dipole_moment_norm": 4.80269917546, 
			 "electric_quadrupole_moment_norm": 42.8730218671, 
			 "total_energy": -1125.03424276, 
			 "HOMO_LUMO_gap": 0.17104, 
			 "cosmo_polarized_energy": -12.67, 
			 "cosmo_cavitation_energy": 63.98, 
			 "cosmo_dispersion_energy": -39.06, 
			 "cosmo_repulsion_energy": 3.04, 
			 "cosmo_total_nonelectrostatic_energy": 27.97, 
			 "SMD_solvation_energy": 10.48 
		},
		"coords": [
			{
				"x": -0.8957572259,
				"y": -3.1846305394,
				"z": 3.9952283414,
				"element": "C" 
			},
			{
				"x": -0.9537597547,
				"y": -2.0483160075,
				"z": 2.9669176287,
				"element": "C" 
			},
			{
				"x": -1.6386449759,
				"y": -2.4175046747,
				"z": 1.6396719398,
				"element": "C" 
			},
			{
				"x": -0.8966378671,
				"y": -3.4844383605,
				"z": 0.8173717756,
				"element": "C" 
			},
			{
				"x": -1.5535817334,
				"y": -3.8518419319,
				"z": -0.5324079301,
				"element": "C" 
			},
			{
				"x": -1.0708003371,
				"y": -3.0529408128,
				"z": -1.760280471,
				"element": "C" 
			},
			{
				"x": -1.358062226,
				"y": -1.5413868247,
				"z": -1.786042975,
				"element": "C" 
			},
			{
				"x": -2.8497933553,
				"y": -1.2072265219,
				"z": -1.8230767006,
				"element": "C" 
			},
			{
				"x": -3.0917895056,
				"y": 0.2055675638,
				"z": -1.8451363059,
				"element": "O" 
			},
			{
				"x": -3.0349377592,
				"y": 0.8918883382,
				"z": -3.0115799705,
				"element": "C" 
			},
			{
				"x": -2.7447998759,
				"y": 0.3333535408,
				"z": -4.2686796778,
				"element": "C" 
			},
			{
				"x": -2.7161021445,
				"y": 1.1338546635,
				"z": -5.404661902,
				"element": "C" 
			},
			{
				"x": -2.9828107923,
				"y": 2.5055372009,
				"z": -5.3149973602,
				"element": "C" 
			},
			{
				"x": -2.9600904361,
				"y": 3.355769485,
				"z": -6.5176912197,
				"element": "C" 
			},
			{
				"x": -2.7076880877,
				"y": 2.965519712,
				"z": -7.6442222063,
				"element": "O" 
			},
			{
				"x": -3.2843346185,
				"y": 3.0638197565,
				"z": -4.0625821436,
				"element": "C" 
			},
			{
				"x": -3.3090041268,
				"y": 2.2802713265,
				"z": -2.9162196013,
				"element": "C" 
			},
			{
				"x": -3.6661676188,
				"y": 2.7966263208,
				"z": -1.6964336645,
				"element": "O" 
			},
			{
				"x": -2.7506229996,
				"y": 3.721789638,
				"z": -1.0904638376,
				"element": "C" 
			},
			{
				"x": -1.5478239024,
				"y": 3.0288035695,
				"z": -0.453643039,
				"element": "C" 
			},
			{
				"x": -0.6192257929,
				"y": 4.0237554514,
				"z": 0.257460577,
				"element": "C" 
			},
			{
				"x": 0.646392834,
				"y": 3.3919325479,
				"z": 0.8615931584,
				"element": "C" 
			},
			{
				"x": 0.3796141881,
				"y": 2.4294876831,
				"z": 2.0292325204,
				"element": "C" 
			},
			{
				"x": 1.6475887508,
				"y": 1.9070648281,
				"z": 2.7250533337,
				"element": "C" 
			},
			{
				"x": 2.5251663892,
				"y": 0.988779404,
				"z": 1.8624971708,
				"element": "C" 
			},
			{
				"x": 3.7396795109,
				"y": 0.4408479392,
				"z": 2.6192414846,
				"element": "C" 
			},
			{
				"x": -0.4516843868,
				"y": -2.8408354103,
				"z": 4.9351636668,
				"element": "H" 
			},
			{
				"x": -1.8998256558,
				"y": -3.5622107138,
				"z": 4.2217949557,
				"element": "H" 
			},
			{
				"x": -0.2963634839,
				"y": -4.0296596674,
				"z": 3.6415884243,
				"element": "H" 
			},
			{
				"x": 0.0647268599,
				"y": -1.6910817137,
				"z": 2.7592836285,
				"element": "H" 
			},
			{
				"x": -1.4875320808,
				"y": -1.1974120528,
				"z": 3.4089029234,
				"element": "H" 
			},
			{
				"x": -2.6573345577,
				"y": -2.775543298,
				"z": 1.848871779,
				"element": "H" 
			},
			{
				"x": -1.7565557495,
				"y": -1.5028730374,
				"z": 1.0464054387,
				"element": "H" 
			},
			{
				"x": 0.1385050678,
				"y": -3.156563619,
				"z": 0.6419675209,
				"element": "H" 
			},
			{
				"x": -0.8200618722,
				"y": -4.395441996,
				"z": 1.4223038681,
				"element": "H" 
			},
			{
				"x": -1.3459064833,
				"y": -4.9074628794,
				"z": -0.7461381139,
				"element": "H" 
			},
			{
				"x": -2.6459981051,
				"y": -3.7863458513,
				"z": -0.4366850346,
				"element": "H" 
			},
			{
				"x": -1.5079617055,
				"y": -3.5070119086,
				"z": -2.6607446065,
				"element": "H" 
			},
			{
				"x": 0.0137388258,
				"y": -3.1926171349,
				"z": -1.8549674634,
				"element": "H" 
			},
			{
				"x": -0.9102862781,
				"y": -1.0446463098,
				"z": -0.9183518761,
				"element": "H" 
			},
			{
				"x": -0.8737683334,
				"y": -1.1075380611,
				"z": -2.6684976295,
				"element": "H" 
			},
			{
				"x": -3.3489315846,
				"y": -1.6943518433,
				"z": -2.6706039615,
				"element": "H" 
			},
			{
				"x": -3.3478129057,
				"y": -1.5467117827,
				"z": -0.9118413209,
				"element": "H" 
			},
			{
				"x": -2.52985356,
				"y": -0.724459928,
				"z": -4.3597138333,
				"element": "H" 
			},
			{
				"x": -2.4878064722,
				"y": 0.7117883144,
				"z": -6.3779849284,
				"element": "H" 
			},
			{
				"x": -3.1974576551,
				"y": 4.4276340293,
				"z": -6.3279305267,
				"element": "H" 
			},
			{
				"x": -3.5206706763,
				"y": 4.1220043579,
				"z": -3.9800796638,
				"element": "H" 
			},
			{
				"x": -2.4212335449,
				"y": 4.4668239481,
				"z": -1.8289024228,
				"element": "H" 
			},
			{
				"x": -3.3406195256,
				"y": 4.2444594513,
				"z": -0.3308621788,
				"element": "H" 
			},
			{
				"x": -1.9203812001,
				"y": 2.2699926474,
				"z": 0.2422657341,
				"element": "H" 
			},
			{
				"x": -0.9874678326,
				"y": 2.4945441493,
				"z": -1.2321848288,
				"element": "H" 
			},
			{
				"x": -1.1771263253,
				"y": 4.5418456233,
				"z": 1.0508949192,
				"element": "H" 
			},
			{
				"x": -0.3162252183,
				"y": 4.8012786155,
				"z": -0.457233048,
				"element": "H" 
			},
			{
				"x": 1.3044008258,
				"y": 4.1973857601,
				"z": 1.215693969,
				"element": "H" 
			},
			{
				"x": 1.1997763176,
				"y": 2.8755011072,
				"z": 0.0662702102,
				"element": "H" 
			},
			{
				"x": -0.2139739382,
				"y": 1.5731950128,
				"z": 1.6818071064,
				"element": "H" 
			},
			{
				"x": -0.2424935586,
				"y": 2.9471249302,
				"z": 2.7725985072,
				"element": "H" 
			},
			{
				"x": 1.3519834732,
				"y": 1.3587453268,
				"z": 3.6299948487,
				"element": "H" 
			},
			{
				"x": 2.2489244138,
				"y": 2.7599665777,
				"z": 3.0720335899,
				"element": "H" 
			},
			{
				"x": 2.8694215806,
				"y": 1.5282252101,
				"z": 0.9712963581,
				"element": "H" 
			},
			{
				"x": 1.914693783,
				"y": 0.151911532,
				"z": 1.4942756707,
				"element": "H" 
			},
			{
				"x": 4.3469567608,
				"y": -0.2131184716,
				"z": 1.9847663602,
				"element": "H" 
			},
			{
				"x": 4.385197412,
				"y": 1.2532081868,
				"z": 2.9723930334,
				"element": "H" 
			},
			{
				"x": 3.4315008321,
				"y": -0.1390323972,
				"z": 3.4968999992,
				"element": "H" 
			}
		],
		 "valence_orbital": [ 
			{
				"type": "occ",
				"energy": -0.30885,
				"method": "rhf"
			},
			{
				"type": "occ",
				"energy": -0.28099,
				"method": "rhf"
			},
			{
				"type": "occ",
				"energy": -0.24973,
				"method": "rhf"
			},
			{
				"type": "occ",
				"energy": -0.24351,
				"method": "rhf"
			},
			{
				"type": "occ",
				"energy": -0.21951,
				"method": "rhf"
			},
			{
				"type": "unocc",
				"energy": -0.04847,
				"method": "rhf"
			},
			{
				"type": "unocc",
				"energy": -0.00758,
				"method": "rhf"
			},
			{
				"type": "unocc",
				"energy": 0.05043,
				"method": "rhf"
			},
			{
				"type": "unocc",
				"energy": 0.05538,
				"method": "rhf"
			},
			{
				"type": "unocc",
				"energy": 0.06849,
				"method": "rhf"
			}
		],
		"cosmo_sigma_profile": { 
			"-0.025": 0.0,
			"-0.024": 0.0,
			"-0.023": 0.0,
			"-0.022": 0.0,
			"-0.021": 0.0,
			"-0.02": 0.0,
			"-0.019": 0.0,
			"-0.018": 0.0,
			"-0.017": 0.0,
			"-0.016": 0.0,
			"-0.015": 0.0,
			"-0.014": 0.0,
			"-0.013": 0.0,
			"-0.012": 0.0,
			"-0.011": 0.0,
			"-0.01": 0.0,
			"-0.009": 0.0,
			"-0.008": 1.06100723659,
			"-0.007": 5.77839715299,
			"-0.006": 8.66722443201,
			"-0.005": 13.6208608606,
			"-0.004": 18.1938422961,
			"-0.003": 32.1671761871,
			"-0.002": 70.3084078796,
			"-0.001": 89.7498328456,
			"0.0": 88.2501638068,
			"0.001": 72.7832618607,
			"0.002": 34.0863617994,
			"0.003": 14.851009463,
			"0.004": 7.98821694524,
			"0.005": 4.62198998808,
			"0.006": 3.49116933506,
			"0.007": 4.24476043232,
			"0.008": 2.92383629607,
			"0.009": 3.77245967712,
			"0.01": 3.63169875517,
			"0.011": 5.25450879925,
			"0.012": 6.2452824959,
			"0.013": 2.85937840225,
			"0.014": 0.857496303482,
			"0.015": 0.00846177261973,
			"0.016": 0.0,
			"0.017": 0.0,
			"0.018": 0.0,
			"0.019": 0.0,
			"0.02": 0.0,
			"0.021": 0.0,
			"0.022": 0.0,
			"0.023": 0.0,
			"0.024": 0.0,
			"0.025": 0.0
		}
	}
}
