{
	 "smiles": "OC1=C2C=CC=CC2=CC=C1CN1CCCCC1", 
	 "Tm": 408.15, 
	 "num_atms": 37, 
	 "gaussian": { 
		 "optdone": 1, 
		 "sigma_profile": "yes", 
		 "theory": "DFT", 
		 "functional": "B3LYP", 
		 "basiset": "6-31G**", 
		 "properties": { 
			 "R2extent": 6349.6175, 
			 "electric_dipole_moment_norm": 1.99579591141, 
			 "electric_quadrupole_moment_norm": 8.28747004821, 
			 "total_energy": -751.13272175, 
			 "HOMO_LUMO_gap": 0.17054, 
			 "cosmo_polarized_energy": -8.88, 
			 "cosmo_cavitation_energy": 37.28, 
			 "cosmo_dispersion_energy": -26.94, 
			 "cosmo_repulsion_energy": 2.06, 
			 "cosmo_total_nonelectrostatic_energy": 12.4, 
			 "SMD_solvation_energy": 4.42 
		},
		"coords": [
			{
				"x": 2.4576266715,
				"y": -1.4329950748,
				"z": -1.7244609378,
				"element": "O" 
			},
			{
				"x": 1.8546276602,
				"y": -0.2618574777,
				"z": -1.354562975,
				"element": "C" 
			},
			{
				"x": 1.2728301559,
				"y": 0.4844444645,
				"z": -2.4293919922,
				"element": "C" 
			},
			{
				"x": 1.3280705095,
				"y": 0.0268313764,
				"z": -3.7714603192,
				"element": "C" 
			},
			{
				"x": 0.7591545762,
				"y": 0.7653321911,
				"z": -4.7868947202,
				"element": "C" 
			},
			{
				"x": 0.1119084709,
				"y": 1.9908950758,
				"z": -4.5032163613,
				"element": "C" 
			},
			{
				"x": 0.0449495561,
				"y": 2.4559198654,
				"z": -3.2081606258,
				"element": "C" 
			},
			{
				"x": 0.6192920906,
				"y": 1.7219942198,
				"z": -2.1368051582,
				"element": "C" 
			},
			{
				"x": 0.5647476095,
				"y": 2.1741053849,
				"z": -0.7893856925,
				"element": "C" 
			},
			{
				"x": 1.1356391773,
				"y": 1.4302809468,
				"z": 0.2118310992,
				"element": "C" 
			},
			{
				"x": 1.796002615,
				"y": 0.1970092742,
				"z": -0.0464794002,
				"element": "C" 
			},
			{
				"x": 2.4215567002,
				"y": -0.5380676067,
				"z": 1.1233731836,
				"element": "C" 
			},
			{
				"x": 1.491375365,
				"y": -0.7742804277,
				"z": 2.2186372003,
				"element": "N" 
			},
			{
				"x": 0.3888261894,
				"y": -1.6779527257,
				"z": 1.8871645958,
				"element": "C" 
			},
			{
				"x": -0.7441927639,
				"y": -1.5242458921,
				"z": 2.9263922488,
				"element": "C" 
			},
			{
				"x": -0.185342207,
				"y": -1.0959407305,
				"z": 4.2999760929,
				"element": "C" 
			},
			{
				"x": 1.204772268,
				"y": -1.7051768899,
				"z": 4.5119607171,
				"element": "C" 
			},
			{
				"x": 2.1932902998,
				"y": -1.2043789482,
				"z": 3.434731673,
				"element": "C" 
			},
			{
				"x": 2.8006152354,
				"y": -1.8770405901,
				"z": -0.9381230643,
				"element": "H" 
			},
			{
				"x": 1.8259631892,
				"y": -0.9126980938,
				"z": -3.9819719148,
				"element": "H" 
			},
			{
				"x": 0.8074021562,
				"y": 0.4063930847,
				"z": -5.8109736189,
				"element": "H" 
			},
			{
				"x": -0.3327242899,
				"y": 2.565031693,
				"z": -5.3112919277,
				"element": "H" 
			},
			{
				"x": -0.451749464,
				"y": 3.3969791956,
				"z": -2.9857689636,
				"element": "H" 
			},
			{
				"x": 0.0658803445,
				"y": 3.1130057582,
				"z": -0.5659324733,
				"element": "H" 
			},
			{
				"x": 1.082082216,
				"y": 1.762049726,
				"z": 1.2443657712,
				"element": "H" 
			},
			{
				"x": 2.9027785963,
				"y": -1.4896168551,
				"z": 0.8009482634,
				"element": "H" 
			},
			{
				"x": 3.2463151047,
				"y": 0.0668268187,
				"z": 1.524443496,
				"element": "H" 
			},
			{
				"x": 0.0232567725,
				"y": -1.4279993606,
				"z": 0.8878894588,
				"element": "H" 
			},
			{
				"x": 0.7365958089,
				"y": -2.7299765026,
				"z": 1.8427900985,
				"element": "H" 
			},
			{
				"x": -1.4708839652,
				"y": -0.7831321572,
				"z": 2.5773600724,
				"element": "H" 
			},
			{
				"x": -1.2794671284,
				"y": -2.4774347093,
				"z": 3.0130050227,
				"element": "H" 
			},
			{
				"x": -0.1091662063,
				"y": -0.0039078446,
				"z": 4.3424696681,
				"element": "H" 
			},
			{
				"x": -0.8666425182,
				"y": -1.3988305174,
				"z": 5.1026515342,
				"element": "H" 
			},
			{
				"x": 1.5958582453,
				"y": -1.4677022192,
				"z": 5.5069995098,
				"element": "H" 
			},
			{
				"x": 1.1256894792,
				"y": -2.7985160093,
				"z": 4.4651479935,
				"element": "H" 
			},
			{
				"x": 2.9284078038,
				"y": -2.0041297129,
				"z": 3.2137491098,
				"element": "H" 
			},
			{
				"x": 2.7657536757,
				"y": -0.3459187301,
				"z": 3.8092933359,
				"element": "H" 
			}
		],
		 "valence_orbital": [ 
			{
				"type": "occ",
				"energy": -0.30651,
				"method": "rhf"
			},
			{
				"type": "occ",
				"energy": -0.25756,
				"method": "rhf"
			},
			{
				"type": "occ",
				"energy": -0.23472,
				"method": "rhf"
			},
			{
				"type": "occ",
				"energy": -0.21295,
				"method": "rhf"
			},
			{
				"type": "occ",
				"energy": -0.19597,
				"method": "rhf"
			},
			{
				"type": "unocc",
				"energy": -0.02543,
				"method": "rhf"
			},
			{
				"type": "unocc",
				"energy": -0.00517,
				"method": "rhf"
			},
			{
				"type": "unocc",
				"energy": 0.04838,
				"method": "rhf"
			},
			{
				"type": "unocc",
				"energy": 0.05829,
				"method": "rhf"
			},
			{
				"type": "unocc",
				"energy": 0.08036,
				"method": "rhf"
			}
		],
		"cosmo_sigma_profile": { 
			"-0.025": 0.0,
			"-0.024": 0.0,
			"-0.023": 0.0,
			"-0.022": 0.0,
			"-0.021": 0.0,
			"-0.02": 0.0,
			"-0.019": 0.0,
			"-0.018": 0.0,
			"-0.017": 0.0,
			"-0.016": 0.242696030465,
			"-0.015": 0.898139069806,
			"-0.014": 0.706058908444,
			"-0.013": 1.02402866386,
			"-0.012": 0.9685399394,
			"-0.011": 0.904069646365,
			"-0.01": 0.629915368496,
			"-0.009": 1.23113644968,
			"-0.008": 1.23541119103,
			"-0.007": 1.08357000387,
			"-0.006": 3.30322679914,
			"-0.005": 13.6318012026,
			"-0.004": 15.5636443658,
			"-0.003": 22.7539918681,
			"-0.002": 35.2551853764,
			"-0.001": 44.3399699736,
			"0.0": 35.0576918858,
			"0.001": 22.6439537353,
			"0.002": 13.4266539107,
			"0.003": 14.9040286852,
			"0.004": 21.0857378435,
			"0.005": 21.2772367441,
			"0.006": 10.5473394015,
			"0.007": 2.38785685261,
			"0.008": 2.90289975457,
			"0.009": 2.89669965499,
			"0.01": 1.66260261146,
			"0.011": 0.0749350362321,
			"0.012": 0.0,
			"0.013": 0.0,
			"0.014": 0.0,
			"0.015": 0.0,
			"0.016": 0.0,
			"0.017": 0.0,
			"0.018": 0.0,
			"0.019": 0.0,
			"0.02": 0.0,
			"0.021": 0.0,
			"0.022": 0.0,
			"0.023": 0.0,
			"0.024": 0.0,
			"0.025": 0.0
		}
	}
}
