{
	 "smiles": "CS(=O)(=O)C1=CC(=CS1)C(O)=O", 
	 "Tm": 478.15, 
	 "num_atms": 18, 
	 "gaussian": { 
		 "optdone": 1, 
		 "sigma_profile": "yes", 
		 "theory": "DFT", 
		 "functional": "B3LYP", 
		 "basiset": "6-31G**", 
		 "properties": { 
			 "R2extent": 3041.0388, 
			 "electric_dipole_moment_norm": 3.18241355892, 
			 "electric_quadrupole_moment_norm": 27.3432622117, 
			 "total_energy": -1329.44337493, 
			 "HOMO_LUMO_gap": 0.20401, 
			 "cosmo_polarized_energy": -23.12, 
			 "cosmo_cavitation_energy": 26.3, 
			 "cosmo_dispersion_energy": -19.95, 
			 "cosmo_repulsion_energy": 1.5, 
			 "cosmo_total_nonelectrostatic_energy": 7.85, 
			 "SMD_solvation_energy": 5.44 
		},
		"coords": [
			{
				"x": 1.5477908725,
				"y": -1.9744977123,
				"z": 1.839389349,
				"element": "C" 
			},
			{
				"x": 1.5508154449,
				"y": -1.1853415155,
				"z": 0.2150381195,
				"element": "S" 
			},
			{
				"x": 1.0968974088,
				"y": -2.1783890868,
				"z": -0.7671936662,
				"element": "O" 
			},
			{
				"x": 2.8246934507,
				"y": -0.4714369208,
				"z": 0.0666032128,
				"element": "O" 
			},
			{
				"x": 0.2586075047,
				"y": 0.0387898269,
				"z": 0.3268455118,
				"element": "C" 
			},
			{
				"x": -1.0206543685,
				"y": -0.1233471182,
				"z": -0.1335373687,
				"element": "C" 
			},
			{
				"x": -1.8254327355,
				"y": 1.0384534065,
				"z": 0.0821165972,
				"element": "C" 
			},
			{
				"x": -1.1216396841,
				"y": 2.0446986416,
				"z": 0.7067866641,
				"element": "C" 
			},
			{
				"x": 0.5141725888,
				"y": 1.6198928239,
				"z": 1.0119915219,
				"element": "S" 
			},
			{
				"x": -3.261994649,
				"y": 1.2339407623,
				"z": -0.2740578656,
				"element": "C" 
			},
			{
				"x": -3.8084167513,
				"y": 0.3281392301,
				"z": -1.1245247175,
				"element": "O" 
			},
			{
				"x": -3.9273687649,
				"y": 2.1426702933,
				"z": 0.1617653186,
				"element": "O" 
			},
			{
				"x": 0.5755729621,
				"y": -2.4379002551,
				"z": 2.0109054878,
				"element": "H" 
			},
			{
				"x": 2.3327403436,
				"y": -2.7332912126,
				"z": 1.8087200075,
				"element": "H" 
			},
			{
				"x": 1.7729540931,
				"y": -1.2280328442,
				"z": 2.6022915745,
				"element": "H" 
			},
			{
				"x": -1.3417595572,
				"y": -1.0528330473,
				"z": -0.5911173394,
				"element": "H" 
			},
			{
				"x": -1.5101114719,
				"y": 3.0168574409,
				"z": 0.9785874083,
				"element": "H" 
			},
			{
				"x": -3.1329666868,
				"y": -0.2571727127,
				"z": -1.4939098156,
				"element": "H" 
			}
		],
		 "valence_orbital": [ 
			{
				"type": "occ",
				"energy": -0.31589,
				"method": "rhf"
			},
			{
				"type": "occ",
				"energy": -0.31299,
				"method": "rhf"
			},
			{
				"type": "occ",
				"energy": -0.29819,
				"method": "rhf"
			},
			{
				"type": "occ",
				"energy": -0.28848,
				"method": "rhf"
			},
			{
				"type": "occ",
				"energy": -0.28043,
				"method": "rhf"
			},
			{
				"type": "unocc",
				"energy": -0.07642,
				"method": "rhf"
			},
			{
				"type": "unocc",
				"energy": -0.03971,
				"method": "rhf"
			},
			{
				"type": "unocc",
				"energy": -0.00955,
				"method": "rhf"
			},
			{
				"type": "unocc",
				"energy": 0.03394,
				"method": "rhf"
			},
			{
				"type": "unocc",
				"energy": 0.04457,
				"method": "rhf"
			}
		],
		"cosmo_sigma_profile": { 
			"-0.025": 0.0,
			"-0.024": 0.0,
			"-0.023": 0.0,
			"-0.022": 0.0,
			"-0.021": 0.0,
			"-0.02": 0.222220983146,
			"-0.019": 1.22789362171,
			"-0.018": 0.956362781519,
			"-0.017": 1.16861439107,
			"-0.016": 1.21989034591,
			"-0.015": 0.994500017295,
			"-0.014": 1.25457992949,
			"-0.013": 0.960554395843,
			"-0.012": 1.03650835763,
			"-0.011": 2.20241358929,
			"-0.01": 3.36344270873,
			"-0.009": 8.07036358372,
			"-0.008": 9.46603551339,
			"-0.007": 9.92957713088,
			"-0.006": 9.16160755732,
			"-0.005": 11.0222976279,
			"-0.004": 11.0281580472,
			"-0.003": 9.68379686847,
			"-0.002": 10.1896659854,
			"-0.001": 17.0554555841,
			"0.0": 15.9637601805,
			"0.001": 10.2314578183,
			"0.002": 5.21833708243,
			"0.003": 3.70033716629,
			"0.004": 4.49830333311,
			"0.005": 5.07584524667,
			"0.006": 5.05737845715,
			"0.007": 4.98998711927,
			"0.008": 4.9288263097,
			"0.009": 7.93460704623,
			"0.01": 12.6432521261,
			"0.011": 15.1100003692,
			"0.012": 6.59651119372,
			"0.013": 0.798398429406,
			"0.014": 0.0,
			"0.015": 0.0,
			"0.016": 0.0,
			"0.017": 0.0,
			"0.018": 0.0,
			"0.019": 0.0,
			"0.02": 0.0,
			"0.021": 0.0,
			"0.022": 0.0,
			"0.023": 0.0,
			"0.024": 0.0,
			"0.025": 0.0
		}
	}
}
