{
	 "smiles": "NC(=O)C1=C(Cl)C=C(C=C1)[N+]([O-])=O", 
	 "Tm": 444.15, 
	 "num_atms": 18, 
	 "gaussian": { 
		 "optdone": 1, 
		 "sigma_profile": "yes", 
		 "theory": "DFT", 
		 "functional": "B3LYP", 
		 "basiset": "6-31G**", 
		 "properties": { 
			 "R2extent": 3571.7248, 
			 "electric_dipole_moment_norm": 3.74629992526, 
			 "electric_quadrupole_moment_norm": 18.2241679335, 
			 "total_energy": -1065.03527994, 
			 "HOMO_LUMO_gap": 0.16483, 
			 "cosmo_polarized_energy": -13.43, 
			 "cosmo_cavitation_energy": 25.32, 
			 "cosmo_dispersion_energy": -18.95, 
			 "cosmo_repulsion_energy": 1.49, 
			 "cosmo_total_nonelectrostatic_energy": 7.86, 
			 "SMD_solvation_energy": 7.14 
		},
		"coords": [
			{
				"x": 0.8861399592,
				"y": -3.0458230305,
				"z": 0.1473874849,
				"element": "N" 
			},
			{
				"x": 1.1455932896,
				"y": -1.7232064373,
				"z": -0.0138054244,
				"element": "C" 
			},
			{
				"x": 2.275355581,
				"y": -1.2627518247,
				"z": 0.1002775194,
				"element": "O" 
			},
			{
				"x": -0.0210689868,
				"y": -0.7780325966,
				"z": -0.2697018875,
				"element": "C" 
			},
			{
				"x": -1.2718792819,
				"y": -1.0530082276,
				"z": -0.8535456711,
				"element": "C" 
			},
			{
				"x": -1.7283738047,
				"y": -2.6496273007,
				"z": -1.4508143615,
				"element": "Cl" 
			},
			{
				"x": -2.2300291936,
				"y": -0.0557983786,
				"z": -1.0285700789,
				"element": "C" 
			},
			{
				"x": -1.9324737008,
				"y": 1.2342457866,
				"z": -0.6087144629,
				"element": "C" 
			},
			{
				"x": -0.7071714235,
				"y": 1.5610922192,
				"z": -0.0359002536,
				"element": "C" 
			},
			{
				"x": 0.2316785151,
				"y": 0.5504486854,
				"z": 0.1165154939,
				"element": "C" 
			},
			{
				"x": -2.9525618567,
				"y": 2.2849792162,
				"z": -0.7875392371,
				"element": "N" 
			},
			{
				"x": -4.0210009383,
				"y": 1.9587994657,
				"z": -1.3007948112,
				"element": "O" 
			},
			{
				"x": -2.6656459248,
				"y": 3.4183997745,
				"z": -0.409568598,
				"element": "O" 
			},
			{
				"x": 1.6828214595,
				"y": -3.6451426611,
				"z": 0.3031689759,
				"element": "H" 
			},
			{
				"x": -0.0195776456,
				"y": -3.4556502874,
				"z": -0.0100589104,
				"element": "H" 
			},
			{
				"x": -3.1878322636,
				"y": -0.2683221372,
				"z": -1.4844368039,
				"element": "H" 
			},
			{
				"x": -0.5087938659,
				"y": 2.5796626272,
				"z": 0.2717111884,
				"element": "H" 
			},
			{
				"x": 1.2091200818,
				"y": 0.758135107,
				"z": 0.536089838,
				"element": "H" 
			}
		],
		 "valence_orbital": [ 
			{
				"type": "occ",
				"energy": -0.3052,
				"method": "rhf"
			},
			{
				"type": "occ",
				"energy": -0.30053,
				"method": "rhf"
			},
			{
				"type": "occ",
				"energy": -0.28424,
				"method": "rhf"
			},
			{
				"type": "occ",
				"energy": -0.28396,
				"method": "rhf"
			},
			{
				"type": "occ",
				"energy": -0.27358,
				"method": "rhf"
			},
			{
				"type": "unocc",
				"energy": -0.10875,
				"method": "rhf"
			},
			{
				"type": "unocc",
				"energy": -0.04777,
				"method": "rhf"
			},
			{
				"type": "unocc",
				"energy": -0.03712,
				"method": "rhf"
			},
			{
				"type": "unocc",
				"energy": -0.00594,
				"method": "rhf"
			},
			{
				"type": "unocc",
				"energy": 0.0419,
				"method": "rhf"
			}
		],
		"cosmo_sigma_profile": { 
			"-0.025": 0.0,
			"-0.024": 0.0,
			"-0.023": 0.0,
			"-0.022": 0.0,
			"-0.021": 0.0,
			"-0.02": 0.0,
			"-0.019": 0.0,
			"-0.018": 0.0,
			"-0.017": 0.0,
			"-0.016": 0.0,
			"-0.015": 0.282249413785,
			"-0.014": 1.38815631917,
			"-0.013": 1.13440332739,
			"-0.012": 1.96685806441,
			"-0.011": 1.91038039722,
			"-0.01": 2.93440927163,
			"-0.009": 2.28409724249,
			"-0.008": 5.52984032748,
			"-0.007": 7.74159579696,
			"-0.006": 7.26480256703,
			"-0.005": 8.77672073245,
			"-0.004": 9.48666164366,
			"-0.003": 14.6896117782,
			"-0.002": 22.1263224812,
			"-0.001": 20.891875934,
			"0.0": 14.5160260003,
			"0.001": 11.4580345574,
			"0.002": 10.3122753301,
			"0.003": 10.1143507188,
			"0.004": 5.35595722864,
			"0.005": 5.52395045948,
			"0.006": 5.79161673462,
			"0.007": 11.2736305325,
			"0.008": 6.34624901898,
			"0.009": 4.24822710786,
			"0.01": 1.78319814448,
			"0.011": 2.26441221167,
			"0.012": 3.00614760186,
			"0.013": 4.67793765223,
			"0.014": 0.763566174087,
			"0.015": 0.0,
			"0.016": 0.0,
			"0.017": 0.0,
			"0.018": 0.0,
			"0.019": 0.0,
			"0.02": 0.0,
			"0.021": 0.0,
			"0.022": 0.0,
			"0.023": 0.0,
			"0.024": 0.0,
			"0.025": 0.0
		}
	}
}
