{
	 "smiles": "BrC1=CN(N=C1)C1=CC=NC=C1", 
	 "Tm": 399.15, 
	 "num_atms": 18, 
	 "gaussian": { 
		 "optdone": 1, 
		 "sigma_profile": "yes", 
		 "theory": "DFT", 
		 "functional": "B3LYP", 
		 "basiset": "6-31G**", 
		 "properties": { 
			 "R2extent": 7063.2794, 
			 "electric_dipole_moment_norm": 1.35243674529, 
			 "electric_quadrupole_moment_norm": 9.67624906562, 
			 "total_energy": -3044.08838068, 
			 "HOMO_LUMO_gap": 0.19094, 
			 "cosmo_polarized_energy": -9.33, 
			 "cosmo_cavitation_energy": 25.18, 
			 "cosmo_dispersion_energy": -19.31, 
			 "cosmo_repulsion_energy": 1.51, 
			 "cosmo_total_nonelectrostatic_energy": 7.38, 
			 "SMD_solvation_energy": 1.62 
		},
		"coords": [
			{
				"x": -0.5144525318,
				"y": -1.5429348591,
				"z": -6.0324231206,
				"element": "Br" 
			},
			{
				"x": -0.4559665637,
				"y": -0.642738773,
				"z": -4.3827622408,
				"element": "C" 
			},
			{
				"x": 0.1025934664,
				"y": -1.0994964004,
				"z": -3.2118617127,
				"element": "C" 
			},
			{
				"x": -0.0927235342,
				"y": -0.1098320935,
				"z": -2.2858292485,
				"element": "N" 
			},
			{
				"x": -0.7508416774,
				"y": 0.9565921304,
				"z": -2.8155101946,
				"element": "N" 
			},
			{
				"x": -0.972574141,
				"y": 0.6397137665,
				"z": -4.0822501466,
				"element": "C" 
			},
			{
				"x": 0.2970269518,
				"y": -0.0907308274,
				"z": -0.9261103135,
				"element": "C" 
			},
			{
				"x": 0.9736784096,
				"y": -1.1678860918,
				"z": -0.345456606,
				"element": "C" 
			},
			{
				"x": 1.3246442983,
				"y": -1.0745549679,
				"z": 1.0005922269,
				"element": "C" 
			},
			{
				"x": 1.057664739,
				"y": -0.0205609233,
				"z": 1.7793956042,
				"element": "N" 
			},
			{
				"x": 0.4086706894,
				"y": 0.9990389941,
				"z": 1.2008561038,
				"element": "C" 
			},
			{
				"x": 0.0064548979,
				"y": 1.022903941,
				"z": -0.1319825756,
				"element": "C" 
			},
			{
				"x": 0.6045544047,
				"y": -2.0266287572,
				"z": -2.9914437449,
				"element": "H" 
			},
			{
				"x": -1.4883702465,
				"y": 1.3246316392,
				"z": -4.740221421,
				"element": "H" 
			},
			{
				"x": 1.2286561687,
				"y": -2.059897743,
				"z": -0.9053009242,
				"element": "H" 
			},
			{
				"x": 1.8518534354,
				"y": -1.9014461659,
				"z": 1.4728516293,
				"element": "H" 
			},
			{
				"x": 0.1939719925,
				"y": 1.8540558371,
				"z": 1.839004015,
				"element": "H" 
			},
			{
				"x": -0.5160407589,
				"y": 1.8711712942,
				"z": -0.5539473303,
				"element": "H" 
			}
		],
		 "valence_orbital": [ 
			{
				"type": "occ",
				"energy": -0.29403,
				"method": "rhf"
			},
			{
				"type": "occ",
				"energy": -0.27494,
				"method": "rhf"
			},
			{
				"type": "occ",
				"energy": -0.26796,
				"method": "rhf"
			},
			{
				"type": "occ",
				"energy": -0.26344,
				"method": "rhf"
			},
			{
				"type": "occ",
				"energy": -0.24341,
				"method": "rhf"
			},
			{
				"type": "unocc",
				"energy": -0.05247,
				"method": "rhf"
			},
			{
				"type": "unocc",
				"energy": -0.0223,
				"method": "rhf"
			},
			{
				"type": "unocc",
				"energy": 0.00561,
				"method": "rhf"
			},
			{
				"type": "unocc",
				"energy": 0.01838,
				"method": "rhf"
			},
			{
				"type": "unocc",
				"energy": 0.04489,
				"method": "rhf"
			}
		],
		"cosmo_sigma_profile": { 
			"-0.025": 0.0,
			"-0.024": 0.0,
			"-0.023": 0.0,
			"-0.022": 0.0,
			"-0.021": 0.0,
			"-0.02": 0.0,
			"-0.019": 0.0,
			"-0.018": 0.0,
			"-0.017": 0.0,
			"-0.016": 0.0,
			"-0.015": 0.0,
			"-0.014": 0.0,
			"-0.013": 0.0679530721383,
			"-0.012": 1.40774221458,
			"-0.011": 2.17991460157,
			"-0.01": 1.90893503416,
			"-0.009": 3.02899235103,
			"-0.008": 4.39381686255,
			"-0.007": 7.08846479856,
			"-0.006": 10.9488047893,
			"-0.005": 9.07160693433,
			"-0.004": 10.7000879598,
			"-0.003": 9.95417011676,
			"-0.002": 10.877734956,
			"-0.001": 14.038537597,
			"0.0": 17.6187387179,
			"0.001": 26.5370175176,
			"0.002": 24.5450933404,
			"0.003": 12.7107886592,
			"0.004": 16.3168753862,
			"0.005": 4.63652838313,
			"0.006": 2.21272775344,
			"0.007": 3.12717415861,
			"0.008": 2.79820089401,
			"0.009": 2.69938691601,
			"0.01": 1.80377365576,
			"0.011": 2.16755471688,
			"0.012": 0.610800130806,
			"0.013": 1.2625218158,
			"0.014": 0.75314912566,
			"0.015": 0.699075045742,
			"0.016": 1.07308130269,
			"0.017": 0.12171106023,
			"0.018": 0.0,
			"0.019": 0.0,
			"0.02": 0.0,
			"0.021": 0.0,
			"0.022": 0.0,
			"0.023": 0.0,
			"0.024": 0.0,
			"0.025": 0.0
		}
	}
}
