{
	 "smiles": "SC1=CC=NC=C1", 
	 "Tm": 459.15, 
	 "num_atms": 12, 
	 "gaussian": { 
		 "optdone": 1, 
		 "sigma_profile": "yes", 
		 "theory": "DFT", 
		 "functional": "B3LYP", 
		 "basiset": "6-31G**", 
		 "properties": { 
			 "R2extent": 1406.4596, 
			 "electric_dipole_moment_norm": 1.82354671177, 
			 "electric_quadrupole_moment_norm": 9.97131766117, 
			 "total_energy": -646.472667655, 
			 "HOMO_LUMO_gap": 0.21593, 
			 "cosmo_polarized_energy": -8.02, 
			 "cosmo_cavitation_energy": 17.66, 
			 "cosmo_dispersion_energy": -13.86, 
			 "cosmo_repulsion_energy": 1.11, 
			 "cosmo_total_nonelectrostatic_energy": 4.9, 
			 "SMD_solvation_energy": 1.26 
		},
		"coords": [
			{
				"x": -0.6842123382,
				"y": 0.899626254,
				"z": -1.0025713654,
				"element": "S" 
			},
			{
				"x": -0.7474081217,
				"y": -0.8067589098,
				"z": -0.5039362006,
				"element": "C" 
			},
			{
				"x": -1.2645821927,
				"y": -1.7483298431,
				"z": -1.4025700384,
				"element": "C" 
			},
			{
				"x": -1.3139054739,
				"y": -3.084869184,
				"z": -1.0118724436,
				"element": "C" 
			},
			{
				"x": -0.8967562134,
				"y": -3.5394759692,
				"z": 0.1768806533,
				"element": "N" 
			},
			{
				"x": -0.4053462043,
				"y": -2.627628434,
				"z": 1.0242971264,
				"element": "C" 
			},
			{
				"x": -0.3070587312,
				"y": -1.2654060214,
				"z": 0.7429229531,
				"element": "C" 
			},
			{
				"x": -0.1437477219,
				"y": 1.3787251682,
				"z": 0.1342930634,
				"element": "H" 
			},
			{
				"x": -1.6215220344,
				"y": -1.4523355663,
				"z": -2.3840993037,
				"element": "H" 
			},
			{
				"x": -1.7128830593,
				"y": -3.8303054894,
				"z": -1.697773183,
				"element": "H" 
			},
			{
				"x": -0.0672760467,
				"y": -3.0011828366,
				"z": 1.9896462713,
				"element": "H" 
			},
			{
				"x": 0.1039981378,
				"y": -0.5863591684,
				"z": 1.4835824672,
				"element": "H" 
			}
		],
		 "valence_orbital": [ 
			{
				"type": "occ",
				"energy": -0.35935,
				"method": "rhf"
			},
			{
				"type": "occ",
				"energy": -0.32929,
				"method": "rhf"
			},
			{
				"type": "occ",
				"energy": -0.26879,
				"method": "rhf"
			},
			{
				"type": "occ",
				"energy": -0.25771,
				"method": "rhf"
			},
			{
				"type": "occ",
				"energy": -0.24287,
				"method": "rhf"
			},
			{
				"type": "unocc",
				"energy": -0.02694,
				"method": "rhf"
			},
			{
				"type": "unocc",
				"energy": -0.01673,
				"method": "rhf"
			},
			{
				"type": "unocc",
				"energy": 0.00377,
				"method": "rhf"
			},
			{
				"type": "unocc",
				"energy": 0.05962,
				"method": "rhf"
			},
			{
				"type": "unocc",
				"energy": 0.12013,
				"method": "rhf"
			}
		],
		"cosmo_sigma_profile": { 
			"-0.025": 0.0,
			"-0.024": 0.0,
			"-0.023": 0.0,
			"-0.022": 0.0,
			"-0.021": 0.0,
			"-0.02": 0.0,
			"-0.019": 0.0,
			"-0.018": 0.0,
			"-0.017": 0.0,
			"-0.016": 0.0,
			"-0.015": 0.0,
			"-0.014": 0.0,
			"-0.013": 0.0,
			"-0.012": 0.258670395632,
			"-0.011": 3.05447868759,
			"-0.01": 2.3381130637,
			"-0.009": 2.02731878401,
			"-0.008": 3.09672583305,
			"-0.007": 6.10655164754,
			"-0.006": 10.6573201684,
			"-0.005": 9.29446133863,
			"-0.004": 6.53207460112,
			"-0.003": 6.87119940041,
			"-0.002": 6.23962849987,
			"-0.001": 6.8336736132,
			"0.0": 8.23801463963,
			"0.001": 9.38605865571,
			"0.002": 18.9755307631,
			"0.003": 13.8487065925,
			"0.004": 5.48928099577,
			"0.005": 6.5324324393,
			"0.006": 3.21624069328,
			"0.007": 4.43525805363,
			"0.008": 2.76721710237,
			"0.009": 1.47329208769,
			"0.01": 0.525048793351,
			"0.011": 0.767415965319,
			"0.012": 1.35131263778,
			"0.013": 0.943489874227,
			"0.014": 0.627739587935,
			"0.015": 1.21375002984,
			"0.016": 0.756090255931,
			"0.017": 0.501058091573,
			"0.018": 0.0,
			"0.019": 0.0,
			"0.02": 0.0,
			"0.021": 0.0,
			"0.022": 0.0,
			"0.023": 0.0,
			"0.024": 0.0,
			"0.025": 0.0
		}
	}
}
