{
	 "smiles": "CCOC1=C(OC)C=C(C=C1)C(CN)C1=CNC2=C1C=CC=C2", 
	 "Tm": 388.15, 
	 "num_atms": 45, 
	 "gaussian": { 
		 "optdone": 1, 
		 "sigma_profile": "yes", 
		 "theory": "DFT", 
		 "functional": "B3LYP", 
		 "basiset": "6-31G**", 
		 "properties": { 
			 "R2extent": 10345.1642, 
			 "electric_dipole_moment_norm": 1.64403079351, 
			 "electric_quadrupole_moment_norm": 16.4504753773, 
			 "total_energy": -997.210874219, 
			 "HOMO_LUMO_gap": 0.19066, 
			 "cosmo_polarized_energy": -14.61, 
			 "cosmo_cavitation_energy": 47.04, 
			 "cosmo_dispersion_energy": -32.35, 
			 "cosmo_repulsion_energy": 2.52, 
			 "cosmo_total_nonelectrostatic_energy": 17.21, 
			 "SMD_solvation_energy": 7.89 
		},
		"coords": [
			{
				"x": -3.2334521095,
				"y": 4.3217644704,
				"z": -4.2122504693,
				"element": "C" 
			},
			{
				"x": -2.8264649918,
				"y": 3.2799350418,
				"z": -3.1857713469,
				"element": "C" 
			},
			{
				"x": -1.4690545183,
				"y": 2.8922900694,
				"z": -3.468392958,
				"element": "O" 
			},
			{
				"x": -0.9501123749,
				"y": 1.9290672828,
				"z": -2.6286329615,
				"element": "C" 
			},
			{
				"x": -0.630882308,
				"y": 2.2141133665,
				"z": -1.2880146369,
				"element": "C" 
			},
			{
				"x": -0.8756730408,
				"y": 3.4566018765,
				"z": -0.7384752152,
				"element": "O" 
			},
			{
				"x": -0.0248364071,
				"y": 4.4995246494,
				"z": -1.224354739,
				"element": "C" 
			},
			{
				"x": -0.0894619114,
				"y": 1.2158262578,
				"z": -0.4801097865,
				"element": "C" 
			},
			{
				"x": 0.1615233572,
				"y": -0.0734318843,
				"z": -0.9719307858,
				"element": "C" 
			},
			{
				"x": -0.1398392472,
				"y": -0.3407132621,
				"z": -2.3152169698,
				"element": "C" 
			},
			{
				"x": -0.69190224,
				"y": 0.652955361,
				"z": -3.1274242633,
				"element": "C" 
			},
			{
				"x": 0.7407150503,
				"y": -1.1214924817,
				"z": -0.0246995215,
				"element": "C" 
			},
			{
				"x": 1.8021748597,
				"y": -2.0558516237,
				"z": -0.6668283613,
				"element": "C" 
			},
			{
				"x": 1.2067844691,
				"y": -3.0477752632,
				"z": -1.5662787186,
				"element": "N" 
			},
			{
				"x": -0.3331514874,
				"y": -1.9186744976,
				"z": 0.6880939343,
				"element": "C" 
			},
			{
				"x": -1.6269091343,
				"y": -2.1304413531,
				"z": 0.2783123127,
				"element": "C" 
			},
			{
				"x": -2.2887289805,
				"y": -2.9336035812,
				"z": 1.1896214621,
				"element": "N" 
			},
			{
				"x": -1.431320689,
				"y": -3.2542858567,
				"z": 2.2215728087,
				"element": "C" 
			},
			{
				"x": -0.1829893857,
				"y": -2.6325233038,
				"z": 1.9369675506,
				"element": "C" 
			},
			{
				"x": 0.8753065961,
				"y": -2.7976891249,
				"z": 2.8489313618,
				"element": "C" 
			},
			{
				"x": 0.6726417617,
				"y": -3.5615539564,
				"z": 3.9919507932,
				"element": "C" 
			},
			{
				"x": -0.5725912732,
				"y": -4.1707882865,
				"z": 4.2492412805,
				"element": "C" 
			},
			{
				"x": -1.639971526,
				"y": -4.0250083447,
				"z": 3.3701925706,
				"element": "C" 
			},
			{
				"x": -4.270135186,
				"y": 4.6311634431,
				"z": -4.0451156151,
				"element": "H" 
			},
			{
				"x": -2.5942402646,
				"y": 5.2068924544,
				"z": -4.141706997,
				"element": "H" 
			},
			{
				"x": -3.1499647624,
				"y": 3.919259768,
				"z": -5.2259988112,
				"element": "H" 
			},
			{
				"x": -3.4730795713,
				"y": 2.3932498056,
				"z": -3.2508869924,
				"element": "H" 
			},
			{
				"x": -2.8938175915,
				"y": 3.6765735617,
				"z": -2.1662923077,
				"element": "H" 
			},
			{
				"x": -0.3369515353,
				"y": 5.4138610508,
				"z": -0.7146804965,
				"element": "H" 
			},
			{
				"x": 1.0248494274,
				"y": 4.290861684,
				"z": -0.9801492025,
				"element": "H" 
			},
			{
				"x": -0.1268895423,
				"y": 4.626161382,
				"z": -2.3068183564,
				"element": "H" 
			},
			{
				"x": 0.1354058639,
				"y": 1.4699149484,
				"z": 0.552351855,
				"element": "H" 
			},
			{
				"x": 0.0637681303,
				"y": -1.329584829,
				"z": -2.7122461112,
				"element": "H" 
			},
			{
				"x": -0.9308141556,
				"y": 0.4539274027,
				"z": -4.1680540225,
				"element": "H" 
			},
			{
				"x": 1.2869266252,
				"y": -0.5659364186,
				"z": 0.7504851076,
				"element": "H" 
			},
			{
				"x": 2.3813129623,
				"y": -2.5102609112,
				"z": 0.1553027135,
				"element": "H" 
			},
			{
				"x": 2.5002103284,
				"y": -1.4408396629,
				"z": -1.246948866,
				"element": "H" 
			},
			{
				"x": 1.9333547272,
				"y": -3.6489879244,
				"z": -1.9459664312,
				"element": "H" 
			},
			{
				"x": 0.5761056818,
				"y": -3.6431085771,
				"z": -1.0343789237,
				"element": "H" 
			},
			{
				"x": -2.1337900147,
				"y": -1.754808582,
				"z": -0.5983053838,
				"element": "H" 
			},
			{
				"x": -3.2569892592,
				"y": -3.2019637913,
				"z": 1.1292743508,
				"element": "H" 
			},
			{
				"x": 1.8396203936,
				"y": -2.3314222226,
				"z": 2.6661870306,
				"element": "H" 
			},
			{
				"x": 1.4843658624,
				"y": -3.6927153102,
				"z": 4.7016157503,
				"element": "H" 
			},
			{
				"x": -0.7014122913,
				"y": -4.7624601432,
				"z": 5.1508893562,
				"element": "H" 
			},
			{
				"x": -2.6007402969,
				"y": -4.4915226841,
				"z": 3.5703390125,
				"element": "H" 
			}
		],
		 "valence_orbital": [ 
			{
				"type": "occ",
				"energy": -0.23305,
				"method": "rhf"
			},
			{
				"type": "occ",
				"energy": -0.22885,
				"method": "rhf"
			},
			{
				"type": "occ",
				"energy": -0.21742,
				"method": "rhf"
			},
			{
				"type": "occ",
				"energy": -0.21455,
				"method": "rhf"
			},
			{
				"type": "occ",
				"energy": -0.19641,
				"method": "rhf"
			},
			{
				"type": "unocc",
				"energy": -0.00575,
				"method": "rhf"
			},
			{
				"type": "unocc",
				"energy": 0.00997,
				"method": "rhf"
			},
			{
				"type": "unocc",
				"energy": 0.01396,
				"method": "rhf"
			},
			{
				"type": "unocc",
				"energy": 0.03056,
				"method": "rhf"
			},
			{
				"type": "unocc",
				"energy": 0.0691,
				"method": "rhf"
			}
		],
		"cosmo_sigma_profile": { 
			"-0.025": 0.0,
			"-0.024": 0.0,
			"-0.023": 0.0,
			"-0.022": 0.0,
			"-0.021": 0.0,
			"-0.02": 0.0,
			"-0.019": 0.0,
			"-0.018": 0.0,
			"-0.017": 0.0,
			"-0.016": 0.253839667641,
			"-0.015": 1.22857258814,
			"-0.014": 1.60826796233,
			"-0.013": 1.10812261496,
			"-0.012": 1.00076571744,
			"-0.011": 1.2269239715,
			"-0.01": 1.9218015641,
			"-0.009": 3.26420335621,
			"-0.008": 2.73065029438,
			"-0.007": 4.43474796935,
			"-0.006": 9.0767301605,
			"-0.005": 15.6195244531,
			"-0.004": 28.4477486956,
			"-0.003": 39.3144620321,
			"-0.002": 41.9755135312,
			"-0.001": 33.8343267333,
			"0.0": 31.5820852692,
			"0.001": 23.3347930628,
			"0.002": 19.6486520612,
			"0.003": 18.0802059871,
			"0.004": 24.0104301698,
			"0.005": 22.2350848491,
			"0.006": 17.3639673623,
			"0.007": 11.7334833338,
			"0.008": 4.42543220956,
			"0.009": 3.04189618983,
			"0.01": 2.53565845308,
			"0.011": 2.88116562677,
			"0.012": 2.51509059424,
			"0.013": 0.532909962144,
			"0.014": 0.0428360253108,
			"0.015": 0.0,
			"0.016": 0.0,
			"0.017": 0.0,
			"0.018": 0.0,
			"0.019": 0.0,
			"0.02": 0.0,
			"0.021": 0.0,
			"0.022": 0.0,
			"0.023": 0.0,
			"0.024": 0.0,
			"0.025": 0.0
		}
	}
}
