{
	 "smiles": "OC(=O)[C@H]1CC=CC[C@H]1C(O)=O", 
	 "Tm": 440.65, 
	 "num_atms": 22, 
	 "gaussian": { 
		 "optdone": 1, 
		 "sigma_profile": "yes", 
		 "theory": "DFT", 
		 "functional": "B3LYP", 
		 "basiset": "6-31G**", 
		 "properties": { 
			 "R2extent": 2033.5477, 
			 "electric_dipole_moment_norm": 4.7491284232, 
			 "electric_quadrupole_moment_norm": 14.3715861839, 
			 "total_energy": -611.776024996, 
			 "HOMO_LUMO_gap": 0.24499, 
			 "cosmo_polarized_energy": -21.47, 
			 "cosmo_cavitation_energy": 25.14, 
			 "cosmo_dispersion_energy": -18.0, 
			 "cosmo_repulsion_energy": 1.46, 
			 "cosmo_total_nonelectrostatic_energy": 8.6, 
			 "SMD_solvation_energy": 6.09 
		},
		"coords": [
			{
				"x": 0.5964686976,
				"y": 0.3480810672,
				"z": -2.3553638138,
				"element": "O" 
			},
			{
				"x": -0.6241696686,
				"y": -0.1928817301,
				"z": -2.1423553925,
				"element": "C" 
			},
			{
				"x": -1.5689530893,
				"y": 0.0191272001,
				"z": -2.8699076174,
				"element": "O" 
			},
			{
				"x": -0.6921027197,
				"y": -1.0772618545,
				"z": -0.9027464299,
				"element": "C" 
			},
			{
				"x": 0.5141690329,
				"y": -2.0316268436,
				"z": -0.7408347719,
				"element": "C" 
			},
			{
				"x": 1.669039756,
				"y": -1.4468377762,
				"z": 0.0305122412,
				"element": "C" 
			},
			{
				"x": 1.6101735469,
				"y": -0.2933733829,
				"z": 0.699173162,
				"element": "C" 
			},
			{
				"x": 0.3738546775,
				"y": 0.5606973275,
				"z": 0.7703818861,
				"element": "C" 
			},
			{
				"x": -0.8887249155,
				"y": -0.2260973591,
				"z": 0.3939829054,
				"element": "C" 
			},
			{
				"x": -2.1035762707,
				"y": 0.7006916216,
				"z": 0.2811357499,
				"element": "C" 
			},
			{
				"x": -3.3187818485,
				"y": 0.0964187459,
				"z": 0.3430241505,
				"element": "O" 
			},
			{
				"x": -2.0303768963,
				"y": 1.8962071407,
				"z": 0.1450276453,
				"element": "O" 
			},
			{
				"x": 0.5067469158,
				"y": 0.9075488467,
				"z": -3.14604328,
				"element": "H" 
			},
			{
				"x": -1.5957068664,
				"y": -1.6728288424,
				"z": -1.0663460044,
				"element": "H" 
			},
			{
				"x": 0.1682103719,
				"y": -2.9479762141,
				"z": -0.2403951233,
				"element": "H" 
			},
			{
				"x": 0.8571157201,
				"y": -2.3550721535,
				"z": -1.731508384,
				"element": "H" 
			},
			{
				"x": 2.5925759536,
				"y": -2.0221435225,
				"z": 0.0225939668,
				"element": "H" 
			},
			{
				"x": 2.4922917841,
				"y": 0.0721732002,
				"z": 1.2205633282,
				"element": "H" 
			},
			{
				"x": 0.2499557239,
				"y": 0.9650043181,
				"z": 1.7821268035,
				"element": "H" 
			},
			{
				"x": 0.4671097803,
				"y": 1.4347865522,
				"z": 0.1155196183,
				"element": "H" 
			},
			{
				"x": -1.0916502256,
				"y": -0.951810253,
				"z": 1.1952291924,
				"element": "H" 
			},
			{
				"x": -3.2177694602,
				"y": -0.8602260883,
				"z": 0.4457301676,
				"element": "H" 
			}
		],
		 "valence_orbital": [ 
			{
				"type": "occ",
				"energy": -0.32171,
				"method": "rhf"
			},
			{
				"type": "occ",
				"energy": -0.31598,
				"method": "rhf"
			},
			{
				"type": "occ",
				"energy": -0.27951,
				"method": "rhf"
			},
			{
				"type": "occ",
				"energy": -0.27272,
				"method": "rhf"
			},
			{
				"type": "occ",
				"energy": -0.24958,
				"method": "rhf"
			},
			{
				"type": "unocc",
				"energy": -0.00459,
				"method": "rhf"
			},
			{
				"type": "unocc",
				"energy": 0.0027,
				"method": "rhf"
			},
			{
				"type": "unocc",
				"energy": 0.02311,
				"method": "rhf"
			},
			{
				"type": "unocc",
				"energy": 0.04042,
				"method": "rhf"
			},
			{
				"type": "unocc",
				"energy": 0.07389,
				"method": "rhf"
			}
		],
		"cosmo_sigma_profile": { 
			"-0.025": 0.0,
			"-0.024": 0.0,
			"-0.023": 0.0,
			"-0.022": 0.0,
			"-0.021": 0.0,
			"-0.02": 0.00431145374833,
			"-0.019": 0.609807647538,
			"-0.018": 1.75234921874,
			"-0.017": 2.35997035259,
			"-0.016": 2.14490616078,
			"-0.015": 2.19436723153,
			"-0.014": 1.32114891416,
			"-0.013": 1.51208913481,
			"-0.012": 2.46990690395,
			"-0.011": 2.30666974511,
			"-0.01": 2.2572611467,
			"-0.009": 1.77544104192,
			"-0.008": 2.47023344208,
			"-0.007": 4.54125449492,
			"-0.006": 6.2937807879,
			"-0.005": 13.1459930954,
			"-0.004": 14.2692847104,
			"-0.003": 16.170938176,
			"-0.002": 14.7985041509,
			"-0.001": 10.8204911915,
			"0.0": 8.65431274756,
			"0.001": 7.26302943214,
			"0.002": 6.20719438813,
			"0.003": 6.98495210395,
			"0.004": 5.11963325118,
			"0.005": 7.69234591881,
			"0.006": 7.00357268198,
			"0.007": 5.12894724486,
			"0.008": 6.29305211877,
			"0.009": 6.23579443907,
			"0.01": 8.04544162154,
			"0.011": 10.133504191,
			"0.012": 7.54382579988,
			"0.013": 1.24152730152,
			"0.014": 0.0,
			"0.015": 0.0,
			"0.016": 0.0,
			"0.017": 0.0,
			"0.018": 0.0,
			"0.019": 0.0,
			"0.02": 0.0,
			"0.021": 0.0,
			"0.022": 0.0,
			"0.023": 0.0,
			"0.024": 0.0,
			"0.025": 0.0
		}
	}
}
