{
	 "smiles": "CC(C)C1=C(C(=O)NC2=CC=CC=C2)C(=C(N1CC[C@@H](O)C[C@@H](O)CC(O)=O)C1=CC=C(F)C=C1)C1=CC=CC=C1", 
	 "Tm": 433.1, 
	 "num_atms": 76, 
	 "gaussian": { 
		 "optdone": 1, 
		 "sigma_profile": "yes", 
		 "theory": "DFT", 
		 "functional": "B3LYP", 
		 "basiset": "6-31G**", 
		 "properties": { 
			 "R2extent": 29499.4887, 
			 "electric_dipole_moment_norm": 1.48453369783, 
			 "electric_quadrupole_moment_norm": 39.4846346619, 
			 "total_energy": -1864.09989497, 
			 "HOMO_LUMO_gap": 0.1774, 
			 "cosmo_polarized_energy": -33.93, 
			 "cosmo_cavitation_energy": 76.26, 
			 "cosmo_dispersion_energy": -47.58, 
			 "cosmo_repulsion_energy": 3.6, 
			 "cosmo_total_nonelectrostatic_energy": 32.29, 
			 "SMD_solvation_energy": 13.74 
		},
		"coords": [
			{
				"x": -1.3696684405,
				"y": -0.4350577962,
				"z": -3.5345891971,
				"element": "C" 
			},
			{
				"x": -1.5770178268,
				"y": -1.4707953836,
				"z": -2.4131023725,
				"element": "C" 
			},
			{
				"x": -1.2487075698,
				"y": -2.9046974724,
				"z": -2.8822879098,
				"element": "C" 
			},
			{
				"x": -0.8505022439,
				"y": -1.1337835772,
				"z": -1.1257741928,
				"element": "C" 
			},
			{
				"x": 0.4850469898,
				"y": -0.7892397014,
				"z": -0.8877509149,
				"element": "C" 
			},
			{
				"x": 1.5483302029,
				"y": -0.7101513108,
				"z": -1.9243267438,
				"element": "C" 
			},
			{
				"x": 1.5400153396,
				"y": -1.3957177342,
				"z": -2.9488977302,
				"element": "O" 
			},
			{
				"x": 2.5462833578,
				"y": 0.2051321578,
				"z": -1.6574967145,
				"element": "N" 
			},
			{
				"x": 3.728115963,
				"y": 0.466208983,
				"z": -2.3775574411,
				"element": "C" 
			},
			{
				"x": 4.6542774294,
				"y": 1.3424095934,
				"z": -1.7843306954,
				"element": "C" 
			},
			{
				"x": 5.8409842626,
				"y": 1.6646176467,
				"z": -2.4356828247,
				"element": "C" 
			},
			{
				"x": 6.1290065759,
				"y": 1.1180517651,
				"z": -3.6882100554,
				"element": "C" 
			},
			{
				"x": 5.2104456965,
				"y": 0.2465819218,
				"z": -4.2745146987,
				"element": "C" 
			},
			{
				"x": 4.0139951726,
				"y": -0.084981926,
				"z": -3.6377216339,
				"element": "C" 
			},
			{
				"x": 0.6373715217,
				"y": -0.5693188858,
				"z": 0.5283440364,
				"element": "C" 
			},
			{
				"x": -0.5944491304,
				"y": -0.8051404541,
				"z": 1.1121124597,
				"element": "C" 
			},
			{
				"x": -1.4932261314,
				"y": -1.139490885,
				"z": 0.0986154698,
				"element": "N" 
			},
			{
				"x": -2.9180784061,
				"y": -1.3884857465,
				"z": 0.363557125,
				"element": "C" 
			},
			{
				"x": -3.7346270792,
				"y": -0.1417028299,
				"z": 0.756711479,
				"element": "C" 
			},
			{
				"x": -4.154274071,
				"y": 0.8312671171,
				"z": -0.3574324139,
				"element": "C" 
			},
			{
				"x": -3.0404870513,
				"y": 1.2876138723,
				"z": -1.1291093451,
				"element": "O" 
			},
			{
				"x": -5.1497132263,
				"y": 0.2747337838,
				"z": -1.3829967147,
				"element": "C" 
			},
			{
				"x": -6.4712861152,
				"y": -0.2079469031,
				"z": -0.7858890539,
				"element": "C" 
			},
			{
				"x": -6.9935382379,
				"y": 0.8242520254,
				"z": 0.0302961621,
				"element": "O" 
			},
			{
				"x": -7.4722971725,
				"y": -0.5886014343,
				"z": -1.8938801957,
				"element": "C" 
			},
			{
				"x": -8.798168967,
				"y": -1.0774635746,
				"z": -1.3294500309,
				"element": "C" 
			},
			{
				"x": -9.6271314059,
				"y": -1.7035204876,
				"z": -2.195042353,
				"element": "O" 
			},
			{
				"x": -9.1457292849,
				"y": -0.9206018449,
				"z": -0.1785945979,
				"element": "O" 
			},
			{
				"x": -0.9343538372,
				"y": -0.8984496602,
				"z": 2.5529338851,
				"element": "C" 
			},
			{
				"x": -1.0008685258,
				"y": 0.2433271188,
				"z": 3.3680673543,
				"element": "C" 
			},
			{
				"x": -1.284748694,
				"y": 0.1474731845,
				"z": 4.7304040916,
				"element": "C" 
			},
			{
				"x": -1.5115374551,
				"y": -1.1094385369,
				"z": 5.2774382668,
				"element": "C" 
			},
			{
				"x": -1.7918493906,
				"y": -1.211464769,
				"z": 6.5922604189,
				"element": "F" 
			},
			{
				"x": -1.4555046966,
				"y": -2.2662381415,
				"z": 4.5074574486,
				"element": "C" 
			},
			{
				"x": -1.1607391755,
				"y": -2.1519361192,
				"z": 3.1501854512,
				"element": "C" 
			},
			{
				"x": 1.8937427177,
				"y": -0.2898391564,
				"z": 1.2719779765,
				"element": "C" 
			},
			{
				"x": 2.1094686291,
				"y": 0.9472757345,
				"z": 1.9019081534,
				"element": "C" 
			},
			{
				"x": 3.2952113306,
				"y": 1.203288358,
				"z": 2.5958324585,
				"element": "C" 
			},
			{
				"x": 4.2886044274,
				"y": 0.2266807236,
				"z": 2.6673885988,
				"element": "C" 
			},
			{
				"x": 4.0908530018,
				"y": -1.0062536863,
				"z": 2.0397978862,
				"element": "C" 
			},
			{
				"x": 2.9074354669,
				"y": -1.2612249831,
				"z": 1.3494274105,
				"element": "C" 
			},
			{
				"x": -1.6654776809,
				"y": 0.5592341584,
				"z": -3.1918315851,
				"element": "H" 
			},
			{
				"x": -2.0011949396,
				"y": -0.7002785277,
				"z": -4.3903801738,
				"element": "H" 
			},
			{
				"x": -0.3346123808,
				"y": -0.4165306737,
				"z": -3.8759458711,
				"element": "H" 
			},
			{
				"x": -2.6461243895,
				"y": -1.4403049116,
				"z": -2.18778864,
				"element": "H" 
			},
			{
				"x": -0.1893805532,
				"y": -2.9816078223,
				"z": -3.1317844967,
				"element": "H" 
			},
			{
				"x": -1.8409946723,
				"y": -3.1542660784,
				"z": -3.7702571991,
				"element": "H" 
			},
			{
				"x": -1.4798861507,
				"y": -3.6411072237,
				"z": -2.1041080631,
				"element": "H" 
			},
			{
				"x": 2.467204722,
				"y": 0.7035929355,
				"z": -0.7825726266,
				"element": "H" 
			},
			{
				"x": 4.4409155667,
				"y": 1.7629644426,
				"z": -0.8041480179,
				"element": "H" 
			},
			{
				"x": 6.5430211303,
				"y": 2.3433774957,
				"z": -1.9593549306,
				"element": "H" 
			},
			{
				"x": 7.0548512846,
				"y": 1.3678884636,
				"z": -4.1975974986,
				"element": "H" 
			},
			{
				"x": 5.4212454092,
				"y": -0.1865301953,
				"z": -5.2486305999,
				"element": "H" 
			},
			{
				"x": 3.3037451669,
				"y": -0.7600423957,
				"z": -4.0920217531,
				"element": "H" 
			},
			{
				"x": -3.3465760717,
				"y": -1.8856732205,
				"z": -0.5055777831,
				"element": "H" 
			},
			{
				"x": -2.973611479,
				"y": -2.1043939805,
				"z": 1.1870586772,
				"element": "H" 
			},
			{
				"x": -4.6416652579,
				"y": -0.4778004074,
				"z": 1.2728748547,
				"element": "H" 
			},
			{
				"x": -3.167549124,
				"y": 0.4158025498,
				"z": 1.510962526,
				"element": "H" 
			},
			{
				"x": -4.6460660555,
				"y": 1.680483934,
				"z": 0.1368884631,
				"element": "H" 
			},
			{
				"x": -2.3605356914,
				"y": 1.6116715122,
				"z": -0.5246444063,
				"element": "H" 
			},
			{
				"x": -5.3469770623,
				"y": 1.0785062249,
				"z": -2.1018648285,
				"element": "H" 
			},
			{
				"x": -4.6870115671,
				"y": -0.5437910791,
				"z": -1.9471644322,
				"element": "H" 
			},
			{
				"x": -6.2897222558,
				"y": -1.1146145859,
				"z": -0.1837349026,
				"element": "H" 
			},
			{
				"x": -7.823394229,
				"y": 0.4742049394,
				"z": 0.3959496977,
				"element": "H" 
			},
			{
				"x": -7.6753235941,
				"y": 0.2953292842,
				"z": -2.5139008529,
				"element": "H" 
			},
			{
				"x": -7.0450683566,
				"y": -1.3555888354,
				"z": -2.5535040982,
				"element": "H" 
			},
			{
				"x": -9.2185626881,
				"y": -1.7626595456,
				"z": -3.0706146947,
				"element": "H" 
			},
			{
				"x": -0.8309140826,
				"y": 1.2207001937,
				"z": 2.9285890078,
				"element": "H" 
			},
			{
				"x": -1.3356071915,
				"y": 1.0257058984,
				"z": 5.3647748987,
				"element": "H" 
			},
			{
				"x": -1.6262606281,
				"y": -3.2301857048,
				"z": 4.9744987214,
				"element": "H" 
			},
			{
				"x": -1.0854875866,
				"y": -3.050396393,
				"z": 2.5445333746,
				"element": "H" 
			},
			{
				"x": 1.345131097,
				"y": 1.7161142061,
				"z": 1.8366138738,
				"element": "H" 
			},
			{
				"x": 3.4405359873,
				"y": 2.1661700467,
				"z": 3.0775938205,
				"element": "H" 
			},
			{
				"x": 5.2115051299,
				"y": 0.4241178238,
				"z": 3.2048961339,
				"element": "H" 
			},
			{
				"x": 4.8607925591,
				"y": -1.7709171498,
				"z": 2.08842483,
				"element": "H" 
			},
			{
				"x": 2.757271685,
				"y": -2.2199463641,
				"z": 0.8620902717,
				"element": "H" 
			}
		],
		 "valence_orbital": [ 
			{
				"type": "occ",
				"energy": -0.24319,
				"method": "rhf"
			},
			{
				"type": "occ",
				"energy": -0.23855,
				"method": "rhf"
			},
			{
				"type": "occ",
				"energy": -0.23414,
				"method": "rhf"
			},
			{
				"type": "occ",
				"energy": -0.20884,
				"method": "rhf"
			},
			{
				"type": "occ",
				"energy": -0.2017,
				"method": "rhf"
			},
			{
				"type": "unocc",
				"energy": -0.0243,
				"method": "rhf"
			},
			{
				"type": "unocc",
				"energy": -0.01763,
				"method": "rhf"
			},
			{
				"type": "unocc",
				"energy": -0.01367,
				"method": "rhf"
			},
			{
				"type": "unocc",
				"energy": -0.01284,
				"method": "rhf"
			},
			{
				"type": "unocc",
				"energy": -0.01095,
				"method": "rhf"
			}
		],
		"cosmo_sigma_profile": { 
			"-0.025": 0.0,
			"-0.024": 0.0,
			"-0.023": 0.0,
			"-0.022": 0.0,
			"-0.021": 0.0,
			"-0.02": 0.249157763837,
			"-0.019": 0.920812737256,
			"-0.018": 1.23608476764,
			"-0.017": 0.943167432432,
			"-0.016": 1.24480883338,
			"-0.015": 0.613692285953,
			"-0.014": 1.52510901257,
			"-0.013": 1.8193322658,
			"-0.012": 2.67822162517,
			"-0.011": 1.90607857089,
			"-0.01": 1.9959295961,
			"-0.009": 3.58015749297,
			"-0.008": 6.34822026261,
			"-0.007": 12.8929480254,
			"-0.006": 27.4817065028,
			"-0.005": 44.7980685004,
			"-0.004": 46.5124878343,
			"-0.003": 44.3616919363,
			"-0.002": 43.0557768305,
			"-0.001": 37.8339115323,
			"0.0": 37.2496398354,
			"0.001": 46.0118888576,
			"0.002": 50.0632061999,
			"0.003": 45.161615596,
			"0.004": 42.2435499293,
			"0.005": 30.1097605877,
			"0.006": 19.4371059487,
			"0.007": 8.88337009832,
			"0.008": 8.6226704189,
			"0.009": 8.19729847949,
			"0.01": 8.27773181478,
			"0.011": 7.2392697723,
			"0.012": 6.06564731012,
			"0.013": 2.73700507224,
			"0.014": 1.05366564366,
			"0.015": 0.0554994178229,
			"0.016": 0.0,
			"0.017": 0.0,
			"0.018": 0.0,
			"0.019": 0.0,
			"0.02": 0.0,
			"0.021": 0.0,
			"0.022": 0.0,
			"0.023": 0.0,
			"0.024": 0.0,
			"0.025": 0.0
		}
	}
}
