{
	 "smiles": "ClCC(=O)NCC1=CC=C(O1)C1=CC=C(Cl)C=C1", 
	 "Tm": 489.15, 
	 "num_atms": 29, 
	 "gaussian": { 
		 "optdone": 1, 
		 "sigma_profile": "yes", 
		 "theory": "DFT", 
		 "functional": "B3LYP", 
		 "basiset": "6-31G**", 
		 "properties": { 
			 "R2extent": 11968.6726, 
			 "electric_dipole_moment_norm": 5.75582386892, 
			 "electric_quadrupole_moment_norm": 32.285882895, 
			 "total_energy": -1627.5892854, 
			 "HOMO_LUMO_gap": 0.16743, 
			 "cosmo_polarized_energy": -19.31, 
			 "cosmo_cavitation_energy": 38.29, 
			 "cosmo_dispersion_energy": -27.72, 
			 "cosmo_repulsion_energy": 2.17, 
			 "cosmo_total_nonelectrostatic_energy": 12.74, 
			 "SMD_solvation_energy": 6.0 
		},
		"coords": [
			{
				"x": -6.2557286789,
				"y": 2.7559612477,
				"z": 0.9870207194,
				"element": "Cl" 
			},
			{
				"x": -4.479218626,
				"y": 2.9435322409,
				"z": 0.9515485121,
				"element": "C" 
			},
			{
				"x": -3.7598244188,
				"y": 1.6694312613,
				"z": 0.4807394106,
				"element": "C" 
			},
			{
				"x": -4.3337017234,
				"y": 0.6375048596,
				"z": 0.1876937902,
				"element": "O" 
			},
			{
				"x": -2.391465633,
				"y": 1.7796847604,
				"z": 0.4455456653,
				"element": "N" 
			},
			{
				"x": -1.5913195452,
				"y": 3.0004843863,
				"z": 0.5671719735,
				"element": "C" 
			},
			{
				"x": -0.1421378371,
				"y": 2.6807077118,
				"z": 0.6973916902,
				"element": "C" 
			},
			{
				"x": 0.7864827498,
				"y": 2.8763932929,
				"z": 1.676515287,
				"element": "C" 
			},
			{
				"x": 2.0167878243,
				"y": 2.3436959073,
				"z": 1.1837000795,
				"element": "C" 
			},
			{
				"x": 1.7622631843,
				"y": 1.8467037749,
				"z": -0.069240693,
				"element": "C" 
			},
			{
				"x": 0.438849649,
				"y": 2.0550149478,
				"z": -0.3727623994,
				"element": "O" 
			},
			{
				"x": 2.5799146354,
				"y": 1.1834468556,
				"z": -1.0766811275,
				"element": "C" 
			},
			{
				"x": 3.9381778201,
				"y": 0.913895911,
				"z": -0.8301779845,
				"element": "C" 
			},
			{
				"x": 4.728566853,
				"y": 0.2831583255,
				"z": -1.7847419225,
				"element": "C" 
			},
			{
				"x": 4.1618763317,
				"y": -0.0883915575,
				"z": -3.0051389548,
				"element": "C" 
			},
			{
				"x": 5.155268411,
				"y": -0.8853181476,
				"z": -4.2134336789,
				"element": "Cl" 
			},
			{
				"x": 2.8176587865,
				"y": 0.1655221147,
				"z": -3.2754047519,
				"element": "C" 
			},
			{
				"x": 2.0346722116,
				"y": 0.7985198418,
				"z": -2.3139955514,
				"element": "C" 
			},
			{
				"x": -4.2482122605,
				"y": 3.7811719592,
				"z": 0.2883053202,
				"element": "H" 
			},
			{
				"x": -4.1543090379,
				"y": 3.2092609906,
				"z": 1.9609516191,
				"element": "H" 
			},
			{
				"x": -1.9318348617,
				"y": 0.9668385741,
				"z": 0.0549350249,
				"element": "H" 
			},
			{
				"x": -1.8869630775,
				"y": 3.5594540583,
				"z": 1.460370991,
				"element": "H" 
			},
			{
				"x": -1.7465538131,
				"y": 3.6618888773,
				"z": -0.3000234582,
				"element": "H" 
			},
			{
				"x": 0.6146151869,
				"y": 3.34296587,
				"z": 2.6360395781,
				"element": "H" 
			},
			{
				"x": 2.965991534,
				"y": 2.3324417577,
				"z": 1.698690762,
				"element": "H" 
			},
			{
				"x": 4.3848500278,
				"y": 1.1977865604,
				"z": 0.1174534912,
				"element": "H" 
			},
			{
				"x": 5.7748676895,
				"y": 0.0788588779,
				"z": -1.5868535139,
				"element": "H" 
			},
			{
				"x": 2.3897196981,
				"y": -0.1286180477,
				"z": -4.2273003281,
				"element": "H" 
			},
			{
				"x": 0.9898069202,
				"y": 0.9982027881,
				"z": -2.5233195503,
				"element": "H" 
			}
		],
		 "valence_orbital": [ 
			{
				"type": "occ",
				"energy": -0.28255,
				"method": "rhf"
			},
			{
				"type": "occ",
				"energy": -0.27379,
				"method": "rhf"
			},
			{
				"type": "occ",
				"energy": -0.26677,
				"method": "rhf"
			},
			{
				"type": "occ",
				"energy": -0.26113,
				"method": "rhf"
			},
			{
				"type": "occ",
				"energy": -0.22045,
				"method": "rhf"
			},
			{
				"type": "unocc",
				"energy": -0.05302,
				"method": "rhf"
			},
			{
				"type": "unocc",
				"energy": -0.02306,
				"method": "rhf"
			},
			{
				"type": "unocc",
				"energy": 0.01202,
				"method": "rhf"
			},
			{
				"type": "unocc",
				"energy": 0.01492,
				"method": "rhf"
			},
			{
				"type": "unocc",
				"energy": 0.02333,
				"method": "rhf"
			}
		],
		"cosmo_sigma_profile": { 
			"-0.025": 0.0,
			"-0.024": 0.0,
			"-0.023": 0.0,
			"-0.022": 0.0,
			"-0.021": 0.0,
			"-0.02": 0.0,
			"-0.019": 0.0,
			"-0.018": 0.0,
			"-0.017": 0.0,
			"-0.016": 0.0,
			"-0.015": 0.0,
			"-0.014": 0.0,
			"-0.013": 0.358769667725,
			"-0.012": 0.775227651925,
			"-0.011": 0.803108847444,
			"-0.01": 3.18008970328,
			"-0.009": 8.02213794819,
			"-0.008": 10.7261991454,
			"-0.007": 18.4103424111,
			"-0.006": 17.4648479426,
			"-0.005": 16.3377721367,
			"-0.004": 13.8888271615,
			"-0.003": 13.6330306571,
			"-0.002": 12.670429598,
			"-0.001": 17.2413591755,
			"0.0": 17.5125035186,
			"0.001": 25.2844757132,
			"0.002": 30.4831441587,
			"0.003": 30.9521029486,
			"0.004": 27.2117481836,
			"0.005": 15.9795651669,
			"0.006": 7.4857618326,
			"0.007": 2.7701494631,
			"0.008": 1.78812100648,
			"0.009": 2.01522798205,
			"0.01": 1.47186646995,
			"0.011": 2.16367021772,
			"0.012": 2.85115606506,
			"0.013": 6.12401052398,
			"0.014": 2.89589468683,
			"0.015": 0.450185495266,
			"0.016": 0.0,
			"0.017": 0.0,
			"0.018": 0.0,
			"0.019": 0.0,
			"0.02": 0.0,
			"0.021": 0.0,
			"0.022": 0.0,
			"0.023": 0.0,
			"0.024": 0.0,
			"0.025": 0.0
		}
	}
}
