{
	 "smiles": "OC(=O)C1=CC=CC=C1OC1=CC=CC=C1", 
	 "Tm": 386.15, 
	 "num_atms": 26, 
	 "gaussian": { 
		 "optdone": 1, 
		 "sigma_profile": "yes", 
		 "theory": "DFT", 
		 "functional": "B3LYP", 
		 "basiset": "6-31G**", 
		 "properties": { 
			 "R2extent": 3958.0241, 
			 "electric_dipole_moment_norm": 6.52588427418, 
			 "electric_quadrupole_moment_norm": 19.773074459, 
			 "total_energy": -727.086459069, 
			 "HOMO_LUMO_gap": 0.19525, 
			 "cosmo_polarized_energy": -13.1, 
			 "cosmo_cavitation_energy": 30.68, 
			 "cosmo_dispersion_energy": -22.07, 
			 "cosmo_repulsion_energy": 1.71, 
			 "cosmo_total_nonelectrostatic_energy": 10.32, 
			 "SMD_solvation_energy": 6.53 
		},
		"coords": [
			{
				"x": 1.8898254709,
				"y": -0.2806437585,
				"z": 2.6511751589,
				"element": "O" 
			},
			{
				"x": 0.6807380264,
				"y": -0.4831248287,
				"z": 3.2056722931,
				"element": "C" 
			},
			{
				"x": 0.5847585315,
				"y": -0.8977404383,
				"z": 4.3403957662,
				"element": "O" 
			},
			{
				"x": -0.5411368482,
				"y": -0.1798244212,
				"z": 2.3707145031,
				"element": "C" 
			},
			{
				"x": -1.7826542946,
				"y": -0.3698674859,
				"z": 2.9969307143,
				"element": "C" 
			},
			{
				"x": -2.9788854881,
				"y": -0.1341445688,
				"z": 2.3294490555,
				"element": "C" 
			},
			{
				"x": -2.9513794889,
				"y": 0.307787824,
				"z": 1.0042360947,
				"element": "C" 
			},
			{
				"x": -1.7358146916,
				"y": 0.5100818112,
				"z": 0.3549291198,
				"element": "C" 
			},
			{
				"x": -0.5410336872,
				"y": 0.2625934028,
				"z": 1.0344789826,
				"element": "C" 
			},
			{
				"x": 0.6863528407,
				"y": 0.5121590708,
				"z": 0.4306754825,
				"element": "O" 
			},
			{
				"x": 0.8576474453,
				"y": 0.3154150254,
				"z": -0.9414410045,
				"element": "C" 
			},
			{
				"x": 1.4711985948,
				"y": 1.3407196741,
				"z": -1.6572559286,
				"element": "C" 
			},
			{
				"x": 1.7373434104,
				"y": 1.1539008014,
				"z": -3.0149508713,
				"element": "C" 
			},
			{
				"x": 1.3852989181,
				"y": -0.0414664455,
				"z": -3.6443099061,
				"element": "C" 
			},
			{
				"x": 0.7701158243,
				"y": -1.0585530123,
				"z": -2.9099097447,
				"element": "C" 
			},
			{
				"x": 0.5060229865,
				"y": -0.8899715023,
				"z": -1.5504332003,
				"element": "C" 
			},
			{
				"x": 1.782540656,
				"y": 0.0573613263,
				"z": 1.7425081073,
				"element": "H" 
			},
			{
				"x": -1.764920115,
				"y": -0.7140569857,
				"z": 4.0251457097,
				"element": "H" 
			},
			{
				"x": -3.9258053616,
				"y": -0.2907488688,
				"z": 2.8360042421,
				"element": "H" 
			},
			{
				"x": -3.8774596244,
				"y": 0.5040825419,
				"z": 0.4718640039,
				"element": "H" 
			},
			{
				"x": -1.7056930877,
				"y": 0.8618479707,
				"z": -0.6700352767,
				"element": "H" 
			},
			{
				"x": 1.7341542902,
				"y": 2.2613150324,
				"z": -1.1469734901,
				"element": "H" 
			},
			{
				"x": 2.2174658277,
				"y": 1.9475304922,
				"z": -3.579403141,
				"element": "H" 
			},
			{
				"x": 1.5913059743,
				"y": -0.1819570865,
				"z": -4.7008070984,
				"element": "H" 
			},
			{
				"x": 0.5013285537,
				"y": -1.9933174041,
				"z": -3.3927173048,
				"element": "H" 
			},
			{
				"x": 0.0384853365,
				"y": -1.6772781666,
				"z": -0.9686422672,
				"element": "H" 
			}
		],
		 "valence_orbital": [ 
			{
				"type": "occ",
				"energy": -0.27475,
				"method": "rhf"
			},
			{
				"type": "occ",
				"energy": -0.2692,
				"method": "rhf"
			},
			{
				"type": "occ",
				"energy": -0.26632,
				"method": "rhf"
			},
			{
				"type": "occ",
				"energy": -0.26309,
				"method": "rhf"
			},
			{
				"type": "occ",
				"energy": -0.24305,
				"method": "rhf"
			},
			{
				"type": "unocc",
				"energy": -0.0478,
				"method": "rhf"
			},
			{
				"type": "unocc",
				"energy": -0.02505,
				"method": "rhf"
			},
			{
				"type": "unocc",
				"energy": -0.01982,
				"method": "rhf"
			},
			{
				"type": "unocc",
				"energy": -0.00923,
				"method": "rhf"
			},
			{
				"type": "unocc",
				"energy": 0.05903,
				"method": "rhf"
			}
		],
		"cosmo_sigma_profile": { 
			"-0.025": 0.0,
			"-0.024": 0.0,
			"-0.023": 0.0,
			"-0.022": 0.0,
			"-0.021": 0.0,
			"-0.02": 0.0,
			"-0.019": 0.0,
			"-0.018": 0.0,
			"-0.017": 0.0,
			"-0.016": 0.0,
			"-0.015": 0.0,
			"-0.014": 0.0,
			"-0.013": 0.0,
			"-0.012": 0.0,
			"-0.011": 0.0,
			"-0.01": 0.27175021532,
			"-0.009": 1.18910330146,
			"-0.008": 1.05518696346,
			"-0.007": 9.29433823992,
			"-0.006": 19.3894509302,
			"-0.005": 22.2783991123,
			"-0.004": 20.4639331038,
			"-0.003": 15.656729577,
			"-0.002": 15.7387665115,
			"-0.001": 17.3839545893,
			"0.0": 16.6412036787,
			"0.001": 19.323390808,
			"0.002": 18.9346171182,
			"0.003": 20.33916174,
			"0.004": 14.3852900845,
			"0.005": 6.63423081427,
			"0.006": 2.83834860223,
			"0.007": 2.39655752185,
			"0.008": 1.49450475071,
			"0.009": 3.34947400354,
			"0.01": 3.73140457808,
			"0.011": 5.03623573826,
			"0.012": 6.06927401977,
			"0.013": 2.54870532827,
			"0.014": 0.497973866414,
			"0.015": 0.0,
			"0.016": 0.0,
			"0.017": 0.0,
			"0.018": 0.0,
			"0.019": 0.0,
			"0.02": 0.0,
			"0.021": 0.0,
			"0.022": 0.0,
			"0.023": 0.0,
			"0.024": 0.0,
			"0.025": 0.0
		}
	}
}
