{
	 "smiles": "[O-][N+](=O)C1=CC=C(C=C1)C1CN=C(NC2=CC=CC=C2)S1", 
	 "Tm": 410.15, 
	 "num_atms": 34, 
	 "gaussian": { 
		 "optdone": 1, 
		 "sigma_profile": "yes", 
		 "theory": "DFT", 
		 "functional": "B3LYP", 
		 "basiset": "6-31G**", 
		 "properties": { 
			 "R2extent": 9564.7731, 
			 "electric_dipole_moment_norm": 4.85053856185, 
			 "electric_quadrupole_moment_norm": 39.0135727768, 
			 "total_energy": -1292.21876072, 
			 "HOMO_LUMO_gap": 0.12912, 
			 "cosmo_polarized_energy": -15.41, 
			 "cosmo_cavitation_energy": 40.16, 
			 "cosmo_dispersion_energy": -29.23, 
			 "cosmo_repulsion_energy": 2.19, 
			 "cosmo_total_nonelectrostatic_energy": 13.12, 
			 "SMD_solvation_energy": 5.31 
		},
		"coords": [
			{
				"x": -5.9670913485,
				"y": 3.5025380845,
				"z": -0.7769042228,
				"element": "O" 
			},
			{
				"x": -5.5714314974,
				"y": 2.4066274115,
				"z": -0.3796581958,
				"element": "N" 
			},
			{
				"x": -6.2436671256,
				"y": 1.3755475335,
				"z": -0.3835542188,
				"element": "O" 
			},
			{
				"x": -4.1973718163,
				"y": 2.3232001996,
				"z": 0.1368099558,
				"element": "C" 
			},
			{
				"x": -3.4122676183,
				"y": 3.4726578311,
				"z": 0.1572296972,
				"element": "C" 
			},
			{
				"x": -2.1138150537,
				"y": 3.3825467994,
				"z": 0.6521337251,
				"element": "C" 
			},
			{
				"x": -1.5988891535,
				"y": 2.1647054174,
				"z": 1.1188914374,
				"element": "C" 
			},
			{
				"x": -2.4195282736,
				"y": 1.0240094363,
				"z": 1.0842090952,
				"element": "C" 
			},
			{
				"x": -3.7188888978,
				"y": 1.0960736416,
				"z": 0.595973598,
				"element": "C" 
			},
			{
				"x": -0.1842497607,
				"y": 2.098238625,
				"z": 1.6504596206,
				"element": "C" 
			},
			{
				"x": -0.0025206726,
				"y": 1.238053539,
				"z": 2.9391823592,
				"element": "C" 
			},
			{
				"x": 0.4105659253,
				"y": -0.113085335,
				"z": 2.611467021,
				"element": "N" 
			},
			{
				"x": 0.9573009547,
				"y": -0.1892304949,
				"z": 1.4557754457,
				"element": "C" 
			},
			{
				"x": 1.4833364422,
				"y": -1.3662956853,
				"z": 0.988314295,
				"element": "N" 
			},
			{
				"x": 2.0572983963,
				"y": -1.6789978406,
				"z": -0.2618835988,
				"element": "C" 
			},
			{
				"x": 2.9358511639,
				"y": -0.8079649359,
				"z": -0.9216863265,
				"element": "C" 
			},
			{
				"x": 3.4854264588,
				"y": -1.1746433764,
				"z": -2.1506254487,
				"element": "C" 
			},
			{
				"x": 3.2036965171,
				"y": -2.4187191531,
				"z": -2.715486947,
				"element": "C" 
			},
			{
				"x": 2.3562934237,
				"y": -3.3002996089,
				"z": -2.0402858214,
				"element": "C" 
			},
			{
				"x": 1.7790444349,
				"y": -2.9330004645,
				"z": -0.8273921161,
				"element": "C" 
			},
			{
				"x": 0.976621754,
				"y": 1.3032229319,
				"z": 0.4332398422,
				"element": "S" 
			},
			{
				"x": -3.8231517716,
				"y": 4.4063471676,
				"z": -0.2057015812,
				"element": "H" 
			},
			{
				"x": -1.4914819953,
				"y": 4.2728433046,
				"z": 0.6759844698,
				"element": "H" 
			},
			{
				"x": -2.0343490191,
				"y": 0.0751426343,
				"z": 1.444051146,
				"element": "H" 
			},
			{
				"x": -4.3650943225,
				"y": 0.2278800783,
				"z": 0.5642215317,
				"element": "H" 
			},
			{
				"x": 0.1860143735,
				"y": 3.1126002168,
				"z": 1.8145154679,
				"element": "H" 
			},
			{
				"x": 0.7573315921,
				"y": 1.7035762295,
				"z": 3.5833291078,
				"element": "H" 
			},
			{
				"x": -0.9388869776,
				"y": 1.222478116,
				"z": 3.507057403,
				"element": "H" 
			},
			{
				"x": 1.287005762,
				"y": -2.1408174241,
				"z": 1.6092124148,
				"element": "H" 
			},
			{
				"x": 3.2113714013,
				"y": 0.1365705342,
				"z": -0.4659415055,
				"element": "H" 
			},
			{
				"x": 4.1580645819,
				"y": -0.4871779977,
				"z": -2.655091898,
				"element": "H" 
			},
			{
				"x": 3.6446452171,
				"y": -2.7021128484,
				"z": -3.6660358832,
				"element": "H" 
			},
			{
				"x": 2.131261202,
				"y": -4.2744122229,
				"z": -2.4646463826,
				"element": "H" 
			},
			{
				"x": 1.0990557031,
				"y": -3.6099023444,
				"z": -0.3168634872,
				"element": "H" 
			}
		],
		 "valence_orbital": [ 
			{
				"type": "occ",
				"energy": -0.27601,
				"method": "rhf"
			},
			{
				"type": "occ",
				"energy": -0.26944,
				"method": "rhf"
			},
			{
				"type": "occ",
				"energy": -0.26119,
				"method": "rhf"
			},
			{
				"type": "occ",
				"energy": -0.2456,
				"method": "rhf"
			},
			{
				"type": "occ",
				"energy": -0.21809,
				"method": "rhf"
			},
			{
				"type": "unocc",
				"energy": -0.08897,
				"method": "rhf"
			},
			{
				"type": "unocc",
				"energy": -0.0288,
				"method": "rhf"
			},
			{
				"type": "unocc",
				"energy": -0.02266,
				"method": "rhf"
			},
			{
				"type": "unocc",
				"energy": -0.01613,
				"method": "rhf"
			},
			{
				"type": "unocc",
				"energy": -0.00613,
				"method": "rhf"
			}
		],
		"cosmo_sigma_profile": { 
			"-0.025": 0.0,
			"-0.024": 0.0,
			"-0.023": 0.0,
			"-0.022": 0.0,
			"-0.021": 0.0,
			"-0.02": 0.0,
			"-0.019": 0.0,
			"-0.018": 0.0,
			"-0.017": 0.0,
			"-0.016": 0.0,
			"-0.015": 0.247588103565,
			"-0.014": 0.898271127777,
			"-0.013": 0.896867185987,
			"-0.012": 1.40171290713,
			"-0.011": 0.793669071942,
			"-0.01": 0.953935465248,
			"-0.009": 1.73553019325,
			"-0.008": 4.79856447617,
			"-0.007": 10.3169588121,
			"-0.006": 18.2617687377,
			"-0.005": 23.9761977746,
			"-0.004": 25.2111895628,
			"-0.003": 23.2497391598,
			"-0.002": 21.3871053647,
			"-0.001": 22.4835760371,
			"0.0": 19.2097669552,
			"0.001": 25.5554373976,
			"0.002": 24.8726326772,
			"0.003": 17.776860137,
			"0.004": 17.2027819284,
			"0.005": 18.4401532157,
			"0.006": 9.68736204004,
			"0.007": 10.2115390224,
			"0.008": 9.30318573832,
			"0.009": 5.58110426572,
			"0.01": 4.01514115558,
			"0.011": 1.03102570155,
			"0.012": 1.16487516459,
			"0.013": 0.447696163152,
			"0.014": 0.82530662227,
			"0.015": 1.01784632958,
			"0.016": 0.500744654073,
			"0.017": 0.0188495466254,
			"0.018": 0.0,
			"0.019": 0.0,
			"0.02": 0.0,
			"0.021": 0.0,
			"0.022": 0.0,
			"0.023": 0.0,
			"0.024": 0.0,
			"0.025": 0.0
		}
	}
}
