{
	 "smiles": "CN(C)C1=C(C=C(C=C1)C(O)=O)[N+]([O-])=O", 
	 "Tm": 472.15, 
	 "num_atms": 25, 
	 "gaussian": { 
		 "optdone": 1, 
		 "sigma_profile": "yes", 
		 "theory": "DFT", 
		 "functional": "B3LYP", 
		 "basiset": "6-31G**", 
		 "properties": { 
			 "R2extent": 4175.1479, 
			 "electric_dipole_moment_norm": 6.1644661545, 
			 "electric_quadrupole_moment_norm": 17.151890411, 
			 "total_energy": -759.27555391, 
			 "HOMO_LUMO_gap": 0.14057, 
			 "cosmo_polarized_energy": -19.59, 
			 "cosmo_cavitation_energy": 29.2, 
			 "cosmo_dispersion_energy": -21.18, 
			 "cosmo_repulsion_energy": 1.63, 
			 "cosmo_total_nonelectrostatic_energy": 9.65, 
			 "SMD_solvation_energy": 8.31 
		},
		"coords": [
			{
				"x": 1.0173243105,
				"y": 3.472554479,
				"z": 0.1372998284,
				"element": "C" 
			},
			{
				"x": 0.9795946513,
				"y": 2.1066748611,
				"z": -0.3756325255,
				"element": "N" 
			},
			{
				"x": 2.0035942807,
				"y": 1.7896389874,
				"z": -1.3629707103,
				"element": "C" 
			},
			{
				"x": 0.2544292593,
				"y": 1.1084153452,
				"z": 0.2173868557,
				"element": "C" 
			},
			{
				"x": -0.9558743265,
				"y": 1.3152929011,
				"z": 0.9448904622,
				"element": "C" 
			},
			{
				"x": -1.5530577679,
				"y": 0.292041753,
				"z": 1.6852512995,
				"element": "C" 
			},
			{
				"x": -1.0364303029,
				"y": -0.9988993486,
				"z": 1.678372204,
				"element": "C" 
			},
			{
				"x": 0.0896952117,
				"y": -1.2505457178,
				"z": 0.8705987084,
				"element": "C" 
			},
			{
				"x": 0.7163437449,
				"y": -0.2377272279,
				"z": 0.1751690949,
				"element": "C" 
			},
			{
				"x": -1.6425650376,
				"y": -2.1450938887,
				"z": 2.4177272545,
				"element": "C" 
			},
			{
				"x": -2.5314360689,
				"y": -1.8495037933,
				"z": 3.4034151085,
				"element": "O" 
			},
			{
				"x": -1.3733532553,
				"y": -3.2996963174,
				"z": 2.1755719665,
				"element": "O" 
			},
			{
				"x": -1.7498333342,
				"y": 2.5402358688,
				"z": 0.8355764668,
				"element": "N" 
			},
			{
				"x": -2.4949853669,
				"y": 2.8271233494,
				"z": 1.7771906866,
				"element": "O" 
			},
			{
				"x": -1.6823699224,
				"y": 3.1846017667,
				"z": -0.2138336723,
				"element": "O" 
			},
			{
				"x": 0.6280272796,
				"y": 3.5091549386,
				"z": 1.1565673512,
				"element": "H" 
			},
			{
				"x": 0.4364480864,
				"y": 4.1646938614,
				"z": -0.4795874403,
				"element": "H" 
			},
			{
				"x": 2.0613378589,
				"y": 3.8027133861,
				"z": 0.1707396781,
				"element": "H" 
			},
			{
				"x": 2.1767488462,
				"y": 2.675870403,
				"z": -1.9779409236,
				"element": "H" 
			},
			{
				"x": 2.9604699194,
				"y": 1.4966694059,
				"z": -0.9057666361,
				"element": "H" 
			},
			{
				"x": 1.6672730678,
				"y": 0.988782983,
				"z": -2.0246637839,
				"element": "H" 
			},
			{
				"x": -2.4729222963,
				"y": 0.548436242,
				"z": 2.1996789036,
				"element": "H" 
			},
			{
				"x": 0.4744899266,
				"y": -2.2640996761,
				"z": 0.8319447568,
				"element": "H" 
			},
			{
				"x": 1.6188552824,
				"y": -0.4670152864,
				"z": -0.3768698936,
				"element": "H" 
			},
			{
				"x": -2.5280040467,
				"y": -0.9017192754,
				"z": 3.5949849597,
				"element": "H" 
			}
		],
		 "valence_orbital": [ 
			{
				"type": "occ",
				"energy": -0.30559,
				"method": "rhf"
			},
			{
				"type": "occ",
				"energy": -0.30069,
				"method": "rhf"
			},
			{
				"type": "occ",
				"energy": -0.281,
				"method": "rhf"
			},
			{
				"type": "occ",
				"energy": -0.27427,
				"method": "rhf"
			},
			{
				"type": "occ",
				"energy": -0.22926,
				"method": "rhf"
			},
			{
				"type": "unocc",
				"energy": -0.08869,
				"method": "rhf"
			},
			{
				"type": "unocc",
				"energy": -0.05236,
				"method": "rhf"
			},
			{
				"type": "unocc",
				"energy": -0.01989,
				"method": "rhf"
			},
			{
				"type": "unocc",
				"energy": 0.0417,
				"method": "rhf"
			},
			{
				"type": "unocc",
				"energy": 0.06336,
				"method": "rhf"
			}
		],
		"cosmo_sigma_profile": { 
			"-0.025": 0.0,
			"-0.024": 0.0,
			"-0.023": 0.0,
			"-0.022": 0.0,
			"-0.021": 0.0,
			"-0.02": 0.0398394782858,
			"-0.019": 0.638592199736,
			"-0.018": 0.981281048079,
			"-0.017": 1.00494142236,
			"-0.016": 1.19057515386,
			"-0.015": 0.694717849381,
			"-0.014": 0.661740364417,
			"-0.013": 1.0491840194,
			"-0.012": 1.23995113068,
			"-0.011": 0.897612802573,
			"-0.01": 0.708622397195,
			"-0.009": 1.31936419613,
			"-0.008": 2.40075618262,
			"-0.007": 7.3030791993,
			"-0.006": 16.1679685332,
			"-0.005": 20.13856828,
			"-0.004": 19.3011722944,
			"-0.003": 21.3203236682,
			"-0.002": 16.0792691736,
			"-0.001": 11.2134108661,
			"0.0": 13.731757164,
			"0.001": 13.733239991,
			"0.002": 9.55916848426,
			"0.003": 6.11566170247,
			"0.004": 4.90310413125,
			"0.005": 5.12144567217,
			"0.006": 6.46632057673,
			"0.007": 6.3848191038,
			"0.008": 11.8097502599,
			"0.009": 8.70549917093,
			"0.01": 8.31128504459,
			"0.011": 6.00778473803,
			"0.012": 5.209333952,
			"0.013": 1.90424750139,
			"0.014": 0.174692419034,
			"0.015": 0.0,
			"0.016": 0.0,
			"0.017": 0.0,
			"0.018": 0.0,
			"0.019": 0.0,
			"0.02": 0.0,
			"0.021": 0.0,
			"0.022": 0.0,
			"0.023": 0.0,
			"0.024": 0.0,
			"0.025": 0.0
		}
	}
}
