{
	 "smiles": "NC1=CC(C#N)=C(C=C1)C#N", 
	 "Tm": 454.15, 
	 "num_atms": 16, 
	 "gaussian": { 
		 "optdone": 1, 
		 "sigma_profile": "yes", 
		 "theory": "DFT", 
		 "functional": "B3LYP", 
		 "basiset": "6-31G**", 
		 "properties": { 
			 "R2extent": 3808.4539, 
			 "electric_dipole_moment_norm": 9.30987203779, 
			 "electric_quadrupole_moment_norm": 38.02709037, 
			 "total_energy": -472.08624634, 
			 "HOMO_LUMO_gap": 0.16906, 
			 "cosmo_polarized_energy": -20.72, 
			 "cosmo_cavitation_energy": 23.01, 
			 "cosmo_dispersion_energy": -15.75, 
			 "cosmo_repulsion_energy": 1.28, 
			 "cosmo_total_nonelectrostatic_energy": 8.54, 
			 "SMD_solvation_energy": 6.64 
		},
		"coords": [
			{
				"x": 1.1776782587,
				"y": -0.0841269362,
				"z": 0.9841586328,
				"element": "N" 
			},
			{
				"x": 1.1243673258,
				"y": -0.5337957028,
				"z": -0.3162559434,
				"element": "C" 
			},
			{
				"x": 1.6560866926,
				"y": 0.239558774,
				"z": -1.3645433584,
				"element": "C" 
			},
			{
				"x": 1.6457772933,
				"y": -0.2325971828,
				"z": -2.6780911662,
				"element": "C" 
			},
			{
				"x": 2.1972645858,
				"y": 0.5957417127,
				"z": -3.711144165,
				"element": "C" 
			},
			{
				"x": 2.6502952873,
				"y": 1.290302694,
				"z": -4.526061717,
				"element": "N" 
			},
			{
				"x": 1.0977964901,
				"y": -1.5030143432,
				"z": -2.9812042232,
				"element": "C" 
			},
			{
				"x": 0.569855796,
				"y": -2.267494803,
				"z": -1.9274428165,
				"element": "C" 
			},
			{
				"x": 0.5802849733,
				"y": -1.7981423128,
				"z": -0.62382409,
				"element": "C" 
			},
			{
				"x": 1.0712012261,
				"y": -2.0097381616,
				"z": -4.316567979,
				"element": "C" 
			},
			{
				"x": 1.0341566627,
				"y": -2.4491389935,
				"z": -5.3935770463,
				"element": "N" 
			},
			{
				"x": 0.5706866309,
				"y": -0.5226154647,
				"z": 1.6597198995,
				"element": "H" 
			},
			{
				"x": 1.3331363516,
				"y": 0.9004338649,
				"z": 1.1383037686,
				"element": "H" 
			},
			{
				"x": 2.0844658366,
				"y": 1.2149040941,
				"z": -1.1576154787,
				"element": "H" 
			},
			{
				"x": 0.1463776739,
				"y": -3.2415530751,
				"z": -2.1472388849,
				"element": "H" 
			},
			{
				"x": 0.1681689151,
				"y": -2.4116241639,
				"z": 0.1722845676,
				"element": "H" 
			}
		],
		 "valence_orbital": [ 
			{
				"type": "occ",
				"energy": -0.34012,
				"method": "rhf"
			},
			{
				"type": "occ",
				"energy": -0.33203,
				"method": "rhf"
			},
			{
				"type": "occ",
				"energy": -0.31998,
				"method": "rhf"
			},
			{
				"type": "occ",
				"energy": -0.28429,
				"method": "rhf"
			},
			{
				"type": "occ",
				"energy": -0.23999,
				"method": "rhf"
			},
			{
				"type": "unocc",
				"energy": -0.07093,
				"method": "rhf"
			},
			{
				"type": "unocc",
				"energy": -0.04518,
				"method": "rhf"
			},
			{
				"type": "unocc",
				"energy": 0.02051,
				"method": "rhf"
			},
			{
				"type": "unocc",
				"energy": 0.03834,
				"method": "rhf"
			},
			{
				"type": "unocc",
				"energy": 0.04689,
				"method": "rhf"
			}
		],
		"cosmo_sigma_profile": { 
			"-0.025": 0.0,
			"-0.024": 0.0,
			"-0.023": 0.0,
			"-0.022": 0.0,
			"-0.021": 0.0,
			"-0.02": 0.0,
			"-0.019": 0.0,
			"-0.018": 0.0,
			"-0.017": 0.0,
			"-0.016": 0.0,
			"-0.015": 0.383052809857,
			"-0.014": 2.75572918421,
			"-0.013": 3.94428907171,
			"-0.012": 3.40294632181,
			"-0.011": 3.01846997216,
			"-0.01": 3.46712644927,
			"-0.009": 4.90698923782,
			"-0.008": 7.1560272804,
			"-0.007": 6.72565343604,
			"-0.006": 7.00094037323,
			"-0.005": 5.62079364303,
			"-0.004": 6.49483450149,
			"-0.003": 9.46509978594,
			"-0.002": 10.1825192161,
			"-0.001": 12.4232850616,
			"0.0": 15.5472557271,
			"0.001": 14.6758393957,
			"0.002": 7.7813825734,
			"0.003": 5.43533384477,
			"0.004": 5.60458378103,
			"0.005": 5.8913039527,
			"0.006": 5.81146563973,
			"0.007": 6.98728508463,
			"0.008": 6.22430031348,
			"0.009": 7.78459803424,
			"0.01": 6.24631344949,
			"0.011": 5.47481321411,
			"0.012": 4.46752231221,
			"0.013": 1.94295855836,
			"0.014": 0.0453312264872,
			"0.015": 0.0,
			"0.016": 0.0,
			"0.017": 0.0,
			"0.018": 0.0,
			"0.019": 0.0,
			"0.02": 0.0,
			"0.021": 0.0,
			"0.022": 0.0,
			"0.023": 0.0,
			"0.024": 0.0,
			"0.025": 0.0
		}
	}
}
