{
	 "smiles": "CC1=C(C=CC=C1)N1C=NN=C1S", 
	 "Tm": 418.15, 
	 "num_atms": 22, 
	 "gaussian": { 
		 "optdone": 1, 
		 "sigma_profile": "yes", 
		 "theory": "DFT", 
		 "functional": "B3LYP", 
		 "basiset": "6-31G**", 
		 "properties": { 
			 "R2extent": 3212.247, 
			 "electric_dipole_moment_norm": 5.21777475654, 
			 "electric_quadrupole_moment_norm": 12.5428377499, 
			 "total_energy": -910.794705528, 
			 "HOMO_LUMO_gap": 0.20121, 
			 "cosmo_polarized_energy": -14.42, 
			 "cosmo_cavitation_energy": 27.89, 
			 "cosmo_dispersion_energy": -19.96, 
			 "cosmo_repulsion_energy": 1.53, 
			 "cosmo_total_nonelectrostatic_energy": 9.47, 
			 "SMD_solvation_energy": 3.25 
		},
		"coords": [
			{
				"x": 3.0221012871,
				"y": 1.6785302852,
				"z": -1.5630500843,
				"element": "C" 
			},
			{
				"x": 1.7583969111,
				"y": 2.183624673,
				"z": -0.9115398609,
				"element": "C" 
			},
			{
				"x": 0.6396076787,
				"y": 1.3500673993,
				"z": -0.7274426697,
				"element": "C" 
			},
			{
				"x": -0.5324826193,
				"y": 1.8154365552,
				"z": -0.1264783542,
				"element": "C" 
			},
			{
				"x": -0.6117821793,
				"y": 3.1368562444,
				"z": 0.3094946209,
				"element": "C" 
			},
			{
				"x": 0.4860015499,
				"y": 3.9809984847,
				"z": 0.1409700499,
				"element": "C" 
			},
			{
				"x": 1.6513954463,
				"y": 3.5055509344,
				"z": -0.4614839621,
				"element": "C" 
			},
			{
				"x": 0.6837629277,
				"y": -0.0116410584,
				"z": -1.1798082141,
				"element": "N" 
			},
			{
				"x": 0.2131517496,
				"y": -0.521932788,
				"z": -2.3718221208,
				"element": "C" 
			},
			{
				"x": 0.4258121512,
				"y": -1.8086644277,
				"z": -2.4476877623,
				"element": "N" 
			},
			{
				"x": 1.0555717548,
				"y": -2.1952907937,
				"z": -1.2768399921,
				"element": "N" 
			},
			{
				"x": 1.1980814077,
				"y": -1.1165667674,
				"z": -0.5422225681,
				"element": "C" 
			},
			{
				"x": 1.9287835413,
				"y": -1.0285664841,
				"z": 1.0640398323,
				"element": "S" 
			},
			{
				"x": 3.5230688509,
				"y": 0.9334286842,
				"z": -0.935061217,
				"element": "H" 
			},
			{
				"x": 3.7221710844,
				"y": 2.4996454908,
				"z": -1.7344678647,
				"element": "H" 
			},
			{
				"x": 2.8160577356,
				"y": 1.1987349069,
				"z": -2.5252125657,
				"element": "H" 
			},
			{
				"x": -1.3688894786,
				"y": 1.1343499335,
				"z": -0.0048464788,
				"element": "H" 
			},
			{
				"x": -1.5214456103,
				"y": 3.500402458,
				"z": 0.7768690699,
				"element": "H" 
			},
			{
				"x": 0.4363518031,
				"y": 5.0125506965,
				"z": 0.4769071833,
				"element": "H" 
			},
			{
				"x": 2.4995767648,
				"y": 4.1720394042,
				"z": -0.5915785084,
				"element": "H" 
			},
			{
				"x": -0.2631135526,
				"y": 0.0961009431,
				"z": -3.1193086932,
				"element": "H" 
			},
			{
				"x": 2.2298207959,
				"y": -2.3411547741,
				"z": 1.0633701603,
				"element": "H" 
			}
		],
		 "valence_orbital": [ 
			{
				"type": "occ",
				"energy": -0.29581,
				"method": "rhf"
			},
			{
				"type": "occ",
				"energy": -0.27985,
				"method": "rhf"
			},
			{
				"type": "occ",
				"energy": -0.26537,
				"method": "rhf"
			},
			{
				"type": "occ",
				"energy": -0.24935,
				"method": "rhf"
			},
			{
				"type": "occ",
				"energy": -0.23249,
				"method": "rhf"
			},
			{
				"type": "unocc",
				"energy": -0.03128,
				"method": "rhf"
			},
			{
				"type": "unocc",
				"energy": -0.02099,
				"method": "rhf"
			},
			{
				"type": "unocc",
				"energy": 0.01094,
				"method": "rhf"
			},
			{
				"type": "unocc",
				"energy": 0.01697,
				"method": "rhf"
			},
			{
				"type": "unocc",
				"energy": 0.04342,
				"method": "rhf"
			}
		],
		"cosmo_sigma_profile": { 
			"-0.025": 0.0,
			"-0.024": 0.0,
			"-0.023": 0.0,
			"-0.022": 0.0,
			"-0.021": 0.0,
			"-0.02": 0.0,
			"-0.019": 0.0,
			"-0.018": 0.0,
			"-0.017": 0.0,
			"-0.016": 0.0,
			"-0.015": 0.0,
			"-0.014": 0.0,
			"-0.013": 0.0315404561185,
			"-0.012": 1.38185732486,
			"-0.011": 1.89143395248,
			"-0.01": 3.45543720732,
			"-0.009": 2.55027734224,
			"-0.008": 3.07145620586,
			"-0.007": 5.60517452835,
			"-0.006": 12.8288640516,
			"-0.005": 16.5877118764,
			"-0.004": 17.5984379921,
			"-0.003": 14.6506071079,
			"-0.002": 18.8069875389,
			"-0.001": 17.4616493577,
			"0.0": 18.4008241837,
			"0.001": 15.6778238304,
			"0.002": 15.3054829955,
			"0.003": 13.3478527358,
			"0.004": 13.1995303196,
			"0.005": 5.25240056653,
			"0.006": 3.97639333174,
			"0.007": 1.76241180695,
			"0.008": 1.90896585122,
			"0.009": 2.07047379108,
			"0.01": 2.38828357153,
			"0.011": 1.94365927865,
			"0.012": 2.82575743904,
			"0.013": 4.21386042507,
			"0.014": 2.6635180463,
			"0.015": 2.51013436035,
			"0.016": 2.20057387522,
			"0.017": 0.353436005456,
			"0.018": 0.0,
			"0.019": 0.0,
			"0.02": 0.0,
			"0.021": 0.0,
			"0.022": 0.0,
			"0.023": 0.0,
			"0.024": 0.0,
			"0.025": 0.0
		}
	}
}
