{
	 "smiles": "CC1=CC=CC(C)=C1NC(=O)CN1CCNCC1", 
	 "Tm": 327.15, 
	 "num_atms": 39, 
	 "gaussian": { 
		 "optdone": 1, 
		 "sigma_profile": "yes", 
		 "theory": "DFT", 
		 "functional": "B3LYP", 
		 "basiset": "6-31G**", 
		 "properties": { 
			 "R2extent": 5961.3012, 
			 "electric_dipole_moment_norm": 3.31813183734, 
			 "electric_quadrupole_moment_norm": 17.6111907647, 
			 "total_energy": -785.628262153, 
			 "HOMO_LUMO_gap": 0.21536, 
			 "cosmo_polarized_energy": -14.58, 
			 "cosmo_cavitation_energy": 39.46, 
			 "cosmo_dispersion_energy": -27.23, 
			 "cosmo_repulsion_energy": 2.11, 
			 "cosmo_total_nonelectrostatic_energy": 14.34, 
			 "SMD_solvation_energy": 3.99 
		},
		"coords": [
			{
				"x": -0.4536364688,
				"y": -1.6169556065,
				"z": 2.8593558638,
				"element": "C" 
			},
			{
				"x": 0.2789264917,
				"y": -0.30518742,
				"z": 3.0171822065,
				"element": "C" 
			},
			{
				"x": 0.718129916,
				"y": 0.1132452779,
				"z": 4.2761882017,
				"element": "C" 
			},
			{
				"x": 1.4072872291,
				"y": 1.3147879436,
				"z": 4.4286552633,
				"element": "C" 
			},
			{
				"x": 1.646098888,
				"y": 2.1185429706,
				"z": 3.3174221905,
				"element": "C" 
			},
			{
				"x": 1.2099715602,
				"y": 1.748124712,
				"z": 2.0387587255,
				"element": "C" 
			},
			{
				"x": 1.4381047195,
				"y": 2.6684694132,
				"z": 0.8672143456,
				"element": "C" 
			},
			{
				"x": 0.5390397303,
				"y": 0.5167308907,
				"z": 1.900650301,
				"element": "C" 
			},
			{
				"x": 0.0566941101,
				"y": 0.0857995473,
				"z": 0.6319856687,
				"element": "N" 
			},
			{
				"x": 0.8022320551,
				"y": -0.1480198197,
				"z": -0.4918455728,
				"element": "C" 
			},
			{
				"x": 1.997019606,
				"y": 0.0788144006,
				"z": -0.618994177,
				"element": "O" 
			},
			{
				"x": -0.0000442984,
				"y": -0.8038565826,
				"z": -1.6325834664,
				"element": "C" 
			},
			{
				"x": -1.4469086998,
				"y": -0.6960899883,
				"z": -1.4905456886,
				"element": "N" 
			},
			{
				"x": -2.2375830513,
				"y": -1.8288633399,
				"z": -2.0216125471,
				"element": "C" 
			},
			{
				"x": -2.8836376866,
				"y": -1.5237031072,
				"z": -3.3745691276,
				"element": "C" 
			},
			{
				"x": -3.8485414012,
				"y": -0.4243785475,
				"z": -3.2119770032,
				"element": "N" 
			},
			{
				"x": -3.4640022005,
				"y": 0.5444377097,
				"z": -2.1717554393,
				"element": "C" 
			},
			{
				"x": -1.952491978,
				"y": 0.6141414989,
				"z": -1.9442320278,
				"element": "C" 
			},
			{
				"x": 0.0059363492,
				"y": -2.2444242093,
				"z": 2.0878853886,
				"element": "H" 
			},
			{
				"x": -1.503750678,
				"y": -1.4736384698,
				"z": 2.5708989707,
				"element": "H" 
			},
			{
				"x": -0.45135316,
				"y": -2.1765292086,
				"z": 3.7981387323,
				"element": "H" 
			},
			{
				"x": 0.5251148029,
				"y": -0.5176643706,
				"z": 5.1399181038,
				"element": "H" 
			},
			{
				"x": 1.7504350185,
				"y": 1.6261228844,
				"z": 5.4111148224,
				"element": "H" 
			},
			{
				"x": 2.1690243501,
				"y": 3.0638844288,
				"z": 3.4361693369,
				"element": "H" 
			},
			{
				"x": 1.7580973285,
				"y": 3.6563001988,
				"z": 1.209483648,
				"element": "H" 
			},
			{
				"x": 0.5215646657,
				"y": 2.7912175305,
				"z": 0.2786215005,
				"element": "H" 
			},
			{
				"x": 2.1950233652,
				"y": 2.2599267833,
				"z": 0.1917288197,
				"element": "H" 
			},
			{
				"x": -0.887944555,
				"y": -0.2831625514,
				"z": 0.5591305251,
				"element": "H" 
			},
			{
				"x": 0.2888711112,
				"y": -1.8609561288,
				"z": -1.625857783,
				"element": "H" 
			},
			{
				"x": 0.3883122342,
				"y": -0.3755431019,
				"z": -2.5711793848,
				"element": "H" 
			},
			{
				"x": -3.0320351521,
				"y": -2.0848178323,
				"z": -1.308424271,
				"element": "H" 
			},
			{
				"x": -1.5904096895,
				"y": -2.7062935881,
				"z": -2.1041057838,
				"element": "H" 
			},
			{
				"x": -2.0850058063,
				"y": -1.2956567697,
				"z": -4.1017326282,
				"element": "H" 
			},
			{
				"x": -3.4044514951,
				"y": -2.4165502667,
				"z": -3.7442552311,
				"element": "H" 
			},
			{
				"x": -3.9732189218,
				"y": 0.0533214085,
				"z": -4.0979221826,
				"element": "H" 
			},
			{
				"x": -3.9506962134,
				"y": 0.2794827898,
				"z": -1.2229683233,
				"element": "H" 
			},
			{
				"x": -3.842102643,
				"y": 1.5333613133,
				"z": -2.4478679077,
				"element": "H" 
			},
			{
				"x": -1.4598652112,
				"y": 0.92396398,
				"z": -2.8843654861,
				"element": "H" 
			},
			{
				"x": -1.7075042213,
				"y": 1.3756152267,
				"z": -1.1936085831,
				"element": "H" 
			}
		],
		 "valence_orbital": [ 
			{
				"type": "occ",
				"energy": -0.25016,
				"method": "rhf"
			},
			{
				"type": "occ",
				"energy": -0.23078,
				"method": "rhf"
			},
			{
				"type": "occ",
				"energy": -0.22756,
				"method": "rhf"
			},
			{
				"type": "occ",
				"energy": -0.22093,
				"method": "rhf"
			},
			{
				"type": "occ",
				"energy": -0.21533,
				"method": "rhf"
			},
			{
				"type": "unocc",
				"energy": 3e-05,
				"method": "rhf"
			},
			{
				"type": "unocc",
				"energy": 0.01096,
				"method": "rhf"
			},
			{
				"type": "unocc",
				"energy": 0.03585,
				"method": "rhf"
			},
			{
				"type": "unocc",
				"energy": 0.06143,
				"method": "rhf"
			},
			{
				"type": "unocc",
				"energy": 0.08405,
				"method": "rhf"
			}
		],
		"cosmo_sigma_profile": { 
			"-0.025": 0.0,
			"-0.024": 0.0,
			"-0.023": 0.0,
			"-0.022": 0.0,
			"-0.021": 0.0,
			"-0.02": 0.0,
			"-0.019": 0.0,
			"-0.018": 0.0,
			"-0.017": 0.0,
			"-0.016": 0.0,
			"-0.015": 0.0,
			"-0.014": 0.0,
			"-0.013": 0.0,
			"-0.012": 0.0,
			"-0.011": 0.0,
			"-0.01": 0.703199556052,
			"-0.009": 2.23384782087,
			"-0.008": 2.3658472718,
			"-0.007": 4.70698130491,
			"-0.006": 6.41008179345,
			"-0.005": 15.6598997912,
			"-0.004": 23.9280810827,
			"-0.003": 42.4814041752,
			"-0.002": 46.5067024571,
			"-0.001": 33.8700307974,
			"0.0": 27.8464940567,
			"0.001": 20.6965223793,
			"0.002": 12.7041561369,
			"0.003": 11.0048292978,
			"0.004": 9.11382986804,
			"0.005": 8.89772005798,
			"0.006": 10.5203436114,
			"0.007": 4.85317337797,
			"0.008": 2.52467983942,
			"0.009": 2.30079690326,
			"0.01": 2.25150398687,
			"0.011": 2.10500852389,
			"0.012": 2.93576544101,
			"0.013": 3.64095128633,
			"0.014": 4.33681950992,
			"0.015": 1.71971236329,
			"0.016": 0.580850670235,
			"0.017": 0.550239981987,
			"0.018": 0.473504651683,
			"0.019": 0.13726775732,
			"0.02": 0.0,
			"0.021": 0.0,
			"0.022": 0.0,
			"0.023": 0.0,
			"0.024": 0.0,
			"0.025": 0.0
		}
	}
}
