{
	 "smiles": "O=C1CCOCCN1", 
	 "Tm": 354.15, 
	 "num_atms": 17, 
	 "gaussian": { 
		 "optdone": 1, 
		 "sigma_profile": "yes", 
		 "theory": "DFT", 
		 "functional": "B3LYP", 
		 "basiset": "6-31G**", 
		 "properties": { 
			 "R2extent": 1073.7942, 
			 "electric_dipole_moment_norm": 2.8985822707, 
			 "electric_quadrupole_moment_norm": 15.1371901309, 
			 "total_energy": -401.146591479, 
			 "HOMO_LUMO_gap": 0.26869, 
			 "cosmo_polarized_energy": -12.69, 
			 "cosmo_cavitation_energy": 19.07, 
			 "cosmo_dispersion_energy": -14.83, 
			 "cosmo_repulsion_energy": 1.24, 
			 "cosmo_total_nonelectrostatic_energy": 5.48, 
			 "SMD_solvation_energy": 3.16 
		},
		"coords": [
			{
				"x": -2.4999312242,
				"y": 0.6910743558,
				"z": -1.7538988934,
				"element": "O" 
			},
			{
				"x": -1.6684751779,
				"y": 0.2050975522,
				"z": -0.9967206275,
				"element": "C" 
			},
			{
				"x": -1.2592524269,
				"y": 0.9342971934,
				"z": 0.2839548128,
				"element": "C" 
			},
			{
				"x": 0.1676932208,
				"y": 0.712915714,
				"z": 0.7893522131,
				"element": "C" 
			},
			{
				"x": 0.3715433712,
				"y": -0.4901751871,
				"z": 1.5199949459,
				"element": "O" 
			},
			{
				"x": -0.2368497254,
				"y": -1.6534915792,
				"z": 0.9867518075,
				"element": "C" 
			},
			{
				"x": -0.1247149131,
				"y": -1.802463522,
				"z": -0.531023907,
				"element": "C" 
			},
			{
				"x": -1.0937291735,
				"y": -1.0088243269,
				"z": -1.2813335048,
				"element": "N" 
			},
			{
				"x": -1.9779013316,
				"y": 0.6890333205,
				"z": 1.0760235646,
				"element": "H" 
			},
			{
				"x": -1.4039021986,
				"y": 1.9945244871,
				"z": 0.0587939542,
				"element": "H" 
			},
			{
				"x": 0.4363438554,
				"y": 1.514265741,
				"z": 1.4839083882,
				"element": "H" 
			},
			{
				"x": 0.8704288071,
				"y": 0.7712450941,
				"z": -0.0570504046,
				"element": "H" 
			},
			{
				"x": -1.2995958897,
				"y": -1.714116343,
				"z": 1.2694554499,
				"element": "H" 
			},
			{
				"x": 0.2790847292,
				"y": -2.4932669842,
				"z": 1.4632466895,
				"element": "H" 
			},
			{
				"x": -0.3142100301,
				"y": -2.8528828194,
				"z": -0.7773182495,
				"element": "H" 
			},
			{
				"x": 0.9086032177,
				"y": -1.5841466514,
				"z": -0.8381441209,
				"element": "H" 
			},
			{
				"x": -1.4202351105,
				"y": -1.3846860449,
				"z": -2.1619921179,
				"element": "H" 
			}
		],
		 "valence_orbital": [ 
			{
				"type": "occ",
				"energy": -0.34845,
				"method": "rhf"
			},
			{
				"type": "occ",
				"energy": -0.31911,
				"method": "rhf"
			},
			{
				"type": "occ",
				"energy": -0.26188,
				"method": "rhf"
			},
			{
				"type": "occ",
				"energy": -0.24968,
				"method": "rhf"
			},
			{
				"type": "occ",
				"energy": -0.24166,
				"method": "rhf"
			},
			{
				"type": "unocc",
				"energy": 0.02703,
				"method": "rhf"
			},
			{
				"type": "unocc",
				"energy": 0.06702,
				"method": "rhf"
			},
			{
				"type": "unocc",
				"energy": 0.10187,
				"method": "rhf"
			},
			{
				"type": "unocc",
				"energy": 0.10595,
				"method": "rhf"
			},
			{
				"type": "unocc",
				"energy": 0.11986,
				"method": "rhf"
			}
		],
		"cosmo_sigma_profile": { 
			"-0.025": 0.0,
			"-0.024": 0.0,
			"-0.023": 0.0,
			"-0.022": 0.0,
			"-0.021": 0.0,
			"-0.02": 0.0,
			"-0.019": 0.0,
			"-0.018": 0.0,
			"-0.017": 0.0,
			"-0.016": 0.0,
			"-0.015": 0.0,
			"-0.014": 0.111754007181,
			"-0.013": 1.08601036562,
			"-0.012": 0.866030419577,
			"-0.011": 1.18183063776,
			"-0.01": 1.18301395022,
			"-0.009": 1.23749862502,
			"-0.008": 1.04148276262,
			"-0.007": 2.45579133827,
			"-0.006": 8.50971173902,
			"-0.005": 18.6633949709,
			"-0.004": 22.2089682894,
			"-0.003": 16.9127252443,
			"-0.002": 12.0732883601,
			"-0.001": 7.16147735349,
			"0.0": 4.88038655334,
			"0.001": 4.45304520022,
			"0.002": 3.99296064099,
			"0.003": 3.44014539236,
			"0.004": 3.54490213493,
			"0.005": 2.20456486152,
			"0.006": 2.20315475351,
			"0.007": 2.15854139104,
			"0.008": 2.75906102165,
			"0.009": 2.55109737932,
			"0.01": 1.5948023323,
			"0.011": 2.99179367272,
			"0.012": 2.66387573612,
			"0.013": 4.26721923363,
			"0.014": 6.26872175657,
			"0.015": 3.47108484826,
			"0.016": 0.18370577203,
			"0.017": 0.0,
			"0.018": 0.0,
			"0.019": 0.0,
			"0.02": 0.0,
			"0.021": 0.0,
			"0.022": 0.0,
			"0.023": 0.0,
			"0.024": 0.0,
			"0.025": 0.0
		}
	}
}
