{
	 "smiles": "O=C(NC1=CC=C(C=C1)C#CC1=CC=C(NC(=O)C2=CC=CC=C2)C=C1)C1=CC=CC=C1", 
	 "Tm": 605.15, 
	 "num_atms": 52, 
	 "gaussian": { 
		 "optdone": 1, 
		 "sigma_profile": "yes", 
		 "theory": "DFT", 
		 "functional": "B3LYP", 
		 "basiset": "6-31G**", 
		 "properties": { 
			 "R2extent": 36612.617, 
			 "electric_dipole_moment_norm": 5.88063329498, 
			 "electric_quadrupole_moment_norm": 24.5259206394, 
			 "total_energy": -1338.97212237, 
			 "HOMO_LUMO_gap": 0.13893, 
			 "cosmo_polarized_energy": -23.95, 
			 "cosmo_cavitation_energy": 59.6, 
			 "cosmo_dispersion_energy": -41.88, 
			 "cosmo_repulsion_energy": 3.11, 
			 "cosmo_total_nonelectrostatic_energy": 20.83, 
			 "SMD_solvation_energy": 10.84 
		},
		"coords": [
			{
				"x": 5.7695759559,
				"y": -2.0737603391,
				"z": -6.777586213,
				"element": "O" 
			},
			{
				"x": 5.1936094515,
				"y": -1.4625551165,
				"z": -5.8845947664,
				"element": "C" 
			},
			{
				"x": 4.9718619937,
				"y": -2.0898144078,
				"z": -4.665870605,
				"element": "N" 
			},
			{
				"x": 4.0009986851,
				"y": -1.8674116344,
				"z": -3.6622901927,
				"element": "C" 
			},
			{
				"x": 2.741233357,
				"y": -1.3116579525,
				"z": -3.9354119565,
				"element": "C" 
			},
			{
				"x": 1.8152305023,
				"y": -1.1405777243,
				"z": -2.9141273204,
				"element": "C" 
			},
			{
				"x": 2.1015898257,
				"y": -1.5430273821,
				"z": -1.5933985575,
				"element": "C" 
			},
			{
				"x": 3.3602811758,
				"y": -2.1231813587,
				"z": -1.3350371054,
				"element": "C" 
			},
			{
				"x": 4.2945876943,
				"y": -2.2745727024,
				"z": -2.3512449523,
				"element": "C" 
			},
			{
				"x": 1.1457313348,
				"y": -1.3758671342,
				"z": -0.5532865212,
				"element": "C" 
			},
			{
				"x": 0.3303040809,
				"y": -1.2343098644,
				"z": 0.3393331977,
				"element": "C" 
			},
			{
				"x": -0.6241387051,
				"y": -1.0680972398,
				"z": 1.3808555458,
				"element": "C" 
			},
			{
				"x": -1.8877576185,
				"y": -0.4989064732,
				"z": 1.1218277181,
				"element": "C" 
			},
			{
				"x": -2.813322401,
				"y": -0.3397689722,
				"z": 2.141737158,
				"element": "C" 
			},
			{
				"x": -2.5154822837,
				"y": -0.742619361,
				"z": 3.4556820468,
				"element": "C" 
			},
			{
				"x": -3.50609072,
				"y": -0.536426445,
				"z": 4.4328653964,
				"element": "N" 
			},
			{
				"x": -3.4951469288,
				"y": -0.8928400532,
				"z": 5.7671816173,
				"element": "C" 
			},
			{
				"x": -2.57556978,
				"y": -1.5053403616,
				"z": 6.2986243355,
				"element": "O" 
			},
			{
				"x": -4.7207421966,
				"y": -0.4911304399,
				"z": 6.5405632027,
				"element": "C" 
			},
			{
				"x": -5.0116099263,
				"y": -1.2257660015,
				"z": 7.6986125408,
				"element": "C" 
			},
			{
				"x": -6.1283162859,
				"y": -0.9133533847,
				"z": 8.4696311636,
				"element": "C" 
			},
			{
				"x": -6.9593200656,
				"y": 0.1483750334,
				"z": 8.1021402525,
				"element": "C" 
			},
			{
				"x": -6.6641559776,
				"y": 0.9003779618,
				"z": 6.9637554285,
				"element": "C" 
			},
			{
				"x": -5.55044899,
				"y": 0.5830832165,
				"z": 6.1857670049,
				"element": "C" 
			},
			{
				"x": -1.2601780046,
				"y": -1.3124011507,
				"z": 3.7292585319,
				"element": "C" 
			},
			{
				"x": -0.3374493254,
				"y": -1.4674134431,
				"z": 2.7014988919,
				"element": "C" 
			},
			{
				"x": 4.8001619171,
				"y": -0.026542416,
				"z": -6.0582204575,
				"element": "C" 
			},
			{
				"x": 4.476072773,
				"y": 0.3999844119,
				"z": -7.3538142765,
				"element": "C" 
			},
			{
				"x": 4.1711705631,
				"y": 1.7371839053,
				"z": -7.598180552,
				"element": "C" 
			},
			{
				"x": 4.2159652509,
				"y": 2.665733777,
				"z": -6.5550561207,
				"element": "C" 
			},
			{
				"x": 4.5663787651,
				"y": 2.2522579541,
				"z": -5.2678336808,
				"element": "C" 
			},
			{
				"x": 4.8524920008,
				"y": 0.9107842524,
				"z": -5.0163667648,
				"element": "C" 
			},
			{
				"x": 5.4472994721,
				"y": -2.9842515822,
				"z": -4.631412184,
				"element": "H" 
			},
			{
				"x": 2.4862045345,
				"y": -1.0208032355,
				"z": -4.9477110579,
				"element": "H" 
			},
			{
				"x": 0.8450314207,
				"y": -0.7080821519,
				"z": -3.1356870252,
				"element": "H" 
			},
			{
				"x": 3.599582601,
				"y": -2.4436972792,
				"z": -0.3264351687,
				"element": "H" 
			},
			{
				"x": 5.2679346015,
				"y": -2.7058493354,
				"z": -2.1339047271,
				"element": "H" 
			},
			{
				"x": -2.1332756281,
				"y": -0.1836095829,
				"z": 0.113082566,
				"element": "H" 
			},
			{
				"x": -3.7822480709,
				"y": 0.1029721006,
				"z": 1.9209930611,
				"element": "H" 
			},
			{
				"x": -4.3721713715,
				"y": -0.1522393791,
				"z": 4.0849746997,
				"element": "H" 
			},
			{
				"x": -4.345320599,
				"y": -2.0361976039,
				"z": 7.9736742894,
				"element": "H" 
			},
			{
				"x": -6.3504105049,
				"y": -1.4951948601,
				"z": 9.3593477264,
				"element": "H" 
			},
			{
				"x": -7.8281057432,
				"y": 0.3947468148,
				"z": 8.7056202971,
				"element": "H" 
			},
			{
				"x": -7.2939893201,
				"y": 1.7404084727,
				"z": 6.6862119479,
				"element": "H" 
			},
			{
				"x": -5.3141185347,
				"y": 1.2068658555,
				"z": 5.3276277116,
				"element": "H" 
			},
			{
				"x": -1.0302563405,
				"y": -1.6296843778,
				"z": 4.7359780931,
				"element": "H" 
			},
			{
				"x": 0.6298291653,
				"y": -1.9087647401,
				"z": 2.9190867982,
				"element": "H" 
			},
			{
				"x": 4.4774194105,
				"y": -0.3302258545,
				"z": -8.1561708437,
				"element": "H" 
			},
			{
				"x": 3.9088117512,
				"y": 2.0575888242,
				"z": -8.6022180648,
				"element": "H" 
			},
			{
				"x": 3.9863279363,
				"y": 3.7101685722,
				"z": -6.7461787246,
				"element": "H" 
			},
			{
				"x": 4.6192965639,
				"y": 2.9749265722,
				"z": -4.4588706652,
				"element": "H" 
			},
			{
				"x": 5.1300425383,
				"y": 0.5966836163,
				"z": -4.0160227187,
				"element": "H" 
			}
		],
		 "valence_orbital": [ 
			{
				"type": "occ",
				"energy": -0.25597,
				"method": "rhf"
			},
			{
				"type": "occ",
				"energy": -0.25546,
				"method": "rhf"
			},
			{
				"type": "occ",
				"energy": -0.24802,
				"method": "rhf"
			},
			{
				"type": "occ",
				"energy": -0.23725,
				"method": "rhf"
			},
			{
				"type": "occ",
				"energy": -0.19724,
				"method": "rhf"
			},
			{
				"type": "unocc",
				"energy": -0.05831,
				"method": "rhf"
			},
			{
				"type": "unocc",
				"energy": -0.04357,
				"method": "rhf"
			},
			{
				"type": "unocc",
				"energy": -0.03005,
				"method": "rhf"
			},
			{
				"type": "unocc",
				"energy": -0.01707,
				"method": "rhf"
			},
			{
				"type": "unocc",
				"energy": -0.01594,
				"method": "rhf"
			}
		],
		"cosmo_sigma_profile": { 
			"-0.025": 0.0,
			"-0.024": 0.0,
			"-0.023": 0.0,
			"-0.022": 0.0,
			"-0.021": 0.0,
			"-0.02": 0.0,
			"-0.019": 0.0,
			"-0.018": 0.0,
			"-0.017": 0.0,
			"-0.016": 0.259140413176,
			"-0.015": 0.915640821949,
			"-0.014": 2.32612214907,
			"-0.013": 2.66529970502,
			"-0.012": 1.86661174038,
			"-0.011": 3.24301246977,
			"-0.01": 2.01151112914,
			"-0.009": 3.32889923292,
			"-0.008": 3.21340021952,
			"-0.007": 9.74555190362,
			"-0.006": 29.871222145,
			"-0.005": 34.8822717849,
			"-0.004": 37.3794817741,
			"-0.003": 26.4941364103,
			"-0.002": 28.7806357585,
			"-0.001": 28.5701668899,
			"0.0": 30.5218990334,
			"0.001": 33.455766776,
			"0.002": 37.8751111785,
			"0.003": 51.2275976995,
			"0.004": 55.3957382506,
			"0.005": 17.4417714524,
			"0.006": 7.6321209928,
			"0.007": 4.06003028563,
			"0.008": 3.02970317166,
			"0.009": 2.7293530238,
			"0.01": 3.82739591087,
			"0.011": 3.45915156412,
			"0.012": 6.15782735109,
			"0.013": 7.01985281954,
			"0.014": 1.10711299176,
			"0.015": 0.0,
			"0.016": 0.0,
			"0.017": 0.0,
			"0.018": 0.0,
			"0.019": 0.0,
			"0.02": 0.0,
			"0.021": 0.0,
			"0.022": 0.0,
			"0.023": 0.0,
			"0.024": 0.0,
			"0.025": 0.0
		}
	}
}
