{
	 "smiles": "NC(=O)C1CCC(CC1)C(O)=O", 
	 "Tm": 479.15, 
	 "num_atms": 25, 
	 "gaussian": { 
		 "optdone": 1, 
		 "sigma_profile": "yes", 
		 "theory": "DFT", 
		 "functional": "B3LYP", 
		 "basiset": "6-31G**", 
		 "properties": { 
			 "R2extent": 2928.7717, 
			 "electric_dipole_moment_norm": 2.91761705678, 
			 "electric_quadrupole_moment_norm": 23.9803740177, 
			 "total_energy": -593.145321156, 
			 "HOMO_LUMO_gap": 0.24483, 
			 "cosmo_polarized_energy": -18.74, 
			 "cosmo_cavitation_energy": 26.89, 
			 "cosmo_dispersion_energy": -19.56, 
			 "cosmo_repulsion_energy": 1.58, 
			 "cosmo_total_nonelectrostatic_energy": 8.91, 
			 "SMD_solvation_energy": 5.81 
		},
		"coords": [
			{
				"x": 2.8038892427,
				"y": -0.6290409876,
				"z": 1.3255383283,
				"element": "N" 
			},
			{
				"x": 2.6698112743,
				"y": 0.6016234519,
				"z": 0.739687454,
				"element": "C" 
			},
			{
				"x": 3.5815622869,
				"y": 1.1118932775,
				"z": 0.1028286891,
				"element": "O" 
			},
			{
				"x": 1.3014282428,
				"y": 1.284464943,
				"z": 0.8379923529,
				"element": "C" 
			},
			{
				"x": 0.3754448903,
				"y": 0.8627530987,
				"z": 2.0096479817,
				"element": "C" 
			},
			{
				"x": -0.6645310298,
				"y": -0.1896159122,
				"z": 1.5962346844,
				"element": "C" 
			},
			{
				"x": -1.6118691813,
				"y": 0.3264384345,
				"z": 0.4706951615,
				"element": "C" 
			},
			{
				"x": -0.9140673923,
				"y": 1.407245348,
				"z": -0.4056051015,
				"element": "C" 
			},
			{
				"x": 0.5843186572,
				"y": 1.1157056841,
				"z": -0.5329016384,
				"element": "C" 
			},
			{
				"x": -2.9268009561,
				"y": 0.8507956738,
				"z": 1.013241167,
				"element": "C" 
			},
			{
				"x": -2.7494362844,
				"y": 1.8132172154,
				"z": 1.9591789536,
				"element": "O" 
			},
			{
				"x": -4.029900925,
				"y": 0.4913323448,
				"z": 0.6655298723,
				"element": "O" 
			},
			{
				"x": 2.1054534409,
				"y": -1.0315636089,
				"z": 1.9268725088,
				"element": "H" 
			},
			{
				"x": 3.7067743711,
				"y": -1.0749508112,
				"z": 1.2638171237,
				"element": "H" 
			},
			{
				"x": 1.5441511995,
				"y": 2.3458178901,
				"z": 0.9538062393,
				"element": "H" 
			},
			{
				"x": -0.1592941668,
				"y": 1.7451461335,
				"z": 2.3735421815,
				"element": "H" 
			},
			{
				"x": 0.9651157575,
				"y": 0.5083150328,
				"z": 2.8634071184,
				"element": "H" 
			},
			{
				"x": -1.2471273294,
				"y": -0.5085665513,
				"z": 2.4665483283,
				"element": "H" 
			},
			{
				"x": -0.1585465427,
				"y": -1.0879403709,
				"z": 1.2218704514,
				"element": "H" 
			},
			{
				"x": -1.8908098107,
				"y": -0.5155301696,
				"z": -0.1685360325,
				"element": "H" 
			},
			{
				"x": -1.3907908822,
				"y": 1.4376368048,
				"z": -1.3905951858,
				"element": "H" 
			},
			{
				"x": -1.0541953606,
				"y": 2.3971851703,
				"z": 0.043734727,
				"element": "H" 
			},
			{
				"x": 1.0563447363,
				"y": 1.7738588704,
				"z": -1.2667820566,
				"element": "H" 
			},
			{
				"x": 0.7226194727,
				"y": 0.0913950094,
				"z": -0.9033164132,
				"element": "H" 
			},
			{
				"x": -3.640943711,
				"y": 2.0872840287,
				"z": 2.2329631048,
				"element": "H" 
			}
		],
		 "valence_orbital": [ 
			{
				"type": "occ",
				"energy": -0.31623,
				"method": "rhf"
			},
			{
				"type": "occ",
				"energy": -0.31244,
				"method": "rhf"
			},
			{
				"type": "occ",
				"energy": -0.27296,
				"method": "rhf"
			},
			{
				"type": "occ",
				"energy": -0.26353,
				"method": "rhf"
			},
			{
				"type": "occ",
				"energy": -0.24052,
				"method": "rhf"
			},
			{
				"type": "unocc",
				"energy": 0.00431,
				"method": "rhf"
			},
			{
				"type": "unocc",
				"energy": 0.03275,
				"method": "rhf"
			},
			{
				"type": "unocc",
				"energy": 0.05361,
				"method": "rhf"
			},
			{
				"type": "unocc",
				"energy": 0.07298,
				"method": "rhf"
			},
			{
				"type": "unocc",
				"energy": 0.09503,
				"method": "rhf"
			}
		],
		"cosmo_sigma_profile": { 
			"-0.025": 0.0,
			"-0.024": 0.0,
			"-0.023": 0.0,
			"-0.022": 0.0,
			"-0.021": 0.0,
			"-0.02": 0.0,
			"-0.019": 0.0,
			"-0.018": 0.396497759186,
			"-0.017": 0.795468755664,
			"-0.016": 1.15269211696,
			"-0.015": 1.01428978661,
			"-0.014": 0.784610910307,
			"-0.013": 2.2665591719,
			"-0.012": 2.79182235089,
			"-0.011": 3.61178159591,
			"-0.01": 2.9733123662,
			"-0.009": 2.88259492281,
			"-0.008": 2.54770871842,
			"-0.007": 2.939821327,
			"-0.006": 3.10219771261,
			"-0.005": 6.03456314672,
			"-0.004": 18.7660123353,
			"-0.003": 26.8166244946,
			"-0.002": 26.1594595319,
			"-0.001": 18.3256714805,
			"0.0": 13.3336368764,
			"0.001": 5.48685668636,
			"0.002": 7.34795749655,
			"0.003": 6.14209997332,
			"0.004": 5.84148469165,
			"0.005": 4.93277785795,
			"0.006": 4.34482189315,
			"0.007": 4.61636229409,
			"0.008": 2.70844791833,
			"0.009": 2.54188792808,
			"0.01": 3.66121138449,
			"0.011": 4.07471434356,
			"0.012": 6.98410706273,
			"0.013": 3.78629344243,
			"0.014": 5.34637362974,
			"0.015": 3.59290063226,
			"0.016": 0.356674670391,
			"0.017": 0.0,
			"0.018": 0.0,
			"0.019": 0.0,
			"0.02": 0.0,
			"0.021": 0.0,
			"0.022": 0.0,
			"0.023": 0.0,
			"0.024": 0.0,
			"0.025": 0.0
		}
	}
}
