{
	 "smiles": "OC(=O)C1=CC=CN1C1=CC=C(I)C=C1", 
	 "Tm": 473.15, 
	 "num_atms": 23, 
	 "gaussian": { 
		 "optdone": 1, 
		 "sigma_profile": "yes", 
		 "theory": "DFT", 
		 "functional": "B3LYP", 
		 "basiset": "6-31G**", 
		 "properties": { 
			 "R2extent": 4276.7441, 
			 "electric_dipole_moment_norm": 4.59676149262, 
			 "electric_quadrupole_moment_norm": 15.927028301, 
			 "total_energy": -640.569784011, 
			 "HOMO_LUMO_gap": 0.19297, 
			 "cosmo_polarized_energy": -16.37, 
			 "cosmo_cavitation_energy": 31.13, 
			 "cosmo_dispersion_energy": -23.71, 
			 "cosmo_repulsion_energy": 1.82, 
			 "cosmo_total_nonelectrostatic_energy": 9.25, 
			 "SMD_solvation_energy": 5.75 
		},
		"coords": [
			{
				"x": 2.8103555728,
				"y": -2.679076293,
				"z": 0.1413759608,
				"element": "O" 
			},
			{
				"x": 2.3695220944,
				"y": -1.3941032296,
				"z": 0.2599583869,
				"element": "C" 
			},
			{
				"x": 3.1346908999,
				"y": -0.52082045,
				"z": 0.6016204154,
				"element": "O" 
			},
			{
				"x": 0.9378166879,
				"y": -1.2044998637,
				"z": -0.0322755406,
				"element": "C" 
			},
			{
				"x": -0.0924587017,
				"y": -2.1389310282,
				"z": 0.0022039974,
				"element": "C" 
			},
			{
				"x": -1.3118077985,
				"y": -1.4553587669,
				"z": -0.1994330436,
				"element": "C" 
			},
			{
				"x": -1.0010730236,
				"y": -0.1189103661,
				"z": -0.3503479465,
				"element": "C" 
			},
			{
				"x": 0.3590737853,
				"y": 0.0437788953,
				"z": -0.2429299524,
				"element": "N" 
			},
			{
				"x": 1.0048376486,
				"y": 1.308912107,
				"z": -0.4106370227,
				"element": "C" 
			},
			{
				"x": 0.5783198764,
				"y": 2.3933071371,
				"z": 0.3581626919,
				"element": "C" 
			},
			{
				"x": 1.1459297463,
				"y": 3.6539367166,
				"z": 0.1688106153,
				"element": "C" 
			},
			{
				"x": 2.1492909998,
				"y": 3.8154050436,
				"z": -0.7865164165,
				"element": "C" 
			},
			{
				"x": 3.0210639426,
				"y": 5.7244423798,
				"z": -1.0781597771,
				"element": "I" 
			},
			{
				"x": 2.5862867203,
				"y": 2.7327273548,
				"z": -1.5543019805,
				"element": "C" 
			},
			{
				"x": 2.0059158625,
				"y": 1.480571587,
				"z": -1.3694351443,
				"element": "C" 
			},
			{
				"x": 2.1317775899,
				"y": -3.2222894068,
				"z": -0.2834045436,
				"element": "H" 
			},
			{
				"x": 0.017331534,
				"y": -3.1945923239,
				"z": 0.2145005288,
				"element": "H" 
			},
			{
				"x": -2.3031483233,
				"y": -1.8836755281,
				"z": -0.230084508,
				"element": "H" 
			},
			{
				"x": -1.6313998025,
				"y": 0.7313636915,
				"z": -0.5641318279,
				"element": "H" 
			},
			{
				"x": -0.1844876272,
				"y": 2.2489103819,
				"z": 1.1164139867,
				"element": "H" 
			},
			{
				"x": 0.812980888,
				"y": 4.4918479195,
				"z": 0.7703738223,
				"element": "H" 
			},
			{
				"x": 3.36614455,
				"y": 2.8605057851,
				"z": -2.2960141447,
				"element": "H" 
			},
			{
				"x": 2.331636878,
				"y": 0.6389482573,
				"z": -1.9700485571,
				"element": "H" 
			}
		],
		 "valence_orbital": [ 
			{
				"type": "occ",
				"energy": -0.27237,
				"method": "rhf"
			},
			{
				"type": "occ",
				"energy": -0.26987,
				"method": "rhf"
			},
			{
				"type": "occ",
				"energy": -0.26928,
				"method": "rhf"
			},
			{
				"type": "occ",
				"energy": -0.23976,
				"method": "rhf"
			},
			{
				"type": "occ",
				"energy": -0.23713,
				"method": "rhf"
			},
			{
				"type": "unocc",
				"energy": -0.04416,
				"method": "rhf"
			},
			{
				"type": "unocc",
				"energy": -0.04201,
				"method": "rhf"
			},
			{
				"type": "unocc",
				"energy": -0.02361,
				"method": "rhf"
			},
			{
				"type": "unocc",
				"energy": -0.01876,
				"method": "rhf"
			},
			{
				"type": "unocc",
				"energy": 0.03937,
				"method": "rhf"
			}
		],
		"cosmo_sigma_profile": { 
			"-0.025": 0.0,
			"-0.024": 0.0,
			"-0.023": 0.0,
			"-0.022": 0.0,
			"-0.021": 0.0,
			"-0.02": 0.0,
			"-0.019": 0.0,
			"-0.018": 0.352723638519,
			"-0.017": 0.995948654031,
			"-0.016": 0.966988112025,
			"-0.015": 1.12643063242,
			"-0.014": 0.814491889954,
			"-0.013": 1.08751554696,
			"-0.012": 1.02336735206,
			"-0.011": 1.22894268093,
			"-0.01": 0.896048868761,
			"-0.009": 2.04948864934,
			"-0.008": 5.02771772567,
			"-0.007": 12.5138383809,
			"-0.006": 17.6457068747,
			"-0.005": 14.1315753373,
			"-0.004": 12.9362998345,
			"-0.003": 14.7928157866,
			"-0.002": 12.2311430966,
			"-0.001": 14.7063880275,
			"0.0": 15.6643230309,
			"0.001": 17.8094917671,
			"0.002": 22.2680409105,
			"0.003": 22.7336460058,
			"0.004": 20.6897964329,
			"0.005": 11.0123919852,
			"0.006": 4.26359298101,
			"0.007": 2.32531254647,
			"0.008": 3.03236926031,
			"0.009": 2.96900682697,
			"0.01": 4.48139291484,
			"0.011": 5.36096761081,
			"0.012": 4.79883570592,
			"0.013": 3.06464844728,
			"0.014": 0.477539487354,
			"0.015": 0.0,
			"0.016": 0.0,
			"0.017": 0.0,
			"0.018": 0.0,
			"0.019": 0.0,
			"0.02": 0.0,
			"0.021": 0.0,
			"0.022": 0.0,
			"0.023": 0.0,
			"0.024": 0.0,
			"0.025": 0.0
		}
	}
}
