{
	 "smiles": "CN1C2CCC1CC(C2)OC(=O)C1=CC=CC=C1", 
	 "Tm": 322.15, 
	 "num_atms": 37, 
	 "gaussian": { 
		 "optdone": 1, 
		 "sigma_profile": "yes", 
		 "theory": "DFT", 
		 "functional": "B3LYP", 
		 "basiset": "6-31G**", 
		 "properties": { 
			 "R2extent": 5947.245, 
			 "electric_dipole_moment_norm": 2.51762046981, 
			 "electric_quadrupole_moment_norm": 13.7234428946, 
			 "total_energy": -788.260457758, 
			 "HOMO_LUMO_gap": 0.16841, 
			 "cosmo_polarized_energy": -8.55, 
			 "cosmo_cavitation_energy": 37.14, 
			 "cosmo_dispersion_energy": -26.47, 
			 "cosmo_repulsion_energy": 2.01, 
			 "cosmo_total_nonelectrostatic_energy": 12.68, 
			 "SMD_solvation_energy": 3.93 
		},
		"coords": [
			{
				"x": 0.3101625762,
				"y": 1.0864205578,
				"z": 4.0077242902,
				"element": "C" 
			},
			{
				"x": 0.0707182536,
				"y": -0.0410361491,
				"z": 3.1116900044,
				"element": "N" 
			},
			{
				"x": -1.1521879958,
				"y": 0.1001475204,
				"z": 2.2931155815,
				"element": "C" 
			},
			{
				"x": -0.7679045768,
				"y": 1.0802047745,
				"z": 1.1443226364,
				"element": "C" 
			},
			{
				"x": 0.763577842,
				"y": 0.8718205552,
				"z": 0.9830804771,
				"element": "C" 
			},
			{
				"x": 1.1044293152,
				"y": -0.1986860195,
				"z": 2.0650158849,
				"element": "C" 
			},
			{
				"x": 1.0012875295,
				"y": -1.6434119014,
				"z": 1.5448947421,
				"element": "C" 
			},
			{
				"x": -0.3961147287,
				"y": -1.9876715323,
				"z": 0.9995448636,
				"element": "C" 
			},
			{
				"x": -1.523027098,
				"y": -1.3082391446,
				"z": 1.7911453413,
				"element": "C" 
			},
			{
				"x": -0.5251612517,
				"y": -1.553800347,
				"z": -0.3920693779,
				"element": "O" 
			},
			{
				"x": -0.0510479654,
				"y": -2.3979307929,
				"z": -1.3361109931,
				"element": "C" 
			},
			{
				"x": 0.4762170995,
				"y": -3.4655665927,
				"z": -1.0825847829,
				"element": "O" 
			},
			{
				"x": -0.2469927308,
				"y": -1.8775741778,
				"z": -2.7214628515,
				"element": "C" 
			},
			{
				"x": 0.2189461267,
				"y": -2.6650438802,
				"z": -3.7835500412,
				"element": "C" 
			},
			{
				"x": 0.0633310305,
				"y": -2.2303177631,
				"z": -5.0973320234,
				"element": "C" 
			},
			{
				"x": -0.5586886653,
				"y": -1.006379266,
				"z": -5.3588994842,
				"element": "C" 
			},
			{
				"x": -1.0250348094,
				"y": -0.2188645136,
				"z": -4.3034864026,
				"element": "C" 
			},
			{
				"x": -0.8712993668,
				"y": -0.6508343592,
				"z": -2.9868597106,
				"element": "C" 
			},
			{
				"x": -0.5051719147,
				"y": 1.1479313272,
				"z": 4.7359573371,
				"element": "H" 
			},
			{
				"x": 0.392523608,
				"y": 2.0697765366,
				"z": 3.5114572788,
				"element": "H" 
			},
			{
				"x": 1.2382430595,
				"y": 0.9146919743,
				"z": 4.5626173211,
				"element": "H" 
			},
			{
				"x": -1.9710553449,
				"y": 0.4838407885,
				"z": 2.9107176727,
				"element": "H" 
			},
			{
				"x": -1.321311765,
				"y": 0.8715420485,
				"z": 0.2260923128,
				"element": "H" 
			},
			{
				"x": -0.9948723591,
				"y": 2.1111552534,
				"z": 1.4327803668,
				"element": "H" 
			},
			{
				"x": 1.0382095659,
				"y": 0.5433022625,
				"z": -0.0216395806,
				"element": "H" 
			},
			{
				"x": 1.3078404363,
				"y": 1.800200048,
				"z": 1.1813980801,
				"element": "H" 
			},
			{
				"x": 2.0980523057,
				"y": -0.047302284,
				"z": 2.4995904963,
				"element": "H" 
			},
			{
				"x": 1.7502661347,
				"y": -1.8491669768,
				"z": 0.7741868724,
				"element": "H" 
			},
			{
				"x": 1.2075361225,
				"y": -2.3158940729,
				"z": 2.3848015176,
				"element": "H" 
			},
			{
				"x": -0.526907283,
				"y": -3.0718129653,
				"z": 0.9955314561,
				"element": "H" 
			},
			{
				"x": -1.736458798,
				"y": -1.9269863347,
				"z": 2.6693996221,
				"element": "H" 
			},
			{
				"x": -2.42800715,
				"y": -1.2838209663,
				"z": 1.1743045835,
				"element": "H" 
			},
			{
				"x": 0.6977318094,
				"y": -3.6109388966,
				"z": -3.554145786,
				"element": "H" 
			},
			{
				"x": 0.4258001801,
				"y": -2.8432151695,
				"z": -5.9173747609,
				"element": "H" 
			},
			{
				"x": -0.6801619633,
				"y": -0.6669687975,
				"z": -6.3837555727,
				"element": "H" 
			},
			{
				"x": -1.5091912273,
				"y": 0.7318670799,
				"z": -4.5068208812,
				"element": "H" 
			},
			{
				"x": -1.2328760011,
				"y": -0.0454378238,
				"z": -2.1638764899,
				"element": "H" 
			}
		],
		 "valence_orbital": [ 
			{
				"type": "occ",
				"energy": -0.28596,
				"method": "rhf"
			},
			{
				"type": "occ",
				"energy": -0.26854,
				"method": "rhf"
			},
			{
				"type": "occ",
				"energy": -0.25803,
				"method": "rhf"
			},
			{
				"type": "occ",
				"energy": -0.25678,
				"method": "rhf"
			},
			{
				"type": "occ",
				"energy": -0.21133,
				"method": "rhf"
			},
			{
				"type": "unocc",
				"energy": -0.04292,
				"method": "rhf"
			},
			{
				"type": "unocc",
				"energy": -0.00678,
				"method": "rhf"
			},
			{
				"type": "unocc",
				"energy": 0.05995,
				"method": "rhf"
			},
			{
				"type": "unocc",
				"energy": 0.06854,
				"method": "rhf"
			},
			{
				"type": "unocc",
				"energy": 0.08599,
				"method": "rhf"
			}
		],
		"cosmo_sigma_profile": { 
			"-0.025": 0.0,
			"-0.024": 0.0,
			"-0.023": 0.0,
			"-0.022": 0.0,
			"-0.021": 0.0,
			"-0.02": 0.0,
			"-0.019": 0.0,
			"-0.018": 0.0,
			"-0.017": 0.0,
			"-0.016": 0.0,
			"-0.015": 0.0,
			"-0.014": 0.0,
			"-0.013": 0.0,
			"-0.012": 0.0,
			"-0.011": 0.0,
			"-0.01": 0.0,
			"-0.009": 0.0,
			"-0.008": 0.0,
			"-0.007": 1.01005281385,
			"-0.006": 7.16326355815,
			"-0.005": 9.87046911008,
			"-0.004": 20.9579593761,
			"-0.003": 34.8807350347,
			"-0.002": 43.2603235186,
			"-0.001": 39.3809549095,
			"0.0": 33.2052451426,
			"0.001": 24.8347383825,
			"0.002": 19.0373125616,
			"0.003": 14.9157852291,
			"0.004": 16.2748277624,
			"0.005": 4.68610077567,
			"0.006": 2.40959307645,
			"0.007": 2.15431983177,
			"0.008": 2.3711709605,
			"0.009": 2.1073010035,
			"0.01": 2.83973477572,
			"0.011": 2.92797549091,
			"0.012": 4.43902794724,
			"0.013": 0.982849583647,
			"0.014": 0.578508483272,
			"0.015": 0.425709493953,
			"0.016": 0.272879001638,
			"0.017": 0.127760658362,
			"0.018": 0.0,
			"0.019": 0.0,
			"0.02": 0.0,
			"0.021": 0.0,
			"0.022": 0.0,
			"0.023": 0.0,
			"0.024": 0.0,
			"0.025": 0.0
		}
	}
}
