{
	 "smiles": "OC(=O)C1=C(NC(=O)C2=CC=CO2)C=CC=C1", 
	 "Tm": 482.15, 
	 "num_atms": 26, 
	 "gaussian": { 
		 "optdone": 1, 
		 "sigma_profile": "yes", 
		 "theory": "DFT", 
		 "functional": "B3LYP", 
		 "basiset": "6-31G**", 
		 "properties": { 
			 "R2extent": 4797.4748, 
			 "electric_dipole_moment_norm": 7.86235408195, 
			 "electric_quadrupole_moment_norm": 26.886839853, 
			 "total_energy": -818.337021091, 
			 "HOMO_LUMO_gap": 0.19591, 
			 "cosmo_polarized_energy": -25.4, 
			 "cosmo_cavitation_energy": 31.88, 
			 "cosmo_dispersion_energy": -22.55, 
			 "cosmo_repulsion_energy": 1.73, 
			 "cosmo_total_nonelectrostatic_energy": 11.06, 
			 "SMD_solvation_energy": 8.52 
		},
		"coords": [
			{
				"x": -0.9243157597,
				"y": 2.8810592946,
				"z": 0.683856642,
				"element": "O" 
			},
			{
				"x": 0.082073454,
				"y": 2.6517350172,
				"z": 1.5480332509,
				"element": "C" 
			},
			{
				"x": 0.0653945848,
				"y": 3.1319348237,
				"z": 2.6592036244,
				"element": "O" 
			},
			{
				"x": 1.2507492603,
				"y": 1.8268888966,
				"z": 1.0559149965,
				"element": "C" 
			},
			{
				"x": 1.2835797766,
				"y": 1.0712434451,
				"z": -0.130827593,
				"element": "C" 
			},
			{
				"x": 0.1235723606,
				"y": 0.9722274138,
				"z": -0.9837875637,
				"element": "N" 
			},
			{
				"x": -0.8491153286,
				"y": -0.022393742,
				"z": -0.7030807477,
				"element": "C" 
			},
			{
				"x": -0.8872620761,
				"y": -0.6215086846,
				"z": 0.3513870785,
				"element": "O" 
			},
			{
				"x": -1.8269205066,
				"y": -0.2075358417,
				"z": -1.7896386011,
				"element": "C" 
			},
			{
				"x": -2.1173309478,
				"y": 0.4741434931,
				"z": -2.9466486866,
				"element": "C" 
			},
			{
				"x": -3.2093570881,
				"y": -0.2099059124,
				"z": -3.555963019,
				"element": "C" 
			},
			{
				"x": -3.5025459136,
				"y": -1.2545161103,
				"z": -2.7257033385,
				"element": "C" 
			},
			{
				"x": -2.6781779647,
				"y": -1.2656642043,
				"z": -1.6538781343,
				"element": "O" 
			},
			{
				"x": 2.4526166368,
				"y": 0.4060002295,
				"z": -0.5087675229,
				"element": "C" 
			},
			{
				"x": 3.5961728302,
				"y": 0.479103628,
				"z": 0.2837408071,
				"element": "C" 
			},
			{
				"x": 3.5675367586,
				"y": 1.2054834622,
				"z": 1.4756224755,
				"element": "C" 
			},
			{
				"x": 2.4029987914,
				"y": 1.8656949432,
				"z": 1.8536872649,
				"element": "C" 
			},
			{
				"x": -0.7430311287,
				"y": 2.4052098976,
				"z": -0.1513126014,
				"element": "H" 
			},
			{
				"x": 0.333780822,
				"y": 1.0712803425,
				"z": -1.9709059347,
				"element": "H" 
			},
			{
				"x": -1.6354633947,
				"y": 1.3713827039,
				"z": -3.3093477858,
				"element": "H" 
			},
			{
				"x": -3.7114010451,
				"y": 0.0436714019,
				"z": -4.478032221,
				"element": "H" 
			},
			{
				"x": -4.2383353927,
				"y": -2.0432830364,
				"z": -2.7608579181,
				"element": "H" 
			},
			{
				"x": 2.4549044951,
				"y": -0.1828150559,
				"z": -1.4220686625,
				"element": "H" 
			},
			{
				"x": 4.4989429402,
				"y": -0.0402528566,
				"z": -0.0234239509,
				"element": "H" 
			},
			{
				"x": 4.4500352262,
				"y": 1.2580277407,
				"z": 2.1056743618,
				"element": "H" 
			},
			{
				"x": 2.3523986094,
				"y": 2.4403887105,
				"z": 2.7717237795,
				"element": "H" 
			}
		],
		 "valence_orbital": [ 
			{
				"type": "occ",
				"energy": -0.28232,
				"method": "rhf"
			},
			{
				"type": "occ",
				"energy": -0.26863,
				"method": "rhf"
			},
			{
				"type": "occ",
				"energy": -0.2642,
				"method": "rhf"
			},
			{
				"type": "occ",
				"energy": -0.26086,
				"method": "rhf"
			},
			{
				"type": "occ",
				"energy": -0.25562,
				"method": "rhf"
			},
			{
				"type": "unocc",
				"energy": -0.05971,
				"method": "rhf"
			},
			{
				"type": "unocc",
				"energy": -0.04652,
				"method": "rhf"
			},
			{
				"type": "unocc",
				"energy": -0.0217,
				"method": "rhf"
			},
			{
				"type": "unocc",
				"energy": 0.02266,
				"method": "rhf"
			},
			{
				"type": "unocc",
				"energy": 0.05531,
				"method": "rhf"
			}
		],
		"cosmo_sigma_profile": { 
			"-0.025": 0.0,
			"-0.024": 0.0,
			"-0.023": 0.0,
			"-0.022": 0.0,
			"-0.021": 0.0,
			"-0.02": 0.0,
			"-0.019": 0.0,
			"-0.018": 0.0,
			"-0.017": 0.0,
			"-0.016": 0.283522121728,
			"-0.015": 1.27315013796,
			"-0.014": 1.65731224872,
			"-0.013": 1.9169455897,
			"-0.012": 1.89116336076,
			"-0.011": 1.60346899076,
			"-0.01": 4.02373767847,
			"-0.009": 7.57924528148,
			"-0.008": 10.000840523,
			"-0.007": 11.2232591127,
			"-0.006": 14.5678692617,
			"-0.005": 15.8959941986,
			"-0.004": 12.6700320734,
			"-0.003": 10.7120875744,
			"-0.002": 12.1934751032,
			"-0.001": 12.1516093513,
			"0.0": 16.5329232037,
			"0.001": 18.6727353775,
			"0.002": 20.5067904747,
			"0.003": 19.1623623816,
			"0.004": 7.10581968512,
			"0.005": 5.44770785512,
			"0.006": 4.91225531899,
			"0.007": 4.69322050281,
			"0.008": 4.79440193366,
			"0.009": 6.08080059813,
			"0.01": 5.93329894685,
			"0.011": 10.3953605429,
			"0.012": 9.56913828412,
			"0.013": 3.23568427469,
			"0.014": 0.255685666263,
			"0.015": 0.0,
			"0.016": 0.0,
			"0.017": 0.0,
			"0.018": 0.0,
			"0.019": 0.0,
			"0.02": 0.0,
			"0.021": 0.0,
			"0.022": 0.0,
			"0.023": 0.0,
			"0.024": 0.0,
			"0.025": 0.0
		}
	}
}
