{
	 "smiles": "NC1=CC=C(CN2CCCC2=O)C=C1", 
	 "Tm": 398.15, 
	 "num_atms": 28, 
	 "gaussian": { 
		 "optdone": 1, 
		 "sigma_profile": "yes", 
		 "theory": "DFT", 
		 "functional": "B3LYP", 
		 "basiset": "6-31G**", 
		 "properties": { 
			 "R2extent": 4054.4235, 
			 "electric_dipole_moment_norm": 4.70429360159, 
			 "electric_quadrupole_moment_norm": 21.6984173192, 
			 "total_energy": -612.361848273, 
			 "HOMO_LUMO_gap": 0.20238, 
			 "cosmo_polarized_energy": -15.24, 
			 "cosmo_cavitation_energy": 30.71, 
			 "cosmo_dispersion_energy": -22.03, 
			 "cosmo_repulsion_energy": 1.76, 
			 "cosmo_total_nonelectrostatic_energy": 10.43, 
			 "SMD_solvation_energy": 4.7 
		},
		"coords": [
			{
				"x": 1.8052452254,
				"y": -3.5915127771,
				"z": -0.4489680398,
				"element": "N" 
			},
			{
				"x": 1.4543614407,
				"y": -2.34501949,
				"z": 0.0736754841,
				"element": "C" 
			},
			{
				"x": 1.7548265277,
				"y": -1.161529452,
				"z": -0.6195096055,
				"element": "C" 
			},
			{
				"x": 1.4542448245,
				"y": 0.0795552268,
				"z": -0.0606902216,
				"element": "C" 
			},
			{
				"x": 0.8503505486,
				"y": 0.1871099037,
				"z": 1.1960617723,
				"element": "C" 
			},
			{
				"x": 0.5089536014,
				"y": 1.533887692,
				"z": 1.8038652695,
				"element": "C" 
			},
			{
				"x": -0.9193694185,
				"y": 1.8339174935,
				"z": 1.8118598423,
				"element": "N" 
			},
			{
				"x": -1.6796169879,
				"y": 2.0900999729,
				"z": 0.5951666249,
				"element": "C" 
			},
			{
				"x": -3.0609286828,
				"y": 2.525857343,
				"z": 1.1312563396,
				"element": "C" 
			},
			{
				"x": -3.1584404098,
				"y": 1.8316429935,
				"z": 2.4993640351,
				"element": "C" 
			},
			{
				"x": -1.7039960355,
				"y": 1.5982015932,
				"z": 2.9133227761,
				"element": "C" 
			},
			{
				"x": -1.300523967,
				"y": 1.2407293124,
				"z": 4.0119279773,
				"element": "O" 
			},
			{
				"x": 0.5523197791,
				"y": -0.9984223043,
				"z": 1.8856996297,
				"element": "C" 
			},
			{
				"x": 0.8456543556,
				"y": -2.24210508,
				"z": 1.3385632768,
				"element": "C" 
			},
			{
				"x": 1.9027052135,
				"y": -3.6249334695,
				"z": -1.4543521484,
				"element": "H" 
			},
			{
				"x": 1.2684303957,
				"y": -4.3718173273,
				"z": -0.0962834364,
				"element": "H" 
			},
			{
				"x": 2.2314595847,
				"y": -1.2174146667,
				"z": -1.5954042326,
				"element": "H" 
			},
			{
				"x": 1.7007669579,
				"y": 0.9820049039,
				"z": -0.6163997544,
				"element": "H" 
			},
			{
				"x": 0.8220042032,
				"y": 1.5731179315,
				"z": 2.8509758609,
				"element": "H" 
			},
			{
				"x": 1.0284075484,
				"y": 2.3333287185,
				"z": 1.2615166073,
				"element": "H" 
			},
			{
				"x": -1.7451195135,
				"y": 1.1845599972,
				"z": -0.0258890136,
				"element": "H" 
			},
			{
				"x": -1.1959114466,
				"y": 2.8682283514,
				"z": -0.0070433099,
				"element": "H" 
			},
			{
				"x": -3.8700570043,
				"y": 2.2601606896,
				"z": 0.4466703895,
				"element": "H" 
			},
			{
				"x": -3.0764626099,
				"y": 3.6125955654,
				"z": 1.2607745416,
				"element": "H" 
			},
			{
				"x": -3.6454972636,
				"y": 0.8509359046,
				"z": 2.4324372943,
				"element": "H" 
			},
			{
				"x": -3.6880102948,
				"y": 2.4050650733,
				"z": 3.263391682,
				"element": "H" 
			},
			{
				"x": 0.0847223681,
				"y": -0.9367796595,
				"z": 2.8649690787,
				"element": "H" 
			},
			{
				"x": 0.6147810599,
				"y": -3.1474644399,
				"z": 1.8952412801,
				"element": "H" 
			}
		],
		 "valence_orbital": [ 
			{
				"type": "occ",
				"energy": -0.30203,
				"method": "rhf"
			},
			{
				"type": "occ",
				"energy": -0.24501,
				"method": "rhf"
			},
			{
				"type": "occ",
				"energy": -0.24067,
				"method": "rhf"
			},
			{
				"type": "occ",
				"energy": -0.2292,
				"method": "rhf"
			},
			{
				"type": "occ",
				"energy": -0.19885,
				"method": "rhf"
			},
			{
				"type": "unocc",
				"energy": 0.00353,
				"method": "rhf"
			},
			{
				"type": "unocc",
				"energy": 0.01394,
				"method": "rhf"
			},
			{
				"type": "unocc",
				"energy": 0.03932,
				"method": "rhf"
			},
			{
				"type": "unocc",
				"energy": 0.08159,
				"method": "rhf"
			},
			{
				"type": "unocc",
				"energy": 0.08637,
				"method": "rhf"
			}
		],
		"cosmo_sigma_profile": { 
			"-0.025": 0.0,
			"-0.024": 0.0,
			"-0.023": 0.0,
			"-0.022": 0.0,
			"-0.021": 0.0,
			"-0.02": 0.0,
			"-0.019": 0.0,
			"-0.018": 0.0,
			"-0.017": 0.0,
			"-0.016": 0.0,
			"-0.015": 0.0,
			"-0.014": 0.0,
			"-0.013": 0.229758119385,
			"-0.012": 2.30359780744,
			"-0.011": 2.51125013788,
			"-0.01": 2.59881499927,
			"-0.009": 3.56349610426,
			"-0.008": 2.56267735151,
			"-0.007": 2.82394715982,
			"-0.006": 4.86839005884,
			"-0.005": 17.5651113095,
			"-0.004": 25.1535117638,
			"-0.003": 29.5813361753,
			"-0.002": 23.5778794876,
			"-0.001": 18.914925422,
			"0.0": 16.1986502088,
			"0.001": 10.9899380025,
			"0.002": 9.6789538878,
			"0.003": 9.04134939778,
			"0.004": 9.54705640861,
			"0.005": 8.32037655253,
			"0.006": 11.1307261121,
			"0.007": 8.38160259131,
			"0.008": 2.26593466706,
			"0.009": 2.04389849608,
			"0.01": 1.96668092152,
			"0.011": 1.80677781538,
			"0.012": 2.81382300538,
			"0.013": 2.9050970201,
			"0.014": 5.27914851615,
			"0.015": 2.63193387149,
			"0.016": 0.227181091708,
			"0.017": 0.0,
			"0.018": 0.0,
			"0.019": 0.0,
			"0.02": 0.0,
			"0.021": 0.0,
			"0.022": 0.0,
			"0.023": 0.0,
			"0.024": 0.0,
			"0.025": 0.0
		}
	}
}
