{
	 "smiles": "CC1=CC=C(C)C(NN=C2C(=O)NN=C2C(F)(F)F)=C1", 
	 "Tm": 462.15, 
	 "num_atms": 31, 
	 "gaussian": { 
		 "optdone": 1, 
		 "sigma_profile": "yes", 
		 "theory": "DFT", 
		 "functional": "B3LYP", 
		 "basiset": "6-31G**", 
		 "properties": { 
			 "R2extent": 8291.4761, 
			 "electric_dipole_moment_norm": 3.94464818457, 
			 "electric_quadrupole_moment_norm": 11.8424991775, 
			 "total_energy": -1057.62285503, 
			 "HOMO_LUMO_gap": 0.12257, 
			 "cosmo_polarized_energy": -11.85, 
			 "cosmo_cavitation_energy": 37.56, 
			 "cosmo_dispersion_energy": -26.06, 
			 "cosmo_repulsion_energy": 1.93, 
			 "cosmo_total_nonelectrostatic_energy": 13.43, 
			 "SMD_solvation_energy": 6.92 
		},
		"coords": [
			{
				"x": 2.4208364804,
				"y": 0.6062565814,
				"z": -4.4057129713,
				"element": "C" 
			},
			{
				"x": 1.5327720493,
				"y": 0.9717925496,
				"z": -3.2404920355,
				"element": "C" 
			},
			{
				"x": 1.5339382988,
				"y": 2.2669422117,
				"z": -2.7051877351,
				"element": "C" 
			},
			{
				"x": 0.7147876694,
				"y": 2.5874540545,
				"z": -1.6265000599,
				"element": "C" 
			},
			{
				"x": -0.1453421612,
				"y": 1.6630687576,
				"z": -1.0173932589,
				"element": "C" 
			},
			{
				"x": -0.9971789417,
				"y": 2.1055488648,
				"z": 0.1483420709,
				"element": "C" 
			},
			{
				"x": -0.1400295674,
				"y": 0.3602178635,
				"z": -1.5648321042,
				"element": "C" 
			},
			{
				"x": -0.9304839731,
				"y": -0.7049774082,
				"z": -1.0964428749,
				"element": "N" 
			},
			{
				"x": -1.7653992422,
				"y": -0.6162459824,
				"z": -0.0976427565,
				"element": "N" 
			},
			{
				"x": -2.4354212289,
				"y": -1.7051701176,
				"z": 0.2227899018,
				"element": "C" 
			},
			{
				"x": -2.3543042749,
				"y": -3.0244792392,
				"z": -0.4178149648,
				"element": "C" 
			},
			{
				"x": -1.6526357682,
				"y": -3.3806574783,
				"z": -1.3742038306,
				"element": "O" 
			},
			{
				"x": -3.2555128107,
				"y": -3.7714569753,
				"z": 0.3110857142,
				"element": "N" 
			},
			{
				"x": -3.8812257808,
				"y": -3.0746987231,
				"z": 1.3216136409,
				"element": "N" 
			},
			{
				"x": -3.4044622323,
				"y": -1.8599219547,
				"z": 1.2758591418,
				"element": "C" 
			},
			{
				"x": -3.8556240164,
				"y": -0.8010066727,
				"z": 2.2347309438,
				"element": "C" 
			},
			{
				"x": -2.8084236674,
				"y": -0.318690614,
				"z": 2.9417854511,
				"element": "F" 
			},
			{
				"x": -4.3957155687,
				"y": 0.2464559892,
				"z": 1.5711963101,
				"element": "F" 
			},
			{
				"x": -4.7678871005,
				"y": -1.2604244919,
				"z": 3.1017179376,
				"element": "F" 
			},
			{
				"x": 0.6868297046,
				"y": 0.0344240492,
				"z": -2.6544374496,
				"element": "C" 
			},
			{
				"x": 3.4803437878,
				"y": 0.6898363062,
				"z": -4.1374845015,
				"element": "H" 
			},
			{
				"x": 2.242304338,
				"y": -0.4187763499,
				"z": -4.7411974822,
				"element": "H" 
			},
			{
				"x": 2.2512093169,
				"y": 1.2731577344,
				"z": -5.2581701507,
				"element": "H" 
			},
			{
				"x": 2.1788416134,
				"y": 3.0289907488,
				"z": -3.1347388818,
				"element": "H" 
			},
			{
				"x": 0.7347736376,
				"y": 3.5993775775,
				"z": -1.2308073193,
				"element": "H" 
			},
			{
				"x": -2.065691167,
				"y": 1.9826991322,
				"z": -0.0510542501,
				"element": "H" 
			},
			{
				"x": -0.8032655757,
				"y": 3.1596447835,
				"z": 0.3647361213,
				"element": "H" 
			},
			{
				"x": -0.795816275,
				"y": 1.5225267628,
				"z": 1.051672368,
				"element": "H" 
			},
			{
				"x": -0.8522298935,
				"y": -1.6185767042,
				"z": -1.5655424927,
				"element": "H" 
			},
			{
				"x": -3.4835771045,
				"y": -4.7438719787,
				"z": 0.1714182153,
				"element": "H" 
			},
			{
				"x": 0.6596894539,
				"y": -0.9803392769,
				"z": -3.0456926973,
				"element": "H" 
			}
		],
		 "valence_orbital": [ 
			{
				"type": "occ",
				"energy": -0.3063,
				"method": "rhf"
			},
			{
				"type": "occ",
				"energy": -0.26197,
				"method": "rhf"
			},
			{
				"type": "occ",
				"energy": -0.26132,
				"method": "rhf"
			},
			{
				"type": "occ",
				"energy": -0.25151,
				"method": "rhf"
			},
			{
				"type": "occ",
				"energy": -0.21889,
				"method": "rhf"
			},
			{
				"type": "unocc",
				"energy": -0.09632,
				"method": "rhf"
			},
			{
				"type": "unocc",
				"energy": -0.01047,
				"method": "rhf"
			},
			{
				"type": "unocc",
				"energy": -0.00191,
				"method": "rhf"
			},
			{
				"type": "unocc",
				"energy": 0.01125,
				"method": "rhf"
			},
			{
				"type": "unocc",
				"energy": 0.084,
				"method": "rhf"
			}
		],
		"cosmo_sigma_profile": { 
			"-0.025": 0.0,
			"-0.024": 0.0,
			"-0.023": 0.0,
			"-0.022": 0.0,
			"-0.021": 0.0,
			"-0.02": 0.0,
			"-0.019": 0.0,
			"-0.018": 0.0,
			"-0.017": 0.994111555017,
			"-0.016": 1.2865728113,
			"-0.015": 1.02176299836,
			"-0.014": 1.21039520435,
			"-0.013": 0.549882080035,
			"-0.012": 1.1234008731,
			"-0.011": 1.94541142914,
			"-0.01": 1.63231074219,
			"-0.009": 1.80541136097,
			"-0.008": 1.88299528539,
			"-0.007": 3.27419299319,
			"-0.006": 7.00062224749,
			"-0.005": 13.0643121128,
			"-0.004": 16.9951886723,
			"-0.003": 21.4688930898,
			"-0.002": 26.8824641555,
			"-0.001": 30.9586174355,
			"0.0": 31.0721744422,
			"0.001": 23.3140341026,
			"0.002": 37.3798782657,
			"0.003": 32.2034234446,
			"0.004": 13.9645281942,
			"0.005": 6.81624724217,
			"0.006": 2.67232551761,
			"0.007": 2.01367234365,
			"0.008": 2.98809677525,
			"0.009": 2.4876892334,
			"0.01": 2.59019168255,
			"0.011": 3.41751767923,
			"0.012": 3.54182717414,
			"0.013": 2.48057686252,
			"0.014": 0.239938515553,
			"0.015": 0.0,
			"0.016": 0.0,
			"0.017": 0.0,
			"0.018": 0.0,
			"0.019": 0.0,
			"0.02": 0.0,
			"0.021": 0.0,
			"0.022": 0.0,
			"0.023": 0.0,
			"0.024": 0.0,
			"0.025": 0.0
		}
	}
}
