{
	 "smiles": "CCNS(=O)(=O)C1=CC(F)=CC=C1", 
	 "Tm": 323.15, 
	 "num_atms": 23, 
	 "gaussian": { 
		 "optdone": 1, 
		 "sigma_profile": "yes", 
		 "theory": "DFT", 
		 "functional": "B3LYP", 
		 "basiset": "6-31G**", 
		 "properties": { 
			 "R2extent": 3291.8353, 
			 "electric_dipole_moment_norm": 4.04724030544, 
			 "electric_quadrupole_moment_norm": 10.1747985553, 
			 "total_energy": -1014.03122004, 
			 "HOMO_LUMO_gap": 0.21417, 
			 "cosmo_polarized_energy": -12.67, 
			 "cosmo_cavitation_energy": 28.66, 
			 "cosmo_dispersion_energy": -20.83, 
			 "cosmo_repulsion_energy": 1.6, 
			 "cosmo_total_nonelectrostatic_energy": 9.42, 
			 "SMD_solvation_energy": 4.31 
		},
		"coords": [
			{
				"x": 0.5263206308,
				"y": 3.5769510541,
				"z": -2.2842170809,
				"element": "C" 
			},
			{
				"x": -0.0874472355,
				"y": 2.1795491678,
				"z": -2.3817977597,
				"element": "C" 
			},
			{
				"x": 0.6440830707,
				"y": 1.1298213966,
				"z": -1.6503457577,
				"element": "N" 
			},
			{
				"x": 0.4183134411,
				"y": 0.9561392718,
				"z": 0.0098011951,
				"element": "S" 
			},
			{
				"x": 1.6617238404,
				"y": 0.349841096,
				"z": 0.495496666,
				"element": "O" 
			},
			{
				"x": -0.1196452571,
				"y": 2.1892557279,
				"z": 0.5979253974,
				"element": "O" 
			},
			{
				"x": -0.8917281931,
				"y": -0.2730715782,
				"z": 0.1010372121,
				"element": "C" 
			},
			{
				"x": -2.1630823604,
				"y": 0.1321077512,
				"z": 0.5038969739,
				"element": "C" 
			},
			{
				"x": -3.1560239817,
				"y": -0.8395119928,
				"z": 0.577088311,
				"element": "C" 
			},
			{
				"x": -4.3933774631,
				"y": -0.4728574884,
				"z": 0.9618316441,
				"element": "F" 
			},
			{
				"x": -2.9119798387,
				"y": -2.1731678133,
				"z": 0.2702207573,
				"element": "C" 
			},
			{
				"x": -1.6247306521,
				"y": -2.5500655549,
				"z": -0.1216020762,
				"element": "C" 
			},
			{
				"x": -0.6040427111,
				"y": -1.6046056685,
				"z": -0.2088626276,
				"element": "C" 
			},
			{
				"x": 1.5534994494,
				"y": 3.5809234336,
				"z": -2.6667125605,
				"element": "H" 
			},
			{
				"x": 0.5388318948,
				"y": 3.9204766618,
				"z": -1.2476033323,
				"element": "H" 
			},
			{
				"x": -0.0533986043,
				"y": 4.288081403,
				"z": -2.8823692708,
				"element": "H" 
			},
			{
				"x": -0.1391174038,
				"y": 1.8512091763,
				"z": -3.4260271601,
				"element": "H" 
			},
			{
				"x": -1.1145471771,
				"y": 2.1835341003,
				"z": -2.0055772327,
				"element": "H" 
			},
			{
				"x": 1.6449360731,
				"y": 1.1002767466,
				"z": -1.829441072,
				"element": "H" 
			},
			{
				"x": -2.3673383243,
				"y": 1.1630101489,
				"z": 0.7668181568,
				"element": "H" 
			},
			{
				"x": -3.7191469314,
				"y": -2.8935300773,
				"z": 0.3459027373,
				"element": "H" 
			},
			{
				"x": -1.4193522856,
				"y": -3.5899089912,
				"z": -0.3557357119,
				"element": "H" 
			},
			{
				"x": 0.4001500189,
				"y": -1.8903579713,
				"z": -0.5001274085,
				"element": "H" 
			}
		],
		 "valence_orbital": [ 
			{
				"type": "occ",
				"energy": -0.31232,
				"method": "rhf"
			},
			{
				"type": "occ",
				"energy": -0.30278,
				"method": "rhf"
			},
			{
				"type": "occ",
				"energy": -0.29057,
				"method": "rhf"
			},
			{
				"type": "occ",
				"energy": -0.26962,
				"method": "rhf"
			},
			{
				"type": "occ",
				"energy": -0.25759,
				"method": "rhf"
			},
			{
				"type": "unocc",
				"energy": -0.04342,
				"method": "rhf"
			},
			{
				"type": "unocc",
				"energy": -0.01994,
				"method": "rhf"
			},
			{
				"type": "unocc",
				"energy": 0.05162,
				"method": "rhf"
			},
			{
				"type": "unocc",
				"energy": 0.0769,
				"method": "rhf"
			},
			{
				"type": "unocc",
				"energy": 0.08914,
				"method": "rhf"
			}
		],
		"cosmo_sigma_profile": { 
			"-0.025": 0.0,
			"-0.024": 0.0,
			"-0.023": 0.0,
			"-0.022": 0.0,
			"-0.021": 0.0,
			"-0.02": 0.0,
			"-0.019": 0.0,
			"-0.018": 0.0,
			"-0.017": 0.0,
			"-0.016": 0.0,
			"-0.015": 0.0490727783104,
			"-0.014": 0.60982239016,
			"-0.013": 0.994596647554,
			"-0.012": 1.11103901949,
			"-0.011": 1.09423787972,
			"-0.01": 0.781519814799,
			"-0.009": 1.10196257357,
			"-0.008": 4.74633540573,
			"-0.007": 8.84651616616,
			"-0.006": 9.42870719068,
			"-0.005": 13.3972007651,
			"-0.004": 15.332725464,
			"-0.003": 17.0532366257,
			"-0.002": 16.6405637719,
			"-0.001": 19.437170783,
			"0.0": 22.5336433383,
			"0.001": 19.0938100162,
			"0.002": 15.4005954562,
			"0.003": 11.7695805232,
			"0.004": 12.5774925551,
			"0.005": 3.61721205165,
			"0.006": 3.8290216853,
			"0.007": 3.07602892615,
			"0.008": 3.98774969387,
			"0.009": 4.61824271449,
			"0.01": 6.12431999114,
			"0.011": 8.09916589738,
			"0.012": 2.60769602118,
			"0.013": 0.0,
			"0.014": 0.0,
			"0.015": 0.0,
			"0.016": 0.0,
			"0.017": 0.0,
			"0.018": 0.0,
			"0.019": 0.0,
			"0.02": 0.0,
			"0.021": 0.0,
			"0.022": 0.0,
			"0.023": 0.0,
			"0.024": 0.0,
			"0.025": 0.0
		}
	}
}
