{
	 "smiles": "CC(C)(C)OC(=O)NC1CCCC1C(O)=O", 
	 "Tm": 365.15, 
	 "num_atms": 35, 
	 "gaussian": { 
		 "optdone": 1, 
		 "sigma_profile": "yes", 
		 "theory": "DFT", 
		 "functional": "B3LYP", 
		 "basiset": "6-31G**", 
		 "properties": { 
			 "R2extent": 4939.3866, 
			 "electric_dipole_moment_norm": 2.25865936786, 
			 "electric_quadrupole_moment_norm": 17.8962947187, 
			 "total_energy": -786.33050187, 
			 "HOMO_LUMO_gap": 0.25308, 
			 "cosmo_polarized_energy": -14.93, 
			 "cosmo_cavitation_energy": 36.01, 
			 "cosmo_dispersion_energy": -24.23, 
			 "cosmo_repulsion_energy": 1.89, 
			 "cosmo_total_nonelectrostatic_energy": 13.68, 
			 "SMD_solvation_energy": 7.01 
		},
		"coords": [
			{
				"x": 0.4036671033,
				"y": -1.5129888737,
				"z": 2.4811562232,
				"element": "C" 
			},
			{
				"x": 1.072146606,
				"y": -1.8681514466,
				"z": 1.1492145494,
				"element": "C" 
			},
			{
				"x": 1.3373216147,
				"y": -3.3714258999,
				"z": 1.0137130191,
				"element": "C" 
			},
			{
				"x": 2.3643584003,
				"y": -1.0704966865,
				"z": 0.9549595948,
				"element": "C" 
			},
			{
				"x": 0.2366134809,
				"y": -1.3997563545,
				"z": 0.0311619118,
				"element": "O" 
			},
			{
				"x": -1.0145547332,
				"y": -1.8880709183,
				"z": -0.1562773699,
				"element": "C" 
			},
			{
				"x": -1.5685395762,
				"y": -2.7431316837,
				"z": 0.5169015247,
				"element": "O" 
			},
			{
				"x": -1.5961129438,
				"y": -1.290156896,
				"z": -1.2407746745,
				"element": "N" 
			},
			{
				"x": -1.0300271515,
				"y": -0.2160433591,
				"z": -2.0407639619,
				"element": "C" 
			},
			{
				"x": -2.0961539306,
				"y": 0.4174942771,
				"z": -2.9596480546,
				"element": "C" 
			},
			{
				"x": -1.2956940698,
				"y": 0.9387641495,
				"z": -4.1591216413,
				"element": "C" 
			},
			{
				"x": -0.2923954028,
				"y": -0.1957659623,
				"z": -4.4185324988,
				"element": "C" 
			},
			{
				"x": 0.136204149,
				"y": -0.6654973909,
				"z": -2.9922170896,
				"element": "C" 
			},
			{
				"x": 1.4364180243,
				"y": 0.0042542187,
				"z": -2.6108533177,
				"element": "C" 
			},
			{
				"x": 2.509906387,
				"y": -0.8019565712,
				"z": -2.8043264663,
				"element": "O" 
			},
			{
				"x": 1.5520203902,
				"y": 1.1487538891,
				"z": -2.2225143484,
				"element": "O" 
			},
			{
				"x": 1.0732346634,
				"y": -1.7691751051,
				"z": 3.30873042,
				"element": "H" 
			},
			{
				"x": 0.2000091064,
				"y": -0.4385245125,
				"z": 2.5290907043,
				"element": "H" 
			},
			{
				"x": -0.5328825177,
				"y": -2.0578252218,
				"z": 2.6034812852,
				"element": "H" 
			},
			{
				"x": 2.053631712,
				"y": -3.687333036,
				"z": 1.7792931665,
				"element": "H" 
			},
			{
				"x": 1.7697732225,
				"y": -3.5925148265,
				"z": 0.0326338725,
				"element": "H" 
			},
			{
				"x": 0.4165534862,
				"y": -3.9425477818,
				"z": 1.1321232189,
				"element": "H" 
			},
			{
				"x": 2.817171822,
				"y": -1.3097494257,
				"z": -0.0114909657,
				"element": "H" 
			},
			{
				"x": 2.164051428,
				"y": 0.0042772464,
				"z": 0.9849841877,
				"element": "H" 
			},
			{
				"x": 3.0795440132,
				"y": -1.3158878373,
				"z": 1.7457833283,
				"element": "H" 
			},
			{
				"x": -2.5272197119,
				"y": -1.6225381711,
				"z": -1.4405322078,
				"element": "H" 
			},
			{
				"x": -0.6303670664,
				"y": 0.5511471963,
				"z": -1.3723521456,
				"element": "H" 
			},
			{
				"x": -2.7978437618,
				"y": -0.3579804736,
				"z": -3.2988438184,
				"element": "H" 
			},
			{
				"x": -2.6783844053,
				"y": 1.1879698814,
				"z": -2.4463580516,
				"element": "H" 
			},
			{
				"x": -1.9208631689,
				"y": 1.1640285089,
				"z": -5.0284241353,
				"element": "H" 
			},
			{
				"x": -0.7598476379,
				"y": 1.8536122257,
				"z": -3.8826923961,
				"element": "H" 
			},
			{
				"x": 0.5540331202,
				"y": 0.1038411615,
				"z": -5.0435658585,
				"element": "H" 
			},
			{
				"x": -0.7910854295,
				"y": -1.0278889757,
				"z": -4.9281978981,
				"element": "H" 
			},
			{
				"x": 0.2743560397,
				"y": -1.7471690239,
				"z": -2.9546097316,
				"element": "H" 
			},
			{
				"x": 3.289356738,
				"y": -0.265666321,
				"z": -2.5793303747,
				"element": "H" 
			}
		],
		 "valence_orbital": [ 
			{
				"type": "occ",
				"energy": -0.3175,
				"method": "rhf"
			},
			{
				"type": "occ",
				"energy": -0.28531,
				"method": "rhf"
			},
			{
				"type": "occ",
				"energy": -0.27457,
				"method": "rhf"
			},
			{
				"type": "occ",
				"energy": -0.2572,
				"method": "rhf"
			},
			{
				"type": "occ",
				"energy": -0.24475,
				"method": "rhf"
			},
			{
				"type": "unocc",
				"energy": 0.00833,
				"method": "rhf"
			},
			{
				"type": "unocc",
				"energy": 0.05646,
				"method": "rhf"
			},
			{
				"type": "unocc",
				"energy": 0.06883,
				"method": "rhf"
			},
			{
				"type": "unocc",
				"energy": 0.07972,
				"method": "rhf"
			},
			{
				"type": "unocc",
				"energy": 0.09036,
				"method": "rhf"
			}
		],
		"cosmo_sigma_profile": { 
			"-0.025": 0.0,
			"-0.024": 0.0,
			"-0.023": 0.0,
			"-0.022": 0.0,
			"-0.021": 0.0,
			"-0.02": 0.0,
			"-0.019": 0.0,
			"-0.018": 0.301625079421,
			"-0.017": 0.564858616483,
			"-0.016": 1.06952884562,
			"-0.015": 0.891782760983,
			"-0.014": 0.791633579395,
			"-0.013": 1.36703965696,
			"-0.012": 1.70014786261,
			"-0.011": 1.18109175355,
			"-0.01": 2.71126988607,
			"-0.009": 1.40332833597,
			"-0.008": 1.592419882,
			"-0.007": 2.2420032413,
			"-0.006": 2.41190553311,
			"-0.005": 5.72661410729,
			"-0.004": 24.0541782285,
			"-0.003": 29.3991780629,
			"-0.002": 32.8745304705,
			"-0.001": 35.2456715175,
			"0.0": 37.6710441694,
			"0.001": 25.4937440998,
			"0.002": 11.3686648118,
			"0.003": 7.09423545494,
			"0.004": 6.50883840296,
			"0.005": 7.23413197888,
			"0.006": 5.72725485114,
			"0.007": 3.9176505346,
			"0.008": 4.87192648222,
			"0.009": 3.47721337557,
			"0.01": 3.82432463008,
			"0.011": 3.50991296176,
			"0.012": 6.1628714563,
			"0.013": 3.30105122048,
			"0.014": 3.18889152925,
			"0.015": 0.15012541662,
			"0.016": 0.0,
			"0.017": 0.0,
			"0.018": 0.0,
			"0.019": 0.0,
			"0.02": 0.0,
			"0.021": 0.0,
			"0.022": 0.0,
			"0.023": 0.0,
			"0.024": 0.0,
			"0.025": 0.0
		}
	}
}
