{
	 "smiles": "CC1C2C(CC3C4CCC5CC(O)CCC5(C)C4CCC23C)OC11CCC(C)CO1", 
	 "Tm": 479.15, 
	 "num_atms": 74, 
	 "gaussian": { 
		 "optdone": 1, 
		 "sigma_profile": "yes", 
		 "theory": "DFT", 
		 "functional": "B3LYP", 
		 "basiset": "6-31G**", 
		 "properties": { 
			 "R2extent": 17317.0441, 
			 "electric_dipole_moment_norm": 1.36643792761, 
			 "electric_quadrupole_moment_norm": 14.3898848001, 
			 "total_energy": -1281.09438499, 
			 "HOMO_LUMO_gap": 0.31197, 
			 "cosmo_polarized_energy": -10.88, 
			 "cosmo_cavitation_energy": 61.84, 
			 "cosmo_dispersion_energy": -41.8, 
			 "cosmo_repulsion_energy": 3.06, 
			 "cosmo_total_nonelectrostatic_energy": 23.11, 
			 "SMD_solvation_energy": 7.85 
		},
		"coords": [
			{
				"x": -4.7569195986,
				"y": 0.2415514874,
				"z": -0.6134652291,
				"element": "C" 
			},
			{
				"x": -3.3267782868,
				"y": 0.6372456671,
				"z": -0.9845230548,
				"element": "C" 
			},
			{
				"x": -2.4417732019,
				"y": -0.5245948046,
				"z": -1.4973018949,
				"element": "C" 
			},
			{
				"x": -1.4422790387,
				"y": 0.1817311154,
				"z": -2.4530178012,
				"element": "C" 
			},
			{
				"x": -0.066350653,
				"y": 0.0799585722,
				"z": -1.7922685881,
				"element": "C" 
			},
			{
				"x": -0.1115538373,
				"y": -1.2474745584,
				"z": -1.0084289127,
				"element": "C" 
			},
			{
				"x": 0.9076249313,
				"y": -1.3951338383,
				"z": 0.1374411774,
				"element": "C" 
			},
			{
				"x": 2.3634951066,
				"y": -1.5328893446,
				"z": -0.3310242511,
				"element": "C" 
			},
			{
				"x": 3.3027488647,
				"y": -1.75492587,
				"z": 0.8627866613,
				"element": "C" 
			},
			{
				"x": 3.1484793501,
				"y": -0.6596026702,
				"z": 1.9308245793,
				"element": "C" 
			},
			{
				"x": 4.145037317,
				"y": -0.8550530037,
				"z": 3.0949699983,
				"element": "C" 
			},
			{
				"x": 3.8576673339,
				"y": 0.0473793575,
				"z": 4.3198657585,
				"element": "C" 
			},
			{
				"x": 5.056675263,
				"y": 0.5583302903,
				"z": 4.9043408479,
				"element": "O" 
			},
			{
				"x": 3.0049710385,
				"y": 1.2423749937,
				"z": 3.9118540265,
				"element": "C" 
			},
			{
				"x": 1.6392197037,
				"y": 0.8089239017,
				"z": 3.3356105935,
				"element": "C" 
			},
			{
				"x": 1.6803937506,
				"y": -0.4701787105,
				"z": 2.4247894992,
				"element": "C" 
			},
			{
				"x": 1.1964760461,
				"y": -1.6873443057,
				"z": 3.2460856097,
				"element": "C" 
			},
			{
				"x": 0.7831574285,
				"y": -0.2426872577,
				"z": 1.1637120025,
				"element": "C" 
			},
			{
				"x": -0.7115257436,
				"y": 0.0847616493,
				"z": 1.4630608315,
				"element": "C" 
			},
			{
				"x": -1.6901542159,
				"y": -1.0081660039,
				"z": 1.000243425,
				"element": "C" 
			},
			{
				"x": -1.5955770997,
				"y": -1.4044302724,
				"z": -0.5022906479,
				"element": "C" 
			},
			{
				"x": -2.0418542399,
				"y": -2.8748445061,
				"z": -0.626177993,
				"element": "C" 
			},
			{
				"x": -1.8674211394,
				"y": 1.5483547828,
				"z": -2.5808491824,
				"element": "O" 
			},
			{
				"x": -3.213933078,
				"y": 1.6544864866,
				"z": -2.1419926814,
				"element": "C" 
			},
			{
				"x": -3.4787573017,
				"y": 3.1174937312,
				"z": -1.7769259441,
				"element": "C" 
			},
			{
				"x": -3.4636010473,
				"y": 4.0194679963,
				"z": -3.0197053011,
				"element": "C" 
			},
			{
				"x": -4.4036533196,
				"y": 3.4722195857,
				"z": -4.1067199181,
				"element": "C" 
			},
			{
				"x": -4.3361281828,
				"y": 4.2865298544,
				"z": -5.4022089532,
				"element": "C" 
			},
			{
				"x": -4.0598747916,
				"y": 2.0001926305,
				"z": -4.3578113362,
				"element": "C" 
			},
			{
				"x": -4.1142412533,
				"y": 1.2228002825,
				"z": -3.1600750854,
				"element": "O" 
			},
			{
				"x": -4.7636974425,
				"y": -0.4834091455,
				"z": 0.2070963694,
				"element": "H" 
			},
			{
				"x": -5.2668125779,
				"y": -0.2037342715,
				"z": -1.4709796012,
				"element": "H" 
			},
			{
				"x": -5.3409329143,
				"y": 1.1096767351,
				"z": -0.2886469217,
				"element": "H" 
			},
			{
				"x": -2.8506530338,
				"y": 1.115733569,
				"z": -0.1214104376,
				"element": "H" 
			},
			{
				"x": -3.0927682798,
				"y": -1.1833561256,
				"z": -2.0805925535,
				"element": "H" 
			},
			{
				"x": -1.439742089,
				"y": -0.284846599,
				"z": -3.4463572389,
				"element": "H" 
			},
			{
				"x": 0.0422949,
				"y": 0.9403805364,
				"z": -1.1248027379,
				"element": "H" 
			},
			{
				"x": 0.7575014723,
				"y": 0.1220448453,
				"z": -2.5116509004,
				"element": "H" 
			},
			{
				"x": 0.0775191184,
				"y": -2.060824759,
				"z": -1.7245051667,
				"element": "H" 
			},
			{
				"x": 0.6523491139,
				"y": -2.3372788147,
				"z": 0.6439696277,
				"element": "H" 
			},
			{
				"x": 2.6651003485,
				"y": -0.6236522008,
				"z": -0.8699837818,
				"element": "H" 
			},
			{
				"x": 2.4546580333,
				"y": -2.3624764833,
				"z": -1.0442234473,
				"element": "H" 
			},
			{
				"x": 3.1025418881,
				"y": -2.7396890963,
				"z": 1.307054564,
				"element": "H" 
			},
			{
				"x": 4.3466530133,
				"y": -1.7832237072,
				"z": 0.5243813302,
				"element": "H" 
			},
			{
				"x": 3.4144111304,
				"y": 0.2870364402,
				"z": 1.4371540772,
				"element": "H" 
			},
			{
				"x": 4.1690865769,
				"y": -1.9104247813,
				"z": 3.3976391183,
				"element": "H" 
			},
			{
				"x": 5.1511842419,
				"y": -0.6063491264,
				"z": 2.7358947934,
				"element": "H" 
			},
			{
				"x": 3.3035519972,
				"y": -0.5285388567,
				"z": 5.0795430357,
				"element": "H" 
			},
			{
				"x": 5.6009783402,
				"y": -0.1954114888,
				"z": 5.1665705575,
				"element": "H" 
			},
			{
				"x": 3.5709643361,
				"y": 1.8251529362,
				"z": 3.1750361474,
				"element": "H" 
			},
			{
				"x": 2.8601649238,
				"y": 1.8977816576,
				"z": 4.7769495465,
				"element": "H" 
			},
			{
				"x": 0.9422057615,
				"y": 0.6362489071,
				"z": 4.1644638687,
				"element": "H" 
			},
			{
				"x": 1.2274046175,
				"y": 1.6526629574,
				"z": 2.7702963194,
				"element": "H" 
			},
			{
				"x": 1.7690706664,
				"y": -1.8008960708,
				"z": 4.1710700255,
				"element": "H" 
			},
			{
				"x": 0.1478775291,
				"y": -1.5638389835,
				"z": 3.5366816078,
				"element": "H" 
			},
			{
				"x": 1.2770854579,
				"y": -2.6300158792,
				"z": 2.6979988186,
				"element": "H" 
			},
			{
				"x": 1.2152368873,
				"y": 0.6445014163,
				"z": 0.680061761,
				"element": "H" 
			},
			{
				"x": -0.972014737,
				"y": 1.0335059729,
				"z": 0.9804130992,
				"element": "H" 
			},
			{
				"x": -0.8629657225,
				"y": 0.2554175579,
				"z": 2.534410358,
				"element": "H" 
			},
			{
				"x": -1.498515612,
				"y": -1.9088467374,
				"z": 1.5966314626,
				"element": "H" 
			},
			{
				"x": -2.7154482386,
				"y": -0.7128324096,
				"z": 1.2479573354,
				"element": "H" 
			},
			{
				"x": -3.0554839859,
				"y": -3.0156139803,
				"z": -0.2324833991,
				"element": "H" 
			},
			{
				"x": -1.3748606721,
				"y": -3.540854075,
				"z": -0.0660587737,
				"element": "H" 
			},
			{
				"x": -2.0418583027,
				"y": -3.2034876041,
				"z": -1.6715385662,
				"element": "H" 
			},
			{
				"x": -4.4606156438,
				"y": 3.171206231,
				"z": -1.2912438562,
				"element": "H" 
			},
			{
				"x": -2.7291314294,
				"y": 3.442743426,
				"z": -1.0483190122,
				"element": "H" 
			},
			{
				"x": -2.4418730893,
				"y": 4.0658130347,
				"z": -3.4176881597,
				"element": "H" 
			},
			{
				"x": -3.7483111683,
				"y": 5.0434504264,
				"z": -2.7482393116,
				"element": "H" 
			},
			{
				"x": -5.4328697856,
				"y": 3.5052086917,
				"z": -3.7197157724,
				"element": "H" 
			},
			{
				"x": -5.02715442,
				"y": 3.897473432,
				"z": -6.1585500561,
				"element": "H" 
			},
			{
				"x": -4.5961196764,
				"y": 5.3349713044,
				"z": -5.2215410031,
				"element": "H" 
			},
			{
				"x": -3.3263842673,
				"y": 4.2646167807,
				"z": -5.8292356094,
				"element": "H" 
			},
			{
				"x": -3.0587460356,
				"y": 1.9231848301,
				"z": -4.8067083779,
				"element": "H" 
			},
			{
				"x": -4.7785513352,
				"y": 1.5366122693,
				"z": -5.0412973747,
				"element": "H" 
			}
		],
		 "valence_orbital": [ 
			{
				"type": "occ",
				"energy": -0.27298,
				"method": "rhf"
			},
			{
				"type": "occ",
				"energy": -0.26699,
				"method": "rhf"
			},
			{
				"type": "occ",
				"energy": -0.25458,
				"method": "rhf"
			},
			{
				"type": "occ",
				"energy": -0.25329,
				"method": "rhf"
			},
			{
				"type": "occ",
				"energy": -0.24361,
				"method": "rhf"
			},
			{
				"type": "unocc",
				"energy": 0.06836,
				"method": "rhf"
			},
			{
				"type": "unocc",
				"energy": 0.0734,
				"method": "rhf"
			},
			{
				"type": "unocc",
				"energy": 0.08053,
				"method": "rhf"
			},
			{
				"type": "unocc",
				"energy": 0.086,
				"method": "rhf"
			},
			{
				"type": "unocc",
				"energy": 0.08972,
				"method": "rhf"
			}
		],
		"cosmo_sigma_profile": { 
			"-0.025": 0.0,
			"-0.024": 0.0,
			"-0.023": 0.0,
			"-0.022": 0.0,
			"-0.021": 0.0,
			"-0.02": 0.0,
			"-0.019": 0.0,
			"-0.018": 0.0,
			"-0.017": 0.0,
			"-0.016": 0.0,
			"-0.015": 0.364521106722,
			"-0.014": 0.980769458128,
			"-0.013": 1.25399733429,
			"-0.012": 0.577813871299,
			"-0.011": 0.671563569476,
			"-0.01": 0.925463609117,
			"-0.009": 0.885970228142,
			"-0.008": 0.926610192344,
			"-0.007": 1.07755647355,
			"-0.006": 0.668255122132,
			"-0.005": 0.899069848188,
			"-0.004": 4.9297628523,
			"-0.003": 33.6369717754,
			"-0.002": 89.3114086543,
			"-0.001": 111.901824237,
			"0.0": 81.0226763881,
			"0.001": 60.6022499808,
			"0.002": 28.5984970186,
			"0.003": 7.76527180731,
			"0.004": 4.9665504017,
			"0.005": 5.1735942966,
			"0.006": 4.66206405376,
			"0.007": 5.37511535166,
			"0.008": 3.79624019674,
			"0.009": 4.20257832197,
			"0.01": 3.96675241113,
			"0.011": 3.15216922179,
			"0.012": 2.81857234814,
			"0.013": 1.29025473632,
			"0.014": 2.20693979191,
			"0.015": 1.653166144,
			"0.016": 0.0,
			"0.017": 0.0,
			"0.018": 0.0,
			"0.019": 0.0,
			"0.02": 0.0,
			"0.021": 0.0,
			"0.022": 0.0,
			"0.023": 0.0,
			"0.024": 0.0,
			"0.025": 0.0
		}
	}
}
