{
	 "smiles": "S=C(OC1=CC=CC=N1)OC1=NC=CC=C1", 
	 "Tm": 370.65, 
	 "num_atms": 24, 
	 "gaussian": { 
		 "optdone": 1, 
		 "sigma_profile": "yes", 
		 "theory": "DFT", 
		 "functional": "B3LYP", 
		 "basiset": "6-31G**", 
		 "properties": { 
			 "R2extent": 4821.69, 
			 "electric_dipole_moment_norm": 4.8511997011, 
			 "electric_quadrupole_moment_norm": 21.3985678934, 
			 "total_energy": -1082.10042042, 
			 "HOMO_LUMO_gap": 0.17868, 
			 "cosmo_polarized_energy": -13.98, 
			 "cosmo_cavitation_energy": 32.11, 
			 "cosmo_dispersion_energy": -22.94, 
			 "cosmo_repulsion_energy": 1.76, 
			 "cosmo_total_nonelectrostatic_energy": 10.93, 
			 "SMD_solvation_energy": 2.82 
		},
		"coords": [
			{
				"x": -1.4855735652,
				"y": 2.2921924115,
				"z": -2.3180913421,
				"element": "S" 
			},
			{
				"x": -0.8689961879,
				"y": 1.4327417192,
				"z": -1.0677829525,
				"element": "C" 
			},
			{
				"x": -1.1926784748,
				"y": 0.1888559075,
				"z": -0.6818964154,
				"element": "O" 
			},
			{
				"x": -1.9898023966,
				"y": -0.618998575,
				"z": -1.5002745367,
				"element": "C" 
			},
			{
				"x": -1.3977885562,
				"y": -1.2508616305,
				"z": -2.5925214968,
				"element": "C" 
			},
			{
				"x": -2.2028770099,
				"y": -2.1148996639,
				"z": -3.3280979076,
				"element": "C" 
			},
			{
				"x": -3.5305891948,
				"y": -2.3040542038,
				"z": -2.9349746341,
				"element": "C" 
			},
			{
				"x": -3.9938971156,
				"y": -1.6202218304,
				"z": -1.8130245274,
				"element": "C" 
			},
			{
				"x": -3.2314861152,
				"y": -0.7829766047,
				"z": -1.0927600106,
				"element": "N" 
			},
			{
				"x": 0.0267729334,
				"y": 1.967985946,
				"z": -0.2125973922,
				"element": "O" 
			},
			{
				"x": 0.956127818,
				"y": 1.1784692226,
				"z": 0.4588168323,
				"element": "C" 
			},
			{
				"x": 1.5900817909,
				"y": 0.2449071064,
				"z": -0.2304335325,
				"element": "N" 
			},
			{
				"x": 2.5402901851,
				"y": -0.4443097504,
				"z": 0.417363743,
				"element": "C" 
			},
			{
				"x": 2.8861877939,
				"y": -0.2119082092,
				"z": 1.7471107338,
				"element": "C" 
			},
			{
				"x": 2.2037247014,
				"y": 0.7892204794,
				"z": 2.4428250592,
				"element": "C" 
			},
			{
				"x": 1.20763812,
				"y": 1.5092953174,
				"z": 1.7902393349,
				"element": "C" 
			},
			{
				"x": -0.3590809676,
				"y": -1.0631493319,
				"z": -2.8372228727,
				"element": "H" 
			},
			{
				"x": -1.7998441677,
				"y": -2.634548243,
				"z": -4.1920413371,
				"element": "H" 
			},
			{
				"x": -4.1900849341,
				"y": -2.9694911953,
				"z": -3.4819862353,
				"element": "H" 
			},
			{
				"x": -5.0178897621,
				"y": -1.7457409503,
				"z": -1.4686299419,
				"element": "H" 
			},
			{
				"x": 3.0494533769,
				"y": -1.2108535756,
				"z": -0.1626899657,
				"element": "H" 
			},
			{
				"x": 3.6674821563,
				"y": -0.7963541294,
				"z": 2.2208524562,
				"element": "H" 
			},
			{
				"x": 2.4405987184,
				"y": 1.0041335377,
				"z": 3.4804452822,
				"element": "H" 
			},
			{
				"x": 0.6398308533,
				"y": 2.2949662454,
				"z": 2.2743716589,
				"element": "H" 
			}
		],
		 "valence_orbital": [ 
			{
				"type": "occ",
				"energy": -0.27877,
				"method": "rhf"
			},
			{
				"type": "occ",
				"energy": -0.27498,
				"method": "rhf"
			},
			{
				"type": "occ",
				"energy": -0.26225,
				"method": "rhf"
			},
			{
				"type": "occ",
				"energy": -0.24886,
				"method": "rhf"
			},
			{
				"type": "occ",
				"energy": -0.22409,
				"method": "rhf"
			},
			{
				"type": "unocc",
				"energy": -0.04541,
				"method": "rhf"
			},
			{
				"type": "unocc",
				"energy": -0.03655,
				"method": "rhf"
			},
			{
				"type": "unocc",
				"energy": -0.03185,
				"method": "rhf"
			},
			{
				"type": "unocc",
				"energy": -0.01961,
				"method": "rhf"
			},
			{
				"type": "unocc",
				"energy": -0.01225,
				"method": "rhf"
			}
		],
		"cosmo_sigma_profile": { 
			"-0.025": 0.0,
			"-0.024": 0.0,
			"-0.023": 0.0,
			"-0.022": 0.0,
			"-0.021": 0.0,
			"-0.02": 0.0,
			"-0.019": 0.0,
			"-0.018": 0.0,
			"-0.017": 0.0,
			"-0.016": 0.0,
			"-0.015": 0.0,
			"-0.014": 0.0,
			"-0.013": 0.0,
			"-0.012": 0.0,
			"-0.011": 0.0,
			"-0.01": 0.0,
			"-0.009": 0.151854038703,
			"-0.008": 8.03521791281,
			"-0.007": 19.4120556293,
			"-0.006": 18.9950002351,
			"-0.005": 14.7908000022,
			"-0.004": 10.5656937794,
			"-0.003": 13.0261288454,
			"-0.002": 12.718937777,
			"-0.001": 16.1936503972,
			"0.0": 23.1843950054,
			"0.001": 29.0821563365,
			"0.002": 23.8457724531,
			"0.003": 10.8223437931,
			"0.004": 11.4911325331,
			"0.005": 13.1176460313,
			"0.006": 10.9188674412,
			"0.007": 9.0889484273,
			"0.008": 5.85265227468,
			"0.009": 4.39337638472,
			"0.01": 2.24150533547,
			"0.011": 1.75876293474,
			"0.012": 0.786698760409,
			"0.013": 0.97845236394,
			"0.014": 0.842452086033,
			"0.015": 0.152448378982,
			"0.016": 0.0,
			"0.017": 0.0,
			"0.018": 0.0,
			"0.019": 0.0,
			"0.02": 0.0,
			"0.021": 0.0,
			"0.022": 0.0,
			"0.023": 0.0,
			"0.024": 0.0,
			"0.025": 0.0
		}
	}
}
