{
	 "smiles": "CCCCCCCCCCCC1CCCC1", 
	 "Tm": 263.15, 
	 "num_atms": 48, 
	 "gaussian": { 
		 "optdone": 1, 
		 "sigma_profile": "yes", 
		 "theory": "DFT", 
		 "functional": "B3LYP", 
		 "basiset": "6-31G**", 
		 "properties": { 
			 "R2extent": 9809.7849, 
			 "electric_dipole_moment_norm": 0.0698919165569, 
			 "electric_quadrupole_moment_norm": 0.447665667658, 
			 "total_energy": -629.032966931, 
			 "HOMO_LUMO_gap": 0.37189, 
			 "cosmo_polarized_energy": -1.01, 
			 "cosmo_cavitation_energy": 45.38, 
			 "cosmo_dispersion_energy": -31.64, 
			 "cosmo_repulsion_energy": 2.57, 
			 "cosmo_total_nonelectrostatic_energy": 16.32, 
			 "SMD_solvation_energy": 5.6 
		},
		"coords": [
			{
				"x": 1.5403277279,
				"y": -6.0629369449,
				"z": 0.8458149253,
				"element": "C" 
			},
			{
				"x": 0.3824565595,
				"y": -5.8674735207,
				"z": -0.140226488,
				"element": "C" 
			},
			{
				"x": 0.8182273256,
				"y": -5.6996539715,
				"z": -1.606553882,
				"element": "C" 
			},
			{
				"x": 1.6983295824,
				"y": -4.4716741945,
				"z": -1.9074481559,
				"element": "C" 
			},
			{
				"x": 1.068099175,
				"y": -3.1024141812,
				"z": -1.5963169215,
				"element": "C" 
			},
			{
				"x": -0.1870937284,
				"y": -2.7803857703,
				"z": -2.4219417644,
				"element": "C" 
			},
			{
				"x": -0.721648374,
				"y": -1.3500266097,
				"z": -2.2360039864,
				"element": "C" 
			},
			{
				"x": -1.2691399808,
				"y": -1.0536667964,
				"z": -0.8309564908,
				"element": "C" 
			},
			{
				"x": -1.9465103552,
				"y": 0.3195522423,
				"z": -0.6873117946,
				"element": "C" 
			},
			{
				"x": -1.0023649351,
				"y": 1.5225429432,
				"z": -0.8363385819,
				"element": "C" 
			},
			{
				"x": -1.7231930298,
				"y": 2.861249161,
				"z": -0.6139677362,
				"element": "C" 
			},
			{
				"x": -0.8696400989,
				"y": 4.1380853278,
				"z": -0.7199607971,
				"element": "C" 
			},
			{
				"x": -0.142493691,
				"y": 4.3788026232,
				"z": -2.0570935865,
				"element": "C" 
			},
			{
				"x": 0.7924535138,
				"y": 5.5661252344,
				"z": -1.7544352908,
				"element": "C" 
			},
			{
				"x": 1.1841866469,
				"y": 5.4097632623,
				"z": -0.2535061392,
				"element": "C" 
			},
			{
				"x": 0.2722466787,
				"y": 4.2862115905,
				"z": 0.3087319905,
				"element": "C" 
			},
			{
				"x": 2.1950841628,
				"y": -5.1862318534,
				"z": 0.8873703126,
				"element": "H" 
			},
			{
				"x": 1.1685981658,
				"y": -6.2415072297,
				"z": 1.8602884512,
				"element": "H" 
			},
			{
				"x": 2.1587588308,
				"y": -6.9229544773,
				"z": 0.5627434257,
				"element": "H" 
			},
			{
				"x": -0.2881231567,
				"y": -6.7342518555,
				"z": -0.0782903424,
				"element": "H" 
			},
			{
				"x": -0.2194665395,
				"y": -5.0038761051,
				"z": 0.1711098776,
				"element": "H" 
			},
			{
				"x": -0.0782175738,
				"y": -5.6686823305,
				"z": -2.238787599,
				"element": "H" 
			},
			{
				"x": 1.3683567262,
				"y": -6.5998094853,
				"z": -1.9140601908,
				"element": "H" 
			},
			{
				"x": 1.9739516947,
				"y": -4.498675828,
				"z": -2.9707477883,
				"element": "H" 
			},
			{
				"x": 2.642152505,
				"y": -4.5578795791,
				"z": -1.3541416329,
				"element": "H" 
			},
			{
				"x": 0.8377938436,
				"y": -3.037500141,
				"z": -0.5256174325,
				"element": "H" 
			},
			{
				"x": 1.8212867796,
				"y": -2.3249820201,
				"z": -1.7865593892,
				"element": "H" 
			},
			{
				"x": -0.9874288599,
				"y": -3.4929657143,
				"z": -2.1804392891,
				"element": "H" 
			},
			{
				"x": 0.0445613063,
				"y": -2.9346364564,
				"z": -3.4851491663,
				"element": "H" 
			},
			{
				"x": -1.5238782655,
				"y": -1.1760635217,
				"z": -2.9667778812,
				"element": "H" 
			},
			{
				"x": 0.075666749,
				"y": -0.6371861047,
				"z": -2.4855327792,
				"element": "H" 
			},
			{
				"x": -0.4622602841,
				"y": -1.1320862024,
				"z": -0.0900860202,
				"element": "H" 
			},
			{
				"x": -1.997843886,
				"y": -1.8336689376,
				"z": -0.5690475623,
				"element": "H" 
			},
			{
				"x": -2.4297471426,
				"y": 0.3724482122,
				"z": 0.2979675723,
				"element": "H" 
			},
			{
				"x": -2.7575066998,
				"y": 0.4018103598,
				"z": -1.4255440449,
				"element": "H" 
			},
			{
				"x": -0.5461749666,
				"y": 1.5102090079,
				"z": -1.833250454,
				"element": "H" 
			},
			{
				"x": -0.1771164403,
				"y": 1.4137709015,
				"z": -0.1197591827,
				"element": "H" 
			},
			{
				"x": -2.1985698573,
				"y": 2.8437692972,
				"z": 0.3772856957,
				"element": "H" 
			},
			{
				"x": -2.5486616676,
				"y": 2.9360419846,
				"z": -1.3361321925,
				"element": "H" 
			},
			{
				"x": -1.554301925,
				"y": 4.9877395698,
				"z": -0.5712689673,
				"element": "H" 
			},
			{
				"x": 0.4494022216,
				"y": 3.4944416142,
				"z": -2.3253818083,
				"element": "H" 
			},
			{
				"x": -0.8281097901,
				"y": 4.5744749562,
				"z": -2.8891573309,
				"element": "H" 
			},
			{
				"x": 1.6638545694,
				"y": 5.5945298148,
				"z": -2.4160574526,
				"element": "H" 
			},
			{
				"x": 0.2523457975,
				"y": 6.5080070594,
				"z": -1.9047257865,
				"element": "H" 
			},
			{
				"x": 2.2421748002,
				"y": 5.1545606522,
				"z": -0.1364885538,
				"element": "H" 
			},
			{
				"x": 1.031276762,
				"y": 6.3506030129,
				"z": 0.2850989287,
				"element": "H" 
			},
			{
				"x": -0.0984306774,
				"y": 4.5042323558,
				"z": 1.3160938222,
				"element": "H" 
			},
			{
				"x": 0.835029801,
				"y": 3.3476186479,
				"z": 0.3743594599,
				"element": "H" 
			}
		],
		 "valence_orbital": [ 
			{
				"type": "occ",
				"energy": -0.30132,
				"method": "rhf"
			},
			{
				"type": "occ",
				"energy": -0.301,
				"method": "rhf"
			},
			{
				"type": "occ",
				"energy": -0.29919,
				"method": "rhf"
			},
			{
				"type": "occ",
				"energy": -0.29692,
				"method": "rhf"
			},
			{
				"type": "occ",
				"energy": -0.29275,
				"method": "rhf"
			},
			{
				"type": "unocc",
				"energy": 0.07914,
				"method": "rhf"
			},
			{
				"type": "unocc",
				"energy": 0.08407,
				"method": "rhf"
			},
			{
				"type": "unocc",
				"energy": 0.09416,
				"method": "rhf"
			},
			{
				"type": "unocc",
				"energy": 0.10134,
				"method": "rhf"
			},
			{
				"type": "unocc",
				"energy": 0.109,
				"method": "rhf"
			}
		],
		"cosmo_sigma_profile": { 
			"-0.025": 0.0,
			"-0.024": 0.0,
			"-0.023": 0.0,
			"-0.022": 0.0,
			"-0.021": 0.0,
			"-0.02": 0.0,
			"-0.019": 0.0,
			"-0.018": 0.0,
			"-0.017": 0.0,
			"-0.016": 0.0,
			"-0.015": 0.0,
			"-0.014": 0.0,
			"-0.013": 0.0,
			"-0.012": 0.0,
			"-0.011": 0.0,
			"-0.01": 0.0,
			"-0.009": 0.0,
			"-0.008": 0.0,
			"-0.007": 0.0,
			"-0.006": 0.0,
			"-0.005": 0.0,
			"-0.004": 0.0,
			"-0.003": 1.78743416154,
			"-0.002": 39.0558397227,
			"-0.001": 82.5962301788,
			"0.0": 98.1665123763,
			"0.001": 83.6860960223,
			"0.002": 38.9604036946,
			"0.003": 1.90602200577,
			"0.004": 0.0,
			"0.005": 0.0,
			"0.006": 0.0,
			"0.007": 0.0,
			"0.008": 0.0,
			"0.009": 0.0,
			"0.01": 0.0,
			"0.011": 0.0,
			"0.012": 0.0,
			"0.013": 0.0,
			"0.014": 0.0,
			"0.015": 0.0,
			"0.016": 0.0,
			"0.017": 0.0,
			"0.018": 0.0,
			"0.019": 0.0,
			"0.02": 0.0,
			"0.021": 0.0,
			"0.022": 0.0,
			"0.023": 0.0,
			"0.024": 0.0,
			"0.025": 0.0
		}
	}
}
