{
	 "smiles": "CCC1=CC=C(O)C(C(C)=O)=C1O", 
	 "Tm": 403.15, 
	 "num_atms": 25, 
	 "gaussian": { 
		 "optdone": 1, 
		 "sigma_profile": "yes", 
		 "theory": "DFT", 
		 "functional": "B3LYP", 
		 "basiset": "6-31G**", 
		 "properties": { 
			 "R2extent": 3727.2168, 
			 "electric_dipole_moment_norm": 4.85204070263, 
			 "electric_quadrupole_moment_norm": 12.5618413411, 
			 "total_energy": -613.986251198, 
			 "HOMO_LUMO_gap": 0.1593, 
			 "cosmo_polarized_energy": -10.51, 
			 "cosmo_cavitation_energy": 27.46, 
			 "cosmo_dispersion_energy": -20.48, 
			 "cosmo_repulsion_energy": 1.61, 
			 "cosmo_total_nonelectrostatic_energy": 8.58, 
			 "SMD_solvation_energy": 5.73 
		},
		"coords": [
			{
				"x": -1.5405327391,
				"y": -1.8964498871,
				"z": 1.2367926641,
				"element": "C" 
			},
			{
				"x": -0.0311356836,
				"y": -2.0938861562,
				"z": 0.993768718,
				"element": "C" 
			},
			{
				"x": 0.8248224785,
				"y": -0.9291031844,
				"z": 1.451761212,
				"element": "C" 
			},
			{
				"x": 1.5080431192,
				"y": -0.9768249654,
				"z": 2.6760725797,
				"element": "C" 
			},
			{
				"x": 2.2698257726,
				"y": 0.0789781283,
				"z": 3.1448416185,
				"element": "C" 
			},
			{
				"x": 2.3774531151,
				"y": 1.2506767982,
				"z": 2.3818710358,
				"element": "C" 
			},
			{
				"x": 3.1217572553,
				"y": 2.2427117094,
				"z": 2.8731386542,
				"element": "O" 
			},
			{
				"x": 1.7068379977,
				"y": 1.3586819186,
				"z": 1.1195778926,
				"element": "C" 
			},
			{
				"x": 1.8618797318,
				"y": 2.6113212896,
				"z": 0.3572878113,
				"element": "C" 
			},
			{
				"x": 1.2095511233,
				"y": 2.8469369203,
				"z": -0.986168093,
				"element": "C" 
			},
			{
				"x": 2.558218778,
				"y": 3.5370347592,
				"z": 0.8178885671,
				"element": "O" 
			},
			{
				"x": 0.9357932319,
				"y": 0.2424658482,
				"z": 0.6905599522,
				"element": "C" 
			},
			{
				"x": 0.292324505,
				"y": 0.3429913031,
				"z": -0.5108929158,
				"element": "O" 
			},
			{
				"x": -1.7416445837,
				"y": -1.7600248128,
				"z": 2.3033782294,
				"element": "H" 
			},
			{
				"x": -2.1132380281,
				"y": -2.7622267558,
				"z": 0.8883508285,
				"element": "H" 
			},
			{
				"x": -1.9212161993,
				"y": -1.0087271131,
				"z": 0.7199252484,
				"element": "H" 
			},
			{
				"x": 0.3009272283,
				"y": -2.9956663756,
				"z": 1.5189504615,
				"element": "H" 
			},
			{
				"x": 0.1452991528,
				"y": -2.3159377923,
				"z": -0.0714532668,
				"element": "H" 
			},
			{
				"x": 1.4327870811,
				"y": -1.8819897847,
				"z": 3.2744925714,
				"element": "H" 
			},
			{
				"x": 2.7953113356,
				"y": 0.031992068,
				"z": 4.0916676674,
				"element": "H" 
			},
			{
				"x": 3.078778653,
				"y": 2.9775005197,
				"z": 2.1942214861,
				"element": "H" 
			},
			{
				"x": 1.5281874208,
				"y": 2.0974511616,
				"z": -1.7151698179,
				"element": "H" 
			},
			{
				"x": 1.4922788807,
				"y": 3.8459156036,
				"z": -1.3203697351,
				"element": "H" 
			},
			{
				"x": 0.1219151689,
				"y": 2.7636766142,
				"z": -0.915513133,
				"element": "H" 
			},
			{
				"x": -0.1415247959,
				"y": -0.4975978146,
				"z": -0.7044802367,
				"element": "H" 
			}
		],
		 "valence_orbital": [ 
			{
				"type": "occ",
				"energy": -0.34811,
				"method": "rhf"
			},
			{
				"type": "occ",
				"energy": -0.31183,
				"method": "rhf"
			},
			{
				"type": "occ",
				"energy": -0.25671,
				"method": "rhf"
			},
			{
				"type": "occ",
				"energy": -0.24688,
				"method": "rhf"
			},
			{
				"type": "occ",
				"energy": -0.21221,
				"method": "rhf"
			},
			{
				"type": "unocc",
				"energy": -0.05291,
				"method": "rhf"
			},
			{
				"type": "unocc",
				"energy": 0.01333,
				"method": "rhf"
			},
			{
				"type": "unocc",
				"energy": 0.03593,
				"method": "rhf"
			},
			{
				"type": "unocc",
				"energy": 0.04949,
				"method": "rhf"
			},
			{
				"type": "unocc",
				"energy": 0.09825,
				"method": "rhf"
			}
		],
		"cosmo_sigma_profile": { 
			"-0.025": 0.0,
			"-0.024": 0.0,
			"-0.023": 0.0,
			"-0.022": 0.0,
			"-0.021": 0.0,
			"-0.02": 0.0,
			"-0.019": 0.0,
			"-0.018": 0.0,
			"-0.017": 0.112700692644,
			"-0.016": 0.555494256091,
			"-0.015": 0.659766026422,
			"-0.014": 1.24376776594,
			"-0.013": 0.424941219279,
			"-0.012": 0.429125630705,
			"-0.011": 1.68627690332,
			"-0.01": 1.12340109581,
			"-0.009": 0.793830082327,
			"-0.008": 1.19047376152,
			"-0.007": 1.33127499918,
			"-0.006": 5.22417169538,
			"-0.005": 10.8362396504,
			"-0.004": 15.1025963652,
			"-0.003": 18.7249934056,
			"-0.002": 21.8198230733,
			"-0.001": 26.4059294226,
			"0.0": 21.3763217776,
			"0.001": 18.4398790008,
			"0.002": 13.0745301672,
			"0.003": 13.511171628,
			"0.004": 12.91534848,
			"0.005": 8.3982574916,
			"0.006": 2.95147895984,
			"0.007": 3.15356931066,
			"0.008": 3.30757906701,
			"0.009": 2.34044574181,
			"0.01": 3.51694290046,
			"0.011": 2.99538257466,
			"0.012": 3.0065778819,
			"0.013": 0.395829672709,
			"0.014": 0.0,
			"0.015": 0.0,
			"0.016": 0.0,
			"0.017": 0.0,
			"0.018": 0.0,
			"0.019": 0.0,
			"0.02": 0.0,
			"0.021": 0.0,
			"0.022": 0.0,
			"0.023": 0.0,
			"0.024": 0.0,
			"0.025": 0.0
		}
	}
}
