{
	 "smiles": "CC1=C(C(=O)C(O)=O)C2=C(N1)C=CC=C2", 
	 "Tm": 473.15, 
	 "num_atms": 24, 
	 "gaussian": { 
		 "optdone": 1, 
		 "sigma_profile": "yes", 
		 "theory": "DFT", 
		 "functional": "B3LYP", 
		 "basiset": "6-31G**", 
		 "properties": { 
			 "R2extent": 3354.878, 
			 "electric_dipole_moment_norm": 3.68627301349, 
			 "electric_quadrupole_moment_norm": 15.3385423418, 
			 "total_energy": -705.035335393, 
			 "HOMO_LUMO_gap": 0.15735, 
			 "cosmo_polarized_energy": -18.93, 
			 "cosmo_cavitation_energy": 28.65, 
			 "cosmo_dispersion_energy": -21.03, 
			 "cosmo_repulsion_energy": 1.64, 
			 "cosmo_total_nonelectrostatic_energy": 9.26, 
			 "SMD_solvation_energy": 6.26 
		},
		"coords": [
			{
				"x": 0.308930767,
				"y": 1.205555741,
				"z": -3.1361642727,
				"element": "C" 
			},
			{
				"x": 0.0477953007,
				"y": 0.6693816661,
				"z": -1.7681247898,
				"element": "C" 
			},
			{
				"x": 0.8760677886,
				"y": -0.0571461707,
				"z": -0.9014288192,
				"element": "C" 
			},
			{
				"x": 2.2509213057,
				"y": -0.3427243249,
				"z": -1.2681386588,
				"element": "C" 
			},
			{
				"x": 2.7574285828,
				"y": -0.0174636302,
				"z": -2.3409410582,
				"element": "O" 
			},
			{
				"x": 3.1469274194,
				"y": -1.141106893,
				"z": -0.3081278048,
				"element": "C" 
			},
			{
				"x": 4.3694357287,
				"y": -0.5927509602,
				"z": -0.2030463274,
				"element": "O" 
			},
			{
				"x": 2.8293711191,
				"y": -2.1798276599,
				"z": 0.2316400282,
				"element": "O" 
			},
			{
				"x": 0.1020714451,
				"y": -0.3120823063,
				"z": 0.3097973448,
				"element": "C" 
			},
			{
				"x": -1.1669866678,
				"y": 0.2875555279,
				"z": 0.1048634655,
				"element": "C" 
			},
			{
				"x": -1.1554320536,
				"y": 0.8615864708,
				"z": -1.1600595218,
				"element": "N" 
			},
			{
				"x": -2.193769152,
				"y": 0.2632854739,
				"z": 1.0493016693,
				"element": "C" 
			},
			{
				"x": -1.9377117148,
				"y": -0.3877783429,
				"z": 2.2507882814,
				"element": "C" 
			},
			{
				"x": -0.6913416392,
				"y": -0.9967705168,
				"z": 2.482908433,
				"element": "C" 
			},
			{
				"x": 0.3241681321,
				"y": -0.9713875594,
				"z": 1.532205844,
				"element": "C" 
			},
			{
				"x": 1.172419001,
				"y": 1.8761827475,
				"z": -3.1300537846,
				"element": "H" 
			},
			{
				"x": 0.5633755104,
				"y": 0.3981747364,
				"z": -3.828265064,
				"element": "H" 
			},
			{
				"x": -0.5642376185,
				"y": 1.7437586143,
				"z": -3.519066538,
				"element": "H" 
			},
			{
				"x": 4.8902814547,
				"y": -1.1947411136,
				"z": 0.3562252676,
				"element": "H" 
			},
			{
				"x": -1.9281984354,
				"y": 1.3564358641,
				"z": -1.5791620497,
				"element": "H" 
			},
			{
				"x": -3.1528722038,
				"y": 0.7340059355,
				"z": 0.8525603576,
				"element": "H" 
			},
			{
				"x": -2.7090567359,
				"y": -0.4298902907,
				"z": 3.0137830858,
				"element": "H" 
			},
			{
				"x": -0.5187506775,
				"y": -1.5071670022,
				"z": 3.4259009767,
				"element": "H" 
			},
			{
				"x": 1.2632633433,
				"y": -1.4719860068,
				"z": 1.7263039353,
				"element": "H" 
			}
		],
		 "valence_orbital": [ 
			{
				"type": "occ",
				"energy": -0.30302,
				"method": "rhf"
			},
			{
				"type": "occ",
				"energy": -0.28129,
				"method": "rhf"
			},
			{
				"type": "occ",
				"energy": -0.24094,
				"method": "rhf"
			},
			{
				"type": "occ",
				"energy": -0.23126,
				"method": "rhf"
			},
			{
				"type": "occ",
				"energy": -0.21455,
				"method": "rhf"
			},
			{
				"type": "unocc",
				"energy": -0.0572,
				"method": "rhf"
			},
			{
				"type": "unocc",
				"energy": -0.01464,
				"method": "rhf"
			},
			{
				"type": "unocc",
				"energy": 0.01628,
				"method": "rhf"
			},
			{
				"type": "unocc",
				"energy": 0.02798,
				"method": "rhf"
			},
			{
				"type": "unocc",
				"energy": 0.06436,
				"method": "rhf"
			}
		],
		"cosmo_sigma_profile": { 
			"-0.025": 0.0,
			"-0.024": 0.0,
			"-0.023": 0.0,
			"-0.022": 0.0,
			"-0.021": 0.0,
			"-0.02": 0.0,
			"-0.019": 0.598828130431,
			"-0.018": 0.788813935998,
			"-0.017": 1.72969222243,
			"-0.016": 2.46407970612,
			"-0.015": 1.82642899459,
			"-0.014": 2.07494994199,
			"-0.013": 1.74373353548,
			"-0.012": 2.97147874196,
			"-0.011": 2.22776701638,
			"-0.01": 1.5604665394,
			"-0.009": 2.0367786014,
			"-0.008": 3.33573033129,
			"-0.007": 3.24712302773,
			"-0.006": 5.85805939393,
			"-0.005": 11.243588842,
			"-0.004": 14.9351151148,
			"-0.003": 16.8334574994,
			"-0.002": 18.0508206288,
			"-0.001": 16.1426454161,
			"0.0": 11.5375080438,
			"0.001": 14.1904697082,
			"0.002": 12.4697575606,
			"0.003": 12.7113220485,
			"0.004": 11.7175347247,
			"0.005": 13.4347018548,
			"0.006": 11.4548342683,
			"0.007": 5.017884644,
			"0.008": 4.69603479522,
			"0.009": 4.60439770986,
			"0.01": 6.11391187531,
			"0.011": 5.60138959831,
			"0.012": 3.69632277956,
			"0.013": 1.8664803614,
			"0.014": 0.242436090217,
			"0.015": 0.0,
			"0.016": 0.0,
			"0.017": 0.0,
			"0.018": 0.0,
			"0.019": 0.0,
			"0.02": 0.0,
			"0.021": 0.0,
			"0.022": 0.0,
			"0.023": 0.0,
			"0.024": 0.0,
			"0.025": 0.0
		}
	}
}
