{
	 "smiles": "CNC1=NC2=C(CSC3=C2C=CC=C3)C=N1", 
	 "Tm": 397.15, 
	 "num_atms": 27, 
	 "gaussian": { 
		 "optdone": 1, 
		 "sigma_profile": "yes", 
		 "theory": "DFT", 
		 "functional": "B3LYP", 
		 "basiset": "6-31G**", 
		 "properties": { 
			 "R2extent": 4470.7444, 
			 "electric_dipole_moment_norm": 1.5575791569, 
			 "electric_quadrupole_moment_norm": 8.71007913971, 
			 "total_energy": -1026.37100201, 
			 "HOMO_LUMO_gap": 0.15523, 
			 "cosmo_polarized_energy": -10.42, 
			 "cosmo_cavitation_energy": 31.69, 
			 "cosmo_dispersion_energy": -23.98, 
			 "cosmo_repulsion_energy": 1.8, 
			 "cosmo_total_nonelectrostatic_energy": 9.51, 
			 "SMD_solvation_energy": 1.87 
		},
		"coords": [
			{
				"x": -2.5107537637,
				"y": 2.4128697375,
				"z": -2.4760541577,
				"element": "C" 
			},
			{
				"x": -2.0740710274,
				"y": 3.2423657076,
				"z": -1.3723961797,
				"element": "N" 
			},
			{
				"x": -1.3372252511,
				"y": 2.7812830429,
				"z": -0.326155902,
				"element": "C" 
			},
			{
				"x": -1.0809353804,
				"y": 1.464292281,
				"z": -0.2739732155,
				"element": "N" 
			},
			{
				"x": -0.3803891196,
				"y": 1.0180858433,
				"z": 0.780985459,
				"element": "C" 
			},
			{
				"x": 0.0543036858,
				"y": 1.8903246402,
				"z": 1.7946856506,
				"element": "C" 
			},
			{
				"x": 0.7502198286,
				"y": 1.3867149973,
				"z": 3.0259020933,
				"element": "C" 
			},
			{
				"x": 2.0127765499,
				"y": 0.1161971389,
				"z": 2.6257748137,
				"element": "S" 
			},
			{
				"x": 0.9959448086,
				"y": -0.9357817476,
				"z": 1.6083341604,
				"element": "C" 
			},
			{
				"x": -0.0608233123,
				"y": -0.4275143968,
				"z": 0.8179945337,
				"element": "C" 
			},
			{
				"x": -0.7844307461,
				"y": -1.3196701998,
				"z": 0.0093356129,
				"element": "C" 
			},
			{
				"x": -0.4701623946,
				"y": -2.6733320326,
				"z": -0.0341729415,
				"element": "C" 
			},
			{
				"x": 0.5895193792,
				"y": -3.1619346295,
				"z": 0.7351129028,
				"element": "C" 
			},
			{
				"x": 1.3143664266,
				"y": -2.2988555928,
				"z": 1.5533336242,
				"element": "C" 
			},
			{
				"x": -0.2453274663,
				"y": 3.2425152411,
				"z": 1.603349804,
				"element": "C" 
			},
			{
				"x": -0.9265843593,
				"y": 3.7147456358,
				"z": 0.5654868676,
				"element": "N" 
			},
			{
				"x": -1.6657104889,
				"y": 1.9653238367,
				"z": -3.0131694729,
				"element": "H" 
			},
			{
				"x": -3.1515479047,
				"y": 1.5972136246,
				"z": -2.12594075,
				"element": "H" 
			},
			{
				"x": -3.0824890325,
				"y": 3.0324180132,
				"z": -3.1701967735,
				"element": "H" 
			},
			{
				"x": -2.1749816456,
				"y": 4.2437518688,
				"z": -1.4165703271,
				"element": "H" 
			},
			{
				"x": 0.0426875367,
				"y": 0.9477883994,
				"z": 3.7394218771,
				"element": "H" 
			},
			{
				"x": 1.2822294391,
				"y": 2.1937442608,
				"z": 3.5373852187,
				"element": "H" 
			},
			{
				"x": -1.589468084,
				"y": -0.9133009381,
				"z": -0.5924109953,
				"element": "H" 
			},
			{
				"x": -1.0454254227,
				"y": -3.3448749147,
				"z": -0.6642857082,
				"element": "H" 
			},
			{
				"x": 0.8450858253,
				"y": -4.2174156834,
				"z": 0.70911094,
				"element": "H" 
			},
			{
				"x": 2.1263969072,
				"y": -2.6799332725,
				"z": 2.1653336,
				"element": "H" 
			},
			{
				"x": 0.0858950122,
				"y": 3.9799791386,
				"z": 2.3359792655,
				"element": "H" 
			}
		],
		 "valence_orbital": [ 
			{
				"type": "occ",
				"energy": -0.27916,
				"method": "rhf"
			},
			{
				"type": "occ",
				"energy": -0.24809,
				"method": "rhf"
			},
			{
				"type": "occ",
				"energy": -0.24267,
				"method": "rhf"
			},
			{
				"type": "occ",
				"energy": -0.21551,
				"method": "rhf"
			},
			{
				"type": "occ",
				"energy": -0.20909,
				"method": "rhf"
			},
			{
				"type": "unocc",
				"energy": -0.05386,
				"method": "rhf"
			},
			{
				"type": "unocc",
				"energy": -0.01137,
				"method": "rhf"
			},
			{
				"type": "unocc",
				"energy": 0.0011,
				"method": "rhf"
			},
			{
				"type": "unocc",
				"energy": 0.03054,
				"method": "rhf"
			},
			{
				"type": "unocc",
				"energy": 0.03785,
				"method": "rhf"
			}
		],
		"cosmo_sigma_profile": { 
			"-0.025": 0.0,
			"-0.024": 0.0,
			"-0.023": 0.0,
			"-0.022": 0.0,
			"-0.021": 0.0,
			"-0.02": 0.0,
			"-0.019": 0.0,
			"-0.018": 0.0,
			"-0.017": 0.0,
			"-0.016": 0.0,
			"-0.015": 0.0,
			"-0.014": 0.324745592661,
			"-0.013": 1.10072292374,
			"-0.012": 0.675075542191,
			"-0.011": 0.944716670799,
			"-0.01": 0.917195597443,
			"-0.009": 1.20783294242,
			"-0.008": 2.75510487387,
			"-0.007": 8.00648144851,
			"-0.006": 14.0959522194,
			"-0.005": 15.0585630201,
			"-0.004": 19.6811581374,
			"-0.003": 18.5597145243,
			"-0.002": 17.7960005427,
			"-0.001": 18.0513083889,
			"0.0": 15.8339687403,
			"0.001": 19.7117033808,
			"0.002": 20.0231672301,
			"0.003": 20.0341115193,
			"0.004": 22.8268278,
			"0.005": 13.1896459676,
			"0.006": 6.02897814191,
			"0.007": 4.67514435632,
			"0.008": 4.93065522785,
			"0.009": 2.57760901401,
			"0.01": 1.85663966402,
			"0.011": 1.22601466708,
			"0.012": 1.1801842469,
			"0.013": 0.579274121539,
			"0.014": 0.782467157858,
			"0.015": 0.700297357902,
			"0.016": 0.0,
			"0.017": 0.0,
			"0.018": 0.0,
			"0.019": 0.0,
			"0.02": 0.0,
			"0.021": 0.0,
			"0.022": 0.0,
			"0.023": 0.0,
			"0.024": 0.0,
			"0.025": 0.0
		}
	}
}
