{
	 "smiles": "NC(=O)C1=C(Br)C=C(Br)C=N1", 
	 "Tm": 461.15, 
	 "num_atms": 15, 
	 "gaussian": { 
		 "optdone": 1, 
		 "sigma_profile": "yes", 
		 "theory": "DFT", 
		 "functional": "B3LYP", 
		 "basiset": "6-31G**", 
		 "properties": { 
			 "R2extent": 4565.1536, 
			 "electric_dipole_moment_norm": 3.07756844603, 
			 "electric_quadrupole_moment_norm": 12.9143402425, 
			 "total_energy": -5558.58871142, 
			 "HOMO_LUMO_gap": 0.1745, 
			 "cosmo_polarized_energy": -11.61, 
			 "cosmo_cavitation_energy": 24.59, 
			 "cosmo_dispersion_energy": -19.27, 
			 "cosmo_repulsion_energy": 1.56, 
			 "cosmo_total_nonelectrostatic_energy": 6.88, 
			 "SMD_solvation_energy": 2.12 
		},
		"coords": [
			{
				"x": -1.0823465384,
				"y": 2.5613697416,
				"z": -1.769189341,
				"element": "N" 
			},
			{
				"x": -0.0357950577,
				"y": 1.7261280085,
				"z": -1.9995349739,
				"element": "C" 
			},
			{
				"x": 0.5385775413,
				"y": 1.6378877549,
				"z": -3.0757105462,
				"element": "O" 
			},
			{
				"x": 0.3535951697,
				"y": 0.906280456,
				"z": -0.779999352,
				"element": "C" 
			},
			{
				"x": 1.4009801985,
				"y": -0.0310189155,
				"z": -0.7520877972,
				"element": "C" 
			},
			{
				"x": 2.5245019384,
				"y": -0.4517850596,
				"z": -2.2239593464,
				"element": "Br" 
			},
			{
				"x": 1.6603753321,
				"y": -0.7230531085,
				"z": 0.4351453501,
				"element": "C" 
			},
			{
				"x": 0.8746725888,
				"y": -0.4621749752,
				"z": 1.5490537206,
				"element": "C" 
			},
			{
				"x": 1.182043439,
				"y": -1.3724141843,
				"z": 3.1878929063,
				"element": "Br" 
			},
			{
				"x": -0.1503772439,
				"y": 0.4816584936,
				"z": 1.453261855,
				"element": "C" 
			},
			{
				"x": -0.3877673721,
				"y": 1.1330580926,
				"z": 0.3204847635,
				"element": "N" 
			},
			{
				"x": -1.401183267,
				"y": 3.1396163123,
				"z": -2.5294495161,
				"element": "H" 
			},
			{
				"x": -1.5169749521,
				"y": 2.591135537,
				"z": -0.8600649545,
				"element": "H" 
			},
			{
				"x": 2.4630076156,
				"y": -1.4488029391,
				"z": 0.4757365201,
				"element": "H" 
			},
			{
				"x": -0.7832093921,
				"y": 0.7088147857,
				"z": 2.3064207118,
				"element": "H" 
			}
		],
		 "valence_orbital": [ 
			{
				"type": "occ",
				"energy": -0.29691,
				"method": "rhf"
			},
			{
				"type": "occ",
				"energy": -0.28219,
				"method": "rhf"
			},
			{
				"type": "occ",
				"energy": -0.26837,
				"method": "rhf"
			},
			{
				"type": "occ",
				"energy": -0.26292,
				"method": "rhf"
			},
			{
				"type": "occ",
				"energy": -0.24437,
				"method": "rhf"
			},
			{
				"type": "unocc",
				"energy": -0.06987,
				"method": "rhf"
			},
			{
				"type": "unocc",
				"energy": -0.05237,
				"method": "rhf"
			},
			{
				"type": "unocc",
				"energy": -0.02409,
				"method": "rhf"
			},
			{
				"type": "unocc",
				"energy": 0.01223,
				"method": "rhf"
			},
			{
				"type": "unocc",
				"energy": 0.04633,
				"method": "rhf"
			}
		],
		"cosmo_sigma_profile": { 
			"-0.025": 0.0,
			"-0.024": 0.0,
			"-0.023": 0.0,
			"-0.022": 0.0,
			"-0.021": 0.0,
			"-0.02": 0.0,
			"-0.019": 0.0,
			"-0.018": 0.0,
			"-0.017": 0.0,
			"-0.016": 0.0,
			"-0.015": 0.1629425792,
			"-0.014": 0.971032647909,
			"-0.013": 1.17055151431,
			"-0.012": 1.97445498179,
			"-0.011": 1.60761912537,
			"-0.01": 1.66258741778,
			"-0.009": 3.6196925782,
			"-0.008": 4.63903652946,
			"-0.007": 4.80859166279,
			"-0.006": 5.93991361948,
			"-0.005": 6.79663373201,
			"-0.004": 8.97276385939,
			"-0.003": 13.6649174093,
			"-0.002": 23.3737020624,
			"-0.001": 20.4356601227,
			"0.0": 13.890608069,
			"0.001": 15.4023970438,
			"0.002": 16.5395015465,
			"0.003": 22.1431119948,
			"0.004": 11.8064576987,
			"0.005": 4.19804773301,
			"0.006": 1.85079521821,
			"0.007": 1.76310253352,
			"0.008": 1.21302958665,
			"0.009": 2.10175556145,
			"0.01": 1.35582245192,
			"0.011": 2.14717230983,
			"0.012": 2.35407756946,
			"0.013": 5.03539668537,
			"0.014": 2.67796164567,
			"0.015": 0.0934637818576,
			"0.016": 0.0,
			"0.017": 0.0,
			"0.018": 0.0,
			"0.019": 0.0,
			"0.02": 0.0,
			"0.021": 0.0,
			"0.022": 0.0,
			"0.023": 0.0,
			"0.024": 0.0,
			"0.025": 0.0
		}
	}
}
