{
	 "smiles": "COC1=CC(CC2=CN=C(N)N=C2N)=CC(OC)=C1Br", 
	 "Tm": 499.15, 
	 "num_atms": 35, 
	 "gaussian": { 
		 "optdone": 1, 
		 "sigma_profile": "yes", 
		 "theory": "DFT", 
		 "functional": "B3LYP", 
		 "basiset": "6-31G**", 
		 "properties": { 
			 "R2extent": 10974.9416, 
			 "electric_dipole_moment_norm": 2.33822729006, 
			 "electric_quadrupole_moment_norm": 19.8310624942, 
			 "total_energy": -3445.28698883, 
			 "HOMO_LUMO_gap": 0.19605, 
			 "cosmo_polarized_energy": -19.99, 
			 "cosmo_cavitation_energy": 41.04, 
			 "cosmo_dispersion_energy": -29.09, 
			 "cosmo_repulsion_energy": 2.3, 
			 "cosmo_total_nonelectrostatic_energy": 14.26, 
			 "SMD_solvation_energy": 4.14 
		},
		"coords": [
			{
				"x": 2.036795206,
				"y": 5.6621554611,
				"z": -0.3171630023,
				"element": "C" 
			},
			{
				"x": 2.2046397585,
				"y": 4.9010128099,
				"z": 0.8691509674,
				"element": "O" 
			},
			{
				"x": 1.5354965664,
				"y": 3.7260218924,
				"z": 0.9902490264,
				"element": "C" 
			},
			{
				"x": 0.6937240685,
				"y": 3.1986642773,
				"z": -0.0023424062,
				"element": "C" 
			},
			{
				"x": 0.0372329895,
				"y": 1.9806998199,
				"z": 0.1987717494,
				"element": "C" 
			},
			{
				"x": -0.9028093146,
				"y": 1.4371644382,
				"z": -0.8733236315,
				"element": "C" 
			},
			{
				"x": -0.7412340217,
				"y": -0.029292791,
				"z": -1.1938904705,
				"element": "C" 
			},
			{
				"x": -1.7589624257,
				"y": -0.9549093647,
				"z": -1.0055659264,
				"element": "C" 
			},
			{
				"x": -1.6816634646,
				"y": -2.2555431112,
				"z": -1.312771817,
				"element": "N" 
			},
			{
				"x": -0.5065198289,
				"y": -2.6380212698,
				"z": -1.8424916038,
				"element": "C" 
			},
			{
				"x": -0.3686903589,
				"y": -3.9697130158,
				"z": -2.1345129521,
				"element": "N" 
			},
			{
				"x": 0.561321005,
				"y": -1.8588029719,
				"z": -2.083916037,
				"element": "N" 
			},
			{
				"x": 0.4456141544,
				"y": -0.5651960682,
				"z": -1.7626382305,
				"element": "C" 
			},
			{
				"x": 1.5210565424,
				"y": 0.2355448409,
				"z": -2.0544327734,
				"element": "N" 
			},
			{
				"x": 0.2288170093,
				"y": 1.2767095451,
				"z": 1.3906552755,
				"element": "C" 
			},
			{
				"x": 1.0657171917,
				"y": 1.7896385321,
				"z": 2.389939811,
				"element": "C" 
			},
			{
				"x": 1.300928098,
				"y": 1.1682361519,
				"z": 3.572177507,
				"element": "O" 
			},
			{
				"x": 0.6678402257,
				"y": -0.0789644342,
				"z": 3.8231232043,
				"element": "C" 
			},
			{
				"x": 1.7197784651,
				"y": 3.0172033114,
				"z": 2.1861711924,
				"element": "C" 
			},
			{
				"x": 2.8631831474,
				"y": 3.7149142647,
				"z": 3.532722533,
				"element": "Br" 
			},
			{
				"x": 2.3783165849,
				"y": 5.1126066713,
				"z": -1.2035089823,
				"element": "H" 
			},
			{
				"x": 0.9917960472,
				"y": 5.9640775243,
				"z": -0.4603789875,
				"element": "H" 
			},
			{
				"x": 2.653795032,
				"y": 6.5521147301,
				"z": -0.1870124812,
				"element": "H" 
			},
			{
				"x": 0.5336155515,
				"y": 3.7418043174,
				"z": -0.9263872632,
				"element": "H" 
			},
			{
				"x": -1.9390340886,
				"y": 1.6044710863,
				"z": -0.5508241386,
				"element": "H" 
			},
			{
				"x": -0.7707702503,
				"y": 2.0364229892,
				"z": -1.7842637086,
				"element": "H" 
			},
			{
				"x": -2.7089505747,
				"y": -0.6231020813,
				"z": -0.5832179291,
				"element": "H" 
			},
			{
				"x": 0.3847291685,
				"y": -4.2215273274,
				"z": -2.7543668384,
				"element": "H" 
			},
			{
				"x": -1.2217099215,
				"y": -4.5038812722,
				"z": -2.1856736493,
				"element": "H" 
			},
			{
				"x": 2.3662428818,
				"y": -0.269018622,
				"z": -2.2822439106,
				"element": "H" 
			},
			{
				"x": 1.6445452781,
				"y": 1.0763994838,
				"z": -1.50834174,
				"element": "H" 
			},
			{
				"x": -0.2704105385,
				"y": 0.3256210043,
				"z": 1.5270722586,
				"element": "H" 
			},
			{
				"x": -0.4250401734,
				"y": 0.0149238416,
				"z": 3.8192409383,
				"element": "H" 
			},
			{
				"x": 0.9675919575,
				"y": -0.8389240913,
				"z": 3.0913174445,
				"element": "H" 
			},
			{
				"x": 1.000018032,
				"y": -0.3833105722,
				"z": 4.8163765718,
				"element": "H" 
			}
		],
		 "valence_orbital": [ 
			{
				"type": "occ",
				"energy": -0.24706,
				"method": "rhf"
			},
			{
				"type": "occ",
				"energy": -0.23833,
				"method": "rhf"
			},
			{
				"type": "occ",
				"energy": -0.22647,
				"method": "rhf"
			},
			{
				"type": "occ",
				"energy": -0.21905,
				"method": "rhf"
			},
			{
				"type": "occ",
				"energy": -0.20807,
				"method": "rhf"
			},
			{
				"type": "unocc",
				"energy": -0.01202,
				"method": "rhf"
			},
			{
				"type": "unocc",
				"energy": -0.00591,
				"method": "rhf"
			},
			{
				"type": "unocc",
				"energy": 0.01016,
				"method": "rhf"
			},
			{
				"type": "unocc",
				"energy": 0.0137,
				"method": "rhf"
			},
			{
				"type": "unocc",
				"energy": 0.02276,
				"method": "rhf"
			}
		],
		"cosmo_sigma_profile": { 
			"-0.025": 0.0,
			"-0.024": 0.0,
			"-0.023": 0.0,
			"-0.022": 0.0,
			"-0.021": 0.0,
			"-0.02": 0.0,
			"-0.019": 0.0,
			"-0.018": 0.0,
			"-0.017": 0.0,
			"-0.016": 0.0,
			"-0.015": 0.0,
			"-0.014": 0.0580828688239,
			"-0.013": 1.9428208666,
			"-0.012": 3.2161379019,
			"-0.011": 3.09745617977,
			"-0.01": 2.95734613152,
			"-0.009": 4.06058896256,
			"-0.008": 3.2135333029,
			"-0.007": 5.64823901404,
			"-0.006": 23.5571264371,
			"-0.005": 29.002544031,
			"-0.004": 26.8713528486,
			"-0.003": 26.969553797,
			"-0.002": 17.689805158,
			"-0.001": 15.3269306944,
			"0.0": 14.1245206875,
			"0.001": 19.5953631594,
			"0.002": 22.0014727591,
			"0.003": 22.6727369311,
			"0.004": 16.5735568004,
			"0.005": 15.4324041952,
			"0.006": 11.1591280568,
			"0.007": 8.44689675702,
			"0.008": 9.19240278165,
			"0.009": 8.05841686015,
			"0.01": 6.83929946309,
			"0.011": 3.57722968509,
			"0.012": 1.83511587429,
			"0.013": 2.74710757247,
			"0.014": 1.04410085611,
			"0.015": 0.710689802689,
			"0.016": 0.824352139492,
			"0.017": 0.183328198274,
			"0.018": 0.0,
			"0.019": 0.0,
			"0.02": 0.0,
			"0.021": 0.0,
			"0.022": 0.0,
			"0.023": 0.0,
			"0.024": 0.0,
			"0.025": 0.0
		}
	}
}
