{
	 "smiles": "OC(=O)CCC(=O)C1=CC(F)=C(F)C=C1", 
	 "Tm": 358.15, 
	 "num_atms": 23, 
	 "gaussian": { 
		 "optdone": 1, 
		 "sigma_profile": "yes", 
		 "theory": "DFT", 
		 "functional": "B3LYP", 
		 "basiset": "6-31G**", 
		 "properties": { 
			 "R2extent": 4791.3332, 
			 "electric_dipole_moment_norm": 4.27273375136, 
			 "electric_quadrupole_moment_norm": 17.7888632787, 
			 "total_energy": -811.228536391, 
			 "HOMO_LUMO_gap": 0.18942, 
			 "cosmo_polarized_energy": -17.28, 
			 "cosmo_cavitation_energy": 29.18, 
			 "cosmo_dispersion_energy": -20.54, 
			 "cosmo_repulsion_energy": 1.57, 
			 "cosmo_total_nonelectrostatic_energy": 10.21, 
			 "SMD_solvation_energy": 7.47 
		},
		"coords": [
			{
				"x": -2.9394318515,
				"y": 1.3334364149,
				"z": 3.4010490602,
				"element": "O" 
			},
			{
				"x": -2.1651284608,
				"y": 1.1824330171,
				"z": 2.2979506648,
				"element": "C" 
			},
			{
				"x": -2.5604804892,
				"y": 1.5639502125,
				"z": 1.2227061066,
				"element": "O" 
			},
			{
				"x": -0.806308314,
				"y": 0.5322541158,
				"z": 2.5277794795,
				"element": "C" 
			},
			{
				"x": -0.0586856035,
				"y": 0.3269208623,
				"z": 1.2104835064,
				"element": "C" 
			},
			{
				"x": -0.6432663717,
				"y": -0.8440653945,
				"z": 0.4150567138,
				"element": "C" 
			},
			{
				"x": -0.8933792801,
				"y": -1.8900924055,
				"z": 0.9975174152,
				"element": "O" 
			},
			{
				"x": -0.8280811398,
				"y": -0.7331704741,
				"z": -1.0630640631,
				"element": "C" 
			},
			{
				"x": -1.0090202173,
				"y": 0.5000121558,
				"z": -1.7106409548,
				"element": "C" 
			},
			{
				"x": -1.1958561713,
				"y": 0.5268172728,
				"z": -3.0830921283,
				"element": "C" 
			},
			{
				"x": -1.3869981739,
				"y": 1.691938118,
				"z": -3.7232950049,
				"element": "F" 
			},
			{
				"x": -1.1939087768,
				"y": -0.6562035144,
				"z": -3.8238940964,
				"element": "C" 
			},
			{
				"x": -1.3651107118,
				"y": -0.590769405,
				"z": -5.1517111516,
				"element": "F" 
			},
			{
				"x": -1.0237618313,
				"y": -1.8837982683,
				"z": -3.1935933881,
				"element": "C" 
			},
			{
				"x": -0.8521868906,
				"y": -1.91979933,
				"z": -1.8131761094,
				"element": "C" 
			},
			{
				"x": -2.4991883422,
				"y": 0.9531580668,
				"z": 4.1747482768,
				"element": "H" 
			},
			{
				"x": -0.9464020041,
				"y": -0.4392104302,
				"z": 3.0171280603,
				"element": "H" 
			},
			{
				"x": -0.2288791666,
				"y": 1.1651140646,
				"z": 3.2137252897,
				"element": "H" 
			},
			{
				"x": -0.0327077387,
				"y": 1.254023989,
				"z": 0.6387132419,
				"element": "H" 
			},
			{
				"x": 0.9806772688,
				"y": 0.047487255,
				"z": 1.4247240419,
				"element": "H" 
			},
			{
				"x": -1.0677185891,
				"y": 1.431925319,
				"z": -1.1615859831,
				"element": "H" 
			},
			{
				"x": -1.0315279366,
				"y": -2.786809326,
				"z": -3.794437648,
				"element": "H" 
			},
			{
				"x": -0.732349208,
				"y": -2.8634523156,
				"z": -1.2931913294,
				"element": "H" 
			}
		],
		 "valence_orbital": [ 
			{
				"type": "occ",
				"energy": -0.32505,
				"method": "rhf"
			},
			{
				"type": "occ",
				"energy": -0.28366,
				"method": "rhf"
			},
			{
				"type": "occ",
				"energy": -0.27095,
				"method": "rhf"
			},
			{
				"type": "occ",
				"energy": -0.26252,
				"method": "rhf"
			},
			{
				"type": "occ",
				"energy": -0.2521,
				"method": "rhf"
			},
			{
				"type": "unocc",
				"energy": -0.06268,
				"method": "rhf"
			},
			{
				"type": "unocc",
				"energy": -0.01906,
				"method": "rhf"
			},
			{
				"type": "unocc",
				"energy": 0.00107,
				"method": "rhf"
			},
			{
				"type": "unocc",
				"energy": 0.03066,
				"method": "rhf"
			},
			{
				"type": "unocc",
				"energy": 0.051,
				"method": "rhf"
			}
		],
		"cosmo_sigma_profile": { 
			"-0.025": 0.0,
			"-0.024": 0.0,
			"-0.023": 0.0,
			"-0.022": 0.0,
			"-0.021": 0.0,
			"-0.02": 0.0615205780223,
			"-0.019": 0.888036782959,
			"-0.018": 1.18823573796,
			"-0.017": 0.87167374586,
			"-0.016": 1.16425148893,
			"-0.015": 1.09597880927,
			"-0.014": 1.20330414676,
			"-0.013": 1.07414115844,
			"-0.012": 1.28279104169,
			"-0.011": 1.14647825582,
			"-0.01": 1.04323862788,
			"-0.009": 1.64496398761,
			"-0.008": 5.55061860832,
			"-0.007": 9.04943632883,
			"-0.006": 11.6000646739,
			"-0.005": 12.9373184137,
			"-0.004": 10.7369924025,
			"-0.003": 13.764990277,
			"-0.002": 14.7351861571,
			"-0.001": 17.4732447177,
			"0.0": 15.189393739,
			"0.001": 15.6129020925,
			"0.002": 16.1952618537,
			"0.003": 22.8450035748,
			"0.004": 13.0141197346,
			"0.005": 4.25508343002,
			"0.006": 4.20052850865,
			"0.007": 4.33370023366,
			"0.008": 4.27094407659,
			"0.009": 4.60411858762,
			"0.01": 6.60673371804,
			"0.011": 7.25292726619,
			"0.012": 5.09698271157,
			"0.013": 1.27434282687,
			"0.014": 0.00151068786198,
			"0.015": 0.0,
			"0.016": 0.0,
			"0.017": 0.0,
			"0.018": 0.0,
			"0.019": 0.0,
			"0.02": 0.0,
			"0.021": 0.0,
			"0.022": 0.0,
			"0.023": 0.0,
			"0.024": 0.0,
			"0.025": 0.0
		}
	}
}
