{
	 "smiles": "CC(C)(C)OC(=O)N1CCNC(C1)C#N", 
	 "Tm": 383.15, 
	 "num_atms": 32, 
	 "gaussian": { 
		 "optdone": 1, 
		 "sigma_profile": "yes", 
		 "theory": "DFT", 
		 "functional": "B3LYP", 
		 "basiset": "6-31G**", 
		 "properties": { 
			 "R2extent": 4026.6773, 
			 "electric_dipole_moment_norm": 3.68417905917, 
			 "electric_quadrupole_moment_norm": 14.6545284424, 
			 "total_energy": -706.011696845, 
			 "HOMO_LUMO_gap": 0.26683, 
			 "cosmo_polarized_energy": -15.13, 
			 "cosmo_cavitation_energy": 33.89, 
			 "cosmo_dispersion_energy": -22.97, 
			 "cosmo_repulsion_energy": 1.82, 
			 "cosmo_total_nonelectrostatic_energy": 12.74, 
			 "SMD_solvation_energy": 5.03 
		},
		"coords": [
			{
				"x": -1.434794605,
				"y": 1.8510828953,
				"z": 0.8563294086,
				"element": "C" 
			},
			{
				"x": -0.214958793,
				"y": 1.3954232303,
				"z": 1.6636559993,
				"element": "C" 
			},
			{
				"x": -0.5964331202,
				"y": 0.8744552416,
				"z": 3.0531620772,
				"element": "C" 
			},
			{
				"x": 0.8181500207,
				"y": 2.5202461391,
				"z": 1.7689359375,
				"element": "C" 
			},
			{
				"x": 0.5205215423,
				"y": 0.3572580021,
				"z": 0.9203151133,
				"element": "O" 
			},
			{
				"x": -0.0633835156,
				"y": -0.8237237585,
				"z": 0.6165881219,
				"element": "C" 
			},
			{
				"x": -1.2024488096,
				"y": -1.1617622008,
				"z": 0.905749928,
				"element": "O" 
			},
			{
				"x": 0.818287946,
				"y": -1.6263748987,
				"z": -0.0681210245,
				"element": "N" 
			},
			{
				"x": 2.1531710445,
				"y": -1.1741267824,
				"z": -0.4821366712,
				"element": "C" 
			},
			{
				"x": 2.9435467916,
				"y": -2.3825606592,
				"z": -0.9940575039,
				"element": "C" 
			},
			{
				"x": 2.2805422383,
				"y": -3.1320569448,
				"z": -2.0740040895,
				"element": "N" 
			},
			{
				"x": 0.8107386421,
				"y": -3.0869754217,
				"z": -2.0469808872,
				"element": "C" 
			},
			{
				"x": 0.3265828687,
				"y": -2.8916890492,
				"z": -0.5991928416,
				"element": "C" 
			},
			{
				"x": 0.263549778,
				"y": -2.02578936,
				"z": -2.9279462594,
				"element": "C" 
			},
			{
				"x": -0.1081127282,
				"y": -1.2006536776,
				"z": -3.6560460744,
				"element": "N" 
			},
			{
				"x": -1.1296032669,
				"y": 2.1723630079,
				"z": -0.1444283114,
				"element": "H" 
			},
			{
				"x": -2.1639914116,
				"y": 1.0464046802,
				"z": 0.7618949071,
				"element": "H" 
			},
			{
				"x": -1.9081139406,
				"y": 2.7018883739,
				"z": 1.3572276108,
				"element": "H" 
			},
			{
				"x": -1.3154921958,
				"y": 0.0584061765,
				"z": 2.9803903846,
				"element": "H" 
			},
			{
				"x": 0.292986315,
				"y": 0.5193533265,
				"z": 3.5836442988,
				"element": "H" 
			},
			{
				"x": -1.0392914808,
				"y": 1.6860101062,
				"z": 3.6396423106,
				"element": "H" 
			},
			{
				"x": 1.7073601487,
				"y": 2.1802386542,
				"z": 2.3080849472,
				"element": "H" 
			},
			{
				"x": 1.1242869686,
				"y": 2.8576838956,
				"z": 0.7745146132,
				"element": "H" 
			},
			{
				"x": 0.3916827804,
				"y": 3.3716130598,
				"z": 2.307526012,
				"element": "H" 
			},
			{
				"x": 2.0757326952,
				"y": -0.4051890612,
				"z": -1.2625206099,
				"element": "H" 
			},
			{
				"x": 2.6677169324,
				"y": -0.7245744645,
				"z": 0.3713971873,
				"element": "H" 
			},
			{
				"x": 3.9214800989,
				"y": -2.0510910048,
				"z": -1.3536780128,
				"element": "H" 
			},
			{
				"x": 3.132658834,
				"y": -3.0610223004,
				"z": -0.1520482034,
				"element": "H" 
			},
			{
				"x": 2.6261252648,
				"y": -2.8498634058,
				"z": -2.9839984391,
				"element": "H" 
			},
			{
				"x": 0.4121579772,
				"y": -4.0417862123,
				"z": -2.4161666681,
				"element": "H" 
			},
			{
				"x": 0.6870932075,
				"y": -3.7457489289,
				"z": -0.0106524803,
				"element": "H" 
			},
			{
				"x": -0.7619482277,
				"y": -2.8800386586,
				"z": -0.5454807808,
				"element": "H" 
			}
		],
		 "valence_orbital": [ 
			{
				"type": "occ",
				"energy": -0.32833,
				"method": "rhf"
			},
			{
				"type": "occ",
				"energy": -0.28934,
				"method": "rhf"
			},
			{
				"type": "occ",
				"energy": -0.265,
				"method": "rhf"
			},
			{
				"type": "occ",
				"energy": -0.2466,
				"method": "rhf"
			},
			{
				"type": "occ",
				"energy": -0.24379,
				"method": "rhf"
			},
			{
				"type": "unocc",
				"energy": 0.02304,
				"method": "rhf"
			},
			{
				"type": "unocc",
				"energy": 0.02877,
				"method": "rhf"
			},
			{
				"type": "unocc",
				"energy": 0.05116,
				"method": "rhf"
			},
			{
				"type": "unocc",
				"energy": 0.06156,
				"method": "rhf"
			},
			{
				"type": "unocc",
				"energy": 0.08683,
				"method": "rhf"
			}
		],
		"cosmo_sigma_profile": { 
			"-0.025": 0.0,
			"-0.024": 0.0,
			"-0.023": 0.0,
			"-0.022": 0.0,
			"-0.021": 0.0,
			"-0.02": 0.0,
			"-0.019": 0.0,
			"-0.018": 0.0,
			"-0.017": 0.0,
			"-0.016": 0.0,
			"-0.015": 0.0,
			"-0.014": 0.0,
			"-0.013": 0.0513703167119,
			"-0.012": 1.26372893842,
			"-0.011": 1.19864578442,
			"-0.01": 2.03955782621,
			"-0.009": 1.83595780648,
			"-0.008": 6.69846090846,
			"-0.007": 6.06585003636,
			"-0.006": 9.47325186039,
			"-0.005": 13.7032555754,
			"-0.004": 25.0309562341,
			"-0.003": 26.1963999274,
			"-0.002": 22.0831707736,
			"-0.001": 22.3188927486,
			"0.0": 30.64393334,
			"0.001": 23.8081650698,
			"0.002": 9.9281791599,
			"0.003": 6.07330274802,
			"0.004": 7.0530352258,
			"0.005": 7.00142242104,
			"0.006": 5.63697892973,
			"0.007": 5.10430022859,
			"0.008": 5.2412965787,
			"0.009": 4.85409565141,
			"0.01": 5.15513289778,
			"0.011": 4.88184835568,
			"0.012": 4.71637370264,
			"0.013": 4.88799031451,
			"0.014": 1.34773146683,
			"0.015": 0.500754708584,
			"0.016": 0.00313845239572,
			"0.017": 0.0,
			"0.018": 0.0,
			"0.019": 0.0,
			"0.02": 0.0,
			"0.021": 0.0,
			"0.022": 0.0,
			"0.023": 0.0,
			"0.024": 0.0,
			"0.025": 0.0
		}
	}
}
