{
	 "smiles": "CCC(N)=O", 
	 "Tm": 352.85, 
	 "num_atms": 12, 
	 "gaussian": { 
		 "optdone": 1, 
		 "sigma_profile": "yes", 
		 "theory": "DFT", 
		 "functional": "B3LYP", 
		 "basiset": "6-31G**", 
		 "properties": { 
			 "R2extent": 930.0961, 
			 "electric_dipole_moment_norm": 3.59238250469, 
			 "electric_quadrupole_moment_norm": 10.6708958668, 
			 "total_energy": -248.535913663, 
			 "HOMO_LUMO_gap": 0.27791, 
			 "cosmo_polarized_energy": -11.69, 
			 "cosmo_cavitation_energy": 15.29, 
			 "cosmo_dispersion_energy": -11.46, 
			 "cosmo_repulsion_energy": 1.05, 
			 "cosmo_total_nonelectrostatic_energy": 4.88, 
			 "SMD_solvation_energy": 3.75 
		},
		"coords": [
			{
				"x": -2.1066220696,
				"y": -0.5523390795,
				"z": 1.4612182048,
				"element": "C" 
			},
			{
				"x": -0.9555741624,
				"y": -0.7268436045,
				"z": 0.4711957846,
				"element": "C" 
			},
			{
				"x": 0.0441751955,
				"y": -1.7910276742,
				"z": 0.9268975552,
				"element": "C" 
			},
			{
				"x": 0.8036728534,
				"y": -2.3360753945,
				"z": -0.0737919746,
				"element": "N" 
			},
			{
				"x": 0.1734473381,
				"y": -2.1264555591,
				"z": 2.0951505811,
				"element": "O" 
			},
			{
				"x": -2.7470161249,
				"y": 0.2854376034,
				"z": 1.1700394564,
				"element": "H" 
			},
			{
				"x": -1.7154416494,
				"y": -0.3690521247,
				"z": 2.4641429104,
				"element": "H" 
			},
			{
				"x": -2.7235940647,
				"y": -1.4545277725,
				"z": 1.5096215188,
				"element": "H" 
			},
			{
				"x": -1.3290720174,
				"y": -0.9707295017,
				"z": -0.531261134,
				"element": "H" 
			},
			{
				"x": -0.3995430884,
				"y": 0.2156437032,
				"z": 0.3693425538,
				"element": "H" 
			},
			{
				"x": 1.5405688335,
				"y": -2.9741537331,
				"z": 0.1855950393,
				"element": "H" 
			},
			{
				"x": 0.7489989562,
				"y": -2.0179768627,
				"z": -1.0274504958,
				"element": "H" 
			}
		],
		 "valence_orbital": [ 
			{
				"type": "occ",
				"energy": -0.36619,
				"method": "rhf"
			},
			{
				"type": "occ",
				"energy": -0.35778,
				"method": "rhf"
			},
			{
				"type": "occ",
				"energy": -0.34052,
				"method": "rhf"
			},
			{
				"type": "occ",
				"energy": -0.26373,
				"method": "rhf"
			},
			{
				"type": "occ",
				"energy": -0.24366,
				"method": "rhf"
			},
			{
				"type": "unocc",
				"energy": 0.03425,
				"method": "rhf"
			},
			{
				"type": "unocc",
				"energy": 0.07395,
				"method": "rhf"
			},
			{
				"type": "unocc",
				"energy": 0.11033,
				"method": "rhf"
			},
			{
				"type": "unocc",
				"energy": 0.13306,
				"method": "rhf"
			},
			{
				"type": "unocc",
				"energy": 0.15349,
				"method": "rhf"
			}
		],
		"cosmo_sigma_profile": { 
			"-0.025": 0.0,
			"-0.024": 0.0,
			"-0.023": 0.0,
			"-0.022": 0.0,
			"-0.021": 0.0,
			"-0.02": 0.0,
			"-0.019": 0.0,
			"-0.018": 0.0,
			"-0.017": 0.0,
			"-0.016": 0.0,
			"-0.015": 0.0386659519987,
			"-0.014": 1.06046900932,
			"-0.013": 2.10207739349,
			"-0.012": 2.70621677084,
			"-0.011": 2.42132373498,
			"-0.01": 2.31359780367,
			"-0.009": 2.47267530653,
			"-0.008": 1.96923844776,
			"-0.007": 2.61357975521,
			"-0.006": 1.71025137647,
			"-0.005": 4.88381832617,
			"-0.004": 7.19295751012,
			"-0.003": 9.44358793727,
			"-0.002": 11.8318776303,
			"-0.001": 12.1786324049,
			"0.0": 9.07643496631,
			"0.001": 8.94492537663,
			"0.002": 4.99874964814,
			"0.003": 3.3014058665,
			"0.004": 2.7408681925,
			"0.005": 2.04206060491,
			"0.006": 2.10529280524,
			"0.007": 2.04538008047,
			"0.008": 1.58995807715,
			"0.009": 1.31834863469,
			"0.01": 1.61131288021,
			"0.011": 1.8682734437,
			"0.012": 1.62280983967,
			"0.013": 2.29854318172,
			"0.014": 6.12425263322,
			"0.015": 2.30347115725,
			"0.016": 0.00583609371217,
			"0.017": 0.0,
			"0.018": 0.0,
			"0.019": 0.0,
			"0.02": 0.0,
			"0.021": 0.0,
			"0.022": 0.0,
			"0.023": 0.0,
			"0.024": 0.0,
			"0.025": 0.0
		}
	}
}
