{
	 "smiles": "COC(=O)C1=CC=C2NC=CC2=C1", 
	 "Tm": 398.15, 
	 "num_atms": 22, 
	 "gaussian": { 
		 "optdone": 1, 
		 "sigma_profile": "yes", 
		 "theory": "DFT", 
		 "functional": "B3LYP", 
		 "basiset": "6-31G**", 
		 "properties": { 
			 "R2extent": 2982.4003, 
			 "electric_dipole_moment_norm": 3.62033881011, 
			 "electric_quadrupole_moment_norm": 19.2488167486, 
			 "total_energy": -591.703008861, 
			 "HOMO_LUMO_gap": 0.18304, 
			 "cosmo_polarized_energy": -13.05, 
			 "cosmo_cavitation_energy": 26.43, 
			 "cosmo_dispersion_energy": -19.75, 
			 "cosmo_repulsion_energy": 1.55, 
			 "cosmo_total_nonelectrostatic_energy": 8.22, 
			 "SMD_solvation_energy": 6.07 
		},
		"coords": [
			{
				"x": -0.2343953762,
				"y": -3.199638573,
				"z": -2.9310592849,
				"element": "C" 
			},
			{
				"x": -0.0551553775,
				"y": -2.2915858122,
				"z": -1.8366559604,
				"element": "O" 
			},
			{
				"x": 0.6261633136,
				"y": -1.1565986195,
				"z": -2.1366912425,
				"element": "C" 
			},
			{
				"x": 1.0536522759,
				"y": -0.9266033481,
				"z": -3.2532815857,
				"element": "O" 
			},
			{
				"x": 0.7811747024,
				"y": -0.2550570538,
				"z": -0.966651953,
				"element": "C" 
			},
			{
				"x": 1.4796761872,
				"y": 0.9597714098,
				"z": -1.1756289166,
				"element": "C" 
			},
			{
				"x": 1.6747440402,
				"y": 1.8644013295,
				"z": -0.1458128063,
				"element": "C" 
			},
			{
				"x": 1.1553083152,
				"y": 1.5343389252,
				"z": 1.1132377772,
				"element": "C" 
			},
			{
				"x": 1.1919420035,
				"y": 2.2223009405,
				"z": 2.3042375211,
				"element": "N" 
			},
			{
				"x": 0.5366570208,
				"y": 1.4877281842,
				"z": 3.280174595,
				"element": "C" 
			},
			{
				"x": 0.069508242,
				"y": 0.3214594851,
				"z": 2.7385103445,
				"element": "C" 
			},
			{
				"x": 0.4488967867,
				"y": 0.3194864755,
				"z": 1.3509435174,
				"element": "C" 
			},
			{
				"x": 0.2661515547,
				"y": -0.5777897384,
				"z": 0.2902929435,
				"element": "C" 
			},
			{
				"x": -0.7946539831,
				"y": -2.7251137186,
				"z": -3.7410799588,
				"element": "H" 
			},
			{
				"x": 0.7311737831,
				"y": -3.5302818524,
				"z": -3.3229103852,
				"element": "H" 
			},
			{
				"x": -0.7914510564,
				"y": -4.0445798566,
				"z": -2.5253682728,
				"element": "H" 
			},
			{
				"x": 1.8588232755,
				"y": 1.1607846239,
				"z": -2.1712812143,
				"element": "H" 
			},
			{
				"x": 2.2110035132,
				"y": 2.7944749667,
				"z": -0.3112048328,
				"element": "H" 
			},
			{
				"x": 1.6266982779,
				"y": 3.1194440694,
				"z": 2.4459008468,
				"element": "H" 
			},
			{
				"x": 0.4599599079,
				"y": 1.8664964609,
				"z": 4.2892686105,
				"element": "H" 
			},
			{
				"x": -0.4799799545,
				"y": -0.4474183104,
				"z": 3.262359607,
				"element": "H" 
			},
			{
				"x": -0.2659974521,
				"y": -1.5112199877,
				"z": 0.4342006503,
				"element": "H" 
			}
		],
		 "valence_orbital": [ 
			{
				"type": "occ",
				"energy": -0.29016,
				"method": "rhf"
			},
			{
				"type": "occ",
				"energy": -0.28179,
				"method": "rhf"
			},
			{
				"type": "occ",
				"energy": -0.26081,
				"method": "rhf"
			},
			{
				"type": "occ",
				"energy": -0.22721,
				"method": "rhf"
			},
			{
				"type": "occ",
				"energy": -0.21043,
				"method": "rhf"
			},
			{
				"type": "unocc",
				"energy": -0.02739,
				"method": "rhf"
			},
			{
				"type": "unocc",
				"energy": -0.00616,
				"method": "rhf"
			},
			{
				"type": "unocc",
				"energy": 0.062,
				"method": "rhf"
			},
			{
				"type": "unocc",
				"energy": 0.07396,
				"method": "rhf"
			},
			{
				"type": "unocc",
				"energy": 0.08728,
				"method": "rhf"
			}
		],
		"cosmo_sigma_profile": { 
			"-0.025": 0.0,
			"-0.024": 0.0,
			"-0.023": 0.0,
			"-0.022": 0.0,
			"-0.021": 0.0,
			"-0.02": 0.0,
			"-0.019": 0.0,
			"-0.018": 0.0,
			"-0.017": 0.0,
			"-0.016": 1.06765393806,
			"-0.015": 1.52521186828,
			"-0.014": 1.60674769798,
			"-0.013": 0.989106228763,
			"-0.012": 1.58910774843,
			"-0.011": 1.12454427515,
			"-0.01": 1.34655480736,
			"-0.009": 1.52264929825,
			"-0.008": 3.62769553654,
			"-0.007": 4.93792930603,
			"-0.006": 8.87127614652,
			"-0.005": 13.6920641288,
			"-0.004": 15.9519557473,
			"-0.003": 16.7694611543,
			"-0.002": 11.7266647951,
			"-0.001": 11.7218461055,
			"0.0": 10.9712428012,
			"0.001": 10.4014799003,
			"0.002": 13.6346267994,
			"0.003": 17.0996429609,
			"0.004": 19.7834178295,
			"0.005": 17.4417522013,
			"0.006": 8.09241472785,
			"0.007": 2.96392412756,
			"0.008": 0.789839909009,
			"0.009": 2.10891897253,
			"0.01": 1.5399255178,
			"0.011": 2.34062575692,
			"0.012": 4.30775637371,
			"0.013": 2.03284000275,
			"0.014": 0.0,
			"0.015": 0.0,
			"0.016": 0.0,
			"0.017": 0.0,
			"0.018": 0.0,
			"0.019": 0.0,
			"0.02": 0.0,
			"0.021": 0.0,
			"0.022": 0.0,
			"0.023": 0.0,
			"0.024": 0.0,
			"0.025": 0.0
		}
	}
}
