{
	 "smiles": "CC1=CC(=C(C)C=C1)S(=O)(=O)OC1=C(C=CC=C1)C(O)=O", 
	 "Tm": 394.15, 
	 "num_atms": 35, 
	 "gaussian": { 
		 "optdone": 1, 
		 "sigma_profile": "yes", 
		 "theory": "DFT", 
		 "functional": "B3LYP", 
		 "basiset": "6-31G**", 
		 "properties": { 
			 "R2extent": 7198.1566, 
			 "electric_dipole_moment_norm": 2.40269125149, 
			 "electric_quadrupole_moment_norm": 25.8230338435, 
			 "total_energy": -1354.29237666, 
			 "HOMO_LUMO_gap": 0.19555, 
			 "cosmo_polarized_energy": -16.38, 
			 "cosmo_cavitation_energy": 40.18, 
			 "cosmo_dispersion_energy": -28.65, 
			 "cosmo_repulsion_energy": 2.13, 
			 "cosmo_total_nonelectrostatic_energy": 13.66, 
			 "SMD_solvation_energy": 7.18 
		},
		"coords": [
			{
				"x": -2.9396362994,
				"y": -3.5889961998,
				"z": -2.7135283296,
				"element": "C" 
			},
			{
				"x": -1.9470259628,
				"y": -3.2913951295,
				"z": -1.6150040096,
				"element": "C" 
			},
			{
				"x": -1.9865189208,
				"y": -2.0881197544,
				"z": -0.9086895837,
				"element": "C" 
			},
			{
				"x": -1.0681899185,
				"y": -1.8307298486,
				"z": 0.1151986403,
				"element": "C" 
			},
			{
				"x": -0.0735114826,
				"y": -2.7520521925,
				"z": 0.4933955921,
				"element": "C" 
			},
			{
				"x": 0.9262982381,
				"y": -2.522832837,
				"z": 1.5977133213,
				"element": "C" 
			},
			{
				"x": -0.0521113582,
				"y": -3.9503465189,
				"z": -0.2357014535,
				"element": "C" 
			},
			{
				"x": -0.9574528663,
				"y": -4.2165961828,
				"z": -1.2591723666,
				"element": "C" 
			},
			{
				"x": -1.2727466978,
				"y": -0.2572670223,
				"z": 0.9427096306,
				"element": "S" 
			},
			{
				"x": -2.4785399739,
				"y": 0.402963589,
				"z": 0.4425857162,
				"element": "O" 
			},
			{
				"x": -1.0563962464,
				"y": -0.3645426496,
				"z": 2.3827630734,
				"element": "O" 
			},
			{
				"x": 0.0643985446,
				"y": 0.5231469349,
				"z": 0.2712267924,
				"element": "O" 
			},
			{
				"x": 0.1688524906,
				"y": 1.894884444,
				"z": 0.4902625343,
				"element": "C" 
			},
			{
				"x": 1.0951919028,
				"y": 2.4097881675,
				"z": 1.4178652007,
				"element": "C" 
			},
			{
				"x": 1.1694450336,
				"y": 3.8037119575,
				"z": 1.5767575879,
				"element": "C" 
			},
			{
				"x": 0.3634991118,
				"y": 4.6585892638,
				"z": 0.8311770663,
				"element": "C" 
			},
			{
				"x": -0.5418704935,
				"y": 4.1289895797,
				"z": -0.0896626322,
				"element": "C" 
			},
			{
				"x": -0.6412497585,
				"y": 2.7496020415,
				"z": -0.2585373026,
				"element": "C" 
			},
			{
				"x": 2.0270273935,
				"y": 1.5363924243,
				"z": 2.18516557,
				"element": "C" 
			},
			{
				"x": 2.4831811942,
				"y": 2.1486404327,
				"z": 3.3083381147,
				"element": "O" 
			},
			{
				"x": 2.3990175716,
				"y": 0.4242719143,
				"z": 1.8736407911,
				"element": "O" 
			},
			{
				"x": -3.6179479536,
				"y": -4.4009438691,
				"z": -2.4260064099,
				"element": "H" 
			},
			{
				"x": -2.4335343936,
				"y": -3.9015657824,
				"z": -3.6333433008,
				"element": "H" 
			},
			{
				"x": -3.5510147631,
				"y": -2.713464286,
				"z": -2.9467633781,
				"element": "H" 
			},
			{
				"x": -2.7333765177,
				"y": -1.3379751514,
				"z": -1.1433910194,
				"element": "H" 
			},
			{
				"x": 0.4273619447,
				"y": -2.4509040642,
				"z": 2.5683839318,
				"element": "H" 
			},
			{
				"x": 1.4806001458,
				"y": -1.5912928803,
				"z": 1.459280978,
				"element": "H" 
			},
			{
				"x": 1.638182461,
				"y": -3.3513798923,
				"z": 1.6324686769,
				"element": "H" 
			},
			{
				"x": 0.7017278966,
				"y": -4.6915784263,
				"z": 0.0146969927,
				"element": "H" 
			},
			{
				"x": -0.8940747515,
				"y": -5.1632000311,
				"z": -1.7907542352,
				"element": "H" 
			},
			{
				"x": 1.8776945691,
				"y": 4.2050666098,
				"z": 2.2916985173,
				"element": "H" 
			},
			{
				"x": 0.4436817497,
				"y": 5.7325345002,
				"z": 0.9666457652,
				"element": "H" 
			},
			{
				"x": -1.1747521142,
				"y": 4.787186927,
				"z": -0.6772787607,
				"element": "H" 
			},
			{
				"x": -1.3479686572,
				"y": 2.3166101859,
				"z": -0.9553237313,
				"element": "H" 
			},
			{
				"x": 3.1035588818,
				"y": 1.5195037461,
				"z": 3.7120820204,
				"element": "H" 
			}
		],
		 "valence_orbital": [ 
			{
				"type": "occ",
				"energy": -0.27514,
				"method": "rhf"
			},
			{
				"type": "occ",
				"energy": -0.26964,
				"method": "rhf"
			},
			{
				"type": "occ",
				"energy": -0.26647,
				"method": "rhf"
			},
			{
				"type": "occ",
				"energy": -0.25592,
				"method": "rhf"
			},
			{
				"type": "occ",
				"energy": -0.24791,
				"method": "rhf"
			},
			{
				"type": "unocc",
				"energy": -0.05236,
				"method": "rhf"
			},
			{
				"type": "unocc",
				"energy": -0.04126,
				"method": "rhf"
			},
			{
				"type": "unocc",
				"energy": -0.01725,
				"method": "rhf"
			},
			{
				"type": "unocc",
				"energy": -0.00992,
				"method": "rhf"
			},
			{
				"type": "unocc",
				"energy": 0.04251,
				"method": "rhf"
			}
		],
		"cosmo_sigma_profile": { 
			"-0.025": 0.0,
			"-0.024": 0.0,
			"-0.023": 0.0,
			"-0.022": 0.0,
			"-0.021": 0.0,
			"-0.02": 0.0,
			"-0.019": 0.0149205171497,
			"-0.018": 0.834380303614,
			"-0.017": 0.986493398663,
			"-0.016": 0.902259642538,
			"-0.015": 0.960620872743,
			"-0.014": 0.587818434001,
			"-0.013": 0.421219176744,
			"-0.012": 0.450524280816,
			"-0.011": 1.22294753812,
			"-0.01": 0.693698331052,
			"-0.009": 0.431108481637,
			"-0.008": 1.06925840264,
			"-0.007": 9.04815576607,
			"-0.006": 17.113423734,
			"-0.005": 20.068632469,
			"-0.004": 21.4619690208,
			"-0.003": 22.1573480681,
			"-0.002": 22.1095162831,
			"-0.001": 27.6679090261,
			"0.0": 31.2781330076,
			"0.001": 27.1046816129,
			"0.002": 27.5276508117,
			"0.003": 23.7026960443,
			"0.004": 8.77199640818,
			"0.005": 8.93459787725,
			"0.006": 9.90968949761,
			"0.007": 8.91570253149,
			"0.008": 7.12193851047,
			"0.009": 8.80333366058,
			"0.01": 7.74811162437,
			"0.011": 3.21162231402,
			"0.012": 0.042735136647,
			"0.013": 0.0,
			"0.014": 0.0,
			"0.015": 0.0,
			"0.016": 0.0,
			"0.017": 0.0,
			"0.018": 0.0,
			"0.019": 0.0,
			"0.02": 0.0,
			"0.021": 0.0,
			"0.022": 0.0,
			"0.023": 0.0,
			"0.024": 0.0,
			"0.025": 0.0
		}
	}
}
