{
	 "smiles": "OC(=O)C1=CC(CN2CCCC2)=CC=C1", 
	 "Tm": 470.15, 
	 "num_atms": 30, 
	 "gaussian": { 
		 "optdone": 1, 
		 "sigma_profile": "yes", 
		 "theory": "DFT", 
		 "functional": "B3LYP", 
		 "basiset": "6-31G**", 
		 "properties": { 
			 "R2extent": 3863.3684, 
			 "electric_dipole_moment_norm": 4.50507403491, 
			 "electric_quadrupole_moment_norm": 21.8843940755, 
			 "total_energy": -671.512450354, 
			 "HOMO_LUMO_gap": 0.15506, 
			 "cosmo_polarized_energy": -15.01, 
			 "cosmo_cavitation_energy": 31.59, 
			 "cosmo_dispersion_energy": -22.44, 
			 "cosmo_repulsion_energy": 1.74, 
			 "cosmo_total_nonelectrostatic_energy": 10.9, 
			 "SMD_solvation_energy": 3.07 
		},
		"coords": [
			{
				"x": 2.5754566154,
				"y": -3.3519046133,
				"z": 3.0885450897,
				"element": "O" 
			},
			{
				"x": 2.4920972556,
				"y": -2.5151512503,
				"z": 2.0189343142,
				"element": "C" 
			},
			{
				"x": 3.2824709204,
				"y": -2.6180529764,
				"z": 1.1102277554,
				"element": "O" 
			},
			{
				"x": 1.3932063006,
				"y": -1.4944276155,
				"z": 2.0445094197,
				"element": "C" 
			},
			{
				"x": 1.5331690637,
				"y": -0.3730246441,
				"z": 1.2171813486,
				"element": "C" 
			},
			{
				"x": 0.5560445554,
				"y": 0.626446429,
				"z": 1.1722586914,
				"element": "C" 
			},
			{
				"x": 0.7140487753,
				"y": 1.8413974912,
				"z": 0.2593099139,
				"element": "C" 
			},
			{
				"x": 0.2312063342,
				"y": 1.7557056135,
				"z": -1.1237993788,
				"element": "N" 
			},
			{
				"x": 0.9000843691,
				"y": 0.7862026102,
				"z": -2.0027110809,
				"element": "C" 
			},
			{
				"x": 0.0329990861,
				"y": -0.5041318712,
				"z": -2.0241708592,
				"element": "C" 
			},
			{
				"x": -1.3644399171,
				"y": -0.0377965324,
				"z": -1.5318988322,
				"element": "C" 
			},
			{
				"x": -1.2010337522,
				"y": 1.4903835572,
				"z": -1.3078999171,
				"element": "C" 
			},
			{
				"x": -0.5749745011,
				"y": 0.4814495907,
				"z": 1.9910479742,
				"element": "C" 
			},
			{
				"x": -0.7386325209,
				"y": -0.6402171762,
				"z": 2.8046086606,
				"element": "C" 
			},
			{
				"x": 0.2411569827,
				"y": -1.6317799174,
				"z": 2.8318347054,
				"element": "C" 
			},
			{
				"x": 1.9913898636,
				"y": -3.0458745937,
				"z": 3.7960488946,
				"element": "H" 
			},
			{
				"x": 2.4335506751,
				"y": -0.2969559581,
				"z": 0.6153770753,
				"element": "H" 
			},
			{
				"x": 1.7764083641,
				"y": 2.1052898619,
				"z": 0.2097989238,
				"element": "H" 
			},
			{
				"x": 0.2031806543,
				"y": 2.6927721518,
				"z": 0.72450006,
				"element": "H" 
			},
			{
				"x": 1.9307778415,
				"y": 0.613345402,
				"z": -1.6811828889,
				"element": "H" 
			},
			{
				"x": 0.9452131436,
				"y": 1.2152042307,
				"z": -3.013095656,
				"element": "H" 
			},
			{
				"x": -0.0036706671,
				"y": -0.9398702066,
				"z": -3.0272043737,
				"element": "H" 
			},
			{
				"x": 0.4457005225,
				"y": -1.2644876017,
				"z": -1.3559813894,
				"element": "H" 
			},
			{
				"x": -1.6299578059,
				"y": -0.5402878192,
				"z": -0.5977219432,
				"element": "H" 
			},
			{
				"x": -2.1569598497,
				"y": -0.2542773872,
				"z": -2.2549084842,
				"element": "H" 
			},
			{
				"x": -1.7814658189,
				"y": 1.8731436568,
				"z": -0.4632727947,
				"element": "H" 
			},
			{
				"x": -1.538426166,
				"y": 2.0316036065,
				"z": -2.2027279541,
				"element": "H" 
			},
			{
				"x": -1.3352905767,
				"y": 1.258612529,
				"z": 1.9933160337,
				"element": "H" 
			},
			{
				"x": -1.6293445164,
				"y": -0.7422583454,
				"z": 3.4174712878,
				"element": "H" 
			},
			{
				"x": 0.0818347687,
				"y": -2.5177582221,
				"z": 3.4419054042,
				"element": "H" 
			}
		],
		 "valence_orbital": [ 
			{
				"type": "occ",
				"energy": -0.3145,
				"method": "rhf"
			},
			{
				"type": "occ",
				"energy": -0.27757,
				"method": "rhf"
			},
			{
				"type": "occ",
				"energy": -0.26733,
				"method": "rhf"
			},
			{
				"type": "occ",
				"energy": -0.26474,
				"method": "rhf"
			},
			{
				"type": "occ",
				"energy": -0.20698,
				"method": "rhf"
			},
			{
				"type": "unocc",
				"energy": -0.05192,
				"method": "rhf"
			},
			{
				"type": "unocc",
				"energy": -0.02483,
				"method": "rhf"
			},
			{
				"type": "unocc",
				"energy": 0.04341,
				"method": "rhf"
			},
			{
				"type": "unocc",
				"energy": 0.05895,
				"method": "rhf"
			},
			{
				"type": "unocc",
				"energy": 0.07718,
				"method": "rhf"
			}
		],
		"cosmo_sigma_profile": { 
			"-0.025": 0.0,
			"-0.024": 0.0,
			"-0.023": 0.0,
			"-0.022": 0.0,
			"-0.021": 0.0,
			"-0.02": 0.0,
			"-0.019": 0.174612823974,
			"-0.018": 0.740419917911,
			"-0.017": 0.718410153502,
			"-0.016": 1.02463192227,
			"-0.015": 0.872883137396,
			"-0.014": 1.12910389788,
			"-0.013": 1.09516082813,
			"-0.012": 1.05198802092,
			"-0.011": 0.928483846997,
			"-0.01": 1.68430508861,
			"-0.009": 0.719630428066,
			"-0.008": 1.5608334297,
			"-0.007": 3.31116858076,
			"-0.006": 10.797512279,
			"-0.005": 12.7481212165,
			"-0.004": 14.8734984823,
			"-0.003": 15.7404096874,
			"-0.002": 25.4210110567,
			"-0.001": 30.150334122,
			"0.0": 28.7869898148,
			"0.001": 21.526006021,
			"0.002": 16.6447555253,
			"0.003": 12.221936404,
			"0.004": 6.1602315437,
			"0.005": 2.72916661637,
			"0.006": 3.71704821896,
			"0.007": 3.37993294146,
			"0.008": 3.77674126309,
			"0.009": 3.33510437963,
			"0.01": 5.32431266288,
			"0.011": 5.80697321063,
			"0.012": 5.6898888924,
			"0.013": 2.25474645983,
			"0.014": 0.890156621148,
			"0.015": 0.511674095812,
			"0.016": 0.431564240824,
			"0.017": 0.206978330283,
			"0.018": 0.0,
			"0.019": 0.0,
			"0.02": 0.0,
			"0.021": 0.0,
			"0.022": 0.0,
			"0.023": 0.0,
			"0.024": 0.0,
			"0.025": 0.0
		}
	}
}
