{
	 "smiles": "FC1=C2N=CC(Br)=CC2=CC(Br)=C1", 
	 "Tm": 435.15, 
	 "num_atms": 17, 
	 "gaussian": { 
		 "optdone": 1, 
		 "sigma_profile": "yes", 
		 "theory": "DFT", 
		 "functional": "B3LYP", 
		 "basiset": "6-31G**", 
		 "properties": { 
			 "R2extent": 7503.4292, 
			 "electric_dipole_moment_norm": 1.70803098625, 
			 "electric_quadrupole_moment_norm": 3.61917903812, 
			 "total_energy": -5642.76037154, 
			 "HOMO_LUMO_gap": 0.16845, 
			 "cosmo_polarized_energy": -6.82, 
			 "cosmo_cavitation_energy": 27.12, 
			 "cosmo_dispersion_energy": -20.87, 
			 "cosmo_repulsion_energy": 1.61, 
			 "cosmo_total_nonelectrostatic_energy": 7.86, 
			 "SMD_solvation_energy": 1.3 
		},
		"coords": [
			{
				"x": 4.1058211993,
				"y": -1.3457263684,
				"z": -0.6247901203,
				"element": "F" 
			},
			{
				"x": 2.8933226264,
				"y": -1.6887572504,
				"z": -0.1787014541,
				"element": "C" 
			},
			{
				"x": 1.7543248829,
				"y": -1.0919337676,
				"z": -0.7881618209,
				"element": "C" 
			},
			{
				"x": 1.9321371875,
				"y": -0.1985789513,
				"z": -1.796877502,
				"element": "N" 
			},
			{
				"x": 0.8651769199,
				"y": 0.3396409507,
				"z": -2.3443286815,
				"element": "C" 
			},
			{
				"x": -0.4558107693,
				"y": 0.0269879814,
				"z": -1.9267763712,
				"element": "C" 
			},
			{
				"x": -1.9192706579,
				"y": 0.8747488147,
				"z": -2.8003445529,
				"element": "Br" 
			},
			{
				"x": -0.6620546349,
				"y": -0.8718207771,
				"z": -0.9105487372,
				"element": "C" 
			},
			{
				"x": 0.4671088926,
				"y": -1.4734892383,
				"z": -0.2951815666,
				"element": "C" 
			},
			{
				"x": 0.3528501393,
				"y": -2.4131917708,
				"z": 0.7623209922,
				"element": "C" 
			},
			{
				"x": 1.4955358646,
				"y": -2.9512448864,
				"z": 1.305975235,
				"element": "C" 
			},
			{
				"x": 1.3647514998,
				"y": -4.2150357395,
				"z": 2.7275717497,
				"element": "Br" 
			},
			{
				"x": 2.7842675664,
				"y": -2.5980249104,
				"z": 0.8445454924,
				"element": "C" 
			},
			{
				"x": 1.018703162,
				"y": 1.0531811537,
				"z": -3.1505363778,
				"element": "H" 
			},
			{
				"x": -1.6631990173,
				"y": -1.1238061605,
				"z": -0.5773117061,
				"element": "H" 
			},
			{
				"x": -0.6262524496,
				"y": -2.697380735,
				"z": 1.1305933353,
				"element": "H" 
			},
			{
				"x": 3.6758875884,
				"y": -3.0293683448,
				"z": 1.281652086,
				"element": "H" 
			}
		],
		 "valence_orbital": [ 
			{
				"type": "occ",
				"energy": -0.30149,
				"method": "rhf"
			},
			{
				"type": "occ",
				"energy": -0.29652,
				"method": "rhf"
			},
			{
				"type": "occ",
				"energy": -0.27806,
				"method": "rhf"
			},
			{
				"type": "occ",
				"energy": -0.25925,
				"method": "rhf"
			},
			{
				"type": "occ",
				"energy": -0.24473,
				"method": "rhf"
			},
			{
				"type": "unocc",
				"energy": -0.07628,
				"method": "rhf"
			},
			{
				"type": "unocc",
				"energy": -0.04485,
				"method": "rhf"
			},
			{
				"type": "unocc",
				"energy": -0.0141,
				"method": "rhf"
			},
			{
				"type": "unocc",
				"energy": -0.00172,
				"method": "rhf"
			},
			{
				"type": "unocc",
				"energy": -9e-05,
				"method": "rhf"
			}
		],
		"cosmo_sigma_profile": { 
			"-0.025": 0.0,
			"-0.024": 0.0,
			"-0.023": 0.0,
			"-0.022": 0.0,
			"-0.021": 0.0,
			"-0.02": 0.0,
			"-0.019": 0.0,
			"-0.018": 0.0,
			"-0.017": 0.0,
			"-0.016": 0.0,
			"-0.015": 0.0,
			"-0.014": 0.0,
			"-0.013": 0.0,
			"-0.012": 0.0,
			"-0.011": 0.0,
			"-0.01": 0.603595995268,
			"-0.009": 4.18506420016,
			"-0.008": 6.00657609733,
			"-0.007": 6.12251540048,
			"-0.006": 5.97680212527,
			"-0.005": 7.15672954351,
			"-0.004": 9.7805043175,
			"-0.003": 9.82489744209,
			"-0.002": 16.8819588776,
			"-0.001": 30.2336447776,
			"0.0": 29.0534351684,
			"0.001": 22.7874197332,
			"0.002": 16.5233409419,
			"0.003": 24.8544626786,
			"0.004": 22.9555887903,
			"0.005": 2.71549103189,
			"0.006": 1.74444727627,
			"0.007": 1.46250947722,
			"0.008": 1.65718283769,
			"0.009": 1.56123247394,
			"0.01": 0.69215239651,
			"0.011": 0.837338116509,
			"0.012": 1.24600131691,
			"0.013": 0.737170997273,
			"0.014": 0.826577872667,
			"0.015": 0.0280342909509,
			"0.016": 0.0,
			"0.017": 0.0,
			"0.018": 0.0,
			"0.019": 0.0,
			"0.02": 0.0,
			"0.021": 0.0,
			"0.022": 0.0,
			"0.023": 0.0,
			"0.024": 0.0,
			"0.025": 0.0
		}
	}
}
