{
	 "smiles": "[O-][N+](=O)C1=CC=CC(=C1)C1=CC=C(O1)C=O", 
	 "Tm": 430.15, 
	 "num_atms": 23, 
	 "gaussian": { 
		 "optdone": 1, 
		 "sigma_profile": "yes", 
		 "theory": "DFT", 
		 "functional": "B3LYP", 
		 "basiset": "6-31G**", 
		 "properties": { 
			 "R2extent": 5431.0799, 
			 "electric_dipole_moment_norm": 2.20102505438, 
			 "electric_quadrupole_moment_norm": 28.7030846299, 
			 "total_energy": -778.90912514, 
			 "HOMO_LUMO_gap": 0.14022, 
			 "cosmo_polarized_energy": -13.11, 
			 "cosmo_cavitation_energy": 29.92, 
			 "cosmo_dispersion_energy": -21.5, 
			 "cosmo_repulsion_energy": 1.65, 
			 "cosmo_total_nonelectrostatic_energy": 10.07, 
			 "SMD_solvation_energy": 8.92 
		},
		"coords": [
			{
				"x": -0.3197903946,
				"y": -3.2257645472,
				"z": 4.0869227172,
				"element": "O" 
			},
			{
				"x": -0.2893132209,
				"y": -2.037124077,
				"z": 3.7744725251,
				"element": "N" 
			},
			{
				"x": -0.0237283505,
				"y": -1.1141399739,
				"z": 4.5431776188,
				"element": "O" 
			},
			{
				"x": -0.5941021299,
				"y": -1.6933463574,
				"z": 2.3726157416,
				"element": "C" 
			},
			{
				"x": -0.8985122028,
				"y": -2.7187799896,
				"z": 1.4788782562,
				"element": "C" 
			},
			{
				"x": -1.1835223833,
				"y": -2.3731534468,
				"z": 0.1589599682,
				"element": "C" 
			},
			{
				"x": -1.1624678229,
				"y": -1.0399065145,
				"z": -0.2462145912,
				"element": "C" 
			},
			{
				"x": -0.8532565224,
				"y": -0.0143840914,
				"z": 0.6677415022,
				"element": "C" 
			},
			{
				"x": -0.5654558358,
				"y": -0.3564396009,
				"z": 1.9978351163,
				"element": "C" 
			},
			{
				"x": -0.8298036763,
				"y": 1.3815414773,
				"z": 0.2496298707,
				"element": "C" 
			},
			{
				"x": -0.5660705691,
				"y": 2.5615697349,
				"z": 0.9160556859,
				"element": "C" 
			},
			{
				"x": -0.7006799669,
				"y": 3.6035372795,
				"z": -0.0326165718,
				"element": "C" 
			},
			{
				"x": -1.0384667652,
				"y": 3.0073733087,
				"z": -1.2243148196,
				"element": "C" 
			},
			{
				"x": -1.1177434905,
				"y": 1.6480733539,
				"z": -1.052963388,
				"element": "O" 
			},
			{
				"x": -1.3094916848,
				"y": 3.5362791323,
				"z": -2.5528711256,
				"element": "C" 
			},
			{
				"x": -1.2688199579,
				"y": 4.7247586546,
				"z": -2.8219048572,
				"element": "O" 
			},
			{
				"x": -0.9069156206,
				"y": -3.7448437039,
				"z": 1.823383151,
				"element": "H" 
			},
			{
				"x": -1.4240721831,
				"y": -3.149732225,
				"z": -0.5598973761,
				"element": "H" 
			},
			{
				"x": -1.3855454675,
				"y": -0.7811117079,
				"z": -1.2750828589,
				"element": "H" 
			},
			{
				"x": -0.3212588339,
				"y": 0.3896179977,
				"z": 2.7430225489,
				"element": "H" 
			},
			{
				"x": -0.3074319826,
				"y": 2.663685499,
				"z": 1.9598055668,
				"element": "H" 
			},
			{
				"x": -0.5703669767,
				"y": 4.6648128442,
				"z": 0.1196084997,
				"element": "H" 
			},
			{
				"x": -1.559083962,
				"y": 2.7643769534,
				"z": -3.3106431803,
				"element": "H" 
			}
		],
		 "valence_orbital": [ 
			{
				"type": "occ",
				"energy": -0.30691,
				"method": "rhf"
			},
			{
				"type": "occ",
				"energy": -0.30064,
				"method": "rhf"
			},
			{
				"type": "occ",
				"energy": -0.2936,
				"method": "rhf"
			},
			{
				"type": "occ",
				"energy": -0.26646,
				"method": "rhf"
			},
			{
				"type": "occ",
				"energy": -0.24004,
				"method": "rhf"
			},
			{
				"type": "unocc",
				"energy": -0.09982,
				"method": "rhf"
			},
			{
				"type": "unocc",
				"energy": -0.08444,
				"method": "rhf"
			},
			{
				"type": "unocc",
				"energy": -0.04087,
				"method": "rhf"
			},
			{
				"type": "unocc",
				"energy": -0.01281,
				"method": "rhf"
			},
			{
				"type": "unocc",
				"energy": 0.04538,
				"method": "rhf"
			}
		],
		"cosmo_sigma_profile": { 
			"-0.025": 0.0,
			"-0.024": 0.0,
			"-0.023": 0.0,
			"-0.022": 0.0,
			"-0.021": 0.0,
			"-0.02": 0.0,
			"-0.019": 0.0,
			"-0.018": 0.0,
			"-0.017": 0.0,
			"-0.016": 0.0,
			"-0.015": 0.0,
			"-0.014": 0.0,
			"-0.013": 0.0,
			"-0.012": 0.0,
			"-0.011": 0.120394015408,
			"-0.01": 1.68393746365,
			"-0.009": 2.75572912554,
			"-0.008": 6.2407165471,
			"-0.007": 12.3500205982,
			"-0.006": 14.0741028584,
			"-0.005": 12.8249627327,
			"-0.004": 13.7245095565,
			"-0.003": 14.3346387167,
			"-0.002": 16.4879963486,
			"-0.001": 26.4450237418,
			"0.0": 26.2637100214,
			"0.001": 22.0579599576,
			"0.002": 13.3579491028,
			"0.003": 6.15295458168,
			"0.004": 5.38524443963,
			"0.005": 4.77875175445,
			"0.006": 4.80170578295,
			"0.007": 10.6743935322,
			"0.008": 8.16868481473,
			"0.009": 5.91460778305,
			"0.01": 4.41757307748,
			"0.011": 4.27049732308,
			"0.012": 3.77490065661,
			"0.013": 0.933274355883,
			"0.014": 0.00381222378895,
			"0.015": 0.0,
			"0.016": 0.0,
			"0.017": 0.0,
			"0.018": 0.0,
			"0.019": 0.0,
			"0.02": 0.0,
			"0.021": 0.0,
			"0.022": 0.0,
			"0.023": 0.0,
			"0.024": 0.0,
			"0.025": 0.0
		}
	}
}
