{
	 "smiles": "CC1CCC2=C(C1)C=CC(C)=C2", 
	 "Tm": 293.15, 
	 "num_atms": 28, 
	 "gaussian": { 
		 "optdone": 1, 
		 "sigma_profile": "yes", 
		 "theory": "DFT", 
		 "functional": "B3LYP", 
		 "basiset": "6-31G**", 
		 "properties": { 
			 "R2extent": 2720.3542, 
			 "electric_dipole_moment_norm": 0.289542483929, 
			 "electric_quadrupole_moment_norm": 3.8737035457, 
			 "total_energy": -466.950748576, 
			 "HOMO_LUMO_gap": 0.22719, 
			 "cosmo_polarized_energy": -2.99, 
			 "cosmo_cavitation_energy": 28.36, 
			 "cosmo_dispersion_energy": -20.87, 
			 "cosmo_repulsion_energy": 1.66, 
			 "cosmo_total_nonelectrostatic_energy": 9.15, 
			 "SMD_solvation_energy": 4.12 
		},
		"coords": [
			{
				"x": 1.7611946626,
				"y": 0.1085229584,
				"z": 2.9702480063,
				"element": "C" 
			},
			{
				"x": 2.7149446721,
				"y": 0.5570065371,
				"z": 1.8518464275,
				"element": "C" 
			},
			{
				"x": 3.3681430564,
				"y": -0.6280372988,
				"z": 1.1161604948,
				"element": "C" 
			},
			{
				"x": 2.3308733656,
				"y": -1.4948797276,
				"z": 0.3886769199,
				"element": "C" 
			},
			{
				"x": 1.3062346956,
				"y": -0.6879644472,
				"z": -0.3901682027,
				"element": "C" 
			},
			{
				"x": 1.1281407807,
				"y": 0.6856792628,
				"z": -0.1581979163,
				"element": "C" 
			},
			{
				"x": 2.0100572799,
				"y": 1.4511267386,
				"z": 0.8144389238,
				"element": "C" 
			},
			{
				"x": 0.1331408735,
				"y": 1.3632754397,
				"z": -0.8796478299,
				"element": "C" 
			},
			{
				"x": -0.6628401066,
				"y": 0.7094283114,
				"z": -1.812645865,
				"element": "C" 
			},
			{
				"x": -0.4921350146,
				"y": -0.6618461633,
				"z": -2.0582312556,
				"element": "C" 
			},
			{
				"x": -1.3546904019,
				"y": -1.3809606288,
				"z": -3.0693075054,
				"element": "C" 
			},
			{
				"x": 0.4943837258,
				"y": -1.3334672167,
				"z": -1.3354848984,
				"element": "C" 
			},
			{
				"x": 0.8853864976,
				"y": -0.4152415769,
				"z": 2.5735770157,
				"element": "H" 
			},
			{
				"x": 1.395476102,
				"y": 0.9718971293,
				"z": 3.5366922146,
				"element": "H" 
			},
			{
				"x": 2.2647946681,
				"y": -0.5633127623,
				"z": 3.674537317,
				"element": "H" 
			},
			{
				"x": 3.5148520712,
				"y": 1.1491282072,
				"z": 2.3161169424,
				"element": "H" 
			},
			{
				"x": 4.0876771828,
				"y": -0.2331503337,
				"z": 0.3867306719,
				"element": "H" 
			},
			{
				"x": 3.9404434363,
				"y": -1.24617128,
				"z": 1.8184309115,
				"element": "H" 
			},
			{
				"x": 1.8016662351,
				"y": -2.1225058598,
				"z": 1.1198196991,
				"element": "H" 
			},
			{
				"x": 2.8370491001,
				"y": -2.1962485086,
				"z": -0.285893743,
				"element": "H" 
			},
			{
				"x": 2.7758012203,
				"y": 1.993806178,
				"z": 0.2407305256,
				"element": "H" 
			},
			{
				"x": 1.4151503506,
				"y": 2.2223362862,
				"z": 1.3201454,
				"element": "H" 
			},
			{
				"x": -0.013590927,
				"y": 2.426882971,
				"z": -0.7024623076,
				"element": "H" 
			},
			{
				"x": -1.4248404615,
				"y": 1.2639820089,
				"z": -2.3557451833,
				"element": "H" 
			},
			{
				"x": -2.4123954978,
				"y": -1.3594938555,
				"z": -2.7805507586,
				"element": "H" 
			},
			{
				"x": -1.0603196874,
				"y": -2.4292442306,
				"z": -3.1722097683,
				"element": "H" 
			},
			{
				"x": -1.2844762513,
				"y": -0.9154465326,
				"z": -4.0593066662,
				"element": "H" 
			},
			{
				"x": 0.6427783718,
				"y": -2.3984016062,
				"z": -1.5085995697,
				"element": "H" 
			}
		],
		 "valence_orbital": [ 
			{
				"type": "occ",
				"energy": -0.31896,
				"method": "rhf"
			},
			{
				"type": "occ",
				"energy": -0.30119,
				"method": "rhf"
			},
			{
				"type": "occ",
				"energy": -0.29767,
				"method": "rhf"
			},
			{
				"type": "occ",
				"energy": -0.23209,
				"method": "rhf"
			},
			{
				"type": "occ",
				"energy": -0.22022,
				"method": "rhf"
			},
			{
				"type": "unocc",
				"energy": 0.00697,
				"method": "rhf"
			},
			{
				"type": "unocc",
				"energy": 0.01187,
				"method": "rhf"
			},
			{
				"type": "unocc",
				"energy": 0.08567,
				"method": "rhf"
			},
			{
				"type": "unocc",
				"energy": 0.11007,
				"method": "rhf"
			},
			{
				"type": "unocc",
				"energy": 0.12038,
				"method": "rhf"
			}
		],
		"cosmo_sigma_profile": { 
			"-0.025": 0.0,
			"-0.024": 0.0,
			"-0.023": 0.0,
			"-0.022": 0.0,
			"-0.021": 0.0,
			"-0.02": 0.0,
			"-0.019": 0.0,
			"-0.018": 0.0,
			"-0.017": 0.0,
			"-0.016": 0.0,
			"-0.015": 0.0,
			"-0.014": 0.0,
			"-0.013": 0.0,
			"-0.012": 0.0,
			"-0.011": 0.0,
			"-0.01": 0.0,
			"-0.009": 0.0,
			"-0.008": 0.0,
			"-0.007": 0.0,
			"-0.006": 0.0,
			"-0.005": 1.47728588119,
			"-0.004": 9.30932310614,
			"-0.003": 23.2491365013,
			"-0.002": 37.0487684487,
			"-0.001": 38.8561854267,
			"0.0": 38.4643792663,
			"0.001": 25.181605474,
			"0.002": 12.455937803,
			"0.003": 7.61395261057,
			"0.004": 6.56432229227,
			"0.005": 6.12831803395,
			"0.006": 6.55067749091,
			"0.007": 6.08322457046,
			"0.008": 1.83884344141,
			"0.009": 0.0,
			"0.01": 0.0,
			"0.011": 0.0,
			"0.012": 0.0,
			"0.013": 0.0,
			"0.014": 0.0,
			"0.015": 0.0,
			"0.016": 0.0,
			"0.017": 0.0,
			"0.018": 0.0,
			"0.019": 0.0,
			"0.02": 0.0,
			"0.021": 0.0,
			"0.022": 0.0,
			"0.023": 0.0,
			"0.024": 0.0,
			"0.025": 0.0
		}
	}
}
