{
	 "smiles": "CCCCOCCOC(=O)C1=CC=CC=C1C(=O)OCCOCCCC", 
	 "Tm": 218.15, 
	 "num_atms": 56, 
	 "gaussian": { 
		 "optdone": 1, 
		 "sigma_profile": "yes", 
		 "theory": "DFT", 
		 "functional": "B3LYP", 
		 "basiset": "6-31G**", 
		 "properties": { 
			 "R2extent": 12451.0346, 
			 "electric_dipole_moment_norm": 1.71503852726, 
			 "electric_quadrupole_moment_norm": 21.0120910199, 
			 "total_energy": -1231.56665108, 
			 "HOMO_LUMO_gap": 0.19628, 
			 "cosmo_polarized_energy": -16.6, 
			 "cosmo_cavitation_energy": 58.23, 
			 "cosmo_dispersion_energy": -36.6, 
			 "cosmo_repulsion_energy": 2.86, 
			 "cosmo_total_nonelectrostatic_energy": 24.49, 
			 "SMD_solvation_energy": 10.52 
		},
		"coords": [
			{
				"x": 0.2697669453,
				"y": 0.7966409607,
				"z": -6.2665258438,
				"element": "C" 
			},
			{
				"x": 1.4678648971,
				"y": 0.950507165,
				"z": -5.3225211587,
				"element": "C" 
			},
			{
				"x": 1.1746395594,
				"y": 1.7643884161,
				"z": -4.051480184,
				"element": "C" 
			},
			{
				"x": 0.1827078439,
				"y": 1.1119048886,
				"z": -3.0935432312,
				"element": "C" 
			},
			{
				"x": 0.7085101009,
				"y": -0.1369474355,
				"z": -2.6744483158,
				"element": "O" 
			},
			{
				"x": -0.1372528267,
				"y": -0.8216599387,
				"z": -1.7720593631,
				"element": "C" 
			},
			{
				"x": 0.5470354339,
				"y": -2.1029044764,
				"z": -1.336129711,
				"element": "C" 
			},
			{
				"x": 1.7143234446,
				"y": -1.8282785593,
				"z": -0.5326181218,
				"element": "O" 
			},
			{
				"x": 1.5463104807,
				"y": -1.8061493215,
				"z": 0.8073924972,
				"element": "C" 
			},
			{
				"x": 0.4908084715,
				"y": -2.0160564469,
				"z": 1.3703318179,
				"element": "O" 
			},
			{
				"x": 2.8471021836,
				"y": -1.5608205694,
				"z": 1.5090769622,
				"element": "C" 
			},
			{
				"x": 4.0235927647,
				"y": -2.0935326187,
				"z": 0.9663088991,
				"element": "C" 
			},
			{
				"x": 5.2288260038,
				"y": -2.0200070655,
				"z": 1.6634489078,
				"element": "C" 
			},
			{
				"x": 5.2692259276,
				"y": -1.4165973067,
				"z": 2.9203057692,
				"element": "C" 
			},
			{
				"x": 4.1070569759,
				"y": -0.8721369578,
				"z": 3.464361683,
				"element": "C" 
			},
			{
				"x": 2.8969853975,
				"y": -0.9208532052,
				"z": 2.7639819746,
				"element": "C" 
			},
			{
				"x": 1.7377497813,
				"y": -0.2258162394,
				"z": 3.4123201076,
				"element": "C" 
			},
			{
				"x": 1.5241015981,
				"y": -0.2516599773,
				"z": 4.607499368,
				"element": "O" 
			},
			{
				"x": 1.0232270138,
				"y": 0.5113157844,
				"z": 2.5389356036,
				"element": "O" 
			},
			{
				"x": -0.117797054,
				"y": 1.1907703648,
				"z": 3.0940005627,
				"element": "C" 
			},
			{
				"x": -0.9799957285,
				"y": 1.7159942707,
				"z": 1.9562033939,
				"element": "C" 
			},
			{
				"x": -1.5495906416,
				"y": 0.7315343798,
				"z": 1.1184686284,
				"element": "O" 
			},
			{
				"x": -2.4516395411,
				"y": -0.1640054367,
				"z": 1.7663243036,
				"element": "C" 
			},
			{
				"x": -3.2832801571,
				"y": -0.8773949401,
				"z": 0.7047083126,
				"element": "C" 
			},
			{
				"x": -4.1399402167,
				"y": 0.0458589312,
				"z": -0.1761325384,
				"element": "C" 
			},
			{
				"x": -5.2751706648,
				"y": 0.7566995159,
				"z": 0.5699530242,
				"element": "C" 
			},
			{
				"x": -0.551018562,
				"y": 0.2440619831,
				"z": -5.7972865242,
				"element": "H" 
			},
			{
				"x": 0.5519486829,
				"y": 0.2508803799,
				"z": -7.1729700808,
				"element": "H" 
			},
			{
				"x": -0.1221335283,
				"y": 1.7729306243,
				"z": -6.5761669924,
				"element": "H" 
			},
			{
				"x": 2.2893568006,
				"y": 1.4374466206,
				"z": -5.86289863,
				"element": "H" 
			},
			{
				"x": 1.8336559496,
				"y": -0.0387827005,
				"z": -5.026404343,
				"element": "H" 
			},
			{
				"x": 0.7833437033,
				"y": 2.7546548822,
				"z": -4.3223070905,
				"element": "H" 
			},
			{
				"x": 2.1107974948,
				"y": 1.9326489743,
				"z": -3.5055982345,
				"element": "H" 
			},
			{
				"x": -0.7981002758,
				"y": 0.9671435323,
				"z": -3.5783135433,
				"element": "H" 
			},
			{
				"x": 0.0139307005,
				"y": 1.7653230473,
				"z": -2.2216388627,
				"element": "H" 
			},
			{
				"x": -1.0932547399,
				"y": -1.090024833,
				"z": -2.25787271,
				"element": "H" 
			},
			{
				"x": -0.3764220282,
				"y": -0.2048601125,
				"z": -0.8935327075,
				"element": "H" 
			},
			{
				"x": -0.1454908486,
				"y": -2.7275532554,
				"z": -0.7676643073,
				"element": "H" 
			},
			{
				"x": 0.9211906924,
				"y": -2.6458625091,
				"z": -2.207086272,
				"element": "H" 
			},
			{
				"x": 3.9787217032,
				"y": -2.581156865,
				"z": -0.0006174598,
				"element": "H" 
			},
			{
				"x": 6.1297663487,
				"y": -2.4431134449,
				"z": 1.2293125219,
				"element": "H" 
			},
			{
				"x": 6.2016129929,
				"y": -1.3653628351,
				"z": 3.47455098,
				"element": "H" 
			},
			{
				"x": 4.1206603266,
				"y": -0.3921697718,
				"z": 4.4371058934,
				"element": "H" 
			},
			{
				"x": 0.2251822142,
				"y": 2.0291936989,
				"z": 3.7121219175,
				"element": "H" 
			},
			{
				"x": -0.661866903,
				"y": 0.504800929,
				"z": 3.7473964233,
				"element": "H" 
			},
			{
				"x": -0.3769843703,
				"y": 2.3540352271,
				"z": 1.302496316,
				"element": "H" 
			},
			{
				"x": -1.7675154319,
				"y": 2.3426122522,
				"z": 2.4107648642,
				"element": "H" 
			},
			{
				"x": -3.1008079663,
				"y": 0.3991450336,
				"z": 2.4569326744,
				"element": "H" 
			},
			{
				"x": -1.895082857,
				"y": -0.9063723046,
				"z": 2.3527471008,
				"element": "H" 
			},
			{
				"x": -2.5982798095,
				"y": -1.457178936,
				"z": 0.0751913011,
				"element": "H" 
			},
			{
				"x": -3.923982847,
				"y": -1.6074620741,
				"z": 1.2178850686,
				"element": "H" 
			},
			{
				"x": -4.5681939906,
				"y": -0.5514469563,
				"z": -0.9909796501,
				"element": "H" 
			},
			{
				"x": -3.4857382065,
				"y": 0.7889592339,
				"z": -0.6457854946,
				"element": "H" 
			},
			{
				"x": -5.8765317919,
				"y": 1.3631383811,
				"z": -0.1153212334,
				"element": "H" 
			},
			{
				"x": -4.896235449,
				"y": 1.4272183208,
				"z": 1.3486334732,
				"element": "H" 
			},
			{
				"x": -5.946895997,
				"y": 0.0364592955,
				"z": 1.0519422541,
				"element": "H" 
			}
		],
		 "valence_orbital": [ 
			{
				"type": "occ",
				"energy": -0.27548,
				"method": "rhf"
			},
			{
				"type": "occ",
				"energy": -0.26203,
				"method": "rhf"
			},
			{
				"type": "occ",
				"energy": -0.25829,
				"method": "rhf"
			},
			{
				"type": "occ",
				"energy": -0.25572,
				"method": "rhf"
			},
			{
				"type": "occ",
				"energy": -0.24872,
				"method": "rhf"
			},
			{
				"type": "unocc",
				"energy": -0.05244,
				"method": "rhf"
			},
			{
				"type": "unocc",
				"energy": -0.02464,
				"method": "rhf"
			},
			{
				"type": "unocc",
				"energy": 0.0341,
				"method": "rhf"
			},
			{
				"type": "unocc",
				"energy": 0.04851,
				"method": "rhf"
			},
			{
				"type": "unocc",
				"energy": 0.07248,
				"method": "rhf"
			}
		],
		"cosmo_sigma_profile": { 
			"-0.025": 0.0,
			"-0.024": 0.0,
			"-0.023": 0.0,
			"-0.022": 0.0,
			"-0.021": 0.0,
			"-0.02": 0.0,
			"-0.019": 0.0,
			"-0.018": 0.0,
			"-0.017": 0.0,
			"-0.016": 0.0,
			"-0.015": 0.0,
			"-0.014": 0.0,
			"-0.013": 0.0,
			"-0.012": 0.0,
			"-0.011": 0.0,
			"-0.01": 0.0,
			"-0.009": 0.0,
			"-0.008": 0.213586222163,
			"-0.007": 6.57902797436,
			"-0.006": 17.7119973277,
			"-0.005": 28.4960360668,
			"-0.004": 26.7705141672,
			"-0.003": 43.8134037804,
			"-0.002": 53.0735489197,
			"-0.001": 52.600638012,
			"0.0": 48.47309849,
			"0.001": 51.70620461,
			"0.002": 36.9481481588,
			"0.003": 18.2587224043,
			"0.004": 11.1385363146,
			"0.005": 10.8962014855,
			"0.006": 10.0694542809,
			"0.007": 8.19755932586,
			"0.008": 6.70143464696,
			"0.009": 5.36922991292,
			"0.01": 6.01190720932,
			"0.011": 7.17262036009,
			"0.012": 4.28357709885,
			"0.013": 0.555931465466,
			"0.014": 0.0,
			"0.015": 0.0,
			"0.016": 0.0,
			"0.017": 0.0,
			"0.018": 0.0,
			"0.019": 0.0,
			"0.02": 0.0,
			"0.021": 0.0,
			"0.022": 0.0,
			"0.023": 0.0,
			"0.024": 0.0,
			"0.025": 0.0
		}
	}
}
