{
	 "smiles": "O=C1NN=CC(=O)N1", 
	 "Tm": 548.15, 
	 "num_atms": 11, 
	 "gaussian": { 
		 "optdone": 1, 
		 "sigma_profile": "yes", 
		 "theory": "DFT", 
		 "functional": "B3LYP", 
		 "basiset": "6-31G**", 
		 "properties": { 
			 "R2extent": 1302.2947, 
			 "electric_dipole_moment_norm": 1.62796981852, 
			 "electric_quadrupole_moment_norm": 7.98443390291, 
			 "total_energy": -430.82491159, 
			 "HOMO_LUMO_gap": 0.20124, 
			 "cosmo_polarized_energy": -14.04, 
			 "cosmo_cavitation_energy": 16.23, 
			 "cosmo_dispersion_energy": -12.46, 
			 "cosmo_repulsion_energy": 1.05, 
			 "cosmo_total_nonelectrostatic_energy": 4.82, 
			 "SMD_solvation_energy": 4.25 
		},
		"coords": [
			{
				"x": -1.5240221613,
				"y": 0.6688892545,
				"z": -0.4136128962,
				"element": "O" 
			},
			{
				"x": -1.133514616,
				"y": -0.3395785151,
				"z": 0.1384814979,
				"element": "C" 
			},
			{
				"x": -1.9929235516,
				"y": -1.286084142,
				"z": 0.6921310971,
				"element": "N" 
			},
			{
				"x": -1.6522100271,
				"y": -2.4301461675,
				"z": 1.3214688136,
				"element": "N" 
			},
			{
				"x": -0.3946576918,
				"y": -2.7003751265,
				"z": 1.4362703572,
				"element": "C" 
			},
			{
				"x": 0.6894743492,
				"y": -1.8387548935,
				"z": 0.9242324774,
				"element": "C" 
			},
			{
				"x": 1.8786079404,
				"y": -2.0767520233,
				"z": 1.0225722399,
				"element": "O" 
			},
			{
				"x": 0.2025226694,
				"y": -0.6876128513,
				"z": 0.2947847177,
				"element": "N" 
			},
			{
				"x": -2.9833751286,
				"y": -1.1004936887,
				"z": 0.6169118246,
				"element": "H" 
			},
			{
				"x": -0.1196676794,
				"y": -3.6192894576,
				"z": 1.9416034375,
				"element": "H" 
			},
			{
				"x": 0.8816658967,
				"y": -0.0389023891,
				"z": -0.0871435665,
				"element": "H" 
			}
		],
		 "valence_orbital": [ 
			{
				"type": "occ",
				"energy": -0.35818,
				"method": "rhf"
			},
			{
				"type": "occ",
				"energy": -0.30437,
				"method": "rhf"
			},
			{
				"type": "occ",
				"energy": -0.29548,
				"method": "rhf"
			},
			{
				"type": "occ",
				"energy": -0.28211,
				"method": "rhf"
			},
			{
				"type": "occ",
				"energy": -0.27739,
				"method": "rhf"
			},
			{
				"type": "unocc",
				"energy": -0.07615,
				"method": "rhf"
			},
			{
				"type": "unocc",
				"energy": -0.0056,
				"method": "rhf"
			},
			{
				"type": "unocc",
				"energy": 0.0635,
				"method": "rhf"
			},
			{
				"type": "unocc",
				"energy": 0.09232,
				"method": "rhf"
			},
			{
				"type": "unocc",
				"energy": 0.10072,
				"method": "rhf"
			}
		],
		"cosmo_sigma_profile": { 
			"-0.025": 0.0,
			"-0.024": 0.0,
			"-0.023": 0.0,
			"-0.022": 0.0,
			"-0.021": 0.0,
			"-0.02": 0.0,
			"-0.019": 0.0,
			"-0.018": 0.146100770563,
			"-0.017": 1.84466112392,
			"-0.016": 2.06097545173,
			"-0.015": 1.85370120989,
			"-0.014": 1.20879187005,
			"-0.013": 1.35520265404,
			"-0.012": 2.8927634859,
			"-0.011": 1.65495634581,
			"-0.01": 1.4557235194,
			"-0.009": 3.41949322556,
			"-0.008": 3.85501975893,
			"-0.007": 5.16374324592,
			"-0.006": 5.32863869379,
			"-0.005": 6.76940907383,
			"-0.004": 7.40659757645,
			"-0.003": 10.2455824559,
			"-0.002": 7.10539431961,
			"-0.001": 5.55660617122,
			"0.0": 4.11093170259,
			"0.001": 4.6101138029,
			"0.002": 3.76675233704,
			"0.003": 3.0384731552,
			"0.004": 3.82414055251,
			"0.005": 3.41247164325,
			"0.006": 2.87859237986,
			"0.007": 3.22760646238,
			"0.008": 3.29309857877,
			"0.009": 3.61417829994,
			"0.01": 4.70149320931,
			"0.011": 9.57425490634,
			"0.012": 9.89022526433,
			"0.013": 1.08287893208,
			"0.014": 0.0,
			"0.015": 0.0,
			"0.016": 0.0,
			"0.017": 0.0,
			"0.018": 0.0,
			"0.019": 0.0,
			"0.02": 0.0,
			"0.021": 0.0,
			"0.022": 0.0,
			"0.023": 0.0,
			"0.024": 0.0,
			"0.025": 0.0
		}
	}
}
