{
	 "smiles": "BrC1=CN=C(OCC2=CC=CC=C2)N=C1", 
	 "Tm": 374.65, 
	 "num_atms": 24, 
	 "gaussian": { 
		 "optdone": 1, 
		 "sigma_profile": "yes", 
		 "theory": "DFT", 
		 "functional": "B3LYP", 
		 "basiset": "6-31G**", 
		 "properties": { 
			 "R2extent": 9820.5948, 
			 "electric_dipole_moment_norm": 1.65587125405, 
			 "electric_quadrupole_moment_norm": 4.4588727802, 
			 "total_energy": -3180.71442192, 
			 "HOMO_LUMO_gap": 0.193, 
			 "cosmo_polarized_energy": -9.01, 
			 "cosmo_cavitation_energy": 31.42, 
			 "cosmo_dispersion_energy": -22.96, 
			 "cosmo_repulsion_energy": 1.81, 
			 "cosmo_total_nonelectrostatic_energy": 10.27, 
			 "SMD_solvation_energy": 2.27 
		},
		"coords": [
			{
				"x": -4.6096290025,
				"y": -3.5448371542,
				"z": -3.2311541723,
				"element": "Br" 
			},
			{
				"x": -3.6855109906,
				"y": -2.6248311576,
				"z": -1.8502467493,
				"element": "C" 
			},
			{
				"x": -4.0599611394,
				"y": -1.3470125452,
				"z": -1.4503863442,
				"element": "C" 
			},
			{
				"x": -3.4097787595,
				"y": -0.6961879058,
				"z": -0.4816007585,
				"element": "N" 
			},
			{
				"x": -2.381333076,
				"y": -1.3404355286,
				"z": 0.0805813995,
				"element": "C" 
			},
			{
				"x": -1.6950784994,
				"y": -0.7522037351,
				"z": 1.0701826799,
				"element": "O" 
			},
			{
				"x": -2.0261835796,
				"y": 0.6115916003,
				"z": 1.4229191543,
				"element": "C" 
			},
			{
				"x": -1.4023235327,
				"y": 1.6175082724,
				"z": 0.4837351388,
				"element": "C" 
			},
			{
				"x": -2.1923849492,
				"y": 2.5569209404,
				"z": -0.1862521877,
				"element": "C" 
			},
			{
				"x": -1.6062447555,
				"y": 3.5058776135,
				"z": -1.0264615695,
				"element": "C" 
			},
			{
				"x": -0.2236108984,
				"y": 3.5138418086,
				"z": -1.2136571007,
				"element": "C" 
			},
			{
				"x": 0.5717718036,
				"y": 2.5712707582,
				"z": -0.5561186205,
				"element": "C" 
			},
			{
				"x": -0.0141025704,
				"y": 1.6315437228,
				"z": 0.2904756483,
				"element": "C" 
			},
			{
				"x": -1.9386354152,
				"y": -2.5696545176,
				"z": -0.2261732664,
				"element": "N" 
			},
			{
				"x": -2.5969554406,
				"y": -3.2034248837,
				"z": -1.191482717,
				"element": "C" 
			},
			{
				"x": -4.8979590626,
				"y": -0.8345192659,
				"z": -1.9167032749,
				"element": "H" 
			},
			{
				"x": -1.6160712834,
				"y": 0.7114356029,
				"z": 2.4315172514,
				"element": "H" 
			},
			{
				"x": -3.1105851942,
				"y": 0.7317929378,
				"z": 1.4624797711,
				"element": "H" 
			},
			{
				"x": -3.2706401069,
				"y": 2.5379041578,
				"z": -0.0547997238,
				"element": "H" 
			},
			{
				"x": -2.2301676536,
				"y": 4.231888028,
				"z": -1.5399907723,
				"element": "H" 
			},
			{
				"x": 0.2334511387,
				"y": 4.2489008947,
				"z": -1.8700418881,
				"element": "H" 
			},
			{
				"x": 1.6484765266,
				"y": 2.5722558459,
				"z": -0.7002680132,
				"element": "H" 
			},
			{
				"x": 0.6036131031,
				"y": 0.8970718026,
				"z": 0.8002957606,
				"element": "H" 
			},
			{
				"x": -2.2530566624,
				"y": -4.2013972922,
				"z": -1.4542496457,
				"element": "H" 
			}
		],
		 "valence_orbital": [ 
			{
				"type": "occ",
				"energy": -0.30533,
				"method": "rhf"
			},
			{
				"type": "occ",
				"energy": -0.2622,
				"method": "rhf"
			},
			{
				"type": "occ",
				"energy": -0.25242,
				"method": "rhf"
			},
			{
				"type": "occ",
				"energy": -0.24976,
				"method": "rhf"
			},
			{
				"type": "occ",
				"energy": -0.24501,
				"method": "rhf"
			},
			{
				"type": "unocc",
				"energy": -0.05201,
				"method": "rhf"
			},
			{
				"type": "unocc",
				"energy": -0.02098,
				"method": "rhf"
			},
			{
				"type": "unocc",
				"energy": -0.01116,
				"method": "rhf"
			},
			{
				"type": "unocc",
				"energy": -0.00287,
				"method": "rhf"
			},
			{
				"type": "unocc",
				"energy": -0.00049,
				"method": "rhf"
			}
		],
		"cosmo_sigma_profile": { 
			"-0.025": 0.0,
			"-0.024": 0.0,
			"-0.023": 0.0,
			"-0.022": 0.0,
			"-0.021": 0.0,
			"-0.02": 0.0,
			"-0.019": 0.0,
			"-0.018": 0.0,
			"-0.017": 0.0,
			"-0.016": 0.0,
			"-0.015": 0.0,
			"-0.014": 0.0,
			"-0.013": 0.0,
			"-0.012": 0.0,
			"-0.011": 0.0,
			"-0.01": 0.0,
			"-0.009": 2.03568510093,
			"-0.008": 3.56971991308,
			"-0.007": 4.60931252901,
			"-0.006": 11.7388560706,
			"-0.005": 19.2165710303,
			"-0.004": 23.198497217,
			"-0.003": 21.6046103978,
			"-0.002": 21.517391146,
			"-0.001": 20.2858196375,
			"0.0": 17.0892499764,
			"0.001": 15.8788994198,
			"0.002": 18.1700923445,
			"0.003": 19.2657875048,
			"0.004": 19.6935062091,
			"0.005": 12.9959405347,
			"0.006": 8.42930182128,
			"0.007": 3.97166200153,
			"0.008": 2.57536463273,
			"0.009": 1.62679753709,
			"0.01": 1.97327319542,
			"0.011": 2.19350972631,
			"0.012": 1.55838775561,
			"0.013": 1.12325600824,
			"0.014": 1.23775870345,
			"0.015": 0.33875928794,
			"0.016": 0.0,
			"0.017": 0.0,
			"0.018": 0.0,
			"0.019": 0.0,
			"0.02": 0.0,
			"0.021": 0.0,
			"0.022": 0.0,
			"0.023": 0.0,
			"0.024": 0.0,
			"0.025": 0.0
		}
	}
}
