{
	 "smiles": "ClC1=CC=C(C=C)C=C1", 
	 "Tm": 289.05, 
	 "num_atms": 16, 
	 "gaussian": { 
		 "optdone": 1, 
		 "sigma_profile": "yes", 
		 "theory": "DFT", 
		 "functional": "B3LYP", 
		 "basiset": "6-31G**", 
		 "properties": { 
			 "R2extent": 2031.6026, 
			 "electric_dipole_moment_norm": 1.80494348388, 
			 "electric_quadrupole_moment_norm": 6.44127919283, 
			 "total_energy": -769.245417114, 
			 "HOMO_LUMO_gap": 0.18432, 
			 "cosmo_polarized_energy": -4.42, 
			 "cosmo_cavitation_energy": 21.9, 
			 "cosmo_dispersion_energy": -16.19, 
			 "cosmo_repulsion_energy": 1.31, 
			 "cosmo_total_nonelectrostatic_energy": 7.02, 
			 "SMD_solvation_energy": 4.14 
		},
		"coords": [
			{
				"x": 2.8196623401,
				"y": -1.334210119,
				"z": -1.0926083535,
				"element": "Cl" 
			},
			{
				"x": 1.2641653192,
				"y": -1.0841585071,
				"z": -0.313906486,
				"element": "C" 
			},
			{
				"x": 0.7441802975,
				"y": -2.0782753851,
				"z": 0.5181540692,
				"element": "C" 
			},
			{
				"x": -0.4868319401,
				"y": -1.8777792313,
				"z": 1.1330262013,
				"element": "C" 
			},
			{
				"x": -1.2202152372,
				"y": -0.6933644687,
				"z": 0.9343639904,
				"element": "C" 
			},
			{
				"x": -2.5256832097,
				"y": -0.4370060626,
				"z": 1.5631843365,
				"element": "C" 
			},
			{
				"x": -3.2055246398,
				"y": -1.24247804,
				"z": 2.3885428123,
				"element": "C" 
			},
			{
				"x": -0.6663131138,
				"y": 0.2845365412,
				"z": 0.091053199,
				"element": "C" 
			},
			{
				"x": 0.5659202525,
				"y": 0.1009698136,
				"z": -0.5335304091,
				"element": "C" 
			},
			{
				"x": 1.3000467313,
				"y": -2.9954589935,
				"z": 0.6790835838,
				"element": "H" 
			},
			{
				"x": -0.8800666742,
				"y": -2.6577870307,
				"z": 1.7772149367,
				"element": "H" 
			},
			{
				"x": -2.9663685049,
				"y": 0.5268092184,
				"z": 1.310272108,
				"element": "H" 
			},
			{
				"x": -2.8414136763,
				"y": -2.2192853324,
				"z": 2.6931926942,
				"element": "H" 
			},
			{
				"x": -4.1666012708,
				"y": -0.9416240976,
				"z": 2.7920458021,
				"element": "H" 
			},
			{
				"x": -1.2118106673,
				"y": 1.2089787275,
				"z": -0.0797865742,
				"element": "H" 
			},
			{
				"x": 0.9796539935,
				"y": 0.8656329674,
				"z": -1.1816019106,
				"element": "H" 
			}
		],
		 "valence_orbital": [ 
			{
				"type": "occ",
				"energy": -0.34648,
				"method": "rhf"
			},
			{
				"type": "occ",
				"energy": -0.3124,
				"method": "rhf"
			},
			{
				"type": "occ",
				"energy": -0.29164,
				"method": "rhf"
			},
			{
				"type": "occ",
				"energy": -0.2651,
				"method": "rhf"
			},
			{
				"type": "occ",
				"energy": -0.22659,
				"method": "rhf"
			},
			{
				"type": "unocc",
				"energy": -0.04227,
				"method": "rhf"
			},
			{
				"type": "unocc",
				"energy": -0.01372,
				"method": "rhf"
			},
			{
				"type": "unocc",
				"energy": 0.02982,
				"method": "rhf"
			},
			{
				"type": "unocc",
				"energy": 0.04928,
				"method": "rhf"
			},
			{
				"type": "unocc",
				"energy": 0.10474,
				"method": "rhf"
			}
		],
		"cosmo_sigma_profile": { 
			"-0.025": 0.0,
			"-0.024": 0.0,
			"-0.023": 0.0,
			"-0.022": 0.0,
			"-0.021": 0.0,
			"-0.02": 0.0,
			"-0.019": 0.0,
			"-0.018": 0.0,
			"-0.017": 0.0,
			"-0.016": 0.0,
			"-0.015": 0.0,
			"-0.014": 0.0,
			"-0.013": 0.0,
			"-0.012": 0.0,
			"-0.011": 0.0,
			"-0.01": 0.0,
			"-0.009": 0.0,
			"-0.008": 0.688966146974,
			"-0.007": 6.53044978978,
			"-0.006": 11.102548608,
			"-0.005": 12.5122187195,
			"-0.004": 10.7907691983,
			"-0.003": 10.6181236598,
			"-0.002": 10.4824068042,
			"-0.001": 11.2105609131,
			"0.0": 12.3752092068,
			"0.001": 13.6727132466,
			"0.002": 18.0794622818,
			"0.003": 22.5711804263,
			"0.004": 23.6444578365,
			"0.005": 10.9912993855,
			"0.006": 2.55832335102,
			"0.007": 0.303647819822,
			"0.008": 0.0,
			"0.009": 0.0,
			"0.01": 0.0,
			"0.011": 0.0,
			"0.012": 0.0,
			"0.013": 0.0,
			"0.014": 0.0,
			"0.015": 0.0,
			"0.016": 0.0,
			"0.017": 0.0,
			"0.018": 0.0,
			"0.019": 0.0,
			"0.02": 0.0,
			"0.021": 0.0,
			"0.022": 0.0,
			"0.023": 0.0,
			"0.024": 0.0,
			"0.025": 0.0
		}
	}
}
