{
	 "smiles": "NC1=CC=C(CC(=O)N2CCOCC2)C=C1", 
	 "Tm": 438.15, 
	 "num_atms": 32, 
	 "gaussian": { 
		 "optdone": 1, 
		 "sigma_profile": "yes", 
		 "theory": "DFT", 
		 "functional": "B3LYP", 
		 "basiset": "6-31G**", 
		 "properties": { 
			 "R2extent": 4296.6344, 
			 "electric_dipole_moment_norm": 3.33412278718, 
			 "electric_quadrupole_moment_norm": 16.3953775416, 
			 "total_energy": -726.866976149, 
			 "HOMO_LUMO_gap": 0.19968, 
			 "cosmo_polarized_energy": -17.43, 
			 "cosmo_cavitation_energy": 33.8, 
			 "cosmo_dispersion_energy": -24.24, 
			 "cosmo_repulsion_energy": 1.92, 
			 "cosmo_total_nonelectrostatic_energy": 11.47, 
			 "SMD_solvation_energy": 5.17 
		},
		"coords": [
			{
				"x": 2.204693928,
				"y": 3.6306528447,
				"z": -2.5050128844,
				"element": "N" 
			},
			{
				"x": 1.3968261209,
				"y": 2.9193836527,
				"z": -1.6141269313,
				"element": "C" 
			},
			{
				"x": 0.0506259131,
				"y": 2.6562255476,
				"z": -1.9120409257,
				"element": "C" 
			},
			{
				"x": -0.7616893973,
				"y": 1.9954250068,
				"z": -0.9918916797,
				"element": "C" 
			},
			{
				"x": -0.269614588,
				"y": 1.5760322276,
				"z": 0.249276476,
				"element": "C" 
			},
			{
				"x": -1.1621518887,
				"y": 0.8741404404,
				"z": 1.2619782983,
				"element": "C" 
			},
			{
				"x": -0.5337912604,
				"y": -0.4187062956,
				"z": 1.7861508994,
				"element": "C" 
			},
			{
				"x": 0.177839308,
				"y": -0.4020923066,
				"z": 2.7893942616,
				"element": "O" 
			},
			{
				"x": -0.7753258058,
				"y": -1.572797781,
				"z": 1.0818210049,
				"element": "N" 
			},
			{
				"x": -0.1365459253,
				"y": -2.8150834296,
				"z": 1.5091558756,
				"element": "C" 
			},
			{
				"x": 0.6766318483,
				"y": -3.419107475,
				"z": 0.3605697981,
				"element": "C" 
			},
			{
				"x": -0.0045760896,
				"y": -3.3680304531,
				"z": -0.9004145706,
				"element": "O" 
			},
			{
				"x": -1.3707448621,
				"y": -3.0175234664,
				"z": -0.8014723893,
				"element": "C" 
			},
			{
				"x": -1.5437676727,
				"y": -1.6327873056,
				"z": -0.168037789,
				"element": "C" 
			},
			{
				"x": 1.0762962143,
				"y": 1.8421574214,
				"z": 0.5427261066,
				"element": "C" 
			},
			{
				"x": 1.895885877,
				"y": 2.4995616274,
				"z": -0.367756385,
				"element": "C" 
			},
			{
				"x": 3.1975839183,
				"y": 3.4726156516,
				"z": -2.4001439615,
				"element": "H" 
			},
			{
				"x": 1.9190675993,
				"y": 3.5828082578,
				"z": -3.4734578999,
				"element": "H" 
			},
			{
				"x": -0.360742327,
				"y": 2.9753130687,
				"z": -2.8667807049,
				"element": "H" 
			},
			{
				"x": -1.8030182455,
				"y": 1.8106237656,
				"z": -1.2469868156,
				"element": "H" 
			},
			{
				"x": -2.1507604796,
				"y": 0.7000834521,
				"z": 0.8269522218,
				"element": "H" 
			},
			{
				"x": -1.2991300037,
				"y": 1.5025333986,
				"z": 2.1475748491,
				"element": "H" 
			},
			{
				"x": 0.5103502714,
				"y": -2.5736115009,
				"z": 2.3532699259,
				"element": "H" 
			},
			{
				"x": -0.8954589281,
				"y": -3.5250369272,
				"z": 1.8631122152,
				"element": "H" 
			},
			{
				"x": 0.9279700064,
				"y": -4.4631481437,
				"z": 0.599363114,
				"element": "H" 
			},
			{
				"x": 1.613281556,
				"y": -2.8641645765,
				"z": 0.2341902151,
				"element": "H" 
			},
			{
				"x": -1.7627945775,
				"y": -3.0012723914,
				"z": -1.8222420439,
				"element": "H" 
			},
			{
				"x": -1.9445985531,
				"y": -3.7733870473,
				"z": -0.2424065396,
				"element": "H" 
			},
			{
				"x": -1.175850993,
				"y": -0.8733356421,
				"z": -0.8656140171,
				"element": "H" 
			},
			{
				"x": -2.6139070803,
				"y": -1.4468055313,
				"z": 0.0069317792,
				"element": "H" 
			},
			{
				"x": 1.4814931259,
				"y": 1.5200162329,
				"z": 1.4977912827,
				"element": "H" 
			},
			{
				"x": 2.9348229906,
				"y": 2.6975176774,
				"z": -0.1142727861,
				"element": "H" 
			}
		],
		 "valence_orbital": [ 
			{
				"type": "occ",
				"energy": -0.25449,
				"method": "rhf"
			},
			{
				"type": "occ",
				"energy": -0.24461,
				"method": "rhf"
			},
			{
				"type": "occ",
				"energy": -0.24097,
				"method": "rhf"
			},
			{
				"type": "occ",
				"energy": -0.23299,
				"method": "rhf"
			},
			{
				"type": "occ",
				"energy": -0.19729,
				"method": "rhf"
			},
			{
				"type": "unocc",
				"energy": 0.00239,
				"method": "rhf"
			},
			{
				"type": "unocc",
				"energy": 0.01296,
				"method": "rhf"
			},
			{
				"type": "unocc",
				"energy": 0.035,
				"method": "rhf"
			},
			{
				"type": "unocc",
				"energy": 0.08155,
				"method": "rhf"
			},
			{
				"type": "unocc",
				"energy": 0.08344,
				"method": "rhf"
			}
		],
		"cosmo_sigma_profile": { 
			"-0.025": 0.0,
			"-0.024": 0.0,
			"-0.023": 0.0,
			"-0.022": 0.0,
			"-0.021": 0.0,
			"-0.02": 0.0,
			"-0.019": 0.0,
			"-0.018": 0.0,
			"-0.017": 0.0,
			"-0.016": 0.0,
			"-0.015": 0.0,
			"-0.014": 0.0,
			"-0.013": 0.215762934512,
			"-0.012": 2.24478934091,
			"-0.011": 2.38365890967,
			"-0.01": 2.55823430236,
			"-0.009": 3.34836353952,
			"-0.008": 2.79948105587,
			"-0.007": 3.95053148085,
			"-0.006": 11.2785465238,
			"-0.005": 27.212975566,
			"-0.004": 32.0926751358,
			"-0.003": 25.8769785228,
			"-0.002": 20.1777653746,
			"-0.001": 14.8517086555,
			"0.0": 11.8006874635,
			"0.001": 12.1715528741,
			"0.002": 12.1674763524,
			"0.003": 10.4247269442,
			"0.004": 9.88543369857,
			"0.005": 10.0515649324,
			"0.006": 12.3648764105,
			"0.007": 9.60013145898,
			"0.008": 3.40479212206,
			"0.009": 1.87973123311,
			"0.01": 3.35370185889,
			"0.011": 4.16226751506,
			"0.012": 3.32132341167,
			"0.013": 4.90765728199,
			"0.014": 5.24334341961,
			"0.015": 1.56979825634,
			"0.016": 0.0758905194549,
			"0.017": 0.0,
			"0.018": 0.0,
			"0.019": 0.0,
			"0.02": 0.0,
			"0.021": 0.0,
			"0.022": 0.0,
			"0.023": 0.0,
			"0.024": 0.0,
			"0.025": 0.0
		}
	}
}
