{
	 "smiles": "CCCNC(=O)NCCC", 
	 "Tm": 378.15, 
	 "num_atms": 26, 
	 "gaussian": { 
		 "optdone": 1, 
		 "sigma_profile": "yes", 
		 "theory": "DFT", 
		 "functional": "B3LYP", 
		 "basiset": "6-31G**", 
		 "properties": { 
			 "R2extent": 2335.5857, 
			 "electric_dipole_moment_norm": 3.3930783678, 
			 "electric_quadrupole_moment_norm": 9.37503674126, 
			 "total_energy": -461.148648729, 
			 "HOMO_LUMO_gap": 0.27708, 
			 "cosmo_polarized_energy": -11.0, 
			 "cosmo_cavitation_energy": 28.13, 
			 "cosmo_dispersion_energy": -19.6, 
			 "cosmo_repulsion_energy": 1.66, 
			 "cosmo_total_nonelectrostatic_energy": 10.18, 
			 "SMD_solvation_energy": 4.09 
		},
		"coords": [
			{
				"x": 0.7411676892,
				"y": -3.4428206892,
				"z": 0.0739883057,
				"element": "C" 
			},
			{
				"x": -0.0958876101,
				"y": -2.1936062389,
				"z": 0.3648558295,
				"element": "C" 
			},
			{
				"x": 0.1699213649,
				"y": -1.0640640542,
				"z": -0.6355495279,
				"element": "C" 
			},
			{
				"x": -0.6594091493,
				"y": 0.1187341858,
				"z": -0.3777399473,
				"element": "N" 
			},
			{
				"x": -0.2311206684,
				"y": 1.4292439186,
				"z": -0.5612822878,
				"element": "C" 
			},
			{
				"x": -0.9486994393,
				"y": 2.2757965894,
				"z": -1.0824194244,
				"element": "O" 
			},
			{
				"x": 1.0589557735,
				"y": 1.7265805758,
				"z": -0.1199759248,
				"element": "N" 
			},
			{
				"x": 1.5666714123,
				"y": 1.308242348,
				"z": 1.1923141948,
				"element": "C" 
			},
			{
				"x": 0.9017454421,
				"y": 2.0156716458,
				"z": 2.3820404189,
				"element": "C" 
			},
			{
				"x": 1.4887745455,
				"y": 1.5750534302,
				"z": 3.7266340254,
				"element": "C" 
			},
			{
				"x": 0.533324808,
				"y": -3.8379232661,
				"z": -0.9268963932,
				"element": "H" 
			},
			{
				"x": 1.814055251,
				"y": -3.2247661266,
				"z": 0.1260446975,
				"element": "H" 
			},
			{
				"x": 0.5293310729,
				"y": -4.2384756375,
				"z": 0.7945882224,
				"element": "H" 
			},
			{
				"x": 0.1049724925,
				"y": -1.8269672787,
				"z": 1.3790700958,
				"element": "H" 
			},
			{
				"x": -1.1636347127,
				"y": -2.4482576657,
				"z": 0.3403039937,
				"element": "H" 
			},
			{
				"x": 1.2195085026,
				"y": -0.7626187698,
				"z": -0.6044265477,
				"element": "H" 
			},
			{
				"x": -0.0110988395,
				"y": -1.4320224501,
				"z": -1.6571332186,
				"element": "H" 
			},
			{
				"x": -1.6053772032,
				"y": 0.0406942378,
				"z": -0.731257922,
				"element": "H" 
			},
			{
				"x": 1.2310396009,
				"y": 2.7069168292,
				"z": -0.3135290295,
				"element": "H" 
			},
			{
				"x": 2.647086797,
				"y": 1.4982742453,
				"z": 1.2009504829,
				"element": "H" 
			},
			{
				"x": 1.4435839554,
				"y": 0.2276749603,
				"z": 1.2967595148,
				"element": "H" 
			},
			{
				"x": -0.1752238751,
				"y": 1.8103537028,
				"z": 2.3560866372,
				"element": "H" 
			},
			{
				"x": 1.0147076719,
				"y": 3.1013565721,
				"z": 2.2632180486,
				"element": "H" 
			},
			{
				"x": 1.0029468203,
				"y": 2.0922808522,
				"z": 4.5595454223,
				"element": "H" 
			},
			{
				"x": 2.5622252744,
				"y": 1.7895904055,
				"z": 3.7838754114,
				"element": "H" 
			},
			{
				"x": 1.358033023,
				"y": 0.4982576782,
				"z": 3.8843349225,
				"element": "H" 
			}
		],
		 "valence_orbital": [ 
			{
				"type": "occ",
				"energy": -0.33925,
				"method": "rhf"
			},
			{
				"type": "occ",
				"energy": -0.33587,
				"method": "rhf"
			},
			{
				"type": "occ",
				"energy": -0.26327,
				"method": "rhf"
			},
			{
				"type": "occ",
				"energy": -0.24452,
				"method": "rhf"
			},
			{
				"type": "occ",
				"energy": -0.23067,
				"method": "rhf"
			},
			{
				"type": "unocc",
				"energy": 0.04641,
				"method": "rhf"
			},
			{
				"type": "unocc",
				"energy": 0.07065,
				"method": "rhf"
			},
			{
				"type": "unocc",
				"energy": 0.09179,
				"method": "rhf"
			},
			{
				"type": "unocc",
				"energy": 0.09589,
				"method": "rhf"
			},
			{
				"type": "unocc",
				"energy": 0.11158,
				"method": "rhf"
			}
		],
		"cosmo_sigma_profile": { 
			"-0.025": 0.0,
			"-0.024": 0.0,
			"-0.023": 0.0,
			"-0.022": 0.0,
			"-0.021": 0.0,
			"-0.02": 0.0,
			"-0.019": 0.0,
			"-0.018": 0.0,
			"-0.017": 0.0,
			"-0.016": 0.0,
			"-0.015": 0.0,
			"-0.014": 0.0,
			"-0.013": 0.0779403212158,
			"-0.012": 1.46910608827,
			"-0.011": 1.84357405989,
			"-0.01": 1.75643304558,
			"-0.009": 2.30742869362,
			"-0.008": 1.92835549653,
			"-0.007": 1.74318689999,
			"-0.006": 2.30663642772,
			"-0.005": 4.27365148764,
			"-0.004": 12.4884069982,
			"-0.003": 27.7792699258,
			"-0.002": 30.4772915866,
			"-0.001": 30.9493238497,
			"0.0": 28.8118857185,
			"0.001": 24.9600815058,
			"0.002": 9.1676613012,
			"0.003": 3.55709443438,
			"0.004": 3.78722333168,
			"0.005": 2.61793094882,
			"0.006": 2.64666593802,
			"0.007": 1.79388147994,
			"0.008": 2.47530704871,
			"0.009": 2.15953196889,
			"0.01": 1.53663227379,
			"0.011": 0.831167412063,
			"0.012": 1.6539352715,
			"0.013": 2.29148949585,
			"0.014": 5.4257968364,
			"0.015": 4.15347275459,
			"0.016": 0.0991921200607,
			"0.017": 0.0,
			"0.018": 0.0,
			"0.019": 0.0,
			"0.02": 0.0,
			"0.021": 0.0,
			"0.022": 0.0,
			"0.023": 0.0,
			"0.024": 0.0,
			"0.025": 0.0
		}
	}
}
