{
	 "smiles": "NNC1=CC(=CC=C1Cl)C(F)(F)F", 
	 "Tm": 339.15, 
	 "num_atms": 19, 
	 "gaussian": { 
		 "optdone": 1, 
		 "sigma_profile": "yes", 
		 "theory": "DFT", 
		 "functional": "B3LYP", 
		 "basiset": "6-31G**", 
		 "properties": { 
			 "R2extent": 3298.8022, 
			 "electric_dipole_moment_norm": 1.41082227442, 
			 "electric_quadrupole_moment_norm": 6.15572218184, 
			 "total_energy": -1139.54473515, 
			 "HOMO_LUMO_gap": 0.19126, 
			 "cosmo_polarized_energy": -8.71, 
			 "cosmo_cavitation_energy": 26.29, 
			 "cosmo_dispersion_energy": -18.99, 
			 "cosmo_repulsion_energy": 1.44, 
			 "cosmo_total_nonelectrostatic_energy": 8.74, 
			 "SMD_solvation_energy": 5.66 
		},
		"coords": [
			{
				"x": -3.626527659,
				"y": 1.5774565303,
				"z": 1.1837474927,
				"element": "N" 
			},
			{
				"x": -2.8421662314,
				"y": 1.1790701264,
				"z": 0.0640382372,
				"element": "N" 
			},
			{
				"x": -1.4536397805,
				"y": 1.0270293195,
				"z": 0.1770957919,
				"element": "C" 
			},
			{
				"x": -0.8546386638,
				"y": -0.1741628742,
				"z": -0.2435635906,
				"element": "C" 
			},
			{
				"x": 0.5243832639,
				"y": -0.3561421488,
				"z": -0.2053355619,
				"element": "C" 
			},
			{
				"x": 1.356626815,
				"y": 0.6527928928,
				"z": 0.2848271583,
				"element": "C" 
			},
			{
				"x": 0.7885408743,
				"y": 1.8516137244,
				"z": 0.7050349498,
				"element": "C" 
			},
			{
				"x": -0.590387943,
				"y": 2.0443605713,
				"z": 0.6347091606,
				"element": "C" 
			},
			{
				"x": -1.213403182,
				"y": 3.6292290477,
				"z": 1.0784370743,
				"element": "Cl" 
			},
			{
				"x": 1.1245158982,
				"y": -1.6350108837,
				"z": -0.7252546501,
				"element": "C" 
			},
			{
				"x": 0.2616386214,
				"y": -2.6719203882,
				"z": -0.6373065053,
				"element": "F" 
			},
			{
				"x": 1.4756317899,
				"y": -1.5253160717,
				"z": -2.0270472789,
				"element": "F" 
			},
			{
				"x": 2.2413291143,
				"y": -1.9754099316,
				"z": -0.0454735425,
				"element": "F" 
			},
			{
				"x": -3.6462793529,
				"y": 2.5918975869,
				"z": 1.2130409025,
				"element": "H" 
			},
			{
				"x": -3.1964882357,
				"y": 1.2549959662,
				"z": 2.051284531,
				"element": "H" 
			},
			{
				"x": -3.2745343463,
				"y": 0.3701896507,
				"z": -0.3649494037,
				"element": "H" 
			},
			{
				"x": -1.4917582885,
				"y": -0.9815267875,
				"z": -0.5913836183,
				"element": "H" 
			},
			{
				"x": 2.4289151626,
				"y": 0.5053779961,
				"z": 0.3382747943,
				"element": "H" 
			},
			{
				"x": 1.4133421436,
				"y": 2.6577756734,
				"z": 1.0731240586,
				"element": "H" 
			}
		],
		 "valence_orbital": [ 
			{
				"type": "occ",
				"energy": -0.33089,
				"method": "rhf"
			},
			{
				"type": "occ",
				"energy": -0.31516,
				"method": "rhf"
			},
			{
				"type": "occ",
				"energy": -0.27229,
				"method": "rhf"
			},
			{
				"type": "occ",
				"energy": -0.26726,
				"method": "rhf"
			},
			{
				"type": "occ",
				"energy": -0.22913,
				"method": "rhf"
			},
			{
				"type": "unocc",
				"energy": -0.03787,
				"method": "rhf"
			},
			{
				"type": "unocc",
				"energy": -0.02287,
				"method": "rhf"
			},
			{
				"type": "unocc",
				"energy": 0.01775,
				"method": "rhf"
			},
			{
				"type": "unocc",
				"energy": 0.08362,
				"method": "rhf"
			},
			{
				"type": "unocc",
				"energy": 0.08677,
				"method": "rhf"
			}
		],
		"cosmo_sigma_profile": { 
			"-0.025": 0.0,
			"-0.024": 0.0,
			"-0.023": 0.0,
			"-0.022": 0.0,
			"-0.021": 0.0,
			"-0.02": 0.0,
			"-0.019": 0.0,
			"-0.018": 0.0,
			"-0.017": 0.0,
			"-0.016": 0.0,
			"-0.015": 0.0,
			"-0.014": 0.0243076589081,
			"-0.013": 1.26716687052,
			"-0.012": 1.79200359446,
			"-0.011": 2.13006945691,
			"-0.01": 2.99343016427,
			"-0.009": 2.78825627243,
			"-0.008": 5.56724093964,
			"-0.007": 7.61201541921,
			"-0.006": 8.48874314696,
			"-0.005": 7.74080805789,
			"-0.004": 7.90701965778,
			"-0.003": 8.5165575931,
			"-0.002": 9.70783386587,
			"-0.001": 11.3422499403,
			"0.0": 14.8033198561,
			"0.001": 20.2475045285,
			"0.002": 34.4872372569,
			"0.003": 37.8557326626,
			"0.004": 10.00270301,
			"0.005": 4.5103928194,
			"0.006": 1.85325467669,
			"0.007": 1.31101971881,
			"0.008": 1.75676937946,
			"0.009": 1.14598011411,
			"0.01": 1.40383971834,
			"0.011": 1.04089693086,
			"0.012": 1.10819567515,
			"0.013": 0.514957014933,
			"0.014": 0.728509137887,
			"0.015": 0.395599606368,
			"0.016": 0.775594098635,
			"0.017": 0.220674050008,
			"0.018": 0.0,
			"0.019": 0.0,
			"0.02": 0.0,
			"0.021": 0.0,
			"0.022": 0.0,
			"0.023": 0.0,
			"0.024": 0.0,
			"0.025": 0.0
		}
	}
}
