{
	 "smiles": "[O-][N+](=O)C1=CC=C(C=C1)C(=O)C1=NOC2C1C(=O)N(C2=O)C1=CC(Cl)=CC=C1Cl", 
	 "Tm": 489.15, 
	 "num_atms": 38, 
	 "gaussian": { 
		 "optdone": 1, 
		 "sigma_profile": "yes", 
		 "theory": "DFT", 
		 "functional": "B3LYP", 
		 "basiset": "6-31G**", 
		 "properties": { 
			 "R2extent": 18500.4779, 
			 "electric_dipole_moment_norm": 4.51253164089, 
			 "electric_quadrupole_moment_norm": 27.2961671137, 
			 "total_energy": -2227.1622006, 
			 "HOMO_LUMO_gap": 0.14375, 
			 "cosmo_polarized_energy": -22.97, 
			 "cosmo_cavitation_energy": 49.99, 
			 "cosmo_dispersion_energy": -34.35, 
			 "cosmo_repulsion_energy": 2.58, 
			 "cosmo_total_nonelectrostatic_energy": 18.23, 
			 "SMD_solvation_energy": 11.95 
		},
		"coords": [
			{
				"x": -4.4511659146,
				"y": 5.0995006264,
				"z": -5.2763624212,
				"element": "O" 
			},
			{
				"x": -4.1950036218,
				"y": 4.0185623248,
				"z": -5.8030173612,
				"element": "N" 
			},
			{
				"x": -4.6847894957,
				"y": 3.6122304596,
				"z": -6.8548856059,
				"element": "O" 
			},
			{
				"x": -3.2242099453,
				"y": 3.1402635199,
				"z": -5.1203047004,
				"element": "C" 
			},
			{
				"x": -2.9178494812,
				"y": 1.9049459631,
				"z": -5.6901823248,
				"element": "C" 
			},
			{
				"x": -2.0051561008,
				"y": 1.0856203807,
				"z": -5.0394554731,
				"element": "C" 
			},
			{
				"x": -1.4007707061,
				"y": 1.4970916408,
				"z": -3.8380477636,
				"element": "C" 
			},
			{
				"x": -1.7323937218,
				"y": 2.7453786154,
				"z": -3.2863000133,
				"element": "C" 
			},
			{
				"x": -2.6483618719,
				"y": 3.5740565263,
				"z": -3.9296893665,
				"element": "C" 
			},
			{
				"x": -0.4488184112,
				"y": 0.528021053,
				"z": -3.2081324997,
				"element": "C" 
			},
			{
				"x": -0.3000457158,
				"y": -0.5998367108,
				"z": -3.6608257357,
				"element": "O" 
			},
			{
				"x": 0.3831058912,
				"y": 0.8763989308,
				"z": -2.0160755787,
				"element": "C" 
			},
			{
				"x": 0.694155531,
				"y": 2.0734898946,
				"z": -1.6613961102,
				"element": "N" 
			},
			{
				"x": 1.6096938558,
				"y": 2.0592297774,
				"z": -0.633526949,
				"element": "O" 
			},
			{
				"x": 1.9653395174,
				"y": 0.6766285205,
				"z": -0.305176877,
				"element": "C" 
			},
			{
				"x": 1.0674784719,
				"y": -0.187206803,
				"z": -1.1855584137,
				"element": "C" 
			},
			{
				"x": 0.0925723028,
				"y": -0.882169306,
				"z": -0.2148401612,
				"element": "C" 
			},
			{
				"x": -0.8315210672,
				"y": -1.6018233741,
				"z": -0.4935163503,
				"element": "O" 
			},
			{
				"x": 0.4667145917,
				"y": -0.5056472083,
				"z": 1.0901704188,
				"element": "N" 
			},
			{
				"x": 1.5528566849,
				"y": 0.3824571178,
				"z": 1.1428180695,
				"element": "C" 
			},
			{
				"x": 2.0510831657,
				"y": 0.8325223271,
				"z": 2.1441695522,
				"element": "O" 
			},
			{
				"x": -0.1976034385,
				"y": -0.9878418088,
				"z": 2.2568888583,
				"element": "C" 
			},
			{
				"x": -1.0461602359,
				"y": -0.1296092599,
				"z": 2.9582728862,
				"element": "C" 
			},
			{
				"x": -1.6968473402,
				"y": -0.5883771413,
				"z": 4.1002158317,
				"element": "C" 
			},
			{
				"x": -2.7597968702,
				"y": 0.4919862512,
				"z": 4.9758623006,
				"element": "Cl" 
			},
			{
				"x": -1.515991546,
				"y": -1.8964760806,
				"z": 4.5493810262,
				"element": "C" 
			},
			{
				"x": -0.6652525871,
				"y": -2.7496579975,
				"z": 3.8504007419,
				"element": "C" 
			},
			{
				"x": -0.0002327841,
				"y": -2.2990443732,
				"z": 2.710466377,
				"element": "C" 
			},
			{
				"x": 1.0900054292,
				"y": -3.3776902763,
				"z": 1.8745663024,
				"element": "Cl" 
			},
			{
				"x": -3.3932701062,
				"y": 1.6107709889,
				"z": -6.6172515167,
				"element": "H" 
			},
			{
				"x": -1.7434234683,
				"y": 0.1146042775,
				"z": -5.4439109212,
				"element": "H" 
			},
			{
				"x": -1.2707065209,
				"y": 3.0761642744,
				"z": -2.365366592,
				"element": "H" 
			},
			{
				"x": -2.9209357454,
				"y": 4.540935261,
				"z": -3.5262359426,
				"element": "H" 
			},
			{
				"x": 3.0444695369,
				"y": 0.5700666407,
				"z": -0.4308746081,
				"element": "H" 
			},
			{
				"x": 1.5549118459,
				"y": -0.941088963,
				"z": -1.8071004814,
				"element": "H" 
			},
			{
				"x": -1.1910313767,
				"y": 0.8854925432,
				"z": 2.6084782657,
				"element": "H" 
			},
			{
				"x": -2.0314767066,
				"y": -2.2441469142,
				"z": 5.4373275994,
				"element": "H" 
			},
			{
				"x": -0.5104720445,
				"y": -3.7670016979,
				"z": 4.1909155374,
				"element": "H" 
			}
		],
		 "valence_orbital": [ 
			{
				"type": "occ",
				"energy": -0.29498,
				"method": "rhf"
			},
			{
				"type": "occ",
				"energy": -0.29302,
				"method": "rhf"
			},
			{
				"type": "occ",
				"energy": -0.28981,
				"method": "rhf"
			},
			{
				"type": "occ",
				"energy": -0.27635,
				"method": "rhf"
			},
			{
				"type": "occ",
				"energy": -0.26373,
				"method": "rhf"
			},
			{
				"type": "unocc",
				"energy": -0.11998,
				"method": "rhf"
			},
			{
				"type": "unocc",
				"energy": -0.08459,
				"method": "rhf"
			},
			{
				"type": "unocc",
				"energy": -0.0595,
				"method": "rhf"
			},
			{
				"type": "unocc",
				"energy": -0.05244,
				"method": "rhf"
			},
			{
				"type": "unocc",
				"energy": -0.0438,
				"method": "rhf"
			}
		],
		"cosmo_sigma_profile": { 
			"-0.025": 0.0,
			"-0.024": 0.0,
			"-0.023": 0.0,
			"-0.022": 0.0,
			"-0.021": 0.0,
			"-0.02": 0.0,
			"-0.019": 0.0,
			"-0.018": 0.0,
			"-0.017": 0.0,
			"-0.016": 0.0,
			"-0.015": 0.0,
			"-0.014": 0.00580471499434,
			"-0.013": 0.153538154252,
			"-0.012": 0.379889256058,
			"-0.011": 4.45541616219,
			"-0.01": 9.82775286938,
			"-0.009": 10.123128531,
			"-0.008": 13.3865059596,
			"-0.007": 16.829781078,
			"-0.006": 16.2452543697,
			"-0.005": 16.8530064848,
			"-0.004": 18.8763993975,
			"-0.003": 19.9622212344,
			"-0.002": 26.7885295017,
			"-0.001": 33.6759110718,
			"0.0": 42.5213729938,
			"0.001": 27.922897607,
			"0.002": 20.7344588631,
			"0.003": 23.0068578515,
			"0.004": 21.142950648,
			"0.005": 10.5570088801,
			"0.006": 14.4997798051,
			"0.007": 17.5264708121,
			"0.008": 14.549751191,
			"0.009": 13.3998728681,
			"0.01": 13.4954595325,
			"0.011": 1.70162990138,
			"0.012": 0.0,
			"0.013": 0.0,
			"0.014": 0.0,
			"0.015": 0.0,
			"0.016": 0.0,
			"0.017": 0.0,
			"0.018": 0.0,
			"0.019": 0.0,
			"0.02": 0.0,
			"0.021": 0.0,
			"0.022": 0.0,
			"0.023": 0.0,
			"0.024": 0.0,
			"0.025": 0.0
		}
	}
}
