{
	 "smiles": "CC(C)(C(O)C1=CC(OCC2=CC=CC=C2)=CC=C1)C(O)=O", 
	 "Tm": 399.15, 
	 "num_atms": 42, 
	 "gaussian": { 
		 "optdone": 1, 
		 "sigma_profile": "yes", 
		 "theory": "DFT", 
		 "functional": "B3LYP", 
		 "basiset": "6-31G**", 
		 "properties": { 
			 "R2extent": 7084.4534, 
			 "electric_dipole_moment_norm": 3.5913901626, 
			 "electric_quadrupole_moment_norm": 15.2686725707, 
			 "total_energy": -998.869007421, 
			 "HOMO_LUMO_gap": 0.20336, 
			 "cosmo_polarized_energy": -18.27, 
			 "cosmo_cavitation_energy": 43.57, 
			 "cosmo_dispersion_energy": -28.77, 
			 "cosmo_repulsion_energy": 2.17, 
			 "cosmo_total_nonelectrostatic_energy": 16.97, 
			 "SMD_solvation_energy": 7.9 
		},
		"coords": [
			{
				"x": -0.5703599039,
				"y": 0.9600685466,
				"z": -3.7518010369,
				"element": "C" 
			},
			{
				"x": -1.2721328401,
				"y": 0.2884949472,
				"z": -2.5491231979,
				"element": "C" 
			},
			{
				"x": -2.5748396399,
				"y": -0.3790635486,
				"z": -3.0215355158,
				"element": "C" 
			},
			{
				"x": -0.2970081055,
				"y": -0.7916012787,
				"z": -1.9284000375,
				"element": "C" 
			},
			{
				"x": 0.964078661,
				"y": -0.2360853044,
				"z": -1.6202114409,
				"element": "O" 
			},
			{
				"x": -0.9113004108,
				"y": -1.553228845,
				"z": -0.7541084254,
				"element": "C" 
			},
			{
				"x": -0.9803926543,
				"y": -0.9581512969,
				"z": 0.5144539411,
				"element": "C" 
			},
			{
				"x": -1.5757158902,
				"y": -1.6367262644,
				"z": 1.5814448578,
				"element": "C" 
			},
			{
				"x": -1.7294170126,
				"y": -1.1152385974,
				"z": 2.8358780565,
				"element": "O" 
			},
			{
				"x": -1.4749813717,
				"y": 0.2803692804,
				"z": 3.0406568052,
				"element": "C" 
			},
			{
				"x": -0.0096054805,
				"y": 0.6256004449,
				"z": 3.2129856003,
				"element": "C" 
			},
			{
				"x": 0.5370578118,
				"y": 1.7448023036,
				"z": 2.574578862,
				"element": "C" 
			},
			{
				"x": 1.8745732608,
				"y": 2.092253452,
				"z": 2.7792446921,
				"element": "C" 
			},
			{
				"x": 2.6778652036,
				"y": 1.3190303181,
				"z": 3.6176967974,
				"element": "C" 
			},
			{
				"x": 2.139997923,
				"y": 0.194483412,
				"z": 4.2497056042,
				"element": "C" 
			},
			{
				"x": 0.8035410101,
				"y": -0.1483425027,
				"z": 4.0509500958,
				"element": "C" 
			},
			{
				"x": -2.073209312,
				"y": -2.9358449985,
				"z": 1.3959832773,
				"element": "C" 
			},
			{
				"x": -1.9825272373,
				"y": -3.5322204504,
				"z": 0.1441445019,
				"element": "C" 
			},
			{
				"x": -1.4112811653,
				"y": -2.8456680978,
				"z": -0.9332850331,
				"element": "C" 
			},
			{
				"x": -1.4991993656,
				"y": 1.378740612,
				"z": -1.487638115,
				"element": "C" 
			},
			{
				"x": -2.757862672,
				"y": 1.6833861422,
				"z": -1.1150650924,
				"element": "O" 
			},
			{
				"x": -0.5745322758,
				"y": 1.9801550164,
				"z": -0.9702636037,
				"element": "O" 
			},
			{
				"x": -1.2064832673,
				"y": 1.7324539749,
				"z": -4.19689377,
				"element": "H" 
			},
			{
				"x": 0.3726730946,
				"y": 1.4126661546,
				"z": -3.4470090928,
				"element": "H" 
			},
			{
				"x": -0.3596704768,
				"y": 0.2089890683,
				"z": -4.5199779389,
				"element": "H" 
			},
			{
				"x": -2.3473649038,
				"y": -1.1551571109,
				"z": -3.7584558754,
				"element": "H" 
			},
			{
				"x": -3.1162922712,
				"y": -0.8708061279,
				"z": -2.2066887495,
				"element": "H" 
			},
			{
				"x": -3.2352973837,
				"y": 0.3405347056,
				"z": -3.5211278299,
				"element": "H" 
			},
			{
				"x": -0.1188611871,
				"y": -1.5146301802,
				"z": -2.7350812664,
				"element": "H" 
			},
			{
				"x": 0.8052007883,
				"y": 0.618672186,
				"z": -1.1827251937,
				"element": "H" 
			},
			{
				"x": -0.5381985563,
				"y": 0.01547495,
				"z": 0.6703604295,
				"element": "H" 
			},
			{
				"x": -2.0252250693,
				"y": 0.5117978466,
				"z": 3.9588897933,
				"element": "H" 
			},
			{
				"x": -1.9186184089,
				"y": 0.8693055624,
				"z": 2.2282636473,
				"element": "H" 
			},
			{
				"x": -0.0766919379,
				"y": 2.3350401293,
				"z": 1.8979291418,
				"element": "H" 
			},
			{
				"x": 2.2886115814,
				"y": 2.9603112495,
				"z": 2.2743147542,
				"element": "H" 
			},
			{
				"x": 3.7193806023,
				"y": 1.5855197357,
				"z": 3.7734290601,
				"element": "H" 
			},
			{
				"x": 2.7632830562,
				"y": -0.4149004682,
				"z": 4.8982000665,
				"element": "H" 
			},
			{
				"x": 0.384903271,
				"y": -1.0257487467,
				"z": 4.5356285765,
				"element": "H" 
			},
			{
				"x": -2.5221502711,
				"y": -3.4483473292,
				"z": 2.2404232379,
				"element": "H" 
			},
			{
				"x": -2.3610536901,
				"y": -4.5408197094,
				"z": 0.0032081172,
				"element": "H" 
			},
			{
				"x": -1.3427942531,
				"y": -3.3236271117,
				"z": -1.9069617808,
				"element": "H" 
			},
			{
				"x": -3.3921992503,
				"y": 1.1118579307,
				"z": -1.5703169195,
				"element": "H" 
			}
		],
		 "valence_orbital": [ 
			{
				"type": "occ",
				"energy": -0.26517,
				"method": "rhf"
			},
			{
				"type": "occ",
				"energy": -0.24561,
				"method": "rhf"
			},
			{
				"type": "occ",
				"energy": -0.24474,
				"method": "rhf"
			},
			{
				"type": "occ",
				"energy": -0.23992,
				"method": "rhf"
			},
			{
				"type": "occ",
				"energy": -0.21842,
				"method": "rhf"
			},
			{
				"type": "unocc",
				"energy": -0.01506,
				"method": "rhf"
			},
			{
				"type": "unocc",
				"energy": -0.0047,
				"method": "rhf"
			},
			{
				"type": "unocc",
				"energy": -0.00026,
				"method": "rhf"
			},
			{
				"type": "unocc",
				"energy": 0.00473,
				"method": "rhf"
			},
			{
				"type": "unocc",
				"energy": 0.01448,
				"method": "rhf"
			}
		],
		"cosmo_sigma_profile": { 
			"-0.025": 0.0,
			"-0.024": 0.0,
			"-0.023": 0.0,
			"-0.022": 0.0,
			"-0.021": 0.0,
			"-0.02": 0.0,
			"-0.019": 0.0,
			"-0.018": 0.0783002654134,
			"-0.017": 0.993258290143,
			"-0.016": 0.400772084756,
			"-0.015": 0.735214271693,
			"-0.014": 0.567553547442,
			"-0.013": 1.58186765522,
			"-0.012": 1.39028452036,
			"-0.011": 1.24172852648,
			"-0.01": 1.12159686849,
			"-0.009": 1.17641899884,
			"-0.008": 1.95994353589,
			"-0.007": 2.66770591587,
			"-0.006": 16.2179281345,
			"-0.005": 29.3008035495,
			"-0.004": 31.3704975286,
			"-0.003": 31.1196539835,
			"-0.002": 25.3487849175,
			"-0.001": 26.8341943639,
			"0.0": 23.8663563721,
			"0.001": 18.5329738383,
			"0.002": 18.1062651507,
			"0.003": 22.7058481297,
			"0.004": 21.8834155535,
			"0.005": 20.6554640669,
			"0.006": 13.8805649269,
			"0.007": 5.02589746545,
			"0.008": 5.00847771501,
			"0.009": 5.59786656603,
			"0.01": 5.68453583456,
			"0.011": 3.24407682479,
			"0.012": 1.87082198417,
			"0.013": 1.73878004966,
			"0.014": 1.91842832283,
			"0.015": 0.303368017343,
			"0.016": 0.0,
			"0.017": 0.0,
			"0.018": 0.0,
			"0.019": 0.0,
			"0.02": 0.0,
			"0.021": 0.0,
			"0.022": 0.0,
			"0.023": 0.0,
			"0.024": 0.0,
			"0.025": 0.0
		}
	}
}
