{
	 "smiles": "CC(C)(C)OC(=O)NCCOC1=CC=C(N)C=C1", 
	 "Tm": 347.15, 
	 "num_atms": 38, 
	 "gaussian": { 
		 "optdone": 1, 
		 "sigma_profile": "yes", 
		 "theory": "DFT", 
		 "functional": "B3LYP", 
		 "basiset": "6-31G**", 
		 "properties": { 
			 "R2extent": 9261.6749, 
			 "electric_dipole_moment_norm": 4.7187244696, 
			 "electric_quadrupole_moment_norm": 20.7397816797, 
			 "total_energy": -842.641328336, 
			 "HOMO_LUMO_gap": 0.19773, 
			 "cosmo_polarized_energy": -15.8, 
			 "cosmo_cavitation_energy": 41.11, 
			 "cosmo_dispersion_energy": -28.75, 
			 "cosmo_repulsion_energy": 2.27, 
			 "cosmo_total_nonelectrostatic_energy": 14.63, 
			 "SMD_solvation_energy": 7.48 
		},
		"coords": [
			{
				"x": 4.1649679246,
				"y": 1.9553430284,
				"z": 1.7736530303,
				"element": "C" 
			},
			{
				"x": 3.1134002947,
				"y": 1.6967430177,
				"z": 2.8583149088,
				"element": "C" 
			},
			{
				"x": 2.743956717,
				"y": 2.9723873055,
				"z": 3.6235234667,
				"element": "C" 
			},
			{
				"x": 3.5857626915,
				"y": 0.6045501905,
				"z": 3.8220513437,
				"element": "C" 
			},
			{
				"x": 1.9095961941,
				"y": 1.0996883086,
				"z": 2.2634638846,
				"element": "O" 
			},
			{
				"x": 1.1914156434,
				"y": 1.7721035673,
				"z": 1.328066225,
				"element": "C" 
			},
			{
				"x": 1.4298255859,
				"y": 2.8941081167,
				"z": 0.9085007905,
				"element": "O" 
			},
			{
				"x": 0.1482302903,
				"y": 1.0108908058,
				"z": 0.8779176256,
				"element": "N" 
			},
			{
				"x": -0.3196432347,
				"y": -0.2422508675,
				"z": 1.4446344927,
				"element": "C" 
			},
			{
				"x": -1.0252106374,
				"y": -1.0613849317,
				"z": 0.3761099439,
				"element": "C" 
			},
			{
				"x": -2.1201970979,
				"y": -0.2773339332,
				"z": -0.1084868532,
				"element": "O" 
			},
			{
				"x": -2.8054304253,
				"y": -0.8271272016,
				"z": -1.1824219672,
				"element": "C" 
			},
			{
				"x": -3.9852792498,
				"y": -1.5388923793,
				"z": -0.9619840185,
				"element": "C" 
			},
			{
				"x": -4.7042764069,
				"y": -2.0565386566,
				"z": -2.036961518,
				"element": "C" 
			},
			{
				"x": -4.2533964069,
				"y": -1.8766324992,
				"z": -3.3559694632,
				"element": "C" 
			},
			{
				"x": -5.0047942081,
				"y": -2.3442582467,
				"z": -4.4393300577,
				"element": "N" 
			},
			{
				"x": -3.0634204377,
				"y": -1.1574250717,
				"z": -3.5639243284,
				"element": "C" 
			},
			{
				"x": -2.3479760275,
				"y": -0.6379409359,
				"z": -2.4880024533,
				"element": "C" 
			},
			{
				"x": 5.0975242585,
				"y": 2.2927420395,
				"z": 2.2379217261,
				"element": "H" 
			},
			{
				"x": 3.8215595179,
				"y": 2.7170739667,
				"z": 1.0736121813,
				"element": "H" 
			},
			{
				"x": 4.3748439757,
				"y": 1.0336563826,
				"z": 1.2213190355,
				"element": "H" 
			},
			{
				"x": 3.6231083447,
				"y": 3.3502326122,
				"z": 4.1558393748,
				"element": "H" 
			},
			{
				"x": 1.9651701839,
				"y": 2.7588714591,
				"z": 4.3627458368,
				"element": "H" 
			},
			{
				"x": 2.3833835407,
				"y": 3.7429740517,
				"z": 2.9421342638,
				"element": "H" 
			},
			{
				"x": 4.4911814967,
				"y": 0.9286618196,
				"z": 4.3438123812,
				"element": "H" 
			},
			{
				"x": 3.8107265318,
				"y": -0.318766168,
				"z": 3.2798583746,
				"element": "H" 
			},
			{
				"x": 2.8151215052,
				"y": 0.3879471545,
				"z": 4.5677545309,
				"element": "H" 
			},
			{
				"x": -0.5013101362,
				"y": 1.5079327545,
				"z": 0.2849859772,
				"element": "H" 
			},
			{
				"x": -1.010856638,
				"y": -0.0735194388,
				"z": 2.2834995291,
				"element": "H" 
			},
			{
				"x": 0.5371530107,
				"y": -0.8003998987,
				"z": 1.8262382821,
				"element": "H" 
			},
			{
				"x": -1.3909073162,
				"y": -2.0070743793,
				"z": 0.8017486326,
				"element": "H" 
			},
			{
				"x": -0.3344250157,
				"y": -1.2947139174,
				"z": -0.4457248325,
				"element": "H" 
			},
			{
				"x": -4.3400045606,
				"y": -1.6724981089,
				"z": 0.0554773206,
				"element": "H" 
			},
			{
				"x": -5.6289045062,
				"y": -2.5993430484,
				"z": -1.8563403731,
				"element": "H" 
			},
			{
				"x": -4.4766579163,
				"y": -2.5021922061,
				"z": -5.2867036334,
				"element": "H" 
			},
			{
				"x": -5.6121864759,
				"y": -3.1248552674,
				"z": -4.2303765057,
				"element": "H" 
			},
			{
				"x": -2.7055464759,
				"y": -0.9958738511,
				"z": -4.5778110108,
				"element": "H" 
			},
			{
				"x": -1.4360045341,
				"y": -0.0726855733,
				"z": -2.6563461437,
				"element": "H" 
			}
		],
		 "valence_orbital": [ 
			{
				"type": "occ",
				"energy": -0.27199,
				"method": "rhf"
			},
			{
				"type": "occ",
				"energy": -0.25242,
				"method": "rhf"
			},
			{
				"type": "occ",
				"energy": -0.25027,
				"method": "rhf"
			},
			{
				"type": "occ",
				"energy": -0.24211,
				"method": "rhf"
			},
			{
				"type": "occ",
				"energy": -0.19972,
				"method": "rhf"
			},
			{
				"type": "unocc",
				"energy": -0.00199,
				"method": "rhf"
			},
			{
				"type": "unocc",
				"energy": 0.01858,
				"method": "rhf"
			},
			{
				"type": "unocc",
				"energy": 0.06177,
				"method": "rhf"
			},
			{
				"type": "unocc",
				"energy": 0.07726,
				"method": "rhf"
			},
			{
				"type": "unocc",
				"energy": 0.08823,
				"method": "rhf"
			}
		],
		"cosmo_sigma_profile": { 
			"-0.025": 0.0,
			"-0.024": 0.0,
			"-0.023": 0.0,
			"-0.022": 0.0,
			"-0.021": 0.0,
			"-0.02": 0.0,
			"-0.019": 0.0,
			"-0.018": 0.0,
			"-0.017": 0.0,
			"-0.016": 0.0,
			"-0.015": 0.0,
			"-0.014": 0.0,
			"-0.013": 0.122057736386,
			"-0.012": 2.15661864449,
			"-0.011": 3.41674589333,
			"-0.01": 3.05897828777,
			"-0.009": 3.9384231226,
			"-0.008": 3.67594331578,
			"-0.007": 4.15475505671,
			"-0.006": 7.06935006127,
			"-0.005": 15.9878975265,
			"-0.004": 28.3334441226,
			"-0.003": 34.1599686962,
			"-0.002": 26.6355048831,
			"-0.001": 28.7019362628,
			"0.0": 33.4436567091,
			"0.001": 27.3315394683,
			"0.002": 14.5858823873,
			"0.003": 12.0693152147,
			"0.004": 12.7913394485,
			"0.005": 15.9236665406,
			"0.006": 16.1058240906,
			"0.007": 6.09006545021,
			"0.008": 3.2989727595,
			"0.009": 2.70722472628,
			"0.01": 2.76395871652,
			"0.011": 2.51864319526,
			"0.012": 2.73479689092,
			"0.013": 3.44910952817,
			"0.014": 3.68348304315,
			"0.015": 0.777121612203,
			"0.016": 0.0,
			"0.017": 0.0,
			"0.018": 0.0,
			"0.019": 0.0,
			"0.02": 0.0,
			"0.021": 0.0,
			"0.022": 0.0,
			"0.023": 0.0,
			"0.024": 0.0,
			"0.025": 0.0
		}
	}
}
