{
	 "smiles": "CC(C)(O)C1=CC=C(C=C1)C1=CC=CC=C1", 
	 "Tm": 364.65, 
	 "num_atms": 32, 
	 "gaussian": { 
		 "optdone": 1, 
		 "sigma_profile": "yes", 
		 "theory": "DFT", 
		 "functional": "B3LYP", 
		 "basiset": "6-31G**", 
		 "properties": { 
			 "R2extent": 5646.2226, 
			 "electric_dipole_moment_norm": 1.27570711372, 
			 "electric_quadrupole_moment_norm": 9.43253631268, 
			 "total_energy": -656.477339436, 
			 "HOMO_LUMO_gap": 0.19325, 
			 "cosmo_polarized_energy": -9.24, 
			 "cosmo_cavitation_energy": 34.42, 
			 "cosmo_dispersion_energy": -24.64, 
			 "cosmo_repulsion_energy": 1.9, 
			 "cosmo_total_nonelectrostatic_energy": 11.68, 
			 "SMD_solvation_energy": 5.76 
		},
		"coords": [
			{
				"x": -1.4572210878,
				"y": -4.3317631538,
				"z": -2.106498201,
				"element": "C" 
			},
			{
				"x": -0.951973277,
				"y": -2.9658347631,
				"z": -2.5944163341,
				"element": "C" 
			},
			{
				"x": 0.1687564549,
				"y": -3.1399186284,
				"z": -3.6346799678,
				"element": "C" 
			},
			{
				"x": -2.0863290701,
				"y": -2.3691418615,
				"z": -3.2395877803,
				"element": "O" 
			},
			{
				"x": -0.5038842124,
				"y": -2.1139299296,
				"z": -1.3974266759,
				"element": "C" 
			},
			{
				"x": -1.3715329702,
				"y": -1.1637497898,
				"z": -0.8437166335,
				"element": "C" 
			},
			{
				"x": -0.9956660237,
				"y": -0.3992071356,
				"z": 0.259174716,
				"element": "C" 
			},
			{
				"x": 0.2641585449,
				"y": -0.5558361253,
				"z": 0.8581826089,
				"element": "C" 
			},
			{
				"x": 1.128977181,
				"y": -1.5160395071,
				"z": 0.3069163352,
				"element": "C" 
			},
			{
				"x": 0.7522830987,
				"y": -2.2787748774,
				"z": -0.7959018695,
				"element": "C" 
			},
			{
				"x": 0.6674924958,
				"y": 0.2604409354,
				"z": 2.0311645173,
				"element": "C" 
			},
			{
				"x": 0.2959901221,
				"y": 1.6122271333,
				"z": 2.132961622,
				"element": "C" 
			},
			{
				"x": 0.6727260162,
				"y": 2.3788600683,
				"z": 3.2348308485,
				"element": "C" 
			},
			{
				"x": 1.4321919372,
				"y": 1.8118409355,
				"z": 4.2600257306,
				"element": "C" 
			},
			{
				"x": 1.8099016489,
				"y": 0.4705235787,
				"z": 4.1729477425,
				"element": "C" 
			},
			{
				"x": 1.4309234548,
				"y": -0.2961657138,
				"z": 3.0719028234,
				"element": "C" 
			},
			{
				"x": -0.6645703266,
				"y": -4.8751197156,
				"z": -1.5847894705,
				"element": "H" 
			},
			{
				"x": -2.2957919149,
				"y": -4.1960535889,
				"z": -1.4185211148,
				"element": "H" 
			},
			{
				"x": -1.7980802801,
				"y": -4.9297935115,
				"z": -2.957301909,
				"element": "H" 
			},
			{
				"x": 0.5374952938,
				"y": -2.166271784,
				"z": -3.9772148587,
				"element": "H" 
			},
			{
				"x": 1.0223734684,
				"y": -3.6977875196,
				"z": -3.2398727065,
				"element": "H" 
			},
			{
				"x": -0.2256842742,
				"y": -3.6849915435,
				"z": -4.4968491541,
				"element": "H" 
			},
			{
				"x": -1.8037780523,
				"y": -1.5125179786,
				"z": -3.5892928874,
				"element": "H" 
			},
			{
				"x": -2.3569756712,
				"y": -1.0389762372,
				"z": -1.279530492,
				"element": "H" 
			},
			{
				"x": -1.7019923821,
				"y": 0.3114856467,
				"z": 0.6787988902,
				"element": "H" 
			},
			{
				"x": 2.1205792819,
				"y": -1.6475636706,
				"z": 0.730294597,
				"element": "H" 
			},
			{
				"x": 1.4563465198,
				"y": -3.0050823227,
				"z": -1.1910246205,
				"element": "H" 
			},
			{
				"x": -0.2717744494,
				"y": 2.0706271395,
				"z": 1.3285649729,
				"element": "H" 
			},
			{
				"x": 0.3800447012,
				"y": 3.423834626,
				"z": 3.28799542,
				"element": "H" 
			},
			{
				"x": 1.7265410114,
				"y": 2.4090914439,
				"z": 5.118156362,
				"element": "H" 
			},
			{
				"x": 2.3934151618,
				"y": 0.0163328725,
				"z": 4.9689889371,
				"element": "H" 
			},
			{
				"x": 1.7066575992,
				"y": -1.3457450224,
				"z": 3.0280185519,
				"element": "H" 
			}
		],
		 "valence_orbital": [ 
			{
				"type": "occ",
				"energy": -0.27368,
				"method": "rhf"
			},
			{
				"type": "occ",
				"energy": -0.26607,
				"method": "rhf"
			},
			{
				"type": "occ",
				"energy": -0.2492,
				"method": "rhf"
			},
			{
				"type": "occ",
				"energy": -0.24849,
				"method": "rhf"
			},
			{
				"type": "occ",
				"energy": -0.21934,
				"method": "rhf"
			},
			{
				"type": "unocc",
				"energy": -0.02609,
				"method": "rhf"
			},
			{
				"type": "unocc",
				"energy": -0.00337,
				"method": "rhf"
			},
			{
				"type": "unocc",
				"energy": 0.0011,
				"method": "rhf"
			},
			{
				"type": "unocc",
				"energy": 0.03023,
				"method": "rhf"
			},
			{
				"type": "unocc",
				"energy": 0.07629,
				"method": "rhf"
			}
		],
		"cosmo_sigma_profile": { 
			"-0.025": 0.0,
			"-0.024": 0.0,
			"-0.023": 0.0,
			"-0.022": 0.0,
			"-0.021": 0.0,
			"-0.02": 0.0,
			"-0.019": 0.0,
			"-0.018": 0.0,
			"-0.017": 0.0,
			"-0.016": 0.00873610428047,
			"-0.015": 0.35928684024,
			"-0.014": 0.753808157973,
			"-0.013": 0.914189995533,
			"-0.012": 1.29300835329,
			"-0.011": 0.798784681956,
			"-0.01": 1.31917875944,
			"-0.009": 0.722023265872,
			"-0.008": 1.36746240673,
			"-0.007": 1.03185773048,
			"-0.006": 5.96345699715,
			"-0.005": 19.2228882486,
			"-0.004": 22.5039182105,
			"-0.003": 28.4385831404,
			"-0.002": 22.7214566999,
			"-0.001": 22.1996716906,
			"0.0": 23.5417879629,
			"0.001": 23.5279048508,
			"0.002": 17.5174792393,
			"0.003": 16.6446835943,
			"0.004": 17.290060612,
			"0.005": 18.1473209616,
			"0.006": 15.5650884721,
			"0.007": 1.69609370678,
			"0.008": 1.38642457888,
			"0.009": 0.683949142758,
			"0.01": 1.19963924439,
			"0.011": 0.800113680842,
			"0.012": 1.59151240649,
			"0.013": 1.38857921085,
			"0.014": 1.51173161702,
			"0.015": 0.142757853861,
			"0.016": 0.0,
			"0.017": 0.0,
			"0.018": 0.0,
			"0.019": 0.0,
			"0.02": 0.0,
			"0.021": 0.0,
			"0.022": 0.0,
			"0.023": 0.0,
			"0.024": 0.0,
			"0.025": 0.0
		}
	}
}
