{
	 "smiles": "ClCC1=NN=C(O1)C1=C(Br)C=CC=C1", 
	 "Tm": 379.15, 
	 "num_atms": 20, 
	 "gaussian": { 
		 "optdone": 1, 
		 "sigma_profile": "yes", 
		 "theory": "DFT", 
		 "functional": "B3LYP", 
		 "basiset": "6-31G**", 
		 "properties": { 
			 "R2extent": 5313.0512, 
			 "electric_dipole_moment_norm": 2.92265355456, 
			 "electric_quadrupole_moment_norm": 17.5136873105, 
			 "total_energy": -3562.86345655, 
			 "HOMO_LUMO_gap": 0.18414, 
			 "cosmo_polarized_energy": -11.15, 
			 "cosmo_cavitation_energy": 29.44, 
			 "cosmo_dispersion_energy": -21.8, 
			 "cosmo_repulsion_energy": 1.72, 
			 "cosmo_total_nonelectrostatic_energy": 9.37, 
			 "SMD_solvation_energy": 2.1 
		},
		"coords": [
			{
				"x": -2.7323174302,
				"y": 3.9715550164,
				"z": -2.3446655937,
				"element": "Cl" 
			},
			{
				"x": -2.3850904206,
				"y": 3.7962589805,
				"z": -0.565454757,
				"element": "C" 
			},
			{
				"x": -2.0103822403,
				"y": 2.4130336503,
				"z": -0.2010539484,
				"element": "C" 
			},
			{
				"x": -2.7064401179,
				"y": 1.5527361006,
				"z": 0.4760781698,
				"element": "N" 
			},
			{
				"x": -1.9271308341,
				"y": 0.4114277644,
				"z": 0.5727645232,
				"element": "N" 
			},
			{
				"x": -0.8123774498,
				"y": 0.6617049175,
				"z": -0.0609142298,
				"element": "C" 
			},
			{
				"x": -0.7984032427,
				"y": 1.9219371229,
				"z": -0.5760935582,
				"element": "O" 
			},
			{
				"x": 0.2901708593,
				"y": -0.2803438536,
				"z": -0.2605475776,
				"element": "C" 
			},
			{
				"x": 1.6170637027,
				"y": 0.0448178541,
				"z": -0.5999637758,
				"element": "C" 
			},
			{
				"x": 2.2319401241,
				"y": 1.8393099868,
				"z": -0.8269833637,
				"element": "Br" 
			},
			{
				"x": 2.5756968517,
				"y": -0.9577721992,
				"z": -0.7592393008,
				"element": "C" 
			},
			{
				"x": 2.2335860659,
				"y": -2.2950587297,
				"z": -0.5759557285,
				"element": "C" 
			},
			{
				"x": 0.9259982091,
				"y": -2.6377397607,
				"z": -0.2260204315,
				"element": "C" 
			},
			{
				"x": -0.0284192009,
				"y": -1.6416081201,
				"z": -0.0736709008,
				"element": "C" 
			},
			{
				"x": -1.5833477151,
				"y": 4.4997524817,
				"z": -0.3395432467,
				"element": "H" 
			},
			{
				"x": -3.2922325391,
				"y": 4.0658031079,
				"z": -0.0276940052,
				"element": "H" 
			},
			{
				"x": 3.589794565,
				"y": -0.6791520113,
				"z": -1.0205553308,
				"element": "H" 
			},
			{
				"x": 2.9902025181,
				"y": -3.0629887073,
				"z": -0.7048006236,
				"element": "H" 
			},
			{
				"x": 0.6494665909,
				"y": -3.6767147696,
				"z": -0.0787344254,
				"element": "H" 
			},
			{
				"x": -1.050078296,
				"y": -1.8876588317,
				"z": 0.1930481044,
				"element": "H" 
			}
		],
		 "valence_orbital": [ 
			{
				"type": "occ",
				"energy": -0.30936,
				"method": "rhf"
			},
			{
				"type": "occ",
				"energy": -0.29397,
				"method": "rhf"
			},
			{
				"type": "occ",
				"energy": -0.28817,
				"method": "rhf"
			},
			{
				"type": "occ",
				"energy": -0.26324,
				"method": "rhf"
			},
			{
				"type": "occ",
				"energy": -0.25216,
				"method": "rhf"
			},
			{
				"type": "unocc",
				"energy": -0.06802,
				"method": "rhf"
			},
			{
				"type": "unocc",
				"energy": -0.03037,
				"method": "rhf"
			},
			{
				"type": "unocc",
				"energy": -0.02701,
				"method": "rhf"
			},
			{
				"type": "unocc",
				"energy": -0.00596,
				"method": "rhf"
			},
			{
				"type": "unocc",
				"energy": 0.03419,
				"method": "rhf"
			}
		],
		"cosmo_sigma_profile": { 
			"-0.025": 0.0,
			"-0.024": 0.0,
			"-0.023": 0.0,
			"-0.022": 0.0,
			"-0.021": 0.0,
			"-0.02": 0.0,
			"-0.019": 0.0,
			"-0.018": 0.0,
			"-0.017": 0.0,
			"-0.016": 0.0,
			"-0.015": 0.0,
			"-0.014": 0.0,
			"-0.013": 0.0,
			"-0.012": 0.0,
			"-0.011": 0.107542588927,
			"-0.01": 3.64261179479,
			"-0.009": 3.80469788711,
			"-0.008": 5.75240507594,
			"-0.007": 11.5522346932,
			"-0.006": 13.579764219,
			"-0.005": 12.6497539964,
			"-0.004": 12.2008428291,
			"-0.003": 12.464530598,
			"-0.002": 14.1546637964,
			"-0.001": 16.2677454256,
			"0.0": 17.5597653168,
			"0.001": 23.7908100387,
			"0.002": 23.2071399602,
			"0.003": 20.2509347844,
			"0.004": 16.0908549765,
			"0.005": 13.3106765354,
			"0.006": 4.92125242828,
			"0.007": 1.93113518233,
			"0.008": 2.16175578826,
			"0.009": 3.04469202165,
			"0.01": 2.62005456918,
			"0.011": 2.53145884057,
			"0.012": 2.50517006421,
			"0.013": 2.0632296945,
			"0.014": 0.881564489393,
			"0.015": 0.0258498331436,
			"0.016": 0.0,
			"0.017": 0.0,
			"0.018": 0.0,
			"0.019": 0.0,
			"0.02": 0.0,
			"0.021": 0.0,
			"0.022": 0.0,
			"0.023": 0.0,
			"0.024": 0.0,
			"0.025": 0.0
		}
	}
}
