{
	 "smiles": "CN1N=C(C)C(CC(N)=O)=C1C", 
	 "Tm": 449.15, 
	 "num_atms": 25, 
	 "gaussian": { 
		 "optdone": 1, 
		 "sigma_profile": "yes", 
		 "theory": "DFT", 
		 "functional": "B3LYP", 
		 "basiset": "6-31G**", 
		 "properties": { 
			 "R2extent": 3072.8278, 
			 "electric_dipole_moment_norm": 4.3194012085, 
			 "electric_quadrupole_moment_norm": 18.8787247183, 
			 "total_energy": -552.181033245, 
			 "HOMO_LUMO_gap": 0.23969, 
			 "cosmo_polarized_energy": -16.17, 
			 "cosmo_cavitation_energy": 28.39, 
			 "cosmo_dispersion_energy": -19.74, 
			 "cosmo_repulsion_energy": 1.61, 
			 "cosmo_total_nonelectrostatic_energy": 10.26, 
			 "SMD_solvation_energy": 4.88 
		},
		"coords": [
			{
				"x": 2.1464615333,
				"y": 0.5418439589,
				"z": 0.369473301,
				"element": "C" 
			},
			{
				"x": 1.0988332046,
				"y": -0.1701879813,
				"z": -0.3351258319,
				"element": "N" 
			},
			{
				"x": 0.9271726645,
				"y": -1.4973716312,
				"z": -0.1118419772,
				"element": "N" 
			},
			{
				"x": -0.0831101366,
				"y": -1.855438926,
				"z": -0.9036488653,
				"element": "C" 
			},
			{
				"x": -0.5593472294,
				"y": -3.2764837677,
				"z": -0.9368318624,
				"element": "C" 
			},
			{
				"x": -0.5756550008,
				"y": -0.746132991,
				"z": -1.6492142884,
				"element": "C" 
			},
			{
				"x": -1.6995524761,
				"y": -0.7433294299,
				"z": -2.6423871127,
				"element": "C" 
			},
			{
				"x": -3.1399596797,
				"y": -0.6321656215,
				"z": -2.105375618,
				"element": "C" 
			},
			{
				"x": -3.2736803431,
				"y": -0.6490187842,
				"z": -0.7489328106,
				"element": "N" 
			},
			{
				"x": -4.0916382604,
				"y": -0.5530165732,
				"z": -2.8684738477,
				"element": "O" 
			},
			{
				"x": 0.217799036,
				"y": 0.3259430452,
				"z": -1.2508892768,
				"element": "C" 
			},
			{
				"x": 0.2155439614,
				"y": 1.7627765751,
				"z": -1.6660615334,
				"element": "C" 
			},
			{
				"x": 2.8888016401,
				"y": 0.9472764088,
				"z": -0.3265472935,
				"element": "H" 
			},
			{
				"x": 2.630282425,
				"y": -0.1750925723,
				"z": 1.0316715152,
				"element": "H" 
			},
			{
				"x": 1.735738917,
				"y": 1.3642706295,
				"z": 0.9649121956,
				"element": "H" 
			},
			{
				"x": 0.0214289295,
				"y": -3.8773232105,
				"z": -0.2336590564,
				"element": "H" 
			},
			{
				"x": -0.44748706,
				"y": -3.7144945696,
				"z": -1.9358528249,
				"element": "H" 
			},
			{
				"x": -1.6191306499,
				"y": -3.3533178798,
				"z": -0.6684924516,
				"element": "H" 
			},
			{
				"x": -1.6844757125,
				"y": -1.661401173,
				"z": -3.2419199326,
				"element": "H" 
			},
			{
				"x": -1.5925735999,
				"y": 0.0731610438,
				"z": -3.3641228025,
				"element": "H" 
			},
			{
				"x": -4.1998683359,
				"y": -0.5604187942,
				"z": -0.3608187602,
				"element": "H" 
			},
			{
				"x": -2.4683492294,
				"y": -0.6567775599,
				"z": -0.1434127091,
				"element": "H" 
			},
			{
				"x": -0.0091069766,
				"y": 2.4329204947,
				"z": -0.8271827119,
				"element": "H" 
			},
			{
				"x": -0.5419217511,
				"y": 1.9336394801,
				"z": -2.4339233024,
				"element": "H" 
			},
			{
				"x": 1.1835941301,
				"y": 2.0706398293,
				"z": -2.0791421424,
				"element": "H" 
			}
		],
		 "valence_orbital": [ 
			{
				"type": "occ",
				"energy": -0.28177,
				"method": "rhf"
			},
			{
				"type": "occ",
				"energy": -0.25899,
				"method": "rhf"
			},
			{
				"type": "occ",
				"energy": -0.25386,
				"method": "rhf"
			},
			{
				"type": "occ",
				"energy": -0.23596,
				"method": "rhf"
			},
			{
				"type": "occ",
				"energy": -0.22037,
				"method": "rhf"
			},
			{
				"type": "unocc",
				"energy": 0.01932,
				"method": "rhf"
			},
			{
				"type": "unocc",
				"energy": 0.04083,
				"method": "rhf"
			},
			{
				"type": "unocc",
				"energy": 0.06256,
				"method": "rhf"
			},
			{
				"type": "unocc",
				"energy": 0.07382,
				"method": "rhf"
			},
			{
				"type": "unocc",
				"energy": 0.09096,
				"method": "rhf"
			}
		],
		"cosmo_sigma_profile": { 
			"-0.025": 0.0,
			"-0.024": 0.0,
			"-0.023": 0.0,
			"-0.022": 0.0,
			"-0.021": 0.0,
			"-0.02": 0.0,
			"-0.019": 0.0,
			"-0.018": 0.0,
			"-0.017": 0.0,
			"-0.016": 0.0,
			"-0.015": 0.0,
			"-0.014": 0.434153969619,
			"-0.013": 1.23887976985,
			"-0.012": 1.302053868,
			"-0.011": 2.10702448404,
			"-0.01": 1.74073047746,
			"-0.009": 1.62898391137,
			"-0.008": 1.82004345828,
			"-0.007": 2.15952042922,
			"-0.006": 9.79241179555,
			"-0.005": 19.6412614057,
			"-0.004": 20.9914208362,
			"-0.003": 25.093802211,
			"-0.002": 24.5220451153,
			"-0.001": 22.5236371182,
			"0.0": 15.8970977241,
			"0.001": 9.7587728412,
			"0.002": 6.67291827947,
			"0.003": 6.11010006322,
			"0.004": 7.04759752202,
			"0.005": 5.70995306134,
			"0.006": 4.10571196869,
			"0.007": 2.45571067752,
			"0.008": 3.15763285062,
			"0.009": 3.16676009719,
			"0.01": 2.38414176913,
			"0.011": 2.14816329679,
			"0.012": 2.38154937345,
			"0.013": 3.88589045884,
			"0.014": 6.95297946076,
			"0.015": 4.62778171667,
			"0.016": 1.17167334586,
			"0.017": 0.13730220241,
			"0.018": 0.0,
			"0.019": 0.0,
			"0.02": 0.0,
			"0.021": 0.0,
			"0.022": 0.0,
			"0.023": 0.0,
			"0.024": 0.0,
			"0.025": 0.0
		}
	}
}
