{
	 "smiles": "OC(=O)CC(F)(F)C(O)=O", 
	 "Tm": 414.65, 
	 "num_atms": 14, 
	 "gaussian": { 
		 "optdone": 1, 
		 "sigma_profile": "yes", 
		 "theory": "DFT", 
		 "functional": "B3LYP", 
		 "basiset": "6-31G**", 
		 "properties": { 
			 "R2extent": 1351.9372, 
			 "electric_dipole_moment_norm": 3.76619338059, 
			 "electric_quadrupole_moment_norm": 8.53504192843, 
			 "total_energy": -655.427127626, 
			 "HOMO_LUMO_gap": 0.26847, 
			 "cosmo_polarized_energy": -14.75, 
			 "cosmo_cavitation_energy": 20.09, 
			 "cosmo_dispersion_energy": -14.28, 
			 "cosmo_repulsion_energy": 1.15, 
			 "cosmo_total_nonelectrostatic_energy": 6.96, 
			 "SMD_solvation_energy": 6.65 
		},
		"coords": [
			{
				"x": -1.7793837768,
				"y": 2.220998668,
				"z": 0.4670084122,
				"element": "O" 
			},
			{
				"x": -1.0834765547,
				"y": 1.0710721371,
				"z": 0.3899661205,
				"element": "C" 
			},
			{
				"x": -1.1654371092,
				"y": 0.1808479842,
				"z": 1.207508024,
				"element": "O" 
			},
			{
				"x": -0.2140130295,
				"y": 1.0322773489,
				"z": -0.8473243166,
				"element": "C" 
			},
			{
				"x": 0.7529406663,
				"y": -0.1333853276,
				"z": -0.8183739773,
				"element": "C" 
			},
			{
				"x": 1.5928446371,
				"y": -0.0301460354,
				"z": 0.2740449817,
				"element": "F" 
			},
			{
				"x": 1.5448277471,
				"y": -0.0791207437,
				"z": -1.9288089747,
				"element": "F" 
			},
			{
				"x": 0.0618770338,
				"y": -1.5194263907,
				"z": -0.8088991203,
				"element": "C" 
			},
			{
				"x": 0.5042610541,
				"y": -2.3773399628,
				"z": 0.1144645379,
				"element": "O" 
			},
			{
				"x": -0.7775848271,
				"y": -1.784671295,
				"z": -1.6300473594,
				"element": "O" 
			},
			{
				"x": -2.3315441436,
				"y": 2.160246436,
				"z": 1.2654858458,
				"element": "H" 
			},
			{
				"x": 0.3453787332,
				"y": 1.9658534171,
				"z": -0.9533550222,
				"element": "H" 
			},
			{
				"x": -0.8536811841,
				"y": 0.9217537873,
				"z": -1.7284143704,
				"element": "H" 
			},
			{
				"x": 1.1077907532,
				"y": -1.9068600233,
				"z": 0.7128452189,
				"element": "H" 
			}
		],
		 "valence_orbital": [ 
			{
				"type": "occ",
				"energy": -0.37587,
				"method": "rhf"
			},
			{
				"type": "occ",
				"energy": -0.34461,
				"method": "rhf"
			},
			{
				"type": "occ",
				"energy": -0.32989,
				"method": "rhf"
			},
			{
				"type": "occ",
				"energy": -0.30471,
				"method": "rhf"
			},
			{
				"type": "occ",
				"energy": -0.28797,
				"method": "rhf"
			},
			{
				"type": "unocc",
				"energy": -0.0195,
				"method": "rhf"
			},
			{
				"type": "unocc",
				"energy": -0.01384,
				"method": "rhf"
			},
			{
				"type": "unocc",
				"energy": 0.05948,
				"method": "rhf"
			},
			{
				"type": "unocc",
				"energy": 0.07354,
				"method": "rhf"
			},
			{
				"type": "unocc",
				"energy": 0.10499,
				"method": "rhf"
			}
		],
		"cosmo_sigma_profile": { 
			"-0.025": 0.0,
			"-0.024": 0.0,
			"-0.023": 0.0,
			"-0.022": 0.0,
			"-0.021": 0.0,
			"-0.02": 0.0,
			"-0.019": 0.575312796234,
			"-0.018": 1.53586220731,
			"-0.017": 1.52313176835,
			"-0.016": 1.09598259485,
			"-0.015": 0.809036096919,
			"-0.014": 1.81840658424,
			"-0.013": 2.18226671168,
			"-0.012": 1.31371097199,
			"-0.011": 1.69580368345,
			"-0.01": 2.21102300399,
			"-0.009": 5.61298946867,
			"-0.008": 5.57179031712,
			"-0.007": 5.11274964668,
			"-0.006": 6.01471415093,
			"-0.005": 5.73714957004,
			"-0.004": 5.7264119077,
			"-0.003": 6.27523682225,
			"-0.002": 6.37753065417,
			"-0.001": 5.44314243882,
			"0.0": 5.98322451494,
			"0.001": 7.79716439769,
			"0.002": 12.7332644308,
			"0.003": 16.7238988286,
			"0.004": 5.58352910835,
			"0.005": 5.97194860652,
			"0.006": 6.17862693689,
			"0.007": 6.40145427619,
			"0.008": 7.37784641748,
			"0.009": 5.4554841692,
			"0.01": 7.94206667139,
			"0.011": 4.2199602583,
			"0.012": 0.453340183332,
			"0.013": 0.0,
			"0.014": 0.0,
			"0.015": 0.0,
			"0.016": 0.0,
			"0.017": 0.0,
			"0.018": 0.0,
			"0.019": 0.0,
			"0.02": 0.0,
			"0.021": 0.0,
			"0.022": 0.0,
			"0.023": 0.0,
			"0.024": 0.0,
			"0.025": 0.0
		}
	}
}
