{
	 "smiles": "OC(=O)C1=C(C=CN=C1F)C(F)(F)F", 
	 "Tm": 365.15, 
	 "num_atms": 17, 
	 "gaussian": { 
		 "optdone": 1, 
		 "sigma_profile": "yes", 
		 "theory": "DFT", 
		 "functional": "B3LYP", 
		 "basiset": "6-31G**", 
		 "properties": { 
			 "R2extent": 2743.3532, 
			 "electric_dipole_moment_norm": 4.35985774653, 
			 "electric_quadrupole_moment_norm": 7.02850694885, 
			 "total_energy": -873.107599167, 
			 "HOMO_LUMO_gap": 0.19471, 
			 "cosmo_polarized_energy": -13.06, 
			 "cosmo_cavitation_energy": 23.6, 
			 "cosmo_dispersion_energy": -17.24, 
			 "cosmo_repulsion_energy": 1.26, 
			 "cosmo_total_nonelectrostatic_energy": 7.62, 
			 "SMD_solvation_energy": 5.15 
		},
		"coords": [
			{
				"x": 2.761649726,
				"y": 0.54867875,
				"z": 0.1929510346,
				"element": "O" 
			},
			{
				"x": 1.5430774417,
				"y": 0.0559725572,
				"z": -0.1002787089,
				"element": "C" 
			},
			{
				"x": 1.3781141921,
				"y": -1.1262113212,
				"z": -0.2651967896,
				"element": "O" 
			},
			{
				"x": 0.4027417583,
				"y": 1.0487881877,
				"z": -0.2158741187,
				"element": "C" 
			},
			{
				"x": -0.7309156202,
				"y": 0.8157361902,
				"z": -1.0226464555,
				"element": "C" 
			},
			{
				"x": -1.7843984472,
				"y": 1.7311965587,
				"z": -0.9960265676,
				"element": "C" 
			},
			{
				"x": -1.6955067642,
				"y": 2.846942939,
				"z": -0.1682831202,
				"element": "C" 
			},
			{
				"x": -0.6246651017,
				"y": 3.1026380346,
				"z": 0.5908814512,
				"element": "N" 
			},
			{
				"x": 0.3529938079,
				"y": 2.2331186778,
				"z": 0.5361929223,
				"element": "C" 
			},
			{
				"x": 1.4291114328,
				"y": 2.5489524209,
				"z": 1.300605117,
				"element": "F" 
			},
			{
				"x": -0.8605403545,
				"y": -0.3796818673,
				"z": -1.9639212044,
				"element": "C" 
			},
			{
				"x": -1.8677103306,
				"y": -0.162532953,
				"z": -2.8458990854,
				"element": "F" 
			},
			{
				"x": -1.1565095216,
				"y": -1.506922475,
				"z": -1.3063346626,
				"element": "F" 
			},
			{
				"x": 0.2535239578,
				"y": -0.5655897154,
				"z": -2.6881259856,
				"element": "F" 
			},
			{
				"x": 2.7142192929,
				"y": 1.4881219094,
				"z": 0.4252542452,
				"element": "H" 
			},
			{
				"x": -2.6557771742,
				"y": 1.5785237374,
				"z": -1.6185501206,
				"element": "H" 
			},
			{
				"x": -2.5052082953,
				"y": 3.5701683689,
				"z": -0.1191479512,
				"element": "H" 
			}
		],
		 "valence_orbital": [ 
			{
				"type": "occ",
				"energy": -0.33796,
				"method": "rhf"
			},
			{
				"type": "occ",
				"energy": -0.32647,
				"method": "rhf"
			},
			{
				"type": "occ",
				"energy": -0.32312,
				"method": "rhf"
			},
			{
				"type": "occ",
				"energy": -0.3015,
				"method": "rhf"
			},
			{
				"type": "occ",
				"energy": -0.2868,
				"method": "rhf"
			},
			{
				"type": "unocc",
				"energy": -0.09209,
				"method": "rhf"
			},
			{
				"type": "unocc",
				"energy": -0.05733,
				"method": "rhf"
			},
			{
				"type": "unocc",
				"energy": 0.01498,
				"method": "rhf"
			},
			{
				"type": "unocc",
				"energy": 0.07132,
				"method": "rhf"
			},
			{
				"type": "unocc",
				"energy": 0.08979,
				"method": "rhf"
			}
		],
		"cosmo_sigma_profile": { 
			"-0.025": 0.0,
			"-0.024": 0.0,
			"-0.023": 0.0,
			"-0.022": 0.0,
			"-0.021": 0.0,
			"-0.02": 0.0,
			"-0.019": 0.0,
			"-0.018": 0.0,
			"-0.017": 0.0,
			"-0.016": 0.764712534153,
			"-0.015": 1.25306851166,
			"-0.014": 0.930782791613,
			"-0.013": 0.768245917254,
			"-0.012": 0.906124354214,
			"-0.011": 0.877666461886,
			"-0.01": 1.4853589213,
			"-0.009": 4.74867348791,
			"-0.008": 6.40997871027,
			"-0.007": 5.64711576189,
			"-0.006": 7.06315574138,
			"-0.005": 10.7348545692,
			"-0.004": 11.1564523138,
			"-0.003": 12.171930691,
			"-0.002": 13.2479491167,
			"-0.001": 10.2721318041,
			"0.0": 8.89341027005,
			"0.001": 12.8922117448,
			"0.002": 26.5448854107,
			"0.003": 11.2574189947,
			"0.004": 6.60185853871,
			"0.005": 3.88504869091,
			"0.006": 4.032866011,
			"0.007": 4.7304456139,
			"0.008": 5.41040434538,
			"0.009": 5.88031049097,
			"0.01": 6.44319704697,
			"0.011": 3.96435715475,
			"0.012": 2.19331075555,
			"0.013": 0.0916882052254,
			"0.014": 0.0,
			"0.015": 0.0,
			"0.016": 0.0,
			"0.017": 0.0,
			"0.018": 0.0,
			"0.019": 0.0,
			"0.02": 0.0,
			"0.021": 0.0,
			"0.022": 0.0,
			"0.023": 0.0,
			"0.024": 0.0,
			"0.025": 0.0
		}
	}
}
