{
	 "smiles": "NC1=C(Br)C=C(F)C(Cl)=C1Br", 
	 "Tm": 371.15, 
	 "num_atms": 14, 
	 "gaussian": { 
		 "optdone": 1, 
		 "sigma_profile": "yes", 
		 "theory": "DFT", 
		 "functional": "B3LYP", 
		 "basiset": "6-31G**", 
		 "properties": { 
			 "R2extent": 4363.4456, 
			 "electric_dipole_moment_norm": 2.52092046086, 
			 "electric_quadrupole_moment_norm": 5.58233165622, 
			 "total_energy": -5988.02552028, 
			 "HOMO_LUMO_gap": 0.18296, 
			 "cosmo_polarized_energy": -5.98, 
			 "cosmo_cavitation_energy": 24.73, 
			 "cosmo_dispersion_energy": -19.51, 
			 "cosmo_repulsion_energy": 1.53, 
			 "cosmo_total_nonelectrostatic_energy": 6.76, 
			 "SMD_solvation_energy": 2.27 
		},
		"coords": [
			{
				"x": 1.4567214652,
				"y": -0.8378419285,
				"z": -1.8562918669,
				"element": "N" 
			},
			{
				"x": 0.8254220768,
				"y": -0.4453936121,
				"z": -0.6992788509,
				"element": "C" 
			},
			{
				"x": -0.2999969549,
				"y": 0.4054506542,
				"z": -0.7168260459,
				"element": "C" 
			},
			{
				"x": -1.0186399285,
				"y": 0.964395811,
				"z": -2.3977282352,
				"element": "Br" 
			},
			{
				"x": -0.9139287182,
				"y": 0.8555602914,
				"z": 0.4441542714,
				"element": "C" 
			},
			{
				"x": -0.4146944855,
				"y": 0.4568687931,
				"z": 1.6738002654,
				"element": "C" 
			},
			{
				"x": -1.0074340091,
				"y": 0.8940633768,
				"z": 2.7965090609,
				"element": "F" 
			},
			{
				"x": 0.6905179887,
				"y": -0.3918773165,
				"z": 1.7576037262,
				"element": "C" 
			},
			{
				"x": 1.2564275349,
				"y": -0.8581764522,
				"z": 3.3309735637,
				"element": "Cl" 
			},
			{
				"x": 1.2969736568,
				"y": -0.8364552018,
				"z": 0.5769689542,
				"element": "C" 
			},
			{
				"x": 2.7997088907,
				"y": -2.0039184956,
				"z": 0.6590435363,
				"element": "Br" 
			},
			{
				"x": 0.9197299613,
				"y": -0.7567952114,
				"z": -2.7071216082,
				"element": "H" 
			},
			{
				"x": 2.0582620758,
				"y": -1.6454088451,
				"z": -1.7901830882,
				"element": "H" 
			},
			{
				"x": -1.775769554,
				"y": 1.5098281367,
				"z": 0.4055763172,
				"element": "H" 
			}
		],
		 "valence_orbital": [ 
			{
				"type": "occ",
				"energy": -0.31092,
				"method": "rhf"
			},
			{
				"type": "occ",
				"energy": -0.30512,
				"method": "rhf"
			},
			{
				"type": "occ",
				"energy": -0.30017,
				"method": "rhf"
			},
			{
				"type": "occ",
				"energy": -0.25366,
				"method": "rhf"
			},
			{
				"type": "occ",
				"energy": -0.22124,
				"method": "rhf"
			},
			{
				"type": "unocc",
				"energy": -0.03828,
				"method": "rhf"
			},
			{
				"type": "unocc",
				"energy": -0.03716,
				"method": "rhf"
			},
			{
				"type": "unocc",
				"energy": -0.00817,
				"method": "rhf"
			},
			{
				"type": "unocc",
				"energy": 0.00609,
				"method": "rhf"
			},
			{
				"type": "unocc",
				"energy": 0.04525,
				"method": "rhf"
			}
		],
		"cosmo_sigma_profile": { 
			"-0.025": 0.0,
			"-0.024": 0.0,
			"-0.023": 0.0,
			"-0.022": 0.0,
			"-0.021": 0.0,
			"-0.02": 0.0,
			"-0.019": 0.0,
			"-0.018": 0.0,
			"-0.017": 0.0,
			"-0.016": 0.0,
			"-0.015": 0.0,
			"-0.014": 0.0,
			"-0.013": 0.407498155345,
			"-0.012": 1.37944623147,
			"-0.011": 1.86659563496,
			"-0.01": 2.2729779518,
			"-0.009": 3.39521680148,
			"-0.008": 2.93092457366,
			"-0.007": 3.4762677948,
			"-0.006": 4.28568025056,
			"-0.005": 6.49696181724,
			"-0.004": 6.8657756092,
			"-0.003": 9.15672610586,
			"-0.002": 10.8923607976,
			"-0.001": 19.692558712,
			"0.0": 30.2239332473,
			"0.001": 23.253044904,
			"0.002": 21.1365987988,
			"0.003": 28.7194549695,
			"0.004": 24.3952441044,
			"0.005": 3.37308509608,
			"0.006": 0.756728032376,
			"0.007": 0.499383698826,
			"0.008": 0.652378458719,
			"0.009": 0.905918792292,
			"0.01": 0.295341401184,
			"0.011": 0.447113539949,
			"0.012": 0.0251554256453,
			"0.013": 0.0,
			"0.014": 0.0,
			"0.015": 0.0,
			"0.016": 0.0,
			"0.017": 0.0,
			"0.018": 0.0,
			"0.019": 0.0,
			"0.02": 0.0,
			"0.021": 0.0,
			"0.022": 0.0,
			"0.023": 0.0,
			"0.024": 0.0,
			"0.025": 0.0
		}
	}
}
