{
	 "smiles": "ClC1=CC=C(NC(=O)NC2=CC=C(Cl)C(Cl)=C2)C=C1", 
	 "Tm": 529.15, 
	 "num_atms": 28, 
	 "gaussian": { 
		 "optdone": 1, 
		 "sigma_profile": "yes", 
		 "theory": "DFT", 
		 "functional": "B3LYP", 
		 "basiset": "6-31G**", 
		 "properties": { 
			 "R2extent": 12033.6766, 
			 "electric_dipole_moment_norm": 2.30711810924, 
			 "electric_quadrupole_moment_norm": 21.4980136343, 
			 "total_energy": -2066.1364896, 
			 "HOMO_LUMO_gap": 0.17819, 
			 "cosmo_polarized_energy": -15.87, 
			 "cosmo_cavitation_energy": 38.76, 
			 "cosmo_dispersion_energy": -28.41, 
			 "cosmo_repulsion_energy": 2.18, 
			 "cosmo_total_nonelectrostatic_energy": 12.53, 
			 "SMD_solvation_energy": 6.34 
		},
		"coords": [
			{
				"x": -1.7083976358,
				"y": -5.100827364,
				"z": -5.490566975,
				"element": "Cl" 
			},
			{
				"x": -1.2972143367,
				"y": -4.0007213009,
				"z": -4.1816032169,
				"element": "C" 
			},
			{
				"x": -1.0651871773,
				"y": -4.5006707723,
				"z": -2.9020180397,
				"element": "C" 
			},
			{
				"x": -0.73954998,
				"y": -3.636964903,
				"z": -1.8571271246,
				"element": "C" 
			},
			{
				"x": -0.6444386519,
				"y": -2.2577051963,
				"z": -2.0973683359,
				"element": "C" 
			},
			{
				"x": -0.303175427,
				"y": -1.3131259989,
				"z": -1.1071574306,
				"element": "N" 
			},
			{
				"x": -0.1181663066,
				"y": -1.5365196713,
				"z": 0.240578949,
				"element": "C" 
			},
			{
				"x": -0.2629410797,
				"y": -2.6122188805,
				"z": 0.8037211382,
				"element": "O" 
			},
			{
				"x": 0.2358915657,
				"y": -0.4070552626,
				"z": 0.9854113389,
				"element": "N" 
			},
			{
				"x": 0.6020678305,
				"y": 0.891175689,
				"z": 0.5851946694,
				"element": "C" 
			},
			{
				"x": 1.4441259127,
				"y": 1.1305393956,
				"z": -0.5136527715,
				"element": "C" 
			},
			{
				"x": 1.7928763081,
				"y": 2.4339876198,
				"z": -0.8546487726,
				"element": "C" 
			},
			{
				"x": 1.3450321549,
				"y": 3.5195821835,
				"z": -0.0999216645,
				"element": "C" 
			},
			{
				"x": 1.8262440538,
				"y": 5.131503106,
				"z": -0.5602541836,
				"element": "Cl" 
			},
			{
				"x": 0.5277685334,
				"y": 3.2821024363,
				"z": 1.0147527656,
				"element": "C" 
			},
			{
				"x": -0.061063904,
				"y": 4.5917107921,
				"z": 2.0054975548,
				"element": "Cl" 
			},
			{
				"x": 0.1508399868,
				"y": 1.9809685064,
				"z": 1.3428489172,
				"element": "C" 
			},
			{
				"x": -0.8820155143,
				"y": -1.769295912,
				"z": -3.3918974912,
				"element": "C" 
			},
			{
				"x": -1.2079892175,
				"y": -2.6326723469,
				"z": -4.4331593847,
				"element": "C" 
			},
			{
				"x": -1.1395531669,
				"y": -5.566435763,
				"z": -2.7156423572,
				"element": "H" 
			},
			{
				"x": -0.5675931028,
				"y": -4.0178810302,
				"z": -0.8607332132,
				"element": "H" 
			},
			{
				"x": -0.295186052,
				"y": -0.3510619599,
				"z": -1.41476405,
				"element": "H" 
			},
			{
				"x": 0.1502269418,
				"y": -0.5872033282,
				"z": 1.9761522268,
				"element": "H" 
			},
			{
				"x": 1.8549938665,
				"y": 0.3009661652,
				"z": -1.0780188464,
				"element": "H" 
			},
			{
				"x": 2.4448078244,
				"y": 2.6174539554,
				"z": -1.7015350569,
				"element": "H" 
			},
			{
				"x": -0.5054721145,
				"y": 1.8185520358,
				"z": 2.1908507864,
				"element": "H" 
			},
			{
				"x": -0.8133949636,
				"y": -0.7020458879,
				"z": -3.5897426638,
				"element": "H" 
			},
			{
				"x": -1.391036348,
				"y": -2.2459363074,
				"z": -5.429396768,
				"element": "H" 
			}
		],
		 "valence_orbital": [ 
			{
				"type": "occ",
				"energy": -0.28123,
				"method": "rhf"
			},
			{
				"type": "occ",
				"energy": -0.27725,
				"method": "rhf"
			},
			{
				"type": "occ",
				"energy": -0.26645,
				"method": "rhf"
			},
			{
				"type": "occ",
				"energy": -0.24711,
				"method": "rhf"
			},
			{
				"type": "occ",
				"energy": -0.22355,
				"method": "rhf"
			},
			{
				"type": "unocc",
				"energy": -0.04536,
				"method": "rhf"
			},
			{
				"type": "unocc",
				"energy": -0.04328,
				"method": "rhf"
			},
			{
				"type": "unocc",
				"energy": -0.01672,
				"method": "rhf"
			},
			{
				"type": "unocc",
				"energy": -0.01281,
				"method": "rhf"
			},
			{
				"type": "unocc",
				"energy": -0.01046,
				"method": "rhf"
			}
		],
		"cosmo_sigma_profile": { 
			"-0.025": 0.0,
			"-0.024": 0.0,
			"-0.023": 0.0,
			"-0.022": 0.0,
			"-0.021": 0.0,
			"-0.02": 0.0,
			"-0.019": 0.0,
			"-0.018": 0.0,
			"-0.017": 0.0,
			"-0.016": 0.120131362326,
			"-0.015": 0.964031838587,
			"-0.014": 1.76432616242,
			"-0.013": 1.8166519567,
			"-0.012": 2.18997063096,
			"-0.011": 3.03641453462,
			"-0.01": 3.00328025624,
			"-0.009": 4.06191946788,
			"-0.008": 7.00561516501,
			"-0.007": 11.3770331598,
			"-0.006": 12.0623615324,
			"-0.005": 11.5055848597,
			"-0.004": 11.2460804698,
			"-0.003": 12.9888399859,
			"-0.002": 16.5010811997,
			"-0.001": 20.4059185696,
			"0.0": 29.9316919082,
			"0.001": 35.7539042064,
			"0.002": 31.7124272113,
			"0.003": 32.4803439072,
			"0.004": 36.676157801,
			"0.005": 15.0557667551,
			"0.006": 2.72294401495,
			"0.007": 2.00410226553,
			"0.008": 1.02026384508,
			"0.009": 1.27522362789,
			"0.01": 1.44974760343,
			"0.011": 1.87166239687,
			"0.012": 2.92190492262,
			"0.013": 3.1670620709,
			"0.014": 0.595719656985,
			"0.015": 0.0,
			"0.016": 0.0,
			"0.017": 0.0,
			"0.018": 0.0,
			"0.019": 0.0,
			"0.02": 0.0,
			"0.021": 0.0,
			"0.022": 0.0,
			"0.023": 0.0,
			"0.024": 0.0,
			"0.025": 0.0
		}
	}
}
