{
	 "smiles": "ClC1=CC=C(C=C1)C1=C(C(=NO1)C(=O)C1=CC=C2C=CC=CC2=C1)S(=O)(=O)C1=CC=CC=C1", 
	 "Tm": 438.15, 
	 "num_atms": 49, 
	 "gaussian": { 
		 "optdone": 1, 
		 "sigma_profile": "yes", 
		 "theory": "DFT", 
		 "functional": "B3LYP", 
		 "basiset": "6-31G**", 
		 "properties": { 
			 "R2extent": 21290.0066, 
			 "electric_dipole_moment_norm": 1.5757315317, 
			 "electric_quadrupole_moment_norm": 33.8640787399, 
			 "total_energy": -2214.32184389, 
			 "HOMO_LUMO_gap": 0.14659, 
			 "cosmo_polarized_energy": -17.96, 
			 "cosmo_cavitation_energy": 57.64, 
			 "cosmo_dispersion_energy": -39.91, 
			 "cosmo_repulsion_energy": 2.91, 
			 "cosmo_total_nonelectrostatic_energy": 20.64, 
			 "SMD_solvation_energy": 8.47 
		},
		"coords": [
			{
				"x": 2.9564190416,
				"y": 7.9753014045,
				"z": -0.310414125,
				"element": "Cl" 
			},
			{
				"x": 2.1544050185,
				"y": 6.4327724241,
				"z": -0.0851017234,
				"element": "C" 
			},
			{
				"x": 2.0276291515,
				"y": 5.559397496,
				"z": -1.1646219258,
				"element": "C" 
			},
			{
				"x": 1.3936896588,
				"y": 4.3319658674,
				"z": -0.9863717683,
				"element": "C" 
			},
			{
				"x": 0.8861649218,
				"y": 3.9728821556,
				"z": 0.2733648479,
				"element": "C" 
			},
			{
				"x": 1.015184832,
				"y": 4.8755925362,
				"z": 1.3466131647,
				"element": "C" 
			},
			{
				"x": 1.6496774063,
				"y": 6.1001638719,
				"z": 1.1732341845,
				"element": "C" 
			},
			{
				"x": 0.1917071668,
				"y": 2.7031346212,
				"z": 0.514112134,
				"element": "C" 
			},
			{
				"x": 0.2453477223,
				"y": 1.4029749461,
				"z": 0.0454534853,
				"element": "C" 
			},
			{
				"x": -0.7241881557,
				"y": 0.7005020919,
				"z": 0.8332384818,
				"element": "C" 
			},
			{
				"x": -1.3219065153,
				"y": 1.4985680529,
				"z": 1.6838072343,
				"element": "N" 
			},
			{
				"x": -0.744584766,
				"y": 2.7553308626,
				"z": 1.4876373863,
				"element": "O" 
			},
			{
				"x": -1.0223350227,
				"y": -0.7875641252,
				"z": 0.9081300765,
				"element": "C" 
			},
			{
				"x": -0.1429863318,
				"y": -1.5181047434,
				"z": 1.3405541461,
				"element": "O" 
			},
			{
				"x": -2.3617133482,
				"y": -1.2769954236,
				"z": 0.5104016723,
				"element": "C" 
			},
			{
				"x": -3.3799527664,
				"y": -0.4105510167,
				"z": 0.0209990128,
				"element": "C" 
			},
			{
				"x": -4.6030353747,
				"y": -0.9177190227,
				"z": -0.3451975135,
				"element": "C" 
			},
			{
				"x": -4.8809294614,
				"y": -2.3084336867,
				"z": -0.2475725463,
				"element": "C" 
			},
			{
				"x": -6.1347632378,
				"y": -2.8616766429,
				"z": -0.6187878092,
				"element": "C" 
			},
			{
				"x": -6.3653234488,
				"y": -4.2150784659,
				"z": -0.5105994908,
				"element": "C" 
			},
			{
				"x": -5.3537403587,
				"y": -5.0828059346,
				"z": -0.0262279135,
				"element": "C" 
			},
			{
				"x": -4.1279008507,
				"y": -4.5794825039,
				"z": 0.3419387878,
				"element": "C" 
			},
			{
				"x": -3.8566285971,
				"y": -3.1858498986,
				"z": 0.243362513,
				"element": "C" 
			},
			{
				"x": -2.6080280283,
				"y": -2.6382064758,
				"z": 0.6132425496,
				"element": "C" 
			},
			{
				"x": 1.2358472639,
				"y": 0.6370500998,
				"z": -1.2292016036,
				"element": "S" 
			},
			{
				"x": 1.432252261,
				"y": 1.6051682753,
				"z": -2.3214810723,
				"element": "O" 
			},
			{
				"x": 0.5894774821,
				"y": -0.6532696296,
				"z": -1.4950660549,
				"element": "O" 
			},
			{
				"x": 2.833179848,
				"y": 0.3569343991,
				"z": -0.4565446787,
				"element": "C" 
			},
			{
				"x": 3.9334857361,
				"y": 1.0873901629,
				"z": -0.9082685613,
				"element": "C" 
			},
			{
				"x": 5.1803432827,
				"y": 0.8509866071,
				"z": -0.3274347669,
				"element": "C" 
			},
			{
				"x": 5.3102270593,
				"y": -0.0987764454,
				"z": 0.6876566532,
				"element": "C" 
			},
			{
				"x": 4.1968822513,
				"y": -0.8210260831,
				"z": 1.1272710467,
				"element": "C" 
			},
			{
				"x": 2.9444450206,
				"y": -0.6022177908,
				"z": 0.5549112651,
				"element": "C" 
			},
			{
				"x": 2.4134968088,
				"y": 5.8391899629,
				"z": -2.138420837,
				"element": "H" 
			},
			{
				"x": 1.2843692803,
				"y": 3.6558735363,
				"z": -1.8247768193,
				"element": "H" 
			},
			{
				"x": 0.6217623435,
				"y": 4.6106233879,
				"z": 2.3214773986,
				"element": "H" 
			},
			{
				"x": 1.7551447434,
				"y": 6.7898817752,
				"z": 2.0029155364,
				"element": "H" 
			},
			{
				"x": -3.1904193647,
				"y": 0.6538119985,
				"z": -0.0538461972,
				"element": "H" 
			},
			{
				"x": -5.3790350131,
				"y": -0.2544436897,
				"z": -0.7173856164,
				"element": "H" 
			},
			{
				"x": -6.911123374,
				"y": -2.1985044522,
				"z": -0.990868435,
				"element": "H" 
			},
			{
				"x": -7.3288709823,
				"y": -4.6257298756,
				"z": -0.7982193335,
				"element": "H" 
			},
			{
				"x": -5.5526200892,
				"y": -6.1474643345,
				"z": 0.0516673555,
				"element": "H" 
			},
			{
				"x": -3.3473354097,
				"y": -5.2380727218,
				"z": 0.7130349676,
				"element": "H" 
			},
			{
				"x": -1.8177146852,
				"y": -3.2841599158,
				"z": 0.9831311289,
				"element": "H" 
			},
			{
				"x": 3.8077477619,
				"y": 1.81234322,
				"z": -1.704242139,
				"element": "H" 
			},
			{
				"x": 6.0475872781,
				"y": 1.4072149898,
				"z": -0.6699358526,
				"element": "H" 
			},
			{
				"x": 6.2823733865,
				"y": -0.2785078106,
				"z": 1.1374979952,
				"element": "H" 
			},
			{
				"x": 4.303227235,
				"y": -1.5598526865,
				"z": 1.9156840294,
				"element": "H" 
			},
			{
				"x": 2.0701612197,
				"y": -1.1519613696,
				"z": 0.8902497301,
				"element": "H" 
			}
		],
		 "valence_orbital": [ 
			{
				"type": "occ",
				"energy": -0.27206,
				"method": "rhf"
			},
			{
				"type": "occ",
				"energy": -0.26896,
				"method": "rhf"
			},
			{
				"type": "occ",
				"energy": -0.25604,
				"method": "rhf"
			},
			{
				"type": "occ",
				"energy": -0.24995,
				"method": "rhf"
			},
			{
				"type": "occ",
				"energy": -0.22693,
				"method": "rhf"
			},
			{
				"type": "unocc",
				"energy": -0.08034,
				"method": "rhf"
			},
			{
				"type": "unocc",
				"energy": -0.07145,
				"method": "rhf"
			},
			{
				"type": "unocc",
				"energy": -0.04098,
				"method": "rhf"
			},
			{
				"type": "unocc",
				"energy": -0.0372,
				"method": "rhf"
			},
			{
				"type": "unocc",
				"energy": -0.02843,
				"method": "rhf"
			}
		],
		"cosmo_sigma_profile": { 
			"-0.025": 0.0,
			"-0.024": 0.0,
			"-0.023": 0.0,
			"-0.022": 0.0,
			"-0.021": 0.0,
			"-0.02": 0.0,
			"-0.019": 0.0,
			"-0.018": 0.0,
			"-0.017": 0.0,
			"-0.016": 0.0,
			"-0.015": 0.0,
			"-0.014": 0.0,
			"-0.013": 0.0,
			"-0.012": 0.0,
			"-0.011": 0.0,
			"-0.01": 0.0,
			"-0.009": 0.0398889801778,
			"-0.008": 3.595392075,
			"-0.007": 19.8509902328,
			"-0.006": 30.156336734,
			"-0.005": 31.7611270026,
			"-0.004": 31.3083006208,
			"-0.003": 27.5731431705,
			"-0.002": 30.0838882169,
			"-0.001": 31.5563107745,
			"0.0": 37.5834634769,
			"0.001": 48.801355102,
			"0.002": 53.845643609,
			"0.003": 43.7822529141,
			"0.004": 27.2267926913,
			"0.005": 8.7862120026,
			"0.006": 6.19264511288,
			"0.007": 7.48926161307,
			"0.008": 7.35986472685,
			"0.009": 7.6593535491,
			"0.01": 6.94450221198,
			"0.011": 6.86046543694,
			"0.012": 0.5707521661,
			"0.013": 0.0,
			"0.014": 0.0,
			"0.015": 0.0,
			"0.016": 0.0,
			"0.017": 0.0,
			"0.018": 0.0,
			"0.019": 0.0,
			"0.02": 0.0,
			"0.021": 0.0,
			"0.022": 0.0,
			"0.023": 0.0,
			"0.024": 0.0,
			"0.025": 0.0
		}
	}
}
