{
	 "smiles": "NC1=C(OCCN2CC(=O)NC3=C2C=CC=C3)C=CC=C1", 
	 "Tm": 421.15, 
	 "num_atms": 38, 
	 "gaussian": { 
		 "optdone": 1, 
		 "sigma_profile": "yes", 
		 "theory": "DFT", 
		 "functional": "B3LYP", 
		 "basiset": "6-31G**", 
		 "properties": { 
			 "R2extent": 8445.2721, 
			 "electric_dipole_moment_norm": 2.92600824674, 
			 "electric_quadrupole_moment_norm": 17.5179598199, 
			 "total_energy": -934.656439947, 
			 "HOMO_LUMO_gap": 0.18317, 
			 "cosmo_polarized_energy": -18.31, 
			 "cosmo_cavitation_energy": 41.02, 
			 "cosmo_dispersion_energy": -28.87, 
			 "cosmo_repulsion_energy": 2.2, 
			 "cosmo_total_nonelectrostatic_energy": 14.35, 
			 "SMD_solvation_energy": 6.27 
		},
		"coords": [
			{
				"x": 1.4791898037,
				"y": -2.9454198,
				"z": -0.9106944644,
				"element": "N" 
			},
			{
				"x": 2.122898869,
				"y": -2.5405531075,
				"z": 0.2600402348,
				"element": "C" 
			},
			{
				"x": 1.7159984895,
				"y": -1.3482663829,
				"z": 0.8923372978,
				"element": "C" 
			},
			{
				"x": 0.7358725547,
				"y": -0.584127277,
				"z": 0.2684733276,
				"element": "O" 
			},
			{
				"x": -0.5961626779,
				"y": -0.836800755,
				"z": 0.7423530493,
				"element": "C" 
			},
			{
				"x": -1.5613202121,
				"y": 0.0701675155,
				"z": -0.0234029299,
				"element": "C" 
			},
			{
				"x": -1.4653203578,
				"y": 1.4945502723,
				"z": 0.2470018897,
				"element": "N" 
			},
			{
				"x": -0.335715099,
				"y": 2.2054956413,
				"z": -0.3495111489,
				"element": "C" 
			},
			{
				"x": -0.5797485952,
				"y": 3.703825319,
				"z": -0.4593841891,
				"element": "C" 
			},
			{
				"x": -0.0512802968,
				"y": 4.3995931297,
				"z": -1.3124537268,
				"element": "O" 
			},
			{
				"x": -1.398900116,
				"y": 4.2145219951,
				"z": 0.5132095287,
				"element": "N" 
			},
			{
				"x": -2.0241129443,
				"y": 3.4602234097,
				"z": 1.5212664843,
				"element": "C" 
			},
			{
				"x": -2.0601479908,
				"y": 2.0501313489,
				"z": 1.3818902808,
				"element": "C" 
			},
			{
				"x": -2.7478908865,
				"y": 1.3155057129,
				"z": 2.3610512017,
				"element": "C" 
			},
			{
				"x": -3.3759677795,
				"y": 1.9539485413,
				"z": 3.4338389989,
				"element": "C" 
			},
			{
				"x": -3.3186021557,
				"y": 3.338817424,
				"z": 3.5652954711,
				"element": "C" 
			},
			{
				"x": -2.6357041946,
				"y": 4.0871342878,
				"z": 2.6041059081,
				"element": "C" 
			},
			{
				"x": 2.3040180548,
				"y": -0.9267267612,
				"z": 2.0802027343,
				"element": "C" 
			},
			{
				"x": 3.3119323103,
				"y": -1.6898011351,
				"z": 2.6749634707,
				"element": "C" 
			},
			{
				"x": 3.7206567287,
				"y": -2.8752984808,
				"z": 2.0615992587,
				"element": "C" 
			},
			{
				"x": 3.1382412553,
				"y": -3.2956317094,
				"z": 0.8660125568,
				"element": "C" 
			},
			{
				"x": 1.0864253774,
				"y": -2.1697587968,
				"z": -1.4289673355,
				"element": "H" 
			},
			{
				"x": 2.0220319703,
				"y": -3.5638743768,
				"z": -1.4980791508,
				"element": "H" 
			},
			{
				"x": -0.6454556464,
				"y": -0.644831254,
				"z": 1.8212064621,
				"element": "H" 
			},
			{
				"x": -0.8620956674,
				"y": -1.8891858233,
				"z": 0.5671899959,
				"element": "H" 
			},
			{
				"x": -2.5864524551,
				"y": -0.2575992191,
				"z": 0.1812352199,
				"element": "H" 
			},
			{
				"x": -1.3901416041,
				"y": -0.076708446,
				"z": -1.0966318152,
				"element": "H" 
			},
			{
				"x": 0.6045213798,
				"y": 2.0495763678,
				"z": 0.2034066832,
				"element": "H" 
			},
			{
				"x": -0.1695758484,
				"y": 1.8311666672,
				"z": -1.3617163594,
				"element": "H" 
			},
			{
				"x": -1.5181442047,
				"y": 5.2193324485,
				"z": 0.5004901407,
				"element": "H" 
			},
			{
				"x": -2.8002925922,
				"y": 0.2355378617,
				"z": 2.2914124363,
				"element": "H" 
			},
			{
				"x": -3.9007077562,
				"y": 1.3546963168,
				"z": 4.1717752467,
				"element": "H" 
			},
			{
				"x": -3.7965728023,
				"y": 3.8378447529,
				"z": 4.4019006299,
				"element": "H" 
			},
			{
				"x": -2.586138212,
				"y": 5.1705132163,
				"z": 2.6820021307,
				"element": "H" 
			},
			{
				"x": 1.9702745612,
				"y": 0.0074183518,
				"z": 2.5227234452,
				"element": "H" 
			},
			{
				"x": 3.7719046477,
				"y": -1.3592145332,
				"z": 3.6006497254,
				"element": "H" 
			},
			{
				"x": 4.5055544061,
				"y": -3.4773889308,
				"z": 2.5103089966,
				"element": "H" 
			},
			{
				"x": 3.4658296863,
				"y": -4.2184137914,
				"z": 0.3931983141,
				"element": "H" 
			}
		],
		 "valence_orbital": [ 
			{
				"type": "occ",
				"energy": -0.25357,
				"method": "rhf"
			},
			{
				"type": "occ",
				"energy": -0.242,
				"method": "rhf"
			},
			{
				"type": "occ",
				"energy": -0.22825,
				"method": "rhf"
			},
			{
				"type": "occ",
				"energy": -0.20388,
				"method": "rhf"
			},
			{
				"type": "occ",
				"energy": -0.19034,
				"method": "rhf"
			},
			{
				"type": "unocc",
				"energy": -0.00717,
				"method": "rhf"
			},
			{
				"type": "unocc",
				"energy": 0.002,
				"method": "rhf"
			},
			{
				"type": "unocc",
				"energy": 0.00625,
				"method": "rhf"
			},
			{
				"type": "unocc",
				"energy": 0.01616,
				"method": "rhf"
			},
			{
				"type": "unocc",
				"energy": 0.04164,
				"method": "rhf"
			}
		],
		"cosmo_sigma_profile": { 
			"-0.025": 0.0,
			"-0.024": 0.0,
			"-0.023": 0.0,
			"-0.022": 0.0,
			"-0.021": 0.0,
			"-0.02": 0.0,
			"-0.019": 0.0,
			"-0.018": 0.0,
			"-0.017": 0.0,
			"-0.016": 0.0,
			"-0.015": 0.566514537499,
			"-0.014": 0.961359862283,
			"-0.013": 1.3160606591,
			"-0.012": 2.47582750688,
			"-0.011": 3.43305106801,
			"-0.01": 3.14115331978,
			"-0.009": 3.65416631513,
			"-0.008": 3.92747929771,
			"-0.007": 6.73338469182,
			"-0.006": 14.9183254665,
			"-0.005": 25.7999864478,
			"-0.004": 28.536576447,
			"-0.003": 27.3569130346,
			"-0.002": 22.0189054987,
			"-0.001": 19.4915652172,
			"0.0": 20.1217170949,
			"0.001": 15.6891202489,
			"0.002": 16.0010681678,
			"0.003": 18.1594587644,
			"0.004": 18.9966699985,
			"0.005": 18.9671960419,
			"0.006": 19.1328761734,
			"0.007": 11.7640824926,
			"0.008": 3.23831384286,
			"0.009": 1.75458950781,
			"0.01": 1.28304230631,
			"0.011": 2.27703523753,
			"0.012": 3.42864547968,
			"0.013": 6.12390564771,
			"0.014": 3.63051646258,
			"0.015": 0.268084039972,
			"0.016": 0.0,
			"0.017": 0.0,
			"0.018": 0.0,
			"0.019": 0.0,
			"0.02": 0.0,
			"0.021": 0.0,
			"0.022": 0.0,
			"0.023": 0.0,
			"0.024": 0.0,
			"0.025": 0.0
		}
	}
}
