{
	 "smiles": "CC1=C(C)C=C(C(O)=O)C(Cl)=C1", 
	 "Tm": 454.15, 
	 "num_atms": 21, 
	 "gaussian": { 
		 "optdone": 1, 
		 "sigma_profile": "yes", 
		 "theory": "DFT", 
		 "functional": "B3LYP", 
		 "basiset": "6-31G**", 
		 "properties": { 
			 "R2extent": 3314.3243, 
			 "electric_dipole_moment_norm": 4.14324465727, 
			 "electric_quadrupole_moment_norm": 16.0489298291, 
			 "total_energy": -959.048536201, 
			 "HOMO_LUMO_gap": 0.19101, 
			 "cosmo_polarized_energy": -10.74, 
			 "cosmo_cavitation_energy": 26.78, 
			 "cosmo_dispersion_energy": -19.61, 
			 "cosmo_repulsion_energy": 1.56, 
			 "cosmo_total_nonelectrostatic_energy": 8.73, 
			 "SMD_solvation_energy": 5.54 
		},
		"coords": [
			{
				"x": 0.658696305,
				"y": -1.4724646998,
				"z": -2.2180132798,
				"element": "C" 
			},
			{
				"x": -0.1207743082,
				"y": -1.0059792928,
				"z": -1.0140795374,
				"element": "C" 
			},
			{
				"x": 0.3782308907,
				"y": -1.1912640161,
				"z": 0.2937746536,
				"element": "C" 
			},
			{
				"x": 1.7088243863,
				"y": -1.862635806,
				"z": 0.5330448759,
				"element": "C" 
			},
			{
				"x": -0.3849248867,
				"y": -0.7400660111,
				"z": 1.3668751327,
				"element": "C" 
			},
			{
				"x": -1.6328580729,
				"y": -0.1066840517,
				"z": 1.2134492944,
				"element": "C" 
			},
			{
				"x": -2.3749096634,
				"y": 0.3410099729,
				"z": 2.4256521174,
				"element": "C" 
			},
			{
				"x": -1.6963827389,
				"y": 0.0582727759,
				"z": 3.5737904771,
				"element": "O" 
			},
			{
				"x": -3.4531911485,
				"y": 0.8943871441,
				"z": 2.4562996946,
				"element": "O" 
			},
			{
				"x": -2.110768338,
				"y": 0.0674549617,
				"z": -0.0977084184,
				"element": "C" 
			},
			{
				"x": -3.6388184777,
				"y": 0.8327895223,
				"z": -0.4768704598,
				"element": "Cl" 
			},
			{
				"x": -1.3565472129,
				"y": -0.3796344319,
				"z": -1.1836581111,
				"element": "C" 
			},
			{
				"x": 0.1273802826,
				"y": -1.2506200521,
				"z": -3.1464557265,
				"element": "H" 
			},
			{
				"x": 1.6421708327,
				"y": -0.9902189514,
				"z": -2.2683524972,
				"element": "H" 
			},
			{
				"x": 0.8394543128,
				"y": -2.5533661724,
				"z": -2.1824479552,
				"element": "H" 
			},
			{
				"x": 1.7244370104,
				"y": -2.8836543062,
				"z": 0.1330893878,
				"element": "H" 
			},
			{
				"x": 1.9339121048,
				"y": -1.9194220737,
				"z": 1.6007724357,
				"element": "H" 
			},
			{
				"x": 2.5286935796,
				"y": -1.3205032066,
				"z": 0.0466652545,
				"element": "H" 
			},
			{
				"x": -0.0105979601,
				"y": -0.8774930305,
				"z": 2.3743380864,
				"element": "H" 
			},
			{
				"x": -2.2645470675,
				"y": 0.388785726,
				"z": 4.2883477221,
				"element": "H" 
			},
			{
				"x": -1.7512798298,
				"y": -0.2310940008,
				"z": -2.1832131472,
				"element": "H" 
			}
		],
		 "valence_orbital": [ 
			{
				"type": "occ",
				"energy": -0.31581,
				"method": "rhf"
			},
			{
				"type": "occ",
				"energy": -0.31266,
				"method": "rhf"
			},
			{
				"type": "occ",
				"energy": -0.26411,
				"method": "rhf"
			},
			{
				"type": "occ",
				"energy": -0.26198,
				"method": "rhf"
			},
			{
				"type": "occ",
				"energy": -0.24254,
				"method": "rhf"
			},
			{
				"type": "unocc",
				"energy": -0.05153,
				"method": "rhf"
			},
			{
				"type": "unocc",
				"energy": -0.01339,
				"method": "rhf"
			},
			{
				"type": "unocc",
				"energy": 0.03522,
				"method": "rhf"
			},
			{
				"type": "unocc",
				"energy": 0.05197,
				"method": "rhf"
			},
			{
				"type": "unocc",
				"energy": 0.08299,
				"method": "rhf"
			}
		],
		"cosmo_sigma_profile": { 
			"-0.025": 0.0,
			"-0.024": 0.0,
			"-0.023": 0.0,
			"-0.022": 0.0,
			"-0.021": 0.0,
			"-0.02": 0.0,
			"-0.019": 0.00397123382248,
			"-0.018": 0.469363770074,
			"-0.017": 1.19470227526,
			"-0.016": 0.501061275845,
			"-0.015": 0.761767764114,
			"-0.014": 0.972518059767,
			"-0.013": 0.520726615159,
			"-0.012": 0.502388999768,
			"-0.011": 1.20237447899,
			"-0.01": 0.461130098685,
			"-0.009": 0.714345384469,
			"-0.008": 0.338048976959,
			"-0.007": 2.11895479624,
			"-0.006": 5.39601159045,
			"-0.005": 10.5274639824,
			"-0.004": 16.3839111376,
			"-0.003": 17.351434938,
			"-0.002": 19.3123038955,
			"-0.001": 24.0700588797,
			"0.0": 21.9918091277,
			"0.001": 16.974796328,
			"0.002": 19.6175146251,
			"0.003": 13.9343147152,
			"0.004": 9.57255125652,
			"0.005": 6.51591891733,
			"0.006": 4.8135445387,
			"0.007": 3.27595939185,
			"0.008": 2.02126712097,
			"0.009": 1.4356641293,
			"0.01": 2.60801497123,
			"0.011": 3.5507805943,
			"0.012": 5.00302041925,
			"0.013": 0.363106344833,
			"0.014": 0.0,
			"0.015": 0.0,
			"0.016": 0.0,
			"0.017": 0.0,
			"0.018": 0.0,
			"0.019": 0.0,
			"0.02": 0.0,
			"0.021": 0.0,
			"0.022": 0.0,
			"0.023": 0.0,
			"0.024": 0.0,
			"0.025": 0.0
		}
	}
}
