{
	 "smiles": "CCOC1=C2C=CC=CC2=C(C=C1)S(N)(=O)=O", 
	 "Tm": 442.15, 
	 "num_atms": 30, 
	 "gaussian": { 
		 "optdone": 1, 
		 "sigma_profile": "yes", 
		 "theory": "DFT", 
		 "functional": "B3LYP", 
		 "basiset": "6-31G**", 
		 "properties": { 
			 "R2extent": 5164.8187, 
			 "electric_dipole_moment_norm": 7.333522434, 
			 "electric_quadrupole_moment_norm": 20.5875794172, 
			 "total_energy": -1143.66081947, 
			 "HOMO_LUMO_gap": 0.1672, 
			 "cosmo_polarized_energy": -19.33, 
			 "cosmo_cavitation_energy": 34.24, 
			 "cosmo_dispersion_energy": -25.64, 
			 "cosmo_repulsion_energy": 1.93, 
			 "cosmo_total_nonelectrostatic_energy": 10.54, 
			 "SMD_solvation_energy": 5.54 
		},
		"coords": [
			{
				"x": -1.0947131319,
				"y": 0.89438254,
				"z": 5.1799920873,
				"element": "C" 
			},
			{
				"x": -1.2986385804,
				"y": 0.0034197586,
				"z": 3.968175297,
				"element": "C" 
			},
			{
				"x": -0.4798478692,
				"y": 0.5175546399,
				"z": 2.9120821625,
				"element": "O" 
			},
			{
				"x": -0.4868522084,
				"y": -0.1046386056,
				"z": 1.7080019324,
				"element": "C" 
			},
			{
				"x": 0.3570433131,
				"y": 0.4938692302,
				"z": 0.7101934114,
				"element": "C" 
			},
			{
				"x": 1.1251205529,
				"y": 1.6477187925,
				"z": 1.007435296,
				"element": "C" 
			},
			{
				"x": 1.9243297635,
				"y": 2.2285011679,
				"z": 0.0473523717,
				"element": "C" 
			},
			{
				"x": 1.9687519991,
				"y": 1.683543843,
				"z": -1.2533143267,
				"element": "C" 
			},
			{
				"x": 1.2313741807,
				"y": 0.5632040031,
				"z": -1.5740628315,
				"element": "C" 
			},
			{
				"x": 0.4147514048,
				"y": -0.0791888582,
				"z": -0.6026002535,
				"element": "C" 
			},
			{
				"x": -0.352345024,
				"y": -1.2666953815,
				"z": -0.8502397747,
				"element": "C" 
			},
			{
				"x": -1.1495703465,
				"y": -1.8105569349,
				"z": 0.1318590273,
				"element": "C" 
			},
			{
				"x": -1.2333131535,
				"y": -1.2303163156,
				"z": 1.4146279491,
				"element": "C" 
			},
			{
				"x": -0.2794709811,
				"y": -2.1557846484,
				"z": -2.4120276309,
				"element": "S" 
			},
			{
				"x": 1.2768862296,
				"y": -2.7985625626,
				"z": -2.517703031,
				"element": "N" 
			},
			{
				"x": -0.3912221466,
				"y": -1.2000274605,
				"z": -3.5148076036,
				"element": "O" 
			},
			{
				"x": -1.1686251581,
				"y": -3.3121025623,
				"z": -2.2997763514,
				"element": "O" 
			},
			{
				"x": -0.0465301464,
				"y": 0.8902180651,
				"z": 5.4914815827,
				"element": "H" 
			},
			{
				"x": -1.3858466397,
				"y": 1.9242660849,
				"z": 4.9559773123,
				"element": "H" 
			},
			{
				"x": -1.7053876035,
				"y": 0.5352620025,
				"z": 6.0137743919,
				"element": "H" 
			},
			{
				"x": -2.3496450935,
				"y": 0.0028279238,
				"z": 3.6499835395,
				"element": "H" 
			},
			{
				"x": -1.0085628327,
				"y": -1.033247591,
				"z": 4.1859296244,
				"element": "H" 
			},
			{
				"x": 1.0670054235,
				"y": 2.0630884691,
				"z": 2.0063677358,
				"element": "H" 
			},
			{
				"x": 2.5091624709,
				"y": 3.1116158174,
				"z": 0.2863371943,
				"element": "H" 
			},
			{
				"x": 2.5786531985,
				"y": 2.158414988,
				"z": -2.0164005546,
				"element": "H" 
			},
			{
				"x": 1.2306384335,
				"y": 0.1967086938,
				"z": -2.5937979966,
				"element": "H" 
			},
			{
				"x": -1.7211998713,
				"y": -2.7040341058,
				"z": -0.0929338991,
				"element": "H" 
			},
			{
				"x": -1.87926235,
				"y": -1.6856416298,
				"z": 2.1541933651,
				"element": "H" 
			},
			{
				"x": 1.4365914666,
				"y": -3.5031249824,
				"z": -1.8035185259,
				"element": "H" 
			},
			{
				"x": 1.9949247003,
				"y": -2.0795743814,
				"z": -2.5122815011,
				"element": "H" 
			}
		],
		 "valence_orbital": [ 
			{
				"type": "occ",
				"energy": -0.29881,
				"method": "rhf"
			},
			{
				"type": "occ",
				"energy": -0.29185,
				"method": "rhf"
			},
			{
				"type": "occ",
				"energy": -0.27267,
				"method": "rhf"
			},
			{
				"type": "occ",
				"energy": -0.25932,
				"method": "rhf"
			},
			{
				"type": "occ",
				"energy": -0.22158,
				"method": "rhf"
			},
			{
				"type": "unocc",
				"energy": -0.05438,
				"method": "rhf"
			},
			{
				"type": "unocc",
				"energy": -0.02457,
				"method": "rhf"
			},
			{
				"type": "unocc",
				"energy": 0.00923,
				"method": "rhf"
			},
			{
				"type": "unocc",
				"energy": 0.06215,
				"method": "rhf"
			},
			{
				"type": "unocc",
				"energy": 0.07802,
				"method": "rhf"
			}
		],
		"cosmo_sigma_profile": { 
			"-0.025": 0.0,
			"-0.024": 0.0,
			"-0.023": 0.0,
			"-0.022": 0.0,
			"-0.021": 0.0,
			"-0.02": 0.0,
			"-0.019": 0.0,
			"-0.018": 0.0,
			"-0.017": 0.0,
			"-0.016": 0.0131954644911,
			"-0.015": 1.11096405093,
			"-0.014": 2.02381575091,
			"-0.013": 2.35519858485,
			"-0.012": 2.75217848656,
			"-0.011": 2.85585554079,
			"-0.01": 2.2337326899,
			"-0.009": 2.10872253574,
			"-0.008": 2.14741540895,
			"-0.007": 5.70273559726,
			"-0.006": 13.338245249,
			"-0.005": 18.8200518976,
			"-0.004": 23.1562730165,
			"-0.003": 18.8448678234,
			"-0.002": 17.6830062193,
			"-0.001": 15.2021408729,
			"0.0": 17.6596957587,
			"0.001": 19.4191927512,
			"0.002": 20.9528828612,
			"0.003": 20.7675292216,
			"0.004": 15.3076572383,
			"0.005": 7.50768310258,
			"0.006": 3.76110574397,
			"0.007": 3.9531296801,
			"0.008": 4.90202357213,
			"0.009": 5.42223033756,
			"0.01": 6.33272140872,
			"0.011": 9.88649326433,
			"0.012": 6.16979211224,
			"0.013": 0.351522354411,
			"0.014": 0.0257267587961,
			"0.015": 0.0,
			"0.016": 0.0,
			"0.017": 0.0,
			"0.018": 0.0,
			"0.019": 0.0,
			"0.02": 0.0,
			"0.021": 0.0,
			"0.022": 0.0,
			"0.023": 0.0,
			"0.024": 0.0,
			"0.025": 0.0
		}
	}
}
