{
	 "smiles": "ClC1=NC=C(C=C1)S(=O)(=O)N1CCCC1", 
	 "Tm": 423.15, 
	 "num_atms": 26, 
	 "gaussian": { 
		 "optdone": 1, 
		 "sigma_profile": "yes", 
		 "theory": "DFT", 
		 "functional": "B3LYP", 
		 "basiset": "6-31G**", 
		 "properties": { 
			 "R2extent": 5015.3655, 
			 "electric_dipole_moment_norm": 4.98090274749, 
			 "electric_quadrupole_moment_norm": 13.4738548363, 
			 "total_energy": -1467.83880987, 
			 "HOMO_LUMO_gap": 0.1979, 
			 "cosmo_polarized_energy": -14.89, 
			 "cosmo_cavitation_energy": 31.97, 
			 "cosmo_dispersion_energy": -23.67, 
			 "cosmo_repulsion_energy": 1.82, 
			 "cosmo_total_nonelectrostatic_energy": 10.13, 
			 "SMD_solvation_energy": 1.6 
		},
		"coords": [
			{
				"x": -1.0983719809,
				"y": -5.1396766866,
				"z": -2.1220866648,
				"element": "Cl" 
			},
			{
				"x": -0.5106235064,
				"y": -3.8219793098,
				"z": -1.1202598136,
				"element": "C" 
			},
			{
				"x": -1.3240658515,
				"y": -3.3918234156,
				"z": -0.1704267822,
				"element": "N" 
			},
			{
				"x": -0.8966739056,
				"y": -2.3823487869,
				"z": 0.5987041985,
				"element": "C" 
			},
			{
				"x": 0.3498775429,
				"y": -1.7768070179,
				"z": 0.4223915805,
				"element": "C" 
			},
			{
				"x": 1.2039642043,
				"y": -2.2589465275,
				"z": -0.5745504918,
				"element": "C" 
			},
			{
				"x": 0.7683038016,
				"y": -3.3117907978,
				"z": -1.3710937325,
				"element": "C" 
			},
			{
				"x": 0.8410904073,
				"y": -0.3828578768,
				"z": 1.4483817773,
				"element": "S" 
			},
			{
				"x": 2.2980580387,
				"y": -0.2881649467,
				"z": 1.3449904444,
				"element": "O" 
			},
			{
				"x": 0.1392258989,
				"y": -0.531970437,
				"z": 2.7234060057,
				"element": "O" 
			},
			{
				"x": 0.2230616057,
				"y": 0.9715922798,
				"z": 0.7210645666,
				"element": "N" 
			},
			{
				"x": -1.2073735629,
				"y": 1.3157018181,
				"z": 0.8349748237,
				"element": "C" 
			},
			{
				"x": -1.2824986957,
				"y": 2.6038788336,
				"z": 0.0087001318,
				"element": "C" 
			},
			{
				"x": -0.3106217692,
				"y": 2.3293940007,
				"z": -1.1532881733,
				"element": "C" 
			},
			{
				"x": 0.8365494403,
				"y": 1.5222100857,
				"z": -0.5116329746,
				"element": "C" 
			},
			{
				"x": -1.5596617303,
				"y": -2.0604772081,
				"z": 1.3966649023,
				"element": "H" 
			},
			{
				"x": 2.1933153071,
				"y": -1.8308376111,
				"z": -0.6959582817,
				"element": "H" 
			},
			{
				"x": 1.3899225151,
				"y": -3.7323187459,
				"z": -2.1522745233,
				"element": "H" 
			},
			{
				"x": -1.850737993,
				"y": 0.5352716746,
				"z": 0.3990712384,
				"element": "H" 
			},
			{
				"x": -1.478459562,
				"y": 1.4442951512,
				"z": 1.8836812214,
				"element": "H" 
			},
			{
				"x": -2.299764227,
				"y": 2.8222281203,
				"z": -0.3263917595,
				"element": "H" 
			},
			{
				"x": -0.9320337574,
				"y": 3.4485157671,
				"z": 0.6110142355,
				"element": "H" 
			},
			{
				"x": -0.8090287118,
				"y": 1.724656547,
				"z": -1.918699825,
				"element": "H" 
			},
			{
				"x": 0.050549688,
				"y": 3.2413175624,
				"z": -1.635353619,
				"element": "H" 
			},
			{
				"x": 1.6927998637,
				"y": 2.1464679928,
				"z": -0.2408858993,
				"element": "H" 
			},
			{
				"x": 1.1970969402,
				"y": 0.7301695342,
				"z": -1.1779425855,
				"element": "H" 
			}
		],
		 "valence_orbital": [ 
			{
				"type": "occ",
				"energy": -0.31491,
				"method": "rhf"
			},
			{
				"type": "occ",
				"energy": -0.30796,
				"method": "rhf"
			},
			{
				"type": "occ",
				"energy": -0.29009,
				"method": "rhf"
			},
			{
				"type": "occ",
				"energy": -0.28129,
				"method": "rhf"
			},
			{
				"type": "occ",
				"energy": -0.25712,
				"method": "rhf"
			},
			{
				"type": "unocc",
				"energy": -0.05922,
				"method": "rhf"
			},
			{
				"type": "unocc",
				"energy": -0.05307,
				"method": "rhf"
			},
			{
				"type": "unocc",
				"energy": 0.0217,
				"method": "rhf"
			},
			{
				"type": "unocc",
				"energy": 0.05595,
				"method": "rhf"
			},
			{
				"type": "unocc",
				"energy": 0.07152,
				"method": "rhf"
			}
		],
		"cosmo_sigma_profile": { 
			"-0.025": 0.0,
			"-0.024": 0.0,
			"-0.023": 0.0,
			"-0.022": 0.0,
			"-0.021": 0.0,
			"-0.02": 0.0,
			"-0.019": 0.0,
			"-0.018": 0.0,
			"-0.017": 0.0,
			"-0.016": 0.0,
			"-0.015": 0.0,
			"-0.014": 0.0,
			"-0.013": 0.0,
			"-0.012": 0.0,
			"-0.011": 0.0,
			"-0.01": 0.145561300915,
			"-0.009": 3.11605768101,
			"-0.008": 4.70459616131,
			"-0.007": 5.37010377838,
			"-0.006": 6.89749773713,
			"-0.005": 16.7604657282,
			"-0.004": 28.970282996,
			"-0.003": 30.0077179186,
			"-0.002": 30.3478068571,
			"-0.001": 24.5460526502,
			"0.0": 15.100621759,
			"0.001": 8.15150924648,
			"0.002": 10.3416405919,
			"0.003": 11.9268585831,
			"0.004": 11.8105482671,
			"0.005": 6.9783115527,
			"0.006": 5.68811754361,
			"0.007": 5.53238856845,
			"0.008": 4.44570835179,
			"0.009": 4.37339687398,
			"0.01": 8.97058634185,
			"0.011": 8.57029062593,
			"0.012": 2.88058599796,
			"0.013": 0.664855882371,
			"0.014": 0.123772997902,
			"0.015": 0.0,
			"0.016": 0.0,
			"0.017": 0.0,
			"0.018": 0.0,
			"0.019": 0.0,
			"0.02": 0.0,
			"0.021": 0.0,
			"0.022": 0.0,
			"0.023": 0.0,
			"0.024": 0.0,
			"0.025": 0.0
		}
	}
}
