{
	 "smiles": "CC1=CC(C)=C(C=C1)C(=O)C1=CC(=CC=C1)S(C)(=O)=O", 
	 "Tm": 357.15, 
	 "num_atms": 36, 
	 "gaussian": { 
		 "optdone": 1, 
		 "sigma_profile": "yes", 
		 "theory": "DFT", 
		 "functional": "B3LYP", 
		 "basiset": "6-31G**", 
		 "properties": { 
			 "R2extent": 7446.5844, 
			 "electric_dipole_moment_norm": 2.66527657289, 
			 "electric_quadrupole_moment_norm": 27.7985281011, 
			 "total_energy": -1243.15692622, 
			 "HOMO_LUMO_gap": 0.17228, 
			 "cosmo_polarized_energy": -17.91, 
			 "cosmo_cavitation_energy": 41.12, 
			 "cosmo_dispersion_energy": -28.92, 
			 "cosmo_repulsion_energy": 2.19, 
			 "cosmo_total_nonelectrostatic_energy": 14.39, 
			 "SMD_solvation_energy": 7.07 
		},
		"coords": [
			{
				"x": -1.2010688128,
				"y": -1.5675720093,
				"z": -4.9540423797,
				"element": "C" 
			},
			{
				"x": -1.3418564037,
				"y": -0.8466181565,
				"z": -3.6357665188,
				"element": "C" 
			},
			{
				"x": -1.364159734,
				"y": 0.5533644821,
				"z": -3.5831628199,
				"element": "C" 
			},
			{
				"x": -1.4738455015,
				"y": 1.2688594666,
				"z": -2.3873508979,
				"element": "C" 
			},
			{
				"x": -1.5180511831,
				"y": 2.778195341,
				"z": -2.4410259183,
				"element": "C" 
			},
			{
				"x": -1.5317293275,
				"y": 0.534957847,
				"z": -1.174960312,
				"element": "C" 
			},
			{
				"x": -1.5109663852,
				"y": -0.8696829889,
				"z": -1.2228749185,
				"element": "C" 
			},
			{
				"x": -1.4296615944,
				"y": -1.5529911813,
				"z": -2.4314697283,
				"element": "C" 
			},
			{
				"x": -1.7035182249,
				"y": 1.2289970646,
				"z": 0.136204423,
				"element": "C" 
			},
			{
				"x": -2.3368475737,
				"y": 2.2753627982,
				"z": 0.2329672222,
				"element": "O" 
			},
			{
				"x": -1.0897133213,
				"y": 0.6453035277,
				"z": 1.3861449159,
				"element": "C" 
			},
			{
				"x": 0.0710935146,
				"y": -0.1391006654,
				"z": 1.374223233,
				"element": "C" 
			},
			{
				"x": 0.6132759146,
				"y": -0.574898123,
				"z": 2.5839193037,
				"element": "C" 
			},
			{
				"x": 0.0147343287,
				"y": -0.2724526722,
				"z": 3.8075485153,
				"element": "C" 
			},
			{
				"x": -1.1385747805,
				"y": 0.5156780267,
				"z": 3.8159362587,
				"element": "C" 
			},
			{
				"x": -1.673809015,
				"y": 0.9825649713,
				"z": 2.618143794,
				"element": "C" 
			},
			{
				"x": 2.1136635246,
				"y": -1.5729760811,
				"z": 2.5618251483,
				"element": "S" 
			},
			{
				"x": 3.4431326988,
				"y": -0.3475654321,
				"z": 2.6223780743,
				"element": "C" 
			},
			{
				"x": 2.1611411109,
				"y": -2.3398508566,
				"z": 3.8164485883,
				"element": "O" 
			},
			{
				"x": 2.1901745261,
				"y": -2.2431071202,
				"z": 1.2543371137,
				"element": "O" 
			},
			{
				"x": -1.6554910534,
				"y": -1.0007388369,
				"z": -5.7720203592,
				"element": "H" 
			},
			{
				"x": -0.1438349196,
				"y": -1.7152251543,
				"z": -5.20795879,
				"element": "H" 
			},
			{
				"x": -1.6680802336,
				"y": -2.5561393773,
				"z": -4.9210366811,
				"element": "H" 
			},
			{
				"x": -1.3011217807,
				"y": 1.111990894,
				"z": -4.5145725671,
				"element": "H" 
			},
			{
				"x": -1.2316955667,
				"y": 3.1301026717,
				"z": -3.4360668484,
				"element": "H" 
			},
			{
				"x": -0.8515473696,
				"y": 3.2363145405,
				"z": -1.7050282409,
				"element": "H" 
			},
			{
				"x": -2.5207827755,
				"y": 3.1493831141,
				"z": -2.2127335659,
				"element": "H" 
			},
			{
				"x": -1.5867671502,
				"y": -1.4366481787,
				"z": -0.3009405234,
				"element": "H" 
			},
			{
				"x": -1.4299039495,
				"y": -2.6394734978,
				"z": -2.4371954167,
				"element": "H" 
			},
			{
				"x": 0.5513584356,
				"y": -0.4154600346,
				"z": 0.4423881569,
				"element": "H" 
			},
			{
				"x": 0.4405603237,
				"y": -0.6630737943,
				"z": 4.7258318707,
				"element": "H" 
			},
			{
				"x": -1.6176690817,
				"y": 0.7619143594,
				"z": 4.7585955582,
				"element": "H" 
			},
			{
				"x": -2.5557017964,
				"y": 1.6142989277,
				"z": 2.6089213468,
				"element": "H" 
			},
			{
				"x": 3.3587356156,
				"y": 0.2290077124,
				"z": 3.544504755,
				"element": "H" 
			},
			{
				"x": 3.3778313894,
				"y": 0.2977795807,
				"z": 1.7453700318,
				"element": "H" 
			},
			{
				"x": 4.3779961519,
				"y": -0.9118011654,
				"z": 2.6106181767,
				"element": "H" 
			}
		],
		 "valence_orbital": [ 
			{
				"type": "occ",
				"energy": -0.27974,
				"method": "rhf"
			},
			{
				"type": "occ",
				"energy": -0.27723,
				"method": "rhf"
			},
			{
				"type": "occ",
				"energy": -0.25747,
				"method": "rhf"
			},
			{
				"type": "occ",
				"energy": -0.25213,
				"method": "rhf"
			},
			{
				"type": "occ",
				"energy": -0.24532,
				"method": "rhf"
			},
			{
				"type": "unocc",
				"energy": -0.07304,
				"method": "rhf"
			},
			{
				"type": "unocc",
				"energy": -0.04193,
				"method": "rhf"
			},
			{
				"type": "unocc",
				"energy": -0.02513,
				"method": "rhf"
			},
			{
				"type": "unocc",
				"energy": -0.00645,
				"method": "rhf"
			},
			{
				"type": "unocc",
				"energy": 0.03824,
				"method": "rhf"
			}
		],
		"cosmo_sigma_profile": { 
			"-0.025": 0.0,
			"-0.024": 0.0,
			"-0.023": 0.0,
			"-0.022": 0.0,
			"-0.021": 0.0,
			"-0.02": 0.0,
			"-0.019": 0.0,
			"-0.018": 0.0,
			"-0.017": 0.0,
			"-0.016": 0.0,
			"-0.015": 0.0,
			"-0.014": 0.0,
			"-0.013": 0.0,
			"-0.012": 0.0,
			"-0.011": 0.0,
			"-0.01": 0.00387124058926,
			"-0.009": 2.37756580473,
			"-0.008": 8.37739731249,
			"-0.007": 11.1651386388,
			"-0.006": 15.5272945874,
			"-0.005": 22.5641871908,
			"-0.004": 32.7462911493,
			"-0.003": 27.6861709529,
			"-0.002": 24.8572518292,
			"-0.001": 27.9552583097,
			"0.0": 28.8577980476,
			"0.001": 25.0763846128,
			"0.002": 18.6381506141,
			"0.003": 12.6821508715,
			"0.004": 13.1792694709,
			"0.005": 7.90355324007,
			"0.006": 4.54786617339,
			"0.007": 3.88097439044,
			"0.008": 4.73992815642,
			"0.009": 5.07919463072,
			"0.01": 6.37024599134,
			"0.011": 11.831712514,
			"0.012": 10.7249338189,
			"0.013": 0.721859506674,
			"0.014": 0.0,
			"0.015": 0.0,
			"0.016": 0.0,
			"0.017": 0.0,
			"0.018": 0.0,
			"0.019": 0.0,
			"0.02": 0.0,
			"0.021": 0.0,
			"0.022": 0.0,
			"0.023": 0.0,
			"0.024": 0.0,
			"0.025": 0.0
		}
	}
}
