{
	 "smiles": "ClCC(=C)CCl", 
	 "Tm": 287.15, 
	 "num_atms": 12, 
	 "gaussian": { 
		 "optdone": 1, 
		 "sigma_profile": "yes", 
		 "theory": "DFT", 
		 "functional": "B3LYP", 
		 "basiset": "6-31G**", 
		 "properties": { 
			 "R2extent": 2011.419, 
			 "electric_dipole_moment_norm": 2.35362408638, 
			 "electric_quadrupole_moment_norm": 7.23986506918, 
			 "total_energy": -1076.41257607, 
			 "HOMO_LUMO_gap": 0.24432, 
			 "cosmo_polarized_energy": -6.4, 
			 "cosmo_cavitation_energy": 19.09, 
			 "cosmo_dispersion_energy": -13.92, 
			 "cosmo_repulsion_energy": 1.21, 
			 "cosmo_total_nonelectrostatic_energy": 6.38, 
			 "SMD_solvation_energy": 3.43 
		},
		"coords": [
			{
				"x": 0.6344361285,
				"y": 1.3001833042,
				"z": 3.7553757018,
				"element": "Cl" 
			},
			{
				"x": -0.7766073313,
				"y": 0.5806245018,
				"z": 2.8309136173,
				"element": "C" 
			},
			{
				"x": -0.3719046867,
				"y": 0.1362217914,
				"z": 1.4562953854,
				"element": "C" 
			},
			{
				"x": -0.3715082595,
				"y": -1.1577329985,
				"z": 1.1183711963,
				"element": "C" 
			},
			{
				"x": 0.0322811058,
				"y": 1.1962319818,
				"z": 0.4745235831,
				"element": "C" 
			},
			{
				"x": -1.3793774177,
				"y": 2.2750687907,
				"z": 0.0198172654,
				"element": "Cl" 
			},
			{
				"x": -1.5288341478,
				"y": 1.3697448267,
				"z": 2.7944320104,
				"element": "H" 
			},
			{
				"x": -1.1415568708,
				"y": -0.2510699149,
				"z": 3.4319964924,
				"element": "H" 
			},
			{
				"x": -0.6311677931,
				"y": -1.9328780829,
				"z": 1.8333424796,
				"element": "H" 
			},
			{
				"x": -0.1115100259,
				"y": -1.4841263135,
				"z": 0.1157119831,
				"element": "H" 
			},
			{
				"x": 0.3975681531,
				"y": 0.764841566,
				"z": -0.4564335779,
				"element": "H" 
			},
			{
				"x": 0.7840811454,
				"y": 1.8671905471,
				"z": 0.8922538631,
				"element": "H" 
			}
		],
		 "valence_orbital": [ 
			{
				"type": "occ",
				"energy": -0.30924,
				"method": "rhf"
			},
			{
				"type": "occ",
				"energy": -0.30543,
				"method": "rhf"
			},
			{
				"type": "occ",
				"energy": -0.30132,
				"method": "rhf"
			},
			{
				"type": "occ",
				"energy": -0.29744,
				"method": "rhf"
			},
			{
				"type": "occ",
				"energy": -0.28252,
				"method": "rhf"
			},
			{
				"type": "unocc",
				"energy": -0.0382,
				"method": "rhf"
			},
			{
				"type": "unocc",
				"energy": 0.0092,
				"method": "rhf"
			},
			{
				"type": "unocc",
				"energy": 0.06034,
				"method": "rhf"
			},
			{
				"type": "unocc",
				"energy": 0.08319,
				"method": "rhf"
			},
			{
				"type": "unocc",
				"energy": 0.11545,
				"method": "rhf"
			}
		],
		"cosmo_sigma_profile": { 
			"-0.025": 0.0,
			"-0.024": 0.0,
			"-0.023": 0.0,
			"-0.022": 0.0,
			"-0.021": 0.0,
			"-0.02": 0.0,
			"-0.019": 0.0,
			"-0.018": 0.0,
			"-0.017": 0.0,
			"-0.016": 0.0,
			"-0.015": 0.0,
			"-0.014": 0.0,
			"-0.013": 0.0,
			"-0.012": 0.0,
			"-0.011": 0.0,
			"-0.01": 0.0,
			"-0.009": 0.134705150524,
			"-0.008": 5.290884112,
			"-0.007": 9.39235126979,
			"-0.006": 9.78009978079,
			"-0.005": 9.53013800139,
			"-0.004": 11.1607574879,
			"-0.003": 8.86627104754,
			"-0.002": 8.64091204719,
			"-0.001": 7.57670733906,
			"0.0": 9.81442836299,
			"0.001": 8.73605059,
			"0.002": 10.0109988912,
			"0.003": 11.2106164281,
			"0.004": 10.9729994315,
			"0.005": 11.7605890797,
			"0.006": 16.2912967875,
			"0.007": 6.5859902149,
			"0.008": 0.0,
			"0.009": 0.0,
			"0.01": 0.0,
			"0.011": 0.0,
			"0.012": 0.0,
			"0.013": 0.0,
			"0.014": 0.0,
			"0.015": 0.0,
			"0.016": 0.0,
			"0.017": 0.0,
			"0.018": 0.0,
			"0.019": 0.0,
			"0.02": 0.0,
			"0.021": 0.0,
			"0.022": 0.0,
			"0.023": 0.0,
			"0.024": 0.0,
			"0.025": 0.0
		}
	}
}
