{
	 "smiles": "OC(=O)C1=C(OCC2=CN=CC=C2)C=CC=C1", 
	 "Tm": 434.15, 
	 "num_atms": 28, 
	 "gaussian": { 
		 "optdone": 1, 
		 "sigma_profile": "yes", 
		 "theory": "DFT", 
		 "functional": "B3LYP", 
		 "basiset": "6-31G**", 
		 "properties": { 
			 "R2extent": 5244.1607, 
			 "electric_dipole_moment_norm": 3.70749055157, 
			 "electric_quadrupole_moment_norm": 11.4121713898, 
			 "total_energy": -782.431543976, 
			 "HOMO_LUMO_gap": 0.19137, 
			 "cosmo_polarized_energy": -13.35, 
			 "cosmo_cavitation_energy": 32.69, 
			 "cosmo_dispersion_energy": -23.7, 
			 "cosmo_repulsion_energy": 1.81, 
			 "cosmo_total_nonelectrostatic_energy": 10.81, 
			 "SMD_solvation_energy": 5.28 
		},
		"coords": [
			{
				"x": 2.9875339529,
				"y": -0.7413878149,
				"z": -2.856450843,
				"element": "O" 
			},
			{
				"x": 2.1823147454,
				"y": -0.2952694825,
				"z": -1.8571433411,
				"element": "C" 
			},
			{
				"x": 2.2493399945,
				"y": 0.8566763559,
				"z": -1.4693607851,
				"element": "O" 
			},
			{
				"x": 1.263444214,
				"y": -1.3518124817,
				"z": -1.3584156439,
				"element": "C" 
			},
			{
				"x": 0.5646025501,
				"y": -1.212167972,
				"z": -0.1366595349,
				"element": "C" 
			},
			{
				"x": 0.7389508186,
				"y": -0.1355664538,
				"z": 0.691361769,
				"element": "O" 
			},
			{
				"x": -0.1233397297,
				"y": 0.9949325733,
				"z": 0.4373131589,
				"element": "C" 
			},
			{
				"x": 0.2782362193,
				"y": 2.1121912908,
				"z": 1.3594911341,
				"element": "C" 
			},
			{
				"x": -0.6098845408,
				"y": 2.6222222153,
				"z": 2.3105953738,
				"element": "C" 
			},
			{
				"x": -0.3228151522,
				"y": 3.6244680368,
				"z": 3.150717402,
				"element": "N" 
			},
			{
				"x": 0.9027219211,
				"y": 4.1543258934,
				"z": 3.067969029,
				"element": "C" 
			},
			{
				"x": 1.8732783016,
				"y": 3.7187411493,
				"z": 2.1617400574,
				"element": "C" 
			},
			{
				"x": 1.5557654413,
				"y": 2.6811872911,
				"z": 1.2902763076,
				"element": "C" 
			},
			{
				"x": -0.278153191,
				"y": -2.2400913393,
				"z": 0.2989357103,
				"element": "C" 
			},
			{
				"x": -0.4438503215,
				"y": -3.396088475,
				"z": -0.4596606787,
				"element": "C" 
			},
			{
				"x": 0.2406925279,
				"y": -3.5429021001,
				"z": -1.6687285259,
				"element": "C" 
			},
			{
				"x": 1.0912530227,
				"y": -2.5325347509,
				"z": -2.1036038654,
				"element": "C" 
			},
			{
				"x": 3.5201692376,
				"y": 0.0265617779,
				"z": -3.1208505408,
				"element": "H" 
			},
			{
				"x": -1.1686497805,
				"y": 0.7051971864,
				"z": 0.6108392625,
				"element": "H" 
			},
			{
				"x": -0.0092599818,
				"y": 1.2984887382,
				"z": -0.6086834261,
				"element": "H" 
			},
			{
				"x": -1.610888492,
				"y": 2.1987673015,
				"z": 2.3972769921,
				"element": "H" 
			},
			{
				"x": 1.1215153121,
				"y": 4.9662484091,
				"z": 3.7599725323,
				"element": "H" 
			},
			{
				"x": 2.8523565237,
				"y": 4.1877858833,
				"z": 2.1419735914,
				"element": "H" 
			},
			{
				"x": 2.2692080262,
				"y": 2.3063658084,
				"z": 0.5633954581,
				"element": "H" 
			},
			{
				"x": -0.7826452397,
				"y": -2.1137829816,
				"z": 1.2514220072,
				"element": "H" 
			},
			{
				"x": -1.1027946579,
				"y": -4.1834304148,
				"z": -0.1049303153,
				"element": "H" 
			},
			{
				"x": 0.1184909296,
				"y": -4.4424001223,
				"z": -2.2637254575,
				"element": "H" 
			},
			{
				"x": 1.6363073486,
				"y": -2.642525522,
				"z": -3.0335668281,
				"element": "H" 
			}
		],
		 "valence_orbital": [ 
			{
				"type": "occ",
				"energy": -0.27127,
				"method": "rhf"
			},
			{
				"type": "occ",
				"energy": -0.26703,
				"method": "rhf"
			},
			{
				"type": "occ",
				"energy": -0.25639,
				"method": "rhf"
			},
			{
				"type": "occ",
				"energy": -0.25054,
				"method": "rhf"
			},
			{
				"type": "occ",
				"energy": -0.24628,
				"method": "rhf"
			},
			{
				"type": "unocc",
				"energy": -0.05491,
				"method": "rhf"
			},
			{
				"type": "unocc",
				"energy": -0.02046,
				"method": "rhf"
			},
			{
				"type": "unocc",
				"energy": -0.01158,
				"method": "rhf"
			},
			{
				"type": "unocc",
				"energy": -0.00586,
				"method": "rhf"
			},
			{
				"type": "unocc",
				"energy": 0.04648,
				"method": "rhf"
			}
		],
		"cosmo_sigma_profile": { 
			"-0.025": 0.0,
			"-0.024": 0.0,
			"-0.023": 0.0,
			"-0.022": 0.0,
			"-0.021": 0.0,
			"-0.02": 0.0,
			"-0.019": 0.0,
			"-0.018": 0.522366739978,
			"-0.017": 0.983205237934,
			"-0.016": 0.669799849845,
			"-0.015": 0.907213372774,
			"-0.014": 1.01350106754,
			"-0.013": 0.647146872459,
			"-0.012": 0.29026018247,
			"-0.011": 0.608523819963,
			"-0.01": 1.37049307647,
			"-0.009": 0.342529697572,
			"-0.008": 0.345256719034,
			"-0.007": 6.10304585732,
			"-0.006": 18.6783973593,
			"-0.005": 18.9381302859,
			"-0.004": 20.2908722501,
			"-0.003": 17.8461663998,
			"-0.002": 17.5861566148,
			"-0.001": 15.7873539149,
			"0.0": 15.7812999795,
			"0.001": 17.9897444285,
			"0.002": 27.7432269827,
			"0.003": 24.2839627188,
			"0.004": 13.4233868731,
			"0.005": 6.6522904025,
			"0.006": 5.70389547032,
			"0.007": 5.63243289898,
			"0.008": 4.96000288698,
			"0.009": 4.80530773949,
			"0.01": 4.15072153215,
			"0.011": 2.85654153046,
			"0.012": 1.21831041895,
			"0.013": 1.12304368269,
			"0.014": 1.06398073138,
			"0.015": 0.479893810684,
			"0.016": 1.06815626267,
			"0.017": 0.299881912834,
			"0.018": 0.0,
			"0.019": 0.0,
			"0.02": 0.0,
			"0.021": 0.0,
			"0.022": 0.0,
			"0.023": 0.0,
			"0.024": 0.0,
			"0.025": 0.0
		}
	}
}
