{
	 "smiles": "[H]N([H])C1=NC([H])=NN1[H]", 
	 "Tm": 432.15, 
	 "num_atms": 10, 
	 "gaussian": { 
		 "optdone": 1, 
		 "sigma_profile": "yes", 
		 "theory": "DFT", 
		 "functional": "B3LYP", 
		 "basiset": "6-31G**", 
		 "properties": { 
			 "R2extent": 833.1257, 
			 "electric_dipole_moment_norm": 3.67900642022, 
			 "electric_quadrupole_moment_norm": 10.9810179528, 
			 "total_energy": -297.612047571, 
			 "HOMO_LUMO_gap": 0.25374, 
			 "cosmo_polarized_energy": -15.97, 
			 "cosmo_cavitation_energy": 14.23, 
			 "cosmo_dispersion_energy": -11.06, 
			 "cosmo_repulsion_energy": 0.97, 
			 "cosmo_total_nonelectrostatic_energy": 4.14, 
			 "SMD_solvation_energy": 0.14 
		},
		"coords": [
			{
				"x": 1.7421945295,
				"y": 0.1179158866,
				"z": -2.3443212615,
				"element": "N" 
			},
			{
				"x": 0.7448738719,
				"y": -0.4937829654,
				"z": -1.6058165735,
				"element": "C" 
			},
			{
				"x": 0.8855446569,
				"y": -1.0360044277,
				"z": -0.406552854,
				"element": "N" 
			},
			{
				"x": -0.3551857563,
				"y": -1.5605075908,
				"z": -0.1718431208,
				"element": "C" 
			},
			{
				"x": -1.2519044014,
				"y": -1.3777531597,
				"z": -1.1222673736,
				"element": "N" 
			},
			{
				"x": -0.5210829143,
				"y": -0.6814896615,
				"z": -2.0530946638,
				"element": "N" 
			},
			{
				"x": 2.5670320483,
				"y": 0.2730593087,
				"z": -1.7786993036,
				"element": "H" 
			},
			{
				"x": 1.461918251,
				"y": 0.9573464137,
				"z": -2.8357046587,
				"element": "H" 
			},
			{
				"x": -0.6016646296,
				"y": -2.0878550986,
				"z": 0.7397261968,
				"element": "H" 
			},
			{
				"x": -0.928525656,
				"y": -0.4527287054,
				"z": -2.9461263872,
				"element": "H" 
			}
		],
		 "valence_orbital": [ 
			{
				"type": "occ",
				"energy": -0.33658,
				"method": "rhf"
			},
			{
				"type": "occ",
				"energy": -0.32136,
				"method": "rhf"
			},
			{
				"type": "occ",
				"energy": -0.28575,
				"method": "rhf"
			},
			{
				"type": "occ",
				"energy": -0.26902,
				"method": "rhf"
			},
			{
				"type": "occ",
				"energy": -0.22731,
				"method": "rhf"
			},
			{
				"type": "unocc",
				"energy": 0.02643,
				"method": "rhf"
			},
			{
				"type": "unocc",
				"energy": 0.05937,
				"method": "rhf"
			},
			{
				"type": "unocc",
				"energy": 0.07271,
				"method": "rhf"
			},
			{
				"type": "unocc",
				"energy": 0.09567,
				"method": "rhf"
			},
			{
				"type": "unocc",
				"energy": 0.1256,
				"method": "rhf"
			}
		],
		"cosmo_sigma_profile": { 
			"-0.025": 0.0,
			"-0.024": 0.0,
			"-0.023": 0.0,
			"-0.022": 0.0,
			"-0.021": 0.0,
			"-0.02": 0.0,
			"-0.019": 0.0,
			"-0.018": 0.0,
			"-0.017": 1.00558479601,
			"-0.016": 1.85205465813,
			"-0.015": 2.57379844336,
			"-0.014": 3.46649884064,
			"-0.013": 3.42908170084,
			"-0.012": 3.04881541966,
			"-0.011": 3.3187150857,
			"-0.01": 3.09294127283,
			"-0.009": 2.86840948487,
			"-0.008": 2.75198366765,
			"-0.007": 3.42959935903,
			"-0.006": 3.14215096982,
			"-0.005": 4.4206966093,
			"-0.004": 1.98611847241,
			"-0.003": 3.59582538345,
			"-0.002": 2.83098113406,
			"-0.001": 3.57595226945,
			"0.0": 3.08951943752,
			"0.001": 5.83277860578,
			"0.002": 5.61708369951,
			"0.003": 5.90646378105,
			"0.004": 4.78013206707,
			"0.005": 4.90861703303,
			"0.006": 3.69972258694,
			"0.007": 4.0815841377,
			"0.008": 3.60605430216,
			"0.009": 3.28500281758,
			"0.01": 2.86023062767,
			"0.011": 2.05537350577,
			"0.012": 3.55698991387,
			"0.013": 2.92236268523,
			"0.014": 2.15125597533,
			"0.015": 2.44132276266,
			"0.016": 1.30369330677,
			"0.017": 0.742651409267,
			"0.018": 0.0118994538869,
			"0.019": 0.0,
			"0.02": 0.0,
			"0.021": 0.0,
			"0.022": 0.0,
			"0.023": 0.0,
			"0.024": 0.0,
			"0.025": 0.0
		}
	}
}
