{
	 "smiles": "NNC(=S)NC1=CC=CC=C1", 
	 "Tm": 411.15, 
	 "num_atms": 20, 
	 "gaussian": { 
		 "optdone": 1, 
		 "sigma_profile": "yes", 
		 "theory": "DFT", 
		 "functional": "B3LYP", 
		 "basiset": "6-31G**", 
		 "properties": { 
			 "R2extent": 2555.467, 
			 "electric_dipole_moment_norm": 5.04432066189, 
			 "electric_quadrupole_moment_norm": 13.9132945958, 
			 "total_energy": -834.586554808, 
			 "HOMO_LUMO_gap": 0.16873, 
			 "cosmo_polarized_energy": -15.67, 
			 "cosmo_cavitation_energy": 25.32, 
			 "cosmo_dispersion_energy": -18.98, 
			 "cosmo_repulsion_energy": 1.49, 
			 "cosmo_total_nonelectrostatic_energy": 7.83, 
			 "SMD_solvation_energy": 3.73 
		},
		"coords": [
			{
				"x": -1.8152815691,
				"y": -0.2530995561,
				"z": -1.2752806724,
				"element": "N" 
			},
			{
				"x": -0.8508019762,
				"y": -0.6676247528,
				"z": -2.2193341224,
				"element": "N" 
			},
			{
				"x": 0.1596986586,
				"y": -1.5575247227,
				"z": -1.9699838508,
				"element": "C" 
			},
			{
				"x": 0.7404024106,
				"y": -2.5745276851,
				"z": -3.1702513333,
				"element": "S" 
			},
			{
				"x": 0.6581685517,
				"y": -1.606360503,
				"z": -0.6874631758,
				"element": "N" 
			},
			{
				"x": 0.8523330077,
				"y": -0.5508959422,
				"z": 0.2423796127,
				"element": "C" 
			},
			{
				"x": 0.9022547059,
				"y": 0.7978820606,
				"z": -0.1415212481,
				"element": "C" 
			},
			{
				"x": 1.131202792,
				"y": 1.7840805643,
				"z": 0.8194646411,
				"element": "C" 
			},
			{
				"x": 1.3348505862,
				"y": 1.443541833,
				"z": 2.1574376341,
				"element": "C" 
			},
			{
				"x": 1.3065665169,
				"y": 0.098482132,
				"z": 2.5328677459,
				"element": "C" 
			},
			{
				"x": 1.0603866244,
				"y": -0.8935929991,
				"z": 1.5862913764,
				"element": "C" 
			},
			{
				"x": -1.430964437,
				"y": 0.5020723998,
				"z": -0.7115054001,
				"element": "H" 
			},
			{
				"x": -2.0305856471,
				"y": -1.0268738739,
				"z": -0.648145544,
				"element": "H" 
			},
			{
				"x": -1.2111527294,
				"y": -0.7297601342,
				"z": -3.1625382494,
				"element": "H" 
			},
			{
				"x": 1.2685358053,
				"y": -2.4036852367,
				"z": -0.561815493,
				"element": "H" 
			},
			{
				"x": 0.7872609379,
				"y": 1.0654809545,
				"z": -1.1869362803,
				"element": "H" 
			},
			{
				"x": 1.166941172,
				"y": 2.8248623928,
				"z": 0.5109324945,
				"element": "H" 
			},
			{
				"x": 1.5183418154,
				"y": 2.2156891228,
				"z": 2.8978209659,
				"element": "H" 
			},
			{
				"x": 1.4679320227,
				"y": -0.1822234916,
				"z": 3.5695219639,
				"element": "H" 
			},
			{
				"x": 1.0221107516,
				"y": -1.9385225622,
				"z": 1.8819589351,
				"element": "H" 
			}
		],
		 "valence_orbital": [ 
			{
				"type": "occ",
				"energy": -0.28454,
				"method": "rhf"
			},
			{
				"type": "occ",
				"energy": -0.2689,
				"method": "rhf"
			},
			{
				"type": "occ",
				"energy": -0.24742,
				"method": "rhf"
			},
			{
				"type": "occ",
				"energy": -0.22236,
				"method": "rhf"
			},
			{
				"type": "occ",
				"energy": -0.20753,
				"method": "rhf"
			},
			{
				"type": "unocc",
				"energy": -0.0388,
				"method": "rhf"
			},
			{
				"type": "unocc",
				"energy": -0.02238,
				"method": "rhf"
			},
			{
				"type": "unocc",
				"energy": 0.00514,
				"method": "rhf"
			},
			{
				"type": "unocc",
				"energy": 0.06673,
				"method": "rhf"
			},
			{
				"type": "unocc",
				"energy": 0.08035,
				"method": "rhf"
			}
		],
		"cosmo_sigma_profile": { 
			"-0.025": 0.0,
			"-0.024": 0.0,
			"-0.023": 0.0,
			"-0.022": 0.0,
			"-0.021": 0.0,
			"-0.02": 0.0,
			"-0.019": 0.0,
			"-0.018": 0.0,
			"-0.017": 0.0,
			"-0.016": 0.0,
			"-0.015": 0.137840566804,
			"-0.014": 1.26207569272,
			"-0.013": 1.59521102786,
			"-0.012": 3.50735951737,
			"-0.011": 3.14090203462,
			"-0.01": 1.96637338255,
			"-0.009": 3.90853042477,
			"-0.008": 4.05164520798,
			"-0.007": 6.09518175928,
			"-0.006": 13.5295150281,
			"-0.005": 15.5004568199,
			"-0.004": 13.9007345608,
			"-0.003": 11.2126535986,
			"-0.002": 10.9268882295,
			"-0.001": 10.3044475641,
			"0.0": 11.2740844552,
			"0.001": 10.3031982445,
			"0.002": 10.8183948002,
			"0.003": 10.6033896208,
			"0.004": 11.0594597736,
			"0.005": 11.3630098523,
			"0.006": 3.85376313533,
			"0.007": 3.73178555421,
			"0.008": 4.41320737714,
			"0.009": 5.88898163477,
			"0.01": 7.69040101477,
			"0.011": 6.70102885783,
			"0.012": 3.37448536183,
			"0.013": 0.767502342277,
			"0.014": 0.350028242376,
			"0.015": 0.87600486072,
			"0.016": 0.0633701232329,
			"0.017": 0.0,
			"0.018": 0.0,
			"0.019": 0.0,
			"0.02": 0.0,
			"0.021": 0.0,
			"0.022": 0.0,
			"0.023": 0.0,
			"0.024": 0.0,
			"0.025": 0.0
		}
	}
}
