{
	 "smiles": "O=CC1=CC=C(O1)C1=NC2=C(S1)C=CC=C2", 
	 "Tm": 451.15, 
	 "num_atms": 23, 
	 "gaussian": { 
		 "optdone": 1, 
		 "sigma_profile": "yes", 
		 "theory": "DFT", 
		 "functional": "B3LYP", 
		 "basiset": "6-31G**", 
		 "properties": { 
			 "R2extent": 6030.609, 
			 "electric_dipole_moment_norm": 3.28027924726, 
			 "electric_quadrupole_moment_norm": 25.0047842056, 
			 "total_energy": -1064.85875291, 
			 "HOMO_LUMO_gap": 0.13966, 
			 "cosmo_polarized_energy": -11.96, 
			 "cosmo_cavitation_energy": 30.78, 
			 "cosmo_dispersion_energy": -22.91, 
			 "cosmo_repulsion_energy": 1.72, 
			 "cosmo_total_nonelectrostatic_energy": 9.58, 
			 "SMD_solvation_energy": 4.66 
		},
		"coords": [
			{
				"x": -0.0672214612,
				"y": -5.2570112908,
				"z": -3.5712777682,
				"element": "O" 
			},
			{
				"x": 1.0471387578,
				"y": -5.1313108069,
				"z": -3.0975156164,
				"element": "C" 
			},
			{
				"x": 1.4163533771,
				"y": -4.1755182265,
				"z": -2.0635470585,
				"element": "C" 
			},
			{
				"x": 2.6236071287,
				"y": -3.9293771329,
				"z": -1.4453580048,
				"element": "C" 
			},
			{
				"x": 2.4027001718,
				"y": -2.8865488718,
				"z": -0.5145917824,
				"element": "C" 
			},
			{
				"x": 1.0673333049,
				"y": -2.5597834616,
				"z": -0.6234889162,
				"element": "C" 
			},
			{
				"x": 0.4623885826,
				"y": -3.3353377419,
				"z": -1.5591379802,
				"element": "O" 
			},
			{
				"x": 0.2596636366,
				"y": -1.5787193749,
				"z": 0.0625861249,
				"element": "C" 
			},
			{
				"x": 0.7364852362,
				"y": -0.783738038,
				"z": 0.9767724833,
				"element": "N" 
			},
			{
				"x": -0.2483052818,
				"y": 0.0495308654,
				"z": 1.4650429091,
				"element": "C" 
			},
			{
				"x": -1.5337663276,
				"y": -0.1258226681,
				"z": 0.8897248056,
				"element": "C" 
			},
			{
				"x": -1.4689877221,
				"y": -1.3982921492,
				"z": -0.3114646813,
				"element": "S" 
			},
			{
				"x": -2.623092026,
				"y": 0.6515319878,
				"z": 1.2912850082,
				"element": "C" 
			},
			{
				"x": -2.4141726536,
				"y": 1.610692205,
				"z": 2.2784707151,
				"element": "C" 
			},
			{
				"x": -1.1446191341,
				"y": 1.7948642603,
				"z": 2.8572488324,
				"element": "C" 
			},
			{
				"x": -0.0611397256,
				"y": 1.0238906473,
				"z": 2.4599144434,
				"element": "C" 
			},
			{
				"x": 1.903264172,
				"y": -5.7579513657,
				"z": -3.4284797363,
				"element": "H" 
			},
			{
				"x": 3.5528817643,
				"y": -4.4444597639,
				"z": -1.6455799244,
				"element": "H" 
			},
			{
				"x": 3.1085798599,
				"y": -2.4206501824,
				"z": 0.155842976,
				"element": "H" 
			},
			{
				"x": -3.604435913,
				"y": 0.5143099438,
				"z": 0.8488221132,
				"element": "H" 
			},
			{
				"x": -3.2463591619,
				"y": 2.2263672085,
				"z": 2.606196731,
				"element": "H" 
			},
			{
				"x": -1.0138515162,
				"y": 2.5512943253,
				"z": 3.6250212967,
				"element": "H" 
			},
			{
				"x": 0.923954931,
				"y": 1.1530396312,
				"z": 2.8958130297,
				"element": "H" 
			}
		],
		 "valence_orbital": [ 
			{
				"type": "occ",
				"energy": -0.28949,
				"method": "rhf"
			},
			{
				"type": "occ",
				"energy": -0.2779,
				"method": "rhf"
			},
			{
				"type": "occ",
				"energy": -0.26074,
				"method": "rhf"
			},
			{
				"type": "occ",
				"energy": -0.24279,
				"method": "rhf"
			},
			{
				"type": "occ",
				"energy": -0.22722,
				"method": "rhf"
			},
			{
				"type": "unocc",
				"energy": -0.08756,
				"method": "rhf"
			},
			{
				"type": "unocc",
				"energy": -0.03526,
				"method": "rhf"
			},
			{
				"type": "unocc",
				"energy": -0.01309,
				"method": "rhf"
			},
			{
				"type": "unocc",
				"energy": 0.00646,
				"method": "rhf"
			},
			{
				"type": "unocc",
				"energy": 0.0129,
				"method": "rhf"
			}
		],
		"cosmo_sigma_profile": { 
			"-0.025": 0.0,
			"-0.024": 0.0,
			"-0.023": 0.0,
			"-0.022": 0.0,
			"-0.021": 0.0,
			"-0.02": 0.0,
			"-0.019": 0.0,
			"-0.018": 0.0,
			"-0.017": 0.0,
			"-0.016": 0.0,
			"-0.015": 0.0,
			"-0.014": 0.0,
			"-0.013": 0.0,
			"-0.012": 0.0,
			"-0.011": 0.0,
			"-0.01": 0.402813484686,
			"-0.009": 4.15386137096,
			"-0.008": 6.38662074909,
			"-0.007": 10.6556813057,
			"-0.006": 14.2165316314,
			"-0.005": 14.9652285381,
			"-0.004": 13.3467907022,
			"-0.003": 13.6175871422,
			"-0.002": 18.454891658,
			"-0.001": 20.0799989231,
			"0.0": 21.5791416691,
			"0.001": 25.9547900092,
			"0.002": 21.8160926114,
			"0.003": 18.4552722848,
			"0.004": 13.9724532885,
			"0.005": 5.00379215965,
			"0.006": 3.27036351464,
			"0.007": 2.92324081359,
			"0.008": 3.55002624653,
			"0.009": 3.71605070606,
			"0.01": 3.9545838622,
			"0.011": 5.50586120572,
			"0.012": 4.5708462835,
			"0.013": 1.11107585459,
			"0.014": 0.0,
			"0.015": 0.0,
			"0.016": 0.0,
			"0.017": 0.0,
			"0.018": 0.0,
			"0.019": 0.0,
			"0.02": 0.0,
			"0.021": 0.0,
			"0.022": 0.0,
			"0.023": 0.0,
			"0.024": 0.0,
			"0.025": 0.0
		}
	}
}
