{
	 "smiles": "OC(=O)C1=C(C=CS1)S(=O)(=O)NC1=CC=C(F)C=C1", 
	 "Tm": 454.15, 
	 "num_atms": 27, 
	 "gaussian": { 
		 "optdone": 1, 
		 "sigma_profile": "yes", 
		 "theory": "DFT", 
		 "functional": "B3LYP", 
		 "basiset": "6-31G**", 
		 "properties": { 
			 "R2extent": 6214.482, 
			 "electric_dipole_moment_norm": 6.25702523089, 
			 "electric_quadrupole_moment_norm": 20.1395215959, 
			 "total_energy": -1675.76317972, 
			 "HOMO_LUMO_gap": 0.13974, 
			 "cosmo_polarized_energy": -20.76, 
			 "cosmo_cavitation_energy": 35.4, 
			 "cosmo_dispersion_energy": -25.52, 
			 "cosmo_repulsion_energy": 1.84, 
			 "cosmo_total_nonelectrostatic_energy": 11.72, 
			 "SMD_solvation_energy": 6.53 
		},
		"coords": [
			{
				"x": -1.9211691078,
				"y": 2.2358321207,
				"z": -2.1771490769,
				"element": "O" 
			},
			{
				"x": -1.1914261324,
				"y": 1.4130562996,
				"z": -1.3923361821,
				"element": "C" 
			},
			{
				"x": -0.735834435,
				"y": 0.3886427467,
				"z": -1.855577711,
				"element": "O" 
			},
			{
				"x": -0.9539585448,
				"y": 1.865790509,
				"z": 0.0019590546,
				"element": "C" 
			},
			{
				"x": -0.7023449491,
				"y": 1.1098154096,
				"z": 1.1306985195,
				"element": "C" 
			},
			{
				"x": -0.4713794212,
				"y": 1.8892712108,
				"z": 2.2985447382,
				"element": "C" 
			},
			{
				"x": -0.5409630275,
				"y": 3.2333111344,
				"z": 2.0513841581,
				"element": "C" 
			},
			{
				"x": -0.8823820141,
				"y": 3.5691659137,
				"z": 0.3931241409,
				"element": "S" 
			},
			{
				"x": -0.7555526684,
				"y": -0.695527676,
				"z": 1.2432794196,
				"element": "S" 
			},
			{
				"x": -0.3759748481,
				"y": -1.0035630443,
				"z": 2.6215575249,
				"element": "O" 
			},
			{
				"x": -2.0225638686,
				"y": -1.1346238264,
				"z": 0.6698262547,
				"element": "O" 
			},
			{
				"x": 0.4464342941,
				"y": -1.2776534703,
				"z": 0.2225088096,
				"element": "N" 
			},
			{
				"x": 1.8280078424,
				"y": -1.0131465774,
				"z": 0.4755314049,
				"element": "C" 
			},
			{
				"x": 2.572145391,
				"y": -0.2805147549,
				"z": -0.4588511162,
				"element": "C" 
			},
			{
				"x": 3.9365129099,
				"y": -0.0709202042,
				"z": -0.2630890503,
				"element": "C" 
			},
			{
				"x": 4.5329216066,
				"y": -0.5770611005,
				"z": 0.8857359096,
				"element": "C" 
			},
			{
				"x": 5.8507377181,
				"y": -0.3669131349,
				"z": 1.0871758608,
				"element": "F" 
			},
			{
				"x": 3.8109609852,
				"y": -1.2976317504,
				"z": 1.8315208793,
				"element": "C" 
			},
			{
				"x": 2.4540086207,
				"y": -1.5295485692,
				"z": 1.6178586517,
				"element": "C" 
			},
			{
				"x": -2.3867339263,
				"y": 2.9017013385,
				"z": -1.6494496604,
				"element": "H" 
			},
			{
				"x": -0.2687413947,
				"y": 1.4470005022,
				"z": 3.2650583049,
				"element": "H" 
			},
			{
				"x": -0.3919006257,
				"y": 4.0493419601,
				"z": 2.7452583216,
				"element": "H" 
			},
			{
				"x": 0.1529591898,
				"y": -1.0699234995,
				"z": -0.7335241684,
				"element": "H" 
			},
			{
				"x": 2.0806991161,
				"y": 0.119268175,
				"z": -1.3409546082,
				"element": "H" 
			},
			{
				"x": 4.5326311499,
				"y": 0.4835642965,
				"z": -0.9795101863,
				"element": "H" 
			},
			{
				"x": 4.3165570624,
				"y": -1.6841466666,
				"z": 2.709675491,
				"element": "H" 
			},
			{
				"x": 1.8734490775,
				"y": -2.1036873422,
				"z": 2.3292443159,
				"element": "H" 
			}
		],
		 "valence_orbital": [ 
			{
				"type": "occ",
				"energy": -0.3055,
				"method": "rhf"
			},
			{
				"type": "occ",
				"energy": -0.29372,
				"method": "rhf"
			},
			{
				"type": "occ",
				"energy": -0.2819,
				"method": "rhf"
			},
			{
				"type": "occ",
				"energy": -0.26686,
				"method": "rhf"
			},
			{
				"type": "occ",
				"energy": -0.23355,
				"method": "rhf"
			},
			{
				"type": "unocc",
				"energy": -0.09381,
				"method": "rhf"
			},
			{
				"type": "unocc",
				"energy": -0.02935,
				"method": "rhf"
			},
			{
				"type": "unocc",
				"energy": -0.01798,
				"method": "rhf"
			},
			{
				"type": "unocc",
				"energy": -0.01265,
				"method": "rhf"
			},
			{
				"type": "unocc",
				"energy": -0.00571,
				"method": "rhf"
			}
		],
		"cosmo_sigma_profile": { 
			"-0.025": 0.0,
			"-0.024": 0.0,
			"-0.023": 0.0,
			"-0.022": 0.0,
			"-0.021": 0.0,
			"-0.02": 0.0351264350342,
			"-0.019": 0.919928310409,
			"-0.018": 1.3520921125,
			"-0.017": 0.432566248639,
			"-0.016": 1.09340460462,
			"-0.015": 0.791016814694,
			"-0.014": 0.887287617751,
			"-0.013": 1.07451103085,
			"-0.012": 0.932496639049,
			"-0.011": 2.00983728435,
			"-0.01": 4.09387096666,
			"-0.009": 4.14069342212,
			"-0.008": 6.37369794164,
			"-0.007": 10.3261201348,
			"-0.006": 12.5200994359,
			"-0.005": 13.4144959256,
			"-0.004": 13.2544717449,
			"-0.003": 15.8723073351,
			"-0.002": 18.0924781013,
			"-0.001": 22.08471909,
			"0.0": 23.3196881671,
			"0.001": 21.9772645798,
			"0.002": 19.788785757,
			"0.003": 19.7764763062,
			"0.004": 15.9209776406,
			"0.005": 9.1899824238,
			"0.006": 7.38783884811,
			"0.007": 8.19348932762,
			"0.008": 6.9901317985,
			"0.009": 9.44808569203,
			"0.01": 9.79378432303,
			"0.011": 6.10811518077,
			"0.012": 0.200592813525,
			"0.013": 0.0,
			"0.014": 0.0,
			"0.015": 0.0,
			"0.016": 0.0,
			"0.017": 0.0,
			"0.018": 0.0,
			"0.019": 0.0,
			"0.02": 0.0,
			"0.021": 0.0,
			"0.022": 0.0,
			"0.023": 0.0,
			"0.024": 0.0,
			"0.025": 0.0
		}
	}
}
