{
	 "smiles": "NC(=O)C1CC1(Cl)Cl", 
	 "Tm": 421.15, 
	 "num_atms": 13, 
	 "gaussian": { 
		 "optdone": 1, 
		 "sigma_profile": "yes", 
		 "theory": "DFT", 
		 "functional": "B3LYP", 
		 "basiset": "6-31G**", 
		 "properties": { 
			 "R2extent": 1532.5405, 
			 "electric_dipole_moment_norm": 4.90393744862, 
			 "electric_quadrupole_moment_norm": 13.9256918518, 
			 "total_energy": -1205.76989848, 
			 "HOMO_LUMO_gap": 0.24058, 
			 "cosmo_polarized_energy": -15.35, 
			 "cosmo_cavitation_energy": 20.69, 
			 "cosmo_dispersion_energy": -15.19, 
			 "cosmo_repulsion_energy": 1.29, 
			 "cosmo_total_nonelectrostatic_energy": 6.8, 
			 "SMD_solvation_energy": 3.53 
		},
		"coords": [
			{
				"x": -1.3211726678,
				"y": 1.7298517493,
				"z": -2.5576827012,
				"element": "N" 
			},
			{
				"x": -1.5155691023,
				"y": 0.8447038363,
				"z": -1.5375170812,
				"element": "C" 
			},
			{
				"x": -2.1586514028,
				"y": -0.1843531409,
				"z": -1.6560330876,
				"element": "O" 
			},
			{
				"x": -0.8881599207,
				"y": 1.2106902293,
				"z": -0.204187385,
				"element": "C" 
			},
			{
				"x": 0.2402079294,
				"y": 2.2149766193,
				"z": -0.0006013739,
				"element": "C" 
			},
			{
				"x": 0.4960364711,
				"y": 0.7504725974,
				"z": 0.1675759455,
				"element": "C" 
			},
			{
				"x": 1.4986881892,
				"y": -0.0777428143,
				"z": -1.0419849972,
				"element": "Cl" 
			},
			{
				"x": 0.7487449952,
				"y": 0.1194483323,
				"z": 1.8119422173,
				"element": "Cl" 
			},
			{
				"x": -1.7711553782,
				"y": 1.5305577678,
				"z": -3.4385376836,
				"element": "H" 
			},
			{
				"x": -0.9313652778,
				"y": 2.6454047973,
				"z": -2.410006008,
				"element": "H" 
			},
			{
				"x": -1.6082122385,
				"y": 1.1216505213,
				"z": 0.6039483149,
				"element": "H" 
			},
			{
				"x": 0.2217800332,
				"y": 2.8337777389,
				"z": 0.8906708064,
				"element": "H" 
			},
			{
				"x": 0.6940283698,
				"y": 2.6803617658,
				"z": -0.8705869663,
				"element": "H" 
			}
		],
		 "valence_orbital": [ 
			{
				"type": "occ",
				"energy": -0.32155,
				"method": "rhf"
			},
			{
				"type": "occ",
				"energy": -0.31013,
				"method": "rhf"
			},
			{
				"type": "occ",
				"energy": -0.28738,
				"method": "rhf"
			},
			{
				"type": "occ",
				"energy": -0.27851,
				"method": "rhf"
			},
			{
				"type": "occ",
				"energy": -0.25771,
				"method": "rhf"
			},
			{
				"type": "unocc",
				"energy": -0.01713,
				"method": "rhf"
			},
			{
				"type": "unocc",
				"energy": 0.00569,
				"method": "rhf"
			},
			{
				"type": "unocc",
				"energy": 0.02069,
				"method": "rhf"
			},
			{
				"type": "unocc",
				"energy": 0.06314,
				"method": "rhf"
			},
			{
				"type": "unocc",
				"energy": 0.09938,
				"method": "rhf"
			}
		],
		"cosmo_sigma_profile": { 
			"-0.025": 0.0,
			"-0.024": 0.0,
			"-0.023": 0.0,
			"-0.022": 0.0,
			"-0.021": 0.0,
			"-0.02": 0.0,
			"-0.019": 0.0,
			"-0.018": 0.0,
			"-0.017": 0.0,
			"-0.016": 0.0,
			"-0.015": 0.79197520639,
			"-0.014": 2.28274239194,
			"-0.013": 2.70365221053,
			"-0.012": 3.24108142951,
			"-0.011": 2.13283139861,
			"-0.01": 2.06340866708,
			"-0.009": 3.23798051474,
			"-0.008": 5.95576285053,
			"-0.007": 6.1923193469,
			"-0.006": 6.74978276921,
			"-0.005": 5.96095605852,
			"-0.004": 6.58613742339,
			"-0.003": 8.55373854042,
			"-0.002": 8.01895329245,
			"-0.001": 9.22793899542,
			"0.0": 9.56840477921,
			"0.001": 9.83656185874,
			"0.002": 11.2963987948,
			"0.003": 14.6756359052,
			"0.004": 21.4109653004,
			"0.005": 7.61807493242,
			"0.006": 1.75238980413,
			"0.007": 1.25420726612,
			"0.008": 1.41235645332,
			"0.009": 1.05612774997,
			"0.01": 1.5100713539,
			"0.011": 1.73697256308,
			"0.012": 2.03181439935,
			"0.013": 5.79353113354,
			"0.014": 3.55453601619,
			"0.015": 0.260508375036,
			"0.016": 0.0,
			"0.017": 0.0,
			"0.018": 0.0,
			"0.019": 0.0,
			"0.02": 0.0,
			"0.021": 0.0,
			"0.022": 0.0,
			"0.023": 0.0,
			"0.024": 0.0,
			"0.025": 0.0
		}
	}
}
