{
	 "smiles": "COC(=O)NC1=C(C=CC=C1)C(O)=O", 
	 "Tm": 451.15, 
	 "num_atms": 23, 
	 "gaussian": { 
		 "optdone": 1, 
		 "sigma_profile": "yes", 
		 "theory": "DFT", 
		 "functional": "B3LYP", 
		 "basiset": "6-31G**", 
		 "properties": { 
			 "R2extent": 3094.6184, 
			 "electric_dipole_moment_norm": 6.65086529408, 
			 "electric_quadrupole_moment_norm": 21.8447985651, 
			 "total_energy": -704.053842706, 
			 "HOMO_LUMO_gap": 0.21282, 
			 "cosmo_polarized_energy": -20.22, 
			 "cosmo_cavitation_energy": 27.96, 
			 "cosmo_dispersion_energy": -20.1, 
			 "cosmo_repulsion_energy": 1.59, 
			 "cosmo_total_nonelectrostatic_energy": 9.45, 
			 "SMD_solvation_energy": 7.84 
		},
		"coords": [
			{
				"x": 1.8115416932,
				"y": 3.0444327315,
				"z": 0.5210902372,
				"element": "C" 
			},
			{
				"x": 0.8703732235,
				"y": 2.2858025564,
				"z": -0.2600634913,
				"element": "O" 
			},
			{
				"x": 0.5310925964,
				"y": 1.0912887071,
				"z": 0.2711229542,
				"element": "C" 
			},
			{
				"x": 0.963311653,
				"y": 0.6245934801,
				"z": 1.2978171379,
				"element": "O" 
			},
			{
				"x": -0.4486988289,
				"y": 0.4974617758,
				"z": -0.5396384321,
				"element": "N" 
			},
			{
				"x": -0.6772255998,
				"y": -0.9206899898,
				"z": -0.4450767885,
				"element": "C" 
			},
			{
				"x": -1.4518020796,
				"y": -1.4609640482,
				"z": 0.5979987011,
				"element": "C" 
			},
			{
				"x": -1.6142986501,
				"y": -2.8521905941,
				"z": 0.6558990754,
				"element": "C" 
			},
			{
				"x": -1.065712851,
				"y": -3.6854623301,
				"z": -0.313752388,
				"element": "C" 
			},
			{
				"x": -0.3271370598,
				"y": -3.1348672681,
				"z": -1.3628133506,
				"element": "C" 
			},
			{
				"x": -0.1250641885,
				"y": -1.7573233717,
				"z": -1.4183837598,
				"element": "C" 
			},
			{
				"x": -2.1754050779,
				"y": -0.6678252234,
				"z": 1.6629029556,
				"element": "C" 
			},
			{
				"x": -2.3633070777,
				"y": 0.6472531846,
				"z": 1.4383105002,
				"element": "O" 
			},
			{
				"x": -2.6248256456,
				"y": -1.1954633436,
				"z": 2.6548837093,
				"element": "O" 
			},
			{
				"x": 1.4021649545,
				"y": 3.2572455181,
				"z": 1.5111434135,
				"element": "H" 
			},
			{
				"x": 2.7487832028,
				"y": 2.4944895207,
				"z": 0.6324171014,
				"element": "H" 
			},
			{
				"x": 1.9719468191,
				"y": 3.9677803172,
				"z": -0.0347133744,
				"element": "H" 
			},
			{
				"x": -0.4705294988,
				"y": 0.880142592,
				"z": -1.4781960553,
				"element": "H" 
			},
			{
				"x": -2.1961084581,
				"y": -3.2511674387,
				"z": 1.4793143878,
				"element": "H" 
			},
			{
				"x": -1.2155810076,
				"y": -4.759015562,
				"z": -0.2546545005,
				"element": "H" 
			},
			{
				"x": 0.103863113,
				"y": -3.7737985002,
				"z": -2.1277091096,
				"element": "H" 
			},
			{
				"x": 0.4769917713,
				"y": -1.322226097,
				"z": -2.2115982455,
				"element": "H" 
			},
			{
				"x": -1.9191730033,
				"y": 0.8986033833,
				"z": 0.6053993219,
				"element": "H" 
			}
		],
		 "valence_orbital": [ 
			{
				"type": "occ",
				"energy": -0.30212,
				"method": "rhf"
			},
			{
				"type": "occ",
				"energy": -0.29738,
				"method": "rhf"
			},
			{
				"type": "occ",
				"energy": -0.27079,
				"method": "rhf"
			},
			{
				"type": "occ",
				"energy": -0.26238,
				"method": "rhf"
			},
			{
				"type": "occ",
				"energy": -0.26087,
				"method": "rhf"
			},
			{
				"type": "unocc",
				"energy": -0.04805,
				"method": "rhf"
			},
			{
				"type": "unocc",
				"energy": -0.02454,
				"method": "rhf"
			},
			{
				"type": "unocc",
				"energy": 0.02268,
				"method": "rhf"
			},
			{
				"type": "unocc",
				"energy": 0.05609,
				"method": "rhf"
			},
			{
				"type": "unocc",
				"energy": 0.06933,
				"method": "rhf"
			}
		],
		"cosmo_sigma_profile": { 
			"-0.025": 0.0,
			"-0.024": 0.0,
			"-0.023": 0.0,
			"-0.022": 0.0,
			"-0.021": 0.0,
			"-0.02": 0.0,
			"-0.019": 0.0,
			"-0.018": 0.0,
			"-0.017": 0.0,
			"-0.016": 0.484329825473,
			"-0.015": 1.07647156011,
			"-0.014": 1.16536973462,
			"-0.013": 0.740371706461,
			"-0.012": 1.61757504028,
			"-0.011": 1.87106720556,
			"-0.01": 3.01229621597,
			"-0.009": 3.25162696231,
			"-0.008": 3.90022099176,
			"-0.007": 9.77987524266,
			"-0.006": 14.6324283796,
			"-0.005": 19.0255375084,
			"-0.004": 18.1754937087,
			"-0.003": 14.207506585,
			"-0.002": 11.1366636176,
			"-0.001": 9.67805037993,
			"0.0": 10.2479652309,
			"0.001": 10.4480140749,
			"0.002": 14.7361135388,
			"0.003": 16.403004564,
			"0.004": 6.69953906241,
			"0.005": 5.40922020923,
			"0.006": 5.88971715549,
			"0.007": 5.72658762922,
			"0.008": 3.93552524785,
			"0.009": 4.83523398651,
			"0.01": 6.32775953396,
			"0.011": 9.00377434927,
			"0.012": 7.72595630172,
			"0.013": 1.9681997187,
			"0.014": 0.189394870499,
			"0.015": 0.0,
			"0.016": 0.0,
			"0.017": 0.0,
			"0.018": 0.0,
			"0.019": 0.0,
			"0.02": 0.0,
			"0.021": 0.0,
			"0.022": 0.0,
			"0.023": 0.0,
			"0.024": 0.0,
			"0.025": 0.0
		}
	}
}
