{
	 "smiles": "OC1=C(F)C(F)=C(C=O)C=C1", 
	 "Tm": 415.15, 
	 "num_atms": 15, 
	 "gaussian": { 
		 "optdone": 1, 
		 "sigma_profile": "yes", 
		 "theory": "DFT", 
		 "functional": "B3LYP", 
		 "basiset": "6-31G**", 
		 "properties": { 
			 "R2extent": 1887.7298, 
			 "electric_dipole_moment_norm": 5.99263531762, 
			 "electric_quadrupole_moment_norm": 3.2971775718, 
			 "total_energy": -619.240148013, 
			 "HOMO_LUMO_gap": 0.18781, 
			 "cosmo_polarized_energy": -15.27, 
			 "cosmo_cavitation_energy": 21.25, 
			 "cosmo_dispersion_energy": -15.41, 
			 "cosmo_repulsion_energy": 1.19, 
			 "cosmo_total_nonelectrostatic_energy": 7.04, 
			 "SMD_solvation_energy": 6.16 
		},
		"coords": [
			{
				"x": -2.6898052982,
				"y": -1.4166306081,
				"z": -0.3126961398,
				"element": "O" 
			},
			{
				"x": -1.4926488051,
				"y": -0.8247966441,
				"z": -0.0935467948,
				"element": "C" 
			},
			{
				"x": -1.1649456115,
				"y": -0.5394844524,
				"z": 1.2404475225,
				"element": "C" 
			},
			{
				"x": -2.0273780991,
				"y": -0.856231741,
				"z": 2.2150272831,
				"element": "F" 
			},
			{
				"x": 0.0430465037,
				"y": 0.0670517265,
				"z": 1.5579374608,
				"element": "C" 
			},
			{
				"x": 0.2926642258,
				"y": 0.3104344082,
				"z": 2.8442306334,
				"element": "F" 
			},
			{
				"x": 0.9666008193,
				"y": 0.4102802201,
				"z": 0.554787709,
				"element": "C" 
			},
			{
				"x": 2.2657002054,
				"y": 1.0565103498,
				"z": 0.8322507312,
				"element": "C" 
			},
			{
				"x": 2.6983119238,
				"y": 1.3684648385,
				"z": 1.9227500819,
				"element": "O" 
			},
			{
				"x": 0.6227773455,
				"y": 0.1177745306,
				"z": -0.7739679133,
				"element": "C" 
			},
			{
				"x": -0.5821605988,
				"y": -0.4886081845,
				"z": -1.1042283173,
				"element": "C" 
			},
			{
				"x": -2.8061090044,
				"y": -1.5638156487,
				"z": -1.26078851,
				"element": "H" 
			},
			{
				"x": 2.8553199062,
				"y": 1.2479010354,
				"z": -0.0942913605,
				"element": "H" 
			},
			{
				"x": 1.326791358,
				"y": 0.3773111094,
				"z": -1.5600838036,
				"element": "H" 
			},
			{
				"x": -0.8281648705,
				"y": -0.7061609397,
				"z": -2.1402285828,
				"element": "H" 
			}
		],
		 "valence_orbital": [ 
			{
				"type": "occ",
				"energy": -0.38166,
				"method": "rhf"
			},
			{
				"type": "occ",
				"energy": -0.3466,
				"method": "rhf"
			},
			{
				"type": "occ",
				"energy": -0.26374,
				"method": "rhf"
			},
			{
				"type": "occ",
				"energy": -0.25475,
				"method": "rhf"
			},
			{
				"type": "occ",
				"energy": -0.25144,
				"method": "rhf"
			},
			{
				"type": "unocc",
				"energy": -0.06363,
				"method": "rhf"
			},
			{
				"type": "unocc",
				"energy": -0.02082,
				"method": "rhf"
			},
			{
				"type": "unocc",
				"energy": 0.03797,
				"method": "rhf"
			},
			{
				"type": "unocc",
				"energy": 0.0386,
				"method": "rhf"
			},
			{
				"type": "unocc",
				"energy": 0.06113,
				"method": "rhf"
			}
		],
		"cosmo_sigma_profile": { 
			"-0.025": 0.0,
			"-0.024": 0.0,
			"-0.023": 0.0,
			"-0.022": 0.0,
			"-0.021": 0.0,
			"-0.02": 0.153491797684,
			"-0.019": 1.13434696305,
			"-0.018": 0.945103393405,
			"-0.017": 1.11752972412,
			"-0.016": 1.38882118263,
			"-0.015": 1.33110996711,
			"-0.014": 0.683032344542,
			"-0.013": 0.888437230646,
			"-0.012": 0.988415679137,
			"-0.011": 1.40367037883,
			"-0.01": 0.874482046518,
			"-0.009": 1.7978084161,
			"-0.008": 5.40988966381,
			"-0.007": 6.41394989345,
			"-0.006": 7.09172310878,
			"-0.005": 5.15132408883,
			"-0.004": 4.94644766085,
			"-0.003": 5.82366474824,
			"-0.002": 12.9150250504,
			"-0.001": 17.1567242112,
			"0.0": 10.778361794,
			"0.001": 10.2288702062,
			"0.002": 11.3566434322,
			"0.003": 17.4688293007,
			"0.004": 10.8102503894,
			"0.005": 4.77717733601,
			"0.006": 3.15223746315,
			"0.007": 3.76555099069,
			"0.008": 4.10415153202,
			"0.009": 4.62145785107,
			"0.01": 3.50752811028,
			"0.011": 4.61090971331,
			"0.012": 3.56923066647,
			"0.013": 0.892437127186,
			"0.014": 0.0,
			"0.015": 0.0,
			"0.016": 0.0,
			"0.017": 0.0,
			"0.018": 0.0,
			"0.019": 0.0,
			"0.02": 0.0,
			"0.021": 0.0,
			"0.022": 0.0,
			"0.023": 0.0,
			"0.024": 0.0,
			"0.025": 0.0
		}
	}
}
