{
	 "smiles": "CC(C)(NC(=O)NC1=CC=CC=C1)C(O)=O", 
	 "Tm": 439.15, 
	 "num_atms": 30, 
	 "gaussian": { 
		 "optdone": 1, 
		 "sigma_profile": "yes", 
		 "theory": "DFT", 
		 "functional": "B3LYP", 
		 "basiset": "6-31G**", 
		 "properties": { 
			 "R2extent": 5462.3376, 
			 "electric_dipole_moment_norm": 4.01884026057, 
			 "electric_quadrupole_moment_norm": 17.901605585, 
			 "total_energy": -762.823237154, 
			 "HOMO_LUMO_gap": 0.21243, 
			 "cosmo_polarized_energy": -21.98, 
			 "cosmo_cavitation_energy": 33.52, 
			 "cosmo_dispersion_energy": -23.99, 
			 "cosmo_repulsion_energy": 1.85, 
			 "cosmo_total_nonelectrostatic_energy": 11.38, 
			 "SMD_solvation_energy": 7.51 
		},
		"coords": [
			{
				"x": 1.6096416735,
				"y": 2.3045750131,
				"z": 1.8902244037,
				"element": "C" 
			},
			{
				"x": 1.525946565,
				"y": 2.5654989277,
				"z": 0.3819093075,
				"element": "C" 
			},
			{
				"x": 0.5953121033,
				"y": 3.7585959033,
				"z": 0.067966738,
				"element": "C" 
			},
			{
				"x": 1.1161716008,
				"y": 1.3528964772,
				"z": -0.3786929051,
				"element": "N" 
			},
			{
				"x": -0.184636343,
				"y": 0.8148935084,
				"z": -0.253088722,
				"element": "C" 
			},
			{
				"x": -1.0983350151,
				"y": 1.3669206453,
				"z": 0.3397609734,
				"element": "O" 
			},
			{
				"x": -0.290935759,
				"y": -0.397656507,
				"z": -0.906900999,
				"element": "N" 
			},
			{
				"x": -1.4087652083,
				"y": -1.2593208897,
				"z": -0.9843734094,
				"element": "C" 
			},
			{
				"x": -2.6195931638,
				"y": -1.0222272741,
				"z": -0.3167170662,
				"element": "C" 
			},
			{
				"x": -3.6608684166,
				"y": -1.9420148465,
				"z": -0.4463819274,
				"element": "C" 
			},
			{
				"x": -3.5234834599,
				"y": -3.0902933945,
				"z": -1.2268705256,
				"element": "C" 
			},
			{
				"x": -2.3168536984,
				"y": -3.3200915008,
				"z": -1.8900787025,
				"element": "C" 
			},
			{
				"x": -1.2668027844,
				"y": -2.4140955911,
				"z": -1.7701636153,
				"element": "C" 
			},
			{
				"x": 2.9196968412,
				"y": 2.9626136309,
				"z": -0.1669637085,
				"element": "C" 
			},
			{
				"x": 3.1014114585,
				"y": 2.7184916889,
				"z": -1.4858023802,
				"element": "O" 
			},
			{
				"x": 3.7709108016,
				"y": 3.4971146178,
				"z": 0.4986155266,
				"element": "O" 
			},
			{
				"x": 2.2901204891,
				"y": 1.4744900849,
				"z": 2.1070674185,
				"element": "H" 
			},
			{
				"x": 0.6168380006,
				"y": 2.0616748821,
				"z": 2.2746169356,
				"element": "H" 
			},
			{
				"x": 1.9943878802,
				"y": 3.1877713823,
				"z": 2.4030642267,
				"element": "H" 
			},
			{
				"x": -0.3990413281,
				"y": 3.582207466,
				"z": 0.4741382397,
				"element": "H" 
			},
			{
				"x": 1.0195270662,
				"y": 4.6615711485,
				"z": 0.5148211305,
				"element": "H" 
			},
			{
				"x": 0.5109520984,
				"y": 3.9159622146,
				"z": -1.0116699696,
				"element": "H" 
			},
			{
				"x": 1.8234721498,
				"y": 0.6259373368,
				"z": -0.3098603416,
				"element": "H" 
			},
			{
				"x": 0.4873093688,
				"y": -0.6618370445,
				"z": -1.493930762,
				"element": "H" 
			},
			{
				"x": -2.7343772067,
				"y": -0.1295972964,
				"z": 0.2809563681,
				"element": "H" 
			},
			{
				"x": -4.5949890076,
				"y": -1.7492784236,
				"z": 0.0736413228,
				"element": "H" 
			},
			{
				"x": -4.3437461485,
				"y": -3.7953594839,
				"z": -1.3186556567,
				"element": "H" 
			},
			{
				"x": -2.1877309929,
				"y": -4.2070846836,
				"z": -2.5034519888,
				"element": "H" 
			},
			{
				"x": -0.3281144031,
				"y": -2.6024461904,
				"z": -2.2875025336,
				"element": "H" 
			},
			{
				"x": 2.2989748383,
				"y": 2.2696881981,
				"z": -1.8095773775,
				"element": "H" 
			}
		],
		 "valence_orbital": [ 
			{
				"type": "occ",
				"energy": -0.29646,
				"method": "rhf"
			},
			{
				"type": "occ",
				"energy": -0.28331,
				"method": "rhf"
			},
			{
				"type": "occ",
				"energy": -0.26521,
				"method": "rhf"
			},
			{
				"type": "occ",
				"energy": -0.25686,
				"method": "rhf"
			},
			{
				"type": "occ",
				"energy": -0.22701,
				"method": "rhf"
			},
			{
				"type": "unocc",
				"energy": -0.01458,
				"method": "rhf"
			},
			{
				"type": "unocc",
				"energy": -0.00739,
				"method": "rhf"
			},
			{
				"type": "unocc",
				"energy": 0.00303,
				"method": "rhf"
			},
			{
				"type": "unocc",
				"energy": 0.03811,
				"method": "rhf"
			},
			{
				"type": "unocc",
				"energy": 0.04013,
				"method": "rhf"
			}
		],
		"cosmo_sigma_profile": { 
			"-0.025": 0.0,
			"-0.024": 0.0,
			"-0.023": 0.0,
			"-0.022": 0.0,
			"-0.021": 0.0,
			"-0.02": 0.0,
			"-0.019": 0.0,
			"-0.018": 0.00222106586385,
			"-0.017": 0.774783859419,
			"-0.016": 1.85246433692,
			"-0.015": 3.14771105736,
			"-0.014": 2.39459618087,
			"-0.013": 3.27766630467,
			"-0.012": 3.04452136008,
			"-0.011": 3.99591658159,
			"-0.01": 2.75214711955,
			"-0.009": 3.09602983285,
			"-0.008": 3.47270551541,
			"-0.007": 4.3244790167,
			"-0.006": 6.37104907259,
			"-0.005": 11.4270732145,
			"-0.004": 16.1920623972,
			"-0.003": 21.4887461353,
			"-0.002": 18.2121296245,
			"-0.001": 19.6260587388,
			"0.0": 22.3534698159,
			"0.001": 14.0952515365,
			"0.002": 13.048418338,
			"0.003": 13.7472378055,
			"0.004": 13.1790980719,
			"0.005": 14.1105165525,
			"0.006": 12.8136316566,
			"0.007": 5.35591660589,
			"0.008": 4.02049969921,
			"0.009": 4.82099687757,
			"0.01": 7.27532113446,
			"0.011": 6.96264915896,
			"0.012": 6.54816205861,
			"0.013": 1.22307203137,
			"0.014": 0.0,
			"0.015": 0.0,
			"0.016": 0.0,
			"0.017": 0.0,
			"0.018": 0.0,
			"0.019": 0.0,
			"0.02": 0.0,
			"0.021": 0.0,
			"0.022": 0.0,
			"0.023": 0.0,
			"0.024": 0.0,
			"0.025": 0.0
		}
	}
}
