{
	 "smiles": "OC(=O)C(Cl)=C(Cl)Cl", 
	 "Tm": 347.65, 
	 "num_atms": 9, 
	 "gaussian": { 
		 "optdone": 1, 
		 "sigma_profile": "yes", 
		 "theory": "DFT", 
		 "functional": "B3LYP", 
		 "basiset": "6-31G**", 
		 "properties": { 
			 "R2extent": 1739.9403, 
			 "electric_dipole_moment_norm": 0.840218435884, 
			 "electric_quadrupole_moment_norm": 6.15361271856, 
			 "total_energy": -1645.91332808, 
			 "HOMO_LUMO_gap": 0.19054, 
			 "cosmo_polarized_energy": -7.46, 
			 "cosmo_cavitation_energy": 19.5, 
			 "cosmo_dispersion_energy": -15.02, 
			 "cosmo_repulsion_energy": 1.27, 
			 "cosmo_total_nonelectrostatic_energy": 5.75, 
			 "SMD_solvation_energy": 4.33 
		},
		"coords": [
			{
				"x": -2.2024738465,
				"y": -1.8114373712,
				"z": 1.0151793674,
				"element": "O" 
			},
			{
				"x": -0.9873371595,
				"y": -1.2888103725,
				"z": 0.7546665299,
				"element": "C" 
			},
			{
				"x": 0.0159217042,
				"y": -1.6343956809,
				"z": 1.3400809852,
				"element": "O" 
			},
			{
				"x": -1.0395636639,
				"y": -0.2526041822,
				"z": -0.3244285012,
				"element": "C" 
			},
			{
				"x": -2.6035075846,
				"y": 0.0742295916,
				"z": -1.0206798481,
				"element": "Cl" 
			},
			{
				"x": 0.0476529516,
				"y": 0.4230659024,
				"z": -0.7720915946,
				"element": "C" 
			},
			{
				"x": -0.0643621493,
				"y": 1.6121195876,
				"z": -2.0257790485,
				"element": "Cl" 
			},
			{
				"x": 1.6495146802,
				"y": 0.2031390884,
				"z": -0.1783658162,
				"element": "Cl" 
			},
			{
				"x": -2.0582449324,
				"y": -2.4642065632,
				"z": 1.7204179261,
				"element": "H" 
			}
		],
		 "valence_orbital": [ 
			{
				"type": "occ",
				"energy": -0.34294,
				"method": "rhf"
			},
			{
				"type": "occ",
				"energy": -0.33729,
				"method": "rhf"
			},
			{
				"type": "occ",
				"energy": -0.32903,
				"method": "rhf"
			},
			{
				"type": "occ",
				"energy": -0.28628,
				"method": "rhf"
			},
			{
				"type": "occ",
				"energy": -0.27026,
				"method": "rhf"
			},
			{
				"type": "unocc",
				"energy": -0.07972,
				"method": "rhf"
			},
			{
				"type": "unocc",
				"energy": -0.02061,
				"method": "rhf"
			},
			{
				"type": "unocc",
				"energy": -0.0138,
				"method": "rhf"
			},
			{
				"type": "unocc",
				"energy": 0.05296,
				"method": "rhf"
			},
			{
				"type": "unocc",
				"energy": 0.06098,
				"method": "rhf"
			}
		],
		"cosmo_sigma_profile": { 
			"-0.025": 0.0,
			"-0.024": 0.0,
			"-0.023": 0.0,
			"-0.022": 0.0,
			"-0.021": 0.0,
			"-0.02": 0.00923000970634,
			"-0.019": 0.847551149549,
			"-0.018": 1.06906668746,
			"-0.017": 0.63466852613,
			"-0.016": 1.21802204422,
			"-0.015": 0.539444991632,
			"-0.014": 0.295724577909,
			"-0.013": 1.03813927029,
			"-0.012": 0.991449679344,
			"-0.011": 0.76096285963,
			"-0.01": 0.364766377386,
			"-0.009": 0.716282552635,
			"-0.008": 0.882342369847,
			"-0.007": 0.655799158539,
			"-0.006": 1.94655857397,
			"-0.005": 6.44850588622,
			"-0.004": 10.9947224491,
			"-0.003": 14.6661438189,
			"-0.002": 12.4421890712,
			"-0.001": 12.4671686497,
			"0.0": 13.1270299775,
			"0.001": 21.4000124172,
			"0.002": 18.564826007,
			"0.003": 13.5119267429,
			"0.004": 4.11153956854,
			"0.005": 3.16848690499,
			"0.006": 3.07758779298,
			"0.007": 3.7915127389,
			"0.008": 3.90633153358,
			"0.009": 3.09487883365,
			"0.01": 3.90434174562,
			"0.011": 2.73219859086,
			"0.012": 0.0,
			"0.013": 0.0,
			"0.014": 0.0,
			"0.015": 0.0,
			"0.016": 0.0,
			"0.017": 0.0,
			"0.018": 0.0,
			"0.019": 0.0,
			"0.02": 0.0,
			"0.021": 0.0,
			"0.022": 0.0,
			"0.023": 0.0,
			"0.024": 0.0,
			"0.025": 0.0
		}
	}
}
