{
	 "smiles": "C1CC2=CC=CC=C2NC2=CC=CC=C12", 
	 "Tm": 380.15, 
	 "num_atms": 28, 
	 "gaussian": { 
		 "optdone": 1, 
		 "sigma_profile": "yes", 
		 "theory": "DFT", 
		 "functional": "B3LYP", 
		 "basiset": "6-31G**", 
		 "properties": { 
			 "R2extent": 3445.625, 
			 "electric_dipole_moment_norm": 0.475216203427, 
			 "electric_quadrupole_moment_norm": 8.75027931954, 
			 "total_energy": -596.089923712, 
			 "HOMO_LUMO_gap": 0.17907, 
			 "cosmo_polarized_energy": -7.72, 
			 "cosmo_cavitation_energy": 29.74, 
			 "cosmo_dispersion_energy": -22.42, 
			 "cosmo_repulsion_energy": 1.71, 
			 "cosmo_total_nonelectrostatic_energy": 9.03, 
			 "SMD_solvation_energy": 4.16 
		},
		"coords": [
			{
				"x": 0.0684956874,
				"y": -1.0778399704,
				"z": 2.0137977469,
				"element": "C" 
			},
			{
				"x": 1.4737214652,
				"y": -0.4658659615,
				"z": 1.8227448508,
				"element": "C" 
			},
			{
				"x": 1.949028878,
				"y": -0.4884498778,
				"z": 0.3907774918,
				"element": "C" 
			},
			{
				"x": 3.2195945581,
				"y": -0.9995819089,
				"z": 0.0964751301,
				"element": "C" 
			},
			{
				"x": 3.736923644,
				"y": -1.0379309413,
				"z": -1.1962760101,
				"element": "C" 
			},
			{
				"x": 2.9523141671,
				"y": -0.5574974521,
				"z": -2.2455722062,
				"element": "C" 
			},
			{
				"x": 1.6798394114,
				"y": -0.0647038409,
				"z": -1.9885263216,
				"element": "C" 
			},
			{
				"x": 1.153775116,
				"y": -0.0223151033,
				"z": -0.6803435959,
				"element": "C" 
			},
			{
				"x": -0.1293623892,
				"y": 0.5226557252,
				"z": -0.557771697,
				"element": "N" 
			},
			{
				"x": -1.0869313858,
				"y": 0.5998788767,
				"z": 0.4598471469,
				"element": "C" 
			},
			{
				"x": -2.179350999,
				"y": 1.4567935455,
				"z": 0.2104912824,
				"element": "C" 
			},
			{
				"x": -3.2119591864,
				"y": 1.6050096041,
				"z": 1.1269409786,
				"element": "C" 
			},
			{
				"x": -3.1759973235,
				"y": 0.9057009887,
				"z": 2.3340492184,
				"element": "C" 
			},
			{
				"x": -2.0975713144,
				"y": 0.0603480382,
				"z": 2.5844046561,
				"element": "C" 
			},
			{
				"x": -1.0521956818,
				"y": -0.1272895244,
				"z": 1.6710646693,
				"element": "C" 
			},
			{
				"x": -0.0534199026,
				"y": -1.3886288222,
				"z": 3.0568516755,
				"element": "H" 
			},
			{
				"x": 0.0004688181,
				"y": -1.9924266929,
				"z": 1.4098574406,
				"element": "H" 
			},
			{
				"x": 1.4639316578,
				"y": 0.560659465,
				"z": 2.2126115929,
				"element": "H" 
			},
			{
				"x": 2.1964953996,
				"y": -1.0189832699,
				"z": 2.4319082436,
				"element": "H" 
			},
			{
				"x": 3.8218488773,
				"y": -1.3689604695,
				"z": 0.9233494958,
				"element": "H" 
			},
			{
				"x": 4.7303815404,
				"y": -1.4345232133,
				"z": -1.3797197706,
				"element": "H" 
			},
			{
				"x": 3.3237181885,
				"y": -0.5729321318,
				"z": -3.266254081,
				"element": "H" 
			},
			{
				"x": 1.0656847584,
				"y": 0.293941857,
				"z": -2.8122229812,
				"element": "H" 
			},
			{
				"x": -0.4390407114,
				"y": 0.9677716517,
				"z": -1.4092381615,
				"element": "H" 
			},
			{
				"x": -2.2040260135,
				"y": 2.0165889618,
				"z": -0.7224101055,
				"element": "H" 
			},
			{
				"x": -4.037377462,
				"y": 2.273384765,
				"z": 0.8990603687,
				"element": "H" 
			},
			{
				"x": -3.9700721573,
				"y": 1.0158431808,
				"z": 3.065631322,
				"element": "H" 
			},
			{
				"x": -2.0587176406,
				"y": -0.4920474797,
				"z": 3.5204716203,
				"element": "H" 
			}
		],
		 "valence_orbital": [ 
			{
				"type": "occ",
				"energy": -0.31607,
				"method": "rhf"
			},
			{
				"type": "occ",
				"energy": -0.2484,
				"method": "rhf"
			},
			{
				"type": "occ",
				"energy": -0.24139,
				"method": "rhf"
			},
			{
				"type": "occ",
				"energy": -0.2365,
				"method": "rhf"
			},
			{
				"type": "occ",
				"energy": -0.1821,
				"method": "rhf"
			},
			{
				"type": "unocc",
				"energy": -0.00303,
				"method": "rhf"
			},
			{
				"type": "unocc",
				"energy": 0.00337,
				"method": "rhf"
			},
			{
				"type": "unocc",
				"energy": 0.00648,
				"method": "rhf"
			},
			{
				"type": "unocc",
				"energy": 0.03648,
				"method": "rhf"
			},
			{
				"type": "unocc",
				"energy": 0.07712,
				"method": "rhf"
			}
		],
		"cosmo_sigma_profile": { 
			"-0.025": 0.0,
			"-0.024": 0.0,
			"-0.023": 0.0,
			"-0.022": 0.0,
			"-0.021": 0.0,
			"-0.02": 0.0,
			"-0.019": 0.0,
			"-0.018": 0.0,
			"-0.017": 0.0,
			"-0.016": 0.0,
			"-0.015": 0.0,
			"-0.014": 0.315464999639,
			"-0.013": 1.36225742162,
			"-0.012": 1.22264636707,
			"-0.011": 1.52342544264,
			"-0.01": 1.42599437473,
			"-0.009": 1.42385062469,
			"-0.008": 1.85893570479,
			"-0.007": 2.11492431947,
			"-0.006": 2.97081452184,
			"-0.005": 14.9100771934,
			"-0.004": 20.2827858711,
			"-0.003": 23.2236466895,
			"-0.002": 23.0079677817,
			"-0.001": 19.6798853819,
			"0.0": 18.2780250212,
			"0.001": 13.9338177711,
			"0.002": 13.5336232626,
			"0.003": 13.4363791516,
			"0.004": 18.4695475874,
			"0.005": 15.3594068047,
			"0.006": 14.7544168434,
			"0.007": 12.5294194707,
			"0.008": 0.946471969317,
			"0.009": 0.0,
			"0.01": 0.0,
			"0.011": 0.0,
			"0.012": 0.0,
			"0.013": 0.0,
			"0.014": 0.0,
			"0.015": 0.0,
			"0.016": 0.0,
			"0.017": 0.0,
			"0.018": 0.0,
			"0.019": 0.0,
			"0.02": 0.0,
			"0.021": 0.0,
			"0.022": 0.0,
			"0.023": 0.0,
			"0.024": 0.0,
			"0.025": 0.0
		}
	}
}
