{
	 "smiles": "BrCC(=O)C12CC3CC(CC(C3)C1)C2", 
	 "Tm": 333.15, 
	 "num_atms": 31, 
	 "gaussian": { 
		 "optdone": 1, 
		 "sigma_profile": "yes", 
		 "theory": "DFT", 
		 "functional": "B3LYP", 
		 "basiset": "6-31G**", 
		 "properties": { 
			 "R2extent": 4885.2199, 
			 "electric_dipole_moment_norm": 2.49405807671, 
			 "electric_quadrupole_moment_norm": 10.3692298856, 
			 "total_energy": -3114.17491995, 
			 "HOMO_LUMO_gap": 0.19116, 
			 "cosmo_polarized_energy": -6.65, 
			 "cosmo_cavitation_energy": 30.76, 
			 "cosmo_dispersion_energy": -23.1, 
			 "cosmo_repulsion_energy": 1.78, 
			 "cosmo_total_nonelectrostatic_energy": 9.43, 
			 "SMD_solvation_energy": 3.32 
		},
		"coords": [
			{
				"x": -0.6142584883,
				"y": 3.4638878939,
				"z": 2.8967942189,
				"element": "Br" 
			},
			{
				"x": -1.3529888396,
				"y": 1.6768598118,
				"z": 3.3416599064,
				"element": "C" 
			},
			{
				"x": -0.4218358613,
				"y": 0.5656088125,
				"z": 2.8574973819,
				"element": "C" 
			},
			{
				"x": 0.2423211906,
				"y": -0.0230926676,
				"z": 3.6912650284,
				"element": "O" 
			},
			{
				"x": -0.335558149,
				"y": 0.1897726815,
				"z": 1.3715238413,
				"element": "C" 
			},
			{
				"x": 1.0370106244,
				"y": 0.6941643166,
				"z": 0.8267368473,
				"element": "C" 
			},
			{
				"x": 1.2160815352,
				"y": 0.2578926831,
				"z": -0.6407999977,
				"element": "C" 
			},
			{
				"x": 0.0782242157,
				"y": 0.8530254466,
				"z": -1.4955058834,
				"element": "C" 
			},
			{
				"x": -1.2798376149,
				"y": 0.3376595151,
				"z": -0.9759579931,
				"element": "C" 
			},
			{
				"x": -1.3160029813,
				"y": -1.2011730578,
				"z": -1.0680963258,
				"element": "C" 
			},
			{
				"x": -0.1793026509,
				"y": -1.7930575354,
				"z": -0.2099442385,
				"element": "C" 
			},
			{
				"x": 1.1788943844,
				"y": -1.280938638,
				"z": -0.7314575921,
				"element": "C" 
			},
			{
				"x": -0.3629432301,
				"y": -1.3604204825,
				"z": 1.2577011308,
				"element": "C" 
			},
			{
				"x": -1.4688571153,
				"y": 0.7740251234,
				"z": 0.4937752183,
				"element": "C" 
			},
			{
				"x": -2.3407726967,
				"y": 1.6490611067,
				"z": 2.8843370171,
				"element": "H" 
			},
			{
				"x": -1.4114635431,
				"y": 1.6416306233,
				"z": 4.4268308551,
				"element": "H" 
			},
			{
				"x": 1.0873510802,
				"y": 1.7860641515,
				"z": 0.907024154,
				"element": "H" 
			},
			{
				"x": 1.8373745372,
				"y": 0.2843950201,
				"z": 1.4533410105,
				"element": "H" 
			},
			{
				"x": 2.1834359126,
				"y": 0.6271834002,
				"z": -1.0042085632,
				"element": "H" 
			},
			{
				"x": 0.1075975595,
				"y": 1.9495739791,
				"z": -1.4533015502,
				"element": "H" 
			},
			{
				"x": 0.2090690124,
				"y": 0.5700517912,
				"z": -2.5479590027,
				"element": "H" 
			},
			{
				"x": -2.091113716,
				"y": 0.7637962232,
				"z": -1.5792976266,
				"element": "H" 
			},
			{
				"x": -1.2057739847,
				"y": -1.518260401,
				"z": -2.1131962022,
				"element": "H" 
			},
			{
				"x": -2.287400215,
				"y": -1.5781855067,
				"z": -0.721486046,
				"element": "H" 
			},
			{
				"x": -0.2065535285,
				"y": -2.8886951868,
				"z": -0.2643809934,
				"element": "H" 
			},
			{
				"x": 1.9972071929,
				"y": -1.7138265201,
				"z": -0.1417883849,
				"element": "H" 
			},
			{
				"x": 1.3289207666,
				"y": -1.6013282674,
				"z": -1.7706819255,
				"element": "H" 
			},
			{
				"x": 0.4249764819,
				"y": -1.7782612642,
				"z": 1.8914567593,
				"element": "H" 
			},
			{
				"x": -1.3182978289,
				"y": -1.7404003787,
				"z": 1.6442533862,
				"element": "H" 
			},
			{
				"x": -1.4751344428,
				"y": 1.8683363014,
				"z": 0.5548064747,
				"element": "H" 
			},
			{
				"x": -2.4448696073,
				"y": 0.420551025,
				"z": 0.8543590951,
				"element": "H" 
			}
		],
		 "valence_orbital": [ 
			{
				"type": "occ",
				"energy": -0.29503,
				"method": "rhf"
			},
			{
				"type": "occ",
				"energy": -0.286,
				"method": "rhf"
			},
			{
				"type": "occ",
				"energy": -0.28414,
				"method": "rhf"
			},
			{
				"type": "occ",
				"energy": -0.27852,
				"method": "rhf"
			},
			{
				"type": "occ",
				"energy": -0.24699,
				"method": "rhf"
			},
			{
				"type": "unocc",
				"energy": -0.05583,
				"method": "rhf"
			},
			{
				"type": "unocc",
				"energy": 0.02219,
				"method": "rhf"
			},
			{
				"type": "unocc",
				"energy": 0.06541,
				"method": "rhf"
			},
			{
				"type": "unocc",
				"energy": 0.10485,
				"method": "rhf"
			},
			{
				"type": "unocc",
				"energy": 0.11954,
				"method": "rhf"
			}
		],
		"cosmo_sigma_profile": { 
			"-0.025": 0.0,
			"-0.024": 0.0,
			"-0.023": 0.0,
			"-0.022": 0.0,
			"-0.021": 0.0,
			"-0.02": 0.0,
			"-0.019": 0.0,
			"-0.018": 0.0,
			"-0.017": 0.0,
			"-0.016": 0.0,
			"-0.015": 0.0,
			"-0.014": 0.0,
			"-0.013": 0.0,
			"-0.012": 0.0,
			"-0.011": 0.0,
			"-0.01": 0.0,
			"-0.009": 0.141112834777,
			"-0.008": 3.97367281517,
			"-0.007": 5.04750571289,
			"-0.006": 4.75097879721,
			"-0.005": 6.09611115252,
			"-0.004": 4.8128043968,
			"-0.003": 10.676324848,
			"-0.002": 37.9028398771,
			"-0.001": 45.6531709931,
			"0.0": 42.3860554892,
			"0.001": 26.703069535,
			"0.002": 10.67307151,
			"0.003": 8.02973961918,
			"0.004": 7.60227053008,
			"0.005": 9.79146251452,
			"0.006": 2.45337675021,
			"0.007": 1.49351460475,
			"0.008": 1.95694020819,
			"0.009": 1.76404968448,
			"0.01": 2.40236953284,
			"0.011": 3.93854863601,
			"0.012": 2.16188915508,
			"0.013": 0.0346921179765,
			"0.014": 0.0,
			"0.015": 0.0,
			"0.016": 0.0,
			"0.017": 0.0,
			"0.018": 0.0,
			"0.019": 0.0,
			"0.02": 0.0,
			"0.021": 0.0,
			"0.022": 0.0,
			"0.023": 0.0,
			"0.024": 0.0,
			"0.025": 0.0
		}
	}
}
