{
	 "smiles": "CCC1=CC=CC(CC)=C1N1C=CN=C1", 
	 "Tm": 348.15, 
	 "num_atms": 31, 
	 "gaussian": { 
		 "optdone": 1, 
		 "sigma_profile": "yes", 
		 "theory": "DFT", 
		 "functional": "B3LYP", 
		 "basiset": "6-31G**", 
		 "properties": { 
			 "R2extent": 3320.0548, 
			 "electric_dipole_moment_norm": 3.62412410521, 
			 "electric_quadrupole_moment_norm": 11.8880180791, 
			 "total_energy": -614.536844697, 
			 "HOMO_LUMO_gap": 0.20915, 
			 "cosmo_polarized_energy": -9.32, 
			 "cosmo_cavitation_energy": 33.02, 
			 "cosmo_dispersion_energy": -22.53, 
			 "cosmo_repulsion_energy": 1.77, 
			 "cosmo_total_nonelectrostatic_energy": 12.26, 
			 "SMD_solvation_energy": 4.55 
		},
		"coords": [
			{
				"x": -0.0189939325,
				"y": -1.0682188611,
				"z": 2.3585821726,
				"element": "C" 
			},
			{
				"x": -0.6515202021,
				"y": 0.1718692088,
				"z": 1.7000576153,
				"element": "C" 
			},
			{
				"x": -1.1040751391,
				"y": -0.0776288878,
				"z": 0.2752248919,
				"element": "C" 
			},
			{
				"x": -2.3615436387,
				"y": -0.6455331638,
				"z": 0.0358256652,
				"element": "C" 
			},
			{
				"x": -2.7984259274,
				"y": -0.9050077878,
				"z": -1.2610439842,
				"element": "C" 
			},
			{
				"x": -1.9811850005,
				"y": -0.5949643072,
				"z": -2.3455479753,
				"element": "C" 
			},
			{
				"x": -0.7154981478,
				"y": -0.0259608555,
				"z": -2.1579354829,
				"element": "C" 
			},
			{
				"x": 0.156314962,
				"y": 0.2796319194,
				"z": -3.3594645158,
				"element": "C" 
			},
			{
				"x": 0.9717169138,
				"y": -0.9356484791,
				"z": -3.8388355099,
				"element": "C" 
			},
			{
				"x": -0.2931686326,
				"y": 0.2200983028,
				"z": -0.8370813876,
				"element": "C" 
			},
			{
				"x": 1.0002648385,
				"y": 0.807542867,
				"z": -0.6179643552,
				"element": "N" 
			},
			{
				"x": 1.2942857688,
				"y": 2.159702421,
				"z": -0.5424965104,
				"element": "C" 
			},
			{
				"x": 2.6482801055,
				"y": 2.2320731785,
				"z": -0.3240509683,
				"element": "C" 
			},
			{
				"x": 3.2002203843,
				"y": 0.9728166786,
				"z": -0.2620786188,
				"element": "N" 
			},
			{
				"x": 2.1912508839,
				"y": 0.1477564976,
				"z": -0.4410418438,
				"element": "C" 
			},
			{
				"x": 0.2576521512,
				"y": -0.8544050794,
				"z": 3.3959268925,
				"element": "H" 
			},
			{
				"x": 0.8857651448,
				"y": -1.3780905602,
				"z": 1.8274555021,
				"element": "H" 
			},
			{
				"x": -0.7150328226,
				"y": -1.9134190829,
				"z": 2.3592470676,
				"element": "H" 
			},
			{
				"x": 0.0617478742,
				"y": 1.0001488961,
				"z": 1.7300642787,
				"element": "H" 
			},
			{
				"x": -1.5217114077,
				"y": 0.4830689587,
				"z": 2.2898911892,
				"element": "H" 
			},
			{
				"x": -3.004011107,
				"y": -0.8772303515,
				"z": 0.8815181025,
				"element": "H" 
			},
			{
				"x": -3.7801801988,
				"y": -1.3394085876,
				"z": -1.4271114605,
				"element": "H" 
			},
			{
				"x": -2.3269332157,
				"y": -0.7872603862,
				"z": -3.3580331932,
				"element": "H" 
			},
			{
				"x": 0.8372177086,
				"y": 1.1044011357,
				"z": -3.1318560088,
				"element": "H" 
			},
			{
				"x": -0.4892923398,
				"y": 0.6199165638,
				"z": -4.1776419311,
				"element": "H" 
			},
			{
				"x": 0.316837263,
				"y": -1.7759951473,
				"z": -4.0913999445,
				"element": "H" 
			},
			{
				"x": 1.6682817415,
				"y": -1.2728085294,
				"z": -3.0656301907,
				"element": "H" 
			},
			{
				"x": 1.556185659,
				"y": -0.680378356,
				"z": -4.728533955,
				"element": "H" 
			},
			{
				"x": 0.5248922125,
				"y": 2.9087974776,
				"z": -0.6497565455,
				"element": "H" 
			},
			{
				"x": 3.2545691089,
				"y": 3.120194754,
				"z": -0.2082674975,
				"element": "H" 
			},
			{
				"x": 2.244688992,
				"y": -0.9323604367,
				"z": -0.4552214985,
				"element": "H" 
			}
		],
		 "valence_orbital": [ 
			{
				"type": "occ",
				"energy": -0.26991,
				"method": "rhf"
			},
			{
				"type": "occ",
				"energy": -0.26791,
				"method": "rhf"
			},
			{
				"type": "occ",
				"energy": -0.24844,
				"method": "rhf"
			},
			{
				"type": "occ",
				"energy": -0.24686,
				"method": "rhf"
			},
			{
				"type": "occ",
				"energy": -0.22382,
				"method": "rhf"
			},
			{
				"type": "unocc",
				"energy": -0.01467,
				"method": "rhf"
			},
			{
				"type": "unocc",
				"energy": -0.01164,
				"method": "rhf"
			},
			{
				"type": "unocc",
				"energy": 0.02746,
				"method": "rhf"
			},
			{
				"type": "unocc",
				"energy": 0.07089,
				"method": "rhf"
			},
			{
				"type": "unocc",
				"energy": 0.0884,
				"method": "rhf"
			}
		],
		"cosmo_sigma_profile": { 
			"-0.025": 0.0,
			"-0.024": 0.0,
			"-0.023": 0.0,
			"-0.022": 0.0,
			"-0.021": 0.0,
			"-0.02": 0.0,
			"-0.019": 0.0,
			"-0.018": 0.0,
			"-0.017": 0.0,
			"-0.016": 0.0,
			"-0.015": 0.0,
			"-0.014": 0.0,
			"-0.013": 0.0,
			"-0.012": 0.0,
			"-0.011": 0.0,
			"-0.01": 0.0,
			"-0.009": 0.386702548741,
			"-0.008": 2.77872003769,
			"-0.007": 2.94188382163,
			"-0.006": 7.69508629092,
			"-0.005": 13.5049653792,
			"-0.004": 18.4083561275,
			"-0.003": 26.8421939461,
			"-0.002": 28.1641150766,
			"-0.001": 33.2358960463,
			"0.0": 33.343856103,
			"0.001": 28.5320278853,
			"0.002": 12.4493382394,
			"0.003": 9.88201099865,
			"0.004": 11.0550261514,
			"0.005": 11.1060981097,
			"0.006": 4.64943177256,
			"0.007": 1.70221393989,
			"0.008": 1.51253282775,
			"0.009": 1.81489639646,
			"0.01": 2.0900311034,
			"0.011": 0.967220662572,
			"0.012": 1.30636815557,
			"0.013": 0.780553539094,
			"0.014": 1.47808087483,
			"0.015": 1.228658346,
			"0.016": 1.1094377028,
			"0.017": 1.0937106123,
			"0.018": 0.891671896626,
			"0.019": 0.0623863889649,
			"0.02": 0.0,
			"0.021": 0.0,
			"0.022": 0.0,
			"0.023": 0.0,
			"0.024": 0.0,
			"0.025": 0.0
		}
	}
}
