{
	 "smiles": "CC1=CC2=C3N(CCCC3=C1)C(=O)C(=C2O)C1=CC=CC=C1", 
	 "Tm": 489.15, 
	 "num_atms": 39, 
	 "gaussian": { 
		 "optdone": 1, 
		 "sigma_profile": "yes", 
		 "theory": "DFT", 
		 "functional": "B3LYP", 
		 "basiset": "6-31G**", 
		 "properties": { 
			 "R2extent": 7507.0975, 
			 "electric_dipole_moment_norm": 2.56984624832, 
			 "electric_quadrupole_moment_norm": 17.0319872466, 
			 "total_energy": -939.519208025, 
			 "HOMO_LUMO_gap": 0.15845, 
			 "cosmo_polarized_energy": -13.2, 
			 "cosmo_cavitation_energy": 40.27, 
			 "cosmo_dispersion_energy": -29.69, 
			 "cosmo_repulsion_energy": 2.22, 
			 "cosmo_total_nonelectrostatic_energy": 12.81, 
			 "SMD_solvation_energy": 6.22 
		},
		"coords": [
			{
				"x": 4.2716349799,
				"y": 1.9379507153,
				"z": 1.4702687028,
				"element": "C" 
			},
			{
				"x": 3.009896249,
				"y": 1.1090663286,
				"z": 1.5145290344,
				"element": "C" 
			},
			{
				"x": 1.9882795291,
				"y": 1.2874482719,
				"z": 0.5937455437,
				"element": "C" 
			},
			{
				"x": 0.8137480575,
				"y": 0.512255075,
				"z": 0.6437134384,
				"element": "C" 
			},
			{
				"x": 0.661546619,
				"y": -0.4804518365,
				"z": 1.6390891991,
				"element": "C" 
			},
			{
				"x": -0.4958485511,
				"y": -1.2511298168,
				"z": 1.6675364364,
				"element": "N" 
			},
			{
				"x": -0.6575840388,
				"y": -2.3212871222,
				"z": 2.6670821683,
				"element": "C" 
			},
			{
				"x": 0.0736770703,
				"y": -1.9851307187,
				"z": 3.9612680449,
				"element": "C" 
			},
			{
				"x": 1.5519574918,
				"y": -1.7159339978,
				"z": 3.6714597291,
				"element": "C" 
			},
			{
				"x": 1.6972716136,
				"y": -0.6696704075,
				"z": 2.588274573,
				"element": "C" 
			},
			{
				"x": 2.8324873482,
				"y": 0.1262218051,
				"z": 2.5068376327,
				"element": "C" 
			},
			{
				"x": -1.5400687879,
				"y": -1.1199718692,
				"z": 0.7350763652,
				"element": "C" 
			},
			{
				"x": -2.5039456479,
				"y": -1.8876993011,
				"z": 0.7869250152,
				"element": "O" 
			},
			{
				"x": -1.408474544,
				"y": -0.0504094758,
				"z": -0.2557013091,
				"element": "C" 
			},
			{
				"x": -0.2587566579,
				"y": 0.6999415715,
				"z": -0.3030204919,
				"element": "C" 
			},
			{
				"x": -0.0290561285,
				"y": 1.6526058177,
				"z": -1.2400777799,
				"element": "O" 
			},
			{
				"x": -2.5186631508,
				"y": 0.1650827373,
				"z": -1.2199296965,
				"element": "C" 
			},
			{
				"x": -3.0224952327,
				"y": 1.4592491004,
				"z": -1.4551437926,
				"element": "C" 
			},
			{
				"x": -4.0387041341,
				"y": 1.6780784059,
				"z": -2.3888248547,
				"element": "C" 
			},
			{
				"x": -4.579125234,
				"y": 0.6059007478,
				"z": -3.0968175108,
				"element": "C" 
			},
			{
				"x": -4.1022434204,
				"y": -0.6864600518,
				"z": -2.858237307,
				"element": "C" 
			},
			{
				"x": -3.085781631,
				"y": -0.9072974056,
				"z": -1.9323405756,
				"element": "C" 
			},
			{
				"x": 4.2368162376,
				"y": 2.6699730276,
				"z": 0.6589674248,
				"element": "H" 
			},
			{
				"x": 5.1581777962,
				"y": 1.3113699199,
				"z": 1.3160882753,
				"element": "H" 
			},
			{
				"x": 4.4252533012,
				"y": 2.485255324,
				"z": 2.407761812,
				"element": "H" 
			},
			{
				"x": 2.0751031377,
				"y": 2.0365346164,
				"z": -0.1853111077,
				"element": "H" 
			},
			{
				"x": -1.7294034381,
				"y": -2.4498399639,
				"z": 2.8159826404,
				"element": "H" 
			},
			{
				"x": -0.2785455284,
				"y": -3.2631503841,
				"z": 2.2473687354,
				"element": "H" 
			},
			{
				"x": -0.0429204622,
				"y": -2.8176675163,
				"z": 4.6626541655,
				"element": "H" 
			},
			{
				"x": -0.3844984018,
				"y": -1.1024585398,
				"z": 4.4234326836,
				"element": "H" 
			},
			{
				"x": 2.0785654896,
				"y": -1.3904211994,
				"z": 4.575087551,
				"element": "H" 
			},
			{
				"x": 2.0330938644,
				"y": -2.65223469,
				"z": 3.3532036403,
				"element": "H" 
			},
			{
				"x": 3.6158500222,
				"y": -0.0212580121,
				"z": 3.248397791,
				"element": "H" 
			},
			{
				"x": -0.7753374207,
				"y": 1.6597629945,
				"z": -1.8614034394,
				"element": "H" 
			},
			{
				"x": -2.6431922935,
				"y": 2.2956335431,
				"z": -0.8731173848,
				"element": "H" 
			},
			{
				"x": -4.4143589577,
				"y": 2.6849307297,
				"z": -2.5481008114,
				"element": "H" 
			},
			{
				"x": -5.3716724494,
				"y": 0.7717347201,
				"z": -3.8207894217,
				"element": "H" 
			},
			{
				"x": -4.5262390821,
				"y": -1.5286865316,
				"z": -3.3978623759,
				"element": "H" 
			},
			{
				"x": -2.7323436139,
				"y": -1.9127366114,
				"z": -1.7390727435,
				"element": "H" 
			}
		],
		 "valence_orbital": [ 
			{
				"type": "occ",
				"energy": -0.25542,
				"method": "rhf"
			},
			{
				"type": "occ",
				"energy": -0.25297,
				"method": "rhf"
			},
			{
				"type": "occ",
				"energy": -0.24021,
				"method": "rhf"
			},
			{
				"type": "occ",
				"energy": -0.21615,
				"method": "rhf"
			},
			{
				"type": "occ",
				"energy": -0.2031,
				"method": "rhf"
			},
			{
				"type": "unocc",
				"energy": -0.04465,
				"method": "rhf"
			},
			{
				"type": "unocc",
				"energy": -0.00465,
				"method": "rhf"
			},
			{
				"type": "unocc",
				"energy": -0.0032,
				"method": "rhf"
			},
			{
				"type": "unocc",
				"energy": 0.00742,
				"method": "rhf"
			},
			{
				"type": "unocc",
				"energy": 0.02553,
				"method": "rhf"
			}
		],
		"cosmo_sigma_profile": { 
			"-0.025": 0.0,
			"-0.024": 0.0,
			"-0.023": 0.0,
			"-0.022": 0.0,
			"-0.021": 0.0,
			"-0.02": 0.0,
			"-0.019": 0.0,
			"-0.018": 0.0,
			"-0.017": 0.0,
			"-0.016": 0.0,
			"-0.015": 0.0,
			"-0.014": 0.383102160121,
			"-0.013": 0.453757424294,
			"-0.012": 0.584670746971,
			"-0.011": 0.635207701579,
			"-0.01": 1.14201954471,
			"-0.009": 0.874132288247,
			"-0.008": 0.783257758711,
			"-0.007": 1.49218656691,
			"-0.006": 7.75253743389,
			"-0.005": 18.7517214135,
			"-0.004": 35.1747894567,
			"-0.003": 36.6573808149,
			"-0.002": 31.2897837945,
			"-0.001": 30.4385458811,
			"0.0": 30.0920090839,
			"0.001": 24.1972389336,
			"0.002": 17.9750132356,
			"0.003": 18.8869964555,
			"0.004": 18.9115495588,
			"0.005": 14.5247312773,
			"0.006": 6.14338068771,
			"0.007": 4.37013166484,
			"0.008": 3.60479142602,
			"0.009": 1.90164129936,
			"0.01": 1.20118977202,
			"0.011": 2.19451613765,
			"0.012": 1.79413391677,
			"0.013": 2.29676505078,
			"0.014": 4.25540516916,
			"0.015": 1.28487534894,
			"0.016": 0.0,
			"0.017": 0.0,
			"0.018": 0.0,
			"0.019": 0.0,
			"0.02": 0.0,
			"0.021": 0.0,
			"0.022": 0.0,
			"0.023": 0.0,
			"0.024": 0.0,
			"0.025": 0.0
		}
	}
}
