{
	 "smiles": "CCCOC1=CC=C(OCCBr)C=C1", 
	 "Tm": 319.15, 
	 "num_atms": 29, 
	 "gaussian": { 
		 "optdone": 1, 
		 "sigma_profile": "yes", 
		 "theory": "DFT", 
		 "functional": "B3LYP", 
		 "basiset": "6-31G**", 
		 "properties": { 
			 "R2extent": 11365.0092, 
			 "electric_dipole_moment_norm": 3.69699485934, 
			 "electric_quadrupole_moment_norm": 15.7481035315, 
			 "total_energy": -3150.05172297, 
			 "HOMO_LUMO_gap": 0.1945, 
			 "cosmo_polarized_energy": -10.91, 
			 "cosmo_cavitation_energy": 34.4, 
			 "cosmo_dispersion_energy": -25.29, 
			 "cosmo_repulsion_energy": 2.04, 
			 "cosmo_total_nonelectrostatic_energy": 11.15, 
			 "SMD_solvation_energy": 4.94 
		},
		"coords": [
			{
				"x": 0.7932544506,
				"y": 4.0535172434,
				"z": -0.2054726979,
				"element": "C" 
			},
			{
				"x": 1.3805470668,
				"y": 2.7374510753,
				"z": 0.314957116,
				"element": "C" 
			},
			{
				"x": 2.3337059743,
				"y": 2.0968652076,
				"z": -0.695728569,
				"element": "C" 
			},
			{
				"x": 2.9482134243,
				"y": 0.9069684056,
				"z": -0.205246489,
				"element": "O" 
			},
			{
				"x": 2.2654827936,
				"y": -0.2799537858,
				"z": -0.2492871405,
				"element": "C" 
			},
			{
				"x": 2.9510481326,
				"y": -1.3872235842,
				"z": 0.2794274407,
				"element": "C" 
			},
			{
				"x": 2.372383169,
				"y": -2.6457082975,
				"z": 0.2730712009,
				"element": "C" 
			},
			{
				"x": 1.0883539172,
				"y": -2.8336628079,
				"z": -0.2613195397,
				"element": "C" 
			},
			{
				"x": 0.6048450048,
				"y": -4.1181570031,
				"z": -0.2110359936,
				"element": "O" 
			},
			{
				"x": -0.6612465859,
				"y": -4.3784839673,
				"z": -0.7812356718,
				"element": "C" 
			},
			{
				"x": -0.960448005,
				"y": -5.854470396,
				"z": -0.633706728,
				"element": "C" 
			},
			{
				"x": 0.2146402591,
				"y": -6.9786221,
				"z": -1.7541415684,
				"element": "Br" 
			},
			{
				"x": 0.400640062,
				"y": -1.7400412852,
				"z": -0.785493878,
				"element": "C" 
			},
			{
				"x": 0.9875296001,
				"y": -0.4656824556,
				"z": -0.7787106073,
				"element": "C" 
			},
			{
				"x": 0.1282518456,
				"y": 4.5075533915,
				"z": 0.5350725753,
				"element": "H" 
			},
			{
				"x": 0.2117447904,
				"y": 3.8993558885,
				"z": -1.121730342,
				"element": "H" 
			},
			{
				"x": 1.5811985543,
				"y": 4.7805749743,
				"z": -0.4328426611,
				"element": "H" 
			},
			{
				"x": 1.9344029585,
				"y": 2.9095155182,
				"z": 1.2451448587,
				"element": "H" 
			},
			{
				"x": 0.5746647278,
				"y": 2.0358817617,
				"z": 0.5580063422,
				"element": "H" 
			},
			{
				"x": 1.8289336952,
				"y": 1.9043155532,
				"z": -1.6527601167,
				"element": "H" 
			},
			{
				"x": 3.1681053134,
				"y": 2.7753986253,
				"z": -0.9016231811,
				"element": "H" 
			},
			{
				"x": 3.9449873011,
				"y": -1.2328762292,
				"z": 0.6864981607,
				"element": "H" 
			},
			{
				"x": 2.8986404339,
				"y": -3.5052271353,
				"z": 0.6751398572,
				"element": "H" 
			},
			{
				"x": -1.4481367375,
				"y": -3.8180593801,
				"z": -0.2483798294,
				"element": "H" 
			},
			{
				"x": -0.6894000654,
				"y": -4.0812813144,
				"z": -1.8382223206,
				"element": "H" 
			},
			{
				"x": -1.9787027325,
				"y": -6.0762450484,
				"z": -0.951711866,
				"element": "H" 
			},
			{
				"x": -0.8056212883,
				"y": -6.1872755241,
				"z": 0.3919219211,
				"element": "H" 
			},
			{
				"x": -0.5938696816,
				"y": -1.8495483642,
				"z": -1.2021936022,
				"element": "H" 
			},
			{
				"x": 0.4245516214,
				"y": 0.3636210338,
				"z": -1.1899966707,
				"element": "H" 
			}
		],
		 "valence_orbital": [ 
			{
				"type": "occ",
				"energy": -0.28644,
				"method": "rhf"
			},
			{
				"type": "occ",
				"energy": -0.27288,
				"method": "rhf"
			},
			{
				"type": "occ",
				"energy": -0.26984,
				"method": "rhf"
			},
			{
				"type": "occ",
				"energy": -0.2497,
				"method": "rhf"
			},
			{
				"type": "occ",
				"energy": -0.19796,
				"method": "rhf"
			},
			{
				"type": "unocc",
				"energy": -0.00346,
				"method": "rhf"
			},
			{
				"type": "unocc",
				"energy": 0.00314,
				"method": "rhf"
			},
			{
				"type": "unocc",
				"energy": 0.02629,
				"method": "rhf"
			},
			{
				"type": "unocc",
				"energy": 0.07707,
				"method": "rhf"
			},
			{
				"type": "unocc",
				"energy": 0.09206,
				"method": "rhf"
			}
		],
		"cosmo_sigma_profile": { 
			"-0.025": 0.0,
			"-0.024": 0.0,
			"-0.023": 0.0,
			"-0.022": 0.0,
			"-0.021": 0.0,
			"-0.02": 0.0,
			"-0.019": 0.0,
			"-0.018": 0.0,
			"-0.017": 0.0,
			"-0.016": 0.0,
			"-0.015": 0.0,
			"-0.014": 0.0,
			"-0.013": 0.0,
			"-0.012": 0.0,
			"-0.011": 0.0,
			"-0.01": 0.0,
			"-0.009": 0.109582187249,
			"-0.008": 3.17409845887,
			"-0.007": 8.85614524447,
			"-0.006": 18.8619308274,
			"-0.005": 17.9492990946,
			"-0.004": 18.1888114586,
			"-0.003": 24.6082327456,
			"-0.002": 22.6962221493,
			"-0.001": 21.1578460819,
			"0.0": 22.1322727086,
			"0.001": 17.8266873921,
			"0.002": 12.0634684807,
			"0.003": 13.8579832932,
			"0.004": 17.7338216118,
			"0.005": 20.9990873895,
			"0.006": 17.4121492741,
			"0.007": 5.82132178706,
			"0.008": 3.91281948957,
			"0.009": 3.32388699057,
			"0.01": 2.62634111467,
			"0.011": 0.923510622524,
			"0.012": 0.00799932958073,
			"0.013": 0.0,
			"0.014": 0.0,
			"0.015": 0.0,
			"0.016": 0.0,
			"0.017": 0.0,
			"0.018": 0.0,
			"0.019": 0.0,
			"0.02": 0.0,
			"0.021": 0.0,
			"0.022": 0.0,
			"0.023": 0.0,
			"0.024": 0.0,
			"0.025": 0.0
		}
	}
}
