{
	 "smiles": "NC1=C(NC(=O)C2=NC=CC=C2)C=CC(F)=C1", 
	 "Tm": 375.15, 
	 "num_atms": 27, 
	 "gaussian": { 
		 "optdone": 1, 
		 "sigma_profile": "yes", 
		 "theory": "DFT", 
		 "functional": "B3LYP", 
		 "basiset": "6-31G**", 
		 "properties": { 
			 "R2extent": 4113.8819, 
			 "electric_dipole_moment_norm": 3.29647455625, 
			 "electric_quadrupole_moment_norm": 17.2545019285, 
			 "total_energy": -802.627842212, 
			 "HOMO_LUMO_gap": 0.15678, 
			 "cosmo_polarized_energy": -14.57, 
			 "cosmo_cavitation_energy": 32.4, 
			 "cosmo_dispersion_energy": -22.42, 
			 "cosmo_repulsion_energy": 1.73, 
			 "cosmo_total_nonelectrostatic_energy": 11.71, 
			 "SMD_solvation_energy": 6.5 
		},
		"coords": [
			{
				"x": 1.6746933718,
				"y": -1.3639912958,
				"z": 1.6050609107,
				"element": "N" 
			},
			{
				"x": 0.6570896348,
				"y": -1.6948307856,
				"z": 0.724785961,
				"element": "C" 
			},
			{
				"x": 0.5082595696,
				"y": -0.976384272,
				"z": -0.4854711138,
				"element": "C" 
			},
			{
				"x": 1.4582391513,
				"y": 0.0477835654,
				"z": -0.8210442084,
				"element": "N" 
			},
			{
				"x": 1.2464488666,
				"y": 1.4070903966,
				"z": -0.8845415593,
				"element": "C" 
			},
			{
				"x": 1.907106274,
				"y": 2.1284740257,
				"z": -1.623884001,
				"element": "O" 
			},
			{
				"x": 0.2173310524,
				"y": 2.0071453293,
				"z": 0.040644888,
				"element": "C" 
			},
			{
				"x": 0.0240658155,
				"y": 1.4283863685,
				"z": 1.2350510194,
				"element": "N" 
			},
			{
				"x": -0.8400030015,
				"y": 2.0107423682,
				"z": 2.0737904641,
				"element": "C" 
			},
			{
				"x": -1.548027447,
				"y": 3.1733114482,
				"z": 1.7642812407,
				"element": "C" 
			},
			{
				"x": -1.3310639009,
				"y": 3.7732612512,
				"z": 0.5235837115,
				"element": "C" 
			},
			{
				"x": -0.421944136,
				"y": 3.1871837414,
				"z": -0.3530034976,
				"element": "C" 
			},
			{
				"x": -0.5003819659,
				"y": -1.3216934577,
				"z": -1.3856306347,
				"element": "C" 
			},
			{
				"x": -1.3802787578,
				"y": -2.3730568864,
				"z": -1.128717943,
				"element": "C" 
			},
			{
				"x": -1.205663994,
				"y": -3.0760423411,
				"z": 0.0578513444,
				"element": "C" 
			},
			{
				"x": -2.0357807218,
				"y": -4.104495825,
				"z": 0.3353681544,
				"element": "F" 
			},
			{
				"x": -0.2192094295,
				"y": -2.7621640201,
				"z": 0.9810540504,
				"element": "C" 
			},
			{
				"x": 1.5450506093,
				"y": -1.7179583598,
				"z": 2.5432754098,
				"element": "H" 
			},
			{
				"x": 1.8790604754,
				"y": -0.3712829757,
				"z": 1.5995633996,
				"element": "H" 
			},
			{
				"x": 2.2139025054,
				"y": -0.2297821444,
				"z": -1.4393900761,
				"element": "H" 
			},
			{
				"x": -0.9719606746,
				"y": 1.5258784012,
				"z": 3.0391691184,
				"element": "H" 
			},
			{
				"x": -2.2438626593,
				"y": 3.5964483537,
				"z": 2.4817455426,
				"element": "H" 
			},
			{
				"x": -1.8556095267,
				"y": 4.6834985479,
				"z": 0.2482324395,
				"element": "H" 
			},
			{
				"x": -0.1883222207,
				"y": 3.6178109451,
				"z": -1.3197917823,
				"element": "H" 
			},
			{
				"x": -0.5866440168,
				"y": -0.7560895296,
				"z": -2.308933024,
				"element": "H" 
			},
			{
				"x": -2.1668396031,
				"y": -2.65118223,
				"z": -1.8198565562,
				"element": "H" 
			},
			{
				"x": -0.1418552707,
				"y": -3.3419606192,
				"z": 1.8952067419,
				"element": "H" 
			}
		],
		 "valence_orbital": [ 
			{
				"type": "occ",
				"energy": -0.27275,
				"method": "rhf"
			},
			{
				"type": "occ",
				"energy": -0.26873,
				"method": "rhf"
			},
			{
				"type": "occ",
				"energy": -0.2516,
				"method": "rhf"
			},
			{
				"type": "occ",
				"energy": -0.23982,
				"method": "rhf"
			},
			{
				"type": "occ",
				"energy": -0.20864,
				"method": "rhf"
			},
			{
				"type": "unocc",
				"energy": -0.05186,
				"method": "rhf"
			},
			{
				"type": "unocc",
				"energy": -0.03123,
				"method": "rhf"
			},
			{
				"type": "unocc",
				"energy": -0.00255,
				"method": "rhf"
			},
			{
				"type": "unocc",
				"energy": 0.0128,
				"method": "rhf"
			},
			{
				"type": "unocc",
				"energy": 0.04481,
				"method": "rhf"
			}
		],
		"cosmo_sigma_profile": { 
			"-0.025": 0.0,
			"-0.024": 0.0,
			"-0.023": 0.0,
			"-0.022": 0.0,
			"-0.021": 0.0,
			"-0.02": 0.0,
			"-0.019": 0.0,
			"-0.018": 0.0,
			"-0.017": 0.0,
			"-0.016": 0.0,
			"-0.015": 0.0,
			"-0.014": 0.513167777529,
			"-0.013": 1.61879724053,
			"-0.012": 2.3518439604,
			"-0.011": 2.26557210647,
			"-0.01": 2.00387046007,
			"-0.009": 3.29198661444,
			"-0.008": 4.46194558638,
			"-0.007": 12.6522699965,
			"-0.006": 16.8797260462,
			"-0.005": 15.1554702716,
			"-0.004": 14.4857586276,
			"-0.003": 14.4555581925,
			"-0.002": 12.0428775926,
			"-0.001": 12.7071768164,
			"0.0": 15.9390589385,
			"0.001": 22.7303824189,
			"0.002": 24.6833692018,
			"0.003": 15.833116507,
			"0.004": 21.1876490701,
			"0.005": 14.9098684378,
			"0.006": 4.52261069848,
			"0.007": 4.31695468464,
			"0.008": 1.98164983594,
			"0.009": 2.51835107312,
			"0.01": 2.63759882925,
			"0.011": 2.07873853654,
			"0.012": 3.76233426635,
			"0.013": 5.79307337829,
			"0.014": 1.83015730239,
			"0.015": 0.00494635163811,
			"0.016": 0.0,
			"0.017": 0.0,
			"0.018": 0.0,
			"0.019": 0.0,
			"0.02": 0.0,
			"0.021": 0.0,
			"0.022": 0.0,
			"0.023": 0.0,
			"0.024": 0.0,
			"0.025": 0.0
		}
	}
}
