{
	 "smiles": "[O-][N+](=O)C1=CC=C(CNC(=O)C2=CC(=CC(=C2)[N+]([O-])=O)[N+]([O-])=O)C=C1", 
	 "Tm": 524.15, 
	 "num_atms": 35, 
	 "gaussian": { 
		 "optdone": 1, 
		 "sigma_profile": "yes", 
		 "theory": "DFT", 
		 "functional": "B3LYP", 
		 "basiset": "6-31G**", 
		 "properties": { 
			 "R2extent": 13293.9191, 
			 "electric_dipole_moment_norm": 3.17197526787, 
			 "electric_quadrupole_moment_norm": 26.5026613284, 
			 "total_energy": -1284.79224398, 
			 "HOMO_LUMO_gap": 0.15684, 
			 "cosmo_polarized_energy": -26.13, 
			 "cosmo_cavitation_energy": 43.89, 
			 "cosmo_dispersion_energy": -30.3, 
			 "cosmo_repulsion_energy": 2.28, 
			 "cosmo_total_nonelectrostatic_energy": 15.87, 
			 "SMD_solvation_energy": 14.32 
		},
		"coords": [
			{
				"x": 0.0313401372,
				"y": 3.8515622204,
				"z": -4.9534517855,
				"element": "O" 
			},
			{
				"x": -1.0173635401,
				"y": 3.6986149141,
				"z": -4.3295991866,
				"element": "N" 
			},
			{
				"x": -2.1197432399,
				"y": 4.1049181784,
				"z": -4.6934990997,
				"element": "O" 
			},
			{
				"x": -0.9481743809,
				"y": 2.9726483551,
				"z": -3.0496456023,
				"element": "C" 
			},
			{
				"x": 0.2853998412,
				"y": 2.4995240857,
				"z": -2.6069203295,
				"element": "C" 
			},
			{
				"x": 0.3433522336,
				"y": 1.815810304,
				"z": -1.3959724028,
				"element": "C" 
			},
			{
				"x": -0.8164566936,
				"y": 1.6073154691,
				"z": -0.6352675797,
				"element": "C" 
			},
			{
				"x": -0.7708513277,
				"y": 0.8272537364,
				"z": 0.6684242434,
				"element": "C" 
			},
			{
				"x": 0.3958593492,
				"y": 1.1529998757,
				"z": 1.483402609,
				"element": "N" 
			},
			{
				"x": 1.4116883938,
				"y": 0.3363397238,
				"z": 1.9139223644,
				"element": "C" 
			},
			{
				"x": 2.5027045077,
				"y": 0.7869281953,
				"z": 2.2396765671,
				"element": "O" 
			},
			{
				"x": 1.1517032477,
				"y": -1.1458919179,
				"z": 2.0328797859,
				"element": "C" 
			},
			{
				"x": -0.0562004712,
				"y": -1.6752939666,
				"z": 2.4974278384,
				"element": "C" 
			},
			{
				"x": -0.1708789847,
				"y": -3.0529234168,
				"z": 2.6786680713,
				"element": "C" 
			},
			{
				"x": 0.8708790583,
				"y": -3.9310344475,
				"z": 2.410161669,
				"element": "C" 
			},
			{
				"x": 2.0632383656,
				"y": -3.373581664,
				"z": 1.9584154099,
				"element": "C" 
			},
			{
				"x": 2.2296720574,
				"y": -2.0049044432,
				"z": 1.7821286335,
				"element": "C" 
			},
			{
				"x": 3.1973025397,
				"y": -4.2766658666,
				"z": 1.6664679244,
				"element": "N" 
			},
			{
				"x": 3.0220186343,
				"y": -5.4770094751,
				"z": 1.8566666321,
				"element": "O" 
			},
			{
				"x": 4.2323387176,
				"y": -3.7631616893,
				"z": 1.2520327132,
				"element": "O" 
			},
			{
				"x": -1.4505251491,
				"y": -3.5993344137,
				"z": 3.1743146615,
				"element": "N" 
			},
			{
				"x": -2.3582653709,
				"y": -2.7981190477,
				"z": 3.3885219089,
				"element": "O" 
			},
			{
				"x": -1.5216118222,
				"y": -4.8138127989,
				"z": 3.3340801775,
				"element": "O" 
			},
			{
				"x": -2.0402328691,
				"y": 2.1019262531,
				"z": -1.1055442618,
				"element": "C" 
			},
			{
				"x": -2.1171076802,
				"y": 2.7840955601,
				"z": -2.316986134,
				"element": "C" 
			},
			{
				"x": 1.1690309738,
				"y": 2.6705506001,
				"z": -3.2089226569,
				"element": "H" 
			},
			{
				"x": 1.2993934542,
				"y": 1.4467976739,
				"z": -1.0375732701,
				"element": "H" 
			},
			{
				"x": -0.7450259058,
				"y": -0.2430118621,
				"z": 0.4437446968,
				"element": "H" 
			},
			{
				"x": -1.6960917885,
				"y": 1.009253968,
				"z": 1.2297133968,
				"element": "H" 
			},
			{
				"x": 0.6665238426,
				"y": 2.1297383239,
				"z": 1.5078781255,
				"element": "H" 
			},
			{
				"x": -0.9010054435,
				"y": -1.0461807746,
				"z": 2.7473156294,
				"element": "H" 
			},
			{
				"x": 0.7633261319,
				"y": -4.9978718586,
				"z": 2.5514000208,
				"element": "H" 
			},
			{
				"x": 3.1852792399,
				"y": -1.6061234429,
				"z": 1.4655850349,
				"element": "H" 
			},
			{
				"x": -2.9426915876,
				"y": 1.9547005605,
				"z": -0.5187451129,
				"element": "H" 
			},
			{
				"x": -3.0532244707,
				"y": 3.1748430882,
				"z": -2.6956006918,
				"element": "H" 
			}
		],
		 "valence_orbital": [ 
			{
				"type": "occ",
				"energy": -0.30608,
				"method": "rhf"
			},
			{
				"type": "occ",
				"energy": -0.3027,
				"method": "rhf"
			},
			{
				"type": "occ",
				"energy": -0.29617,
				"method": "rhf"
			},
			{
				"type": "occ",
				"energy": -0.28779,
				"method": "rhf"
			},
			{
				"type": "occ",
				"energy": -0.28096,
				"method": "rhf"
			},
			{
				"type": "unocc",
				"energy": -0.12412,
				"method": "rhf"
			},
			{
				"type": "unocc",
				"energy": -0.11458,
				"method": "rhf"
			},
			{
				"type": "unocc",
				"energy": -0.10269,
				"method": "rhf"
			},
			{
				"type": "unocc",
				"energy": -0.07117,
				"method": "rhf"
			},
			{
				"type": "unocc",
				"energy": -0.04697,
				"method": "rhf"
			}
		],
		"cosmo_sigma_profile": { 
			"-0.025": 0.0,
			"-0.024": 0.0,
			"-0.023": 0.0,
			"-0.022": 0.0,
			"-0.021": 0.0,
			"-0.02": 0.0,
			"-0.019": 0.0,
			"-0.018": 0.0,
			"-0.017": 0.0,
			"-0.016": 0.0,
			"-0.015": 0.0684565453935,
			"-0.014": 0.814661422351,
			"-0.013": 0.939792964979,
			"-0.012": 0.365797479952,
			"-0.011": 1.22820400463,
			"-0.01": 1.3024972342,
			"-0.009": 2.91615882138,
			"-0.008": 12.2537713938,
			"-0.007": 23.7859790943,
			"-0.006": 25.9658808799,
			"-0.005": 25.2351343354,
			"-0.004": 28.9234057253,
			"-0.003": 23.8060023754,
			"-0.002": 17.7865982097,
			"-0.001": 17.0894778038,
			"0.0": 19.1301590942,
			"0.001": 20.1719707888,
			"0.002": 14.2942990549,
			"0.003": 10.2076491658,
			"0.004": 8.74881574623,
			"0.005": 11.6930668507,
			"0.006": 18.7748188651,
			"0.007": 24.0623031117,
			"0.008": 17.7645576561,
			"0.009": 11.3889999099,
			"0.01": 4.28171835808,
			"0.011": 1.97870433238,
			"0.012": 4.11252638607,
			"0.013": 3.70049556721,
			"0.014": 0.246640756141,
			"0.015": 0.0,
			"0.016": 0.0,
			"0.017": 0.0,
			"0.018": 0.0,
			"0.019": 0.0,
			"0.02": 0.0,
			"0.021": 0.0,
			"0.022": 0.0,
			"0.023": 0.0,
			"0.024": 0.0,
			"0.025": 0.0
		}
	}
}
