{
	 "smiles": "O=C(OOC(=O)C1=CC=CC=C1)C1=CC=CC=C1", 
	 "Tm": 378.15, 
	 "num_atms": 28, 
	 "gaussian": { 
		 "optdone": 1, 
		 "sigma_profile": "yes", 
		 "theory": "DFT", 
		 "functional": "B3LYP", 
		 "basiset": "6-31G**", 
		 "properties": { 
			 "R2extent": 5725.3762, 
			 "electric_dipole_moment_norm": 6.0469823499, 
			 "electric_quadrupole_moment_norm": 24.799856673, 
			 "total_energy": -840.334297448, 
			 "HOMO_LUMO_gap": 0.2003, 
			 "cosmo_polarized_energy": -12.6, 
			 "cosmo_cavitation_energy": 34.16, 
			 "cosmo_dispersion_energy": -23.63, 
			 "cosmo_repulsion_energy": 1.84, 
			 "cosmo_total_nonelectrostatic_energy": 12.37, 
			 "SMD_solvation_energy": 7.18 
		},
		"coords": [
			{
				"x": -0.8224890294,
				"y": 1.9628824467,
				"z": 2.3252936727,
				"element": "O" 
			},
			{
				"x": 0.0529421178,
				"y": 2.246792113,
				"z": 1.5475727141,
				"element": "C" 
			},
			{
				"x": 1.3229835654,
				"y": 1.6917462487,
				"z": 1.5917500181,
				"element": "O" 
			},
			{
				"x": 1.5366390264,
				"y": 0.9946714808,
				"z": 2.8457739539,
				"element": "O" 
			},
			{
				"x": 0.9613047401,
				"y": -0.2743973416,
				"z": 2.925252489,
				"element": "C" 
			},
			{
				"x": 0.902883174,
				"y": -0.7189169625,
				"z": 4.0427601055,
				"element": "O" 
			},
			{
				"x": 0.5437995965,
				"y": -1.0017204143,
				"z": 1.6969736642,
				"element": "C" 
			},
			{
				"x": 1.2375390216,
				"y": -0.9302560574,
				"z": 0.4801491221,
				"element": "C" 
			},
			{
				"x": 0.8395925135,
				"y": -1.7284217162,
				"z": -0.5915190327,
				"element": "C" 
			},
			{
				"x": -0.25388469,
				"y": -2.5870954386,
				"z": -0.4613039142,
				"element": "C" 
			},
			{
				"x": -0.942382891,
				"y": -2.6645341788,
				"z": 0.7520996221,
				"element": "C" 
			},
			{
				"x": -0.53671559,
				"y": -1.886247425,
				"z": 1.8326202108,
				"element": "C" 
			},
			{
				"x": -0.0575119266,
				"y": 3.1814392213,
				"z": 0.3964080704,
				"element": "C" 
			},
			{
				"x": -1.34015131,
				"y": 3.6542801217,
				"z": 0.0822308359,
				"element": "C" 
			},
			{
				"x": -1.51407443,
				"y": 4.5376070991,
				"z": -0.9793416478,
				"element": "C" 
			},
			{
				"x": -0.4105950011,
				"y": 4.954253755,
				"z": -1.7292139611,
				"element": "C" 
			},
			{
				"x": 0.8684607998,
				"y": 4.4883295342,
				"z": -1.4152095496,
				"element": "C" 
			},
			{
				"x": 1.0503679542,
				"y": 3.6030486169,
				"z": -0.354361521,
				"element": "C" 
			},
			{
				"x": 2.0882192401,
				"y": -0.2676386812,
				"z": 0.3763201544,
				"element": "H" 
			},
			{
				"x": 1.3851268289,
				"y": -1.679756377,
				"z": -1.5291388952,
				"element": "H" 
			},
			{
				"x": -0.5653811798,
				"y": -3.1997210754,
				"z": -1.302461408,
				"element": "H" 
			},
			{
				"x": -1.7888736311,
				"y": -3.3362365594,
				"z": 0.8576494458,
				"element": "H" 
			},
			{
				"x": -1.045909672,
				"y": -1.9487236842,
				"z": 2.7883406234,
				"element": "H" 
			},
			{
				"x": -2.180103988,
				"y": 3.3195818189,
				"z": 0.6812718548,
				"element": "H" 
			},
			{
				"x": -2.5074176028,
				"y": 4.9025028555,
				"z": -1.2221495502,
				"element": "H" 
			},
			{
				"x": -0.5471020491,
				"y": 5.644769008,
				"z": -2.5565040493,
				"element": "H" 
			},
			{
				"x": 1.7254396184,
				"y": 4.8181702316,
				"z": -1.9945664698,
				"element": "H" 
			},
			{
				"x": 2.0427947942,
				"y": 3.2473913602,
				"z": -0.1025965581,
				"element": "H" 
			}
		],
		 "valence_orbital": [ 
			{
				"type": "occ",
				"energy": -0.28747,
				"method": "rhf"
			},
			{
				"type": "occ",
				"energy": -0.27387,
				"method": "rhf"
			},
			{
				"type": "occ",
				"energy": -0.27129,
				"method": "rhf"
			},
			{
				"type": "occ",
				"energy": -0.26566,
				"method": "rhf"
			},
			{
				"type": "occ",
				"energy": -0.26281,
				"method": "rhf"
			},
			{
				"type": "unocc",
				"energy": -0.06251,
				"method": "rhf"
			},
			{
				"type": "unocc",
				"energy": -0.05136,
				"method": "rhf"
			},
			{
				"type": "unocc",
				"energy": -0.02226,
				"method": "rhf"
			},
			{
				"type": "unocc",
				"energy": -0.01557,
				"method": "rhf"
			},
			{
				"type": "unocc",
				"energy": -0.01426,
				"method": "rhf"
			}
		],
		"cosmo_sigma_profile": { 
			"-0.025": 0.0,
			"-0.024": 0.0,
			"-0.023": 0.0,
			"-0.022": 0.0,
			"-0.021": 0.0,
			"-0.02": 0.0,
			"-0.019": 0.0,
			"-0.018": 0.0,
			"-0.017": 0.0,
			"-0.016": 0.0,
			"-0.015": 0.0,
			"-0.014": 0.0,
			"-0.013": 0.0,
			"-0.012": 0.0,
			"-0.011": 0.0,
			"-0.01": 0.0,
			"-0.009": 0.0,
			"-0.008": 0.0435387999554,
			"-0.007": 10.7496665942,
			"-0.006": 22.4014550211,
			"-0.005": 24.1037685795,
			"-0.004": 19.1587152216,
			"-0.003": 16.5387056589,
			"-0.002": 17.9210169915,
			"-0.001": 20.8594396525,
			"0.0": 18.2133109843,
			"0.001": 20.0768197239,
			"0.002": 24.407599943,
			"0.003": 30.2595375069,
			"0.004": 11.0084898509,
			"0.005": 5.55537703863,
			"0.006": 6.26463141732,
			"0.007": 6.26697602437,
			"0.008": 4.49910604077,
			"0.009": 6.1182296868,
			"0.01": 9.09781185704,
			"0.011": 1.72032060078,
			"0.012": 0.0,
			"0.013": 0.0,
			"0.014": 0.0,
			"0.015": 0.0,
			"0.016": 0.0,
			"0.017": 0.0,
			"0.018": 0.0,
			"0.019": 0.0,
			"0.02": 0.0,
			"0.021": 0.0,
			"0.022": 0.0,
			"0.023": 0.0,
			"0.024": 0.0,
			"0.025": 0.0
		}
	}
}
