{
	 "smiles": "CCCCOC(=O)C1=CC=CC=C1C(O)=O", 
	 "Tm": 346.65, 
	 "num_atms": 30, 
	 "gaussian": { 
		 "optdone": 1, 
		 "sigma_profile": "yes", 
		 "theory": "DFT", 
		 "functional": "B3LYP", 
		 "basiset": "6-31G**", 
		 "properties": { 
			 "R2extent": 4193.1715, 
			 "electric_dipole_moment_norm": 4.23668011655, 
			 "electric_quadrupole_moment_norm": 25.50735872, 
			 "total_energy": -766.637989614, 
			 "HOMO_LUMO_gap": 0.19322, 
			 "cosmo_polarized_energy": -13.8, 
			 "cosmo_cavitation_energy": 33.57, 
			 "cosmo_dispersion_energy": -23.31, 
			 "cosmo_repulsion_energy": 1.82, 
			 "cosmo_total_nonelectrostatic_energy": 12.08, 
			 "SMD_solvation_energy": 7.33 
		},
		"coords": [
			{
				"x": -0.9912277556,
				"y": -0.7859293032,
				"z": -3.3472721176,
				"element": "C" 
			},
			{
				"x": 0.3069654648,
				"y": -0.4523429002,
				"z": -4.0935477033,
				"element": "C" 
			},
			{
				"x": 1.1143659731,
				"y": 0.7302828029,
				"z": -3.5297604246,
				"element": "C" 
			},
			{
				"x": 1.7818520582,
				"y": 0.5149128163,
				"z": -2.1788361222,
				"element": "C" 
			},
			{
				"x": 0.7610887874,
				"y": 0.4971983639,
				"z": -1.1336660528,
				"element": "O" 
			},
			{
				"x": 1.2087693932,
				"y": 0.4966725395,
				"z": 0.154231338,
				"element": "C" 
			},
			{
				"x": 2.3883968391,
				"y": 0.4382499046,
				"z": 0.4198268291,
				"element": "O" 
			},
			{
				"x": 0.1152670596,
				"y": 0.4641305661,
				"z": 1.1842354578,
				"element": "C" 
			},
			{
				"x": 0.454484575,
				"y": -0.3442968501,
				"z": 2.2841725876,
				"element": "C" 
			},
			{
				"x": -0.4204278273,
				"y": -0.538617768,
				"z": 3.3463741699,
				"element": "C" 
			},
			{
				"x": -1.6532297098,
				"y": 0.1118682536,
				"z": 3.3424717246,
				"element": "C" 
			},
			{
				"x": -1.9827577838,
				"y": 0.9542258207,
				"z": 2.2863033408,
				"element": "C" 
			},
			{
				"x": -1.1315961005,
				"y": 1.1458631282,
				"z": 1.1855144743,
				"element": "C" 
			},
			{
				"x": -1.6774498476,
				"y": 2.1766596952,
				"z": 0.2000443761,
				"element": "C" 
			},
			{
				"x": -1.2307708296,
				"y": 2.1915437794,
				"z": -1.0610991818,
				"element": "O" 
			},
			{
				"x": -2.5268516847,
				"y": 2.9658320512,
				"z": 0.5545956552,
				"element": "O" 
			},
			{
				"x": -0.7981774158,
				"y": -1.1499994043,
				"z": -2.334568314,
				"element": "H" 
			},
			{
				"x": -1.6391867109,
				"y": 0.094047204,
				"z": -3.265258932,
				"element": "H" 
			},
			{
				"x": -1.5512598415,
				"y": -1.5619315576,
				"z": -3.8788032741,
				"element": "H" 
			},
			{
				"x": 0.9527937502,
				"y": -1.3405352276,
				"z": -4.126664927,
				"element": "H" 
			},
			{
				"x": 0.0650243349,
				"y": -0.2181731958,
				"z": -5.1374400447,
				"element": "H" 
			},
			{
				"x": 1.9265269157,
				"y": 0.9659850488,
				"z": -4.2295788414,
				"element": "H" 
			},
			{
				"x": 0.4884953985,
				"y": 1.6310087312,
				"z": -3.4805918889,
				"element": "H" 
			},
			{
				"x": 2.4871224173,
				"y": 1.3155441913,
				"z": -1.9426672982,
				"element": "H" 
			},
			{
				"x": 2.3214381517,
				"y": -0.4359135754,
				"z": -2.1299703056,
				"element": "H" 
			},
			{
				"x": 1.4288210526,
				"y": -0.8195578206,
				"z": 2.2830284697,
				"element": "H" 
			},
			{
				"x": -0.1357875549,
				"y": -1.1847080892,
				"z": 4.1711575187,
				"element": "H" 
			},
			{
				"x": -2.3495750057,
				"y": -0.0200431123,
				"z": 4.165129161,
				"element": "H" 
			},
			{
				"x": -2.9128023063,
				"y": 1.5099100002,
				"z": 2.2928146582,
				"element": "H" 
			},
			{
				"x": -0.5748117973,
				"y": 1.4813139073,
				"z": -1.2139743329,
				"element": "H" 
			}
		],
		 "valence_orbital": [ 
			{
				"type": "occ",
				"energy": -0.30509,
				"method": "rhf"
			},
			{
				"type": "occ",
				"energy": -0.30161,
				"method": "rhf"
			},
			{
				"type": "occ",
				"energy": -0.27632,
				"method": "rhf"
			},
			{
				"type": "occ",
				"energy": -0.27309,
				"method": "rhf"
			},
			{
				"type": "occ",
				"energy": -0.261,
				"method": "rhf"
			},
			{
				"type": "unocc",
				"energy": -0.06778,
				"method": "rhf"
			},
			{
				"type": "unocc",
				"energy": -0.03506,
				"method": "rhf"
			},
			{
				"type": "unocc",
				"energy": 0.01811,
				"method": "rhf"
			},
			{
				"type": "unocc",
				"energy": 0.04992,
				"method": "rhf"
			},
			{
				"type": "unocc",
				"energy": 0.07101,
				"method": "rhf"
			}
		],
		"cosmo_sigma_profile": { 
			"-0.025": 0.0,
			"-0.024": 0.0,
			"-0.023": 0.0,
			"-0.022": 0.0,
			"-0.021": 0.0,
			"-0.02": 0.0,
			"-0.019": 0.0,
			"-0.018": 0.0,
			"-0.017": 0.0,
			"-0.016": 0.0,
			"-0.015": 0.0,
			"-0.014": 0.0,
			"-0.013": 0.0,
			"-0.012": 0.0,
			"-0.011": 0.0,
			"-0.01": 0.0165941491183,
			"-0.009": 0.562886437846,
			"-0.008": 1.48012284197,
			"-0.007": 7.76767843949,
			"-0.006": 15.8195714724,
			"-0.005": 19.5200491364,
			"-0.004": 19.8348635174,
			"-0.003": 24.3844852807,
			"-0.002": 26.7158291543,
			"-0.001": 29.3227387661,
			"0.0": 23.8511309361,
			"0.001": 22.113909694,
			"0.002": 20.3220802083,
			"0.003": 7.53999466572,
			"0.004": 3.80940547714,
			"0.005": 4.27633873283,
			"0.006": 2.40912763093,
			"0.007": 4.33119615594,
			"0.008": 4.2634687341,
			"0.009": 4.17245289179,
			"0.01": 6.61719613688,
			"0.011": 9.15193440575,
			"0.012": 5.09572379494,
			"0.013": 2.25799495778,
			"0.014": 0.439280372015,
			"0.015": 0.0,
			"0.016": 0.0,
			"0.017": 0.0,
			"0.018": 0.0,
			"0.019": 0.0,
			"0.02": 0.0,
			"0.021": 0.0,
			"0.022": 0.0,
			"0.023": 0.0,
			"0.024": 0.0,
			"0.025": 0.0
		}
	}
}
