{
	 "smiles": "CNC(=O)C=C(C)OP(=O)(OC)OC", 
	 "Tm": 328.15, 
	 "num_atms": 28, 
	 "gaussian": { 
		 "optdone": 1, 
		 "sigma_profile": "yes", 
		 "theory": "DFT", 
		 "functional": "B3LYP", 
		 "basiset": "6-31G**", 
		 "properties": { 
			 "R2extent": 4311.564, 
			 "electric_dipole_moment_norm": 3.65840928547, 
			 "electric_quadrupole_moment_norm": 11.2685994267, 
			 "total_energy": -1047.46369715, 
			 "HOMO_LUMO_gap": 0.22847, 
			 "cosmo_polarized_energy": -17.87, 
			 "cosmo_cavitation_energy": 33.2, 
			 "cosmo_dispersion_energy": -22.33, 
			 "cosmo_repulsion_energy": 1.77, 
			 "cosmo_total_nonelectrostatic_energy": 12.64, 
			 "SMD_solvation_energy": 9.18 
		},
		"coords": [
			{
				"x": -0.345561826,
				"y": 0.7645525042,
				"z": -1.6584709674,
				"element": "C" 
			},
			{
				"x": 0.5019537506,
				"y": -0.3906872838,
				"z": -1.8994733674,
				"element": "N" 
			},
			{
				"x": 0.7041701049,
				"y": -1.4797227193,
				"z": -1.1092485909,
				"element": "C" 
			},
			{
				"x": 1.4859530699,
				"y": -2.3753962464,
				"z": -1.4353051544,
				"element": "O" 
			},
			{
				"x": -0.0667390542,
				"y": -1.6092156049,
				"z": 0.1705573115,
				"element": "C" 
			},
			{
				"x": 0.0712107704,
				"y": -0.8266046931,
				"z": 1.2461896069,
				"element": "C" 
			},
			{
				"x": -0.5553977401,
				"y": -1.0591651972,
				"z": 2.5866676684,
				"element": "C" 
			},
			{
				"x": 0.8205075237,
				"y": 0.3467490753,
				"z": 1.1249972686,
				"element": "O" 
			},
			{
				"x": 2.2546171316,
				"y": 0.6119498034,
				"z": 1.8702404526,
				"element": "P" 
			},
			{
				"x": 3.0132607883,
				"y": 1.6499602213,
				"z": 1.1450496076,
				"element": "O" 
			},
			{
				"x": 2.9044541346,
				"y": -0.8290972887,
				"z": 2.0837480375,
				"element": "O" 
			},
			{
				"x": 3.7383854709,
				"y": -1.4154159382,
				"z": 1.0498880863,
				"element": "C" 
			},
			{
				"x": 1.8828186229,
				"y": 0.9222458059,
				"z": 3.4040274659,
				"element": "O" 
			},
			{
				"x": 1.5348038857,
				"y": 2.2737070626,
				"z": 3.7610871584,
				"element": "C" 
			},
			{
				"x": -1.1434174363,
				"y": 0.4915182842,
				"z": -0.9667177657,
				"element": "H" 
			},
			{
				"x": -0.8017784918,
				"y": 1.0839340389,
				"z": -2.6003627657,
				"element": "H" 
			},
			{
				"x": 0.2135799762,
				"y": 1.6015935867,
				"z": -1.2268484048,
				"element": "H" 
			},
			{
				"x": 1.110011821,
				"y": -0.3753928199,
				"z": -2.7084387936,
				"element": "H" 
			},
			{
				"x": -0.6398041761,
				"y": -2.5253631009,
				"z": 0.2696882265,
				"element": "H" 
			},
			{
				"x": -1.1964942944,
				"y": -1.942619139,
				"z": 2.5642400145,
				"element": "H" 
			},
			{
				"x": 0.2109808916,
				"y": -1.1990621783,
				"z": 3.3559383998,
				"element": "H" 
			},
			{
				"x": -1.1572818362,
				"y": -0.1921294425,
				"z": 2.8814052143,
				"element": "H" 
			},
			{
				"x": 3.1160752602,
				"y": -1.9317475856,
				"z": 0.3150942392,
				"element": "H" 
			},
			{
				"x": 4.339007051,
				"y": -0.6409708744,
				"z": 0.5674519554,
				"element": "H" 
			},
			{
				"x": 4.3888187221,
				"y": -2.1263950128,
				"z": 1.5602303621,
				"element": "H" 
			},
			{
				"x": 2.2752630846,
				"y": 2.976382395,
				"z": 3.3719650956,
				"element": "H" 
			},
			{
				"x": 0.5435086327,
				"y": 2.5304930328,
				"z": 3.37319999,
				"element": "H" 
			},
			{
				"x": 1.5201941623,
				"y": 2.3071993147,
				"z": 4.8509996489,
				"element": "H" 
			}
		],
		 "valence_orbital": [ 
			{
				"type": "occ",
				"energy": -0.29691,
				"method": "rhf"
			},
			{
				"type": "occ",
				"energy": -0.29082,
				"method": "rhf"
			},
			{
				"type": "occ",
				"energy": -0.26896,
				"method": "rhf"
			},
			{
				"type": "occ",
				"energy": -0.24682,
				"method": "rhf"
			},
			{
				"type": "occ",
				"energy": -0.23954,
				"method": "rhf"
			},
			{
				"type": "unocc",
				"energy": -0.01107,
				"method": "rhf"
			},
			{
				"type": "unocc",
				"energy": 0.04237,
				"method": "rhf"
			},
			{
				"type": "unocc",
				"energy": 0.05371,
				"method": "rhf"
			},
			{
				"type": "unocc",
				"energy": 0.08324,
				"method": "rhf"
			},
			{
				"type": "unocc",
				"energy": 0.09701,
				"method": "rhf"
			}
		],
		"cosmo_sigma_profile": { 
			"-0.025": 0.0,
			"-0.024": 0.0,
			"-0.023": 0.0,
			"-0.022": 0.0,
			"-0.021": 0.0,
			"-0.02": 0.0,
			"-0.019": 0.0,
			"-0.018": 0.0,
			"-0.017": 0.0,
			"-0.016": 0.0,
			"-0.015": 0.0,
			"-0.014": 0.379502381437,
			"-0.013": 1.20752123682,
			"-0.012": 1.06071380817,
			"-0.011": 1.09318666804,
			"-0.01": 0.610433357495,
			"-0.009": 0.774646783632,
			"-0.008": 2.07856577409,
			"-0.007": 7.49393171256,
			"-0.006": 14.8933412341,
			"-0.005": 22.7022787295,
			"-0.004": 27.7924827126,
			"-0.003": 26.1797563883,
			"-0.002": 25.1099198254,
			"-0.001": 21.7538253576,
			"0.0": 15.5390503966,
			"0.001": 13.2480452426,
			"0.002": 9.97137381131,
			"0.003": 9.92788294919,
			"0.004": 8.17688040416,
			"0.005": 6.32253323347,
			"0.006": 4.56271750068,
			"0.007": 4.84390366235,
			"0.008": 4.17771443724,
			"0.009": 3.91534162066,
			"0.01": 3.65585278247,
			"0.011": 2.92777881938,
			"0.012": 3.13995210023,
			"0.013": 6.78102045455,
			"0.014": 8.52931380695,
			"0.015": 1.40008997843,
			"0.016": 0.0230637059668,
			"0.017": 0.0,
			"0.018": 0.0,
			"0.019": 0.0,
			"0.02": 0.0,
			"0.021": 0.0,
			"0.022": 0.0,
			"0.023": 0.0,
			"0.024": 0.0,
			"0.025": 0.0
		}
	}
}
