{
	 "smiles": "CCN(CC1=CC2=C(OCCO2)C=C1)C(=O)CCl", 
	 "Tm": 487.15, 
	 "num_atms": 34, 
	 "gaussian": { 
		 "optdone": 1, 
		 "sigma_profile": "yes", 
		 "theory": "DFT", 
		 "functional": "B3LYP", 
		 "basiset": "6-31G**", 
		 "properties": { 
			 "R2extent": 7192.1498, 
			 "electric_dipole_moment_norm": 5.61575086164, 
			 "electric_quadrupole_moment_norm": 27.9533784684, 
			 "total_energy": -1245.63442845, 
			 "HOMO_LUMO_gap": 0.2081, 
			 "cosmo_polarized_energy": -18.37, 
			 "cosmo_cavitation_energy": 38.45, 
			 "cosmo_dispersion_energy": -27.25, 
			 "cosmo_repulsion_energy": 2.15, 
			 "cosmo_total_nonelectrostatic_energy": 13.35, 
			 "SMD_solvation_energy": 7.03 
		},
		"coords": [
			{
				"x": 2.9338232544,
				"y": -0.0800394032,
				"z": 3.8316773556,
				"element": "C" 
			},
			{
				"x": 2.0788113111,
				"y": -0.6578766534,
				"z": 2.7015135185,
				"element": "C" 
			},
			{
				"x": 2.6102065299,
				"y": -0.3476362338,
				"z": 1.3656989132,
				"element": "N" 
			},
			{
				"x": 2.1452457724,
				"y": 0.8831532654,
				"z": 0.7369205485,
				"element": "C" 
			},
			{
				"x": 0.7646532766,
				"y": 0.8021210712,
				"z": 0.0950703553,
				"element": "C" 
			},
			{
				"x": 0.2269711411,
				"y": -0.4124544254,
				"z": -0.3339236436,
				"element": "C" 
			},
			{
				"x": -1.0179322011,
				"y": -0.4575595702,
				"z": -0.9642398648,
				"element": "C" 
			},
			{
				"x": -1.7472446296,
				"y": 0.7262718911,
				"z": -1.1642428362,
				"element": "C" 
			},
			{
				"x": -2.9841091055,
				"y": 0.7264432539,
				"z": -1.7608453174,
				"element": "O" 
			},
			{
				"x": -3.5932781985,
				"y": -0.5638576383,
				"z": -1.8223787212,
				"element": "C" 
			},
			{
				"x": -2.5828066567,
				"y": -1.5988149218,
				"z": -2.2901004982,
				"element": "C" 
			},
			{
				"x": -1.4966277318,
				"y": -1.6793279769,
				"z": -1.3663166516,
				"element": "O" 
			},
			{
				"x": -1.2080047644,
				"y": 1.9429127217,
				"z": -0.7435601317,
				"element": "C" 
			},
			{
				"x": 0.0362168298,
				"y": 1.9806676876,
				"z": -0.1205108342,
				"element": "C" 
			},
			{
				"x": 3.5410308533,
				"y": -1.2082449738,
				"z": 0.8346277247,
				"element": "C" 
			},
			{
				"x": 3.9364407839,
				"y": -2.1936667512,
				"z": 1.4373266094,
				"element": "O" 
			},
			{
				"x": 4.0506889213,
				"y": -0.8466901136,
				"z": -0.5752572061,
				"element": "C" 
			},
			{
				"x": 5.0557450813,
				"y": -2.1493180353,
				"z": -1.2830376895,
				"element": "Cl" 
			},
			{
				"x": 3.0238480764,
				"y": 1.0091755222,
				"z": 3.7552633568,
				"element": "H" 
			},
			{
				"x": 2.4841182499,
				"y": -0.311123151,
				"z": 4.8030070209,
				"element": "H" 
			},
			{
				"x": 3.9360006816,
				"y": -0.51532902,
				"z": 3.8054251534,
				"element": "H" 
			},
			{
				"x": 1.0568499686,
				"y": -0.2674039748,
				"z": 2.7425886423,
				"element": "H" 
			},
			{
				"x": 2.0299809167,
				"y": -1.7445117234,
				"z": 2.7914666486,
				"element": "H" 
			},
			{
				"x": 2.1383087583,
				"y": 1.67412699,
				"z": 1.4975772397,
				"element": "H" 
			},
			{
				"x": 2.8780814271,
				"y": 1.2092093001,
				"z": -0.0070381504,
				"element": "H" 
			},
			{
				"x": 0.7552237064,
				"y": -1.3478921477,
				"z": -0.1806511509,
				"element": "H" 
			},
			{
				"x": -3.9812987766,
				"y": -0.8411577461,
				"z": -0.8326918854,
				"element": "H" 
			},
			{
				"x": -4.4287785956,
				"y": -0.4795387494,
				"z": -2.5217846215,
				"element": "H" 
			},
			{
				"x": -2.2061060587,
				"y": -1.3299850452,
				"z": -3.2863872631,
				"element": "H" 
			},
			{
				"x": -3.0264228629,
				"y": -2.5965337842,
				"z": -2.334370483,
				"element": "H" 
			},
			{
				"x": -1.78934067,
				"y": 2.8454516646,
				"z": -0.9028437436,
				"element": "H" 
			},
			{
				"x": 0.4390560443,
				"y": 2.935172536,
				"z": 0.2086911616,
				"element": "H" 
			},
			{
				"x": 4.6733121849,
				"y": 0.0506059804,
				"z": -0.5369359102,
				"element": "H" 
			},
			{
				"x": 3.2224364823,
				"y": -0.6656498456,
				"z": -1.262437646,
				"element": "H" 
			}
		],
		 "valence_orbital": [ 
			{
				"type": "occ",
				"energy": -0.29074,
				"method": "rhf"
			},
			{
				"type": "occ",
				"energy": -0.25458,
				"method": "rhf"
			},
			{
				"type": "occ",
				"energy": -0.24608,
				"method": "rhf"
			},
			{
				"type": "occ",
				"energy": -0.24184,
				"method": "rhf"
			},
			{
				"type": "occ",
				"energy": -0.21691,
				"method": "rhf"
			},
			{
				"type": "unocc",
				"energy": -0.00881,
				"method": "rhf"
			},
			{
				"type": "unocc",
				"energy": 0.00092,
				"method": "rhf"
			},
			{
				"type": "unocc",
				"energy": 0.01772,
				"method": "rhf"
			},
			{
				"type": "unocc",
				"energy": 0.03391,
				"method": "rhf"
			},
			{
				"type": "unocc",
				"energy": 0.07727,
				"method": "rhf"
			}
		],
		"cosmo_sigma_profile": { 
			"-0.025": 0.0,
			"-0.024": 0.0,
			"-0.023": 0.0,
			"-0.022": 0.0,
			"-0.021": 0.0,
			"-0.02": 0.0,
			"-0.019": 0.0,
			"-0.018": 0.0,
			"-0.017": 0.0,
			"-0.016": 0.0,
			"-0.015": 0.0,
			"-0.014": 0.0,
			"-0.013": 0.0,
			"-0.012": 0.0,
			"-0.011": 0.00999964384119,
			"-0.01": 1.61303336505,
			"-0.009": 3.51591874154,
			"-0.008": 4.52515119353,
			"-0.007": 10.7028017912,
			"-0.006": 22.9866168119,
			"-0.005": 26.6811285562,
			"-0.004": 25.0324174849,
			"-0.003": 22.9472974844,
			"-0.002": 20.9386477242,
			"-0.001": 21.0917365517,
			"0.0": 19.4350072122,
			"0.001": 17.7302931385,
			"0.002": 12.4354933183,
			"0.003": 15.0593835374,
			"0.004": 18.3287599495,
			"0.005": 16.3531134249,
			"0.006": 13.5566118229,
			"0.007": 5.24135581233,
			"0.008": 4.28533090619,
			"0.009": 4.57724133732,
			"0.01": 5.98283602445,
			"0.011": 2.24246162247,
			"0.012": 2.52224643122,
			"0.013": 4.11468598671,
			"0.014": 2.80378243735,
			"0.015": 0.964265798834,
			"0.016": 0.0,
			"0.017": 0.0,
			"0.018": 0.0,
			"0.019": 0.0,
			"0.02": 0.0,
			"0.021": 0.0,
			"0.022": 0.0,
			"0.023": 0.0,
			"0.024": 0.0,
			"0.025": 0.0
		}
	}
}
