{
	 "smiles": "CC(C)(C)C1=CC=C(OC(=O)C2=C(O)C=CC=C2)C=C1", 
	 "Tm": 335.15, 
	 "num_atms": 38, 
	 "gaussian": { 
		 "optdone": 1, 
		 "sigma_profile": "yes", 
		 "theory": "DFT", 
		 "functional": "B3LYP", 
		 "basiset": "6-31G**", 
		 "properties": { 
			 "R2extent": 10117.1334, 
			 "electric_dipole_moment_norm": 1.3659965959, 
			 "electric_quadrupole_moment_norm": 12.4525428889, 
			 "total_energy": -884.356845842, 
			 "HOMO_LUMO_gap": 0.17853, 
			 "cosmo_polarized_energy": -9.74, 
			 "cosmo_cavitation_energy": 40.76, 
			 "cosmo_dispersion_energy": -28.93, 
			 "cosmo_repulsion_energy": 2.18, 
			 "cosmo_total_nonelectrostatic_energy": 14.02, 
			 "SMD_solvation_energy": 8.15 
		},
		"coords": [
			{
				"x": 0.6902033871,
				"y": -2.9028014069,
				"z": 2.8157892027,
				"element": "C" 
			},
			{
				"x": 0.5863238613,
				"y": -2.8765292037,
				"z": 1.2720840344,
				"element": "C" 
			},
			{
				"x": -0.6524207585,
				"y": -3.6904319282,
				"z": 0.8275323313,
				"element": "C" 
			},
			{
				"x": 1.8412864886,
				"y": -3.5583493072,
				"z": 0.6947321574,
				"element": "C" 
			},
			{
				"x": 0.4399679656,
				"y": -1.4205003964,
				"z": 0.7931499682,
				"element": "C" 
			},
			{
				"x": -0.6516567624,
				"y": -0.6473322052,
				"z": 1.2245545391,
				"element": "C" 
			},
			{
				"x": -0.82501846,
				"y": 0.6711352361,
				"z": 0.8114235036,
				"element": "C" 
			},
			{
				"x": 0.1094681221,
				"y": 1.2432074485,
				"z": -0.0465357567,
				"element": "C" 
			},
			{
				"x": -0.0623157855,
				"y": 2.5983402206,
				"z": -0.3680500784,
				"element": "O" 
			},
			{
				"x": -0.1162238219,
				"y": 2.9989296954,
				"z": -1.7006934683,
				"element": "C" 
			},
			{
				"x": -0.0119451998,
				"y": 2.2116954036,
				"z": -2.6110142402,
				"element": "O" 
			},
			{
				"x": -0.3120269195,
				"y": 4.4586988814,
				"z": -1.8364319332,
				"element": "C" 
			},
			{
				"x": -0.4211901819,
				"y": 5.3753697286,
				"z": -0.7594632852,
				"element": "C" 
			},
			{
				"x": -0.3584727444,
				"y": 5.0366525582,
				"z": 0.54525055,
				"element": "O" 
			},
			{
				"x": -0.6073237723,
				"y": 6.7399431387,
				"z": -1.0384032556,
				"element": "C" 
			},
			{
				"x": -0.6845550126,
				"y": 7.1910856146,
				"z": -2.3474263866,
				"element": "C" 
			},
			{
				"x": -0.5780448732,
				"y": 6.2941604191,
				"z": -3.4208970798,
				"element": "C" 
			},
			{
				"x": -0.3938807445,
				"y": 4.9475790592,
				"z": -3.1567523361,
				"element": "C" 
			},
			{
				"x": 1.2059629479,
				"y": 0.5159542784,
				"z": -0.49253124,
				"element": "C" 
			},
			{
				"x": 1.3573582366,
				"y": -0.8070610312,
				"z": -0.0718077043,
				"element": "C" 
			},
			{
				"x": 1.5635784443,
				"y": -2.3389421682,
				"z": 3.1596158535,
				"element": "H" 
			},
			{
				"x": 0.789139955,
				"y": -3.9339400989,
				"z": 3.1732065794,
				"element": "H" 
			},
			{
				"x": -0.1948295242,
				"y": -2.4702054741,
				"z": 3.2918590438,
				"element": "H" 
			},
			{
				"x": -0.7479769428,
				"y": -3.6940423781,
				"z": -0.2631225222,
				"element": "H" 
			},
			{
				"x": -1.5789609129,
				"y": -3.2821744471,
				"z": 1.2421055948,
				"element": "H" 
			},
			{
				"x": -0.5665205976,
				"y": -4.7293871093,
				"z": 1.1651935745,
				"element": "H" 
			},
			{
				"x": 1.9021479912,
				"y": -4.5878903452,
				"z": 1.0617889332,
				"element": "H" 
			},
			{
				"x": 1.8164510527,
				"y": -3.5999898686,
				"z": -0.3991334957,
				"element": "H" 
			},
			{
				"x": 2.7604030872,
				"y": -3.0461859324,
				"z": 0.9980823188,
				"element": "H" 
			},
			{
				"x": -1.3889511733,
				"y": -1.0769652004,
				"z": 1.8957026867,
				"element": "H" 
			},
			{
				"x": -1.6745324939,
				"y": 1.2570677987,
				"z": 1.1477505751,
				"element": "H" 
			},
			{
				"x": -0.2293808647,
				"y": 4.0730400908,
				"z": 0.6053200301,
				"element": "H" 
			},
			{
				"x": -0.6873200402,
				"y": 7.4201809074,
				"z": -0.1971740367,
				"element": "H" 
			},
			{
				"x": -0.8289975109,
				"y": 8.2510743696,
				"z": -2.5372457952,
				"element": "H" 
			},
			{
				"x": -0.6388094488,
				"y": 6.6491941605,
				"z": -4.4443225448,
				"element": "H" 
			},
			{
				"x": -0.3070659636,
				"y": 4.2246483205,
				"z": -3.9606883566,
				"element": "H" 
			},
			{
				"x": 1.9257525436,
				"y": 0.9677347058,
				"z": -1.1643160645,
				"element": "H" 
			},
			{
				"x": 2.2167764265,
				"y": -1.3580635344,
				"z": -0.4348318963,
				"element": "H" 
			}
		],
		 "valence_orbital": [ 
			{
				"type": "occ",
				"energy": -0.28756,
				"method": "rhf"
			},
			{
				"type": "occ",
				"energy": -0.26108,
				"method": "rhf"
			},
			{
				"type": "occ",
				"energy": -0.25659,
				"method": "rhf"
			},
			{
				"type": "occ",
				"energy": -0.24072,
				"method": "rhf"
			},
			{
				"type": "occ",
				"energy": -0.22789,
				"method": "rhf"
			},
			{
				"type": "unocc",
				"energy": -0.04936,
				"method": "rhf"
			},
			{
				"type": "unocc",
				"energy": -0.00933,
				"method": "rhf"
			},
			{
				"type": "unocc",
				"energy": -0.00299,
				"method": "rhf"
			},
			{
				"type": "unocc",
				"energy": 0.0048,
				"method": "rhf"
			},
			{
				"type": "unocc",
				"energy": 0.05425,
				"method": "rhf"
			}
		],
		"cosmo_sigma_profile": { 
			"-0.025": 0.0,
			"-0.024": 0.0,
			"-0.023": 0.0,
			"-0.022": 0.0,
			"-0.021": 0.0,
			"-0.02": 0.0,
			"-0.019": 0.0,
			"-0.018": 0.0,
			"-0.017": 0.0,
			"-0.016": 0.0,
			"-0.015": 0.0,
			"-0.014": 0.0,
			"-0.013": 0.0,
			"-0.012": 0.0,
			"-0.011": 0.130997603519,
			"-0.01": 0.362697420827,
			"-0.009": 1.00579651855,
			"-0.008": 0.777841162176,
			"-0.007": 4.07799452216,
			"-0.006": 12.8287231003,
			"-0.005": 20.3674040529,
			"-0.004": 22.5754700436,
			"-0.003": 31.0814528122,
			"-0.002": 33.8803829195,
			"-0.001": 28.3278997995,
			"0.0": 29.0852914236,
			"0.001": 36.3138436149,
			"0.002": 26.2413195513,
			"0.003": 19.3748883204,
			"0.004": 20.2104261406,
			"0.005": 12.0077744279,
			"0.006": 3.36009613701,
			"0.007": 3.02496608899,
			"0.008": 3.28057531886,
			"0.009": 3.70238226232,
			"0.01": 4.43525443878,
			"0.011": 5.69909792721,
			"0.012": 0.868489568731,
			"0.013": 0.0,
			"0.014": 0.0,
			"0.015": 0.0,
			"0.016": 0.0,
			"0.017": 0.0,
			"0.018": 0.0,
			"0.019": 0.0,
			"0.02": 0.0,
			"0.021": 0.0,
			"0.022": 0.0,
			"0.023": 0.0,
			"0.024": 0.0,
			"0.025": 0.0
		}
	}
}
