{
	 "smiles": "CC(=O)NC1=C(OC2=C1C=CC=C2)C(=O)CC1=C(C)C=C(C)C=C1C", 
	 "Tm": 435.15, 
	 "num_atms": 46, 
	 "gaussian": { 
		 "optdone": 1, 
		 "sigma_profile": "yes", 
		 "theory": "DFT", 
		 "functional": "B3LYP", 
		 "basiset": "6-31G**", 
		 "properties": { 
			 "R2extent": 10716.2673, 
			 "electric_dipole_moment_norm": 5.53871110729, 
			 "electric_quadrupole_moment_norm": 28.8210429962, 
			 "total_energy": -1093.34144038, 
			 "HOMO_LUMO_gap": 0.14861, 
			 "cosmo_polarized_energy": -16.48, 
			 "cosmo_cavitation_energy": 48.55, 
			 "cosmo_dispersion_energy": -32.25, 
			 "cosmo_repulsion_energy": 2.45, 
			 "cosmo_total_nonelectrostatic_energy": 18.74, 
			 "SMD_solvation_energy": 9.46 
		},
		"coords": [
			{
				"x": -6.0335702143,
				"y": 1.0139122799,
				"z": -0.0537082526,
				"element": "C" 
			},
			{
				"x": -5.4854238218,
				"y": 1.3019755111,
				"z": 1.3234141823,
				"element": "C" 
			},
			{
				"x": -6.0770098621,
				"y": 1.9664937626,
				"z": 2.1566751144,
				"element": "O" 
			},
			{
				"x": -4.2515799965,
				"y": 0.7420011208,
				"z": 1.6674641957,
				"element": "N" 
			},
			{
				"x": -3.394385002,
				"y": -0.0883927362,
				"z": 0.9474633837,
				"element": "C" 
			},
			{
				"x": -2.7375842471,
				"y": 0.142994824,
				"z": -0.2477099997,
				"element": "C" 
			},
			{
				"x": -1.9612423536,
				"y": -0.951370825,
				"z": -0.5908800409,
				"element": "O" 
			},
			{
				"x": -2.0905551172,
				"y": -1.8658230036,
				"z": 0.4096765988,
				"element": "C" 
			},
			{
				"x": -2.9679656921,
				"y": -1.3917193264,
				"z": 1.3978594591,
				"element": "C" 
			},
			{
				"x": -3.2541984183,
				"y": -2.1950002781,
				"z": 2.5138053059,
				"element": "C" 
			},
			{
				"x": -2.640083306,
				"y": -3.4382018666,
				"z": 2.5972759863,
				"element": "C" 
			},
			{
				"x": -1.7598954815,
				"y": -3.8880876723,
				"z": 1.5902817433,
				"element": "C" 
			},
			{
				"x": -1.4716178416,
				"y": -3.1110761905,
				"z": 0.4713312004,
				"element": "C" 
			},
			{
				"x": -2.6348539464,
				"y": 1.3409458171,
				"z": -1.0890750993,
				"element": "C" 
			},
			{
				"x": -3.3890505446,
				"y": 2.2900356238,
				"z": -0.9006555058,
				"element": "O" 
			},
			{
				"x": -1.5641413124,
				"y": 1.3849779732,
				"z": -2.1841907331,
				"element": "C" 
			},
			{
				"x": -0.1165896099,
				"y": 1.3164886389,
				"z": -1.7111639181,
				"element": "C" 
			},
			{
				"x": 0.4025526514,
				"y": 2.3313647664,
				"z": -0.8766147574,
				"element": "C" 
			},
			{
				"x": -0.4362489963,
				"y": 3.5041016823,
				"z": -0.4171906299,
				"element": "C" 
			},
			{
				"x": 1.7380082192,
				"y": 2.2620394414,
				"z": -0.4632602892,
				"element": "C" 
			},
			{
				"x": 2.584198989,
				"y": 1.2238763235,
				"z": -0.8559722095,
				"element": "C" 
			},
			{
				"x": 4.0301935716,
				"y": 1.1868610527,
				"z": -0.4201290512,
				"element": "C" 
			},
			{
				"x": 2.0587396095,
				"y": 0.2413065497,
				"z": -1.6982822161,
				"element": "C" 
			},
			{
				"x": 0.7310068619,
				"y": 0.2699966454,
				"z": -2.1380211341,
				"element": "C" 
			},
			{
				"x": 0.2602169657,
				"y": -0.8164971788,
				"z": -3.081828742,
				"element": "C" 
			},
			{
				"x": -5.8091064796,
				"y": -0.0036541612,
				"z": -0.3851466952,
				"element": "H" 
			},
			{
				"x": -5.5851634466,
				"y": 1.7098774881,
				"z": -0.7667512251,
				"element": "H" 
			},
			{
				"x": -7.1122452187,
				"y": 1.1685910449,
				"z": -0.0212960108,
				"element": "H" 
			},
			{
				"x": -4.0534496553,
				"y": 0.8547510075,
				"z": 2.6550804764,
				"element": "H" 
			},
			{
				"x": -3.9431740962,
				"y": -1.8568133503,
				"z": 3.2818281145,
				"element": "H" 
			},
			{
				"x": -2.8425266291,
				"y": -4.0811543907,
				"z": 3.4481633642,
				"element": "H" 
			},
			{
				"x": -1.2970921832,
				"y": -4.865178999,
				"z": 1.6896140623,
				"element": "H" 
			},
			{
				"x": -0.7980751778,
				"y": -3.4472948317,
				"z": -0.3089474555,
				"element": "H" 
			},
			{
				"x": -1.7549329433,
				"y": 2.3186344837,
				"z": -2.7233640655,
				"element": "H" 
			},
			{
				"x": -1.7683172835,
				"y": 0.5633808587,
				"z": -2.8760821874,
				"element": "H" 
			},
			{
				"x": 0.2017861034,
				"y": 4.2881144572,
				"z": -0.0009292992,
				"element": "H" 
			},
			{
				"x": -1.1585958228,
				"y": 3.2220063895,
				"z": 0.3564061781,
				"element": "H" 
			},
			{
				"x": -1.0202988144,
				"y": 3.9413388891,
				"z": -1.2330562715,
				"element": "H" 
			},
			{
				"x": 2.1250794024,
				"y": 3.0481364456,
				"z": 0.1818097276,
				"element": "H" 
			},
			{
				"x": 4.672911139,
				"y": 1.7249511682,
				"z": -1.1284953407,
				"element": "H" 
			},
			{
				"x": 4.404148287,
				"y": 0.1601624299,
				"z": -0.359349241,
				"element": "H" 
			},
			{
				"x": 4.1652599179,
				"y": 1.6553356939,
				"z": 0.5595414992,
				"element": "H" 
			},
			{
				"x": 2.7018801988,
				"y": -0.5711271524,
				"z": -2.0302455399,
				"element": "H" 
			},
			{
				"x": -0.5899219147,
				"y": -1.3722256179,
				"z": -2.6748015793,
				"element": "H" 
			},
			{
				"x": 1.0655369156,
				"y": -1.5299710257,
				"z": -3.2760322439,
				"element": "H" 
			},
			{
				"x": -0.0501234037,
				"y": -0.4080637625,
				"z": -4.0514108581,
				"element": "H" 
			}
		],
		 "valence_orbital": [ 
			{
				"type": "occ",
				"energy": -0.25537,
				"method": "rhf"
			},
			{
				"type": "occ",
				"energy": -0.25072,
				"method": "rhf"
			},
			{
				"type": "occ",
				"energy": -0.23329,
				"method": "rhf"
			},
			{
				"type": "occ",
				"energy": -0.2307,
				"method": "rhf"
			},
			{
				"type": "occ",
				"energy": -0.22434,
				"method": "rhf"
			},
			{
				"type": "unocc",
				"energy": -0.07573,
				"method": "rhf"
			},
			{
				"type": "unocc",
				"energy": -0.01158,
				"method": "rhf"
			},
			{
				"type": "unocc",
				"energy": -0.00303,
				"method": "rhf"
			},
			{
				"type": "unocc",
				"energy": 0.00375,
				"method": "rhf"
			},
			{
				"type": "unocc",
				"energy": 0.00854,
				"method": "rhf"
			}
		],
		"cosmo_sigma_profile": { 
			"-0.025": 0.0,
			"-0.024": 0.0,
			"-0.023": 0.0,
			"-0.022": 0.0,
			"-0.021": 0.0,
			"-0.02": 0.0,
			"-0.019": 0.0,
			"-0.018": 0.0,
			"-0.017": 0.0,
			"-0.016": 0.0,
			"-0.015": 0.217364107214,
			"-0.014": 0.710349370442,
			"-0.013": 1.32111687323,
			"-0.012": 0.968621842345,
			"-0.011": 0.962073155614,
			"-0.01": 1.46354827943,
			"-0.009": 1.20471120089,
			"-0.008": 1.65785076853,
			"-0.007": 5.27834549459,
			"-0.006": 11.1115588151,
			"-0.005": 18.6789678559,
			"-0.004": 35.322645357,
			"-0.003": 37.7064968224,
			"-0.002": 40.8294525251,
			"-0.001": 39.7244669229,
			"0.0": 41.997585655,
			"0.001": 30.6369478547,
			"0.002": 22.7486617343,
			"0.003": 19.9989956968,
			"0.004": 18.282237243,
			"0.005": 11.1873824226,
			"0.006": 10.6822089022,
			"0.007": 7.95763183103,
			"0.008": 3.37296167372,
			"0.009": 2.125738847,
			"0.01": 2.84045289771,
			"0.011": 3.49602290809,
			"0.012": 4.19246602293,
			"0.013": 6.05181255513,
			"0.014": 2.21255670052,
			"0.015": 0.159449476585,
			"0.016": 0.0,
			"0.017": 0.0,
			"0.018": 0.0,
			"0.019": 0.0,
			"0.02": 0.0,
			"0.021": 0.0,
			"0.022": 0.0,
			"0.023": 0.0,
			"0.024": 0.0,
			"0.025": 0.0
		}
	}
}
