{
	 "smiles": "CCCCNC1=C(N)N(CCC)C(=O)NC1=O", 
	 "Tm": 475.15, 
	 "num_atms": 37, 
	 "gaussian": { 
		 "optdone": 1, 
		 "sigma_profile": "yes", 
		 "theory": "DFT", 
		 "functional": "B3LYP", 
		 "basiset": "6-31G**", 
		 "properties": { 
			 "R2extent": 5212.8302, 
			 "electric_dipole_moment_norm": 4.77484092929, 
			 "electric_quadrupole_moment_norm": 9.08052611196, 
			 "total_energy": -800.736319082, 
			 "HOMO_LUMO_gap": 0.19659, 
			 "cosmo_polarized_energy": -17.9, 
			 "cosmo_cavitation_energy": 38.4, 
			 "cosmo_dispersion_energy": -26.46, 
			 "cosmo_repulsion_energy": 2.09, 
			 "cosmo_total_nonelectrostatic_energy": 14.04, 
			 "SMD_solvation_energy": 7.42 
		},
		"coords": [
			{
				"x": 1.1043853145,
				"y": 1.0798650454,
				"z": -4.4187295072,
				"element": "C" 
			},
			{
				"x": -0.2290700934,
				"y": 0.321919842,
				"z": -4.4523973434,
				"element": "C" 
			},
			{
				"x": -1.3545339853,
				"y": 0.9379268059,
				"z": -3.5983526157,
				"element": "C" 
			},
			{
				"x": -1.3467560858,
				"y": 0.5937257434,
				"z": -2.1051410827,
				"element": "C" 
			},
			{
				"x": -0.1558068948,
				"y": 1.1219543096,
				"z": -1.3972945051,
				"element": "N" 
			},
			{
				"x": -0.1855597985,
				"y": 0.9062496712,
				"z": 0.013968159,
				"element": "C" 
			},
			{
				"x": 0.5634422133,
				"y": -0.117779744,
				"z": 0.5499495995,
				"element": "C" 
			},
			{
				"x": 1.2807352605,
				"y": -0.9448136489,
				"z": -0.2806358246,
				"element": "N" 
			},
			{
				"x": 0.5754492957,
				"y": -0.3811308951,
				"z": 1.9144146543,
				"element": "N" 
			},
			{
				"x": 1.3109310766,
				"y": -1.5241609129,
				"z": 2.4857816638,
				"element": "C" 
			},
			{
				"x": 0.6386632818,
				"y": -2.8864299791,
				"z": 2.2570436669,
				"element": "C" 
			},
			{
				"x": -0.7525040466,
				"y": -3.0019762209,
				"z": 2.8877670223,
				"element": "C" 
			},
			{
				"x": -0.1439785258,
				"y": 0.4217090314,
				"z": 2.8196828835,
				"element": "C" 
			},
			{
				"x": -0.1395715758,
				"y": 0.2195703979,
				"z": 4.0255092313,
				"element": "O" 
			},
			{
				"x": -0.8523753584,
				"y": 1.4496506212,
				"z": 2.2398368805,
				"element": "N" 
			},
			{
				"x": -0.9521377322,
				"y": 1.7723693564,
				"z": 0.8703083928,
				"element": "C" 
			},
			{
				"x": -1.6233156052,
				"y": 2.7351458549,
				"z": 0.5073645349,
				"element": "O" 
			},
			{
				"x": 1.8490702044,
				"y": 0.5958186845,
				"z": -5.0603132508,
				"element": "H" 
			},
			{
				"x": 0.9772901894,
				"y": 2.1070609472,
				"z": -4.7808018467,
				"element": "H" 
			},
			{
				"x": 1.505526316,
				"y": 1.1346343148,
				"z": -3.403547849,
				"element": "H" 
			},
			{
				"x": -0.072226181,
				"y": -0.7199608961,
				"z": -4.1396019734,
				"element": "H" 
			},
			{
				"x": -0.5731715332,
				"y": 0.2713645819,
				"z": -5.4933389432,
				"element": "H" 
			},
			{
				"x": -2.3225021936,
				"y": 0.5988366447,
				"z": -3.9885449746,
				"element": "H" 
			},
			{
				"x": -1.3546145824,
				"y": 2.0312281904,
				"z": -3.7196336556,
				"element": "H" 
			},
			{
				"x": -1.3458980687,
				"y": -0.4964127679,
				"z": -1.9799460082,
				"element": "H" 
			},
			{
				"x": -2.2712983947,
				"y": 0.9733678984,
				"z": -1.6459271698,
				"element": "H" 
			},
			{
				"x": -0.1237979073,
				"y": 2.1279447911,
				"z": -1.5564597038,
				"element": "H" 
			},
			{
				"x": 1.355285074,
				"y": -0.5320991082,
				"z": -1.2064166118,
				"element": "H" 
			},
			{
				"x": 2.1320565261,
				"y": -1.3510906669,
				"z": 0.0779833816,
				"element": "H" 
			},
			{
				"x": 2.3331585266,
				"y": -1.520826807,
				"z": 2.0891515682,
				"element": "H" 
			},
			{
				"x": 1.3810877997,
				"y": -1.3124986184,
				"z": 3.5528694526,
				"element": "H" 
			},
			{
				"x": 1.3062090424,
				"y": -3.6439786268,
				"z": 2.6879494893,
				"element": "H" 
			},
			{
				"x": 0.5808223634,
				"y": -3.0955138327,
				"z": 1.1831010756,
				"element": "H" 
			},
			{
				"x": -1.4565321521,
				"y": -2.2990470246,
				"z": 2.4316363731,
				"element": "H" 
			},
			{
				"x": -1.1560186376,
				"y": -4.0094673107,
				"z": 2.7470663168,
				"element": "H" 
			},
			{
				"x": -0.7235828191,
				"y": -2.7902691423,
				"z": 3.9608196125,
				"element": "H" 
			},
			{
				"x": -1.3707603131,
				"y": 2.0352134699,
				"z": 2.8826789075,
				"element": "H" 
			}
		],
		 "valence_orbital": [ 
			{
				"type": "occ",
				"energy": -0.28076,
				"method": "rhf"
			},
			{
				"type": "occ",
				"energy": -0.27289,
				"method": "rhf"
			},
			{
				"type": "occ",
				"energy": -0.2559,
				"method": "rhf"
			},
			{
				"type": "occ",
				"energy": -0.24478,
				"method": "rhf"
			},
			{
				"type": "occ",
				"energy": -0.20668,
				"method": "rhf"
			},
			{
				"type": "unocc",
				"energy": -0.01009,
				"method": "rhf"
			},
			{
				"type": "unocc",
				"energy": 0.02071,
				"method": "rhf"
			},
			{
				"type": "unocc",
				"energy": 0.05118,
				"method": "rhf"
			},
			{
				"type": "unocc",
				"energy": 0.08229,
				"method": "rhf"
			},
			{
				"type": "unocc",
				"energy": 0.09788,
				"method": "rhf"
			}
		],
		"cosmo_sigma_profile": { 
			"-0.025": 0.0,
			"-0.024": 0.0,
			"-0.023": 0.0,
			"-0.022": 0.0,
			"-0.021": 0.0,
			"-0.02": 0.0,
			"-0.019": 0.0,
			"-0.018": 0.0,
			"-0.017": 0.0,
			"-0.016": 0.00473642892252,
			"-0.015": 0.958166728353,
			"-0.014": 2.36775518791,
			"-0.013": 2.05776985932,
			"-0.012": 2.39636676543,
			"-0.011": 2.20778412131,
			"-0.01": 3.2691106263,
			"-0.009": 3.22809599436,
			"-0.008": 3.14987277033,
			"-0.007": 4.38789611504,
			"-0.006": 4.44636204713,
			"-0.005": 5.52708380062,
			"-0.004": 11.615343546,
			"-0.003": 24.4125363655,
			"-0.002": 37.4779861997,
			"-0.001": 44.5215318786,
			"0.0": 41.0148303765,
			"0.001": 34.5294661804,
			"0.002": 16.5956324426,
			"0.003": 7.1233347593,
			"0.004": 5.48993686207,
			"0.005": 4.17927325623,
			"0.006": 4.15620409447,
			"0.007": 3.74362925962,
			"0.008": 3.18987431054,
			"0.009": 2.97667280243,
			"0.01": 2.48181973298,
			"0.011": 2.44770948404,
			"0.012": 5.14928491537,
			"0.013": 6.39149916596,
			"0.014": 6.22881832727,
			"0.015": 1.05313375335,
			"0.016": 0.0,
			"0.017": 0.0,
			"0.018": 0.0,
			"0.019": 0.0,
			"0.02": 0.0,
			"0.021": 0.0,
			"0.022": 0.0,
			"0.023": 0.0,
			"0.024": 0.0,
			"0.025": 0.0
		}
	}
}
