{
	 "smiles": "C=CC(=O)NC1=CC(=CC=C1)C#N", 
	 "Tm": 391.15, 
	 "num_atms": 21, 
	 "gaussian": { 
		 "optdone": 1, 
		 "sigma_profile": "yes", 
		 "theory": "DFT", 
		 "functional": "B3LYP", 
		 "basiset": "6-31G**", 
		 "properties": { 
			 "R2extent": 3798.7609, 
			 "electric_dipole_moment_norm": 3.84709537314, 
			 "electric_quadrupole_moment_norm": 25.9997393495, 
			 "total_energy": -570.577674843, 
			 "HOMO_LUMO_gap": 0.18453, 
			 "cosmo_polarized_energy": -15.94, 
			 "cosmo_cavitation_energy": 27.3, 
			 "cosmo_dispersion_energy": -18.67, 
			 "cosmo_repulsion_energy": 1.5, 
			 "cosmo_total_nonelectrostatic_energy": 10.12, 
			 "SMD_solvation_energy": 7.42 
		},
		"coords": [
			{
				"x": 1.2471306921,
				"y": -0.7015654081,
				"z": -0.1489327896,
				"element": "C" 
			},
			{
				"x": 0.6449582289,
				"y": -0.7418955848,
				"z": -1.3401014451,
				"element": "C" 
			},
			{
				"x": -0.7592970066,
				"y": -1.1827809958,
				"z": -1.5860106693,
				"element": "C" 
			},
			{
				"x": -1.0228335665,
				"y": -1.8661223208,
				"z": -2.5661648042,
				"element": "O" 
			},
			{
				"x": -1.7548028118,
				"y": -0.9020189586,
				"z": -0.6569983449,
				"element": "N" 
			},
			{
				"x": -1.8744309359,
				"y": 0.1227181094,
				"z": 0.3072056494,
				"element": "C" 
			},
			{
				"x": -2.644804503,
				"y": -0.1311349402,
				"z": 1.4477088953,
				"element": "C" 
			},
			{
				"x": -2.838737173,
				"y": 0.8742683918,
				"z": 2.4065231394,
				"element": "C" 
			},
			{
				"x": -2.2468693103,
				"y": 2.1364861619,
				"z": 2.2427711426,
				"element": "C" 
			},
			{
				"x": -1.4810029191,
				"y": 2.379696157,
				"z": 1.1047832719,
				"element": "C" 
			},
			{
				"x": -1.3044961766,
				"y": 1.3946094703,
				"z": 0.1348597658,
				"element": "C" 
			},
			{
				"x": -3.6372143732,
				"y": 0.6000345893,
				"z": 3.5669603787,
				"element": "C" 
			},
			{
				"x": -4.2839519506,
				"y": 0.3792120197,
				"z": 4.5081086321,
				"element": "N" 
			},
			{
				"x": 2.308635818,
				"y": -0.4886954175,
				"z": -0.0656357292,
				"element": "H" 
			},
			{
				"x": 0.7150088112,
				"y": -0.8941508423,
				"z": 0.7772819465,
				"element": "H" 
			},
			{
				"x": 1.2095601483,
				"y": -0.5968587471,
				"z": -2.2570403527,
				"element": "H" 
			},
			{
				"x": -2.5971065949,
				"y": -1.4287245664,
				"z": -0.857383627,
				"element": "H" 
			},
			{
				"x": -3.0899912134,
				"y": -1.1098112315,
				"z": 1.5946423259,
				"element": "H" 
			},
			{
				"x": -2.3959608721,
				"y": 2.9054806969,
				"z": 2.9922435752,
				"element": "H" 
			},
			{
				"x": -1.0314584404,
				"y": 3.3568246061,
				"z": 0.9581780507,
				"element": "H" 
			},
			{
				"x": -0.7304358509,
				"y": 1.6101288107,
				"z": -0.7580990115,
				"element": "H" 
			}
		],
		 "valence_orbital": [ 
			{
				"type": "occ",
				"energy": -0.31753,
				"method": "rhf"
			},
			{
				"type": "occ",
				"energy": -0.29647,
				"method": "rhf"
			},
			{
				"type": "occ",
				"energy": -0.2766,
				"method": "rhf"
			},
			{
				"type": "occ",
				"energy": -0.26764,
				"method": "rhf"
			},
			{
				"type": "occ",
				"energy": -0.24793,
				"method": "rhf"
			},
			{
				"type": "unocc",
				"energy": -0.0634,
				"method": "rhf"
			},
			{
				"type": "unocc",
				"energy": -0.05056,
				"method": "rhf"
			},
			{
				"type": "unocc",
				"energy": -0.02786,
				"method": "rhf"
			},
			{
				"type": "unocc",
				"energy": 0.03065,
				"method": "rhf"
			},
			{
				"type": "unocc",
				"energy": 0.05019,
				"method": "rhf"
			}
		],
		"cosmo_sigma_profile": { 
			"-0.025": 0.0,
			"-0.024": 0.0,
			"-0.023": 0.0,
			"-0.022": 0.0,
			"-0.021": 0.0,
			"-0.02": 0.0,
			"-0.019": 0.0,
			"-0.018": 0.0,
			"-0.017": 0.0,
			"-0.016": 0.0,
			"-0.015": 0.449144049174,
			"-0.014": 1.01457265269,
			"-0.013": 1.44259795125,
			"-0.012": 0.771983306287,
			"-0.011": 1.30606035422,
			"-0.01": 1.32918174334,
			"-0.009": 1.90249808658,
			"-0.008": 5.3046197777,
			"-0.007": 10.9300787388,
			"-0.006": 15.3692547146,
			"-0.005": 13.8982755371,
			"-0.004": 14.0841081553,
			"-0.003": 14.1872601096,
			"-0.002": 14.1826249894,
			"-0.001": 16.8757075172,
			"0.0": 18.706198873,
			"0.001": 16.5866722218,
			"0.002": 14.0956528404,
			"0.003": 8.64066118357,
			"0.004": 4.45191070312,
			"0.005": 4.04336050369,
			"0.006": 3.79147591556,
			"0.007": 3.4826266993,
			"0.008": 4.63787547169,
			"0.009": 5.77736271685,
			"0.01": 3.91782881103,
			"0.011": 4.80813137991,
			"0.012": 6.21481209837,
			"0.013": 6.43262418175,
			"0.014": 1.40085723729,
			"0.015": 0.0311272683058,
			"0.016": 0.0,
			"0.017": 0.0,
			"0.018": 0.0,
			"0.019": 0.0,
			"0.02": 0.0,
			"0.021": 0.0,
			"0.022": 0.0,
			"0.023": 0.0,
			"0.024": 0.0,
			"0.025": 0.0
		}
	}
}
