{
	 "smiles": "CC1=NNC(=N1)C1=C(I)C=CC=C1", 
	 "Tm": 428.15, 
	 "num_atms": 21, 
	 "gaussian": { 
		 "optdone": 1, 
		 "sigma_profile": "yes", 
		 "theory": "DFT", 
		 "functional": "B3LYP", 
		 "basiset": "6-31G**", 
		 "properties": { 
			 "R2extent": 3021.3119, 
			 "electric_dipole_moment_norm": 2.40199456702, 
			 "electric_quadrupole_moment_norm": 7.97525355522, 
			 "total_energy": -523.417718729, 
			 "HOMO_LUMO_gap": 0.18132, 
			 "cosmo_polarized_energy": -9.39, 
			 "cosmo_cavitation_energy": 28.04, 
			 "cosmo_dispersion_energy": -22.38, 
			 "cosmo_repulsion_energy": 1.73, 
			 "cosmo_total_nonelectrostatic_energy": 7.39, 
			 "SMD_solvation_energy": 1.51 
		},
		"coords": [
			{
				"x": 2.9783936148,
				"y": 2.4461961778,
				"z": -0.2798363967,
				"element": "C" 
			},
			{
				"x": 1.6431172752,
				"y": 1.8524029237,
				"z": -0.5895149529,
				"element": "C" 
			},
			{
				"x": 0.611534661,
				"y": 2.5886103681,
				"z": -0.9942791646,
				"element": "N" 
			},
			{
				"x": -0.3615245299,
				"y": 1.6609515615,
				"z": -1.1549112709,
				"element": "N" 
			},
			{
				"x": 0.096515368,
				"y": 0.419987065,
				"z": -0.853288375,
				"element": "C" 
			},
			{
				"x": 1.3740315175,
				"y": 0.5222435796,
				"z": -0.4871306723,
				"element": "N" 
			},
			{
				"x": -0.6398769701,
				"y": -0.8573583508,
				"z": -0.8597538238,
				"element": "C" 
			},
			{
				"x": -1.9000420008,
				"y": -1.1366070615,
				"z": -1.4255953379,
				"element": "C" 
			},
			{
				"x": -3.0868085958,
				"y": 0.2754506494,
				"z": -2.5068084088,
				"element": "I" 
			},
			{
				"x": -2.4677233715,
				"y": -2.412085672,
				"z": -1.3375148668,
				"element": "C" 
			},
			{
				"x": -1.7902948037,
				"y": -3.4415246494,
				"z": -0.689270895,
				"element": "C" 
			},
			{
				"x": -0.5365433144,
				"y": -3.1946571969,
				"z": -0.1288723471,
				"element": "C" 
			},
			{
				"x": 0.0203204267,
				"y": -1.9270022794,
				"z": -0.2151064444,
				"element": "C" 
			},
			{
				"x": 3.2637400571,
				"y": 2.2377285894,
				"z": 0.7561476935,
				"element": "H" 
			},
			{
				"x": 3.7517412681,
				"y": 2.0169672809,
				"z": -0.9247088985,
				"element": "H" 
			},
			{
				"x": 2.9513648263,
				"y": 3.526905985,
				"z": -0.4298528256,
				"element": "H" 
			},
			{
				"x": -1.2785555404,
				"y": 1.9417275311,
				"z": -1.4694545713,
				"element": "H" 
			},
			{
				"x": -3.4384831298,
				"y": -2.5996923269,
				"z": -1.7814206647,
				"element": "H" 
			},
			{
				"x": -2.2434816521,
				"y": -4.4263308874,
				"z": -0.629078887,
				"element": "H" 
			},
			{
				"x": 0.0059632907,
				"y": -3.9870612465,
				"z": 0.3773253445,
				"element": "H" 
			},
			{
				"x": 0.9931116031,
				"y": -1.7144520407,
				"z": 0.2129257651,
				"element": "H" 
			}
		],
		 "valence_orbital": [ 
			{
				"type": "occ",
				"energy": -0.28765,
				"method": "rhf"
			},
			{
				"type": "occ",
				"energy": -0.27771,
				"method": "rhf"
			},
			{
				"type": "occ",
				"energy": -0.27114,
				"method": "rhf"
			},
			{
				"type": "occ",
				"energy": -0.25508,
				"method": "rhf"
			},
			{
				"type": "occ",
				"energy": -0.23638,
				"method": "rhf"
			},
			{
				"type": "unocc",
				"energy": -0.05506,
				"method": "rhf"
			},
			{
				"type": "unocc",
				"energy": -0.05018,
				"method": "rhf"
			},
			{
				"type": "unocc",
				"energy": -0.02425,
				"method": "rhf"
			},
			{
				"type": "unocc",
				"energy": 0.03391,
				"method": "rhf"
			},
			{
				"type": "unocc",
				"energy": 0.03865,
				"method": "rhf"
			}
		],
		"cosmo_sigma_profile": { 
			"-0.025": 0.0,
			"-0.024": 0.0,
			"-0.023": 0.0,
			"-0.022": 0.0,
			"-0.021": 0.0,
			"-0.02": 0.0,
			"-0.019": 0.0,
			"-0.018": 0.0,
			"-0.017": 0.0,
			"-0.016": 0.0,
			"-0.015": 0.0,
			"-0.014": 0.129581769546,
			"-0.013": 0.684907494017,
			"-0.012": 0.670202414845,
			"-0.011": 0.714868595718,
			"-0.01": 1.11962748092,
			"-0.009": 1.04040607849,
			"-0.008": 1.62290230796,
			"-0.007": 7.53984025858,
			"-0.006": 10.2426208822,
			"-0.005": 15.5145766627,
			"-0.004": 15.2605835677,
			"-0.003": 14.4505174954,
			"-0.002": 16.2467688989,
			"-0.001": 21.0742218947,
			"0.0": 21.5164537123,
			"0.001": 19.7573951106,
			"0.002": 22.7063246384,
			"0.003": 24.456024522,
			"0.004": 10.2628832524,
			"0.005": 3.10803907969,
			"0.006": 3.78408355888,
			"0.007": 2.53462358416,
			"0.008": 2.67751969655,
			"0.009": 2.90827571389,
			"0.01": 1.60025115869,
			"0.011": 2.38809381798,
			"0.012": 1.43054270214,
			"0.013": 2.12023261527,
			"0.014": 1.66342523049,
			"0.015": 0.841727984866,
			"0.016": 0.0832854160771,
			"0.017": 0.0,
			"0.018": 0.0,
			"0.019": 0.0,
			"0.02": 0.0,
			"0.021": 0.0,
			"0.022": 0.0,
			"0.023": 0.0,
			"0.024": 0.0,
			"0.025": 0.0
		}
	}
}
