{
	 "smiles": "FC1=CC=C(C=C1)C1=NN=NN1", 
	 "Tm": 483.15, 
	 "num_atms": 17, 
	 "gaussian": { 
		 "optdone": 1, 
		 "sigma_profile": "yes", 
		 "theory": "DFT", 
		 "functional": "B3LYP", 
		 "basiset": "6-31G**", 
		 "properties": { 
			 "R2extent": 2849.8449, 
			 "electric_dipole_moment_norm": 4.93410338055, 
			 "electric_quadrupole_moment_norm": 12.9610798655, 
			 "total_energy": -588.545249621, 
			 "HOMO_LUMO_gap": 0.1955, 
			 "cosmo_polarized_energy": -17.65, 
			 "cosmo_cavitation_energy": 22.81, 
			 "cosmo_dispersion_energy": -16.95, 
			 "cosmo_repulsion_energy": 1.3, 
			 "cosmo_total_nonelectrostatic_energy": 7.16, 
			 "SMD_solvation_energy": 2.65 
		},
		"coords": [
			{
				"x": 1.290665199,
				"y": 0.3760994484,
				"z": 4.8232903266,
				"element": "F" 
			},
			{
				"x": 0.7726578027,
				"y": 0.4706201581,
				"z": 3.5855794876,
				"element": "C" 
			},
			{
				"x": 1.3045447504,
				"y": -0.3199911724,
				"z": 2.5721538099,
				"element": "C" 
			},
			{
				"x": 0.7645642573,
				"y": -0.2182307573,
				"z": 1.2928232668,
				"element": "C" 
			},
			{
				"x": -0.2950756181,
				"y": 0.664056608,
				"z": 1.0302097958,
				"element": "C" 
			},
			{
				"x": -0.8094617787,
				"y": 1.4489470398,
				"z": 2.0768694459,
				"element": "C" 
			},
			{
				"x": -0.2777914764,
				"y": 1.3552613319,
				"z": 3.3579501957,
				"element": "C" 
			},
			{
				"x": -0.8878176791,
				"y": 0.7980805533,
				"z": -0.3001363408,
				"element": "C" 
			},
			{
				"x": -1.8875681673,
				"y": 1.6050913231,
				"z": -0.6306178922,
				"element": "N" 
			},
			{
				"x": -2.1200597637,
				"y": 1.4141632069,
				"z": -1.9533768853,
				"element": "N" 
			},
			{
				"x": -1.3150414785,
				"y": 0.5332359912,
				"z": -2.4500274743,
				"element": "N" 
			},
			{
				"x": -0.5289639372,
				"y": 0.1311859454,
				"z": -1.4236529019,
				"element": "N" 
			},
			{
				"x": 2.1229127478,
				"y": -0.9960966506,
				"z": 2.7923960915,
				"element": "H" 
			},
			{
				"x": 1.1817535175,
				"y": -0.8367977335,
				"z": 0.5031503139,
				"element": "H" 
			},
			{
				"x": -1.6280629617,
				"y": 2.1280495014,
				"z": 1.865699849,
				"element": "H" 
			},
			{
				"x": -0.6618739453,
				"y": 1.9528022784,
				"z": 4.1772156269,
				"element": "H" 
			},
			{
				"x": 0.1843185316,
				"y": -0.564377072,
				"z": -1.5826267151,
				"element": "H" 
			}
		],
		 "valence_orbital": [ 
			{
				"type": "occ",
				"energy": -0.32054,
				"method": "rhf"
			},
			{
				"type": "occ",
				"energy": -0.30075,
				"method": "rhf"
			},
			{
				"type": "occ",
				"energy": -0.28627,
				"method": "rhf"
			},
			{
				"type": "occ",
				"energy": -0.28489,
				"method": "rhf"
			},
			{
				"type": "occ",
				"energy": -0.25324,
				"method": "rhf"
			},
			{
				"type": "unocc",
				"energy": -0.05774,
				"method": "rhf"
			},
			{
				"type": "unocc",
				"energy": -0.03426,
				"method": "rhf"
			},
			{
				"type": "unocc",
				"energy": -0.00197,
				"method": "rhf"
			},
			{
				"type": "unocc",
				"energy": 0.03805,
				"method": "rhf"
			},
			{
				"type": "unocc",
				"energy": 0.05171,
				"method": "rhf"
			}
		],
		"cosmo_sigma_profile": { 
			"-0.025": 0.0,
			"-0.024": 0.0,
			"-0.023": 0.0,
			"-0.022": 0.0,
			"-0.021": 0.0,
			"-0.02": 0.0344254079924,
			"-0.019": 1.29929627205,
			"-0.018": 1.81842699801,
			"-0.017": 1.1587492271,
			"-0.016": 1.50665652313,
			"-0.015": 1.37526876849,
			"-0.014": 1.48270204469,
			"-0.013": 1.11100919706,
			"-0.012": 0.831202117283,
			"-0.011": 0.753343733958,
			"-0.01": 1.98257534448,
			"-0.009": 1.51287960908,
			"-0.008": 4.15916132785,
			"-0.007": 7.3257043068,
			"-0.006": 7.29621635359,
			"-0.005": 7.46531665844,
			"-0.004": 7.60456876941,
			"-0.003": 9.06046665962,
			"-0.002": 8.42973026346,
			"-0.001": 11.4378414957,
			"0.0": 15.2446922873,
			"0.001": 17.4348508496,
			"0.002": 17.4041257566,
			"0.003": 9.66351008661,
			"0.004": 11.2248192739,
			"0.005": 3.31494405396,
			"0.006": 3.02507807268,
			"0.007": 3.2131224383,
			"0.008": 5.26779992182,
			"0.009": 4.66593967405,
			"0.01": 5.26900997187,
			"0.011": 4.29967369741,
			"0.012": 3.3478638597,
			"0.013": 2.40666883743,
			"0.014": 1.28634393224,
			"0.015": 0.0306364233623,
			"0.016": 0.0,
			"0.017": 0.0,
			"0.018": 0.0,
			"0.019": 0.0,
			"0.02": 0.0,
			"0.021": 0.0,
			"0.022": 0.0,
			"0.023": 0.0,
			"0.024": 0.0,
			"0.025": 0.0
		}
	}
}
