{
	 "smiles": "OC(=O)CN1C2=C3C(=CC=CC3=CC=C2)S1(=O)=O", 
	 "Tm": 490.15, 
	 "num_atms": 27, 
	 "gaussian": { 
		 "optdone": 1, 
		 "sigma_profile": "yes", 
		 "theory": "DFT", 
		 "functional": "B3LYP", 
		 "basiset": "6-31G**", 
		 "properties": { 
			 "R2extent": 4423.2561, 
			 "electric_dipole_moment_norm": 5.95014113866, 
			 "electric_quadrupole_moment_norm": 15.6688573655, 
			 "total_energy": -1216.47498543, 
			 "HOMO_LUMO_gap": 0.14884, 
			 "cosmo_polarized_energy": -17.64, 
			 "cosmo_cavitation_energy": 32.05, 
			 "cosmo_dispersion_energy": -23.73, 
			 "cosmo_repulsion_energy": 1.73, 
			 "cosmo_total_nonelectrostatic_energy": 10.05, 
			 "SMD_solvation_energy": 4.86 
		},
		"coords": [
			{
				"x": 1.2319171325,
				"y": -0.6918345815,
				"z": 3.3911413617,
				"element": "O" 
			},
			{
				"x": 1.0294397362,
				"y": -1.9828268603,
				"z": 3.1009898795,
				"element": "C" 
			},
			{
				"x": 1.8064052537,
				"y": -2.848409377,
				"z": 3.4282660871,
				"element": "O" 
			},
			{
				"x": -0.2631382092,
				"y": -2.3261851758,
				"z": 2.3304331605,
				"element": "C" 
			},
			{
				"x": -0.4866300179,
				"y": -1.5307616623,
				"z": 1.1294748186,
				"element": "N" 
			},
			{
				"x": 0.3825578319,
				"y": -1.4971200353,
				"z": 0.0301794195,
				"element": "C" 
			},
			{
				"x": 0.1082408061,
				"y": -0.3887517872,
				"z": -0.8115924131,
				"element": "C" 
			},
			{
				"x": -0.8955383918,
				"y": 0.4772203455,
				"z": -0.3566328096,
				"element": "C" 
			},
			{
				"x": -1.278573153,
				"y": 1.5902400368,
				"z": -1.0698271395,
				"element": "C" 
			},
			{
				"x": -0.606048388,
				"y": 1.8291773343,
				"z": -2.2950174919,
				"element": "C" 
			},
			{
				"x": 0.399821789,
				"y": 0.9938681004,
				"z": -2.7556227633,
				"element": "C" 
			},
			{
				"x": 0.7997873403,
				"y": -0.1546971494,
				"z": -2.0208715058,
				"element": "C" 
			},
			{
				"x": 1.8244515007,
				"y": -1.0813723477,
				"z": -2.3660859361,
				"element": "C" 
			},
			{
				"x": 2.1020275222,
				"y": -2.1376112792,
				"z": -1.5219432178,
				"element": "C" 
			},
			{
				"x": 1.393751053,
				"y": -2.3698455665,
				"z": -0.3083490273,
				"element": "C" 
			},
			{
				"x": -1.4752163791,
				"y": -0.1197025287,
				"z": 1.2206049855,
				"element": "S" 
			},
			{
				"x": -0.9734727762,
				"y": 0.6946175686,
				"z": 2.3512391595,
				"element": "O" 
			},
			{
				"x": -2.8928921746,
				"y": -0.4691083046,
				"z": 1.2244010497,
				"element": "O" 
			},
			{
				"x": 0.4881857507,
				"y": -0.1217638815,
				"z": 3.098383882,
				"element": "H" 
			},
			{
				"x": -0.210459429,
				"y": -3.3823902596,
				"z": 2.057929527,
				"element": "H" 
			},
			{
				"x": -1.1304916437,
				"y": -2.2017428739,
				"z": 2.9882014143,
				"element": "H" 
			},
			{
				"x": -2.0544809889,
				"y": 2.262103402,
				"z": -0.7195155608,
				"element": "H" 
			},
			{
				"x": -0.8870167437,
				"y": 2.6983464901,
				"z": -2.8812961341,
				"element": "H" 
			},
			{
				"x": 0.8963700535,
				"y": 1.220058388,
				"z": -3.6951077823,
				"element": "H" 
			},
			{
				"x": 2.3872237167,
				"y": -0.9463563399,
				"z": -3.2843593268,
				"element": "H" 
			},
			{
				"x": 2.8948891326,
				"y": -2.8313258205,
				"z": -1.7848261586,
				"element": "H" 
			},
			{
				"x": 1.6612896759,
				"y": -3.2069258351,
				"z": 0.3267025219,
				"element": "H" 
			}
		],
		 "valence_orbital": [ 
			{
				"type": "occ",
				"energy": -0.31249,
				"method": "rhf"
			},
			{
				"type": "occ",
				"energy": -0.29342,
				"method": "rhf"
			},
			{
				"type": "occ",
				"energy": -0.27812,
				"method": "rhf"
			},
			{
				"type": "occ",
				"energy": -0.26993,
				"method": "rhf"
			},
			{
				"type": "occ",
				"energy": -0.22941,
				"method": "rhf"
			},
			{
				"type": "unocc",
				"energy": -0.08057,
				"method": "rhf"
			},
			{
				"type": "unocc",
				"energy": -0.0432,
				"method": "rhf"
			},
			{
				"type": "unocc",
				"energy": -0.00471,
				"method": "rhf"
			},
			{
				"type": "unocc",
				"energy": 0.00254,
				"method": "rhf"
			},
			{
				"type": "unocc",
				"energy": 0.02066,
				"method": "rhf"
			}
		],
		"cosmo_sigma_profile": { 
			"-0.025": 0.0,
			"-0.024": 0.0,
			"-0.023": 0.0,
			"-0.022": 0.0,
			"-0.021": 0.0,
			"-0.02": 0.0,
			"-0.019": 0.0,
			"-0.018": 0.0,
			"-0.017": 0.0,
			"-0.016": 0.0,
			"-0.015": 0.0,
			"-0.014": 0.0,
			"-0.013": 0.0,
			"-0.012": 0.351550199258,
			"-0.011": 2.02112938392,
			"-0.01": 3.49788573285,
			"-0.009": 6.35564785561,
			"-0.008": 8.04519180995,
			"-0.007": 17.0696310884,
			"-0.006": 19.1556435088,
			"-0.005": 15.5240516521,
			"-0.004": 12.8863969108,
			"-0.003": 11.8490758203,
			"-0.002": 12.1421825376,
			"-0.001": 14.211847508,
			"0.0": 17.886148718,
			"0.001": 23.3233060529,
			"0.002": 19.2095925223,
			"0.003": 12.0095047426,
			"0.004": 6.90706921957,
			"0.005": 3.96127293362,
			"0.006": 4.47262097038,
			"0.007": 6.48679006894,
			"0.008": 6.2064013715,
			"0.009": 12.9307158619,
			"0.01": 10.9025358496,
			"0.011": 5.27688665383,
			"0.012": 4.37753708716,
			"0.013": 0.980759407173,
			"0.014": 0.0,
			"0.015": 0.0,
			"0.016": 0.0,
			"0.017": 0.0,
			"0.018": 0.0,
			"0.019": 0.0,
			"0.02": 0.0,
			"0.021": 0.0,
			"0.022": 0.0,
			"0.023": 0.0,
			"0.024": 0.0,
			"0.025": 0.0
		}
	}
}
