{
	 "smiles": "BrC1=CC=C(OC2=C(Br)C(Br)=C(Br)C(Br)=C2Br)C=C1", 
	 "Tm": 457.15, 
	 "num_atms": 23, 
	 "gaussian": { 
		 "optdone": 1, 
		 "sigma_profile": "yes", 
		 "theory": "DFT", 
		 "functional": "B3LYP", 
		 "basiset": "6-31G**", 
		 "properties": { 
			 "R2extent": 19799.3836, 
			 "electric_dipole_moment_norm": 0.699320827661, 
			 "electric_quadrupole_moment_norm": 8.79166753182, 
			 "total_energy": -15963.2909052, 
			 "HOMO_LUMO_gap": 0.16027, 
			 "cosmo_polarized_energy": -6.54, 
			 "cosmo_cavitation_energy": 41.37, 
			 "cosmo_dispersion_energy": -31.03, 
			 "cosmo_repulsion_energy": 2.4, 
			 "cosmo_total_nonelectrostatic_energy": 12.75, 
			 "SMD_solvation_energy": 1.05 
		},
		"coords": [
			{
				"x": 5.0093497907,
				"y": -1.6377101125,
				"z": 0.0155352239,
				"element": "Br" 
			},
			{
				"x": 3.1868531476,
				"y": -1.2415295222,
				"z": -0.4003159057,
				"element": "C" 
			},
			{
				"x": 2.529717783,
				"y": -0.2236722734,
				"z": 0.2852326892,
				"element": "C" 
			},
			{
				"x": 1.1978725103,
				"y": 0.0685336928,
				"z": -0.0161860915,
				"element": "C" 
			},
			{
				"x": 0.5441031674,
				"y": -0.6667366867,
				"z": -1.0032339316,
				"element": "C" 
			},
			{
				"x": -0.7761775437,
				"y": -0.4556680062,
				"z": -1.376953726,
				"element": "O" 
			},
			{
				"x": -1.5198730911,
				"y": 0.5176718315,
				"z": -0.772424813,
				"element": "C" 
			},
			{
				"x": -1.5784060918,
				"y": 1.8009310981,
				"z": -1.3327554033,
				"element": "C" 
			},
			{
				"x": -0.5124149164,
				"y": 2.1467429981,
				"z": -2.8567539508,
				"element": "Br" 
			},
			{
				"x": -2.4148750948,
				"y": 2.7771169347,
				"z": -0.7729130013,
				"element": "C" 
			},
			{
				"x": -2.4843386333,
				"y": 4.5051273654,
				"z": -1.541029129,
				"element": "Br" 
			},
			{
				"x": -3.1964035245,
				"y": 2.4634884829,
				"z": 0.3532389554,
				"element": "C" 
			},
			{
				"x": -4.3264006403,
				"y": 3.7785547077,
				"z": 1.1153569158,
				"element": "Br" 
			},
			{
				"x": -3.1436342252,
				"y": 1.1743131368,
				"z": 0.9123378098,
				"element": "C" 
			},
			{
				"x": -4.1973161602,
				"y": 0.7364455228,
				"z": 2.421912681,
				"element": "Br" 
			},
			{
				"x": -2.3045469809,
				"y": 0.2042940439,
				"z": 0.3457320532,
				"element": "C" 
			},
			{
				"x": -2.1958255989,
				"y": -1.5543694582,
				"z": 1.0339918826,
				"element": "Br" 
			},
			{
				"x": 1.2029512569,
				"y": -1.6872402251,
				"z": -1.6905359963,
				"element": "C" 
			},
			{
				"x": 2.5303513813,
				"y": -1.9766748984,
				"z": -1.3884011507,
				"element": "C" 
			},
			{
				"x": 3.0479320154,
				"y": 0.3418205367,
				"z": 1.0510651838,
				"element": "H" 
			},
			{
				"x": 0.6860732225,
				"y": 0.8611416558,
				"z": 0.5176950278,
				"element": "H" 
			},
			{
				"x": 0.6677679189,
				"y": -2.2419986412,
				"z": -2.4534361196,
				"element": "H" 
			},
			{
				"x": 3.0502403069,
				"y": -2.767382183,
				"z": -1.9168592035,
				"element": "H" 
			}
		],
		 "valence_orbital": [ 
			{
				"type": "occ",
				"energy": -0.2735,
				"method": "rhf"
			},
			{
				"type": "occ",
				"energy": -0.27063,
				"method": "rhf"
			},
			{
				"type": "occ",
				"energy": -0.2607,
				"method": "rhf"
			},
			{
				"type": "occ",
				"energy": -0.25805,
				"method": "rhf"
			},
			{
				"type": "occ",
				"energy": -0.23519,
				"method": "rhf"
			},
			{
				"type": "unocc",
				"energy": -0.07492,
				"method": "rhf"
			},
			{
				"type": "unocc",
				"energy": -0.05873,
				"method": "rhf"
			},
			{
				"type": "unocc",
				"energy": -0.05479,
				"method": "rhf"
			},
			{
				"type": "unocc",
				"energy": -0.02376,
				"method": "rhf"
			},
			{
				"type": "unocc",
				"energy": -0.02028,
				"method": "rhf"
			}
		],
		"cosmo_sigma_profile": { 
			"-0.025": 0.0,
			"-0.024": 0.0,
			"-0.023": 0.0,
			"-0.022": 0.0,
			"-0.021": 0.0,
			"-0.02": 0.0,
			"-0.019": 0.0,
			"-0.018": 0.0,
			"-0.017": 0.0,
			"-0.016": 0.0,
			"-0.015": 0.0,
			"-0.014": 0.0,
			"-0.013": 0.0,
			"-0.012": 0.0,
			"-0.011": 0.0,
			"-0.01": 0.0,
			"-0.009": 0.0,
			"-0.008": 2.60211932588,
			"-0.007": 10.8185424372,
			"-0.006": 14.1412748627,
			"-0.005": 15.0192112943,
			"-0.004": 16.9741345555,
			"-0.003": 22.5548231925,
			"-0.002": 32.753672782,
			"-0.001": 27.0090401592,
			"0.0": 26.0063448012,
			"0.001": 32.0712660283,
			"0.002": 51.2515241251,
			"0.003": 64.8464606165,
			"0.004": 25.9016145822,
			"0.005": 8.77686503459,
			"0.006": 1.43711030694,
			"0.007": 0.577431188985,
			"0.008": 0.0,
			"0.009": 0.0,
			"0.01": 0.0,
			"0.011": 0.0,
			"0.012": 0.0,
			"0.013": 0.0,
			"0.014": 0.0,
			"0.015": 0.0,
			"0.016": 0.0,
			"0.017": 0.0,
			"0.018": 0.0,
			"0.019": 0.0,
			"0.02": 0.0,
			"0.021": 0.0,
			"0.022": 0.0,
			"0.023": 0.0,
			"0.024": 0.0,
			"0.025": 0.0
		}
	}
}
