{
	 "smiles": "O=S(=O)(NC1=CNN=C1)C1=CC(=CC=C1)C#N", 
	 "Tm": 436.15, 
	 "num_atms": 25, 
	 "gaussian": { 
		 "optdone": 1, 
		 "sigma_profile": "yes", 
		 "theory": "DFT", 
		 "functional": "B3LYP", 
		 "basiset": "6-31G**", 
		 "properties": { 
			 "R2extent": 4626.3081, 
			 "electric_dipole_moment_norm": 6.14499565338, 
			 "electric_quadrupole_moment_norm": 31.4719483461, 
			 "total_energy": -1153.40271715, 
			 "HOMO_LUMO_gap": 0.17286, 
			 "cosmo_polarized_energy": -26.48, 
			 "cosmo_cavitation_energy": 33.18, 
			 "cosmo_dispersion_energy": -22.96, 
			 "cosmo_repulsion_energy": 1.75, 
			 "cosmo_total_nonelectrostatic_energy": 11.97, 
			 "SMD_solvation_energy": 5.77 
		},
		"coords": [
			{
				"x": 0.0112241856,
				"y": -1.9041795837,
				"z": 1.4584636947,
				"element": "O" 
			},
			{
				"x": 0.2061592152,
				"y": -0.4580109208,
				"z": 1.367028104,
				"element": "S" 
			},
			{
				"x": 1.1080980015,
				"y": 0.2874458623,
				"z": 2.2407281364,
				"element": "O" 
			},
			{
				"x": -1.3393915543,
				"y": 0.1928677612,
				"z": 1.5921121626,
				"element": "N" 
			},
			{
				"x": -1.5731813315,
				"y": 1.5822838816,
				"z": 1.5012035453,
				"element": "C" 
			},
			{
				"x": -2.3584055376,
				"y": 2.2568072348,
				"z": 0.5778353025,
				"element": "C" 
			},
			{
				"x": -2.3043095985,
				"y": 3.5639373508,
				"z": 0.9392830089,
				"element": "N" 
			},
			{
				"x": -1.5230147705,
				"y": 3.7932120642,
				"z": 2.0157721733,
				"element": "N" 
			},
			{
				"x": -1.0813055384,
				"y": 2.5901212779,
				"z": 2.3699871581,
				"element": "C" 
			},
			{
				"x": 0.6832705966,
				"y": -0.0741275491,
				"z": -0.3269469582,
				"element": "C" 
			},
			{
				"x": 0.4280528703,
				"y": -1.0100940399,
				"z": -1.3266325743,
				"element": "C" 
			},
			{
				"x": 0.7749279967,
				"y": -0.697398007,
				"z": -2.6501293688,
				"element": "C" 
			},
			{
				"x": 1.3704300439,
				"y": 0.5406588601,
				"z": -2.9502406806,
				"element": "C" 
			},
			{
				"x": 1.6226064841,
				"y": 1.4566848619,
				"z": -1.9317531243,
				"element": "C" 
			},
			{
				"x": 1.2827972205,
				"y": 1.1560427323,
				"z": -0.6115284233,
				"element": "C" 
			},
			{
				"x": 0.5212784552,
				"y": -1.6436477023,
				"z": -3.6985724213,
				"element": "C" 
			},
			{
				"x": 0.3099050607,
				"y": -2.4034229316,
				"z": -4.5531877671,
				"element": "N" 
			},
			{
				"x": -2.0533634813,
				"y": -0.4255261504,
				"z": 1.2231249289,
				"element": "H" 
			},
			{
				"x": -2.941567097,
				"y": 1.9085403106,
				"z": -0.2620544025,
				"element": "H" 
			},
			{
				"x": -2.7841147604,
				"y": 4.340153488,
				"z": 0.5108016388,
				"element": "H" 
			},
			{
				"x": -0.419154425,
				"y": 2.4664134533,
				"z": 3.214382958,
				"element": "H" 
			},
			{
				"x": -0.0114563879,
				"y": -1.9697219132,
				"z": -1.0788155082,
				"element": "H" 
			},
			{
				"x": 1.6364213177,
				"y": 0.7689160777,
				"z": -3.9767856263,
				"element": "H" 
			},
			{
				"x": 2.0930642206,
				"y": 2.4064524938,
				"z": -2.1647825216,
				"element": "H" 
			},
			{
				"x": 1.4947288137,
				"y": 1.8505910875,
				"z": 0.1933065649,
				"element": "H" 
			}
		],
		 "valence_orbital": [ 
			{
				"type": "occ",
				"energy": -0.30465,
				"method": "rhf"
			},
			{
				"type": "occ",
				"energy": -0.29543,
				"method": "rhf"
			},
			{
				"type": "occ",
				"energy": -0.28561,
				"method": "rhf"
			},
			{
				"type": "occ",
				"energy": -0.27485,
				"method": "rhf"
			},
			{
				"type": "occ",
				"energy": -0.24743,
				"method": "rhf"
			},
			{
				"type": "unocc",
				"energy": -0.07457,
				"method": "rhf"
			},
			{
				"type": "unocc",
				"energy": -0.05811,
				"method": "rhf"
			},
			{
				"type": "unocc",
				"energy": -0.00388,
				"method": "rhf"
			},
			{
				"type": "unocc",
				"energy": 0.01902,
				"method": "rhf"
			},
			{
				"type": "unocc",
				"energy": 0.02604,
				"method": "rhf"
			}
		],
		"cosmo_sigma_profile": { 
			"-0.025": 0.0,
			"-0.024": 0.0,
			"-0.023": 0.0,
			"-0.022": 0.0,
			"-0.021": 0.0,
			"-0.02": 0.0,
			"-0.019": 0.0,
			"-0.018": 0.0,
			"-0.017": 1.32557357204,
			"-0.016": 2.62769337937,
			"-0.015": 2.56660403516,
			"-0.014": 2.2560288095,
			"-0.013": 1.61111683003,
			"-0.012": 2.01511250393,
			"-0.011": 3.2148450466,
			"-0.01": 3.94870538545,
			"-0.009": 8.0559325801,
			"-0.008": 11.1988986595,
			"-0.007": 13.3611503439,
			"-0.006": 9.29574260338,
			"-0.005": 9.84227075203,
			"-0.004": 11.046579109,
			"-0.003": 13.0584715661,
			"-0.002": 14.2465958439,
			"-0.001": 19.6526223595,
			"0.0": 18.8471152375,
			"0.001": 14.6681939523,
			"0.002": 11.3355786359,
			"0.003": 10.259684504,
			"0.004": 10.4160347451,
			"0.005": 9.27842928387,
			"0.006": 8.21847667649,
			"0.007": 8.9619165686,
			"0.008": 7.66843034832,
			"0.009": 9.64158575131,
			"0.01": 11.7331998553,
			"0.011": 9.74557758839,
			"0.012": 4.07714020595,
			"0.013": 1.54204999239,
			"0.014": 0.94415086369,
			"0.015": 1.22909550039,
			"0.016": 0.258443822951,
			"0.017": 0.0,
			"0.018": 0.0,
			"0.019": 0.0,
			"0.02": 0.0,
			"0.021": 0.0,
			"0.022": 0.0,
			"0.023": 0.0,
			"0.024": 0.0,
			"0.025": 0.0
		}
	}
}
