{
	 "smiles": "CCCCOC1=CC=C(C=NC2=CC=C(C=C2)C(C)=O)C=C1", 
	 "Tm": 377.15, 
	 "num_atms": 43, 
	 "gaussian": { 
		 "optdone": 1, 
		 "sigma_profile": "yes", 
		 "theory": "DFT", 
		 "functional": "B3LYP", 
		 "basiset": "6-31G**", 
		 "properties": { 
			 "R2extent": 15263.4664, 
			 "electric_dipole_moment_norm": 5.74510353432, 
			 "electric_quadrupole_moment_norm": 20.9282621417, 
			 "total_energy": -941.879620494, 
			 "HOMO_LUMO_gap": 0.14719, 
			 "cosmo_polarized_energy": -13.97, 
			 "cosmo_cavitation_energy": 47.12, 
			 "cosmo_dispersion_energy": -33.44, 
			 "cosmo_repulsion_energy": 2.57, 
			 "cosmo_total_nonelectrostatic_energy": 16.26, 
			 "SMD_solvation_energy": 7.57 
		},
		"coords": [
			{
				"x": 1.8545206116,
				"y": -6.1548717455,
				"z": 3.9790867525,
				"element": "C" 
			},
			{
				"x": 2.1908029791,
				"y": -4.7139627947,
				"z": 3.5814902331,
				"element": "C" 
			},
			{
				"x": 3.6417798122,
				"y": -4.3365895081,
				"z": 3.9044962565,
				"element": "C" 
			},
			{
				"x": 4.0505686009,
				"y": -2.9188817261,
				"z": 3.510224182,
				"element": "C" 
			},
			{
				"x": 4.0998885618,
				"y": -2.7605477527,
				"z": 2.083767449,
				"element": "O" 
			},
			{
				"x": 3.1787023198,
				"y": -2.0341520009,
				"z": 1.3985472325,
				"element": "C" 
			},
			{
				"x": 3.4918442906,
				"y": -1.7997613809,
				"z": 0.0483459269,
				"element": "C" 
			},
			{
				"x": 2.6231274014,
				"y": -1.0755377468,
				"z": -0.753075828,
				"element": "C" 
			},
			{
				"x": 1.4207755585,
				"y": -0.5580999983,
				"z": -0.2375609397,
				"element": "C" 
			},
			{
				"x": 0.5267390794,
				"y": 0.2068907547,
				"z": -1.1018179117,
				"element": "C" 
			},
			{
				"x": -0.5959105431,
				"y": 0.6842809732,
				"z": -0.6995018623,
				"element": "N" 
			},
			{
				"x": -1.3741713916,
				"y": 1.4687605606,
				"z": -1.5580259376,
				"element": "C" 
			},
			{
				"x": -2.7715764048,
				"y": 1.316652126,
				"z": -1.5049770707,
				"element": "C" 
			},
			{
				"x": -3.5968271636,
				"y": 2.0741208075,
				"z": -2.3265411731,
				"element": "C" 
			},
			{
				"x": -3.056200054,
				"y": 3.028519945,
				"z": -3.2054972694,
				"element": "C" 
			},
			{
				"x": -1.6624130925,
				"y": 3.2008775368,
				"z": -3.2344507181,
				"element": "C" 
			},
			{
				"x": -0.8309947085,
				"y": 2.4378569382,
				"z": -2.4269246661,
				"element": "C" 
			},
			{
				"x": -3.8946056521,
				"y": 3.8801453097,
				"z": -4.1023981325,
				"element": "C" 
			},
			{
				"x": -5.4053220401,
				"y": 3.7044730825,
				"z": -4.079853916,
				"element": "C" 
			},
			{
				"x": -3.3803763873,
				"y": 4.7051503857,
				"z": -4.8454067499,
				"element": "O" 
			},
			{
				"x": 1.1164717888,
				"y": -0.8019099507,
				"z": 1.1120105133,
				"element": "C" 
			},
			{
				"x": 1.9751943376,
				"y": -1.5311526868,
				"z": 1.9251526609,
				"element": "C" 
			},
			{
				"x": 0.8148848364,
				"y": -6.4006548693,
				"z": 3.740985765,
				"element": "H" 
			},
			{
				"x": 2.4947760376,
				"y": -6.8701474724,
				"z": 3.450636472,
				"element": "H" 
			},
			{
				"x": 1.997128879,
				"y": -6.3151868211,
				"z": 5.0539532453,
				"element": "H" 
			},
			{
				"x": 1.5102478317,
				"y": -4.0245098761,
				"z": 4.099582611,
				"element": "H" 
			},
			{
				"x": 2.0096574264,
				"y": -4.5782788783,
				"z": 2.5088964751,
				"element": "H" 
			},
			{
				"x": 4.3251033252,
				"y": -5.038237214,
				"z": 3.4091705456,
				"element": "H" 
			},
			{
				"x": 3.8194037641,
				"y": -4.4411760635,
				"z": 4.9841252878,
				"element": "H" 
			},
			{
				"x": 3.3977971518,
				"y": -2.1676611839,
				"z": 3.965893875,
				"element": "H" 
			},
			{
				"x": 5.0707910562,
				"y": -2.7185892213,
				"z": 3.8547233106,
				"element": "H" 
			},
			{
				"x": 4.4240460988,
				"y": -2.1960102861,
				"z": -0.339839273,
				"element": "H" 
			},
			{
				"x": 2.8778675881,
				"y": -0.899861079,
				"z": -1.7955595068,
				"element": "H" 
			},
			{
				"x": 0.8687685035,
				"y": 0.3400908293,
				"z": -2.1395773725,
				"element": "H" 
			},
			{
				"x": -3.1846187974,
				"y": 0.5862044958,
				"z": -0.8168599218,
				"element": "H" 
			},
			{
				"x": -4.6706336316,
				"y": 1.9247343067,
				"z": -2.2740843928,
				"element": "H" 
			},
			{
				"x": -1.2565237797,
				"y": 3.9531803138,
				"z": -3.9028887626,
				"element": "H" 
			},
			{
				"x": 0.2418240759,
				"y": 2.6058162167,
				"z": -2.435779437,
				"element": "H" 
			},
			{
				"x": -5.8465795765,
				"y": 4.3967053198,
				"z": -4.7974554377,
				"element": "H" 
			},
			{
				"x": -5.6877271878,
				"y": 2.6790690345,
				"z": -4.3427638352,
				"element": "H" 
			},
			{
				"x": -5.8103743324,
				"y": 3.9086989626,
				"z": -3.0824826668,
				"element": "H" 
			},
			{
				"x": 0.1847993572,
				"y": -0.4125576559,
				"z": 1.5093978352,
				"element": "H" 
			},
			{
				"x": 1.6961434695,
				"y": -1.7154899869,
				"z": 2.955136152,
				"element": "H" 
			}
		],
		 "valence_orbital": [ 
			{
				"type": "occ",
				"energy": -0.26225,
				"method": "rhf"
			},
			{
				"type": "occ",
				"energy": -0.25504,
				"method": "rhf"
			},
			{
				"type": "occ",
				"energy": -0.23977,
				"method": "rhf"
			},
			{
				"type": "occ",
				"energy": -0.23693,
				"method": "rhf"
			},
			{
				"type": "occ",
				"energy": -0.21232,
				"method": "rhf"
			},
			{
				"type": "unocc",
				"energy": -0.06513,
				"method": "rhf"
			},
			{
				"type": "unocc",
				"energy": -0.02761,
				"method": "rhf"
			},
			{
				"type": "unocc",
				"energy": -0.01013,
				"method": "rhf"
			},
			{
				"type": "unocc",
				"energy": -0.00297,
				"method": "rhf"
			},
			{
				"type": "unocc",
				"energy": 0.04099,
				"method": "rhf"
			}
		],
		"cosmo_sigma_profile": { 
			"-0.025": 0.0,
			"-0.024": 0.0,
			"-0.023": 0.0,
			"-0.022": 0.0,
			"-0.021": 0.0,
			"-0.02": 0.0,
			"-0.019": 0.0,
			"-0.018": 0.0,
			"-0.017": 0.0,
			"-0.016": 0.0,
			"-0.015": 0.0,
			"-0.014": 0.0,
			"-0.013": 0.0,
			"-0.012": 0.0,
			"-0.011": 0.0,
			"-0.01": 0.0,
			"-0.009": 0.0,
			"-0.008": 0.558888909517,
			"-0.007": 7.09198602714,
			"-0.006": 20.4525594573,
			"-0.005": 27.5225250491,
			"-0.004": 27.5268843479,
			"-0.003": 32.0781159269,
			"-0.002": 36.5209862741,
			"-0.001": 34.1323891725,
			"0.0": 32.0286183257,
			"0.001": 31.1002620851,
			"0.002": 25.0789671974,
			"0.003": 28.319076459,
			"0.004": 30.498965284,
			"0.005": 7.8783876765,
			"0.006": 4.93834225415,
			"0.007": 4.79843519756,
			"0.008": 4.57972270639,
			"0.009": 3.52659090206,
			"0.01": 3.79700754963,
			"0.011": 3.55766086977,
			"0.012": 4.55062537744,
			"0.013": 2.35277119986,
			"0.014": 0.470024617896,
			"0.015": 0.0,
			"0.016": 0.0,
			"0.017": 0.0,
			"0.018": 0.0,
			"0.019": 0.0,
			"0.02": 0.0,
			"0.021": 0.0,
			"0.022": 0.0,
			"0.023": 0.0,
			"0.024": 0.0,
			"0.025": 0.0
		}
	}
}
