{
	 "smiles": "CN1N(C(=O)C(N=CC2=C(O)C(Br)=CC(Br)=C2)=C1C)C1=CC=CC=C1", 
	 "Tm": 501.5, 
	 "num_atms": 40, 
	 "gaussian": { 
		 "optdone": 1, 
		 "sigma_profile": "yes", 
		 "theory": "DFT", 
		 "functional": "B3LYP", 
		 "basiset": "6-31G**", 
		 "properties": { 
			 "R2extent": 26007.4086, 
			 "electric_dipole_moment_norm": 5.39362129649, 
			 "electric_quadrupole_moment_norm": 11.9617161348, 
			 "total_energy": -6152.43306809, 
			 "HOMO_LUMO_gap": 0.14385, 
			 "cosmo_polarized_energy": -17.95, 
			 "cosmo_cavitation_energy": 49.24, 
			 "cosmo_dispersion_energy": -35.58, 
			 "cosmo_repulsion_energy": 2.68, 
			 "cosmo_total_nonelectrostatic_energy": 16.34, 
			 "SMD_solvation_energy": 6.3 
		},
		"coords": [
			{
				"x": 2.0324340584,
				"y": -2.1030629141,
				"z": 0.4984285239,
				"element": "C" 
			},
			{
				"x": 0.8976354201,
				"y": -1.2102294444,
				"z": 0.7659990018,
				"element": "N" 
			},
			{
				"x": 1.2346213489,
				"y": -0.0331481582,
				"z": 1.4739958972,
				"element": "N" 
			},
			{
				"x": 0.5012340437,
				"y": 1.0643210419,
				"z": 0.9555355502,
				"element": "C" 
			},
			{
				"x": 0.5094659925,
				"y": 2.1927310507,
				"z": 1.4367425298,
				"element": "O" 
			},
			{
				"x": -0.229936202,
				"y": 0.5121527455,
				"z": -0.1904530492,
				"element": "C" 
			},
			{
				"x": -1.1066198823,
				"y": 1.1331938177,
				"z": -1.0578385969,
				"element": "N" 
			},
			{
				"x": -1.3403495806,
				"y": 2.3963227214,
				"z": -0.9617448124,
				"element": "C" 
			},
			{
				"x": -2.2577066584,
				"y": 3.1262176402,
				"z": -1.8434164995,
				"element": "C" 
			},
			{
				"x": -2.9950943939,
				"y": 2.5507462241,
				"z": -2.9125521559,
				"element": "C" 
			},
			{
				"x": -2.8764990198,
				"y": 1.2358958594,
				"z": -3.1800165094,
				"element": "O" 
			},
			{
				"x": -3.8342061422,
				"y": 3.3915607741,
				"z": -3.6642258405,
				"element": "C" 
			},
			{
				"x": -4.8320530888,
				"y": 2.616955326,
				"z": -5.1103536809,
				"element": "Br" 
			},
			{
				"x": -3.9716577836,
				"y": 4.7510775418,
				"z": -3.4075419646,
				"element": "C" 
			},
			{
				"x": -3.241453579,
				"y": 5.2984350329,
				"z": -2.3563627058,
				"element": "C" 
			},
			{
				"x": -3.403772248,
				"y": 7.1619975315,
				"z": -1.9739403886,
				"element": "Br" 
			},
			{
				"x": -2.4015810607,
				"y": 4.5018132122,
				"z": -1.5904035378,
				"element": "C" 
			},
			{
				"x": 0.0739934563,
				"y": -0.8239031948,
				"z": -0.2778590979,
				"element": "C" 
			},
			{
				"x": -0.3763571716,
				"y": -1.7798173801,
				"z": -1.3292556305,
				"element": "C" 
			},
			{
				"x": 1.6494466075,
				"y": -0.1370322032,
				"z": 2.8287963104,
				"element": "C" 
			},
			{
				"x": 1.3349826174,
				"y": -1.2658250874,
				"z": 3.5977106106,
				"element": "C" 
			},
			{
				"x": 1.7695902161,
				"y": -1.3436601462,
				"z": 4.9208768832,
				"element": "C" 
			},
			{
				"x": 2.4949593444,
				"y": -0.2963640411,
				"z": 5.4903491937,
				"element": "C" 
			},
			{
				"x": 2.7876764183,
				"y": 0.8335198996,
				"z": 4.723233421,
				"element": "C" 
			},
			{
				"x": 2.3802559446,
				"y": 0.9173881069,
				"z": 3.3931140604,
				"element": "C" 
			},
			{
				"x": 2.5018065118,
				"y": -2.3781428737,
				"z": 1.4432390837,
				"element": "H" 
			},
			{
				"x": 2.777679117,
				"y": -1.6274926854,
				"z": -0.1517978571,
				"element": "H" 
			},
			{
				"x": 1.6523329268,
				"y": -3.0079892791,
				"z": 0.0225139941,
				"element": "H" 
			},
			{
				"x": -0.8586159609,
				"y": 3.0104257308,
				"z": -0.1952988438,
				"element": "H" 
			},
			{
				"x": -3.4518957179,
				"y": 1.0297926041,
				"z": -3.9364063339,
				"element": "H" 
			},
			{
				"x": -4.6296816781,
				"y": 5.3616900674,
				"z": -4.012032484,
				"element": "H" 
			},
			{
				"x": -1.838752482,
				"y": 4.9406982467,
				"z": -0.7738953801,
				"element": "H" 
			},
			{
				"x": -0.8003695636,
				"y": -2.6889561628,
				"z": -0.88968301,
				"element": "H" 
			},
			{
				"x": 0.4466004848,
				"y": -2.078951253,
				"z": -1.989778248,
				"element": "H" 
			},
			{
				"x": -1.1356758655,
				"y": -1.2797394406,
				"z": -1.9330427961,
				"element": "H" 
			},
			{
				"x": 0.7387336662,
				"y": -2.061071731,
				"z": 3.1636906114,
				"element": "H" 
			},
			{
				"x": 1.5251087236,
				"y": -2.2227137935,
				"z": 5.5103501835,
				"element": "H" 
			},
			{
				"x": 2.826103883,
				"y": -0.3581489934,
				"z": 6.5225496219,
				"element": "H" 
			},
			{
				"x": 3.3472007369,
				"y": 1.6563786715,
				"z": 5.1584841836,
				"element": "H" 
			},
			{
				"x": 2.6021165607,
				"y": 1.7911349356,
				"z": 2.7943897623,
				"element": "H" 
			}
		],
		 "valence_orbital": [ 
			{
				"type": "occ",
				"energy": -0.25424,
				"method": "rhf"
			},
			{
				"type": "occ",
				"energy": -0.2335,
				"method": "rhf"
			},
			{
				"type": "occ",
				"energy": -0.22905,
				"method": "rhf"
			},
			{
				"type": "occ",
				"energy": -0.22114,
				"method": "rhf"
			},
			{
				"type": "occ",
				"energy": -0.20347,
				"method": "rhf"
			},
			{
				"type": "unocc",
				"energy": -0.05962,
				"method": "rhf"
			},
			{
				"type": "unocc",
				"energy": -0.02175,
				"method": "rhf"
			},
			{
				"type": "unocc",
				"energy": -0.02124,
				"method": "rhf"
			},
			{
				"type": "unocc",
				"energy": -0.01225,
				"method": "rhf"
			},
			{
				"type": "unocc",
				"energy": -0.00478,
				"method": "rhf"
			}
		],
		"cosmo_sigma_profile": { 
			"-0.025": 0.0,
			"-0.024": 0.0,
			"-0.023": 0.0,
			"-0.022": 0.0,
			"-0.021": 0.0,
			"-0.02": 0.0,
			"-0.019": 0.0,
			"-0.018": 0.0,
			"-0.017": 0.0,
			"-0.016": 0.0,
			"-0.015": 0.0605444127609,
			"-0.014": 0.407312457717,
			"-0.013": 0.809873655637,
			"-0.012": 0.30951306081,
			"-0.011": 0.633839475482,
			"-0.01": 1.48612630254,
			"-0.009": 1.1592371778,
			"-0.008": 4.25265168907,
			"-0.007": 7.05218548386,
			"-0.006": 21.8540313507,
			"-0.005": 28.9488906642,
			"-0.004": 31.5603116687,
			"-0.003": 30.1177967119,
			"-0.002": 27.0228376314,
			"-0.001": 28.164850455,
			"0.0": 34.6145486858,
			"0.001": 42.0051951691,
			"0.002": 36.3494863043,
			"0.003": 26.7445043537,
			"0.004": 26.3432799631,
			"0.005": 17.7490397991,
			"0.006": 5.73449148672,
			"0.007": 3.99528221452,
			"0.008": 4.7901845613,
			"0.009": 3.37804044486,
			"0.01": 2.89348677771,
			"0.011": 3.3255178743,
			"0.012": 3.59160617405,
			"0.013": 5.20623402572,
			"0.014": 0.98373206607,
			"0.015": 0.0,
			"0.016": 0.0,
			"0.017": 0.0,
			"0.018": 0.0,
			"0.019": 0.0,
			"0.02": 0.0,
			"0.021": 0.0,
			"0.022": 0.0,
			"0.023": 0.0,
			"0.024": 0.0,
			"0.025": 0.0
		}
	}
}
