{
	 "smiles": "CCOC(=O)C1=C(N(C)N=C1)S(=O)(=O)NC(=O)NC1=NC(OC)=CC(OC)=N1", 
	 "Tm": 455.15, 
	 "num_atms": 46, 
	 "gaussian": { 
		 "optdone": 1, 
		 "sigma_profile": "yes", 
		 "theory": "DFT", 
		 "functional": "B3LYP", 
		 "basiset": "6-31G**", 
		 "properties": { 
			 "R2extent": 12055.6015, 
			 "electric_dipole_moment_norm": 2.86369785767, 
			 "electric_quadrupole_moment_norm": 26.7233356634, 
			 "total_energy": -1797.53378408, 
			 "HOMO_LUMO_gap": 0.17848, 
			 "cosmo_polarized_energy": -25.59, 
			 "cosmo_cavitation_energy": 53.47, 
			 "cosmo_dispersion_energy": -34.87, 
			 "cosmo_repulsion_energy": 2.62, 
			 "cosmo_total_nonelectrostatic_energy": 21.22, 
			 "SMD_solvation_energy": 9.77 
		},
		"coords": [
			{
				"x": 4.2386031201,
				"y": 1.7014182786,
				"z": 1.5260515932,
				"element": "C" 
			},
			{
				"x": 3.426768607,
				"y": 2.9264695432,
				"z": 1.9187161061,
				"element": "C" 
			},
			{
				"x": 2.0059705043,
				"y": 2.6901372684,
				"z": 1.7560913902,
				"element": "O" 
			},
			{
				"x": 1.5056547352,
				"y": 2.8957655731,
				"z": 0.5149685983,
				"element": "C" 
			},
			{
				"x": 2.1627817783,
				"y": 3.2451754075,
				"z": -0.4410958149,
				"element": "O" 
			},
			{
				"x": 0.0387509344,
				"y": 2.6941568156,
				"z": 0.5229963426,
				"element": "C" 
			},
			{
				"x": -0.8359674861,
				"y": 2.4118716863,
				"z": -0.5292626019,
				"element": "C" 
			},
			{
				"x": -2.1027430713,
				"y": 2.4862758317,
				"z": -0.025405794,
				"element": "N" 
			},
			{
				"x": -3.3931262308,
				"y": 2.3084605688,
				"z": -0.6864064134,
				"element": "C" 
			},
			{
				"x": -2.0986284639,
				"y": 2.7783089121,
				"z": 1.2907915571,
				"element": "N" 
			},
			{
				"x": -0.8182921123,
				"y": 2.8954768238,
				"z": 1.6263606214,
				"element": "C" 
			},
			{
				"x": -0.4813417692,
				"y": 2.0251065588,
				"z": -2.2400558243,
				"element": "S" 
			},
			{
				"x": 0.8652341313,
				"y": 1.4672523851,
				"z": -2.2908202504,
				"element": "O" 
			},
			{
				"x": -0.9203229135,
				"y": 3.1342398097,
				"z": -3.0789939613,
				"element": "O" 
			},
			{
				"x": -1.5426472595,
				"y": 0.7637987294,
				"z": -2.6120034392,
				"element": "N" 
			},
			{
				"x": -1.6385704829,
				"y": -0.5429202052,
				"z": -2.0411230069,
				"element": "C" 
			},
			{
				"x": -2.7218023984,
				"y": -1.0903368628,
				"z": -2.0240842815,
				"element": "O" 
			},
			{
				"x": -0.4324270851,
				"y": -1.0244307985,
				"z": -1.5986321117,
				"element": "N" 
			},
			{
				"x": -0.1800873653,
				"y": -2.2213593076,
				"z": -0.9164724972,
				"element": "C" 
			},
			{
				"x": 1.1267591785,
				"y": -2.4758474309,
				"z": -0.7806127164,
				"element": "N" 
			},
			{
				"x": 1.4249330216,
				"y": -3.6027410484,
				"z": -0.1245703911,
				"element": "C" 
			},
			{
				"x": 2.7131095546,
				"y": -3.9317538087,
				"z": 0.0589206837,
				"element": "O" 
			},
			{
				"x": 3.7074296705,
				"y": -3.0473430621,
				"z": -0.4744908832,
				"element": "C" 
			},
			{
				"x": 0.4551883326,
				"y": -4.4691230756,
				"z": 0.3839624275,
				"element": "C" 
			},
			{
				"x": -0.865278505,
				"y": -4.0723410952,
				"z": 0.1689920496,
				"element": "C" 
			},
			{
				"x": -1.8424888125,
				"y": -4.8634554047,
				"z": 0.6333471117,
				"element": "O" 
			},
			{
				"x": -3.196922201,
				"y": -4.443411255,
				"z": 0.4032351417,
				"element": "C" 
			},
			{
				"x": -1.1993687044,
				"y": -2.9457864826,
				"z": -0.4738822566,
				"element": "N" 
			},
			{
				"x": 5.2995712223,
				"y": 1.8799625707,
				"z": 1.7301917917,
				"element": "H" 
			},
			{
				"x": 4.1241137153,
				"y": 1.492581218,
				"z": 0.4597052589,
				"element": "H" 
			},
			{
				"x": 3.9209411964,
				"y": 0.824807038,
				"z": 2.0984506035,
				"element": "H" 
			},
			{
				"x": 3.709620145,
				"y": 3.7955838409,
				"z": 1.3200158389,
				"element": "H" 
			},
			{
				"x": 3.5404870031,
				"y": 3.1614257038,
				"z": 2.9795410313,
				"element": "H" 
			},
			{
				"x": -4.1416321718,
				"y": 2.6934444777,
				"z": 0.0040038753,
				"element": "H" 
			},
			{
				"x": -3.5903928363,
				"y": 1.2525342335,
				"z": -0.8890087133,
				"element": "H" 
			},
			{
				"x": -3.4196501315,
				"y": 2.8870706722,
				"z": -1.6126494976,
				"element": "H" 
			},
			{
				"x": -0.5361655935,
				"y": 3.1402152535,
				"z": 2.6399239309,
				"element": "H" 
			},
			{
				"x": -2.4109742826,
				"y": 1.0660263779,
				"z": -3.0385224242,
				"element": "H" 
			},
			{
				"x": 0.4042672868,
				"y": -0.5008066599,
				"z": -1.8431845252,
				"element": "H" 
			},
			{
				"x": 3.6292871053,
				"y": -2.0524943842,
				"z": -0.0280027859,
				"element": "H" 
			},
			{
				"x": 3.6092507038,
				"y": -2.9538403536,
				"z": -1.5591507792,
				"element": "H" 
			},
			{
				"x": 4.6633376345,
				"y": -3.5047928813,
				"z": -0.2177338257,
				"element": "H" 
			},
			{
				"x": 0.7102426952,
				"y": -5.3805039619,
				"z": 0.9062182597,
				"element": "H" 
			},
			{
				"x": -3.4067181562,
				"y": -3.5040497861,
				"z": 0.921262463,
				"element": "H" 
			},
			{
				"x": -3.388875238,
				"y": -4.3020471878,
				"z": -0.6626210564,
				"element": "H" 
			},
			{
				"x": -3.8147790049,
				"y": -5.2467805262,
				"z": 0.8054391751,
				"element": "H" 
			}
		],
		 "valence_orbital": [ 
			{
				"type": "occ",
				"energy": -0.28184,
				"method": "rhf"
			},
			{
				"type": "occ",
				"energy": -0.27434,
				"method": "rhf"
			},
			{
				"type": "occ",
				"energy": -0.27391,
				"method": "rhf"
			},
			{
				"type": "occ",
				"energy": -0.26627,
				"method": "rhf"
			},
			{
				"type": "occ",
				"energy": -0.23629,
				"method": "rhf"
			},
			{
				"type": "unocc",
				"energy": -0.05781,
				"method": "rhf"
			},
			{
				"type": "unocc",
				"energy": -0.03227,
				"method": "rhf"
			},
			{
				"type": "unocc",
				"energy": -0.00723,
				"method": "rhf"
			},
			{
				"type": "unocc",
				"energy": -0.00614,
				"method": "rhf"
			},
			{
				"type": "unocc",
				"energy": 0.02031,
				"method": "rhf"
			}
		],
		"cosmo_sigma_profile": { 
			"-0.025": 0.0,
			"-0.024": 0.0,
			"-0.023": 0.0,
			"-0.022": 0.0,
			"-0.021": 0.0,
			"-0.02": 0.0,
			"-0.019": 0.0,
			"-0.018": 0.0,
			"-0.017": 0.351713350315,
			"-0.016": 0.837518600059,
			"-0.015": 1.36256048746,
			"-0.014": 0.764688254537,
			"-0.013": 0.85965362706,
			"-0.012": 1.09633899636,
			"-0.011": 0.845658535087,
			"-0.01": 1.26822361072,
			"-0.009": 2.49875055632,
			"-0.008": 5.97154138906,
			"-0.007": 9.72123237236,
			"-0.006": 18.6698395679,
			"-0.005": 30.1982313135,
			"-0.004": 41.3059601257,
			"-0.003": 44.050201929,
			"-0.002": 36.9261789451,
			"-0.001": 36.6301591848,
			"0.0": 30.8345836395,
			"0.001": 22.8990435436,
			"0.002": 20.2666245492,
			"0.003": 14.3715375022,
			"0.004": 15.5132030993,
			"0.005": 11.6639941916,
			"0.006": 11.3108082309,
			"0.007": 11.6977935796,
			"0.008": 13.1847399651,
			"0.009": 13.5385002248,
			"0.01": 7.53892863769,
			"0.011": 10.6865320079,
			"0.012": 6.16422697515,
			"0.013": 2.567218504,
			"0.014": 0.564766303012,
			"0.015": 0.013540545174,
			"0.016": 0.0,
			"0.017": 0.0,
			"0.018": 0.0,
			"0.019": 0.0,
			"0.02": 0.0,
			"0.021": 0.0,
			"0.022": 0.0,
			"0.023": 0.0,
			"0.024": 0.0,
			"0.025": 0.0
		}
	}
}
