{
	 "smiles": "CC1=CC(C)=C(CC(=N/OCC2=CC=CC=C2)C2=CC3=C(O2)C=CC(Br)=C3)C(C)=C1", 
	 "Tm": 399.15, 
	 "num_atms": 54, 
	 "gaussian": { 
		 "optdone": 1, 
		 "sigma_profile": "yes", 
		 "theory": "DFT", 
		 "functional": "B3LYP", 
		 "basiset": "6-31G**", 
		 "properties": { 
			 "R2extent": 24024.3487, 
			 "electric_dipole_moment_norm": 3.02860916924, 
			 "electric_quadrupole_moment_norm": 14.8980743272, 
			 "total_energy": -3781.79232439, 
			 "HOMO_LUMO_gap": 0.15938, 
			 "cosmo_polarized_energy": -11.04, 
			 "cosmo_cavitation_energy": 59.81, 
			 "cosmo_dispersion_energy": -40.18, 
			 "cosmo_repulsion_energy": 3.05, 
			 "cosmo_total_nonelectrostatic_energy": 22.68, 
			 "SMD_solvation_energy": 8.4 
		},
		"coords": [
			{
				"x": -3.5372563674,
				"y": 2.5905358857,
				"z": -4.8050667662,
				"element": "C" 
			},
			{
				"x": -2.8986351281,
				"y": 2.0293257654,
				"z": -3.5562615734,
				"element": "C" 
			},
			{
				"x": -1.8770343945,
				"y": 1.0818194962,
				"z": -3.6291884754,
				"element": "C" 
			},
			{
				"x": -1.2912365515,
				"y": 0.5282739728,
				"z": -2.484439229,
				"element": "C" 
			},
			{
				"x": -0.1886795322,
				"y": -0.4926782308,
				"z": -2.6608836909,
				"element": "C" 
			},
			{
				"x": -1.7362763176,
				"y": 0.9410338088,
				"z": -1.2100382726,
				"element": "C" 
			},
			{
				"x": -1.136450346,
				"y": 0.3283311431,
				"z": 0.0523043056,
				"element": "C" 
			},
			{
				"x": 0.352891617,
				"y": 0.5512833297,
				"z": 0.2504646459,
				"element": "C" 
			},
			{
				"x": 1.2409932368,
				"y": -0.3708667955,
				"z": 0.4256995781,
				"element": "N" 
			},
			{
				"x": 0.711786381,
				"y": -1.6558466037,
				"z": 0.3573771292,
				"element": "O" 
			},
			{
				"x": 1.7749453644,
				"y": -2.6096465569,
				"z": 0.5550794683,
				"element": "C" 
			},
			{
				"x": 1.1653844739,
				"y": -3.9858728488,
				"z": 0.5231112241,
				"element": "C" 
			},
			{
				"x": 0.42696982,
				"y": -4.4556894632,
				"z": 1.6176885026,
				"element": "C" 
			},
			{
				"x": -0.1552667404,
				"y": -5.7219112312,
				"z": 1.5888672179,
				"element": "C" 
			},
			{
				"x": -0.0026887909,
				"y": -6.5361390313,
				"z": 0.4634006893,
				"element": "C" 
			},
			{
				"x": 0.7304688044,
				"y": -6.0772099355,
				"z": -0.6316140731,
				"element": "C" 
			},
			{
				"x": 1.3078018221,
				"y": -4.8063405059,
				"z": -0.6012639252,
				"element": "C" 
			},
			{
				"x": 0.8988677526,
				"y": 1.9088458515,
				"z": 0.2817266953,
				"element": "C" 
			},
			{
				"x": 2.1750381279,
				"y": 2.3853072605,
				"z": 0.1740811838,
				"element": "C" 
			},
			{
				"x": 2.0893401708,
				"y": 3.8126941423,
				"z": 0.3002572529,
				"element": "C" 
			},
			{
				"x": 0.71984185,
				"y": 4.0941853147,
				"z": 0.4762478697,
				"element": "C" 
			},
			{
				"x": -0.0047613717,
				"y": 2.9364779147,
				"z": 0.4668768898,
				"element": "O" 
			},
			{
				"x": 0.2127292965,
				"y": 5.3775298842,
				"z": 0.6329176072,
				"element": "C" 
			},
			{
				"x": 1.1328700045,
				"y": 6.4241728683,
				"z": 0.6122380878,
				"element": "C" 
			},
			{
				"x": 2.5033433281,
				"y": 6.1603367934,
				"z": 0.437870173,
				"element": "C" 
			},
			{
				"x": 3.71778578,
				"y": 7.6421069704,
				"z": 0.4184176838,
				"element": "Br" 
			},
			{
				"x": 3.0071969802,
				"y": 4.8759606505,
				"z": 0.2798260752,
				"element": "C" 
			},
			{
				"x": -2.7790363941,
				"y": 1.8896779141,
				"z": -1.1163032041,
				"element": "C" 
			},
			{
				"x": -3.3321637387,
				"y": 2.3517900713,
				"z": 0.2155208169,
				"element": "C" 
			},
			{
				"x": -3.3349441479,
				"y": 2.4161578,
				"z": -2.2868308707,
				"element": "C" 
			},
			{
				"x": -3.8546554041,
				"y": 3.6281239072,
				"z": -4.6609853134,
				"element": "H" 
			},
			{
				"x": -2.8480080518,
				"y": 2.5623697213,
				"z": -5.6543945387,
				"element": "H" 
			},
			{
				"x": -4.4281641617,
				"y": 2.0161480932,
				"z": -5.0895163957,
				"element": "H" 
			},
			{
				"x": -1.5222947767,
				"y": 0.756768342,
				"z": -4.6052075614,
				"element": "H" 
			},
			{
				"x": -0.2769627322,
				"y": -1.331135163,
				"z": -1.9643649095,
				"element": "H" 
			},
			{
				"x": -0.1989936472,
				"y": -0.893002714,
				"z": -3.6784452433,
				"element": "H" 
			},
			{
				"x": 0.8007980131,
				"y": -0.0500295139,
				"z": -2.4934693305,
				"element": "H" 
			},
			{
				"x": -1.3083970477,
				"y": -0.7499880058,
				"z": 0.0700647627,
				"element": "H" 
			},
			{
				"x": -1.6388123282,
				"y": 0.7381988736,
				"z": 0.9320022888,
				"element": "H" 
			},
			{
				"x": 2.5240202212,
				"y": -2.4857434246,
				"z": -0.2349007922,
				"element": "H" 
			},
			{
				"x": 2.2544346417,
				"y": -2.4034591475,
				"z": 1.5191570399,
				"element": "H" 
			},
			{
				"x": 0.3094689197,
				"y": -3.8227406569,
				"z": 2.4934612084,
				"element": "H" 
			},
			{
				"x": -0.7239367661,
				"y": -6.0762103543,
				"z": 2.4438683356,
				"element": "H" 
			},
			{
				"x": -0.452172782,
				"y": -7.5248232246,
				"z": 0.4421444458,
				"element": "H" 
			},
			{
				"x": 0.852367899,
				"y": -6.7063203161,
				"z": -1.508647706,
				"element": "H" 
			},
			{
				"x": 1.8758555354,
				"y": -4.4481638703,
				"z": -1.4561428958,
				"element": "H" 
			},
			{
				"x": 3.0549826152,
				"y": 1.7796710309,
				"z": 0.0204467252,
				"element": "H" 
			},
			{
				"x": -0.8485683942,
				"y": 5.5576506638,
				"z": 0.7629883383,
				"element": "H" 
			},
			{
				"x": 0.7967013009,
				"y": 7.4474179542,
				"z": 0.7293864946,
				"element": "H" 
			},
			{
				"x": 4.0693611893,
				"y": 4.7070844371,
				"z": 0.1472695446,
				"element": "H" 
			},
			{
				"x": -4.1124321203,
				"y": 3.1028245519,
				"z": 0.0656359395,
				"element": "H" 
			},
			{
				"x": -3.7817208119,
				"y": 1.5273002792,
				"z": 0.7822679723,
				"element": "H" 
			},
			{
				"x": -2.5553201577,
				"y": 2.7966703163,
				"z": 0.8453015396,
				"element": "H" 
			},
			{
				"x": -4.135176143,
				"y": 3.1485425853,
				"z": -2.2019029645,
				"element": "H" 
			}
		],
		 "valence_orbital": [ 
			{
				"type": "occ",
				"energy": -0.25379,
				"method": "rhf"
			},
			{
				"type": "occ",
				"energy": -0.23383,
				"method": "rhf"
			},
			{
				"type": "occ",
				"energy": -0.22794,
				"method": "rhf"
			},
			{
				"type": "occ",
				"energy": -0.22152,
				"method": "rhf"
			},
			{
				"type": "occ",
				"energy": -0.21343,
				"method": "rhf"
			},
			{
				"type": "unocc",
				"energy": -0.05405,
				"method": "rhf"
			},
			{
				"type": "unocc",
				"energy": -0.01528,
				"method": "rhf"
			},
			{
				"type": "unocc",
				"energy": -0.00672,
				"method": "rhf"
			},
			{
				"type": "unocc",
				"energy": -0.00295,
				"method": "rhf"
			},
			{
				"type": "unocc",
				"energy": 0.004,
				"method": "rhf"
			}
		],
		"cosmo_sigma_profile": { 
			"-0.025": 0.0,
			"-0.024": 0.0,
			"-0.023": 0.0,
			"-0.022": 0.0,
			"-0.021": 0.0,
			"-0.02": 0.0,
			"-0.019": 0.0,
			"-0.018": 0.0,
			"-0.017": 0.0,
			"-0.016": 0.0,
			"-0.015": 0.0,
			"-0.014": 0.0,
			"-0.013": 0.0,
			"-0.012": 0.0,
			"-0.011": 0.0,
			"-0.01": 0.0,
			"-0.009": 0.0,
			"-0.008": 1.88025033148,
			"-0.007": 6.56264762166,
			"-0.006": 15.2528316482,
			"-0.005": 27.3863234066,
			"-0.004": 40.4467531166,
			"-0.003": 43.1043137324,
			"-0.002": 38.9999844424,
			"-0.001": 41.7468333719,
			"0.0": 45.5996111894,
			"0.001": 49.0546991833,
			"0.002": 43.9827264374,
			"0.003": 40.2971984648,
			"0.004": 30.7956510948,
			"0.005": 28.4670847828,
			"0.006": 15.3235562025,
			"0.007": 7.93175008713,
			"0.008": 1.03478184158,
			"0.009": 0.975109095277,
			"0.01": 0.841922401423,
			"0.011": 0.171466187603,
			"0.012": 0.0,
			"0.013": 0.0,
			"0.014": 0.0,
			"0.015": 0.0,
			"0.016": 0.0,
			"0.017": 0.0,
			"0.018": 0.0,
			"0.019": 0.0,
			"0.02": 0.0,
			"0.021": 0.0,
			"0.022": 0.0,
			"0.023": 0.0,
			"0.024": 0.0,
			"0.025": 0.0
		}
	}
}
