{
	 "smiles": "CC1=NC=C(O1)C1=CC=C(N)C=C1", 
	 "Tm": 400.15, 
	 "num_atms": 23, 
	 "gaussian": { 
		 "optdone": 1, 
		 "sigma_profile": "yes", 
		 "theory": "DFT", 
		 "functional": "B3LYP", 
		 "basiset": "6-31G**", 
		 "properties": { 
			 "R2extent": 3815.509, 
			 "electric_dipole_moment_norm": 3.52016901441, 
			 "electric_quadrupole_moment_norm": 11.5970120087, 
			 "total_energy": -571.821088672, 
			 "HOMO_LUMO_gap": 0.16686, 
			 "cosmo_polarized_energy": -12.58, 
			 "cosmo_cavitation_energy": 27.46, 
			 "cosmo_dispersion_energy": -20.39, 
			 "cosmo_repulsion_energy": 1.61, 
			 "cosmo_total_nonelectrostatic_energy": 8.68, 
			 "SMD_solvation_energy": 3.41 
		},
		"coords": [
			{
				"x": -4.3328726019,
				"y": 2.7463123325,
				"z": -2.2297194586,
				"element": "C" 
			},
			{
				"x": -3.0712296362,
				"y": 1.9600454975,
				"z": -2.1837978443,
				"element": "C" 
			},
			{
				"x": -2.1519519437,
				"y": 1.8447806313,
				"z": -3.0934341588,
				"element": "N" 
			},
			{
				"x": -1.2059404429,
				"y": 0.9987238501,
				"z": -2.532113089,
				"element": "C" 
			},
			{
				"x": -1.5980418392,
				"y": 0.6267654571,
				"z": -1.2770830507,
				"element": "C" 
			},
			{
				"x": -2.8086233332,
				"y": 1.2493511483,
				"z": -1.0479289171,
				"element": "O" 
			},
			{
				"x": -1.0491127059,
				"y": -0.2161570878,
				"z": -0.2271880547,
				"element": "C" 
			},
			{
				"x": -1.7241321499,
				"y": -0.403226615,
				"z": 0.991646077,
				"element": "C" 
			},
			{
				"x": -1.1928117541,
				"y": -1.2076587127,
				"z": 1.9919644747,
				"element": "C" 
			},
			{
				"x": 0.0391384279,
				"y": -1.8607143313,
				"z": 1.8134829225,
				"element": "C" 
			},
			{
				"x": 0.5474902138,
				"y": -2.7128426049,
				"z": 2.7919458879,
				"element": "N" 
			},
			{
				"x": 0.7178758936,
				"y": -1.6767848344,
				"z": 0.594371121,
				"element": "C" 
			},
			{
				"x": 0.1832735934,
				"y": -0.8719871518,
				"z": -0.4015295964,
				"element": "C" 
			},
			{
				"x": -4.3958878473,
				"y": 3.2524066756,
				"z": -3.1935440234,
				"element": "H" 
			},
			{
				"x": -5.2082147858,
				"y": 2.0988400049,
				"z": -2.1087350807,
				"element": "H" 
			},
			{
				"x": -4.3628982937,
				"y": 3.495201455,
				"z": -1.4307404559,
				"element": "H" 
			},
			{
				"x": -0.3130489954,
				"y": 0.7184455278,
				"z": -3.0711890727,
				"element": "H" 
			},
			{
				"x": -2.6754804559,
				"y": 0.0923838551,
				"z": 1.152887016,
				"element": "H" 
			},
			{
				"x": -1.7372441134,
				"y": -1.3382208797,
				"z": 2.9240716456,
				"element": "H" 
			},
			{
				"x": 0.2160846685,
				"y": -2.5426585252,
				"z": 3.7312887001,
				"element": "H" 
			},
			{
				"x": 1.5462751267,
				"y": -2.8633765311,
				"z": 2.7616625908,
				"element": "H" 
			},
			{
				"x": 1.6703159652,
				"y": -2.17526224,
				"z": 0.4316855235,
				"element": "H" 
			},
			{
				"x": 0.7336370093,
				"y": -0.7485669213,
				"z": -1.3297031569,
				"element": "H" 
			}
		],
		 "valence_orbital": [ 
			{
				"type": "occ",
				"energy": -0.30567,
				"method": "rhf"
			},
			{
				"type": "occ",
				"energy": -0.27375,
				"method": "rhf"
			},
			{
				"type": "occ",
				"energy": -0.25142,
				"method": "rhf"
			},
			{
				"type": "occ",
				"energy": -0.2463,
				"method": "rhf"
			},
			{
				"type": "occ",
				"energy": -0.18649,
				"method": "rhf"
			},
			{
				"type": "unocc",
				"energy": -0.01963,
				"method": "rhf"
			},
			{
				"type": "unocc",
				"energy": -0.00061,
				"method": "rhf"
			},
			{
				"type": "unocc",
				"energy": 0.04041,
				"method": "rhf"
			},
			{
				"type": "unocc",
				"energy": 0.07477,
				"method": "rhf"
			},
			{
				"type": "unocc",
				"energy": 0.0939,
				"method": "rhf"
			}
		],
		"cosmo_sigma_profile": { 
			"-0.025": 0.0,
			"-0.024": 0.0,
			"-0.023": 0.0,
			"-0.022": 0.0,
			"-0.021": 0.0,
			"-0.02": 0.0,
			"-0.019": 0.0,
			"-0.018": 0.0,
			"-0.017": 0.0,
			"-0.016": 0.0,
			"-0.015": 0.0,
			"-0.014": 0.0,
			"-0.013": 0.737675197009,
			"-0.012": 2.63438610842,
			"-0.011": 2.84316092019,
			"-0.01": 2.88955163049,
			"-0.009": 2.99391035181,
			"-0.008": 4.49398998809,
			"-0.007": 5.7955197202,
			"-0.006": 11.7750534526,
			"-0.005": 15.0476702654,
			"-0.004": 13.8420135737,
			"-0.003": 14.210742036,
			"-0.002": 15.6340413706,
			"-0.001": 14.3902664782,
			"0.0": 10.5325043825,
			"0.001": 11.1328327712,
			"0.002": 14.7685750563,
			"0.003": 15.5788375732,
			"0.004": 14.5499549164,
			"0.005": 15.5094357025,
			"0.006": 11.7563104364,
			"0.007": 2.62351618901,
			"0.008": 2.28534112062,
			"0.009": 1.67064189125,
			"0.01": 1.71401535197,
			"0.011": 2.32291987337,
			"0.012": 1.75965481428,
			"0.013": 1.45947156813,
			"0.014": 1.74855486438,
			"0.015": 0.837089798182,
			"0.016": 1.14734614405,
			"0.017": 0.389757029733,
			"0.018": 0.0,
			"0.019": 0.0,
			"0.02": 0.0,
			"0.021": 0.0,
			"0.022": 0.0,
			"0.023": 0.0,
			"0.024": 0.0,
			"0.025": 0.0
		}
	}
}
