{
	 "smiles": "OC(=O)C1=C(CC2=CC=CC=C2)C=CC=C1", 
	 "Tm": 391.15, 
	 "num_atms": 28, 
	 "gaussian": { 
		 "optdone": 1, 
		 "sigma_profile": "yes", 
		 "theory": "DFT", 
		 "functional": "B3LYP", 
		 "basiset": "6-31G**", 
		 "properties": { 
			 "R2extent": 4588.9545, 
			 "electric_dipole_moment_norm": 4.37431098231, 
			 "electric_quadrupole_moment_norm": 16.3022630368, 
			 "total_energy": -691.184258745, 
			 "HOMO_LUMO_gap": 0.18806, 
			 "cosmo_polarized_energy": -14.08, 
			 "cosmo_cavitation_energy": 31.68, 
			 "cosmo_dispersion_energy": -22.68, 
			 "cosmo_repulsion_energy": 1.75, 
			 "cosmo_total_nonelectrostatic_energy": 10.76, 
			 "SMD_solvation_energy": 6.06 
		},
		"coords": [
			{
				"x": 1.757891225,
				"y": -3.7959229671,
				"z": -1.0265621093,
				"element": "O" 
			},
			{
				"x": 1.21246502,
				"y": -2.6444058022,
				"z": -0.5477467377,
				"element": "C" 
			},
			{
				"x": 1.412201066,
				"y": -1.6053067879,
				"z": -1.1358759087,
				"element": "O" 
			},
			{
				"x": 0.4197991253,
				"y": -2.783525398,
				"z": 0.7195143541,
				"element": "C" 
			},
			{
				"x": -0.7586280385,
				"y": -2.0416912816,
				"z": 0.9493248509,
				"element": "C" 
			},
			{
				"x": -1.3750148866,
				"y": -1.0865281711,
				"z": -0.066174658,
				"element": "C" 
			},
			{
				"x": -1.285831774,
				"y": 0.3721990706,
				"z": 0.3598500229,
				"element": "C" 
			},
			{
				"x": -2.4223258885,
				"y": 1.0612554688,
				"z": 0.7994069288,
				"element": "C" 
			},
			{
				"x": -2.339240734,
				"y": 2.3969310915,
				"z": 1.2009335712,
				"element": "C" 
			},
			{
				"x": -1.1132243629,
				"y": 3.060772713,
				"z": 1.1658742296,
				"element": "C" 
			},
			{
				"x": 0.0258041304,
				"y": 2.3823516045,
				"z": 0.7233696378,
				"element": "C" 
			},
			{
				"x": -0.0575569046,
				"y": 1.0491062646,
				"z": 0.3238048882,
				"element": "C" 
			},
			{
				"x": -1.4147470773,
				"y": -2.2213766945,
				"z": 2.1757856438,
				"element": "C" 
			},
			{
				"x": -0.9269761776,
				"y": -3.0827289726,
				"z": 3.154880757,
				"element": "C" 
			},
			{
				"x": 0.246461207,
				"y": -3.8037371592,
				"z": 2.9262976256,
				"element": "C" 
			},
			{
				"x": 0.9058113662,
				"y": -3.6570645678,
				"z": 1.7109894991,
				"element": "C" 
			},
			{
				"x": 1.4037624772,
				"y": -4.5508706553,
				"z": -0.5353100986,
				"element": "H" 
			},
			{
				"x": -0.8966333112,
				"y": -1.2103111663,
				"z": -1.0381661539,
				"element": "H" 
			},
			{
				"x": -2.4313562244,
				"y": -1.3551049589,
				"z": -0.1834473929,
				"element": "H" 
			},
			{
				"x": -3.3839141074,
				"y": 0.5528381805,
				"z": 0.8188420067,
				"element": "H" 
			},
			{
				"x": -3.232775922,
				"y": 2.9166131017,
				"z": 1.5359924185,
				"element": "H" 
			},
			{
				"x": -1.0452559226,
				"y": 4.0999014374,
				"z": 1.47541088,
				"element": "H" 
			},
			{
				"x": 0.9829557841,
				"y": 2.8954189744,
				"z": 0.6857780561,
				"element": "H" 
			},
			{
				"x": 0.8229773723,
				"y": 0.5219452256,
				"z": -0.030781316,
				"element": "H" 
			},
			{
				"x": -2.3267856174,
				"y": -1.6610430879,
				"z": 2.3624460313,
				"element": "H" 
			},
			{
				"x": -1.4596114107,
				"y": -3.1891768685,
				"z": 4.0954682272,
				"element": "H" 
			},
			{
				"x": 0.6451035828,
				"y": -4.4681187455,
				"z": 3.6866903893,
				"element": "H" 
			},
			{
				"x": 1.8363460036,
				"y": -4.1931198482,
				"z": 1.541904357,
				"element": "H" 
			}
		],
		 "valence_orbital": [ 
			{
				"type": "occ",
				"energy": -0.28052,
				"method": "rhf"
			},
			{
				"type": "occ",
				"energy": -0.26724,
				"method": "rhf"
			},
			{
				"type": "occ",
				"energy": -0.25908,
				"method": "rhf"
			},
			{
				"type": "occ",
				"energy": -0.2421,
				"method": "rhf"
			},
			{
				"type": "occ",
				"energy": -0.23413,
				"method": "rhf"
			},
			{
				"type": "unocc",
				"energy": -0.04607,
				"method": "rhf"
			},
			{
				"type": "unocc",
				"energy": -0.02409,
				"method": "rhf"
			},
			{
				"type": "unocc",
				"energy": 0.0046,
				"method": "rhf"
			},
			{
				"type": "unocc",
				"energy": 0.0095,
				"method": "rhf"
			},
			{
				"type": "unocc",
				"energy": 0.03563,
				"method": "rhf"
			}
		],
		"cosmo_sigma_profile": { 
			"-0.025": 0.0,
			"-0.024": 0.0,
			"-0.023": 0.0,
			"-0.022": 0.0,
			"-0.021": 0.0,
			"-0.02": 0.0,
			"-0.019": 0.0691458418393,
			"-0.018": 0.623197390447,
			"-0.017": 0.712133750107,
			"-0.016": 0.817706124061,
			"-0.015": 1.2349402338,
			"-0.014": 1.04992281819,
			"-0.013": 0.590687581113,
			"-0.012": 1.1257335097,
			"-0.011": 1.00236508008,
			"-0.01": 1.1357139806,
			"-0.009": 0.884076949445,
			"-0.008": 1.82176824152,
			"-0.007": 3.17581998306,
			"-0.006": 11.0307313262,
			"-0.005": 23.0169816761,
			"-0.004": 20.530279623,
			"-0.003": 20.4521275989,
			"-0.002": 17.0850446648,
			"-0.001": 15.453194889,
			"0.0": 14.1353508243,
			"0.001": 15.3096731223,
			"0.002": 15.6806615992,
			"0.003": 20.6416963262,
			"0.004": 19.9983822362,
			"0.005": 11.4301147804,
			"0.006": 11.697028865,
			"0.007": 5.34490566486,
			"0.008": 2.45877484997,
			"0.009": 3.47285163925,
			"0.01": 4.29090621443,
			"0.011": 3.6068178816,
			"0.012": 2.50421700153,
			"0.013": 1.07707122375,
			"0.014": 0.0,
			"0.015": 0.0,
			"0.016": 0.0,
			"0.017": 0.0,
			"0.018": 0.0,
			"0.019": 0.0,
			"0.02": 0.0,
			"0.021": 0.0,
			"0.022": 0.0,
			"0.023": 0.0,
			"0.024": 0.0,
			"0.025": 0.0
		}
	}
}
