{
	 "smiles": "CCC[C@@H]1CCC[C@@H]1C", 
	 "Tm": 169.15, 
	 "num_atms": 27, 
	 "gaussian": { 
		 "optdone": 1, 
		 "sigma_profile": "yes", 
		 "theory": "DFT", 
		 "functional": "B3LYP", 
		 "basiset": "6-31G**", 
		 "properties": { 
			 "R2extent": 1627.8669, 
			 "electric_dipole_moment_norm": 0.0734787043979, 
			 "electric_quadrupole_moment_norm": 0.774169380691, 
			 "total_energy": -353.824387802, 
			 "HOMO_LUMO_gap": 0.36292, 
			 "cosmo_polarized_energy": -0.64, 
			 "cosmo_cavitation_energy": 25.97, 
			 "cosmo_dispersion_energy": -19.0, 
			 "cosmo_repulsion_energy": 1.56, 
			 "cosmo_total_nonelectrostatic_energy": 8.53, 
			 "SMD_solvation_energy": 3.74 
		},
		"coords": [
			{
				"x": 1.9014713105,
				"y": -1.9194734585,
				"z": -2.8267614569,
				"element": "C" 
			},
			{
				"x": 0.8138270066,
				"y": -1.4579643695,
				"z": -1.8497191563,
				"element": "C" 
			},
			{
				"x": 1.4080645804,
				"y": -0.898464703,
				"z": -0.5462003346,
				"element": "C" 
			},
			{
				"x": 0.4384083836,
				"y": -0.3306717266,
				"z": 0.5147081329,
				"element": "C" 
			},
			{
				"x": -0.8878618983,
				"y": -1.092885482,
				"z": 0.7336981541,
				"element": "C" 
			},
			{
				"x": -1.7866269696,
				"y": -0.1196322007,
				"z": 1.5454518964,
				"element": "C" 
			},
			{
				"x": -1.0694646141,
				"y": 1.2607407907,
				"z": 1.5011481042,
				"element": "C" 
			},
			{
				"x": -0.0079405921,
				"y": 1.1521368196,
				"z": 0.3810382838,
				"element": "C" 
			},
			{
				"x": -0.5738252966,
				"y": 1.554332373,
				"z": -0.9888730196,
				"element": "C" 
			},
			{
				"x": 2.5521250108,
				"y": -1.0870110191,
				"z": -3.1188917697,
				"element": "H" 
			},
			{
				"x": 2.5377466783,
				"y": -2.6904941558,
				"z": -2.3767284576,
				"element": "H" 
			},
			{
				"x": 1.467778993,
				"y": -2.3387895252,
				"z": -3.7406640576,
				"element": "H" 
			},
			{
				"x": 0.1576833274,
				"y": -2.3062993613,
				"z": -1.6189479661,
				"element": "H" 
			},
			{
				"x": 0.1815495122,
				"y": -0.7105110099,
				"z": -2.3408841761,
				"element": "H" 
			},
			{
				"x": 2.1433550961,
				"y": -0.1193319782,
				"z": -0.7949464839,
				"element": "H" 
			},
			{
				"x": 1.9898815211,
				"y": -1.706208421,
				"z": -0.0805064689,
				"element": "H" 
			},
			{
				"x": 0.9827036158,
				"y": -0.3696987519,
				"z": 1.4703655238,
				"element": "H" 
			},
			{
				"x": -1.3582898893,
				"y": -1.3249270646,
				"z": -0.2272580912,
				"element": "H" 
			},
			{
				"x": -0.7329552995,
				"y": -2.0498289356,
				"z": 1.2435515417,
				"element": "H" 
			},
			{
				"x": -1.9152135557,
				"y": -0.4576317446,
				"z": 2.5785647249,
				"element": "H" 
			},
			{
				"x": -2.7903924508,
				"y": -0.0630835103,
				"z": 1.1124009806,
				"element": "H" 
			},
			{
				"x": -0.5697888365,
				"y": 1.4503005256,
				"z": 2.458136457,
				"element": "H" 
			},
			{
				"x": -1.7646136807,
				"y": 2.0912626159,
				"z": 1.3384817696,
				"element": "H" 
			},
			{
				"x": 0.8430628449,
				"y": 1.8120342112,
				"z": 0.5956313157,
				"element": "H" 
			},
			{
				"x": -1.4274124443,
				"y": 0.9334497704,
				"z": -1.2830485198,
				"element": "H" 
			},
			{
				"x": -0.9206413515,
				"y": 2.593525056,
				"z": -0.9633797172,
				"element": "H" 
			},
			{
				"x": 0.1809689985,
				"y": 1.4815252552,
				"z": -1.7781672091,
				"element": "H" 
			}
		],
		 "valence_orbital": [ 
			{
				"type": "occ",
				"energy": -0.31361,
				"method": "rhf"
			},
			{
				"type": "occ",
				"energy": -0.31108,
				"method": "rhf"
			},
			{
				"type": "occ",
				"energy": -0.3033,
				"method": "rhf"
			},
			{
				"type": "occ",
				"energy": -0.29578,
				"method": "rhf"
			},
			{
				"type": "occ",
				"energy": -0.28833,
				"method": "rhf"
			},
			{
				"type": "unocc",
				"energy": 0.07459,
				"method": "rhf"
			},
			{
				"type": "unocc",
				"energy": 0.09812,
				"method": "rhf"
			},
			{
				"type": "unocc",
				"energy": 0.10202,
				"method": "rhf"
			},
			{
				"type": "unocc",
				"energy": 0.12674,
				"method": "rhf"
			},
			{
				"type": "unocc",
				"energy": 0.13145,
				"method": "rhf"
			}
		],
		"cosmo_sigma_profile": { 
			"-0.025": 0.0,
			"-0.024": 0.0,
			"-0.023": 0.0,
			"-0.022": 0.0,
			"-0.021": 0.0,
			"-0.02": 0.0,
			"-0.019": 0.0,
			"-0.018": 0.0,
			"-0.017": 0.0,
			"-0.016": 0.0,
			"-0.015": 0.0,
			"-0.014": 0.0,
			"-0.013": 0.0,
			"-0.012": 0.0,
			"-0.011": 0.0,
			"-0.01": 0.0,
			"-0.009": 0.0,
			"-0.008": 0.0,
			"-0.007": 0.0,
			"-0.006": 0.0,
			"-0.005": 0.0,
			"-0.004": 0.0,
			"-0.003": 1.87470323925,
			"-0.002": 23.7343948346,
			"-0.001": 47.893216557,
			"0.0": 54.0252980954,
			"0.001": 42.0702870055,
			"0.002": 26.246467763,
			"0.003": 2.58278975932,
			"0.004": 0.0,
			"0.005": 0.0,
			"0.006": 0.0,
			"0.007": 0.0,
			"0.008": 0.0,
			"0.009": 0.0,
			"0.01": 0.0,
			"0.011": 0.0,
			"0.012": 0.0,
			"0.013": 0.0,
			"0.014": 0.0,
			"0.015": 0.0,
			"0.016": 0.0,
			"0.017": 0.0,
			"0.018": 0.0,
			"0.019": 0.0,
			"0.02": 0.0,
			"0.021": 0.0,
			"0.022": 0.0,
			"0.023": 0.0,
			"0.024": 0.0,
			"0.025": 0.0
		}
	}
}
