{
	 "smiles": "CC1=C(O)C(Cl)=CC(Br)=C1", 
	 "Tm": 319.15, 
	 "num_atms": 16, 
	 "gaussian": { 
		 "optdone": 1, 
		 "sigma_profile": "yes", 
		 "theory": "DFT", 
		 "functional": "B3LYP", 
		 "basiset": "6-31G**", 
		 "properties": { 
			 "R2extent": 4379.4696, 
			 "electric_dipole_moment_norm": 3.56982905753, 
			 "electric_quadrupole_moment_norm": 3.78716842245, 
			 "total_energy": -3377.18081533, 
			 "HOMO_LUMO_gap": 0.20448, 
			 "cosmo_polarized_energy": -9.35, 
			 "cosmo_cavitation_energy": 24.0, 
			 "cosmo_dispersion_energy": -18.43, 
			 "cosmo_repulsion_energy": 1.5, 
			 "cosmo_total_nonelectrostatic_energy": 7.06, 
			 "SMD_solvation_energy": 2.99 
		},
		"coords": [
			{
				"x": -1.6351536937,
				"y": -0.7586127743,
				"z": 0.7784336158,
				"element": "C" 
			},
			{
				"x": -0.8770056219,
				"y": 0.0855168181,
				"z": -0.2192433134,
				"element": "C" 
			},
			{
				"x": 0.4718415888,
				"y": 0.4104732297,
				"z": 0.0221422253,
				"element": "C" 
			},
			{
				"x": 1.1382289629,
				"y": -0.0068481208,
				"z": 1.1315909283,
				"element": "O" 
			},
			{
				"x": 1.1704096204,
				"y": 1.194572896,
				"z": -0.9080237323,
				"element": "C" 
			},
			{
				"x": 2.844839137,
				"y": 1.597148542,
				"z": -0.6069907348,
				"element": "Cl" 
			},
			{
				"x": 0.5526960664,
				"y": 1.65797096,
				"z": -2.0675201165,
				"element": "C" 
			},
			{
				"x": -0.7802592343,
				"y": 1.3296186912,
				"z": -2.2936152758,
				"element": "C" 
			},
			{
				"x": -1.6439233097,
				"y": 1.9566270383,
				"z": -3.8786348242,
				"element": "Br" 
			},
			{
				"x": -1.4918068985,
				"y": 0.5527953607,
				"z": -1.3836552575,
				"element": "C" 
			},
			{
				"x": -1.6859506398,
				"y": -0.2806015809,
				"z": 1.7660529367,
				"element": "H" 
			},
			{
				"x": -1.1780854146,
				"y": -1.7487175334,
				"z": 0.9097986269,
				"element": "H" 
			},
			{
				"x": -2.6630711746,
				"y": -0.9213374762,
				"z": 0.4477756529,
				"element": "H" 
			},
			{
				"x": 0.5468558078,
				"y": -0.5333497904,
				"z": 1.683658309,
				"element": "H" 
			},
			{
				"x": 1.1098840522,
				"y": 2.261836771,
				"z": -2.7724625149,
				"element": "H" 
			},
			{
				"x": -2.5300992482,
				"y": 0.3071069691,
				"z": -1.5770065256,
				"element": "H" 
			}
		],
		 "valence_orbital": [ 
			{
				"type": "occ",
				"energy": -0.31194,
				"method": "rhf"
			},
			{
				"type": "occ",
				"energy": -0.29435,
				"method": "rhf"
			},
			{
				"type": "occ",
				"energy": -0.28918,
				"method": "rhf"
			},
			{
				"type": "occ",
				"energy": -0.25579,
				"method": "rhf"
			},
			{
				"type": "occ",
				"energy": -0.22636,
				"method": "rhf"
			},
			{
				"type": "unocc",
				"energy": -0.02188,
				"method": "rhf"
			},
			{
				"type": "unocc",
				"energy": -0.00977,
				"method": "rhf"
			},
			{
				"type": "unocc",
				"energy": -0.0039,
				"method": "rhf"
			},
			{
				"type": "unocc",
				"energy": 0.04019,
				"method": "rhf"
			},
			{
				"type": "unocc",
				"energy": 0.05661,
				"method": "rhf"
			}
		],
		"cosmo_sigma_profile": { 
			"-0.025": 0.0,
			"-0.024": 0.0,
			"-0.023": 0.0,
			"-0.022": 0.0,
			"-0.021": 0.0,
			"-0.02": 0.0,
			"-0.019": 0.0,
			"-0.018": 0.0186961555396,
			"-0.017": 0.494105150057,
			"-0.016": 0.889936962994,
			"-0.015": 1.00963583773,
			"-0.014": 0.748142974781,
			"-0.013": 0.758160611611,
			"-0.012": 1.10233745869,
			"-0.011": 1.8891537087,
			"-0.01": 1.19576934042,
			"-0.009": 1.3627834222,
			"-0.008": 2.64021555144,
			"-0.007": 5.06481965021,
			"-0.006": 7.74810065726,
			"-0.005": 7.83192485394,
			"-0.004": 9.24850788903,
			"-0.003": 10.1928214273,
			"-0.002": 12.5857481824,
			"-0.001": 14.5015345293,
			"0.0": 11.9023350555,
			"0.001": 18.3277502254,
			"0.002": 24.8084755866,
			"0.003": 19.3923185728,
			"0.004": 19.1973280794,
			"0.005": 12.8085269279,
			"0.006": 2.46478288899,
			"0.007": 1.82989600848,
			"0.008": 1.51153820457,
			"0.009": 2.30524070755,
			"0.01": 2.28625679881,
			"0.011": 1.06216065346,
			"0.012": 0.0,
			"0.013": 0.0,
			"0.014": 0.0,
			"0.015": 0.0,
			"0.016": 0.0,
			"0.017": 0.0,
			"0.018": 0.0,
			"0.019": 0.0,
			"0.02": 0.0,
			"0.021": 0.0,
			"0.022": 0.0,
			"0.023": 0.0,
			"0.024": 0.0,
			"0.025": 0.0
		}
	}
}
