{
	 "smiles": "CC1=CC=CC(=C1[N+]([O-])=O)[N+]([O-])=O", 
	 "Tm": 333.15, 
	 "num_atms": 19, 
	 "gaussian": { 
		 "optdone": 1, 
		 "sigma_profile": "yes", 
		 "theory": "DFT", 
		 "functional": "B3LYP", 
		 "basiset": "6-31G**", 
		 "properties": { 
			 "R2extent": 2865.1918, 
			 "electric_dipole_moment_norm": 6.55630056968, 
			 "electric_quadrupole_moment_norm": 10.5321225017, 
			 "total_energy": -680.543297592, 
			 "HOMO_LUMO_gap": 0.17576, 
			 "cosmo_polarized_energy": -12.28, 
			 "cosmo_cavitation_energy": 24.75, 
			 "cosmo_dispersion_energy": -17.61, 
			 "cosmo_repulsion_energy": 1.37, 
			 "cosmo_total_nonelectrostatic_energy": 8.52, 
			 "SMD_solvation_energy": 8.93 
		},
		"coords": [
			{
				"x": 1.4312958533,
				"y": -1.2137197864,
				"z": 0.7857724727,
				"element": "C" 
			},
			{
				"x": 0.630318105,
				"y": 0.0340275773,
				"z": 0.5049030747,
				"element": "C" 
			},
			{
				"x": -0.2797335805,
				"y": 0.5446369742,
				"z": 1.4389569352,
				"element": "C" 
			},
			{
				"x": -1.0199677703,
				"y": 1.6998922703,
				"z": 1.1870191229,
				"element": "C" 
			},
			{
				"x": -0.8658393375,
				"y": 2.378200634,
				"z": -0.0167658915,
				"element": "C" 
			},
			{
				"x": 0.0332277417,
				"y": 1.8872325349,
				"z": -0.9613480235,
				"element": "C" 
			},
			{
				"x": 0.7709624635,
				"y": 0.7291214498,
				"z": -0.7037392141,
				"element": "C" 
			},
			{
				"x": 1.7668718152,
				"y": 0.1883472801,
				"z": -1.6575667898,
				"element": "N" 
			},
			{
				"x": 1.4143115903,
				"y": -0.7701070908,
				"z": -2.3323867605,
				"element": "O" 
			},
			{
				"x": 2.8842918104,
				"y": 0.6868587782,
				"z": -1.6215533565,
				"element": "O" 
			},
			{
				"x": 0.1558025485,
				"y": 2.6134029347,
				"z": -2.2375915542,
				"element": "N" 
			},
			{
				"x": -0.4066434054,
				"y": 3.7023619544,
				"z": -2.3225990386,
				"element": "O" 
			},
			{
				"x": 0.8021694563,
				"y": 2.0779971269,
				"z": -3.1339519284,
				"element": "O" 
			},
			{
				"x": 1.2447878865,
				"y": -1.5700364597,
				"z": 1.8005145531,
				"element": "H" 
			},
			{
				"x": 2.5046350744,
				"y": -1.0245952742,
				"z": 0.6805463662,
				"element": "H" 
			},
			{
				"x": 1.1710375101,
				"y": -2.0115132499,
				"z": 0.0833713837,
				"element": "H" 
			},
			{
				"x": -0.4033627814,
				"y": 0.0211145892,
				"z": 2.3823684262,
				"element": "H" 
			},
			{
				"x": -1.7187500666,
				"y": 2.071060574,
				"z": 1.9293192689,
				"element": "H" 
			},
			{
				"x": -1.4216149136,
				"y": 3.277117183,
				"z": -0.2504690467,
				"element": "H" 
			}
		],
		 "valence_orbital": [ 
			{
				"type": "occ",
				"energy": -0.31717,
				"method": "rhf"
			},
			{
				"type": "occ",
				"energy": -0.31456,
				"method": "rhf"
			},
			{
				"type": "occ",
				"energy": -0.30829,
				"method": "rhf"
			},
			{
				"type": "occ",
				"energy": -0.29622,
				"method": "rhf"
			},
			{
				"type": "occ",
				"energy": -0.28134,
				"method": "rhf"
			},
			{
				"type": "unocc",
				"energy": -0.10558,
				"method": "rhf"
			},
			{
				"type": "unocc",
				"energy": -0.08086,
				"method": "rhf"
			},
			{
				"type": "unocc",
				"energy": -0.04838,
				"method": "rhf"
			},
			{
				"type": "unocc",
				"energy": -0.01837,
				"method": "rhf"
			},
			{
				"type": "unocc",
				"energy": 0.0555,
				"method": "rhf"
			}
		],
		"cosmo_sigma_profile": { 
			"-0.025": 0.0,
			"-0.024": 0.0,
			"-0.023": 0.0,
			"-0.022": 0.0,
			"-0.021": 0.0,
			"-0.02": 0.0,
			"-0.019": 0.0,
			"-0.018": 0.0,
			"-0.017": 0.0,
			"-0.016": 0.0,
			"-0.015": 0.0,
			"-0.014": 0.0,
			"-0.013": 0.0,
			"-0.012": 0.0,
			"-0.011": 0.0,
			"-0.01": 0.0,
			"-0.009": 0.857087009659,
			"-0.008": 8.35584088164,
			"-0.007": 10.2118956653,
			"-0.006": 10.330702287,
			"-0.005": 12.1968282671,
			"-0.004": 14.5264506281,
			"-0.003": 12.9968988567,
			"-0.002": 20.2326077472,
			"-0.001": 17.8456415369,
			"0.0": 11.9112360778,
			"0.001": 8.60608950939,
			"0.002": 4.49584481611,
			"0.003": 4.5851395439,
			"0.004": 6.68009360478,
			"0.005": 9.52262029919,
			"0.006": 15.575836495,
			"0.007": 15.9575340689,
			"0.008": 9.32038256693,
			"0.009": 3.97280647559,
			"0.01": 0.198589016921,
			"0.011": 0.0,
			"0.012": 0.0,
			"0.013": 0.0,
			"0.014": 0.0,
			"0.015": 0.0,
			"0.016": 0.0,
			"0.017": 0.0,
			"0.018": 0.0,
			"0.019": 0.0,
			"0.02": 0.0,
			"0.021": 0.0,
			"0.022": 0.0,
			"0.023": 0.0,
			"0.024": 0.0,
			"0.025": 0.0
		}
	}
}
