{
	 "smiles": "O=C1CCC2=C(N1)C=C1NCCCC1=C2", 
	 "Tm": 508.15, 
	 "num_atms": 29, 
	 "gaussian": { 
		 "optdone": 1, 
		 "sigma_profile": "yes", 
		 "theory": "DFT", 
		 "functional": "B3LYP", 
		 "basiset": "6-31G**", 
		 "properties": { 
			 "R2extent": 4747.7081, 
			 "electric_dipole_moment_norm": 4.66894476622, 
			 "electric_quadrupole_moment_norm": 24.7265482429, 
			 "total_energy": -650.48352067, 
			 "HOMO_LUMO_gap": 0.18453, 
			 "cosmo_polarized_energy": -13.43, 
			 "cosmo_cavitation_energy": 30.38, 
			 "cosmo_dispersion_energy": -23.12, 
			 "cosmo_repulsion_energy": 1.8, 
			 "cosmo_total_nonelectrostatic_energy": 9.07, 
			 "SMD_solvation_energy": 3.72 
		},
		"coords": [
			{
				"x": -1.3544418707,
				"y": 5.2249201479,
				"z": 2.8693712778,
				"element": "O" 
			},
			{
				"x": -1.4350796545,
				"y": 4.0972792335,
				"z": 2.4064595062,
				"element": "C" 
			},
			{
				"x": -2.3284065851,
				"y": 3.0037961518,
				"z": 2.9757453356,
				"element": "C" 
			},
			{
				"x": -2.8507158386,
				"y": 2.044325016,
				"z": 1.8955787763,
				"element": "C" 
			},
			{
				"x": -1.7187129731,
				"y": 1.5442958991,
				"z": 1.0290335951,
				"element": "C" 
			},
			{
				"x": -0.6569530408,
				"y": 2.4227966128,
				"z": 0.7493558577,
				"element": "C" 
			},
			{
				"x": -0.6697107187,
				"y": 3.7070026014,
				"z": 1.3254263177,
				"element": "N" 
			},
			{
				"x": 0.3869791281,
				"y": 2.0379726176,
				"z": -0.0896962158,
				"element": "C" 
			},
			{
				"x": 0.3990802625,
				"y": 0.7618516644,
				"z": -0.6778419152,
				"element": "C" 
			},
			{
				"x": 1.477758923,
				"y": 0.3780693741,
				"z": -1.4730725482,
				"element": "N" 
			},
			{
				"x": 1.3623010583,
				"y": -0.7958309944,
				"z": -2.3278699772,
				"element": "C" 
			},
			{
				"x": 0.7244339767,
				"y": -1.9360836913,
				"z": -1.5316710058,
				"element": "C" 
			},
			{
				"x": -0.6680327122,
				"y": -1.5183610437,
				"z": -1.0382009637,
				"element": "C" 
			},
			{
				"x": -0.6532998407,
				"y": -0.1399036049,
				"z": -0.4030247426,
				"element": "C" 
			},
			{
				"x": -1.6782760621,
				"y": 0.2776995986,
				"z": 0.4498124281,
				"element": "C" 
			},
			{
				"x": -3.1352972217,
				"y": 3.4934185103,
				"z": 3.5250030579,
				"element": "H" 
			},
			{
				"x": -1.7245443731,
				"y": 2.4481589933,
				"z": 3.7065857056,
				"element": "H" 
			},
			{
				"x": -3.5888291759,
				"y": 2.5757507196,
				"z": 1.2759216213,
				"element": "H" 
			},
			{
				"x": -3.3828947913,
				"y": 1.2065604646,
				"z": 2.3581790855,
				"element": "H" 
			},
			{
				"x": -0.0052334097,
				"y": 4.3994738116,
				"z": 1.0048414481,
				"element": "H" 
			},
			{
				"x": 1.2106826203,
				"y": 2.7236351146,
				"z": -0.2779782048,
				"element": "H" 
			},
			{
				"x": 2.0103433803,
				"y": 1.1439546056,
				"z": -1.8609074557,
				"element": "H" 
			},
			{
				"x": 2.3663002926,
				"y": -1.0743498147,
				"z": -2.6653805637,
				"element": "H" 
			},
			{
				"x": 0.7562973921,
				"y": -0.5965463148,
				"z": -3.2293751487,
				"element": "H" 
			},
			{
				"x": 1.3708529332,
				"y": -2.1715808971,
				"z": -0.6783704565,
				"element": "H" 
			},
			{
				"x": 0.6590241796,
				"y": -2.8340510163,
				"z": -2.1549827533,
				"element": "H" 
			},
			{
				"x": -1.0523436469,
				"y": -2.2557198002,
				"z": -0.3234732865,
				"element": "H" 
			},
			{
				"x": -1.3667733523,
				"y": -1.5284794149,
				"z": -1.8877266162,
				"element": "H" 
			},
			{
				"x": -2.4899088794,
				"y": -0.4168545445,
				"z": 0.661757841,
				"element": "H" 
			}
		],
		 "valence_orbital": [ 
			{
				"type": "occ",
				"energy": -0.30481,
				"method": "rhf"
			},
			{
				"type": "occ",
				"energy": -0.27177,
				"method": "rhf"
			},
			{
				"type": "occ",
				"energy": -0.24391,
				"method": "rhf"
			},
			{
				"type": "occ",
				"energy": -0.21603,
				"method": "rhf"
			},
			{
				"type": "occ",
				"energy": -0.18691,
				"method": "rhf"
			},
			{
				"type": "unocc",
				"energy": -0.00238,
				"method": "rhf"
			},
			{
				"type": "unocc",
				"energy": 0.00884,
				"method": "rhf"
			},
			{
				"type": "unocc",
				"energy": 0.04714,
				"method": "rhf"
			},
			{
				"type": "unocc",
				"energy": 0.07997,
				"method": "rhf"
			},
			{
				"type": "unocc",
				"energy": 0.09384,
				"method": "rhf"
			}
		],
		"cosmo_sigma_profile": { 
			"-0.025": 0.0,
			"-0.024": 0.0,
			"-0.023": 0.0,
			"-0.022": 0.0,
			"-0.021": 0.0,
			"-0.02": 0.0,
			"-0.019": 0.0,
			"-0.018": 0.0,
			"-0.017": 0.0,
			"-0.016": 0.0,
			"-0.015": 0.0564278025067,
			"-0.014": 0.833353511658,
			"-0.013": 1.07506485851,
			"-0.012": 2.43464476537,
			"-0.011": 2.2051002495,
			"-0.01": 2.49795888556,
			"-0.009": 2.35819966814,
			"-0.008": 2.75140123504,
			"-0.007": 2.96877581244,
			"-0.006": 4.59722723447,
			"-0.005": 8.13608440192,
			"-0.004": 18.1198380681,
			"-0.003": 29.173362308,
			"-0.002": 31.635738392,
			"-0.001": 27.2812045683,
			"0.0": 20.2792054553,
			"0.001": 11.0773121253,
			"0.002": 8.64710025099,
			"0.003": 8.34147606782,
			"0.004": 8.44542821562,
			"0.005": 7.28790603292,
			"0.006": 8.62785696462,
			"0.007": 8.06441652693,
			"0.008": 3.21875613411,
			"0.009": 0.876362155408,
			"0.01": 1.53429284081,
			"0.011": 2.43172547262,
			"0.012": 3.28817724717,
			"0.013": 4.41363897019,
			"0.014": 4.67706868469,
			"0.015": 0.929983250833,
			"0.016": 0.0,
			"0.017": 0.0,
			"0.018": 0.0,
			"0.019": 0.0,
			"0.02": 0.0,
			"0.021": 0.0,
			"0.022": 0.0,
			"0.023": 0.0,
			"0.024": 0.0,
			"0.025": 0.0
		}
	}
}
