{
	 "smiles": "COC(=O)C1=CC=C(C)C=C1", 
	 "Tm": 308.25, 
	 "num_atms": 21, 
	 "gaussian": { 
		 "optdone": 1, 
		 "sigma_profile": "yes", 
		 "theory": "DFT", 
		 "functional": "B3LYP", 
		 "basiset": "6-31G**", 
		 "properties": { 
			 "R2extent": 2829.6942, 
			 "electric_dipole_moment_norm": 2.14618412537, 
			 "electric_quadrupole_moment_norm": 8.49216081807, 
			 "total_energy": -499.452295803, 
			 "HOMO_LUMO_gap": 0.20704, 
			 "cosmo_polarized_energy": -7.34, 
			 "cosmo_cavitation_energy": 25.07, 
			 "cosmo_dispersion_energy": -18.42, 
			 "cosmo_repulsion_energy": 1.48, 
			 "cosmo_total_nonelectrostatic_energy": 8.13, 
			 "SMD_solvation_energy": 6.01 
		},
		"coords": [
			{
				"x": 2.2660048334,
				"y": 1.6286056179,
				"z": 3.1737131591,
				"element": "C" 
			},
			{
				"x": 0.969277342,
				"y": 1.2405367768,
				"z": 2.6985301144,
				"element": "O" 
			},
			{
				"x": 0.9718305625,
				"y": 0.3013228983,
				"z": 1.7219081041,
				"element": "C" 
			},
			{
				"x": 1.9944620993,
				"y": -0.18270539,
				"z": 1.2751070943,
				"element": "O" 
			},
			{
				"x": -0.400409327,
				"y": -0.0581775497,
				"z": 1.2732147221,
				"element": "C" 
			},
			{
				"x": -0.5313002179,
				"y": -1.0199710289,
				"z": 0.2626742174,
				"element": "C" 
			},
			{
				"x": -1.7920924376,
				"y": -1.3889450671,
				"z": -0.1944019719,
				"element": "C" 
			},
			{
				"x": -2.952823137,
				"y": -0.8129641411,
				"z": 0.3435963828,
				"element": "C" 
			},
			{
				"x": -4.3207346589,
				"y": -1.238782801,
				"z": -0.1323492084,
				"element": "C" 
			},
			{
				"x": -2.8098802207,
				"y": 0.1512803888,
				"z": 1.3520345865,
				"element": "C" 
			},
			{
				"x": -1.5521951057,
				"y": 0.5273747734,
				"z": 1.8162380416,
				"element": "C" 
			},
			{
				"x": 2.8652627275,
				"y": 2.0486577963,
				"z": 2.3617554659,
				"element": "H" 
			},
			{
				"x": 2.0855468596,
				"y": 2.3787899616,
				"z": 3.9437969067,
				"element": "H" 
			},
			{
				"x": 2.797301296,
				"y": 0.7696625477,
				"z": 3.5917678908,
				"element": "H" 
			},
			{
				"x": 0.3683137844,
				"y": -1.4620914715,
				"z": -0.1522753509,
				"element": "H" 
			},
			{
				"x": -1.8810620379,
				"y": -2.1333913186,
				"z": -0.9816070791,
				"element": "H" 
			},
			{
				"x": -4.6965168091,
				"y": -2.0834755027,
				"z": 0.4588763412,
				"element": "H" 
			},
			{
				"x": -5.0486801644,
				"y": -0.4275672922,
				"z": -0.0381775363,
				"element": "H" 
			},
			{
				"x": -4.2992124174,
				"y": -1.5591963303,
				"z": -1.1781468932,
				"element": "H" 
			},
			{
				"x": -3.6971812368,
				"y": 0.6140177092,
				"z": 1.7768578355,
				"element": "H" 
			},
			{
				"x": -1.4560117345,
				"y": 1.275419423,
				"z": 2.5948871773,
				"element": "H" 
			}
		],
		 "valence_orbital": [ 
			{
				"type": "occ",
				"energy": -0.33888,
				"method": "rhf"
			},
			{
				"type": "occ",
				"energy": -0.29734,
				"method": "rhf"
			},
			{
				"type": "occ",
				"energy": -0.26876,
				"method": "rhf"
			},
			{
				"type": "occ",
				"energy": -0.25495,
				"method": "rhf"
			},
			{
				"type": "occ",
				"energy": -0.24708,
				"method": "rhf"
			},
			{
				"type": "unocc",
				"energy": -0.04004,
				"method": "rhf"
			},
			{
				"type": "unocc",
				"energy": -0.00482,
				"method": "rhf"
			},
			{
				"type": "unocc",
				"energy": 0.06008,
				"method": "rhf"
			},
			{
				"type": "unocc",
				"energy": 0.09676,
				"method": "rhf"
			},
			{
				"type": "unocc",
				"energy": 0.11467,
				"method": "rhf"
			}
		],
		"cosmo_sigma_profile": { 
			"-0.025": 0.0,
			"-0.024": 0.0,
			"-0.023": 0.0,
			"-0.022": 0.0,
			"-0.021": 0.0,
			"-0.02": 0.0,
			"-0.019": 0.0,
			"-0.018": 0.0,
			"-0.017": 0.0,
			"-0.016": 0.0,
			"-0.015": 0.0,
			"-0.014": 0.0,
			"-0.013": 0.0,
			"-0.012": 0.0,
			"-0.011": 0.0,
			"-0.01": 0.0,
			"-0.009": 0.0,
			"-0.008": 0.0,
			"-0.007": 0.616351892318,
			"-0.006": 7.02603586333,
			"-0.005": 17.6868511346,
			"-0.004": 22.2038107722,
			"-0.003": 20.8931461724,
			"-0.002": 17.156937962,
			"-0.001": 17.755467619,
			"0.0": 16.811315541,
			"0.001": 13.74794388,
			"0.002": 14.0391899603,
			"0.003": 12.1681740774,
			"0.004": 14.1450050114,
			"0.005": 7.40867840733,
			"0.006": 3.1601450877,
			"0.007": 1.62823164331,
			"0.008": 1.40792254343,
			"0.009": 1.40518083127,
			"0.01": 2.03909579744,
			"0.011": 2.72049404605,
			"0.012": 4.41785233831,
			"0.013": 0.811301315141,
			"0.014": 0.0,
			"0.015": 0.0,
			"0.016": 0.0,
			"0.017": 0.0,
			"0.018": 0.0,
			"0.019": 0.0,
			"0.02": 0.0,
			"0.021": 0.0,
			"0.022": 0.0,
			"0.023": 0.0,
			"0.024": 0.0,
			"0.025": 0.0
		}
	}
}
