{
	 "smiles": "ClS(=O)(=O)C1=CNC(=C1)C(=O)N1CCCC1", 
	 "Tm": 465.15, 
	 "num_atms": 27, 
	 "gaussian": { 
		 "optdone": 1, 
		 "sigma_profile": "yes", 
		 "theory": "DFT", 
		 "functional": "B3LYP", 
		 "basiset": "6-31G**", 
		 "properties": { 
			 "R2extent": 6661.192, 
			 "electric_dipole_moment_norm": 6.12892485514, 
			 "electric_quadrupole_moment_norm": 27.5481373641, 
			 "total_energy": -1543.08776209, 
			 "HOMO_LUMO_gap": 0.17581, 
			 "cosmo_polarized_energy": -16.44, 
			 "cosmo_cavitation_energy": 33.86, 
			 "cosmo_dispersion_energy": -25.32, 
			 "cosmo_repulsion_energy": 1.95, 
			 "cosmo_total_nonelectrostatic_energy": 10.49, 
			 "SMD_solvation_energy": 3.87 
		},
		"coords": [
			{
				"x": 4.2490714274,
				"y": 2.5882074991,
				"z": 0.3012225213,
				"element": "Cl" 
			},
			{
				"x": 2.6117007143,
				"y": 3.0731958838,
				"z": 1.5975464208,
				"element": "S" 
			},
			{
				"x": 3.1995758263,
				"y": 3.2728579773,
				"z": 2.9170456978,
				"element": "O" 
			},
			{
				"x": 1.8647871181,
				"y": 4.1141626265,
				"z": 0.9024070428,
				"element": "O" 
			},
			{
				"x": 1.6855129087,
				"y": 1.5963399503,
				"z": 1.5982156657,
				"element": "C" 
			},
			{
				"x": 1.7992780765,
				"y": 0.5951852842,
				"z": 2.5558380489,
				"element": "C" 
			},
			{
				"x": 0.9150265479,
				"y": -0.3620533467,
				"z": 2.2080325922,
				"element": "N" 
			},
			{
				"x": 0.2318268814,
				"y": -0.0208978752,
				"z": 1.0554269969,
				"element": "C" 
			},
			{
				"x": 0.7050928919,
				"y": 1.214528205,
				"z": 0.6443030957,
				"element": "C" 
			},
			{
				"x": -0.749336988,
				"y": -1.0451516526,
				"z": 0.6104211599,
				"element": "C" 
			},
			{
				"x": -0.8096321314,
				"y": -2.1040590156,
				"z": 1.2525138635,
				"element": "O" 
			},
			{
				"x": -1.5381171384,
				"y": -0.8162275439,
				"z": -0.467743507,
				"element": "N" 
			},
			{
				"x": -2.4609810663,
				"y": -1.8717681924,
				"z": -0.920703318,
				"element": "C" 
			},
			{
				"x": -2.9371755193,
				"y": -1.3620420198,
				"z": -2.2862874706,
				"element": "C" 
			},
			{
				"x": -2.9049746878,
				"y": 0.1665165047,
				"z": -2.1230487042,
				"element": "C" 
			},
			{
				"x": -1.6470358779,
				"y": 0.4095773022,
				"z": -1.2724073833,
				"element": "C" 
			},
			{
				"x": 2.4320000366,
				"y": 0.5331907253,
				"z": 3.4274369085,
				"element": "H" 
			},
			{
				"x": 0.7165349144,
				"y": -1.2457887292,
				"z": 2.6637097045,
				"element": "H" 
			},
			{
				"x": 0.4126417033,
				"y": 1.7923379548,
				"z": -0.2160189314,
				"element": "H" 
			},
			{
				"x": -3.2895963798,
				"y": -1.9767068039,
				"z": -0.2085945621,
				"element": "H" 
			},
			{
				"x": -1.9409231103,
				"y": -2.8317197804,
				"z": -0.9580683953,
				"element": "H" 
			},
			{
				"x": -3.9262548327,
				"y": -1.7441364925,
				"z": -2.5507350397,
				"element": "H" 
			},
			{
				"x": -2.2367680761,
				"y": -1.673635412,
				"z": -3.0693701767,
				"element": "H" 
			},
			{
				"x": -3.7921867823,
				"y": 0.5060943378,
				"z": -1.5773324935,
				"element": "H" 
			},
			{
				"x": -2.8695364828,
				"y": 0.7062114509,
				"z": -3.0726717296,
				"element": "H" 
			},
			{
				"x": -0.7588944068,
				"y": 0.5390088604,
				"z": -1.9059498981,
				"element": "H" 
			},
			{
				"x": -1.7429355668,
				"y": 1.2923723019,
				"z": -0.633588109,
				"element": "H" 
			}
		],
		 "valence_orbital": [ 
			{
				"type": "occ",
				"energy": -0.30455,
				"method": "rhf"
			},
			{
				"type": "occ",
				"energy": -0.2886,
				"method": "rhf"
			},
			{
				"type": "occ",
				"energy": -0.27279,
				"method": "rhf"
			},
			{
				"type": "occ",
				"energy": -0.25883,
				"method": "rhf"
			},
			{
				"type": "occ",
				"energy": -0.2538,
				"method": "rhf"
			},
			{
				"type": "unocc",
				"energy": -0.07799,
				"method": "rhf"
			},
			{
				"type": "unocc",
				"energy": -0.04003,
				"method": "rhf"
			},
			{
				"type": "unocc",
				"energy": -0.0007,
				"method": "rhf"
			},
			{
				"type": "unocc",
				"energy": 0.06162,
				"method": "rhf"
			},
			{
				"type": "unocc",
				"energy": 0.07002,
				"method": "rhf"
			}
		],
		"cosmo_sigma_profile": { 
			"-0.025": 0.0,
			"-0.024": 0.0,
			"-0.023": 0.0,
			"-0.022": 0.0,
			"-0.021": 0.0,
			"-0.02": 0.0,
			"-0.019": 0.0,
			"-0.018": 0.0,
			"-0.017": 0.00577553090664,
			"-0.016": 0.64740186519,
			"-0.015": 0.956768274045,
			"-0.014": 0.713775934941,
			"-0.013": 1.15385740372,
			"-0.012": 0.683023037038,
			"-0.011": 2.55801421788,
			"-0.01": 3.09777672938,
			"-0.009": 2.47491235158,
			"-0.008": 3.53513360754,
			"-0.007": 3.94228169652,
			"-0.006": 6.46435449893,
			"-0.005": 11.3904413529,
			"-0.004": 26.1678127846,
			"-0.003": 29.5298759185,
			"-0.002": 23.7223241371,
			"-0.001": 24.8345703591,
			"0.0": 23.0533701014,
			"0.001": 15.5784674981,
			"0.002": 13.5862687225,
			"0.003": 12.4754514188,
			"0.004": 17.1815132143,
			"0.005": 5.85210966296,
			"0.006": 3.71846652923,
			"0.007": 6.12540993669,
			"0.008": 12.1768139671,
			"0.009": 8.56523440094,
			"0.01": 2.28996448888,
			"0.011": 0.900119951097,
			"0.012": 2.13062327466,
			"0.013": 3.02720475981,
			"0.014": 2.67655960512,
			"0.015": 0.150835867535,
			"0.016": 0.0,
			"0.017": 0.0,
			"0.018": 0.0,
			"0.019": 0.0,
			"0.02": 0.0,
			"0.021": 0.0,
			"0.022": 0.0,
			"0.023": 0.0,
			"0.024": 0.0,
			"0.025": 0.0
		}
	}
}
