{
	 "smiles": "CSC1=NC(CCl)=CC(=O)N1", 
	 "Tm": 450.15, 
	 "num_atms": 18, 
	 "gaussian": { 
		 "optdone": 1, 
		 "sigma_profile": "yes", 
		 "theory": "DFT", 
		 "functional": "B3LYP", 
		 "basiset": "6-31G**", 
		 "properties": { 
			 "R2extent": 3553.9587, 
			 "electric_dipole_moment_norm": 3.45520665807, 
			 "electric_quadrupole_moment_norm": 12.7860239058, 
			 "total_energy": -1275.97939572, 
			 "HOMO_LUMO_gap": 0.18122, 
			 "cosmo_polarized_energy": -14.37, 
			 "cosmo_cavitation_energy": 26.1, 
			 "cosmo_dispersion_energy": -19.38, 
			 "cosmo_repulsion_energy": 1.54, 
			 "cosmo_total_nonelectrostatic_energy": 8.27, 
			 "SMD_solvation_energy": 4.23 
		},
		"coords": [
			{
				"x": 1.6396984224,
				"y": 3.3708553404,
				"z": -2.0704018946,
				"element": "C" 
			},
			{
				"x": 2.6653957678,
				"y": 2.0743296536,
				"z": -1.2988166717,
				"element": "S" 
			},
			{
				"x": 1.5800711623,
				"y": 1.5377058198,
				"z": -0.0042928671,
				"element": "C" 
			},
			{
				"x": 0.4228152962,
				"y": 2.1013229046,
				"z": 0.1876647805,
				"element": "N" 
			},
			{
				"x": -0.348276304,
				"y": 1.6019887484,
				"z": 1.2139697244,
				"element": "C" 
			},
			{
				"x": -1.676457509,
				"y": 2.2806882679,
				"z": 1.3940894477,
				"element": "C" 
			},
			{
				"x": -2.8457861975,
				"y": 1.8186849485,
				"z": 0.0744651402,
				"element": "Cl" 
			},
			{
				"x": 0.0413753772,
				"y": 0.5809709511,
				"z": 2.0329184087,
				"element": "C" 
			},
			{
				"x": 1.331080766,
				"y": -0.0555168516,
				"z": 1.8486982244,
				"element": "C" 
			},
			{
				"x": 1.8186283787,
				"y": -0.9698790953,
				"z": 2.4939745012,
				"element": "O" 
			},
			{
				"x": 2.0488071613,
				"y": 0.510548544,
				"z": 0.7612169128,
				"element": "N" 
			},
			{
				"x": 0.6963466316,
				"y": 2.9485891196,
				"z": -2.4148609858,
				"element": "H" 
			},
			{
				"x": 1.4489777475,
				"y": 4.1750822401,
				"z": -1.360661044,
				"element": "H" 
			},
			{
				"x": 2.2246487274,
				"y": 3.7397097204,
				"z": -2.9151412675,
				"element": "H" 
			},
			{
				"x": -1.5640502055,
				"y": 3.3631725126,
				"z": 1.3279971581,
				"element": "H" 
			},
			{
				"x": -2.1464456361,
				"y": 2.0049151108,
				"z": 2.3371121215,
				"element": "H" 
			},
			{
				"x": -0.5876315701,
				"y": 0.2075529666,
				"z": 2.8315805076,
				"element": "H" 
			},
			{
				"x": 2.9546019838,
				"y": 0.0918790985,
				"z": 0.5793878035,
				"element": "H" 
			}
		],
		 "valence_orbital": [ 
			{
				"type": "occ",
				"energy": -0.30041,
				"method": "rhf"
			},
			{
				"type": "occ",
				"energy": -0.29394,
				"method": "rhf"
			},
			{
				"type": "occ",
				"energy": -0.27431,
				"method": "rhf"
			},
			{
				"type": "occ",
				"energy": -0.26718,
				"method": "rhf"
			},
			{
				"type": "occ",
				"energy": -0.24206,
				"method": "rhf"
			},
			{
				"type": "unocc",
				"energy": -0.06084,
				"method": "rhf"
			},
			{
				"type": "unocc",
				"energy": -0.01461,
				"method": "rhf"
			},
			{
				"type": "unocc",
				"energy": -0.00052,
				"method": "rhf"
			},
			{
				"type": "unocc",
				"energy": 0.03296,
				"method": "rhf"
			},
			{
				"type": "unocc",
				"energy": 0.06019,
				"method": "rhf"
			}
		],
		"cosmo_sigma_profile": { 
			"-0.025": 0.0,
			"-0.024": 0.0,
			"-0.023": 0.0,
			"-0.022": 0.0,
			"-0.021": 0.0,
			"-0.02": 0.0,
			"-0.019": 0.0,
			"-0.018": 0.0,
			"-0.017": 0.474741771175,
			"-0.016": 1.26214483814,
			"-0.015": 0.858697159117,
			"-0.014": 0.885979180874,
			"-0.013": 0.930603218887,
			"-0.012": 1.1259127437,
			"-0.011": 0.99253021854,
			"-0.01": 0.865493210264,
			"-0.009": 3.39807749443,
			"-0.008": 7.84424663809,
			"-0.007": 8.85010433082,
			"-0.006": 9.06285520191,
			"-0.005": 12.6436084046,
			"-0.004": 11.5833294151,
			"-0.003": 15.2430171991,
			"-0.002": 16.2913821258,
			"-0.001": 14.1433770035,
			"0.0": 12.7696713339,
			"0.001": 11.9966401722,
			"0.002": 9.5791288054,
			"0.003": 10.0278762127,
			"0.004": 10.030044983,
			"0.005": 12.0170061759,
			"0.006": 13.60992502,
			"0.007": 5.63167850164,
			"0.008": 3.73722233642,
			"0.009": 1.84219419989,
			"0.01": 2.21341075486,
			"0.011": 1.35124521657,
			"0.012": 3.09940763291,
			"0.013": 6.22671481137,
			"0.014": 1.80219293052,
			"0.015": 0.0125053387941,
			"0.016": 0.0,
			"0.017": 0.0,
			"0.018": 0.0,
			"0.019": 0.0,
			"0.02": 0.0,
			"0.021": 0.0,
			"0.022": 0.0,
			"0.023": 0.0,
			"0.024": 0.0,
			"0.025": 0.0
		}
	}
}
