{
	 "smiles": "CNC1CCCN(C1=O)C1=CC=CC=C1", 
	 "Tm": 350.15, 
	 "num_atms": 31, 
	 "gaussian": { 
		 "optdone": 1, 
		 "sigma_profile": "yes", 
		 "theory": "DFT", 
		 "functional": "B3LYP", 
		 "basiset": "6-31G**", 
		 "properties": { 
			 "R2extent": 3902.7852, 
			 "electric_dipole_moment_norm": 2.86244818468, 
			 "electric_quadrupole_moment_norm": 4.77798724465, 
			 "total_energy": -651.652572214, 
			 "HOMO_LUMO_gap": 0.20359, 
			 "cosmo_polarized_energy": -11.83, 
			 "cosmo_cavitation_energy": 32.22, 
			 "cosmo_dispersion_energy": -23.56, 
			 "cosmo_repulsion_energy": 1.85, 
			 "cosmo_total_nonelectrostatic_energy": 10.51, 
			 "SMD_solvation_energy": 3.23 
		},
		"coords": [
			{
				"x": 4.0903255017,
				"y": -0.0550146494,
				"z": 2.553997354,
				"element": "C" 
			},
			{
				"x": 2.7964648669,
				"y": 0.609914896,
				"z": 2.7304364913,
				"element": "N" 
			},
			{
				"x": 1.6458996227,
				"y": -0.1599945988,
				"z": 2.2770777403,
				"element": "C" 
			},
			{
				"x": 0.3917115977,
				"y": 0.15548823,
				"z": 3.098712317,
				"element": "C" 
			},
			{
				"x": -0.773735216,
				"y": -0.6759570379,
				"z": 2.5684025579,
				"element": "C" 
			},
			{
				"x": -1.0612312042,
				"y": -0.3193155309,
				"z": 1.1142646156,
				"element": "C" 
			},
			{
				"x": 0.1426937485,
				"y": -0.3499329733,
				"z": 0.2589536593,
				"element": "N" 
			},
			{
				"x": 1.4084956492,
				"y": -0.0392528388,
				"z": 0.7491669009,
				"element": "C" 
			},
			{
				"x": 2.3375687921,
				"y": 0.2672024036,
				"z": 0.0127218177,
				"element": "O" 
			},
			{
				"x": -0.0774993872,
				"y": -0.3997840656,
				"z": -1.1565362244,
				"element": "C" 
			},
			{
				"x": -1.2289698366,
				"y": 0.1676439686,
				"z": -1.7186735322,
				"element": "C" 
			},
			{
				"x": -1.4702077551,
				"y": 0.0666614723,
				"z": -3.0906403132,
				"element": "C" 
			},
			{
				"x": -0.5668605319,
				"y": -0.5943067487,
				"z": -3.9197079435,
				"element": "C" 
			},
			{
				"x": 0.5831033466,
				"y": -1.158806554,
				"z": -3.361179247,
				"element": "C" 
			},
			{
				"x": 0.8285740871,
				"y": -1.0693799519,
				"z": -1.9941879638,
				"element": "C" 
			},
			{
				"x": 4.8813109717,
				"y": 0.6121365912,
				"z": 2.9111352785,
				"element": "H" 
			},
			{
				"x": 4.1201778389,
				"y": -0.9567919896,
				"z": 3.177097545,
				"element": "H" 
			},
			{
				"x": 4.3119567126,
				"y": -0.3367477352,
				"z": 1.5159420361,
				"element": "H" 
			},
			{
				"x": 2.8180340198,
				"y": 1.488736391,
				"z": 2.2191908967,
				"element": "H" 
			},
			{
				"x": 1.8788326548,
				"y": -1.2234469499,
				"z": 2.4396506994,
				"element": "H" 
			},
			{
				"x": 0.5964800539,
				"y": -0.0521103806,
				"z": 4.1529832581,
				"element": "H" 
			},
			{
				"x": 0.1595245268,
				"y": 1.2269272046,
				"z": 3.0256573486,
				"element": "H" 
			},
			{
				"x": -1.6857441675,
				"y": -0.5064559556,
				"z": 3.1512484502,
				"element": "H" 
			},
			{
				"x": -0.5351188359,
				"y": -1.7442473326,
				"z": 2.649484795,
				"element": "H" 
			},
			{
				"x": -1.5117662579,
				"y": 0.6837827515,
				"z": 1.0799149512,
				"element": "H" 
			},
			{
				"x": -1.7892311075,
				"y": -1.0128926582,
				"z": 0.6833322612,
				"element": "H" 
			},
			{
				"x": -1.9397065715,
				"y": 0.6992602473,
				"z": -1.0961475168,
				"element": "H" 
			},
			{
				"x": -2.3687368109,
				"y": 0.5139764729,
				"z": -3.5061885726,
				"element": "H" 
			},
			{
				"x": -0.7539780199,
				"y": -0.6706325944,
				"z": -4.9866003582,
				"element": "H" 
			},
			{
				"x": 1.2954778988,
				"y": -1.6805028702,
				"z": -3.993953839,
				"element": "H" 
			},
			{
				"x": 1.7244538123,
				"y": -1.5061572134,
				"z": -1.5729554634,
				"element": "H" 
			}
		],
		 "valence_orbital": [ 
			{
				"type": "occ",
				"energy": -0.28043,
				"method": "rhf"
			},
			{
				"type": "occ",
				"energy": -0.25478,
				"method": "rhf"
			},
			{
				"type": "occ",
				"energy": -0.24383,
				"method": "rhf"
			},
			{
				"type": "occ",
				"energy": -0.21859,
				"method": "rhf"
			},
			{
				"type": "occ",
				"energy": -0.21453,
				"method": "rhf"
			},
			{
				"type": "unocc",
				"energy": -0.01094,
				"method": "rhf"
			},
			{
				"type": "unocc",
				"energy": 0.00232,
				"method": "rhf"
			},
			{
				"type": "unocc",
				"energy": 0.02901,
				"method": "rhf"
			},
			{
				"type": "unocc",
				"energy": 0.0884,
				"method": "rhf"
			},
			{
				"type": "unocc",
				"energy": 0.09052,
				"method": "rhf"
			}
		],
		"cosmo_sigma_profile": { 
			"-0.025": 0.0,
			"-0.024": 0.0,
			"-0.023": 0.0,
			"-0.022": 0.0,
			"-0.021": 0.0,
			"-0.02": 0.0,
			"-0.019": 0.0,
			"-0.018": 0.0,
			"-0.017": 0.0,
			"-0.016": 0.0,
			"-0.015": 0.0,
			"-0.014": 0.0,
			"-0.013": 0.0,
			"-0.012": 0.0,
			"-0.011": 0.0,
			"-0.01": 0.0374889288741,
			"-0.009": 0.909693307711,
			"-0.008": 1.18867557985,
			"-0.007": 1.92254026567,
			"-0.006": 8.27077681626,
			"-0.005": 20.249217914,
			"-0.004": 31.3306495872,
			"-0.003": 32.4896045419,
			"-0.002": 24.2292470679,
			"-0.001": 21.8362375119,
			"0.0": 21.1086857053,
			"0.001": 13.4648061868,
			"0.002": 11.5656398884,
			"0.003": 10.0688917138,
			"0.004": 9.73373853568,
			"0.005": 10.7918345892,
			"0.006": 10.2882298786,
			"0.007": 2.97581176143,
			"0.008": 2.70061805589,
			"0.009": 2.74649217721,
			"0.01": 2.59541212881,
			"0.011": 2.11827909988,
			"0.012": 2.70312473094,
			"0.013": 4.09737874053,
			"0.014": 1.85790388755,
			"0.015": 0.471722676615,
			"0.016": 0.639863024353,
			"0.017": 0.549828655329,
			"0.018": 0.0241657833314,
			"0.019": 0.0,
			"0.02": 0.0,
			"0.021": 0.0,
			"0.022": 0.0,
			"0.023": 0.0,
			"0.024": 0.0,
			"0.025": 0.0
		}
	}
}
