{
	 "smiles": "NNS(=O)(=O)C1=CC=C(Br)C=C1", 
	 "Tm": 499.15, 
	 "num_atms": 19, 
	 "gaussian": { 
		 "optdone": 1, 
		 "sigma_profile": "yes", 
		 "theory": "DFT", 
		 "functional": "B3LYP", 
		 "basiset": "6-31G**", 
		 "properties": { 
			 "R2extent": 5260.2643, 
			 "electric_dipole_moment_norm": 2.41527595111, 
			 "electric_quadrupole_moment_norm": 6.25433246078, 
			 "total_energy": -3462.29060033, 
			 "HOMO_LUMO_gap": 0.20586, 
			 "cosmo_polarized_energy": -15.4, 
			 "cosmo_cavitation_energy": 27.44, 
			 "cosmo_dispersion_energy": -20.83, 
			 "cosmo_repulsion_energy": 1.62, 
			 "cosmo_total_nonelectrostatic_energy": 8.23, 
			 "SMD_solvation_energy": 3.38 
		},
		"coords": [
			{
				"x": -1.7391967896,
				"y": 3.4059092845,
				"z": 0.64370545,
				"element": "N" 
			},
			{
				"x": -1.1946165508,
				"y": 2.1448298612,
				"z": 0.9998517134,
				"element": "N" 
			},
			{
				"x": 0.2369794941,
				"y": 1.7191804743,
				"z": 0.1191716756,
				"element": "S" 
			},
			{
				"x": -0.1604714418,
				"y": 1.793818003,
				"z": -1.2900205499,
				"element": "O" 
			},
			{
				"x": 1.406676933,
				"y": 2.4746735729,
				"z": 0.5965422858,
				"element": "O" 
			},
			{
				"x": 0.4279208681,
				"y": 0.0143191183,
				"z": 0.6221499628,
				"element": "C" 
			},
			{
				"x": -0.4921261684,
				"y": -0.9392347139,
				"z": 0.1774496263,
				"element": "C" 
			},
			{
				"x": -0.3349576034,
				"y": -2.2679313936,
				"z": 0.5620650677,
				"element": "C" 
			},
			{
				"x": 0.7429962022,
				"y": -2.6184296624,
				"z": 1.3791669353,
				"element": "C" 
			},
			{
				"x": 0.9570351263,
				"y": -4.43779182,
				"z": 1.9043103178,
				"element": "Br" 
			},
			{
				"x": 1.6668328815,
				"y": -1.6694598002,
				"z": 1.8166233364,
				"element": "C" 
			},
			{
				"x": 1.506888404,
				"y": -0.3377909452,
				"z": 1.4335187727,
				"element": "C" 
			},
			{
				"x": -1.0123922324,
				"y": 4.1205705734,
				"z": 0.5673444598,
				"element": "H" 
			},
			{
				"x": -2.1696493872,
				"y": 3.294812615,
				"z": -0.2700225827,
				"element": "H" 
			},
			{
				"x": -0.9806916384,
				"y": 2.143257279,
				"z": 1.9967946475,
				"element": "H" 
			},
			{
				"x": -1.315689864,
				"y": -0.6452996941,
				"z": -0.4638119992,
				"element": "H" 
			},
			{
				"x": -1.0361060903,
				"y": -3.0247235705,
				"z": 0.2303591453,
				"element": "H" 
			},
			{
				"x": 2.4991589228,
				"y": -1.9661826159,
				"z": 2.444007558,
				"element": "H" 
			},
			{
				"x": 2.2129089341,
				"y": 0.4225734343,
				"z": 1.7489941773,
				"element": "H" 
			}
		],
		 "valence_orbital": [ 
			{
				"type": "occ",
				"energy": -0.304,
				"method": "rhf"
			},
			{
				"type": "occ",
				"energy": -0.2949,
				"method": "rhf"
			},
			{
				"type": "occ",
				"energy": -0.28826,
				"method": "rhf"
			},
			{
				"type": "occ",
				"energy": -0.26603,
				"method": "rhf"
			},
			{
				"type": "occ",
				"energy": -0.26375,
				"method": "rhf"
			},
			{
				"type": "unocc",
				"energy": -0.05789,
				"method": "rhf"
			},
			{
				"type": "unocc",
				"energy": -0.03791,
				"method": "rhf"
			},
			{
				"type": "unocc",
				"energy": -0.01015,
				"method": "rhf"
			},
			{
				"type": "unocc",
				"energy": 0.04664,
				"method": "rhf"
			},
			{
				"type": "unocc",
				"energy": 0.06296,
				"method": "rhf"
			}
		],
		"cosmo_sigma_profile": { 
			"-0.025": 0.0,
			"-0.024": 0.0,
			"-0.023": 0.0,
			"-0.022": 0.0,
			"-0.021": 0.0,
			"-0.02": 0.0,
			"-0.019": 0.0,
			"-0.018": 0.0,
			"-0.017": 0.0,
			"-0.016": 0.183460118076,
			"-0.015": 0.941951244875,
			"-0.014": 1.19691580468,
			"-0.013": 1.59522489261,
			"-0.012": 2.00124886982,
			"-0.011": 3.99740148653,
			"-0.01": 3.62464315006,
			"-0.009": 4.27765606719,
			"-0.008": 8.58147429744,
			"-0.007": 11.1364942865,
			"-0.006": 8.0142218673,
			"-0.005": 9.66680091196,
			"-0.004": 8.86231523268,
			"-0.003": 8.95604857042,
			"-0.002": 11.2052498053,
			"-0.001": 12.5947395512,
			"0.0": 21.1179471725,
			"0.001": 23.94051484,
			"0.002": 11.3563199679,
			"0.003": 13.0277890834,
			"0.004": 12.8339298666,
			"0.005": 3.1221869898,
			"0.006": 3.99209777532,
			"0.007": 3.65091499171,
			"0.008": 4.26232610198,
			"0.009": 5.20687598833,
			"0.01": 9.38149997985,
			"0.011": 8.92010397961,
			"0.012": 2.92003689641,
			"0.013": 0.16936535664,
			"0.014": 0.910992026834,
			"0.015": 0.559008404283,
			"0.016": 0.0699551902442,
			"0.017": 0.0,
			"0.018": 0.0,
			"0.019": 0.0,
			"0.02": 0.0,
			"0.021": 0.0,
			"0.022": 0.0,
			"0.023": 0.0,
			"0.024": 0.0,
			"0.025": 0.0
		}
	}
}
