{
	 "smiles": "FC1=CC=CC(F)=C1C#N", 
	 "Tm": 303.65, 
	 "num_atms": 13, 
	 "gaussian": { 
		 "optdone": 1, 
		 "sigma_profile": "yes", 
		 "theory": "DFT", 
		 "functional": "B3LYP", 
		 "basiset": "6-31G**", 
		 "properties": { 
			 "R2extent": 1838.8348, 
			 "electric_dipole_moment_norm": 5.56720803096, 
			 "electric_quadrupole_moment_norm": 12.9667069837, 
			 "total_energy": -522.948456246, 
			 "HOMO_LUMO_gap": 0.21024, 
			 "cosmo_polarized_energy": -8.55, 
			 "cosmo_cavitation_energy": 19.81, 
			 "cosmo_dispersion_energy": -13.82, 
			 "cosmo_repulsion_energy": 1.08, 
			 "cosmo_total_nonelectrostatic_energy": 7.08, 
			 "SMD_solvation_energy": 5.8 
		},
		"coords": [
			{
				"x": 2.8374239272,
				"y": 1.2278282075,
				"z": 0.7681757371,
				"element": "F" 
			},
			{
				"x": 1.836179732,
				"y": 0.4265255233,
				"z": 0.38746332,
				"element": "C" 
			},
			{
				"x": 1.0523167354,
				"y": -0.1975492196,
				"z": 1.3472491466,
				"element": "C" 
			},
			{
				"x": 0.0130303682,
				"y": -1.0293499485,
				"z": 0.9260137151,
				"element": "C" 
			},
			{
				"x": -0.2421399548,
				"y": -1.2368389851,
				"z": -0.4309188583,
				"element": "C" 
			},
			{
				"x": 0.560704073,
				"y": -0.5975366681,
				"z": -1.3646451066,
				"element": "C" 
			},
			{
				"x": 0.3344232624,
				"y": -0.7817984899,
				"z": -2.6701477283,
				"element": "F" 
			},
			{
				"x": 1.6168719132,
				"y": 0.2476812773,
				"z": -0.9879283185,
				"element": "C" 
			},
			{
				"x": 2.4329988161,
				"y": 0.8976345314,
				"z": -1.9619225484,
				"element": "C" 
			},
			{
				"x": 3.0976638954,
				"y": 1.4269888361,
				"z": -2.7550812157,
				"element": "N" 
			},
			{
				"x": 1.2629220602,
				"y": -0.0264909398,
				"z": 2.3962441188,
				"element": "H" 
			},
			{
				"x": -0.6074657165,
				"y": -1.5234182408,
				"z": 1.6664872542,
				"element": "H" 
			},
			{
				"x": -1.044629112,
				"y": -1.8791758838,
				"z": -0.773589516,
				"element": "H" 
			}
		],
		 "valence_orbital": [ 
			{
				"type": "occ",
				"energy": -0.36536,
				"method": "rhf"
			},
			{
				"type": "occ",
				"energy": -0.35965,
				"method": "rhf"
			},
			{
				"type": "occ",
				"energy": -0.34021,
				"method": "rhf"
			},
			{
				"type": "occ",
				"energy": -0.27802,
				"method": "rhf"
			},
			{
				"type": "occ",
				"energy": -0.27519,
				"method": "rhf"
			},
			{
				"type": "unocc",
				"energy": -0.06495,
				"method": "rhf"
			},
			{
				"type": "unocc",
				"energy": -0.02771,
				"method": "rhf"
			},
			{
				"type": "unocc",
				"energy": 0.02263,
				"method": "rhf"
			},
			{
				"type": "unocc",
				"energy": 0.05763,
				"method": "rhf"
			},
			{
				"type": "unocc",
				"energy": 0.0625,
				"method": "rhf"
			}
		],
		"cosmo_sigma_profile": { 
			"-0.025": 0.0,
			"-0.024": 0.0,
			"-0.023": 0.0,
			"-0.022": 0.0,
			"-0.021": 0.0,
			"-0.02": 0.0,
			"-0.019": 0.0,
			"-0.018": 0.0,
			"-0.017": 0.0,
			"-0.016": 0.0,
			"-0.015": 0.0,
			"-0.014": 0.0,
			"-0.013": 0.0,
			"-0.012": 0.0,
			"-0.011": 0.0,
			"-0.01": 0.0,
			"-0.009": 2.23809042209,
			"-0.008": 6.9898590209,
			"-0.007": 6.85864786145,
			"-0.006": 6.018562784,
			"-0.005": 3.91192136324,
			"-0.004": 7.83843660809,
			"-0.003": 12.4285941427,
			"-0.002": 18.0593898513,
			"-0.001": 13.7299903805,
			"0.0": 12.3586629802,
			"0.001": 13.4986227249,
			"0.002": 15.9774239147,
			"0.003": 16.6205492392,
			"0.004": 2.15262929404,
			"0.005": 2.97074531701,
			"0.006": 2.70649436003,
			"0.007": 3.29322633678,
			"0.008": 3.37430933012,
			"0.009": 3.27047560118,
			"0.01": 2.67050164823,
			"0.011": 2.38618824018,
			"0.012": 2.03472310511,
			"0.013": 0.331761063984,
			"0.014": 0.0,
			"0.015": 0.0,
			"0.016": 0.0,
			"0.017": 0.0,
			"0.018": 0.0,
			"0.019": 0.0,
			"0.02": 0.0,
			"0.021": 0.0,
			"0.022": 0.0,
			"0.023": 0.0,
			"0.024": 0.0,
			"0.025": 0.0
		}
	}
}
