{
	 "smiles": "O=C1C=CNC2=C1C=NN2C1=CC=CC=C1", 
	 "Tm": 440.15, 
	 "num_atms": 25, 
	 "gaussian": { 
		 "optdone": 1, 
		 "sigma_profile": "yes", 
		 "theory": "DFT", 
		 "functional": "B3LYP", 
		 "basiset": "6-31G**", 
		 "properties": { 
			 "R2extent": 4223.1226, 
			 "electric_dipole_moment_norm": 7.43037404038, 
			 "electric_quadrupole_moment_norm": 20.6394906865, 
			 "total_energy": -702.154021801, 
			 "HOMO_LUMO_gap": 0.18346, 
			 "cosmo_polarized_energy": -21.63, 
			 "cosmo_cavitation_energy": 29.56, 
			 "cosmo_dispersion_energy": -21.88, 
			 "cosmo_repulsion_energy": 1.67, 
			 "cosmo_total_nonelectrostatic_energy": 9.34, 
			 "SMD_solvation_energy": 5.12 
		},
		"coords": [
			{
				"x": -3.2423738887,
				"y": 4.0589726449,
				"z": 0.2601575801,
				"element": "O" 
			},
			{
				"x": -2.8403052023,
				"y": 2.9004832984,
				"z": 0.1465008949,
				"element": "C" 
			},
			{
				"x": -3.68599191,
				"y": 1.7163307079,
				"z": 0.3976684897,
				"element": "C" 
			},
			{
				"x": -3.2298465714,
				"y": 0.4436069152,
				"z": 0.2858303293,
				"element": "C" 
			},
			{
				"x": -1.9359958854,
				"y": 0.1470443122,
				"z": -0.1079615374,
				"element": "N" 
			},
			{
				"x": -1.0927732902,
				"y": 1.1970479755,
				"z": -0.3532055768,
				"element": "C" 
			},
			{
				"x": -1.4795197205,
				"y": 2.528321596,
				"z": -0.23780307,
				"element": "C" 
			},
			{
				"x": -0.2898542892,
				"y": 3.2489057077,
				"z": -0.5292834777,
				"element": "C" 
			},
			{
				"x": 0.7280097955,
				"y": 2.4508299966,
				"z": -0.7980110144,
				"element": "N" 
			},
			{
				"x": 0.2263353722,
				"y": 1.1666074311,
				"z": -0.7038005175,
				"element": "N" 
			},
			{
				"x": 1.0754674705,
				"y": 0.0482374128,
				"z": -0.8978206341,
				"element": "C" 
			},
			{
				"x": 0.5977025537,
				"y": -1.1017102234,
				"z": -1.5391499837,
				"element": "C" 
			},
			{
				"x": 1.440503855,
				"y": -2.2037755962,
				"z": -1.696409758,
				"element": "C" 
			},
			{
				"x": 2.7584155529,
				"y": -2.1532628214,
				"z": -1.2427429446,
				"element": "C" 
			},
			{
				"x": 3.2353208958,
				"y": -0.9897268461,
				"z": -0.6319169459,
				"element": "C" 
			},
			{
				"x": 2.4002311785,
				"y": 0.1098623459,
				"z": -0.4504572272,
				"element": "C" 
			},
			{
				"x": -4.7134812129,
				"y": 1.8912251425,
				"z": 0.695051004,
				"element": "H" 
			},
			{
				"x": -3.8510051284,
				"y": -0.4221527513,
				"z": 0.4868215791,
				"element": "H" 
			},
			{
				"x": -1.590722671,
				"y": -0.8002211937,
				"z": -0.0843823971,
				"element": "H" 
			},
			{
				"x": -0.1578577008,
				"y": 4.3218043343,
				"z": -0.5500706429,
				"element": "H" 
			},
			{
				"x": -0.4042911362,
				"y": -1.1181080516,
				"z": -1.9568774494,
				"element": "H" 
			},
			{
				"x": 1.0680513104,
				"y": -3.0930829095,
				"z": -2.1960602234,
				"element": "H" 
			},
			{
				"x": 3.413358324,
				"y": -3.0090969799,
				"z": -1.3732396764,
				"element": "H" 
			},
			{
				"x": 4.2634955478,
				"y": -0.9399009522,
				"z": -0.2861546246,
				"element": "H" 
			},
			{
				"x": 2.7526267506,
				"y": 1.0188585041,
				"z": 0.0223178241,
				"element": "H" 
			}
		],
		 "valence_orbital": [ 
			{
				"type": "occ",
				"energy": -0.2735,
				"method": "rhf"
			},
			{
				"type": "occ",
				"energy": -0.27199,
				"method": "rhf"
			},
			{
				"type": "occ",
				"energy": -0.24089,
				"method": "rhf"
			},
			{
				"type": "occ",
				"energy": -0.22424,
				"method": "rhf"
			},
			{
				"type": "occ",
				"energy": -0.21941,
				"method": "rhf"
			},
			{
				"type": "unocc",
				"energy": -0.03595,
				"method": "rhf"
			},
			{
				"type": "unocc",
				"energy": -0.02698,
				"method": "rhf"
			},
			{
				"type": "unocc",
				"energy": -0.02496,
				"method": "rhf"
			},
			{
				"type": "unocc",
				"energy": 0.02158,
				"method": "rhf"
			},
			{
				"type": "unocc",
				"energy": 0.03941,
				"method": "rhf"
			}
		],
		"cosmo_sigma_profile": { 
			"-0.025": 0.0,
			"-0.024": 0.0,
			"-0.023": 0.0,
			"-0.022": 0.0,
			"-0.021": 0.0,
			"-0.02": 0.0,
			"-0.019": 0.0,
			"-0.018": 0.0797182834797,
			"-0.017": 0.810640765318,
			"-0.016": 0.817719041104,
			"-0.015": 1.15583910589,
			"-0.014": 1.26528451812,
			"-0.013": 1.51017314226,
			"-0.012": 1.44652869402,
			"-0.011": 1.84154788821,
			"-0.01": 3.02823240538,
			"-0.009": 4.68136253032,
			"-0.008": 3.85062412669,
			"-0.007": 7.70252649459,
			"-0.006": 14.7590252043,
			"-0.005": 16.7087904002,
			"-0.004": 12.8432438335,
			"-0.003": 12.5141456946,
			"-0.002": 12.9048569674,
			"-0.001": 14.9095103599,
			"0.0": 15.2845602538,
			"0.001": 16.8304269242,
			"0.002": 19.2581664643,
			"0.003": 18.7603175954,
			"0.004": 15.9921845759,
			"0.005": 5.64639166758,
			"0.006": 3.30053081799,
			"0.007": 3.88522797775,
			"0.008": 2.15270859397,
			"0.009": 3.13506943539,
			"0.01": 2.54075742205,
			"0.011": 2.39011354646,
			"0.012": 2.33064536442,
			"0.013": 3.08300735706,
			"0.014": 5.49350137795,
			"0.015": 4.45901022213,
			"0.016": 1.14168096867,
			"0.017": 0.00424821355642,
			"0.018": 0.0,
			"0.019": 0.0,
			"0.02": 0.0,
			"0.021": 0.0,
			"0.022": 0.0,
			"0.023": 0.0,
			"0.024": 0.0,
			"0.025": 0.0
		}
	}
}
