{
	 "smiles": "FC(F)(F)COC(=O)NC1=CC(=CC=C1)C1=NN=NN1C1CC1", 
	 "Tm": 398.15, 
	 "num_atms": 35, 
	 "gaussian": { 
		 "optdone": 1, 
		 "sigma_profile": "yes", 
		 "theory": "DFT", 
		 "functional": "B3LYP", 
		 "basiset": "6-31G**", 
		 "properties": { 
			 "R2extent": 7436.0256, 
			 "electric_dipole_moment_norm": 5.97928142422, 
			 "electric_quadrupole_moment_norm": 29.763924233, 
			 "total_energy": -1226.28509117, 
			 "HOMO_LUMO_gap": 0.18775, 
			 "cosmo_polarized_energy": -21.08, 
			 "cosmo_cavitation_energy": 40.58, 
			 "cosmo_dispersion_energy": -27.23, 
			 "cosmo_repulsion_energy": 1.96, 
			 "cosmo_total_nonelectrostatic_energy": 15.31, 
			 "SMD_solvation_energy": 6.39 
		},
		"coords": [
			{
				"x": 0.4517058793,
				"y": -4.9114921842,
				"z": -1.1306827338,
				"element": "F" 
			},
			{
				"x": 0.3236736643,
				"y": -3.5930886847,
				"z": -0.9025590716,
				"element": "C" 
			},
			{
				"x": 1.4553488273,
				"y": -3.1561610148,
				"z": -0.309856577,
				"element": "F" 
			},
			{
				"x": -0.6855858711,
				"y": -3.4188035002,
				"z": -0.0216673108,
				"element": "F" 
			},
			{
				"x": 0.0633176512,
				"y": -2.8783316152,
				"z": -2.2118885292,
				"element": "C" 
			},
			{
				"x": 0.0124502414,
				"y": -1.4824311117,
				"z": -1.923244449,
				"element": "O" 
			},
			{
				"x": -0.3362870961,
				"y": -0.7160333649,
				"z": -2.9937597897,
				"element": "C" 
			},
			{
				"x": -0.6303002958,
				"y": -1.1789536033,
				"z": -4.0789810765,
				"element": "O" 
			},
			{
				"x": -0.3269075009,
				"y": 0.6282995802,
				"z": -2.7317263888,
				"element": "N" 
			},
			{
				"x": 0.00819702,
				"y": 1.4202860581,
				"z": -1.6092228159,
				"element": "C" 
			},
			{
				"x": 0.4655511695,
				"y": 0.9143682121,
				"z": -0.385481013,
				"element": "C" 
			},
			{
				"x": 0.7748799212,
				"y": 1.7978571131,
				"z": 0.6607890133,
				"element": "C" 
			},
			{
				"x": 0.6480141264,
				"y": 3.1838437942,
				"z": 0.480802903,
				"element": "C" 
			},
			{
				"x": 0.1947476126,
				"y": 3.6770384558,
				"z": -0.7384483239,
				"element": "C" 
			},
			{
				"x": -0.1292563828,
				"y": 2.8077551371,
				"z": -1.7751698235,
				"element": "C" 
			},
			{
				"x": 1.2693660814,
				"y": 1.332504736,
				"z": 1.9649645186,
				"element": "C" 
			},
			{
				"x": 2.022116752,
				"y": 2.069320645,
				"z": 2.7729503543,
				"element": "N" 
			},
			{
				"x": 2.2500441758,
				"y": 1.3202229546,
				"z": 3.8769302578,
				"element": "N" 
			},
			{
				"x": 1.6767980994,
				"y": 0.1663671851,
				"z": 3.7849197464,
				"element": "N" 
			},
			{
				"x": 1.0386383045,
				"y": 0.1424341825,
				"z": 2.5846257981,
				"element": "N" 
			},
			{
				"x": 0.2832741908,
				"y": -1.0161034464,
				"z": 2.1813418331,
				"element": "C" 
			},
			{
				"x": -0.6567896797,
				"y": -1.6316526521,
				"z": 3.1799099399,
				"element": "C" 
			},
			{
				"x": -1.2089574007,
				"y": -0.88246704,
				"z": 1.9965191849,
				"element": "C" 
			},
			{
				"x": 0.8730070128,
				"y": -3.1051501092,
				"z": -2.9103777547,
				"element": "H" 
			},
			{
				"x": -0.8783481008,
				"y": -3.2296996926,
				"z": -2.6387865784,
				"element": "H" 
			},
			{
				"x": -0.6013973926,
				"y": 1.1440569354,
				"z": -3.55646933,
				"element": "H" 
			},
			{
				"x": 0.5958310376,
				"y": -0.1482883142,
				"z": -0.2609518302,
				"element": "H" 
			},
			{
				"x": 0.9084721087,
				"y": 3.8480280059,
				"z": 1.2961613365,
				"element": "H" 
			},
			{
				"x": 0.0889250382,
				"y": 4.7473880973,
				"z": -0.8853439154,
				"element": "H" 
			},
			{
				"x": -0.4862054522,
				"y": 3.2028466495,
				"z": -2.7231527165,
				"element": "H" 
			},
			{
				"x": 0.8304049627,
				"y": -1.6822169295,
				"z": 1.5233446138,
				"element": "H" 
			},
			{
				"x": -0.7136331427,
				"y": -1.1637220912,
				"z": 4.15601177,
				"element": "H" 
			},
			{
				"x": -0.7171696508,
				"y": -2.7147303848,
				"z": 3.1870274362,
				"element": "H" 
			},
			{
				"x": -1.6506955442,
				"y": -1.4387098457,
				"z": 1.1779280848,
				"element": "H" 
			},
			{
				"x": -1.6450303667,
				"y": 0.0946178428,
				"z": 2.1764432373,
				"element": "H" 
			}
		],
		 "valence_orbital": [ 
			{
				"type": "occ",
				"energy": -0.29583,
				"method": "rhf"
			},
			{
				"type": "occ",
				"energy": -0.28644,
				"method": "rhf"
			},
			{
				"type": "occ",
				"energy": -0.27049,
				"method": "rhf"
			},
			{
				"type": "occ",
				"energy": -0.26053,
				"method": "rhf"
			},
			{
				"type": "occ",
				"energy": -0.23888,
				"method": "rhf"
			},
			{
				"type": "unocc",
				"energy": -0.05113,
				"method": "rhf"
			},
			{
				"type": "unocc",
				"energy": -0.02732,
				"method": "rhf"
			},
			{
				"type": "unocc",
				"energy": 0.00421,
				"method": "rhf"
			},
			{
				"type": "unocc",
				"energy": 0.02922,
				"method": "rhf"
			},
			{
				"type": "unocc",
				"energy": 0.04815,
				"method": "rhf"
			}
		],
		"cosmo_sigma_profile": { 
			"-0.025": 0.0,
			"-0.024": 0.0,
			"-0.023": 0.0,
			"-0.022": 0.0,
			"-0.021": 0.0,
			"-0.02": 0.0,
			"-0.019": 0.0,
			"-0.018": 0.0,
			"-0.017": 0.0,
			"-0.016": 0.64801854817,
			"-0.015": 1.14014557244,
			"-0.014": 1.05750252023,
			"-0.013": 1.24414203337,
			"-0.012": 1.11842339797,
			"-0.011": 1.16115028488,
			"-0.01": 2.90007871643,
			"-0.009": 4.84223990771,
			"-0.008": 7.00254933674,
			"-0.007": 8.61591161954,
			"-0.006": 16.2377079705,
			"-0.005": 19.2033505724,
			"-0.004": 20.3790568888,
			"-0.003": 21.7629270989,
			"-0.002": 23.7673094838,
			"-0.001": 25.1423157329,
			"0.0": 26.0102689917,
			"0.001": 27.0843232464,
			"0.002": 34.7682437796,
			"0.003": 19.8221910241,
			"0.004": 8.95368028519,
			"0.005": 4.27166531509,
			"0.006": 4.50141512618,
			"0.007": 5.14683897818,
			"0.008": 5.852347276,
			"0.009": 6.20984991641,
			"0.01": 6.11308266103,
			"0.011": 7.89428395249,
			"0.012": 8.06236669801,
			"0.013": 2.4969744912,
			"0.014": 1.92066272144,
			"0.015": 0.178406319223,
			"0.016": 0.0,
			"0.017": 0.0,
			"0.018": 0.0,
			"0.019": 0.0,
			"0.02": 0.0,
			"0.021": 0.0,
			"0.022": 0.0,
			"0.023": 0.0,
			"0.024": 0.0,
			"0.025": 0.0
		}
	}
}
