{
	 "smiles": "NCC(=O)NCC(O)=O", 
	 "Tm": 536.15, 
	 "num_atms": 17, 
	 "gaussian": { 
		 "optdone": 1, 
		 "sigma_profile": "yes", 
		 "theory": "DFT", 
		 "functional": "B3LYP", 
		 "basiset": "6-31G**", 
		 "properties": { 
			 "R2extent": 1816.2306, 
			 "electric_dipole_moment_norm": 3.96616983373, 
			 "electric_quadrupole_moment_norm": 18.1332191395, 
			 "total_energy": -492.436474935, 
			 "HOMO_LUMO_gap": 0.24217, 
			 "cosmo_polarized_energy": -18.42, 
			 "cosmo_cavitation_energy": 21.25, 
			 "cosmo_dispersion_energy": -15.52, 
			 "cosmo_repulsion_energy": 1.34, 
			 "cosmo_total_nonelectrostatic_energy": 7.06, 
			 "SMD_solvation_energy": 4.71 
		},
		"coords": [
			{
				"x": -1.2669076526,
				"y": 0.5646724922,
				"z": -0.7647989323,
				"element": "N" 
			},
			{
				"x": -1.3909946713,
				"y": -0.8746768486,
				"z": -1.0372082037,
				"element": "C" 
			},
			{
				"x": -0.2973542629,
				"y": -1.397707489,
				"z": -1.9732107561,
				"element": "C" 
			},
			{
				"x": -0.5793506927,
				"y": -2.0452646551,
				"z": -2.9718982814,
				"element": "O" 
			},
			{
				"x": 1.0123074438,
				"y": -1.1038215423,
				"z": -1.6701601374,
				"element": "N" 
			},
			{
				"x": 1.5225584083,
				"y": -0.5903846158,
				"z": -0.4206349543,
				"element": "C" 
			},
			{
				"x": 1.5908046416,
				"y": -1.6284901983,
				"z": 0.6926016891,
				"element": "C" 
			},
			{
				"x": 2.4044346987,
				"y": -1.2113944698,
				"z": 1.6906763187,
				"element": "O" 
			},
			{
				"x": 0.981037377,
				"y": -2.6731448093,
				"z": 0.7273512192,
				"element": "O" 
			},
			{
				"x": -1.9793126514,
				"y": 0.8486933977,
				"z": -0.0975616777,
				"element": "H" 
			},
			{
				"x": -1.4413145771,
				"y": 1.0930531947,
				"z": -1.6162646814,
				"element": "H" 
			},
			{
				"x": -2.3359828567,
				"y": -1.1767876649,
				"z": -1.5064012326,
				"element": "H" 
			},
			{
				"x": -1.3023629898,
				"y": -1.4150071166,
				"z": -0.087442762,
				"element": "H" 
			},
			{
				"x": 1.6594925289,
				"y": -1.5924097422,
				"z": -2.2760204518,
				"element": "H" 
			},
			{
				"x": 2.5186467527,
				"y": -0.1653778222,
				"z": -0.5729119889,
				"element": "H" 
			},
			{
				"x": 0.8689072909,
				"y": 0.2230598146,
				"z": -0.0823400529,
				"element": "H" 
			},
			{
				"x": 2.3618912125,
				"y": -1.8931119252,
				"z": 2.3825248855,
				"element": "H" 
			}
		],
		 "valence_orbital": [ 
			{
				"type": "occ",
				"energy": -0.32817,
				"method": "rhf"
			},
			{
				"type": "occ",
				"energy": -0.28886,
				"method": "rhf"
			},
			{
				"type": "occ",
				"energy": -0.25575,
				"method": "rhf"
			},
			{
				"type": "occ",
				"energy": -0.25228,
				"method": "rhf"
			},
			{
				"type": "occ",
				"energy": -0.24117,
				"method": "rhf"
			},
			{
				"type": "unocc",
				"energy": 0.001,
				"method": "rhf"
			},
			{
				"type": "unocc",
				"energy": 0.02058,
				"method": "rhf"
			},
			{
				"type": "unocc",
				"energy": 0.07006,
				"method": "rhf"
			},
			{
				"type": "unocc",
				"energy": 0.08422,
				"method": "rhf"
			},
			{
				"type": "unocc",
				"energy": 0.09764,
				"method": "rhf"
			}
		],
		"cosmo_sigma_profile": { 
			"-0.025": 0.0,
			"-0.024": 0.0,
			"-0.023": 0.0,
			"-0.022": 0.0,
			"-0.021": 0.0,
			"-0.02": 0.0,
			"-0.019": 0.199915222758,
			"-0.018": 0.746462316462,
			"-0.017": 0.888232564479,
			"-0.016": 1.19199100232,
			"-0.015": 0.922561963496,
			"-0.014": 0.825368439834,
			"-0.013": 1.69916069187,
			"-0.012": 1.86601230834,
			"-0.011": 4.2931955671,
			"-0.01": 4.66418942957,
			"-0.009": 4.56559264207,
			"-0.008": 6.52993668942,
			"-0.007": 7.53194678451,
			"-0.006": 5.80192266656,
			"-0.005": 6.98255801127,
			"-0.004": 10.4946511183,
			"-0.003": 13.0834481494,
			"-0.002": 9.16321636548,
			"-0.001": 7.01389970044,
			"0.0": 4.39078593373,
			"0.001": 5.16966507561,
			"0.002": 5.98824091347,
			"0.003": 4.64364213298,
			"0.004": 6.35875640292,
			"0.005": 6.5416403544,
			"0.006": 5.64749793625,
			"0.007": 4.9569427943,
			"0.008": 4.45914356267,
			"0.009": 4.53966069031,
			"0.01": 5.2531206504,
			"0.011": 5.70776177124,
			"0.012": 3.74974667257,
			"0.013": 4.38249903629,
			"0.014": 4.83167531133,
			"0.015": 1.14240805786,
			"0.016": 0.0,
			"0.017": 0.0,
			"0.018": 0.0,
			"0.019": 0.0,
			"0.02": 0.0,
			"0.021": 0.0,
			"0.022": 0.0,
			"0.023": 0.0,
			"0.024": 0.0,
			"0.025": 0.0
		}
	}
}
