{
	 "smiles": "CS(=O)(=O)C1=CC=C(C=C1)C1CNCCO1", 
	 "Tm": 383.15, 
	 "num_atms": 31, 
	 "gaussian": { 
		 "optdone": 1, 
		 "sigma_profile": "yes", 
		 "theory": "DFT", 
		 "functional": "B3LYP", 
		 "basiset": "6-31G**", 
		 "properties": { 
			 "R2extent": 6761.2171, 
			 "electric_dipole_moment_norm": 6.23719977233, 
			 "electric_quadrupole_moment_norm": 27.9483802429, 
			 "total_energy": -1106.73086589, 
			 "HOMO_LUMO_gap": 0.18763, 
			 "cosmo_polarized_energy": -19.56, 
			 "cosmo_cavitation_energy": 34.65, 
			 "cosmo_dispersion_energy": -25.58, 
			 "cosmo_repulsion_energy": 1.94, 
			 "cosmo_total_nonelectrostatic_energy": 11.02, 
			 "SMD_solvation_energy": 2.69 
		},
		"coords": [
			{
				"x": 0.6154998674,
				"y": -4.6929530334,
				"z": 1.0262255487,
				"element": "C" 
			},
			{
				"x": 1.219441414,
				"y": -4.3058116339,
				"z": -0.6355379067,
				"element": "S" 
			},
			{
				"x": 2.682313508,
				"y": -4.1733282476,
				"z": -0.5494939509,
				"element": "O" 
			},
			{
				"x": 0.593564393,
				"y": -5.2621008889,
				"z": -1.5627584205,
				"element": "O" 
			},
			{
				"x": 0.5300757886,
				"y": -2.6782715717,
				"z": -0.9672238522,
				"element": "C" 
			},
			{
				"x": -0.7118912978,
				"y": -2.5772788047,
				"z": -1.5982692223,
				"element": "C" 
			},
			{
				"x": -1.2394129463,
				"y": -1.3131905268,
				"z": -1.8492899102,
				"element": "C" 
			},
			{
				"x": -0.5422321853,
				"y": -0.1553963355,
				"z": -1.4747783614,
				"element": "C" 
			},
			{
				"x": 0.7089088114,
				"y": -0.2803270052,
				"z": -0.859215027,
				"element": "C" 
			},
			{
				"x": 1.2516863961,
				"y": -1.5395941943,
				"z": -0.6061315194,
				"element": "C" 
			},
			{
				"x": -1.1703351813,
				"y": 1.204986618,
				"z": -1.704747464,
				"element": "C" 
			},
			{
				"x": -2.2077817437,
				"y": 1.5492750738,
				"z": -0.6131156736,
				"element": "C" 
			},
			{
				"x": -2.8203521968,
				"y": 2.8673784058,
				"z": -0.7943577212,
				"element": "N" 
			},
			{
				"x": -1.908334417,
				"y": 3.8651139129,
				"z": -1.3826173616,
				"element": "C" 
			},
			{
				"x": -0.4641798601,
				"y": 3.4495440403,
				"z": -1.1345453631,
				"element": "C" 
			},
			{
				"x": -0.1480615161,
				"y": 2.2043421185,
				"z": -1.7598618357,
				"element": "O" 
			},
			{
				"x": -0.4751156428,
				"y": -4.7122625069,
				"z": 1.0171034862,
				"element": "H" 
			},
			{
				"x": 1.011404682,
				"y": -5.68043676,
				"z": 1.2723747486,
				"element": "H" 
			},
			{
				"x": 0.9912263114,
				"y": -3.9471810733,
				"z": 1.7280278451,
				"element": "H" 
			},
			{
				"x": -1.2336146423,
				"y": -3.4764744114,
				"z": -1.9084991037,
				"element": "H" 
			},
			{
				"x": -2.1974083062,
				"y": -1.2251692671,
				"z": -2.3563917592,
				"element": "H" 
			},
			{
				"x": 1.2608907338,
				"y": 0.6183035912,
				"z": -0.6093306669,
				"element": "H" 
			},
			{
				"x": 2.2334291398,
				"y": -1.6449389469,
				"z": -0.1560618236,
				"element": "H" 
			},
			{
				"x": -1.6943861836,
				"y": 1.1850366531,
				"z": -2.6749937334,
				"element": "H" 
			},
			{
				"x": -1.7050493622,
				"y": 1.4977226711,
				"z": 0.3617929824,
				"element": "H" 
			},
			{
				"x": -2.9931074086,
				"y": 0.7882760613,
				"z": -0.5955392705,
				"element": "H" 
			},
			{
				"x": -3.6541097349,
				"y": 2.7856832526,
				"z": -1.3656095511,
				"element": "H" 
			},
			{
				"x": -2.0489095966,
				"y": 3.9742155442,
				"z": -2.4694308718,
				"element": "H" 
			},
			{
				"x": -2.085689178,
				"y": 4.8512737955,
				"z": -0.9324924528,
				"element": "H" 
			},
			{
				"x": 0.2245899802,
				"y": 4.1833963653,
				"z": -1.5623550419,
				"element": "H" 
			},
			{
				"x": -0.2711596261,
				"y": 3.4017671042,
				"z": -0.0522767466,
				"element": "H" 
			}
		],
		 "valence_orbital": [ 
			{
				"type": "occ",
				"energy": -0.28464,
				"method": "rhf"
			},
			{
				"type": "occ",
				"energy": -0.27484,
				"method": "rhf"
			},
			{
				"type": "occ",
				"energy": -0.26944,
				"method": "rhf"
			},
			{
				"type": "occ",
				"energy": -0.25892,
				"method": "rhf"
			},
			{
				"type": "occ",
				"energy": -0.22636,
				"method": "rhf"
			},
			{
				"type": "unocc",
				"energy": -0.03873,
				"method": "rhf"
			},
			{
				"type": "unocc",
				"energy": -0.02077,
				"method": "rhf"
			},
			{
				"type": "unocc",
				"energy": 0.06188,
				"method": "rhf"
			},
			{
				"type": "unocc",
				"energy": 0.07074,
				"method": "rhf"
			},
			{
				"type": "unocc",
				"energy": 0.07999,
				"method": "rhf"
			}
		],
		"cosmo_sigma_profile": { 
			"-0.025": 0.0,
			"-0.024": 0.0,
			"-0.023": 0.0,
			"-0.022": 0.0,
			"-0.021": 0.0,
			"-0.02": 0.0,
			"-0.019": 0.0,
			"-0.018": 0.0,
			"-0.017": 0.0,
			"-0.016": 0.0,
			"-0.015": 0.0,
			"-0.014": 0.0,
			"-0.013": 0.0,
			"-0.012": 0.0,
			"-0.011": 0.346327753984,
			"-0.01": 1.55158904623,
			"-0.009": 2.49338524512,
			"-0.008": 7.90719706323,
			"-0.007": 10.5936050998,
			"-0.006": 18.0535120357,
			"-0.005": 22.531313424,
			"-0.004": 26.1095916166,
			"-0.003": 28.9960110582,
			"-0.002": 20.6354537886,
			"-0.001": 18.1285491061,
			"0.0": 12.1805386737,
			"0.001": 12.2571157423,
			"0.002": 13.7430963574,
			"0.003": 15.6631991178,
			"0.004": 7.09726319344,
			"0.005": 5.00829575607,
			"0.006": 3.77432367743,
			"0.007": 4.29264303469,
			"0.008": 5.00542668035,
			"0.009": 4.11014316118,
			"0.01": 5.72571817068,
			"0.011": 10.2065385474,
			"0.012": 11.2606670206,
			"0.013": 2.92677251179,
			"0.014": 0.669056595044,
			"0.015": 0.248519218519,
			"0.016": 0.246633566695,
			"0.017": 1.02105468025,
			"0.018": 0.133686591005,
			"0.019": 0.0,
			"0.02": 0.0,
			"0.021": 0.0,
			"0.022": 0.0,
			"0.023": 0.0,
			"0.024": 0.0,
			"0.025": 0.0
		}
	}
}
