{
	 "smiles": "COC(=O)C1=C(OC)C=CC(OC)=C1C(=O)OC", 
	 "Tm": 374.15, 
	 "num_atms": 32, 
	 "gaussian": { 
		 "optdone": 1, 
		 "sigma_profile": "yes", 
		 "theory": "DFT", 
		 "functional": "B3LYP", 
		 "basiset": "6-31G**", 
		 "properties": { 
			 "R2extent": 4753.4236, 
			 "electric_dipole_moment_norm": 3.31203643398, 
			 "electric_quadrupole_moment_norm": 20.0603773551, 
			 "total_energy": -917.029904967, 
			 "HOMO_LUMO_gap": 0.18464, 
			 "cosmo_polarized_energy": -17.18, 
			 "cosmo_cavitation_energy": 36.81, 
			 "cosmo_dispersion_energy": -24.97, 
			 "cosmo_repulsion_energy": 1.97, 
			 "cosmo_total_nonelectrostatic_energy": 13.82, 
			 "SMD_solvation_energy": 10.59 
		},
		"coords": [
			{
				"x": -1.860425934,
				"y": -1.5055807324,
				"z": -2.8376095913,
				"element": "C" 
			},
			{
				"x": -1.6572009066,
				"y": -1.2443586068,
				"z": -1.4379514701,
				"element": "O" 
			},
			{
				"x": -0.9692325976,
				"y": -0.1187597621,
				"z": -1.1658319538,
				"element": "C" 
			},
			{
				"x": -0.5360286504,
				"y": 0.6287351267,
				"z": -2.0161449497,
				"element": "O" 
			},
			{
				"x": -0.7880166341,
				"y": 0.0944897187,
				"z": 0.3100824507,
				"element": "C" 
			},
			{
				"x": -1.8948430095,
				"y": 0.1269193,
				"z": 1.173334189,
				"element": "C" 
			},
			{
				"x": -3.1671819471,
				"y": -0.0162672733,
				"z": 0.6675632218,
				"element": "O" 
			},
			{
				"x": -3.7851089953,
				"y": -1.2773828542,
				"z": 0.9299106913,
				"element": "C" 
			},
			{
				"x": -1.7029844692,
				"y": 0.3997307661,
				"z": 2.5271191759,
				"element": "C" 
			},
			{
				"x": -0.4263937106,
				"y": 0.6300167681,
				"z": 3.0350786222,
				"element": "C" 
			},
			{
				"x": 0.6814303822,
				"y": 0.6122236132,
				"z": 2.1789468128,
				"element": "C" 
			},
			{
				"x": 1.9675139828,
				"y": 0.7955685143,
				"z": 2.5899302147,
				"element": "O" 
			},
			{
				"x": 2.2099073687,
				"y": 1.0501747815,
				"z": 3.9643425421,
				"element": "C" 
			},
			{
				"x": 0.4965078188,
				"y": 0.3663879656,
				"z": 0.8055064383,
				"element": "C" 
			},
			{
				"x": 1.6792608138,
				"y": 0.2859871856,
				"z": -0.12090414,
				"element": "C" 
			},
			{
				"x": 1.96895981,
				"y": -0.7046858342,
				"z": -0.7578107653,
				"element": "O" 
			},
			{
				"x": 2.3661830425,
				"y": 1.4388650994,
				"z": -0.1625220786,
				"element": "O" 
			},
			{
				"x": 3.5027355162,
				"y": 1.4367092626,
				"z": -1.0418201275,
				"element": "C" 
			},
			{
				"x": -0.9002635511,
				"y": -1.5952166704,
				"z": -3.3508302374,
				"element": "H" 
			},
			{
				"x": -2.4101817091,
				"y": -2.4454970459,
				"z": -2.8832485603,
				"element": "H" 
			},
			{
				"x": -2.4366421129,
				"y": -0.6996542268,
				"z": -3.2987994802,
				"element": "H" 
			},
			{
				"x": -4.7948535546,
				"y": -1.2163566776,
				"z": 0.5186840662,
				"element": "H" 
			},
			{
				"x": -3.2363136215,
				"y": -2.0880698029,
				"z": 0.4388326895,
				"element": "H" 
			},
			{
				"x": -3.848133793,
				"y": -1.4781594191,
				"z": 2.0072861595,
				"element": "H" 
			},
			{
				"x": -2.5680817419,
				"y": 0.4497458826,
				"z": 3.1809243707,
				"element": "H" 
			},
			{
				"x": -0.3042426083,
				"y": 0.8301588326,
				"z": 4.092500335,
				"element": "H" 
			},
			{
				"x": 3.2902567378,
				"y": 1.1661780289,
				"z": 4.0601551346,
				"element": "H" 
			},
			{
				"x": 1.7176197666,
				"y": 1.9724883754,
				"z": 4.2980552666,
				"element": "H" 
			},
			{
				"x": 1.879321371,
				"y": 0.2155615141,
				"z": 4.5960517833,
				"element": "H" 
			},
			{
				"x": 3.1878714792,
				"y": 1.2409090913,
				"z": -2.0696522366,
				"element": "H" 
			},
			{
				"x": 3.9400279562,
				"y": 2.4313878728,
				"z": -0.9569104804,
				"element": "H" 
			},
			{
				"x": 4.2228335012,
				"y": 0.6723512061,
				"z": -0.7387680933,
				"element": "H" 
			}
		],
		 "valence_orbital": [ 
			{
				"type": "occ",
				"energy": -0.28498,
				"method": "rhf"
			},
			{
				"type": "occ",
				"energy": -0.27146,
				"method": "rhf"
			},
			{
				"type": "occ",
				"energy": -0.26968,
				"method": "rhf"
			},
			{
				"type": "occ",
				"energy": -0.24995,
				"method": "rhf"
			},
			{
				"type": "occ",
				"energy": -0.22098,
				"method": "rhf"
			},
			{
				"type": "unocc",
				"energy": -0.03634,
				"method": "rhf"
			},
			{
				"type": "unocc",
				"energy": -0.00768,
				"method": "rhf"
			},
			{
				"type": "unocc",
				"energy": 0.03108,
				"method": "rhf"
			},
			{
				"type": "unocc",
				"energy": 0.03923,
				"method": "rhf"
			},
			{
				"type": "unocc",
				"energy": 0.08693,
				"method": "rhf"
			}
		],
		"cosmo_sigma_profile": { 
			"-0.025": 0.0,
			"-0.024": 0.0,
			"-0.023": 0.0,
			"-0.022": 0.0,
			"-0.021": 0.0,
			"-0.02": 0.0,
			"-0.019": 0.0,
			"-0.018": 0.0,
			"-0.017": 0.0,
			"-0.016": 0.0,
			"-0.015": 0.0,
			"-0.014": 0.0,
			"-0.013": 0.0,
			"-0.012": 0.0,
			"-0.011": 0.0,
			"-0.01": 0.0,
			"-0.009": 0.0,
			"-0.008": 1.20478211885,
			"-0.007": 7.5812673933,
			"-0.006": 24.5796848458,
			"-0.005": 28.3571529618,
			"-0.004": 33.0251538718,
			"-0.003": 30.9385764447,
			"-0.002": 18.2476377841,
			"-0.001": 13.7758370761,
			"0.0": 13.5961686893,
			"0.001": 18.3658418978,
			"0.002": 19.0710306529,
			"0.003": 13.328262436,
			"0.004": 9.87809808656,
			"0.005": 9.38777646174,
			"0.006": 8.32399588265,
			"0.007": 7.91003384121,
			"0.008": 6.58167874524,
			"0.009": 7.28983056584,
			"0.01": 6.63834172749,
			"0.011": 9.35330545518,
			"0.012": 4.35635175908,
			"0.013": 0.0340676803563,
			"0.014": 0.0,
			"0.015": 0.0,
			"0.016": 0.0,
			"0.017": 0.0,
			"0.018": 0.0,
			"0.019": 0.0,
			"0.02": 0.0,
			"0.021": 0.0,
			"0.022": 0.0,
			"0.023": 0.0,
			"0.024": 0.0,
			"0.025": 0.0
		}
	}
}
