{
	 "smiles": "CC1=C2C=CC=CC2=C(Cl)N=N1", 
	 "Tm": 397.15, 
	 "num_atms": 19, 
	 "gaussian": { 
		 "optdone": 1, 
		 "sigma_profile": "yes", 
		 "theory": "DFT", 
		 "functional": "B3LYP", 
		 "basiset": "6-31G**", 
		 "properties": { 
			 "R2extent": 2753.3831, 
			 "electric_dipole_moment_norm": 5.69235727357, 
			 "electric_quadrupole_moment_norm": 12.9568113504, 
			 "total_energy": -916.848059613, 
			 "HOMO_LUMO_gap": 0.17084, 
			 "cosmo_polarized_energy": -11.83, 
			 "cosmo_cavitation_energy": 24.59, 
			 "cosmo_dispersion_energy": -18.63, 
			 "cosmo_repulsion_energy": 1.46, 
			 "cosmo_total_nonelectrostatic_energy": 7.42, 
			 "SMD_solvation_energy": 2.12 
		},
		"coords": [
			{
				"x": 1.9654402314,
				"y": 0.5031480547,
				"z": 2.3006844614,
				"element": "C" 
			},
			{
				"x": 0.5433657947,
				"y": 0.1259789633,
				"z": 1.9801365537,
				"element": "C" 
			},
			{
				"x": 0.0802462167,
				"y": 0.0065395096,
				"z": 0.6252368523,
				"element": "C" 
			},
			{
				"x": 0.9002336401,
				"y": 0.2275119352,
				"z": -0.5080841779,
				"element": "C" 
			},
			{
				"x": 0.3798307391,
				"y": 0.0926129412,
				"z": -1.7788891182,
				"element": "C" 
			},
			{
				"x": -0.9739059009,
				"y": -0.2666461035,
				"z": -1.9641801687,
				"element": "C" 
			},
			{
				"x": -1.7961316398,
				"y": -0.4880611085,
				"z": -0.8785988584,
				"element": "C" 
			},
			{
				"x": -1.2809175484,
				"y": -0.3546728576,
				"z": 0.4313098568,
				"element": "C" 
			},
			{
				"x": -2.0217640552,
				"y": -0.554838036,
				"z": 1.6386962965,
				"element": "C" 
			},
			{
				"x": -3.7220081942,
				"y": -1.0062454078,
				"z": 1.5376375877,
				"element": "Cl" 
			},
			{
				"x": -1.5458521909,
				"y": -0.4316366087,
				"z": 2.8409384406,
				"element": "N" 
			},
			{
				"x": -0.2385672975,
				"y": -0.0846702586,
				"z": 3.0199049368,
				"element": "N" 
			},
			{
				"x": 2.0854877481,
				"y": 0.5322481501,
				"z": 3.3840736933,
				"element": "H" 
			},
			{
				"x": 2.6748336533,
				"y": -0.2215182957,
				"z": 1.885192511,
				"element": "H" 
			},
			{
				"x": 2.2208413727,
				"y": 1.4864088555,
				"z": 1.8896082078,
				"element": "H" 
			},
			{
				"x": 1.9399810208,
				"y": 0.5034747688,
				"z": -0.3706819858,
				"element": "H" 
			},
			{
				"x": 1.012126024,
				"y": 0.2629522002,
				"z": -2.6450897993,
				"element": "H" 
			},
			{
				"x": -1.3681863901,
				"y": -0.3687353121,
				"z": -2.9706601014,
				"element": "H" 
			},
			{
				"x": -2.8352532239,
				"y": -0.7638513901,
				"z": -1.0139351884,
				"element": "H" 
			}
		],
		 "valence_orbital": [ 
			{
				"type": "occ",
				"energy": -0.30579,
				"method": "rhf"
			},
			{
				"type": "occ",
				"energy": -0.29558,
				"method": "rhf"
			},
			{
				"type": "occ",
				"energy": -0.28708,
				"method": "rhf"
			},
			{
				"type": "occ",
				"energy": -0.25289,
				"method": "rhf"
			},
			{
				"type": "occ",
				"energy": -0.24214,
				"method": "rhf"
			},
			{
				"type": "unocc",
				"energy": -0.0713,
				"method": "rhf"
			},
			{
				"type": "unocc",
				"energy": -0.05292,
				"method": "rhf"
			},
			{
				"type": "unocc",
				"energy": 0.01008,
				"method": "rhf"
			},
			{
				"type": "unocc",
				"energy": 0.02961,
				"method": "rhf"
			},
			{
				"type": "unocc",
				"energy": 0.05814,
				"method": "rhf"
			}
		],
		"cosmo_sigma_profile": { 
			"-0.025": 0.0,
			"-0.024": 0.0,
			"-0.023": 0.0,
			"-0.022": 0.0,
			"-0.021": 0.0,
			"-0.02": 0.0,
			"-0.019": 0.0,
			"-0.018": 0.0,
			"-0.017": 0.0,
			"-0.016": 0.0,
			"-0.015": 0.0,
			"-0.014": 0.0,
			"-0.013": 0.0,
			"-0.012": 0.0,
			"-0.011": 0.0,
			"-0.01": 0.0,
			"-0.009": 0.0,
			"-0.008": 1.2513671484,
			"-0.007": 8.18517763174,
			"-0.006": 14.2981096907,
			"-0.005": 13.6014892732,
			"-0.004": 11.9719387979,
			"-0.003": 15.0654527499,
			"-0.002": 20.0026525932,
			"-0.001": 19.8025375755,
			"0.0": 19.0729559775,
			"0.001": 16.8176923421,
			"0.002": 15.8366720353,
			"0.003": 8.63626361286,
			"0.004": 8.29326336619,
			"0.005": 4.13827057033,
			"0.006": 3.23722594649,
			"0.007": 1.94196954031,
			"0.008": 1.94779820202,
			"0.009": 1.75049088167,
			"0.01": 2.56616326152,
			"0.011": 1.86051960845,
			"0.012": 2.45327330955,
			"0.013": 2.31041511422,
			"0.014": 2.92805837402,
			"0.015": 1.69085363898,
			"0.016": 0.485039434986,
			"0.017": 0.0,
			"0.018": 0.0,
			"0.019": 0.0,
			"0.02": 0.0,
			"0.021": 0.0,
			"0.022": 0.0,
			"0.023": 0.0,
			"0.024": 0.0,
			"0.025": 0.0
		}
	}
}
