{
	 "smiles": "COC1=CC(C=C(CC(O)=O)C2=NC3=C(S2)C=CC=C3)=CC=C1", 
	 "Tm": 427.15, 
	 "num_atms": 38, 
	 "gaussian": { 
		 "optdone": 1, 
		 "sigma_profile": "yes", 
		 "theory": "DFT", 
		 "functional": "B3LYP", 
		 "basiset": "6-31G**", 
		 "properties": { 
			 "R2extent": 8398.0831, 
			 "electric_dipole_moment_norm": 6.50727066442, 
			 "electric_quadrupole_moment_norm": 34.1192313551, 
			 "total_energy": -1373.5685173, 
			 "HOMO_LUMO_gap": 0.14375, 
			 "cosmo_polarized_energy": -16.81, 
			 "cosmo_cavitation_energy": 43.97, 
			 "cosmo_dispersion_energy": -30.04, 
			 "cosmo_repulsion_energy": 2.26, 
			 "cosmo_total_nonelectrostatic_energy": 16.19, 
			 "SMD_solvation_energy": 7.99 
		},
		"coords": [
			{
				"x": -1.3995957065,
				"y": 3.5853278247,
				"z": 0.5763055618,
				"element": "C" 
			},
			{
				"x": -0.0086227702,
				"y": 3.8204053975,
				"z": 0.7411502195,
				"element": "O" 
			},
			{
				"x": 0.8686239848,
				"y": 2.9415159247,
				"z": 0.1794542619,
				"element": "C" 
			},
			{
				"x": 0.496768002,
				"y": 1.8122034596,
				"z": -0.5536938384,
				"element": "C" 
			},
			{
				"x": 1.4823302137,
				"y": 0.9691329179,
				"z": -1.1033832717,
				"element": "C" 
			},
			{
				"x": 1.1205257722,
				"y": -0.2039566558,
				"z": -1.9179068791,
				"element": "C" 
			},
			{
				"x": 0.1461394097,
				"y": -1.1251717997,
				"z": -1.7321200777,
				"element": "C" 
			},
			{
				"x": -0.1404175517,
				"y": -2.1433232184,
				"z": -2.8299369573,
				"element": "C" 
			},
			{
				"x": -1.2877849513,
				"y": -1.7533625638,
				"z": -3.7873747252,
				"element": "C" 
			},
			{
				"x": -2.4939554054,
				"y": -1.5856395381,
				"z": -3.2316380746,
				"element": "O" 
			},
			{
				"x": -1.1060938082,
				"y": -1.6273096073,
				"z": -4.9764691062,
				"element": "O" 
			},
			{
				"x": -0.6670942082,
				"y": -1.273648965,
				"z": -0.5133212831,
				"element": "C" 
			},
			{
				"x": -1.8984523243,
				"y": -1.7131427611,
				"z": -0.551304409,
				"element": "N" 
			},
			{
				"x": -2.4360155779,
				"y": -1.9006553018,
				"z": 0.7095694112,
				"element": "C" 
			},
			{
				"x": -1.5506143593,
				"y": -1.6099665765,
				"z": 1.7740703702,
				"element": "C" 
			},
			{
				"x": -0.0128037407,
				"y": -1.0816908258,
				"z": 1.12506614,
				"element": "S" 
			},
			{
				"x": -1.9475624311,
				"y": -1.7521746995,
				"z": 3.106668808,
				"element": "C" 
			},
			{
				"x": -3.2437720021,
				"y": -2.1926727969,
				"z": 3.3596331962,
				"element": "C" 
			},
			{
				"x": -4.1313124638,
				"y": -2.4838076097,
				"z": 2.3077298343,
				"element": "C" 
			},
			{
				"x": -3.7397182492,
				"y": -2.3413661293,
				"z": 0.9828782551,
				"element": "C" 
			},
			{
				"x": 2.836990973,
				"y": 1.2929428103,
				"z": -0.936853839,
				"element": "C" 
			},
			{
				"x": 3.1995053936,
				"y": 2.4169099413,
				"z": -0.1916827203,
				"element": "C" 
			},
			{
				"x": 2.2283562823,
				"y": 3.2389553713,
				"z": 0.3673237974,
				"element": "C" 
			},
			{
				"x": -1.7028594014,
				"y": 2.6265656771,
				"z": 1.0158016097,
				"element": "H" 
			},
			{
				"x": -1.690548841,
				"y": 3.6036923839,
				"z": -0.481588612,
				"element": "H" 
			},
			{
				"x": -1.9052954731,
				"y": 4.3969422032,
				"z": 1.1012754936,
				"element": "H" 
			},
			{
				"x": -0.5465461013,
				"y": 1.5846466641,
				"z": -0.7314504647,
				"element": "H" 
			},
			{
				"x": 1.7176098888,
				"y": -0.3247501046,
				"z": -2.8212898426,
				"element": "H" 
			},
			{
				"x": -0.3818966651,
				"y": -3.1161065065,
				"z": -2.3857959202,
				"element": "H" 
			},
			{
				"x": 0.7424474269,
				"y": -2.2626900432,
				"z": -3.4590683678,
				"element": "H" 
			},
			{
				"x": -2.4453841313,
				"y": -1.7106924196,
				"z": -2.2492252895,
				"element": "H" 
			},
			{
				"x": -1.26719948,
				"y": -1.5281077569,
				"z": 3.9217681932,
				"element": "H" 
			},
			{
				"x": -3.573417249,
				"y": -2.3128284256,
				"z": 4.3870969071,
				"element": "H" 
			},
			{
				"x": -5.1363474229,
				"y": -2.8244619999,
				"z": 2.5362950121,
				"element": "H" 
			},
			{
				"x": -4.4147662156,
				"y": -2.5622371817,
				"z": 0.1625526879,
				"element": "H" 
			},
			{
				"x": 3.6002350637,
				"y": 0.6592839816,
				"z": -1.3786095787,
				"element": "H" 
			},
			{
				"x": 4.2493029354,
				"y": 2.6580599779,
				"z": -0.0530554233,
				"element": "H" 
			},
			{
				"x": 2.4907411847,
				"y": 4.1238789518,
				"z": 0.9375289215,
				"element": "H" 
			}
		],
		 "valence_orbital": [ 
			{
				"type": "occ",
				"energy": -0.26872,
				"method": "rhf"
			},
			{
				"type": "occ",
				"energy": -0.25206,
				"method": "rhf"
			},
			{
				"type": "occ",
				"energy": -0.24801,
				"method": "rhf"
			},
			{
				"type": "occ",
				"energy": -0.23531,
				"method": "rhf"
			},
			{
				"type": "occ",
				"energy": -0.22407,
				"method": "rhf"
			},
			{
				"type": "unocc",
				"energy": -0.08032,
				"method": "rhf"
			},
			{
				"type": "unocc",
				"energy": -0.02851,
				"method": "rhf"
			},
			{
				"type": "unocc",
				"energy": -0.02125,
				"method": "rhf"
			},
			{
				"type": "unocc",
				"energy": -0.00311,
				"method": "rhf"
			},
			{
				"type": "unocc",
				"energy": 0.00181,
				"method": "rhf"
			}
		],
		"cosmo_sigma_profile": { 
			"-0.025": 0.0,
			"-0.024": 0.0,
			"-0.023": 0.0,
			"-0.022": 0.0,
			"-0.021": 0.0,
			"-0.02": 0.0,
			"-0.019": 0.0,
			"-0.018": 0.0,
			"-0.017": 0.0,
			"-0.016": 0.0,
			"-0.015": 0.0,
			"-0.014": 0.0,
			"-0.013": 0.0,
			"-0.012": 0.0,
			"-0.011": 0.0,
			"-0.01": 0.0,
			"-0.009": 0.0,
			"-0.008": 1.6703781394,
			"-0.007": 11.5520748215,
			"-0.006": 25.9217860326,
			"-0.005": 30.5032385037,
			"-0.004": 31.0754950671,
			"-0.003": 30.9025518015,
			"-0.002": 23.0351159249,
			"-0.001": 23.478577521,
			"0.0": 25.9757142426,
			"0.001": 24.714329693,
			"0.002": 26.0860376082,
			"0.003": 26.4766067334,
			"0.004": 23.8914170351,
			"0.005": 10.5658108879,
			"0.006": 4.36792233824,
			"0.007": 3.47326005295,
			"0.008": 3.55633173796,
			"0.009": 4.02556881382,
			"0.01": 4.50721193529,
			"0.011": 5.38401911585,
			"0.012": 7.10677707821,
			"0.013": 4.64133628637,
			"0.014": 1.09946576961,
			"0.015": 0.0,
			"0.016": 0.0,
			"0.017": 0.0,
			"0.018": 0.0,
			"0.019": 0.0,
			"0.02": 0.0,
			"0.021": 0.0,
			"0.022": 0.0,
			"0.023": 0.0,
			"0.024": 0.0,
			"0.0": 0.0
		}
	}
}
