{
	 "smiles": "CC(NC(=O)OC(C)(C)C)C(=O)CC1=CC=CC=C1", 
	 "Tm": 333.15, 
	 "num_atms": 40, 
	 "gaussian": { 
		 "optdone": 1, 
		 "sigma_profile": "yes", 
		 "theory": "DFT", 
		 "functional": "B3LYP", 
		 "basiset": "6-31G**", 
		 "properties": { 
			 "R2extent": 6612.6088, 
			 "electric_dipole_moment_norm": 0.722152380042, 
			 "electric_quadrupole_moment_norm": 17.137147929, 
			 "total_energy": -864.7175459, 
			 "HOMO_LUMO_gap": 0.21235, 
			 "cosmo_polarized_energy": -15.37, 
			 "cosmo_cavitation_energy": 42.67, 
			 "cosmo_dispersion_energy": -27.71, 
			 "cosmo_repulsion_energy": 2.16, 
			 "cosmo_total_nonelectrostatic_energy": 17.12, 
			 "SMD_solvation_energy": 8.54 
		},
		"coords": [
			{
				"x": -2.1612197202,
				"y": 2.0016777728,
				"z": 0.077516609,
				"element": "C" 
			},
			{
				"x": -0.965308034,
				"y": 1.2194802195,
				"z": -0.4851837682,
				"element": "C" 
			},
			{
				"x": -1.448125695,
				"y": 0.0864396079,
				"z": -1.2632610379,
				"element": "N" 
			},
			{
				"x": -0.7071811095,
				"y": -0.6373277389,
				"z": -2.1656965449,
				"element": "C" 
			},
			{
				"x": -1.1972388752,
				"y": -1.443764661,
				"z": -2.9380543254,
				"element": "O" 
			},
			{
				"x": 0.605984968,
				"y": -0.3330105947,
				"z": -2.0378251501,
				"element": "O" 
			},
			{
				"x": 1.6175640067,
				"y": -0.9433925502,
				"z": -2.9217883304,
				"element": "C" 
			},
			{
				"x": 2.916216275,
				"y": -0.2927683042,
				"z": -2.4401499518,
				"element": "C" 
			},
			{
				"x": 1.3270737226,
				"y": -0.5695053505,
				"z": -4.3788585213,
				"element": "C" 
			},
			{
				"x": 1.6512049089,
				"y": -2.4598548323,
				"z": -2.7073790599,
				"element": "C" 
			},
			{
				"x": -0.0348722311,
				"y": 0.8353015348,
				"z": 0.6865842928,
				"element": "C" 
			},
			{
				"x": 0.7546744295,
				"y": 1.6602471597,
				"z": 1.0975358929,
				"element": "O" 
			},
			{
				"x": -0.1761135163,
				"y": -0.5654789936,
				"z": 1.2856468665,
				"element": "C" 
			},
			{
				"x": 0.3143820493,
				"y": -0.7041835408,
				"z": 2.7068843907,
				"element": "C" 
			},
			{
				"x": -0.5799671443,
				"y": -1.035770404,
				"z": 3.7317930565,
				"element": "C" 
			},
			{
				"x": -0.1409326291,
				"y": -1.1765222699,
				"z": 5.0496929345,
				"element": "C" 
			},
			{
				"x": 1.2051542123,
				"y": -0.9835892871,
				"z": 5.3607595484,
				"element": "C" 
			},
			{
				"x": 2.1059058518,
				"y": -0.6500097872,
				"z": 4.3465345452,
				"element": "C" 
			},
			{
				"x": 1.6648536291,
				"y": -0.5116034763,
				"z": 3.0310081562,
				"element": "C" 
			},
			{
				"x": -1.8042831492,
				"y": 2.862460341,
				"z": 0.6463028928,
				"element": "H" 
			},
			{
				"x": -2.7990722978,
				"y": 2.361429858,
				"z": -0.7361387034,
				"element": "H" 
			},
			{
				"x": -2.7679493616,
				"y": 1.376605541,
				"z": 0.7424900131,
				"element": "H" 
			},
			{
				"x": -0.3697497163,
				"y": 1.8863836911,
				"z": -1.1177185529,
				"element": "H" 
			},
			{
				"x": -2.4431697127,
				"y": -0.0444817993,
				"z": -1.3714365239,
				"element": "H" 
			},
			{
				"x": 2.8698366764,
				"y": 0.7942078642,
				"z": -2.5516618062,
				"element": "H" 
			},
			{
				"x": 3.0977491515,
				"y": -0.5219555261,
				"z": -1.3861421238,
				"element": "H" 
			},
			{
				"x": 3.7612118464,
				"y": -0.6664561696,
				"z": -3.0259621668,
				"element": "H" 
			},
			{
				"x": 1.2672592899,
				"y": 0.5180867706,
				"z": -4.4875974785,
				"element": "H" 
			},
			{
				"x": 0.3903576217,
				"y": -1.0127381535,
				"z": -4.7176609044,
				"element": "H" 
			},
			{
				"x": 2.1399566044,
				"y": -0.929455615,
				"z": -5.0176540739,
				"element": "H" 
			},
			{
				"x": 2.4693111247,
				"y": -2.8937373482,
				"z": -3.2913752826,
				"element": "H" 
			},
			{
				"x": 1.8299148192,
				"y": -2.6929936483,
				"z": -1.6526583856,
				"element": "H" 
			},
			{
				"x": 0.7126841872,
				"y": -2.9188953005,
				"z": -3.0185805267,
				"element": "H" 
			},
			{
				"x": -1.2171991899,
				"y": -0.8917119283,
				"z": 1.1939613595,
				"element": "H" 
			},
			{
				"x": 0.3881133124,
				"y": -1.2239360537,
				"z": 0.6095188009,
				"element": "H" 
			},
			{
				"x": -1.6304741785,
				"y": -1.1898381626,
				"z": 3.4956570005,
				"element": "H" 
			},
			{
				"x": -0.8503365103,
				"y": -1.437569404,
				"z": 5.8300821015,
				"element": "H" 
			},
			{
				"x": 1.551025096,
				"y": -1.0931597784,
				"z": 6.3846857804,
				"element": "H" 
			},
			{
				"x": 3.1557139966,
				"y": -0.4966807211,
				"z": 4.5806339962,
				"element": "H" 
			},
			{
				"x": 2.3688452915,
				"y": -0.2427289614,
				"z": 2.2501949806,
				"element": "H" 
			}
		],
		 "valence_orbital": [ 
			{
				"type": "occ",
				"energy": -0.27676,
				"method": "rhf"
			},
			{
				"type": "occ",
				"energy": -0.268,
				"method": "rhf"
			},
			{
				"type": "occ",
				"energy": -0.24962,
				"method": "rhf"
			},
			{
				"type": "occ",
				"energy": -0.24189,
				"method": "rhf"
			},
			{
				"type": "occ",
				"energy": -0.231,
				"method": "rhf"
			},
			{
				"type": "unocc",
				"energy": -0.01865,
				"method": "rhf"
			},
			{
				"type": "unocc",
				"energy": 0.00268,
				"method": "rhf"
			},
			{
				"type": "unocc",
				"energy": 0.00583,
				"method": "rhf"
			},
			{
				"type": "unocc",
				"energy": 0.04576,
				"method": "rhf"
			},
			{
				"type": "unocc",
				"energy": 0.06625,
				"method": "rhf"
			}
		],
		"cosmo_sigma_profile": { 
			"-0.025": 0.0,
			"-0.024": 0.0,
			"-0.023": 0.0,
			"-0.022": 0.0,
			"-0.021": 0.0,
			"-0.02": 0.0,
			"-0.019": 0.0,
			"-0.018": 0.0,
			"-0.017": 0.0,
			"-0.016": 0.0,
			"-0.015": 0.0,
			"-0.014": 0.289496652642,
			"-0.013": 1.01442071632,
			"-0.012": 0.644417464693,
			"-0.011": 0.928060392528,
			"-0.01": 1.36392494326,
			"-0.009": 1.10407123544,
			"-0.008": 1.07817041624,
			"-0.007": 1.81121744783,
			"-0.006": 8.31686591947,
			"-0.005": 22.4544809893,
			"-0.004": 34.0827803833,
			"-0.003": 39.3202969427,
			"-0.002": 34.1064283068,
			"-0.001": 34.873342006,
			"0.0": 34.9916458387,
			"0.001": 25.5708654417,
			"0.002": 12.1859206581,
			"0.003": 13.1487290244,
			"0.004": 11.3206059833,
			"0.005": 10.7740568676,
			"0.006": 11.2671290223,
			"0.007": 7.00134843016,
			"0.008": 3.11060049981,
			"0.009": 2.87364012815,
			"0.01": 4.03782476569,
			"0.011": 4.98116000393,
			"0.012": 5.60476833878,
			"0.013": 4.2296374925,
			"0.014": 1.81638328542,
			"0.015": 0.0,
			"0.016": 0.0,
			"0.017": 0.0,
			"0.018": 0.0,
			"0.019": 0.0,
			"0.02": 0.0,
			"0.021": 0.0,
			"0.022": 0.0,
			"0.023": 0.0,
			"0.024": 0.0,
			"0.025": 0.0
		}
	}
}
