{
	 "smiles": "CC(C)=CCC1=CC=C(O)C(=O)C=C1C(C)=C", 
	 "Tm": 344.65, 
	 "num_atms": 35, 
	 "gaussian": { 
		 "optdone": 1, 
		 "sigma_profile": "yes", 
		 "theory": "DFT", 
		 "functional": "B3LYP", 
		 "basiset": "6-31G**", 
		 "properties": { 
			 "R2extent": 5903.3186, 
			 "electric_dipole_moment_norm": 4.68076004619, 
			 "electric_quadrupole_moment_norm": 7.84371287848, 
			 "total_energy": -732.840359533, 
			 "HOMO_LUMO_gap": 0.14852, 
			 "cosmo_polarized_energy": -9.51, 
			 "cosmo_cavitation_energy": 37.93, 
			 "cosmo_dispersion_energy": -25.38, 
			 "cosmo_repulsion_energy": 1.98, 
			 "cosmo_total_nonelectrostatic_energy": 14.52, 
			 "SMD_solvation_energy": 8.03 
		},
		"coords": [
			{
				"x": 1.0224133341,
				"y": 2.7106626503,
				"z": 4.5613314502,
				"element": "C" 
			},
			{
				"x": 1.7657962463,
				"y": 1.8206838886,
				"z": 3.5932475552,
				"element": "C" 
			},
			{
				"x": 2.4975478799,
				"y": 0.6680115094,
				"z": 4.2360211199,
				"element": "C" 
			},
			{
				"x": 1.75939612,
				"y": 2.086516074,
				"z": 2.2770788158,
				"element": "C" 
			},
			{
				"x": 2.4743186178,
				"y": 1.3367889526,
				"z": 1.1706654561,
				"element": "C" 
			},
			{
				"x": 1.6657092118,
				"y": 1.2609468448,
				"z": -0.1268317463,
				"element": "C" 
			},
			{
				"x": 1.7013482283,
				"y": 2.4008678309,
				"z": -0.9138534409,
				"element": "C" 
			},
			{
				"x": 1.0955201043,
				"y": 2.7307105424,
				"z": -2.1440267335,
				"element": "C" 
			},
			{
				"x": 0.2848158242,
				"y": 1.9599347608,
				"z": -2.9426374679,
				"element": "C" 
			},
			{
				"x": -0.1906751379,
				"y": 2.4545281322,
				"z": -4.0843800062,
				"element": "O" 
			},
			{
				"x": -0.1677539406,
				"y": 0.5714654356,
				"z": -2.7261683304,
				"element": "C" 
			},
			{
				"x": -0.8988881005,
				"y": 0.1142268932,
				"z": -3.6364364217,
				"element": "O" 
			},
			{
				"x": 0.1851717199,
				"y": -0.2070759149,
				"z": -1.5736060829,
				"element": "C" 
			},
			{
				"x": 0.9507875146,
				"y": 0.0573230901,
				"z": -0.4518455706,
				"element": "C" 
			},
			{
				"x": 0.9968112565,
				"y": -1.0943182045,
				"z": 0.5244657863,
				"element": "C" 
			},
			{
				"x": -0.0040857451,
				"y": -1.0447540096,
				"z": 1.6542129482,
				"element": "C" 
			},
			{
				"x": 1.8367635872,
				"y": -2.1178801054,
				"z": 0.3396947797,
				"element": "C" 
			},
			{
				"x": 0.2734531894,
				"y": 2.1400944432,
				"z": 5.1262739204,
				"element": "H" 
			},
			{
				"x": 1.7064508556,
				"y": 3.1431712889,
				"z": 5.3035052198,
				"element": "H" 
			},
			{
				"x": 0.5110082285,
				"y": 3.5320831393,
				"z": 4.0522968518,
				"element": "H" 
			},
			{
				"x": 1.8118996268,
				"y": 0.0659272637,
				"z": 4.8459570458,
				"element": "H" 
			},
			{
				"x": 2.9803185851,
				"y": 0.0043565461,
				"z": 3.5165089432,
				"element": "H" 
			},
			{
				"x": 3.2727570039,
				"y": 1.0399032491,
				"z": 4.9189209379,
				"element": "H" 
			},
			{
				"x": 1.2037000122,
				"y": 2.9631717511,
				"z": 1.9429748277,
				"element": "H" 
			},
			{
				"x": 2.7574625596,
				"y": 0.3348048246,
				"z": 1.4942324544,
				"element": "H" 
			},
			{
				"x": 3.4143657596,
				"y": 1.8600403214,
				"z": 0.9440397791,
				"element": "H" 
			},
			{
				"x": 2.3155886855,
				"y": 3.205885726,
				"z": -0.5130860092,
				"element": "H" 
			},
			{
				"x": 1.2984927198,
				"y": 3.7271102617,
				"z": -2.5283145282,
				"element": "H" 
			},
			{
				"x": -0.719766648,
				"y": 1.685586825,
				"z": -4.4348052834,
				"element": "H" 
			},
			{
				"x": -0.2607449046,
				"y": -1.1971914854,
				"z": -1.621644955,
				"element": "H" 
			},
			{
				"x": 0.1092569951,
				"y": -0.1296925597,
				"z": 2.2452913431,
				"element": "H" 
			},
			{
				"x": -1.0260752402,
				"y": -1.0387642738,
				"z": 1.2551211092,
				"element": "H" 
			},
			{
				"x": 0.1030833113,
				"y": -1.9086417814,
				"z": 2.3160228225,
				"element": "H" 
			},
			{
				"x": 2.5321426577,
				"y": -2.144283555,
				"z": -0.4938940975,
				"element": "H" 
			},
			{
				"x": 1.8509098819,
				"y": -2.9647003552,
				"z": 1.0206675073,
				"element": "H" 
			}
		],
		 "valence_orbital": [ 
			{
				"type": "occ",
				"energy": -0.27355,
				"method": "rhf"
			},
			{
				"type": "occ",
				"energy": -0.26737,
				"method": "rhf"
			},
			{
				"type": "occ",
				"energy": -0.25566,
				"method": "rhf"
			},
			{
				"type": "occ",
				"energy": -0.23941,
				"method": "rhf"
			},
			{
				"type": "occ",
				"energy": -0.21471,
				"method": "rhf"
			},
			{
				"type": "unocc",
				"energy": -0.06619,
				"method": "rhf"
			},
			{
				"type": "unocc",
				"energy": -0.05259,
				"method": "rhf"
			},
			{
				"type": "unocc",
				"energy": 0.01065,
				"method": "rhf"
			},
			{
				"type": "unocc",
				"energy": 0.01984,
				"method": "rhf"
			},
			{
				"type": "unocc",
				"energy": 0.08038,
				"method": "rhf"
			}
		],
		"cosmo_sigma_profile": { 
			"-0.025": 0.0,
			"-0.024": 0.0,
			"-0.023": 0.0,
			"-0.022": 0.0,
			"-0.021": 0.0,
			"-0.02": 0.0,
			"-0.019": 0.0,
			"-0.018": 0.0,
			"-0.017": 0.0,
			"-0.016": 0.0,
			"-0.015": 0.0,
			"-0.014": 0.0,
			"-0.013": 0.0,
			"-0.012": 0.0,
			"-0.011": 0.156089002288,
			"-0.01": 0.509277902324,
			"-0.009": 0.522548744011,
			"-0.008": 0.768496113105,
			"-0.007": 4.56114748255,
			"-0.006": 6.31981080328,
			"-0.005": 9.22110332902,
			"-0.004": 19.7956422412,
			"-0.003": 31.6739635655,
			"-0.002": 32.4057916123,
			"-0.001": 35.7646526027,
			"0.0": 49.0235545931,
			"0.001": 39.7797758608,
			"0.002": 22.855631899,
			"0.003": 10.7524290661,
			"0.004": 6.38147779177,
			"0.005": 4.10333145665,
			"0.006": 3.58026283106,
			"0.007": 2.98979799064,
			"0.008": 2.76229824536,
			"0.009": 2.10945148998,
			"0.01": 4.12008512099,
			"0.011": 1.69628041494,
			"0.012": 2.36309968404,
			"0.013": 2.678762272,
			"0.014": 1.9915386946,
			"0.015": 0.71317671068,
			"0.016": 0.0,
			"0.017": 0.0,
			"0.018": 0.0,
			"0.019": 0.0,
			"0.02": 0.0,
			"0.021": 0.0,
			"0.022": 0.0,
			"0.023": 0.0,
			"0.024": 0.0,
			"0.025": 0.0
		}
	}
}
