{
	 "smiles": "OC(=O)C1=CN(CC2=CC(F)=CC=C2)N=N1", 
	 "Tm": 463.15, 
	 "num_atms": 24, 
	 "gaussian": { 
		 "optdone": 1, 
		 "sigma_profile": "yes", 
		 "theory": "DFT", 
		 "functional": "B3LYP", 
		 "basiset": "6-31G**", 
		 "properties": { 
			 "R2extent": 6583.7177, 
			 "electric_dipole_moment_norm": 8.81264220368, 
			 "electric_quadrupole_moment_norm": 37.1366953617, 
			 "total_energy": -800.379177663, 
			 "HOMO_LUMO_gap": 0.22552, 
			 "cosmo_polarized_energy": -26.71, 
			 "cosmo_cavitation_energy": 30.88, 
			 "cosmo_dispersion_energy": -21.54, 
			 "cosmo_repulsion_energy": 1.66, 
			 "cosmo_total_nonelectrostatic_energy": 11.0, 
			 "SMD_solvation_energy": 5.66 
		},
		"coords": [
			{
				"x": -1.1845753496,
				"y": 3.962397066,
				"z": -0.6889490058,
				"element": "O" 
			},
			{
				"x": -2.422968573,
				"y": 3.4855800603,
				"z": -0.3653140756,
				"element": "C" 
			},
			{
				"x": -3.193739947,
				"y": 4.1557742755,
				"z": 0.2695655901,
				"element": "O" 
			},
			{
				"x": -2.7244649324,
				"y": 2.1254374174,
				"z": -0.8852415704,
				"element": "C" 
			},
			{
				"x": -2.1979272516,
				"y": 1.4591394992,
				"z": -1.979263315,
				"element": "C" 
			},
			{
				"x": -2.8751651449,
				"y": 0.2902518417,
				"z": -2.0180478044,
				"element": "N" 
			},
			{
				"x": -2.7425811618,
				"y": -0.8372192142,
				"z": -2.9413094926,
				"element": "C" 
			},
			{
				"x": -1.4443266934,
				"y": -1.6003062011,
				"z": -2.7654936507,
				"element": "C" 
			},
			{
				"x": -1.1125841385,
				"y": -2.1304567981,
				"z": -1.5119179414,
				"element": "C" 
			},
			{
				"x": 0.0720672216,
				"y": -2.8413947109,
				"z": -1.3784271246,
				"element": "C" 
			},
			{
				"x": 0.3919434534,
				"y": -3.3503125956,
				"z": -0.1735824561,
				"element": "F" 
			},
			{
				"x": 0.9404695129,
				"y": -3.0495801323,
				"z": -2.4472776007,
				"element": "C" 
			},
			{
				"x": 0.5999027355,
				"y": -2.5200647826,
				"z": -3.6902562829,
				"element": "C" 
			},
			{
				"x": -0.584519498,
				"y": -1.7952343869,
				"z": -3.8508500212,
				"element": "C" 
			},
			{
				"x": -3.7688397501,
				"y": 0.2253560686,
				"z": -0.9939477204,
				"element": "N" 
			},
			{
				"x": -3.6845381542,
				"y": 1.3302253201,
				"z": -0.3211016186,
				"element": "N" 
			},
			{
				"x": -0.624081382,
				"y": 3.2435618907,
				"z": -1.012880661,
				"element": "H" 
			},
			{
				"x": -1.4552067787,
				"y": 1.7215974599,
				"z": -2.7175141308,
				"element": "H" 
			},
			{
				"x": -2.8351869356,
				"y": -0.4640466984,
				"z": -3.9651008342,
				"element": "H" 
			},
			{
				"x": -3.6087391499,
				"y": -1.4709968533,
				"z": -2.7332593578,
				"element": "H" 
			},
			{
				"x": -1.759118316,
				"y": -1.9943963586,
				"z": -0.6507029932,
				"element": "H" 
			},
			{
				"x": 1.8539387289,
				"y": -3.6132323091,
				"z": -2.2929844412,
				"element": "H" 
			},
			{
				"x": 1.262318883,
				"y": -2.6693687737,
				"z": -4.5373129913,
				"element": "H" 
			},
			{
				"x": -0.8408773785,
				"y": -1.3861110846,
				"z": -4.8242305001,
				"element": "H" 
			}
		],
		 "valence_orbital": [ 
			{
				"type": "occ",
				"energy": -0.28794,
				"method": "rhf"
			},
			{
				"type": "occ",
				"energy": -0.2873,
				"method": "rhf"
			},
			{
				"type": "occ",
				"energy": -0.27874,
				"method": "rhf"
			},
			{
				"type": "occ",
				"energy": -0.27441,
				"method": "rhf"
			},
			{
				"type": "occ",
				"energy": -0.2674,
				"method": "rhf"
			},
			{
				"type": "unocc",
				"energy": -0.04188,
				"method": "rhf"
			},
			{
				"type": "unocc",
				"energy": -0.03858,
				"method": "rhf"
			},
			{
				"type": "unocc",
				"energy": -0.02516,
				"method": "rhf"
			},
			{
				"type": "unocc",
				"energy": -0.01747,
				"method": "rhf"
			},
			{
				"type": "unocc",
				"energy": 0.0519,
				"method": "rhf"
			}
		],
		"cosmo_sigma_profile": { 
			"-0.025": 0.0,
			"-0.024": 0.0,
			"-0.023": 0.0,
			"-0.022": 0.0,
			"-0.021": 0.0,
			"-0.02": 0.0135867895841,
			"-0.019": 0.954541316519,
			"-0.018": 1.4223344311,
			"-0.017": 1.46246277731,
			"-0.016": 0.659193595579,
			"-0.015": 1.12024980272,
			"-0.014": 1.84428646923,
			"-0.013": 1.3045783843,
			"-0.012": 2.48095198547,
			"-0.011": 2.48622017813,
			"-0.01": 2.2098948901,
			"-0.009": 4.04119688433,
			"-0.008": 8.64774173227,
			"-0.007": 10.2566849285,
			"-0.006": 13.2568286217,
			"-0.005": 14.305265315,
			"-0.004": 13.7663172807,
			"-0.003": 12.3289426321,
			"-0.002": 13.4284953869,
			"-0.001": 12.3502953472,
			"0.0": 12.2363246286,
			"0.001": 15.7240846962,
			"0.002": 13.9597139629,
			"0.003": 14.9143639391,
			"0.004": 17.8340066513,
			"0.005": 6.38494577544,
			"0.006": 3.6935425354,
			"0.007": 4.17707288381,
			"0.008": 5.0960999331,
			"0.009": 7.05927648205,
			"0.01": 9.45003799079,
			"0.011": 7.81360174304,
			"0.012": 7.39807904111,
			"0.013": 2.53583735116,
			"0.014": 1.23876827698,
			"0.015": 0.364693819333,
			"0.016": 0.0,
			"0.017": 0.0,
			"0.018": 0.0,
			"0.019": 0.0,
			"0.02": 0.0,
			"0.021": 0.0,
			"0.022": 0.0,
			"0.023": 0.0,
			"0.024": 0.0,
			"0.025": 0.0
		}
	}
}
