{
	 "smiles": "CC(=O)NC1=CSC=C1", 
	 "Tm": 420.15, 
	 "num_atms": 16, 
	 "gaussian": { 
		 "optdone": 1, 
		 "sigma_profile": "yes", 
		 "theory": "DFT", 
		 "functional": "B3LYP", 
		 "basiset": "6-31G**", 
		 "properties": { 
			 "R2extent": 2706.239, 
			 "electric_dipole_moment_norm": 3.10602738397, 
			 "electric_quadrupole_moment_norm": 4.77255727257, 
			 "total_energy": -761.019972213, 
			 "HOMO_LUMO_gap": 0.20041, 
			 "cosmo_polarized_energy": -12.15, 
			 "cosmo_cavitation_energy": 21.63, 
			 "cosmo_dispersion_energy": -16.86, 
			 "cosmo_repulsion_energy": 1.33, 
			 "cosmo_total_nonelectrostatic_energy": 6.09, 
			 "SMD_solvation_energy": 4.84 
		},
		"coords": [
			{
				"x": 1.0038655475,
				"y": -0.5786523727,
				"z": 1.4534675301,
				"element": "C" 
			},
			{
				"x": -0.2277093891,
				"y": 0.1867482722,
				"z": 0.9904774339,
				"element": "C" 
			},
			{
				"x": -0.7140716457,
				"y": 1.0854649459,
				"z": 1.6614508147,
				"element": "O" 
			},
			{
				"x": -0.729261778,
				"y": -0.2204559753,
				"z": -0.2269856721,
				"element": "N" 
			},
			{
				"x": -1.8486776122,
				"y": 0.2939869932,
				"z": -0.9068797997,
				"element": "C" 
			},
			{
				"x": -2.2492114889,
				"y": -0.2013634389,
				"z": -2.1251107418,
				"element": "C" 
			},
			{
				"x": -3.6522868177,
				"y": 0.624960196,
				"z": -2.7163363882,
				"element": "S" 
			},
			{
				"x": -3.6962365109,
				"y": 1.6414759718,
				"z": -1.3132559177,
				"element": "C" 
			},
			{
				"x": -2.6873508345,
				"y": 1.3614765652,
				"z": -0.4372205418,
				"element": "C" 
			},
			{
				"x": 1.8180620196,
				"y": 0.1339594213,
				"z": 1.6105853142,
				"element": "H" 
			},
			{
				"x": 0.7845107392,
				"y": -1.0396148185,
				"z": 2.420381543,
				"element": "H" 
			},
			{
				"x": 1.340367155,
				"y": -1.3540313058,
				"z": 0.759527921,
				"element": "H" 
			},
			{
				"x": -0.2446589452,
				"y": -0.9733767811,
				"z": -0.6917653423,
				"element": "H" 
			},
			{
				"x": -1.8004187243,
				"y": -0.9988087898,
				"z": -2.701156129,
				"element": "H" 
			},
			{
				"x": -4.4680380465,
				"y": 2.3917349542,
				"z": -1.2141397076,
				"element": "H" 
			},
			{
				"x": -2.5196836681,
				"y": 1.8676961623,
				"z": 0.5013596833,
				"element": "H" 
			}
		],
		 "valence_orbital": [ 
			{
				"type": "occ",
				"energy": -0.34544,
				"method": "rhf"
			},
			{
				"type": "occ",
				"energy": -0.30587,
				"method": "rhf"
			},
			{
				"type": "occ",
				"energy": -0.2544,
				"method": "rhf"
			},
			{
				"type": "occ",
				"energy": -0.24171,
				"method": "rhf"
			},
			{
				"type": "occ",
				"energy": -0.21412,
				"method": "rhf"
			},
			{
				"type": "unocc",
				"energy": -0.01371,
				"method": "rhf"
			},
			{
				"type": "unocc",
				"energy": 0.01901,
				"method": "rhf"
			},
			{
				"type": "unocc",
				"energy": 0.03253,
				"method": "rhf"
			},
			{
				"type": "unocc",
				"energy": 0.06066,
				"method": "rhf"
			},
			{
				"type": "unocc",
				"energy": 0.09719,
				"method": "rhf"
			}
		],
		"cosmo_sigma_profile": { 
			"-0.025": 0.0,
			"-0.024": 0.0,
			"-0.023": 0.0,
			"-0.022": 0.0,
			"-0.021": 0.0,
			"-0.02": 0.0,
			"-0.019": 0.0,
			"-0.018": 0.0,
			"-0.017": 0.0,
			"-0.016": 0.144434916449,
			"-0.015": 1.35196309335,
			"-0.014": 1.09331667661,
			"-0.013": 1.78954729253,
			"-0.012": 0.877944747442,
			"-0.011": 1.73437257621,
			"-0.01": 2.20782668746,
			"-0.009": 2.05603555649,
			"-0.008": 5.00665214916,
			"-0.007": 4.95542704536,
			"-0.006": 6.77559366609,
			"-0.005": 8.79105755513,
			"-0.004": 10.0797557134,
			"-0.003": 12.8950485429,
			"-0.002": 12.6160999912,
			"-0.001": 11.8213295135,
			"0.0": 8.01122865928,
			"0.001": 8.77938249664,
			"0.002": 10.5145459699,
			"0.003": 13.2717564486,
			"0.004": 17.0331034553,
			"0.005": 13.8906238822,
			"0.006": 2.95220194549,
			"0.007": 2.36827376458,
			"0.008": 1.22883710176,
			"0.009": 1.20539714161,
			"0.01": 1.86477525472,
			"0.011": 1.68238505742,
			"0.012": 2.43137777051,
			"0.013": 2.82988174746,
			"0.014": 2.24464605148,
			"0.015": 0.502168909635,
			"0.016": 0.0,
			"0.017": 0.0,
			"0.018": 0.0,
			"0.019": 0.0,
			"0.02": 0.0,
			"0.021": 0.0,
			"0.022": 0.0,
			"0.023": 0.0,
			"0.024": 0.0,
			"0.025": 0.0
		}
	}
}
