{
	 "smiles": "CC1(C)OC(=O)C2(CC3=CC=CC=C3C2)C(=O)O1", 
	 "Tm": 431.15, 
	 "num_atms": 32, 
	 "gaussian": { 
		 "optdone": 1, 
		 "sigma_profile": "yes", 
		 "theory": "DFT", 
		 "functional": "B3LYP", 
		 "basiset": "6-31G**", 
		 "properties": { 
			 "R2extent": 4841.2177, 
			 "electric_dipole_moment_norm": 2.63992230946, 
			 "electric_quadrupole_moment_norm": 24.0461813912, 
			 "total_energy": -842.84709514, 
			 "HOMO_LUMO_gap": 0.21807, 
			 "cosmo_polarized_energy": -15.32, 
			 "cosmo_cavitation_energy": 34.19, 
			 "cosmo_dispersion_energy": -24.37, 
			 "cosmo_repulsion_energy": 1.86, 
			 "cosmo_total_nonelectrostatic_energy": 11.68, 
			 "SMD_solvation_energy": 7.3 
		},
		"coords": [
			{
				"x": 1.8305943722,
				"y": -3.748835093,
				"z": -0.4296091103,
				"element": "C" 
			},
			{
				"x": 0.6447778448,
				"y": -3.7154626694,
				"z": 0.5315605148,
				"element": "C" 
			},
			{
				"x": 0.4164763846,
				"y": -5.0435541796,
				"z": 1.2374339352,
				"element": "C" 
			},
			{
				"x": -0.5610028619,
				"y": -3.4456672517,
				"z": -0.1964380664,
				"element": "O" 
			},
			{
				"x": -0.977872834,
				"y": -2.1827293359,
				"z": -0.478679446,
				"element": "C" 
			},
			{
				"x": -1.8792849946,
				"y": -2.0284283571,
				"z": -1.2644665049,
				"element": "O" 
			},
			{
				"x": -0.2870654565,
				"y": -1.0245323935,
				"z": 0.2395595059,
				"element": "C" 
			},
			{
				"x": -1.3230356993,
				"y": 0.0873221425,
				"z": 0.6168662228,
				"element": "C" 
			},
			{
				"x": -0.6392706933,
				"y": 1.386544605,
				"z": 0.2708874051,
				"element": "C" 
			},
			{
				"x": -1.0331876529,
				"y": 2.6836196644,
				"z": 0.5950302328,
				"element": "C" 
			},
			{
				"x": -0.2628554497,
				"y": 3.7592603666,
				"z": 0.1448153584,
				"element": "C" 
			},
			{
				"x": 0.8851942186,
				"y": 3.5384933795,
				"z": -0.6224866048,
				"element": "C" 
			},
			{
				"x": 1.2774090578,
				"y": 2.2374690117,
				"z": -0.948857081,
				"element": "C" 
			},
			{
				"x": 0.5072347746,
				"y": 1.1682991518,
				"z": -0.4947549867,
				"element": "C" 
			},
			{
				"x": 0.7278251983,
				"y": -0.3048321246,
				"z": -0.7443651369,
				"element": "C" 
			},
			{
				"x": 0.4752418023,
				"y": -1.456428012,
				"z": 1.4901083038,
				"element": "C" 
			},
			{
				"x": 0.737707127,
				"y": -0.7100420723,
				"z": 2.3983910035,
				"element": "O" 
			},
			{
				"x": 0.8812501163,
				"y": -2.7544146567,
				"z": 1.5696673776,
				"element": "O" 
			},
			{
				"x": 1.673279096,
				"y": -4.5260472625,
				"z": -1.181278453,
				"element": "H" 
			},
			{
				"x": 2.7473998851,
				"y": -3.9668458687,
				"z": 0.1233760248,
				"element": "H" 
			},
			{
				"x": 1.9530495902,
				"y": -2.7930545899,
				"z": -0.9432210335,
				"element": "H" 
			},
			{
				"x": -0.4406213583,
				"y": -4.9578794353,
				"z": 1.9084723209,
				"element": "H" 
			},
			{
				"x": 0.2182290621,
				"y": -5.8268982536,
				"z": 0.5025031287,
				"element": "H" 
			},
			{
				"x": 1.3004485904,
				"y": -5.3101458961,
				"z": 1.8209916525,
				"element": "H" 
			},
			{
				"x": -2.226468556,
				"y": -0.0536287657,
				"z": 0.0155317215,
				"element": "H" 
			},
			{
				"x": -1.5960740668,
				"y": 0.0227275519,
				"z": 1.6731830534,
				"element": "H" 
			},
			{
				"x": -1.9222136438,
				"y": 2.8591160485,
				"z": 1.1948250925,
				"element": "H" 
			},
			{
				"x": -0.5553220533,
				"y": 4.7743640419,
				"z": 0.3976114141,
				"element": "H" 
			},
			{
				"x": 1.4790888546,
				"y": 4.3821311606,
				"z": -0.9619804048,
				"element": "H" 
			},
			{
				"x": 2.1724299101,
				"y": 2.0671639691,
				"z": -1.5417443583,
				"element": "H" 
			},
			{
				"x": 0.4845700947,
				"y": -0.5709566174,
				"z": -1.7802749626,
				"element": "H" 
			},
			{
				"x": 1.7630693406,
				"y": -0.6107282585,
				"z": -0.5614581192,
				"element": "H" 
			}
		],
		 "valence_orbital": [ 
			{
				"type": "occ",
				"energy": -0.30731,
				"method": "rhf"
			},
			{
				"type": "occ",
				"energy": -0.29621,
				"method": "rhf"
			},
			{
				"type": "occ",
				"energy": -0.27406,
				"method": "rhf"
			},
			{
				"type": "occ",
				"energy": -0.24821,
				"method": "rhf"
			},
			{
				"type": "occ",
				"energy": -0.23769,
				"method": "rhf"
			},
			{
				"type": "unocc",
				"energy": -0.01962,
				"method": "rhf"
			},
			{
				"type": "unocc",
				"energy": -0.0079,
				"method": "rhf"
			},
			{
				"type": "unocc",
				"energy": -0.00149,
				"method": "rhf"
			},
			{
				"type": "unocc",
				"energy": 0.00725,
				"method": "rhf"
			},
			{
				"type": "unocc",
				"energy": 0.07262,
				"method": "rhf"
			}
		],
		"cosmo_sigma_profile": { 
			"-0.025": 0.0,
			"-0.024": 0.0,
			"-0.023": 0.0,
			"-0.022": 0.0,
			"-0.021": 0.0,
			"-0.02": 0.0,
			"-0.019": 0.0,
			"-0.018": 0.0,
			"-0.017": 0.0,
			"-0.016": 0.0,
			"-0.015": 0.0,
			"-0.014": 0.0,
			"-0.013": 0.0,
			"-0.012": 0.0,
			"-0.011": 0.0401527748886,
			"-0.01": 0.613130694699,
			"-0.009": 1.30353620386,
			"-0.008": 3.70250644262,
			"-0.007": 5.32932026728,
			"-0.006": 19.5700994692,
			"-0.005": 26.8474279166,
			"-0.004": 27.3163080735,
			"-0.003": 28.3050896743,
			"-0.002": 25.2511333102,
			"-0.001": 19.0465345327,
			"0.0": 9.96572600013,
			"0.001": 11.0045648433,
			"0.002": 9.65180492541,
			"0.003": 10.770865829,
			"0.004": 9.93620348221,
			"0.005": 12.1851385182,
			"0.006": 11.3387291702,
			"0.007": 5.57283684206,
			"0.008": 5.33967106207,
			"0.009": 6.82826997785,
			"0.01": 7.36700699506,
			"0.011": 9.99927943833,
			"0.012": 3.39763128436,
			"0.013": 0.142517971141,
			"0.014": 0.0,
			"0.015": 0.0,
			"0.016": 0.0,
			"0.017": 0.0,
			"0.018": 0.0,
			"0.019": 0.0,
			"0.02": 0.0,
			"0.021": 0.0,
			"0.022": 0.0,
			"0.023": 0.0,
			"0.024": 0.0,
			"0.025": 0.0
		}
	}
}
