{
	 "smiles": "OC(=O)C=CC1=CC=C(OCC2=NC=CC=C2)C=C1", 
	 "Tm": 484.15, 
	 "num_atms": 32, 
	 "gaussian": { 
		 "optdone": 1, 
		 "sigma_profile": "yes", 
		 "theory": "DFT", 
		 "functional": "B3LYP", 
		 "basiset": "6-31G**", 
		 "properties": { 
			 "R2extent": 8857.1457, 
			 "electric_dipole_moment_norm": 4.72413490917, 
			 "electric_quadrupole_moment_norm": 25.1798334204, 
			 "total_energy": -859.835681693, 
			 "HOMO_LUMO_gap": 0.15821, 
			 "cosmo_polarized_energy": -14.89, 
			 "cosmo_cavitation_energy": 37.32, 
			 "cosmo_dispersion_energy": -26.56, 
			 "cosmo_repulsion_energy": 2.05, 
			 "cosmo_total_nonelectrostatic_energy": 12.81, 
			 "SMD_solvation_energy": 6.58 
		},
		"coords": [
			{
				"x": -2.2236996188,
				"y": -4.5451785173,
				"z": 2.8352574324,
				"element": "O" 
			},
			{
				"x": -1.386715387,
				"y": -5.5906081994,
				"z": 2.5973325071,
				"element": "C" 
			},
			{
				"x": -1.336370965,
				"y": -6.5395084,
				"z": 3.3597360087,
				"element": "O" 
			},
			{
				"x": -0.5990591852,
				"y": -5.5284408679,
				"z": 1.3552004221,
				"element": "C" 
			},
			{
				"x": -0.4056417564,
				"y": -4.5691866739,
				"z": 0.4184754488,
				"element": "C" 
			},
			{
				"x": -0.7899345172,
				"y": -3.1651308138,
				"z": 0.2590751317,
				"element": "C" 
			},
			{
				"x": -0.7201578234,
				"y": -2.6300774827,
				"z": -1.0413355741,
				"element": "C" 
			},
			{
				"x": -1.0389317398,
				"y": -1.3042463908,
				"z": -1.3227441565,
				"element": "C" 
			},
			{
				"x": -1.4190130191,
				"y": -0.4588544467,
				"z": -0.2726869249,
				"element": "C" 
			},
			{
				"x": -1.7574412545,
				"y": 0.8568353263,
				"z": -0.4108876177,
				"element": "O" 
			},
			{
				"x": -1.8141401132,
				"y": 1.4208810647,
				"z": -1.7202928517,
				"element": "C" 
			},
			{
				"x": -0.4512796812,
				"y": 1.7480679482,
				"z": -2.3035803754,
				"element": "C" 
			},
			{
				"x": -0.3511296978,
				"y": 1.6359943145,
				"z": -3.6356328878,
				"element": "N" 
			},
			{
				"x": 0.8183664039,
				"y": 1.9601202518,
				"z": -4.2023303991,
				"element": "C" 
			},
			{
				"x": 1.9307450639,
				"y": 2.3939145137,
				"z": -3.4815834651,
				"element": "C" 
			},
			{
				"x": 1.8184074252,
				"y": 2.4987371758,
				"z": -2.0947184192,
				"element": "C" 
			},
			{
				"x": 0.6057325272,
				"y": 2.1738548631,
				"z": -1.4917186918,
				"element": "C" 
			},
			{
				"x": -1.461610255,
				"y": -0.9589561126,
				"z": 1.0386091407,
				"element": "C" 
			},
			{
				"x": -1.1564343633,
				"y": -2.2845801767,
				"z": 1.2998867062,
				"element": "C" 
			},
			{
				"x": -2.6805719245,
				"y": -4.7730266062,
				"z": 3.6622247973,
				"element": "H" 
			},
			{
				"x": -0.1126065944,
				"y": -6.4829014446,
				"z": 1.1799117758,
				"element": "H" 
			},
			{
				"x": 0.1839637698,
				"y": -4.9213585662,
				"z": -0.4289750089,
				"element": "H" 
			},
			{
				"x": -0.4114821668,
				"y": -3.2745822454,
				"z": -1.8605976247,
				"element": "H" 
			},
			{
				"x": -0.9653187767,
				"y": -0.9414106523,
				"z": -2.3407741172,
				"element": "H" 
			},
			{
				"x": -2.3598052469,
				"y": 0.7748689547,
				"z": -2.4158813689,
				"element": "H" 
			},
			{
				"x": -2.394144816,
				"y": 2.3413198194,
				"z": -1.5944389736,
				"element": "H" 
			},
			{
				"x": 0.8676389118,
				"y": 1.8596754099,
				"z": -5.285161583,
				"element": "H" 
			},
			{
				"x": 2.8564836955,
				"y": 2.6362640846,
				"z": -3.9935865686,
				"element": "H" 
			},
			{
				"x": 2.6609815073,
				"y": 2.8288207522,
				"z": -1.4937947741,
				"element": "H" 
			},
			{
				"x": 0.470716725,
				"y": 2.2370345273,
				"z": -0.4172959911,
				"element": "H" 
			},
			{
				"x": -1.7404529389,
				"y": -0.2819655202,
				"z": 1.8396134239,
				"element": "H" 
			},
			{
				"x": -1.1979941885,
				"y": -2.6454758896,
				"z": 2.3175945785,
				"element": "H" 
			}
		],
		 "valence_orbital": [ 
			{
				"type": "occ",
				"energy": -0.26781,
				"method": "rhf"
			},
			{
				"type": "occ",
				"energy": -0.26687,
				"method": "rhf"
			},
			{
				"type": "occ",
				"energy": -0.26529,
				"method": "rhf"
			},
			{
				"type": "occ",
				"energy": -0.25574,
				"method": "rhf"
			},
			{
				"type": "occ",
				"energy": -0.21652,
				"method": "rhf"
			},
			{
				"type": "unocc",
				"energy": -0.05831,
				"method": "rhf"
			},
			{
				"type": "unocc",
				"energy": -0.03445,
				"method": "rhf"
			},
			{
				"type": "unocc",
				"energy": -0.02323,
				"method": "rhf"
			},
			{
				"type": "unocc",
				"energy": -0.00494,
				"method": "rhf"
			},
			{
				"type": "unocc",
				"energy": 0.02527,
				"method": "rhf"
			}
		],
		"cosmo_sigma_profile": { 
			"-0.025": 0.0,
			"-0.024": 0.0,
			"-0.023": 0.0,
			"-0.022": 0.0,
			"-0.021": 0.0,
			"-0.02": 0.0,
			"-0.019": 0.0,
			"-0.018": 0.252862150431,
			"-0.017": 0.897051060839,
			"-0.016": 0.720120313871,
			"-0.015": 0.948992577694,
			"-0.014": 0.839885435982,
			"-0.013": 0.754738605484,
			"-0.012": 0.354023037706,
			"-0.011": 0.748264969057,
			"-0.01": 1.12041222283,
			"-0.009": 0.496613940344,
			"-0.008": 0.828090544363,
			"-0.007": 11.6388896617,
			"-0.006": 20.5087147283,
			"-0.005": 23.4092045128,
			"-0.004": 21.4062761677,
			"-0.003": 17.6077839258,
			"-0.002": 17.69542479,
			"-0.001": 18.9692312725,
			"0.0": 19.9535042953,
			"0.001": 21.3044098099,
			"0.002": 29.8579323112,
			"0.003": 26.2194569607,
			"0.004": 18.7179475265,
			"0.005": 8.44592704728,
			"0.006": 5.14248221258,
			"0.007": 5.14607823609,
			"0.008": 3.93773750562,
			"0.009": 3.75711658888,
			"0.01": 3.07511560885,
			"0.011": 3.07531616006,
			"0.012": 5.72983579277,
			"0.013": 3.35971075191,
			"0.014": 1.10166050981,
			"0.015": 0.693219879591,
			"0.016": 0.16685460955,
			"0.017": 0.0,
			"0.018": 0.0,
			"0.019": 0.0,
			"0.02": 0.0,
			"0.021": 0.0,
			"0.022": 0.0,
			"0.023": 0.0,
			"0.024": 0.0,
			"0.025": 0.0
		}
	}
}
