{
	 "smiles": "CCCCCCCCCCOC1=CC=C(C=O)C=C1OCCCCCCCCCC", 
	 "Tm": 336.65, 
	 "num_atms": 76, 
	 "gaussian": { 
		 "optdone": 1, 
		 "sigma_profile": "yes", 
		 "theory": "DFT", 
		 "functional": "B3LYP", 
		 "basiset": "6-31G**", 
		 "properties": { 
			 "R2extent": 20951.837, 
			 "electric_dipole_moment_norm": 2.58918848483, 
			 "electric_quadrupole_moment_norm": 31.1308632487, 
			 "total_energy": -1282.29263379, 
			 "HOMO_LUMO_gap": 0.16825, 
			 "cosmo_polarized_energy": -10.13, 
			 "cosmo_cavitation_energy": 73.89, 
			 "cosmo_dispersion_energy": -44.72, 
			 "cosmo_repulsion_energy": 3.55, 
			 "cosmo_total_nonelectrostatic_energy": 32.73, 
			 "SMD_solvation_energy": 11.6 
		},
		"coords": [
			{
				"x": 1.2355480668,
				"y": 0.6935175214,
				"z": 6.1809075097,
				"element": "C" 
			},
			{
				"x": 2.7492461741,
				"y": 0.5413036255,
				"z": 5.9902359965,
				"element": "C" 
			},
			{
				"x": 3.2016215551,
				"y": -0.8819166869,
				"z": 5.6171871723,
				"element": "C" 
			},
			{
				"x": 2.6701653362,
				"y": -1.4282540071,
				"z": 4.2794979213,
				"element": "C" 
			},
			{
				"x": 3.1376470646,
				"y": -0.6388541469,
				"z": 3.0476506232,
				"element": "C" 
			},
			{
				"x": 2.7853043995,
				"y": -1.2599179311,
				"z": 1.6832057607,
				"element": "C" 
			},
			{
				"x": 1.2764818477,
				"y": -1.3414282802,
				"z": 1.3525888749,
				"element": "C" 
			},
			{
				"x": 0.5784264759,
				"y": -2.6676576113,
				"z": 1.718218533,
				"element": "C" 
			},
			{
				"x": 0.9881272114,
				"y": -3.9009468305,
				"z": 0.890815642,
				"element": "C" 
			},
			{
				"x": 0.4602403279,
				"y": -3.9563761291,
				"z": -0.5378847499,
				"element": "C" 
			},
			{
				"x": 1.1485154435,
				"y": -2.9685862832,
				"z": -1.3384873191,
				"element": "O" 
			},
			{
				"x": 0.993007567,
				"y": -3.0332121877,
				"z": -2.694282402,
				"element": "C" 
			},
			{
				"x": 2.13109222,
				"y": -3.2458915897,
				"z": -3.4723808296,
				"element": "C" 
			},
			{
				"x": 2.0503771248,
				"y": -3.2655766179,
				"z": -4.863450824,
				"element": "C" 
			},
			{
				"x": 0.8119880892,
				"y": -3.0788567835,
				"z": -5.4824120559,
				"element": "C" 
			},
			{
				"x": 0.7075017183,
				"y": -3.1011650599,
				"z": -6.9541070481,
				"element": "C" 
			},
			{
				"x": -0.3251092383,
				"y": -2.942027628,
				"z": -7.5809634718,
				"element": "O" 
			},
			{
				"x": -0.3413064944,
				"y": -2.8561841886,
				"z": -4.7101363335,
				"element": "C" 
			},
			{
				"x": -0.2662392955,
				"y": -2.8243883151,
				"z": -3.3212299116,
				"element": "C" 
			},
			{
				"x": -1.315193171,
				"y": -2.6012424219,
				"z": -2.4792106574,
				"element": "O" 
			},
			{
				"x": -2.6135886018,
				"y": -2.3093841656,
				"z": -3.0192000179,
				"element": "C" 
			},
			{
				"x": -2.7975047348,
				"y": -0.8600651515,
				"z": -3.4769902883,
				"element": "C" 
			},
			{
				"x": -2.8108603968,
				"y": 0.1959265088,
				"z": -2.3571686798,
				"element": "C" 
			},
			{
				"x": -1.444518908,
				"y": 0.4895748951,
				"z": -1.7178870147,
				"element": "C" 
			},
			{
				"x": -1.4907494808,
				"y": 1.5381854338,
				"z": -0.5919901264,
				"element": "C" 
			},
			{
				"x": -1.9350372623,
				"y": 2.955584259,
				"z": -1.000317533,
				"element": "C" 
			},
			{
				"x": -1.063231504,
				"y": 3.6484823336,
				"z": -2.0645910534,
				"element": "C" 
			},
			{
				"x": 0.4150290981,
				"y": 3.8562072305,
				"z": -1.6911872313,
				"element": "C" 
			},
			{
				"x": 0.6496508859,
				"y": 4.7684043569,
				"z": -0.4789625497,
				"element": "C" 
			},
			{
				"x": 2.1353547265,
				"y": 5.0201410253,
				"z": -0.2004917977,
				"element": "C" 
			},
			{
				"x": 0.8603867689,
				"y": -0.0051134342,
				"z": 6.938161793,
				"element": "H" 
			},
			{
				"x": 0.6849748262,
				"y": 0.5013519827,
				"z": 5.253986662,
				"element": "H" 
			},
			{
				"x": 0.9793301958,
				"y": 1.7065342517,
				"z": 6.5085425902,
				"element": "H" 
			},
			{
				"x": 3.0949560672,
				"y": 1.2534536152,
				"z": 5.2302579828,
				"element": "H" 
			},
			{
				"x": 3.2559949912,
				"y": 0.8294451082,
				"z": 6.9202623706,
				"element": "H" 
			},
			{
				"x": 2.899030299,
				"y": -1.566865022,
				"z": 6.4214919329,
				"element": "H" 
			},
			{
				"x": 4.2999479095,
				"y": -0.9070243619,
				"z": 5.5950049082,
				"element": "H" 
			},
			{
				"x": 3.0009099744,
				"y": -2.4713358673,
				"z": 4.1786616666,
				"element": "H" 
			},
			{
				"x": 1.5741441017,
				"y": -1.462619298,
				"z": 4.307637392,
				"element": "H" 
			},
			{
				"x": 4.2296163414,
				"y": -0.5228214816,
				"z": 3.1033157323,
				"element": "H" 
			},
			{
				"x": 2.7258514136,
				"y": 0.3789856014,
				"z": 3.0834431639,
				"element": "H" 
			},
			{
				"x": 3.2408955473,
				"y": -2.257013396,
				"z": 1.6123672731,
				"element": "H" 
			},
			{
				"x": 3.2799154148,
				"y": -0.6592528704,
				"z": 0.9100710533,
				"element": "H" 
			},
			{
				"x": 1.1348971698,
				"y": -1.1665897048,
				"z": 0.2825505275,
				"element": "H" 
			},
			{
				"x": 0.7569432473,
				"y": -0.5222826699,
				"z": 1.8691183916,
				"element": "H" 
			},
			{
				"x": 0.7562471277,
				"y": -2.8952692986,
				"z": 2.7756587281,
				"element": "H" 
			},
			{
				"x": -0.5077823116,
				"y": -2.5334334419,
				"z": 1.6187584459,
				"element": "H" 
			},
			{
				"x": 2.0790147629,
				"y": -4.0107066882,
				"z": 0.8659973637,
				"element": "H" 
			},
			{
				"x": 0.6029297488,
				"y": -4.7984632915,
				"z": 1.3930130602,
				"element": "H" 
			},
			{
				"x": 0.6531013854,
				"y": -4.9472494198,
				"z": -0.9712537474,
				"element": "H" 
			},
			{
				"x": -0.6180159729,
				"y": -3.7710879264,
				"z": -0.5692757028,
				"element": "H" 
			},
			{
				"x": 3.0737885437,
				"y": -3.3898344392,
				"z": -2.9548054849,
				"element": "H" 
			},
			{
				"x": 2.9404237512,
				"y": -3.4315376047,
				"z": -5.4646577785,
				"element": "H" 
			},
			{
				"x": 1.6713745415,
				"y": -3.2798118797,
				"z": -7.4812361325,
				"element": "H" 
			},
			{
				"x": -1.2717679311,
				"y": -2.6968841845,
				"z": -5.2413388291,
				"element": "H" 
			},
			{
				"x": -3.2989801737,
				"y": -2.5311574403,
				"z": -2.195178044,
				"element": "H" 
			},
			{
				"x": -2.8393262827,
				"y": -3.0089606597,
				"z": -3.833165247,
				"element": "H" 
			},
			{
				"x": -2.0338648517,
				"y": -0.6067297736,
				"z": -4.2221451523,
				"element": "H" 
			},
			{
				"x": -3.759523766,
				"y": -0.8289492044,
				"z": -4.0062786298,
				"element": "H" 
			},
			{
				"x": -3.5197689158,
				"y": -0.1176424996,
				"z": -1.5762616839,
				"element": "H" 
			},
			{
				"x": -3.2211020694,
				"y": 1.1219750233,
				"z": -2.7783847496,
				"element": "H" 
			},
			{
				"x": -1.0273877469,
				"y": -0.4382904535,
				"z": -1.3142223761,
				"element": "H" 
			},
			{
				"x": -0.7466045344,
				"y": 0.8129817135,
				"z": -2.5022112935,
				"element": "H" 
			},
			{
				"x": -0.4983563271,
				"y": 1.5889368862,
				"z": -0.1263367003,
				"element": "H" 
			},
			{
				"x": -2.1677214905,
				"y": 1.1792900956,
				"z": 0.1959129319,
				"element": "H" 
			},
			{
				"x": -2.96808126,
				"y": 2.9237857845,
				"z": -1.3698728941,
				"element": "H" 
			},
			{
				"x": -1.9699688023,
				"y": 3.5778738095,
				"z": -0.0971304742,
				"element": "H" 
			},
			{
				"x": -1.1107102805,
				"y": 3.0779481465,
				"z": -3.0011391461,
				"element": "H" 
			},
			{
				"x": -1.5095959246,
				"y": 4.6266555277,
				"z": -2.2909662056,
				"element": "H" 
			},
			{
				"x": 0.9331069856,
				"y": 4.2864183949,
				"z": -2.5593648055,
				"element": "H" 
			},
			{
				"x": 0.8966056813,
				"y": 2.8855265184,
				"z": -1.5105136481,
				"element": "H" 
			},
			{
				"x": 0.1854602725,
				"y": 4.330818265,
				"z": 0.4139658314,
				"element": "H" 
			},
			{
				"x": 0.1403105767,
				"y": 5.7277986417,
				"z": -0.6461265751,
				"element": "H" 
			},
			{
				"x": 2.6242031847,
				"y": 5.4961471999,
				"z": -1.0583691363,
				"element": "H" 
			},
			{
				"x": 2.6650936017,
				"y": 4.0817061081,
				"z": 0.0001442034,
				"element": "H" 
			},
			{
				"x": 2.2768179645,
				"y": 5.6729984634,
				"z": 0.6672342934,
				"element": "H" 
			}
		],
		 "valence_orbital": [ 
			{
				"type": "occ",
				"energy": -0.29228,
				"method": "rhf"
			},
			{
				"type": "occ",
				"energy": -0.28264,
				"method": "rhf"
			},
			{
				"type": "occ",
				"energy": -0.25,
				"method": "rhf"
			},
			{
				"type": "occ",
				"energy": -0.24867,
				"method": "rhf"
			},
			{
				"type": "occ",
				"energy": -0.22434,
				"method": "rhf"
			},
			{
				"type": "unocc",
				"energy": -0.05609,
				"method": "rhf"
			},
			{
				"type": "unocc",
				"energy": -0.00156,
				"method": "rhf"
			},
			{
				"type": "unocc",
				"energy": 0.04783,
				"method": "rhf"
			},
			{
				"type": "unocc",
				"energy": 0.06803,
				"method": "rhf"
			},
			{
				"type": "unocc",
				"energy": 0.07974,
				"method": "rhf"
			}
		],
		"cosmo_sigma_profile": { 
			"-0.025": 0.0,
			"-0.024": 0.0,
			"-0.023": 0.0,
			"-0.022": 0.0,
			"-0.021": 0.0,
			"-0.02": 0.0,
			"-0.019": 0.0,
			"-0.018": 0.0,
			"-0.017": 0.0,
			"-0.016": 0.0,
			"-0.015": 0.0,
			"-0.014": 0.0,
			"-0.013": 0.0,
			"-0.012": 0.0,
			"-0.011": 0.0,
			"-0.01": 0.0,
			"-0.009": 0.0,
			"-0.008": 0.418552822403,
			"-0.007": 4.8795748275,
			"-0.006": 9.29978219653,
			"-0.005": 12.1115812023,
			"-0.004": 19.1687637166,
			"-0.003": 30.6859827453,
			"-0.002": 68.0325131014,
			"-0.001": 104.420962758,
			"0.0": 108.254928512,
			"0.001": 98.731814043,
			"0.002": 54.740962539,
			"0.003": 18.9218400637,
			"0.004": 10.8159229313,
			"0.005": 6.56288938883,
			"0.006": 4.49221820888,
			"0.007": 2.20153680154,
			"0.008": 3.51609241383,
			"0.009": 2.36663378456,
			"0.01": 2.25298732064,
			"0.011": 3.76841868857,
			"0.012": 3.82503153608,
			"0.013": 1.44050742744,
			"0.014": 0.0989402578755,
			"0.015": 0.0,
			"0.016": 0.0,
			"0.017": 0.0,
			"0.018": 0.0,
			"0.019": 0.0,
			"0.02": 0.0,
			"0.021": 0.0,
			"0.022": 0.0,
			"0.023": 0.0,
			"0.024": 0.0,
			"0.025": 0.0
		}
	}
}
