{
	 "smiles": "FC(F)(F)C1=CC=C(CBr)C=C1", 
	 "Tm": 304.15, 
	 "num_atms": 18, 
	 "gaussian": { 
		 "optdone": 1, 
		 "sigma_profile": "yes", 
		 "theory": "DFT", 
		 "functional": "B3LYP", 
		 "basiset": "6-31G**", 
		 "properties": { 
			 "R2extent": 4231.1472, 
			 "electric_dipole_moment_norm": 2.27783272432, 
			 "electric_quadrupole_moment_norm": 13.6685936098, 
			 "total_energy": -3179.4058884, 
			 "HOMO_LUMO_gap": 0.20945, 
			 "cosmo_polarized_energy": -6.67, 
			 "cosmo_cavitation_energy": 26.09, 
			 "cosmo_dispersion_energy": -18.77, 
			 "cosmo_repulsion_energy": 1.45, 
			 "cosmo_total_nonelectrostatic_energy": 8.76, 
			 "SMD_solvation_energy": 4.36 
		},
		"coords": [
			{
				"x": -2.0149559496,
				"y": -1.5182686166,
				"z": -3.633569096,
				"element": "F" 
			},
			{
				"x": -1.9749264171,
				"y": -0.3760254563,
				"z": -2.9125379172,
				"element": "C" 
			},
			{
				"x": -1.8702959582,
				"y": 0.6522723682,
				"z": -3.7830968756,
				"element": "F" 
			},
			{
				"x": -3.1763450973,
				"y": -0.2539472319,
				"z": -2.3025882692,
				"element": "F" 
			},
			{
				"x": -0.8464142896,
				"y": -0.3826074319,
				"z": -1.9163315297,
				"element": "C" 
			},
			{
				"x": -0.2595741425,
				"y": 0.8218824519,
				"z": -1.519256045,
				"element": "C" 
			},
			{
				"x": 0.7506622801,
				"y": 0.8170225373,
				"z": -0.561628001,
				"element": "C" 
			},
			{
				"x": 1.1879661234,
				"y": -0.3854427765,
				"z": 0.0105606867,
				"element": "C" 
			},
			{
				"x": 2.2857759198,
				"y": -0.3887359354,
				"z": 1.0254882653,
				"element": "C" 
			},
			{
				"x": 1.5813415107,
				"y": -0.2145556833,
				"z": 2.8925532616,
				"element": "Br" 
			},
			{
				"x": 0.5903487503,
				"y": -1.5863576424,
				"z": -0.3959199431,
				"element": "C" 
			},
			{
				"x": -0.4203394441,
				"y": -1.588453067,
				"z": -1.3530669778,
				"element": "C" 
			},
			{
				"x": -0.5859899316,
				"y": 1.7544743939,
				"z": -1.9664049736,
				"element": "H" 
			},
			{
				"x": 1.2055551187,
				"y": 1.7545209815,
				"z": -0.2542827085,
				"element": "H" 
			},
			{
				"x": 2.8470275538,
				"y": -1.321238692,
				"z": 1.0341060492,
				"element": "H" 
			},
			{
				"x": 2.9646228011,
				"y": 0.4545265473,
				"z": 0.9127515351,
				"element": "H" 
			},
			{
				"x": 0.9200547785,
				"y": -2.5248697538,
				"z": 0.0408649161,
				"element": "H" 
			},
			{
				"x": -0.8712136066,
				"y": -2.5219969929,
				"z": -1.6715423773,
				"element": "H" 
			}
		],
		 "valence_orbital": [ 
			{
				"type": "occ",
				"energy": -0.36529,
				"method": "rhf"
			},
			{
				"type": "occ",
				"energy": -0.28408,
				"method": "rhf"
			},
			{
				"type": "occ",
				"energy": -0.28042,
				"method": "rhf"
			},
			{
				"type": "occ",
				"energy": -0.2728,
				"method": "rhf"
			},
			{
				"type": "occ",
				"energy": -0.26559,
				"method": "rhf"
			},
			{
				"type": "unocc",
				"energy": -0.05614,
				"method": "rhf"
			},
			{
				"type": "unocc",
				"energy": -0.0255,
				"method": "rhf"
			},
			{
				"type": "unocc",
				"energy": 0.01157,
				"method": "rhf"
			},
			{
				"type": "unocc",
				"energy": 0.07918,
				"method": "rhf"
			},
			{
				"type": "unocc",
				"energy": 0.10251,
				"method": "rhf"
			}
		],
		"cosmo_sigma_profile": { 
			"-0.025": 0.0,
			"-0.024": 0.0,
			"-0.023": 0.0,
			"-0.022": 0.0,
			"-0.021": 0.0,
			"-0.02": 0.0,
			"-0.019": 0.0,
			"-0.018": 0.0,
			"-0.017": 0.0,
			"-0.016": 0.0,
			"-0.015": 0.0,
			"-0.014": 0.0,
			"-0.013": 0.0,
			"-0.012": 0.0,
			"-0.011": 0.0,
			"-0.01": 0.0,
			"-0.009": 0.0627191884534,
			"-0.008": 6.18933399324,
			"-0.007": 11.1816365789,
			"-0.006": 12.2832106274,
			"-0.005": 11.7378033865,
			"-0.004": 9.48300046038,
			"-0.003": 9.0975639354,
			"-0.002": 9.87076342246,
			"-0.001": 11.7183362818,
			"0.0": 13.0966519839,
			"0.001": 17.813542546,
			"0.002": 28.2067955987,
			"0.003": 42.0958448308,
			"0.004": 8.53804496397,
			"0.005": 7.40956069041,
			"0.006": 11.4475394887,
			"0.007": 2.07320496389,
			"0.008": 0.0,
			"0.009": 0.0,
			"0.01": 0.0,
			"0.011": 0.0,
			"0.012": 0.0,
			"0.013": 0.0,
			"0.014": 0.0,
			"0.015": 0.0,
			"0.016": 0.0,
			"0.017": 0.0,
			"0.018": 0.0,
			"0.019": 0.0,
			"0.02": 0.0,
			"0.021": 0.0,
			"0.022": 0.0,
			"0.023": 0.0,
			"0.024": 0.0,
			"0.025": 0.0
		}
	}
}
