{
	 "smiles": "CC(C)C1=NC(I)=C2C=CC=CN12", 
	 "Tm": 358.15, 
	 "num_atms": 24, 
	 "gaussian": { 
		 "optdone": 1, 
		 "sigma_profile": "yes", 
		 "theory": "DFT", 
		 "functional": "B3LYP", 
		 "basiset": "6-31G**", 
		 "properties": { 
			 "R2extent": 2509.6456, 
			 "electric_dipole_moment_norm": 4.50598549931, 
			 "electric_quadrupole_moment_norm": 8.14044271892, 
			 "total_energy": -508.580809089, 
			 "HOMO_LUMO_gap": 0.1511, 
			 "cosmo_polarized_energy": -9.77, 
			 "cosmo_cavitation_energy": 29.88, 
			 "cosmo_dispersion_energy": -23.0, 
			 "cosmo_repulsion_energy": 1.8, 
			 "cosmo_total_nonelectrostatic_energy": 8.67, 
			 "SMD_solvation_energy": 2.61 
		},
		"coords": [
			{
				"x": 0.3121353717,
				"y": 1.4509453209,
				"z": 2.4348984388,
				"element": "C" 
			},
			{
				"x": -0.2910088884,
				"y": 1.9499378036,
				"z": 1.1054492094,
				"element": "C" 
			},
			{
				"x": -1.8206941067,
				"y": 2.1296278434,
				"z": 1.1945235185,
				"element": "C" 
			},
			{
				"x": 0.143651535,
				"y": 1.1375651904,
				"z": -0.0864707804,
				"element": "C" 
			},
			{
				"x": 0.8781657886,
				"y": 1.6317420341,
				"z": -1.0782714644,
				"element": "N" 
			},
			{
				"x": 1.0767037629,
				"y": 0.6331714286,
				"z": -1.9658712462,
				"element": "C" 
			},
			{
				"x": 2.1804833909,
				"y": 0.886563652,
				"z": -3.7233124898,
				"element": "I" 
			},
			{
				"x": 0.4613203658,
				"y": -0.5418810296,
				"z": -1.5518679358,
				"element": "C" 
			},
			{
				"x": 0.3224391722,
				"y": -1.8647147942,
				"z": -2.0373982964,
				"element": "C" 
			},
			{
				"x": -0.3910781133,
				"y": -2.7820743372,
				"z": -1.3138675655,
				"element": "C" 
			},
			{
				"x": -0.9917345739,
				"y": -2.3986828594,
				"z": -0.0724203104,
				"element": "C" 
			},
			{
				"x": -0.8642851683,
				"y": -1.1301037601,
				"z": 0.4030589126,
				"element": "C" 
			},
			{
				"x": -0.1441101899,
				"y": -0.1931539301,
				"z": -0.3208797203,
				"element": "N" 
			},
			{
				"x": -0.0692754042,
				"y": 0.4662089688,
				"z": 2.7248000647,
				"element": "H" 
			},
			{
				"x": 0.0646507335,
				"y": 2.1465596751,
				"z": 3.2434008593,
				"element": "H" 
			},
			{
				"x": 1.4016588796,
				"y": 1.3810446581,
				"z": 2.3681925114,
				"element": "H" 
			},
			{
				"x": 0.1415303838,
				"y": 2.9347041813,
				"z": 0.900555368,
				"element": "H" 
			},
			{
				"x": -2.0701006516,
				"y": 2.8255043216,
				"z": 2.0022118243,
				"element": "H" 
			},
			{
				"x": -2.221934442,
				"y": 2.53450027,
				"z": 0.260989652,
				"element": "H" 
			},
			{
				"x": -2.3418270855,
				"y": 1.1892499048,
				"z": 1.4027560519,
				"element": "H" 
			},
			{
				"x": 0.7918895544,
				"y": -2.1170045014,
				"z": -2.9819644418,
				"element": "H" 
			},
			{
				"x": -0.5056420315,
				"y": -3.7987869437,
				"z": -1.6735567537,
				"element": "H" 
			},
			{
				"x": -1.558844523,
				"y": -3.1176420222,
				"z": 0.5080743095,
				"element": "H" 
			},
			{
				"x": -1.29869376,
				"y": -0.7937810748,
				"z": 1.3330702843,
				"element": "H" 
			}
		],
		 "valence_orbital": [ 
			{
				"type": "occ",
				"energy": -0.2781,
				"method": "rhf"
			},
			{
				"type": "occ",
				"energy": -0.2699,
				"method": "rhf"
			},
			{
				"type": "occ",
				"energy": -0.26407,
				"method": "rhf"
			},
			{
				"type": "occ",
				"energy": -0.26132,
				"method": "rhf"
			},
			{
				"type": "occ",
				"energy": -0.19411,
				"method": "rhf"
			},
			{
				"type": "unocc",
				"energy": -0.04301,
				"method": "rhf"
			},
			{
				"type": "unocc",
				"energy": -0.02209,
				"method": "rhf"
			},
			{
				"type": "unocc",
				"energy": -0.00365,
				"method": "rhf"
			},
			{
				"type": "unocc",
				"energy": 0.05372,
				"method": "rhf"
			},
			{
				"type": "unocc",
				"energy": 0.05373,
				"method": "rhf"
			}
		],
		"cosmo_sigma_profile": { 
			"-0.025": 0.0,
			"-0.024": 0.0,
			"-0.023": 0.0,
			"-0.022": 0.0,
			"-0.021": 0.0,
			"-0.02": 0.0,
			"-0.019": 0.0,
			"-0.018": 0.0,
			"-0.017": 0.0,
			"-0.016": 0.0,
			"-0.015": 0.0,
			"-0.014": 0.0,
			"-0.013": 0.0,
			"-0.012": 0.0,
			"-0.011": 0.0,
			"-0.01": 0.013409852122,
			"-0.009": 1.27999597422,
			"-0.008": 2.98039516861,
			"-0.007": 7.60836039289,
			"-0.006": 9.98591419424,
			"-0.005": 9.85401540976,
			"-0.004": 13.5780837144,
			"-0.003": 20.5739335489,
			"-0.002": 22.7863709956,
			"-0.001": 27.0092560176,
			"0.0": 27.1293389455,
			"0.001": 20.7506353877,
			"0.002": 16.4381960749,
			"0.003": 20.7077886187,
			"0.004": 16.8302694886,
			"0.005": 10.4398840286,
			"0.006": 2.80010162263,
			"0.007": 2.05426787595,
			"0.008": 2.14054208408,
			"0.009": 0.803000287244,
			"0.01": 1.17846378265,
			"0.011": 1.27920079683,
			"0.012": 1.24908552081,
			"0.013": 0.726870657087,
			"0.014": 0.923908697679,
			"0.015": 1.0627537536,
			"0.016": 0.672430289235,
			"0.017": 0.195498402992,
			"0.018": 0.0,
			"0.019": 0.0,
			"0.02": 0.0,
			"0.021": 0.0,
			"0.022": 0.0,
			"0.023": 0.0,
			"0.024": 0.0,
			"0.025": 0.0
		}
	}
}
