{
	 "smiles": "OC(=O)C1=CC(=CC=C1)C(F)F", 
	 "Tm": 399.15, 
	 "num_atms": 18, 
	 "gaussian": { 
		 "optdone": 1, 
		 "sigma_profile": "yes", 
		 "theory": "DFT", 
		 "functional": "B3LYP", 
		 "basiset": "6-31G**", 
		 "properties": { 
			 "R2extent": 3587.2298, 
			 "electric_dipole_moment_norm": 5.19278067609, 
			 "electric_quadrupole_moment_norm": 19.1836753384, 
			 "total_energy": -658.597395947, 
			 "HOMO_LUMO_gap": 0.21256, 
			 "cosmo_polarized_energy": -15.19, 
			 "cosmo_cavitation_energy": 23.63, 
			 "cosmo_dispersion_energy": -17.21, 
			 "cosmo_repulsion_energy": 1.33, 
			 "cosmo_total_nonelectrostatic_energy": 7.76, 
			 "SMD_solvation_energy": 6.06 
		},
		"coords": [
			{
				"x": 0.0513944191,
				"y": 0.9831246732,
				"z": -3.7714726688,
				"element": "O" 
			},
			{
				"x": -0.8972249102,
				"y": 0.4138867095,
				"z": -2.9811520969,
				"element": "C" 
			},
			{
				"x": -1.4962876533,
				"y": -0.562752052,
				"z": -3.3634339653,
				"element": "O" 
			},
			{
				"x": -1.1401759955,
				"y": 1.0559743901,
				"z": -1.6457023148,
				"element": "C" 
			},
			{
				"x": -1.7812493654,
				"y": 0.2852705911,
				"z": -0.6684131508,
				"element": "C" 
			},
			{
				"x": -2.0398098813,
				"y": 0.8217803194,
				"z": 0.5917121488,
				"element": "C" 
			},
			{
				"x": -1.6781040051,
				"y": 2.1432486761,
				"z": 0.8763287977,
				"element": "C" 
			},
			{
				"x": -1.062854159,
				"y": 2.9233428646,
				"z": -0.1017755457,
				"element": "C" 
			},
			{
				"x": -0.7914233986,
				"y": 2.3830679176,
				"z": -1.358485756,
				"element": "C" 
			},
			{
				"x": -2.6719600168,
				"y": -0.0373956858,
				"z": 1.6602200788,
				"element": "C" 
			},
			{
				"x": -3.3695984797,
				"y": 0.7413727454,
				"z": 2.5442369255,
				"element": "F" 
			},
			{
				"x": -3.5409911871,
				"y": -0.9308916837,
				"z": 1.1001770733,
				"element": "F" 
			},
			{
				"x": 0.553277407,
				"y": 1.6431080747,
				"z": -3.2738689005,
				"element": "H" 
			},
			{
				"x": -2.076758566,
				"y": -0.7279211352,
				"z": -0.9158966565,
				"element": "H" 
			},
			{
				"x": -1.8962656175,
				"y": 2.5596228786,
				"z": 1.8537421322,
				"element": "H" 
			},
			{
				"x": -0.8049962858,
				"y": 3.9560584393,
				"z": 0.111192305,
				"element": "H" 
			},
			{
				"x": -0.34515848,
				"y": 3.0192791768,
				"z": -2.1190575842,
				"element": "H" 
			},
			{
				"x": -1.9372138249,
				"y": -0.6117768997,
				"z": 2.2393491782,
				"element": "H" 
			}
		],
		 "valence_orbital": [ 
			{
				"type": "occ",
				"energy": -0.3425,
				"method": "rhf"
			},
			{
				"type": "occ",
				"energy": -0.32274,
				"method": "rhf"
			},
			{
				"type": "occ",
				"energy": -0.28569,
				"method": "rhf"
			},
			{
				"type": "occ",
				"energy": -0.2822,
				"method": "rhf"
			},
			{
				"type": "occ",
				"energy": -0.27362,
				"method": "rhf"
			},
			{
				"type": "unocc",
				"energy": -0.06106,
				"method": "rhf"
			},
			{
				"type": "unocc",
				"energy": -0.03748,
				"method": "rhf"
			},
			{
				"type": "unocc",
				"energy": 0.03535,
				"method": "rhf"
			},
			{
				"type": "unocc",
				"energy": 0.05418,
				"method": "rhf"
			},
			{
				"type": "unocc",
				"energy": 0.09591,
				"method": "rhf"
			}
		],
		"cosmo_sigma_profile": { 
			"-0.025": 0.0,
			"-0.024": 0.0,
			"-0.023": 0.0,
			"-0.022": 0.0,
			"-0.021": 0.0,
			"-0.02": 0.0,
			"-0.019": 0.320507741923,
			"-0.018": 0.852155613482,
			"-0.017": 1.42461599953,
			"-0.016": 0.726024402452,
			"-0.015": 0.808472133853,
			"-0.014": 1.12111433754,
			"-0.013": 0.935689541773,
			"-0.012": 1.49514799673,
			"-0.011": 1.13877364133,
			"-0.01": 1.02017530554,
			"-0.009": 3.32956516819,
			"-0.008": 5.94163926542,
			"-0.007": 7.91864525826,
			"-0.006": 8.87545838733,
			"-0.005": 9.43043216288,
			"-0.004": 8.64658134726,
			"-0.003": 9.73084138216,
			"-0.002": 8.80490701982,
			"-0.001": 8.36975720477,
			"0.0": 11.1527662605,
			"0.001": 14.5424213966,
			"0.002": 18.0159564386,
			"0.003": 12.5120456563,
			"0.004": 17.8986236327,
			"0.005": 7.92922628549,
			"0.006": 2.88235978045,
			"0.007": 1.69861806105,
			"0.008": 3.06856239691,
			"0.009": 3.25251668985,
			"0.01": 5.11825103085,
			"0.011": 5.64897202112,
			"0.012": 3.9226808958,
			"0.013": 1.11140950551,
			"0.014": 0.0,
			"0.015": 0.0,
			"0.016": 0.0,
			"0.017": 0.0,
			"0.018": 0.0,
			"0.019": 0.0,
			"0.02": 0.0,
			"0.021": 0.0,
			"0.022": 0.0,
			"0.023": 0.0,
			"0.024": 0.0,
			"0.025": 0.0
		}
	}
}
