{
	 "smiles": "CCC1=CC=CC(CC)=C1NC(=O)C(C)Cl", 
	 "Tm": 440.15, 
	 "num_atms": 34, 
	 "gaussian": { 
		 "optdone": 1, 
		 "sigma_profile": "yes", 
		 "theory": "DFT", 
		 "functional": "B3LYP", 
		 "basiset": "6-31G**", 
		 "properties": { 
			 "R2extent": 4137.2189, 
			 "electric_dipole_moment_norm": 3.96357769446, 
			 "electric_quadrupole_moment_norm": 10.5425449726, 
			 "total_energy": -1096.43738295, 
			 "HOMO_LUMO_gap": 0.22425, 
			 "cosmo_polarized_energy": -11.88, 
			 "cosmo_cavitation_energy": 37.4, 
			 "cosmo_dispersion_energy": -24.66, 
			 "cosmo_repulsion_energy": 1.96, 
			 "cosmo_total_nonelectrostatic_energy": 14.7, 
			 "SMD_solvation_energy": 6.97 
		},
		"coords": [
			{
				"x": 2.8272310014,
				"y": 2.540862051,
				"z": -0.4532664827,
				"element": "C" 
			},
			{
				"x": 2.2603903425,
				"y": 1.742578802,
				"z": 0.7349653085,
				"element": "C" 
			},
			{
				"x": 0.746424356,
				"y": 1.6637325391,
				"z": 0.7199186099,
				"element": "C" 
			},
			{
				"x": 0.0003812905,
				"y": 2.5943763282,
				"z": 1.4530614436,
				"element": "C" 
			},
			{
				"x": -1.3920574297,
				"y": 2.5956862518,
				"z": 1.4063022794,
				"element": "C" 
			},
			{
				"x": -2.0608573692,
				"y": 1.6614261919,
				"z": 0.6198063195,
				"element": "C" 
			},
			{
				"x": -1.3574290286,
				"y": 0.7036241138,
				"z": -0.1214039358,
				"element": "C" 
			},
			{
				"x": -2.1119319024,
				"y": -0.2736171021,
				"z": -0.9981447656,
				"element": "C" 
			},
			{
				"x": -2.2776397163,
				"y": 0.2244469456,
				"z": -2.4460711486,
				"element": "C" 
			},
			{
				"x": 0.0508131324,
				"y": 0.7094507962,
				"z": -0.0530916854,
				"element": "C" 
			},
			{
				"x": 0.7923334332,
				"y": -0.2506934626,
				"z": -0.8230297103,
				"element": "N" 
			},
			{
				"x": 1.3688313475,
				"y": -1.4297963416,
				"z": -0.4173503981,
				"element": "C" 
			},
			{
				"x": 1.9895004052,
				"y": -2.1391883787,
				"z": -1.1947127942,
				"element": "O" 
			},
			{
				"x": 1.2032294755,
				"y": -1.8170225593,
				"z": 1.0614884766,
				"element": "C" 
			},
			{
				"x": 2.4084060514,
				"y": -2.584518503,
				"z": 1.5743004505,
				"element": "C" 
			},
			{
				"x": -0.3034037355,
				"y": -2.8608440495,
				"z": 1.1882024629,
				"element": "Cl" 
			},
			{
				"x": 3.9186259343,
				"y": 2.6018622219,
				"z": -0.3941750794,
				"element": "H" 
			},
			{
				"x": 2.5689777251,
				"y": 2.0679209861,
				"z": -1.4056756179,
				"element": "H" 
			},
			{
				"x": 2.4284848834,
				"y": 3.5601424387,
				"z": -0.4659824114,
				"element": "H" 
			},
			{
				"x": 2.7028059295,
				"y": 0.7417433752,
				"z": 0.730181391,
				"element": "H" 
			},
			{
				"x": 2.577034727,
				"y": 2.2176787373,
				"z": 1.6702297904,
				"element": "H" 
			},
			{
				"x": 0.5233318785,
				"y": 3.3280814171,
				"z": 2.061105657,
				"element": "H" 
			},
			{
				"x": -1.9547201974,
				"y": 3.3238175695,
				"z": 1.9836107755,
				"element": "H" 
			},
			{
				"x": -3.1470998594,
				"y": 1.6625408876,
				"z": 0.5819192981,
				"element": "H" 
			},
			{
				"x": -3.1038120889,
				"y": -0.4396154735,
				"z": -0.5634225051,
				"element": "H" 
			},
			{
				"x": -1.6059734191,
				"y": -1.2424973822,
				"z": -0.9999286245,
				"element": "H" 
			},
			{
				"x": -2.8079955776,
				"y": 1.1817323419,
				"z": -2.4766279441,
				"element": "H" 
			},
			{
				"x": -1.3085326988,
				"y": 0.3691070172,
				"z": -2.935771736,
				"element": "H" 
			},
			{
				"x": -2.8445895359,
				"y": -0.4984337344,
				"z": -3.0411986415,
				"element": "H" 
			},
			{
				"x": 0.8951628229,
				"y": -0.0949853927,
				"z": -1.8192355977,
				"element": "H" 
			},
			{
				"x": 0.9779334817,
				"y": -0.9475524945,
				"z": 1.6781236105,
				"element": "H" 
			},
			{
				"x": 2.2397706634,
				"y": -2.9300409873,
				"z": 2.5963776232,
				"element": "H" 
			},
			{
				"x": 2.6153693177,
				"y": -3.4347592333,
				"z": 0.9229562123,
				"element": "H" 
			},
			{
				"x": 3.2863043595,
				"y": -1.9282459173,
				"z": 1.5670393698,
				"element": "H" 
			}
		],
		 "valence_orbital": [ 
			{
				"type": "occ",
				"energy": -0.29571,
				"method": "rhf"
			},
			{
				"type": "occ",
				"energy": -0.2709,
				"method": "rhf"
			},
			{
				"type": "occ",
				"energy": -0.25974,
				"method": "rhf"
			},
			{
				"type": "occ",
				"energy": -0.24811,
				"method": "rhf"
			},
			{
				"type": "occ",
				"energy": -0.24634,
				"method": "rhf"
			},
			{
				"type": "unocc",
				"energy": -0.02209,
				"method": "rhf"
			},
			{
				"type": "unocc",
				"energy": -0.01608,
				"method": "rhf"
			},
			{
				"type": "unocc",
				"energy": -0.00993,
				"method": "rhf"
			},
			{
				"type": "unocc",
				"energy": 0.06008,
				"method": "rhf"
			},
			{
				"type": "unocc",
				"energy": 0.06907,
				"method": "rhf"
			}
		],
		"cosmo_sigma_profile": { 
			"-0.025": 0.0,
			"-0.024": 0.0,
			"-0.023": 0.0,
			"-0.022": 0.0,
			"-0.021": 0.0,
			"-0.02": 0.0,
			"-0.019": 0.0,
			"-0.018": 0.0,
			"-0.017": 0.0,
			"-0.016": 0.0,
			"-0.015": 0.0,
			"-0.014": 0.0,
			"-0.013": 0.543408498529,
			"-0.012": 0.766582987921,
			"-0.011": 0.872418813696,
			"-0.01": 1.72576315775,
			"-0.009": 1.05994826733,
			"-0.008": 1.15484752282,
			"-0.007": 3.35334969143,
			"-0.006": 9.03682062566,
			"-0.005": 15.2246682343,
			"-0.004": 22.095720238,
			"-0.003": 27.3836961464,
			"-0.002": 29.6900234186,
			"-0.001": 36.0126545504,
			"0.0": 34.5146165442,
			"0.001": 26.8542182148,
			"0.002": 15.1405514138,
			"0.003": 14.0285956256,
			"0.004": 13.6763455324,
			"0.005": 15.2449335479,
			"0.006": 9.53045131722,
			"0.007": 1.99194484639,
			"0.008": 1.3855882371,
			"0.009": 1.63070621186,
			"0.01": 1.49803015248,
			"0.011": 1.37043394082,
			"0.012": 3.26194213892,
			"0.013": 5.35818528142,
			"0.014": 0.951802177268,
			"0.015": 0.0,
			"0.016": 0.0,
			"0.017": 0.0,
			"0.018": 0.0,
			"0.019": 0.0,
			"0.02": 0.0,
			"0.021": 0.0,
			"0.022": 0.0,
			"0.023": 0.0,
			"0.024": 0.0,
			"0.025": 0.0
		}
	}
}
