{
	 "smiles": "CN1NC(=O)C2=C(C)C=C(C)N=C12", 
	 "Tm": 489.15, 
	 "num_atms": 24, 
	 "gaussian": { 
		 "optdone": 1, 
		 "sigma_profile": "yes", 
		 "theory": "DFT", 
		 "functional": "B3LYP", 
		 "basiset": "6-31G**", 
		 "properties": { 
			 "R2extent": 2513.3485, 
			 "electric_dipole_moment_norm": 2.63304469009, 
			 "electric_quadrupole_moment_norm": 15.439244284, 
			 "total_energy": -589.068470208, 
			 "HOMO_LUMO_gap": 0.16774, 
			 "cosmo_polarized_energy": -12.43, 
			 "cosmo_cavitation_energy": 27.39, 
			 "cosmo_dispersion_energy": -20.19, 
			 "cosmo_repulsion_energy": 1.61, 
			 "cosmo_total_nonelectrostatic_energy": 8.81, 
			 "SMD_solvation_energy": 3.68 
		},
		"coords": [
			{
				"x": -0.9691882195,
				"y": 2.3195488652,
				"z": -0.826491118,
				"element": "C" 
			},
			{
				"x": -0.4331743515,
				"y": 1.0086268518,
				"z": -1.1800411643,
				"element": "N" 
			},
			{
				"x": 0.6535895467,
				"y": 1.0149682051,
				"z": -2.0989240312,
				"element": "N" 
			},
			{
				"x": 1.523293412,
				"y": -0.0690803,
				"z": -1.8556204577,
				"element": "C" 
			},
			{
				"x": 2.3966895359,
				"y": -0.4361550569,
				"z": -2.6297594117,
				"element": "O" 
			},
			{
				"x": 1.0936458189,
				"y": -0.5853132905,
				"z": -0.5525675187,
				"element": "C" 
			},
			{
				"x": 1.5803984312,
				"y": -1.5869557643,
				"z": 0.2930157455,
				"element": "C" 
			},
			{
				"x": 2.8204969443,
				"y": -2.3736510149,
				"z": -0.0356217041,
				"element": "C" 
			},
			{
				"x": 0.854960272,
				"y": -1.7770696619,
				"z": 1.4747987874,
				"element": "C" 
			},
			{
				"x": -0.2680071749,
				"y": -0.9829741249,
				"z": 1.7773040208,
				"element": "C" 
			},
			{
				"x": -1.0258406446,
				"y": -1.1736034197,
				"z": 3.0665246601,
				"element": "C" 
			},
			{
				"x": -0.7378654234,
				"y": -0.0236690321,
				"z": 0.9583202934,
				"element": "N" 
			},
			{
				"x": -0.0649710632,
				"y": 0.1164654229,
				"z": -0.1807869523,
				"element": "C" 
			},
			{
				"x": -0.1826746892,
				"y": 2.9995517302,
				"z": -0.4746629524,
				"element": "H" 
			},
			{
				"x": -1.4670100289,
				"y": 2.7601749271,
				"z": -1.6942706156,
				"element": "H" 
			},
			{
				"x": -1.702183278,
				"y": 2.1641836159,
				"z": -0.0343287951,
				"element": "H" 
			},
			{
				"x": 0.3839233314,
				"y": 1.1708331025,
				"z": -3.0641912107,
				"element": "H" 
			},
			{
				"x": 2.7634983155,
				"y": -3.3878183723,
				"z": 0.3698928256,
				"element": "H" 
			},
			{
				"x": 3.7002805268,
				"y": -1.8907019974,
				"z": 0.4075472213,
				"element": "H" 
			},
			{
				"x": 2.9841505116,
				"y": -2.4108938226,
				"z": -1.114057292,
				"element": "H" 
			},
			{
				"x": 1.1683039349,
				"y": -2.5384879833,
				"z": 2.1826098132,
				"element": "H" 
			},
			{
				"x": -2.0586971798,
				"y": -1.472383916,
				"z": 2.8579121915,
				"element": "H" 
			},
			{
				"x": -1.0730601452,
				"y": -0.2302133987,
				"z": 3.6199328478,
				"element": "H" 
			},
			{
				"x": -0.564558383,
				"y": -1.9326815652,
				"z": 3.7024648174,
				"element": "H" 
			}
		],
		 "valence_orbital": [ 
			{
				"type": "occ",
				"energy": -0.28064,
				"method": "rhf"
			},
			{
				"type": "occ",
				"energy": -0.27569,
				"method": "rhf"
			},
			{
				"type": "occ",
				"energy": -0.26268,
				"method": "rhf"
			},
			{
				"type": "occ",
				"energy": -0.24464,
				"method": "rhf"
			},
			{
				"type": "occ",
				"energy": -0.21265,
				"method": "rhf"
			},
			{
				"type": "unocc",
				"energy": -0.04491,
				"method": "rhf"
			},
			{
				"type": "unocc",
				"energy": -0.00407,
				"method": "rhf"
			},
			{
				"type": "unocc",
				"energy": 0.05179,
				"method": "rhf"
			},
			{
				"type": "unocc",
				"energy": 0.09102,
				"method": "rhf"
			},
			{
				"type": "unocc",
				"energy": 0.10685,
				"method": "rhf"
			}
		],
		"cosmo_sigma_profile": { 
			"-0.025": 0.0,
			"-0.024": 0.0,
			"-0.023": 0.0,
			"-0.022": 0.0,
			"-0.021": 0.0,
			"-0.02": 0.0,
			"-0.019": 0.0,
			"-0.018": 0.0,
			"-0.017": 0.0,
			"-0.016": 0.221429351865,
			"-0.015": 1.2005215206,
			"-0.014": 1.10770288425,
			"-0.013": 1.2533937044,
			"-0.012": 1.14673476884,
			"-0.011": 0.791395474544,
			"-0.01": 0.800176615781,
			"-0.009": 1.08101976384,
			"-0.008": 1.2433077594,
			"-0.007": 1.21049183077,
			"-0.006": 6.39986860785,
			"-0.005": 16.4967544738,
			"-0.004": 18.1212273499,
			"-0.003": 19.5340392549,
			"-0.002": 22.5339648017,
			"-0.001": 22.8469140805,
			"0.0": 22.7569312633,
			"0.001": 15.7730708889,
			"0.002": 11.0663629118,
			"0.003": 8.19485404861,
			"0.004": 5.31807743433,
			"0.005": 5.61852037441,
			"0.006": 4.66022975929,
			"0.007": 4.84747534376,
			"0.008": 3.17744152605,
			"0.009": 3.11788114211,
			"0.01": 2.21950451252,
			"0.011": 2.25023173961,
			"0.012": 3.1580024316,
			"0.013": 5.92976053197,
			"0.014": 2.83799401785,
			"0.015": 0.161524798013,
			"0.016": 0.0,
			"0.017": 0.0,
			"0.018": 0.0,
			"0.019": 0.0,
			"0.02": 0.0,
			"0.021": 0.0,
			"0.022": 0.0,
			"0.023": 0.0,
			"0.024": 0.0,
			"0.025": 0.0
		}
	}
}
