{
	 "smiles": "OC(=O)CI", 
	 "Tm": 354.95, 
	 "num_atms": 8, 
	 "gaussian": { 
		 "optdone": 1, 
		 "sigma_profile": "no", 
		 "theory": "DFT", 
		 "functional": "B3LYP", 
		 "basiset": "6-31G**", 
		 "properties": { 
			 "R2extent": 490.3664, 
			 "electric_dipole_moment_norm": 2.74209467561, 
			 "electric_quadrupole_moment_norm": 5.57999669624, 
			 "total_energy": -239.859067812, 
			 "HOMO_LUMO_gap": 0.2096, 
			 "cosmo_polarized_energy": -92355.54, 
			 "cosmo_cavitation_energy": 15.26, 
			 "cosmo_dispersion_energy": -13.08, 
			 "cosmo_repulsion_energy": 1.12, 
			 "cosmo_total_nonelectrostatic_energy": 3.29, 
			 "SMD_solvation_energy": 3.33 
		},
		"coords": [
			{
				"x": -1.3530991123,
				"y": -0.047295984,
				"z": 1.0058844166,
				"element": "O" 
			},
			{
				"x": -0.7016354312,
				"y": 0.2968978997,
				"z": -0.1130323431,
				"element": "C" 
			},
			{
				"x": -1.1688589132,
				"y": 1.0653708712,
				"z": -0.916263197,
				"element": "O" 
			},
			{
				"x": 0.6562141599,
				"y": -0.3366437467,
				"z": -0.4244097392,
				"element": "C" 
			},
			{
				"x": 1.6910237117,
				"y": -1.3665746651,
				"z": 1.1995017315,
				"element": "I" 
			},
			{
				"x": -0.8109426055,
				"y": -0.6452001892,
				"z": 1.5483194,
				"element": "H" 
			},
			{
				"x": 0.5283162568,
				"y": -1.083291687,
				"z": -1.208489346,
				"element": "H" 
			},
			{
				"x": 1.3314819338,
				"y": 0.4400375011,
				"z": -0.7759109227,
				"element": "H" 
			}
		],
		 "valence_orbital": [ 
			{
				"type": "occ",
				"energy": -0.38491,
				"method": "rhf"
			},
			{
				"type": "occ",
				"energy": -0.33231,
				"method": "rhf"
			},
			{
				"type": "occ",
				"energy": -0.30613,
				"method": "rhf"
			},
			{
				"type": "occ",
				"energy": -0.288,
				"method": "rhf"
			},
			{
				"type": "occ",
				"energy": -0.28081,
				"method": "rhf"
			},
			{
				"type": "unocc",
				"energy": -0.07121,
				"method": "rhf"
			},
			{
				"type": "unocc",
				"energy": -0.00838,
				"method": "rhf"
			},
			{
				"type": "unocc",
				"energy": 0.02722,
				"method": "rhf"
			},
			{
				"type": "unocc",
				"energy": 0.03312,
				"method": "rhf"
			},
			{
				"type": "unocc",
				"energy": 0.03937,
				"method": "rhf"
			}
		],
		"cosmo_sigma_profile": { 
			"0.0": 0.0,
			"0.0": 0.0,
			"0.0": 0.0,
			"0.0": 0.0,
			"0.0": 0.0,
			"0.0": 0.0,
			"0.0": 0.0,
			"0.0": 0.0,
			"0.0": 0.0,
			"0.0": 0.0,
			"0.0": 0.0,
			"0.0": 0.0,
			"0.0": 0.0,
			"0.0": 0.0,
			"0.0": 0.0,
			"0.0": 0.0,
			"0.0": 0.0,
			"0.0": 0.0,
			"0.0": 0.0,
			"0.0": 0.0,
			"0.0": 0.0,
			"0.0": 0.0,
			"0.0": 0.0,
			"0.0": 0.0,
			"0.0": 0.0,
			"0.0": 0.0,
			"0.0": 0.0,
			"0.0": 0.0,
			"0.0": 0.0,
			"0.0": 0.0,
			"0.0": 0.0,
			"0.0": 0.0,
			"0.0": 0.0,
			"0.0": 0.0,
			"0.0": 0.0,
			"0.0": 0.0,
			"0.0": 0.0,
			"0.0": 0.0,
			"0.0": 0.0,
			"0.0": 0.0,
			"0.0": 0.0,
			"0.0": 0.0,
			"0.0": 0.0,
			"0.0": 0.0,
			"0.0": 0.0,
			"0.0": 0.0,
			"0.0": 0.0,
			"0.0": 0.0,
			"0.0": 0.0,
			"0.0": 0.0,
			"0.0": 0.0
		}
	}
}
