{
	 "smiles": "CN(C)C1=CC=CC2=C1C(=O)C1=C(O2)N(N=C1)C1=CC=CC=C1", 
	 "Tm": 458.15, 
	 "num_atms": 38, 
	 "gaussian": { 
		 "optdone": 1, 
		 "sigma_profile": "yes", 
		 "theory": "DFT", 
		 "functional": "B3LYP", 
		 "basiset": "6-31G**", 
		 "properties": { 
			 "R2extent": 9530.1128, 
			 "electric_dipole_moment_norm": 3.66433364884, 
			 "electric_quadrupole_moment_norm": 16.5760799618, 
			 "total_energy": -1009.62239638, 
			 "HOMO_LUMO_gap": 0.15179, 
			 "cosmo_polarized_energy": -12.87, 
			 "cosmo_cavitation_energy": 41.08, 
			 "cosmo_dispersion_energy": -29.87, 
			 "cosmo_repulsion_energy": 2.19, 
			 "cosmo_total_nonelectrostatic_energy": 13.4, 
			 "SMD_solvation_energy": 6.8 
		},
		"coords": [
			{
				"x": 3.211378831,
				"y": -0.5410903498,
				"z": 1.2963195031,
				"element": "C" 
			},
			{
				"x": 2.7958155713,
				"y": 0.7833414134,
				"z": 0.8412052245,
				"element": "N" 
			},
			{
				"x": 3.7714057917,
				"y": 1.8211194812,
				"z": 1.1240855468,
				"element": "C" 
			},
			{
				"x": 1.456564221,
				"y": 1.1161682316,
				"z": 0.7200964934,
				"element": "C" 
			},
			{
				"x": 0.9856646289,
				"y": 2.3298342167,
				"z": 1.2640380598,
				"element": "C" 
			},
			{
				"x": -0.3628600461,
				"y": 2.6655349501,
				"z": 1.2334179073,
				"element": "C" 
			},
			{
				"x": -1.299730549,
				"y": 1.8096056852,
				"z": 0.666112702,
				"element": "C" 
			},
			{
				"x": -0.8399680651,
				"y": 0.6381024073,
				"z": 0.0752018862,
				"element": "C" 
			},
			{
				"x": 0.5260962266,
				"y": 0.2608735914,
				"z": 0.0296203034,
				"element": "C" 
			},
			{
				"x": 0.9581069132,
				"y": -0.8593815713,
				"z": -0.8688388305,
				"element": "C" 
			},
			{
				"x": 2.1256544598,
				"y": -1.1409282243,
				"z": -1.1343153986,
				"element": "O" 
			},
			{
				"x": -0.1667002588,
				"y": -1.5763863634,
				"z": -1.4492852219,
				"element": "C" 
			},
			{
				"x": -1.4683003869,
				"y": -1.183934675,
				"z": -1.2159712927,
				"element": "C" 
			},
			{
				"x": -1.8574024244,
				"y": -0.1222584201,
				"z": -0.5013655876,
				"element": "O" 
			},
			{
				"x": -2.3109437645,
				"y": -2.0236375691,
				"z": -1.8736479844,
				"element": "N" 
			},
			{
				"x": -1.5747272957,
				"y": -2.9752276115,
				"z": -2.5558695299,
				"element": "N" 
			},
			{
				"x": -0.3073789636,
				"y": -2.701845063,
				"z": -2.3029848174,
				"element": "C" 
			},
			{
				"x": -3.7297863069,
				"y": -2.0166569257,
				"z": -1.9761268773,
				"element": "C" 
			},
			{
				"x": -4.5185928575,
				"y": -1.3923431448,
				"z": -1.0027757681,
				"element": "C" 
			},
			{
				"x": -5.9069437787,
				"y": -1.404066685,
				"z": -1.1385405009,
				"element": "C" 
			},
			{
				"x": -6.5114178282,
				"y": -2.0419868562,
				"z": -2.221934752,
				"element": "C" 
			},
			{
				"x": -5.714085648,
				"y": -2.672993037,
				"z": -3.1795229107,
				"element": "C" 
			},
			{
				"x": -4.3260376741,
				"y": -2.6614042624,
				"z": -3.0663963505,
				"element": "C" 
			},
			{
				"x": 2.3532130051,
				"y": -1.2040234372,
				"z": 1.3849023968,
				"element": "H" 
			},
			{
				"x": 3.9193302037,
				"y": -0.9970709398,
				"z": 0.5998399901,
				"element": "H" 
			},
			{
				"x": 3.6774612757,
				"y": -0.4546432674,
				"z": 2.2896800096,
				"element": "H" 
			},
			{
				"x": 4.7609236325,
				"y": 1.4523888691,
				"z": 0.8371571004,
				"element": "H" 
			},
			{
				"x": 3.5627912841,
				"y": 2.7152275213,
				"z": 0.5322167414,
				"element": "H" 
			},
			{
				"x": 3.8161183774,
				"y": 2.1042608333,
				"z": 2.1897525806,
				"element": "H" 
			},
			{
				"x": 1.6777548948,
				"y": 2.9903180067,
				"z": 1.7708207627,
				"element": "H" 
			},
			{
				"x": -0.691786449,
				"y": 3.5945923836,
				"z": 1.6897696768,
				"element": "H" 
			},
			{
				"x": -2.3600503187,
				"y": 2.0324696907,
				"z": 0.652613707,
				"element": "H" 
			},
			{
				"x": 0.4754875969,
				"y": -3.3172402208,
				"z": -2.7240090132,
				"element": "H" 
			},
			{
				"x": -4.0585978198,
				"y": -0.9081846763,
				"z": -0.1510504822,
				"element": "H" 
			},
			{
				"x": -6.5161580722,
				"y": -0.9175216253,
				"z": -0.3825237848,
				"element": "H" 
			},
			{
				"x": -7.5928443608,
				"y": -2.0503048698,
				"z": -2.3180181038,
				"element": "H" 
			},
			{
				"x": -6.1730031346,
				"y": -3.1751321622,
				"z": -4.0260876923,
				"element": "H" 
			},
			{
				"x": -3.6947509114,
				"y": -3.147475324,
				"z": -3.7994856929,
				"element": "H" 
			}
		],
		 "valence_orbital": [ 
			{
				"type": "occ",
				"energy": -0.25783,
				"method": "rhf"
			},
			{
				"type": "occ",
				"energy": -0.24004,
				"method": "rhf"
			},
			{
				"type": "occ",
				"energy": -0.23643,
				"method": "rhf"
			},
			{
				"type": "occ",
				"energy": -0.22924,
				"method": "rhf"
			},
			{
				"type": "occ",
				"energy": -0.19782,
				"method": "rhf"
			},
			{
				"type": "unocc",
				"energy": -0.04603,
				"method": "rhf"
			},
			{
				"type": "unocc",
				"energy": -0.02743,
				"method": "rhf"
			},
			{
				"type": "unocc",
				"energy": -0.0085,
				"method": "rhf"
			},
			{
				"type": "unocc",
				"energy": 0.0004,
				"method": "rhf"
			},
			{
				"type": "unocc",
				"energy": 0.01827,
				"method": "rhf"
			}
		],
		"cosmo_sigma_profile": { 
			"-0.025": 0.0,
			"-0.024": 0.0,
			"-0.023": 0.0,
			"-0.022": 0.0,
			"-0.021": 0.0,
			"-0.02": 0.0,
			"-0.019": 0.0,
			"-0.018": 0.0,
			"-0.017": 0.0,
			"-0.016": 0.0,
			"-0.015": 0.0,
			"-0.014": 0.0,
			"-0.013": 0.0,
			"-0.012": 0.0,
			"-0.011": 0.0,
			"-0.01": 0.0,
			"-0.009": 0.498828643283,
			"-0.008": 1.64208867503,
			"-0.007": 3.71161587032,
			"-0.006": 14.3814218335,
			"-0.005": 23.5415208762,
			"-0.004": 31.6152890809,
			"-0.003": 33.3986011837,
			"-0.002": 33.6574470782,
			"-0.001": 29.453454359,
			"0.0": 22.7402017954,
			"0.001": 24.8539833247,
			"0.002": 25.1121563885,
			"0.003": 22.5131951743,
			"0.004": 23.2247569601,
			"0.005": 10.6625498242,
			"0.006": 3.80307245221,
			"0.007": 3.06118195896,
			"0.008": 3.72888760293,
			"0.009": 2.87881499902,
			"0.01": 2.82767659204,
			"0.011": 2.99990555626,
			"0.012": 3.1146244296,
			"0.013": 3.3642352582,
			"0.014": 2.60656321918,
			"0.015": 0.334074160967,
			"0.016": 0.0,
			"0.017": 0.0,
			"0.018": 0.0,
			"0.019": 0.0,
			"0.02": 0.0,
			"0.021": 0.0,
			"0.022": 0.0,
			"0.023": 0.0,
			"0.024": 0.0,
			"0.025": 0.0
		}
	}
}
