{
	 "smiles": "[O-][N+](=O)C1=C2CCCNC2=C(C2=C1CCCN2)[N+]([O-])=O", 
	 "Tm": 460.15, 
	 "num_atms": 34, 
	 "gaussian": { 
		 "optdone": 1, 
		 "sigma_profile": "yes", 
		 "theory": "DFT", 
		 "functional": "B3LYP", 
		 "basiset": "6-31G**", 
		 "properties": { 
			 "R2extent": 5912.4153, 
			 "electric_dipole_moment_norm": 0.178588773443, 
			 "electric_quadrupole_moment_norm": 36.5716572858, 
			 "total_energy": -985.438124372, 
			 "HOMO_LUMO_gap": 0.1161, 
			 "cosmo_polarized_energy": -12.37, 
			 "cosmo_cavitation_energy": 35.41, 
			 "cosmo_dispersion_energy": -26.42, 
			 "cosmo_repulsion_energy": 2.01, 
			 "cosmo_total_nonelectrostatic_energy": 11.0, 
			 "SMD_solvation_energy": 7.41 
		},
		"coords": [
			{
				"x": -2.3768988442,
				"y": 0.5072929654,
				"z": 1.7679663163,
				"element": "O" 
			},
			{
				"x": -1.1829408865,
				"y": 0.7833361582,
				"z": 1.855474336,
				"element": "N" 
			},
			{
				"x": -0.5675988843,
				"y": 0.9772343286,
				"z": 2.8984010282,
				"element": "O" 
			},
			{
				"x": -0.4142952324,
				"y": 0.8938588819,
				"z": 0.5919080526,
				"element": "C" 
			},
			{
				"x": -0.3534388678,
				"y": 2.1536980019,
				"z": 0.0153637094,
				"element": "C" 
			},
			{
				"x": -1.0448168095,
				"y": 3.3549428594,
				"z": 0.6318779325,
				"element": "C" 
			},
			{
				"x": -1.3481748832,
				"y": 4.4197253846,
				"z": -0.4261175457,
				"element": "C" 
			},
			{
				"x": -0.0802273,
				"y": 4.7200472753,
				"z": -1.2191108966,
				"element": "C" 
			},
			{
				"x": 0.4765261879,
				"y": 3.4976162595,
				"z": -1.7774133271,
				"element": "N" 
			},
			{
				"x": 0.3901287208,
				"y": 2.2806332561,
				"z": -1.1843578866,
				"element": "C" 
			},
			{
				"x": 1.0269822306,
				"y": 1.1044122852,
				"z": -1.7464072444,
				"element": "C" 
			},
			{
				"x": 0.9265318275,
				"y": -0.1777878979,
				"z": -1.0749979253,
				"element": "C" 
			},
			{
				"x": 0.1749889343,
				"y": -0.2706947255,
				"z": 0.1229544946,
				"element": "C" 
			},
			{
				"x": 0.0342689616,
				"y": -1.5939584089,
				"z": 0.8511877849,
				"element": "C" 
			},
			{
				"x": 0.2206247484,
				"y": -2.7734389936,
				"z": -0.1075948451,
				"element": "C" 
			},
			{
				"x": 1.5137603014,
				"y": -2.5852521328,
				"z": -0.8944946564,
				"element": "C" 
			},
			{
				"x": 1.5224949292,
				"y": -1.2939403415,
				"z": -1.5641815783,
				"element": "N" 
			},
			{
				"x": 1.7753538897,
				"y": 1.2139594089,
				"z": -2.9549069392,
				"element": "N" 
			},
			{
				"x": 2.3381081835,
				"y": 0.2113754004,
				"z": -3.4483267264,
				"element": "O" 
			},
			{
				"x": 1.8793149857,
				"y": 2.3140394,
				"z": -3.541778036,
				"element": "O" 
			},
			{
				"x": -0.4151887724,
				"y": 3.7901124485,
				"z": 1.4204367775,
				"element": "H" 
			},
			{
				"x": -1.9747609975,
				"y": 3.0412778309,
				"z": 1.1158718024,
				"element": "H" 
			},
			{
				"x": -2.1259904988,
				"y": 4.0581830944,
				"z": -1.1083100017,
				"element": "H" 
			},
			{
				"x": -1.7195861333,
				"y": 5.3350714875,
				"z": 0.0446098087,
				"element": "H" 
			},
			{
				"x": -0.2855759622,
				"y": 5.401398911,
				"z": -2.0506589197,
				"element": "H" 
			},
			{
				"x": 0.6573144261,
				"y": 5.2152896201,
				"z": -0.5685952339,
				"element": "H" 
			},
			{
				"x": 1.0375450496,
				"y": 3.5224207924,
				"z": -2.6212673505,
				"element": "H" 
			},
			{
				"x": 0.7735033481,
				"y": -1.6601971752,
				"z": 1.6616878551,
				"element": "H" 
			},
			{
				"x": -0.95056188,
				"y": -1.6554258169,
				"z": 1.3239995136,
				"element": "H" 
			},
			{
				"x": -0.6238654449,
				"y": -2.8261635775,
				"z": -0.8041222731,
				"element": "H" 
			},
			{
				"x": 0.2538428619,
				"y": -3.7172221125,
				"z": 0.4451501169,
				"element": "H" 
			},
			{
				"x": 2.3776157922,
				"y": -2.6719083742,
				"z": -0.2172372117,
				"element": "H" 
			},
			{
				"x": 1.6266320258,
				"y": -3.3578007888,
				"z": -1.6614892695,
				"element": "H" 
			},
			{
				"x": 2.0580839926,
				"y": -1.1547357048,
				"z": -2.4134216617,
				"element": "H" 
			}
		],
		 "valence_orbital": [ 
			{
				"type": "occ",
				"energy": -0.29941,
				"method": "rhf"
			},
			{
				"type": "occ",
				"energy": -0.28188,
				"method": "rhf"
			},
			{
				"type": "occ",
				"energy": -0.27916,
				"method": "rhf"
			},
			{
				"type": "occ",
				"energy": -0.23984,
				"method": "rhf"
			},
			{
				"type": "occ",
				"energy": -0.19736,
				"method": "rhf"
			},
			{
				"type": "unocc",
				"energy": -0.08126,
				"method": "rhf"
			},
			{
				"type": "unocc",
				"energy": -0.07591,
				"method": "rhf"
			},
			{
				"type": "unocc",
				"energy": 0.00015,
				"method": "rhf"
			},
			{
				"type": "unocc",
				"energy": 0.0036,
				"method": "rhf"
			},
			{
				"type": "unocc",
				"energy": 0.07757,
				"method": "rhf"
			}
		],
		"cosmo_sigma_profile": { 
			"-0.025": 0.0,
			"-0.024": 0.0,
			"-0.023": 0.0,
			"-0.022": 0.0,
			"-0.021": 0.0,
			"-0.02": 0.0,
			"-0.019": 0.0,
			"-0.018": 0.0,
			"-0.017": 0.0,
			"-0.016": 0.0,
			"-0.015": 0.0,
			"-0.014": 0.0,
			"-0.013": 0.0,
			"-0.012": 0.0,
			"-0.011": 0.0,
			"-0.01": 0.506765150456,
			"-0.009": 1.51379489942,
			"-0.008": 1.77858667637,
			"-0.007": 2.57206346995,
			"-0.006": 4.40606441,
			"-0.005": 13.879151424,
			"-0.004": 37.4641461538,
			"-0.003": 40.1673774717,
			"-0.002": 35.2770406941,
			"-0.001": 23.3388349993,
			"0.0": 21.026589955,
			"0.001": 17.4025694989,
			"0.002": 12.3826186155,
			"0.003": 8.78810908665,
			"0.004": 5.9307105158,
			"0.005": 5.03826147061,
			"0.006": 8.48716444043,
			"0.007": 13.4412251905,
			"0.008": 10.1419535051,
			"0.009": 6.47908656461,
			"0.01": 3.88327703721,
			"0.011": 3.12555001609,
			"0.012": 2.57522274232,
			"0.013": 0.0643918170581,
			"0.014": 0.0,
			"0.015": 0.0,
			"0.016": 0.0,
			"0.017": 0.0,
			"0.018": 0.0,
			"0.019": 0.0,
			"0.02": 0.0,
			"0.021": 0.0,
			"0.022": 0.0,
			"0.023": 0.0,
			"0.024": 0.0,
			"0.025": 0.0
		}
	}
}
