{
	 "smiles": "COC1=CC=C2C(C[C@@]3(CC[C@@H](CC3)C3=CC=C(C=C3)C(C)(C)C)C2=O)=C1", 
	 "Tm": 439.15, 
	 "num_atms": 57, 
	 "gaussian": { 
		 "optdone": 1, 
		 "sigma_profile": "yes", 
		 "theory": "DFT", 
		 "functional": "B3LYP", 
		 "basiset": "6-31G**", 
		 "properties": { 
			 "R2extent": 19859.1647, 
			 "electric_dipole_moment_norm": 3.84550557534, 
			 "electric_quadrupole_moment_norm": 28.2974345638, 
			 "total_energy": -1121.21493397, 
			 "HOMO_LUMO_gap": 0.17528, 
			 "cosmo_polarized_energy": -12.56, 
			 "cosmo_cavitation_energy": 55.3, 
			 "cosmo_dispersion_energy": -38.49, 
			 "cosmo_repulsion_energy": 2.87, 
			 "cosmo_total_nonelectrostatic_energy": 19.67, 
			 "SMD_solvation_energy": 9.42 
		},
		"coords": [
			{
				"x": -6.0380858791,
				"y": 6.6524686594,
				"z": -3.778346393,
				"element": "C" 
			},
			{
				"x": -6.0740829929,
				"y": 5.2595783611,
				"z": -3.4984551212,
				"element": "O" 
			},
			{
				"x": -4.9197261736,
				"y": 4.628308243,
				"z": -3.155470695,
				"element": "C" 
			},
			{
				"x": -3.669852034,
				"y": 5.2738054324,
				"z": -3.0558339495,
				"element": "C" 
			},
			{
				"x": -2.5426424458,
				"y": 4.5417263337,
				"z": -2.6937030834,
				"element": "C" 
			},
			{
				"x": -2.6731057161,
				"y": 3.178109107,
				"z": -2.4287827375,
				"element": "C" 
			},
			{
				"x": -3.9136313396,
				"y": 2.5339251281,
				"z": -2.5392732642,
				"element": "C" 
			},
			{
				"x": -3.7675873261,
				"y": 1.0519797097,
				"z": -2.2657576889,
				"element": "C" 
			},
			{
				"x": -2.3429566875,
				"y": 0.8808720268,
				"z": -1.6565602111,
				"element": "C" 
			},
			{
				"x": -1.5694738665,
				"y": -0.3632550778,
				"z": -2.1870747542,
				"element": "C" 
			},
			{
				"x": -0.8058076428,
				"y": -1.1468627683,
				"z": -1.1010162504,
				"element": "C" 
			},
			{
				"x": -0.0627103675,
				"y": -0.1943593517,
				"z": -0.1416831846,
				"element": "C" 
			},
			{
				"x": -1.0887688712,
				"y": 0.7028583906,
				"z": 0.6130961697,
				"element": "C" 
			},
			{
				"x": -2.4467736829,
				"y": 0.8116009284,
				"z": -0.1064092007,
				"element": "C" 
			},
			{
				"x": 0.8812162758,
				"y": -0.9259334376,
				"z": 0.7957809746,
				"element": "C" 
			},
			{
				"x": 2.2585340074,
				"y": -0.6941519705,
				"z": 0.7522860964,
				"element": "C" 
			},
			{
				"x": 3.1421946502,
				"y": -1.36809212,
				"z": 1.6004298649,
				"element": "C" 
			},
			{
				"x": 2.6867826128,
				"y": -2.3092114279,
				"z": 2.5315297718,
				"element": "C" 
			},
			{
				"x": 1.300234953,
				"y": -2.5409245655,
				"z": 2.5717582643,
				"element": "C" 
			},
			{
				"x": 0.4204686991,
				"y": -1.8679597725,
				"z": 1.7291581651,
				"element": "C" 
			},
			{
				"x": 3.6243278375,
				"y": -3.0739232794,
				"z": 3.4836587085,
				"element": "C" 
			},
			{
				"x": 5.1015810135,
				"y": -2.6832497888,
				"z": 3.2884502422,
				"element": "C" 
			},
			{
				"x": 3.2347480314,
				"y": -2.7660085057,
				"z": 4.9491995175,
				"element": "C" 
			},
			{
				"x": 3.4909538369,
				"y": -4.5942488671,
				"z": 3.2284871433,
				"element": "C" 
			},
			{
				"x": -1.6359767318,
				"y": 2.2118852888,
				"z": -2.025863394,
				"element": "C" 
			},
			{
				"x": -0.4324506371,
				"y": 2.417972466,
				"z": -1.9762924517,
				"element": "O" 
			},
			{
				"x": -5.0442537809,
				"y": 3.2508339188,
				"z": -2.9000785747,
				"element": "C" 
			},
			{
				"x": -5.7054105849,
				"y": 7.2308785525,
				"z": -2.9076147032,
				"element": "H" 
			},
			{
				"x": -5.3854695782,
				"y": 6.8762338144,
				"z": -4.6312254782,
				"element": "H" 
			},
			{
				"x": -7.0624412698,
				"y": 6.9336153763,
				"z": -4.0263191756,
				"element": "H" 
			},
			{
				"x": -3.5805471396,
				"y": 6.3346081427,
				"z": -3.2559263675,
				"element": "H" 
			},
			{
				"x": -1.5703093502,
				"y": 5.0183977591,
				"z": -2.6103069061,
				"element": "H" 
			},
			{
				"x": -4.5520805001,
				"y": 0.6694932883,
				"z": -1.6024979579,
				"element": "H" 
			},
			{
				"x": -3.8541958478,
				"y": 0.4947585871,
				"z": -3.2075229881,
				"element": "H" 
			},
			{
				"x": -0.8538287262,
				"y": -0.032384003,
				"z": -2.9483174307,
				"element": "H" 
			},
			{
				"x": -2.2710972848,
				"y": -1.0402925435,
				"z": -2.6883031293,
				"element": "H" 
			},
			{
				"x": -0.0925017258,
				"y": -1.8263780708,
				"z": -1.5802544261,
				"element": "H" 
			},
			{
				"x": -1.4972132869,
				"y": -1.7832754141,
				"z": -0.5329083616,
				"element": "H" 
			},
			{
				"x": 0.5391061468,
				"y": 0.4692475123,
				"z": -0.7712532091,
				"element": "H" 
			},
			{
				"x": -0.6520257656,
				"y": 1.6969037005,
				"z": 0.7493114616,
				"element": "H" 
			},
			{
				"x": -1.2678525868,
				"y": 0.3039074213,
				"z": 1.6179283723,
				"element": "H" 
			},
			{
				"x": -3.0030380601,
				"y": 1.6797039601,
				"z": 0.2676935328,
				"element": "H" 
			},
			{
				"x": -3.0604954497,
				"y": -0.0667618982,
				"z": 0.1310325864,
				"element": "H" 
			},
			{
				"x": 2.6525830258,
				"y": 0.0297858339,
				"z": 0.0427199591,
				"element": "H" 
			},
			{
				"x": 4.2002950284,
				"y": -1.1441599068,
				"z": 1.5223959493,
				"element": "H" 
			},
			{
				"x": 0.8941862129,
				"y": -3.2620612229,
				"z": 3.2759872337,
				"element": "H" 
			},
			{
				"x": -0.6435585976,
				"y": -2.0816389055,
				"z": 1.8009307972,
				"element": "H" 
			},
			{
				"x": 5.7288865325,
				"y": -3.2505930792,
				"z": 3.9839596267,
				"element": "H" 
			},
			{
				"x": 5.2707749616,
				"y": -1.6192788196,
				"z": 3.4841297155,
				"element": "H" 
			},
			{
				"x": 5.4505102436,
				"y": -2.903747449,
				"z": 2.2742407801,
				"element": "H" 
			},
			{
				"x": 2.2034759154,
				"y": -3.0600144671,
				"z": 5.1661387153,
				"element": "H" 
			},
			{
				"x": 3.3277275581,
				"y": -1.6958517583,
				"z": 5.1616396605,
				"element": "H" 
			},
			{
				"x": 3.8887869948,
				"y": -3.3086159851,
				"z": 5.6416215895,
				"element": "H" 
			},
			{
				"x": 3.769108475,
				"y": -4.843667187,
				"z": 2.1991849168,
				"element": "H" 
			},
			{
				"x": 2.467697788,
				"y": -4.9456095728,
				"z": 3.3912496092,
				"element": "H" 
			},
			{
				"x": 4.1473766146,
				"y": -5.1551451271,
				"z": 3.9038624723,
				"element": "H" 
			},
			{
				"x": -6.0228054854,
				"y": 2.7907984005,
				"z": -2.9975108091,
				"element": "H" 
			}
		],
		 "valence_orbital": [ 
			{
				"type": "occ",
				"energy": -0.25502,
				"method": "rhf"
			},
			{
				"type": "occ",
				"energy": -0.23504,
				"method": "rhf"
			},
			{
				"type": "occ",
				"energy": -0.23212,
				"method": "rhf"
			},
			{
				"type": "occ",
				"energy": -0.22919,
				"method": "rhf"
			},
			{
				"type": "occ",
				"energy": -0.21982,
				"method": "rhf"
			},
			{
				"type": "unocc",
				"energy": -0.04454,
				"method": "rhf"
			},
			{
				"type": "unocc",
				"energy": -0.00936,
				"method": "rhf"
			},
			{
				"type": "unocc",
				"energy": 0.01126,
				"method": "rhf"
			},
			{
				"type": "unocc",
				"energy": 0.01353,
				"method": "rhf"
			},
			{
				"type": "unocc",
				"energy": 0.05367,
				"method": "rhf"
			}
		],
		"cosmo_sigma_profile": { 
			"-0.025": 0.0,
			"-0.024": 0.0,
			"-0.023": 0.0,
			"-0.022": 0.0,
			"-0.021": 0.0,
			"-0.02": 0.0,
			"-0.019": 0.0,
			"-0.018": 0.0,
			"-0.017": 0.0,
			"-0.016": 0.0,
			"-0.015": 0.0,
			"-0.014": 0.0,
			"-0.013": 0.0,
			"-0.012": 0.0,
			"-0.011": 0.0,
			"-0.01": 0.0,
			"-0.009": 0.0,
			"-0.008": 0.0,
			"-0.007": 2.29081260866,
			"-0.006": 11.3967663381,
			"-0.005": 17.3399007114,
			"-0.004": 31.2092756674,
			"-0.003": 50.8307658736,
			"-0.002": 60.2493054173,
			"-0.001": 50.4492969638,
			"0.0": 42.7588661399,
			"0.001": 43.2656793361,
			"0.002": 31.1206092003,
			"0.003": 24.5874091388,
			"0.004": 18.1782834622,
			"0.005": 11.3324267399,
			"0.006": 9.85799331028,
			"0.007": 10.4188801353,
			"0.008": 3.46715521554,
			"0.009": 3.17629433595,
			"0.01": 2.32366942045,
			"0.011": 1.65213716606,
			"0.012": 3.04654496747,
			"0.013": 2.85239842404,
			"0.014": 0.353598766252,
			"0.015": 0.0,
			"0.016": 0.0,
			"0.017": 0.0,
			"0.018": 0.0,
			"0.019": 0.0,
			"0.02": 0.0,
			"0.021": 0.0,
			"0.022": 0.0,
			"0.023": 0.0,
			"0.024": 0.0,
			"0.025": 0.0
		}
	}
}
