{
	 "smiles": "SCC1=CC=C(Br)C=C1", 
	 "Tm": 300.15, 
	 "num_atms": 16, 
	 "gaussian": { 
		 "optdone": 1, 
		 "sigma_profile": "yes", 
		 "theory": "DFT", 
		 "functional": "B3LYP", 
		 "basiset": "6-31G**", 
		 "properties": { 
			 "R2extent": 4672.7754, 
			 "electric_dipole_moment_norm": 1.33293404188, 
			 "electric_quadrupole_moment_norm": 10.3428703057, 
			 "total_energy": -3240.55598607, 
			 "HOMO_LUMO_gap": 0.20864, 
			 "cosmo_polarized_energy": -6.69, 
			 "cosmo_cavitation_energy": 23.93, 
			 "cosmo_dispersion_energy": -18.37, 
			 "cosmo_repulsion_energy": 1.47, 
			 "cosmo_total_nonelectrostatic_energy": 7.03, 
			 "SMD_solvation_energy": 2.35 
		},
		"coords": [
			{
				"x": -0.8760326889,
				"y": -2.5837042475,
				"z": 0.232717627,
				"element": "S" 
			},
			{
				"x": -1.0698951686,
				"y": -0.8583283977,
				"z": -0.4202479142,
				"element": "C" 
			},
			{
				"x": -0.55590111,
				"y": 0.2213259485,
				"z": 0.4970865751,
				"element": "C" 
			},
			{
				"x": -1.2135540709,
				"y": 0.5272929189,
				"z": 1.6972635658,
				"element": "C" 
			},
			{
				"x": -0.7401923679,
				"y": 1.5281655726,
				"z": 2.5416881655,
				"element": "C" 
			},
			{
				"x": 0.410596647,
				"y": 2.2324021082,
				"z": 2.1842927179,
				"element": "C" 
			},
			{
				"x": 1.0670256386,
				"y": 3.6076500397,
				"z": 3.338390667,
				"element": "Br" 
			},
			{
				"x": 1.0859775377,
				"y": 1.9492172429,
				"z": 1.000611284,
				"element": "C" 
			},
			{
				"x": 0.5957538625,
				"y": 0.9438144891,
				"z": 0.1646239197,
				"element": "C" 
			},
			{
				"x": 0.4549801337,
				"y": -2.5204388492,
				"z": 0.4385470321,
				"element": "H" 
			},
			{
				"x": -2.1490246456,
				"y": -0.7655542781,
				"z": -0.5734556762,
				"element": "H" 
			},
			{
				"x": -0.5927120256,
				"y": -0.7962500409,
				"z": -1.4007722236,
				"element": "H" 
			},
			{
				"x": -2.1020824059,
				"y": -0.0308013837,
				"z": 1.9793175018,
				"element": "H" 
			},
			{
				"x": -1.256372467,
				"y": 1.7610329485,
				"z": 3.4660877347,
				"element": "H" 
			},
			{
				"x": 1.9779248364,
				"y": 2.5042245865,
				"z": 0.7331342197,
				"element": "H" 
			},
			{
				"x": 1.1196082946,
				"y": 0.7255513423,
				"z": -0.7626851963,
				"element": "H" 
			}
		],
		 "valence_orbital": [ 
			{
				"type": "occ",
				"energy": -0.30892,
				"method": "rhf"
			},
			{
				"type": "occ",
				"energy": -0.28896,
				"method": "rhf"
			},
			{
				"type": "occ",
				"energy": -0.2686,
				"method": "rhf"
			},
			{
				"type": "occ",
				"energy": -0.25015,
				"method": "rhf"
			},
			{
				"type": "occ",
				"energy": -0.23595,
				"method": "rhf"
			},
			{
				"type": "unocc",
				"energy": -0.02731,
				"method": "rhf"
			},
			{
				"type": "unocc",
				"energy": -0.01837,
				"method": "rhf"
			},
			{
				"type": "unocc",
				"energy": 0.00476,
				"method": "rhf"
			},
			{
				"type": "unocc",
				"energy": 0.0259,
				"method": "rhf"
			},
			{
				"type": "unocc",
				"energy": 0.06995,
				"method": "rhf"
			}
		],
		"cosmo_sigma_profile": { 
			"-0.025": 0.0,
			"-0.024": 0.0,
			"-0.023": 0.0,
			"-0.022": 0.0,
			"-0.021": 0.0,
			"-0.02": 0.0,
			"-0.019": 0.0,
			"-0.018": 0.0,
			"-0.017": 0.0,
			"-0.016": 0.0,
			"-0.015": 0.0,
			"-0.014": 0.0,
			"-0.013": 0.0,
			"-0.012": 0.0,
			"-0.011": 0.0,
			"-0.01": 0.0,
			"-0.009": 1.29191757489,
			"-0.008": 1.82177658207,
			"-0.007": 8.12152272972,
			"-0.006": 15.8000928713,
			"-0.005": 14.28783867,
			"-0.004": 12.4407716912,
			"-0.003": 11.6004670367,
			"-0.002": 12.4466572348,
			"-0.001": 9.63135700437,
			"0.0": 10.9326197169,
			"0.001": 12.4876778301,
			"0.002": 17.8453394493,
			"0.003": 19.5174833649,
			"0.004": 21.959272834,
			"0.005": 12.3596946661,
			"0.006": 4.31840294461,
			"0.007": 2.27390254384,
			"0.008": 2.9631603112,
			"0.009": 1.90399046428,
			"0.01": 2.223670013,
			"0.011": 0.448487169676,
			"0.012": 0.0,
			"0.013": 0.0,
			"0.014": 0.0,
			"0.015": 0.0,
			"0.016": 0.0,
			"0.017": 0.0,
			"0.018": 0.0,
			"0.019": 0.0,
			"0.02": 0.0,
			"0.021": 0.0,
			"0.022": 0.0,
			"0.023": 0.0,
			"0.024": 0.0,
			"0.025": 0.0
		}
	}
}
