{
	 "smiles": "NNC(=S)NCC1=CC=C2OCOC2=C1", 
	 "Tm": 432.15, 
	 "num_atms": 26, 
	 "gaussian": { 
		 "optdone": 1, 
		 "sigma_profile": "yes", 
		 "theory": "DFT", 
		 "functional": "B3LYP", 
		 "basiset": "6-31G**", 
		 "properties": { 
			 "R2extent": 5405.5837, 
			 "electric_dipole_moment_norm": 5.28493406392, 
			 "electric_quadrupole_moment_norm": 21.1412434842, 
			 "total_energy": -1062.43032534, 
			 "HOMO_LUMO_gap": 0.18878, 
			 "cosmo_polarized_energy": -18.24, 
			 "cosmo_cavitation_energy": 31.57, 
			 "cosmo_dispersion_energy": -23.5, 
			 "cosmo_repulsion_energy": 1.83, 
			 "cosmo_total_nonelectrostatic_energy": 9.9, 
			 "SMD_solvation_energy": 5.21 
		},
		"coords": [
			{
				"x": -0.1046820683,
				"y": 4.1389986781,
				"z": 0.3734041917,
				"element": "N" 
			},
			{
				"x": 0.4225545993,
				"y": 3.0857548961,
				"z": -0.3997286934,
				"element": "N" 
			},
			{
				"x": 0.8770190272,
				"y": 3.2608846442,
				"z": -1.6739920116,
				"element": "C" 
			},
			{
				"x": 1.0094188356,
				"y": 4.771232854,
				"z": -2.4085970079,
				"element": "S" 
			},
			{
				"x": 1.2275610249,
				"y": 2.1146651614,
				"z": -2.3301546367,
				"element": "N" 
			},
			{
				"x": 1.4493483006,
				"y": 0.8154354757,
				"z": -1.7048628287,
				"element": "C" 
			},
			{
				"x": 0.1810665383,
				"y": 0.0544009883,
				"z": -1.3320806935,
				"element": "C" 
			},
			{
				"x": -0.9918022288,
				"y": 0.1923157562,
				"z": -2.0795715153,
				"element": "C" 
			},
			{
				"x": -2.1515005504,
				"y": -0.5461937546,
				"z": -1.780779375,
				"element": "C" 
			},
			{
				"x": -2.0793236436,
				"y": -1.4218735553,
				"z": -0.7159282677,
				"element": "C" 
			},
			{
				"x": -3.0568909345,
				"y": -2.2458717516,
				"z": -0.2183379537,
				"element": "O" 
			},
			{
				"x": -2.4737685917,
				"y": -2.9278573864,
				"z": 0.8993300707,
				"element": "C" 
			},
			{
				"x": -1.1166527461,
				"y": -2.4837821,
				"z": 1.0344872938,
				"element": "O" 
			},
			{
				"x": -0.9149109366,
				"y": -1.564772336,
				"z": 0.0363477212,
				"element": "C" 
			},
			{
				"x": 0.2273182095,
				"y": -0.8413754175,
				"z": -0.2396251939,
				"element": "C" 
			},
			{
				"x": 0.6855303096,
				"y": 4.6955684294,
				"z": 0.6983875278,
				"element": "H" 
			},
			{
				"x": -0.6125381585,
				"y": 4.7553270746,
				"z": -0.2656135932,
				"element": "H" 
			},
			{
				"x": 0.0566967925,
				"y": 2.179175021,
				"z": -0.1369624046,
				"element": "H" 
			},
			{
				"x": 1.6321198016,
				"y": 2.2865998113,
				"z": -3.2381169262,
				"element": "H" 
			},
			{
				"x": 2.0338007488,
				"y": 0.2257196008,
				"z": -2.41981825,
				"element": "H" 
			},
			{
				"x": 2.0772459486,
				"y": 0.9322791049,
				"z": -0.8105393917,
				"element": "H" 
			},
			{
				"x": -1.0085082221,
				"y": 0.8958568118,
				"z": -2.905485905,
				"element": "H" 
			},
			{
				"x": -3.0625844074,
				"y": -0.4327131929,
				"z": -2.3570949443,
				"element": "H" 
			},
			{
				"x": -3.0316632505,
				"y": -2.6806373143,
				"z": 1.8107759608,
				"element": "H" 
			},
			{
				"x": -2.4875429291,
				"y": -4.0090587347,
				"z": 0.7164169891,
				"element": "H" 
			},
			{
				"x": 1.123588531,
				"y": -0.9608787644,
				"z": 0.3608398373,
				"element": "H" 
			}
		],
		 "valence_orbital": [ 
			{
				"type": "occ",
				"energy": -0.26213,
				"method": "rhf"
			},
			{
				"type": "occ",
				"energy": -0.2595,
				"method": "rhf"
			},
			{
				"type": "occ",
				"energy": -0.21944,
				"method": "rhf"
			},
			{
				"type": "occ",
				"energy": -0.21292,
				"method": "rhf"
			},
			{
				"type": "occ",
				"energy": -0.20463,
				"method": "rhf"
			},
			{
				"type": "unocc",
				"energy": -0.01585,
				"method": "rhf"
			},
			{
				"type": "unocc",
				"energy": -0.00699,
				"method": "rhf"
			},
			{
				"type": "unocc",
				"energy": 0.00044,
				"method": "rhf"
			},
			{
				"type": "unocc",
				"energy": 0.06833,
				"method": "rhf"
			},
			{
				"type": "unocc",
				"energy": 0.09,
				"method": "rhf"
			}
		],
		"cosmo_sigma_profile": { 
			"-0.025": 0.0,
			"-0.024": 0.0,
			"-0.023": 0.0,
			"-0.022": 0.0,
			"-0.021": 0.0,
			"-0.02": 0.0,
			"-0.019": 0.0,
			"-0.018": 0.0,
			"-0.017": 0.0,
			"-0.016": 0.0,
			"-0.015": 0.0712238063396,
			"-0.014": 1.31783874762,
			"-0.013": 0.85553407596,
			"-0.012": 1.12226384121,
			"-0.011": 2.4172205972,
			"-0.01": 2.29672211748,
			"-0.009": 3.53663812143,
			"-0.008": 7.29822200653,
			"-0.007": 18.1095725816,
			"-0.006": 19.606261184,
			"-0.005": 14.7210894892,
			"-0.004": 15.9326678189,
			"-0.003": 14.3881751644,
			"-0.002": 13.2123616762,
			"-0.001": 13.1290274323,
			"0.0": 12.0840362995,
			"0.001": 12.7888888781,
			"0.002": 15.2721439712,
			"0.003": 14.0203563936,
			"0.004": 12.040304841,
			"0.005": 8.09779639851,
			"0.006": 6.77860211437,
			"0.007": 6.14702076752,
			"0.008": 7.3013574584,
			"0.009": 8.26956138892,
			"0.01": 7.47908718169,
			"0.011": 8.3188926122,
			"0.012": 3.83197410251,
			"0.013": 1.33393565163,
			"0.014": 0.377056456097,
			"0.015": 0.640566041688,
			"0.016": 0.431370200244,
			"0.017": 0.0863388615605,
			"0.018": 0.0,
			"0.019": 0.0,
			"0.02": 0.0,
			"0.021": 0.0,
			"0.022": 0.0,
			"0.023": 0.0,
			"0.024": 0.0,
			"0.025": 0.0
		}
	}
}
