{
	 "smiles": "CC1=CC(COC2=C(Br)C=C(C=C2)C(O)=O)=NO1", 
	 "Tm": 474.15, 
	 "num_atms": 28, 
	 "gaussian": { 
		 "optdone": 1, 
		 "sigma_profile": "yes", 
		 "theory": "DFT", 
		 "functional": "B3LYP", 
		 "basiset": "6-31G**", 
		 "properties": { 
			 "R2extent": 8358.4321, 
			 "electric_dipole_moment_norm": 2.91675274406, 
			 "electric_quadrupole_moment_norm": 30.0841453784, 
			 "total_energy": -3390.31430615, 
			 "HOMO_LUMO_gap": 0.18957, 
			 "cosmo_polarized_energy": -16.61, 
			 "cosmo_cavitation_energy": 36.6, 
			 "cosmo_dispersion_energy": -26.48, 
			 "cosmo_repulsion_energy": 2.06, 
			 "cosmo_total_nonelectrostatic_energy": 12.17, 
			 "SMD_solvation_energy": 6.63 
		},
		"coords": [
			{
				"x": 3.7735717656,
				"y": 3.1827176828,
				"z": 3.2468376476,
				"element": "C" 
			},
			{
				"x": 2.6470938176,
				"y": 2.2230902602,
				"z": 3.079726019,
				"element": "C" 
			},
			{
				"x": 2.1790043473,
				"y": 1.4911042545,
				"z": 2.0293141875,
				"element": "C" 
			},
			{
				"x": 1.0608159637,
				"y": 0.7976003368,
				"z": 2.5727872422,
				"element": "C" 
			},
			{
				"x": 0.1643918393,
				"y": -0.1985222918,
				"z": 1.9053901991,
				"element": "C" 
			},
			{
				"x": -0.1416602341,
				"y": 0.3028496834,
				"z": 0.6024891891,
				"element": "O" 
			},
			{
				"x": -0.897868556,
				"y": -0.4521099758,
				"z": -0.2270673762,
				"element": "C" 
			},
			{
				"x": -1.0979858343,
				"y": 0.0398965106,
				"z": -1.5346063984,
				"element": "C" 
			},
			{
				"x": -0.3030114704,
				"y": 1.6923406914,
				"z": -2.0496918097,
				"element": "Br" 
			},
			{
				"x": -1.8619498419,
				"y": -0.6662821025,
				"z": -2.4469711583,
				"element": "C" 
			},
			{
				"x": -2.4494633629,
				"y": -1.8874541842,
				"z": -2.0826013783,
				"element": "C" 
			},
			{
				"x": -2.2562964118,
				"y": -2.3829224891,
				"z": -0.7895762054,
				"element": "C" 
			},
			{
				"x": -1.4884263206,
				"y": -1.673341711,
				"z": 0.1302744705,
				"element": "C" 
			},
			{
				"x": -3.2559100987,
				"y": -2.5989424605,
				"z": -3.1030506775,
				"element": "C" 
			},
			{
				"x": -3.7773064146,
				"y": -3.7666450513,
				"z": -2.6465451499,
				"element": "O" 
			},
			{
				"x": -3.4487522641,
				"y": -2.2055604143,
				"z": -4.2369279836,
				"element": "O" 
			},
			{
				"x": 0.8670773524,
				"y": 1.0855309854,
				"z": 3.8400624783,
				"element": "N" 
			},
			{
				"x": 1.8799703961,
				"y": 1.9873859088,
				"z": 4.1693411803,
				"element": "O" 
			},
			{
				"x": 4.3245745221,
				"y": 3.2822427179,
				"z": 2.3098072319,
				"element": "H" 
			},
			{
				"x": 3.4040164107,
				"y": 4.1705388443,
				"z": 3.5412318498,
				"element": "H" 
			},
			{
				"x": 4.4646400791,
				"y": 2.8425829383,
				"z": 4.0250812229,
				"element": "H" 
			},
			{
				"x": 2.5486273924,
				"y": 1.4600186406,
				"z": 1.0166473283,
				"element": "H" 
			},
			{
				"x": 0.6697221617,
				"y": -1.1703038912,
				"z": 1.8147663411,
				"element": "H" 
			},
			{
				"x": -0.743166643,
				"y": -0.3325918352,
				"z": 2.505004939,
				"element": "H" 
			},
			{
				"x": -2.014138243,
				"y": -0.2876255857,
				"z": -3.45063961,
				"element": "H" 
			},
			{
				"x": -2.7086252422,
				"y": -3.3245486968,
				"z": -0.5011506027,
				"element": "H" 
			},
			{
				"x": -1.3554634237,
				"y": -2.0709414521,
				"z": 1.128941217,
				"element": "H" 
			},
			{
				"x": -4.2790816865,
				"y": -4.1382073135,
				"z": -3.3903743936,
				"element": "H" 
			}
		],
		 "valence_orbital": [ 
			{
				"type": "occ",
				"energy": -0.28744,
				"method": "rhf"
			},
			{
				"type": "occ",
				"energy": -0.27923,
				"method": "rhf"
			},
			{
				"type": "occ",
				"energy": -0.2615,
				"method": "rhf"
			},
			{
				"type": "occ",
				"energy": -0.26077,
				"method": "rhf"
			},
			{
				"type": "occ",
				"energy": -0.23899,
				"method": "rhf"
			},
			{
				"type": "unocc",
				"energy": -0.04942,
				"method": "rhf"
			},
			{
				"type": "unocc",
				"energy": -0.02449,
				"method": "rhf"
			},
			{
				"type": "unocc",
				"energy": -0.01744,
				"method": "rhf"
			},
			{
				"type": "unocc",
				"energy": 0.00389,
				"method": "rhf"
			},
			{
				"type": "unocc",
				"energy": 0.04287,
				"method": "rhf"
			}
		],
		"cosmo_sigma_profile": { 
			"-0.025": 0.0,
			"-0.024": 0.0,
			"-0.023": 0.0,
			"-0.022": 0.0,
			"-0.021": 0.0,
			"-0.02": 0.0,
			"-0.019": 0.00488419697355,
			"-0.018": 0.741506434985,
			"-0.017": 0.905390332699,
			"-0.016": 0.978764415386,
			"-0.015": 0.88799924843,
			"-0.014": 0.402187172809,
			"-0.013": 0.804642690527,
			"-0.012": 0.627959162915,
			"-0.011": 0.55509192376,
			"-0.01": 0.851532929051,
			"-0.009": 2.5063565767,
			"-0.008": 7.97677258177,
			"-0.007": 11.8361801023,
			"-0.006": 17.1412634803,
			"-0.005": 15.1266277538,
			"-0.004": 16.7005695719,
			"-0.003": 15.6756517018,
			"-0.002": 21.6204275289,
			"-0.001": 20.0189760537,
			"0.0": 22.3399656298,
			"0.001": 29.5166826349,
			"0.002": 23.7927665299,
			"0.003": 16.5340525956,
			"0.004": 16.1732033669,
			"0.005": 10.2322671063,
			"0.006": 7.27889960329,
			"0.007": 7.21757218124,
			"0.008": 8.20529563185,
			"0.009": 3.10757475406,
			"0.01": 4.14525816806,
			"0.011": 4.85853441132,
			"0.012": 5.28845167515,
			"0.013": 1.37494396964,
			"0.014": 0.75734748706,
			"0.015": 0.111186387155,
			"0.016": 0.0,
			"0.017": 0.0,
			"0.018": 0.0,
			"0.019": 0.0,
			"0.02": 0.0,
			"0.021": 0.0,
			"0.022": 0.0,
			"0.023": 0.0,
			"0.024": 0.0,
			"0.025": 0.0
		}
	}
}
