{
	 "smiles": "CCN1C=C(C(O)=O)C(=O)C2=C1C=C1OCOC1=C2", 
	 "Tm": 588.15, 
	 "num_atms": 30, 
	 "gaussian": { 
		 "optdone": 1, 
		 "sigma_profile": "yes", 
		 "theory": "DFT", 
		 "functional": "B3LYP", 
		 "basiset": "6-31G**", 
		 "properties": { 
			 "R2extent": 5743.006, 
			 "electric_dipole_moment_norm": 10.1512249364, 
			 "electric_quadrupole_moment_norm": 24.5141555127, 
			 "total_energy": -932.896879044, 
			 "HOMO_LUMO_gap": 0.16483, 
			 "cosmo_polarized_energy": -22.42, 
			 "cosmo_cavitation_energy": 33.46, 
			 "cosmo_dispersion_energy": -25.39, 
			 "cosmo_repulsion_energy": 1.9, 
			 "cosmo_total_nonelectrostatic_energy": 9.97, 
			 "SMD_solvation_energy": 7.62 
		},
		"coords": [
			{
				"x": 1.5000758606,
				"y": -0.5419642224,
				"z": 3.9531212594,
				"element": "C" 
			},
			{
				"x": 1.5380200768,
				"y": -0.7682934605,
				"z": 2.4465012545,
				"element": "C" 
			},
			{
				"x": 0.3127557088,
				"y": -0.3789510098,
				"z": 1.710942663,
				"element": "N" 
			},
			{
				"x": -0.7605766701,
				"y": 0.1424330657,
				"z": 2.3508260984,
				"element": "C" 
			},
			{
				"x": -1.9206760142,
				"y": 0.5213682714,
				"z": 1.7290422472,
				"element": "C" 
			},
			{
				"x": -3.0093064019,
				"y": 1.0808340682,
				"z": 2.5952503638,
				"element": "C" 
			},
			{
				"x": -4.1213786726,
				"y": 1.4373010659,
				"z": 1.9495368168,
				"element": "O" 
			},
			{
				"x": -2.8811674007,
				"y": 1.1983294822,
				"z": 3.8005628325,
				"element": "O" 
			},
			{
				"x": -2.0614865756,
				"y": 0.3770250109,
				"z": 0.299449682,
				"element": "C" 
			},
			{
				"x": -3.0990409357,
				"y": 0.7066252067,
				"z": -0.3227730896,
				"element": "O" 
			},
			{
				"x": -0.8972776001,
				"y": -0.1881851881,
				"z": -0.3925449769,
				"element": "C" 
			},
			{
				"x": 0.2713938763,
				"y": -0.5577856862,
				"z": 0.319818697,
				"element": "C" 
			},
			{
				"x": 1.3872834455,
				"y": -1.1030592558,
				"z": -0.368926169,
				"element": "C" 
			},
			{
				"x": 1.2688968502,
				"y": -1.246897482,
				"z": -1.7307562782,
				"element": "C" 
			},
			{
				"x": 2.2011415165,
				"y": -1.7427025468,
				"z": -2.5927905752,
				"element": "O" 
			},
			{
				"x": 1.6093312496,
				"y": -1.6890156514,
				"z": -3.9032024061,
				"element": "C" 
			},
			{
				"x": 0.2951548565,
				"y": -1.1424515319,
				"z": -3.7714274317,
				"element": "O" 
			},
			{
				"x": 0.1145405418,
				"y": -0.882279993,
				"z": -2.4370660962,
				"element": "C" 
			},
			{
				"x": -0.9739776951,
				"y": -0.3549673981,
				"z": -1.79816992,
				"element": "C" 
			},
			{
				"x": 2.4590460802,
				"y": -0.8697100896,
				"z": 4.3642285046,
				"element": "H" 
			},
			{
				"x": 0.714256008,
				"y": -1.1238608714,
				"z": 4.4421219344,
				"element": "H" 
			},
			{
				"x": 1.3716218927,
				"y": 0.5121755934,
				"z": 4.2129921633,
				"element": "H" 
			},
			{
				"x": 1.7216445245,
				"y": -1.829389903,
				"z": 2.244225649,
				"element": "H" 
			},
			{
				"x": 2.374234969,
				"y": -0.2056659449,
				"z": 2.0166612152,
				"element": "H" 
			},
			{
				"x": -0.6983475411,
				"y": 0.2681703813,
				"z": 3.4230524691,
				"element": "H" 
			},
			{
				"x": -3.9886990446,
				"y": 1.2477797799,
				"z": 0.9777577081,
				"element": "H" 
			},
			{
				"x": 2.2997092898,
				"y": -1.4000228984,
				"z": 0.1272393247,
				"element": "H" 
			},
			{
				"x": 1.5492029683,
				"y": -2.7037948433,
				"z": -4.3129998589,
				"element": "H" 
			},
			{
				"x": 2.216873469,
				"y": -1.0421410139,
				"z": -4.5464568796,
				"element": "H" 
			},
			{
				"x": -1.8837486323,
				"y": -0.0608029349,
				"z": -2.3068172014,
				"element": "H" 
			}
		],
		 "valence_orbital": [ 
			{
				"type": "occ",
				"energy": -0.27196,
				"method": "rhf"
			},
			{
				"type": "occ",
				"energy": -0.25853,
				"method": "rhf"
			},
			{
				"type": "occ",
				"energy": -0.24841,
				"method": "rhf"
			},
			{
				"type": "occ",
				"energy": -0.24579,
				"method": "rhf"
			},
			{
				"type": "occ",
				"energy": -0.22286,
				"method": "rhf"
			},
			{
				"type": "unocc",
				"energy": -0.05803,
				"method": "rhf"
			},
			{
				"type": "unocc",
				"energy": -0.03972,
				"method": "rhf"
			},
			{
				"type": "unocc",
				"energy": -0.00287,
				"method": "rhf"
			},
			{
				"type": "unocc",
				"energy": 0.04143,
				"method": "rhf"
			},
			{
				"type": "unocc",
				"energy": 0.0653,
				"method": "rhf"
			}
		],
		"cosmo_sigma_profile": { 
			"-0.025": 0.0,
			"-0.024": 0.0,
			"-0.023": 0.0,
			"-0.022": 0.0,
			"-0.021": 0.0,
			"-0.02": 0.0,
			"-0.019": 0.0,
			"-0.018": 0.0,
			"-0.017": 0.0,
			"-0.016": 0.0,
			"-0.015": 0.0,
			"-0.014": 0.0,
			"-0.013": 0.0,
			"-0.012": 0.0,
			"-0.011": 0.0,
			"-0.01": 0.10590373749,
			"-0.009": 2.9982137135,
			"-0.008": 10.4951005113,
			"-0.007": 17.0651214967,
			"-0.006": 19.0312353212,
			"-0.005": 20.4838976293,
			"-0.004": 16.1710351282,
			"-0.003": 16.5247270254,
			"-0.002": 20.3544599402,
			"-0.001": 22.2073419984,
			"0.0": 20.102503605,
			"0.001": 19.184268768,
			"0.002": 12.5627497021,
			"0.003": 7.52382970681,
			"0.004": 6.55621351626,
			"0.005": 5.42900576461,
			"0.006": 5.95874211626,
			"0.007": 5.44574507848,
			"0.008": 7.07731709678,
			"0.009": 6.24577896778,
			"0.01": 4.98608297124,
			"0.011": 5.14661936061,
			"0.012": 8.3948967118,
			"0.013": 5.51855722661,
			"0.014": 2.12880288705,
			"0.015": 0.277105669983,
			"0.016": 0.0,
			"0.017": 0.0,
			"0.018": 0.0,
			"0.019": 0.0,
			"0.02": 0.0,
			"0.021": 0.0,
			"0.022": 0.0,
			"0.023": 0.0,
			"0.024": 0.0,
			"0.025": 0.0
		}
	}
}
