{
	 "smiles": "NNC(=O)C1=CC=CS1", 
	 "Tm": 412.15, 
	 "num_atms": 15, 
	 "gaussian": { 
		 "optdone": 1, 
		 "sigma_profile": "yes", 
		 "theory": "DFT", 
		 "functional": "B3LYP", 
		 "basiset": "6-31G**", 
		 "properties": { 
			 "R2extent": 1924.7872, 
			 "electric_dipole_moment_norm": 2.33624963991, 
			 "electric_quadrupole_moment_norm": 5.92006600554, 
			 "total_energy": -777.026843319, 
			 "HOMO_LUMO_gap": 0.1955, 
			 "cosmo_polarized_energy": -11.49, 
			 "cosmo_cavitation_energy": 21.04, 
			 "cosmo_dispersion_energy": -16.28, 
			 "cosmo_repulsion_energy": 1.29, 
			 "cosmo_total_nonelectrostatic_energy": 6.05, 
			 "SMD_solvation_energy": 4.81 
		},
		"coords": [
			{
				"x": -3.4496335103,
				"y": -2.9597840379,
				"z": -0.2790397319,
				"element": "N" 
			},
			{
				"x": -2.3039925743,
				"y": -2.1815996713,
				"z": -0.0037340783,
				"element": "N" 
			},
			{
				"x": -2.2510842839,
				"y": -0.8703226934,
				"z": -0.4203530283,
				"element": "C" 
			},
			{
				"x": -3.1181349024,
				"y": -0.3859979932,
				"z": -1.1423553304,
				"element": "O" 
			},
			{
				"x": -1.0897766423,
				"y": -0.0770431076,
				"z": 0.0479682344,
				"element": "C" 
			},
			{
				"x": -0.9887246583,
				"y": 1.2885652981,
				"z": -0.0610908419,
				"element": "C" 
			},
			{
				"x": 0.2240616105,
				"y": 1.8062762634,
				"z": 0.4727302357,
				"element": "C" 
			},
			{
				"x": 1.0389295154,
				"y": 0.8280876261,
				"z": 0.9787145428,
				"element": "C" 
			},
			{
				"x": 0.3410074337,
				"y": -0.7464100135,
				"z": 0.8021548259,
				"element": "S" 
			},
			{
				"x": -3.3404436673,
				"y": -3.3347276164,
				"z": -1.2208152128,
				"element": "H" 
			},
			{
				"x": -4.2356503587,
				"y": -2.3099954532,
				"z": -0.338255034,
				"element": "H" 
			},
			{
				"x": -1.8262869964,
				"y": -2.4506036335,
				"z": 0.8457448902,
				"element": "H" 
			},
			{
				"x": -1.7759096331,
				"y": 1.8797511767,
				"z": -0.512576152,
				"element": "H" 
			},
			{
				"x": 0.4830142493,
				"y": 2.8586902372,
				"z": 0.4796524217,
				"element": "H" 
			},
			{
				"x": 2.0148244181,
				"y": 0.9353136186,
				"z": 1.4322542589,
				"element": "H" 
			}
		],
		 "valence_orbital": [ 
			{
				"type": "occ",
				"energy": -0.28969,
				"method": "rhf"
			},
			{
				"type": "occ",
				"energy": -0.26638,
				"method": "rhf"
			},
			{
				"type": "occ",
				"energy": -0.26476,
				"method": "rhf"
			},
			{
				"type": "occ",
				"energy": -0.25452,
				"method": "rhf"
			},
			{
				"type": "occ",
				"energy": -0.24535,
				"method": "rhf"
			},
			{
				"type": "unocc",
				"energy": -0.04985,
				"method": "rhf"
			},
			{
				"type": "unocc",
				"energy": 0.01485,
				"method": "rhf"
			},
			{
				"type": "unocc",
				"energy": 0.03381,
				"method": "rhf"
			},
			{
				"type": "unocc",
				"energy": 0.06997,
				"method": "rhf"
			},
			{
				"type": "unocc",
				"energy": 0.09306,
				"method": "rhf"
			}
		],
		"cosmo_sigma_profile": { 
			"-0.025": 0.0,
			"-0.024": 0.0,
			"-0.023": 0.0,
			"-0.022": 0.0,
			"-0.021": 0.0,
			"-0.02": 0.0,
			"-0.019": 0.0,
			"-0.018": 0.0,
			"-0.017": 0.0,
			"-0.016": 0.0,
			"-0.015": 0.0,
			"-0.014": 0.427814614278,
			"-0.013": 0.986087176763,
			"-0.012": 1.42355617031,
			"-0.011": 2.61555980756,
			"-0.01": 3.60219840044,
			"-0.009": 4.94993262629,
			"-0.008": 5.88111474923,
			"-0.007": 6.81696645783,
			"-0.006": 8.16752920755,
			"-0.005": 7.97640028677,
			"-0.004": 8.49183467312,
			"-0.003": 9.58168100128,
			"-0.002": 7.83909210326,
			"-0.001": 7.37890091058,
			"0.0": 11.4869189201,
			"0.001": 12.4326568407,
			"0.002": 14.6806281892,
			"0.003": 17.4557406503,
			"0.004": 10.6053310501,
			"0.005": 2.96155565384,
			"0.006": 1.87656023769,
			"0.007": 2.15816364529,
			"0.008": 2.01823804142,
			"0.009": 1.91571929415,
			"0.01": 2.29618813774,
			"0.011": 2.15604552053,
			"0.012": 3.17822851944,
			"0.013": 5.41253187757,
			"0.014": 1.81076210912,
			"0.015": 0.528345231995,
			"0.016": 0.534477022835,
			"0.017": 0.223775892826,
			"0.018": 0.0,
			"0.019": 0.0,
			"0.02": 0.0,
			"0.021": 0.0,
			"0.022": 0.0,
			"0.023": 0.0,
			"0.024": 0.0,
			"0.025": 0.0
		}
	}
}
