{
	 "smiles": "O=S1(=O)CCC2(CO2)CC1", 
	 "Tm": 442.15, 
	 "num_atms": 20, 
	 "gaussian": { 
		 "optdone": 1, 
		 "sigma_profile": "yes", 
		 "theory": "DFT", 
		 "functional": "B3LYP", 
		 "basiset": "6-31G**", 
		 "properties": { 
			 "R2extent": 3428.8905, 
			 "electric_dipole_moment_norm": 4.14881762072, 
			 "electric_quadrupole_moment_norm": 29.3870301206, 
			 "total_energy": -858.426775231, 
			 "HOMO_LUMO_gap": 0.33523, 
			 "cosmo_polarized_energy": -18.01, 
			 "cosmo_cavitation_energy": 23.27, 
			 "cosmo_dispersion_energy": -17.77, 
			 "cosmo_repulsion_energy": 1.37, 
			 "cosmo_total_nonelectrostatic_energy": 6.87, 
			 "SMD_solvation_energy": 2.79 
		},
		"coords": [
			{
				"x": 0.5452260525,
				"y": 2.2661015918,
				"z": 4.6118907927,
				"element": "O" 
			},
			{
				"x": 0.946603359,
				"y": 1.4600796266,
				"z": 3.4493756307,
				"element": "S" 
			},
			{
				"x": 1.9361898955,
				"y": 0.3762786336,
				"z": 3.5847628545,
				"element": "O" 
			},
			{
				"x": -0.54090603,
				"y": 0.7545729337,
				"z": 2.6746672411,
				"element": "C" 
			},
			{
				"x": -0.215519677,
				"y": 0.1473527818,
				"z": 1.3033367687,
				"element": "C" 
			},
			{
				"x": 0.3805882029,
				"y": 1.1689116328,
				"z": 0.3440929864,
				"element": "C" 
			},
			{
				"x": -0.4923050121,
				"y": 1.8723227624,
				"z": -0.615025903,
				"element": "C" 
			},
			{
				"x": 0.3501504414,
				"y": 0.7886152029,
				"z": -1.0345254267,
				"element": "O" 
			},
			{
				"x": 1.6810407475,
				"y": 1.8161463112,
				"z": 0.8012229072,
				"element": "C" 
			},
			{
				"x": 1.5226664793,
				"y": 2.5705575436,
				"z": 2.1282122412,
				"element": "C" 
			},
			{
				"x": -1.2748850124,
				"y": 1.5637268679,
				"z": 2.6137350656,
				"element": "H" 
			},
			{
				"x": -0.9036431571,
				"y": 0.0064355719,
				"z": 3.3848254611,
				"element": "H" 
			},
			{
				"x": -1.126397428,
				"y": -0.2736455561,
				"z": 0.8663566849,
				"element": "H" 
			},
			{
				"x": 0.4941519508,
				"y": -0.6768021809,
				"z": 1.4356873505,
				"element": "H" 
			},
			{
				"x": -1.5624600015,
				"y": 1.664346679,
				"z": -0.6293304129,
				"element": "H" 
			},
			{
				"x": -0.2076487317,
				"y": 2.8564196345,
				"z": -0.9881352823,
				"element": "H" 
			},
			{
				"x": 2.0342522735,
				"y": 2.5072417616,
				"z": 0.0295263053,
				"element": "H" 
			},
			{
				"x": 2.4455325288,
				"y": 1.0402452309,
				"z": 0.9191973227,
				"element": "H" 
			},
			{
				"x": 2.4709194868,
				"y": 2.9763673945,
				"z": 2.4911837043,
				"element": "H" 
			},
			{
				"x": 0.7947436319,
				"y": 3.3850255763,
				"z": 2.0655437078,
				"element": "H" 
			}
		],
		 "valence_orbital": [ 
			{
				"type": "occ",
				"energy": -0.31384,
				"method": "rhf"
			},
			{
				"type": "occ",
				"energy": -0.31345,
				"method": "rhf"
			},
			{
				"type": "occ",
				"energy": -0.2974,
				"method": "rhf"
			},
			{
				"type": "occ",
				"energy": -0.28346,
				"method": "rhf"
			},
			{
				"type": "occ",
				"energy": -0.28286,
				"method": "rhf"
			},
			{
				"type": "unocc",
				"energy": 0.05237,
				"method": "rhf"
			},
			{
				"type": "unocc",
				"energy": 0.06301,
				"method": "rhf"
			},
			{
				"type": "unocc",
				"energy": 0.06667,
				"method": "rhf"
			},
			{
				"type": "unocc",
				"energy": 0.07082,
				"method": "rhf"
			},
			{
				"type": "unocc",
				"energy": 0.08758,
				"method": "rhf"
			}
		],
		"cosmo_sigma_profile": { 
			"-0.025": 0.0,
			"-0.024": 0.0,
			"-0.023": 0.0,
			"-0.022": 0.0,
			"-0.021": 0.0,
			"-0.02": 0.0,
			"-0.019": 0.0,
			"-0.018": 0.0,
			"-0.017": 0.0,
			"-0.016": 0.0,
			"-0.015": 0.0,
			"-0.014": 0.0,
			"-0.013": 0.0,
			"-0.012": 0.0,
			"-0.011": 0.220489975586,
			"-0.01": 0.806817981874,
			"-0.009": 3.4009029099,
			"-0.008": 8.01574688765,
			"-0.007": 10.0688851903,
			"-0.006": 21.4745576027,
			"-0.005": 22.2161597564,
			"-0.004": 19.5208572373,
			"-0.003": 12.0439431491,
			"-0.002": 7.59054363205,
			"-0.001": 5.01360115949,
			"0.0": 5.30281043248,
			"0.001": 3.5555476877,
			"0.002": 3.97186550294,
			"0.003": 3.15088902612,
			"0.004": 4.34093069892,
			"0.005": 2.26560426368,
			"0.006": 3.68464420974,
			"0.007": 3.81997562642,
			"0.008": 4.70610941692,
			"0.009": 3.34432155938,
			"0.01": 5.96044080874,
			"0.011": 12.1611737014,
			"0.012": 13.0638161077,
			"0.013": 2.54049213054,
			"0.014": 0.0,
			"0.015": 0.0,
			"0.016": 0.0,
			"0.017": 0.0,
			"0.018": 0.0,
			"0.019": 0.0,
			"0.02": 0.0,
			"0.021": 0.0,
			"0.022": 0.0,
			"0.023": 0.0,
			"0.024": 0.0,
			"0.025": 0.0
		}
	}
}
