{
	 "smiles": "CC1=CC=C(C=C1)C(O)C(=O)C1=CC=C(C)C=C1", 
	 "Tm": 362.15, 
	 "num_atms": 34, 
	 "gaussian": { 
		 "optdone": 1, 
		 "sigma_profile": "yes", 
		 "theory": "DFT", 
		 "functional": "B3LYP", 
		 "basiset": "6-31G**", 
		 "properties": { 
			 "R2extent": 5828.3532, 
			 "electric_dipole_moment_norm": 4.58035038834, 
			 "electric_quadrupole_moment_norm": 13.4411917228, 
			 "total_energy": -769.80464063, 
			 "HOMO_LUMO_gap": 0.16715, 
			 "cosmo_polarized_energy": -11.54, 
			 "cosmo_cavitation_energy": 37.37, 
			 "cosmo_dispersion_energy": -26.23, 
			 "cosmo_repulsion_energy": 2.04, 
			 "cosmo_total_nonelectrostatic_energy": 13.17, 
			 "SMD_solvation_energy": 6.59 
		},
		"coords": [
			{
				"x": 2.4984992588,
				"y": -3.2683435518,
				"z": 3.1148894306,
				"element": "C" 
			},
			{
				"x": 1.856320582,
				"y": -2.9183055012,
				"z": 1.7931826694,
				"element": "C" 
			},
			{
				"x": 2.6294214573,
				"y": -2.4342503618,
				"z": 0.7257899194,
				"element": "C" 
			},
			{
				"x": 2.0453092419,
				"y": -2.0938993512,
				"z": -0.4901013428,
				"element": "C" 
			},
			{
				"x": 0.6622276353,
				"y": -2.2229035935,
				"z": -0.6786204854,
				"element": "C" 
			},
			{
				"x": -0.1103394214,
				"y": -2.7151645562,
				"z": 0.3750826413,
				"element": "C" 
			},
			{
				"x": 0.4787029831,
				"y": -3.0564967143,
				"z": 1.5947802624,
				"element": "C" 
			},
			{
				"x": 0.0383553688,
				"y": -1.8865813128,
				"z": -2.0302179957,
				"element": "C" 
			},
			{
				"x": 0.4895228906,
				"y": -2.762985507,
				"z": -3.0357613849,
				"element": "O" 
			},
			{
				"x": 0.3898619386,
				"y": -0.4396715139,
				"z": -2.4480338079,
				"element": "C" 
			},
			{
				"x": 1.1812793471,
				"y": -0.307512808,
				"z": -3.3783974749,
				"element": "O" 
			},
			{
				"x": -0.1947262772,
				"y": 0.7390247834,
				"z": -1.7604290708,
				"element": "C" 
			},
			{
				"x": 0.1926485971,
				"y": 2.0188504869,
				"z": -2.195199868,
				"element": "C" 
			},
			{
				"x": -0.3399516839,
				"y": 3.1570845813,
				"z": -1.6054433313,
				"element": "C" 
			},
			{
				"x": -1.2760008265,
				"y": 3.0603620724,
				"z": -0.5623387773,
				"element": "C" 
			},
			{
				"x": -1.831358673,
				"y": 4.3015074898,
				"z": 0.0916583183,
				"element": "C" 
			},
			{
				"x": -1.661803831,
				"y": 1.782942652,
				"z": -0.1349282176,
				"element": "C" 
			},
			{
				"x": -1.1314323934,
				"y": 0.6361761469,
				"z": -0.721089425,
				"element": "C" 
			},
			{
				"x": 1.8079892162,
				"y": -3.8155577662,
				"z": 3.7627379167,
				"element": "H" 
			},
			{
				"x": 3.3910934286,
				"y": -3.8873735469,
				"z": 2.9743397205,
				"element": "H" 
			},
			{
				"x": 2.8144805357,
				"y": -2.367188489,
				"z": 3.6547858661,
				"element": "H" 
			},
			{
				"x": 3.7043144166,
				"y": -2.3261351375,
				"z": 0.8514837184,
				"element": "H" 
			},
			{
				"x": 2.6653018823,
				"y": -1.7316594715,
				"z": -1.3056912678,
				"element": "H" 
			},
			{
				"x": -1.1814262221,
				"y": -2.8503285976,
				"z": 0.2398984682,
				"element": "H" 
			},
			{
				"x": -0.1414656308,
				"y": -3.4444498576,
				"z": 2.39921537,
				"element": "H" 
			},
			{
				"x": -1.0546362811,
				"y": -1.9709132123,
				"z": -1.9425932007,
				"element": "H" 
			},
			{
				"x": 1.0466195918,
				"y": -2.2080082683,
				"z": -3.613424367,
				"element": "H" 
			},
			{
				"x": 0.9114064411,
				"y": 2.0917859642,
				"z": -3.0043578729,
				"element": "H" 
			},
			{
				"x": -0.0315940543,
				"y": 4.1387311153,
				"z": -1.9564827072,
				"element": "H" 
			},
			{
				"x": -2.7539235565,
				"y": 4.0893173463,
				"z": 0.6387629475,
				"element": "H" 
			},
			{
				"x": -1.1129991778,
				"y": 4.7212732321,
				"z": 0.8068663067,
				"element": "H" 
			},
			{
				"x": -2.04285978,
				"y": 5.0812456352,
				"z": -0.6468371404,
				"element": "H" 
			},
			{
				"x": -2.3874032505,
				"y": 1.6855424933,
				"z": 0.6682688155,
				"element": "H" 
			},
			{
				"x": -1.4441337533,
				"y": -0.3355148805,
				"z": -0.3570946335,
				"element": "H" 
			}
		],
		 "valence_orbital": [ 
			{
				"type": "occ",
				"energy": -0.26434,
				"method": "rhf"
			},
			{
				"type": "occ",
				"energy": -0.2622,
				"method": "rhf"
			},
			{
				"type": "occ",
				"energy": -0.25296,
				"method": "rhf"
			},
			{
				"type": "occ",
				"energy": -0.24783,
				"method": "rhf"
			},
			{
				"type": "occ",
				"energy": -0.23168,
				"method": "rhf"
			},
			{
				"type": "unocc",
				"energy": -0.06453,
				"method": "rhf"
			},
			{
				"type": "unocc",
				"energy": -0.01359,
				"method": "rhf"
			},
			{
				"type": "unocc",
				"energy": -0.00152,
				"method": "rhf"
			},
			{
				"type": "unocc",
				"energy": -0.00114,
				"method": "rhf"
			},
			{
				"type": "unocc",
				"energy": 0.03489,
				"method": "rhf"
			}
		],
		"cosmo_sigma_profile": { 
			"-0.025": 0.0,
			"-0.024": 0.0,
			"-0.023": 0.0,
			"-0.022": 0.0,
			"-0.021": 0.0,
			"-0.02": 0.0,
			"-0.019": 0.0,
			"-0.018": 0.0,
			"-0.017": 0.0,
			"-0.016": 0.0,
			"-0.015": 0.0,
			"-0.014": 0.0,
			"-0.013": 0.0,
			"-0.012": 0.0,
			"-0.011": 0.0,
			"-0.01": 0.185759199574,
			"-0.009": 0.767968245878,
			"-0.008": 1.75110606767,
			"-0.007": 3.74375491543,
			"-0.006": 11.4639518345,
			"-0.005": 23.0941462044,
			"-0.004": 29.0425008659,
			"-0.003": 28.4112069729,
			"-0.002": 26.1332888241,
			"-0.001": 28.4133875045,
			"0.0": 26.931584664,
			"0.001": 19.2773090261,
			"0.002": 18.2584770803,
			"0.003": 19.879769842,
			"0.004": 19.2474378845,
			"0.005": 10.7091919102,
			"0.006": 6.74785242761,
			"0.007": 3.18746880792,
			"0.008": 4.00387111468,
			"0.009": 2.12179138603,
			"0.01": 4.19432690765,
			"0.011": 3.16131889193,
			"0.012": 1.53602558583,
			"0.013": 1.8550355857,
			"0.014": 2.23938093099,
			"0.015": 0.195359204708,
			"0.016": 0.0,
			"0.017": 0.0,
			"0.018": 0.0,
			"0.019": 0.0,
			"0.02": 0.0,
			"0.021": 0.0,
			"0.022": 0.0,
			"0.023": 0.0,
			"0.024": 0.0,
			"0.025": 0.0
		}
	}
}
