{
	 "smiles": "OC(=O)C1=CN(C2=C1C=CC=C2)S(=O)(=O)C1=CC=CC=C1", 
	 "Tm": 505.15, 
	 "num_atms": 32, 
	 "gaussian": { 
		 "optdone": 1, 
		 "sigma_profile": "yes", 
		 "theory": "DFT", 
		 "functional": "B3LYP", 
		 "basiset": "6-31G**", 
		 "properties": { 
			 "R2extent": 6288.9495, 
			 "electric_dipole_moment_norm": 7.56975245896, 
			 "electric_quadrupole_moment_norm": 23.420076299, 
			 "total_energy": -1331.99427756, 
			 "HOMO_LUMO_gap": 0.16986, 
			 "cosmo_polarized_energy": -20.06, 
			 "cosmo_cavitation_energy": 38.16, 
			 "cosmo_dispersion_energy": -27.18, 
			 "cosmo_repulsion_energy": 2.01, 
			 "cosmo_total_nonelectrostatic_energy": 13.0, 
			 "SMD_solvation_energy": 6.78 
		},
		"coords": [
			{
				"x": 3.5965039936,
				"y": -1.5947660329,
				"z": 2.0431397705,
				"element": "O" 
			},
			{
				"x": 3.405119503,
				"y": -0.682392261,
				"z": 1.0467227207,
				"element": "C" 
			},
			{
				"x": 4.1908331253,
				"y": 0.2234318957,
				"z": 0.8931561171,
				"element": "O" 
			},
			{
				"x": 2.1931042507,
				"y": -0.8754873611,
				"z": 0.2215210547,
				"element": "C" 
			},
			{
				"x": 1.6456166863,
				"y": 0.140128319,
				"z": -0.5153914846,
				"element": "C" 
			},
			{
				"x": 0.5130492814,
				"y": -0.3144418629,
				"z": -1.1721395125,
				"element": "N" 
			},
			{
				"x": 0.3087899143,
				"y": -1.6708189672,
				"z": -0.8496117011,
				"element": "C" 
			},
			{
				"x": 1.3658804062,
				"y": -2.0510376807,
				"z": 0.017839879,
				"element": "C" 
			},
			{
				"x": 1.4429099238,
				"y": -3.3875177951,
				"z": 0.4455713091,
				"element": "C" 
			},
			{
				"x": 0.4603433099,
				"y": -4.2839030158,
				"z": 0.0411212408,
				"element": "C" 
			},
			{
				"x": -0.5861841707,
				"y": -3.8774557666,
				"z": -0.8044179871,
				"element": "C" 
			},
			{
				"x": -0.6714429691,
				"y": -2.569917375,
				"z": -1.2749686267,
				"element": "C" 
			},
			{
				"x": -0.5982351136,
				"y": 0.7600242747,
				"z": -1.9493607193,
				"element": "S" 
			},
			{
				"x": -1.3133627756,
				"y": -0.0475638076,
				"z": -2.9312401855,
				"element": "O" 
			},
			{
				"x": 0.2060686451,
				"y": 1.9223050045,
				"z": -2.3083307745,
				"element": "O" 
			},
			{
				"x": -1.7282916714,
				"y": 1.2213036401,
				"z": -0.6409839343,
				"element": "C" 
			},
			{
				"x": -2.901731245,
				"y": 0.4855812788,
				"z": -0.4607529252,
				"element": "C" 
			},
			{
				"x": -3.7690632876,
				"y": 0.850760774,
				"z": 0.5687545275,
				"element": "C" 
			},
			{
				"x": -3.4607338504,
				"y": 1.9339390269,
				"z": 1.3949212262,
				"element": "C" 
			},
			{
				"x": -2.2872983702,
				"y": 2.6657687433,
				"z": 1.1941774807,
				"element": "C" 
			},
			{
				"x": -1.4096993046,
				"y": 2.3142018948,
				"z": 0.1696906603,
				"element": "C" 
			},
			{
				"x": 2.800505926,
				"y": -2.1337915194,
				"z": 2.1537062813,
				"element": "H" 
			},
			{
				"x": 1.9840057895,
				"y": 1.1578447613,
				"z": -0.6334721833,
				"element": "H" 
			},
			{
				"x": 2.2771899831,
				"y": -3.735594215,
				"z": 1.0483918555,
				"element": "H" 
			},
			{
				"x": 0.5133195183,
				"y": -5.3182565162,
				"z": 0.3665489302,
				"element": "H" 
			},
			{
				"x": -1.3316459839,
				"y": -4.6016685409,
				"z": -1.1179295438,
				"element": "H" 
			},
			{
				"x": -1.446156404,
				"y": -2.268158066,
				"z": -1.9683296997,
				"element": "H" 
			},
			{
				"x": -3.1346892501,
				"y": -0.3392030571,
				"z": -1.1240475129,
				"element": "H" 
			},
			{
				"x": -4.6875210192,
				"y": 0.2924817981,
				"z": 0.7203648803,
				"element": "H" 
			},
			{
				"x": -4.1409248754,
				"y": 2.214025769,
				"z": 2.1936278816,
				"element": "H" 
			},
			{
				"x": -2.0573717088,
				"y": 3.5145477804,
				"z": 1.8304566648,
				"element": "H" 
			},
			{
				"x": -0.505188257,
				"y": 2.8834288799,
				"z": -0.0135356898,
				"element": "H" 
			}
		],
		 "valence_orbital": [ 
			{
				"type": "occ",
				"energy": -0.29142,
				"method": "rhf"
			},
			{
				"type": "occ",
				"energy": -0.2884,
				"method": "rhf"
			},
			{
				"type": "occ",
				"energy": -0.27099,
				"method": "rhf"
			},
			{
				"type": "occ",
				"energy": -0.25303,
				"method": "rhf"
			},
			{
				"type": "occ",
				"energy": -0.23574,
				"method": "rhf"
			},
			{
				"type": "unocc",
				"energy": -0.06588,
				"method": "rhf"
			},
			{
				"type": "unocc",
				"energy": -0.04335,
				"method": "rhf"
			},
			{
				"type": "unocc",
				"energy": -0.03869,
				"method": "rhf"
			},
			{
				"type": "unocc",
				"energy": -0.01251,
				"method": "rhf"
			},
			{
				"type": "unocc",
				"energy": -0.00937,
				"method": "rhf"
			}
		],
		"cosmo_sigma_profile": { 
			"-0.025": 0.0,
			"-0.024": 0.0,
			"-0.023": 0.0,
			"-0.022": 0.0,
			"-0.021": 0.0,
			"-0.02": 0.0,
			"-0.019": 0.0,
			"-0.018": 0.0,
			"-0.017": 0.131554111359,
			"-0.016": 0.987172091681,
			"-0.015": 0.755124271212,
			"-0.014": 0.918406437462,
			"-0.013": 1.09829380862,
			"-0.012": 1.21385377039,
			"-0.011": 1.12921606084,
			"-0.01": 1.14329896736,
			"-0.009": 1.87612954129,
			"-0.008": 4.99421906544,
			"-0.007": 15.7089816524,
			"-0.006": 21.9195242672,
			"-0.005": 21.0990412112,
			"-0.004": 16.68909362,
			"-0.003": 18.1126708387,
			"-0.002": 17.9260946178,
			"-0.001": 20.5792775789,
			"0.0": 23.6962353135,
			"0.001": 23.4988578632,
			"0.002": 25.594232153,
			"0.003": 18.3681383204,
			"0.004": 13.5576385368,
			"0.005": 7.14101479701,
			"0.006": 5.15334851163,
			"0.007": 6.37709131181,
			"0.008": 7.02786708662,
			"0.009": 10.2372596083,
			"0.01": 8.51347925905,
			"0.011": 5.18866955268,
			"0.012": 5.38748539992,
			"0.013": 1.83534444468,
			"0.014": 0.107250272661,
			"0.015": 0.0,
			"0.016": 0.0,
			"0.017": 0.0,
			"0.018": 0.0,
			"0.019": 0.0,
			"0.02": 0.0,
			"0.021": 0.0,
			"0.022": 0.0,
			"0.023": 0.0,
			"0.024": 0.0,
			"0.025": 0.0
		}
	}
}
