{
	 "smiles": "OCC1OC(CO)C(O)C1O", 
	 "Tm": 375.15, 
	 "num_atms": 23, 
	 "gaussian": { 
		 "optdone": 1, 
		 "sigma_profile": "yes", 
		 "theory": "DFT", 
		 "functional": "B3LYP", 
		 "basiset": "6-31G**", 
		 "properties": { 
			 "R2extent": 2085.0461, 
			 "electric_dipole_moment_norm": 4.48713778482, 
			 "electric_quadrupole_moment_norm": 18.5012029487, 
			 "total_energy": -611.936544772, 
			 "HOMO_LUMO_gap": 0.282, 
			 "cosmo_polarized_energy": -19.3, 
			 "cosmo_cavitation_energy": 23.99, 
			 "cosmo_dispersion_energy": -18.47, 
			 "cosmo_repulsion_energy": 1.52, 
			 "cosmo_total_nonelectrostatic_energy": 7.04, 
			 "SMD_solvation_energy": 3.82 
		},
		"coords": [
			{
				"x": -3.196963313,
				"y": -0.0570103323,
				"z": -0.22082988,
				"element": "O" 
			},
			{
				"x": -1.8404364077,
				"y": -0.4171428219,
				"z": 0.0813194372,
				"element": "C" 
			},
			{
				"x": -0.9666900036,
				"y": 0.8346545929,
				"z": -0.0630843456,
				"element": "C" 
			},
			{
				"x": 0.3855568114,
				"y": 0.4491038196,
				"z": 0.2228525049,
				"element": "O" 
			},
			{
				"x": 1.1852780059,
				"y": 0.524091871,
				"z": -0.9695413088,
				"element": "C" 
			},
			{
				"x": 2.2085669421,
				"y": -0.6021324489,
				"z": -0.9714344515,
				"element": "C" 
			},
			{
				"x": 1.5557601082,
				"y": -1.8649336035,
				"z": -1.1378850643,
				"element": "O" 
			},
			{
				"x": 0.2041519519,
				"y": 0.6207113117,
				"z": -2.152800694,
				"element": "C" 
			},
			{
				"x": -0.3278512981,
				"y": -0.6105957213,
				"z": -2.6117931547,
				"element": "O" 
			},
			{
				"x": -0.9134803682,
				"y": 1.4541877613,
				"z": -1.4848651067,
				"element": "C" 
			},
			{
				"x": -2.1199730511,
				"y": 1.5323206169,
				"z": -2.1894323276,
				"element": "O" 
			},
			{
				"x": -3.7222245042,
				"y": -0.865807364,
				"z": -0.2536239279,
				"element": "H" 
			},
			{
				"x": -1.4718170763,
				"y": -1.1848830882,
				"z": -0.6041422234,
				"element": "H" 
			},
			{
				"x": -1.7532287961,
				"y": -0.7864760085,
				"z": 1.1127940604,
				"element": "H" 
			},
			{
				"x": -1.2843037093,
				"y": 1.5801748076,
				"z": 0.6756521087,
				"element": "H" 
			},
			{
				"x": 1.7702322201,
				"y": 1.4597345431,
				"z": -0.9476599003,
				"element": "H" 
			},
			{
				"x": 2.9247377986,
				"y": -0.4173710562,
				"z": -1.7860693508,
				"element": "H" 
			},
			{
				"x": 2.7558763642,
				"y": -0.5759918486,
				"z": -0.0192988204,
				"element": "H" 
			},
			{
				"x": 2.227776212,
				"y": -2.5525367762,
				"z": -1.2168257733,
				"element": "H" 
			},
			{
				"x": 0.6619847877,
				"y": 1.1677285208,
				"z": -2.9904983476,
				"element": "H" 
			},
			{
				"x": 0.2764717264,
				"y": -1.3177317451,
				"z": -2.330666906,
				"element": "H" 
			},
			{
				"x": -0.5259972109,
				"y": 2.4789888708,
				"z": -1.3803295668,
				"element": "H" 
			},
			{
				"x": -2.7180271899,
				"y": 0.8606160989,
				"z": -1.8228369617,
				"element": "H" 
			}
		],
		 "valence_orbital": [ 
			{
				"type": "occ",
				"energy": -0.29189,
				"method": "rhf"
			},
			{
				"type": "occ",
				"energy": -0.27455,
				"method": "rhf"
			},
			{
				"type": "occ",
				"energy": -0.26103,
				"method": "rhf"
			},
			{
				"type": "occ",
				"energy": -0.251,
				"method": "rhf"
			},
			{
				"type": "occ",
				"energy": -0.23325,
				"method": "rhf"
			},
			{
				"type": "unocc",
				"energy": 0.04875,
				"method": "rhf"
			},
			{
				"type": "unocc",
				"energy": 0.05961,
				"method": "rhf"
			},
			{
				"type": "unocc",
				"energy": 0.09138,
				"method": "rhf"
			},
			{
				"type": "unocc",
				"energy": 0.11686,
				"method": "rhf"
			},
			{
				"type": "unocc",
				"energy": 0.12092,
				"method": "rhf"
			}
		],
		"cosmo_sigma_profile": { 
			"-0.025": 0.0,
			"-0.024": 0.0,
			"-0.023": 0.0,
			"-0.022": 0.0,
			"-0.021": 0.0,
			"-0.02": 0.0,
			"-0.019": 0.0,
			"-0.018": 0.012064909351,
			"-0.017": 1.36172675536,
			"-0.016": 2.00980572257,
			"-0.015": 2.44267887077,
			"-0.014": 1.98637343978,
			"-0.013": 1.67125982592,
			"-0.012": 1.34534658536,
			"-0.011": 1.19696058547,
			"-0.01": 2.22662968441,
			"-0.009": 2.48829125992,
			"-0.008": 1.66204411511,
			"-0.007": 2.17513751336,
			"-0.006": 6.79891930325,
			"-0.005": 20.4797358262,
			"-0.004": 23.5304369712,
			"-0.003": 15.1235904055,
			"-0.002": 10.6521844943,
			"-0.001": 8.48480731767,
			"0.0": 6.97235539137,
			"0.001": 5.48831695461,
			"0.002": 4.80650562116,
			"0.003": 5.15425954283,
			"0.004": 5.00059512508,
			"0.005": 5.77320720185,
			"0.006": 4.89515535008,
			"0.007": 4.91530603572,
			"0.008": 4.33125758643,
			"0.009": 5.188972524,
			"0.01": 5.00731157884,
			"0.011": 5.0733996627,
			"0.012": 5.30771392641,
			"0.013": 4.56486087194,
			"0.014": 4.73388546965,
			"0.015": 2.29744988112,
			"0.016": 0.168768613679,
			"0.017": 0.0,
			"0.018": 0.0,
			"0.019": 0.0,
			"0.02": 0.0,
			"0.021": 0.0,
			"0.022": 0.0,
			"0.023": 0.0,
			"0.024": 0.0,
			"0.025": 0.0
		}
	}
}
