{
	 "smiles": "ClC1=C2CCCC(=O)C2=C(Cl)S1", 
	 "Tm": 311.15, 
	 "num_atms": 18, 
	 "gaussian": { 
		 "optdone": 1, 
		 "sigma_profile": "yes", 
		 "theory": "DFT", 
		 "functional": "B3LYP", 
		 "basiset": "6-31G**", 
		 "properties": { 
			 "R2extent": 3544.3327, 
			 "electric_dipole_moment_norm": 2.98949801974, 
			 "electric_quadrupole_moment_norm": 11.3042516873, 
			 "total_energy": -1702.24600084, 
			 "HOMO_LUMO_gap": 0.17022, 
			 "cosmo_polarized_energy": -7.55, 
			 "cosmo_cavitation_energy": 26.36, 
			 "cosmo_dispersion_energy": -20.44, 
			 "cosmo_repulsion_energy": 1.59, 
			 "cosmo_total_nonelectrostatic_energy": 7.51, 
			 "SMD_solvation_energy": 3.63 
		},
		"coords": [
			{
				"x": -2.2869980579,
				"y": 1.7895172333,
				"z": 0.3289143229,
				"element": "Cl" 
			},
			{
				"x": -1.1064808598,
				"y": 0.643267174,
				"z": 0.8710095694,
				"element": "C" 
			},
			{
				"x": -0.7049881368,
				"y": -0.4911908567,
				"z": 0.2288038884,
				"element": "C" 
			},
			{
				"x": -1.203564806,
				"y": -0.9927955023,
				"z": -1.1012269166,
				"element": "C" 
			},
			{
				"x": -1.0360574997,
				"y": -2.5164682673,
				"z": -1.2042473735,
				"element": "C" 
			},
			{
				"x": 0.4070281219,
				"y": -2.9332260487,
				"z": -0.8893578496,
				"element": "C" 
			},
			{
				"x": 0.8874472626,
				"y": -2.4817829227,
				"z": 0.4882395011,
				"element": "C" 
			},
			{
				"x": 1.7126657976,
				"y": -3.1225651017,
				"z": 1.1170180768,
				"element": "O" 
			},
			{
				"x": 0.2986659613,
				"y": -1.2089000124,
				"z": 0.9865812512,
				"element": "C" 
			},
			{
				"x": 0.6069702927,
				"y": -0.5772379663,
				"z": 2.1725838002,
				"element": "C" 
			},
			{
				"x": 1.729640854,
				"y": -1.051354372,
				"z": 3.3856114357,
				"element": "Cl" 
			},
			{
				"x": -0.2972143751,
				"y": 0.8905399808,
				"z": 2.4008182798,
				"element": "S" 
			},
			{
				"x": -0.634044003,
				"y": -0.5088222066,
				"z": -1.9079398169,
				"element": "H" 
			},
			{
				"x": -2.2486243125,
				"y": -0.7011812314,
				"z": -1.2442233243,
				"element": "H" 
			},
			{
				"x": -1.3134942662,
				"y": -2.8545100864,
				"z": -2.2079288509,
				"element": "H" 
			},
			{
				"x": -1.7219133781,
				"y": -3.0077610495,
				"z": -0.5030291395,
				"element": "H" 
			},
			{
				"x": 1.0885006538,
				"y": -2.4855360546,
				"z": -1.628613679,
				"element": "H" 
			},
			{
				"x": 0.5498607514,
				"y": -4.0156927098,
				"z": -0.9441131752,
				"element": "H" 
			}
		],
		 "valence_orbital": [ 
			{
				"type": "occ",
				"energy": -0.32865,
				"method": "rhf"
			},
			{
				"type": "occ",
				"energy": -0.32666,
				"method": "rhf"
			},
			{
				"type": "occ",
				"energy": -0.27448,
				"method": "rhf"
			},
			{
				"type": "occ",
				"energy": -0.2487,
				"method": "rhf"
			},
			{
				"type": "occ",
				"energy": -0.23801,
				"method": "rhf"
			},
			{
				"type": "unocc",
				"energy": -0.06779,
				"method": "rhf"
			},
			{
				"type": "unocc",
				"energy": -0.01309,
				"method": "rhf"
			},
			{
				"type": "unocc",
				"energy": -0.00815,
				"method": "rhf"
			},
			{
				"type": "unocc",
				"energy": -0.0016,
				"method": "rhf"
			},
			{
				"type": "unocc",
				"energy": 0.04262,
				"method": "rhf"
			}
		],
		"cosmo_sigma_profile": { 
			"-0.025": 0.0,
			"-0.024": 0.0,
			"-0.023": 0.0,
			"-0.022": 0.0,
			"-0.021": 0.0,
			"-0.02": 0.0,
			"-0.019": 0.0,
			"-0.018": 0.0,
			"-0.017": 0.0,
			"-0.016": 0.0,
			"-0.015": 0.0,
			"-0.014": 0.0,
			"-0.013": 0.0,
			"-0.012": 0.0,
			"-0.011": 0.0,
			"-0.01": 0.0,
			"-0.009": 0.0,
			"-0.008": 0.0,
			"-0.007": 0.374433420117,
			"-0.006": 4.68084695881,
			"-0.005": 10.8868014128,
			"-0.004": 18.4961503518,
			"-0.003": 25.5212144332,
			"-0.002": 26.2470136361,
			"-0.001": 26.6253919279,
			"0.0": 26.6041152569,
			"0.001": 20.1117109252,
			"0.002": 18.1945176377,
			"0.003": 13.6306308947,
			"0.004": 3.96216288982,
			"0.005": 2.34963581658,
			"0.006": 2.19484114223,
			"0.007": 1.68736702952,
			"0.008": 1.64356844099,
			"0.009": 2.18372215758,
			"0.01": 2.64719668524,
			"0.011": 3.88305691276,
			"0.012": 3.88024329849,
			"0.013": 1.19603192018,
			"0.014": 0.0195271424072,
			"0.015": 0.0,
			"0.016": 0.0,
			"0.017": 0.0,
			"0.018": 0.0,
			"0.019": 0.0,
			"0.02": 0.0,
			"0.021": 0.0,
			"0.022": 0.0,
			"0.023": 0.0,
			"0.024": 0.0,
			"0.025": 0.0
		}
	}
}
