{
	 "smiles": "COC(=O)C1=CC=C(C)C(N)=C1", 
	 "Tm": 388.15, 
	 "num_atms": 23, 
	 "gaussian": { 
		 "optdone": 1, 
		 "sigma_profile": "yes", 
		 "theory": "DFT", 
		 "functional": "B3LYP", 
		 "basiset": "6-31G**", 
		 "properties": { 
			 "R2extent": 2659.2662, 
			 "electric_dipole_moment_norm": 3.55846234489, 
			 "electric_quadrupole_moment_norm": 11.6841306343, 
			 "total_energy": -554.809472374, 
			 "HOMO_LUMO_gap": 0.17168, 
			 "cosmo_polarized_energy": -12.12, 
			 "cosmo_cavitation_energy": 26.78, 
			 "cosmo_dispersion_energy": -19.75, 
			 "cosmo_repulsion_energy": 1.58, 
			 "cosmo_total_nonelectrostatic_energy": 8.62, 
			 "SMD_solvation_energy": 6.12 
		},
		"coords": [
			{
				"x": 3.508274856,
				"y": -1.7340726738,
				"z": 0.5695543074,
				"element": "C" 
			},
			{
				"x": 2.4508431467,
				"y": -0.7981442658,
				"z": 0.32014336,
				"element": "O" 
			},
			{
				"x": 1.2567626099,
				"y": -1.1180135138,
				"z": 0.8788311023,
				"element": "C" 
			},
			{
				"x": 1.0914028903,
				"y": -2.1249288363,
				"z": 1.5407374504,
				"element": "O" 
			},
			{
				"x": 0.2000029347,
				"y": -0.1106798789,
				"z": 0.5893413361,
				"element": "C" 
			},
			{
				"x": -1.0791131142,
				"y": -0.3328484179,
				"z": 1.1117651494,
				"element": "C" 
			},
			{
				"x": -2.0860189662,
				"y": 0.5934466171,
				"z": 0.8560372921,
				"element": "C" 
			},
			{
				"x": -1.8580741603,
				"y": 1.7420312558,
				"z": 0.0920077438,
				"element": "C" 
			},
			{
				"x": -2.9550733411,
				"y": 2.7445857828,
				"z": -0.160043838,
				"element": "C" 
			},
			{
				"x": -0.563750381,
				"y": 1.9581461193,
				"z": -0.4386538086,
				"element": "C" 
			},
			{
				"x": -0.2864492327,
				"y": 3.1247506004,
				"z": -1.1595298531,
				"element": "N" 
			},
			{
				"x": 0.4516334787,
				"y": 1.0276687425,
				"z": -0.1836745194,
				"element": "C" 
			},
			{
				"x": 3.2532828818,
				"y": -2.7206789128,
				"z": 0.1738702427,
				"element": "H" 
			},
			{
				"x": 4.3844672074,
				"y": -1.3324987434,
				"z": 0.0598512961,
				"element": "H" 
			},
			{
				"x": 3.6979164401,
				"y": -1.82672745,
				"z": 1.6420871437,
				"element": "H" 
			},
			{
				"x": -1.2602818457,
				"y": -1.2205466782,
				"z": 1.7065060079,
				"element": "H" 
			},
			{
				"x": -3.08122939,
				"y": 0.4285033965,
				"z": 1.2613924212,
				"element": "H" 
			},
			{
				"x": -3.8710389696,
				"y": 2.4673167701,
				"z": 0.3671241324,
				"element": "H" 
			},
			{
				"x": -3.2056817989,
				"y": 2.820712852,
				"z": -1.228073497,
				"element": "H" 
			},
			{
				"x": -2.6616203795,
				"y": 3.7483356617,
				"z": 0.1715690091,
				"element": "H" 
			},
			{
				"x": 0.5588748737,
				"y": 3.0847560621,
				"z": -1.7125769616,
				"element": "H" 
			},
			{
				"x": -1.0593634856,
				"y": 3.5026049214,
				"z": -1.6897853163,
				"element": "H" 
			},
			{
				"x": 1.4459337455,
				"y": 1.1906805893,
				"z": -0.5864802005,
				"element": "H" 
			}
		],
		 "valence_orbital": [ 
			{
				"type": "occ",
				"energy": -0.30828,
				"method": "rhf"
			},
			{
				"type": "occ",
				"energy": -0.29329,
				"method": "rhf"
			},
			{
				"type": "occ",
				"energy": -0.26466,
				"method": "rhf"
			},
			{
				"type": "occ",
				"energy": -0.24486,
				"method": "rhf"
			},
			{
				"type": "occ",
				"energy": -0.20539,
				"method": "rhf"
			},
			{
				"type": "unocc",
				"energy": -0.03371,
				"method": "rhf"
			},
			{
				"type": "unocc",
				"energy": 0.01272,
				"method": "rhf"
			},
			{
				"type": "unocc",
				"energy": 0.06814,
				"method": "rhf"
			},
			{
				"type": "unocc",
				"energy": 0.07479,
				"method": "rhf"
			},
			{
				"type": "unocc",
				"energy": 0.1067,
				"method": "rhf"
			}
		],
		"cosmo_sigma_profile": { 
			"-0.025": 0.0,
			"-0.024": 0.0,
			"-0.023": 0.0,
			"-0.022": 0.0,
			"-0.021": 0.0,
			"-0.02": 0.0,
			"-0.019": 0.0,
			"-0.018": 0.0,
			"-0.017": 0.0,
			"-0.016": 0.0,
			"-0.015": 0.0,
			"-0.014": 0.0,
			"-0.013": 0.175249872227,
			"-0.012": 2.00842700928,
			"-0.011": 2.5877163629,
			"-0.01": 3.04188066471,
			"-0.009": 3.73616318972,
			"-0.008": 2.57701865205,
			"-0.007": 3.75630606127,
			"-0.006": 6.74661076368,
			"-0.005": 14.057418869,
			"-0.004": 18.5074130735,
			"-0.003": 18.6910783036,
			"-0.002": 15.6001828905,
			"-0.001": 15.2554610192,
			"0.0": 13.9541287959,
			"0.001": 11.1982239024,
			"0.002": 11.5832099019,
			"0.003": 13.1599661963,
			"0.004": 13.5060946756,
			"0.005": 14.4950809846,
			"0.006": 6.74546911308,
			"0.007": 2.62050938299,
			"0.008": 2.19562632343,
			"0.009": 2.78377402504,
			"0.01": 2.13681148348,
			"0.011": 3.17748988619,
			"0.012": 5.28353643109,
			"0.013": 1.68415455775,
			"0.014": 0.472160337341,
			"0.015": 0.123519897272,
			"0.016": 0.0,
			"0.017": 0.0,
			"0.018": 0.0,
			"0.019": 0.0,
			"0.02": 0.0,
			"0.021": 0.0,
			"0.022": 0.0,
			"0.023": 0.0,
			"0.024": 0.0,
			"0.025": 0.0
		}
	}
}
