{
	 "smiles": "CCOC1=C(OC)C=C(C=C1)C(O)=O", 
	 "Tm": 473.15, 
	 "num_atms": 26, 
	 "gaussian": { 
		 "optdone": 1, 
		 "sigma_profile": "yes", 
		 "theory": "DFT", 
		 "functional": "B3LYP", 
		 "basiset": "6-31G**", 
		 "properties": { 
			 "R2extent": 3787.865, 
			 "electric_dipole_moment_norm": 5.64535523594, 
			 "electric_quadrupole_moment_norm": 13.099531618, 
			 "total_energy": -689.175941974, 
			 "HOMO_LUMO_gap": 0.19753, 
			 "cosmo_polarized_energy": -14.86, 
			 "cosmo_cavitation_energy": 30.07, 
			 "cosmo_dispersion_energy": -21.43, 
			 "cosmo_repulsion_energy": 1.71, 
			 "cosmo_total_nonelectrostatic_energy": 10.36, 
			 "SMD_solvation_energy": 7.4 
		},
		"coords": [
			{
				"x": -4.8551672666,
				"y": -1.1827454396,
				"z": 0.515239673,
				"element": "C" 
			},
			{
				"x": -3.6790891474,
				"y": -0.3584591454,
				"z": 0.0264476633,
				"element": "C" 
			},
			{
				"x": -2.4711314408,
				"y": -1.0732969805,
				"z": 0.3731945955,
				"element": "O" 
			},
			{
				"x": -1.2944392767,
				"y": -0.4613878381,
				"z": 0.0289355388,
				"element": "C" 
			},
			{
				"x": -0.9118693218,
				"y": -0.2885891335,
				"z": -1.3175492101,
				"element": "C" 
			},
			{
				"x": -1.7154514806,
				"y": -0.6959302615,
				"z": -2.3566163211,
				"element": "O" 
			},
			{
				"x": -1.8464441192,
				"y": -2.1182894977,
				"z": -2.4964632897,
				"element": "C" 
			},
			{
				"x": 0.2971508895,
				"y": 0.3380068664,
				"z": -1.6140492115,
				"element": "C" 
			},
			{
				"x": 1.1486372601,
				"y": 0.7808407199,
				"z": -0.591517458,
				"element": "C" 
			},
			{
				"x": 0.7875212435,
				"y": 0.5557855908,
				"z": 0.7430718726,
				"element": "C" 
			},
			{
				"x": -0.4284454978,
				"y": -0.0474731764,
				"z": 1.0460382684,
				"element": "C" 
			},
			{
				"x": 2.4618911931,
				"y": 1.4479151833,
				"z": -0.859324941,
				"element": "C" 
			},
			{
				"x": 2.6232276263,
				"y": 2.0104006732,
				"z": -2.0886351854,
				"element": "O" 
			},
			{
				"x": 3.3565926437,
				"y": 1.5062673578,
				"z": -0.0483611822,
				"element": "O" 
			},
			{
				"x": -5.792977847,
				"y": -0.6646081505,
				"z": 0.2919048229,
				"element": "H" 
			},
			{
				"x": -4.7948443626,
				"y": -1.3414588937,
				"z": 1.5956168854,
				"element": "H" 
			},
			{
				"x": -4.8768148857,
				"y": -2.1604077463,
				"z": 0.0249201792,
				"element": "H" 
			},
			{
				"x": -3.6575673295,
				"y": 0.6250258548,
				"z": 0.514720128,
				"element": "H" 
			},
			{
				"x": -3.7183369344,
				"y": -0.2032950739,
				"z": -1.0567877414,
				"element": "H" 
			},
			{
				"x": -2.5147968773,
				"y": -2.2800065928,
				"z": -3.3441433914,
				"element": "H" 
			},
			{
				"x": -2.2725313106,
				"y": -2.5692999306,
				"z": -1.5953743463,
				"element": "H" 
			},
			{
				"x": -0.872649224,
				"y": -2.5760356744,
				"z": -2.7089983451,
				"element": "H" 
			},
			{
				"x": 0.5606583894,
				"y": 0.4223277032,
				"z": -2.6650746904,
				"element": "H" 
			},
			{
				"x": 1.4663281211,
				"y": 0.8755966674,
				"z": 1.5256974674,
				"element": "H" 
			},
			{
				"x": -0.7366112238,
				"y": -0.2086537784,
				"z": 2.074068373,
				"element": "H" 
			},
			{
				"x": 1.7776601792,
				"y": 2.0318706966,
				"z": -2.5575601537,
				"element": "H" 
			}
		],
		 "valence_orbital": [ 
			{
				"type": "occ",
				"energy": -0.30898,
				"method": "rhf"
			},
			{
				"type": "occ",
				"energy": -0.28115,
				"method": "rhf"
			},
			{
				"type": "occ",
				"energy": -0.27004,
				"method": "rhf"
			},
			{
				"type": "occ",
				"energy": -0.2605,
				"method": "rhf"
			},
			{
				"type": "occ",
				"energy": -0.244,
				"method": "rhf"
			},
			{
				"type": "unocc",
				"energy": -0.04647,
				"method": "rhf"
			},
			{
				"type": "unocc",
				"energy": -0.01785,
				"method": "rhf"
			},
			{
				"type": "unocc",
				"energy": 0.05023,
				"method": "rhf"
			},
			{
				"type": "unocc",
				"energy": 0.06412,
				"method": "rhf"
			},
			{
				"type": "unocc",
				"energy": 0.08085,
				"method": "rhf"
			}
		],
		"cosmo_sigma_profile": { 
			"-0.025": 0.0,
			"-0.024": 0.0,
			"-0.023": 0.0,
			"-0.022": 0.0,
			"-0.021": 0.0,
			"-0.02": 0.0,
			"-0.019": 0.199294877865,
			"-0.018": 0.776933343152,
			"-0.017": 0.872932829307,
			"-0.016": 1.15396087564,
			"-0.015": 1.14302747823,
			"-0.014": 0.348445901405,
			"-0.013": 1.23097669496,
			"-0.012": 1.17277472447,
			"-0.011": 1.52076946404,
			"-0.01": 1.05138598858,
			"-0.009": 1.27852832,
			"-0.008": 0.796009250754,
			"-0.007": 2.605310462,
			"-0.006": 6.60988340743,
			"-0.005": 11.1148171329,
			"-0.004": 19.9015820811,
			"-0.003": 28.6817732668,
			"-0.002": 25.3626518015,
			"-0.001": 20.4183036394,
			"0.0": 19.498426103,
			"0.001": 16.5893316872,
			"0.002": 14.8583780601,
			"0.003": 11.8836967749,
			"0.004": 5.47521765264,
			"0.005": 5.00308312432,
			"0.006": 4.41206035738,
			"0.007": 3.78373007889,
			"0.008": 4.83635918192,
			"0.009": 5.24422689396,
			"0.01": 6.43134319871,
			"0.011": 6.76319161842,
			"0.012": 5.33620050165,
			"0.013": 1.83365135082,
			"0.014": 0.120449560562,
			"0.015": 0.0,
			"0.016": 0.0,
			"0.017": 0.0,
			"0.018": 0.0,
			"0.019": 0.0,
			"0.02": 0.0,
			"0.021": 0.0,
			"0.022": 0.0,
			"0.023": 0.0,
			"0.024": 0.0,
			"0.025": 0.0
		}
	}
}
