{
	 "smiles": "CCCCCCCCCCCCCCCCCCCCCC(=O)OCC", 
	 "Tm": 323.15, 
	 "num_atms": 74, 
	 "gaussian": { 
		 "optdone": 1, 
		 "sigma_profile": "yes", 
		 "theory": "DFT", 
		 "functional": "B3LYP", 
		 "basiset": "6-31G**", 
		 "properties": { 
			 "R2extent": 28768.4179, 
			 "electric_dipole_moment_norm": 1.5326608268, 
			 "electric_quadrupole_moment_norm": 16.7987027984, 
			 "total_energy": -1094.01331669, 
			 "HOMO_LUMO_gap": 0.28414, 
			 "cosmo_polarized_energy": -7.03, 
			 "cosmo_cavitation_energy": 71.48, 
			 "cosmo_dispersion_energy": -47.36, 
			 "cosmo_repulsion_energy": 3.82, 
			 "cosmo_total_nonelectrostatic_energy": 27.94, 
			 "SMD_solvation_energy": 10.29 
		},
		"coords": [
			{
				"x": 1.4509471452,
				"y": 4.5271349552,
				"z": 2.230183974,
				"element": "C" 
			},
			{
				"x": -0.0545763784,
				"y": 4.6252165741,
				"z": 2.4985625397,
				"element": "C" 
			},
			{
				"x": -0.7529144968,
				"y": 3.2578196324,
				"z": 2.4928147334,
				"element": "C" 
			},
			{
				"x": -2.2793859016,
				"y": 3.3107025655,
				"z": 2.6861170895,
				"element": "C" 
			},
			{
				"x": -2.7590279553,
				"y": 3.7942584742,
				"z": 4.0699111022,
				"element": "C" 
			},
			{
				"x": -2.4767771557,
				"y": 2.8460955026,
				"z": 5.2592311805,
				"element": "C" 
			},
			{
				"x": -3.6271763427,
				"y": 1.8886313789,
				"z": 5.6288054153,
				"element": "C" 
			},
			{
				"x": -4.0216632071,
				"y": 0.8275439111,
				"z": 4.5872091489,
				"element": "C" 
			},
			{
				"x": -2.9403921743,
				"y": -0.223420585,
				"z": 4.2985916632,
				"element": "C" 
			},
			{
				"x": -3.4040967435,
				"y": -1.3006432429,
				"z": 3.3070605644,
				"element": "C" 
			},
			{
				"x": -2.3945235841,
				"y": -2.4350645244,
				"z": 3.0605947048,
				"element": "C" 
			},
			{
				"x": -1.1093112944,
				"y": -2.0026130144,
				"z": 2.3388434572,
				"element": "C" 
			},
			{
				"x": -0.0896501468,
				"y": -3.1352368842,
				"z": 2.1201183215,
				"element": "C" 
			},
			{
				"x": -0.5537575424,
				"y": -4.299441767,
				"z": 1.2240087112,
				"element": "C" 
			},
			{
				"x": -0.9380685412,
				"y": -3.9252603027,
				"z": -0.2183250414,
				"element": "C" 
			},
			{
				"x": 0.2074465644,
				"y": -3.3415592804,
				"z": -1.0571417015,
				"element": "C" 
			},
			{
				"x": -0.1865687381,
				"y": -3.07250348,
				"z": -2.5153631445,
				"element": "C" 
			},
			{
				"x": 0.950671424,
				"y": -2.4851382535,
				"z": -3.3613515318,
				"element": "C" 
			},
			{
				"x": 0.5470917089,
				"y": -2.2219250555,
				"z": -4.8193313574,
				"element": "C" 
			},
			{
				"x": 1.6320172568,
				"y": -1.5588926511,
				"z": -5.6819565725,
				"element": "C" 
			},
			{
				"x": 2.8632507705,
				"y": -2.4386442928,
				"z": -5.9148009449,
				"element": "C" 
			},
			{
				"x": 3.8723371854,
				"y": -1.8100974007,
				"z": -6.8564620544,
				"element": "C" 
			},
			{
				"x": 3.71942829,
				"y": -0.7697175969,
				"z": -7.4612944151,
				"element": "O" 
			},
			{
				"x": 4.9832444554,
				"y": -2.5793714582,
				"z": -6.9477796837,
				"element": "O" 
			},
			{
				"x": 6.0281191214,
				"y": -2.1055850357,
				"z": -7.8300798756,
				"element": "C" 
			},
			{
				"x": 6.9495740064,
				"y": -1.1237932077,
				"z": -7.1215501553,
				"element": "C" 
			},
			{
				"x": 1.6508022526,
				"y": 4.0674155,
				"z": 1.2553741973,
				"element": "H" 
			},
			{
				"x": 1.925103481,
				"y": 5.5141688722,
				"z": 2.2355708672,
				"element": "H" 
			},
			{
				"x": 1.949858406,
				"y": 3.9150830649,
				"z": 2.9905032448,
				"element": "H" 
			},
			{
				"x": -0.2157026008,
				"y": 5.1251411537,
				"z": 3.4619111964,
				"element": "H" 
			},
			{
				"x": -0.5207284744,
				"y": 5.2698247777,
				"z": 1.740443034,
				"element": "H" 
			},
			{
				"x": -0.2975159736,
				"y": 2.6183760469,
				"z": 3.2619367809,
				"element": "H" 
			},
			{
				"x": -0.5423605076,
				"y": 2.7628578355,
				"z": 1.5347522874,
				"element": "H" 
			},
			{
				"x": -2.6931905171,
				"y": 2.3163069341,
				"z": 2.481116549,
				"element": "H" 
			},
			{
				"x": -2.7024191065,
				"y": 3.9748449599,
				"z": 1.9195063272,
				"element": "H" 
			},
			{
				"x": -3.8393897541,
				"y": 3.9865709258,
				"z": 4.0196601192,
				"element": "H" 
			},
			{
				"x": -2.3014720594,
				"y": 4.7698748028,
				"z": 4.2738157062,
				"element": "H" 
			},
			{
				"x": -2.2670625123,
				"y": 3.4526258484,
				"z": 6.1490909021,
				"element": "H" 
			},
			{
				"x": -1.5576404279,
				"y": 2.2752503006,
				"z": 5.0768279726,
				"element": "H" 
			},
			{
				"x": -3.3625864393,
				"y": 1.3748625185,
				"z": 6.5637482375,
				"element": "H" 
			},
			{
				"x": -4.5139196158,
				"y": 2.494669258,
				"z": 5.8606821192,
				"element": "H" 
			},
			{
				"x": -4.921660354,
				"y": 0.3112202119,
				"z": 4.9490866461,
				"element": "H" 
			},
			{
				"x": -4.3197259448,
				"y": 1.315182434,
				"z": 3.6494312871,
				"element": "H" 
			},
			{
				"x": -2.0382118339,
				"y": 0.2690078913,
				"z": 3.9162606199,
				"element": "H" 
			},
			{
				"x": -2.6465921679,
				"y": -0.7050797633,
				"z": 5.2429786913,
				"element": "H" 
			},
			{
				"x": -4.3400254582,
				"y": -1.7390582907,
				"z": 3.6797216579,
				"element": "H" 
			},
			{
				"x": -3.6565576925,
				"y": -0.8259363728,
				"z": 2.3475983447,
				"element": "H" 
			},
			{
				"x": -2.8929046145,
				"y": -3.2185098329,
				"z": 2.4760506789,
				"element": "H" 
			},
			{
				"x": -2.1295939676,
				"y": -2.8984548867,
				"z": 4.0224248785,
				"element": "H" 
			},
			{
				"x": -0.6152724044,
				"y": -1.2113324469,
				"z": 2.916048476,
				"element": "H" 
			},
			{
				"x": -1.3750833983,
				"y": -1.5460497497,
				"z": 1.375211139,
				"element": "H" 
			},
			{
				"x": 0.829789355,
				"y": -2.7031916748,
				"z": 1.7051574104,
				"element": "H" 
			},
			{
				"x": 0.1924574933,
				"y": -3.547261088,
				"z": 3.0988383444,
				"element": "H" 
			},
			{
				"x": -1.4071675069,
				"y": -4.8036242966,
				"z": 1.6945671082,
				"element": "H" 
			},
			{
				"x": 0.2503594408,
				"y": -5.0474653518,
				"z": 1.1905624833,
				"element": "H" 
			},
			{
				"x": -1.7774605077,
				"y": -3.2166067695,
				"z": -0.2106275708,
				"element": "H" 
			},
			{
				"x": -1.3167962193,
				"y": -4.8270093806,
				"z": -0.718751738,
				"element": "H" 
			},
			{
				"x": 0.5639980761,
				"y": -2.4060784012,
				"z": -0.6058159079,
				"element": "H" 
			},
			{
				"x": 1.0616827868,
				"y": -4.0339754096,
				"z": -1.0335324043,
				"element": "H" 
			},
			{
				"x": -1.0460174971,
				"y": -2.387174458,
				"z": -2.5388551394,
				"element": "H" 
			},
			{
				"x": -0.5349071183,
				"y": -4.0083679624,
				"z": -2.9755492591,
				"element": "H" 
			},
			{
				"x": 1.8096516852,
				"y": -3.1689661076,
				"z": -3.3253994187,
				"element": "H" 
			},
			{
				"x": 1.2928617717,
				"y": -1.5439959444,
				"z": -2.9069681872,
				"element": "H" 
			},
			{
				"x": 0.2364179656,
				"y": -3.167850564,
				"z": -5.2864801445,
				"element": "H" 
			},
			{
				"x": -0.3418438191,
				"y": -1.5773063724,
				"z": -4.8267707296,
				"element": "H" 
			},
			{
				"x": 1.9469428217,
				"y": -0.6143241557,
				"z": -5.2213508365,
				"element": "H" 
			},
			{
				"x": 1.2111913126,
				"y": -1.2874395684,
				"z": -6.6558816597,
				"element": "H" 
			},
			{
				"x": 2.5759134383,
				"y": -3.4092721818,
				"z": -6.3419193241,
				"element": "H" 
			},
			{
				"x": 3.3846493895,
				"y": -2.6752384081,
				"z": -4.9804351532,
				"element": "H" 
			},
			{
				"x": 6.5627615375,
				"y": -3.0103712836,
				"z": -8.129913647,
				"element": "H" 
			},
			{
				"x": 5.5681175522,
				"y": -1.6476013344,
				"z": -8.7091226305,
				"element": "H" 
			},
			{
				"x": 7.7742998374,
				"y": -0.8415141454,
				"z": -7.7846183778,
				"element": "H" 
			},
			{
				"x": 6.4049625086,
				"y": -0.2169618517,
				"z": -6.8474682761,
				"element": "H" 
			},
			{
				"x": 7.3736496552,
				"y": -1.570360244,
				"z": -6.2172330302,
				"element": "H" 
			}
		],
		 "valence_orbital": [ 
			{
				"type": "occ",
				"energy": -0.29788,
				"method": "rhf"
			},
			{
				"type": "occ",
				"energy": -0.29435,
				"method": "rhf"
			},
			{
				"type": "occ",
				"energy": -0.29344,
				"method": "rhf"
			},
			{
				"type": "occ",
				"energy": -0.29197,
				"method": "rhf"
			},
			{
				"type": "occ",
				"energy": -0.26629,
				"method": "rhf"
			},
			{
				"type": "unocc",
				"energy": 0.01785,
				"method": "rhf"
			},
			{
				"type": "unocc",
				"energy": 0.0723,
				"method": "rhf"
			},
			{
				"type": "unocc",
				"energy": 0.08194,
				"method": "rhf"
			},
			{
				"type": "unocc",
				"energy": 0.08932,
				"method": "rhf"
			},
			{
				"type": "unocc",
				"energy": 0.09619,
				"method": "rhf"
			}
		],
		"cosmo_sigma_profile": { 
			"-0.025": 0.0,
			"-0.024": 0.0,
			"-0.023": 0.0,
			"-0.022": 0.0,
			"-0.021": 0.0,
			"-0.02": 0.0,
			"-0.019": 0.0,
			"-0.018": 0.0,
			"-0.017": 0.0,
			"-0.016": 0.0,
			"-0.015": 0.0,
			"-0.014": 0.0,
			"-0.013": 0.0,
			"-0.012": 0.0,
			"-0.011": 0.0,
			"-0.01": 0.0,
			"-0.009": 0.0,
			"-0.008": 0.0,
			"-0.007": 0.0,
			"-0.006": 1.35965612089,
			"-0.005": 7.89963117648,
			"-0.004": 14.1882430073,
			"-0.003": 23.2535888957,
			"-0.002": 67.9586595923,
			"-0.001": 123.585226126,
			"0.0": 128.943550212,
			"0.001": 100.447600415,
			"0.002": 47.3412830168,
			"0.003": 4.48268525017,
			"0.004": 3.9308638554,
			"0.005": 3.24209516045,
			"0.006": 2.59442087187,
			"0.007": 1.97134403073,
			"0.008": 2.68911867087,
			"0.009": 3.16288800482,
			"0.01": 2.03581202476,
			"0.011": 2.18783516656,
			"0.012": 4.1589422648,
			"0.013": 1.57043035096,
			"0.014": 0.0147679371951,
			"0.015": 0.0,
			"0.016": 0.0,
			"0.017": 0.0,
			"0.018": 0.0,
			"0.019": 0.0,
			"0.02": 0.0,
			"0.021": 0.0,
			"0.022": 0.0,
			"0.023": 0.0,
			"0.024": 0.0,
			"0.025": 0.0
		}
	}
}
