{
	 "smiles": "CC1=CC=C(Br)C(=C1)[N+]([O-])=O", 
	 "Tm": 304.15, 
	 "num_atms": 17, 
	 "gaussian": { 
		 "optdone": 1, 
		 "sigma_profile": "yes", 
		 "theory": "DFT", 
		 "functional": "B3LYP", 
		 "basiset": "6-31G**", 
		 "properties": { 
			 "R2extent": 3924.4254, 
			 "electric_dipole_moment_norm": 5.21444156933, 
			 "electric_quadrupole_moment_norm": 11.1353401659, 
			 "total_energy": -3046.85816784, 
			 "HOMO_LUMO_gap": 0.16873, 
			 "cosmo_polarized_energy": -8.76, 
			 "cosmo_cavitation_energy": 24.05, 
			 "cosmo_dispersion_energy": -18.05, 
			 "cosmo_repulsion_energy": 1.45, 
			 "cosmo_total_nonelectrostatic_energy": 7.44, 
			 "SMD_solvation_energy": 5.41 
		},
		"coords": [
			{
				"x": -0.8150615864,
				"y": 2.3676900392,
				"z": -1.3192672467,
				"element": "C" 
			},
			{
				"x": -0.9708464491,
				"y": 0.9550090042,
				"z": -0.8115411663,
				"element": "C" 
			},
			{
				"x": -1.7010572476,
				"y": 0.6784404018,
				"z": 0.3536483725,
				"element": "C" 
			},
			{
				"x": -1.857221226,
				"y": -0.623364466,
				"z": 0.8181195145,
				"element": "C" 
			},
			{
				"x": -1.3056146475,
				"y": -1.7039748473,
				"z": 0.1235484972,
				"element": "C" 
			},
			{
				"x": -1.5323388156,
				"y": -3.4290207434,
				"z": 0.8844670621,
				"element": "Br" 
			},
			{
				"x": -0.5768863835,
				"y": -1.4353730995,
				"z": -1.0413122988,
				"element": "C" 
			},
			{
				"x": -0.4038723159,
				"y": -0.1228763639,
				"z": -1.4893071422,
				"element": "C" 
			},
			{
				"x": 0.0416185705,
				"y": -2.4853603241,
				"z": -1.8718881469,
				"element": "N" 
			},
			{
				"x": 1.0695238721,
				"y": -2.1790747215,
				"z": -2.4770600676,
				"element": "O" 
			},
			{
				"x": -0.5134988299,
				"y": -3.5771069604,
				"z": -1.9332877017,
				"element": "O" 
			},
			{
				"x": -1.7477971688,
				"y": 2.7296954248,
				"z": -1.7678507547,
				"element": "H" 
			},
			{
				"x": -0.0336604206,
				"y": 2.4344591719,
				"z": -2.0802863178,
				"element": "H" 
			},
			{
				"x": -0.5579665847,
				"y": 3.0550808447,
				"z": -0.5070481081,
				"element": "H" 
			},
			{
				"x": -2.1495038579,
				"y": 1.4942303714,
				"z": 0.9144775286,
				"element": "H" 
			},
			{
				"x": -2.4066864914,
				"y": -0.8163013496,
				"z": 1.7321910194,
				"element": "H" 
			},
			{
				"x": 0.1877695821,
				"y": 0.0299476178,
				"z": -2.3844030436,
				"element": "H" 
			}
		],
		 "valence_orbital": [ 
			{
				"type": "occ",
				"energy": -0.3082,
				"method": "rhf"
			},
			{
				"type": "occ",
				"energy": -0.30605,
				"method": "rhf"
			},
			{
				"type": "occ",
				"energy": -0.28614,
				"method": "rhf"
			},
			{
				"type": "occ",
				"energy": -0.27516,
				"method": "rhf"
			},
			{
				"type": "occ",
				"energy": -0.2569,
				"method": "rhf"
			},
			{
				"type": "unocc",
				"energy": -0.08817,
				"method": "rhf"
			},
			{
				"type": "unocc",
				"energy": -0.03317,
				"method": "rhf"
			},
			{
				"type": "unocc",
				"energy": -0.01569,
				"method": "rhf"
			},
			{
				"type": "unocc",
				"energy": -0.00857,
				"method": "rhf"
			},
			{
				"type": "unocc",
				"energy": 0.09252,
				"method": "rhf"
			}
		],
		"cosmo_sigma_profile": { 
			"-0.025": 0.0,
			"-0.024": 0.0,
			"-0.023": 0.0,
			"-0.022": 0.0,
			"-0.021": 0.0,
			"-0.02": 0.0,
			"-0.019": 0.0,
			"-0.018": 0.0,
			"-0.017": 0.0,
			"-0.016": 0.0,
			"-0.015": 0.0,
			"-0.014": 0.0,
			"-0.013": 0.0,
			"-0.012": 0.0,
			"-0.011": 0.0,
			"-0.01": 0.0,
			"-0.009": 0.00179051114583,
			"-0.008": 2.15867033116,
			"-0.007": 7.94532413879,
			"-0.006": 9.62638930386,
			"-0.005": 14.1662439614,
			"-0.004": 13.0930399348,
			"-0.003": 13.8395160227,
			"-0.002": 15.5199351048,
			"-0.001": 18.4877660974,
			"0.0": 20.2650677254,
			"0.001": 17.8223906616,
			"0.002": 11.6695399781,
			"0.003": 10.8926251834,
			"0.004": 6.96633683868,
			"0.005": 4.39173341486,
			"0.006": 4.48379840984,
			"0.007": 8.75366033901,
			"0.008": 9.86209063412,
			"0.009": 4.31962544295,
			"0.01": 1.44448078886,
			"0.011": 0.0,
			"0.012": 0.0,
			"0.013": 0.0,
			"0.014": 0.0,
			"0.015": 0.0,
			"0.016": 0.0,
			"0.017": 0.0,
			"0.018": 0.0,
			"0.019": 0.0,
			"0.02": 0.0,
			"0.021": 0.0,
			"0.022": 0.0,
			"0.023": 0.0,
			"0.024": 0.0,
			"0.025": 0.0
		}
	}
}
