{
	 "smiles": "COC1=CC=CC=C1C1=NN=C2SC(NN12)C1=CC=C(Cl)C=C1", 
	 "Tm": 476.15, 
	 "num_atms": 36, 
	 "gaussian": { 
		 "optdone": 1, 
		 "sigma_profile": "yes", 
		 "theory": "DFT", 
		 "functional": "B3LYP", 
		 "basiset": "6-31G**", 
		 "properties": { 
			 "R2extent": 12149.8726, 
			 "electric_dipole_moment_norm": 4.84239450892, 
			 "electric_quadrupole_moment_norm": 30.999721011, 
			 "total_energy": -1770.05746632, 
			 "HOMO_LUMO_gap": 0.17361, 
			 "cosmo_polarized_energy": -22.0, 
			 "cosmo_cavitation_energy": 44.42, 
			 "cosmo_dispersion_energy": -30.97, 
			 "cosmo_repulsion_energy": 2.31, 
			 "cosmo_total_nonelectrostatic_energy": 15.76, 
			 "SMD_solvation_energy": 4.37 
		},
		"coords": [
			{
				"x": -2.3522950906,
				"y": 0.8353810732,
				"z": 1.2215983861,
				"element": "C" 
			},
			{
				"x": -1.5993200234,
				"y": -0.0212939762,
				"z": 0.3579089545,
				"element": "O" 
			},
			{
				"x": -2.2104287743,
				"y": -0.268914171,
				"z": -0.8524668374,
				"element": "C" 
			},
			{
				"x": -3.0747930167,
				"y": -1.3579171431,
				"z": -0.9772593285,
				"element": "C" 
			},
			{
				"x": -3.7148350059,
				"y": -1.609033049,
				"z": -2.1910267841,
				"element": "C" 
			},
			{
				"x": -3.502096432,
				"y": -0.7638432119,
				"z": -3.2825739671,
				"element": "C" 
			},
			{
				"x": -2.6289242387,
				"y": 0.3153552766,
				"z": -3.1642708202,
				"element": "C" 
			},
			{
				"x": -1.9618854333,
				"y": 0.5687331109,
				"z": -1.9560534437,
				"element": "C" 
			},
			{
				"x": -1.0514495282,
				"y": 1.7185893292,
				"z": -1.8635480337,
				"element": "C" 
			},
			{
				"x": -1.3176385509,
				"y": 2.9494630376,
				"z": -2.262983451,
				"element": "N" 
			},
			{
				"x": -0.203510071,
				"y": 3.7543247719,
				"z": -2.033899049,
				"element": "N" 
			},
			{
				"x": 0.7101312028,
				"y": 2.9721312354,
				"z": -1.5229257588,
				"element": "C" 
			},
			{
				"x": 2.3720764061,
				"y": 3.1216201352,
				"z": -0.9584823525,
				"element": "S" 
			},
			{
				"x": 2.1234356621,
				"y": 1.3893852897,
				"z": -0.1537950551,
				"element": "C" 
			},
			{
				"x": 1.1278459825,
				"y": 0.6895310312,
				"z": -0.9636621759,
				"element": "N" 
			},
			{
				"x": 0.2384877983,
				"y": 1.6914245336,
				"z": -1.3863949495,
				"element": "N" 
			},
			{
				"x": 3.3985550943,
				"y": 0.6052390301,
				"z": -0.0061286786,
				"element": "C" 
			},
			{
				"x": 4.2999784048,
				"y": 0.4581616606,
				"z": -1.0696165254,
				"element": "C" 
			},
			{
				"x": 5.4508314187,
				"y": -0.3143222051,
				"z": -0.9274060856,
				"element": "C" 
			},
			{
				"x": 5.7026135355,
				"y": -0.9417409419,
				"z": 0.2932984753,
				"element": "C" 
			},
			{
				"x": 7.1521233246,
				"y": -1.9107635621,
				"z": 0.4814158343,
				"element": "Cl" 
			},
			{
				"x": 4.8238074753,
				"y": -0.8060001128,
				"z": 1.3675862656,
				"element": "C" 
			},
			{
				"x": 3.6754041795,
				"y": -0.0321337384,
				"z": 1.209351743,
				"element": "C" 
			},
			{
				"x": -1.7690355982,
				"y": 0.9415684307,
				"z": 2.1386307857,
				"element": "H" 
			},
			{
				"x": -3.3294036465,
				"y": 0.3974766237,
				"z": 1.4625715434,
				"element": "H" 
			},
			{
				"x": -2.5063263694,
				"y": 1.8231145533,
				"z": 0.769793721,
				"element": "H" 
			},
			{
				"x": -3.2348839526,
				"y": -1.994430013,
				"z": -0.1126120553,
				"element": "H" 
			},
			{
				"x": -4.3838812045,
				"y": -2.4598895303,
				"z": -2.2812456694,
				"element": "H" 
			},
			{
				"x": -4.0067309944,
				"y": -0.9500849767,
				"z": -4.2255069639,
				"element": "H" 
			},
			{
				"x": -2.4483202609,
				"y": 0.9787465685,
				"z": -4.0037231524,
				"element": "H" 
			},
			{
				"x": 1.673494795,
				"y": 1.5968499615,
				"z": 0.8188493281,
				"element": "H" 
			},
			{
				"x": 1.5787372083,
				"y": 0.302468743,
				"z": -1.7968201784,
				"element": "H" 
			},
			{
				"x": 4.115011204,
				"y": 0.9689474829,
				"z": -2.0100505907,
				"element": "H" 
			},
			{
				"x": 6.1498014258,
				"y": -0.4228116311,
				"z": -1.7490312032,
				"element": "H" 
			},
			{
				"x": 5.0357975527,
				"y": -1.297634186,
				"z": 2.3102642235,
				"element": "H" 
			},
			{
				"x": 2.9846255211,
				"y": 0.07110057,
				"z": 2.0412138484,
				"element": "H" 
			}
		],
		 "valence_orbital": [ 
			{
				"type": "occ",
				"energy": -0.26498,
				"method": "rhf"
			},
			{
				"type": "occ",
				"energy": -0.26076,
				"method": "rhf"
			},
			{
				"type": "occ",
				"energy": -0.25291,
				"method": "rhf"
			},
			{
				"type": "occ",
				"energy": -0.24893,
				"method": "rhf"
			},
			{
				"type": "occ",
				"energy": -0.2229,
				"method": "rhf"
			},
			{
				"type": "unocc",
				"energy": -0.04929,
				"method": "rhf"
			},
			{
				"type": "unocc",
				"energy": -0.03681,
				"method": "rhf"
			},
			{
				"type": "unocc",
				"energy": -0.0286,
				"method": "rhf"
			},
			{
				"type": "unocc",
				"energy": -0.009,
				"method": "rhf"
			},
			{
				"type": "unocc",
				"energy": -0.00665,
				"method": "rhf"
			}
		],
		"cosmo_sigma_profile": { 
			"-0.025": 0.0,
			"-0.024": 0.0,
			"-0.023": 0.0,
			"-0.022": 0.0,
			"-0.021": 0.0,
			"-0.02": 0.0,
			"-0.019": 0.0,
			"-0.018": 0.0,
			"-0.017": 0.0,
			"-0.016": 0.0,
			"-0.015": 0.376313544538,
			"-0.014": 1.36570991965,
			"-0.013": 1.34976106485,
			"-0.012": 2.15260425001,
			"-0.011": 1.24330657922,
			"-0.01": 2.02604445029,
			"-0.009": 3.21656914371,
			"-0.008": 6.39074772915,
			"-0.007": 13.2182713663,
			"-0.006": 19.8376235237,
			"-0.005": 20.2117267611,
			"-0.004": 24.8778107784,
			"-0.003": 27.0667038538,
			"-0.002": 25.9504543153,
			"-0.001": 23.3658067991,
			"0.0": 24.2849224623,
			"0.001": 28.2010588999,
			"0.002": 34.0868904547,
			"0.003": 26.518647733,
			"0.004": 26.5609814698,
			"0.005": 9.95769981549,
			"0.006": 4.93199797496,
			"0.007": 3.78030056293,
			"0.008": 2.21987722151,
			"0.009": 3.22283571515,
			"0.01": 3.44775283717,
			"0.011": 3.9266308092,
			"0.012": 3.19796113041,
			"0.013": 5.25089052555,
			"0.014": 3.10280760148,
			"0.015": 3.04021691856,
			"0.016": 2.02912468985,
			"0.017": 0.416824866833,
			"0.018": 0.0,
			"0.019": 0.0,
			"0.02": 0.0,
			"0.021": 0.0,
			"0.022": 0.0,
			"0.023": 0.0,
			"0.024": 0.0,
			"0.025": 0.0
		}
	}
}
