{
	 "smiles": "COC(=O)C1=C([C@@H]2C=C[C@H]1C1=C2C(C2=CC=CC=C2)=C2C=CC=CC2=C1)C(=O)OC", 
	 "Tm": 492.5, 
	 "num_atms": 50, 
	 "gaussian": { 
		 "optdone": 1, 
		 "sigma_profile": "yes", 
		 "theory": "DFT", 
		 "functional": "B3LYP", 
		 "basiset": "6-31G**", 
		 "properties": { 
			 "R2extent": 11634.3736, 
			 "electric_dipole_moment_norm": 2.63299223698, 
			 "electric_quadrupole_moment_norm": 17.052237603, 
			 "total_energy": -1303.69707712, 
			 "HOMO_LUMO_gap": 0.14843, 
			 "cosmo_polarized_energy": -15.4, 
			 "cosmo_cavitation_energy": 52.88, 
			 "cosmo_dispersion_energy": -35.38, 
			 "cosmo_repulsion_energy": 2.68, 
			 "cosmo_total_nonelectrostatic_energy": 20.18, 
			 "SMD_solvation_energy": 10.92 
		},
		"coords": [
			{
				"x": -5.564262259,
				"y": 1.9236045661,
				"z": 0.1855313303,
				"element": "C" 
			},
			{
				"x": -4.4153518671,
				"y": 1.1609989748,
				"z": -0.2147753971,
				"element": "O" 
			},
			{
				"x": -3.2698313874,
				"y": 1.873375429,
				"z": -0.3429794946,
				"element": "C" 
			},
			{
				"x": -3.2077701259,
				"y": 3.0708246596,
				"z": -0.1390322195,
				"element": "O" 
			},
			{
				"x": -2.1330438051,
				"y": 1.0131546318,
				"z": -0.742480828,
				"element": "C" 
			},
			{
				"x": -0.9278238981,
				"y": 1.4912785812,
				"z": -1.1032754533,
				"element": "C" 
			},
			{
				"x": 0.1221141365,
				"y": 0.3961936581,
				"z": -1.3465315892,
				"element": "C" 
			},
			{
				"x": -0.4790654902,
				"y": -0.5664322711,
				"z": -2.376275078,
				"element": "C" 
			},
			{
				"x": -1.6751419126,
				"y": -1.0427837468,
				"z": -2.0316224111,
				"element": "C" 
			},
			{
				"x": -2.1760714071,
				"y": -0.5208718442,
				"z": -0.6815927625,
				"element": "C" 
			},
			{
				"x": -1.0895873582,
				"y": -0.9049009021,
				"z": 0.3313922611,
				"element": "C" 
			},
			{
				"x": 0.1895442263,
				"y": -0.3900111591,
				"z": -0.0232508366,
				"element": "C" 
			},
			{
				"x": 1.3089507063,
				"y": -0.6321754558,
				"z": 0.745936675,
				"element": "C" 
			},
			{
				"x": 2.6525614403,
				"y": -0.1111485814,
				"z": 0.3483803937,
				"element": "C" 
			},
			{
				"x": 2.9046298266,
				"y": 1.2696292482,
				"z": 0.3012332155,
				"element": "C" 
			},
			{
				"x": 4.1589326592,
				"y": 1.7477794782,
				"z": -0.0839439023,
				"element": "C" 
			},
			{
				"x": 5.1795267717,
				"y": 0.8588857814,
				"z": -0.4248730145,
				"element": "C" 
			},
			{
				"x": 4.9387035236,
				"y": -0.5161932605,
				"z": -0.3838778069,
				"element": "C" 
			},
			{
				"x": 3.68636094,
				"y": -0.9965653063,
				"z": -0.0006149348,
				"element": "C" 
			},
			{
				"x": 1.1523375473,
				"y": -1.4169605744,
				"z": 1.9510435227,
				"element": "C" 
			},
			{
				"x": 2.2330178836,
				"y": -1.6763970364,
				"z": 2.8362037628,
				"element": "C" 
			},
			{
				"x": 2.0579631485,
				"y": -2.4251090295,
				"z": 3.9819016992,
				"element": "C" 
			},
			{
				"x": 0.7890447022,
				"y": -2.9524620402,
				"z": 4.3058571957,
				"element": "C" 
			},
			{
				"x": -0.2853088596,
				"y": -2.7066759967,
				"z": 3.4786971937,
				"element": "C" 
			},
			{
				"x": -0.1395756154,
				"y": -1.9366193089,
				"z": 2.2964975644,
				"element": "C" 
			},
			{
				"x": -1.2577525312,
				"y": -1.6628883513,
				"z": 1.4549425562,
				"element": "C" 
			},
			{
				"x": -0.5157716314,
				"y": 2.9228301134,
				"z": -1.1776475336,
				"element": "C" 
			},
			{
				"x": 0.355124514,
				"y": 3.3997872648,
				"z": -0.4767682931,
				"element": "O" 
			},
			{
				"x": -1.1585229509,
				"y": 3.588672975,
				"z": -2.1480925436,
				"element": "O" 
			},
			{
				"x": -0.8779146526,
				"y": 4.9977669352,
				"z": -2.2160879821,
				"element": "C" 
			},
			{
				"x": -5.3892883823,
				"y": 2.4041845584,
				"z": 1.1513466995,
				"element": "H" 
			},
			{
				"x": -6.3832889883,
				"y": 1.2078084442,
				"z": 0.2548561019,
				"element": "H" 
			},
			{
				"x": -5.7900381746,
				"y": 2.695405216,
				"z": -0.5546264202,
				"element": "H" 
			},
			{
				"x": 1.0853949024,
				"y": 0.8050487718,
				"z": -1.6425237653,
				"element": "H" 
			},
			{
				"x": 0.0663009487,
				"y": -0.8231246874,
				"z": -3.277416906,
				"element": "H" 
			},
			{
				"x": -2.2581475798,
				"y": -1.7530754842,
				"z": -2.6072643952,
				"element": "H" 
			},
			{
				"x": -3.1590213813,
				"y": -0.8958974209,
				"z": -0.4043708375,
				"element": "H" 
			},
			{
				"x": 2.1125952509,
				"y": 1.9689559216,
				"z": 0.5510077252,
				"element": "H" 
			},
			{
				"x": 4.3352330685,
				"y": 2.8193024583,
				"z": -0.1152231676,
				"element": "H" 
			},
			{
				"x": 6.154838219,
				"y": 1.2336399478,
				"z": -0.7225632177,
				"element": "H" 
			},
			{
				"x": 5.7247492257,
				"y": -1.2161741373,
				"z": -0.6536705986,
				"element": "H" 
			},
			{
				"x": 3.5008307454,
				"y": -2.0666818329,
				"z": 0.0249921938,
				"element": "H" 
			},
			{
				"x": 3.2103807424,
				"y": -1.2685523947,
				"z": 2.6053350833,
				"element": "H" 
			},
			{
				"x": 2.9017455224,
				"y": -2.6051780555,
				"z": 4.6419281613,
				"element": "H" 
			},
			{
				"x": 0.6606457463,
				"y": -3.5427685632,
				"z": 5.208622518,
				"element": "H" 
			},
			{
				"x": -1.269593629,
				"y": -3.0978434564,
				"z": 3.7242521335,
				"element": "H" 
			},
			{
				"x": -2.2337398917,
				"y": -2.0603111196,
				"z": 1.7235028226,
				"element": "H" 
			},
			{
				"x": 0.1951501022,
				"y": 5.1747215614,
				"z": -2.3191979144,
				"element": "H" 
			},
			{
				"x": -1.2408114529,
				"y": 5.4921783982,
				"z": -1.3117968598,
				"element": "H" 
			},
			{
				"x": -1.4158512684,
				"y": 5.3608744426,
				"z": -3.0913846462,
				"element": "H" 
			}
		],
		 "valence_orbital": [ 
			{
				"type": "occ",
				"energy": -0.25439,
				"method": "rhf"
			},
			{
				"type": "occ",
				"energy": -0.24546,
				"method": "rhf"
			},
			{
				"type": "occ",
				"energy": -0.24234,
				"method": "rhf"
			},
			{
				"type": "occ",
				"energy": -0.22088,
				"method": "rhf"
			},
			{
				"type": "occ",
				"energy": -0.20595,
				"method": "rhf"
			},
			{
				"type": "unocc",
				"energy": -0.05752,
				"method": "rhf"
			},
			{
				"type": "unocc",
				"energy": -0.03148,
				"method": "rhf"
			},
			{
				"type": "unocc",
				"energy": -0.0143,
				"method": "rhf"
			},
			{
				"type": "unocc",
				"energy": -0.00036,
				"method": "rhf"
			},
			{
				"type": "unocc",
				"energy": 0.005,
				"method": "rhf"
			}
		],
		"cosmo_sigma_profile": { 
			"-0.025": 0.0,
			"-0.024": 0.0,
			"-0.023": 0.0,
			"-0.022": 0.0,
			"-0.021": 0.0,
			"-0.02": 0.0,
			"-0.019": 0.0,
			"-0.018": 0.0,
			"-0.017": 0.0,
			"-0.016": 0.0,
			"-0.015": 0.0,
			"-0.014": 0.0,
			"-0.013": 0.0,
			"-0.012": 0.0,
			"-0.011": 0.0,
			"-0.01": 0.0,
			"-0.009": 0.0,
			"-0.008": 0.0,
			"-0.007": 4.24769003603,
			"-0.006": 26.5600824694,
			"-0.005": 39.0852975639,
			"-0.004": 41.7663950404,
			"-0.003": 41.2283897439,
			"-0.002": 28.5888638649,
			"-0.001": 28.7375330057,
			"0.0": 25.7901180885,
			"0.001": 27.6926063382,
			"0.002": 27.3789341539,
			"0.003": 30.2901210197,
			"0.004": 35.51425986,
			"0.005": 27.5463105977,
			"0.006": 12.9832624593,
			"0.007": 5.53301064368,
			"0.008": 5.86601994006,
			"0.009": 3.76490990424,
			"0.01": 4.13105068032,
			"0.011": 4.62070676288,
			"0.012": 1.61549205617,
			"0.013": 0.0245003950494,
			"0.014": 0.0,
			"0.015": 0.0,
			"0.016": 0.0,
			"0.017": 0.0,
			"0.018": 0.0,
			"0.019": 0.0,
			"0.02": 0.0,
			"0.021": 0.0,
			"0.022": 0.0,
			"0.023": 0.0,
			"0.024": 0.0,
			"0.025": 0.0
		}
	}
}
