{
	 "smiles": "CC1=C(NC(=O)CBr)C(Cl)=CC=C1", 
	 "Tm": 413.15, 
	 "num_atms": 22, 
	 "gaussian": { 
		 "optdone": 1, 
		 "sigma_profile": "yes", 
		 "theory": "DFT", 
		 "functional": "B3LYP", 
		 "basiset": "6-31G**", 
		 "properties": { 
			 "R2extent": 4863.2726, 
			 "electric_dipole_moment_norm": 1.68637452839, 
			 "electric_quadrupole_moment_norm": 9.92417798863, 
			 "total_energy": -3509.97637533, 
			 "HOMO_LUMO_gap": 0.21789, 
			 "cosmo_polarized_energy": -9.49, 
			 "cosmo_cavitation_energy": 29.68, 
			 "cosmo_dispersion_energy": -21.59, 
			 "cosmo_repulsion_energy": 1.72, 
			 "cosmo_total_nonelectrostatic_energy": 9.81, 
			 "SMD_solvation_energy": 4.35 
		},
		"coords": [
			{
				"x": -2.3528217458,
				"y": 0.9133767286,
				"z": 0.9885531636,
				"element": "C" 
			},
			{
				"x": -1.0563013888,
				"y": 0.6275137195,
				"z": 1.7014686957,
				"element": "C" 
			},
			{
				"x": -0.1704014934,
				"y": -0.3739362768,
				"z": 1.250812781,
				"element": "C" 
			},
			{
				"x": -0.4531338321,
				"y": -1.1490737172,
				"z": 0.0956012549,
				"element": "N" 
			},
			{
				"x": -0.5931922632,
				"y": -0.6375167127,
				"z": -1.1616212419,
				"element": "C" 
			},
			{
				"x": -0.6051586763,
				"y": 0.5504587092,
				"z": -1.4478135455,
				"element": "O" 
			},
			{
				"x": -0.7822869904,
				"y": -1.6226057273,
				"z": -2.3169596098,
				"element": "C" 
			},
			{
				"x": -0.6884774605,
				"y": -3.5561371636,
				"z": -1.9077985647,
				"element": "Br" 
			},
			{
				"x": 0.9896879552,
				"y": -0.6494514545,
				"z": 1.9947436562,
				"element": "C" 
			},
			{
				"x": 2.0813004938,
				"y": -1.9255775709,
				"z": 1.4654560143,
				"element": "Cl" 
			},
			{
				"x": 1.3051507238,
				"y": 0.0577988465,
				"z": 3.1506463469,
				"element": "C" 
			},
			{
				"x": 0.4464301611,
				"y": 1.0700096264,
				"z": 3.573002423,
				"element": "C" 
			},
			{
				"x": -0.7157765124,
				"y": 1.3432924328,
				"z": 2.8556831131,
				"element": "C" 
			},
			{
				"x": -2.8676183294,
				"y": -0.0154870417,
				"z": 0.7209389483,
				"element": "H" 
			},
			{
				"x": -3.0177079533,
				"y": 1.5027238061,
				"z": 1.624790537,
				"element": "H" 
			},
			{
				"x": -2.1726415364,
				"y": 1.4598118334,
				"z": 0.0583296962,
				"element": "H" 
			},
			{
				"x": -0.2828301538,
				"y": -2.1466797201,
				"z": 0.1548609933,
				"element": "H" 
			},
			{
				"x": -0.012710822,
				"y": -1.4295839338,
				"z": -3.0624733443,
				"element": "H" 
			},
			{
				"x": -1.7622259504,
				"y": -1.4543774244,
				"z": -2.762051275,
				"element": "H" 
			},
			{
				"x": 2.2100386566,
				"y": -0.1813611678,
				"z": 3.6973328536,
				"element": "H" 
			},
			{
				"x": 0.6812839955,
				"y": 1.6361098858,
				"z": 4.46910913,
				"element": "H" 
			},
			{
				"x": -1.3919068779,
				"y": 2.1189923225,
				"z": 3.2033879741,
				"element": "H" 
			}
		],
		 "valence_orbital": [ 
			{
				"type": "occ",
				"energy": -0.30057,
				"method": "rhf"
			},
			{
				"type": "occ",
				"energy": -0.28809,
				"method": "rhf"
			},
			{
				"type": "occ",
				"energy": -0.26705,
				"method": "rhf"
			},
			{
				"type": "occ",
				"energy": -0.25004,
				"method": "rhf"
			},
			{
				"type": "occ",
				"energy": -0.24355,
				"method": "rhf"
			},
			{
				"type": "unocc",
				"energy": -0.02566,
				"method": "rhf"
			},
			{
				"type": "unocc",
				"energy": -0.01416,
				"method": "rhf"
			},
			{
				"type": "unocc",
				"energy": -0.01246,
				"method": "rhf"
			},
			{
				"type": "unocc",
				"energy": 0.01445,
				"method": "rhf"
			},
			{
				"type": "unocc",
				"energy": 0.02242,
				"method": "rhf"
			}
		],
		"cosmo_sigma_profile": { 
			"-0.025": 0.0,
			"-0.024": 0.0,
			"-0.023": 0.0,
			"-0.022": 0.0,
			"-0.021": 0.0,
			"-0.02": 0.0,
			"-0.019": 0.0,
			"-0.018": 0.0,
			"-0.017": 0.0,
			"-0.016": 0.0,
			"-0.015": 0.0,
			"-0.014": 0.0,
			"-0.013": 0.0,
			"-0.012": 0.0748567105973,
			"-0.011": 0.335359219368,
			"-0.01": 1.18798484897,
			"-0.009": 4.83977933381,
			"-0.008": 4.05835118824,
			"-0.007": 7.09134246577,
			"-0.006": 11.6928483475,
			"-0.005": 12.8543539575,
			"-0.004": 14.3730374316,
			"-0.003": 15.5989773635,
			"-0.002": 17.3878559024,
			"-0.001": 18.2988860328,
			"0.0": 23.4922607924,
			"0.001": 20.9233187688,
			"0.002": 18.6167912344,
			"0.003": 21.1434887606,
			"0.004": 22.7640222592,
			"0.005": 10.5048998217,
			"0.006": 2.5307313609,
			"0.007": 1.57914174038,
			"0.008": 1.4827574105,
			"0.009": 1.54334566866,
			"0.01": 1.92712841794,
			"0.011": 1.99942112461,
			"0.012": 3.81843265754,
			"0.013": 2.09270926331,
			"0.014": 0.0479782300947,
			"0.015": 0.0,
			"0.016": 0.0,
			"0.017": 0.0,
			"0.018": 0.0,
			"0.019": 0.0,
			"0.02": 0.0,
			"0.021": 0.0,
			"0.022": 0.0,
			"0.023": 0.0,
			"0.024": 0.0,
			"0.025": 0.0
		}
	}
}
