{
	 "smiles": "CC(=O)OC1C2=C(C)C(O)CC(O)(C(OC(=O)C3=CC=CC=C3)C3C4(COC4CC(O)C3(C)C1=O)OC(C)=O)C2(C)C", 
	 "Tm": 505.15, 
	 "num_atms": 80, 
	 "gaussian": { 
		 "optdone": 1, 
		 "sigma_profile": "yes", 
		 "theory": "DFT", 
		 "functional": "B3LYP", 
		 "basiset": "6-31G**", 
		 "properties": { 
			 "R2extent": 20090.9382, 
			 "electric_dipole_moment_norm": 3.15921613379, 
			 "electric_quadrupole_moment_norm": 34.6527582299, 
			 "total_energy": -2031.56701219, 
			 "HOMO_LUMO_gap": 0.16756, 
			 "cosmo_polarized_energy": -28.63, 
			 "cosmo_cavitation_energy": 70.08, 
			 "cosmo_dispersion_energy": -44.12, 
			 "cosmo_repulsion_energy": 3.15, 
			 "cosmo_total_nonelectrostatic_energy": 29.11, 
			 "SMD_solvation_energy": 14.02 
		},
		"coords": [
			{
				"x": 1.625204971,
				"y": 6.39471571,
				"z": -0.153395903,
				"element": "C" 
			},
			{
				"x": 0.9521689518,
				"y": 5.2930377643,
				"z": -0.9329097199,
				"element": "C" 
			},
			{
				"x": 0.6286629058,
				"y": 5.3416083053,
				"z": -2.0952736324,
				"element": "O" 
			},
			{
				"x": 0.7450602517,
				"y": 4.2096722865,
				"z": -0.1223800258,
				"element": "O" 
			},
			{
				"x": 0.2093100727,
				"y": 3.0164795012,
				"z": -0.7313530402,
				"element": "C" 
			},
			{
				"x": -1.0255484194,
				"y": 2.4613956889,
				"z": -0.0742564442,
				"element": "C" 
			},
			{
				"x": -1.5860472029,
				"y": 2.8852404915,
				"z": 1.0806952147,
				"element": "C" 
			},
			{
				"x": -1.3610376723,
				"y": 4.2060534834,
				"z": 1.7829864461,
				"element": "C" 
			},
			{
				"x": -2.4876698008,
				"y": 1.9029121624,
				"z": 1.8251297378,
				"element": "C" 
			},
			{
				"x": -2.4953371762,
				"y": 2.2776086798,
				"z": 3.2056294661,
				"element": "O" 
			},
			{
				"x": -1.8901327783,
				"y": 0.4910463636,
				"z": 1.6869506191,
				"element": "C" 
			},
			{
				"x": -1.5576321458,
				"y": 0.0236669058,
				"z": 0.2422807124,
				"element": "C" 
			},
			{
				"x": -2.5638555786,
				"y": -0.8891196345,
				"z": -0.1936248195,
				"element": "O" 
			},
			{
				"x": -0.2012799015,
				"y": -0.8019094096,
				"z": 0.3021973727,
				"element": "C" 
			},
			{
				"x": -0.1279353611,
				"y": -1.6356484523,
				"z": -0.8935528998,
				"element": "O" 
			},
			{
				"x": -0.6217983149,
				"y": -2.8839336364,
				"z": -0.8525095439,
				"element": "C" 
			},
			{
				"x": -1.214312958,
				"y": -3.3520279713,
				"z": 0.1123985542,
				"element": "O" 
			},
			{
				"x": -0.3741255593,
				"y": -3.6401932361,
				"z": -2.1100752091,
				"element": "C" 
			},
			{
				"x": 0.3909811209,
				"y": -3.1166373289,
				"z": -3.1627104426,
				"element": "C" 
			},
			{
				"x": 0.5915585856,
				"y": -3.8717743239,
				"z": -4.3169388747,
				"element": "C" 
			},
			{
				"x": 0.0306811041,
				"y": -5.1466297385,
				"z": -4.4276006246,
				"element": "C" 
			},
			{
				"x": -0.7340864317,
				"y": -5.6698312714,
				"z": -3.3811936964,
				"element": "C" 
			},
			{
				"x": -0.9364797937,
				"y": -4.9200013579,
				"z": -2.2255946987,
				"element": "C" 
			},
			{
				"x": 1.3051239843,
				"y": -0.2884542113,
				"z": 0.4649281228,
				"element": "C" 
			},
			{
				"x": 1.9686500547,
				"y": -1.2327479381,
				"z": 1.5206440963,
				"element": "C" 
			},
			{
				"x": 1.4348661437,
				"y": -1.1704610486,
				"z": 2.9728730362,
				"element": "C" 
			},
			{
				"x": 2.6758859342,
				"y": -0.6058058857,
				"z": 3.437589109,
				"element": "O" 
			},
			{
				"x": 3.3315040892,
				"y": -0.8251636329,
				"z": 2.1572257289,
				"element": "C" 
			},
			{
				"x": 4.0684785901,
				"y": 0.4098300287,
				"z": 1.6486806938,
				"element": "C" 
			},
			{
				"x": 3.3990016071,
				"y": 1.0801876189,
				"z": 0.4527699392,
				"element": "C" 
			},
			{
				"x": 4.0203226562,
				"y": 2.3479918017,
				"z": 0.3074602738,
				"element": "O" 
			},
			{
				"x": 1.8277529962,
				"y": 1.2077579476,
				"z": 0.593958733,
				"element": "C" 
			},
			{
				"x": 1.5201974285,
				"y": 1.9635476466,
				"z": 1.900646872,
				"element": "C" 
			},
			{
				"x": 1.4183276927,
				"y": 2.0212908896,
				"z": -0.6759301637,
				"element": "C" 
			},
			{
				"x": 2.1160276291,
				"y": 1.9688881257,
				"z": -1.6753628614,
				"element": "O" 
			},
			{
				"x": 1.940325454,
				"y": -2.5229389386,
				"z": 0.8629634716,
				"element": "O" 
			},
			{
				"x": 2.3364557853,
				"y": -3.672057164,
				"z": 1.480165308,
				"element": "C" 
			},
			{
				"x": 2.0858854252,
				"y": -4.8562633565,
				"z": 0.5794103489,
				"element": "C" 
			},
			{
				"x": 2.8054620778,
				"y": -3.7305875973,
				"z": 2.5942560849,
				"element": "O" 
			},
			{
				"x": -1.6078550858,
				"y": 1.2113301574,
				"z": -0.7784471,
				"element": "C" 
			},
			{
				"x": -0.9438772637,
				"y": 0.8246131701,
				"z": -2.1247337541,
				"element": "C" 
			},
			{
				"x": -3.0758217043,
				"y": 1.5310106141,
				"z": -1.198651527,
				"element": "C" 
			},
			{
				"x": 1.7895006274,
				"y": 7.2515272365,
				"z": -0.8057758576,
				"element": "H" 
			},
			{
				"x": 1.0040705148,
				"y": 6.6871571365,
				"z": 0.6985701868,
				"element": "H" 
			},
			{
				"x": 2.5781604071,
				"y": 6.0368278061,
				"z": 0.2472327776,
				"element": "H" 
			},
			{
				"x": 0.063295008,
				"y": 3.2247969066,
				"z": -1.7922590824,
				"element": "H" 
			},
			{
				"x": -0.5887052828,
				"y": 4.1398229798,
				"z": 2.5576742519,
				"element": "H" 
			},
			{
				"x": -1.0817418819,
				"y": 4.99398607,
				"z": 1.0889881332,
				"element": "H" 
			},
			{
				"x": -2.2817944284,
				"y": 4.494413138,
				"z": 2.2957948959,
				"element": "H" 
			},
			{
				"x": -3.5191942891,
				"y": 1.9299256808,
				"z": 1.4509421037,
				"element": "H" 
			},
			{
				"x": -3.1367829801,
				"y": 1.7135253164,
				"z": 3.6552099764,
				"element": "H" 
			},
			{
				"x": -2.56591324,
				"y": -0.2509943298,
				"z": 2.1277254621,
				"element": "H" 
			},
			{
				"x": -0.9907885158,
				"y": 0.5093449923,
				"z": 2.3082161023,
				"element": "H" 
			},
			{
				"x": -2.4453100138,
				"y": -1.7345988059,
				"z": 0.2690902972,
				"element": "H" 
			},
			{
				"x": -0.3781375143,
				"y": -1.494151212,
				"z": 1.130011968,
				"element": "H" 
			},
			{
				"x": 0.8216697573,
				"y": -2.1264567594,
				"z": -3.0720732484,
				"element": "H" 
			},
			{
				"x": 1.1846848307,
				"y": -3.4655232741,
				"z": -5.1307129338,
				"element": "H" 
			},
			{
				"x": 0.1882178498,
				"y": -5.7314534487,
				"z": -5.3293513762,
				"element": "H" 
			},
			{
				"x": -1.172682127,
				"y": -6.6593180115,
				"z": -3.4686551819,
				"element": "H" 
			},
			{
				"x": -1.5293450759,
				"y": -5.3038069523,
				"z": -1.4023343282,
				"element": "H" 
			},
			{
				"x": 1.746273328,
				"y": -0.6062934262,
				"z": -0.4842261085,
				"element": "H" 
			},
			{
				"x": 0.5943297352,
				"y": -0.4900696222,
				"z": 3.1453499999,
				"element": "H" 
			},
			{
				"x": 1.2257253173,
				"y": -2.1427051403,
				"z": 3.4233107739,
				"element": "H" 
			},
			{
				"x": 3.9975659723,
				"y": -1.6874176747,
				"z": 2.2313180698,
				"element": "H" 
			},
			{
				"x": 4.1411297698,
				"y": 1.1265405888,
				"z": 2.4719444563,
				"element": "H" 
			},
			{
				"x": 5.0943880221,
				"y": 0.1605247605,
				"z": 1.3609254885,
				"element": "H" 
			},
			{
				"x": 3.5870160704,
				"y": 0.4762287261,
				"z": -0.443793584,
				"element": "H" 
			},
			{
				"x": 3.8797788643,
				"y": 2.615181705,
				"z": -0.6111233628,
				"element": "H" 
			},
			{
				"x": 2.0163264436,
				"y": 2.9357592419,
				"z": 1.8671445468,
				"element": "H" 
			},
			{
				"x": 1.9111912768,
				"y": 1.4198935455,
				"z": 2.7607368686,
				"element": "H" 
			},
			{
				"x": 0.4600878189,
				"y": 2.1312086696,
				"z": 2.0544409482,
				"element": "H" 
			},
			{
				"x": 1.0075770916,
				"y": -5.0350170743,
				"z": 0.5205166882,
				"element": "H" 
			},
			{
				"x": 2.4413498799,
				"y": -4.657537991,
				"z": -0.4344788547,
				"element": "H" 
			},
			{
				"x": 2.5809788478,
				"y": -5.7336509339,
				"z": 0.9946905795,
				"element": "H" 
			},
			{
				"x": -1.0594600867,
				"y": 1.6334922947,
				"z": -2.8519186303,
				"element": "H" 
			},
			{
				"x": 0.1120305299,
				"y": 0.5718074742,
				"z": -2.0737605584,
				"element": "H" 
			},
			{
				"x": -1.4619006536,
				"y": -0.0515653481,
				"z": -2.5173037666,
				"element": "H" 
			},
			{
				"x": -3.0654692057,
				"y": 2.4143564284,
				"z": -1.844413622,
				"element": "H" 
			},
			{
				"x": -3.4985068098,
				"y": 0.6947851332,
				"z": -1.7565413567,
				"element": "H" 
			},
			{
				"x": -3.7462782216,
				"y": 1.7404549641,
				"z": -0.3679576825,
				"element": "H" 
			}
		],
		 "valence_orbital": [ 
			{
				"type": "occ",
				"energy": -0.26876,
				"method": "rhf"
			},
			{
				"type": "occ",
				"energy": -0.26685,
				"method": "rhf"
			},
			{
				"type": "occ",
				"energy": -0.25756,
				"method": "rhf"
			},
			{
				"type": "occ",
				"energy": -0.25017,
				"method": "rhf"
			},
			{
				"type": "occ",
				"energy": -0.22711,
				"method": "rhf"
			},
			{
				"type": "unocc",
				"energy": -0.05955,
				"method": "rhf"
			},
			{
				"type": "unocc",
				"energy": -0.05292,
				"method": "rhf"
			},
			{
				"type": "unocc",
				"energy": -0.01882,
				"method": "rhf"
			},
			{
				"type": "unocc",
				"energy": -0.0024,
				"method": "rhf"
			},
			{
				"type": "unocc",
				"energy": 0.00068,
				"method": "rhf"
			}
		],
		"cosmo_sigma_profile": { 
			"-0.025": 0.0,
			"-0.024": 0.0,
			"-0.023": 0.0,
			"-0.022": 0.00202236667029,
			"-0.021": 0.0133604913297,
			"-0.02": 0.0255213680052,
			"-0.019": 0.0195936716188,
			"-0.018": 0.00458920837599,
			"-0.017": 0.0,
			"-0.016": 0.461324379999,
			"-0.015": 0.96636866411,
			"-0.014": 1.18881374604,
			"-0.013": 1.16624240819,
			"-0.012": 1.42794835242,
			"-0.011": 1.61248290434,
			"-0.01": 1.53485151221,
			"-0.009": 1.50769042888,
			"-0.008": 4.41741664006,
			"-0.007": 9.2963800962,
			"-0.006": 31.4222030206,
			"-0.005": 44.487592726,
			"-0.004": 46.1291376613,
			"-0.003": 43.1753225606,
			"-0.002": 52.2088662082,
			"-0.001": 45.7609114807,
			"0.0": 46.9534346204,
			"0.001": 42.6476921469,
			"0.002": 29.3142117449,
			"0.003": 26.3953145503,
			"0.004": 23.0409987718,
			"0.005": 11.17023546,
			"0.006": 11.2336419004,
			"0.007": 8.9403474711,
			"0.008": 9.37573310254,
			"0.009": 11.1343171114,
			"0.01": 13.830193783,
			"0.011": 15.0189385956,
			"0.012": 8.1666015653,
			"0.013": 3.9559841638,
			"0.014": 0.795914234572,
			"0.015": 0.0,
			"0.016": 0.0,
			"0.017": 0.0,
			"0.018": 0.0,
			"0.019": 0.0,
			"0.02": 0.0,
			"0.021": 0.0,
			"0.022": 0.0,
			"0.023": 0.0,
			"0.024": 0.0,
			"0.025": 0.0
		}
	}
}
