{
	 "smiles": "[O-][N+](=O)C1=CC(=CC=C1)C1=NNC(=O)C=C1", 
	 "Tm": 548.15, 
	 "num_atms": 23, 
	 "gaussian": { 
		 "optdone": 1, 
		 "sigma_profile": "yes", 
		 "theory": "DFT", 
		 "functional": "B3LYP", 
		 "basiset": "6-31G**", 
		 "properties": { 
			 "R2extent": 5618.2626, 
			 "electric_dipole_moment_norm": 4.72511698162, 
			 "electric_quadrupole_moment_norm": 23.7778255459, 
			 "total_energy": -775.088205088, 
			 "HOMO_LUMO_gap": 0.14821, 
			 "cosmo_polarized_energy": -17.58, 
			 "cosmo_cavitation_energy": 29.2, 
			 "cosmo_dispersion_energy": -21.57, 
			 "cosmo_repulsion_energy": 1.66, 
			 "cosmo_total_nonelectrostatic_energy": 9.28, 
			 "SMD_solvation_energy": 7.41 
		},
		"coords": [
			{
				"x": 4.7020193608,
				"y": -1.0131219937,
				"z": 0.953227772,
				"element": "O" 
			},
			{
				"x": 3.9529911968,
				"y": -1.9150262509,
				"z": 0.5834956261,
				"element": "N" 
			},
			{
				"x": 4.2290358612,
				"y": -3.1136067213,
				"z": 0.6101611195,
				"element": "O" 
			},
			{
				"x": 2.62290475,
				"y": -1.5349827704,
				"z": 0.0689658801,
				"element": "C" 
			},
			{
				"x": 2.2846766432,
				"y": -0.1891472787,
				"z": 0.0303831943,
				"element": "C" 
			},
			{
				"x": 1.0260861061,
				"y": 0.1883803629,
				"z": -0.4618733256,
				"element": "C" 
			},
			{
				"x": 0.1462735399,
				"y": -0.8172212605,
				"z": -0.8956329679,
				"element": "C" 
			},
			{
				"x": 0.5108001964,
				"y": -2.1642383198,
				"z": -0.8483476499,
				"element": "C" 
			},
			{
				"x": 1.7602433769,
				"y": -2.5411292206,
				"z": -0.3649589,
				"element": "C" 
			},
			{
				"x": 0.6504599031,
				"y": 1.6237648341,
				"z": -0.5017926075,
				"element": "C" 
			},
			{
				"x": 1.3250899857,
				"y": 2.4306924205,
				"z": 0.2858683589,
				"element": "N" 
			},
			{
				"x": 1.0075707867,
				"y": 3.7267899611,
				"z": 0.2602678478,
				"element": "N" 
			},
			{
				"x": 0.0198641585,
				"y": 4.3790086696,
				"z": -0.4986971055,
				"element": "C" 
			},
			{
				"x": -0.1556046897,
				"y": 5.5850497697,
				"z": -0.3930286257,
				"element": "O" 
			},
			{
				"x": -0.6929783964,
				"y": 3.4522858172,
				"z": -1.3674880144,
				"element": "C" 
			},
			{
				"x": -0.3858173998,
				"y": 2.1302770634,
				"z": -1.3656719217,
				"element": "C" 
			},
			{
				"x": 2.9891742904,
				"y": 0.5549992356,
				"z": 0.376745633,
				"element": "H" 
			},
			{
				"x": -0.8439737227,
				"y": -0.5573061139,
				"z": -1.2550653202,
				"element": "H" 
			},
			{
				"x": -0.1881116234,
				"y": -2.9230532435,
				"z": -1.1851902734,
				"element": "H" 
			},
			{
				"x": 2.0744033375,
				"y": -3.5757560307,
				"z": -0.316347956,
				"element": "H" 
			},
			{
				"x": 1.5473259986,
				"y": 4.3138241255,
				"z": 0.8870886796,
				"element": "H" 
			},
			{
				"x": -1.4584994467,
				"y": 3.8720936003,
				"z": -2.0102768843,
				"element": "H" 
			},
			{
				"x": -0.904334213,
				"y": 1.451423344,
				"z": -2.0346325594,
				"element": "H" 
			}
		],
		 "valence_orbital": [ 
			{
				"type": "occ",
				"energy": -0.29535,
				"method": "rhf"
			},
			{
				"type": "occ",
				"energy": -0.29404,
				"method": "rhf"
			},
			{
				"type": "occ",
				"energy": -0.28939,
				"method": "rhf"
			},
			{
				"type": "occ",
				"energy": -0.26431,
				"method": "rhf"
			},
			{
				"type": "occ",
				"energy": -0.24258,
				"method": "rhf"
			},
			{
				"type": "unocc",
				"energy": -0.09437,
				"method": "rhf"
			},
			{
				"type": "unocc",
				"energy": -0.08344,
				"method": "rhf"
			},
			{
				"type": "unocc",
				"energy": -0.05062,
				"method": "rhf"
			},
			{
				"type": "unocc",
				"energy": -0.01445,
				"method": "rhf"
			},
			{
				"type": "unocc",
				"energy": 0.01892,
				"method": "rhf"
			}
		],
		"cosmo_sigma_profile": { 
			"-0.025": 0.0,
			"-0.024": 0.0,
			"-0.023": 0.0,
			"-0.022": 0.0,
			"-0.021": 0.0,
			"-0.02": 0.0,
			"-0.019": 0.0,
			"-0.018": 0.0,
			"-0.017": 0.0941524735967,
			"-0.016": 1.09445788599,
			"-0.015": 1.23768533257,
			"-0.014": 0.74302763715,
			"-0.013": 0.96682030677,
			"-0.012": 0.614692135777,
			"-0.011": 1.36106972973,
			"-0.01": 2.63482631994,
			"-0.009": 3.74347035486,
			"-0.008": 7.45222195991,
			"-0.007": 11.4529066344,
			"-0.006": 10.307929443,
			"-0.005": 9.73441089377,
			"-0.004": 12.6142872411,
			"-0.003": 14.7565682402,
			"-0.002": 18.8928044519,
			"-0.001": 23.0435273179,
			"0.0": 20.4925851841,
			"0.001": 19.8362963187,
			"0.002": 10.4902035798,
			"0.003": 5.03988377352,
			"0.004": 5.4938048909,
			"0.005": 5.22506469773,
			"0.006": 5.86063607642,
			"0.007": 11.0097601631,
			"0.008": 8.92027322592,
			"0.009": 5.53343989646,
			"0.01": 3.50306996672,
			"0.011": 1.5712125718,
			"0.012": 2.03278581145,
			"0.013": 6.04085499045,
			"0.014": 3.5055438597,
			"0.015": 0.292096702677,
			"0.016": 0.0,
			"0.017": 0.0,
			"0.018": 0.0,
			"0.019": 0.0,
			"0.02": 0.0,
			"0.021": 0.0,
			"0.022": 0.0,
			"0.023": 0.0,
			"0.024": 0.0,
			"0.025": 0.0
		}
	}
}
