{
	 "smiles": "CC1=C(N=C(O1)C1=CC=CS1)C(O)=O", 
	 "Tm": 470.15, 
	 "num_atms": 21, 
	 "gaussian": { 
		 "optdone": 1, 
		 "sigma_profile": "yes", 
		 "theory": "DFT", 
		 "functional": "B3LYP", 
		 "basiset": "6-31G**", 
		 "properties": { 
			 "R2extent": 5026.5171, 
			 "electric_dipole_moment_norm": 1.84828598707, 
			 "electric_quadrupole_moment_norm": 6.70804144516, 
			 "total_energy": -1025.78489654, 
			 "HOMO_LUMO_gap": 0.16548, 
			 "cosmo_polarized_energy": -12.79, 
			 "cosmo_cavitation_energy": 28.51, 
			 "cosmo_dispersion_energy": -21.37, 
			 "cosmo_repulsion_energy": 1.64, 
			 "cosmo_total_nonelectrostatic_energy": 8.79, 
			 "SMD_solvation_energy": 5.06 
		},
		"coords": [
			{
				"x": 1.7403950576,
				"y": 1.5400481151,
				"z": 0.9679227134,
				"element": "C" 
			},
			{
				"x": 1.4226158564,
				"y": 0.0930457919,
				"z": 1.0780779702,
				"element": "C" 
			},
			{
				"x": 1.9200440091,
				"y": -0.9568295431,
				"z": 1.8077504778,
				"element": "C" 
			},
			{
				"x": 1.225541472,
				"y": -2.1193730623,
				"z": 1.5043788937,
				"element": "N" 
			},
			{
				"x": 0.3478306615,
				"y": -1.7495995571,
				"z": 0.6202478199,
				"element": "C" 
			},
			{
				"x": 0.4109246022,
				"y": -0.4095451379,
				"z": 0.3118930855,
				"element": "O" 
			},
			{
				"x": -0.6471566017,
				"y": -2.5532240825,
				"z": -0.049149007,
				"element": "C" 
			},
			{
				"x": -0.8651345137,
				"y": -3.9021082845,
				"z": 0.1239195594,
				"element": "C" 
			},
			{
				"x": -1.9232544546,
				"y": -4.3969724742,
				"z": -0.6862555567,
				"element": "C" 
			},
			{
				"x": -2.4963065739,
				"y": -3.4244811912,
				"z": -1.4632646167,
				"element": "C" 
			},
			{
				"x": -1.7535023121,
				"y": -1.8786210417,
				"z": -1.2211298384,
				"element": "S" 
			},
			{
				"x": 3.0259527284,
				"y": -0.8545642502,
				"z": 2.7666801261,
				"element": "C" 
			},
			{
				"x": 3.3333579982,
				"y": -2.0255289844,
				"z": 3.3608614742,
				"element": "O" 
			},
			{
				"x": 3.6127078137,
				"y": 0.1871941408,
				"z": 3.0079549291,
				"element": "O" 
			},
			{
				"x": 1.0756985908,
				"y": 2.0164778722,
				"z": 0.2446413699,
				"element": "H" 
			},
			{
				"x": 1.6341950727,
				"y": 2.0335103631,
				"z": 1.938497129,
				"element": "H" 
			},
			{
				"x": 2.779104429,
				"y": 1.6844528184,
				"z": 0.6564483212,
				"element": "H" 
			},
			{
				"x": -0.2769350964,
				"y": -4.4974251191,
				"z": 0.81154572,
				"element": "H" 
			},
			{
				"x": -2.2456332084,
				"y": -5.431653914,
				"z": -0.6921086221,
				"element": "H" 
			},
			{
				"x": -3.3124735195,
				"y": -3.5215450343,
				"z": -2.1657486077,
				"element": "H" 
			},
			{
				"x": 4.0689279889,
				"y": -1.826457425,
				"z": 3.9638366593,
				"element": "H" 
			}
		],
		 "valence_orbital": [ 
			{
				"type": "occ",
				"energy": -0.29806,
				"method": "rhf"
			},
			{
				"type": "occ",
				"energy": -0.28078,
				"method": "rhf"
			},
			{
				"type": "occ",
				"energy": -0.27642,
				"method": "rhf"
			},
			{
				"type": "occ",
				"energy": -0.26221,
				"method": "rhf"
			},
			{
				"type": "occ",
				"energy": -0.21817,
				"method": "rhf"
			},
			{
				"type": "unocc",
				"energy": -0.05269,
				"method": "rhf"
			},
			{
				"type": "unocc",
				"energy": -0.03186,
				"method": "rhf"
			},
			{
				"type": "unocc",
				"energy": 0.02185,
				"method": "rhf"
			},
			{
				"type": "unocc",
				"energy": 0.03043,
				"method": "rhf"
			},
			{
				"type": "unocc",
				"energy": 0.08344,
				"method": "rhf"
			}
		],
		"cosmo_sigma_profile": { 
			"-0.025": 0.0,
			"-0.024": 0.0,
			"-0.023": 0.0,
			"-0.022": 0.0,
			"-0.021": 0.0,
			"-0.02": 0.0,
			"-0.019": 0.0306573750254,
			"-0.018": 1.1433708572,
			"-0.017": 0.669458882511,
			"-0.016": 0.631231337856,
			"-0.015": 1.00169508522,
			"-0.014": 0.910090015676,
			"-0.013": 0.480710543972,
			"-0.012": 0.564045384542,
			"-0.011": 1.11320511044,
			"-0.01": 0.745879028107,
			"-0.009": 2.37092482541,
			"-0.008": 3.03094632992,
			"-0.007": 6.38750939852,
			"-0.006": 11.3508679932,
			"-0.005": 11.0607422441,
			"-0.004": 13.1526552234,
			"-0.003": 19.3346431891,
			"-0.002": 22.8766846656,
			"-0.001": 16.0039269888,
			"0.0": 13.2306466408,
			"0.001": 16.4377885363,
			"0.002": 21.0588832389,
			"0.003": 20.9121378441,
			"0.004": 11.5373290702,
			"0.005": 5.08228947372,
			"0.006": 2.44116509245,
			"0.007": 3.40729271373,
			"0.008": 3.71945631701,
			"0.009": 4.01320522725,
			"0.01": 3.16606921774,
			"0.011": 4.94979236852,
			"0.012": 5.24357630158,
			"0.013": 1.52215536854,
			"0.014": 1.22262512662,
			"0.015": 0.400476451814,
			"0.016": 0.0,
			"0.017": 0.0,
			"0.018": 0.0,
			"0.019": 0.0,
			"0.02": 0.0,
			"0.021": 0.0,
			"0.022": 0.0,
			"0.023": 0.0,
			"0.024": 0.0,
			"0.025": 0.0
		}
	}
}
