{
	 "smiles": "BrC1=CC2=C(C=C1)C(C=O)=CN2", 
	 "Tm": 475.15, 
	 "num_atms": 18, 
	 "gaussian": { 
		 "optdone": 1, 
		 "sigma_profile": "yes", 
		 "theory": "DFT", 
		 "functional": "B3LYP", 
		 "basiset": "6-31G**", 
		 "properties": { 
			 "R2extent": 5322.0343, 
			 "electric_dipole_moment_norm": 2.96627421187, 
			 "electric_quadrupole_moment_norm": 24.4066704136, 
			 "total_energy": -3047.94907879, 
			 "HOMO_LUMO_gap": 0.17267, 
			 "cosmo_polarized_energy": -14.47, 
			 "cosmo_cavitation_energy": 25.37, 
			 "cosmo_dispersion_energy": -19.07, 
			 "cosmo_repulsion_energy": 1.5, 
			 "cosmo_total_nonelectrostatic_energy": 7.8, 
			 "SMD_solvation_energy": 4.12 
		},
		"coords": [
			{
				"x": -4.2635621958,
				"y": -1.4196689628,
				"z": 2.2718160052,
				"element": "Br" 
			},
			{
				"x": -2.7694679683,
				"y": -0.488126632,
				"z": 1.5243983937,
				"element": "C" 
			},
			{
				"x": -2.0880723056,
				"y": 0.4282575436,
				"z": 2.3136592793,
				"element": "C" 
			},
			{
				"x": -1.0057876131,
				"y": 1.0785699665,
				"z": 1.7159763299,
				"element": "C" 
			},
			{
				"x": -0.6005202983,
				"y": 0.8370136006,
				"z": 0.3770110026,
				"element": "C" 
			},
			{
				"x": -1.3213761881,
				"y": -0.0993690619,
				"z": -0.3818450151,
				"element": "C" 
			},
			{
				"x": -2.4014003163,
				"y": -0.757454316,
				"z": 0.1935219508,
				"element": "C" 
			},
			{
				"x": 0.5423502311,
				"y": 1.6902906293,
				"z": 0.1287107462,
				"element": "C" 
			},
			{
				"x": 1.3364935944,
				"y": 1.8298426142,
				"z": -1.0860749031,
				"element": "C" 
			},
			{
				"x": 2.2908975363,
				"y": 2.5833093033,
				"z": -1.204311412,
				"element": "O" 
			},
			{
				"x": 0.7736577638,
				"y": 2.3929568917,
				"z": 1.2967426482,
				"element": "C" 
			},
			{
				"x": -0.1447731453,
				"y": 2.0312830533,
				"z": 2.2412048546,
				"element": "N" 
			},
			{
				"x": -2.3875834482,
				"y": 0.6216161511,
				"z": 3.337382883,
				"element": "H" 
			},
			{
				"x": -1.0466789033,
				"y": -0.3153768206,
				"z": -1.4095932843,
				"element": "H" 
			},
			{
				"x": -2.9686600316,
				"y": -1.482949077,
				"z": -0.3775263505,
				"element": "H" 
			},
			{
				"x": 1.0134288997,
				"y": 1.1899510862,
				"z": -1.9361396935,
				"element": "H" 
			},
			{
				"x": 1.5408744408,
				"y": 3.1260339035,
				"z": 1.4984722823,
				"element": "H" 
			},
			{
				"x": -0.1894200523,
				"y": 2.4012201271,
				"z": 3.1779942828,
				"element": "H" 
			}
		],
		 "valence_orbital": [ 
			{
				"type": "occ",
				"energy": -0.29016,
				"method": "rhf"
			},
			{
				"type": "occ",
				"energy": -0.28397,
				"method": "rhf"
			},
			{
				"type": "occ",
				"energy": -0.24728,
				"method": "rhf"
			},
			{
				"type": "occ",
				"energy": -0.24551,
				"method": "rhf"
			},
			{
				"type": "occ",
				"energy": -0.22379,
				"method": "rhf"
			},
			{
				"type": "unocc",
				"energy": -0.05112,
				"method": "rhf"
			},
			{
				"type": "unocc",
				"energy": -0.02177,
				"method": "rhf"
			},
			{
				"type": "unocc",
				"energy": 0.00185,
				"method": "rhf"
			},
			{
				"type": "unocc",
				"energy": 0.00294,
				"method": "rhf"
			},
			{
				"type": "unocc",
				"energy": 0.05841,
				"method": "rhf"
			}
		],
		"cosmo_sigma_profile": { 
			"-0.025": 0.0,
			"-0.024": 0.0,
			"-0.023": 0.0,
			"-0.022": 0.0,
			"-0.021": 0.0,
			"-0.02": 0.0,
			"-0.019": 0.0,
			"-0.018": 0.0403117587355,
			"-0.017": 1.3783143764,
			"-0.016": 1.90996356494,
			"-0.015": 1.31938766224,
			"-0.014": 1.30699744669,
			"-0.013": 1.44607042617,
			"-0.012": 1.33804715817,
			"-0.011": 1.60003538162,
			"-0.01": 2.65301661473,
			"-0.009": 3.53269988713,
			"-0.008": 3.2896996339,
			"-0.007": 5.85076320857,
			"-0.006": 9.6402910928,
			"-0.005": 9.871688993,
			"-0.004": 9.54571959608,
			"-0.003": 8.817369852,
			"-0.002": 9.69849950368,
			"-0.001": 9.93307477149,
			"0.0": 12.5740682244,
			"0.001": 17.1240490108,
			"0.002": 20.3477247466,
			"0.003": 25.10866135,
			"0.004": 18.2375263606,
			"0.005": 11.2820996392,
			"0.006": 2.04063069683,
			"0.007": 1.02125743703,
			"0.008": 1.49524869455,
			"0.009": 1.97893027407,
			"0.01": 2.06245214233,
			"0.011": 2.19908053423,
			"0.012": 4.70340227075,
			"0.013": 3.17710919751,
			"0.014": 1.09857360973,
			"0.015": 0.0,
			"0.016": 0.0,
			"0.017": 0.0,
			"0.018": 0.0,
			"0.019": 0.0,
			"0.02": 0.0,
			"0.021": 0.0,
			"0.022": 0.0,
			"0.023": 0.0,
			"0.024": 0.0,
			"0.025": 0.0
		}
	}
}
