{
	 "smiles": "OC(=O)C1=CC=NN1C1=CC=CC=C1", 
	 "Tm": 455.15, 
	 "num_atms": 22, 
	 "gaussian": { 
		 "optdone": 1, 
		 "sigma_profile": "yes", 
		 "theory": "DFT", 
		 "functional": "B3LYP", 
		 "basiset": "6-31G**", 
		 "properties": { 
			 "R2extent": 3351.1467, 
			 "electric_dipole_moment_norm": 2.12563891101, 
			 "electric_quadrupole_moment_norm": 6.71820380385, 
			 "total_energy": -645.821193341, 
			 "HOMO_LUMO_gap": 0.19062, 
			 "cosmo_polarized_energy": -12.21, 
			 "cosmo_cavitation_energy": 27.1, 
			 "cosmo_dispersion_energy": -19.54, 
			 "cosmo_repulsion_energy": 1.54, 
			 "cosmo_total_nonelectrostatic_energy": 9.1, 
			 "SMD_solvation_energy": 5.38 
		},
		"coords": [
			{
				"x": -1.1267929792,
				"y": -0.1285146288,
				"z": 2.1876227669,
				"element": "O" 
			},
			{
				"x": -0.6553683822,
				"y": 1.1157976105,
				"z": 2.4331678085,
				"element": "C" 
			},
			{
				"x": -1.3246698843,
				"y": 1.9727667132,
				"z": 2.9755493652,
				"element": "O" 
			},
			{
				"x": 0.7454221553,
				"y": 1.3312055026,
				"z": 2.0330286376,
				"element": "C" 
			},
			{
				"x": 1.5229095993,
				"y": 2.3979699371,
				"z": 2.4623144162,
				"element": "C" 
			},
			{
				"x": 2.8059688491,
				"y": 2.1364014491,
				"z": 1.9602644118,
				"element": "C" 
			},
			{
				"x": 2.8375207942,
				"y": 1.0025802913,
				"z": 1.2570549987,
				"element": "N" 
			},
			{
				"x": 1.5805319959,
				"y": 0.509984302,
				"z": 1.3020380752,
				"element": "N" 
			},
			{
				"x": 1.3086815987,
				"y": -0.6802524785,
				"z": 0.5551885769,
				"element": "C" 
			},
			{
				"x": 0.2528769219,
				"y": -0.7234295989,
				"z": -0.3572384224,
				"element": "C" 
			},
			{
				"x": 0.0365511682,
				"y": -1.884321699,
				"z": -1.0981758402,
				"element": "C" 
			},
			{
				"x": 0.878469444,
				"y": -2.9874092516,
				"z": -0.9426726429,
				"element": "C" 
			},
			{
				"x": 1.9431000282,
				"y": -2.9270735147,
				"z": -0.0410962868,
				"element": "C" 
			},
			{
				"x": 2.1617573523,
				"y": -1.774711506,
				"z": 0.7121931985,
				"element": "C" 
			},
			{
				"x": -2.039881556,
				"y": -0.1330713365,
				"z": 2.5208807129,
				"element": "H" 
			},
			{
				"x": 1.1798920492,
				"y": 3.2172141027,
				"z": 3.0748616988,
				"element": "H" 
			},
			{
				"x": 3.7102069368,
				"y": 2.7192732443,
				"z": 2.0706229055,
				"element": "H" 
			},
			{
				"x": -0.3841510833,
				"y": 0.1437289717,
				"z": -0.489512032,
				"element": "H" 
			},
			{
				"x": -0.7842565246,
				"y": -1.9200013587,
				"z": -1.8081812688,
				"element": "H" 
			},
			{
				"x": 0.7092463503,
				"y": -3.887374094,
				"z": -1.5262901409,
				"element": "H" 
			},
			{
				"x": 2.6048091667,
				"y": -3.7794079502,
				"z": 0.0801928945,
				"element": "H" 
			},
			{
				"x": 2.9865759995,
				"y": -1.7065547074,
				"z": 1.4121861668,
				"element": "H" 
			}
		],
		 "valence_orbital": [ 
			{
				"type": "occ",
				"energy": -0.28647,
				"method": "rhf"
			},
			{
				"type": "occ",
				"energy": -0.28039,
				"method": "rhf"
			},
			{
				"type": "occ",
				"energy": -0.26093,
				"method": "rhf"
			},
			{
				"type": "occ",
				"energy": -0.2592,
				"method": "rhf"
			},
			{
				"type": "occ",
				"energy": -0.24119,
				"method": "rhf"
			},
			{
				"type": "unocc",
				"energy": -0.05057,
				"method": "rhf"
			},
			{
				"type": "unocc",
				"energy": -0.01019,
				"method": "rhf"
			},
			{
				"type": "unocc",
				"energy": -0.00798,
				"method": "rhf"
			},
			{
				"type": "unocc",
				"energy": 0.0432,
				"method": "rhf"
			},
			{
				"type": "unocc",
				"energy": 0.07273,
				"method": "rhf"
			}
		],
		"cosmo_sigma_profile": { 
			"-0.025": 0.0,
			"-0.024": 0.0,
			"-0.023": 0.0,
			"-0.022": 0.0,
			"-0.021": 0.0,
			"-0.02": 0.0,
			"-0.019": 0.493686252984,
			"-0.018": 0.935764953141,
			"-0.017": 0.98742672846,
			"-0.016": 0.454507615322,
			"-0.015": 0.63981201596,
			"-0.014": 0.678488773229,
			"-0.013": 0.899198565505,
			"-0.012": 0.644345742271,
			"-0.011": 0.512065381821,
			"-0.01": 0.924234432267,
			"-0.009": 0.458308262096,
			"-0.008": 3.46032178369,
			"-0.007": 7.65541053762,
			"-0.006": 14.3280020457,
			"-0.005": 15.160524392,
			"-0.004": 14.4198249303,
			"-0.003": 13.436729608,
			"-0.002": 13.0419707427,
			"-0.001": 12.8351480777,
			"0.0": 13.4679895607,
			"0.001": 13.496780453,
			"0.002": 16.0093572491,
			"0.003": 17.2858991701,
			"0.004": 14.9943071986,
			"0.005": 8.53530633377,
			"0.006": 6.66858137967,
			"0.007": 3.37545913595,
			"0.008": 4.9324831095,
			"0.009": 2.84101005467,
			"0.01": 3.90316309778,
			"0.011": 5.34480205492,
			"0.012": 3.35048824758,
			"0.013": 0.976399513037,
			"0.014": 0.608673216698,
			"0.015": 0.0767011881176,
			"0.016": 0.0,
			"0.017": 0.0,
			"0.018": 0.0,
			"0.019": 0.0,
			"0.02": 0.0,
			"0.021": 0.0,
			"0.022": 0.0,
			"0.023": 0.0,
			"0.024": 0.0,
			"0.025": 0.0
		}
	}
}
