{
	 "smiles": "NC1=CC=C(C=C1)C1=CC2=C(O1)C=CC=C2", 
	 "Tm": 555.15, 
	 "num_atms": 27, 
	 "gaussian": { 
		 "optdone": 1, 
		 "sigma_profile": "yes", 
		 "theory": "DFT", 
		 "functional": "B3LYP", 
		 "basiset": "6-31G**", 
		 "properties": { 
			 "R2extent": 5231.3018, 
			 "electric_dipole_moment_norm": 3.10233531553, 
			 "electric_quadrupole_moment_norm": 16.9483917461, 
			 "total_energy": -670.100392873, 
			 "HOMO_LUMO_gap": 0.15286, 
			 "cosmo_polarized_energy": -11.31, 
			 "cosmo_cavitation_energy": 31.26, 
			 "cosmo_dispersion_energy": -23.37, 
			 "cosmo_repulsion_energy": 1.78, 
			 "cosmo_total_nonelectrostatic_energy": 9.67, 
			 "SMD_solvation_energy": 5.23 
		},
		"coords": [
			{
				"x": 5.217872886,
				"y": -0.6830304596,
				"z": -1.5281810991,
				"element": "N" 
			},
			{
				"x": 3.9744650607,
				"y": -0.5309792193,
				"z": -0.9214293795,
				"element": "C" 
			},
			{
				"x": 3.1888336577,
				"y": 0.6110232314,
				"z": -1.1578627601,
				"element": "C" 
			},
			{
				"x": 1.9738131179,
				"y": 0.7858036,
				"z": -0.5088219784,
				"element": "C" 
			},
			{
				"x": 1.4903550082,
				"y": -0.1703604115,
				"z": 0.402453782,
				"element": "C" 
			},
			{
				"x": 2.2805305018,
				"y": -1.3111863656,
				"z": 0.6354847365,
				"element": "C" 
			},
			{
				"x": 3.4951502242,
				"y": -1.4907227546,
				"z": -0.0096379078,
				"element": "C" 
			},
			{
				"x": 0.2157549486,
				"y": 0.0110270538,
				"z": 1.080634298,
				"element": "C" 
			},
			{
				"x": -0.4693585514,
				"y": -0.7361351843,
				"z": 2.000302789,
				"element": "C" 
			},
			{
				"x": -1.6847060737,
				"y": -0.0273414195,
				"z": 2.2949518209,
				"element": "C" 
			},
			{
				"x": -1.6399006546,
				"y": 1.1366996558,
				"z": 1.5025448149,
				"element": "C" 
			},
			{
				"x": -0.4875765118,
				"y": 1.1606849628,
				"z": 0.7656454218,
				"element": "O" 
			},
			{
				"x": -2.6365904091,
				"y": 2.1028933075,
				"z": 1.4917243914,
				"element": "C" 
			},
			{
				"x": -3.7324930828,
				"y": 1.8760634467,
				"z": 2.3263452872,
				"element": "C" 
			},
			{
				"x": -3.809205633,
				"y": 0.7241129282,
				"z": 3.1308737872,
				"element": "C" 
			},
			{
				"x": -2.7974346731,
				"y": -0.2330537327,
				"z": 3.1264025815,
				"element": "C" 
			},
			{
				"x": 5.3530951124,
				"y": -0.1655704676,
				"z": -2.3853075077,
				"element": "H" 
			},
			{
				"x": 5.5618052161,
				"y": -1.6308059379,
				"z": -1.5923257507,
				"element": "H" 
			},
			{
				"x": 3.5409968363,
				"y": 1.3673025816,
				"z": -1.8551653234,
				"element": "H" 
			},
			{
				"x": 1.3831052785,
				"y": 1.6730806839,
				"z": -0.7076045094,
				"element": "H" 
			},
			{
				"x": 1.9379961163,
				"y": -2.0722606275,
				"z": 1.3301661799,
				"element": "H" 
			},
			{
				"x": 4.0873489742,
				"y": -2.3799546599,
				"z": 0.1918884127,
				"element": "H" 
			},
			{
				"x": -0.1500432099,
				"y": -1.6780642726,
				"z": 2.4217422598,
				"element": "H" 
			},
			{
				"x": -2.5604561389,
				"y": 2.9849960569,
				"z": 0.8650742495,
				"element": "H" 
			},
			{
				"x": -4.5392630026,
				"y": 2.6022476354,
				"z": 2.3543901621,
				"element": "H" 
			},
			{
				"x": -4.6770885237,
				"y": 0.5809535261,
				"z": 3.768090666,
				"element": "H" 
			},
			{
				"x": -2.8681064742,
				"y": -1.1180231575,
				"z": 3.7520205758,
				"element": "H" 
			}
		],
		 "valence_orbital": [ 
			{
				"type": "occ",
				"energy": -0.28202,
				"method": "rhf"
			},
			{
				"type": "occ",
				"energy": -0.25159,
				"method": "rhf"
			},
			{
				"type": "occ",
				"energy": -0.23619,
				"method": "rhf"
			},
			{
				"type": "occ",
				"energy": -0.22547,
				"method": "rhf"
			},
			{
				"type": "occ",
				"energy": -0.18367,
				"method": "rhf"
			},
			{
				"type": "unocc",
				"energy": -0.03081,
				"method": "rhf"
			},
			{
				"type": "unocc",
				"energy": -0.00035,
				"method": "rhf"
			},
			{
				"type": "unocc",
				"energy": 0.01789,
				"method": "rhf"
			},
			{
				"type": "unocc",
				"energy": 0.03095,
				"method": "rhf"
			},
			{
				"type": "unocc",
				"energy": 0.07356,
				"method": "rhf"
			}
		],
		"cosmo_sigma_profile": { 
			"-0.025": 0.0,
			"-0.024": 0.0,
			"-0.023": 0.0,
			"-0.022": 0.0,
			"-0.021": 0.0,
			"-0.02": 0.0,
			"-0.019": 0.0,
			"-0.018": 0.0,
			"-0.017": 0.0,
			"-0.016": 0.0,
			"-0.015": 0.0,
			"-0.014": 0.0,
			"-0.013": 0.970225715251,
			"-0.012": 3.13936643444,
			"-0.011": 2.13746943367,
			"-0.01": 3.24724718106,
			"-0.009": 3.52895316435,
			"-0.008": 3.08601238914,
			"-0.007": 7.03010333723,
			"-0.006": 10.6532256468,
			"-0.005": 17.08306931,
			"-0.004": 18.1231071467,
			"-0.003": 16.4654994168,
			"-0.002": 12.9303664675,
			"-0.001": 10.1283863648,
			"0.0": 11.1089367134,
			"0.001": 13.684352014,
			"0.002": 19.6386189099,
			"0.003": 23.6153743128,
			"0.004": 25.1487188658,
			"0.005": 25.6664644455,
			"0.006": 17.0905596242,
			"0.007": 1.96953955389,
			"0.008": 0.366147042666,
			"0.009": 1.11039056043,
			"0.01": 0.605351413148,
			"0.011": 0.699260125462,
			"0.012": 0.374551696958,
			"0.013": 0.924661684034,
			"0.014": 0.236619185939,
			"0.015": 0.0,
			"0.016": 0.0,
			"0.017": 0.0,
			"0.018": 0.0,
			"0.019": 0.0,
			"0.02": 0.0,
			"0.021": 0.0,
			"0.022": 0.0,
			"0.023": 0.0,
			"0.024": 0.0,
			"0.025": 0.0
		}
	}
}
