{
	 "smiles": "OC(=O)C(CS(=O)(=O)C1=CC=CC=C1)N1CCOCC1", 
	 "Tm": 464.15, 
	 "num_atms": 37, 
	 "gaussian": { 
		 "optdone": 1, 
		 "sigma_profile": "yes", 
		 "theory": "DFT", 
		 "functional": "B3LYP", 
		 "basiset": "6-31G**", 
		 "properties": { 
			 "R2extent": 5693.1619, 
			 "electric_dipole_moment_norm": 5.13241295591, 
			 "electric_quadrupole_moment_norm": 21.7657521065, 
			 "total_energy": -1334.58987484, 
			 "HOMO_LUMO_gap": 0.18691, 
			 "cosmo_polarized_energy": -23.2, 
			 "cosmo_cavitation_energy": 38.81, 
			 "cosmo_dispersion_energy": -27.17, 
			 "cosmo_repulsion_energy": 2.02, 
			 "cosmo_total_nonelectrostatic_energy": 13.67, 
			 "SMD_solvation_energy": 6.28 
		},
		"coords": [
			{
				"x": 1.3589483939,
				"y": 1.1586058577,
				"z": -2.8516835369,
				"element": "O" 
			},
			{
				"x": 0.4994970913,
				"y": 0.5878360689,
				"z": -1.9692661094,
				"element": "C" 
			},
			{
				"x": -0.0588105936,
				"y": -0.4580418557,
				"z": -2.1987092869,
				"element": "O" 
			},
			{
				"x": 0.3575147125,
				"y": 1.4835866836,
				"z": -0.7261208767,
				"element": "C" 
			},
			{
				"x": 1.7482840862,
				"y": 1.6895819421,
				"z": -0.0766539489,
				"element": "C" 
			},
			{
				"x": 2.4901921668,
				"y": 0.3981413674,
				"z": 1.0049543262,
				"element": "S" 
			},
			{
				"x": 1.7058192081,
				"y": 0.3161114342,
				"z": 2.249437801,
				"element": "O" 
			},
			{
				"x": 3.9183098815,
				"y": 0.7568950415,
				"z": 1.0551904015,
				"element": "O" 
			},
			{
				"x": 2.345691845,
				"y": -1.17418564,
				"z": 0.1497690848,
				"element": "C" 
			},
			{
				"x": 3.4268674953,
				"y": -1.6183251201,
				"z": -0.616009022,
				"element": "C" 
			},
			{
				"x": 3.3400058764,
				"y": -2.8610803121,
				"z": -1.2432348022,
				"element": "C" 
			},
			{
				"x": 2.1888631353,
				"y": -3.6391313977,
				"z": -1.0949548196,
				"element": "C" 
			},
			{
				"x": 1.1197447584,
				"y": -3.1826993041,
				"z": -0.3204089838,
				"element": "C" 
			},
			{
				"x": 1.1902264276,
				"y": -1.942084144,
				"z": 0.311996534,
				"element": "C" 
			},
			{
				"x": -0.6849845593,
				"y": 1.019223338,
				"z": 0.173314201,
				"element": "N" 
			},
			{
				"x": -0.8390690953,
				"y": 1.8239729496,
				"z": 1.3913735243,
				"element": "C" 
			},
			{
				"x": -1.7013897031,
				"y": 1.0338541586,
				"z": 2.388918029,
				"element": "C" 
			},
			{
				"x": -2.7229963257,
				"y": 0.2729803304,
				"z": 1.7470581337,
				"element": "O" 
			},
			{
				"x": -3.1385139416,
				"y": 0.8893745916,
				"z": 0.5455520005,
				"element": "C" 
			},
			{
				"x": -2.001111113,
				"y": 0.8827467861,
				"z": -0.494729111,
				"element": "C" 
			},
			{
				"x": 1.4134922102,
				"y": 0.5501910292,
				"z": -3.6074861018,
				"element": "H" 
			},
			{
				"x": 0.1184819461,
				"y": 2.4831390013,
				"z": -1.1514746934,
				"element": "H" 
			},
			{
				"x": 1.7523700717,
				"y": 2.5638328633,
				"z": 0.5789858505,
				"element": "H" 
			},
			{
				"x": 2.4877641677,
				"y": 1.8607150451,
				"z": -0.8591236833,
				"element": "H" 
			},
			{
				"x": 4.3203414351,
				"y": -1.0077918595,
				"z": -0.6893786175,
				"element": "H" 
			},
			{
				"x": 4.1731807662,
				"y": -3.2255754387,
				"z": -1.8366127137,
				"element": "H" 
			},
			{
				"x": 2.1265873227,
				"y": -4.6078766662,
				"z": -1.5823721171,
				"element": "H" 
			},
			{
				"x": 0.2282261212,
				"y": -3.7917770194,
				"z": -0.2088371579,
				"element": "H" 
			},
			{
				"x": 0.3662153336,
				"y": -1.563129449,
				"z": 0.9052446182,
				"element": "H" 
			},
			{
				"x": -1.2823307308,
				"y": 2.8133512149,
				"z": 1.1707260671,
				"element": "H" 
			},
			{
				"x": 0.1263122907,
				"y": 1.9887285083,
				"z": 1.866148041,
				"element": "H" 
			},
			{
				"x": -2.143273536,
				"y": 1.7295196957,
				"z": 3.1205908089,
				"element": "H" 
			},
			{
				"x": -1.0721655968,
				"y": 0.3173650263,
				"z": 2.9229903438,
				"element": "H" 
			},
			{
				"x": -3.4942500828,
				"y": 1.9151552518,
				"z": 0.7351456295,
				"element": "H" 
			},
			{
				"x": -3.9892113123,
				"y": 0.3156524512,
				"z": 0.1673331712,
				"element": "H" 
			},
			{
				"x": -2.005286227,
				"y": -0.0504695176,
				"z": -1.0563409014,
				"element": "H" 
			},
			{
				"x": -2.175743926,
				"y": 1.7086070876,
				"z": -1.2120320827,
				"element": "H" 
			}
		],
		 "valence_orbital": [ 
			{
				"type": "occ",
				"energy": -0.28575,
				"method": "rhf"
			},
			{
				"type": "occ",
				"energy": -0.27081,
				"method": "rhf"
			},
			{
				"type": "occ",
				"energy": -0.26451,
				"method": "rhf"
			},
			{
				"type": "occ",
				"energy": -0.24808,
				"method": "rhf"
			},
			{
				"type": "occ",
				"energy": -0.22667,
				"method": "rhf"
			},
			{
				"type": "unocc",
				"energy": -0.03976,
				"method": "rhf"
			},
			{
				"type": "unocc",
				"energy": -0.01572,
				"method": "rhf"
			},
			{
				"type": "unocc",
				"energy": -0.01166,
				"method": "rhf"
			},
			{
				"type": "unocc",
				"energy": 0.05196,
				"method": "rhf"
			},
			{
				"type": "unocc",
				"energy": 0.0588,
				"method": "rhf"
			}
		],
		"cosmo_sigma_profile": { 
			"-0.025": 0.0,
			"-0.024": 0.0,
			"-0.023": 0.0,
			"-0.022": 0.0,
			"-0.021": 0.0,
			"-0.02": 0.0,
			"-0.019": 0.386456119805,
			"-0.018": 0.98067496069,
			"-0.017": 0.665551442352,
			"-0.016": 1.03168166118,
			"-0.015": 0.240790779975,
			"-0.014": 0.619341185592,
			"-0.013": 0.809479227367,
			"-0.012": 1.01874768268,
			"-0.011": 0.825790603706,
			"-0.01": 0.966220036508,
			"-0.009": 2.40499412403,
			"-0.008": 4.37391532732,
			"-0.007": 14.0358119038,
			"-0.006": 19.0080768704,
			"-0.005": 21.3171465862,
			"-0.004": 27.9541998088,
			"-0.003": 31.5215420978,
			"-0.002": 21.623060222,
			"-0.001": 16.6195596558,
			"0.0": 13.7346604878,
			"0.001": 13.6404431539,
			"0.002": 16.1413712331,
			"0.003": 15.8399850493,
			"0.004": 8.44357980022,
			"0.005": 9.52880616309,
			"0.006": 7.97384463516,
			"0.007": 7.85172413168,
			"0.008": 9.0838119045,
			"0.009": 8.54953511487,
			"0.01": 6.76684839547,
			"0.011": 9.87099974431,
			"0.012": 8.45759957241,
			"0.013": 2.31748475377,
			"0.014": 0.824995349165,
			"0.015": 0.0,
			"0.016": 0.0,
			"0.017": 0.0,
			"0.018": 0.0,
			"0.019": 0.0,
			"0.02": 0.0,
			"0.021": 0.0,
			"0.022": 0.0,
			"0.023": 0.0,
			"0.024": 0.0,
			"0.025": 0.0
		}
	}
}
