{
	 "smiles": "COC1=CC(=CC(OC)=C1OC)C(=O)OCCCl", 
	 "Tm": 342.15, 
	 "num_atms": 33, 
	 "gaussian": { 
		 "optdone": 1, 
		 "sigma_profile": "yes", 
		 "theory": "DFT", 
		 "functional": "B3LYP", 
		 "basiset": "6-31G**", 
		 "properties": { 
			 "R2extent": 8616.5652, 
			 "electric_dipole_moment_norm": 4.80460785601, 
			 "electric_quadrupole_moment_norm": 14.6263272488, 
			 "total_energy": -1302.5951034, 
			 "HOMO_LUMO_gap": 0.19021, 
			 "cosmo_polarized_energy": -11.26, 
			 "cosmo_cavitation_energy": 39.15, 
			 "cosmo_dispersion_energy": -27.43, 
			 "cosmo_repulsion_energy": 2.19, 
			 "cosmo_total_nonelectrostatic_energy": 13.9, 
			 "SMD_solvation_energy": 9.57 
		},
		"coords": [
			{
				"x": -1.9616206964,
				"y": -2.1722328927,
				"z": 1.7886599559,
				"element": "C" 
			},
			{
				"x": -0.7671733879,
				"y": -1.3803156352,
				"z": 1.7671384913,
				"element": "O" 
			},
			{
				"x": -0.5324979566,
				"y": -0.7067597573,
				"z": 0.5911731407,
				"element": "C" 
			},
			{
				"x": -0.607150107,
				"y": 0.6840615525,
				"z": 0.5826328693,
				"element": "C" 
			},
			{
				"x": -0.3077405735,
				"y": 1.3894777289,
				"z": -0.5902620932,
				"element": "C" 
			},
			{
				"x": 0.0466862817,
				"y": 0.7003314498,
				"z": -1.7561970223,
				"element": "C" 
			},
			{
				"x": 0.1301290871,
				"y": -0.6904556406,
				"z": -1.7514204465,
				"element": "C" 
			},
			{
				"x": 0.5653088177,
				"y": -1.3315548336,
				"z": -2.8823026123,
				"element": "O" 
			},
			{
				"x": -0.3902041879,
				"y": -2.1798484079,
				"z": -3.5290715379,
				"element": "C" 
			},
			{
				"x": -0.1531084711,
				"y": -1.4050318185,
				"z": -0.5712959681,
				"element": "C" 
			},
			{
				"x": -0.0691730467,
				"y": -2.7759948415,
				"z": -0.5701749183,
				"element": "O" 
			},
			{
				"x": 1.1145637677,
				"y": -3.2931720563,
				"z": 0.0585743455,
				"element": "C" 
			},
			{
				"x": -0.3651447077,
				"y": 2.8736516094,
				"z": -0.658994937,
				"element": "C" 
			},
			{
				"x": -0.1361938768,
				"y": 3.5297624792,
				"z": -1.6564670771,
				"element": "O" 
			},
			{
				"x": -0.707364689,
				"y": 3.4337292052,
				"z": 0.5333117092,
				"element": "O" 
			},
			{
				"x": -0.8313082211,
				"y": 4.867944444,
				"z": 0.5502472315,
				"element": "C" 
			},
			{
				"x": 0.5415164717,
				"y": 5.5043809177,
				"z": 0.7318096737,
				"element": "C" 
			},
			{
				"x": 0.3603906989,
				"y": 7.2961931762,
				"z": 0.9259757263,
				"element": "Cl" 
			},
			{
				"x": -1.9379216093,
				"y": -2.9499111565,
				"z": 1.0195476924,
				"element": "H" 
			},
			{
				"x": -2.8476406736,
				"y": -1.5409051899,
				"z": 1.6466789643,
				"element": "H" 
			},
			{
				"x": -2.0028852098,
				"y": -2.6327409487,
				"z": 2.7776298567,
				"element": "H" 
			},
			{
				"x": -0.8883064961,
				"y": 1.2007772325,
				"z": 1.4916635406,
				"element": "H" 
			},
			{
				"x": 0.2779719421,
				"y": 1.2486050159,
				"z": -2.6618700715,
				"element": "H" 
			},
			{
				"x": -0.7067545746,
				"y": -2.9963883106,
				"z": -2.8742593444,
				"element": "H" 
			},
			{
				"x": 0.1140358629,
				"y": -2.5866760015,
				"z": -4.4077521004,
				"element": "H" 
			},
			{
				"x": -1.2662087039,
				"y": -1.6028273735,
				"z": -3.8516195842,
				"element": "H" 
			},
			{
				"x": 1.1631661776,
				"y": -2.9863339103,
				"z": 1.1079310012,
				"element": "H" 
			},
			{
				"x": 1.0428362268,
				"y": -4.3805020278,
				"z": -0.0052836888,
				"element": "H" 
			},
			{
				"x": 2.0108943275,
				"y": -2.9540821705,
				"z": -0.4725400952,
				"element": "H" 
			},
			{
				"x": -1.2927008361,
				"y": 5.2135272339,
				"z": -0.3768608732,
				"element": "H" 
			},
			{
				"x": -1.4793395161,
				"y": 5.093402173,
				"z": 1.3987895966,
				"element": "H" 
			},
			{
				"x": 1.1689387692,
				"y": 5.3339529841,
				"z": -0.1421177759,
				"element": "H" 
			},
			{
				"x": 1.0353991104,
				"y": 5.1291357707,
				"z": 1.628926351,
				"element": "H" 
			}
		],
		 "valence_orbital": [ 
			{
				"type": "occ",
				"energy": -0.29097,
				"method": "rhf"
			},
			{
				"type": "occ",
				"energy": -0.28067,
				"method": "rhf"
			},
			{
				"type": "occ",
				"energy": -0.26979,
				"method": "rhf"
			},
			{
				"type": "occ",
				"energy": -0.2442,
				"method": "rhf"
			},
			{
				"type": "occ",
				"energy": -0.241,
				"method": "rhf"
			},
			{
				"type": "unocc",
				"energy": -0.05079,
				"method": "rhf"
			},
			{
				"type": "unocc",
				"energy": -0.00556,
				"method": "rhf"
			},
			{
				"type": "unocc",
				"energy": 0.02069,
				"method": "rhf"
			},
			{
				"type": "unocc",
				"energy": 0.05162,
				"method": "rhf"
			},
			{
				"type": "unocc",
				"energy": 0.06908,
				"method": "rhf"
			}
		],
		"cosmo_sigma_profile": { 
			"-0.025": 0.0,
			"-0.024": 0.0,
			"-0.023": 0.0,
			"-0.022": 0.0,
			"-0.021": 0.0,
			"-0.02": 0.0,
			"-0.019": 0.0,
			"-0.018": 0.0,
			"-0.017": 0.0,
			"-0.016": 0.0,
			"-0.015": 0.0,
			"-0.014": 0.0,
			"-0.013": 0.0,
			"-0.012": 0.0,
			"-0.011": 0.0,
			"-0.01": 0.0,
			"-0.009": 0.0,
			"-0.008": 0.989698177018,
			"-0.007": 5.27661480864,
			"-0.006": 12.6080728776,
			"-0.005": 22.1277100575,
			"-0.004": 30.3573980706,
			"-0.003": 37.2081099291,
			"-0.002": 30.3515684755,
			"-0.001": 24.0951243838,
			"0.0": 20.8786228846,
			"0.001": 23.0145495883,
			"0.002": 24.1251566189,
			"0.003": 16.0713993946,
			"0.004": 13.708532272,
			"0.005": 14.3940206842,
			"0.006": 13.1839713645,
			"0.007": 4.72502138898,
			"0.008": 3.39055060559,
			"0.009": 4.2738933145,
			"0.01": 3.85449677678,
			"0.011": 5.6473049599,
			"0.012": 2.15041724537,
			"0.013": 0.0,
			"0.014": 0.0,
			"0.015": 0.0,
			"0.016": 0.0,
			"0.017": 0.0,
			"0.018": 0.0,
			"0.019": 0.0,
			"0.02": 0.0,
			"0.021": 0.0,
			"0.022": 0.0,
			"0.023": 0.0,
			"0.024": 0.0,
			"0.025": 0.0
		}
	}
}
