{
	 "smiles": "ON=CC1=CSC=C1", 
	 "Tm": 394.65, 
	 "num_atms": 13, 
	 "gaussian": { 
		 "optdone": 1, 
		 "sigma_profile": "yes", 
		 "theory": "DFT", 
		 "functional": "B3LYP", 
		 "basiset": "6-31G**", 
		 "properties": { 
			 "R2extent": 2134.3532, 
			 "electric_dipole_moment_norm": 0.445311688596, 
			 "electric_quadrupole_moment_norm": 6.92701611951, 
			 "total_energy": -721.627528802, 
			 "HOMO_LUMO_gap": 0.18975, 
			 "cosmo_polarized_energy": -8.07, 
			 "cosmo_cavitation_energy": 18.99, 
			 "cosmo_dispersion_energy": -14.95, 
			 "cosmo_repulsion_energy": 1.19, 
			 "cosmo_total_nonelectrostatic_energy": 5.23, 
			 "SMD_solvation_energy": 3.7 
		},
		"coords": [
			{
				"x": 0.991158381,
				"y": 0.1037260498,
				"z": -2.8524513686,
				"element": "O" 
			},
			{
				"x": 0.489618772,
				"y": -0.7329696361,
				"z": -1.8434501035,
				"element": "N" 
			},
			{
				"x": -0.1408652248,
				"y": -0.0956141675,
				"z": -0.9223331686,
				"element": "C" 
			},
			{
				"x": -0.4272489908,
				"y": 1.3249071256,
				"z": -0.7365316932,
				"element": "C" 
			},
			{
				"x": -1.1415903462,
				"y": 1.746369403,
				"z": 0.3676205178,
				"element": "C" 
			},
			{
				"x": -1.366469017,
				"y": 3.4544912979,
				"z": 0.392203351,
				"element": "S" 
			},
			{
				"x": -0.493419987,
				"y": 3.6323700767,
				"z": -1.1001925276,
				"element": "C" 
			},
			{
				"x": -0.0570396254,
				"y": 2.4334353076,
				"z": -1.5806914195,
				"element": "C" 
			},
			{
				"x": 1.4220854795,
				"y": -0.5289721015,
				"z": -3.4415544034,
				"element": "H" 
			},
			{
				"x": -0.5211640395,
				"y": -0.7634476423,
				"z": -0.150416201,
				"element": "H" 
			},
			{
				"x": -1.5431353895,
				"y": 1.1328378659,
				"z": 1.1628115304,
				"element": "H" 
			},
			{
				"x": -0.3564738323,
				"y": 4.6146564115,
				"z": -1.5303780426,
				"element": "H" 
			},
			{
				"x": 0.5056438201,
				"y": 2.3171100094,
				"z": -2.4946364712,
				"element": "H" 
			}
		],
		 "valence_orbital": [ 
			{
				"type": "occ",
				"energy": -0.34959,
				"method": "rhf"
			},
			{
				"type": "occ",
				"energy": -0.29076,
				"method": "rhf"
			},
			{
				"type": "occ",
				"energy": -0.27303,
				"method": "rhf"
			},
			{
				"type": "occ",
				"energy": -0.24853,
				"method": "rhf"
			},
			{
				"type": "occ",
				"energy": -0.22585,
				"method": "rhf"
			},
			{
				"type": "unocc",
				"energy": -0.0361,
				"method": "rhf"
			},
			{
				"type": "unocc",
				"energy": 0.0077,
				"method": "rhf"
			},
			{
				"type": "unocc",
				"energy": 0.02852,
				"method": "rhf"
			},
			{
				"type": "unocc",
				"energy": 0.07059,
				"method": "rhf"
			},
			{
				"type": "unocc",
				"energy": 0.095,
				"method": "rhf"
			}
		],
		"cosmo_sigma_profile": { 
			"-0.025": 0.0,
			"-0.024": 0.0,
			"-0.023": 0.0,
			"-0.022": 0.0,
			"-0.021": 0.0,
			"-0.02": 0.0,
			"-0.019": 0.0,
			"-0.018": 0.17169701506,
			"-0.017": 0.903631779941,
			"-0.016": 0.902684861523,
			"-0.015": 1.08406321825,
			"-0.014": 0.812579241047,
			"-0.013": 0.632426278837,
			"-0.012": 0.345554255319,
			"-0.011": 0.815687926954,
			"-0.01": 0.354176353835,
			"-0.009": 3.64998347085,
			"-0.008": 7.03415693874,
			"-0.007": 5.74669688222,
			"-0.006": 6.15407158422,
			"-0.005": 5.93356165513,
			"-0.004": 5.87921158575,
			"-0.003": 7.00988356993,
			"-0.002": 6.94706466597,
			"-0.001": 7.20030676466,
			"0.0": 7.07044310705,
			"0.001": 10.7361609127,
			"0.002": 13.7204852172,
			"0.003": 21.100372147,
			"0.004": 15.8974486568,
			"0.005": 7.15086833506,
			"0.006": 4.97760309775,
			"0.007": 3.15077137684,
			"0.008": 2.47470473101,
			"0.009": 1.90266443631,
			"0.01": 1.47091440183,
			"0.011": 1.16491035915,
			"0.012": 0.663865551559,
			"0.013": 1.16264067043,
			"0.014": 0.391728317048,
			"0.015": 0.0,
			"0.016": 0.0,
			"0.017": 0.0,
			"0.018": 0.0,
			"0.019": 0.0,
			"0.02": 0.0,
			"0.021": 0.0,
			"0.022": 0.0,
			"0.023": 0.0,
			"0.024": 0.0,
			"0.025": 0.0
		}
	}
}
