{
	 "smiles": "CC(=CC(O)=O)C1=CC=CC=C1", 
	 "Tm": 367.15, 
	 "num_atms": 22, 
	 "gaussian": { 
		 "optdone": 1, 
		 "sigma_profile": "yes", 
		 "theory": "DFT", 
		 "functional": "B3LYP", 
		 "basiset": "6-31G**", 
		 "properties": { 
			 "R2extent": 3004.4836, 
			 "electric_dipole_moment_norm": 2.80791394099, 
			 "electric_quadrupole_moment_norm": 10.5500129962, 
			 "total_energy": -537.542674118, 
			 "HOMO_LUMO_gap": 0.17887, 
			 "cosmo_polarized_energy": -10.06, 
			 "cosmo_cavitation_energy": 26.04, 
			 "cosmo_dispersion_energy": -19.08, 
			 "cosmo_repulsion_energy": 1.52, 
			 "cosmo_total_nonelectrostatic_energy": 8.48, 
			 "SMD_solvation_energy": 5.89 
		},
		"coords": [
			{
				"x": 2.389933262,
				"y": -1.1456395008,
				"z": -0.4320413746,
				"element": "C" 
			},
			{
				"x": 1.0462953451,
				"y": -0.8867856468,
				"z": 0.2078255453,
				"element": "C" 
			},
			{
				"x": 0.8311818086,
				"y": -0.0680305116,
				"z": 1.2659015737,
				"element": "C" 
			},
			{
				"x": 1.7668949637,
				"y": 0.7201764421,
				"z": 2.0857091698,
				"element": "C" 
			},
			{
				"x": 3.0703030668,
				"y": 0.7251131978,
				"z": 1.6903710337,
				"element": "O" 
			},
			{
				"x": 1.4087457617,
				"y": 1.3504201609,
				"z": 3.0645880511,
				"element": "O" 
			},
			{
				"x": -0.1202538485,
				"y": -1.5820524804,
				"z": -0.4045059356,
				"element": "C" 
			},
			{
				"x": -1.2102307144,
				"y": -2.0107454691,
				"z": 0.3756127245,
				"element": "C" 
			},
			{
				"x": -2.3019654051,
				"y": -2.6511188743,
				"z": -0.2062931359,
				"element": "C" 
			},
			{
				"x": -2.3317497892,
				"y": -2.8806417628,
				"z": -1.583397729,
				"element": "C" 
			},
			{
				"x": -1.2539522139,
				"y": -2.4726221049,
				"z": -2.370571311,
				"element": "C" 
			},
			{
				"x": -0.157123022,
				"y": -1.8403750006,
				"z": -1.7869684036,
				"element": "C" 
			},
			{
				"x": 2.4925366211,
				"y": -0.557291882,
				"z": -1.3530236434,
				"element": "H" 
			},
			{
				"x": 3.2132362115,
				"y": -0.8709135873,
				"z": 0.2216947766,
				"element": "H" 
			},
			{
				"x": 2.4793120733,
				"y": -2.1990300084,
				"z": -0.7135407441,
				"element": "H" 
			},
			{
				"x": -0.1855831436,
				"y": 0.0771143411,
				"z": 1.6141287287,
				"element": "H" 
			},
			{
				"x": 3.5259533931,
				"y": 1.2824235664,
				"z": 2.3432988223,
				"element": "H" 
			},
			{
				"x": -1.1859493403,
				"y": -1.8675967641,
				"z": 1.4511129715,
				"element": "H" 
			},
			{
				"x": -3.1263462516,
				"y": -2.9811291357,
				"z": 0.4192893161,
				"element": "H" 
			},
			{
				"x": -3.1825508174,
				"y": -3.3807157498,
				"z": -2.0368307411,
				"element": "H" 
			},
			{
				"x": -1.2650530482,
				"y": -2.6470995626,
				"z": -3.4426637759,
				"element": "H" 
			},
			{
				"x": 0.6686650874,
				"y": -1.5266596673,
				"z": -2.4170959191,
				"element": "H" 
			}
		],
		 "valence_orbital": [ 
			{
				"type": "occ",
				"energy": -0.31437,
				"method": "rhf"
			},
			{
				"type": "occ",
				"energy": -0.28786,
				"method": "rhf"
			},
			{
				"type": "occ",
				"energy": -0.26969,
				"method": "rhf"
			},
			{
				"type": "occ",
				"energy": -0.25817,
				"method": "rhf"
			},
			{
				"type": "occ",
				"energy": -0.23742,
				"method": "rhf"
			},
			{
				"type": "unocc",
				"energy": -0.05855,
				"method": "rhf"
			},
			{
				"type": "unocc",
				"energy": -0.00915,
				"method": "rhf"
			},
			{
				"type": "unocc",
				"energy": 0.01154,
				"method": "rhf"
			},
			{
				"type": "unocc",
				"energy": 0.08111,
				"method": "rhf"
			},
			{
				"type": "unocc",
				"energy": 0.08827,
				"method": "rhf"
			}
		],
		"cosmo_sigma_profile": { 
			"-0.025": 0.0,
			"-0.024": 0.0,
			"-0.023": 0.0,
			"-0.022": 0.0,
			"-0.021": 0.0,
			"-0.02": 0.0,
			"-0.019": 0.0,
			"-0.018": 0.413976144247,
			"-0.017": 0.678256615075,
			"-0.016": 0.98313770443,
			"-0.015": 0.881490719845,
			"-0.014": 0.930610307587,
			"-0.013": 0.188220233187,
			"-0.012": 0.486048380605,
			"-0.011": 0.7415585795,
			"-0.01": 1.17118574987,
			"-0.009": 0.325262517902,
			"-0.008": 0.473445594571,
			"-0.007": 1.29522088797,
			"-0.006": 12.4508079775,
			"-0.005": 14.5673294457,
			"-0.004": 16.8094677114,
			"-0.003": 14.6360999876,
			"-0.002": 14.4098479158,
			"-0.001": 17.3831087188,
			"0.0": 17.9355776817,
			"0.001": 17.0725502624,
			"0.002": 14.0130817031,
			"0.003": 12.7732249631,
			"0.004": 12.9656856717,
			"0.005": 12.7536813201,
			"0.006": 4.06362711933,
			"0.007": 1.77415570681,
			"0.008": 1.48210724091,
			"0.009": 1.29430612947,
			"0.01": 1.89038587517,
			"0.011": 2.07935210328,
			"0.012": 5.42437336423,
			"0.013": 2.92410979928,
			"0.014": 0.322915867723,
			"0.015": 0.0,
			"0.016": 0.0,
			"0.017": 0.0,
			"0.018": 0.0,
			"0.019": 0.0,
			"0.02": 0.0,
			"0.021": 0.0,
			"0.022": 0.0,
			"0.023": 0.0,
			"0.024": 0.0,
			"0.025": 0.0
		}
	}
}
