{
	 "smiles": "COC1=C(NC2=C(N=NC(=S)N2)C2=CC=CC=C2)C=CC=C1", 
	 "Tm": 515.15, 
	 "num_atms": 36, 
	 "gaussian": { 
		 "optdone": 1, 
		 "sigma_profile": "yes", 
		 "theory": "DFT", 
		 "functional": "B3LYP", 
		 "basiset": "6-31G**", 
		 "properties": { 
			 "R2extent": 8275.4667, 
			 "electric_dipole_moment_norm": 12.1478439198, 
			 "electric_quadrupole_moment_norm": 35.1037899279, 
			 "total_energy": -1310.50569676, 
			 "HOMO_LUMO_gap": 0.12197, 
			 "cosmo_polarized_energy": -29.96, 
			 "cosmo_cavitation_energy": 42.27, 
			 "cosmo_dispersion_energy": -29.96, 
			 "cosmo_repulsion_energy": 2.26, 
			 "cosmo_total_nonelectrostatic_energy": 14.57, 
			 "SMD_solvation_energy": 4.89 
		},
		"coords": [
			{
				"x": -2.2909976634,
				"y": 2.7224369967,
				"z": -1.1532369633,
				"element": "C" 
			},
			{
				"x": -1.5144234843,
				"y": 1.5632927629,
				"z": -0.8693004766,
				"element": "O" 
			},
			{
				"x": -1.7610532704,
				"y": 0.4247220018,
				"z": -1.5779147725,
				"element": "C" 
			},
			{
				"x": -0.9247524027,
				"y": -0.6693000732,
				"z": -1.2558899903,
				"element": "C" 
			},
			{
				"x": 0.0661179545,
				"y": -0.4603081782,
				"z": -0.2663272751,
				"element": "N" 
			},
			{
				"x": 0.3654427978,
				"y": -1.2641205331,
				"z": 0.7908135633,
				"element": "C" 
			},
			{
				"x": 1.3307941501,
				"y": -0.948640595,
				"z": 1.7703048913,
				"element": "C" 
			},
			{
				"x": 1.4550539763,
				"y": -1.7518412281,
				"z": 2.8523984516,
				"element": "N" 
			},
			{
				"x": 0.7960033568,
				"y": -2.8677840666,
				"z": 3.0173607325,
				"element": "N" 
			},
			{
				"x": -0.0983624279,
				"y": -3.2848290492,
				"z": 2.0599689254,
				"element": "C" 
			},
			{
				"x": -0.9429129554,
				"y": -4.7219809705,
				"z": 2.1286126758,
				"element": "S" 
			},
			{
				"x": -0.3101260112,
				"y": -2.4194198193,
				"z": 0.9780122986,
				"element": "N" 
			},
			{
				"x": 2.1687622216,
				"y": 0.2720820638,
				"z": 1.7454316642,
				"element": "C" 
			},
			{
				"x": 2.7454935195,
				"y": 0.7704090582,
				"z": 0.5623008991,
				"element": "C" 
			},
			{
				"x": 3.5429604472,
				"y": 1.9161384215,
				"z": 0.5863243211,
				"element": "C" 
			},
			{
				"x": 3.7876783974,
				"y": 2.5774877826,
				"z": 1.7894975452,
				"element": "C" 
			},
			{
				"x": 3.2377906469,
				"y": 2.0781316627,
				"z": 2.9738625496,
				"element": "C" 
			},
			{
				"x": 2.4377920591,
				"y": 0.9393407102,
				"z": 2.954415039,
				"element": "C" 
			},
			{
				"x": -1.0577526951,
				"y": -1.8705688214,
				"z": -1.9570582431,
				"element": "C" 
			},
			{
				"x": -2.0480815915,
				"y": -2.0117012993,
				"z": -2.9328911293,
				"element": "C" 
			},
			{
				"x": -2.8819303962,
				"y": -0.9382736064,
				"z": -3.232266851,
				"element": "C" 
			},
			{
				"x": -2.7344023677,
				"y": 0.2836245054,
				"z": -2.5674051627,
				"element": "C" 
			},
			{
				"x": -1.9213132099,
				"y": 3.5004366714,
				"z": -0.4848942977,
				"element": "H" 
			},
			{
				"x": -2.1632727741,
				"y": 3.0432687671,
				"z": -2.1939449971,
				"element": "H" 
			},
			{
				"x": -3.3543522256,
				"y": 2.5463663066,
				"z": -0.9530177355,
				"element": "H" 
			},
			{
				"x": 0.3805436542,
				"y": 0.4979146321,
				"z": -0.1641313481,
				"element": "H" 
			},
			{
				"x": -1.0529397827,
				"y": -2.6906902783,
				"z": 0.3424321315,
				"element": "H" 
			},
			{
				"x": 2.6106397479,
				"y": 0.2388978978,
				"z": -0.3751258948,
				"element": "H" 
			},
			{
				"x": 3.9859496443,
				"y": 2.2795545582,
				"z": -0.3365572593,
				"element": "H" 
			},
			{
				"x": 4.4087654672,
				"y": 3.4681988271,
				"z": 1.8074332798,
				"element": "H" 
			},
			{
				"x": 3.4316373655,
				"y": 2.5806793526,
				"z": 3.9171467376,
				"element": "H" 
			},
			{
				"x": 2.0173788705,
				"y": 0.542170996,
				"z": 3.8717885501,
				"element": "H" 
			},
			{
				"x": -0.369028012,
				"y": -2.6866922214,
				"z": -1.7615898854,
				"element": "H" 
			},
			{
				"x": -2.1490359209,
				"y": -2.9533411312,
				"z": -3.4617377637,
				"element": "H" 
			},
			{
				"x": -3.6496032722,
				"y": -1.0383330467,
				"z": -3.993017539,
				"element": "H" 
			},
			{
				"x": -3.3837638135,
				"y": 1.1136709433,
				"z": -2.8183966711,
				"element": "H" 
			}
		],
		 "valence_orbital": [ 
			{
				"type": "occ",
				"energy": -0.25898,
				"method": "rhf"
			},
			{
				"type": "occ",
				"energy": -0.24156,
				"method": "rhf"
			},
			{
				"type": "occ",
				"energy": -0.22913,
				"method": "rhf"
			},
			{
				"type": "occ",
				"energy": -0.19972,
				"method": "rhf"
			},
			{
				"type": "occ",
				"energy": -0.19716,
				"method": "rhf"
			},
			{
				"type": "unocc",
				"energy": -0.07519,
				"method": "rhf"
			},
			{
				"type": "unocc",
				"energy": -0.04628,
				"method": "rhf"
			},
			{
				"type": "unocc",
				"energy": -0.02679,
				"method": "rhf"
			},
			{
				"type": "unocc",
				"energy": -0.01866,
				"method": "rhf"
			},
			{
				"type": "unocc",
				"energy": -0.01194,
				"method": "rhf"
			}
		],
		"cosmo_sigma_profile": { 
			"-0.025": 0.0,
			"-0.024": 0.0,
			"-0.023": 0.0,
			"-0.022": 0.0,
			"-0.021": 0.0,
			"-0.02": 0.0,
			"-0.019": 0.0,
			"-0.018": 0.0,
			"-0.017": 0.0,
			"-0.016": 0.0,
			"-0.015": 0.0,
			"-0.014": 0.0,
			"-0.013": 0.189954631092,
			"-0.012": 0.786211593511,
			"-0.011": 1.68338843454,
			"-0.01": 2.92821034663,
			"-0.009": 4.44071893872,
			"-0.008": 5.52645989786,
			"-0.007": 12.0244347021,
			"-0.006": 31.5488959466,
			"-0.005": 32.5061991442,
			"-0.004": 30.8737105212,
			"-0.003": 22.0782013099,
			"-0.002": 18.7915538533,
			"-0.001": 16.0622552117,
			"0.0": 17.6049043899,
			"0.001": 17.4659358107,
			"0.002": 18.2732272718,
			"0.003": 20.9138346418,
			"0.004": 22.856774028,
			"0.005": 11.0415246934,
			"0.006": 6.14863837313,
			"0.007": 4.58792224575,
			"0.008": 6.51412216831,
			"0.009": 7.25565962154,
			"0.01": 8.34331806378,
			"0.011": 6.5047983283,
			"0.012": 4.88582283121,
			"0.013": 4.47096886806,
			"0.014": 2.6746167944,
			"0.015": 1.89064756445,
			"0.016": 1.36865287445,
			"0.017": 0.546077512603,
			"0.018": 0.0,
			"0.019": 0.0,
			"0.02": 0.0,
			"0.021": 0.0,
			"0.022": 0.0,
			"0.023": 0.0,
			"0.024": 0.0,
			"0.025": 0.0
		}
	}
}
