{
	 "smiles": "BrC1=CC2=C(C=C1)S(=O)(=O)CCC2=O", 
	 "Tm": 420.15, 
	 "num_atms": 21, 
	 "gaussian": { 
		 "optdone": 1, 
		 "sigma_profile": "yes", 
		 "theory": "DFT", 
		 "functional": "B3LYP", 
		 "basiset": "6-31G**", 
		 "properties": { 
			 "R2extent": 4726.8488, 
			 "electric_dipole_moment_norm": 1.99895254821, 
			 "electric_quadrupole_moment_norm": 18.8056294385, 
			 "total_energy": -3542.37125314, 
			 "HOMO_LUMO_gap": 0.17642, 
			 "cosmo_polarized_energy": -15.94, 
			 "cosmo_cavitation_energy": 28.49, 
			 "cosmo_dispersion_energy": -21.99, 
			 "cosmo_repulsion_energy": 1.66, 
			 "cosmo_total_nonelectrostatic_energy": 8.16, 
			 "SMD_solvation_energy": 3.21 
		},
		"coords": [
			{
				"x": -3.6188900574,
				"y": 1.1867756941,
				"z": -0.2847455416,
				"element": "Br" 
			},
			{
				"x": -1.8425446044,
				"y": 0.6637417914,
				"z": 0.1613997897,
				"element": "C" 
			},
			{
				"x": -0.8170913746,
				"y": 0.8716593749,
				"z": -0.7527423991,
				"element": "C" 
			},
			{
				"x": 0.4926942035,
				"y": 0.4832661543,
				"z": -0.436866463,
				"element": "C" 
			},
			{
				"x": 0.7369218604,
				"y": -0.103795081,
				"z": 0.8177632237,
				"element": "C" 
			},
			{
				"x": -0.2941258887,
				"y": -0.2943094054,
				"z": 1.7370928702,
				"element": "C" 
			},
			{
				"x": -1.5935190418,
				"y": 0.0853374413,
				"z": 1.4091313741,
				"element": "C" 
			},
			{
				"x": 2.3770295957,
				"y": -0.6839911082,
				"z": 1.2809677048,
				"element": "S" 
			},
			{
				"x": 2.5596020567,
				"y": -0.4375729379,
				"z": 2.7180500833,
				"element": "O" 
			},
			{
				"x": 2.5791102273,
				"y": -2.0332493399,
				"z": 0.7281891568,
				"element": "O" 
			},
			{
				"x": 3.3956232023,
				"y": 0.4597564215,
				"z": 0.3206519758,
				"element": "C" 
			},
			{
				"x": 3.0040905165,
				"y": 0.3787164935,
				"z": -1.1565707716,
				"element": "C" 
			},
			{
				"x": 1.5593771612,
				"y": 0.7597645503,
				"z": -1.462247155,
				"element": "C" 
			},
			{
				"x": 1.2713264081,
				"y": 1.2678803056,
				"z": -2.531451386,
				"element": "O" 
			},
			{
				"x": -0.9981153645,
				"y": 1.3318510795,
				"z": -1.7168719597,
				"element": "H" 
			},
			{
				"x": -0.0729959531,
				"y": -0.7220865936,
				"z": 2.7093682871,
				"element": "H" 
			},
			{
				"x": -2.4029865103,
				"y": -0.0576362659,
				"z": 2.1156474738,
				"element": "H" 
			},
			{
				"x": 3.2543397146,
				"y": 1.4550561229,
				"z": 0.7508599503,
				"element": "H" 
			},
			{
				"x": 4.4291669299,
				"y": 0.1448141746,
				"z": 0.4885949176,
				"element": "H" 
			},
			{
				"x": 3.646171031,
				"y": 1.0210035104,
				"z": -1.7648460133,
				"element": "H" 
			},
			{
				"x": 3.1502158874,
				"y": -0.6515823824,
				"z": -1.5060751178,
				"element": "H" 
			}
		],
		 "valence_orbital": [ 
			{
				"type": "occ",
				"energy": -0.30748,
				"method": "rhf"
			},
			{
				"type": "occ",
				"energy": -0.30243,
				"method": "rhf"
			},
			{
				"type": "occ",
				"energy": -0.29473,
				"method": "rhf"
			},
			{
				"type": "occ",
				"energy": -0.2786,
				"method": "rhf"
			},
			{
				"type": "occ",
				"energy": -0.27022,
				"method": "rhf"
			},
			{
				"type": "unocc",
				"energy": -0.0938,
				"method": "rhf"
			},
			{
				"type": "unocc",
				"energy": -0.05434,
				"method": "rhf"
			},
			{
				"type": "unocc",
				"energy": -0.01326,
				"method": "rhf"
			},
			{
				"type": "unocc",
				"energy": 0.00467,
				"method": "rhf"
			},
			{
				"type": "unocc",
				"energy": 0.05153,
				"method": "rhf"
			}
		],
		"cosmo_sigma_profile": { 
			"-0.025": 0.0,
			"-0.024": 0.0,
			"-0.023": 0.0,
			"-0.022": 0.0,
			"-0.021": 0.0,
			"-0.02": 0.0,
			"-0.019": 0.0,
			"-0.018": 0.0,
			"-0.017": 0.0,
			"-0.016": 0.0,
			"-0.015": 0.0,
			"-0.014": 0.0,
			"-0.013": 0.0,
			"-0.012": 0.0,
			"-0.011": 0.31177613981,
			"-0.01": 3.74942743456,
			"-0.009": 7.29991599789,
			"-0.008": 10.2992126643,
			"-0.007": 14.7862956696,
			"-0.006": 13.1677148112,
			"-0.005": 12.836686686,
			"-0.004": 11.8374019249,
			"-0.003": 10.2715933907,
			"-0.002": 12.5318703664,
			"-0.001": 23.5878271942,
			"0.0": 18.946680831,
			"0.001": 10.0097884372,
			"0.002": 9.65314239519,
			"0.003": 13.874587276,
			"0.004": 9.80761089466,
			"0.005": 3.18049488246,
			"0.006": 3.33437857949,
			"0.007": 4.44056240563,
			"0.008": 4.32728884964,
			"0.009": 5.30931071802,
			"0.01": 12.323270707,
			"0.011": 12.6979042159,
			"0.012": 3.22035320143,
			"0.013": 0.0,
			"0.014": 0.0,
			"0.015": 0.0,
			"0.016": 0.0,
			"0.017": 0.0,
			"0.018": 0.0,
			"0.019": 0.0,
			"0.02": 0.0,
			"0.021": 0.0,
			"0.022": 0.0,
			"0.023": 0.0,
			"0.024": 0.0,
			"0.025": 0.0
		}
	}
}
