{
	 "smiles": "CC1=NC=CC2=C1NC1=CC=CC=C21", 
	 "Tm": 509.15, 
	 "num_atms": 24, 
	 "gaussian": { 
		 "optdone": 1, 
		 "sigma_profile": "yes", 
		 "theory": "DFT", 
		 "functional": "B3LYP", 
		 "basiset": "6-31G**", 
		 "properties": { 
			 "R2extent": 2813.696, 
			 "electric_dipole_moment_norm": 2.77111971773, 
			 "electric_quadrupole_moment_norm": 12.0596799344, 
			 "total_energy": -572.832570567, 
			 "HOMO_LUMO_gap": 0.1706, 
			 "cosmo_polarized_energy": -11.25, 
			 "cosmo_cavitation_energy": 27.56, 
			 "cosmo_dispersion_energy": -20.58, 
			 "cosmo_repulsion_energy": 1.58, 
			 "cosmo_total_nonelectrostatic_energy": 8.56, 
			 "SMD_solvation_energy": 2.7 
		},
		"coords": [
			{
				"x": -2.7727552028,
				"y": -0.7890636248,
				"z": -2.3492847509,
				"element": "C" 
			},
			{
				"x": -2.2112685741,
				"y": 0.2439827363,
				"z": -1.4066640948,
				"element": "C" 
			},
			{
				"x": -2.9687664285,
				"y": 1.3008330097,
				"z": -1.0990636388,
				"element": "N" 
			},
			{
				"x": -2.4888934374,
				"y": 2.239479868,
				"z": -0.2576699759,
				"element": "C" 
			},
			{
				"x": -1.2317104517,
				"y": 2.1975545293,
				"z": 0.3350440688,
				"element": "C" 
			},
			{
				"x": -0.415095613,
				"y": 1.1019801677,
				"z": 0.0317149538,
				"element": "C" 
			},
			{
				"x": -0.9279473433,
				"y": 0.1227548416,
				"z": -0.8520848225,
				"element": "C" 
			},
			{
				"x": 0.0270167198,
				"y": -0.8697438968,
				"z": -1.0207874005,
				"element": "N" 
			},
			{
				"x": 1.1480025937,
				"y": -0.5593128882,
				"z": -0.268055308,
				"element": "C" 
			},
			{
				"x": 2.3495829485,
				"y": -1.2600440689,
				"z": -0.1270865059,
				"element": "C" 
			},
			{
				"x": 3.3216176484,
				"y": -0.71215331,
				"z": 0.7052313431,
				"element": "C" 
			},
			{
				"x": 3.1090105472,
				"y": 0.5028694795,
				"z": 1.3833018601,
				"element": "C" 
			},
			{
				"x": 1.9117109351,
				"y": 1.1964408073,
				"z": 1.2398312887,
				"element": "C" 
			},
			{
				"x": 0.9149177906,
				"y": 0.6691439736,
				"z": 0.4085636207,
				"element": "C" 
			},
			{
				"x": -2.1544592861,
				"y": -0.8926536956,
				"z": -3.2504248992,
				"element": "H" 
			},
			{
				"x": -2.8313166766,
				"y": -1.7782033771,
				"z": -1.8767955452,
				"element": "H" 
			},
			{
				"x": -3.777409751,
				"y": -0.4900571893,
				"z": -2.6515853562,
				"element": "H" 
			},
			{
				"x": -3.1598394307,
				"y": 3.0709209834,
				"z": -0.0526723369,
				"element": "H" 
			},
			{
				"x": -0.907059693,
				"y": 2.9881337557,
				"z": 1.004481555,
				"element": "H" 
			},
			{
				"x": -0.0773770762,
				"y": -1.6870471744,
				"z": -1.5987893303,
				"element": "H" 
			},
			{
				"x": 2.5205576799,
				"y": -2.1981170441,
				"z": -0.6471901349,
				"element": "H" 
			},
			{
				"x": 4.2648635091,
				"y": -1.235277556,
				"z": 0.8332857385,
				"element": "H" 
			},
			{
				"x": 3.8899590037,
				"y": 0.9000491517,
				"z": 2.0243044668,
				"element": "H" 
			},
			{
				"x": 1.7508595886,
				"y": 2.1339305214,
				"z": 1.7645952044,
				"element": "H" 
			}
		],
		 "valence_orbital": [ 
			{
				"type": "occ",
				"energy": -0.2928,
				"method": "rhf"
			},
			{
				"type": "occ",
				"energy": -0.25305,
				"method": "rhf"
			},
			{
				"type": "occ",
				"energy": -0.24513,
				"method": "rhf"
			},
			{
				"type": "occ",
				"energy": -0.22798,
				"method": "rhf"
			},
			{
				"type": "occ",
				"energy": -0.20706,
				"method": "rhf"
			},
			{
				"type": "unocc",
				"energy": -0.03646,
				"method": "rhf"
			},
			{
				"type": "unocc",
				"energy": 0.00091,
				"method": "rhf"
			},
			{
				"type": "unocc",
				"energy": 0.02405,
				"method": "rhf"
			},
			{
				"type": "unocc",
				"energy": 0.03691,
				"method": "rhf"
			},
			{
				"type": "unocc",
				"energy": 0.07099,
				"method": "rhf"
			}
		],
		"cosmo_sigma_profile": { 
			"-0.025": 0.0,
			"-0.024": 0.0,
			"-0.023": 0.0,
			"-0.022": 0.0,
			"-0.021": 0.0,
			"-0.02": 0.0,
			"-0.019": 0.0,
			"-0.018": 0.0,
			"-0.017": 0.0,
			"-0.016": 0.142078226824,
			"-0.015": 0.871003185132,
			"-0.014": 1.45457989418,
			"-0.013": 0.855818811366,
			"-0.012": 1.23551674736,
			"-0.011": 1.21918415829,
			"-0.01": 1.6526716993,
			"-0.009": 1.80958687168,
			"-0.008": 1.88101338882,
			"-0.007": 2.44407904942,
			"-0.006": 9.5698596007,
			"-0.005": 16.6781611562,
			"-0.004": 17.9366646664,
			"-0.003": 16.3018292045,
			"-0.002": 14.3349400524,
			"-0.001": 13.6311766222,
			"0.0": 14.0845811556,
			"0.001": 12.0675712935,
			"0.002": 17.7292021024,
			"0.003": 20.332369354,
			"0.004": 19.685514561,
			"0.005": 14.6875369074,
			"0.006": 8.17168360063,
			"0.007": 1.97957630272,
			"0.008": 1.72605231653,
			"0.009": 1.19261253849,
			"0.01": 1.23980005489,
			"0.011": 1.28346706599,
			"0.012": 0.800352616049,
			"0.013": 0.440101561947,
			"0.014": 1.5335123087,
			"0.015": 0.716379630715,
			"0.016": 0.577695122622,
			"0.017": 0.598028334962,
			"0.018": 0.0,
			"0.019": 0.0,
			"0.02": 0.0,
			"0.021": 0.0,
			"0.022": 0.0,
			"0.023": 0.0,
			"0.024": 0.0,
			"0.025": 0.0
		}
	}
}
