{
	 "smiles": "CCN1CCCC1CNC(=O)C1=CC(=CC=C1OC)S(=O)(=O)CC", 
	 "Tm": 455.15, 
	 "num_atms": 50, 
	 "gaussian": { 
		 "optdone": 1, 
		 "sigma_profile": "yes", 
		 "theory": "DFT", 
		 "functional": "B3LYP", 
		 "basiset": "6-31G**", 
		 "properties": { 
			 "R2extent": 13451.2401, 
			 "electric_dipole_moment_norm": 9.24663316781, 
			 "electric_quadrupole_moment_norm": 32.9863027705, 
			 "total_energy": -1472.01611539, 
			 "HOMO_LUMO_gap": 0.17679, 
			 "cosmo_polarized_energy": -23.69, 
			 "cosmo_cavitation_energy": 51.9, 
			 "cosmo_dispersion_energy": -34.87, 
			 "cosmo_repulsion_energy": 2.62, 
			 "cosmo_total_nonelectrostatic_energy": 19.65, 
			 "SMD_solvation_energy": 6.89 
		},
		"coords": [
			{
				"x": 1.2555436997,
				"y": -0.0799949096,
				"z": -2.9089104713,
				"element": "C" 
			},
			{
				"x": 2.1958864038,
				"y": 1.0286210018,
				"z": -3.3823005933,
				"element": "C" 
			},
			{
				"x": 2.2324881735,
				"y": 2.1758483259,
				"z": -2.4583689351,
				"element": "N" 
			},
			{
				"x": 3.3681890863,
				"y": 3.0811432198,
				"z": -2.714080499,
				"element": "C" 
			},
			{
				"x": 2.8965392801,
				"y": 4.0557223356,
				"z": -3.8094252919,
				"element": "C" 
			},
			{
				"x": 1.4112681936,
				"y": 4.2716388165,
				"z": -3.4469528506,
				"element": "C" 
			},
			{
				"x": 1.0302009235,
				"y": 3.0458633132,
				"z": -2.5523157163,
				"element": "C" 
			},
			{
				"x": 0.5839153115,
				"y": 3.4954363033,
				"z": -1.151653283,
				"element": "C" 
			},
			{
				"x": 0.3379297316,
				"y": 2.3699561993,
				"z": -0.2722485865,
				"element": "N" 
			},
			{
				"x": -0.8612256509,
				"y": 2.1604751061,
				"z": 0.3293817413,
				"element": "C" 
			},
			{
				"x": -1.820532644,
				"y": 2.9202954791,
				"z": 0.1866258356,
				"element": "O" 
			},
			{
				"x": -1.0082010874,
				"y": 0.9359655468,
				"z": 1.2176324999,
				"element": "C" 
			},
			{
				"x": -2.2620070313,
				"y": 0.806163715,
				"z": 1.8208024274,
				"element": "C" 
			},
			{
				"x": -2.5550936365,
				"y": -0.2667691784,
				"z": 2.6589225832,
				"element": "C" 
			},
			{
				"x": -1.5909429327,
				"y": -1.2337435672,
				"z": 2.9358612647,
				"element": "C" 
			},
			{
				"x": -0.3287288138,
				"y": -1.1204084837,
				"z": 2.3604136502,
				"element": "C" 
			},
			{
				"x": -0.0300229955,
				"y": -0.0501134168,
				"z": 1.504223793,
				"element": "C" 
			},
			{
				"x": 1.19654276,
				"y": 0.0851784458,
				"z": 0.9210589679,
				"element": "O" 
			},
			{
				"x": 2.2381768782,
				"y": -0.8315926249,
				"z": 1.2460615476,
				"element": "C" 
			},
			{
				"x": -4.1751728933,
				"y": -0.3937979546,
				"z": 3.4281035189,
				"element": "S" 
			},
			{
				"x": -4.6160519075,
				"y": 0.9576912097,
				"z": 3.8070827962,
				"element": "O" 
			},
			{
				"x": -4.0992944026,
				"y": -1.4771779259,
				"z": 4.4263496491,
				"element": "O" 
			},
			{
				"x": -5.2760502057,
				"y": -0.9484524648,
				"z": 2.0854233586,
				"element": "C" 
			},
			{
				"x": -4.9873959116,
				"y": -2.3648738723,
				"z": 1.6023811731,
				"element": "C" 
			},
			{
				"x": 0.2142962382,
				"y": 0.2540570868,
				"z": -2.8683735964,
				"element": "H" 
			},
			{
				"x": 1.302531919,
				"y": -0.9335871573,
				"z": -3.5935755809,
				"element": "H" 
			},
			{
				"x": 1.5329270838,
				"y": -0.4175139187,
				"z": -1.9061269402,
				"element": "H" 
			},
			{
				"x": 3.2135220051,
				"y": 0.6253519067,
				"z": -3.4365366371,
				"element": "H" 
			},
			{
				"x": 1.9225239757,
				"y": 1.3224262041,
				"z": -4.4125372626,
				"element": "H" 
			},
			{
				"x": 3.5950492491,
				"y": 3.6365527261,
				"z": -1.7942998185,
				"element": "H" 
			},
			{
				"x": 4.2638622101,
				"y": 2.5114626272,
				"z": -2.9775171302,
				"element": "H" 
			},
			{
				"x": 2.992915257,
				"y": 3.590112958,
				"z": -4.79632368,
				"element": "H" 
			},
			{
				"x": 3.4713690106,
				"y": 4.986554026,
				"z": -3.8298049676,
				"element": "H" 
			},
			{
				"x": 0.7732806404,
				"y": 4.3434873082,
				"z": -4.3317081757,
				"element": "H" 
			},
			{
				"x": 1.2802113259,
				"y": 5.2035258685,
				"z": -2.8848499573,
				"element": "H" 
			},
			{
				"x": 0.2108575075,
				"y": 2.4715136803,
				"z": -2.9944972022,
				"element": "H" 
			},
			{
				"x": -0.3387065287,
				"y": 4.0763316691,
				"z": -1.2105524853,
				"element": "H" 
			},
			{
				"x": 1.35821641,
				"y": 4.1423757341,
				"z": -0.7147247267,
				"element": "H" 
			},
			{
				"x": 1.0778477917,
				"y": 1.6901248235,
				"z": -0.1681921423,
				"element": "H" 
			},
			{
				"x": -2.9873042106,
				"y": 1.5873516878,
				"z": 1.6192708873,
				"element": "H" 
			},
			{
				"x": -1.8273032494,
				"y": -2.0519350982,
				"z": 3.6074685596,
				"element": "H" 
			},
			{
				"x": 0.4204997631,
				"y": -1.8690884729,
				"z": 2.5843610313,
				"element": "H" 
			},
			{
				"x": 1.984045575,
				"y": -1.8515774662,
				"z": 0.9363409908,
				"element": "H" 
			},
			{
				"x": 2.4585657906,
				"y": -0.8168861418,
				"z": 2.3192510755,
				"element": "H" 
			},
			{
				"x": 3.1114710178,
				"y": -0.4914106377,
				"z": 0.6891631763,
				"element": "H" 
			},
			{
				"x": -5.1902445922,
				"y": -0.1995061892,
				"z": 1.2932093769,
				"element": "H" 
			},
			{
				"x": -6.272333742,
				"y": -0.8592010159,
				"z": 2.5301127066,
				"element": "H" 
			},
			{
				"x": -3.9905867043,
				"y": -2.4414312373,
				"z": 1.1582792791,
				"element": "H" 
			},
			{
				"x": -5.7181944281,
				"y": -2.6499183744,
				"z": 0.8394873436,
				"element": "H" 
			},
			{
				"x": -5.0540796446,
				"y": -3.0745472168,
				"z": 2.4302072964,
				"element": "H" 
			}
		],
		 "valence_orbital": [ 
			{
				"type": "occ",
				"energy": -0.26874,
				"method": "rhf"
			},
			{
				"type": "occ",
				"energy": -0.24903,
				"method": "rhf"
			},
			{
				"type": "occ",
				"energy": -0.24838,
				"method": "rhf"
			},
			{
				"type": "occ",
				"energy": -0.24294,
				"method": "rhf"
			},
			{
				"type": "occ",
				"energy": -0.22105,
				"method": "rhf"
			},
			{
				"type": "unocc",
				"energy": -0.04426,
				"method": "rhf"
			},
			{
				"type": "unocc",
				"energy": -0.02633,
				"method": "rhf"
			},
			{
				"type": "unocc",
				"energy": 0.05195,
				"method": "rhf"
			},
			{
				"type": "unocc",
				"energy": 0.06496,
				"method": "rhf"
			},
			{
				"type": "unocc",
				"energy": 0.0706,
				"method": "rhf"
			}
		],
		"cosmo_sigma_profile": { 
			"-0.025": 0.0,
			"-0.024": 0.0,
			"-0.023": 0.0,
			"-0.022": 0.0,
			"-0.021": 0.0,
			"-0.02": 0.0,
			"-0.019": 0.0,
			"-0.018": 0.0,
			"-0.017": 0.0,
			"-0.016": 0.0,
			"-0.015": 0.0,
			"-0.014": 0.0,
			"-0.013": 0.0,
			"-0.012": 0.0,
			"-0.011": 0.0,
			"-0.01": 0.0,
			"-0.009": 0.224612995425,
			"-0.008": 5.92496886815,
			"-0.007": 11.5223598383,
			"-0.006": 16.4653601067,
			"-0.005": 16.6621545791,
			"-0.004": 33.4711737123,
			"-0.003": 42.3540234686,
			"-0.002": 51.0970504735,
			"-0.001": 49.4614471359,
			"0.0": 42.9214117129,
			"0.001": 40.1059378577,
			"0.002": 22.8892910499,
			"0.003": 7.47712327456,
			"0.004": 6.2255847433,
			"0.005": 5.0783200262,
			"0.006": 5.03766343426,
			"0.007": 4.13925029291,
			"0.008": 5.03326084018,
			"0.009": 5.72624052847,
			"0.01": 6.28669018571,
			"0.011": 8.84446756531,
			"0.012": 10.6617303229,
			"0.013": 4.81225709954,
			"0.014": 4.422581605,
			"0.015": 0.151237853154,
			"0.016": 0.0,
			"0.017": 0.0,
			"0.018": 0.0,
			"0.019": 0.0,
			"0.02": 0.0,
			"0.021": 0.0,
			"0.022": 0.0,
			"0.023": 0.0,
			"0.024": 0.0,
			"0.025": 0.0
		}
	}
}
