{
	 "smiles": "S1C2=CC=CC=C2C2=C1C=CC=C2", 
	 "Tm": 371.15, 
	 "num_atms": 21, 
	 "gaussian": { 
		 "optdone": 1, 
		 "sigma_profile": "yes", 
		 "theory": "DFT", 
		 "functional": "B3LYP", 
		 "basiset": "6-31G**", 
		 "properties": { 
			 "R2extent": 2584.3818, 
			 "electric_dipole_moment_norm": 0.880849459329, 
			 "electric_quadrupole_moment_norm": 10.1819399095, 
			 "total_energy": -860.306855375, 
			 "HOMO_LUMO_gap": 0.1787, 
			 "cosmo_polarized_energy": -5.61, 
			 "cosmo_cavitation_energy": 26.05, 
			 "cosmo_dispersion_energy": -20.12, 
			 "cosmo_repulsion_energy": 1.49, 
			 "cosmo_total_nonelectrostatic_energy": 7.42, 
			 "SMD_solvation_energy": 3.51 
		},
		"coords": [
			{
				"x": -1.4221166119,
				"y": 1.3235735773,
				"z": -1.3692598439,
				"element": "S" 
			},
			{
				"x": -0.257302524,
				"y": 0.0572467685,
				"z": -1.7707083622,
				"element": "C" 
			},
			{
				"x": 0.0271129906,
				"y": -0.4236064558,
				"z": -3.0508582901,
				"element": "C" 
			},
			{
				"x": 0.9790691055,
				"y": -1.4307396605,
				"z": -3.1877495578,
				"element": "C" 
			},
			{
				"x": 1.6385409653,
				"y": -1.9513548919,
				"z": -2.0630182909,
				"element": "C" 
			},
			{
				"x": 1.3521356933,
				"y": -1.4695447504,
				"z": -0.7906143341,
				"element": "C" 
			},
			{
				"x": 0.3967340075,
				"y": -0.4548525316,
				"z": -0.6263134111,
				"element": "C" 
			},
			{
				"x": -0.054111018,
				"y": 0.1904551332,
				"z": 0.5973537165,
				"element": "C" 
			},
			{
				"x": -1.0382642872,
				"y": 1.1750237886,
				"z": 0.3489190084,
				"element": "C" 
			},
			{
				"x": -1.6078317765,
				"y": 1.9164434546,
				"z": 1.3866031881,
				"element": "C" 
			},
			{
				"x": -1.1868136655,
				"y": 1.6692687512,
				"z": 2.6908008304,
				"element": "C" 
			},
			{
				"x": -0.2108350932,
				"y": 0.6957230426,
				"z": 2.9565682785,
				"element": "C" 
			},
			{
				"x": 0.3533310532,
				"y": -0.0399003705,
				"z": 1.9203491522,
				"element": "C" 
			},
			{
				"x": -0.4824607523,
				"y": -0.0215124657,
				"z": -3.9211739192,
				"element": "H" 
			},
			{
				"x": 1.2122837885,
				"y": -1.8160724157,
				"z": -4.1758783736,
				"element": "H" 
			},
			{
				"x": 2.3779263627,
				"y": -2.7364856037,
				"z": -2.1891094529,
				"element": "H" 
			},
			{
				"x": 1.8659992365,
				"y": -1.8766478407,
				"z": 0.0756131262,
				"element": "H" 
			},
			{
				"x": -2.3626594514,
				"y": 2.6695206056,
				"z": 1.181897642,
				"element": "H" 
			},
			{
				"x": -1.6193216305,
				"y": 2.2367200269,
				"z": 3.5094624101,
				"element": "H" 
			},
			{
				"x": 0.1050859366,
				"y": 0.5167405507,
				"z": 3.9798866601,
				"element": "H" 
			},
			{
				"x": 1.1080976708,
				"y": -0.7917987127,
				"z": 2.1327298233,
				"element": "H" 
			}
		],
		 "valence_orbital": [ 
			{
				"type": "occ",
				"energy": -0.31262,
				"method": "rhf"
			},
			{
				"type": "occ",
				"energy": -0.28556,
				"method": "rhf"
			},
			{
				"type": "occ",
				"energy": -0.25936,
				"method": "rhf"
			},
			{
				"type": "occ",
				"energy": -0.22337,
				"method": "rhf"
			},
			{
				"type": "occ",
				"energy": -0.21412,
				"method": "rhf"
			},
			{
				"type": "unocc",
				"energy": -0.03542,
				"method": "rhf"
			},
			{
				"type": "unocc",
				"energy": -0.00388,
				"method": "rhf"
			},
			{
				"type": "unocc",
				"energy": -0.00263,
				"method": "rhf"
			},
			{
				"type": "unocc",
				"energy": 0.01715,
				"method": "rhf"
			},
			{
				"type": "unocc",
				"energy": 0.03577,
				"method": "rhf"
			}
		],
		"cosmo_sigma_profile": { 
			"-0.025": 0.0,
			"-0.024": 0.0,
			"-0.023": 0.0,
			"-0.022": 0.0,
			"-0.021": 0.0,
			"-0.02": 0.0,
			"-0.019": 0.0,
			"-0.018": 0.0,
			"-0.017": 0.0,
			"-0.016": 0.0,
			"-0.015": 0.0,
			"-0.014": 0.0,
			"-0.013": 0.0,
			"-0.012": 0.0,
			"-0.011": 0.0,
			"-0.01": 0.0,
			"-0.009": 0.0,
			"-0.008": 0.11798335698,
			"-0.007": 5.759916139,
			"-0.006": 15.2455418376,
			"-0.005": 17.0194986676,
			"-0.004": 17.5859404491,
			"-0.003": 13.7038183945,
			"-0.002": 11.6934774728,
			"-0.001": 11.2957539005,
			"0.0": 10.7763131251,
			"0.001": 14.0540662469,
			"0.002": 19.9156951307,
			"0.003": 24.0417122075,
			"0.004": 25.3411359025,
			"0.005": 21.1959780623,
			"0.006": 4.54052842993,
			"0.007": 0.069458636033,
			"0.008": 0.0,
			"0.009": 0.0,
			"0.01": 0.0,
			"0.011": 0.0,
			"0.012": 0.0,
			"0.013": 0.0,
			"0.014": 0.0,
			"0.015": 0.0,
			"0.016": 0.0,
			"0.017": 0.0,
			"0.018": 0.0,
			"0.019": 0.0,
			"0.02": 0.0,
			"0.021": 0.0,
			"0.022": 0.0,
			"0.023": 0.0,
			"0.024": 0.0,
			"0.025": 0.0
		}
	}
}
