{
	 "smiles": "OC1=CC=CC(NC2=CC=CC=C2)=C1", 
	 "Tm": 353.95, 
	 "num_atms": 25, 
	 "gaussian": { 
		 "optdone": 1, 
		 "sigma_profile": "yes", 
		 "theory": "DFT", 
		 "functional": "B3LYP", 
		 "basiset": "6-31G**", 
		 "properties": { 
			 "R2extent": 4301.1843, 
			 "electric_dipole_moment_norm": 2.02782934933, 
			 "electric_quadrupole_moment_norm": 10.9337679041, 
			 "total_energy": -593.879449458, 
			 "HOMO_LUMO_gap": 0.18173, 
			 "cosmo_polarized_energy": -12.56, 
			 "cosmo_cavitation_energy": 28.82, 
			 "cosmo_dispersion_energy": -21.43, 
			 "cosmo_repulsion_energy": 1.67, 
			 "cosmo_total_nonelectrostatic_energy": 9.06, 
			 "SMD_solvation_energy": 5.0 
		},
		"coords": [
			{
				"x": 1.9833691876,
				"y": 0.6723091848,
				"z": 4.523691474,
				"element": "O" 
			},
			{
				"x": 0.8417368857,
				"y": 0.4044771391,
				"z": 3.8210843988,
				"element": "C" 
			},
			{
				"x": -0.2473989373,
				"y": -0.1080446175,
				"z": 4.5353421314,
				"element": "C" 
			},
			{
				"x": -1.4234311052,
				"y": -0.3870170519,
				"z": 3.8450317436,
				"element": "C" 
			},
			{
				"x": -1.541269561,
				"y": -0.1697692361,
				"z": 2.4716083563,
				"element": "C" 
			},
			{
				"x": -0.4414978106,
				"y": 0.3301733747,
				"z": 1.7544392169,
				"element": "C" 
			},
			{
				"x": -0.4860744555,
				"y": 0.6092818141,
				"z": 0.3845646465,
				"element": "N" 
			},
			{
				"x": -1.3313141494,
				"y": 0.0936538814,
				"z": -0.6043027482,
				"element": "C" 
			},
			{
				"x": -1.9335852858,
				"y": -1.1737407793,
				"z": -0.5113208102,
				"element": "C" 
			},
			{
				"x": -2.7349590206,
				"y": -1.6448794977,
				"z": -1.5502594326,
				"element": "C" 
			},
			{
				"x": -2.9407604596,
				"y": -0.8856873817,
				"z": -2.7034900524,
				"element": "C" 
			},
			{
				"x": -2.3273203471,
				"y": 0.3647800232,
				"z": -2.8071508709,
				"element": "C" 
			},
			{
				"x": -1.5385509501,
				"y": 0.8541647425,
				"z": -1.769884764,
				"element": "C" 
			},
			{
				"x": 0.75134268,
				"y": 0.6139778582,
				"z": 2.4446685357,
				"element": "C" 
			},
			{
				"x": 2.6560120555,
				"y": 1.0112377092,
				"z": 3.9191514351,
				"element": "H" 
			},
			{
				"x": -0.1537510514,
				"y": -0.2716514436,
				"z": 5.6028919967,
				"element": "H" 
			},
			{
				"x": -2.2808312238,
				"y": -0.7705103248,
				"z": 4.3911718892,
				"element": "H" 
			},
			{
				"x": -2.4820409766,
				"y": -0.3548344988,
				"z": 1.9688487891,
				"element": "H" 
			},
			{
				"x": 0.1616815812,
				"y": 1.3146938388,
				"z": 0.0679657764,
				"element": "H" 
			},
			{
				"x": -1.7555041134,
				"y": -1.7935955775,
				"z": 0.3593946973,
				"element": "H" 
			},
			{
				"x": -3.1907496485,
				"y": -2.6270469677,
				"z": -1.4586156933,
				"element": "H" 
			},
			{
				"x": -3.5641343113,
				"y": -1.2626054606,
				"z": -3.5081862115,
				"element": "H" 
			},
			{
				"x": -2.4705199915,
				"y": 0.9710846165,
				"z": -3.697324616,
				"element": "H" 
			},
			{
				"x": -1.079841957,
				"y": 1.8369928433,
				"z": -1.8516265054,
				"element": "H" 
			},
			{
				"x": 1.6133929658,
				"y": 0.9871558114,
				"z": 1.8937066175,
				"element": "H" 
			}
		],
		 "valence_orbital": [ 
			{
				"type": "occ",
				"energy": -0.30308,
				"method": "rhf"
			},
			{
				"type": "occ",
				"energy": -0.25032,
				"method": "rhf"
			},
			{
				"type": "occ",
				"energy": -0.24794,
				"method": "rhf"
			},
			{
				"type": "occ",
				"energy": -0.22327,
				"method": "rhf"
			},
			{
				"type": "occ",
				"energy": -0.1874,
				"method": "rhf"
			},
			{
				"type": "unocc",
				"energy": -0.00567,
				"method": "rhf"
			},
			{
				"type": "unocc",
				"energy": 0.00073,
				"method": "rhf"
			},
			{
				"type": "unocc",
				"energy": 0.01054,
				"method": "rhf"
			},
			{
				"type": "unocc",
				"energy": 0.03643,
				"method": "rhf"
			},
			{
				"type": "unocc",
				"energy": 0.07053,
				"method": "rhf"
			}
		],
		"cosmo_sigma_profile": { 
			"-0.025": 0.0,
			"-0.024": 0.0,
			"-0.023": 0.0,
			"-0.022": 0.0,
			"-0.021": 0.0,
			"-0.02": 0.0,
			"-0.019": 0.0,
			"-0.018": 0.133890871998,
			"-0.017": 1.05256769145,
			"-0.016": 1.26289504364,
			"-0.015": 1.00736491316,
			"-0.014": 1.08701368597,
			"-0.013": 2.70917447694,
			"-0.012": 1.53552706263,
			"-0.011": 2.6214911411,
			"-0.01": 2.91956713785,
			"-0.009": 2.28008961607,
			"-0.008": 2.69361062128,
			"-0.007": 3.68914974904,
			"-0.006": 6.05852456055,
			"-0.005": 14.0910623255,
			"-0.004": 15.8594279955,
			"-0.003": 18.0205186758,
			"-0.002": 14.2147252293,
			"-0.001": 13.1190922431,
			"0.0": 11.7640104603,
			"0.001": 10.7256937308,
			"0.002": 13.4002542382,
			"0.003": 14.5095265586,
			"0.004": 19.8089781278,
			"0.005": 21.2453112948,
			"0.006": 18.481575941,
			"0.007": 8.36627802023,
			"0.008": 1.29439013466,
			"0.009": 1.50725922669,
			"0.01": 1.5070390474,
			"0.011": 2.12564347334,
			"0.012": 1.08870006532,
			"0.013": 0.0,
			"0.014": 0.0,
			"0.015": 0.0,
			"0.016": 0.0,
			"0.017": 0.0,
			"0.018": 0.0,
			"0.019": 0.0,
			"0.02": 0.0,
			"0.021": 0.0,
			"0.022": 0.0,
			"0.023": 0.0,
			"0.024": 0.0,
			"0.025": 0.0
		}
	}
}
