{
	 "smiles": "CC(=O)NS(Cl)(=O)=O", 
	 "Tm": 366.15, 
	 "num_atms": 12, 
	 "gaussian": { 
		 "optdone": 1, 
		 "sigma_profile": "yes", 
		 "theory": "DFT", 
		 "functional": "B3LYP", 
		 "basiset": "6-31G**", 
		 "properties": { 
			 "R2extent": 1810.4303, 
			 "electric_dipole_moment_norm": 1.43615341103, 
			 "electric_quadrupole_moment_norm": 10.2688154692, 
			 "total_energy": -1217.3579056, 
			 "HOMO_LUMO_gap": 0.19939, 
			 "cosmo_polarized_energy": -10.43, 
			 "cosmo_cavitation_energy": 19.92, 
			 "cosmo_dispersion_energy": -15.31, 
			 "cosmo_repulsion_energy": 1.23, 
			 "cosmo_total_nonelectrostatic_energy": 5.84, 
			 "SMD_solvation_energy": 3.35 
		},
		"coords": [
			{
				"x": -2.4887561091,
				"y": 1.0644738595,
				"z": -0.3514690691,
				"element": "C" 
			},
			{
				"x": -1.1057466794,
				"y": 1.5852060942,
				"z": -0.6321879641,
				"element": "C" 
			},
			{
				"x": -0.6762935203,
				"y": 2.6579957983,
				"z": -0.2742245285,
				"element": "O" 
			},
			{
				"x": -0.2244301544,
				"y": 0.7700240977,
				"z": -1.404432056,
				"element": "N" 
			},
			{
				"x": -0.3577383063,
				"y": -0.8135294793,
				"z": -1.9141707075,
				"element": "S" 
			},
			{
				"x": -0.0227886703,
				"y": -1.917640322,
				"z": -0.1412964039,
				"element": "Cl" 
			},
			{
				"x": -1.7299135672,
				"y": -1.0866505978,
				"z": -2.294274909,
				"element": "O" 
			},
			{
				"x": 0.7832913699,
				"y": -1.0569676324,
				"z": -2.7746960525,
				"element": "O" 
			},
			{
				"x": -2.4484444903,
				"y": 0.1194201302,
				"z": 0.1988052831,
				"element": "H" 
			},
			{
				"x": -3.0098845367,
				"y": 1.814708003,
				"z": 0.2419214045,
				"element": "H" 
			},
			{
				"x": -3.027390852,
				"y": 0.8727424161,
				"z": -1.2825714819,
				"element": "H" 
			},
			{
				"x": 0.722995516,
				"y": 1.1348176324,
				"z": -1.4726035152,
				"element": "H" 
			}
		],
		 "valence_orbital": [ 
			{
				"type": "occ",
				"energy": -0.3669,
				"method": "rhf"
			},
			{
				"type": "occ",
				"energy": -0.36261,
				"method": "rhf"
			},
			{
				"type": "occ",
				"energy": -0.3359,
				"method": "rhf"
			},
			{
				"type": "occ",
				"energy": -0.32458,
				"method": "rhf"
			},
			{
				"type": "occ",
				"energy": -0.30074,
				"method": "rhf"
			},
			{
				"type": "unocc",
				"energy": -0.10135,
				"method": "rhf"
			},
			{
				"type": "unocc",
				"energy": -0.02894,
				"method": "rhf"
			},
			{
				"type": "unocc",
				"energy": 0.03946,
				"method": "rhf"
			},
			{
				"type": "unocc",
				"energy": 0.04978,
				"method": "rhf"
			},
			{
				"type": "unocc",
				"energy": 0.05432,
				"method": "rhf"
			}
		],
		"cosmo_sigma_profile": { 
			"-0.025": 0.0,
			"-0.024": 0.0,
			"-0.023": 0.0,
			"-0.022": 0.0,
			"-0.021": 0.0,
			"-0.02": 0.0,
			"-0.019": 0.0206856278068,
			"-0.018": 0.627384243304,
			"-0.017": 0.988542498069,
			"-0.016": 0.734472329686,
			"-0.015": 1.40398868608,
			"-0.014": 0.624836382915,
			"-0.013": 0.701105788959,
			"-0.012": 1.21013549916,
			"-0.011": 0.974168410402,
			"-0.01": 0.624282978884,
			"-0.009": 1.12555586432,
			"-0.008": 0.941462676103,
			"-0.007": 4.53903361188,
			"-0.006": 9.0769076908,
			"-0.005": 10.6529717316,
			"-0.004": 11.2942805655,
			"-0.003": 11.7375315679,
			"-0.002": 11.8334360821,
			"-0.001": 8.46634004138,
			"0.0": 7.52298233365,
			"0.001": 10.3088262831,
			"0.002": 12.4328189224,
			"0.003": 10.6798435588,
			"0.004": 4.26473150407,
			"0.005": 4.43182258176,
			"0.006": 5.80910041719,
			"0.007": 11.6510241316,
			"0.008": 6.08067905142,
			"0.009": 2.79812792935,
			"0.01": 4.8299052854,
			"0.011": 2.72208313662,
			"0.012": 0.310049643673,
			"0.013": 0.0,
			"0.014": 0.0,
			"0.015": 0.0,
			"0.016": 0.0,
			"0.017": 0.0,
			"0.018": 0.0,
			"0.019": 0.0,
			"0.02": 0.0,
			"0.021": 0.0,
			"0.022": 0.0,
			"0.023": 0.0,
			"0.024": 0.0,
			"0.025": 0.0
		}
	}
}
