{
	 "smiles": "CN1C(S)=NC2=C(C=C(C)C=C2)C1=O", 
	 "Tm": 549.15, 
	 "num_atms": 24, 
	 "gaussian": { 
		 "optdone": 1, 
		 "sigma_profile": "yes", 
		 "theory": "DFT", 
		 "functional": "B3LYP", 
		 "basiset": "6-31G**", 
		 "properties": { 
			 "R2extent": 3693.5333, 
			 "electric_dipole_moment_norm": 1.47139261246, 
			 "electric_quadrupole_moment_norm": 10.3168576955, 
			 "total_energy": -970.038346215, 
			 "HOMO_LUMO_gap": 0.17656, 
			 "cosmo_polarized_energy": -9.69, 
			 "cosmo_cavitation_energy": 29.08, 
			 "cosmo_dispersion_energy": -22.2, 
			 "cosmo_repulsion_energy": 1.67, 
			 "cosmo_total_nonelectrostatic_energy": 8.56, 
			 "SMD_solvation_energy": 3.84 
		},
		"coords": [
			{
				"x": -2.0252251145,
				"y": 1.7180879899,
				"z": 1.2187325198,
				"element": "C" 
			},
			{
				"x": -1.4305909423,
				"y": 0.6045241432,
				"z": 0.4729097546,
				"element": "N" 
			},
			{
				"x": -2.11198983,
				"y": -0.5797386252,
				"z": 0.2715086867,
				"element": "C" 
			},
			{
				"x": -3.7551416168,
				"y": -0.6577644754,
				"z": 0.9786342259,
				"element": "S" 
			},
			{
				"x": -1.6644435284,
				"y": -1.6072963958,
				"z": -0.3714419628,
				"element": "N" 
			},
			{
				"x": -0.3910442314,
				"y": -1.5215769979,
				"z": -0.9083170027,
				"element": "C" 
			},
			{
				"x": 0.4058602738,
				"y": -0.3666656453,
				"z": -0.7710704785,
				"element": "C" 
			},
			{
				"x": 1.6943261515,
				"y": -0.3165608277,
				"z": -1.3297744936,
				"element": "C" 
			},
			{
				"x": 2.2120381345,
				"y": -1.3997627897,
				"z": -2.0282860037,
				"element": "C" 
			},
			{
				"x": 3.5943503543,
				"y": -1.3624088835,
				"z": -2.63447214,
				"element": "C" 
			},
			{
				"x": 1.4046577364,
				"y": -2.5537299043,
				"z": -2.1605383376,
				"element": "C" 
			},
			{
				"x": 0.1340031144,
				"y": -2.6210851674,
				"z": -1.6172046717,
				"element": "C" 
			},
			{
				"x": -0.1166165605,
				"y": 0.7875486947,
				"z": -0.0400224267,
				"element": "C" 
			},
			{
				"x": 0.4829220353,
				"y": 1.8397819424,
				"z": 0.1419535101,
				"element": "O" 
			},
			{
				"x": -1.2887351752,
				"y": 2.5193562897,
				"z": 1.2275574262,
				"element": "H" 
			},
			{
				"x": -2.9397991235,
				"y": 2.0631242848,
				"z": 0.7283936232,
				"element": "H" 
			},
			{
				"x": -2.2524229802,
				"y": 1.4149153069,
				"z": 2.2446288531,
				"element": "H" 
			},
			{
				"x": -3.9484838958,
				"y": -1.9102975311,
				"z": 0.5277176473,
				"element": "H" 
			},
			{
				"x": 2.2703825296,
				"y": 0.594090043,
				"z": -1.1979432586,
				"element": "H" 
			},
			{
				"x": 4.232038878,
				"y": -2.1533123492,
				"z": -2.2224175183,
				"element": "H" 
			},
			{
				"x": 4.0855617111,
				"y": -0.4044293457,
				"z": -2.4457843657,
				"element": "H" 
			},
			{
				"x": 3.5581315082,
				"y": -1.512894259,
				"z": -3.7198176472,
				"element": "H" 
			},
			{
				"x": 1.7955905945,
				"y": -3.4104957665,
				"z": -2.7047326525,
				"element": "H" 
			},
			{
				"x": -0.482070023,
				"y": -3.5082097309,
				"z": -1.7209132872,
				"element": "H" 
			}
		],
		 "valence_orbital": [ 
			{
				"type": "occ",
				"energy": -0.27758,
				"method": "rhf"
			},
			{
				"type": "occ",
				"energy": -0.2775,
				"method": "rhf"
			},
			{
				"type": "occ",
				"energy": -0.26695,
				"method": "rhf"
			},
			{
				"type": "occ",
				"energy": -0.2589,
				"method": "rhf"
			},
			{
				"type": "occ",
				"energy": -0.21847,
				"method": "rhf"
			},
			{
				"type": "unocc",
				"energy": -0.04191,
				"method": "rhf"
			},
			{
				"type": "unocc",
				"energy": -0.03141,
				"method": "rhf"
			},
			{
				"type": "unocc",
				"energy": 0.00305,
				"method": "rhf"
			},
			{
				"type": "unocc",
				"energy": 0.02931,
				"method": "rhf"
			},
			{
				"type": "unocc",
				"energy": 0.06284,
				"method": "rhf"
			}
		],
		"cosmo_sigma_profile": { 
			"-0.025": 0.0,
			"-0.024": 0.0,
			"-0.023": 0.0,
			"-0.022": 0.0,
			"-0.021": 0.0,
			"-0.02": 0.0,
			"-0.019": 0.0,
			"-0.018": 0.0,
			"-0.017": 0.0,
			"-0.016": 0.0,
			"-0.015": 0.0,
			"-0.014": 0.0,
			"-0.013": 0.0,
			"-0.012": 0.542754563919,
			"-0.011": 1.3714317146,
			"-0.01": 1.25161202359,
			"-0.009": 1.11616752319,
			"-0.008": 1.24851603311,
			"-0.007": 2.28016456471,
			"-0.006": 9.74961405212,
			"-0.005": 15.3730939844,
			"-0.004": 24.0242436437,
			"-0.003": 26.055929539,
			"-0.002": 18.8469329578,
			"-0.001": 16.3815593066,
			"0.0": 18.4040383178,
			"0.001": 16.2911288416,
			"0.002": 17.8008088891,
			"0.003": 18.9254470819,
			"0.004": 12.9406897105,
			"0.005": 5.15919793643,
			"0.006": 6.35984911014,
			"0.007": 3.13917971845,
			"0.008": 2.48325160067,
			"0.009": 2.48405078192,
			"0.01": 2.37528841395,
			"0.011": 2.92576539031,
			"0.012": 4.76761529023,
			"0.013": 2.32628707539,
			"0.014": 0.0,
			"0.015": 0.0,
			"0.016": 0.0,
			"0.017": 0.0,
			"0.018": 0.0,
			"0.019": 0.0,
			"0.02": 0.0,
			"0.021": 0.0,
			"0.022": 0.0,
			"0.023": 0.0,
			"0.024": 0.0,
			"0.025": 0.0
		}
	}
}
