{
	 "smiles": "ClCC(=O)NCC1CC2=C(O1)C=CC=C2", 
	 "Tm": 368.15, 
	 "num_atms": 27, 
	 "gaussian": { 
		 "optdone": 1, 
		 "sigma_profile": "yes", 
		 "theory": "DFT", 
		 "functional": "B3LYP", 
		 "basiset": "6-31G**", 
		 "properties": { 
			 "R2extent": 5859.6476, 
			 "electric_dipole_moment_norm": 6.35028714154, 
			 "electric_quadrupole_moment_norm": 19.411397732, 
			 "total_energy": -1091.79915829, 
			 "HOMO_LUMO_gap": 0.2103, 
			 "cosmo_polarized_energy": -18.52, 
			 "cosmo_cavitation_energy": 32.44, 
			 "cosmo_dispersion_energy": -23.83, 
			 "cosmo_repulsion_energy": 1.9, 
			 "cosmo_total_nonelectrostatic_energy": 10.51, 
			 "SMD_solvation_energy": 4.89 
		},
		"coords": [
			{
				"x": 3.5915851243,
				"y": 2.6065283222,
				"z": -2.899124435,
				"element": "Cl" 
			},
			{
				"x": 2.2485154263,
				"y": 1.9883829281,
				"z": -1.8939893207,
				"element": "C" 
			},
			{
				"x": 2.4638961809,
				"y": 0.5303425365,
				"z": -1.4535983461,
				"element": "C" 
			},
			{
				"x": 3.4440285259,
				"y": -0.1240365832,
				"z": -1.7563154029,
				"element": "O" 
			},
			{
				"x": 1.4399159187,
				"y": 0.0067654991,
				"z": -0.70415896,
				"element": "N" 
			},
			{
				"x": 0.3209178488,
				"y": 0.6994126813,
				"z": -0.0888656541,
				"element": "C" 
			},
			{
				"x": -0.8312126382,
				"y": -0.2773109045,
				"z": 0.1569588836,
				"element": "C" 
			},
			{
				"x": -1.9835374856,
				"y": 0.3475755198,
				"z": 0.9870659773,
				"element": "C" 
			},
			{
				"x": -1.7832969785,
				"y": -0.2986686802,
				"z": 2.3390851606,
				"element": "C" 
			},
			{
				"x": -0.8146346635,
				"y": -1.2947116135,
				"z": 2.2071628157,
				"element": "C" 
			},
			{
				"x": -0.3155258264,
				"y": -1.3966054025,
				"z": 0.9327782648,
				"element": "O" 
			},
			{
				"x": -0.4197193466,
				"y": -2.0988018041,
				"z": 3.2695148099,
				"element": "C" 
			},
			{
				"x": -1.0368264494,
				"y": -1.8740344682,
				"z": 4.5055124669,
				"element": "C" 
			},
			{
				"x": -2.0075553986,
				"y": -0.8799987618,
				"z": 4.6612370489,
				"element": "C" 
			},
			{
				"x": -2.3883994379,
				"y": -0.0849582822,
				"z": 3.5721378133,
				"element": "C" 
			},
			{
				"x": 1.3311343177,
				"y": 2.0777112851,
				"z": -2.4811836029,
				"element": "H" 
			},
			{
				"x": 2.1617591241,
				"y": 2.6418067641,
				"z": -1.0222121322,
				"element": "H" 
			},
			{
				"x": 1.6392018714,
				"y": -0.9148180673,
				"z": -0.3323174164,
				"element": "H" 
			},
			{
				"x": 0.6005057264,
				"y": 1.1636449547,
				"z": 0.8703099136,
				"element": "H" 
			},
			{
				"x": -0.0411170526,
				"y": 1.4952925353,
				"z": -0.7473765417,
				"element": "H" 
			},
			{
				"x": -1.166636185,
				"y": -0.6930696437,
				"z": -0.7971149907,
				"element": "H" 
			},
			{
				"x": -1.9103773282,
				"y": 1.4410109723,
				"z": 1.0176676756,
				"element": "H" 
			},
			{
				"x": -2.9621394425,
				"y": 0.1007530971,
				"z": 0.5594017214,
				"element": "H" 
			},
			{
				"x": 0.3367359185,
				"y": -2.8646044973,
				"z": 3.1372387691,
				"element": "H" 
			},
			{
				"x": -0.7508798983,
				"y": -2.4835596426,
				"z": 5.3577460484,
				"element": "H" 
			},
			{
				"x": -2.4692230576,
				"y": -0.7231113341,
				"z": 5.6310358323,
				"element": "H" 
			},
			{
				"x": -3.1456147939,
				"y": 0.6851625896,
				"z": 3.6925036014,
				"element": "H" 
			}
		],
		 "valence_orbital": [ 
			{
				"type": "occ",
				"energy": -0.29589,
				"method": "rhf"
			},
			{
				"type": "occ",
				"energy": -0.26289,
				"method": "rhf"
			},
			{
				"type": "occ",
				"energy": -0.25828,
				"method": "rhf"
			},
			{
				"type": "occ",
				"energy": -0.256,
				"method": "rhf"
			},
			{
				"type": "occ",
				"energy": -0.22546,
				"method": "rhf"
			},
			{
				"type": "unocc",
				"energy": -0.01516,
				"method": "rhf"
			},
			{
				"type": "unocc",
				"energy": 0.00381,
				"method": "rhf"
			},
			{
				"type": "unocc",
				"energy": 0.01746,
				"method": "rhf"
			},
			{
				"type": "unocc",
				"energy": 0.02425,
				"method": "rhf"
			},
			{
				"type": "unocc",
				"energy": 0.0722,
				"method": "rhf"
			}
		],
		"cosmo_sigma_profile": { 
			"-0.025": 0.0,
			"-0.024": 0.0,
			"-0.023": 0.0,
			"-0.022": 0.0,
			"-0.021": 0.0,
			"-0.02": 0.0,
			"-0.019": 0.0,
			"-0.018": 0.0,
			"-0.017": 0.0,
			"-0.016": 0.0,
			"-0.015": 0.0,
			"-0.014": 0.0,
			"-0.013": 0.0,
			"-0.012": 0.0,
			"-0.011": 0.310557410004,
			"-0.01": 2.12937381718,
			"-0.009": 6.18970912123,
			"-0.008": 7.88342362041,
			"-0.007": 6.82255919578,
			"-0.006": 17.7792743375,
			"-0.005": 24.4076589029,
			"-0.004": 19.7729168312,
			"-0.003": 20.3771014452,
			"-0.002": 16.4969139554,
			"-0.001": 13.521726981,
			"0.0": 11.4739584698,
			"0.001": 11.3506171451,
			"0.002": 13.030364325,
			"0.003": 13.9589766836,
			"0.004": 14.5419225186,
			"0.005": 15.7889397655,
			"0.006": 16.1557606256,
			"0.007": 4.92709925942,
			"0.008": 2.30764967283,
			"0.009": 2.36299528637,
			"0.01": 3.21532385536,
			"0.011": 2.31188015932,
			"0.012": 2.4070308584,
			"0.013": 6.07154316843,
			"0.014": 3.18790997821,
			"0.015": 0.588442317573,
			"0.016": 0.0,
			"0.017": 0.0,
			"0.018": 0.0,
			"0.019": 0.0,
			"0.02": 0.0,
			"0.021": 0.0,
			"0.022": 0.0,
			"0.023": 0.0,
			"0.024": 0.0,
			"0.025": 0.0
		}
	}
}
