{
	 "smiles": "O=C(C1CCCCC1)N1CC2N(CCC3=CC=CC=C23)C(=O)C1", 
	 "Tm": 409.15, 
	 "num_atms": 47, 
	 "gaussian": { 
		 "optdone": 1, 
		 "sigma_profile": "yes", 
		 "theory": "DFT", 
		 "functional": "B3LYP", 
		 "basiset": "6-31G**", 
		 "properties": { 
			 "R2extent": 9915.7421, 
			 "electric_dipole_moment_norm": 1.36741369746, 
			 "electric_quadrupole_moment_norm": 22.7856715264, 
			 "total_energy": -998.480753965, 
			 "HOMO_LUMO_gap": 0.21858, 
			 "cosmo_polarized_energy": -15.55, 
			 "cosmo_cavitation_energy": 45.41, 
			 "cosmo_dispersion_energy": -32.15, 
			 "cosmo_repulsion_energy": 2.43, 
			 "cosmo_total_nonelectrostatic_energy": 15.69, 
			 "SMD_solvation_energy": 6.12 
		},
		"coords": [
			{
				"x": 0.3184575327,
				"y": -0.3707310296,
				"z": 2.1424262869,
				"element": "O" 
			},
			{
				"x": -0.4680238641,
				"y": -0.637968264,
				"z": 1.2364061004,
				"element": "C" 
			},
			{
				"x": -1.0591894362,
				"y": -2.0415242469,
				"z": 1.1043015117,
				"element": "C" 
			},
			{
				"x": -0.1103188945,
				"y": -2.9353002862,
				"z": 0.2466806775,
				"element": "C" 
			},
			{
				"x": -0.2244888741,
				"y": -4.4350066286,
				"z": 0.6086248732,
				"element": "C" 
			},
			{
				"x": -1.6406291985,
				"y": -4.7885839523,
				"z": 1.0782324165,
				"element": "C" 
			},
			{
				"x": -1.9932297126,
				"y": -4.0310974136,
				"z": 2.3812523466,
				"element": "C" 
			},
			{
				"x": -1.265290665,
				"y": -2.6717493651,
				"z": 2.4929195592,
				"element": "C" 
			},
			{
				"x": -0.8250923468,
				"y": 0.3146857547,
				"z": 0.3029305941,
				"element": "N" 
			},
			{
				"x": -0.2823109325,
				"y": 1.6582927025,
				"z": 0.4133737231,
				"element": "C" 
			},
			{
				"x": 0.6107813609,
				"y": 1.9607222972,
				"z": -0.798073292,
				"element": "C" 
			},
			{
				"x": -0.1527306485,
				"y": 1.7138113139,
				"z": -2.0313144636,
				"element": "N" 
			},
			{
				"x": 0.2944202103,
				"y": 2.4080193867,
				"z": -3.238399901,
				"element": "C" 
			},
			{
				"x": 0.1941777058,
				"y": 3.9162246842,
				"z": -3.0167227875,
				"element": "C" 
			},
			{
				"x": 0.9445002594,
				"y": 4.3188265218,
				"z": -1.7651023322,
				"element": "C" 
			},
			{
				"x": 1.4689974662,
				"y": 5.6117742822,
				"z": -1.6308572291,
				"element": "C" 
			},
			{
				"x": 2.2019197201,
				"y": 5.9815698165,
				"z": -0.5066809662,
				"element": "C" 
			},
			{
				"x": 2.4387135582,
				"y": 5.0435476897,
				"z": 0.5008425506,
				"element": "C" 
			},
			{
				"x": 1.9256049159,
				"y": 3.7552854573,
				"z": 0.3778213925,
				"element": "C" 
			},
			{
				"x": 1.162405021,
				"y": 3.3836119867,
				"z": -0.7393684598,
				"element": "C" 
			},
			{
				"x": -1.2124106011,
				"y": 0.8525256874,
				"z": -2.1237019063,
				"element": "C" 
			},
			{
				"x": -1.8303616036,
				"y": 0.6497195727,
				"z": -3.16447146,
				"element": "O" 
			},
			{
				"x": -1.6730556706,
				"y": 0.1166095725,
				"z": -0.8598764712,
				"element": "C" 
			},
			{
				"x": -2.0382874919,
				"y": -1.9895931333,
				"z": 0.6147409019,
				"element": "H" 
			},
			{
				"x": -0.33584777,
				"y": -2.790777569,
				"z": -0.8171769793,
				"element": "H" 
			},
			{
				"x": 0.922987746,
				"y": -2.6030534006,
				"z": 0.3958353952,
				"element": "H" 
			},
			{
				"x": 0.4866992451,
				"y": -4.6771108842,
				"z": 1.4083016247,
				"element": "H" 
			},
			{
				"x": 0.0655758656,
				"y": -5.0452027582,
				"z": -0.2539152999,
				"element": "H" 
			},
			{
				"x": -1.7402501942,
				"y": -5.8691823146,
				"z": 1.2283616774,
				"element": "H" 
			},
			{
				"x": -2.3538351147,
				"y": -4.5253686126,
				"z": 0.2856221559,
				"element": "H" 
			},
			{
				"x": -3.0782584013,
				"y": -3.8798893586,
				"z": 2.43167699,
				"element": "H" 
			},
			{
				"x": -1.7300861219,
				"y": -4.6449203568,
				"z": 3.2507100385,
				"element": "H" 
			},
			{
				"x": -1.8275680982,
				"y": -1.990486285,
				"z": 3.1396409846,
				"element": "H" 
			},
			{
				"x": -0.2843391255,
				"y": -2.7874080223,
				"z": 2.9634459305,
				"element": "H" 
			},
			{
				"x": 0.2881967541,
				"y": 1.7069101224,
				"z": 1.3385418084,
				"element": "H" 
			},
			{
				"x": -1.0988109656,
				"y": 2.3921737569,
				"z": 0.4557205567,
				"element": "H" 
			},
			{
				"x": 1.4618311401,
				"y": 1.2615772165,
				"z": -0.7605980455,
				"element": "H" 
			},
			{
				"x": -0.3385740158,
				"y": 2.0693332877,
				"z": -4.0577430892,
				"element": "H" 
			},
			{
				"x": 1.3334476008,
				"y": 2.1247335444,
				"z": -3.4551744927,
				"element": "H" 
			},
			{
				"x": 0.5983314096,
				"y": 4.4514185321,
				"z": -3.8837379491,
				"element": "H" 
			},
			{
				"x": -0.8656690558,
				"y": 4.193396571,
				"z": -2.9399435681,
				"element": "H" 
			},
			{
				"x": 1.3035516731,
				"y": 6.3308487627,
				"z": -2.4297867036,
				"element": "H" 
			},
			{
				"x": 2.6001200602,
				"y": 6.9886187234,
				"z": -0.4232490565,
				"element": "H" 
			},
			{
				"x": 3.0240770158,
				"y": 5.3120410711,
				"z": 1.3752389183,
				"element": "H" 
			},
			{
				"x": 2.1272981569,
				"y": 3.0255260678,
				"z": 1.1577118373,
				"element": "H" 
			},
			{
				"x": -1.7239782133,
				"y": -0.9350098725,
				"z": -1.1391262528,
				"element": "H" 
			},
			{
				"x": -2.7045574017,
				"y": 0.451459372,
				"z": -0.6732401458,
				"element": "H" 
			}
		],
		 "valence_orbital": [ 
			{
				"type": "occ",
				"energy": -0.25774,
				"method": "rhf"
			},
			{
				"type": "occ",
				"energy": -0.24783,
				"method": "rhf"
			},
			{
				"type": "occ",
				"energy": -0.24752,
				"method": "rhf"
			},
			{
				"type": "occ",
				"energy": -0.24158,
				"method": "rhf"
			},
			{
				"type": "occ",
				"energy": -0.23217,
				"method": "rhf"
			},
			{
				"type": "unocc",
				"energy": -0.01359,
				"method": "rhf"
			},
			{
				"type": "unocc",
				"energy": -0.00731,
				"method": "rhf"
			},
			{
				"type": "unocc",
				"energy": 0.0177,
				"method": "rhf"
			},
			{
				"type": "unocc",
				"energy": 0.02642,
				"method": "rhf"
			},
			{
				"type": "unocc",
				"energy": 0.07029,
				"method": "rhf"
			}
		],
		"cosmo_sigma_profile": { 
			"-0.025": 0.0,
			"-0.024": 0.0,
			"-0.023": 0.0,
			"-0.022": 0.0,
			"-0.021": 0.0,
			"-0.02": 0.0,
			"-0.019": 0.0,
			"-0.018": 0.0,
			"-0.017": 0.0,
			"-0.016": 0.0,
			"-0.015": 0.0,
			"-0.014": 0.0,
			"-0.013": 0.0,
			"-0.012": 0.0,
			"-0.011": 0.0,
			"-0.01": 0.0,
			"-0.009": 0.0,
			"-0.008": 0.400674470579,
			"-0.007": 4.11575485145,
			"-0.006": 14.1443022304,
			"-0.005": 26.3839180769,
			"-0.004": 30.2164353873,
			"-0.003": 37.578123934,
			"-0.002": 48.0291903628,
			"-0.001": 45.9463318422,
			"0.0": 34.138164119,
			"0.001": 26.2283090858,
			"0.002": 13.0056548323,
			"0.003": 10.9373473488,
			"0.004": 10.277714533,
			"0.005": 10.5433049798,
			"0.006": 8.83955142593,
			"0.007": 3.01155547711,
			"0.008": 3.86951888713,
			"0.009": 1.5845270034,
			"0.01": 2.2950065559,
			"0.011": 3.52523274604,
			"0.012": 3.675974784,
			"0.013": 5.72858216732,
			"0.014": 9.1406576037,
			"0.015": 1.15542834217,
			"0.016": 0.0,
			"0.017": 0.0,
			"0.018": 0.0,
			"0.019": 0.0,
			"0.02": 0.0,
			"0.021": 0.0,
			"0.022": 0.0,
			"0.023": 0.0,
			"0.024": 0.0,
			"0.025": 0.0
		}
	}
}
