{
	 "smiles": "NC(=O)CCNC1=C(F)C=C(C=C1)C#N", 
	 "Tm": 430.15, 
	 "num_atms": 25, 
	 "gaussian": { 
		 "optdone": 1, 
		 "sigma_profile": "yes", 
		 "theory": "DFT", 
		 "functional": "B3LYP", 
		 "basiset": "6-31G**", 
		 "properties": { 
			 "R2extent": 4804.0827, 
			 "electric_dipole_moment_norm": 5.7525124198, 
			 "electric_quadrupole_moment_norm": 39.8619495029, 
			 "total_energy": -726.408119949, 
			 "HOMO_LUMO_gap": 0.17954, 
			 "cosmo_polarized_energy": -21.86, 
			 "cosmo_cavitation_energy": 31.36, 
			 "cosmo_dispersion_energy": -21.85, 
			 "cosmo_repulsion_energy": 1.73, 
			 "cosmo_total_nonelectrostatic_energy": 11.24, 
			 "SMD_solvation_energy": 7.14 
		},
		"coords": [
			{
				"x": -2.9208721777,
				"y": 1.9642653215,
				"z": 2.7233398485,
				"element": "N" 
			},
			{
				"x": -1.5598613859,
				"y": 2.0360992592,
				"z": 2.639874224,
				"element": "C" 
			},
			{
				"x": -0.8711438592,
				"y": 2.5096828173,
				"z": 3.5333079449,
				"element": "O" 
			},
			{
				"x": -0.9541555785,
				"y": 1.4922330554,
				"z": 1.3461086845,
				"element": "C" 
			},
			{
				"x": 0.4942582757,
				"y": 1.0228766229,
				"z": 1.5701256762,
				"element": "C" 
			},
			{
				"x": 1.1862091348,
				"y": 0.6357029327,
				"z": 0.3547171747,
				"element": "N" 
			},
			{
				"x": 0.9626715862,
				"y": -0.5250705923,
				"z": -0.3388945007,
				"element": "C" 
			},
			{
				"x": 1.5486905909,
				"y": -0.6753751465,
				"z": -1.6160209359,
				"element": "C" 
			},
			{
				"x": 2.2700063749,
				"y": 0.3782162345,
				"z": -2.0814096418,
				"element": "F" 
			},
			{
				"x": 1.4171343868,
				"y": -1.8071760896,
				"z": -2.3841839228,
				"element": "C" 
			},
			{
				"x": 0.6590865441,
				"y": -2.8872061525,
				"z": -1.8847187412,
				"element": "C" 
			},
			{
				"x": 0.062003361,
				"y": -2.7717535825,
				"z": -0.6194521828,
				"element": "C" 
			},
			{
				"x": 0.2063260942,
				"y": -1.6145536265,
				"z": 0.1384747153,
				"element": "C" 
			},
			{
				"x": 0.5000006903,
				"y": -4.0762598199,
				"z": -2.6612221243,
				"element": "C" 
			},
			{
				"x": 0.3672268886,
				"y": -5.0454300292,
				"z": -3.2929641577,
				"element": "N" 
			},
			{
				"x": -3.3691806977,
				"y": 2.382660609,
				"z": 3.5248039191,
				"element": "H" 
			},
			{
				"x": -3.493023715,
				"y": 1.6280873413,
				"z": 1.9659887388,
				"element": "H" 
			},
			{
				"x": -0.9594589954,
				"y": 2.3019117537,
				"z": 0.6043431193,
				"element": "H" 
			},
			{
				"x": -1.5679805014,
				"y": 0.6846579223,
				"z": 0.9317140238,
				"element": "H" 
			},
			{
				"x": 0.5129078181,
				"y": 0.1895297151,
				"z": 2.2803826736,
				"element": "H" 
			},
			{
				"x": 1.0533844986,
				"y": 1.8313424468,
				"z": 2.0443077985,
				"element": "H" 
			},
			{
				"x": 1.6636272818,
				"y": 1.3584183979,
				"z": -0.1623207718,
				"element": "H" 
			},
			{
				"x": 1.8930152978,
				"y": -1.8524011831,
				"z": -3.356897093,
				"element": "H" 
			},
			{
				"x": -0.5218530886,
				"y": -3.5986340267,
				"z": -0.2297025152,
				"element": "H" 
			},
			{
				"x": -0.2646188246,
				"y": -1.5564241807,
				"z": 1.1128980462,
				"element": "H" 
			}
		],
		 "valence_orbital": [ 
			{
				"type": "occ",
				"energy": -0.30409,
				"method": "rhf"
			},
			{
				"type": "occ",
				"energy": -0.28224,
				"method": "rhf"
			},
			{
				"type": "occ",
				"energy": -0.26928,
				"method": "rhf"
			},
			{
				"type": "occ",
				"energy": -0.26391,
				"method": "rhf"
			},
			{
				"type": "occ",
				"energy": -0.21562,
				"method": "rhf"
			},
			{
				"type": "unocc",
				"energy": -0.03608,
				"method": "rhf"
			},
			{
				"type": "unocc",
				"energy": -0.01822,
				"method": "rhf"
			},
			{
				"type": "unocc",
				"energy": 0.01403,
				"method": "rhf"
			},
			{
				"type": "unocc",
				"energy": 0.04248,
				"method": "rhf"
			},
			{
				"type": "unocc",
				"energy": 0.05741,
				"method": "rhf"
			}
		],
		"cosmo_sigma_profile": { 
			"-0.025": 0.0,
			"-0.024": 0.0,
			"-0.023": 0.0,
			"-0.022": 0.0,
			"-0.021": 0.0,
			"-0.02": 0.0,
			"-0.019": 0.0,
			"-0.018": 0.0,
			"-0.017": 0.0,
			"-0.016": 0.0,
			"-0.015": 0.167117393082,
			"-0.014": 2.03836383779,
			"-0.013": 3.41635575779,
			"-0.012": 3.08600189564,
			"-0.011": 3.05546422613,
			"-0.01": 3.58803009717,
			"-0.009": 4.24073992288,
			"-0.008": 8.00076047446,
			"-0.007": 10.0845446237,
			"-0.006": 14.4476323313,
			"-0.005": 15.2827219909,
			"-0.004": 12.2525094894,
			"-0.003": 12.8925139961,
			"-0.002": 12.224860592,
			"-0.001": 12.2191857401,
			"0.0": 18.3734736931,
			"0.001": 19.2981773998,
			"0.002": 17.4704922221,
			"0.003": 15.8287080733,
			"0.004": 12.5467382786,
			"0.005": 5.33059066241,
			"0.006": 4.84101212466,
			"0.007": 3.6772842752,
			"0.008": 4.67852491849,
			"0.009": 4.35391279775,
			"0.01": 4.38312920577,
			"0.011": 5.3798178071,
			"0.012": 4.50328072413,
			"0.013": 6.01648930302,
			"0.014": 5.74963504053,
			"0.015": 0.840914810589,
			"0.016": 0.0,
			"0.017": 0.0,
			"0.018": 0.0,
			"0.019": 0.0,
			"0.02": 0.0,
			"0.021": 0.0,
			"0.022": 0.0,
			"0.023": 0.0,
			"0.024": 0.0,
			"0.025": 0.0
		}
	}
}
