{
	 "smiles": "O=C(NC1=CC=CC=C1C#CC#CC1=CC=CC=C1NC(=O)C1=CC=CC=C1)C1=CC=CC=C1", 
	 "Tm": 484.15, 
	 "num_atms": 54, 
	 "gaussian": { 
		 "optdone": 1, 
		 "sigma_profile": "yes", 
		 "theory": "DFT", 
		 "functional": "B3LYP", 
		 "basiset": "6-31G**", 
		 "properties": { 
			 "R2extent": 22514.9457, 
			 "electric_dipole_moment_norm": 1.79189908756, 
			 "electric_quadrupole_moment_norm": 56.334445857, 
			 "total_energy": -1415.11724666, 
			 "HOMO_LUMO_gap": 0.13907, 
			 "cosmo_polarized_energy": -23.02, 
			 "cosmo_cavitation_energy": 62.31, 
			 "cosmo_dispersion_energy": -40.61, 
			 "cosmo_repulsion_energy": 3.1, 
			 "cosmo_total_nonelectrostatic_energy": 24.81, 
			 "SMD_solvation_energy": 11.79 
		},
		"coords": [
			{
				"x": 4.1757832645,
				"y": 2.6369531078,
				"z": -0.4182742957,
				"element": "O" 
			},
			{
				"x": 3.2110015325,
				"y": 3.3785494974,
				"z": -0.5582473347,
				"element": "C" 
			},
			{
				"x": 2.0674661283,
				"y": 2.8911965811,
				"z": -1.1811503707,
				"element": "N" 
			},
			{
				"x": 1.022867713,
				"y": 3.5269684647,
				"z": -1.870923895,
				"element": "C" 
			},
			{
				"x": 1.1399639008,
				"y": 4.808318655,
				"z": -2.4258906678,
				"element": "C" 
			},
			{
				"x": 0.0756193224,
				"y": 5.3776904721,
				"z": -3.1204965464,
				"element": "C" 
			},
			{
				"x": -1.1183304731,
				"y": 4.6734850237,
				"z": -3.303938166,
				"element": "C" 
			},
			{
				"x": -1.2397406546,
				"y": 3.3898928933,
				"z": -2.7876447534,
				"element": "C" 
			},
			{
				"x": -0.1845176136,
				"y": 2.7983692555,
				"z": -2.0636638557,
				"element": "C" 
			},
			{
				"x": -0.3204132027,
				"y": 1.4860109672,
				"z": -1.5422666465,
				"element": "C" 
			},
			{
				"x": -0.422203828,
				"y": 0.3525615003,
				"z": -1.0948236985,
				"element": "C" 
			},
			{
				"x": -0.5437088355,
				"y": -0.9064343191,
				"z": -0.6006806377,
				"element": "C" 
			},
			{
				"x": -0.6635322866,
				"y": -2.0396237186,
				"z": -0.160764781,
				"element": "C" 
			},
			{
				"x": -0.7350974872,
				"y": -3.3649276196,
				"z": 0.3409599655,
				"element": "C" 
			},
			{
				"x": 0.3900742353,
				"y": -3.9260406981,
				"z": 0.9825729356,
				"element": "C" 
			},
			{
				"x": 0.3867596933,
				"y": -5.2487542954,
				"z": 1.4092211101,
				"element": "C" 
			},
			{
				"x": -0.745900925,
				"y": -6.042000609,
				"z": 1.2071029157,
				"element": "C" 
			},
			{
				"x": -1.8778196373,
				"y": -5.4965282581,
				"z": 0.6038313473,
				"element": "C" 
			},
			{
				"x": -1.8969984348,
				"y": -4.1642787527,
				"z": 0.1781034157,
				"element": "C" 
			},
			{
				"x": -3.0622506944,
				"y": -3.6768296972,
				"z": -0.4695939145,
				"element": "N" 
			},
			{
				"x": -3.771499298,
				"y": -2.4962108195,
				"z": -0.2832776652,
				"element": "C" 
			},
			{
				"x": -4.4911597521,
				"y": -2.0814751933,
				"z": -1.1835733024,
				"element": "O" 
			},
			{
				"x": -3.7096663268,
				"y": -1.8054705749,
				"z": 1.0461757919,
				"element": "C" 
			},
			{
				"x": -3.5107665894,
				"y": -2.4787091648,
				"z": 2.2593381722,
				"element": "C" 
			},
			{
				"x": -3.5506726851,
				"y": -1.7770728371,
				"z": 3.4649323955,
				"element": "C" 
			},
			{
				"x": -3.7825291699,
				"y": -0.4008762651,
				"z": 3.468639979,
				"element": "C" 
			},
			{
				"x": -3.9930602178,
				"y": 0.2731126247,
				"z": 2.2623607048,
				"element": "C" 
			},
			{
				"x": -3.9688037616,
				"y": -0.4273018717,
				"z": 1.0597884488,
				"element": "C" 
			},
			{
				"x": 3.2151762946,
				"y": 4.7656794047,
				"z": 0.0088595202,
				"element": "C" 
			},
			{
				"x": 4.4385763682,
				"y": 5.449309786,
				"z": 0.0412008363,
				"element": "C" 
			},
			{
				"x": 4.5232231386,
				"y": 6.7102990393,
				"z": 0.6276506564,
				"element": "C" 
			},
			{
				"x": 3.3928949929,
				"y": 7.2851594012,
				"z": 1.2143947905,
				"element": "C" 
			},
			{
				"x": 2.1782335153,
				"y": 6.5955361274,
				"z": 1.2118752112,
				"element": "C" 
			},
			{
				"x": 2.0854495684,
				"y": 5.3426660917,
				"z": 0.6067088548,
				"element": "C" 
			},
			{
				"x": 2.1022041476,
				"y": 1.8819778676,
				"z": -1.2801928466,
				"element": "H" 
			},
			{
				"x": 2.0692742033,
				"y": 5.3539351031,
				"z": -2.3197856134,
				"element": "H" 
			},
			{
				"x": 0.1902070811,
				"y": 6.3733423498,
				"z": -3.5386427258,
				"element": "H" 
			},
			{
				"x": -1.9409266993,
				"y": 5.1186325618,
				"z": -3.8542785146,
				"element": "H" 
			},
			{
				"x": -2.151314696,
				"y": 2.8188240149,
				"z": -2.9292465056,
				"element": "H" 
			},
			{
				"x": 1.2704146795,
				"y": -3.3062249526,
				"z": 1.1162458366,
				"element": "H" 
			},
			{
				"x": 1.2673595001,
				"y": -5.6625168512,
				"z": 1.8906545779,
				"element": "H" 
			},
			{
				"x": -0.753938583,
				"y": -7.0785657551,
				"z": 1.5301434774,
				"element": "H" 
			},
			{
				"x": -2.7723418071,
				"y": -6.0963205666,
				"z": 0.4642219989,
				"element": "H" 
			},
			{
				"x": -3.3036913068,
				"y": -4.1100860931,
				"z": -1.3537638998,
				"element": "H" 
			},
			{
				"x": -3.3423605814,
				"y": -3.5496198559,
				"z": 2.2691502023,
				"element": "H" 
			},
			{
				"x": -3.4042934192,
				"y": -2.3076712484,
				"z": 4.4013027971,
				"element": "H" 
			},
			{
				"x": -3.806475623,
				"y": 0.1438672893,
				"z": 4.4082790068,
				"element": "H" 
			},
			{
				"x": -4.1818394995,
				"y": 1.3427122963,
				"z": 2.2617630829,
				"element": "H" 
			},
			{
				"x": -4.1516082854,
				"y": 0.0730180628,
				"z": 0.1151260901,
				"element": "H" 
			},
			{
				"x": 5.3124573627,
				"y": 4.9728707631,
				"z": -0.390596053,
				"element": "H" 
			},
			{
				"x": 5.4712813567,
				"y": 7.2400259516,
				"z": 0.6371835794,
				"element": "H" 
			},
			{
				"x": 3.4602850008,
				"y": 8.2643817454,
				"z": 1.6798370108,
				"element": "H" 
			},
			{
				"x": 1.302927299,
				"y": 7.0319976379,
				"z": 1.6839312049,
				"element": "H" 
			},
			{
				"x": 1.1418620747,
				"y": 4.80739548,
				"z": 0.6124607733,
				"element": "H" 
			}
		],
		 "valence_orbital": [ 
			{
				"type": "occ",
				"energy": -0.24973,
				"method": "rhf"
			},
			{
				"type": "occ",
				"energy": -0.24479,
				"method": "rhf"
			},
			{
				"type": "occ",
				"energy": -0.24173,
				"method": "rhf"
			},
			{
				"type": "occ",
				"energy": -0.23353,
				"method": "rhf"
			},
			{
				"type": "occ",
				"energy": -0.209,
				"method": "rhf"
			},
			{
				"type": "unocc",
				"energy": -0.06993,
				"method": "rhf"
			},
			{
				"type": "unocc",
				"energy": -0.04416,
				"method": "rhf"
			},
			{
				"type": "unocc",
				"energy": -0.03778,
				"method": "rhf"
			},
			{
				"type": "unocc",
				"energy": -0.02286,
				"method": "rhf"
			},
			{
				"type": "unocc",
				"energy": -0.01986,
				"method": "rhf"
			}
		],
		"cosmo_sigma_profile": { 
			"-0.025": 0.0,
			"-0.024": 0.0,
			"-0.023": 0.0,
			"-0.022": 0.0,
			"-0.021": 0.0,
			"-0.02": 0.0,
			"-0.019": 0.0,
			"-0.018": 0.0,
			"-0.017": 0.0,
			"-0.016": 0.0,
			"-0.015": 0.129400952028,
			"-0.014": 0.95118158687,
			"-0.013": 1.01670856396,
			"-0.012": 1.16263059438,
			"-0.011": 1.55405343964,
			"-0.01": 1.67235676385,
			"-0.009": 2.0532558977,
			"-0.008": 2.17980477671,
			"-0.007": 11.3770418901,
			"-0.006": 35.4166016322,
			"-0.005": 43.5326846871,
			"-0.004": 38.6302009083,
			"-0.003": 32.0642110227,
			"-0.002": 31.3327330116,
			"-0.001": 28.0218880688,
			"0.0": 32.467532336,
			"0.001": 37.5902927268,
			"0.002": 47.763307472,
			"0.003": 57.4627689397,
			"0.004": 46.4107612158,
			"0.005": 13.4068244757,
			"0.006": 2.54315039632,
			"0.007": 2.3932447925,
			"0.008": 2.37164586499,
			"0.009": 3.33255874457,
			"0.01": 3.02252452165,
			"0.011": 3.91772012496,
			"0.012": 7.3323499032,
			"0.013": 9.55676325529,
			"0.014": 1.88275691897,
			"0.015": 0.373803158859,
			"0.016": 0.0705074574162,
			"0.017": 0.00212680633906,
			"0.018": 0.0,
			"0.019": 0.0,
			"0.02": 0.0,
			"0.021": 0.0,
			"0.022": 0.0,
			"0.023": 0.0,
			"0.024": 0.0,
			"0.025": 0.0
		}
	}
}
