{
	 "smiles": "OC(=O)CNC(=O)CCl", 
	 "Tm": 375.15, 
	 "num_atms": 15, 
	 "gaussian": { 
		 "optdone": 1, 
		 "sigma_profile": "yes", 
		 "theory": "DFT", 
		 "functional": "B3LYP", 
		 "basiset": "6-31G**", 
		 "properties": { 
			 "R2extent": 1850.4031, 
			 "electric_dipole_moment_norm": 5.06278249977, 
			 "electric_quadrupole_moment_norm": 9.11458386818, 
			 "total_energy": -896.667017315, 
			 "HOMO_LUMO_gap": 0.23492, 
			 "cosmo_polarized_energy": -22.0, 
			 "cosmo_cavitation_energy": 21.58, 
			 "cosmo_dispersion_energy": -15.91, 
			 "cosmo_repulsion_energy": 1.35, 
			 "cosmo_total_nonelectrostatic_energy": 7.01, 
			 "SMD_solvation_energy": 4.87 
		},
		"coords": [
			{
				"x": 0.4324982595,
				"y": -2.2657492938,
				"z": -2.9241160976,
				"element": "O" 
			},
			{
				"x": -0.2244221907,
				"y": -1.9625111309,
				"z": -1.7841197281,
				"element": "C" 
			},
			{
				"x": -1.0657033476,
				"y": -2.6981435506,
				"z": -1.3343543386,
				"element": "O" 
			},
			{
				"x": 0.1766768753,
				"y": -0.639946816,
				"z": -1.1305394256,
				"element": "C" 
			},
			{
				"x": -0.5904705774,
				"y": -0.4695546321,
				"z": 0.0786724056,
				"element": "N" 
			},
			{
				"x": -0.5847980122,
				"y": 0.5795399698,
				"z": 0.9513055278,
				"element": "C" 
			},
			{
				"x": -1.316266877,
				"y": 0.6224204021,
				"z": 1.9285849104,
				"element": "O" 
			},
			{
				"x": 0.3512480546,
				"y": 1.7515717143,
				"z": 0.645796235,
				"element": "C" 
			},
			{
				"x": 2.1113563153,
				"y": 1.3144049762,
				"z": 0.7906071378,
				"element": "Cl" 
			},
			{
				"x": 1.0884764732,
				"y": -1.5870335262,
				"z": -3.1413409003,
				"element": "H" 
			},
			{
				"x": -0.006406048,
				"y": 0.1656462089,
				"z": -1.8590100364,
				"element": "H" 
			},
			{
				"x": 1.2577288379,
				"y": -0.6554792682,
				"z": -0.9357024601,
				"element": "H" 
			},
			{
				"x": -1.2317971324,
				"y": -1.2269889643,
				"z": 0.2929296349,
				"element": "H" 
			},
			{
				"x": 0.1539298051,
				"y": 2.5247676118,
				"z": 1.3842437444,
				"element": "H" 
			},
			{
				"x": 0.2076495644,
				"y": 2.1469562991,
				"z": -0.3626566091,
				"element": "H" 
			}
		],
		 "valence_orbital": [ 
			{
				"type": "occ",
				"energy": -0.32676,
				"method": "rhf"
			},
			{
				"type": "occ",
				"energy": -0.31841,
				"method": "rhf"
			},
			{
				"type": "occ",
				"energy": -0.30633,
				"method": "rhf"
			},
			{
				"type": "occ",
				"energy": -0.27116,
				"method": "rhf"
			},
			{
				"type": "occ",
				"energy": -0.26458,
				"method": "rhf"
			},
			{
				"type": "unocc",
				"energy": -0.02966,
				"method": "rhf"
			},
			{
				"type": "unocc",
				"energy": -0.01689,
				"method": "rhf"
			},
			{
				"type": "unocc",
				"energy": 0.02714,
				"method": "rhf"
			},
			{
				"type": "unocc",
				"energy": 0.042,
				"method": "rhf"
			},
			{
				"type": "unocc",
				"energy": 0.07723,
				"method": "rhf"
			}
		],
		"cosmo_sigma_profile": { 
			"-0.025": 0.0,
			"-0.024": 0.0,
			"-0.023": 0.0,
			"-0.022": 0.0,
			"-0.021": 0.0359302237975,
			"-0.02": 1.04090604099,
			"-0.019": 1.53348157201,
			"-0.018": 1.30126250766,
			"-0.017": 1.45749083048,
			"-0.016": 0.951389132987,
			"-0.015": 1.16678508406,
			"-0.014": 1.28793688918,
			"-0.013": 1.01018605203,
			"-0.012": 1.14397730368,
			"-0.011": 2.44344281195,
			"-0.01": 4.62629793837,
			"-0.009": 7.34354839876,
			"-0.008": 6.99245206815,
			"-0.007": 6.75463847392,
			"-0.006": 6.71875118365,
			"-0.005": 6.14550772234,
			"-0.004": 6.34409735923,
			"-0.003": 6.240483357,
			"-0.002": 6.91514720387,
			"-0.001": 6.16190145642,
			"0.0": 8.96778667321,
			"0.001": 9.35311397029,
			"0.002": 8.95826310792,
			"0.003": 6.48062773394,
			"0.004": 7.9163483915,
			"0.005": 10.3804970501,
			"0.006": 5.72561100574,
			"0.007": 4.24982688255,
			"0.008": 4.16488218658,
			"0.009": 6.17132395449,
			"0.01": 6.2523582503,
			"0.011": 4.97377180712,
			"0.012": 4.78200424833,
			"0.013": 5.58968686796,
			"0.014": 1.37241201745,
			"0.015": 0.0,
			"0.016": 0.0,
			"0.017": 0.0,
			"0.018": 0.0,
			"0.019": 0.0,
			"0.02": 0.0,
			"0.021": 0.0,
			"0.022": 0.0,
			"0.023": 0.0,
			"0.024": 0.0,
			"0.025": 0.0
		}
	}
}
