{
	 "smiles": "CC(C)(C)OC(=O)NCC1=CC=C(C=C1)C(O)=O", 
	 "Tm": 438.15, 
	 "num_atms": 35, 
	 "gaussian": { 
		 "optdone": 1, 
		 "sigma_profile": "yes", 
		 "theory": "DFT", 
		 "functional": "B3LYP", 
		 "basiset": "6-31G**", 
		 "properties": { 
			 "R2extent": 7478.5309, 
			 "electric_dipole_moment_norm": 6.01603367095, 
			 "electric_quadrupole_moment_norm": 27.621268487, 
			 "total_energy": -861.328151832, 
			 "HOMO_LUMO_gap": 0.20289, 
			 "cosmo_polarized_energy": -20.18, 
			 "cosmo_cavitation_energy": 38.57, 
			 "cosmo_dispersion_energy": -26.99, 
			 "cosmo_repulsion_energy": 2.1, 
			 "cosmo_total_nonelectrostatic_energy": 13.68, 
			 "SMD_solvation_energy": 7.93 
		},
		"coords": [
			{
				"x": -2.2425011263,
				"y": -2.6983910717,
				"z": 3.5439239925,
				"element": "C" 
			},
			{
				"x": -1.3365099103,
				"y": -1.4675824479,
				"z": 3.4360347984,
				"element": "C" 
			},
			{
				"x": -2.1354760011,
				"y": -0.1674711666,
				"z": 3.2976436501,
				"element": "C" 
			},
			{
				"x": -0.3763471283,
				"y": -1.3918309644,
				"z": 4.6258494658,
				"element": "C" 
			},
			{
				"x": -0.417216713,
				"y": -1.6191266102,
				"z": 2.2947591899,
				"element": "O" 
			},
			{
				"x": -0.8871452738,
				"y": -1.7240951304,
				"z": 1.0307099602,
				"element": "C" 
			},
			{
				"x": -2.0595721491,
				"y": -1.6978821412,
				"z": 0.6838736226,
				"element": "O" 
			},
			{
				"x": 0.1652899897,
				"y": -1.8852804008,
				"z": 0.1692674728,
				"element": "N" 
			},
			{
				"x": -0.0265944313,
				"y": -1.8987992922,
				"z": -1.2739079965,
				"element": "C" 
			},
			{
				"x": 0.1557742181,
				"y": -0.5421168431,
				"z": -1.9333318489,
				"element": "C" 
			},
			{
				"x": -0.7574936314,
				"y": 0.4948476297,
				"z": -1.6798272767,
				"element": "C" 
			},
			{
				"x": -0.5943202903,
				"y": 1.7403331908,
				"z": -2.2735250957,
				"element": "C" 
			},
			{
				"x": 0.4950882853,
				"y": 1.9873348952,
				"z": -3.1231865981,
				"element": "C" 
			},
			{
				"x": 1.3978422823,
				"y": 0.9507123532,
				"z": -3.3910067581,
				"element": "C" 
			},
			{
				"x": 1.226399384,
				"y": -0.3015029812,
				"z": -2.7996429717,
				"element": "C" 
			},
			{
				"x": 0.6085536144,
				"y": 3.3513670182,
				"z": -3.7341501691,
				"element": "C" 
			},
			{
				"x": 1.8335329898,
				"y": 3.7108702065,
				"z": -4.2071886581,
				"element": "O" 
			},
			{
				"x": -0.3187805767,
				"y": 4.1217221456,
				"z": -3.8180992354,
				"element": "O" 
			},
			{
				"x": -1.6396063165,
				"y": -3.6102633058,
				"z": 3.6005785949,
				"element": "H" 
			},
			{
				"x": -2.9106120899,
				"y": -2.7680535553,
				"z": 2.6851403655,
				"element": "H" 
			},
			{
				"x": -2.8446026584,
				"y": -2.6323186718,
				"z": 4.455922813,
				"element": "H" 
			},
			{
				"x": -1.4583089147,
				"y": 0.6838359974,
				"z": 3.1750279962,
				"element": "H" 
			},
			{
				"x": -2.7268134621,
				"y": -0.0021748109,
				"z": 4.2040541298,
				"element": "H" 
			},
			{
				"x": -2.809125391,
				"y": -0.2112154737,
				"z": 2.4416200632,
				"element": "H" 
			},
			{
				"x": -0.9402822016,
				"y": -1.2778231645,
				"z": 5.556289148,
				"element": "H" 
			},
			{
				"x": 0.225914605,
				"y": -2.3023670878,
				"z": 4.6950052851,
				"element": "H" 
			},
			{
				"x": 0.2994317187,
				"y": -0.5376654138,
				"z": 4.5237748734,
				"element": "H" 
			},
			{
				"x": 1.0903829642,
				"y": -1.7429175389,
				"z": 0.5467978759,
				"element": "H" 
			},
			{
				"x": 0.6667873093,
				"y": -2.6238296689,
				"z": -1.7129814635,
				"element": "H" 
			},
			{
				"x": -1.043250972,
				"y": -2.2629228202,
				"z": -1.4423732152,
				"element": "H" 
			},
			{
				"x": -1.5994229677,
				"y": 0.3076172291,
				"z": -1.0196759365,
				"element": "H" 
			},
			{
				"x": -1.3025198767,
				"y": 2.5430271254,
				"z": -2.0979436458,
				"element": "H" 
			},
			{
				"x": 2.2183008503,
				"y": 1.091221143,
				"z": -4.0911672054,
				"element": "H" 
			},
			{
				"x": 1.9278809317,
				"y": -1.1012062138,
				"z": -3.0242962697,
				"element": "H" 
			},
			{
				"x": 2.5001229394,
				"y": 3.0700478411,
				"z": -3.9241689531,
				"element": "H" 
			}
		],
		 "valence_orbital": [ 
			{
				"type": "occ",
				"energy": -0.2784,
				"method": "rhf"
			},
			{
				"type": "occ",
				"energy": -0.27348,
				"method": "rhf"
			},
			{
				"type": "occ",
				"energy": -0.2699,
				"method": "rhf"
			},
			{
				"type": "occ",
				"energy": -0.26468,
				"method": "rhf"
			},
			{
				"type": "occ",
				"energy": -0.25505,
				"method": "rhf"
			},
			{
				"type": "unocc",
				"energy": -0.05216,
				"method": "rhf"
			},
			{
				"type": "unocc",
				"energy": -0.0216,
				"method": "rhf"
			},
			{
				"type": "unocc",
				"energy": 0.03842,
				"method": "rhf"
			},
			{
				"type": "unocc",
				"energy": 0.05354,
				"method": "rhf"
			},
			{
				"type": "unocc",
				"energy": 0.06209,
				"method": "rhf"
			}
		],
		"cosmo_sigma_profile": { 
			"-0.025": 0.0,
			"-0.024": 0.0,
			"-0.023": 0.0,
			"-0.022": 0.0,
			"-0.021": 0.0,
			"-0.02": 0.0,
			"-0.019": 0.102407369357,
			"-0.018": 0.591696754451,
			"-0.017": 0.902113798179,
			"-0.016": 1.03378963654,
			"-0.015": 1.24756166555,
			"-0.014": 1.72057408518,
			"-0.013": 2.21902357061,
			"-0.012": 1.41375232551,
			"-0.011": 2.65660664828,
			"-0.01": 2.52948491925,
			"-0.009": 1.64819505848,
			"-0.008": 2.723535252,
			"-0.007": 6.14071304666,
			"-0.006": 10.0672404352,
			"-0.005": 10.5013202328,
			"-0.004": 21.0643431725,
			"-0.003": 27.1111085951,
			"-0.002": 22.9616874833,
			"-0.001": 27.4584127063,
			"0.0": 34.8376945042,
			"0.001": 27.1829371025,
			"0.002": 16.2423475759,
			"0.003": 19.8474581416,
			"0.004": 10.4952889405,
			"0.005": 6.90379161008,
			"0.006": 6.16461591928,
			"0.007": 5.27678075437,
			"0.008": 4.9444011914,
			"0.009": 3.976534407,
			"0.01": 6.11263091073,
			"0.011": 6.74858084969,
			"0.012": 6.48027197451,
			"0.013": 3.98007395569,
			"0.014": 0.508434510296,
			"0.015": 0.0,
			"0.016": 0.0,
			"0.017": 0.0,
			"0.018": 0.0,
			"0.019": 0.0,
			"0.02": 0.0,
			"0.021": 0.0,
			"0.022": 0.0,
			"0.023": 0.0,
			"0.024": 0.0,
			"0.025": 0.0
		}
	}
}
