{
	 "smiles": "NC1=CC=C(C=C1)N1C=CN=C1", 
	 "Tm": 418.15, 
	 "num_atms": 21, 
	 "gaussian": { 
		 "optdone": 1, 
		 "sigma_profile": "yes", 
		 "theory": "DFT", 
		 "functional": "B3LYP", 
		 "basiset": "6-31G**", 
		 "properties": { 
			 "R2extent": 2702.0354, 
			 "electric_dipole_moment_norm": 5.55372019821, 
			 "electric_quadrupole_moment_norm": 13.3062353008, 
			 "total_energy": -512.627764635, 
			 "HOMO_LUMO_gap": 0.19156, 
			 "cosmo_polarized_energy": -14.55, 
			 "cosmo_cavitation_energy": 25.26, 
			 "cosmo_dispersion_energy": -18.61, 
			 "cosmo_repulsion_energy": 1.46, 
			 "cosmo_total_nonelectrostatic_energy": 8.1, 
			 "SMD_solvation_energy": 3.41 
		},
		"coords": [
			{
				"x": -0.1827281501,
				"y": 3.9629168542,
				"z": 0.3144732464,
				"element": "N" 
			},
			{
				"x": -0.3059862108,
				"y": 2.5834742185,
				"z": 0.4723751991,
				"element": "C" 
			},
			{
				"x": -1.2953238673,
				"y": 2.0391688008,
				"z": 1.3107219808,
				"element": "C" 
			},
			{
				"x": -1.4493377583,
				"y": 0.6625009326,
				"z": 1.4315047981,
				"element": "C" 
			},
			{
				"x": -0.6326974456,
				"y": -0.2088898189,
				"z": 0.7029805916,
				"element": "C" 
			},
			{
				"x": 0.3461807043,
				"y": 0.3222249361,
				"z": -0.1433550802,
				"element": "C" 
			},
			{
				"x": 0.5151470131,
				"y": 1.6988138591,
				"z": -0.2487096723,
				"element": "C" 
			},
			{
				"x": -0.7890282452,
				"y": -1.6175561271,
				"z": 0.8261607777,
				"element": "N" 
			},
			{
				"x": -1.9791518533,
				"y": -2.32747356,
				"z": 0.8553307426,
				"element": "C" 
			},
			{
				"x": -1.6214526661,
				"y": -3.6443356853,
				"z": 0.9968609808,
				"element": "C" 
			},
			{
				"x": -0.2517609866,
				"y": -3.7745871672,
				"z": 1.0625733727,
				"element": "N" 
			},
			{
				"x": 0.2131928619,
				"y": -2.5494339622,
				"z": 0.9580217238,
				"element": "C" 
			},
			{
				"x": 0.7217650192,
				"y": 4.2852625787,
				"z": -0.0000847959,
				"element": "H" 
			},
			{
				"x": -0.5408572149,
				"y": 4.5212749526,
				"z": 1.0766997725,
				"element": "H" 
			},
			{
				"x": -1.9408522461,
				"y": 2.7033565573,
				"z": 1.8796092635,
				"element": "H" 
			},
			{
				"x": -2.1955782918,
				"y": 0.2582654662,
				"z": 2.1082202031,
				"element": "H" 
			},
			{
				"x": 0.9670360094,
				"y": -0.3459066239,
				"z": -0.7317929747,
				"element": "H" 
			},
			{
				"x": 1.2774362129,
				"y": 2.0962670347,
				"z": -0.9137670264,
				"element": "H" 
			},
			{
				"x": -2.9321334333,
				"y": -1.8357925275,
				"z": 0.7379718232,
				"element": "H" 
			},
			{
				"x": -2.2732275991,
				"y": -4.5056549852,
				"z": 1.0499800635,
				"element": "H" 
			},
			{
				"x": 1.2535581478,
				"y": -2.2573957332,
				"z": 0.9974250103,
				"element": "H" 
			}
		],
		 "valence_orbital": [ 
			{
				"type": "occ",
				"energy": -0.27069,
				"method": "rhf"
			},
			{
				"type": "occ",
				"energy": -0.26246,
				"method": "rhf"
			},
			{
				"type": "occ",
				"energy": -0.25652,
				"method": "rhf"
			},
			{
				"type": "occ",
				"energy": -0.22211,
				"method": "rhf"
			},
			{
				"type": "occ",
				"energy": -0.20473,
				"method": "rhf"
			},
			{
				"type": "unocc",
				"energy": -0.01317,
				"method": "rhf"
			},
			{
				"type": "unocc",
				"energy": -0.00459,
				"method": "rhf"
			},
			{
				"type": "unocc",
				"energy": 0.04605,
				"method": "rhf"
			},
			{
				"type": "unocc",
				"energy": 0.07118,
				"method": "rhf"
			},
			{
				"type": "unocc",
				"energy": 0.07442,
				"method": "rhf"
			}
		],
		"cosmo_sigma_profile": { 
			"-0.025": 0.0,
			"-0.024": 0.0,
			"-0.023": 0.0,
			"-0.022": 0.0,
			"-0.021": 0.0,
			"-0.02": 0.0,
			"-0.019": 0.0,
			"-0.018": 0.0,
			"-0.017": 0.0,
			"-0.016": 0.0,
			"-0.015": 0.0,
			"-0.014": 0.0,
			"-0.013": 0.61071488597,
			"-0.012": 3.1622994142,
			"-0.011": 2.3040468542,
			"-0.01": 3.20194217681,
			"-0.009": 3.83755363111,
			"-0.008": 5.18006978629,
			"-0.007": 8.86016886936,
			"-0.006": 14.6971043781,
			"-0.005": 13.6301388061,
			"-0.004": 12.5965609934,
			"-0.003": 11.0380261279,
			"-0.002": 9.42983917625,
			"-0.001": 9.82554377769,
			"0.0": 9.74008019732,
			"0.001": 10.8537669787,
			"0.002": 11.7050641362,
			"0.003": 11.80446002,
			"0.004": 11.2888674333,
			"0.005": 17.4715581115,
			"0.006": 8.53377938731,
			"0.007": 3.01727717011,
			"0.008": 2.53274314341,
			"0.009": 2.72926402233,
			"0.01": 2.81030046415,
			"0.011": 2.00089378681,
			"0.012": 1.36858125547,
			"0.013": 1.82916730595,
			"0.014": 1.10180573509,
			"0.015": 1.71168368334,
			"0.016": 1.17629492318,
			"0.017": 0.935981456464,
			"0.018": 0.943378602406,
			"0.019": 0.141445632598,
			"0.02": 0.0,
			"0.021": 0.0,
			"0.022": 0.0,
			"0.023": 0.0,
			"0.024": 0.0,
			"0.025": 0.0
		}
	}
}
