{
	 "smiles": "CCCCCCCCCCCCCC", 
	 "Tm": 278.9, 
	 "num_atms": 44, 
	 "gaussian": { 
		 "optdone": 1, 
		 "sigma_profile": "yes", 
		 "theory": "DFT", 
		 "functional": "B3LYP", 
		 "basiset": "6-31G**", 
		 "properties": { 
			 "R2extent": 6437.732, 
			 "electric_dipole_moment_norm": 0.0458660004797, 
			 "electric_quadrupole_moment_norm": 0.633362510731, 
			 "total_energy": -551.617603021, 
			 "HOMO_LUMO_gap": 0.36576, 
			 "cosmo_polarized_energy": -0.96, 
			 "cosmo_cavitation_energy": 42.55, 
			 "cosmo_dispersion_energy": -28.35, 
			 "cosmo_repulsion_energy": 2.35, 
			 "cosmo_total_nonelectrostatic_energy": 16.55, 
			 "SMD_solvation_energy": 5.71 
		},
		"coords": [
			{
				"x": -2.704506204,
				"y": -1.4608205948,
				"z": -2.697520616,
				"element": "C" 
			},
			{
				"x": -1.5822753882,
				"y": -0.4514933063,
				"z": -2.962148222,
				"element": "C" 
			},
			{
				"x": -0.22516643,
				"y": -0.9072264055,
				"z": -2.407947485,
				"element": "C" 
			},
			{
				"x": 0.9505473865,
				"y": 0.0323135343,
				"z": -2.7282141315,
				"element": "C" 
			},
			{
				"x": 0.8522711222,
				"y": 1.4552094739,
				"z": -2.1454293573,
				"element": "C" 
			},
			{
				"x": 0.7640242069,
				"y": 1.549265212,
				"z": -0.6119656294,
				"element": "C" 
			},
			{
				"x": 1.9896422434,
				"y": 1.0071806977,
				"z": 0.137296805,
				"element": "C" 
			},
			{
				"x": 1.8957387221,
				"y": 1.2021980264,
				"z": 1.6573548554,
				"element": "C" 
			},
			{
				"x": 3.1424860569,
				"y": 0.7583854598,
				"z": 2.4426373831,
				"element": "C" 
			},
			{
				"x": 3.4980188288,
				"y": -0.7380618217,
				"z": 2.3520904374,
				"element": "C" 
			},
			{
				"x": 2.421469386,
				"y": -1.7153209492,
				"z": 2.8569533611,
				"element": "C" 
			},
			{
				"x": 2.0866241896,
				"y": -1.5739633667,
				"z": 4.3495177233,
				"element": "C" 
			},
			{
				"x": 1.1339104041,
				"y": -2.6528667452,
				"z": 4.8916812596,
				"element": "C" 
			},
			{
				"x": -0.2812322738,
				"y": -2.6045638847,
				"z": 4.3027234819,
				"element": "C" 
			},
			{
				"x": -3.6610157454,
				"y": -1.1138504214,
				"z": -3.1022889029,
				"element": "H" 
			},
			{
				"x": -2.8404694499,
				"y": -1.6292163732,
				"z": -1.6229047655,
				"element": "H" 
			},
			{
				"x": -2.4813193727,
				"y": -2.4310336238,
				"z": -3.1562233465,
				"element": "H" 
			},
			{
				"x": -1.4903815985,
				"y": -0.2806902563,
				"z": -4.0438744957,
				"element": "H" 
			},
			{
				"x": -1.858444527,
				"y": 0.5164787509,
				"z": -2.525230814,
				"element": "H" 
			},
			{
				"x": -0.308706586,
				"y": -1.0471255778,
				"z": -1.3213299275,
				"element": "H" 
			},
			{
				"x": 0.0053177538,
				"y": -1.9006558509,
				"z": -2.8169344967,
				"element": "H" 
			},
			{
				"x": 1.0474463222,
				"y": 0.1145380455,
				"z": -3.8196012489,
				"element": "H" 
			},
			{
				"x": 1.8800031812,
				"y": -0.4380715403,
				"z": -2.3832119568,
				"element": "H" 
			},
			{
				"x": -0.017495222,
				"y": 1.9653431273,
				"z": -2.5784424427,
				"element": "H" 
			},
			{
				"x": 1.7287056457,
				"y": 2.0254917253,
				"z": -2.4828294083,
				"element": "H" 
			},
			{
				"x": -0.1357835913,
				"y": 1.0287462795,
				"z": -0.2563225988,
				"element": "H" 
			},
			{
				"x": 0.6223664248,
				"y": 2.6040224763,
				"z": -0.3390678725,
				"element": "H" 
			},
			{
				"x": 2.8939118953,
				"y": 1.5098114738,
				"z": -0.2369253359,
				"element": "H" 
			},
			{
				"x": 2.1192236782,
				"y": -0.0580015797,
				"z": -0.0901203171,
				"element": "H" 
			},
			{
				"x": 1.7181594632,
				"y": 2.2661921116,
				"z": 1.8658327396,
				"element": "H" 
			},
			{
				"x": 1.0087201239,
				"y": 0.6752010274,
				"z": 2.0348610847,
				"element": "H" 
			},
			{
				"x": 4.0060199763,
				"y": 1.3381009724,
				"z": 2.088454064,
				"element": "H" 
			},
			{
				"x": 3.0105621695,
				"y": 1.0367014642,
				"z": 3.4958820569,
				"element": "H" 
			},
			{
				"x": 3.7422275892,
				"y": -0.9909376506,
				"z": 1.3125513663,
				"element": "H" 
			},
			{
				"x": 4.4214607564,
				"y": -0.9061724157,
				"z": 2.923322625,
				"element": "H" 
			},
			{
				"x": 2.7726014029,
				"y": -2.740252983,
				"z": 2.6722640874,
				"element": "H" 
			},
			{
				"x": 1.5099161684,
				"y": -1.6006853552,
				"z": 2.2571362991,
				"element": "H" 
			},
			{
				"x": 3.0230076638,
				"y": -1.6090318027,
				"z": 4.9238784844,
				"element": "H" 
			},
			{
				"x": 1.6493472703,
				"y": -0.5850833019,
				"z": 4.5436128641,
				"element": "H" 
			},
			{
				"x": 1.0681586545,
				"y": -2.5472607581,
				"z": 5.9822508955,
				"element": "H" 
			},
			{
				"x": 1.5712507573,
				"y": -3.6443641403,
				"z": 4.7094319757,
				"element": "H" 
			},
			{
				"x": -0.2816521201,
				"y": -2.7891429226,
				"z": 3.2235856995,
				"element": "H" 
			},
			{
				"x": -0.9262745064,
				"y": -3.3598344409,
				"z": 4.7639322026,
				"element": "H" 
			},
			{
				"x": -0.7448164279,
				"y": -1.6252517899,
				"z": 4.4711816194,
				"element": "H" 
			}
		],
		 "valence_orbital": [ 
			{
				"type": "occ",
				"energy": -0.30621,
				"method": "rhf"
			},
			{
				"type": "occ",
				"energy": -0.30512,
				"method": "rhf"
			},
			{
				"type": "occ",
				"energy": -0.30309,
				"method": "rhf"
			},
			{
				"type": "occ",
				"energy": -0.29609,
				"method": "rhf"
			},
			{
				"type": "occ",
				"energy": -0.29415,
				"method": "rhf"
			},
			{
				"type": "unocc",
				"energy": 0.07161,
				"method": "rhf"
			},
			{
				"type": "unocc",
				"energy": 0.08713,
				"method": "rhf"
			},
			{
				"type": "unocc",
				"energy": 0.10094,
				"method": "rhf"
			},
			{
				"type": "unocc",
				"energy": 0.10665,
				"method": "rhf"
			},
			{
				"type": "unocc",
				"energy": 0.1118,
				"method": "rhf"
			}
		],
		"cosmo_sigma_profile": { 
			"-0.025": 0.0,
			"-0.024": 0.0,
			"-0.023": 0.0,
			"-0.022": 0.0,
			"-0.021": 0.0,
			"-0.02": 0.0,
			"-0.019": 0.0,
			"-0.018": 0.0,
			"-0.017": 0.0,
			"-0.016": 0.0,
			"-0.015": 0.0,
			"-0.014": 0.0,
			"-0.013": 0.0,
			"-0.012": 0.0,
			"-0.011": 0.0,
			"-0.01": 0.0,
			"-0.009": 0.0,
			"-0.008": 0.0,
			"-0.007": 0.0,
			"-0.006": 0.0,
			"-0.005": 0.0,
			"-0.004": 0.0,
			"-0.003": 2.52618048412,
			"-0.002": 35.4128580744,
			"-0.001": 77.7828272991,
			"0.0": 89.7445190305,
			"0.001": 81.488891504,
			"0.002": 36.2089394014,
			"0.003": 1.28037676652,
			"0.004": 0.0,
			"0.005": 0.0,
			"0.006": 0.0,
			"0.007": 0.0,
			"0.008": 0.0,
			"0.009": 0.0,
			"0.01": 0.0,
			"0.011": 0.0,
			"0.012": 0.0,
			"0.013": 0.0,
			"0.014": 0.0,
			"0.015": 0.0,
			"0.016": 0.0,
			"0.017": 0.0,
			"0.018": 0.0,
			"0.019": 0.0,
			"0.02": 0.0,
			"0.021": 0.0,
			"0.022": 0.0,
			"0.023": 0.0,
			"0.024": 0.0,
			"0.025": 0.0
		}
	}
}
