{
	 "smiles": "CC1=C(C=C(C=C1)S(=O)(=O)NC(C)(C)C)C(O)=O", 
	 "Tm": 454.15, 
	 "num_atms": 35, 
	 "gaussian": { 
		 "optdone": 1, 
		 "sigma_profile": "yes", 
		 "theory": "DFT", 
		 "functional": "B3LYP", 
		 "basiset": "6-31G**", 
		 "properties": { 
			 "R2extent": 7146.3443, 
			 "electric_dipole_moment_norm": 6.43059421671, 
			 "electric_quadrupole_moment_norm": 21.2701604202, 
			 "total_energy": -1221.31429289, 
			 "HOMO_LUMO_gap": 0.19986, 
			 "cosmo_polarized_energy": -21.11, 
			 "cosmo_cavitation_energy": 38.64, 
			 "cosmo_dispersion_energy": -26.71, 
			 "cosmo_repulsion_energy": 2.01, 
			 "cosmo_total_nonelectrostatic_energy": 13.94, 
			 "SMD_solvation_energy": 6.93 
		},
		"coords": [
			{
				"x": 1.5859481716,
				"y": 3.9382299484,
				"z": 2.2684171323,
				"element": "C" 
			},
			{
				"x": 0.7952453359,
				"y": 2.7262235241,
				"z": 1.8430440013,
				"element": "C" 
			},
			{
				"x": -0.3706118227,
				"y": 2.2920132527,
				"z": 2.5173081228,
				"element": "C" 
			},
			{
				"x": -1.0456748003,
				"y": 1.1416034762,
				"z": 2.0831292367,
				"element": "C" 
			},
			{
				"x": -0.5890655118,
				"y": 0.4318377913,
				"z": 0.9779244899,
				"element": "C" 
			},
			{
				"x": 0.5505413841,
				"y": 0.8497418312,
				"z": 0.2913264199,
				"element": "C" 
			},
			{
				"x": 1.21979926,
				"y": 1.989487637,
				"z": 0.7265109755,
				"element": "C" 
			},
			{
				"x": -1.4242112165,
				"y": -1.0927385996,
				"z": 0.5250772725,
				"element": "S" 
			},
			{
				"x": -0.4796141482,
				"y": -2.2052718155,
				"z": 0.6750583819,
				"element": "O" 
			},
			{
				"x": -2.7053116054,
				"y": -1.0918320682,
				"z": 1.247130257,
				"element": "O" 
			},
			{
				"x": -1.6236507701,
				"y": -0.9394822626,
				"z": -1.1404244383,
				"element": "N" 
			},
			{
				"x": -2.8708363746,
				"y": -0.4403807411,
				"z": -1.8026398911,
				"element": "C" 
			},
			{
				"x": -2.4992849096,
				"y": -0.3173638293,
				"z": -3.2905342539,
				"element": "C" 
			},
			{
				"x": -4.0386170163,
				"y": -1.4294020811,
				"z": -1.6290777266,
				"element": "C" 
			},
			{
				"x": -3.2386585875,
				"y": 0.9431912584,
				"z": -1.2467945815,
				"element": "C" 
			},
			{
				"x": -0.8741116454,
				"y": 3.0256695793,
				"z": 3.7285088011,
				"element": "C" 
			},
			{
				"x": -2.2127322369,
				"y": 2.9609987812,
				"z": 3.9576539921,
				"element": "O" 
			},
			{
				"x": -0.1670496925,
				"y": 3.6433485729,
				"z": 4.4896985761,
				"element": "O" 
			},
			{
				"x": 0.9457874591,
				"y": 4.8131683672,
				"z": 2.4098781313,
				"element": "H" 
			},
			{
				"x": 2.0724422083,
				"y": 3.7640604908,
				"z": 3.2316690359,
				"element": "H" 
			},
			{
				"x": 2.348231607,
				"y": 4.1760019359,
				"z": 1.5221899161,
				"element": "H" 
			},
			{
				"x": -1.9139722325,
				"y": 0.7615284936,
				"z": 2.612491758,
				"element": "H" 
			},
			{
				"x": 0.9000716691,
				"y": 0.2977024587,
				"z": -0.5742611485,
				"element": "H" 
			},
			{
				"x": 2.1038240122,
				"y": 2.3206698171,
				"z": 0.1893311961,
				"element": "H" 
			},
			{
				"x": -1.2897652909,
				"y": -1.8140523351,
				"z": -1.5403437149,
				"element": "H" 
			},
			{
				"x": -2.2031328946,
				"y": -1.2873324754,
				"z": -3.7065957203,
				"element": "H" 
			},
			{
				"x": -3.3608732569,
				"y": 0.0384256733,
				"z": -3.8635844315,
				"element": "H" 
			},
			{
				"x": -1.6718118716,
				"y": 0.3837784645,
				"z": -3.4309449544,
				"element": "H" 
			},
			{
				"x": -4.9234591608,
				"y": -1.0705651761,
				"z": -2.1655625064,
				"element": "H" 
			},
			{
				"x": -3.776965591,
				"y": -2.4123576863,
				"z": -2.0368781592,
				"element": "H" 
			},
			{
				"x": -4.2931700205,
				"y": -1.5505436689,
				"z": -0.5746617103,
				"element": "H" 
			},
			{
				"x": -4.0862612509,
				"y": 1.3454391725,
				"z": -1.8094480482,
				"element": "H" 
			},
			{
				"x": -2.4006872288,
				"y": 1.6395375456,
				"z": -1.344874643,
				"element": "H" 
			},
			{
				"x": -3.5316839627,
				"y": 0.8850424645,
				"z": -0.196113086,
				"element": "H" 
			},
			{
				"x": -2.6673780083,
				"y": 2.5619222026,
				"z": 3.2028913177,
				"element": "H" 
			}
		],
		 "valence_orbital": [ 
			{
				"type": "occ",
				"energy": -0.30741,
				"method": "rhf"
			},
			{
				"type": "occ",
				"energy": -0.28912,
				"method": "rhf"
			},
			{
				"type": "occ",
				"energy": -0.28442,
				"method": "rhf"
			},
			{
				"type": "occ",
				"energy": -0.27631,
				"method": "rhf"
			},
			{
				"type": "occ",
				"energy": -0.26366,
				"method": "rhf"
			},
			{
				"type": "unocc",
				"energy": -0.0638,
				"method": "rhf"
			},
			{
				"type": "unocc",
				"energy": -0.04475,
				"method": "rhf"
			},
			{
				"type": "unocc",
				"energy": 0.02577,
				"method": "rhf"
			},
			{
				"type": "unocc",
				"energy": 0.04396,
				"method": "rhf"
			},
			{
				"type": "unocc",
				"energy": 0.06232,
				"method": "rhf"
			}
		],
		"cosmo_sigma_profile": { 
			"-0.025": 0.0,
			"-0.024": 0.0,
			"-0.023": 0.0,
			"-0.022": 0.0,
			"-0.021": 0.0,
			"-0.02": 0.0,
			"-0.019": 0.109343538278,
			"-0.018": 1.03667633456,
			"-0.017": 0.915247303204,
			"-0.016": 0.785520309376,
			"-0.015": 1.02917873257,
			"-0.014": 1.13061529711,
			"-0.013": 1.91977711942,
			"-0.012": 1.37055309482,
			"-0.011": 2.14343121881,
			"-0.01": 2.27101350577,
			"-0.009": 2.42143324484,
			"-0.008": 3.98668036659,
			"-0.007": 7.69642161552,
			"-0.006": 8.93329009196,
			"-0.005": 11.2509290253,
			"-0.004": 22.2762640793,
			"-0.003": 24.9412644512,
			"-0.002": 27.5732276627,
			"-0.001": 31.5937021614,
			"0.0": 39.3864795216,
			"0.001": 27.9263426364,
			"0.002": 11.0706517861,
			"0.003": 6.14369750261,
			"0.004": 5.61203592278,
			"0.005": 6.57962681742,
			"0.006": 5.32369537544,
			"0.007": 4.69890318269,
			"0.008": 5.81611966434,
			"0.009": 6.91748372532,
			"0.01": 11.3484181613,
			"0.011": 12.8312882203,
			"0.012": 5.93465032274,
			"0.013": 0.979431552284,
			"0.014": 0.0,
			"0.015": 0.0,
			"0.016": 0.0,
			"0.017": 0.0,
			"0.018": 0.0,
			"0.019": 0.0,
			"0.02": 0.0,
			"0.021": 0.0,
			"0.022": 0.0,
			"0.023": 0.0,
			"0.024": 0.0,
			"0.025": 0.0
		}
	}
}
