{
	 "smiles": "NC1=C(C=C(C(=C1)C(Cl)=C(Cl)Cl)S(N)(=O)=O)S(N)(=O)=O", 
	 "Tm": 476.15, 
	 "num_atms": 28, 
	 "gaussian": { 
		 "optdone": 1, 
		 "sigma_profile": "yes", 
		 "theory": "DFT", 
		 "functional": "B3LYP", 
		 "basiset": "6-31G**", 
		 "properties": { 
			 "R2extent": 8762.7643, 
			 "electric_dipole_moment_norm": 8.69332726291, 
			 "electric_quadrupole_moment_norm": 30.9598837302, 
			 "total_energy": -2951.60173716, 
			 "HOMO_LUMO_gap": 0.1779, 
			 "cosmo_polarized_energy": -34.73, 
			 "cosmo_cavitation_energy": 40.09, 
			 "cosmo_dispersion_energy": -29.06, 
			 "cosmo_repulsion_energy": 2.18, 
			 "cosmo_total_nonelectrostatic_energy": 13.21, 
			 "SMD_solvation_energy": 5.21 
		},
		"coords": [
			{
				"x": 2.4537613639,
				"y": 1.6341544369,
				"z": 1.2218703213,
				"element": "N" 
			},
			{
				"x": 1.6634201602,
				"y": 0.6347122189,
				"z": 0.6917341714,
				"element": "C" 
			},
			{
				"x": 2.2213670949,
				"y": -0.4607536914,
				"z": -0.0097394981,
				"element": "C" 
			},
			{
				"x": 1.4139900712,
				"y": -1.4538567066,
				"z": -0.5538169601,
				"element": "C" 
			},
			{
				"x": 0.0248753995,
				"y": -1.3781746386,
				"z": -0.4516709477,
				"element": "C" 
			},
			{
				"x": -0.5624095163,
				"y": -0.2832700562,
				"z": 0.2180804248,
				"element": "C" 
			},
			{
				"x": 0.2603131151,
				"y": 0.6940547684,
				"z": 0.7769055407,
				"element": "C" 
			},
			{
				"x": -2.0313825276,
				"y": -0.1235593055,
				"z": 0.4340449993,
				"element": "C" 
			},
			{
				"x": -2.6285557773,
				"y": -0.7482644183,
				"z": 1.9463545776,
				"element": "Cl" 
			},
			{
				"x": -2.8476296862,
				"y": 0.5441837753,
				"z": -0.3976875156,
				"element": "C" 
			},
			{
				"x": -4.5312228275,
				"y": 0.8044172281,
				"z": -0.1230618703,
				"element": "Cl" 
			},
			{
				"x": -2.2453837989,
				"y": 1.229485493,
				"z": -1.8930236997,
				"element": "Cl" 
			},
			{
				"x": -0.9219706186,
				"y": -2.7227380846,
				"z": -1.2043862732,
				"element": "S" 
			},
			{
				"x": -1.4407419045,
				"y": -2.1941243518,
				"z": -2.7065573172,
				"element": "N" 
			},
			{
				"x": -2.1255240051,
				"y": -2.920860573,
				"z": -0.4035585785,
				"element": "O" 
			},
			{
				"x": 0.0357528878,
				"y": -3.7907130839,
				"z": -1.4800655342,
				"element": "O" 
			},
			{
				"x": 3.998984988,
				"y": -0.575210579,
				"z": -0.2399046167,
				"element": "S" 
			},
			{
				"x": 4.408502686,
				"y": 0.6508541217,
				"z": -1.3073266699,
				"element": "N" 
			},
			{
				"x": 4.289569612,
				"y": -1.831007588,
				"z": -0.9207825021,
				"element": "O" 
			},
			{
				"x": 4.6211739353,
				"y": -0.2059370951,
				"z": 1.0381954501,
				"element": "O" 
			},
			{
				"x": 1.9815884165,
				"y": 2.2834464754,
				"z": 1.8356383123,
				"element": "H" 
			},
			{
				"x": 3.3624599445,
				"y": 1.3290488547,
				"z": 1.560697313,
				"element": "H" 
			},
			{
				"x": 1.873316681,
				"y": -2.3033609928,
				"z": -1.0480135362,
				"element": "H" 
			},
			{
				"x": -0.1979978406,
				"y": 1.5197176565,
				"z": 1.3137714686,
				"element": "H" 
			},
			{
				"x": -2.0781797319,
				"y": -1.4050556731,
				"z": -2.6705517296,
				"element": "H" 
			},
			{
				"x": -0.6801717521,
				"y": -2.071541209,
				"z": -3.3668046026,
				"element": "H" 
			},
			{
				"x": 4.1594597818,
				"y": 1.5725993533,
				"z": -0.9573071109,
				"element": "H" 
			},
			{
				"x": 4.0692338491,
				"y": 0.4744536645,
				"z": -2.2479336162,
				"element": "H" 
			}
		],
		 "valence_orbital": [ 
			{
				"type": "occ",
				"energy": -0.31303,
				"method": "rhf"
			},
			{
				"type": "occ",
				"energy": -0.30798,
				"method": "rhf"
			},
			{
				"type": "occ",
				"energy": -0.29283,
				"method": "rhf"
			},
			{
				"type": "occ",
				"energy": -0.27026,
				"method": "rhf"
			},
			{
				"type": "occ",
				"energy": -0.25485,
				"method": "rhf"
			},
			{
				"type": "unocc",
				"energy": -0.07695,
				"method": "rhf"
			},
			{
				"type": "unocc",
				"energy": -0.04889,
				"method": "rhf"
			},
			{
				"type": "unocc",
				"energy": -0.04235,
				"method": "rhf"
			},
			{
				"type": "unocc",
				"energy": -0.03025,
				"method": "rhf"
			},
			{
				"type": "unocc",
				"energy": -0.00675,
				"method": "rhf"
			}
		],
		"cosmo_sigma_profile": { 
			"-0.025": -1.22659942993,
			"-0.024": -0.0478711319996,
			"-0.023": 0.00347524125417,
			"-0.022": 0.0359026535526,
			"-0.021": 0.0235683418378,
			"-0.02": 0.00289297459286,
			"-0.019": 0.0,
			"-0.018": 0.0,
			"-0.017": 0.0,
			"-0.016": 0.702803856747,
			"-0.015": 3.39251220595,
			"-0.014": 5.71791844655,
			"-0.013": 5.10811719779,
			"-0.012": 6.16206527907,
			"-0.011": 7.49340962946,
			"-0.01": 7.44024296143,
			"-0.009": 7.87371064943,
			"-0.008": 6.45226648433,
			"-0.007": 6.62721821692,
			"-0.006": 8.17383540008,
			"-0.005": 8.04372267607,
			"-0.004": 11.9589202473,
			"-0.003": 16.3413189405,
			"-0.002": 20.2581916205,
			"-0.001": 20.7554535098,
			"0.0": 25.0337861372,
			"0.001": 23.8911793336,
			"0.002": 27.619942947,
			"0.003": 18.3471389533,
			"0.004": 9.27941429668,
			"0.005": 7.52464093221,
			"0.006": 7.56740127286,
			"0.007": 10.7109662389,
			"0.008": 9.91854065016,
			"0.009": 9.9235765205,
			"0.01": 15.2246537256,
			"0.011": 16.2257643947,
			"0.012": 3.08928276658,
			"0.013": 0.00310127676051,
			"0.014": 0.0,
			"0.015": 0.0,
			"0.016": 0.0,
			"0.017": 0.0,
			"0.018": 0.0,
			"0.019": 0.0,
			"0.02": 0.0,
			"0.021": 0.0,
			"0.022": 0.0,
			"0.023": 0.0,
			"0.024": 0.0,
			"0.025": 0.0447696076875
		}
	}
}
