{
	 "smiles": "CC(C)C1=CC=C(C=C1)C(=O)CC#N", 
	 "Tm": 365.15, 
	 "num_atms": 27, 
	 "gaussian": { 
		 "optdone": 1, 
		 "sigma_profile": "yes", 
		 "theory": "DFT", 
		 "functional": "B3LYP", 
		 "basiset": "6-31G**", 
		 "properties": { 
			 "R2extent": 4272.6669, 
			 "electric_dipole_moment_norm": 4.35497536273, 
			 "electric_quadrupole_moment_norm": 23.9618526537, 
			 "total_energy": -595.080221868, 
			 "HOMO_LUMO_gap": 0.18915, 
			 "cosmo_polarized_energy": -12.55, 
			 "cosmo_cavitation_energy": 31.47, 
			 "cosmo_dispersion_energy": -21.54, 
			 "cosmo_repulsion_energy": 1.71, 
			 "cosmo_total_nonelectrostatic_energy": 11.65, 
			 "SMD_solvation_energy": 7.33 
		},
		"coords": [
			{
				"x": 2.5363478921,
				"y": -1.4940533293,
				"z": 1.2892499922,
				"element": "C" 
			},
			{
				"x": 2.3948130647,
				"y": 0.0370057627,
				"z": 1.188358052,
				"element": "C" 
			},
			{
				"x": 2.5862319715,
				"y": 0.7047826766,
				"z": 2.5638382556,
				"element": "C" 
			},
			{
				"x": 1.0747951519,
				"y": 0.438974883,
				"z": 0.5479066371,
				"element": "C" 
			},
			{
				"x": -0.1565632342,
				"y": 0.1180968031,
				"z": 1.1472649565,
				"element": "C" 
			},
			{
				"x": -1.3570855355,
				"y": 0.4892112183,
				"z": 0.5588996546,
				"element": "C" 
			},
			{
				"x": -1.3699530675,
				"y": 1.1992624635,
				"z": -0.6550715125,
				"element": "C" 
			},
			{
				"x": -0.1464154608,
				"y": 1.5233867333,
				"z": -1.2596388444,
				"element": "C" 
			},
			{
				"x": 1.0540984087,
				"y": 1.1454964678,
				"z": -0.6617255868,
				"element": "C" 
			},
			{
				"x": -2.689805867,
				"y": 1.5536388523,
				"z": -1.2383143584,
				"element": "C" 
			},
			{
				"x": -3.74300431,
				"y": 1.224637774,
				"z": -0.7224881594,
				"element": "O" 
			},
			{
				"x": -2.7468564913,
				"y": 2.3340034091,
				"z": -2.5793798767,
				"element": "C" 
			},
			{
				"x": -2.1814040183,
				"y": 3.6806311573,
				"z": -2.5106435472,
				"element": "C" 
			},
			{
				"x": -1.7323990699,
				"y": 4.7493668955,
				"z": -2.4470459049,
				"element": "N" 
			},
			{
				"x": 2.4343956748,
				"y": -1.9688332276,
				"z": 0.3085484942,
				"element": "H" 
			},
			{
				"x": 1.7744362002,
				"y": -1.9224184823,
				"z": 1.9494008266,
				"element": "H" 
			},
			{
				"x": 3.5169455285,
				"y": -1.7611154937,
				"z": 1.6971574512,
				"element": "H" 
			},
			{
				"x": 3.1950070241,
				"y": 0.4001813148,
				"z": 0.5307036593,
				"element": "H" 
			},
			{
				"x": 1.8266472491,
				"y": 0.3701986877,
				"z": 3.2785866611,
				"element": "H" 
			},
			{
				"x": 3.5673752281,
				"y": 0.450662789,
				"z": 2.9786656932,
				"element": "H" 
			},
			{
				"x": 2.5188972421,
				"y": 1.7943904356,
				"z": 2.4898035009,
				"element": "H" 
			},
			{
				"x": -0.1734147522,
				"y": -0.4283620491,
				"z": 2.0860004905,
				"element": "H" 
			},
			{
				"x": -2.3073954821,
				"y": 0.2411127275,
				"z": 1.0195760437,
				"element": "H" 
			},
			{
				"x": -0.1151046293,
				"y": 2.0804545581,
				"z": -2.1900739384,
				"element": "H" 
			},
			{
				"x": 1.9932974137,
				"y": 1.4074631761,
				"z": -1.141619528,
				"element": "H" 
			},
			{
				"x": -3.8028794325,
				"y": 2.3963651746,
				"z": -2.8538494025,
				"element": "H" 
			},
			{
				"x": -2.223506699,
				"y": 1.7689586222,
				"z": -3.3603097096,
				"element": "H" 
			}
		],
		 "valence_orbital": [ 
			{
				"type": "occ",
				"energy": -0.33748,
				"method": "rhf"
			},
			{
				"type": "occ",
				"energy": -0.32862,
				"method": "rhf"
			},
			{
				"type": "occ",
				"energy": -0.2679,
				"method": "rhf"
			},
			{
				"type": "occ",
				"energy": -0.26736,
				"method": "rhf"
			},
			{
				"type": "occ",
				"energy": -0.26046,
				"method": "rhf"
			},
			{
				"type": "unocc",
				"energy": -0.07131,
				"method": "rhf"
			},
			{
				"type": "unocc",
				"energy": -0.01827,
				"method": "rhf"
			},
			{
				"type": "unocc",
				"energy": 0.01829,
				"method": "rhf"
			},
			{
				"type": "unocc",
				"energy": 0.03112,
				"method": "rhf"
			},
			{
				"type": "unocc",
				"energy": 0.04222,
				"method": "rhf"
			}
		],
		"cosmo_sigma_profile": { 
			"-0.025": 0.0,
			"-0.024": 0.0,
			"-0.023": 0.0,
			"-0.022": 0.0,
			"-0.021": 0.0,
			"-0.02": 0.0,
			"-0.019": 0.0,
			"-0.018": 0.0,
			"-0.017": 0.0,
			"-0.016": 0.0,
			"-0.015": 0.0,
			"-0.014": 0.0,
			"-0.013": 0.0,
			"-0.012": 0.0,
			"-0.011": 0.602434944489,
			"-0.01": 4.20647932442,
			"-0.009": 4.94858661697,
			"-0.008": 4.33041801833,
			"-0.007": 5.03386805427,
			"-0.006": 10.929476543,
			"-0.005": 12.8051862832,
			"-0.004": 15.0767847481,
			"-0.003": 20.6468167804,
			"-0.002": 22.2443978351,
			"-0.001": 23.4518909501,
			"0.0": 22.5265939299,
			"0.001": 25.3975936445,
			"0.002": 13.7182258091,
			"0.003": 15.0394011496,
			"0.004": 9.88371456412,
			"0.005": 4.05398355618,
			"0.006": 4.19474513791,
			"0.007": 4.15236536166,
			"0.008": 4.18094013751,
			"0.009": 5.55121526429,
			"0.01": 6.0328585216,
			"0.011": 6.56551025762,
			"0.012": 2.96960019656,
			"0.013": 1.34498171786,
			"0.014": 0.0150308401682,
			"0.015": 0.0,
			"0.016": 0.0,
			"0.017": 0.0,
			"0.018": 0.0,
			"0.019": 0.0,
			"0.02": 0.0,
			"0.021": 0.0,
			"0.022": 0.0,
			"0.023": 0.0,
			"0.024": 0.0,
			"0.025": 0.0
		}
	}
}
