{
	 "smiles": "CCOC1=CC=C(C=C1)C(C)(C)COCC1=CC(OC2=CC=CC=C2)=CC=C1", 
	 "Tm": 309.65, 
	 "num_atms": 56, 
	 "gaussian": { 
		 "optdone": 1, 
		 "sigma_profile": "yes", 
		 "theory": "DFT", 
		 "functional": "B3LYP", 
		 "basiset": "6-31G**", 
		 "properties": { 
			 "R2extent": 12527.5281, 
			 "electric_dipole_moment_norm": 2.21908141806, 
			 "electric_quadrupole_moment_norm": 12.3817725415, 
			 "total_energy": -1195.19430148, 
			 "HOMO_LUMO_gap": 0.20049, 
			 "cosmo_polarized_energy": -12.15, 
			 "cosmo_cavitation_energy": 58.32, 
			 "cosmo_dispersion_energy": -36.52, 
			 "cosmo_repulsion_energy": 2.79, 
			 "cosmo_total_nonelectrostatic_energy": 24.59, 
			 "SMD_solvation_energy": 9.92 
		},
		"coords": [
			{
				"x": 4.9743182979,
				"y": -2.8183337067,
				"z": -1.2406771491,
				"element": "C" 
			},
			{
				"x": 3.4814131441,
				"y": -2.9335244279,
				"z": -0.9845625129,
				"element": "C" 
			},
			{
				"x": 3.0897396016,
				"y": -1.8046809141,
				"z": -0.2083950825,
				"element": "O" 
			},
			{
				"x": 1.7765027115,
				"y": -1.6792181159,
				"z": 0.1483176322,
				"element": "C" 
			},
			{
				"x": 0.7670493017,
				"y": -2.5891585491,
				"z": -0.1830484385,
				"element": "C" 
			},
			{
				"x": -0.5432403731,
				"y": -2.3533433427,
				"z": 0.2419422336,
				"element": "C" 
			},
			{
				"x": -0.8958826267,
				"y": -1.2306490237,
				"z": 1.0012821057,
				"element": "C" 
			},
			{
				"x": 0.1375135252,
				"y": -0.3309396996,
				"z": 1.314432022,
				"element": "C" 
			},
			{
				"x": 1.44767789,
				"y": -0.5444679351,
				"z": 0.9001744529,
				"element": "C" 
			},
			{
				"x": -2.3584081382,
				"y": -0.9873486978,
				"z": 1.4175494422,
				"element": "C" 
			},
			{
				"x": -2.4827120947,
				"y": 0.0788480286,
				"z": 2.5244895653,
				"element": "C" 
			},
			{
				"x": -3.0109763757,
				"y": -2.2905199375,
				"z": 1.9319434039,
				"element": "C" 
			},
			{
				"x": -3.1609628165,
				"y": -0.5142387465,
				"z": 0.1847032306,
				"element": "C" 
			},
			{
				"x": -2.6448133863,
				"y": 0.723903779,
				"z": -0.2630992406,
				"element": "O" 
			},
			{
				"x": -3.2515815593,
				"y": 1.2071031534,
				"z": -1.4427567532,
				"element": "C" 
			},
			{
				"x": -2.5530774123,
				"y": 2.4696427031,
				"z": -1.8983170743,
				"element": "C" 
			},
			{
				"x": -1.2175300294,
				"y": 2.6962421381,
				"z": -1.5539930356,
				"element": "C" 
			},
			{
				"x": -0.576391045,
				"y": 3.8527259882,
				"z": -2.004619246,
				"element": "C" 
			},
			{
				"x": 0.7583230558,
				"y": 4.1065903088,
				"z": -1.7476206789,
				"element": "O" 
			},
			{
				"x": 1.3116097956,
				"y": 3.8231750848,
				"z": -0.5150741947,
				"element": "C" 
			},
			{
				"x": 2.6443317299,
				"y": 3.4047827479,
				"z": -0.5121668438,
				"element": "C" 
			},
			{
				"x": 3.2921221867,
				"y": 3.1752835274,
				"z": 0.7013586227,
				"element": "C" 
			},
			{
				"x": 2.6145631171,
				"y": 3.3540231672,
				"z": 1.9102018445,
				"element": "C" 
			},
			{
				"x": 1.2824225897,
				"y": 3.7748840113,
				"z": 1.894807485,
				"element": "C" 
			},
			{
				"x": 0.6247448372,
				"y": 4.0168208454,
				"z": 0.6879438761,
				"element": "C" 
			},
			{
				"x": -1.241865655,
				"y": 4.7738925304,
				"z": -2.8155647498,
				"element": "C" 
			},
			{
				"x": -2.5697592392,
				"y": 4.5331853139,
				"z": -3.16645497,
				"element": "C" 
			},
			{
				"x": -3.2290134995,
				"y": 3.3939521345,
				"z": -2.7038653384,
				"element": "C" 
			},
			{
				"x": 5.3220827403,
				"y": -3.6683369367,
				"z": -1.8359191462,
				"element": "H" 
			},
			{
				"x": 5.5269189008,
				"y": -2.8056255746,
				"z": -0.2969982017,
				"element": "H" 
			},
			{
				"x": 5.2014367858,
				"y": -1.8971025279,
				"z": -1.7844978415,
				"element": "H" 
			},
			{
				"x": 3.2489058591,
				"y": -3.8620754318,
				"z": -0.4430552347,
				"element": "H" 
			},
			{
				"x": 2.9230649,
				"y": -2.9512551034,
				"z": -1.931782208,
				"element": "H" 
			},
			{
				"x": 0.982182154,
				"y": -3.477427468,
				"z": -0.7653941545,
				"element": "H" 
			},
			{
				"x": -1.3005866836,
				"y": -3.07869044,
				"z": -0.0403328941,
				"element": "H" 
			},
			{
				"x": -0.0719303187,
				"y": 0.5643756566,
				"z": 1.8878148513,
				"element": "H" 
			},
			{
				"x": 2.2298251197,
				"y": 0.1673110207,
				"z": 1.1429222633,
				"element": "H" 
			},
			{
				"x": -3.5291137989,
				"y": 0.16885316,
				"z": 2.8358237553,
				"element": "H" 
			},
			{
				"x": -1.8928189493,
				"y": -0.1962498286,
				"z": 3.4045552501,
				"element": "H" 
			},
			{
				"x": -2.1591421293,
				"y": 1.0611921043,
				"z": 2.175696863,
				"element": "H" 
			},
			{
				"x": -3.0526907258,
				"y": -3.071274293,
				"z": 1.1668395181,
				"element": "H" 
			},
			{
				"x": -2.4504527011,
				"y": -2.6880603328,
				"z": 2.7832866065,
				"element": "H" 
			},
			{
				"x": -4.0380969187,
				"y": -2.0999994059,
				"z": 2.2620895628,
				"element": "H" 
			},
			{
				"x": -4.2271555207,
				"y": -0.4074175781,
				"z": 0.4522253164,
				"element": "H" 
			},
			{
				"x": -3.0952528576,
				"y": -1.2682874172,
				"z": -0.6171358755,
				"element": "H" 
			},
			{
				"x": -3.1938319978,
				"y": 0.4403658922,
				"z": -2.2365701948,
				"element": "H" 
			},
			{
				"x": -4.3239343768,
				"y": 1.4094609383,
				"z": -1.2790188347,
				"element": "H" 
			},
			{
				"x": -0.6941207345,
				"y": 1.9786421924,
				"z": -0.9338357566,
				"element": "H" 
			},
			{
				"x": 3.1513635609,
				"y": 3.2676605651,
				"z": -1.4614586392,
				"element": "H" 
			},
			{
				"x": 4.3289130971,
				"y": 2.8512541888,
				"z": 0.6998187434,
				"element": "H" 
			},
			{
				"x": 3.1202220441,
				"y": 3.1727240913,
				"z": 2.8536994966,
				"element": "H" 
			},
			{
				"x": 0.749609063,
				"y": 3.9283090858,
				"z": 2.8291497268,
				"element": "H" 
			},
			{
				"x": -0.4066971936,
				"y": 4.3511792563,
				"z": 0.6760391221,
				"element": "H" 
			},
			{
				"x": -0.7129666895,
				"y": 5.6584939845,
				"z": -3.1540851253,
				"element": "H" 
			},
			{
				"x": -3.0967662445,
				"y": 5.2480440943,
				"z": -3.7918849883,
				"element": "H" 
			},
			{
				"x": -4.2701839174,
				"y": 3.2246037421,
				"z": -2.966522589,
				"element": "H" 
			}
		],
		 "valence_orbital": [ 
			{
				"type": "occ",
				"energy": -0.24481,
				"method": "rhf"
			},
			{
				"type": "occ",
				"energy": -0.23961,
				"method": "rhf"
			},
			{
				"type": "occ",
				"energy": -0.23713,
				"method": "rhf"
			},
			{
				"type": "occ",
				"energy": -0.21135,
				"method": "rhf"
			},
			{
				"type": "occ",
				"energy": -0.20544,
				"method": "rhf"
			},
			{
				"type": "unocc",
				"energy": -0.00495,
				"method": "rhf"
			},
			{
				"type": "unocc",
				"energy": -0.00024,
				"method": "rhf"
			},
			{
				"type": "unocc",
				"energy": 0.00677,
				"method": "rhf"
			},
			{
				"type": "unocc",
				"energy": 0.00759,
				"method": "rhf"
			},
			{
				"type": "unocc",
				"energy": 0.0181,
				"method": "rhf"
			}
		],
		"cosmo_sigma_profile": { 
			"-0.025": 0.0,
			"-0.024": 0.0,
			"-0.023": 0.0,
			"-0.022": 0.0,
			"-0.021": 0.0,
			"-0.02": 0.0,
			"-0.019": 0.0,
			"-0.018": 0.0,
			"-0.017": 0.0,
			"-0.016": 0.0,
			"-0.015": 0.0,
			"-0.014": 0.0,
			"-0.013": 0.0,
			"-0.012": 0.0,
			"-0.011": 0.0,
			"-0.01": 0.0,
			"-0.009": 0.0,
			"-0.008": 0.0,
			"-0.007": 0.355842208403,
			"-0.006": 12.6792487423,
			"-0.005": 27.813202618,
			"-0.004": 40.3971890082,
			"-0.003": 56.5258356544,
			"-0.002": 46.1243424715,
			"-0.001": 41.3266384533,
			"0.0": 40.0852811103,
			"0.001": 42.7205397358,
			"0.002": 34.3558888853,
			"0.003": 29.5750229194,
			"0.004": 29.1015869637,
			"0.005": 25.860425646,
			"0.006": 15.8960276461,
			"0.007": 6.75900332445,
			"0.008": 5.03060811532,
			"0.009": 3.60303361484,
			"0.01": 1.78300318581,
			"0.011": 0.532691163866,
			"0.012": 0.0,
			"0.013": 0.0,
			"0.014": 0.0,
			"0.015": 0.0,
			"0.016": 0.0,
			"0.017": 0.0,
			"0.018": 0.0,
			"0.019": 0.0,
			"0.02": 0.0,
			"0.021": 0.0,
			"0.022": 0.0,
			"0.023": 0.0,
			"0.024": 0.0,
			"0.025": 0.0
		}
	}
}
