{
	 "smiles": "COC1=CC2=C(C=C1)C=C(C=C2)C(C)=O", 
	 "Tm": 381.15, 
	 "num_atms": 27, 
	 "gaussian": { 
		 "optdone": 1, 
		 "sigma_profile": "yes", 
		 "theory": "DFT", 
		 "functional": "B3LYP", 
		 "basiset": "6-31G**", 
		 "properties": { 
			 "R2extent": 4603.6006, 
			 "electric_dipole_moment_norm": 4.45153958648, 
			 "electric_quadrupole_moment_norm": 9.84004638658, 
			 "total_energy": -653.069591316, 
			 "HOMO_LUMO_gap": 0.15928, 
			 "cosmo_polarized_energy": -11.05, 
			 "cosmo_cavitation_energy": 30.85, 
			 "cosmo_dispersion_energy": -22.6, 
			 "cosmo_repulsion_energy": 1.73, 
			 "cosmo_total_nonelectrostatic_energy": 9.98, 
			 "SMD_solvation_energy": 6.45 
		},
		"coords": [
			{
				"x": -1.2988671867,
				"y": -2.1936421818,
				"z": 3.7626939346,
				"element": "C" 
			},
			{
				"x": -2.1827218632,
				"y": -1.1859219471,
				"z": 3.2942192369,
				"element": "O" 
			},
			{
				"x": -1.8465760244,
				"y": -0.5118010685,
				"z": 2.1611416707,
				"element": "C" 
			},
			{
				"x": -0.7025004189,
				"y": -0.7269770713,
				"z": 1.4159324412,
				"element": "C" 
			},
			{
				"x": -0.4579845531,
				"y": 0.0421160465,
				"z": 0.2467034749,
				"element": "C" 
			},
			{
				"x": -1.4038683831,
				"y": 1.0413948258,
				"z": -0.1549813823,
				"element": "C" 
			},
			{
				"x": -2.5708742302,
				"y": 1.2313979579,
				"z": 0.6414678132,
				"element": "C" 
			},
			{
				"x": -2.7894062762,
				"y": 0.4803377487,
				"z": 1.7653856006,
				"element": "C" 
			},
			{
				"x": -1.1540306915,
				"y": 1.8013624292,
				"z": -1.3172489501,
				"element": "C" 
			},
			{
				"x": -0.0136062861,
				"y": 1.6048124565,
				"z": -2.0818397113,
				"element": "C" 
			},
			{
				"x": 0.921294148,
				"y": 0.6118989444,
				"z": -1.6784752866,
				"element": "C" 
			},
			{
				"x": 0.7043334999,
				"y": -0.1445572465,
				"z": -0.5497187019,
				"element": "C" 
			},
			{
				"x": 0.1762993392,
				"y": 2.4529453615,
				"z": -3.2999127481,
				"element": "C" 
			},
			{
				"x": 1.4225751049,
				"y": 2.2480148026,
				"z": -4.1466702937,
				"element": "C" 
			},
			{
				"x": -0.6515449086,
				"y": 3.2969459918,
				"z": -3.6139952413,
				"element": "O" 
			},
			{
				"x": -1.7545961152,
				"y": -2.5980844563,
				"z": 4.6674561115,
				"element": "H" 
			},
			{
				"x": -0.311852139,
				"y": -1.7806233003,
				"z": 4.0065001843,
				"element": "H" 
			},
			{
				"x": -1.1793716601,
				"y": -2.9977155213,
				"z": 3.0255224988,
				"element": "H" 
			},
			{
				"x": 0.0245313383,
				"y": -1.477782035,
				"z": 1.7034091698,
				"element": "H" 
			},
			{
				"x": -3.2913526543,
				"y": 1.9874746545,
				"z": 0.3417453103,
				"element": "H" 
			},
			{
				"x": -3.6731824118,
				"y": 0.6149400254,
				"z": 2.380160896,
				"element": "H" 
			},
			{
				"x": -1.8609307613,
				"y": 2.5622847841,
				"z": -1.6348589855,
				"element": "H" 
			},
			{
				"x": 1.8193304939,
				"y": 0.4437141632,
				"z": -2.263999536,
				"element": "H" 
			},
			{
				"x": 1.4269510978,
				"y": -0.9002255153,
				"z": -0.2525489771,
				"element": "H" 
			},
			{
				"x": 1.3934914054,
				"y": 2.9452092053,
				"z": -4.9844430474,
				"element": "H" 
			},
			{
				"x": 1.4748983267,
				"y": 1.2223815366,
				"z": -4.5288758446,
				"element": "H" 
			},
			{
				"x": 2.3309618095,
				"y": 2.4230994096,
				"z": -3.5593696367,
				"element": "H" 
			}
		],
		 "valence_orbital": [ 
			{
				"type": "occ",
				"energy": -0.30471,
				"method": "rhf"
			},
			{
				"type": "occ",
				"energy": -0.28331,
				"method": "rhf"
			},
			{
				"type": "occ",
				"energy": -0.24122,
				"method": "rhf"
			},
			{
				"type": "occ",
				"energy": -0.23675,
				"method": "rhf"
			},
			{
				"type": "occ",
				"energy": -0.21387,
				"method": "rhf"
			},
			{
				"type": "unocc",
				"energy": -0.05459,
				"method": "rhf"
			},
			{
				"type": "unocc",
				"energy": -0.0316,
				"method": "rhf"
			},
			{
				"type": "unocc",
				"energy": 0.02464,
				"method": "rhf"
			},
			{
				"type": "unocc",
				"energy": 0.03541,
				"method": "rhf"
			},
			{
				"type": "unocc",
				"energy": 0.0888,
				"method": "rhf"
			}
		],
		"cosmo_sigma_profile": { 
			"-0.025": 0.0,
			"-0.024": 0.0,
			"-0.023": 0.0,
			"-0.022": 0.0,
			"-0.021": 0.0,
			"-0.02": 0.0,
			"-0.019": 0.0,
			"-0.018": 0.0,
			"-0.017": 0.0,
			"-0.016": 0.0,
			"-0.015": 0.0,
			"-0.014": 0.0,
			"-0.013": 0.0,
			"-0.012": 0.0,
			"-0.011": 0.0,
			"-0.01": 0.0,
			"-0.009": 0.0,
			"-0.008": 0.0,
			"-0.007": 2.57150778787,
			"-0.006": 22.1611067027,
			"-0.005": 25.3654059119,
			"-0.004": 23.4284208663,
			"-0.003": 20.5004354366,
			"-0.002": 15.6254238078,
			"-0.001": 15.0237437282,
			"0.0": 13.3278600859,
			"0.001": 11.6135542512,
			"0.002": 16.4114052803,
			"0.003": 29.4139659363,
			"0.004": 21.1281875722,
			"0.005": 4.8488372738,
			"0.006": 3.00303712649,
			"0.007": 3.3068580877,
			"0.008": 2.65560791138,
			"0.009": 3.31373022583,
			"0.01": 2.70318899857,
			"0.011": 2.15852121349,
			"0.012": 4.53794170453,
			"0.013": 2.47250019263,
			"0.014": 0.460358834351,
			"0.015": 0.0,
			"0.016": 0.0,
			"0.017": 0.0,
			"0.018": 0.0,
			"0.019": 0.0,
			"0.02": 0.0,
			"0.021": 0.0,
			"0.022": 0.0,
			"0.023": 0.0,
			"0.024": 0.0,
			"0.025": 0.0
		}
	}
}
