{
	 "smiles": "CC1=CC(NC(=O)C2=CN=CC(Cl)=N2)=CC=C1", 
	 "Tm": 357.15, 
	 "num_atms": 27, 
	 "gaussian": { 
		 "optdone": 1, 
		 "sigma_profile": "yes", 
		 "theory": "DFT", 
		 "functional": "B3LYP", 
		 "basiset": "6-31G**", 
		 "properties": { 
			 "R2extent": 4988.7795, 
			 "electric_dipole_moment_norm": 2.88515524886, 
			 "electric_quadrupole_moment_norm": 9.96736882081, 
			 "total_energy": -1162.97571964, 
			 "HOMO_LUMO_gap": 0.15404, 
			 "cosmo_polarized_energy": -13.01, 
			 "cosmo_cavitation_energy": 34.26, 
			 "cosmo_dispersion_energy": -23.38, 
			 "cosmo_repulsion_energy": 1.84, 
			 "cosmo_total_nonelectrostatic_energy": 12.72, 
			 "SMD_solvation_energy": 4.02 
		},
		"coords": [
			{
				"x": 2.5407969659,
				"y": 0.4942322956,
				"z": 1.5956957821,
				"element": "C" 
			},
			{
				"x": 2.5398803246,
				"y": 0.0940291474,
				"z": 0.1388319744,
				"element": "C" 
			},
			{
				"x": 1.583566184,
				"y": 0.6118671762,
				"z": -0.7403665158,
				"element": "C" 
			},
			{
				"x": 1.5490832236,
				"y": 0.2132975606,
				"z": -2.0812774269,
				"element": "C" 
			},
			{
				"x": 0.6046068393,
				"y": 0.7633058058,
				"z": -2.9930454343,
				"element": "N" 
			},
			{
				"x": -0.7244724713,
				"y": 1.0645264129,
				"z": -2.8428537582,
				"element": "C" 
			},
			{
				"x": -1.2978923265,
				"y": 1.826150582,
				"z": -3.6156959204,
				"element": "O" 
			},
			{
				"x": -1.5219886029,
				"y": 0.3949084351,
				"z": -1.75165911,
				"element": "C" 
			},
			{
				"x": -2.6818738396,
				"y": 1.0260288859,
				"z": -1.2887905706,
				"element": "C" 
			},
			{
				"x": -3.470404922,
				"y": 0.4592740697,
				"z": -0.3672481513,
				"element": "N" 
			},
			{
				"x": -3.1171498386,
				"y": -0.7481722996,
				"z": 0.0717017676,
				"element": "C" 
			},
			{
				"x": -1.9644368956,
				"y": -1.3782741292,
				"z": -0.4204349092,
				"element": "C" 
			},
			{
				"x": -1.5486517325,
				"y": -2.9795220289,
				"z": 0.1661297062,
				"element": "Cl" 
			},
			{
				"x": -1.1685180979,
				"y": -0.8224523115,
				"z": -1.3108087175,
				"element": "N" 
			},
			{
				"x": 2.5063234755,
				"y": -0.6821632289,
				"z": -2.5671240171,
				"element": "C" 
			},
			{
				"x": 3.4796151443,
				"y": -1.1807280285,
				"z": -1.7029863008,
				"element": "C" 
			},
			{
				"x": 3.4934170814,
				"y": -0.8038400788,
				"z": -0.3605633639,
				"element": "C" 
			},
			{
				"x": 3.5574922873,
				"y": 0.5376894874,
				"z": 1.9978097457,
				"element": "H" 
			},
			{
				"x": 2.0752587751,
				"y": 1.4729827399,
				"z": 1.7442092927,
				"element": "H" 
			},
			{
				"x": 1.9819680114,
				"y": -0.2293444709,
				"z": 2.2020912279,
				"element": "H" 
			},
			{
				"x": 0.8642387412,
				"y": 1.3427840281,
				"z": -0.3824688126,
				"element": "H" 
			},
			{
				"x": 0.9772549692,
				"y": 1.1595915468,
				"z": -3.8482237854,
				"element": "H" 
			},
			{
				"x": -2.9673170711,
				"y": 1.9979256665,
				"z": -1.6774015581,
				"element": "H" 
			},
			{
				"x": -3.7460584687,
				"y": -1.2290847044,
				"z": 0.8156317086,
				"element": "H" 
			},
			{
				"x": 2.476777521,
				"y": -0.9882952732,
				"z": -3.6085558916,
				"element": "H" 
			},
			{
				"x": 4.226808627,
				"y": -1.8734939384,
				"z": -2.0790283507,
				"element": "H" 
			},
			{
				"x": 4.2540760959,
				"y": -1.2026233476,
				"z": 0.3053313891,
				"element": "H" 
			}
		],
		 "valence_orbital": [ 
			{
				"type": "occ",
				"energy": -0.28818,
				"method": "rhf"
			},
			{
				"type": "occ",
				"energy": -0.27511,
				"method": "rhf"
			},
			{
				"type": "occ",
				"energy": -0.25839,
				"method": "rhf"
			},
			{
				"type": "occ",
				"energy": -0.2514,
				"method": "rhf"
			},
			{
				"type": "occ",
				"energy": -0.23292,
				"method": "rhf"
			},
			{
				"type": "unocc",
				"energy": -0.07888,
				"method": "rhf"
			},
			{
				"type": "unocc",
				"energy": -0.05447,
				"method": "rhf"
			},
			{
				"type": "unocc",
				"energy": -0.01139,
				"method": "rhf"
			},
			{
				"type": "unocc",
				"energy": -0.00731,
				"method": "rhf"
			},
			{
				"type": "unocc",
				"energy": 0.02321,
				"method": "rhf"
			}
		],
		"cosmo_sigma_profile": { 
			"-0.025": 0.0,
			"-0.024": 0.0,
			"-0.023": 0.0,
			"-0.022": 0.0,
			"-0.021": 0.0,
			"-0.02": 0.0,
			"-0.019": 0.0,
			"-0.018": 0.0,
			"-0.017": 0.0,
			"-0.016": 0.0,
			"-0.015": 0.440723803641,
			"-0.014": 1.10019796549,
			"-0.013": 0.906600907894,
			"-0.012": 1.06369793914,
			"-0.011": 0.617208128443,
			"-0.01": 1.36489901166,
			"-0.009": 3.18699729272,
			"-0.008": 3.92615000483,
			"-0.007": 6.2913207245,
			"-0.006": 10.8029736068,
			"-0.005": 16.4278496028,
			"-0.004": 23.7190503567,
			"-0.003": 26.2260023586,
			"-0.002": 21.4752864713,
			"-0.001": 22.653979128,
			"0.0": 21.1607690263,
			"0.001": 17.7943353834,
			"0.002": 15.4914938681,
			"0.003": 19.1762826308,
			"0.004": 15.7079769213,
			"0.005": 12.447257128,
			"0.006": 6.76281000782,
			"0.007": 4.55677692999,
			"0.008": 3.16608555319,
			"0.009": 4.38962898026,
			"0.01": 3.2897197682,
			"0.011": 3.77273067064,
			"0.012": 5.07504145412,
			"0.013": 3.61090635135,
			"0.014": 0.377968783818,
			"0.015": 0.0,
			"0.016": 0.0,
			"0.017": 0.0,
			"0.018": 0.0,
			"0.019": 0.0,
			"0.02": 0.0,
			"0.021": 0.0,
			"0.022": 0.0,
			"0.023": 0.0,
			"0.024": 0.0,
			"0.025": 0.0
		}
	}
}
