{
	 "smiles": "CC(C)(C)C1=CC=C(C=C1)C(O)=O", 
	 "Tm": 438.15, 
	 "num_atms": 27, 
	 "gaussian": { 
		 "optdone": 1, 
		 "sigma_profile": "yes", 
		 "theory": "DFT", 
		 "functional": "B3LYP", 
		 "basiset": "6-31G**", 
		 "properties": { 
			 "R2extent": 3940.6406, 
			 "electric_dipole_moment_norm": 5.34253787726, 
			 "electric_quadrupole_moment_norm": 25.4345190782, 
			 "total_energy": -578.079976621, 
			 "HOMO_LUMO_gap": 0.20891, 
			 "cosmo_polarized_energy": -13.49, 
			 "cosmo_cavitation_energy": 29.27, 
			 "cosmo_dispersion_energy": -20.98, 
			 "cosmo_repulsion_energy": 1.64, 
			 "cosmo_total_nonelectrostatic_energy": 9.93, 
			 "SMD_solvation_energy": 6.31 
		},
		"coords": [
			{
				"x": 1.6060555963,
				"y": 0.608674834,
				"z": 0.9224131672,
				"element": "C" 
			},
			{
				"x": 0.8044364332,
				"y": -0.686996574,
				"z": 0.6499168695,
				"element": "C" 
			},
			{
				"x": 1.7208109648,
				"y": -1.721238919,
				"z": -0.0472525849,
				"element": "C" 
			},
			{
				"x": 0.3601610285,
				"y": -1.2721263071,
				"z": 2.0038579735,
				"element": "C" 
			},
			{
				"x": -0.3873107078,
				"y": -0.3629381118,
				"z": -0.2674773217,
				"element": "C" 
			},
			{
				"x": -1.7186702636,
				"y": -0.590939804,
				"z": 0.1068099601,
				"element": "C" 
			},
			{
				"x": -2.7772355968,
				"y": -0.2785917033,
				"z": -0.7475242351,
				"element": "C" 
			},
			{
				"x": -2.5373650987,
				"y": 0.2729614129,
				"z": -2.0106148631,
				"element": "C" 
			},
			{
				"x": -1.2090785707,
				"y": 0.48445147,
				"z": -2.4059677963,
				"element": "C" 
			},
			{
				"x": -0.1615759029,
				"y": 0.1802103504,
				"z": -1.546804569,
				"element": "C" 
			},
			{
				"x": -3.622772252,
				"y": 0.6178063987,
				"z": -2.982585115,
				"element": "C" 
			},
			{
				"x": -4.8738619979,
				"y": 0.783501083,
				"z": -2.471350062,
				"element": "O" 
			},
			{
				"x": -3.4358872213,
				"y": 0.7525450642,
				"z": -4.1694362251,
				"element": "O" 
			},
			{
				"x": 0.9834304706,
				"y": 1.3581113415,
				"z": 1.4219633319,
				"element": "H" 
			},
			{
				"x": 1.9894144584,
				"y": 1.0538625548,
				"z": -0.0003016269,
				"element": "H" 
			},
			{
				"x": 2.4636113268,
				"y": 0.3937929235,
				"z": 1.5694828059,
				"element": "H" 
			},
			{
				"x": 2.1094726841,
				"y": -1.3473495007,
				"z": -0.9989218798,
				"element": "H" 
			},
			{
				"x": 1.1801957625,
				"y": -2.6516216865,
				"z": -0.2492308546,
				"element": "H" 
			},
			{
				"x": 2.5782652146,
				"y": -1.9583699683,
				"z": 0.5921581112,
				"element": "H" 
			},
			{
				"x": 1.2404280751,
				"y": -1.4816673615,
				"z": 2.619625402,
				"element": "H" 
			},
			{
				"x": -0.273096667,
				"y": -0.5749133956,
				"z": 2.5624453862,
				"element": "H" 
			},
			{
				"x": -0.1872629916,
				"y": -2.2127236937,
				"z": 1.8829856553,
				"element": "H" 
			},
			{
				"x": -1.9479130386,
				"y": -1.0250244288,
				"z": 1.0726759221,
				"element": "H" 
			},
			{
				"x": -3.7891624275,
				"y": -0.5121700845,
				"z": -0.4232108705,
				"element": "H" 
			},
			{
				"x": -1.0227190185,
				"y": 0.8915769058,
				"z": -3.3940571835,
				"element": "H" 
			},
			{
				"x": 0.8543900751,
				"y": 0.3667053441,
				"z": -1.880973152,
				"element": "H" 
			},
			{
				"x": -4.8365603351,
				"y": 0.8063718556,
				"z": -1.5053262455,
				"element": "H" 
			}
		],
		 "valence_orbital": [ 
			{
				"type": "occ",
				"energy": -0.32819,
				"method": "rhf"
			},
			{
				"type": "occ",
				"energy": -0.31155,
				"method": "rhf"
			},
			{
				"type": "occ",
				"energy": -0.27147,
				"method": "rhf"
			},
			{
				"type": "occ",
				"energy": -0.26564,
				"method": "rhf"
			},
			{
				"type": "occ",
				"energy": -0.2558,
				"method": "rhf"
			},
			{
				"type": "unocc",
				"energy": -0.04689,
				"method": "rhf"
			},
			{
				"type": "unocc",
				"energy": -0.01791,
				"method": "rhf"
			},
			{
				"type": "unocc",
				"energy": 0.05044,
				"method": "rhf"
			},
			{
				"type": "unocc",
				"energy": 0.06416,
				"method": "rhf"
			},
			{
				"type": "unocc",
				"energy": 0.07396,
				"method": "rhf"
			}
		],
		"cosmo_sigma_profile": { 
			"-0.025": 0.0,
			"-0.024": 0.0,
			"-0.023": 0.0,
			"-0.022": 0.0,
			"-0.021": 0.0,
			"-0.02": 0.0,
			"-0.019": 0.112880702078,
			"-0.018": 0.632312023178,
			"-0.017": 0.925137818053,
			"-0.016": 1.3136252603,
			"-0.015": 0.810691610702,
			"-0.014": 0.756572571458,
			"-0.013": 0.675466755218,
			"-0.012": 1.35966003171,
			"-0.011": 1.08580050501,
			"-0.01": 1.17181214091,
			"-0.009": 1.06281952317,
			"-0.008": 1.61480915006,
			"-0.007": 1.97001116522,
			"-0.006": 6.30061102159,
			"-0.005": 9.40318767203,
			"-0.004": 10.4178382168,
			"-0.003": 24.3658695858,
			"-0.002": 25.9898720886,
			"-0.001": 22.6579134885,
			"0.0": 22.1566616523,
			"0.001": 27.7012666276,
			"0.002": 13.7220668399,
			"0.003": 10.926636772,
			"0.004": 12.0177814259,
			"0.005": 2.12701903384,
			"0.006": 2.94363683465,
			"0.007": 2.76672706376,
			"0.008": 2.58374898333,
			"0.009": 2.82906919177,
			"0.01": 4.48286725065,
			"0.011": 5.28167464032,
			"0.012": 5.57741261683,
			"0.013": 2.10769324876,
			"0.014": 0.183275417913,
			"0.015": 0.0,
			"0.016": 0.0,
			"0.017": 0.0,
			"0.018": 0.0,
			"0.019": 0.0,
			"0.02": 0.0,
			"0.021": 0.0,
			"0.022": 0.0,
			"0.023": 0.0,
			"0.024": 0.0,
			"0.025": 0.0
		}
	}
}
