{
	 "smiles": "NNC(=O)C1=CC=C(Br)C=C1", 
	 "Tm": 440.15, 
	 "num_atms": 18, 
	 "gaussian": { 
		 "optdone": 1, 
		 "sigma_profile": "yes", 
		 "theory": "DFT", 
		 "functional": "B3LYP", 
		 "basiset": "6-31G**", 
		 "properties": { 
			 "R2extent": 4051.6706, 
			 "electric_dipole_moment_norm": 2.71116423885, 
			 "electric_quadrupole_moment_norm": 10.787301695, 
			 "total_energy": -3027.06832856, 
			 "HOMO_LUMO_gap": 0.19674, 
			 "cosmo_polarized_energy": -13.76, 
			 "cosmo_cavitation_energy": 24.91, 
			 "cosmo_dispersion_energy": -18.65, 
			 "cosmo_repulsion_energy": 1.51, 
			 "cosmo_total_nonelectrostatic_energy": 7.78, 
			 "SMD_solvation_energy": 4.23 
		},
		"coords": [
			{
				"x": 2.397102153,
				"y": 0.5969895707,
				"z": 1.9323642976,
				"element": "N" 
			},
			{
				"x": 2.955871704,
				"y": -0.6061544905,
				"z": 1.447060061,
				"element": "N" 
			},
			{
				"x": 2.3302416108,
				"y": -1.5178447455,
				"z": 0.6176702215,
				"element": "C" 
			},
			{
				"x": 2.645208204,
				"y": -2.7014861766,
				"z": 0.6501875992,
				"element": "O" 
			},
			{
				"x": 1.2766854607,
				"y": -1.0181174629,
				"z": -0.3302889199,
				"element": "C" 
			},
			{
				"x": 1.3587142167,
				"y": 0.2074724733,
				"z": -1.0058187183,
				"element": "C" 
			},
			{
				"x": 0.385151142,
				"y": 0.5767915274,
				"z": -1.9330745343,
				"element": "C" 
			},
			{
				"x": -0.6838388825,
				"y": -0.2854276081,
				"z": -2.1745362353,
				"element": "C" 
			},
			{
				"x": -2.0320807518,
				"y": 0.2238926834,
				"z": -3.4260710195,
				"element": "Br" 
			},
			{
				"x": -0.779795203,
				"y": -1.5166632735,
				"z": -1.5254487776,
				"element": "C" 
			},
			{
				"x": 0.2105154068,
				"y": -1.8813401,
				"z": -0.6171437543,
				"element": "C" 
			},
			{
				"x": 1.3880510985,
				"y": 0.509097533,
				"z": 2.0246413326,
				"element": "H" 
			},
			{
				"x": 2.5911211397,
				"y": 1.3545747609,
				"z": 1.284829734,
				"element": "H" 
			},
			{
				"x": 3.5738163271,
				"y": -1.0564484416,
				"z": 2.1125635513,
				"element": "H" 
			},
			{
				"x": 2.2045441752,
				"y": 0.8674788644,
				"z": -0.8427402358,
				"element": "H" 
			},
			{
				"x": 0.4577312702,
				"y": 1.5181195078,
				"z": -2.4655774697,
				"element": "H" 
			},
			{
				"x": -1.6103723048,
				"y": -2.1807221318,
				"z": -1.7354043802,
				"element": "H" 
			},
			{
				"x": 0.1745332333,
				"y": -2.8465124904,
				"z": -0.1230127522,
				"element": "H" 
			}
		],
		 "valence_orbital": [ 
			{
				"type": "occ",
				"energy": -0.29639,
				"method": "rhf"
			},
			{
				"type": "occ",
				"energy": -0.27669,
				"method": "rhf"
			},
			{
				"type": "occ",
				"energy": -0.26358,
				"method": "rhf"
			},
			{
				"type": "occ",
				"energy": -0.2594,
				"method": "rhf"
			},
			{
				"type": "occ",
				"energy": -0.24692,
				"method": "rhf"
			},
			{
				"type": "unocc",
				"energy": -0.05018,
				"method": "rhf"
			},
			{
				"type": "unocc",
				"energy": -0.02641,
				"method": "rhf"
			},
			{
				"type": "unocc",
				"energy": -0.00216,
				"method": "rhf"
			},
			{
				"type": "unocc",
				"energy": 0.03432,
				"method": "rhf"
			},
			{
				"type": "unocc",
				"energy": 0.06355,
				"method": "rhf"
			}
		],
		"cosmo_sigma_profile": { 
			"-0.025": 0.0,
			"-0.024": 0.0,
			"-0.023": 0.0,
			"-0.022": 0.0,
			"-0.021": 0.0,
			"-0.02": 0.0,
			"-0.019": 0.0,
			"-0.018": 0.0,
			"-0.017": 0.0,
			"-0.016": 0.0,
			"-0.015": 0.0,
			"-0.014": 0.0419643368024,
			"-0.013": 0.731879233068,
			"-0.012": 3.41820243895,
			"-0.011": 3.87186449408,
			"-0.01": 4.22729406456,
			"-0.009": 4.00951399896,
			"-0.008": 4.60877928387,
			"-0.007": 8.35218429574,
			"-0.006": 10.2254771866,
			"-0.005": 9.70535067683,
			"-0.004": 9.39670651263,
			"-0.003": 9.68616275818,
			"-0.002": 10.2823971618,
			"-0.001": 10.7295762958,
			"0.0": 12.0682416451,
			"0.001": 16.9649267087,
			"0.002": 21.040614988,
			"0.003": 16.3178740421,
			"0.004": 15.4742378892,
			"0.005": 5.07495553817,
			"0.006": 2.48531486403,
			"0.007": 2.62519920719,
			"0.008": 1.41257603177,
			"0.009": 1.92749212428,
			"0.01": 1.76960954387,
			"0.011": 2.94601681528,
			"0.012": 3.4911654223,
			"0.013": 5.85635135997,
			"0.014": 2.04178463835,
			"0.015": 0.919336279231,
			"0.016": 0.254930803592,
			"0.017": 0.0,
			"0.018": 0.0,
			"0.019": 0.0,
			"0.02": 0.0,
			"0.021": 0.0,
			"0.022": 0.0,
			"0.023": 0.0,
			"0.024": 0.0,
			"0.025": 0.0
		}
	}
}
