{
	 "smiles": "CSC(SC)=NS(=O)(=O)C1=CC=C(Br)C=C1", 
	 "Tm": 375.15, 
	 "num_atms": 26, 
	 "gaussian": { 
		 "optdone": 1, 
		 "sigma_profile": "yes", 
		 "theory": "DFT", 
		 "functional": "B3LYP", 
		 "basiset": "6-31G**", 
		 "properties": { 
			 "R2extent": 10298.9244, 
			 "electric_dipole_moment_norm": 2.37401589295, 
			 "electric_quadrupole_moment_norm": 6.70804083694, 
			 "total_energy": -4320.06537619, 
			 "HOMO_LUMO_gap": 0.1971, 
			 "cosmo_polarized_energy": -12.07, 
			 "cosmo_cavitation_energy": 37.12, 
			 "cosmo_dispersion_energy": -27.49, 
			 "cosmo_repulsion_energy": 2.03, 
			 "cosmo_total_nonelectrostatic_energy": 11.67, 
			 "SMD_solvation_energy": 4.51 
		},
		"coords": [
			{
				"x": 0.6918115279,
				"y": -2.525547946,
				"z": 2.564258218,
				"element": "C" 
			},
			{
				"x": -0.3695703464,
				"y": -1.0543456055,
				"z": 2.8175886642,
				"element": "S" 
			},
			{
				"x": -0.748540154,
				"y": -0.3972175706,
				"z": 1.2101775494,
				"element": "C" 
			},
			{
				"x": -2.2954960641,
				"y": 0.4724410859,
				"z": 1.3487341633,
				"element": "S" 
			},
			{
				"x": -2.2946793696,
				"y": 1.4520249254,
				"z": -0.1899004984,
				"element": "C" 
			},
			{
				"x": -0.1604057397,
				"y": -0.4087323094,
				"z": 0.0658058119,
				"element": "N" 
			},
			{
				"x": 1.3719043641,
				"y": -1.0280736733,
				"z": -0.2699133941,
				"element": "S" 
			},
			{
				"x": 2.3480611959,
				"y": -0.6317722991,
				"z": 0.7566414876,
				"element": "O" 
			},
			{
				"x": 1.2331871719,
				"y": -2.4404010553,
				"z": -0.6489774057,
				"element": "O" 
			},
			{
				"x": 1.7312970149,
				"y": -0.0898900301,
				"z": -1.7528018128,
				"element": "C" 
			},
			{
				"x": 1.2437711107,
				"y": -0.539192871,
				"z": -2.9810428337,
				"element": "C" 
			},
			{
				"x": 1.5343780902,
				"y": 0.1839556716,
				"z": -4.13606656,
				"element": "C" 
			},
			{
				"x": 2.3118320961,
				"y": 1.3395197229,
				"z": -4.0387038011,
				"element": "C" 
			},
			{
				"x": 2.7090280975,
				"y": 2.3299632107,
				"z": -5.6196485862,
				"element": "Br" 
			},
			{
				"x": 2.8104177329,
				"y": 1.7823680257,
				"z": -2.8134451679,
				"element": "C" 
			},
			{
				"x": 2.517306168,
				"y": 1.0582352408,
				"z": -1.6581617942,
				"element": "C" 
			},
			{
				"x": 0.5656324695,
				"y": -3.1095910087,
				"z": 3.4785920186,
				"element": "H" 
			},
			{
				"x": 1.731077482,
				"y": -2.2302023136,
				"z": 2.4339678355,
				"element": "H" 
			},
			{
				"x": 0.353530168,
				"y": -3.1068360452,
				"z": 1.7067582655,
				"element": "H" 
			},
			{
				"x": -3.2055721721,
				"y": 2.0535692771,
				"z": -0.1561860691,
				"element": "H" 
			},
			{
				"x": -2.3084042719,
				"y": 0.7938601128,
				"z": -1.0582646867,
				"element": "H" 
			},
			{
				"x": -1.4187238093,
				"y": 2.1005753736,
				"z": -0.2300027708,
				"element": "H" 
			},
			{
				"x": 0.65727742,
				"y": -1.4499382632,
				"z": -3.0320656222,
				"element": "H" 
			},
			{
				"x": 1.168027143,
				"y": -0.1473280534,
				"z": -5.1007288578,
				"element": "H" 
			},
			{
				"x": 3.4218986239,
				"y": 2.6757482555,
				"z": -2.7634763869,
				"element": "H" 
			},
			{
				"x": 2.9035540504,
				"y": 1.3701081422,
				"z": -0.6940377665,
				"element": "H" 
			}
		],
		 "valence_orbital": [ 
			{
				"type": "occ",
				"energy": -0.28293,
				"method": "rhf"
			},
			{
				"type": "occ",
				"energy": -0.28109,
				"method": "rhf"
			},
			{
				"type": "occ",
				"energy": -0.26313,
				"method": "rhf"
			},
			{
				"type": "occ",
				"energy": -0.25689,
				"method": "rhf"
			},
			{
				"type": "occ",
				"energy": -0.25493,
				"method": "rhf"
			},
			{
				"type": "unocc",
				"energy": -0.05783,
				"method": "rhf"
			},
			{
				"type": "unocc",
				"energy": -0.04034,
				"method": "rhf"
			},
			{
				"type": "unocc",
				"energy": -0.03142,
				"method": "rhf"
			},
			{
				"type": "unocc",
				"energy": -0.00612,
				"method": "rhf"
			},
			{
				"type": "unocc",
				"energy": 0.00234,
				"method": "rhf"
			}
		],
		"cosmo_sigma_profile": { 
			"-0.025": 0.0,
			"-0.024": 0.0,
			"-0.023": 0.0,
			"-0.022": 0.0,
			"-0.021": 0.0,
			"-0.02": 0.0,
			"-0.019": 0.0,
			"-0.018": 0.0,
			"-0.017": 0.0,
			"-0.016": 0.0,
			"-0.015": 0.0,
			"-0.014": 0.0,
			"-0.013": 0.0,
			"-0.012": 0.0,
			"-0.011": 0.0,
			"-0.01": 0.0,
			"-0.009": 0.306869570054,
			"-0.008": 8.98623490271,
			"-0.007": 13.507020059,
			"-0.006": 14.3500333557,
			"-0.005": 16.4832775873,
			"-0.004": 18.8977255513,
			"-0.003": 23.0935682346,
			"-0.002": 21.6682965501,
			"-0.001": 18.0627072008,
			"0.0": 25.5221866614,
			"0.001": 34.180282528,
			"0.002": 24.9093772216,
			"0.003": 22.0277042176,
			"0.004": 21.9103313693,
			"0.005": 10.9130105848,
			"0.006": 6.21218632115,
			"0.007": 4.08025497037,
			"0.008": 3.36996408871,
			"0.009": 4.39942281486,
			"0.01": 7.81708378692,
			"0.011": 3.63237643211,
			"0.012": 0.0970734877375,
			"0.013": 0.0,
			"0.014": 0.0,
			"0.015": 0.0,
			"0.016": 0.0,
			"0.017": 0.0,
			"0.018": 0.0,
			"0.019": 0.0,
			"0.02": 0.0,
			"0.021": 0.0,
			"0.022": 0.0,
			"0.023": 0.0,
			"0.024": 0.0,
			"0.025": 0.0
		}
	}
}
