{
	 "smiles": "COC(C#N)C1=CC=C(C=C1)[N+]([O-])=O", 
	 "Tm": 316.15, 
	 "num_atms": 22, 
	 "gaussian": { 
		 "optdone": 1, 
		 "sigma_profile": "yes", 
		 "theory": "DFT", 
		 "functional": "B3LYP", 
		 "basiset": "6-31G**", 
		 "properties": { 
			 "R2extent": 4709.7029, 
			 "electric_dipole_moment_norm": 5.14699646882, 
			 "electric_quadrupole_moment_norm": 21.0662131946, 
			 "total_energy": -682.80936064, 
			 "HOMO_LUMO_gap": 0.19046, 
			 "cosmo_polarized_energy": -14.32, 
			 "cosmo_cavitation_energy": 28.39, 
			 "cosmo_dispersion_energy": -19.85, 
			 "cosmo_repulsion_energy": 1.57, 
			 "cosmo_total_nonelectrostatic_energy": 10.12, 
			 "SMD_solvation_energy": 9.11 
		},
		"coords": [
			{
				"x": 2.0935007324,
				"y": -0.447481853,
				"z": 1.5394281982,
				"element": "C" 
			},
			{
				"x": 0.7752250045,
				"y": -0.4897592555,
				"z": 1.0019903906,
				"element": "O" 
			},
			{
				"x": 0.6134299914,
				"y": 0.2384594401,
				"z": -0.1906601859,
				"element": "C" 
			},
			{
				"x": 0.8049659853,
				"y": 1.6975415229,
				"z": 0.0380286051,
				"element": "C" 
			},
			{
				"x": 0.9754148188,
				"y": 2.8293323483,
				"z": 0.2307236552,
				"element": "N" 
			},
			{
				"x": -0.7748179773,
				"y": -0.0259745436,
				"z": -0.7631365581,
				"element": "C" 
			},
			{
				"x": -1.8003696794,
				"y": -0.5049369064,
				"z": 0.0580029042,
				"element": "C" 
			},
			{
				"x": -3.0681229491,
				"y": -0.7349512284,
				"z": -0.4711584233,
				"element": "C" 
			},
			{
				"x": -3.2892873768,
				"y": -0.4743830744,
				"z": -1.8211548102,
				"element": "C" 
			},
			{
				"x": -2.2839096368,
				"y": 0.0065751784,
				"z": -2.6575932729,
				"element": "C" 
			},
			{
				"x": -1.0209822278,
				"y": 0.2281691437,
				"z": -2.1177541182,
				"element": "C" 
			},
			{
				"x": -4.6279871429,
				"y": -0.7189144445,
				"z": -2.3856735323,
				"element": "N" 
			},
			{
				"x": -4.7925445716,
				"y": -0.4836331718,
				"z": -3.5818373455,
				"element": "O" 
			},
			{
				"x": -5.4971549393,
				"y": -1.1434457758,
				"z": -1.6261208918,
				"element": "O" 
			},
			{
				"x": 2.0831381472,
				"y": -1.0818856725,
				"z": 2.4267228956,
				"element": "H" 
			},
			{
				"x": 2.3810113655,
				"y": 0.5722052322,
				"z": 1.8249380743,
				"element": "H" 
			},
			{
				"x": 2.8270539041,
				"y": -0.8405665281,
				"z": 0.8212484388,
				"element": "H" 
			},
			{
				"x": 1.3700467086,
				"y": -0.0636432652,
				"z": -0.9351558017,
				"element": "H" 
			},
			{
				"x": -1.5968601473,
				"y": -0.7054176237,
				"z": 1.1027505517,
				"element": "H" 
			},
			{
				"x": -3.8804599349,
				"y": -1.1088360756,
				"z": 0.1392530265,
				"element": "H" 
			},
			{
				"x": -2.5005798308,
				"y": 0.1921403294,
				"z": -3.7018724761,
				"element": "H" 
			},
			{
				"x": -0.2247102439,
				"y": 0.6015062234,
				"z": -2.7557693242,
				"element": "H" 
			}
		],
		 "valence_orbital": [ 
			{
				"type": "occ",
				"energy": -0.31257,
				"method": "rhf"
			},
			{
				"type": "occ",
				"energy": -0.30535,
				"method": "rhf"
			},
			{
				"type": "occ",
				"energy": -0.29655,
				"method": "rhf"
			},
			{
				"type": "occ",
				"energy": -0.28856,
				"method": "rhf"
			},
			{
				"type": "occ",
				"energy": -0.28711,
				"method": "rhf"
			},
			{
				"type": "unocc",
				"energy": -0.09665,
				"method": "rhf"
			},
			{
				"type": "unocc",
				"energy": -0.03904,
				"method": "rhf"
			},
			{
				"type": "unocc",
				"energy": -0.01767,
				"method": "rhf"
			},
			{
				"type": "unocc",
				"energy": 0.00429,
				"method": "rhf"
			},
			{
				"type": "unocc",
				"energy": 0.02461,
				"method": "rhf"
			}
		],
		"cosmo_sigma_profile": { 
			"-0.025": 0.0,
			"-0.024": 0.0,
			"-0.023": 0.0,
			"-0.022": 0.0,
			"-0.021": 0.0,
			"-0.02": 0.0,
			"-0.019": 0.0,
			"-0.018": 0.0,
			"-0.017": 0.0,
			"-0.016": 0.0,
			"-0.015": 0.0,
			"-0.014": 0.0,
			"-0.013": 0.0,
			"-0.012": 0.0966050324494,
			"-0.011": 1.1007471838,
			"-0.01": 3.0371895309,
			"-0.009": 4.72440673804,
			"-0.008": 6.12824969641,
			"-0.007": 9.42404994423,
			"-0.006": 12.2869433295,
			"-0.005": 13.7071434057,
			"-0.004": 17.8070764358,
			"-0.003": 17.3286752005,
			"-0.002": 14.6590013711,
			"-0.001": 15.455848682,
			"0.0": 19.2415961243,
			"0.001": 15.560227801,
			"0.002": 8.49252102692,
			"0.003": 6.67846001837,
			"0.004": 6.96734411462,
			"0.005": 7.48222864257,
			"0.006": 6.36044155568,
			"0.007": 13.59066493,
			"0.008": 10.7405216786,
			"0.009": 7.55205369799,
			"0.01": 4.90368246741,
			"0.011": 2.54903465901,
			"0.012": 2.00896029125,
			"0.013": 0.24195987482,
			"0.014": 0.0,
			"0.015": 0.0,
			"0.016": 0.0,
			"0.017": 0.0,
			"0.018": 0.0,
			"0.019": 0.0,
			"0.02": 0.0,
			"0.021": 0.0,
			"0.022": 0.0,
			"0.023": 0.0,
			"0.024": 0.0,
			"0.025": 0.0
		}
	}
}
