{
	 "smiles": "COC1=CC=C(Br)C=C1S(Cl)(=O)=O", 
	 "Tm": 386.65, 
	 "num_atms": 19, 
	 "gaussian": { 
		 "optdone": 1, 
		 "sigma_profile": "yes", 
		 "theory": "DFT", 
		 "functional": "B3LYP", 
		 "basiset": "6-31G**", 
		 "properties": { 
			 "R2extent": 5501.6389, 
			 "electric_dipole_moment_norm": 6.24056532215, 
			 "electric_quadrupole_moment_norm": 10.5630389922, 
			 "total_energy": -3925.72753791, 
			 "HOMO_LUMO_gap": 0.16262, 
			 "cosmo_polarized_energy": -12.08, 
			 "cosmo_cavitation_energy": 29.16, 
			 "cosmo_dispersion_energy": -21.94, 
			 "cosmo_repulsion_energy": 1.71, 
			 "cosmo_total_nonelectrostatic_energy": 8.92, 
			 "SMD_solvation_energy": 3.44 
		},
		"coords": [
			{
				"x": -1.8557932935,
				"y": -1.7299627475,
				"z": 0.8999558135,
				"element": "C" 
			},
			{
				"x": -0.906010214,
				"y": -0.7166851428,
				"z": 1.2205467538,
				"element": "O" 
			},
			{
				"x": -0.1749964743,
				"y": -0.1659656952,
				"z": 0.2350468298,
				"element": "C" 
			},
			{
				"x": -0.2553298621,
				"y": -0.5223449842,
				"z": -1.1185428913,
				"element": "C" 
			},
			{
				"x": 0.5613835986,
				"y": 0.0946647743,
				"z": -2.0647712974,
				"element": "C" 
			},
			{
				"x": 1.4748745714,
				"y": 1.0734606274,
				"z": -1.677695089,
				"element": "C" 
			},
			{
				"x": 2.5868099843,
				"y": 1.9059396085,
				"z": -2.9816580744,
				"element": "Br" 
			},
			{
				"x": 1.5795567776,
				"y": 1.4483054852,
				"z": -0.3416719276,
				"element": "C" 
			},
			{
				"x": 0.7531508734,
				"y": 0.8339416748,
				"z": 0.5986794341,
				"element": "C" 
			},
			{
				"x": 0.8875513463,
				"y": 1.4113320779,
				"z": 2.2875304487,
				"element": "S" 
			},
			{
				"x": 1.7031124372,
				"y": -0.2974654723,
				"z": 3.2621947364,
				"element": "Cl" 
			},
			{
				"x": -0.4283174609,
				"y": 1.6385314945,
				"z": 2.8658802985,
				"element": "O" 
			},
			{
				"x": 1.9275553108,
				"y": 2.4327467096,
				"z": 2.3339617935,
				"element": "O" 
			},
			{
				"x": -2.6245297726,
				"y": -1.3504079125,
				"z": 0.2172748392,
				"element": "H" 
			},
			{
				"x": -1.3676627023,
				"y": -2.6065301232,
				"z": 0.4586897083,
				"element": "H" 
			},
			{
				"x": -2.3158106768,
				"y": -2.0074992052,
				"z": 1.8477646896,
				"element": "H" 
			},
			{
				"x": -0.9536200251,
				"y": -1.2843639121,
				"z": -1.4414912805,
				"element": "H" 
			},
			{
				"x": 0.4861148237,
				"y": -0.1924243212,
				"z": -3.1075312859,
				"element": "H" 
			},
			{
				"x": 2.2833607585,
				"y": 2.2056270642,
				"z": -0.0202634992,
				"element": "H" 
			}
		],
		 "valence_orbital": [ 
			{
				"type": "occ",
				"energy": -0.31426,
				"method": "rhf"
			},
			{
				"type": "occ",
				"energy": -0.30883,
				"method": "rhf"
			},
			{
				"type": "occ",
				"energy": -0.30332,
				"method": "rhf"
			},
			{
				"type": "occ",
				"energy": -0.29708,
				"method": "rhf"
			},
			{
				"type": "occ",
				"energy": -0.24941,
				"method": "rhf"
			},
			{
				"type": "unocc",
				"energy": -0.08679,
				"method": "rhf"
			},
			{
				"type": "unocc",
				"energy": -0.05188,
				"method": "rhf"
			},
			{
				"type": "unocc",
				"energy": -0.03227,
				"method": "rhf"
			},
			{
				"type": "unocc",
				"energy": -0.00912,
				"method": "rhf"
			},
			{
				"type": "unocc",
				"energy": 0.04633,
				"method": "rhf"
			}
		],
		"cosmo_sigma_profile": { 
			"-0.025": 0.0,
			"-0.024": 0.0,
			"-0.023": 0.0,
			"-0.022": 0.0,
			"-0.021": 0.0,
			"-0.02": 0.0,
			"-0.019": 0.0,
			"-0.018": 0.0,
			"-0.017": 0.0,
			"-0.016": 0.0,
			"-0.015": 0.0,
			"-0.014": 0.0,
			"-0.013": 0.0,
			"-0.012": 0.0,
			"-0.011": 0.0,
			"-0.01": 0.0,
			"-0.009": 2.51170684004,
			"-0.008": 6.32744733494,
			"-0.007": 12.22284767,
			"-0.006": 12.69342406,
			"-0.005": 13.5460483315,
			"-0.004": 15.6574342809,
			"-0.003": 11.7804887326,
			"-0.002": 14.2565725671,
			"-0.001": 20.960184793,
			"0.0": 20.1813221756,
			"0.001": 18.8690663345,
			"0.002": 14.5847803998,
			"0.003": 21.1198042591,
			"0.004": 19.4555440471,
			"0.005": 6.29998815019,
			"0.006": 5.0847331282,
			"0.007": 6.03085433942,
			"0.008": 10.5452878677,
			"0.009": 6.81338260984,
			"0.01": 1.05041366758,
			"0.011": 0.0,
			"0.012": 0.0,
			"0.013": 0.0,
			"0.014": 0.0,
			"0.015": 0.0,
			"0.016": 0.0,
			"0.017": 0.0,
			"0.018": 0.0,
			"0.019": 0.0,
			"0.02": 0.0,
			"0.021": 0.0,
			"0.022": 0.0,
			"0.023": 0.0,
			"0.024": 0.0,
			"0.025": 0.0
		}
	}
}
