{
	 "smiles": "FC1=CC=C(NC(=O)OCC(F)(F)F)C=C1", 
	 "Tm": 351.15, 
	 "num_atms": 23, 
	 "gaussian": { 
		 "optdone": 1, 
		 "sigma_profile": "yes", 
		 "theory": "DFT", 
		 "functional": "B3LYP", 
		 "basiset": "6-31G**", 
		 "properties": { 
			 "R2extent": 4993.9177, 
			 "electric_dipole_moment_norm": 1.59582126819, 
			 "electric_quadrupole_moment_norm": 10.8683831567, 
			 "total_energy": -951.753351357, 
			 "HOMO_LUMO_gap": 0.20824, 
			 "cosmo_polarized_energy": -10.8, 
			 "cosmo_cavitation_energy": 30.24, 
			 "cosmo_dispersion_energy": -20.91, 
			 "cosmo_repulsion_energy": 1.55, 
			 "cosmo_total_nonelectrostatic_energy": 10.87, 
			 "SMD_solvation_energy": 7.94 
		},
		"coords": [
			{
				"x": -5.1620894901,
				"y": 0.1028629204,
				"z": 2.8370288854,
				"element": "F" 
			},
			{
				"x": -4.188688017,
				"y": 0.0004918866,
				"z": 1.9077606059,
				"element": "C" 
			},
			{
				"x": -2.8950570299,
				"y": -0.3089652372,
				"z": 2.309125861,
				"element": "C" 
			},
			{
				"x": -1.8852211762,
				"y": -0.4237755007,
				"z": 1.3550120077,
				"element": "C" 
			},
			{
				"x": -2.1752424261,
				"y": -0.2058991366,
				"z": -0.0001570402,
				"element": "C" 
			},
			{
				"x": -1.2185719233,
				"y": -0.339311619,
				"z": -1.0387195066,
				"element": "N" 
			},
			{
				"x": 0.1398100613,
				"y": -0.1779627507,
				"z": -1.0587518278,
				"element": "C" 
			},
			{
				"x": 0.8224955251,
				"y": -0.3510983555,
				"z": -2.0485592997,
				"element": "O" 
			},
			{
				"x": 0.6231697719,
				"y": 0.2251609878,
				"z": 0.1545866138,
				"element": "O" 
			},
			{
				"x": 2.0382969568,
				"y": 0.2411246402,
				"z": 0.2904736312,
				"element": "C" 
			},
			{
				"x": 2.4677404248,
				"y": -0.9688032481,
				"z": 1.1024055956,
				"element": "C" 
			},
			{
				"x": 2.1597169475,
				"y": -2.1188723493,
				"z": 0.4765025272,
				"element": "F" 
			},
			{
				"x": 1.8660034901,
				"y": -0.9906652053,
				"z": 2.3114618932,
				"element": "F" 
			},
			{
				"x": 3.8002143523,
				"y": -0.9349591136,
				"z": 1.3013874921,
				"element": "F" 
			},
			{
				"x": -3.4891938054,
				"y": 0.1060672131,
				"z": -0.3792777237,
				"element": "C" 
			},
			{
				"x": -4.503344824,
				"y": 0.2046265801,
				"z": 0.5700870519,
				"element": "C" 
			},
			{
				"x": -2.686044901,
				"y": -0.4704998596,
				"z": 3.3610133214,
				"element": "H" 
			},
			{
				"x": -0.8809345653,
				"y": -0.6747423574,
				"z": 1.6666957968,
				"element": "H" 
			},
			{
				"x": -1.5793621177,
				"y": -0.5372257636,
				"z": -1.9612579572,
				"element": "H" 
			},
			{
				"x": 2.5223801625,
				"y": 0.2143152176,
				"z": -0.6871460139,
				"element": "H" 
			},
			{
				"x": 2.3126223469,
				"y": 1.1474358169,
				"z": 0.8335746883,
				"element": "H" 
			},
			{
				"x": -3.7192848945,
				"y": 0.2782917775,
				"z": -1.4273745582,
				"element": "H" 
			},
			{
				"x": -5.5217148687,
				"y": 0.4443034564,
				"z": 0.2849279557,
				"element": "H" 
			}
		],
		 "valence_orbital": [ 
			{
				"type": "occ",
				"energy": -0.32226,
				"method": "rhf"
			},
			{
				"type": "occ",
				"energy": -0.30938,
				"method": "rhf"
			},
			{
				"type": "occ",
				"energy": -0.29618,
				"method": "rhf"
			},
			{
				"type": "occ",
				"energy": -0.26943,
				"method": "rhf"
			},
			{
				"type": "occ",
				"energy": -0.2283,
				"method": "rhf"
			},
			{
				"type": "unocc",
				"energy": -0.02006,
				"method": "rhf"
			},
			{
				"type": "unocc",
				"energy": -0.01258,
				"method": "rhf"
			},
			{
				"type": "unocc",
				"energy": 0.04723,
				"method": "rhf"
			},
			{
				"type": "unocc",
				"energy": 0.06495,
				"method": "rhf"
			},
			{
				"type": "unocc",
				"energy": 0.08577,
				"method": "rhf"
			}
		],
		"cosmo_sigma_profile": { 
			"-0.025": 0.0,
			"-0.024": 0.0,
			"-0.023": 0.0,
			"-0.022": 0.0,
			"-0.021": 0.0,
			"-0.02": 0.0,
			"-0.019": 0.0,
			"-0.018": 0.0,
			"-0.017": 0.0,
			"-0.016": 0.202954931659,
			"-0.015": 1.13266174708,
			"-0.014": 0.977429494861,
			"-0.013": 1.6777573264,
			"-0.012": 0.933527076795,
			"-0.011": 1.2824446891,
			"-0.01": 1.70548691441,
			"-0.009": 4.36464011623,
			"-0.008": 5.64700708754,
			"-0.007": 8.99960629081,
			"-0.006": 9.76208523954,
			"-0.005": 9.23167543822,
			"-0.004": 9.7067714635,
			"-0.003": 11.083839875,
			"-0.002": 12.5495159692,
			"-0.001": 13.5479772378,
			"0.0": 15.6492446208,
			"0.001": 23.8606910805,
			"0.002": 36.876244313,
			"0.003": 32.4319113246,
			"0.004": 18.5112600717,
			"0.005": 7.32339466221,
			"0.006": 1.76344608235,
			"0.007": 1.08972517983,
			"0.008": 1.35417175058,
			"0.009": 1.26328342502,
			"0.01": 2.01536663391,
			"0.011": 2.54267468643,
			"0.012": 4.56489736248,
			"0.013": 0.589443839512,
			"0.014": 0.0,
			"0.015": 0.0,
			"0.016": 0.0,
			"0.017": 0.0,
			"0.018": 0.0,
			"0.019": 0.0,
			"0.02": 0.0,
			"0.021": 0.0,
			"0.022": 0.0,
			"0.023": 0.0,
			"0.024": 0.0,
			"0.025": 0.0
		}
	}
}
