{
	 "smiles": "CCC(C)(C1=CC=C(O)C=C1)C1=CC=C(O)C=C1", 
	 "Tm": 393.15, 
	 "num_atms": 36, 
	 "gaussian": { 
		 "optdone": 1, 
		 "sigma_profile": "yes", 
		 "theory": "DFT", 
		 "functional": "B3LYP", 
		 "basiset": "6-31G**", 
		 "properties": { 
			 "R2extent": 5468.4685, 
			 "electric_dipole_moment_norm": 1.31570972863, 
			 "electric_quadrupole_moment_norm": 19.9818614185, 
			 "total_energy": -770.998811885, 
			 "HOMO_LUMO_gap": 0.20285, 
			 "cosmo_polarized_energy": -14.42, 
			 "cosmo_cavitation_energy": 37.41, 
			 "cosmo_dispersion_energy": -26.05, 
			 "cosmo_repulsion_energy": 2.02, 
			 "cosmo_total_nonelectrostatic_energy": 13.38, 
			 "SMD_solvation_energy": 7.04 
		},
		"coords": [
			{
				"x": -1.9647503004,
				"y": 2.7186522827,
				"z": 0.5571873369,
				"element": "C" 
			},
			{
				"x": -1.6801539334,
				"y": 1.3551411238,
				"z": -0.0830835149,
				"element": "C" 
			},
			{
				"x": -0.2267979031,
				"y": 1.1401095963,
				"z": -0.6077702901,
				"element": "C" 
			},
			{
				"x": 0.0229213538,
				"y": 2.1118437888,
				"z": -1.7870027303,
				"element": "C" 
			},
			{
				"x": -0.0382396951,
				"y": -0.2927205849,
				"z": -1.1578826885,
				"element": "C" 
			},
			{
				"x": 1.2550034058,
				"y": -0.7368547953,
				"z": -1.4913283246,
				"element": "C" 
			},
			{
				"x": 1.4876692971,
				"y": -1.9923401033,
				"z": -2.0383050725,
				"element": "C" 
			},
			{
				"x": 0.4134914826,
				"y": -2.8599129215,
				"z": -2.269264992,
				"element": "C" 
			},
			{
				"x": 0.6927920032,
				"y": -4.0866022006,
				"z": -2.8061616186,
				"element": "O" 
			},
			{
				"x": -0.8785363646,
				"y": -2.4473045663,
				"z": -1.9441896193,
				"element": "C" 
			},
			{
				"x": -1.0946894105,
				"y": -1.1781384706,
				"z": -1.3977917963,
				"element": "C" 
			},
			{
				"x": 0.7590710053,
				"y": 1.3681643293,
				"z": 0.5554925348,
				"element": "C" 
			},
			{
				"x": 1.6372778961,
				"y": 2.454893979,
				"z": 0.6206959885,
				"element": "C" 
			},
			{
				"x": 2.4933528677,
				"y": 2.6423655148,
				"z": 1.7107579399,
				"element": "C" 
			},
			{
				"x": 2.4838635108,
				"y": 1.736909364,
				"z": 2.7717701407,
				"element": "C" 
			},
			{
				"x": 3.2933446459,
				"y": 1.8617749079,
				"z": 3.867118256,
				"element": "O" 
			},
			{
				"x": 1.6145286233,
				"y": 0.6399645509,
				"z": 2.7293056109,
				"element": "C" 
			},
			{
				"x": 0.7749112354,
				"y": 0.4667389313,
				"z": 1.6362458793,
				"element": "C" 
			},
			{
				"x": -1.3092133122,
				"y": 2.9071173233,
				"z": 1.4118900893,
				"element": "H" 
			},
			{
				"x": -2.9994542551,
				"y": 2.7552409095,
				"z": 0.9136161522,
				"element": "H" 
			},
			{
				"x": -1.8374799283,
				"y": 3.5432696365,
				"z": -0.1512136638,
				"element": "H" 
			},
			{
				"x": -1.9083559571,
				"y": 0.5711754471,
				"z": 0.6486591644,
				"element": "H" 
			},
			{
				"x": -2.3760277478,
				"y": 1.2105155703,
				"z": -0.9188638606,
				"element": "H" 
			},
			{
				"x": -0.1130105287,
				"y": 3.1583519501,
				"z": -1.4990819007,
				"element": "H" 
			},
			{
				"x": -0.6814546726,
				"y": 1.8926832233,
				"z": -2.5950975432,
				"element": "H" 
			},
			{
				"x": 1.0329711541,
				"y": 2.0003604087,
				"z": -2.1911438439,
				"element": "H" 
			},
			{
				"x": 2.1034778273,
				"y": -0.0850303421,
				"z": -1.3035978703,
				"element": "H" 
			},
			{
				"x": 2.4916833975,
				"y": -2.3208838305,
				"z": -2.2868165697,
				"element": "H" 
			},
			{
				"x": -0.1315203682,
				"y": -4.5797894796,
				"z": -2.9073019183,
				"element": "H" 
			},
			{
				"x": -1.7227373479,
				"y": -3.1130965414,
				"z": -2.1144271262,
				"element": "H" 
			},
			{
				"x": -2.1144512768,
				"y": -0.8973092385,
				"z": -1.1613280148,
				"element": "H" 
			},
			{
				"x": 1.671853633,
				"y": 3.1806885579,
				"z": -0.1841728731,
				"element": "H" 
			},
			{
				"x": 3.1671693547,
				"y": 3.4970598438,
				"z": 1.7289072741,
				"element": "H" 
			},
			{
				"x": 3.8406480949,
				"y": 2.651044967,
				"z": 3.7647317185,
				"element": "H" 
			},
			{
				"x": 1.6177551701,
				"y": -0.0650459955,
				"z": 3.5543314677,
				"element": "H" 
			},
			{
				"x": 0.122887043,
				"y": -0.4018371361,
				"z": 1.6123162779,
				"element": "H" 
			}
		],
		 "valence_orbital": [ 
			{
				"type": "occ",
				"energy": -0.30574,
				"method": "rhf"
			},
			{
				"type": "occ",
				"energy": -0.24784,
				"method": "rhf"
			},
			{
				"type": "occ",
				"energy": -0.24422,
				"method": "rhf"
			},
			{
				"type": "occ",
				"energy": -0.21883,
				"method": "rhf"
			},
			{
				"type": "occ",
				"energy": -0.20526,
				"method": "rhf"
			},
			{
				"type": "unocc",
				"energy": -0.00241,
				"method": "rhf"
			},
			{
				"type": "unocc",
				"energy": 0.0057,
				"method": "rhf"
			},
			{
				"type": "unocc",
				"energy": 0.01405,
				"method": "rhf"
			},
			{
				"type": "unocc",
				"energy": 0.02259,
				"method": "rhf"
			},
			{
				"type": "unocc",
				"energy": 0.07342,
				"method": "rhf"
			}
		],
		"cosmo_sigma_profile": { 
			"-0.025": 0.0,
			"-0.024": 0.0,
			"-0.023": 0.0,
			"-0.022": 0.0,
			"-0.021": 0.0,
			"-0.02": 0.0,
			"-0.019": 0.0,
			"-0.018": 0.0841814340738,
			"-0.017": 2.05770585333,
			"-0.016": 1.98223640087,
			"-0.015": 2.63815380304,
			"-0.014": 1.9014761259,
			"-0.013": 1.92839397693,
			"-0.012": 2.44072791933,
			"-0.011": 0.942907774602,
			"-0.01": 1.56259946385,
			"-0.009": 2.90974707206,
			"-0.008": 2.21206434689,
			"-0.007": 2.12970842239,
			"-0.006": 4.76107157921,
			"-0.005": 10.31046566,
			"-0.004": 17.0105756267,
			"-0.003": 25.9712642798,
			"-0.002": 26.7071366579,
			"-0.001": 24.9710071043,
			"0.0": 25.3714966088,
			"0.001": 24.4830414437,
			"0.002": 19.7742237657,
			"0.003": 15.8480462927,
			"0.004": 20.524987895,
			"0.005": 20.4718496301,
			"0.006": 16.0900448118,
			"0.007": 3.13071174382,
			"0.008": 3.71978370079,
			"0.009": 3.18431037741,
			"0.01": 2.89131528568,
			"0.011": 3.92754409611,
			"0.012": 2.40492831015,
			"0.013": 0.0,
			"0.014": 0.0,
			"0.015": 0.0,
			"0.016": 0.0,
			"0.017": 0.0,
			"0.018": 0.0,
			"0.019": 0.0,
			"0.02": 0.0,
			"0.021": 0.0,
			"0.022": 0.0,
			"0.023": 0.0,
			"0.024": 0.0,
			"0.025": 0.0
		}
	}
}
