{
	 "smiles": "OC(=O)C1=CC(=CC(=C1)C(O)=O)C(O)=O", 
	 "Tm": 653.15, 
	 "num_atms": 21, 
	 "gaussian": { 
		 "optdone": 1, 
		 "sigma_profile": "yes", 
		 "theory": "DFT", 
		 "functional": "B3LYP", 
		 "basiset": "6-31G**", 
		 "properties": { 
			 "R2extent": 3659.8783, 
			 "electric_dipole_moment_norm": 2.39759611695, 
			 "electric_quadrupole_moment_norm": 32.5617149852, 
			 "total_energy": -797.958961213, 
			 "HOMO_LUMO_gap": 0.19965, 
			 "cosmo_polarized_energy": -23.48, 
			 "cosmo_cavitation_energy": 27.84, 
			 "cosmo_dispersion_energy": -20.19, 
			 "cosmo_repulsion_energy": 1.58, 
			 "cosmo_total_nonelectrostatic_energy": 9.24, 
			 "SMD_solvation_energy": 8.56 
		},
		"coords": [
			{
				"x": -3.3121666466,
				"y": -0.7780444407,
				"z": 1.5958422157,
				"element": "O" 
			},
			{
				"x": -2.2164157206,
				"y": -0.0044319434,
				"z": 1.7947334173,
				"element": "C" 
			},
			{
				"x": -2.0793779747,
				"y": 0.6957642728,
				"z": 2.7750415982,
				"element": "O" 
			},
			{
				"x": -1.225943796,
				"y": -0.114848545,
				"z": 0.6862982931,
				"element": "C" 
			},
			{
				"x": -1.441652385,
				"y": -0.9452088304,
				"z": -0.4214261934,
				"element": "C" 
			},
			{
				"x": -0.4866977017,
				"y": -1.0256206799,
				"z": -1.440097595,
				"element": "C" 
			},
			{
				"x": 0.6989536974,
				"y": -0.287130532,
				"z": -1.3346186319,
				"element": "C" 
			},
			{
				"x": 0.9114843898,
				"y": 0.5500094476,
				"z": -0.236051136,
				"element": "C" 
			},
			{
				"x": -0.0523728176,
				"y": 0.6365895174,
				"z": 0.7739362248,
				"element": "C" 
			},
			{
				"x": 2.1515542552,
				"y": 1.3675348187,
				"z": -0.0882956983,
				"element": "C" 
			},
			{
				"x": 3.0091814605,
				"y": 1.2079922923,
				"z": -1.121459791,
				"element": "O" 
			},
			{
				"x": 2.3801438152,
				"y": 2.1015823508,
				"z": 0.8502443324,
				"element": "O" 
			},
			{
				"x": -0.6436966624,
				"y": -1.9121131861,
				"z": -2.6439500003,
				"element": "C" 
			},
			{
				"x": -1.9031475307,
				"y": -2.3139188748,
				"z": -2.9525149647,
				"element": "O" 
			},
			{
				"x": 0.2907955656,
				"y": -2.2666221537,
				"z": -3.3215339965,
				"element": "O" 
			},
			{
				"x": -3.8848849608,
				"y": -0.6377999016,
				"z": 2.3679083298,
				"element": "H" 
			},
			{
				"x": -2.3469125434,
				"y": -1.5435266209,
				"z": -0.445812051,
				"element": "H" 
			},
			{
				"x": 1.4424568408,
				"y": -0.3786263103,
				"z": -2.1172847099,
				"element": "H" 
			},
			{
				"x": 0.1146275426,
				"y": 1.282598154,
				"z": 1.6284705068,
				"element": "H" 
			},
			{
				"x": 3.7754389987,
				"y": 1.7732548738,
				"z": -0.9289198317,
				"element": "H" 
			},
			{
				"x": -2.5561678263,
				"y": -1.8292337084,
				"z": -2.4292103183,
				"element": "H" 
			}
		],
		 "valence_orbital": [ 
			{
				"type": "occ",
				"energy": -0.30126,
				"method": "rhf"
			},
			{
				"type": "occ",
				"energy": -0.29494,
				"method": "rhf"
			},
			{
				"type": "occ",
				"energy": -0.29432,
				"method": "rhf"
			},
			{
				"type": "occ",
				"energy": -0.29223,
				"method": "rhf"
			},
			{
				"type": "occ",
				"energy": -0.2819,
				"method": "rhf"
			},
			{
				"type": "unocc",
				"energy": -0.08225,
				"method": "rhf"
			},
			{
				"type": "unocc",
				"energy": -0.07647,
				"method": "rhf"
			},
			{
				"type": "unocc",
				"energy": -0.02446,
				"method": "rhf"
			},
			{
				"type": "unocc",
				"energy": 0.04475,
				"method": "rhf"
			},
			{
				"type": "unocc",
				"energy": 0.05817,
				"method": "rhf"
			}
		],
		"cosmo_sigma_profile": { 
			"-0.025": 0.0,
			"-0.024": 0.0,
			"-0.023": 0.0,
			"-0.022": 0.0,
			"-0.021": 0.0,
			"-0.02": 0.343746375295,
			"-0.019": 1.87604766785,
			"-0.018": 3.32913078963,
			"-0.017": 2.475298963,
			"-0.016": 2.23081399938,
			"-0.015": 2.42885697046,
			"-0.014": 2.88998787439,
			"-0.013": 2.07477745656,
			"-0.012": 2.92114170438,
			"-0.011": 2.23468616371,
			"-0.01": 1.78498092452,
			"-0.009": 2.59076807242,
			"-0.008": 3.06305515895,
			"-0.007": 3.5523010136,
			"-0.006": 4.12852724366,
			"-0.005": 5.25098343635,
			"-0.004": 11.7427902436,
			"-0.003": 15.9070453199,
			"-0.002": 19.2643357733,
			"-0.001": 26.2597409743,
			"0.0": 11.9017320004,
			"0.001": 7.6018990097,
			"0.002": 8.86801094739,
			"0.003": 6.52125158299,
			"0.004": 6.917667471,
			"0.005": 7.17040379008,
			"0.006": 8.48672690216,
			"0.007": 6.1644251391,
			"0.008": 6.30099977821,
			"0.009": 6.95198512037,
			"0.01": 10.6711522564,
			"0.011": 15.0735152756,
			"0.012": 3.95983758797,
			"0.013": 0.416869477347,
			"0.014": 0.0,
			"0.015": 0.0,
			"0.016": 0.0,
			"0.017": 0.0,
			"0.018": 0.0,
			"0.019": 0.0,
			"0.02": 0.0,
			"0.021": 0.0,
			"0.022": 0.0,
			"0.023": 0.0,
			"0.024": 0.0,
			"0.025": 0.0
		}
	}
}
