{
	 "smiles": "CC1=C(C)C(Cl)=NN2C1=NN=C2C(F)(F)F", 
	 "Tm": 367.15, 
	 "num_atms": 22, 
	 "gaussian": { 
		 "optdone": 1, 
		 "sigma_profile": "yes", 
		 "theory": "DFT", 
		 "functional": "B3LYP", 
		 "basiset": "6-31G**", 
		 "properties": { 
			 "R2extent": 5238.3194, 
			 "electric_dipole_moment_norm": 6.07565341836, 
			 "electric_quadrupole_moment_norm": 4.84578130027, 
			 "total_energy": -1287.13494666, 
			 "HOMO_LUMO_gap": 0.1731, 
			 "cosmo_polarized_energy": -12.42, 
			 "cosmo_cavitation_energy": 29.84, 
			 "cosmo_dispersion_energy": -21.41, 
			 "cosmo_repulsion_energy": 1.6, 
			 "cosmo_total_nonelectrostatic_energy": 10.04, 
			 "SMD_solvation_energy": 3.56 
		},
		"coords": [
			{
				"x": 0.8146979227,
				"y": 1.8789986585,
				"z": -0.137314801,
				"element": "C" 
			},
			{
				"x": -0.0861762246,
				"y": 0.6903243038,
				"z": -0.3417028639,
				"element": "C" 
			},
			{
				"x": -1.1413379,
				"y": 0.6388097818,
				"z": -1.2326605965,
				"element": "C" 
			},
			{
				"x": -1.5146496061,
				"y": 1.7964910777,
				"z": -2.1193049883,
				"element": "C" 
			},
			{
				"x": -1.897400753,
				"y": -0.5912330691,
				"z": -1.2912146184,
				"element": "C" 
			},
			{
				"x": -3.2408913433,
				"y": -0.6992249941,
				"z": -2.4051134055,
				"element": "Cl" 
			},
			{
				"x": -1.6981964629,
				"y": -1.6727887329,
				"z": -0.5925247875,
				"element": "N" 
			},
			{
				"x": -0.6593617247,
				"y": -1.5755127992,
				"z": 0.2620621811,
				"element": "N" 
			},
			{
				"x": 0.1610735041,
				"y": -0.4736895484,
				"z": 0.4386762824,
				"element": "C" 
			},
			{
				"x": 1.0766365299,
				"y": -0.7426264119,
				"z": 1.3642042221,
				"element": "N" 
			},
			{
				"x": 0.8551867726,
				"y": -2.0163954107,
				"z": 1.7911261192,
				"element": "N" 
			},
			{
				"x": -0.1772186849,
				"y": -2.5125796815,
				"z": 1.136054724,
				"element": "C" 
			},
			{
				"x": -0.7592569323,
				"y": -3.8834960824,
				"z": 1.2964039733,
				"element": "C" 
			},
			{
				"x": -0.7136831031,
				"y": -4.5662310852,
				"z": 0.1340052017,
				"element": "F" 
			},
			{
				"x": -0.0828260474,
				"y": -4.5727832891,
				"z": 2.2206838293,
				"element": "F" 
			},
			{
				"x": -2.0529708351,
				"y": -3.8177456513,
				"z": 1.6723140742,
				"element": "F" 
			},
			{
				"x": 0.2431900913,
				"y": 2.7544807687,
				"z": 0.187761069,
				"element": "H" 
			},
			{
				"x": 1.3299701318,
				"y": 2.1465074981,
				"z": -1.0655723735,
				"element": "H" 
			},
			{
				"x": 1.5635200675,
				"y": 1.6517028745,
				"z": 0.6223026316,
				"element": "H" 
			},
			{
				"x": -0.8526256353,
				"y": 2.6472391025,
				"z": -1.9582216157,
				"element": "H" 
			},
			{
				"x": -2.5428376099,
				"y": 2.1215435285,
				"z": -1.9296463945,
				"element": "H" 
			},
			{
				"x": -1.4610421574,
				"y": 1.5157091618,
				"z": -3.1762178633,
				"element": "H" 
			}
		],
		 "valence_orbital": [ 
			{
				"type": "occ",
				"energy": -0.3373,
				"method": "rhf"
			},
			{
				"type": "occ",
				"energy": -0.32902,
				"method": "rhf"
			},
			{
				"type": "occ",
				"energy": -0.29407,
				"method": "rhf"
			},
			{
				"type": "occ",
				"energy": -0.27367,
				"method": "rhf"
			},
			{
				"type": "occ",
				"energy": -0.2594,
				"method": "rhf"
			},
			{
				"type": "unocc",
				"energy": -0.0863,
				"method": "rhf"
			},
			{
				"type": "unocc",
				"energy": -0.04107,
				"method": "rhf"
			},
			{
				"type": "unocc",
				"energy": 0.0049,
				"method": "rhf"
			},
			{
				"type": "unocc",
				"energy": 0.00839,
				"method": "rhf"
			},
			{
				"type": "unocc",
				"energy": 0.07637,
				"method": "rhf"
			}
		],
		"cosmo_sigma_profile": { 
			"-0.025": 0.0,
			"-0.024": 0.0,
			"-0.023": 0.0,
			"-0.022": 0.0,
			"-0.021": 0.0,
			"-0.02": 0.0,
			"-0.019": 0.0,
			"-0.018": 0.0,
			"-0.017": 0.0,
			"-0.016": 0.0,
			"-0.015": 0.0,
			"-0.014": 0.0,
			"-0.013": 0.0,
			"-0.012": 0.0,
			"-0.011": 0.0,
			"-0.01": 0.0,
			"-0.009": 0.00493782962719,
			"-0.008": 0.752865984959,
			"-0.007": 3.96344191752,
			"-0.006": 15.3398849418,
			"-0.005": 17.5649108457,
			"-0.004": 21.8035544535,
			"-0.003": 23.9234229759,
			"-0.002": 24.4917958986,
			"-0.001": 14.2372897597,
			"0.0": 12.5948437003,
			"0.001": 20.5086987166,
			"0.002": 34.5497089083,
			"0.003": 14.1290110539,
			"0.004": 6.55718096792,
			"0.005": 5.91721759239,
			"0.006": 3.59204627956,
			"0.007": 3.72661080565,
			"0.008": 2.81177432659,
			"0.009": 3.00152467477,
			"0.01": 1.96652408744,
			"0.011": 3.79127078659,
			"0.012": 2.78086800247,
			"0.013": 2.22528872856,
			"0.014": 1.84245731669,
			"0.015": 0.126884878958,
			"0.016": 0.0,
			"0.017": 0.0,
			"0.018": 0.0,
			"0.019": 0.0,
			"0.02": 0.0,
			"0.021": 0.0,
			"0.022": 0.0,
			"0.023": 0.0,
			"0.024": 0.0,
			"0.025": 0.0
		}
	}
}
