{
	 "smiles": "CC(=C)C(C)=C", 
	 "Tm": 197.15, 
	 "num_atms": 16, 
	 "gaussian": { 
		 "optdone": 1, 
		 "sigma_profile": "yes", 
		 "theory": "DFT", 
		 "functional": "B3LYP", 
		 "basiset": "6-31G**", 
		 "properties": { 
			 "R2extent": 799.4008, 
			 "electric_dipole_moment_norm": 0.0, 
			 "electric_quadrupole_moment_norm": 3.23975565128, 
			 "total_energy": -234.63651197, 
			 "HOMO_LUMO_gap": 0.20688, 
			 "cosmo_polarized_energy": -2.16, 
			 "cosmo_cavitation_energy": 18.64, 
			 "cosmo_dispersion_energy": -13.3, 
			 "cosmo_repulsion_energy": 1.11, 
			 "cosmo_total_nonelectrostatic_energy": 6.44, 
			 "SMD_solvation_energy": 4.66 
		},
		"coords": [
			{
				"x": 0.054683862,
				"y": -1.4314542443,
				"z": -1.9855947948,
				"element": "C" 
			},
			{
				"x": -0.2220935001,
				"y": -1.4468143485,
				"z": -0.4985874346,
				"element": "C" 
			},
			{
				"x": -0.0930807938,
				"y": -2.5908133855,
				"z": 0.1956622348,
				"element": "C" 
			},
			{
				"x": -0.6329101887,
				"y": -0.1805869437,
				"z": 0.1550616834,
				"element": "C" 
			},
			{
				"x": -0.9096829694,
				"y": -0.1959455182,
				"z": 1.6420703188,
				"element": "C" 
			},
			{
				"x": -0.7619215096,
				"y": 0.9634122916,
				"z": -0.5391875588,
				"element": "C" 
			},
			{
				"x": -0.8283645056,
				"y": -1.1166838862,
				"z": -2.5536356869,
				"element": "H" 
			},
			{
				"x": 0.3463584721,
				"y": -2.4239951122,
				"z": -2.3369076818,
				"element": "H" 
			},
			{
				"x": 0.8616085046,
				"y": -0.7327966718,
				"z": -2.2351545713,
				"element": "H" 
			},
			{
				"x": -0.2794801815,
				"y": -2.6547474559,
				"z": 1.2616295867,
				"element": "H" 
			},
			{
				"x": 0.2085017592,
				"y": -3.5115169262,
				"z": -0.2945703433,
				"element": "H" 
			},
			{
				"x": -1.7166099656,
				"y": -0.8945993879,
				"z": 1.8916321292,
				"element": "H" 
			},
			{
				"x": -1.2013524163,
				"y": 0.7965968201,
				"z": 1.9933833856,
				"element": "H" 
			},
			{
				"x": -0.0266340789,
				"y": -0.5107195454,
				"z": 2.2101084227,
				"element": "H" 
			},
			{
				"x": -0.5755212376,
				"y": 1.027347498,
				"z": -1.6051547635,
				"element": "H" 
			},
			{
				"x": -1.0635012509,
				"y": 1.8841168159,
				"z": -0.0489549261,
				"element": "H" 
			}
		],
		 "valence_orbital": [ 
			{
				"type": "occ",
				"energy": -0.37453,
				"method": "rhf"
			},
			{
				"type": "occ",
				"energy": -0.35338,
				"method": "rhf"
			},
			{
				"type": "occ",
				"energy": -0.32739,
				"method": "rhf"
			},
			{
				"type": "occ",
				"energy": -0.28468,
				"method": "rhf"
			},
			{
				"type": "occ",
				"energy": -0.22503,
				"method": "rhf"
			},
			{
				"type": "unocc",
				"energy": -0.01815,
				"method": "rhf"
			},
			{
				"type": "unocc",
				"energy": 0.08759,
				"method": "rhf"
			},
			{
				"type": "unocc",
				"energy": 0.10128,
				"method": "rhf"
			},
			{
				"type": "unocc",
				"energy": 0.12751,
				"method": "rhf"
			},
			{
				"type": "unocc",
				"energy": 0.13691,
				"method": "rhf"
			}
		],
		"cosmo_sigma_profile": { 
			"-0.025": 0.0,
			"-0.024": 0.0,
			"-0.023": 0.0,
			"-0.022": 0.0,
			"-0.021": 0.0,
			"-0.02": 0.0,
			"-0.019": 0.0,
			"-0.018": 0.0,
			"-0.017": 0.0,
			"-0.016": 0.0,
			"-0.015": 0.0,
			"-0.014": 0.0,
			"-0.013": 0.0,
			"-0.012": 0.0,
			"-0.011": 0.0,
			"-0.01": 0.0,
			"-0.009": 0.0,
			"-0.008": 0.0,
			"-0.007": 0.0,
			"-0.006": 0.0,
			"-0.005": 1.78061902698,
			"-0.004": 13.5210854288,
			"-0.003": 20.2812475526,
			"-0.002": 17.4716330864,
			"-0.001": 17.0288221614,
			"0.0": 19.9653899224,
			"0.001": 16.252783451,
			"0.002": 9.12798213365,
			"0.003": 8.52533160984,
			"0.004": 7.65546826849,
			"0.005": 6.86053789541,
			"0.006": 5.75314427451,
			"0.007": 2.02437331257,
			"0.008": 0.0,
			"0.009": 0.0,
			"0.01": 0.0,
			"0.011": 0.0,
			"0.012": 0.0,
			"0.013": 0.0,
			"0.014": 0.0,
			"0.015": 0.0,
			"0.016": 0.0,
			"0.017": 0.0,
			"0.018": 0.0,
			"0.019": 0.0,
			"0.02": 0.0,
			"0.021": 0.0,
			"0.022": 0.0,
			"0.023": 0.0,
			"0.024": 0.0,
			"0.025": 0.0
		}
	}
}
