{
	 "smiles": "OCC1=NC=C(O1)C1=CC=C(F)C=C1", 
	 "Tm": 355.15, 
	 "num_atms": 22, 
	 "gaussian": { 
		 "optdone": 1, 
		 "sigma_profile": "yes", 
		 "theory": "DFT", 
		 "functional": "B3LYP", 
		 "basiset": "6-31G**", 
		 "properties": { 
			 "R2extent": 3937.3591, 
			 "electric_dipole_moment_norm": 1.81427730515, 
			 "electric_quadrupole_moment_norm": 21.1280420295, 
			 "total_energy": -690.893449518, 
			 "HOMO_LUMO_gap": 0.17616, 
			 "cosmo_polarized_energy": -12.43, 
			 "cosmo_cavitation_energy": 27.8, 
			 "cosmo_dispersion_energy": -20.3, 
			 "cosmo_repulsion_energy": 1.58, 
			 "cosmo_total_nonelectrostatic_energy": 9.07, 
			 "SMD_solvation_energy": 3.99 
		},
		"coords": [
			{
				"x": -0.4524357126,
				"y": 4.060200103,
				"z": -1.9831147716,
				"element": "O" 
			},
			{
				"x": 0.8363108863,
				"y": 3.4873988912,
				"z": -1.8018048838,
				"element": "C" 
			},
			{
				"x": 0.6814205905,
				"y": 2.0446083361,
				"z": -1.4610798222,
				"element": "C" 
			},
			{
				"x": 1.1525891586,
				"y": 1.0154068689,
				"z": -2.0986860511,
				"element": "N" 
			},
			{
				"x": 0.7469319823,
				"y": -0.0746525595,
				"z": -1.3480627989,
				"element": "C" 
			},
			{
				"x": 0.0275973434,
				"y": 0.350138035,
				"z": -0.2650464258,
				"element": "C" 
			},
			{
				"x": -0.0104741503,
				"y": 1.7236723088,
				"z": -0.3339461996,
				"element": "O" 
			},
			{
				"x": -0.6518586851,
				"y": -0.3015667139,
				"z": 0.8455313068,
				"element": "C" 
			},
			{
				"x": -0.5900909438,
				"y": -1.6991864965,
				"z": 0.9958765327,
				"element": "C" 
			},
			{
				"x": -1.2371048274,
				"y": -2.3333397767,
				"z": 2.051208001,
				"element": "C" 
			},
			{
				"x": -1.9498389733,
				"y": -1.5606948344,
				"z": 2.9632846883,
				"element": "C" 
			},
			{
				"x": -2.5774778107,
				"y": -2.171797046,
				"z": 3.9884569781,
				"element": "F" 
			},
			{
				"x": -2.0315291694,
				"y": -0.1779356247,
				"z": 2.8462373731,
				"element": "C" 
			},
			{
				"x": -1.3814216564,
				"y": 0.4476768581,
				"z": 1.7855787902,
				"element": "C" 
			},
			{
				"x": -0.3363770761,
				"y": 5.0117470482,
				"z": -2.0977275103,
				"element": "H" 
			},
			{
				"x": 1.4528020597,
				"y": 3.5307826974,
				"z": -2.7092328254,
				"element": "H" 
			},
			{
				"x": 1.3854474205,
				"y": 3.9922973137,
				"z": -0.990662165,
				"element": "H" 
			},
			{
				"x": 0.9930915505,
				"y": -1.084054978,
				"z": -1.6428634007,
				"element": "H" 
			},
			{
				"x": -0.0295556443,
				"y": -2.2964936375,
				"z": 0.2836416521,
				"element": "H" 
			},
			{
				"x": -1.195995258,
				"y": -3.4096951398,
				"z": 2.1771467994,
				"element": "H" 
			},
			{
				"x": -2.5980282639,
				"y": 0.3892914361,
				"z": 3.5767019473,
				"element": "H" 
			},
			{
				"x": -1.4389028204,
				"y": 1.5249969105,
				"z": 1.6782627855,
				"element": "H" 
			}
		],
		 "valence_orbital": [ 
			{
				"type": "occ",
				"energy": -0.28962,
				"method": "rhf"
			},
			{
				"type": "occ",
				"energy": -0.28714,
				"method": "rhf"
			},
			{
				"type": "occ",
				"energy": -0.27791,
				"method": "rhf"
			},
			{
				"type": "occ",
				"energy": -0.26744,
				"method": "rhf"
			},
			{
				"type": "occ",
				"energy": -0.21567,
				"method": "rhf"
			},
			{
				"type": "unocc",
				"energy": -0.03951,
				"method": "rhf"
			},
			{
				"type": "unocc",
				"energy": -0.01691,
				"method": "rhf"
			},
			{
				"type": "unocc",
				"energy": 0.01647,
				"method": "rhf"
			},
			{
				"type": "unocc",
				"energy": 0.07179,
				"method": "rhf"
			},
			{
				"type": "unocc",
				"energy": 0.08178,
				"method": "rhf"
			}
		],
		"cosmo_sigma_profile": { 
			"-0.025": 0.0,
			"-0.024": 0.0,
			"-0.023": 0.0,
			"-0.022": 0.0,
			"-0.021": 0.0,
			"-0.02": 0.0,
			"-0.019": 0.0,
			"-0.018": 0.0,
			"-0.017": 0.298274435742,
			"-0.016": 1.01690211234,
			"-0.015": 1.24919438772,
			"-0.014": 0.669647395484,
			"-0.013": 1.30279215643,
			"-0.012": 0.668562646734,
			"-0.011": 1.36428023164,
			"-0.01": 0.74460819259,
			"-0.009": 1.56284395603,
			"-0.008": 5.44268352658,
			"-0.007": 9.33153184857,
			"-0.006": 14.4026053782,
			"-0.005": 14.9746221712,
			"-0.004": 10.48925327,
			"-0.003": 10.0334317108,
			"-0.002": 9.66097774025,
			"-0.001": 10.2321123762,
			"0.0": 18.2504165651,
			"0.001": 20.4125053325,
			"0.002": 20.6734818731,
			"0.003": 21.6719513634,
			"0.004": 16.8584652692,
			"0.005": 5.86198769057,
			"0.006": 2.79967856743,
			"0.007": 3.8636139188,
			"0.008": 2.72713812548,
			"0.009": 2.85423881777,
			"0.01": 2.07999189448,
			"0.011": 3.32623204133,
			"0.012": 2.58708769252,
			"0.013": 2.92444123501,
			"0.014": 1.32225132877,
			"0.015": 0.929224241628,
			"0.016": 0.380154968328,
			"0.017": 0.0,
			"0.018": 0.0,
			"0.019": 0.0,
			"0.02": 0.0,
			"0.021": 0.0,
			"0.022": 0.0,
			"0.023": 0.0,
			"0.024": 0.0,
			"0.025": 0.0
		}
	}
}
