{
	 "smiles": "COC1=CC2=C(C=C1)C=C(C=C2)C1=NC2=C(C=CC=C2)C(=C1)C(O)=O", 
	 "Tm": 532.15, 
	 "num_atms": 40, 
	 "gaussian": { 
		 "optdone": 1, 
		 "sigma_profile": "yes", 
		 "theory": "DFT", 
		 "functional": "B3LYP", 
		 "basiset": "6-31G**", 
		 "properties": { 
			 "R2extent": 13066.5837, 
			 "electric_dipole_moment_norm": 2.10316296325, 
			 "electric_quadrupole_moment_norm": 49.1281130645, 
			 "total_energy": -1089.71986776, 
			 "HOMO_LUMO_gap": 0.12413, 
			 "cosmo_polarized_energy": -18.03, 
			 "cosmo_cavitation_energy": 44.52, 
			 "cosmo_dispersion_energy": -32.53, 
			 "cosmo_repulsion_energy": 2.38, 
			 "cosmo_total_nonelectrostatic_energy": 14.37, 
			 "SMD_solvation_energy": 7.62 
		},
		"coords": [
			{
				"x": -2.6021142085,
				"y": 2.8152576261,
				"z": 6.3907864323,
				"element": "C" 
			},
			{
				"x": -2.9559262766,
				"y": 2.8458043264,
				"z": 5.0165740789,
				"element": "O" 
			},
			{
				"x": -2.1547592256,
				"y": 2.2074031317,
				"z": 4.1158533853,
				"element": "C" 
			},
			{
				"x": -2.5522881019,
				"y": 2.2692459646,
				"z": 2.7898713453,
				"element": "C" 
			},
			{
				"x": -1.7949914658,
				"y": 1.6423436757,
				"z": 1.7777212162,
				"element": "C" 
			},
			{
				"x": -0.5977746634,
				"y": 0.936142937,
				"z": 2.1297514839,
				"element": "C" 
			},
			{
				"x": -0.2204132858,
				"y": 0.8893711661,
				"z": 3.4956844371,
				"element": "C" 
			},
			{
				"x": -0.9721219229,
				"y": 1.5064327107,
				"z": 4.4719882629,
				"element": "C" 
			},
			{
				"x": 0.1661969003,
				"y": 0.3100139694,
				"z": 1.1128570069,
				"element": "C" 
			},
			{
				"x": -0.2156827114,
				"y": 0.3610593016,
				"z": -0.217524515,
				"element": "C" 
			},
			{
				"x": -1.4164226836,
				"y": 1.0566728909,
				"z": -0.5565383941,
				"element": "C" 
			},
			{
				"x": -2.1729272007,
				"y": 1.6765301533,
				"z": 0.4036139115,
				"element": "C" 
			},
			{
				"x": 0.5686477828,
				"y": -0.2946198864,
				"z": -1.2920977707,
				"element": "C" 
			},
			{
				"x": -0.0170171955,
				"y": -0.437999439,
				"z": -2.4734756393,
				"element": "N" 
			},
			{
				"x": 0.6495402106,
				"y": -1.0599446204,
				"z": -3.4820224662,
				"element": "C" 
			},
			{
				"x": 1.9897471958,
				"y": -1.5565823519,
				"z": -3.3518121171,
				"element": "C" 
			},
			{
				"x": 2.5639319853,
				"y": -2.2590891982,
				"z": -4.4471764085,
				"element": "C" 
			},
			{
				"x": 1.8642513069,
				"y": -2.4189983937,
				"z": -5.6254616975,
				"element": "C" 
			},
			{
				"x": 0.559964602,
				"y": -1.891190564,
				"z": -5.7661184373,
				"element": "C" 
			},
			{
				"x": -0.0358798541,
				"y": -1.2323644569,
				"z": -4.7147869238,
				"element": "C" 
			},
			{
				"x": 2.6258398359,
				"y": -1.3225077639,
				"z": -2.089144148,
				"element": "C" 
			},
			{
				"x": 1.9099654769,
				"y": -0.7288736953,
				"z": -1.0760659854,
				"element": "C" 
			},
			{
				"x": 4.0615318416,
				"y": -1.6598620705,
				"z": -1.7795844498,
				"element": "C" 
			},
			{
				"x": 4.9591964224,
				"y": -1.4802862386,
				"z": -2.7843124805,
				"element": "O" 
			},
			{
				"x": 4.4338699225,
				"y": -2.0309093568,
				"z": -0.6931702793,
				"element": "O" 
			},
			{
				"x": -1.6288799583,
				"y": 3.2890926536,
				"z": 6.5718781552,
				"element": "H" 
			},
			{
				"x": -3.3761388711,
				"y": 3.381460653,
				"z": 6.9110884445,
				"element": "H" 
			},
			{
				"x": -2.5822333744,
				"y": 1.7908262281,
				"z": 6.7839950802,
				"element": "H" 
			},
			{
				"x": -3.4607454577,
				"y": 2.8090563701,
				"z": 2.5413370406,
				"element": "H" 
			},
			{
				"x": 0.6843027095,
				"y": 0.354373973,
				"z": 3.7728683611,
				"element": "H" 
			},
			{
				"x": -0.6540512411,
				"y": 1.451943398,
				"z": 5.5061761972,
				"element": "H" 
			},
			{
				"x": 1.0560918483,
				"y": -0.2332440692,
				"z": 1.4165722933,
				"element": "H" 
			},
			{
				"x": -1.7115774125,
				"y": 1.0794379616,
				"z": -1.5989260256,
				"element": "H" 
			},
			{
				"x": -3.0796880093,
				"y": 2.2070451208,
				"z": 0.1249162991,
				"element": "H" 
			},
			{
				"x": 3.5456441279,
				"y": -2.7107788522,
				"z": -4.346969636,
				"element": "H" 
			},
			{
				"x": 2.3156272654,
				"y": -2.9660006523,
				"z": -6.447742025,
				"element": "H" 
			},
			{
				"x": 0.0244522022,
				"y": -2.0226520929,
				"z": -6.7015988048,
				"element": "H" 
			},
			{
				"x": -1.0441613821,
				"y": -0.8375054116,
				"z": -4.7820083317,
				"element": "H" 
			},
			{
				"x": 2.4047396838,
				"y": -0.566490659,
				"z": -0.126913307,
				"element": "H" 
			},
			{
				"x": 4.524253182,
				"y": -1.0763144393,
				"z": -3.5498835886,
				"element": "H" 
			}
		],
		 "valence_orbital": [ 
			{
				"type": "occ",
				"energy": -0.26332,
				"method": "rhf"
			},
			{
				"type": "occ",
				"energy": -0.25848,
				"method": "rhf"
			},
			{
				"type": "occ",
				"energy": -0.2466,
				"method": "rhf"
			},
			{
				"type": "occ",
				"energy": -0.23253,
				"method": "rhf"
			},
			{
				"type": "occ",
				"energy": -0.20342,
				"method": "rhf"
			},
			{
				"type": "unocc",
				"energy": -0.07929,
				"method": "rhf"
			},
			{
				"type": "unocc",
				"energy": -0.05066,
				"method": "rhf"
			},
			{
				"type": "unocc",
				"energy": -0.0276,
				"method": "rhf"
			},
			{
				"type": "unocc",
				"energy": -0.01538,
				"method": "rhf"
			},
			{
				"type": "unocc",
				"energy": 0.00049,
				"method": "rhf"
			}
		],
		"cosmo_sigma_profile": { 
			"-0.025": 0.0,
			"-0.024": 0.0,
			"-0.023": 0.0,
			"-0.022": 0.0,
			"-0.021": 0.0,
			"-0.02": 0.0,
			"-0.019": 0.0,
			"-0.018": 0.145336651971,
			"-0.017": 0.951139347582,
			"-0.016": 0.782911916387,
			"-0.015": 0.55910881336,
			"-0.014": 0.789941995323,
			"-0.013": 1.10284497156,
			"-0.012": 1.2278360988,
			"-0.011": 1.12084434381,
			"-0.01": 0.582743584655,
			"-0.009": 1.83015316661,
			"-0.008": 3.01172637512,
			"-0.007": 8.86663988396,
			"-0.006": 25.8512822409,
			"-0.005": 29.9125901437,
			"-0.004": 26.0530905861,
			"-0.003": 23.8865652116,
			"-0.002": 19.1058211324,
			"-0.001": 17.8644536924,
			"0.0": 23.6151251044,
			"0.001": 23.971705724,
			"0.002": 25.8765899182,
			"0.003": 32.5465295392,
			"0.004": 36.6274870923,
			"0.005": 11.9324923276,
			"0.006": 5.53035937371,
			"0.007": 5.75802962669,
			"0.008": 5.51893607868,
			"0.009": 7.29176186291,
			"0.01": 6.58194932697,
			"0.011": 6.30157547424,
			"0.012": 2.71440676506,
			"0.013": 0.267356755971,
			"0.014": 0.0,
			"0.015": 0.0,
			"0.016": 0.0,
			"0.017": 0.0,
			"0.018": 0.0,
			"0.019": 0.0,
			"0.02": 0.0,
			"0.021": 0.0,
			"0.022": 0.0,
			"0.023": 0.0,
			"0.024": 0.0,
			"0.0": 0.0
		}
	}
}
