{
	 "smiles": "OC(=O)CC1CCCN1C(=O)C1=CC(F)=C(Br)C=C1", 
	 "Tm": 408.15, 
	 "num_atms": 32, 
	 "gaussian": { 
		 "optdone": 1, 
		 "sigma_profile": "yes", 
		 "theory": "DFT", 
		 "functional": "B3LYP", 
		 "basiset": "6-31G**", 
		 "properties": { 
			 "R2extent": 9378.9134, 
			 "electric_dipole_moment_norm": 3.05663078569, 
			 "electric_quadrupole_moment_norm": 25.3346950538, 
			 "total_energy": -3454.89811349, 
			 "HOMO_LUMO_gap": 0.19475, 
			 "cosmo_polarized_energy": -21.8, 
			 "cosmo_cavitation_energy": 38.2, 
			 "cosmo_dispersion_energy": -26.47, 
			 "cosmo_repulsion_energy": 2.06, 
			 "cosmo_total_nonelectrostatic_energy": 13.79, 
			 "SMD_solvation_energy": 6.52 
		},
		"coords": [
			{
				"x": -0.5976018623,
				"y": -3.0786069283,
				"z": -2.2273642885,
				"element": "O" 
			},
			{
				"x": -0.8442270776,
				"y": -2.5884251516,
				"z": -0.9846586478,
				"element": "C" 
			},
			{
				"x": -1.7149052678,
				"y": -3.0744168933,
				"z": -0.3058398228,
				"element": "O" 
			},
			{
				"x": 0.0299786725,
				"y": -1.4143644052,
				"z": -0.5619038923,
				"element": "C" 
			},
			{
				"x": -0.2553454137,
				"y": -0.9694646911,
				"z": 0.8808248111,
				"element": "C" 
			},
			{
				"x": 0.163563629,
				"y": -2.0316132682,
				"z": 1.9271234891,
				"element": "C" 
			},
			{
				"x": 0.7033131045,
				"y": -1.2222311609,
				"z": 3.1139315381,
				"element": "C" 
			},
			{
				"x": 1.4025612758,
				"y": -0.0456968294,
				"z": 2.4320987097,
				"element": "C" 
			},
			{
				"x": 0.5282781544,
				"y": 0.2271082305,
				"z": 1.2786168712,
				"element": "N" 
			},
			{
				"x": 0.6570975125,
				"y": 1.4310993772,
				"z": 0.6394848295,
				"element": "C" 
			},
			{
				"x": 1.5711018802,
				"y": 2.2075395443,
				"z": 0.9163897527,
				"element": "O" 
			},
			{
				"x": -0.361341753,
				"y": 1.8346940757,
				"z": -0.3972238332,
				"element": "C" 
			},
			{
				"x": -1.7398157846,
				"y": 1.6827591643,
				"z": -0.2062564083,
				"element": "C" 
			},
			{
				"x": -2.6254804359,
				"y": 2.1731283792,
				"z": -1.1589661275,
				"element": "C" 
			},
			{
				"x": -3.9429722505,
				"y": 2.0325356098,
				"z": -0.9518833946,
				"element": "F" 
			},
			{
				"x": -2.1653234697,
				"y": 2.8070697553,
				"z": -2.3128043272,
				"element": "C" 
			},
			{
				"x": -3.4071456753,
				"y": 3.4471679152,
				"z": -3.5963323215,
				"element": "Br" 
			},
			{
				"x": -0.7916849041,
				"y": 2.9707650669,
				"z": -2.4995693348,
				"element": "C" 
			},
			{
				"x": 0.1018649727,
				"y": 2.5011166605,
				"z": -1.5406437485,
				"element": "C" 
			},
			{
				"x": 0.1168211401,
				"y": -2.5825578628,
				"z": -2.6522091548,
				"element": "H" 
			},
			{
				"x": 1.0879409158,
				"y": -1.6913403004,
				"z": -0.6647772432,
				"element": "H" 
			},
			{
				"x": -0.148773643,
				"y": -0.5922958695,
				"z": -1.2651362303,
				"element": "H" 
			},
			{
				"x": -1.3281154379,
				"y": -0.7769656287,
				"z": 0.9710257315,
				"element": "H" 
			},
			{
				"x": 0.9641786035,
				"y": -2.6573588617,
				"z": 1.513303628,
				"element": "H" 
			},
			{
				"x": -0.6691486686,
				"y": -2.6905464443,
				"z": 2.1745053689,
				"element": "H" 
			},
			{
				"x": 1.3768296299,
				"y": -1.8005967365,
				"z": 3.7518267504,
				"element": "H" 
			},
			{
				"x": -0.1201670357,
				"y": -0.8571581968,
				"z": 3.7378709849,
				"element": "H" 
			},
			{
				"x": 1.4867353324,
				"y": 0.8526738457,
				"z": 3.0461909863,
				"element": "H" 
			},
			{
				"x": 2.4162807955,
				"y": -0.3103237406,
				"z": 2.1007650313,
				"element": "H" 
			},
			{
				"x": -2.1496829068,
				"y": 1.2190840151,
				"z": 0.6835693993,
				"element": "H" 
			},
			{
				"x": -0.4337167569,
				"y": 3.4753620839,
				"z": -3.3899065758,
				"element": "H" 
			},
			{
				"x": 1.1680027249,
				"y": 2.6599592458,
				"z": -1.6587525307,
				"element": "H" 
			}
		],
		 "valence_orbital": [ 
			{
				"type": "occ",
				"energy": -0.28669,
				"method": "rhf"
			},
			{
				"type": "occ",
				"energy": -0.27313,
				"method": "rhf"
			},
			{
				"type": "occ",
				"energy": -0.26516,
				"method": "rhf"
			},
			{
				"type": "occ",
				"energy": -0.24955,
				"method": "rhf"
			},
			{
				"type": "occ",
				"energy": -0.24543,
				"method": "rhf"
			},
			{
				"type": "unocc",
				"energy": -0.05068,
				"method": "rhf"
			},
			{
				"type": "unocc",
				"energy": -0.02366,
				"method": "rhf"
			},
			{
				"type": "unocc",
				"energy": -0.00648,
				"method": "rhf"
			},
			{
				"type": "unocc",
				"energy": -0.00177,
				"method": "rhf"
			},
			{
				"type": "unocc",
				"energy": 0.03132,
				"method": "rhf"
			}
		],
		"cosmo_sigma_profile": { 
			"-0.025": 0.0,
			"-0.024": 0.0,
			"-0.023": 0.0,
			"-0.022": 0.0,
			"-0.021": 0.0,
			"-0.02": 0.0,
			"-0.019": 0.691437706224,
			"-0.018": 1.22628595063,
			"-0.017": 1.43277419554,
			"-0.016": 0.7515225569,
			"-0.015": 1.06519771899,
			"-0.014": 1.44658669579,
			"-0.013": 0.962666795749,
			"-0.012": 0.891596014955,
			"-0.011": 1.38075134176,
			"-0.01": 1.48887020218,
			"-0.009": 2.63009432253,
			"-0.008": 4.68200546944,
			"-0.007": 9.07026592721,
			"-0.006": 10.6900038952,
			"-0.005": 13.8256709197,
			"-0.004": 25.2605613214,
			"-0.003": 27.1307397413,
			"-0.002": 26.2496917328,
			"-0.001": 26.1895121496,
			"0.0": 23.5457659037,
			"0.001": 18.6059858455,
			"0.002": 16.9121433166,
			"0.003": 19.0618367031,
			"0.004": 19.0354497116,
			"0.005": 6.32278679871,
			"0.006": 3.79140522367,
			"0.007": 4.6636256898,
			"0.008": 4.72136658137,
			"0.009": 4.3171237653,
			"0.01": 6.24342821024,
			"0.011": 6.57432850591,
			"0.012": 5.93489358629,
			"0.013": 4.91180448791,
			"0.014": 4.03691604678,
			"0.015": 0.237734500685,
			"0.016": 0.0,
			"0.017": 0.0,
			"0.018": 0.0,
			"0.019": 0.0,
			"0.02": 0.0,
			"0.021": 0.0,
			"0.022": 0.0,
			"0.023": 0.0,
			"0.024": 0.0,
			"0.025": 0.0
		}
	}
}
