{
	 "smiles": "NC(=S)NC1=CC(=CC(=C1)C(F)(F)F)C(F)(F)F", 
	 "Tm": 440.15, 
	 "num_atms": 24, 
	 "gaussian": { 
		 "optdone": 1, 
		 "sigma_profile": "yes", 
		 "theory": "DFT", 
		 "functional": "B3LYP", 
		 "basiset": "6-31G**", 
		 "properties": { 
			 "R2extent": 6230.1023, 
			 "electric_dipole_moment_norm": 2.53370082883, 
			 "electric_quadrupole_moment_norm": 25.5205439805, 
			 "total_energy": -1453.33579261, 
			 "HOMO_LUMO_gap": 0.15723, 
			 "cosmo_polarized_energy": -17.78, 
			 "cosmo_cavitation_energy": 33.8, 
			 "cosmo_dispersion_energy": -23.61, 
			 "cosmo_repulsion_energy": 1.68, 
			 "cosmo_total_nonelectrostatic_energy": 11.88, 
			 "SMD_solvation_energy": 7.21 
		},
		"coords": [
			{
				"x": 0.8806432249,
				"y": 3.2522043305,
				"z": 1.8289082219,
				"element": "N" 
			},
			{
				"x": 0.1249932521,
				"y": 3.6306325319,
				"z": 0.762288667,
				"element": "C" 
			},
			{
				"x": -0.2710419737,
				"y": 5.2286358406,
				"z": 0.4548686351,
				"element": "S" 
			},
			{
				"x": -0.3108337441,
				"y": 2.6334466334,
				"z": -0.0805223784,
				"element": "N" 
			},
			{
				"x": 0.0064713253,
				"y": 1.2630163271,
				"z": -0.1320741629,
				"element": "C" 
			},
			{
				"x": 1.2656252815,
				"y": 0.7578645422,
				"z": 0.2230900011,
				"element": "C" 
			},
			{
				"x": 1.5175562105,
				"y": -0.6117372642,
				"z": 0.1212964369,
				"element": "C" 
			},
			{
				"x": 0.5477581597,
				"y": -1.4913869084,
				"z": -0.3537487468,
				"element": "C" 
			},
			{
				"x": -0.6957184385,
				"y": -0.9791804967,
				"z": -0.7307978973,
				"element": "C" 
			},
			{
				"x": -0.9716473086,
				"y": 0.3797264958,
				"z": -0.6173107103,
				"element": "C" 
			},
			{
				"x": -1.7779809218,
				"y": -1.9236170399,
				"z": -1.1927657569,
				"element": "C" 
			},
			{
				"x": -1.2654234465,
				"y": -2.9684632473,
				"z": -1.874379155,
				"element": "F" 
			},
			{
				"x": -2.4642910796,
				"y": -2.4299836004,
				"z": -0.1448796418,
				"element": "F" 
			},
			{
				"x": -2.671581126,
				"y": -1.3061793766,
				"z": -1.9938580377,
				"element": "F" 
			},
			{
				"x": 2.8965597835,
				"y": -1.1225956668,
				"z": 0.4599700182,
				"element": "C" 
			},
			{
				"x": 2.8796255545,
				"y": -2.4313255985,
				"z": 0.7840241356,
				"element": "F" 
			},
			{
				"x": 3.7443684229,
				"y": -0.9765857832,
				"z": -0.5803439321,
				"element": "F" 
			},
			{
				"x": 3.4297749042,
				"y": -0.4476329639,
				"z": 1.5026500644,
				"element": "F" 
			},
			{
				"x": 0.8266588259,
				"y": 2.3085305871,
				"z": 2.1880539775,
				"element": "H" 
			},
			{
				"x": 1.0744189767,
				"y": 3.9850525982,
				"z": 2.4946441909,
				"element": "H" 
			},
			{
				"x": -0.9658024525,
				"y": 2.9763335008,
				"z": -0.7703925943,
				"element": "H" 
			},
			{
				"x": 2.051430777,
				"y": 1.4252947816,
				"z": 0.5540873865,
				"element": "H" 
			},
			{
				"x": 0.7559457813,
				"y": -2.5508560113,
				"z": -0.4347975324,
				"element": "H" 
			},
			{
				"x": -1.9470099889,
				"y": 0.7589057881,
				"z": -0.9037111891,
				"element": "H" 
			}
		],
		 "valence_orbital": [ 
			{
				"type": "occ",
				"energy": -0.33494,
				"method": "rhf"
			},
			{
				"type": "occ",
				"energy": -0.30213,
				"method": "rhf"
			},
			{
				"type": "occ",
				"energy": -0.27129,
				"method": "rhf"
			},
			{
				"type": "occ",
				"energy": -0.22943,
				"method": "rhf"
			},
			{
				"type": "occ",
				"energy": -0.22151,
				"method": "rhf"
			},
			{
				"type": "unocc",
				"energy": -0.06428,
				"method": "rhf"
			},
			{
				"type": "unocc",
				"energy": -0.05979,
				"method": "rhf"
			},
			{
				"type": "unocc",
				"energy": -0.00779,
				"method": "rhf"
			},
			{
				"type": "unocc",
				"energy": 0.05221,
				"method": "rhf"
			},
			{
				"type": "unocc",
				"energy": 0.07072,
				"method": "rhf"
			}
		],
		"cosmo_sigma_profile": { 
			"-0.025": 0.0,
			"-0.024": 0.0,
			"-0.023": 0.0,
			"-0.022": 0.0,
			"-0.021": 0.0,
			"-0.02": 0.0,
			"-0.019": 0.0,
			"-0.018": 0.0,
			"-0.017": 0.0,
			"-0.016": 0.231164332048,
			"-0.015": 2.72077014913,
			"-0.014": 3.13610321508,
			"-0.013": 2.64205269178,
			"-0.012": 4.38868141026,
			"-0.011": 3.37252042943,
			"-0.01": 3.69669086275,
			"-0.009": 4.14919391589,
			"-0.008": 3.43814422515,
			"-0.007": 6.48712755421,
			"-0.006": 6.87430326792,
			"-0.005": 8.21266247944,
			"-0.004": 9.37825297812,
			"-0.003": 10.0081408092,
			"-0.002": 13.9068491021,
			"-0.001": 21.3643085926,
			"0.0": 27.232209372,
			"0.001": 18.9642015381,
			"0.002": 46.9865639908,
			"0.003": 37.4672698728,
			"0.004": 4.58336844846,
			"0.005": 3.07524249997,
			"0.006": 3.21901619777,
			"0.007": 3.55953744946,
			"0.008": 3.5663400106,
			"0.009": 5.11412912232,
			"0.01": 7.84986214425,
			"0.011": 5.96961839066,
			"0.012": 2.50742497789,
			"0.013": 0.00923329775952,
			"0.014": 0.0,
			"0.015": 0.0,
			"0.016": 0.0,
			"0.017": 0.0,
			"0.018": 0.0,
			"0.019": 0.0,
			"0.02": 0.0,
			"0.021": 0.0,
			"0.022": 0.0,
			"0.023": 0.0,
			"0.024": 0.0,
			"0.025": 0.0
		}
	}
}
