{
	 "smiles": "CCCCCCCCCCCCC1CCCCC1", 
	 "Tm": 285.65, 
	 "num_atms": 54, 
	 "gaussian": { 
		 "optdone": 1, 
		 "sigma_profile": "yes", 
		 "theory": "DFT", 
		 "functional": "B3LYP", 
		 "basiset": "6-31G**", 
		 "properties": { 
			 "R2extent": 8021.2193, 
			 "electric_dipole_moment_norm": 0.0783219637139, 
			 "electric_quadrupole_moment_norm": 0.756538934887, 
			 "total_energy": -707.658835407, 
			 "HOMO_LUMO_gap": 0.34462, 
			 "cosmo_polarized_energy": -1.07, 
			 "cosmo_cavitation_energy": 50.03, 
			 "cosmo_dispersion_energy": -32.72, 
			 "cosmo_repulsion_energy": 2.64, 
			 "cosmo_total_nonelectrostatic_energy": 19.95, 
			 "SMD_solvation_energy": 5.97 
		},
		"coords": [
			{
				"x": -2.7084233237,
				"y": -3.3239498158,
				"z": 3.8770044726,
				"element": "C" 
			},
			{
				"x": -3.2929252485,
				"y": -2.0884343051,
				"z": 3.1848439316,
				"element": "C" 
			},
			{
				"x": -2.2907751578,
				"y": -0.9340897609,
				"z": 3.0568093754,
				"element": "C" 
			},
			{
				"x": -2.8668370681,
				"y": 0.3071790056,
				"z": 2.3631061017,
				"element": "C" 
			},
			{
				"x": -1.8595126152,
				"y": 1.4591410523,
				"z": 2.2472503803,
				"element": "C" 
			},
			{
				"x": -2.4232581517,
				"y": 2.7506502092,
				"z": 1.6299529745,
				"element": "C" 
			},
			{
				"x": -2.9260432826,
				"y": 2.6893087074,
				"z": 0.173852037,
				"element": "C" 
			},
			{
				"x": -1.8585827215,
				"y": 2.4168498979,
				"z": -0.9092486363,
				"element": "C" 
			},
			{
				"x": -1.6125085772,
				"y": 0.9344656294,
				"z": -1.2370976951,
				"element": "C" 
			},
			{
				"x": -0.6678676331,
				"y": 0.6959142101,
				"z": -2.4291891749,
				"element": "C" 
			},
			{
				"x": 0.7790850426,
				"y": 1.201047765,
				"z": -2.2581097413,
				"element": "C" 
			},
			{
				"x": 1.6231192398,
				"y": 0.6046820483,
				"z": -1.1111127538,
				"element": "C" 
			},
			{
				"x": 2.2580819521,
				"y": -0.7798058225,
				"z": -1.3520394936,
				"element": "C" 
			},
			{
				"x": 3.3115508785,
				"y": -1.1024828921,
				"z": -0.275079596,
				"element": "C" 
			},
			{
				"x": 4.138814706,
				"y": -2.3596666826,
				"z": -0.63100086,
				"element": "C" 
			},
			{
				"x": 3.3086817207,
				"y": -3.406945248,
				"z": -1.4114141234,
				"element": "C" 
			},
			{
				"x": 1.8262329325,
				"y": -3.3146899893,
				"z": -1.0316176131,
				"element": "C" 
			},
			{
				"x": 1.2306287469,
				"y": -1.9437883436,
				"z": -1.4330420623,
				"element": "C" 
			},
			{
				"x": -2.3696307442,
				"y": -3.0865119484,
				"z": 4.8920493272,
				"element": "H" 
			},
			{
				"x": -1.8458969983,
				"y": -3.7160282588,
				"z": 3.3258219801,
				"element": "H" 
			},
			{
				"x": -3.4471971863,
				"y": -4.1286235661,
				"z": 3.9533482528,
				"element": "H" 
			},
			{
				"x": -3.654656779,
				"y": -2.3656252279,
				"z": 2.1852031188,
				"element": "H" 
			},
			{
				"x": -4.1751444105,
				"y": -1.7408841758,
				"z": 3.7397229984,
				"element": "H" 
			},
			{
				"x": -1.9281135065,
				"y": -0.6568779267,
				"z": 4.0572462784,
				"element": "H" 
			},
			{
				"x": -1.4071449812,
				"y": -1.2827704464,
				"z": 2.5025324936,
				"element": "H" 
			},
			{
				"x": -3.750290036,
				"y": 0.6559735534,
				"z": 2.9176335997,
				"element": "H" 
			},
			{
				"x": -3.2284214979,
				"y": 0.0230831216,
				"z": 1.3661565086,
				"element": "H" 
			},
			{
				"x": -1.4849493592,
				"y": 1.6985402378,
				"z": 3.2522442211,
				"element": "H" 
			},
			{
				"x": -0.9819048643,
				"y": 1.1227470621,
				"z": 1.679760101,
				"element": "H" 
			},
			{
				"x": -3.2528549149,
				"y": 3.0991681514,
				"z": 2.2611976694,
				"element": "H" 
			},
			{
				"x": -1.6522209837,
				"y": 3.5310120097,
				"z": 1.6928756228,
				"element": "H" 
			},
			{
				"x": -3.3907295731,
				"y": 3.6603201082,
				"z": -0.0396664665,
				"element": "H" 
			},
			{
				"x": -3.7353303252,
				"y": 1.9524342093,
				"z": 0.082577132,
				"element": "H" 
			},
			{
				"x": -0.9185281354,
				"y": 2.9021364689,
				"z": -0.6141137421,
				"element": "H" 
			},
			{
				"x": -2.1695819155,
				"y": 2.9137995782,
				"z": -1.8386804389,
				"element": "H" 
			},
			{
				"x": -2.5793092841,
				"y": 0.4677556057,
				"z": -1.47098822,
				"element": "H" 
			},
			{
				"x": -1.2355561109,
				"y": 0.4064515461,
				"z": -0.3538406839,
				"element": "H" 
			},
			{
				"x": -0.6646466332,
				"y": -0.3737705757,
				"z": -2.6641059416,
				"element": "H" 
			},
			{
				"x": -1.0931349538,
				"y": 1.193888664,
				"z": -3.3121454153,
				"element": "H" 
			},
			{
				"x": 1.3156304662,
				"y": 1.0421076884,
				"z": -3.2038906428,
				"element": "H" 
			},
			{
				"x": 0.7479308853,
				"y": 2.2895590966,
				"z": -2.1226825475,
				"element": "H" 
			},
			{
				"x": 1.0363769543,
				"y": 0.5743419019,
				"z": -0.1820282748,
				"element": "H" 
			},
			{
				"x": 2.4439383151,
				"y": 1.3074625633,
				"z": -0.9147541005,
				"element": "H" 
			},
			{
				"x": 2.7888241627,
				"y": -0.7261323322,
				"z": -2.3155505618,
				"element": "H" 
			},
			{
				"x": 2.7976538688,
				"y": -1.2504204263,
				"z": 0.6849544541,
				"element": "H" 
			},
			{
				"x": 3.9807489274,
				"y": -0.2462186642,
				"z": -0.1291719297,
				"element": "H" 
			},
			{
				"x": 5.0139957511,
				"y": -2.0713939716,
				"z": -1.2257246008,
				"element": "H" 
			},
			{
				"x": 4.5299925402,
				"y": -2.805898805,
				"z": 0.2912960201,
				"element": "H" 
			},
			{
				"x": 3.6970295917,
				"y": -4.41475529,
				"z": -1.2258944638,
				"element": "H" 
			},
			{
				"x": 3.4090320191,
				"y": -3.2356494555,
				"z": -2.491335837,
				"element": "H" 
			},
			{
				"x": 1.2524048303,
				"y": -4.1223719193,
				"z": -1.5002709144,
				"element": "H" 
			},
			{
				"x": 1.7284942589,
				"y": -3.4623520336,
				"z": 0.0520170791,
				"element": "H" 
			},
			{
				"x": 0.373088844,
				"y": -1.7221890813,
				"z": -0.7851068493,
				"element": "H" 
			},
			{
				"x": 0.8359403385,
				"y": -2.0072931271,
				"z": -2.4535527496,
				"element": "H" 
			}
		],
		 "valence_orbital": [ 
			{
				"type": "occ",
				"energy": -0.29748,
				"method": "rhf"
			},
			{
				"type": "occ",
				"energy": -0.29539,
				"method": "rhf"
			},
			{
				"type": "occ",
				"energy": -0.29011,
				"method": "rhf"
			},
			{
				"type": "occ",
				"energy": -0.28771,
				"method": "rhf"
			},
			{
				"type": "occ",
				"energy": -0.27999,
				"method": "rhf"
			},
			{
				"type": "unocc",
				"energy": 0.06463,
				"method": "rhf"
			},
			{
				"type": "unocc",
				"energy": 0.0843,
				"method": "rhf"
			},
			{
				"type": "unocc",
				"energy": 0.08913,
				"method": "rhf"
			},
			{
				"type": "unocc",
				"energy": 0.09714,
				"method": "rhf"
			},
			{
				"type": "unocc",
				"energy": 0.1001,
				"method": "rhf"
			}
		],
		"cosmo_sigma_profile": { 
			"-0.025": 0.0,
			"-0.024": 0.0,
			"-0.023": 0.0,
			"-0.022": 0.0,
			"-0.021": 0.0,
			"-0.02": 0.0,
			"-0.019": 0.0,
			"-0.018": 0.0,
			"-0.017": 0.0,
			"-0.016": 0.0,
			"-0.015": 0.0,
			"-0.014": 0.0,
			"-0.013": 0.0,
			"-0.012": 0.0,
			"-0.011": 0.0,
			"-0.01": 0.0,
			"-0.009": 0.0,
			"-0.008": 0.0,
			"-0.007": 0.0,
			"-0.006": 0.0,
			"-0.005": 0.0,
			"-0.004": 0.0,
			"-0.003": 2.01154711885,
			"-0.002": 38.2883872247,
			"-0.001": 96.9099302318,
			"0.0": 112.134948252,
			"0.001": 84.5618417691,
			"0.002": 45.6760260101,
			"0.003": 1.15077480905,
			"0.004": 0.0,
			"0.005": 0.0,
			"0.006": 0.0,
			"0.007": 0.0,
			"0.008": 0.0,
			"0.009": 0.0,
			"0.01": 0.0,
			"0.011": 0.0,
			"0.012": 0.0,
			"0.013": 0.0,
			"0.014": 0.0,
			"0.015": 0.0,
			"0.016": 0.0,
			"0.017": 0.0,
			"0.018": 0.0,
			"0.019": 0.0,
			"0.02": 0.0,
			"0.021": 0.0,
			"0.022": 0.0,
			"0.023": 0.0,
			"0.024": 0.0,
			"0.025": 0.0
		}
	}
}
