{
	 "smiles": "NC1=C(N=NS1)C1=CC=C(C=C1)C(F)(F)F", 
	 "Tm": 399.15, 
	 "num_atms": 22, 
	 "gaussian": { 
		 "optdone": 1, 
		 "sigma_profile": "yes", 
		 "theory": "DFT", 
		 "functional": "B3LYP", 
		 "basiset": "6-31G**", 
		 "properties": { 
			 "R2extent": 5888.7494, 
			 "electric_dipole_moment_norm": 4.65112512302, 
			 "electric_quadrupole_moment_norm": 23.0893357031, 
			 "total_energy": -1208.50504874, 
			 "HOMO_LUMO_gap": 0.17682, 
			 "cosmo_polarized_energy": -14.56, 
			 "cosmo_cavitation_energy": 29.99, 
			 "cosmo_dispersion_energy": -22.22, 
			 "cosmo_repulsion_energy": 1.61, 
			 "cosmo_total_nonelectrostatic_energy": 9.38, 
			 "SMD_solvation_energy": 4.27 
		},
		"coords": [
			{
				"x": 3.3457011244,
				"y": -0.9188204189,
				"z": -2.2997259193,
				"element": "N" 
			},
			{
				"x": 3.0474382622,
				"y": 0.3907357112,
				"z": -2.579341996,
				"element": "C" 
			},
			{
				"x": 1.9975498268,
				"y": 1.1549415184,
				"z": -2.0598530265,
				"element": "C" 
			},
			{
				"x": 1.9962453966,
				"y": 2.4392701702,
				"z": -2.5418501894,
				"element": "N" 
			},
			{
				"x": 2.8820675831,
				"y": 2.7642228983,
				"z": -3.376544599,
				"element": "N" 
			},
			{
				"x": 3.9552841619,
				"y": 1.3494622835,
				"z": -3.6867572918,
				"element": "S" 
			},
			{
				"x": 0.9849999595,
				"y": 0.7440266686,
				"z": -1.0750067089,
				"element": "C" 
			},
			{
				"x": 0.4403099221,
				"y": 1.7007594363,
				"z": -0.1974796169,
				"element": "C" 
			},
			{
				"x": -0.5134974603,
				"y": 1.3389300142,
				"z": 0.7454664103,
				"element": "C" 
			},
			{
				"x": -0.9459668778,
				"y": 0.0110691419,
				"z": 0.8361821248,
				"element": "C" 
			},
			{
				"x": -0.430338536,
				"y": -0.9453499169,
				"z": -0.0392203669,
				"element": "C" 
			},
			{
				"x": 0.520342057,
				"y": -0.5812417183,
				"z": -0.9908699996,
				"element": "C" 
			},
			{
				"x": -1.9255627376,
				"y": -0.3900917296,
				"z": 1.9038156843,
				"element": "C" 
			},
			{
				"x": -2.7899636075,
				"y": 0.6069694641,
				"z": 2.1941819437,
				"element": "F" 
			},
			{
				"x": -1.2984721379,
				"y": -0.712483129,
				"z": 3.0607312699,
				"element": "F" 
			},
			{
				"x": -2.6539787035,
				"y": -1.4695417047,
				"z": 1.5411039879,
				"element": "F" 
			},
			{
				"x": 2.9832328698,
				"y": -1.2726003409,
				"z": -1.4236544422,
				"element": "H" 
			},
			{
				"x": 4.2826638025,
				"y": -1.2319438702,
				"z": -2.5075588756,
				"element": "H" 
			},
			{
				"x": 0.7728049963,
				"y": 2.7302284491,
				"z": -0.271480718,
				"element": "H" 
			},
			{
				"x": -0.9280845008,
				"y": 2.0868402901,
				"z": 1.4129985217,
				"element": "H" 
			},
			{
				"x": -0.7894384757,
				"y": -1.9678052485,
				"z": 0.0066738256,
				"element": "H" 
			},
			{
				"x": 0.861063075,
				"y": -1.324277969,
				"z": -1.7049100181,
				"element": "H" 
			}
		],
		 "valence_orbital": [ 
			{
				"type": "occ",
				"energy": -0.30228,
				"method": "rhf"
			},
			{
				"type": "occ",
				"energy": -0.27871,
				"method": "rhf"
			},
			{
				"type": "occ",
				"energy": -0.273,
				"method": "rhf"
			},
			{
				"type": "occ",
				"energy": -0.26073,
				"method": "rhf"
			},
			{
				"type": "occ",
				"energy": -0.22892,
				"method": "rhf"
			},
			{
				"type": "unocc",
				"energy": -0.0521,
				"method": "rhf"
			},
			{
				"type": "unocc",
				"energy": -0.04159,
				"method": "rhf"
			},
			{
				"type": "unocc",
				"energy": -0.03222,
				"method": "rhf"
			},
			{
				"type": "unocc",
				"energy": -0.02164,
				"method": "rhf"
			},
			{
				"type": "unocc",
				"energy": 0.05091,
				"method": "rhf"
			}
		],
		"cosmo_sigma_profile": { 
			"-0.025": 0.0,
			"-0.024": 0.0,
			"-0.023": 0.0,
			"-0.022": 0.0,
			"-0.021": 0.0,
			"-0.02": 0.0,
			"-0.019": 0.0,
			"-0.018": 0.0,
			"-0.017": 0.0,
			"-0.016": 0.448224429648,
			"-0.015": 1.59499653661,
			"-0.014": 2.79790107158,
			"-0.013": 2.88657745475,
			"-0.012": 2.48567414382,
			"-0.011": 2.43350269313,
			"-0.01": 2.54245049802,
			"-0.009": 2.81569347566,
			"-0.008": 2.30726684811,
			"-0.007": 4.86824270273,
			"-0.006": 8.5939441281,
			"-0.005": 9.26093382416,
			"-0.004": 8.18445288011,
			"-0.003": 9.98978432636,
			"-0.002": 11.0270525381,
			"-0.001": 16.8017263943,
			"0.0": 21.4954467928,
			"0.001": 23.538705653,
			"0.002": 32.829660528,
			"0.003": 44.9589789708,
			"0.004": 7.81706344215,
			"0.005": 3.3793338606,
			"0.006": 2.30372369932,
			"0.007": 3.14869484251,
			"0.008": 2.88819214766,
			"0.009": 4.11952675447,
			"0.01": 3.1776742439,
			"0.011": 2.94407388359,
			"0.012": 1.73875367046,
			"0.013": 0.690105424679,
			"0.014": 0.0,
			"0.015": 0.0,
			"0.016": 0.0,
			"0.017": 0.0,
			"0.018": 0.0,
			"0.019": 0.0,
			"0.02": 0.0,
			"0.021": 0.0,
			"0.022": 0.0,
			"0.023": 0.0,
			"0.024": 0.0,
			"0.025": 0.0
		}
	}
}
