{
	 "smiles": "COC1=CC=C(C=C1)C(=O)C1=NOC2C1C(=O)N(C2=O)C1=CC=C(C=C1)C(O)=O", 
	 "Tm": 472.15, 
	 "num_atms": 43, 
	 "gaussian": { 
		 "optdone": 1, 
		 "sigma_profile": "yes", 
		 "theory": "DFT", 
		 "functional": "B3LYP", 
		 "basiset": "6-31G**", 
		 "properties": { 
			 "R2extent": 17238.0785, 
			 "electric_dipole_moment_norm": 6.46494896654, 
			 "electric_quadrupole_moment_norm": 39.4214965993, 
			 "total_energy": -1406.5837248, 
			 "HOMO_LUMO_gap": 0.15256, 
			 "cosmo_polarized_energy": -30.13, 
			 "cosmo_cavitation_energy": 49.78, 
			 "cosmo_dispersion_energy": -35.37, 
			 "cosmo_repulsion_energy": 2.62, 
			 "cosmo_total_nonelectrostatic_energy": 17.03, 
			 "SMD_solvation_energy": 11.74 
		},
		"coords": [
			{
				"x": 6.3399310787,
				"y": -4.4741440241,
				"z": 1.3657242189,
				"element": "C" 
			},
			{
				"x": 5.6980633773,
				"y": -3.7972010823,
				"z": 0.2910771777,
				"element": "O" 
			},
			{
				"x": 4.36510817,
				"y": -3.5658454921,
				"z": 0.3691172687,
				"element": "C" 
			},
			{
				"x": 3.551104727,
				"y": -3.9516911522,
				"z": 1.4473552649,
				"element": "C" 
			},
			{
				"x": 2.1944101627,
				"y": -3.656805115,
				"z": 1.4163541908,
				"element": "C" 
			},
			{
				"x": 1.6146380559,
				"y": -2.9850470791,
				"z": 0.3267147795,
				"element": "C" 
			},
			{
				"x": 2.4450373656,
				"y": -2.60091105,
				"z": -0.7459607657,
				"element": "C" 
			},
			{
				"x": 3.7995187604,
				"y": -2.8887092006,
				"z": -0.7250575961,
				"element": "C" 
			},
			{
				"x": 0.1652169053,
				"y": -2.7044643668,
				"z": 0.4065173593,
				"element": "C" 
			},
			{
				"x": -0.5060604569,
				"y": -2.9737492172,
				"z": 1.3997241225,
				"element": "O" 
			},
			{
				"x": -0.5950422999,
				"y": -2.0825700009,
				"z": -0.730093351,
				"element": "C" 
			},
			{
				"x": -0.2809284516,
				"y": -2.1738921301,
				"z": -1.9725125435,
				"element": "N" 
			},
			{
				"x": -1.2866345403,
				"y": -1.6603683007,
				"z": -2.7737088074,
				"element": "O" 
			},
			{
				"x": -2.4028913909,
				"y": -1.2174411365,
				"z": -1.9391679198,
				"element": "C" 
			},
			{
				"x": -1.9376732323,
				"y": -1.4171869237,
				"z": -0.5042565806,
				"element": "C" 
			},
			{
				"x": -1.7919394288,
				"y": -0.0009394003,
				"z": 0.0758569134,
				"element": "C" 
			},
			{
				"x": -1.4097936594,
				"y": 0.2887649797,
				"z": 1.1825818612,
				"element": "O" 
			},
			{
				"x": -2.1813636215,
				"y": 0.9185487717,
				"z": -0.9245187073,
				"element": "N" 
			},
			{
				"x": -2.5858379204,
				"y": 0.2919460968,
				"z": -2.1181955099,
				"element": "C" 
			},
			{
				"x": -2.993176925,
				"y": 0.8458031859,
				"z": -3.1113810355,
				"element": "O" 
			},
			{
				"x": -2.1708101772,
				"y": 2.3368566083,
				"z": -0.7406786664,
				"element": "C" 
			},
			{
				"x": -1.7592427481,
				"y": 3.1677589839,
				"z": -1.7886368058,
				"element": "C" 
			},
			{
				"x": -1.7489397179,
				"y": 4.5476767378,
				"z": -1.6050163078,
				"element": "C" 
			},
			{
				"x": -2.1393526395,
				"y": 5.1119090351,
				"z": -0.3833358068,
				"element": "C" 
			},
			{
				"x": -2.5675955857,
				"y": 4.267528634,
				"z": 0.6488797263,
				"element": "C" 
			},
			{
				"x": -2.5812161537,
				"y": 2.8881696853,
				"z": 0.4803161876,
				"element": "C" 
			},
			{
				"x": -2.1627763864,
				"y": 6.5901418696,
				"z": -0.1296818378,
				"element": "C" 
			},
			{
				"x": -1.3912043889,
				"y": 7.3638322954,
				"z": -0.9389890566,
				"element": "O" 
			},
			{
				"x": -2.8240663032,
				"y": 7.1000850783,
				"z": 0.743445011,
				"element": "O" 
			},
			{
				"x": 7.391931164,
				"y": -4.5448571187,
				"z": 1.0873865219,
				"element": "H" 
			},
			{
				"x": 5.9331478277,
				"y": -5.483011036,
				"z": 1.5048281408,
				"element": "H" 
			},
			{
				"x": 6.2499083531,
				"y": -3.9138325734,
				"z": 2.304094213,
				"element": "H" 
			},
			{
				"x": 3.9657148041,
				"y": -4.4730422602,
				"z": 2.3015860396,
				"element": "H" 
			},
			{
				"x": 1.5521322126,
				"y": -3.9430867034,
				"z": 2.242214465,
				"element": "H" 
			},
			{
				"x": 2.0258523967,
				"y": -2.0852986776,
				"z": -1.6006890963,
				"element": "H" 
			},
			{
				"x": 4.449239553,
				"y": -2.5988287136,
				"z": -1.5438751122,
				"element": "H" 
			},
			{
				"x": -3.2972956192,
				"y": -1.7562344377,
				"z": -2.2583972249,
				"element": "H" 
			},
			{
				"x": -2.5726429426,
				"y": -2.0131454691,
				"z": 0.1543968116,
				"element": "H" 
			},
			{
				"x": -1.4728801824,
				"y": 2.7420314871,
				"z": -2.7411308112,
				"element": "H" 
			},
			{
				"x": -1.4657145356,
				"y": 5.1756408534,
				"z": -2.4459449938,
				"element": "H" 
			},
			{
				"x": -2.891747753,
				"y": 4.7140373711,
				"z": 1.5823117295,
				"element": "H" 
			},
			{
				"x": -2.8961595938,
				"y": 2.243137868,
				"z": 1.2898302556,
				"element": "H" 
			},
			{
				"x": -0.8008682595,
				"y": 6.8116331196,
				"z": -1.4697837224,
				"element": "H" 
			}
		],
		 "valence_orbital": [ 
			{
				"type": "occ",
				"energy": -0.27264,
				"method": "rhf"
			},
			{
				"type": "occ",
				"energy": -0.27138,
				"method": "rhf"
			},
			{
				"type": "occ",
				"energy": -0.26796,
				"method": "rhf"
			},
			{
				"type": "occ",
				"energy": -0.2632,
				"method": "rhf"
			},
			{
				"type": "occ",
				"energy": -0.23915,
				"method": "rhf"
			},
			{
				"type": "unocc",
				"energy": -0.08659,
				"method": "rhf"
			},
			{
				"type": "unocc",
				"energy": -0.06671,
				"method": "rhf"
			},
			{
				"type": "unocc",
				"energy": -0.05532,
				"method": "rhf"
			},
			{
				"type": "unocc",
				"energy": -0.02991,
				"method": "rhf"
			},
			{
				"type": "unocc",
				"energy": -0.02587,
				"method": "rhf"
			}
		],
		"cosmo_sigma_profile": { 
			"-0.025": 0.0,
			"-0.024": 0.0,
			"-0.023": 0.0,
			"-0.022": 0.0,
			"-0.021": 0.0,
			"-0.02": 0.0,
			"-0.019": 0.445446741925,
			"-0.018": 0.759010250173,
			"-0.017": 1.42337104743,
			"-0.016": 0.711132490909,
			"-0.015": 0.326584285994,
			"-0.014": 1.23457608213,
			"-0.013": 1.75994205603,
			"-0.012": 2.87403250399,
			"-0.011": 3.33426818117,
			"-0.01": 9.15724247385,
			"-0.009": 7.71666542336,
			"-0.008": 7.33434230362,
			"-0.007": 15.7659980804,
			"-0.006": 26.2911642725,
			"-0.005": 26.0164193411,
			"-0.004": 24.3639042095,
			"-0.003": 22.842890834,
			"-0.002": 19.7135550388,
			"-0.001": 16.5742746248,
			"0.0": 20.4085946303,
			"0.001": 26.61747295,
			"0.002": 31.6781214043,
			"0.003": 24.749835673,
			"0.004": 12.4201989516,
			"0.005": 10.6426306918,
			"0.006": 12.7925979038,
			"0.007": 12.2775519103,
			"0.008": 13.4897460565,
			"0.009": 14.8554319957,
			"0.01": 15.8224838709,
			"0.011": 10.6483356064,
			"0.012": 4.1175908855,
			"0.013": 1.23805641439,
			"0.014": 0.00585192180259,
			"0.015": 0.0,
			"0.016": 0.0,
			"0.017": 0.0,
			"0.018": 0.0,
			"0.019": 0.0,
			"0.02": 0.0,
			"0.021": 0.0,
			"0.022": 0.0,
			"0.023": 0.0,
			"0.024": 0.0,
			"0.025": 0.0
		}
	}
}
