{
	 "smiles": "NC1=C(OC2=C1C=CC=C2)C(=O)C1=CC=CS1", 
	 "Tm": 447.15, 
	 "num_atms": 26, 
	 "gaussian": { 
		 "optdone": 1, 
		 "sigma_profile": "yes", 
		 "theory": "DFT", 
		 "functional": "B3LYP", 
		 "basiset": "6-31G**", 
		 "properties": { 
			 "R2extent": 5435.2745, 
			 "electric_dipole_moment_norm": 5.21728641154, 
			 "electric_quadrupole_moment_norm": 18.1580197637, 
			 "total_energy": -1104.16790585, 
			 "HOMO_LUMO_gap": 0.14028, 
			 "cosmo_polarized_energy": -18.1, 
			 "cosmo_cavitation_energy": 32.24, 
			 "cosmo_dispersion_energy": -24.27, 
			 "cosmo_repulsion_energy": 1.81, 
			 "cosmo_total_nonelectrostatic_energy": 9.78, 
			 "SMD_solvation_energy": 6.04 
		},
		"coords": [
			{
				"x": -1.425823253,
				"y": -2.0536627859,
				"z": -0.2587605833,
				"element": "N" 
			},
			{
				"x": -0.691837219,
				"y": -1.0079105633,
				"z": 0.2727028064,
				"element": "C" 
			},
			{
				"x": -0.1782052677,
				"y": 0.1289427128,
				"z": -0.3322129726,
				"element": "C" 
			},
			{
				"x": 0.5012242085,
				"y": 0.9098337178,
				"z": 0.6020901867,
				"element": "O" 
			},
			{
				"x": 0.4325157537,
				"y": 0.2572308184,
				"z": 1.7837948024,
				"element": "C" 
			},
			{
				"x": -0.2900998032,
				"y": -0.9416240918,
				"z": 1.6578582368,
				"element": "C" 
			},
			{
				"x": -0.4690821062,
				"y": -1.7676184579,
				"z": 2.7794309993,
				"element": "C" 
			},
			{
				"x": 0.080308611,
				"y": -1.3592186884,
				"z": 3.9888234859,
				"element": "C" 
			},
			{
				"x": 0.8013298962,
				"y": -0.1509313625,
				"z": 4.0891230403,
				"element": "C" 
			},
			{
				"x": 0.9941276064,
				"y": 0.6781084554,
				"z": 2.9875055465,
				"element": "C" 
			},
			{
				"x": -0.3293513193,
				"y": 0.7595938028,
				"z": -1.6460911265,
				"element": "C" 
			},
			{
				"x": -0.2086672753,
				"y": 1.9764815181,
				"z": -1.7837341701,
				"element": "O" 
			},
			{
				"x": -0.6348234765,
				"y": -0.0920831734,
				"z": -2.8204407545,
				"element": "C" 
			},
			{
				"x": -0.339345914,
				"y": -1.4147127558,
				"z": -3.0845047833,
				"element": "C" 
			},
			{
				"x": -0.6996902972,
				"y": -1.8142407916,
				"z": -4.4014362212,
				"element": "C" 
			},
			{
				"x": -1.255019354,
				"y": -0.7884927845,
				"z": -5.1240888201,
				"element": "C" 
			},
			{
				"x": -1.3283598001,
				"y": 0.6832187562,
				"z": -4.2244329563,
				"element": "S" 
			},
			{
				"x": -2.0698392748,
				"y": -2.4775331001,
				"z": 0.3960349241,
				"element": "H" 
			},
			{
				"x": -1.851965091,
				"y": -1.8743109147,
				"z": -1.1583940294,
				"element": "H" 
			},
			{
				"x": -1.0085249706,
				"y": -2.7079560372,
				"z": 2.7069535936,
				"element": "H" 
			},
			{
				"x": -0.0403718768,
				"y": -1.9798560908,
				"z": 4.8712926935,
				"element": "H" 
			},
			{
				"x": 1.2174326985,
				"y": 0.1388301671,
				"z": 5.0493515885,
				"element": "H" 
			},
			{
				"x": 1.5480067776,
				"y": 1.6079958121,
				"z": 3.0515278467,
				"element": "H" 
			},
			{
				"x": 0.1427923164,
				"y": -2.0681139375,
				"z": -2.3668535448,
				"element": "H" 
			},
			{
				"x": -0.5460845012,
				"y": -2.8125886952,
				"z": -4.79484297,
				"element": "H" 
			},
			{
				"x": -1.6218470684,
				"y": -0.8186815303,
				"z": -6.1413968185,
				"element": "H" 
			}
		],
		 "valence_orbital": [ 
			{
				"type": "occ",
				"energy": -0.26285,
				"method": "rhf"
			},
			{
				"type": "occ",
				"energy": -0.25251,
				"method": "rhf"
			},
			{
				"type": "occ",
				"energy": -0.24343,
				"method": "rhf"
			},
			{
				"type": "occ",
				"energy": -0.2389,
				"method": "rhf"
			},
			{
				"type": "occ",
				"energy": -0.20954,
				"method": "rhf"
			},
			{
				"type": "unocc",
				"energy": -0.06926,
				"method": "rhf"
			},
			{
				"type": "unocc",
				"energy": -0.02467,
				"method": "rhf"
			},
			{
				"type": "unocc",
				"energy": 0.00526,
				"method": "rhf"
			},
			{
				"type": "unocc",
				"energy": 0.02339,
				"method": "rhf"
			},
			{
				"type": "unocc",
				"energy": 0.03365,
				"method": "rhf"
			}
		],
		"cosmo_sigma_profile": { 
			"-0.025": 0.0,
			"-0.024": 0.0,
			"-0.023": 0.0,
			"-0.022": 0.0,
			"-0.021": 0.0,
			"-0.02": 0.0,
			"-0.019": 0.0,
			"-0.018": 0.0,
			"-0.017": 0.0,
			"-0.016": 0.0,
			"-0.015": 0.0,
			"-0.014": 0.338608343146,
			"-0.013": 1.367848509,
			"-0.012": 1.91728362095,
			"-0.011": 3.03015208618,
			"-0.01": 3.08347113468,
			"-0.009": 4.34966032451,
			"-0.008": 6.04254791538,
			"-0.007": 9.72357391445,
			"-0.006": 14.1147876682,
			"-0.005": 16.4529560698,
			"-0.004": 15.453190993,
			"-0.003": 12.9119584148,
			"-0.002": 11.5210589949,
			"-0.001": 14.8168851189,
			"0.0": 16.7012992576,
			"0.001": 23.0991897804,
			"0.002": 25.1572341267,
			"0.003": 25.9515657097,
			"0.004": 18.0391820043,
			"0.005": 7.58855987558,
			"0.006": 3.30438433364,
			"0.007": 3.52506184329,
			"0.008": 2.6680318991,
			"0.009": 2.83219582425,
			"0.01": 3.20530569713,
			"0.011": 3.1164988361,
			"0.012": 4.45455732831,
			"0.013": 4.62705504018,
			"0.014": 2.0724661979,
			"0.015": 0.451191167945,
			"0.016": 0.0,
			"0.017": 0.0,
			"0.018": 0.0,
			"0.019": 0.0,
			"0.02": 0.0,
			"0.021": 0.0,
			"0.022": 0.0,
			"0.023": 0.0,
			"0.024": 0.0,
			"0.025": 0.0
		}
	}
}
