{
	 "smiles": "CC1=C(SC(=N1)C1=NN=CN1)C(O)=O", 
	 "Tm": 560.15, 
	 "num_atms": 20, 
	 "gaussian": { 
		 "optdone": 1, 
		 "sigma_profile": "yes", 
		 "theory": "DFT", 
		 "functional": "B3LYP", 
		 "basiset": "6-31G**", 
		 "properties": { 
			 "R2extent": 4032.852, 
			 "electric_dipole_moment_norm": 6.2470087666, 
			 "electric_quadrupole_moment_norm": 29.1514506864, 
			 "total_energy": -1037.97245388, 
			 "HOMO_LUMO_gap": 0.15666, 
			 "cosmo_polarized_energy": -31.85, 
			 "cosmo_cavitation_energy": 27.33, 
			 "cosmo_dispersion_energy": -20.79, 
			 "cosmo_repulsion_energy": 1.58, 
			 "cosmo_total_nonelectrostatic_energy": 8.12, 
			 "SMD_solvation_energy": 2.52 
		},
		"coords": [
			{
				"x": 3.2693643646,
				"y": -0.5654370242,
				"z": -1.5150810624,
				"element": "C" 
			},
			{
				"x": 1.8856893124,
				"y": -0.8855243618,
				"z": -1.0339584665,
				"element": "C" 
			},
			{
				"x": 1.3408020649,
				"y": -2.1541992649,
				"z": -0.896549944,
				"element": "C" 
			},
			{
				"x": -0.3013073746,
				"y": -2.0230433186,
				"z": -0.3022886752,
				"element": "S" 
			},
			{
				"x": -0.1178660731,
				"y": -0.2705416155,
				"z": -0.2878814434,
				"element": "C" 
			},
			{
				"x": 1.0526901801,
				"y": 0.1441319321,
				"z": -0.6884268767,
				"element": "N" 
			},
			{
				"x": -1.1966796854,
				"y": 0.6050748458,
				"z": 0.1388137096,
				"element": "C" 
			},
			{
				"x": -1.1513821917,
				"y": 1.9249686493,
				"z": 0.1821730531,
				"element": "N" 
			},
			{
				"x": -2.3663085822,
				"y": 2.36857019,
				"z": 0.6381191424,
				"element": "N" 
			},
			{
				"x": -3.1170485375,
				"y": 1.3132129183,
				"z": 0.8599516664,
				"element": "C" 
			},
			{
				"x": -2.4325985121,
				"y": 0.171195189,
				"z": 0.5628630111,
				"element": "N" 
			},
			{
				"x": 2.024247482,
				"y": -3.4283176946,
				"z": -1.199594431,
				"element": "C" 
			},
			{
				"x": 1.3351003513,
				"y": -4.5849524974,
				"z": -1.0074225249,
				"element": "O" 
			},
			{
				"x": 3.1621064977,
				"y": -3.4720132655,
				"z": -1.6104223829,
				"element": "O" 
			},
			{
				"x": 3.4037079978,
				"y": 0.5168099655,
				"z": -1.5137101978,
				"element": "H" 
			},
			{
				"x": 4.0229803453,
				"y": -1.0354497312,
				"z": -0.877535071,
				"element": "H" 
			},
			{
				"x": 3.4340942474,
				"y": -0.9602393569,
				"z": -2.5212219796,
				"element": "H" 
			},
			{
				"x": -4.1336967809,
				"y": 1.3226498039,
				"z": 1.2252330461,
				"element": "H" 
			},
			{
				"x": -2.7700937263,
				"y": -0.7770609459,
				"z": 0.6414460825,
				"element": "H" 
			},
			{
				"x": 0.4384986204,
				"y": -4.4293344172,
				"z": -0.6795066557,
				"element": "H" 
			}
		],
		 "valence_orbital": [ 
			{
				"type": "occ",
				"energy": -0.30163,
				"method": "rhf"
			},
			{
				"type": "occ",
				"energy": -0.30144,
				"method": "rhf"
			},
			{
				"type": "occ",
				"energy": -0.28806,
				"method": "rhf"
			},
			{
				"type": "occ",
				"energy": -0.27103,
				"method": "rhf"
			},
			{
				"type": "occ",
				"energy": -0.25141,
				"method": "rhf"
			},
			{
				"type": "unocc",
				"energy": -0.09475,
				"method": "rhf"
			},
			{
				"type": "unocc",
				"energy": -0.03892,
				"method": "rhf"
			},
			{
				"type": "unocc",
				"energy": -0.02114,
				"method": "rhf"
			},
			{
				"type": "unocc",
				"energy": 0.01067,
				"method": "rhf"
			},
			{
				"type": "unocc",
				"energy": 0.02461,
				"method": "rhf"
			}
		],
		"cosmo_sigma_profile": { 
			"-0.025": 0.0,
			"-0.024": 0.0,
			"-0.023": 0.0,
			"-0.022": 0.0,
			"-0.021": 0.0,
			"-0.02": 0.0133605441982,
			"-0.019": 1.35033844359,
			"-0.018": 2.60486790349,
			"-0.017": 2.04021669254,
			"-0.016": 2.0664850493,
			"-0.015": 2.23857776073,
			"-0.014": 2.24716361222,
			"-0.013": 2.87699730473,
			"-0.012": 3.50362596586,
			"-0.011": 4.53932249247,
			"-0.01": 3.72626389239,
			"-0.009": 3.52712359467,
			"-0.008": 3.68348316093,
			"-0.007": 3.71944414274,
			"-0.006": 5.11966713961,
			"-0.005": 8.847939548,
			"-0.004": 11.1436474961,
			"-0.003": 17.1536828989,
			"-0.002": 21.4604043842,
			"-0.001": 20.8159531117,
			"0.0": 11.5261495517,
			"0.001": 8.55286361283,
			"0.002": 5.73289933766,
			"0.003": 5.39108878127,
			"0.004": 4.59250048151,
			"0.005": 5.15041147649,
			"0.006": 5.80705653329,
			"0.007": 4.69287045357,
			"0.008": 5.09618529565,
			"0.009": 7.06341748689,
			"0.01": 7.70229462054,
			"0.011": 7.65573167266,
			"0.012": 6.36515140697,
			"0.013": 5.57424675292,
			"0.014": 3.29578807962,
			"0.015": 3.55859501822,
			"0.016": 1.59207742879,
			"0.017": 0.0683577651116,
			"0.018": 0.0,
			"0.019": 0.0,
			"0.02": 0.0,
			"0.021": 0.0,
			"0.022": 0.0,
			"0.023": 0.0,
			"0.024": 0.0,
			"0.025": 0.0
		}
	}
}
