{
	 "smiles": "COC(=O)COC1=CC=C(C=C1)C(O)=O", 
	 "Tm": 446.15, 
	 "num_atms": 25, 
	 "gaussian": { 
		 "optdone": 1, 
		 "sigma_profile": "yes", 
		 "theory": "DFT", 
		 "functional": "B3LYP", 
		 "basiset": "6-31G**", 
		 "properties": { 
			 "R2extent": 4516.6125, 
			 "electric_dipole_moment_norm": 5.34171969126, 
			 "electric_quadrupole_moment_norm": 21.76133838, 
			 "total_energy": -763.20890776, 
			 "HOMO_LUMO_gap": 0.19874, 
			 "cosmo_polarized_energy": -19.78, 
			 "cosmo_cavitation_energy": 30.42, 
			 "cosmo_dispersion_energy": -21.69, 
			 "cosmo_repulsion_energy": 1.72, 
			 "cosmo_total_nonelectrostatic_energy": 10.45, 
			 "SMD_solvation_energy": 8.23 
		},
		"coords": [
			{
				"x": 2.9401168862,
				"y": 1.1708744209,
				"z": 1.8052283258,
				"element": "C" 
			},
			{
				"x": 2.7752248469,
				"y": 0.2858430132,
				"z": 0.6802426728,
				"element": "O" 
			},
			{
				"x": 2.6277099163,
				"y": -1.0091808403,
				"z": 0.9886554765,
				"element": "C" 
			},
			{
				"x": 2.6458052849,
				"y": -1.4653196902,
				"z": 2.1107301575,
				"element": "O" 
			},
			{
				"x": 2.4816007301,
				"y": -1.8942377935,
				"z": -0.2494459222,
				"element": "C" 
			},
			{
				"x": 2.0705448821,
				"y": -1.2339332475,
				"z": -1.4308841657,
				"element": "O" 
			},
			{
				"x": 0.7750669932,
				"y": -0.8219999601,
				"z": -1.5402632796,
				"element": "C" 
			},
			{
				"x": -0.2010299535,
				"y": -0.976154954,
				"z": -0.5453913855,
				"element": "C" 
			},
			{
				"x": -1.4963544768,
				"y": -0.5246524197,
				"z": -0.7825855235,
				"element": "C" 
			},
			{
				"x": -1.8408903631,
				"y": 0.0971653271,
				"z": -1.9882490635,
				"element": "C" 
			},
			{
				"x": -0.8536403304,
				"y": 0.2327527495,
				"z": -2.9795654918,
				"element": "C" 
			},
			{
				"x": 0.4394156844,
				"y": -0.2202206115,
				"z": -2.7622410092,
				"element": "C" 
			},
			{
				"x": -3.2548350382,
				"y": 0.5501593136,
				"z": -2.1580188577,
				"element": "C" 
			},
			{
				"x": -3.4972386822,
				"y": 1.4544104761,
				"z": -3.1480317429,
				"element": "O" 
			},
			{
				"x": -4.1681571303,
				"y": 0.1584615356,
				"z": -1.4685590341,
				"element": "O" 
			},
			{
				"x": 2.0731485774,
				"y": 1.1110368787,
				"z": 2.4671382542,
				"element": "H" 
			},
			{
				"x": 3.0317022834,
				"y": 2.1693845,
				"z": 1.3798531652,
				"element": "H" 
			},
			{
				"x": 3.8374194839,
				"y": 0.906660341,
				"z": 2.3695427451,
				"element": "H" 
			},
			{
				"x": 1.8222158274,
				"y": -2.7287985328,
				"z": 0.0120506318,
				"element": "H" 
			},
			{
				"x": 3.4693597512,
				"y": -2.3078572277,
				"z": -0.4750489394,
				"element": "H" 
			},
			{
				"x": 0.0316351129,
				"y": -1.4387623376,
				"z": 0.4067339215,
				"element": "H" 
			},
			{
				"x": -2.2667828963,
				"y": -0.6453170531,
				"z": -0.0286245326,
				"element": "H" 
			},
			{
				"x": -1.0926327871,
				"y": 0.6583350471,
				"z": -3.9514827242,
				"element": "H" 
			},
			{
				"x": 1.2060226291,
				"y": -0.1307861233,
				"z": -3.5242040514,
				"element": "H" 
			},
			{
				"x": -2.6641272316,
				"y": 1.8006371886,
				"z": -3.4954796272,
				"element": "H" 
			}
		],
		 "valence_orbital": [ 
			{
				"type": "occ",
				"energy": -0.31107,
				"method": "rhf"
			},
			{
				"type": "occ",
				"energy": -0.28979,
				"method": "rhf"
			},
			{
				"type": "occ",
				"energy": -0.27463,
				"method": "rhf"
			},
			{
				"type": "occ",
				"energy": -0.26983,
				"method": "rhf"
			},
			{
				"type": "occ",
				"energy": -0.24181,
				"method": "rhf"
			},
			{
				"type": "unocc",
				"energy": -0.04307,
				"method": "rhf"
			},
			{
				"type": "unocc",
				"energy": -0.02664,
				"method": "rhf"
			},
			{
				"type": "unocc",
				"energy": -0.00688,
				"method": "rhf"
			},
			{
				"type": "unocc",
				"energy": 0.05357,
				"method": "rhf"
			},
			{
				"type": "unocc",
				"energy": 0.06177,
				"method": "rhf"
			}
		],
		"cosmo_sigma_profile": { 
			"-0.025": 0.0,
			"-0.024": 0.0,
			"-0.023": 0.0,
			"-0.022": 0.0,
			"-0.021": 0.0,
			"-0.02": 0.0,
			"-0.019": 0.178959299146,
			"-0.018": 0.776144634508,
			"-0.017": 0.987539918391,
			"-0.016": 1.18776329106,
			"-0.015": 0.490710295831,
			"-0.014": 0.986277708715,
			"-0.013": 1.16871159102,
			"-0.012": 1.18846033662,
			"-0.011": 1.35737260279,
			"-0.01": 1.96959726664,
			"-0.009": 4.66553664276,
			"-0.008": 6.60274485495,
			"-0.007": 10.667475139,
			"-0.006": 18.1675444333,
			"-0.005": 16.6931109309,
			"-0.004": 17.2752334208,
			"-0.003": 15.1734975724,
			"-0.002": 11.6447602823,
			"-0.001": 10.3906200036,
			"0.0": 11.3869102873,
			"0.001": 11.6986199472,
			"0.002": 14.7265747864,
			"0.003": 18.5078304233,
			"0.004": 7.03073971342,
			"0.005": 5.96826369603,
			"0.006": 5.95128106685,
			"0.007": 5.55302056163,
			"0.008": 6.34290648433,
			"0.009": 6.99321789829,
			"0.01": 6.0293202411,
			"0.011": 10.0066420974,
			"0.012": 8.33955974021,
			"0.013": 2.23291251058,
			"0.014": 0.213080236106,
			"0.015": 0.0,
			"0.016": 0.0,
			"0.017": 0.0,
			"0.018": 0.0,
			"0.019": 0.0,
			"0.02": 0.0,
			"0.021": 0.0,
			"0.022": 0.0,
			"0.023": 0.0,
			"0.024": 0.0,
			"0.025": 0.0
		}
	}
}
