{
	 "smiles": "CC(C)(C1=CC=C(O)C=C1)C1=CC=C(O)C=C1", 
	 "Tm": 427.15, 
	 "num_atms": 33, 
	 "gaussian": { 
		 "optdone": 1, 
		 "sigma_profile": "yes", 
		 "theory": "DFT", 
		 "functional": "B3LYP", 
		 "basiset": "6-31G**", 
		 "properties": { 
			 "R2extent": 4982.2815, 
			 "electric_dipole_moment_norm": 2.26456110317, 
			 "electric_quadrupole_moment_norm": 8.56073666456, 
			 "total_energy": -731.68594441, 
			 "HOMO_LUMO_gap": 0.20275, 
			 "cosmo_polarized_energy": -14.31, 
			 "cosmo_cavitation_energy": 35.24, 
			 "cosmo_dispersion_energy": -24.75, 
			 "cosmo_repulsion_energy": 1.91, 
			 "cosmo_total_nonelectrostatic_energy": 12.4, 
			 "SMD_solvation_energy": 6.67 
		},
		"coords": [
			{
				"x": -2.1444664439,
				"y": 0.2124657818,
				"z": 2.3589162154,
				"element": "C" 
			},
			{
				"x": -0.9260121948,
				"y": -0.4964862829,
				"z": 1.7196353929,
				"element": "C" 
			},
			{
				"x": -0.5106899229,
				"y": -1.6475696204,
				"z": 2.6677456317,
				"element": "C" 
			},
			{
				"x": 0.1913635215,
				"y": 0.5537785873,
				"z": 1.5540402591,
				"element": "C" 
			},
			{
				"x": 0.0588191744,
				"y": 1.5579096637,
				"z": 0.5821884434,
				"element": "C" 
			},
			{
				"x": 1.0123345298,
				"y": 2.5605784169,
				"z": 0.4274663277,
				"element": "C" 
			},
			{
				"x": 2.1430155575,
				"y": 2.5827946169,
				"z": 1.2517165578,
				"element": "C" 
			},
			{
				"x": 3.1175211158,
				"y": 3.5371743921,
				"z": 1.1482790038,
				"element": "O" 
			},
			{
				"x": 2.3000790319,
				"y": 1.5929687685,
				"z": 2.2231165312,
				"element": "C" 
			},
			{
				"x": 1.3328460992,
				"y": 0.597749174,
				"z": 2.3665556274,
				"element": "C" 
			},
			{
				"x": -1.2665023167,
				"y": -1.1189910342,
				"z": 0.3506687586,
				"element": "C" 
			},
			{
				"x": -2.5719341129,
				"y": -1.2333472233,
				"z": -0.1380183208,
				"element": "C" 
			},
			{
				"x": -2.8443772464,
				"y": -1.8499921649,
				"z": -1.3633252002,
				"element": "C" 
			},
			{
				"x": -1.8032492059,
				"y": -2.3730948874,
				"z": -2.1303588923,
				"element": "C" 
			},
			{
				"x": -2.0006103778,
				"y": -2.9876550244,
				"z": -3.3363793626,
				"element": "O" 
			},
			{
				"x": -0.4874907211,
				"y": -2.2693857822,
				"z": -1.6628019698,
				"element": "C" 
			},
			{
				"x": -0.2348269498,
				"y": -1.6504253474,
				"z": -0.445049737,
				"element": "C" 
			},
			{
				"x": -2.5386911645,
				"y": 1.0046435584,
				"z": 1.7156230467,
				"element": "H" 
			},
			{
				"x": -2.9540717896,
				"y": -0.4934792758,
				"z": 2.5735056596,
				"element": "H" 
			},
			{
				"x": -1.8443844219,
				"y": 0.6722931033,
				"z": 3.3050300777,
				"element": "H" 
			},
			{
				"x": -0.3277130613,
				"y": -1.284852449,
				"z": 3.6848289406,
				"element": "H" 
			},
			{
				"x": 0.3901017742,
				"y": -2.15965716,
				"z": 2.3172852117,
				"element": "H" 
			},
			{
				"x": -1.3150418222,
				"y": -2.3872939469,
				"z": 2.7179517842,
				"element": "H" 
			},
			{
				"x": -0.8028889664,
				"y": 1.5490030737,
				"z": -0.0792554869,
				"element": "H" 
			},
			{
				"x": 0.8812482677,
				"y": 3.3228157667,
				"z": -0.3385669639,
				"element": "H" 
			},
			{
				"x": 2.8840682038,
				"y": 4.1484366694,
				"z": 0.4378404015,
				"element": "H" 
			},
			{
				"x": 3.1813640555,
				"y": 1.6126055855,
				"z": 2.8560835384,
				"element": "H" 
			},
			{
				"x": 1.4876668117,
				"y": -0.1549181074,
				"z": 3.1317135504,
				"element": "H" 
			},
			{
				"x": -3.4072143915,
				"y": -0.8398650081,
				"z": 0.4306323504,
				"element": "H" 
			},
			{
				"x": -3.8712669689,
				"y": -1.9198376057,
				"z": -1.7176394757,
				"element": "H" 
			},
			{
				"x": -2.9457206442,
				"y": -2.9916147803,
				"z": -3.5356807121,
				"element": "H" 
			},
			{
				"x": 0.3182330634,
				"y": -2.6730973376,
				"z": -2.2674281147,
				"element": "H" 
			},
			{
				"x": 0.7937915163,
				"y": -1.5644541203,
				"z": -0.106219074,
				"element": "H" 
			}
		],
		 "valence_orbital": [ 
			{
				"type": "occ",
				"energy": -0.31179,
				"method": "rhf"
			},
			{
				"type": "occ",
				"energy": -0.24806,
				"method": "rhf"
			},
			{
				"type": "occ",
				"energy": -0.24503,
				"method": "rhf"
			},
			{
				"type": "occ",
				"energy": -0.21906,
				"method": "rhf"
			},
			{
				"type": "occ",
				"energy": -0.20548,
				"method": "rhf"
			},
			{
				"type": "unocc",
				"energy": -0.00273,
				"method": "rhf"
			},
			{
				"type": "unocc",
				"energy": 0.00566,
				"method": "rhf"
			},
			{
				"type": "unocc",
				"energy": 0.01417,
				"method": "rhf"
			},
			{
				"type": "unocc",
				"energy": 0.02177,
				"method": "rhf"
			},
			{
				"type": "unocc",
				"energy": 0.07324,
				"method": "rhf"
			}
		],
		"cosmo_sigma_profile": { 
			"-0.025": 0.0,
			"-0.024": 0.0,
			"-0.023": 0.0,
			"-0.022": 0.0,
			"-0.021": 0.0,
			"-0.02": 0.0,
			"-0.019": 0.0,
			"-0.018": 0.378050918165,
			"-0.017": 1.98739033496,
			"-0.016": 1.96449330782,
			"-0.015": 2.31163602332,
			"-0.014": 2.05311384477,
			"-0.013": 1.48596420143,
			"-0.012": 1.68168394445,
			"-0.011": 2.45435915414,
			"-0.01": 1.68077605848,
			"-0.009": 2.57602107887,
			"-0.008": 2.14577120912,
			"-0.007": 2.14940581725,
			"-0.006": 4.76920751772,
			"-0.005": 10.2927888466,
			"-0.004": 17.4384195834,
			"-0.003": 26.7653169016,
			"-0.002": 25.2792045532,
			"-0.001": 20.119956175,
			"0.0": 21.1303706269,
			"0.001": 21.0792447329,
			"0.002": 15.7133369709,
			"0.003": 15.3003250604,
			"0.004": 18.4843171366,
			"0.005": 19.7299084915,
			"0.006": 19.3721923685,
			"0.007": 3.77449896819,
			"0.008": 2.97335263515,
			"0.009": 3.362455498,
			"0.01": 2.79378764868,
			"0.011": 4.0236357312,
			"0.012": 2.53590701876,
			"0.013": 0.0,
			"0.014": 0.0,
			"0.015": 0.0,
			"0.016": 0.0,
			"0.017": 0.0,
			"0.018": 0.0,
			"0.019": 0.0,
			"0.02": 0.0,
			"0.021": 0.0,
			"0.022": 0.0,
			"0.023": 0.0,
			"0.024": 0.0,
			"0.025": 0.0
		}
	}
}
