{
	 "smiles": "OC1CCCS(=O)(=O)C1", 
	 "Tm": 373.15, 
	 "num_atms": 19, 
	 "gaussian": { 
		 "optdone": 1, 
		 "sigma_profile": "yes", 
		 "theory": "DFT", 
		 "functional": "B3LYP", 
		 "basiset": "6-31G**", 
		 "properties": { 
			 "R2extent": 2057.4495, 
			 "electric_dipole_moment_norm": 5.96787408966, 
			 "electric_quadrupole_moment_norm": 14.7552701148, 
			 "total_energy": -820.349233645, 
			 "HOMO_LUMO_gap": 0.31154, 
			 "cosmo_polarized_energy": -18.0, 
			 "cosmo_cavitation_energy": 21.6, 
			 "cosmo_dispersion_energy": -17.08, 
			 "cosmo_repulsion_energy": 1.34, 
			 "cosmo_total_nonelectrostatic_energy": 5.86, 
			 "SMD_solvation_energy": 2.52 
		},
		"coords": [
			{
				"x": 0.6003506841,
				"y": -2.3458947496,
				"z": 0.1127451816,
				"element": "O" 
			},
			{
				"x": -0.3897060787,
				"y": -1.3590842948,
				"z": 0.4109230523,
				"element": "C" 
			},
			{
				"x": -1.8057840534,
				"y": -1.8418190286,
				"z": 0.0601231522,
				"element": "C" 
			},
			{
				"x": -1.9390324018,
				"y": -2.3822675396,
				"z": -1.3866970995,
				"element": "C" 
			},
			{
				"x": -0.9740466037,
				"y": -1.7391499965,
				"z": -2.3997861032,
				"element": "C" 
			},
			{
				"x": -0.7122628748,
				"y": 0.0134708382,
				"z": -2.0392589699,
				"element": "S" 
			},
			{
				"x": 0.2910216187,
				"y": 0.5609940226,
				"z": -2.9650929578,
				"element": "O" 
			},
			{
				"x": -2.0351402454,
				"y": 0.6538388016,
				"z": -1.9068730247,
				"element": "O" 
			},
			{
				"x": 0.0156031116,
				"y": -0.0917071062,
				"z": -0.3631605526,
				"element": "C" 
			},
			{
				"x": 0.3802799573,
				"y": -3.1485363511,
				"z": 0.6037731378,
				"element": "H" 
			},
			{
				"x": -0.3530943448,
				"y": -1.1063876712,
				"z": 1.4816365071,
				"element": "H" 
			},
			{
				"x": -2.1073913518,
				"y": -2.6227617952,
				"z": 0.7683576602,
				"element": "H" 
			},
			{
				"x": -2.4949323096,
				"y": -1.0038012739,
				"z": 0.206229584,
				"element": "H" 
			},
			{
				"x": -2.9693778293,
				"y": -2.2351430489,
				"z": -1.7194079485,
				"element": "H" 
			},
			{
				"x": -1.7491739532,
				"y": -3.4601996404,
				"z": -1.4045023126,
				"element": "H" 
			},
			{
				"x": -1.3493462547,
				"y": -1.7795941471,
				"z": -3.425517551,
				"element": "H" 
			},
			{
				"x": 0.0179900987,
				"y": -2.193183113,
				"z": -2.3596357244,
				"element": "H" 
			},
			{
				"x": -0.341158143,
				"y": 0.8120604112,
				"z": 0.1364265213,
				"element": "H" 
			},
			{
				"x": 1.1011009736,
				"y": -0.0523343173,
				"z": -0.4715825523,
				"element": "H" 
			}
		],
		 "valence_orbital": [ 
			{
				"type": "occ",
				"energy": -0.31425,
				"method": "rhf"
			},
			{
				"type": "occ",
				"energy": -0.3035,
				"method": "rhf"
			},
			{
				"type": "occ",
				"energy": -0.29307,
				"method": "rhf"
			},
			{
				"type": "occ",
				"energy": -0.28618,
				"method": "rhf"
			},
			{
				"type": "occ",
				"energy": -0.27139,
				"method": "rhf"
			},
			{
				"type": "unocc",
				"energy": 0.04015,
				"method": "rhf"
			},
			{
				"type": "unocc",
				"energy": 0.06889,
				"method": "rhf"
			},
			{
				"type": "unocc",
				"energy": 0.07501,
				"method": "rhf"
			},
			{
				"type": "unocc",
				"energy": 0.08216,
				"method": "rhf"
			},
			{
				"type": "unocc",
				"energy": 0.0951,
				"method": "rhf"
			}
		],
		"cosmo_sigma_profile": { 
			"-0.025": 0.0,
			"-0.024": 0.0,
			"-0.023": 0.0,
			"-0.022": 0.0,
			"-0.021": 0.0,
			"-0.02": 0.0,
			"-0.019": 0.0,
			"-0.018": 0.0,
			"-0.017": 0.0,
			"-0.016": 0.605557226113,
			"-0.015": 1.17772491265,
			"-0.014": 1.14901044557,
			"-0.013": 0.883699848574,
			"-0.012": 0.838871692796,
			"-0.011": 1.0442027872,
			"-0.01": 1.1478225292,
			"-0.009": 1.00818816837,
			"-0.008": 5.00530279639,
			"-0.007": 8.18800366169,
			"-0.006": 10.8894328339,
			"-0.005": 16.1734304111,
			"-0.004": 19.5613586446,
			"-0.003": 15.2792312922,
			"-0.002": 11.546178701,
			"-0.001": 9.72467500729,
			"0.0": 4.09722589615,
			"0.001": 3.58984079153,
			"0.002": 3.53617240505,
			"0.003": 3.24382236891,
			"0.004": 3.11261608027,
			"0.005": 3.6477577509,
			"0.006": 3.0320035475,
			"0.007": 2.34723231048,
			"0.008": 2.78129588028,
			"0.009": 4.05276863199,
			"0.01": 4.17505112842,
			"0.011": 8.07041207564,
			"0.012": 12.1994284352,
			"0.013": 5.78998400946,
			"0.014": 0.0516153865123,
			"0.015": 0.0,
			"0.016": 0.0,
			"0.017": 0.0,
			"0.018": 0.0,
			"0.019": 0.0,
			"0.02": 0.0,
			"0.021": 0.0,
			"0.022": 0.0,
			"0.023": 0.0,
			"0.024": 0.0,
			"0.025": 0.0
		}
	}
}
