{
	 "smiles": "NNC(=O)C1=CC=CC(OCC2=CC=CC=C2)=C1", 
	 "Tm": 387.15, 
	 "num_atms": 32, 
	 "gaussian": { 
		 "optdone": 1, 
		 "sigma_profile": "yes", 
		 "theory": "DFT", 
		 "functional": "B3LYP", 
		 "basiset": "6-31G**", 
		 "properties": { 
			 "R2extent": 6978.4457, 
			 "electric_dipole_moment_norm": 3.73550827198, 
			 "electric_quadrupole_moment_norm": 6.87183251469, 
			 "total_energy": -801.853482731, 
			 "HOMO_LUMO_gap": 0.19127, 
			 "cosmo_polarized_energy": -15.21, 
			 "cosmo_cavitation_energy": 36.5, 
			 "cosmo_dispersion_energy": -26.05, 
			 "cosmo_repulsion_energy": 2.03, 
			 "cosmo_total_nonelectrostatic_energy": 12.49, 
			 "SMD_solvation_energy": 7.29 
		},
		"coords": [
			{
				"x": 0.7315077224,
				"y": 3.1445101068,
				"z": -4.7453784592,
				"element": "N" 
			},
			{
				"x": 0.5921347485,
				"y": 2.1188603729,
				"z": -3.7820618487,
				"element": "N" 
			},
			{
				"x": 1.3292538291,
				"y": 2.1727577105,
				"z": -2.6203539686,
				"element": "C" 
			},
			{
				"x": 2.2066592428,
				"y": 3.0171298668,
				"z": -2.4604258924,
				"element": "O" 
			},
			{
				"x": 0.9841966738,
				"y": 1.1539659669,
				"z": -1.5752080892,
				"element": "C" 
			},
			{
				"x": 1.3541383959,
				"y": 1.4302563173,
				"z": -0.2509507682,
				"element": "C" 
			},
			{
				"x": 1.0472765789,
				"y": 0.5153882975,
				"z": 0.7497431439,
				"element": "C" 
			},
			{
				"x": 0.3868049316,
				"y": -0.6823597345,
				"z": 0.4566495487,
				"element": "C" 
			},
			{
				"x": 0.0403639455,
				"y": -0.9673679195,
				"z": -0.869197506,
				"element": "C" 
			},
			{
				"x": -0.5786959129,
				"y": -2.114166912,
				"z": -1.2897572515,
				"element": "O" 
			},
			{
				"x": -0.7589517214,
				"y": -3.1881458736,
				"z": -0.3677780759,
				"element": "C" 
			},
			{
				"x": -1.9274292993,
				"y": -3.0051714737,
				"z": 0.5821046865,
				"element": "C" 
			},
			{
				"x": -1.8952843307,
				"y": -3.5911698186,
				"z": 1.8528921828,
				"element": "C" 
			},
			{
				"x": -2.9896004752,
				"y": -3.4820155059,
				"z": 2.7127789049,
				"element": "C" 
			},
			{
				"x": -4.1252520362,
				"y": -2.7765976049,
				"z": 2.311810346,
				"element": "C" 
			},
			{
				"x": -4.161060367,
				"y": -2.1849058119,
				"z": 1.047089068,
				"element": "C" 
			},
			{
				"x": -3.0704984624,
				"y": -2.3016715565,
				"z": 0.1851383809,
				"element": "C" 
			},
			{
				"x": 0.3389642434,
				"y": -0.0466474709,
				"z": -1.8821574431,
				"element": "C" 
			},
			{
				"x": 1.0702776794,
				"y": 3.9647792663,
				"z": -4.2382810187,
				"element": "H" 
			},
			{
				"x": 1.5005715961,
				"y": 2.876786676,
				"z": -5.3592183116,
				"element": "H" 
			},
			{
				"x": -0.3342658219,
				"y": 1.7174574248,
				"z": -3.7481912851,
				"element": "H" 
			},
			{
				"x": 1.8732408668,
				"y": 2.3573998632,
				"z": -0.0371124095,
				"element": "H" 
			},
			{
				"x": 1.3173344767,
				"y": 0.729190008,
				"z": 1.7798607952,
				"element": "H" 
			},
			{
				"x": 0.1375172046,
				"y": -1.368343785,
				"z": 1.2567091716,
				"element": "H" 
			},
			{
				"x": -0.9322131527,
				"y": -4.0589151141,
				"z": -1.0097076523,
				"element": "H" 
			},
			{
				"x": 0.1683835887,
				"y": -3.3725759817,
				"z": 0.1905117461,
				"element": "H" 
			},
			{
				"x": -1.0095719326,
				"y": -4.1358588732,
				"z": 2.173200857,
				"element": "H" 
			},
			{
				"x": -2.9509877683,
				"y": -3.9403517265,
				"z": 3.6968917158,
				"element": "H" 
			},
			{
				"x": -4.9753584885,
				"y": -2.6850715253,
				"z": 2.9815909603,
				"element": "H" 
			},
			{
				"x": -5.0408251313,
				"y": -1.6316616763,
				"z": 0.7306875652,
				"element": "H" 
			},
			{
				"x": -3.0946862804,
				"y": -1.8403912383,
				"z": -0.797241335,
				"element": "H" 
			},
			{
				"x": 0.0914554568,
				"y": -0.3166922744,
				"z": -2.9034377577,
				"element": "H" 
			}
		],
		 "valence_orbital": [ 
			{
				"type": "occ",
				"energy": -0.25749,
				"method": "rhf"
			},
			{
				"type": "occ",
				"energy": -0.25558,
				"method": "rhf"
			},
			{
				"type": "occ",
				"energy": -0.25052,
				"method": "rhf"
			},
			{
				"type": "occ",
				"energy": -0.24712,
				"method": "rhf"
			},
			{
				"type": "occ",
				"energy": -0.22709,
				"method": "rhf"
			},
			{
				"type": "unocc",
				"energy": -0.03582,
				"method": "rhf"
			},
			{
				"type": "unocc",
				"energy": -0.01154,
				"method": "rhf"
			},
			{
				"type": "unocc",
				"energy": -0.01033,
				"method": "rhf"
			},
			{
				"type": "unocc",
				"energy": 0.00218,
				"method": "rhf"
			},
			{
				"type": "unocc",
				"energy": 0.05991,
				"method": "rhf"
			}
		],
		"cosmo_sigma_profile": { 
			"-0.025": 0.0,
			"-0.024": 0.0,
			"-0.023": 0.0,
			"-0.022": 0.0,
			"-0.021": 0.0,
			"-0.02": 0.0,
			"-0.019": 0.0,
			"-0.018": 0.0,
			"-0.017": 0.0,
			"-0.016": 0.0,
			"-0.015": 0.0,
			"-0.014": 0.592500411601,
			"-0.013": 0.953914355157,
			"-0.012": 1.40382457013,
			"-0.011": 2.99856715832,
			"-0.01": 2.93972506096,
			"-0.009": 3.55167523097,
			"-0.008": 3.22438690626,
			"-0.007": 5.84578112607,
			"-0.006": 17.1237574723,
			"-0.005": 22.9584401733,
			"-0.004": 24.2311083484,
			"-0.003": 20.497661693,
			"-0.002": 17.6785387435,
			"-0.001": 16.7425594032,
			"0.0": 16.1015014533,
			"0.001": 19.0473072859,
			"0.002": 19.9483828193,
			"0.003": 22.3082979332,
			"0.004": 22.887600368,
			"0.005": 14.8508012273,
			"0.006": 9.09367065445,
			"0.007": 2.54626234346,
			"0.008": 4.11697078845,
			"0.009": 2.82768749577,
			"0.01": 2.49397118347,
			"0.011": 1.72209702349,
			"0.012": 3.41116866792,
			"0.013": 4.98810648016,
			"0.014": 2.13374318919,
			"0.015": 0.614789626073,
			"0.016": 0.522986756474,
			"0.017": 0.28819373284,
			"0.018": 0.0,
			"0.019": 0.0,
			"0.02": 0.0,
			"0.021": 0.0,
			"0.022": 0.0,
			"0.023": 0.0,
			"0.024": 0.0,
			"0.025": 0.0
		}
	}
}
