{
	 "smiles": "CCCNC1=NC=C(CN2CCN(C)CC2)C=C1", 
	 "Tm": 343.15, 
	 "num_atms": 42, 
	 "gaussian": { 
		 "optdone": 1, 
		 "sigma_profile": "yes", 
		 "theory": "DFT", 
		 "functional": "B3LYP", 
		 "basiset": "6-31G**", 
		 "properties": { 
			 "R2extent": 7954.3182, 
			 "electric_dipole_moment_norm": 2.28557257159, 
			 "electric_quadrupole_moment_norm": 9.93564180816, 
			 "total_energy": -766.944161037, 
			 "HOMO_LUMO_gap": 0.18389, 
			 "cosmo_polarized_energy": -10.93, 
			 "cosmo_cavitation_energy": 42.16, 
			 "cosmo_dispersion_energy": -29.82, 
			 "cosmo_repulsion_energy": 2.34, 
			 "cosmo_total_nonelectrostatic_energy": 14.68, 
			 "SMD_solvation_energy": 1.4 
		},
		"coords": [
			{
				"x": -6.1163395977,
				"y": 3.5307340589,
				"z": 0.1357797431,
				"element": "C" 
			},
			{
				"x": -5.8463919837,
				"y": 2.0289304758,
				"z": 0.0058546515,
				"element": "C" 
			},
			{
				"x": -4.3525633006,
				"y": 1.7003643855,
				"z": 0.0322329846,
				"element": "C" 
			},
			{
				"x": -4.1377912567,
				"y": 0.265604557,
				"z": -0.0971844184,
				"element": "N" 
			},
			{
				"x": -2.9069212295,
				"y": -0.317468897,
				"z": 0.1192646176,
				"element": "C" 
			},
			{
				"x": -1.9609142549,
				"y": 0.4316646823,
				"z": 0.7108557665,
				"element": "N" 
			},
			{
				"x": -0.7793532007,
				"y": -0.1396536905,
				"z": 0.9702807812,
				"element": "C" 
			},
			{
				"x": -0.4431246239,
				"y": -1.4590620636,
				"z": 0.6599958217,
				"element": "C" 
			},
			{
				"x": 0.9147263502,
				"y": -2.0286581977,
				"z": 1.014155503,
				"element": "C" 
			},
			{
				"x": 2.0236305583,
				"y": -1.2474738361,
				"z": 0.4718079453,
				"element": "N" 
			},
			{
				"x": 3.3202222332,
				"y": -1.6017694905,
				"z": 1.0402718927,
				"element": "C" 
			},
			{
				"x": 4.3585342382,
				"y": -0.5017925019,
				"z": 0.6941051493,
				"element": "C" 
			},
			{
				"x": 4.0822836555,
				"y": 0.1834084759,
				"z": -0.5768777006,
				"element": "N" 
			},
			{
				"x": 3.3898399926,
				"y": 1.4619939267,
				"z": -0.4331522497,
				"element": "C" 
			},
			{
				"x": 3.4310945647,
				"y": -0.7324802419,
				"z": -1.5038095236,
				"element": "C" 
			},
			{
				"x": 2.0666656204,
				"y": -1.2731235901,
				"z": -0.9954130818,
				"element": "C" 
			},
			{
				"x": -1.4389895874,
				"y": -2.2206347721,
				"z": 0.03047166,
				"element": "C" 
			},
			{
				"x": -2.6772826179,
				"y": -1.664253567,
				"z": -0.2430969177,
				"element": "C" 
			},
			{
				"x": -5.7208182927,
				"y": 3.9230886134,
				"z": 1.0790670582,
				"element": "H" 
			},
			{
				"x": -7.189425799,
				"y": 3.7436781218,
				"z": 0.1105224659,
				"element": "H" 
			},
			{
				"x": -5.6459567466,
				"y": 4.0919109578,
				"z": -0.6793129836,
				"element": "H" 
			},
			{
				"x": -6.3446170117,
				"y": 1.4833666578,
				"z": 0.816474384,
				"element": "H" 
			},
			{
				"x": -6.2855114066,
				"y": 1.660351124,
				"z": -0.9328773313,
				"element": "H" 
			},
			{
				"x": -3.8296229412,
				"y": 2.2602895082,
				"z": -0.7610903552,
				"element": "H" 
			},
			{
				"x": -3.9053460075,
				"y": 2.0209225643,
				"z": 0.9767156637,
				"element": "H" 
			},
			{
				"x": -4.7305526192,
				"y": -0.2087182153,
				"z": -0.7634819058,
				"element": "H" 
			},
			{
				"x": -0.0385899841,
				"y": 0.5005586477,
				"z": 1.4476242119,
				"element": "H" 
			},
			{
				"x": 1.0338269323,
				"y": -2.042817025,
				"z": 2.105887932,
				"element": "H" 
			},
			{
				"x": 0.9553506884,
				"y": -3.0867763545,
				"z": 0.6838341662,
				"element": "H" 
			},
			{
				"x": 3.672358776,
				"y": -2.5898856241,
				"z": 0.6808122998,
				"element": "H" 
			},
			{
				"x": 3.2187212769,
				"y": -1.6885802037,
				"z": 2.127689124,
				"element": "H" 
			},
			{
				"x": 5.3582067076,
				"y": -0.9591367248,
				"z": 0.6556077768,
				"element": "H" 
			},
			{
				"x": 4.3802273755,
				"y": 0.2495725019,
				"z": 1.4889610351,
				"element": "H" 
			},
			{
				"x": 3.9990309014,
				"y": 2.1353071127,
				"z": 0.1794696767,
				"element": "H" 
			},
			{
				"x": 3.2862928643,
				"y": 1.9234580369,
				"z": -1.421869204,
				"element": "H" 
			},
			{
				"x": 2.3905782937,
				"y": 1.3900780773,
				"z": 0.0242028747,
				"element": "H" 
			},
			{
				"x": 3.2990477098,
				"y": -0.2375951566,
				"z": -2.4720760487,
				"element": "H" 
			},
			{
				"x": 4.1166771976,
				"y": -1.5726579823,
				"z": -1.6733210567,
				"element": "H" 
			},
			{
				"x": 1.9193046369,
				"y": -2.3004306853,
				"z": -1.3866983902,
				"element": "H" 
			},
			{
				"x": 1.2356380863,
				"y": -0.6695127322,
				"z": -1.3741063974,
				"element": "H" 
			},
			{
				"x": -1.2376456383,
				"y": -3.254025564,
				"z": -0.2436210192,
				"element": "H" 
			},
			{
				"x": -3.4590005595,
				"y": -2.2454753698,
				"z": -0.7246566019,
				"element": "H" 
			}
		],
		 "valence_orbital": [ 
			{
				"type": "occ",
				"energy": -0.2706,
				"method": "rhf"
			},
			{
				"type": "occ",
				"energy": -0.2445,
				"method": "rhf"
			},
			{
				"type": "occ",
				"energy": -0.20964,
				"method": "rhf"
			},
			{
				"type": "occ",
				"energy": -0.19553,
				"method": "rhf"
			},
			{
				"type": "occ",
				"energy": -0.19174,
				"method": "rhf"
			},
			{
				"type": "unocc",
				"energy": -0.00785,
				"method": "rhf"
			},
			{
				"type": "unocc",
				"energy": 0.01425,
				"method": "rhf"
			},
			{
				"type": "unocc",
				"energy": 0.08073,
				"method": "rhf"
			},
			{
				"type": "unocc",
				"energy": 0.08782,
				"method": "rhf"
			},
			{
				"type": "unocc",
				"energy": 0.09723,
				"method": "rhf"
			}
		],
		"cosmo_sigma_profile": { 
			"-0.025": 0.0,
			"-0.024": 0.0,
			"-0.023": 0.0,
			"-0.022": 0.0,
			"-0.021": 0.0,
			"-0.02": 0.0,
			"-0.019": 0.0,
			"-0.018": 0.0,
			"-0.017": 0.0,
			"-0.016": 0.0,
			"-0.015": 0.0,
			"-0.014": 0.0,
			"-0.013": 0.218276691443,
			"-0.012": 1.20043731063,
			"-0.011": 1.27067035069,
			"-0.01": 1.60255245045,
			"-0.009": 1.22952485057,
			"-0.008": 1.83230247892,
			"-0.007": 2.18536627792,
			"-0.006": 3.56183349007,
			"-0.005": 5.84343310954,
			"-0.004": 15.478582148,
			"-0.003": 36.1190114455,
			"-0.002": 50.4711305467,
			"-0.001": 55.3459961801,
			"0.0": 43.2195673913,
			"0.001": 28.471121284,
			"0.002": 14.4716147262,
			"0.003": 12.8056030696,
			"0.004": 12.9897409723,
			"0.005": 9.95345739101,
			"0.006": 6.45704888283,
			"0.007": 4.22036643435,
			"0.008": 3.69545215768,
			"0.009": 3.71106676287,
			"0.01": 2.21887593995,
			"0.011": 1.54640827937,
			"0.012": 2.6576938942,
			"0.013": 1.39181989184,
			"0.014": 0.910621430538,
			"0.015": 1.30388060037,
			"0.016": 0.265819688287,
			"0.017": 0.484561120577,
			"0.018": 0.0285758662556,
			"0.019": 0.0,
			"0.02": 0.0,
			"0.021": 0.0,
			"0.022": 0.0,
			"0.023": 0.0,
			"0.024": 0.0,
			"0.025": 0.0
		}
	}
}
