{
	 "smiles": "CCCCCCCI", 
	 "Tm": 225.05, 
	 "num_atms": 23, 
	 "gaussian": { 
		 "optdone": 1, 
		 "sigma_profile": "no", 
		 "theory": "DFT", 
		 "functional": "B3LYP", 
		 "basiset": "6-31G**", 
		 "properties": { 
			 "R2extent": 1911.4464, 
			 "electric_dipole_moment_norm": 2.59169611259, 
			 "electric_quadrupole_moment_norm": 8.50391369606, 
			 "total_energy": -287.195929636, 
			 "HOMO_LUMO_gap": 0.21477, 
			 "cosmo_polarized_energy": -113268.28, 
			 "cosmo_cavitation_energy": 27.27, 
			 "cosmo_dispersion_energy": -21.02, 
			 "cosmo_repulsion_energy": 1.75, 
			 "cosmo_total_nonelectrostatic_energy": 8.0, 
			 "SMD_solvation_energy": 3.11 
		},
		"coords": [
			{
				"x": -0.0732542021,
				"y": 0.4385064818,
				"z": 3.0011785852,
				"element": "C" 
			},
			{
				"x": 1.3459391166,
				"y": 0.5466128503,
				"z": 2.431531426,
				"element": "C" 
			},
			{
				"x": 1.4571151976,
				"y": 0.4767185109,
				"z": 0.8976478857,
				"element": "C" 
			},
			{
				"x": 0.7721981738,
				"y": 1.631252956,
				"z": 0.1299210603,
				"element": "C" 
			},
			{
				"x": -0.6730021955,
				"y": 1.3669006402,
				"z": -0.3384997977,
				"element": "C" 
			},
			{
				"x": -0.7605662347,
				"y": 0.3710808262,
				"z": -1.510651965,
				"element": "C" 
			},
			{
				"x": -2.2067487933,
				"y": 0.1454241937,
				"z": -1.9285063087,
				"element": "C" 
			},
			{
				"x": -2.3974875098,
				"y": -1.2538503638,
				"z": -3.6046945533,
				"element": "I" 
			},
			{
				"x": -0.7010522813,
				"y": 1.2832491285,
				"z": 2.6994712595,
				"element": "H" 
			},
			{
				"x": -0.0538783053,
				"y": 0.4240766894,
				"z": 4.0960681047,
				"element": "H" 
			},
			{
				"x": -0.5677182883,
				"y": -0.4813931658,
				"z": 2.6674593479,
				"element": "H" 
			},
			{
				"x": 1.9593461736,
				"y": -0.2584398541,
				"z": 2.856492247,
				"element": "H" 
			},
			{
				"x": 1.8014899062,
				"y": 1.4854247766,
				"z": 2.7757919124,
				"element": "H" 
			},
			{
				"x": 1.066784496,
				"y": -0.4898540812,
				"z": 0.5509928973,
				"element": "H" 
			},
			{
				"x": 2.5240593962,
				"y": 0.4696879402,
				"z": 0.6435031902,
				"element": "H" 
			},
			{
				"x": 1.3707352831,
				"y": 1.8838259476,
				"z": -0.7549829645,
				"element": "H" 
			},
			{
				"x": 0.7816221025,
				"y": 2.531231057,
				"z": 0.7589914305,
				"element": "H" 
			},
			{
				"x": -1.1232852074,
				"y": 2.3184437019,
				"z": -0.6512561772,
				"element": "H" 
			},
			{
				"x": -1.2802901229,
				"y": 1.0001784168,
				"z": 0.4976961194,
				"element": "H" 
			},
			{
				"x": -0.1852110701,
				"y": 0.7550301055,
				"z": -2.3610698261,
				"element": "H" 
			},
			{
				"x": -0.3078309534,
				"y": -0.5864706079,
				"z": -1.2323707556,
				"element": "H" 
			},
			{
				"x": -2.6894264669,
				"y": 1.0573299284,
				"z": -2.2801423062,
				"element": "H" 
			},
			{
				"x": -2.8081382144,
				"y": -0.298366078,
				"z": -1.1350708117,
				"element": "H" 
			}
		],
		 "valence_orbital": [ 
			{
				"type": "occ",
				"energy": -0.31859,
				"method": "rhf"
			},
			{
				"type": "occ",
				"energy": -0.31455,
				"method": "rhf"
			},
			{
				"type": "occ",
				"energy": -0.31179,
				"method": "rhf"
			},
			{
				"type": "occ",
				"energy": -0.25471,
				"method": "rhf"
			},
			{
				"type": "occ",
				"energy": -0.25425,
				"method": "rhf"
			},
			{
				"type": "unocc",
				"energy": -0.03948,
				"method": "rhf"
			},
			{
				"type": "unocc",
				"energy": 0.04207,
				"method": "rhf"
			},
			{
				"type": "unocc",
				"energy": 0.04255,
				"method": "rhf"
			},
			{
				"type": "unocc",
				"energy": 0.05548,
				"method": "rhf"
			},
			{
				"type": "unocc",
				"energy": 0.08598,
				"method": "rhf"
			}
		],
		"cosmo_sigma_profile": { 
			"0.0": 0.0,
			"0.0": 0.0,
			"0.0": 0.0,
			"0.0": 0.0,
			"0.0": 0.0,
			"0.0": 0.0,
			"0.0": 0.0,
			"0.0": 0.0,
			"0.0": 0.0,
			"0.0": 0.0,
			"0.0": 0.0,
			"0.0": 0.0,
			"0.0": 0.0,
			"0.0": 0.0,
			"0.0": 0.0,
			"0.0": 0.0,
			"0.0": 0.0,
			"0.0": 0.0,
			"0.0": 0.0,
			"0.0": 0.0,
			"0.0": 0.0,
			"0.0": 0.0,
			"0.0": 0.0,
			"0.0": 0.0,
			"0.0": 0.0,
			"0.0": 0.0,
			"0.0": 0.0,
			"0.0": 0.0,
			"0.0": 0.0,
			"0.0": 0.0,
			"0.0": 0.0,
			"0.0": 0.0,
			"0.0": 0.0,
			"0.0": 0.0,
			"0.0": 0.0,
			"0.0": 0.0,
			"0.0": 0.0,
			"0.0": 0.0,
			"0.0": 0.0,
			"0.0": 0.0,
			"0.0": 0.0,
			"0.0": 0.0,
			"0.0": 0.0,
			"0.0": 0.0,
			"0.0": 0.0,
			"0.0": 0.0,
			"0.0": 0.0,
			"0.0": 0.0,
			"0.0": 0.0,
			"0.0": 0.0,
			"0.0": 0.0
		}
	}
}
