{
	 "smiles": "CC(C)(OO)C1=CC=C(C=C1)C(C)(C)OO", 
	 "Tm": 414.15, 
	 "num_atms": 34, 
	 "gaussian": { 
		 "optdone": 1, 
		 "sigma_profile": "yes", 
		 "theory": "DFT", 
		 "functional": "B3LYP", 
		 "basiset": "6-31G**", 
		 "properties": { 
			 "R2extent": 4967.909, 
			 "electric_dipole_moment_norm": 3.15190742567, 
			 "electric_quadrupole_moment_norm": 12.8561672613, 
			 "total_energy": -768.838927572, 
			 "HOMO_LUMO_gap": 0.22752, 
			 "cosmo_polarized_energy": -13.64, 
			 "cosmo_cavitation_energy": 35.57, 
			 "cosmo_dispersion_energy": -24.7, 
			 "cosmo_repulsion_energy": 1.93, 
			 "cosmo_total_nonelectrostatic_energy": 12.8, 
			 "SMD_solvation_energy": 5.75 
		},
		"coords": [
			{
				"x": -2.0921744614,
				"y": 1.7235423773,
				"z": -2.758593311,
				"element": "C" 
			},
			{
				"x": -2.2408745055,
				"y": 0.4739076507,
				"z": -1.8753621758,
				"element": "C" 
			},
			{
				"x": -2.4958382391,
				"y": -0.7739467679,
				"z": -2.7268615971,
				"element": "C" 
			},
			{
				"x": -3.3430203506,
				"y": 0.6518957068,
				"z": -0.9412573109,
				"element": "O" 
			},
			{
				"x": -4.5598273065,
				"y": 0.9393947595,
				"z": -1.6918693029,
				"element": "O" 
			},
			{
				"x": -1.0443214861,
				"y": 0.3439590093,
				"z": -0.9292768279,
				"element": "C" 
			},
			{
				"x": -0.9140163057,
				"y": 1.2317532571,
				"z": 0.1505788829,
				"element": "C" 
			},
			{
				"x": 0.1809103612,
				"y": 1.1603796364,
				"z": 1.0070198398,
				"element": "C" 
			},
			{
				"x": 1.1908978903,
				"y": 0.2021435144,
				"z": 0.8212259811,
				"element": "C" 
			},
			{
				"x": 1.0591237711,
				"y": -0.6803665248,
				"z": -0.2546475271,
				"element": "C" 
			},
			{
				"x": -0.0403753497,
				"y": -0.6112960621,
				"z": -1.1143706696,
				"element": "C" 
			},
			{
				"x": 2.3885408749,
				"y": 0.1832122459,
				"z": 1.7784822735,
				"element": "C" 
			},
			{
				"x": 3.3396009378,
				"y": 1.3516478962,
				"z": 1.4678607545,
				"element": "C" 
			},
			{
				"x": 3.1496054591,
				"y": -1.145635343,
				"z": 1.8038721,
				"element": "C" 
			},
			{
				"x": 1.9364518507,
				"y": 0.5100266303,
				"z": 3.1144231077,
				"element": "O" 
			},
			{
				"x": 1.0535366167,
				"y": -0.5408829865,
				"z": 3.5879537453,
				"element": "O" 
			},
			{
				"x": -1.9620557733,
				"y": 2.6153481226,
				"z": -2.1404649633,
				"element": "H" 
			},
			{
				"x": -2.9795847144,
				"y": 1.8569022153,
				"z": -3.3813873693,
				"element": "H" 
			},
			{
				"x": -1.2162335863,
				"y": 1.6232977902,
				"z": -3.4065563278,
				"element": "H" 
			},
			{
				"x": -2.5627620171,
				"y": -1.6688167025,
				"z": -2.1012609758,
				"element": "H" 
			},
			{
				"x": -1.7062295051,
				"y": -0.9227899783,
				"z": -3.4685158421,
				"element": "H" 
			},
			{
				"x": -3.4369176634,
				"y": -0.6484063892,
				"z": -3.2670430916,
				"element": "H" 
			},
			{
				"x": -5.0669896433,
				"y": 0.136539801,
				"z": -1.4927646658,
				"element": "H" 
			},
			{
				"x": -1.6864657942,
				"y": 1.9726675674,
				"z": 0.3256158473,
				"element": "H" 
			},
			{
				"x": 0.2605969258,
				"y": 1.8571477436,
				"z": 1.8369808102,
				"element": "H" 
			},
			{
				"x": 1.8114338579,
				"y": -1.4411970289,
				"z": -0.4335711836,
				"element": "H" 
			},
			{
				"x": -0.1030053879,
				"y": -1.3198576647,
				"z": -1.9332124287,
				"element": "H" 
			},
			{
				"x": 4.1622528266,
				"y": 1.370020407,
				"z": 2.1885759095,
				"element": "H" 
			},
			{
				"x": 3.7526203712,
				"y": 1.2348796165,
				"z": 0.4621990428,
				"element": "H" 
			},
			{
				"x": 2.8110652828,
				"y": 2.3071521718,
				"z": 1.5140144292,
				"element": "H" 
			},
			{
				"x": 2.4797858431,
				"y": -1.9738734565,
				"z": 2.0406846343,
				"element": "H" 
			},
			{
				"x": 3.9216607308,
				"y": -1.094434428,
				"z": 2.5760176169,
				"element": "H" 
			},
			{
				"x": 3.6390093992,
				"y": -1.3435516809,
				"z": 0.845935321,
				"element": "H" 
			},
			{
				"x": 0.1984990903,
				"y": -0.2328631059,
				"z": 3.2393752742,
				"element": "H" 
			}
		],
		 "valence_orbital": [ 
			{
				"type": "occ",
				"energy": -0.28085,
				"method": "rhf"
			},
			{
				"type": "occ",
				"energy": -0.26884,
				"method": "rhf"
			},
			{
				"type": "occ",
				"energy": -0.26089,
				"method": "rhf"
			},
			{
				"type": "occ",
				"energy": -0.25522,
				"method": "rhf"
			},
			{
				"type": "occ",
				"energy": -0.24498,
				"method": "rhf"
			},
			{
				"type": "unocc",
				"energy": -0.01746,
				"method": "rhf"
			},
			{
				"type": "unocc",
				"energy": -0.00932,
				"method": "rhf"
			},
			{
				"type": "unocc",
				"energy": 0.0301,
				"method": "rhf"
			},
			{
				"type": "unocc",
				"energy": 0.03705,
				"method": "rhf"
			},
			{
				"type": "unocc",
				"energy": 0.07728,
				"method": "rhf"
			}
		],
		"cosmo_sigma_profile": { 
			"-0.025": 0.0,
			"-0.024": 0.0,
			"-0.023": 0.0,
			"-0.022": 0.0,
			"-0.021": 0.0,
			"-0.02": 0.0,
			"-0.019": 0.0,
			"-0.018": 0.0,
			"-0.017": 0.525740500424,
			"-0.016": 1.11997655645,
			"-0.015": 1.06969081097,
			"-0.014": 1.70271509013,
			"-0.013": 1.00417143338,
			"-0.012": 1.22148562989,
			"-0.011": 2.11468753799,
			"-0.01": 1.61188287107,
			"-0.009": 1.12217778068,
			"-0.008": 1.94146389703,
			"-0.007": 1.68561216357,
			"-0.006": 4.60197470359,
			"-0.005": 13.6944559289,
			"-0.004": 24.3673586537,
			"-0.003": 29.2231746196,
			"-0.002": 27.1021892159,
			"-0.001": 27.5247557305,
			"0.0": 30.0783253376,
			"0.001": 20.2617841963,
			"0.002": 12.2421941139,
			"0.003": 10.2720501361,
			"0.004": 11.4450614491,
			"0.005": 12.3266968109,
			"0.006": 5.70113568757,
			"0.007": 5.50640398563,
			"0.008": 4.5884752397,
			"0.009": 5.77074231179,
			"0.01": 6.48621937585,
			"0.011": 6.64147293139,
			"0.012": 3.70352444168,
			"0.013": 0.458701228692,
			"0.014": 0.0,
			"0.015": 0.0,
			"0.016": 0.0,
			"0.017": 0.0,
			"0.018": 0.0,
			"0.019": 0.0,
			"0.02": 0.0,
			"0.021": 0.0,
			"0.022": 0.0,
			"0.023": 0.0,
			"0.024": 0.0,
			"0.025": 0.0
		}
	}
}
