{
	 "smiles": "CC1=C(C)C=C(C=C1)S(N)(=O)=O", 
	 "Tm": 391.15, 
	 "num_atms": 23, 
	 "gaussian": { 
		 "optdone": 1, 
		 "sigma_profile": "yes", 
		 "theory": "DFT", 
		 "functional": "B3LYP", 
		 "basiset": "6-31G**", 
		 "properties": { 
			 "R2extent": 2842.9004, 
			 "electric_dipole_moment_norm": 6.72869806872, 
			 "electric_quadrupole_moment_norm": 15.3863510976, 
			 "total_energy": -914.812626923, 
			 "HOMO_LUMO_gap": 0.21948, 
			 "cosmo_polarized_energy": -18.3, 
			 "cosmo_cavitation_energy": 27.73, 
			 "cosmo_dispersion_energy": -20.64, 
			 "cosmo_repulsion_energy": 1.6, 
			 "cosmo_total_nonelectrostatic_energy": 8.68, 
			 "SMD_solvation_energy": 4.46 
		},
		"coords": [
			{
				"x": -1.9250624419,
				"y": -2.4055683205,
				"z": -2.0106804811,
				"element": "C" 
			},
			{
				"x": -1.2311061073,
				"y": -1.4788038305,
				"z": -1.0429060626,
				"element": "C" 
			},
			{
				"x": -1.1561138944,
				"y": -1.7971466326,
				"z": 0.3325529157,
				"element": "C" 
			},
			{
				"x": -1.7745494198,
				"y": -3.0652643936,
				"z": 0.8702419027,
				"element": "C" 
			},
			{
				"x": -0.5072921867,
				"y": -0.9138916317,
				"z": 1.1999028695,
				"element": "C" 
			},
			{
				"x": 0.0601859053,
				"y": 0.2668338391,
				"z": 0.716761592,
				"element": "C" 
			},
			{
				"x": -0.0182568801,
				"y": 0.5987046567,
				"z": -0.6344628006,
				"element": "C" 
			},
			{
				"x": -0.6633774657,
				"y": -0.2831141017,
				"z": -1.5000086616,
				"element": "C" 
			},
			{
				"x": 0.917776932,
				"y": 1.3639956292,
				"z": 1.8525079416,
				"element": "S" 
			},
			{
				"x": 2.5293292133,
				"y": 0.872241354,
				"z": 1.8802643765,
				"element": "N" 
			},
			{
				"x": 0.9278933485,
				"y": 2.6976630691,
				"z": 1.2534740866,
				"element": "O" 
			},
			{
				"x": 0.4062842595,
				"y": 1.0976081174,
				"z": 3.196219627,
				"element": "O" 
			},
			{
				"x": -1.4622800363,
				"y": -3.3997143053,
				"z": -2.0188979873,
				"element": "H" 
			},
			{
				"x": -1.8911330531,
				"y": -2.0116957724,
				"z": -3.0293368715,
				"element": "H" 
			},
			{
				"x": -2.9781796366,
				"y": -2.5516926037,
				"z": -1.7422784028,
				"element": "H" 
			},
			{
				"x": -1.6261919762,
				"y": -3.1491460566,
				"z": 1.9494906911,
				"element": "H" 
			},
			{
				"x": -2.8533827334,
				"y": -3.1000068487,
				"z": 0.6774470272,
				"element": "H" 
			},
			{
				"x": -1.3414497208,
				"y": -3.9567841695,
				"z": 0.4009225436,
				"element": "H" 
			},
			{
				"x": -0.4622531702,
				"y": -1.1283414962,
				"z": 2.2632324248,
				"element": "H" 
			},
			{
				"x": 0.3953654854,
				"y": 1.5358474034,
				"z": -0.9910954453,
				"element": "H" 
			},
			{
				"x": -0.7366559482,
				"y": -0.0335164677,
				"z": -2.5552187311,
				"element": "H" 
			},
			{
				"x": 2.9877532328,
				"y": 0.991459283,
				"z": 0.982237847,
				"element": "H" 
			},
			{
				"x": 2.644496294,
				"y": -0.0621667212,
				"z": 2.2602295986,
				"element": "H" 
			}
		],
		 "valence_orbital": [ 
			{
				"type": "occ",
				"energy": -0.31147,
				"method": "rhf"
			},
			{
				"type": "occ",
				"energy": -0.29921,
				"method": "rhf"
			},
			{
				"type": "occ",
				"energy": -0.29717,
				"method": "rhf"
			},
			{
				"type": "occ",
				"energy": -0.2643,
				"method": "rhf"
			},
			{
				"type": "occ",
				"energy": -0.25477,
				"method": "rhf"
			},
			{
				"type": "unocc",
				"energy": -0.03529,
				"method": "rhf"
			},
			{
				"type": "unocc",
				"energy": -0.01766,
				"method": "rhf"
			},
			{
				"type": "unocc",
				"energy": 0.0547,
				"method": "rhf"
			},
			{
				"type": "unocc",
				"energy": 0.07749,
				"method": "rhf"
			},
			{
				"type": "unocc",
				"energy": 0.08513,
				"method": "rhf"
			}
		],
		"cosmo_sigma_profile": { 
			"-0.025": 0.0,
			"-0.024": 0.0,
			"-0.023": 0.0,
			"-0.022": 0.0,
			"-0.021": 0.0,
			"-0.02": 0.0,
			"-0.019": 0.0,
			"-0.018": 0.0,
			"-0.017": 0.0,
			"-0.016": 0.0325512258833,
			"-0.015": 1.74740835018,
			"-0.014": 2.64065466814,
			"-0.013": 2.55028639188,
			"-0.012": 3.32125974122,
			"-0.011": 2.44781853705,
			"-0.01": 1.94783255539,
			"-0.009": 1.91721480665,
			"-0.008": 2.06684706229,
			"-0.007": 2.33408585897,
			"-0.006": 8.0482965754,
			"-0.005": 14.3497211398,
			"-0.004": 18.7443256334,
			"-0.003": 15.1401149788,
			"-0.002": 16.2038175256,
			"-0.001": 19.1009374638,
			"0.0": 20.0041247325,
			"0.001": 9.83008529723,
			"0.002": 10.3965928583,
			"0.003": 12.1276199169,
			"0.004": 9.19448886043,
			"0.005": 3.87139614068,
			"0.006": 3.54160622722,
			"0.007": 3.08593059622,
			"0.008": 4.28658162915,
			"0.009": 5.71824760001,
			"0.01": 6.16989878176,
			"0.011": 10.7661174499,
			"0.012": 6.94871988368,
			"0.013": 0.539066166653,
			"0.014": 0.0,
			"0.015": 0.0,
			"0.016": 0.0,
			"0.017": 0.0,
			"0.018": 0.0,
			"0.019": 0.0,
			"0.02": 0.0,
			"0.021": 0.0,
			"0.022": 0.0,
			"0.023": 0.0,
			"0.024": 0.0,
			"0.025": 0.0
		}
	}
}
