{
	 "smiles": "CCCC(C)OC(C)=O", 
	 "Tm": 173.15, 
	 "num_atms": 23, 
	 "gaussian": { 
		 "optdone": 1, 
		 "sigma_profile": "yes", 
		 "theory": "DFT", 
		 "functional": "B3LYP", 
		 "basiset": "6-31G**", 
		 "properties": { 
			 "R2extent": 1694.4752, 
			 "electric_dipole_moment_norm": 1.86755421608, 
			 "electric_quadrupole_moment_norm": 9.14963220518, 
			 "total_energy": -425.662306779, 
			 "HOMO_LUMO_gap": 0.28157, 
			 "cosmo_polarized_energy": -6.19, 
			 "cosmo_cavitation_energy": 25.32, 
			 "cosmo_dispersion_energy": -17.64, 
			 "cosmo_repulsion_energy": 1.49, 
			 "cosmo_total_nonelectrostatic_energy": 9.16, 
			 "SMD_solvation_energy": 5.52 
		},
		"coords": [
			{
				"x": 0.0689582661,
				"y": -1.3167305344,
				"z": 2.0144729414,
				"element": "C" 
			},
			{
				"x": 1.1131146331,
				"y": -1.5549246178,
				"z": 0.9168692716,
				"element": "C" 
			},
			{
				"x": 0.7492576984,
				"y": -1.0170438554,
				"z": -0.4793227667,
				"element": "C" 
			},
			{
				"x": 0.8706852338,
				"y": 0.4936883583,
				"z": -0.6825102415,
				"element": "C" 
			},
			{
				"x": 0.7386385468,
				"y": 0.9089814787,
				"z": -2.1459741423,
				"element": "C" 
			},
			{
				"x": -0.1952277543,
				"y": 1.1290076071,
				"z": 0.0857738349,
				"element": "O" 
			},
			{
				"x": 0.0045273706,
				"y": 2.4080803343,
				"z": 0.4793872474,
				"element": "C" 
			},
			{
				"x": -1.1813234039,
				"y": 2.9167133735,
				"z": 1.2670557066,
				"element": "C" 
			},
			{
				"x": 1.0071187189,
				"y": 3.0466194613,
				"z": 0.2391469763,
				"element": "O" 
			},
			{
				"x": 0.3769795884,
				"y": -1.7932139675,
				"z": 2.9513148575,
				"element": "H" 
			},
			{
				"x": -0.9014609192,
				"y": -1.7390949356,
				"z": 1.7296580057,
				"element": "H" 
			},
			{
				"x": -0.0821409734,
				"y": -0.2527750583,
				"z": 2.2087030108,
				"element": "H" 
			},
			{
				"x": 1.2815230283,
				"y": -2.6355296596,
				"z": 0.8256373257,
				"element": "H" 
			},
			{
				"x": 2.0775962472,
				"y": -1.1279095801,
				"z": 1.2243714713,
				"element": "H" 
			},
			{
				"x": 1.4193274539,
				"y": -1.4812199256,
				"z": -1.2141454536,
				"element": "H" 
			},
			{
				"x": -0.268077027,
				"y": -1.3291217106,
				"z": -0.7512353977,
				"element": "H" 
			},
			{
				"x": 1.8227376516,
				"y": 0.8589109557,
				"z": -0.2835099578,
				"element": "H" 
			},
			{
				"x": 1.5356414554,
				"y": 0.4539139127,
				"z": -2.7426920227,
				"element": "H" 
			},
			{
				"x": 0.8189961624,
				"y": 1.9939615151,
				"z": -2.242548835,
				"element": "H" 
			},
			{
				"x": -0.2247004283,
				"y": 0.5854915372,
				"z": -2.5538382208,
				"element": "H" 
			},
			{
				"x": -1.2537235172,
				"y": 2.3782590075,
				"z": 2.2175820009,
				"element": "H" 
			},
			{
				"x": -1.0571958431,
				"y": 3.9816800659,
				"z": 1.4614576417,
				"element": "H" 
			},
			{
				"x": -2.1098521882,
				"y": 2.7361562377,
				"z": 0.7189467461,
				"element": "H" 
			}
		],
		 "valence_orbital": [ 
			{
				"type": "occ",
				"energy": -0.33702,
				"method": "rhf"
			},
			{
				"type": "occ",
				"energy": -0.33016,
				"method": "rhf"
			},
			{
				"type": "occ",
				"energy": -0.32149,
				"method": "rhf"
			},
			{
				"type": "occ",
				"energy": -0.2886,
				"method": "rhf"
			},
			{
				"type": "occ",
				"energy": -0.26521,
				"method": "rhf"
			},
			{
				"type": "unocc",
				"energy": 0.01636,
				"method": "rhf"
			},
			{
				"type": "unocc",
				"energy": 0.08446,
				"method": "rhf"
			},
			{
				"type": "unocc",
				"energy": 0.10353,
				"method": "rhf"
			},
			{
				"type": "unocc",
				"energy": 0.11564,
				"method": "rhf"
			},
			{
				"type": "unocc",
				"energy": 0.12045,
				"method": "rhf"
			}
		],
		"cosmo_sigma_profile": { 
			"-0.025": 0.0,
			"-0.024": 0.0,
			"-0.023": 0.0,
			"-0.022": 0.0,
			"-0.021": 0.0,
			"-0.02": 0.0,
			"-0.019": 0.0,
			"-0.018": 0.0,
			"-0.017": 0.0,
			"-0.016": 0.0,
			"-0.015": 0.0,
			"-0.014": 0.0,
			"-0.013": 0.0,
			"-0.012": 0.0,
			"-0.011": 0.0,
			"-0.01": 0.0,
			"-0.009": 0.0,
			"-0.008": 0.0,
			"-0.007": 0.165668337319,
			"-0.006": 3.51765996546,
			"-0.005": 5.89499797719,
			"-0.004": 14.2600972223,
			"-0.003": 24.0347787531,
			"-0.002": 32.8522758549,
			"-0.001": 29.2636089369,
			"0.0": 27.2220797313,
			"0.001": 19.3408024868,
			"0.002": 8.96210239454,
			"0.003": 4.47001509476,
			"0.004": 2.51445215373,
			"0.005": 3.16080720533,
			"0.006": 3.22834035806,
			"0.007": 2.68339620532,
			"0.008": 1.74452588611,
			"0.009": 2.36999680454,
			"0.01": 1.79520706793,
			"0.011": 2.09507023095,
			"0.012": 4.44250382111,
			"0.013": 2.20581792086,
			"0.014": 0.154651775551,
			"0.015": 0.0,
			"0.016": 0.0,
			"0.017": 0.0,
			"0.018": 0.0,
			"0.019": 0.0,
			"0.02": 0.0,
			"0.021": 0.0,
			"0.022": 0.0,
			"0.023": 0.0,
			"0.024": 0.0,
			"0.025": 0.0
		}
	}
}
