{
	 "smiles": "CC1=CC=C(C=C1)C1=NN=C(O1)C1=CC=C(C=C1)C(O)=O", 
	 "Tm": 524.15, 
	 "num_atms": 33, 
	 "gaussian": { 
		 "optdone": 1, 
		 "sigma_profile": "yes", 
		 "theory": "DFT", 
		 "functional": "B3LYP", 
		 "basiset": "6-31G**", 
		 "properties": { 
			 "R2extent": 11154.8432, 
			 "electric_dipole_moment_norm": 2.64568867783, 
			 "electric_quadrupole_moment_norm": 27.2063213094, 
			 "total_energy": -952.122216027, 
			 "HOMO_LUMO_gap": 0.15122, 
			 "cosmo_polarized_energy": -15.45, 
			 "cosmo_cavitation_energy": 39.36, 
			 "cosmo_dispersion_energy": -28.65, 
			 "cosmo_repulsion_energy": 2.14, 
			 "cosmo_total_nonelectrostatic_energy": 12.86, 
			 "SMD_solvation_energy": 6.34 
		},
		"coords": [
			{
				"x": 0.4212308047,
				"y": -3.2599563872,
				"z": -5.7342471206,
				"element": "C" 
			},
			{
				"x": 0.436968611,
				"y": -2.4498026587,
				"z": -4.4609255473,
				"element": "C" 
			},
			{
				"x": -0.4950210359,
				"y": -2.6829174521,
				"z": -3.4413644646,
				"element": "C" 
			},
			{
				"x": -0.4959074627,
				"y": -1.921514796,
				"z": -2.2751663316,
				"element": "C" 
			},
			{
				"x": 0.4488989614,
				"y": -0.8999427249,
				"z": -2.1030847907,
				"element": "C" 
			},
			{
				"x": 1.3914469346,
				"y": -0.657641682,
				"z": -3.1173829976,
				"element": "C" 
			},
			{
				"x": 1.3798150707,
				"y": -1.4253116958,
				"z": -4.2745797775,
				"element": "C" 
			},
			{
				"x": 0.4780832331,
				"y": -0.0870283105,
				"z": -0.8963983014,
				"element": "C" 
			},
			{
				"x": 1.2891774324,
				"y": 0.8889590637,
				"z": -0.5929952237,
				"element": "N" 
			},
			{
				"x": 0.9148556848,
				"y": 1.3452511422,
				"z": 0.6589771203,
				"element": "N" 
			},
			{
				"x": -0.0985232295,
				"y": 0.6192340274,
				"z": 1.0372496609,
				"element": "C" 
			},
			{
				"x": -0.4332860742,
				"y": -0.3145731748,
				"z": 0.0967248876,
				"element": "O" 
			},
			{
				"x": -0.8566564981,
				"y": 0.699933521,
				"z": 2.2780858788,
				"element": "C" 
			},
			{
				"x": -1.9326499209,
				"y": -0.1674921915,
				"z": 2.5303403191,
				"element": "C" 
			},
			{
				"x": -2.6383843359,
				"y": -0.0679765216,
				"z": 3.7228070873,
				"element": "C" 
			},
			{
				"x": -2.2823887679,
				"y": 0.894388042,
				"z": 4.6770356282,
				"element": "C" 
			},
			{
				"x": -1.2075619949,
				"y": 1.7611779249,
				"z": 4.4255309125,
				"element": "C" 
			},
			{
				"x": -0.4988449694,
				"y": 1.6657940753,
				"z": 3.2350140696,
				"element": "C" 
			},
			{
				"x": -3.0742170389,
				"y": 0.953676146,
				"z": 5.9344152235,
				"element": "C" 
			},
			{
				"x": -2.6462881221,
				"y": 1.9181344174,
				"z": 6.7861605134,
				"element": "O" 
			},
			{
				"x": -4.0117465585,
				"y": 0.2266339267,
				"z": 6.198041959,
				"element": "O" 
			},
			{
				"x": -0.1703912607,
				"y": -4.1725508472,
				"z": -5.6218621005,
				"element": "H" 
			},
			{
				"x": 1.4334696653,
				"y": -3.5458341852,
				"z": -6.0381089972,
				"element": "H" 
			},
			{
				"x": -0.0127204519,
				"y": -2.6848234561,
				"z": -6.561582546,
				"element": "H" 
			},
			{
				"x": -1.2310094277,
				"y": -3.4734884248,
				"z": -3.561320027,
				"element": "H" 
			},
			{
				"x": -1.2253359883,
				"y": -2.1190707966,
				"z": -1.4967886223,
				"element": "H" 
			},
			{
				"x": 2.1231755766,
				"y": 0.1311604775,
				"z": -2.9791780241,
				"element": "H" 
			},
			{
				"x": 2.1159046316,
				"y": -1.2299197099,
				"z": -5.0502262491,
				"element": "H" 
			},
			{
				"x": -2.2084983353,
				"y": -0.9124342131,
				"z": 1.7921579737,
				"element": "H" 
			},
			{
				"x": -3.4719981378,
				"y": -0.7278974759,
				"z": 3.9367818347,
				"element": "H" 
			},
			{
				"x": -0.9341599692,
				"y": 2.504691495,
				"z": 5.1651368988,
				"element": "H" 
			},
			{
				"x": 0.333756747,
				"y": 2.3287956593,
				"z": 3.0272178273,
				"element": "H" 
			},
			{
				"x": -3.2288937734,
				"y": 1.8643467854,
				"z": 7.5614333264,
				"element": "H" 
			}
		],
		 "valence_orbital": [ 
			{
				"type": "occ",
				"energy": -0.27748,
				"method": "rhf"
			},
			{
				"type": "occ",
				"energy": -0.27199,
				"method": "rhf"
			},
			{
				"type": "occ",
				"energy": -0.2698,
				"method": "rhf"
			},
			{
				"type": "occ",
				"energy": -0.26417,
				"method": "rhf"
			},
			{
				"type": "occ",
				"energy": -0.22908,
				"method": "rhf"
			},
			{
				"type": "unocc",
				"energy": -0.07786,
				"method": "rhf"
			},
			{
				"type": "unocc",
				"energy": -0.04333,
				"method": "rhf"
			},
			{
				"type": "unocc",
				"energy": -0.01874,
				"method": "rhf"
			},
			{
				"type": "unocc",
				"energy": -0.01384,
				"method": "rhf"
			},
			{
				"type": "unocc",
				"energy": 0.01021,
				"method": "rhf"
			}
		],
		"cosmo_sigma_profile": { 
			"-0.025": 0.0,
			"-0.024": 0.0,
			"-0.023": 0.0,
			"-0.022": 0.0,
			"-0.021": 0.0,
			"-0.02": 0.0,
			"-0.019": 0.173346886686,
			"-0.018": 0.80877031049,
			"-0.017": 0.894499261137,
			"-0.016": 0.970974742676,
			"-0.015": 0.669753612675,
			"-0.014": 0.486903141152,
			"-0.013": 0.788411369828,
			"-0.012": 0.733479265636,
			"-0.011": 0.781653679519,
			"-0.01": 0.820408272182,
			"-0.009": 0.399832845561,
			"-0.008": 0.69184129716,
			"-0.007": 5.51245302227,
			"-0.006": 14.2799259554,
			"-0.005": 19.0265221224,
			"-0.004": 24.4400278672,
			"-0.003": 23.8861164106,
			"-0.002": 28.4394771071,
			"-0.001": 30.1761647456,
			"0.0": 32.5428395707,
			"0.001": 28.5012060322,
			"0.002": 27.5051616259,
			"0.003": 15.4250737428,
			"0.004": 14.8945919644,
			"0.005": 5.26890116222,
			"0.006": 5.16193613697,
			"0.007": 4.04471065348,
			"0.008": 4.10216052144,
			"0.009": 3.98975825521,
			"0.01": 4.31978790038,
			"0.011": 7.54744290657,
			"0.012": 5.92333458047,
			"0.013": 2.06016876337,
			"0.014": 1.27420358533,
			"0.015": 0.0394817383507,
			"0.016": 0.0,
			"0.017": 0.0,
			"0.018": 0.0,
			"0.019": 0.0,
			"0.02": 0.0,
			"0.021": 0.0,
			"0.022": 0.0,
			"0.023": 0.0,
			"0.024": 0.0,
			"0.025": 0.0
		}
	}
}
