{
	 "smiles": "CCOC1=C(N=CC=C1)C(O)=O", 
	 "Tm": 404.15, 
	 "num_atms": 21, 
	 "gaussian": { 
		 "optdone": 1, 
		 "sigma_profile": "yes", 
		 "theory": "DFT", 
		 "functional": "B3LYP", 
		 "basiset": "6-31G**", 
		 "properties": { 
			 "R2extent": 2702.7784, 
			 "electric_dipole_moment_norm": 4.40943580178, 
			 "electric_quadrupole_moment_norm": 17.9480903363, 
			 "total_energy": -590.689773998, 
			 "HOMO_LUMO_gap": 0.20219, 
			 "cosmo_polarized_energy": -14.86, 
			 "cosmo_cavitation_energy": 25.71, 
			 "cosmo_dispersion_energy": -18.49, 
			 "cosmo_repulsion_energy": 1.5, 
			 "cosmo_total_nonelectrostatic_energy": 8.72, 
			 "SMD_solvation_energy": 4.83 
		},
		"coords": [
			{
				"x": 1.1398375758,
				"y": -0.3019026836,
				"z": -2.1124247418,
				"element": "C" 
			},
			{
				"x": -0.1999076741,
				"y": -0.2097366993,
				"z": -1.4076180189,
				"element": "C" 
			},
			{
				"x": 0.0526472817,
				"y": 0.1745007073,
				"z": -0.0420425182,
				"element": "O" 
			},
			{
				"x": -1.0501950368,
				"y": 0.3222641229,
				"z": 0.752858093,
				"element": "C" 
			},
			{
				"x": -1.3541006463,
				"y": -0.622306166,
				"z": 1.749952571,
				"element": "C" 
			},
			{
				"x": -2.3591910839,
				"y": -0.4578451302,
				"z": 2.6215356931,
				"element": "N" 
			},
			{
				"x": -3.1221802761,
				"y": 0.6295839942,
				"z": 2.5118441861,
				"element": "C" 
			},
			{
				"x": -2.9099082732,
				"y": 1.6202471188,
				"z": 1.5482886539,
				"element": "C" 
			},
			{
				"x": -1.8509719084,
				"y": 1.4656552098,
				"z": 0.6609497838,
				"element": "C" 
			},
			{
				"x": -0.5431870975,
				"y": -1.8744017685,
				"z": 1.9586391263,
				"element": "C" 
			},
			{
				"x": -0.2263241849,
				"y": -2.4951539257,
				"z": 0.7947034697,
				"element": "O" 
			},
			{
				"x": -0.2278963041,
				"y": -2.31433421,
				"z": 3.0390301043,
				"element": "O" 
			},
			{
				"x": 1.7730487036,
				"y": -1.0490210414,
				"z": -1.6264141264,
				"element": "H" 
			},
			{
				"x": 0.995781354,
				"y": -0.5931418117,
				"z": -3.1575300304,
				"element": "H" 
			},
			{
				"x": 1.6591315454,
				"y": 0.6603981949,
				"z": -2.0872828628,
				"element": "H" 
			},
			{
				"x": -0.7181792242,
				"y": -1.1756204892,
				"z": -1.4143493319,
				"element": "H" 
			},
			{
				"x": -0.8493993704,
				"y": 0.536107259,
				"z": -1.8871919503,
				"element": "H" 
			},
			{
				"x": -3.9360549053,
				"y": 0.7195066654,
				"z": 3.2282912377,
				"element": "H" 
			},
			{
				"x": -3.5497755123,
				"y": 2.4964761659,
				"z": 1.5089046981,
				"element": "H" 
			},
			{
				"x": -1.6179653876,
				"y": 2.219702876,
				"z": -0.0846434558,
				"element": "H" 
			},
			{
				"x": 0.2894904245,
				"y": -3.2790783886,
				"z": 1.0494994195,
				"element": "H" 
			}
		],
		 "valence_orbital": [ 
			{
				"type": "occ",
				"energy": -0.30067,
				"method": "rhf"
			},
			{
				"type": "occ",
				"energy": -0.28879,
				"method": "rhf"
			},
			{
				"type": "occ",
				"energy": -0.2756,
				"method": "rhf"
			},
			{
				"type": "occ",
				"energy": -0.26278,
				"method": "rhf"
			},
			{
				"type": "occ",
				"energy": -0.25063,
				"method": "rhf"
			},
			{
				"type": "unocc",
				"energy": -0.04844,
				"method": "rhf"
			},
			{
				"type": "unocc",
				"energy": -0.0244,
				"method": "rhf"
			},
			{
				"type": "unocc",
				"energy": 0.03604,
				"method": "rhf"
			},
			{
				"type": "unocc",
				"energy": 0.07697,
				"method": "rhf"
			},
			{
				"type": "unocc",
				"energy": 0.09076,
				"method": "rhf"
			}
		],
		"cosmo_sigma_profile": { 
			"-0.025": 0.0,
			"-0.024": 0.0,
			"-0.023": 0.0,
			"-0.022": 0.0,
			"-0.021": 0.0,
			"-0.02": 0.0,
			"-0.019": 0.0777640568186,
			"-0.018": 0.745721730831,
			"-0.017": 0.977788726577,
			"-0.016": 0.810704276761,
			"-0.015": 0.784258017115,
			"-0.014": 0.811999527617,
			"-0.013": 0.951881110244,
			"-0.012": 0.469133184852,
			"-0.011": 0.652323120457,
			"-0.01": 0.665698073007,
			"-0.009": 0.710167967181,
			"-0.008": 2.73495871736,
			"-0.007": 8.11638329846,
			"-0.006": 9.15637919028,
			"-0.005": 9.17097735707,
			"-0.004": 14.3456850833,
			"-0.003": 18.2054187579,
			"-0.002": 17.6248347403,
			"-0.001": 17.5961745245,
			"0.0": 20.4320801569,
			"0.001": 18.5885851799,
			"0.002": 8.84259800846,
			"0.003": 5.73016139957,
			"0.004": 6.01647301437,
			"0.005": 4.19147412266,
			"0.006": 4.25847526649,
			"0.007": 4.13151678709,
			"0.008": 4.45530882294,
			"0.009": 3.61658553679,
			"0.01": 3.91116266194,
			"0.011": 6.359408189,
			"0.012": 3.47031077741,
			"0.013": 2.59442724034,
			"0.014": 1.25605879638,
			"0.015": 1.38278770694,
			"0.016": 0.477562272187,
			"0.017": 0.0,
			"0.018": 0.0,
			"0.019": 0.0,
			"0.02": 0.0,
			"0.021": 0.0,
			"0.022": 0.0,
			"0.023": 0.0,
			"0.024": 0.0,
			"0.025": 0.0
		}
	}
}
