{
	 "smiles": "CC1(C)CC(=O)C2=C(O1)C(Cl)=CC(Br)=C2", 
	 "Tm": 322.15, 
	 "num_atms": 25, 
	 "gaussian": { 
		 "optdone": 1, 
		 "sigma_profile": "yes", 
		 "theory": "DFT", 
		 "functional": "B3LYP", 
		 "basiset": "6-31G**", 
		 "properties": { 
			 "R2extent": 8394.5818, 
			 "electric_dipole_moment_norm": 3.03788512126, 
			 "electric_quadrupole_moment_norm": 6.25870394571, 
			 "total_energy": -3607.25150365, 
			 "HOMO_LUMO_gap": 0.16198, 
			 "cosmo_polarized_energy": -9.09, 
			 "cosmo_cavitation_energy": 32.21, 
			 "cosmo_dispersion_energy": -23.35, 
			 "cosmo_repulsion_energy": 1.83, 
			 "cosmo_total_nonelectrostatic_energy": 10.7, 
			 "SMD_solvation_energy": 4.7 
		},
		"coords": [
			{
				"x": 0.1692246265,
				"y": 2.212048623,
				"z": -0.3582462552,
				"element": "C" 
			},
			{
				"x": -0.9202966144,
				"y": 1.1396541854,
				"z": -0.2325654972,
				"element": "C" 
			},
			{
				"x": -2.2014332431,
				"y": 1.5673029793,
				"z": -0.9428488317,
				"element": "C" 
			},
			{
				"x": -0.4375344642,
				"y": -0.2347677774,
				"z": -0.7192781401,
				"element": "C" 
			},
			{
				"x": 0.653464208,
				"y": -0.8210026284,
				"z": 0.1629183789,
				"element": "C" 
			},
			{
				"x": 1.5385011229,
				"y": -1.5367229303,
				"z": -0.2763112538,
				"element": "O" 
			},
			{
				"x": 0.516869076,
				"y": -0.5057260937,
				"z": 1.6070680497,
				"element": "C" 
			},
			{
				"x": -0.4825643335,
				"y": 0.3946189127,
				"z": 2.0273937041,
				"element": "C" 
			},
			{
				"x": -1.3068645298,
				"y": 1.040506134,
				"z": 1.1775941055,
				"element": "O" 
			},
			{
				"x": -0.640968644,
				"y": 0.621550708,
				"z": 3.4091114364,
				"element": "C" 
			},
			{
				"x": -1.8751775669,
				"y": 1.7265429377,
				"z": 3.9657603407,
				"element": "Cl" 
			},
			{
				"x": 0.1769087564,
				"y": -0.0158590488,
				"z": 4.3344980074,
				"element": "C" 
			},
			{
				"x": 1.1758408681,
				"y": -0.8904074535,
				"z": 3.8912159109,
				"element": "C" 
			},
			{
				"x": 2.2951449132,
				"y": -1.7460051269,
				"z": 5.1794192633,
				"element": "Br" 
			},
			{
				"x": 1.3504844678,
				"y": -1.1381380781,
				"z": 2.5409312373,
				"element": "C" 
			},
			{
				"x": 1.0764586106,
				"y": 1.9371147148,
				"z": 0.1872280474,
				"element": "H" 
			},
			{
				"x": 0.4388752591,
				"y": 2.3526946912,
				"z": -1.4093563275,
				"element": "H" 
			},
			{
				"x": -0.1952156583,
				"y": 3.163353072,
				"z": 0.0379717711,
				"element": "H" 
			},
			{
				"x": -2.0184800258,
				"y": 1.6827753211,
				"z": -2.0151437483,
				"element": "H" 
			},
			{
				"x": -2.9882563498,
				"y": 0.821664052,
				"z": -0.8000055358,
				"element": "H" 
			},
			{
				"x": -2.5548752331,
				"y": 2.5224291408,
				"z": -0.54499314,
				"element": "H" 
			},
			{
				"x": -0.0741370912,
				"y": -0.184380008,
				"z": -1.7488156668,
				"element": "H" 
			},
			{
				"x": -1.280759012,
				"y": -0.9394355008,
				"z": -0.701164365,
				"element": "H" 
			},
			{
				"x": 0.0395016649,
				"y": 0.175437317,
				"z": 5.3917042942,
				"element": "H" 
			},
			{
				"x": 2.1084891926,
				"y": -1.8197481433,
				"z": 2.1732142146,
				"element": "H" 
			}
		],
		 "valence_orbital": [ 
			{
				"type": "occ",
				"energy": -0.29832,
				"method": "rhf"
			},
			{
				"type": "occ",
				"energy": -0.29393,
				"method": "rhf"
			},
			{
				"type": "occ",
				"energy": -0.26808,
				"method": "rhf"
			},
			{
				"type": "occ",
				"energy": -0.26,
				"method": "rhf"
			},
			{
				"type": "occ",
				"energy": -0.23484,
				"method": "rhf"
			},
			{
				"type": "unocc",
				"energy": -0.07286,
				"method": "rhf"
			},
			{
				"type": "unocc",
				"energy": -0.02081,
				"method": "rhf"
			},
			{
				"type": "unocc",
				"energy": -0.00881,
				"method": "rhf"
			},
			{
				"type": "unocc",
				"energy": 0.02044,
				"method": "rhf"
			},
			{
				"type": "unocc",
				"energy": 0.03607,
				"method": "rhf"
			}
		],
		"cosmo_sigma_profile": { 
			"-0.025": 0.0,
			"-0.024": 0.0,
			"-0.023": 0.0,
			"-0.022": 0.0,
			"-0.021": 0.0,
			"-0.02": 0.0,
			"-0.019": 0.0,
			"-0.018": 0.0,
			"-0.017": 0.0,
			"-0.016": 0.0,
			"-0.015": 0.0,
			"-0.014": 0.0,
			"-0.013": 0.0,
			"-0.012": 0.0,
			"-0.011": 0.0,
			"-0.01": 0.0,
			"-0.009": 0.856986278534,
			"-0.008": 1.36384848823,
			"-0.007": 6.00534626558,
			"-0.006": 10.8534788228,
			"-0.005": 15.1168157716,
			"-0.004": 21.7385103829,
			"-0.003": 21.8881454349,
			"-0.002": 21.2805186704,
			"-0.001": 27.807777615,
			"0.0": 30.6897149863,
			"0.001": 23.6577518299,
			"0.002": 13.3122410056,
			"0.003": 15.8040069384,
			"0.004": 21.0054188126,
			"0.005": 7.71398791441,
			"0.006": 3.22592789716,
			"0.007": 2.93825384112,
			"0.008": 3.15489311597,
			"0.009": 3.03996990638,
			"0.01": 2.59432281281,
			"0.011": 4.06809050775,
			"0.012": 2.85588682542,
			"0.013": 0.493302205162,
			"0.014": 0.0,
			"0.015": 0.0,
			"0.016": 0.0,
			"0.017": 0.0,
			"0.018": 0.0,
			"0.019": 0.0,
			"0.02": 0.0,
			"0.021": 0.0,
			"0.022": 0.0,
			"0.023": 0.0,
			"0.024": 0.0,
			"0.025": 0.0
		}
	}
}
