{
	 "smiles": "OC(=O)C1=CC=NO1", 
	 "Tm": 416.15, 
	 "num_atms": 11, 
	 "gaussian": { 
		 "optdone": 1, 
		 "sigma_profile": "yes", 
		 "theory": "DFT", 
		 "functional": "B3LYP", 
		 "basiset": "6-31G**", 
		 "properties": { 
			 "R2extent": 1301.3365, 
			 "electric_dipole_moment_norm": 5.77976761211, 
			 "electric_quadrupole_moment_norm": 7.59500514812, 
			 "total_energy": -434.589698743, 
			 "HOMO_LUMO_gap": 0.21953, 
			 "cosmo_polarized_energy": -18.77, 
			 "cosmo_cavitation_energy": 16.55, 
			 "cosmo_dispersion_energy": -12.39, 
			 "cosmo_repulsion_energy": 1.03, 
			 "cosmo_total_nonelectrostatic_energy": 5.19, 
			 "SMD_solvation_energy": 4.57 
		},
		"coords": [
			{
				"x": 0.087432183,
				"y": -0.8532055322,
				"z": -0.8023674115,
				"element": "O" 
			},
			{
				"x": 0.6570918117,
				"y": -0.9663474077,
				"z": 0.4232984814,
				"element": "C" 
			},
			{
				"x": 1.264047322,
				"y": -1.9543883723,
				"z": 0.74327153,
				"element": "O" 
			},
			{
				"x": 0.4760185686,
				"y": 0.2088116516,
				"z": 1.3221674305,
				"element": "C" 
			},
			{
				"x": -0.1513684763,
				"y": 1.4195838579,
				"z": 1.2020275911,
				"element": "C" 
			},
			{
				"x": 0.0829826186,
				"y": 2.0381448478,
				"z": 2.4579389578,
				"element": "C" 
			},
			{
				"x": 0.7869838008,
				"y": 1.269153304,
				"z": 3.2585197215,
				"element": "N" 
			},
			{
				"x": 1.0374050987,
				"y": 0.1113507659,
				"z": 2.544476869,
				"element": "O" 
			},
			{
				"x": -0.3626698347,
				"y": -0.0038652364,
				"z": -0.9088162669,
				"element": "H" 
			},
			{
				"x": -0.6986128654,
				"y": 1.828496211,
				"z": 0.3653864028,
				"element": "H" 
			},
			{
				"x": -0.235110227,
				"y": 3.0125659105,
				"z": 2.8047966942,
				"element": "H" 
			}
		],
		 "valence_orbital": [ 
			{
				"type": "occ",
				"energy": -0.33857,
				"method": "rhf"
			},
			{
				"type": "occ",
				"energy": -0.32994,
				"method": "rhf"
			},
			{
				"type": "occ",
				"energy": -0.32675,
				"method": "rhf"
			},
			{
				"type": "occ",
				"energy": -0.29678,
				"method": "rhf"
			},
			{
				"type": "occ",
				"energy": -0.29607,
				"method": "rhf"
			},
			{
				"type": "unocc",
				"energy": -0.07654,
				"method": "rhf"
			},
			{
				"type": "unocc",
				"energy": 0.00666,
				"method": "rhf"
			},
			{
				"type": "unocc",
				"energy": 0.03284,
				"method": "rhf"
			},
			{
				"type": "unocc",
				"energy": 0.08034,
				"method": "rhf"
			},
			{
				"type": "unocc",
				"energy": 0.08258,
				"method": "rhf"
			}
		],
		"cosmo_sigma_profile": { 
			"-0.025": 0.0,
			"-0.024": 0.0,
			"-0.023": 0.0,
			"-0.022": 0.0,
			"-0.021": 0.0602472123161,
			"-0.02": 1.1366496972,
			"-0.019": 1.36299933507,
			"-0.018": 0.682273000963,
			"-0.017": 1.30381449498,
			"-0.016": 0.922598648026,
			"-0.015": 1.2295569211,
			"-0.014": 1.58662454043,
			"-0.013": 0.601979391088,
			"-0.012": 1.38868469927,
			"-0.011": 2.70910387045,
			"-0.01": 3.33824832059,
			"-0.009": 4.92585503313,
			"-0.008": 4.06980847206,
			"-0.007": 4.04131066639,
			"-0.006": 4.48755335907,
			"-0.005": 4.37475883283,
			"-0.004": 5.51111082482,
			"-0.003": 6.15977982687,
			"-0.002": 6.73374564222,
			"-0.001": 8.45388565113,
			"0.0": 5.94768161712,
			"0.001": 3.79453366271,
			"0.002": 3.67609858788,
			"0.003": 2.99611211446,
			"0.004": 4.38274332948,
			"0.005": 4.9850818202,
			"0.006": 6.1531298189,
			"0.007": 6.65197258206,
			"0.008": 6.00099015541,
			"0.009": 7.3725830345,
			"0.01": 7.32144851229,
			"0.011": 6.36071324979,
			"0.012": 2.55639368715,
			"0.013": 0.468980180054,
			"0.014": 0.0,
			"0.015": 0.0,
			"0.016": 0.0,
			"0.017": 0.0,
			"0.018": 0.0,
			"0.019": 0.0,
			"0.02": 0.0,
			"0.021": 0.0,
			"0.022": 0.0,
			"0.023": 0.0,
			"0.024": 0.0,
			"0.025": 0.0
		}
	}
}
