{
	 "smiles": "OCC1=CC2=C(NC=N2)C=C1", 
	 "Tm": 403.15, 
	 "num_atms": 19, 
	 "gaussian": { 
		 "optdone": 1, 
		 "sigma_profile": "yes", 
		 "theory": "DFT", 
		 "functional": "B3LYP", 
		 "basiset": "6-31G**", 
		 "properties": { 
			 "R2extent": 2406.4189, 
			 "electric_dipole_moment_norm": 3.77670372812, 
			 "electric_quadrupole_moment_norm": 14.979478339, 
			 "total_energy": -494.395771252, 
			 "HOMO_LUMO_gap": 0.20789, 
			 "cosmo_polarized_energy": -16.07, 
			 "cosmo_cavitation_energy": 22.9, 
			 "cosmo_dispersion_energy": -17.34, 
			 "cosmo_repulsion_energy": 1.39, 
			 "cosmo_total_nonelectrostatic_energy": 6.95, 
			 "SMD_solvation_energy": 2.17 
		},
		"coords": [
			{
				"x": -2.6160848913,
				"y": -0.4342139416,
				"z": -0.8351430644,
				"element": "O" 
			},
			{
				"x": -1.5860309176,
				"y": -0.2437785547,
				"z": -1.7990671546,
				"element": "C" 
			},
			{
				"x": -0.3086539039,
				"y": 0.3296846733,
				"z": -1.2156345465,
				"element": "C" 
			},
			{
				"x": 0.93499601,
				"y": -0.1128429214,
				"z": -1.6614512759,
				"element": "C" 
			},
			{
				"x": 2.0899961257,
				"y": 0.4677200487,
				"z": -1.1216021218,
				"element": "C" 
			},
			{
				"x": 1.9738285646,
				"y": 1.4756709457,
				"z": -0.1348354771,
				"element": "C" 
			},
			{
				"x": 3.2815388586,
				"y": 1.8094164194,
				"z": 0.1742388274,
				"element": "N" 
			},
			{
				"x": 4.0894492414,
				"y": 1.0166108264,
				"z": -0.6111098714,
				"element": "C" 
			},
			{
				"x": 3.4275580431,
				"y": 0.2047056113,
				"z": -1.3939512305,
				"element": "N" 
			},
			{
				"x": 0.7354831432,
				"y": 1.9243614408,
				"z": 0.331580949,
				"element": "C" 
			},
			{
				"x": -0.39509452,
				"y": 1.337415614,
				"z": -0.2252771696,
				"element": "C" 
			},
			{
				"x": -2.2521924143,
				"y": -0.9925130681,
				"z": -0.1348999884,
				"element": "H" 
			},
			{
				"x": -1.3575749718,
				"y": -1.1772183465,
				"z": -2.3368996187,
				"element": "H" 
			},
			{
				"x": -2.0145824845,
				"y": 0.4486857268,
				"z": -2.5336807592,
				"element": "H" 
			},
			{
				"x": 1.0208352268,
				"y": -0.8936112113,
				"z": -2.4120347388,
				"element": "H" 
			},
			{
				"x": 3.5881553313,
				"y": 2.4991581053,
				"z": 0.8421211365,
				"element": "H" 
			},
			{
				"x": 5.1684307847,
				"y": 1.0887637146,
				"z": -0.5568731443,
				"element": "H" 
			},
			{
				"x": 0.6511512078,
				"y": 2.6945443784,
				"z": 1.0927332677,
				"element": "H" 
			},
			{
				"x": -1.3817084338,
				"y": 1.6434405389,
				"z": 0.1082859806,
				"element": "H" 
			}
		],
		 "valence_orbital": [ 
			{
				"type": "occ",
				"energy": -0.30606,
				"method": "rhf"
			},
			{
				"type": "occ",
				"energy": -0.2724,
				"method": "rhf"
			},
			{
				"type": "occ",
				"energy": -0.26981,
				"method": "rhf"
			},
			{
				"type": "occ",
				"energy": -0.22663,
				"method": "rhf"
			},
			{
				"type": "occ",
				"energy": -0.22486,
				"method": "rhf"
			},
			{
				"type": "unocc",
				"energy": -0.01697,
				"method": "rhf"
			},
			{
				"type": "unocc",
				"energy": 0.01496,
				"method": "rhf"
			},
			{
				"type": "unocc",
				"energy": 0.05226,
				"method": "rhf"
			},
			{
				"type": "unocc",
				"energy": 0.07256,
				"method": "rhf"
			},
			{
				"type": "unocc",
				"energy": 0.09513,
				"method": "rhf"
			}
		],
		"cosmo_sigma_profile": { 
			"-0.025": 0.0,
			"-0.024": 0.0,
			"-0.023": 0.0,
			"-0.022": 0.0,
			"-0.021": 0.0,
			"-0.02": 0.0,
			"-0.019": 0.0,
			"-0.018": 0.0,
			"-0.017": 0.394369056287,
			"-0.016": 1.95509765624,
			"-0.015": 2.36640071158,
			"-0.014": 2.16973100821,
			"-0.013": 2.13754843544,
			"-0.012": 1.57109030926,
			"-0.011": 2.25440583369,
			"-0.01": 2.6780644817,
			"-0.009": 4.60626363536,
			"-0.008": 2.63528175283,
			"-0.007": 5.08630421794,
			"-0.006": 6.2939727389,
			"-0.005": 8.6452565147,
			"-0.004": 12.6381110878,
			"-0.003": 11.6612604923,
			"-0.002": 10.0825552022,
			"-0.001": 9.53568879741,
			"0.0": 9.3455563877,
			"0.001": 10.4171917294,
			"0.002": 10.4177259626,
			"0.003": 10.0643887013,
			"0.004": 11.4030940108,
			"0.005": 12.7556663665,
			"0.006": 6.43092790719,
			"0.007": 2.87144629725,
			"0.008": 2.36617635217,
			"0.009": 2.29722536378,
			"0.01": 2.01014316181,
			"0.011": 3.18420645296,
			"0.012": 2.0879115497,
			"0.013": 3.61134162138,
			"0.014": 2.65927377932,
			"0.015": 1.00277667552,
			"0.016": 1.43845067481,
			"0.017": 0.954873295193,
			"0.018": 0.395052532854,
			"0.019": 0.0,
			"0.02": 0.0,
			"0.021": 0.0,
			"0.022": 0.0,
			"0.023": 0.0,
			"0.024": 0.0,
			"0.025": 0.0
		}
	}
}
