{
	 "smiles": "CC(=O)OC1(CCC2C3C=C(Cl)C4=CC(=O)C=CC4(C)C3CCC12C)C(C)=O", 
	 "Tm": 441.15, 
	 "num_atms": 55, 
	 "gaussian": { 
		 "optdone": 1, 
		 "sigma_profile": "yes", 
		 "theory": "DFT", 
		 "functional": "B3LYP", 
		 "basiset": "6-31G**", 
		 "properties": { 
			 "R2extent": 11521.3569, 
			 "electric_dipole_moment_norm": 5.34372909774, 
			 "electric_quadrupole_moment_norm": 42.7790616108, 
			 "total_energy": -1653.77724685, 
			 "HOMO_LUMO_gap": 0.16369, 
			 "cosmo_polarized_energy": -19.61, 
			 "cosmo_cavitation_energy": 51.9, 
			 "cosmo_dispersion_energy": -34.21, 
			 "cosmo_repulsion_energy": 2.52, 
			 "cosmo_total_nonelectrostatic_energy": 20.21, 
			 "SMD_solvation_energy": 9.78 
		},
		"coords": [
			{
				"x": 2.5920793582,
				"y": 2.91812856,
				"z": -3.9212517189,
				"element": "C" 
			},
			{
				"x": 2.1816163704,
				"y": 3.0126241583,
				"z": -2.4713108785,
				"element": "C" 
			},
			{
				"x": 2.4478391949,
				"y": 3.9296647573,
				"z": -1.7247796922,
				"element": "O" 
			},
			{
				"x": 1.4572444009,
				"y": 1.9260988315,
				"z": -2.1076555939,
				"element": "O" 
			},
			{
				"x": 1.0689790444,
				"y": 1.7739403272,
				"z": -0.713222237,
				"element": "C" 
			},
			{
				"x": 2.2764869853,
				"y": 1.7302559867,
				"z": 0.2514656061,
				"element": "C" 
			},
			{
				"x": 1.8905577162,
				"y": 0.7588282504,
				"z": 1.3907324222,
				"element": "C" 
			},
			{
				"x": 0.617719425,
				"y": -0.0205473087,
				"z": 0.936105643,
				"element": "C" 
			},
			{
				"x": -0.5983400788,
				"y": 0.2850113301,
				"z": 1.8661295019,
				"element": "C" 
			},
			{
				"x": -0.3913606018,
				"y": -0.3823830736,
				"z": 3.2061097786,
				"element": "C" 
			},
			{
				"x": -0.7266760497,
				"y": -1.670674642,
				"z": 3.3545775754,
				"element": "C" 
			},
			{
				"x": -0.3820237468,
				"y": -2.5321339991,
				"z": 4.8540619759,
				"element": "Cl" 
			},
			{
				"x": -1.3126392109,
				"y": -2.4200556515,
				"z": 2.2331662297,
				"element": "C" 
			},
			{
				"x": -0.9706506038,
				"y": -3.6970481364,
				"z": 1.9553693715,
				"element": "C" 
			},
			{
				"x": -1.426252438,
				"y": -4.3988468137,
				"z": 0.7428472572,
				"element": "C" 
			},
			{
				"x": -1.1065598837,
				"y": -5.5613123009,
				"z": 0.5026476488,
				"element": "O" 
			},
			{
				"x": -2.2618951347,
				"y": -3.6069183898,
				"z": -0.1822007948,
				"element": "C" 
			},
			{
				"x": -2.6406050512,
				"y": -2.3523877762,
				"z": 0.1056956975,
				"element": "C" 
			},
			{
				"x": -2.3435132409,
				"y": -1.6495626661,
				"z": 1.4079159088,
				"element": "C" 
			},
			{
				"x": -3.686388226,
				"y": -1.7280295849,
				"z": 2.2157505522,
				"element": "C" 
			},
			{
				"x": -1.9791666877,
				"y": -0.1018622533,
				"z": 1.2793957486,
				"element": "C" 
			},
			{
				"x": -2.124236457,
				"y": 0.5405402505,
				"z": -0.1142210662,
				"element": "C" 
			},
			{
				"x": -1.0085074058,
				"y": 0.1549147635,
				"z": -1.0941421133,
				"element": "C" 
			},
			{
				"x": 0.4414398832,
				"y": 0.3250043131,
				"z": -0.5789094784,
				"element": "C" 
			},
			{
				"x": 1.3241043433,
				"y": -0.6576882278,
				"z": -1.3909381329,
				"element": "C" 
			},
			{
				"x": 0.0988857284,
				"y": 2.9137610926,
				"z": -0.3263269988,
				"element": "C" 
			},
			{
				"x": -0.7020628825,
				"y": 3.6216328813,
				"z": -1.4040614658,
				"element": "C" 
			},
			{
				"x": -0.0197325508,
				"y": 3.2309066659,
				"z": 0.8438621858,
				"element": "O" 
			},
			{
				"x": 3.244720001,
				"y": 2.052055338,
				"z": -4.0671871993,
				"element": "H" 
			},
			{
				"x": 1.7127995535,
				"y": 2.7729606503,
				"z": -4.5553628004,
				"element": "H" 
			},
			{
				"x": 3.1164190363,
				"y": 3.8285576076,
				"z": -4.2093789022,
				"element": "H" 
			},
			{
				"x": 2.5251154764,
				"y": 2.7258376679,
				"z": 0.6157835343,
				"element": "H" 
			},
			{
				"x": 3.1405015856,
				"y": 1.3603805306,
				"z": -0.3073737844,
				"element": "H" 
			},
			{
				"x": 2.715642859,
				"y": 0.0780883174,
				"z": 1.618944741,
				"element": "H" 
			},
			{
				"x": 1.6834085966,
				"y": 1.3220210888,
				"z": 2.3038848931,
				"element": "H" 
			},
			{
				"x": 0.794524844,
				"y": -1.0985711426,
				"z": 1.0010229299,
				"element": "H" 
			},
			{
				"x": -0.624149717,
				"y": 1.366621632,
				"z": 2.0233173837,
				"element": "H" 
			},
			{
				"x": 0.0864408497,
				"y": 0.1606962006,
				"z": 4.0152501968,
				"element": "H" 
			},
			{
				"x": -0.2905897053,
				"y": -4.2478458454,
				"z": 2.5977060255,
				"element": "H" 
			},
			{
				"x": -2.564211286,
				"y": -4.1009877939,
				"z": -1.1010902896,
				"element": "H" 
			},
			{
				"x": -3.2981074387,
				"y": -1.8262525953,
				"z": -0.5820972691,
				"element": "H" 
			},
			{
				"x": -3.5584219226,
				"y": -1.2756748523,
				"z": 3.2034582773,
				"element": "H" 
			},
			{
				"x": -4.4731761426,
				"y": -1.179826494,
				"z": 1.6865750312,
				"element": "H" 
			},
			{
				"x": -4.0073023964,
				"y": -2.7650171107,
				"z": 2.3404024583,
				"element": "H" 
			},
			{
				"x": -2.7036015523,
				"y": 0.4092020749,
				"z": 1.9217384565,
				"element": "H" 
			},
			{
				"x": -2.1396080717,
				"y": 1.62389312,
				"z": 0.0436364272,
				"element": "H" 
			},
			{
				"x": -3.0973437739,
				"y": 0.3007871291,
				"z": -0.5583115864,
				"element": "H" 
			},
			{
				"x": -1.1270249498,
				"y": 0.699019394,
				"z": -2.0388649528,
				"element": "H" 
			},
			{
				"x": -1.1345451469,
				"y": -0.9018918355,
				"z": -1.3527643261,
				"element": "H" 
			},
			{
				"x": 1.2438340158,
				"y": -0.4700856979,
				"z": -2.4637003644,
				"element": "H" 
			},
			{
				"x": 2.3808351249,
				"y": -0.5977154847,
				"z": -1.1175397452,
				"element": "H" 
			},
			{
				"x": 0.9879357813,
				"y": -1.6804456393,
				"z": -1.195306278,
				"element": "H" 
			},
			{
				"x": -0.9714931292,
				"y": 2.9674727805,
				"z": -2.2357308539,
				"element": "H" 
			},
			{
				"x": -0.0913907383,
				"y": 4.438417052,
				"z": -1.8026447606,
				"element": "H" 
			},
			{
				"x": -1.5937539536,
				"y": 4.0558425631,
				"z": -0.9489801749,
				"element": "H" 
			}
		],
		 "valence_orbital": [ 
			{
				"type": "occ",
				"energy": -0.284,
				"method": "rhf"
			},
			{
				"type": "occ",
				"energy": -0.26704,
				"method": "rhf"
			},
			{
				"type": "occ",
				"energy": -0.25555,
				"method": "rhf"
			},
			{
				"type": "occ",
				"energy": -0.24083,
				"method": "rhf"
			},
			{
				"type": "occ",
				"energy": -0.23688,
				"method": "rhf"
			},
			{
				"type": "unocc",
				"energy": -0.07319,
				"method": "rhf"
			},
			{
				"type": "unocc",
				"energy": -0.03246,
				"method": "rhf"
			},
			{
				"type": "unocc",
				"energy": -0.02266,
				"method": "rhf"
			},
			{
				"type": "unocc",
				"energy": -0.006,
				"method": "rhf"
			},
			{
				"type": "unocc",
				"energy": 0.01521,
				"method": "rhf"
			}
		],
		"cosmo_sigma_profile": { 
			"-0.025": 0.0,
			"-0.024": 0.0,
			"-0.023": 0.0,
			"-0.022": 0.0,
			"-0.021": 0.0,
			"-0.02": 0.0,
			"-0.019": 0.0,
			"-0.018": 0.0,
			"-0.017": 0.0,
			"-0.016": 0.0,
			"-0.015": 0.0,
			"-0.014": 0.0,
			"-0.013": 0.0,
			"-0.012": 0.0,
			"-0.011": 0.0,
			"-0.01": 0.0,
			"-0.009": 0.0,
			"-0.008": 0.256168164553,
			"-0.007": 5.87967331235,
			"-0.006": 14.6596169763,
			"-0.005": 24.0019380383,
			"-0.004": 38.0930033353,
			"-0.003": 45.5793399192,
			"-0.002": 54.0327909164,
			"-0.001": 48.2694912972,
			"0.0": 43.1061878908,
			"0.001": 27.3653988096,
			"0.002": 18.8391019161,
			"0.003": 14.8725846037,
			"0.004": 14.6837208266,
			"0.005": 12.1296009082,
			"0.006": 3.50673903251,
			"0.007": 5.83781938602,
			"0.008": 4.46456289655,
			"0.009": 3.94702523685,
			"0.01": 4.61353990452,
			"0.011": 6.87974738416,
			"0.012": 7.1892745434,
			"0.013": 5.65887865237,
			"0.014": 3.19768121131,
			"0.015": 0.746477042666,
			"0.016": 0.0,
			"0.017": 0.0,
			"0.018": 0.0,
			"0.019": 0.0,
			"0.02": 0.0,
			"0.021": 0.0,
			"0.022": 0.0,
			"0.023": 0.0,
			"0.024": 0.0,
			"0.025": 0.0
		}
	}
}
