{
	 "smiles": "CC1=CC=NC=C1[N+]([O-])=O", 
	 "Tm": 293.15, 
	 "num_atms": 16, 
	 "gaussian": { 
		 "optdone": 1, 
		 "sigma_profile": "yes", 
		 "theory": "DFT", 
		 "functional": "B3LYP", 
		 "basiset": "6-31G**", 
		 "properties": { 
			 "R2extent": 1633.2996, 
			 "electric_dipole_moment_norm": 3.99995357598, 
			 "electric_quadrupole_moment_norm": 8.46275658754, 
			 "total_energy": -492.098286034, 
			 "HOMO_LUMO_gap": 0.1802, 
			 "cosmo_polarized_energy": -9.03, 
			 "cosmo_cavitation_energy": 20.56, 
			 "cosmo_dispersion_energy": -15.35, 
			 "cosmo_repulsion_energy": 1.23, 
			 "cosmo_total_nonelectrostatic_energy": 6.43, 
			 "SMD_solvation_energy": 4.37 
		},
		"coords": [
			{
				"x": -1.3266355357,
				"y": 0.9697299472,
				"z": -1.9377554501,
				"element": "C" 
			},
			{
				"x": -1.1609919065,
				"y": 0.5472374889,
				"z": -0.5017426908,
				"element": "C" 
			},
			{
				"x": -1.95440589,
				"y": -0.4874259642,
				"z": 0.0122143952,
				"element": "C" 
			},
			{
				"x": -1.8231878547,
				"y": -0.8970819863,
				"z": 1.3363966387,
				"element": "C" 
			},
			{
				"x": -0.9604869002,
				"y": -0.3509115014,
				"z": 2.204478889,
				"element": "N" 
			},
			{
				"x": -0.2022486846,
				"y": 0.6430142614,
				"z": 1.7437055005,
				"element": "C" 
			},
			{
				"x": -0.2655169862,
				"y": 1.1115735018,
				"z": 0.4259489041,
				"element": "C" 
			},
			{
				"x": 0.6490268281,
				"y": 2.2068464379,
				"z": 0.0715923806,
				"element": "N" 
			},
			{
				"x": 1.201247795,
				"y": 2.8065775379,
				"z": 0.9929263694,
				"element": "O" 
			},
			{
				"x": 0.819942317,
				"y": 2.4578893076,
				"z": -1.1221744342,
				"element": "O" 
			},
			{
				"x": -1.4795196864,
				"y": 2.0478321639,
				"z": -2.0262696196,
				"element": "H" 
			},
			{
				"x": -0.4291168171,
				"y": 0.7424263203,
				"z": -2.5185972573,
				"element": "H" 
			},
			{
				"x": -2.1795586927,
				"y": 0.448969937,
				"z": -2.3796855215,
				"element": "H" 
			},
			{
				"x": -2.6805542901,
				"y": -0.9728926458,
				"z": -0.6324418087,
				"element": "H" 
			},
			{
				"x": -2.4443969226,
				"y": -1.7035062622,
				"z": 1.7212246983,
				"element": "H" 
			},
			{
				"x": 0.4992032267,
				"y": 1.103021456,
				"z": 2.4317790066,
				"element": "H" 
			}
		],
		 "valence_orbital": [ 
			{
				"type": "occ",
				"energy": -0.31616,
				"method": "rhf"
			},
			{
				"type": "occ",
				"energy": -0.30626,
				"method": "rhf"
			},
			{
				"type": "occ",
				"energy": -0.29868,
				"method": "rhf"
			},
			{
				"type": "occ",
				"energy": -0.28836,
				"method": "rhf"
			},
			{
				"type": "occ",
				"energy": -0.27613,
				"method": "rhf"
			},
			{
				"type": "unocc",
				"energy": -0.09593,
				"method": "rhf"
			},
			{
				"type": "unocc",
				"energy": -0.04524,
				"method": "rhf"
			},
			{
				"type": "unocc",
				"energy": -0.01393,
				"method": "rhf"
			},
			{
				"type": "unocc",
				"energy": 0.08663,
				"method": "rhf"
			},
			{
				"type": "unocc",
				"energy": 0.1042,
				"method": "rhf"
			}
		],
		"cosmo_sigma_profile": { 
			"-0.025": 0.0,
			"-0.024": 0.0,
			"-0.023": 0.0,
			"-0.022": 0.0,
			"-0.021": 0.0,
			"-0.02": 0.0,
			"-0.019": 0.0,
			"-0.018": 0.0,
			"-0.017": 0.0,
			"-0.016": 0.0,
			"-0.015": 0.0,
			"-0.014": 0.0,
			"-0.013": 0.0,
			"-0.012": 0.0,
			"-0.011": 0.0,
			"-0.01": 0.0,
			"-0.009": 0.0,
			"-0.008": 3.54167081206,
			"-0.007": 9.9002389716,
			"-0.006": 8.37407185721,
			"-0.005": 12.0910105127,
			"-0.004": 11.9218699418,
			"-0.003": 12.4397039724,
			"-0.002": 18.4848038199,
			"-0.001": 18.8231917605,
			"0.0": 12.041877199,
			"0.001": 6.53198471091,
			"0.002": 3.96036082148,
			"0.003": 5.00016048704,
			"0.004": 4.38776907235,
			"0.005": 3.9449218425,
			"0.006": 4.96140718702,
			"0.007": 8.64141316964,
			"0.008": 7.12113893002,
			"0.009": 4.97254732267,
			"0.01": 3.07563488109,
			"0.011": 0.686093663385,
			"0.012": 1.33710019672,
			"0.013": 0.857959187972,
			"0.014": 0.598229852696,
			"0.015": 0.958962190241,
			"0.016": 0.0755445761454,
			"0.017": 0.0,
			"0.018": 0.0,
			"0.019": 0.0,
			"0.02": 0.0,
			"0.021": 0.0,
			"0.022": 0.0,
			"0.023": 0.0,
			"0.024": 0.0,
			"0.025": 0.0
		}
	}
}
