{
	 "smiles": "CC(Cl)C1=NC2=C(C(=CS2)C2=CC=CS2)C(=O)N1", 
	 "Tm": 515.15, 
	 "num_atms": 27, 
	 "gaussian": { 
		 "optdone": 1, 
		 "sigma_profile": "yes", 
		 "theory": "DFT", 
		 "functional": "B3LYP", 
		 "basiset": "6-31G**", 
		 "properties": { 
			 "R2extent": 7323.073, 
			 "electric_dipole_moment_norm": 2.0022129607, 
			 "electric_quadrupole_moment_norm": 12.1232720979, 
			 "total_energy": -1904.00825736, 
			 "HOMO_LUMO_gap": 0.14717, 
			 "cosmo_polarized_energy": -12.69, 
			 "cosmo_cavitation_energy": 36.02, 
			 "cosmo_dispersion_energy": -27.44, 
			 "cosmo_repulsion_energy": 2.01, 
			 "cosmo_total_nonelectrostatic_energy": 10.59, 
			 "SMD_solvation_energy": 4.28 
		},
		"coords": [
			{
				"x": 3.2752348614,
				"y": 1.5877950319,
				"z": -3.2316368468,
				"element": "C" 
			},
			{
				"x": 1.8573646797,
				"y": 1.1728401351,
				"z": -3.6223128923,
				"element": "C" 
			},
			{
				"x": 0.9380423598,
				"y": 2.6280917798,
				"z": -4.2504769154,
				"element": "Cl" 
			},
			{
				"x": 1.1102600077,
				"y": 0.5178031567,
				"z": -2.4815906076,
				"element": "C" 
			},
			{
				"x": 1.1059154658,
				"y": -0.7829774423,
				"z": -2.4290473976,
				"element": "N" 
			},
			{
				"x": 0.5099597133,
				"y": -1.3125739391,
				"z": -1.3228527524,
				"element": "C" 
			},
			{
				"x": -0.0965364483,
				"y": -0.6240626594,
				"z": -0.2666313389,
				"element": "C" 
			},
			{
				"x": -0.6121914222,
				"y": -1.51550571,
				"z": 0.7574416067,
				"element": "C" 
			},
			{
				"x": -0.3789542057,
				"y": -2.8274336409,
				"z": 0.4104922243,
				"element": "C" 
			},
			{
				"x": 0.4548050566,
				"y": -3.0361515249,
				"z": -1.0950945908,
				"element": "S" 
			},
			{
				"x": -1.2787292268,
				"y": -1.1591217855,
				"z": 2.0143682161,
				"element": "C" 
			},
			{
				"x": -2.0505194177,
				"y": -0.069317842,
				"z": 2.3456125713,
				"element": "C" 
			},
			{
				"x": -2.5820185198,
				"y": -0.131335284,
				"z": 3.6662914302,
				"element": "C" 
			},
			{
				"x": -2.212485622,
				"y": -1.2611455542,
				"z": 4.3421865002,
				"element": "C" 
			},
			{
				"x": -1.1936191764,
				"y": -2.2731134853,
				"z": 3.3748391455,
				"element": "S" 
			},
			{
				"x": -0.1066108902,
				"y": 0.8311910656,
				"z": -0.3488217797,
				"element": "C" 
			},
			{
				"x": -0.5917660831,
				"y": 1.6531772689,
				"z": 0.4161754948,
				"element": "O" 
			},
			{
				"x": 0.5528771662,
				"y": 1.2978394264,
				"z": -1.5147314451,
				"element": "N" 
			},
			{
				"x": 3.7930151165,
				"y": 2.0227279459,
				"z": -4.0892511473,
				"element": "H" 
			},
			{
				"x": 3.2660378282,
				"y": 2.3195067816,
				"z": -2.4195120982,
				"element": "H" 
			},
			{
				"x": 3.8250913748,
				"y": 0.7014449236,
				"z": -2.8995677565,
				"element": "H" 
			},
			{
				"x": 1.8734946759,
				"y": 0.4559254056,
				"z": -4.4422068005,
				"element": "H" 
			},
			{
				"x": -0.6782839561,
				"y": -3.7020453126,
				"z": 0.9707485204,
				"element": "H" 
			},
			{
				"x": -2.2088996575,
				"y": 0.7549809108,
				"z": 1.6652900726,
				"element": "H" 
			},
			{
				"x": -3.2126007457,
				"y": 0.6398384797,
				"z": 4.094078276,
				"element": "H" 
			},
			{
				"x": -2.4627135048,
				"y": -1.5547708813,
				"z": 5.3522525185,
				"element": "H" 
			},
			{
				"x": 0.5222305705,
				"y": 2.3045927498,
				"z": -1.6376422074,
				"element": "H" 
			}
		],
		 "valence_orbital": [ 
			{
				"type": "occ",
				"energy": -0.28006,
				"method": "rhf"
			},
			{
				"type": "occ",
				"energy": -0.27246,
				"method": "rhf"
			},
			{
				"type": "occ",
				"energy": -0.24645,
				"method": "rhf"
			},
			{
				"type": "occ",
				"energy": -0.24396,
				"method": "rhf"
			},
			{
				"type": "occ",
				"energy": -0.20803,
				"method": "rhf"
			},
			{
				"type": "unocc",
				"energy": -0.06086,
				"method": "rhf"
			},
			{
				"type": "unocc",
				"energy": -0.03548,
				"method": "rhf"
			},
			{
				"type": "unocc",
				"energy": -0.0164,
				"method": "rhf"
			},
			{
				"type": "unocc",
				"energy": 0.00736,
				"method": "rhf"
			},
			{
				"type": "unocc",
				"energy": 0.01343,
				"method": "rhf"
			}
		],
		"cosmo_sigma_profile": { 
			"-0.025": 0.0,
			"-0.024": 0.0,
			"-0.023": 0.0,
			"-0.022": 0.0,
			"-0.021": 0.0,
			"-0.02": 0.0,
			"-0.019": 0.0,
			"-0.018": 0.0,
			"-0.017": 0.0,
			"-0.016": 0.0,
			"-0.015": 0.030245252624,
			"-0.014": 0.373469565657,
			"-0.013": 0.943708648555,
			"-0.012": 0.928827755088,
			"-0.011": 1.35432630185,
			"-0.01": 0.982744936901,
			"-0.009": 3.95416093251,
			"-0.008": 6.27600597221,
			"-0.007": 7.48024622275,
			"-0.006": 11.3181643769,
			"-0.005": 16.3339690834,
			"-0.004": 20.0939951521,
			"-0.003": 20.4502211947,
			"-0.002": 20.193003355,
			"-0.001": 22.1908730309,
			"0.0": 23.86218135,
			"0.001": 27.6531396281,
			"0.002": 25.451202273,
			"0.003": 22.2554142446,
			"0.004": 20.8416287158,
			"0.005": 18.1893096494,
			"0.006": 5.7566454474,
			"0.007": 3.30777576199,
			"0.008": 2.64674535534,
			"0.009": 2.17805465627,
			"0.01": 2.36838425116,
			"0.011": 3.59441228753,
			"0.012": 3.34281002374,
			"0.013": 1.62239428612,
			"0.014": 0.00554200739914,
			"0.015": 0.0,
			"0.016": 0.0,
			"0.017": 0.0,
			"0.018": 0.0,
			"0.019": 0.0,
			"0.02": 0.0,
			"0.021": 0.0,
			"0.022": 0.0,
			"0.023": 0.0,
			"0.024": 0.0,
			"0.025": 0.0
		}
	}
}
