{
	 "smiles": "CC1=NN(CC2=CC=C(Cl)C=C2)C2=C1C=C(S2)C(O)=O", 
	 "Tm": 519.15, 
	 "num_atms": 31, 
	 "gaussian": { 
		 "optdone": 1, 
		 "sigma_profile": "yes", 
		 "theory": "DFT", 
		 "functional": "B3LYP", 
		 "basiset": "6-31G**", 
		 "properties": { 
			 "R2extent": 8847.3319, 
			 "electric_dipole_moment_norm": 4.58121358703, 
			 "electric_quadrupole_moment_norm": 24.5676193649, 
			 "total_energy": -1658.43194791, 
			 "HOMO_LUMO_gap": 0.17501, 
			 "cosmo_polarized_energy": -20.14, 
			 "cosmo_cavitation_energy": 40.11, 
			 "cosmo_dispersion_energy": -28.46, 
			 "cosmo_repulsion_energy": 2.17, 
			 "cosmo_total_nonelectrostatic_energy": 13.81, 
			 "SMD_solvation_energy": 6.19 
		},
		"coords": [
			{
				"x": 1.7540692966,
				"y": 0.7553945719,
				"z": 3.5116697239,
				"element": "C" 
			},
			{
				"x": 1.7291646312,
				"y": 0.4233545925,
				"z": 2.0527103881,
				"element": "C" 
			},
			{
				"x": 2.0476213019,
				"y": -0.7958316373,
				"z": 1.6289424694,
				"element": "N" 
			},
			{
				"x": 1.9516263944,
				"y": -0.7839888784,
				"z": 0.257068195,
				"element": "N" 
			},
			{
				"x": 2.1566583569,
				"y": -2.0137456868,
				"z": -0.4975008075,
				"element": "C" 
			},
			{
				"x": 0.8719784084,
				"y": -2.7627174792,
				"z": -0.8022699362,
				"element": "C" 
			},
			{
				"x": 0.0362281164,
				"y": -3.1854005213,
				"z": 0.2404546062,
				"element": "C" 
			},
			{
				"x": -1.1377707022,
				"y": -3.8848969254,
				"z": -0.0268565384,
				"element": "C" 
			},
			{
				"x": -1.4755747659,
				"y": -4.1670559368,
				"z": -1.3522156444,
				"element": "C" 
			},
			{
				"x": -2.9538176848,
				"y": -5.0526616283,
				"z": -1.6951265355,
				"element": "Cl" 
			},
			{
				"x": -0.6614508925,
				"y": -3.7577959892,
				"z": -2.4054224018,
				"element": "C" 
			},
			{
				"x": 0.5101025074,
				"y": -3.0533739578,
				"z": -2.1203966062,
				"element": "C" 
			},
			{
				"x": 1.5522838835,
				"y": 0.4310411126,
				"z": -0.1757481818,
				"element": "C" 
			},
			{
				"x": 1.4026566671,
				"y": 1.2601845939,
				"z": 0.9418323893,
				"element": "C" 
			},
			{
				"x": 1.0100999029,
				"y": 2.5764157429,
				"z": 0.5663299748,
				"element": "C" 
			},
			{
				"x": 0.8655584576,
				"y": 2.7092216717,
				"z": -0.7942762674,
				"element": "C" 
			},
			{
				"x": 1.220501385,
				"y": 1.2121281127,
				"z": -1.6884391333,
				"element": "S" 
			},
			{
				"x": 0.4933357481,
				"y": 3.8708165742,
				"z": -1.6214804394,
				"element": "C" 
			},
			{
				"x": 0.0990350292,
				"y": 4.9951083338,
				"z": -0.9658184166,
				"element": "O" 
			},
			{
				"x": 0.5307417841,
				"y": 3.8525919776,
				"z": -2.8322382751,
				"element": "O" 
			},
			{
				"x": 0.7710874778,
				"y": 1.0911715564,
				"z": 3.8607788991,
				"element": "H" 
			},
			{
				"x": 2.0427421448,
				"y": -0.1266280504,
				"z": 4.0868019188,
				"element": "H" 
			},
			{
				"x": 2.4696271468,
				"y": 1.5573119418,
				"z": 3.725795257,
				"element": "H" 
			},
			{
				"x": 2.8307611175,
				"y": -2.6214618941,
				"z": 0.1117514396,
				"element": "H" 
			},
			{
				"x": 2.6799971,
				"y": -1.7610229784,
				"z": -1.4252599831,
				"element": "H" 
			},
			{
				"x": 0.3064166534,
				"y": -2.9561042835,
				"z": 1.2672939081,
				"element": "H" 
			},
			{
				"x": -1.7849436004,
				"y": -4.211997294,
				"z": 0.7793884954,
				"element": "H" 
			},
			{
				"x": -0.9403118144,
				"y": -3.9805475071,
				"z": -3.4292066288,
				"element": "H" 
			},
			{
				"x": 1.1458396591,
				"y": -2.7304264633,
				"z": -2.9409622901,
				"element": "H" 
			},
			{
				"x": 0.8602581588,
				"y": 3.3868545659,
				"z": 1.2731469733,
				"element": "H" 
			},
			{
				"x": 0.0195781313,
				"y": 4.8298617634,
				"z": -0.0165465524,
				"element": "H" 
			}
		],
		 "valence_orbital": [ 
			{
				"type": "occ",
				"energy": -0.27877,
				"method": "rhf"
			},
			{
				"type": "occ",
				"energy": -0.27233,
				"method": "rhf"
			},
			{
				"type": "occ",
				"energy": -0.25392,
				"method": "rhf"
			},
			{
				"type": "occ",
				"energy": -0.24719,
				"method": "rhf"
			},
			{
				"type": "occ",
				"energy": -0.23408,
				"method": "rhf"
			},
			{
				"type": "unocc",
				"energy": -0.05907,
				"method": "rhf"
			},
			{
				"type": "unocc",
				"energy": -0.02884,
				"method": "rhf"
			},
			{
				"type": "unocc",
				"energy": -0.02287,
				"method": "rhf"
			},
			{
				"type": "unocc",
				"energy": 0.00355,
				"method": "rhf"
			},
			{
				"type": "unocc",
				"energy": 0.00714,
				"method": "rhf"
			}
		],
		"cosmo_sigma_profile": { 
			"-0.025": 0.0,
			"-0.024": 0.0,
			"-0.023": 0.0,
			"-0.022": 0.0,
			"-0.021": 0.0,
			"-0.02": 0.0321873199488,
			"-0.019": 1.14156225484,
			"-0.018": 0.915469501411,
			"-0.017": 0.744875181255,
			"-0.016": 1.24644718475,
			"-0.015": 1.05631873598,
			"-0.014": 1.04813874774,
			"-0.013": 1.06729840969,
			"-0.012": 1.47731219468,
			"-0.011": 0.961768972264,
			"-0.01": 1.51473880217,
			"-0.009": 1.55580486174,
			"-0.008": 5.99507908489,
			"-0.007": 12.2453662713,
			"-0.006": 12.9667693399,
			"-0.005": 17.9887175415,
			"-0.004": 19.5990139514,
			"-0.003": 18.569352338,
			"-0.002": 19.171579154,
			"-0.001": 21.5665148954,
			"0.0": 23.5909448353,
			"0.001": 32.5939395069,
			"0.002": 34.2188922511,
			"0.003": 28.0938904185,
			"0.004": 19.7760545263,
			"0.005": 11.5224362839,
			"0.006": 3.75907230643,
			"0.007": 3.27635406585,
			"0.008": 4.06294484637,
			"0.009": 4.47087146168,
			"0.01": 5.73420086879,
			"0.011": 6.37183603362,
			"0.012": 4.86678208802,
			"0.013": 2.20822081626,
			"0.014": 0.607241513755,
			"0.015": 0.102057343362,
			"0.016": 0.0,
			"0.017": 0.0,
			"0.018": 0.0,
			"0.019": 0.0,
			"0.02": 0.0,
			"0.021": 0.0,
			"0.022": 0.0,
			"0.023": 0.0,
			"0.024": 0.0,
			"0.025": 0.0
		}
	}
}
