{
	 "smiles": "NCC1=C(O)N=CC=C1", 
	 "Tm": 363.15, 
	 "num_atms": 17, 
	 "gaussian": { 
		 "optdone": 1, 
		 "sigma_profile": "yes", 
		 "theory": "DFT", 
		 "functional": "B3LYP", 
		 "basiset": "6-31G**", 
		 "properties": { 
			 "R2extent": 1261.6089, 
			 "electric_dipole_moment_norm": 1.42232811264, 
			 "electric_quadrupole_moment_norm": 5.77692213899, 
			 "total_energy": -418.185534374, 
			 "HOMO_LUMO_gap": 0.2119, 
			 "cosmo_polarized_energy": -9.33, 
			 "cosmo_cavitation_energy": 20.52, 
			 "cosmo_dispersion_energy": -15.63, 
			 "cosmo_repulsion_energy": 1.3, 
			 "cosmo_total_nonelectrostatic_energy": 6.19, 
			 "SMD_solvation_energy": 1.83 
		},
		"coords": [
			{
				"x": -0.0718155785,
				"y": -1.7944125321,
				"z": -2.5566364576,
				"element": "N" 
			},
			{
				"x": -0.2204915851,
				"y": -0.3943741611,
				"z": -2.1479685569,
				"element": "C" 
			},
			{
				"x": -0.5004684656,
				"y": -0.2691414997,
				"z": -0.6652362097,
				"element": "C" 
			},
			{
				"x": -0.3769667276,
				"y": 0.9753403952,
				"z": -0.0149084526,
				"element": "C" 
			},
			{
				"x": -0.0083521695,
				"y": 2.051611774,
				"z": -0.7578492641,
				"element": "O" 
			},
			{
				"x": -0.5975139209,
				"y": 1.1823424122,
				"z": 1.2775528273,
				"element": "N" 
			},
			{
				"x": -0.9740758292,
				"y": 0.1289832363,
				"z": 2.0214008658,
				"element": "C" 
			},
			{
				"x": -1.140315521,
				"y": -1.146387571,
				"z": 1.4974337357,
				"element": "C" 
			},
			{
				"x": -0.8971828236,
				"y": -1.3379083595,
				"z": 0.1313328677,
				"element": "C" 
			},
			{
				"x": 0.8221289619,
				"y": -2.155024011,
				"z": -2.2305144518,
				"element": "H" 
			},
			{
				"x": -0.0541106539,
				"y": -1.8542676647,
				"z": -3.5706393591,
				"element": "H" 
			},
			{
				"x": -1.0673239263,
				"y": 0.0287568924,
				"z": -2.7052127704,
				"element": "H" 
			},
			{
				"x": 0.6422766161,
				"y": 0.2452096568,
				"z": -2.3938006556,
				"element": "H" 
			},
			{
				"x": 0.0273244898,
				"y": 2.7958408234,
				"z": -0.1358635917,
				"element": "H" 
			},
			{
				"x": -1.1454714706,
				"y": 0.3293139784,
				"z": 3.0770477483,
				"element": "H" 
			},
			{
				"x": -1.4494413753,
				"y": -1.9689733453,
				"z": 2.1336830758,
				"element": "H" 
			},
			{
				"x": -1.0120000208,
				"y": -2.3116100245,
				"z": -0.333821351,
				"element": "H" 
			}
		],
		 "valence_orbital": [ 
			{
				"type": "occ",
				"energy": -0.34239,
				"method": "rhf"
			},
			{
				"type": "occ",
				"energy": -0.27338,
				"method": "rhf"
			},
			{
				"type": "occ",
				"energy": -0.26354,
				"method": "rhf"
			},
			{
				"type": "occ",
				"energy": -0.24276,
				"method": "rhf"
			},
			{
				"type": "occ",
				"energy": -0.22423,
				"method": "rhf"
			},
			{
				"type": "unocc",
				"energy": -0.01233,
				"method": "rhf"
			},
			{
				"type": "unocc",
				"energy": 0.00967,
				"method": "rhf"
			},
			{
				"type": "unocc",
				"energy": 0.08247,
				"method": "rhf"
			},
			{
				"type": "unocc",
				"energy": 0.09324,
				"method": "rhf"
			},
			{
				"type": "unocc",
				"energy": 0.11759,
				"method": "rhf"
			}
		],
		"cosmo_sigma_profile": { 
			"-0.025": 0.0,
			"-0.024": 0.0,
			"-0.023": 0.0,
			"-0.022": 0.0,
			"-0.021": 0.0,
			"-0.02": 0.0,
			"-0.019": 0.0,
			"-0.018": 0.0,
			"-0.017": 0.331269690586,
			"-0.016": 0.57860348466,
			"-0.015": 1.12153880194,
			"-0.014": 0.526124649812,
			"-0.013": 0.357920115001,
			"-0.012": 0.310554571302,
			"-0.011": 0.939883447573,
			"-0.01": 2.82109690027,
			"-0.009": 3.72769113749,
			"-0.008": 3.06068535982,
			"-0.007": 4.20182471704,
			"-0.006": 6.4840410713,
			"-0.005": 9.33767500609,
			"-0.004": 11.6558693645,
			"-0.003": 11.7705717215,
			"-0.002": 10.6438300543,
			"-0.001": 10.1762259095,
			"0.0": 7.47886485597,
			"0.001": 11.0467350108,
			"0.002": 11.6569698698,
			"0.003": 13.2726503848,
			"0.004": 10.6827907629,
			"0.005": 5.7081440362,
			"0.006": 3.50837897415,
			"0.007": 3.26051618675,
			"0.008": 4.22200613266,
			"0.009": 3.81550607055,
			"0.01": 2.5196364938,
			"0.011": 1.22490441667,
			"0.012": 1.44375008347,
			"0.013": 1.50523984048,
			"0.014": 1.13282218559,
			"0.015": 0.692430691755,
			"0.016": 0.638620495932,
			"0.017": 0.197702782922,
			"0.018": 0.0,
			"0.019": 0.0,
			"0.02": 0.0,
			"0.021": 0.0,
			"0.022": 0.0,
			"0.023": 0.0,
			"0.024": 0.0,
			"0.025": 0.0
		}
	}
}
