{
	 "smiles": "OC(C(O)=O)C1=C(F)C(F)=CC=C1", 
	 "Tm": 384.65, 
	 "num_atms": 19, 
	 "gaussian": { 
		 "optdone": 1, 
		 "sigma_profile": "yes", 
		 "theory": "DFT", 
		 "functional": "B3LYP", 
		 "basiset": "6-31G**", 
		 "properties": { 
			 "R2extent": 2577.6719, 
			 "electric_dipole_moment_norm": 2.86369784894, 
			 "electric_quadrupole_moment_norm": 7.83014177841, 
			 "total_energy": -733.803901456, 
			 "HOMO_LUMO_gap": 0.22779, 
			 "cosmo_polarized_energy": -10.73, 
			 "cosmo_cavitation_energy": 24.15, 
			 "cosmo_dispersion_energy": -17.79, 
			 "cosmo_repulsion_energy": 1.36, 
			 "cosmo_total_nonelectrostatic_energy": 7.72, 
			 "SMD_solvation_energy": 6.15 
		},
		"coords": [
			{
				"x": 2.3021036868,
				"y": -1.2418032407,
				"z": -0.2595647068,
				"element": "O" 
			},
			{
				"x": 1.2401076729,
				"y": -1.112488156,
				"z": 0.6415964012,
				"element": "C" 
			},
			{
				"x": 0.1528188272,
				"y": -2.1499761398,
				"z": 0.261341437,
				"element": "C" 
			},
			{
				"x": -0.9103795942,
				"y": -2.2698311253,
				"z": 1.0612834473,
				"element": "O" 
			},
			{
				"x": 0.2912154545,
				"y": -2.8363230262,
				"z": -0.7267017175,
				"element": "O" 
			},
			{
				"x": 0.6818651801,
				"y": 0.3103846614,
				"z": 0.6463854836,
				"element": "C" 
			},
			{
				"x": -0.107751461,
				"y": 0.7653061216,
				"z": 1.6967904223,
				"element": "C" 
			},
			{
				"x": -0.4134217844,
				"y": -0.0860698079,
				"z": 2.7257505326,
				"element": "F" 
			},
			{
				"x": -0.6156123145,
				"y": 2.058969686,
				"z": 1.736287251,
				"element": "C" 
			},
			{
				"x": -1.3740996343,
				"y": 2.4297208979,
				"z": 2.7797007238,
				"element": "F" 
			},
			{
				"x": -0.3331068854,
				"y": 2.9449945692,
				"z": 0.7049077596,
				"element": "C" 
			},
			{
				"x": 0.4615754727,
				"y": 2.5095341443,
				"z": -0.3578958188,
				"element": "C" 
			},
			{
				"x": 0.9661585166,
				"y": 1.2091992324,
				"z": -0.3874408487,
				"element": "C" 
			},
			{
				"x": 2.0122832363,
				"y": -1.9260344706,
				"z": -0.8927894257,
				"element": "H" 
			},
			{
				"x": 1.5762082711,
				"y": -1.3564141823,
				"z": 1.6625561978,
				"element": "H" 
			},
			{
				"x": -0.857783154,
				"y": -1.6480497805,
				"z": 1.8079719377,
				"element": "H" 
			},
			{
				"x": -0.7364388022,
				"y": 3.9506055934,
				"z": 0.7502913669,
				"element": "H" 
			},
			{
				"x": 0.6920338206,
				"y": 3.1954654652,
				"z": -1.1665726182,
				"element": "H" 
			},
			{
				"x": 1.6049234911,
				"y": 0.8702095576,
				"z": -1.1939978253,
				"element": "H" 
			}
		],
		 "valence_orbital": [ 
			{
				"type": "occ",
				"energy": -0.33561,
				"method": "rhf"
			},
			{
				"type": "occ",
				"energy": -0.30912,
				"method": "rhf"
			},
			{
				"type": "occ",
				"energy": -0.29523,
				"method": "rhf"
			},
			{
				"type": "occ",
				"energy": -0.26894,
				"method": "rhf"
			},
			{
				"type": "occ",
				"energy": -0.26446,
				"method": "rhf"
			},
			{
				"type": "unocc",
				"energy": -0.03667,
				"method": "rhf"
			},
			{
				"type": "unocc",
				"energy": -0.02011,
				"method": "rhf"
			},
			{
				"type": "unocc",
				"energy": -0.0026,
				"method": "rhf"
			},
			{
				"type": "unocc",
				"energy": 0.04175,
				"method": "rhf"
			},
			{
				"type": "unocc",
				"energy": 0.09658,
				"method": "rhf"
			}
		],
		"cosmo_sigma_profile": { 
			"-0.025": 0.0,
			"-0.024": 0.0,
			"-0.023": 0.0,
			"-0.022": 0.0,
			"-0.021": 0.0,
			"-0.02": 0.0,
			"-0.019": 0.0,
			"-0.018": 0.0,
			"-0.017": 0.0,
			"-0.016": 0.0,
			"-0.015": 0.00206979831718,
			"-0.014": 0.275827660021,
			"-0.013": 0.611895260598,
			"-0.012": 1.66432724604,
			"-0.011": 2.00284981871,
			"-0.01": 2.49786683472,
			"-0.009": 2.61593375096,
			"-0.008": 5.26382815142,
			"-0.007": 8.21258487252,
			"-0.006": 9.30974746025,
			"-0.005": 9.38704420235,
			"-0.004": 11.6966856541,
			"-0.003": 11.3249581223,
			"-0.002": 11.2160841869,
			"-0.001": 14.3380223758,
			"0.0": 13.0130297895,
			"0.001": 13.4486148404,
			"0.002": 14.8154622594,
			"0.003": 21.0737296348,
			"0.004": 8.59625415898,
			"0.005": 2.87757272269,
			"0.006": 3.82104538192,
			"0.007": 3.93341507381,
			"0.008": 4.73215303947,
			"0.009": 5.65806175236,
			"0.01": 4.98474356298,
			"0.011": 3.7479315052,
			"0.012": 1.76708793269,
			"0.013": 1.02526457466,
			"0.014": 0.0,
			"0.015": 0.0,
			"0.016": 0.0,
			"0.017": 0.0,
			"0.018": 0.0,
			"0.019": 0.0,
			"0.02": 0.0,
			"0.021": 0.0,
			"0.022": 0.0,
			"0.023": 0.0,
			"0.024": 0.0,
			"0.025": 0.0
		}
	}
}
