{
	 "smiles": "CC(C)OC1=C2C=CC=CC2=C(C=C1)S(Cl)(=O)=O", 
	 "Tm": 367.15, 
	 "num_atms": 31, 
	 "gaussian": { 
		 "optdone": 1, 
		 "sigma_profile": "yes", 
		 "theory": "DFT", 
		 "functional": "B3LYP", 
		 "basiset": "6-31G**", 
		 "properties": { 
			 "R2extent": 6741.6448, 
			 "electric_dipole_moment_norm": 7.89938969351, 
			 "electric_quadrupole_moment_norm": 26.7320516063, 
			 "total_energy": -1587.21108531, 
			 "HOMO_LUMO_gap": 0.14671, 
			 "cosmo_polarized_energy": -11.48, 
			 "cosmo_cavitation_energy": 36.66, 
			 "cosmo_dispersion_energy": -26.97, 
			 "cosmo_repulsion_energy": 2.04, 
			 "cosmo_total_nonelectrostatic_energy": 11.74, 
			 "SMD_solvation_energy": 5.1 
		},
		"coords": [
			{
				"x": 2.3862662109,
				"y": 0.7579035311,
				"z": 2.8564965075,
				"element": "C" 
			},
			{
				"x": 2.4207128811,
				"y": -0.5706551929,
				"z": 2.09979975,
				"element": "C" 
			},
			{
				"x": 1.9736727743,
				"y": -1.7903911349,
				"z": 2.9068931324,
				"element": "C" 
			},
			{
				"x": 1.7744192924,
				"y": -0.4919137441,
				"z": 0.8005173949,
				"element": "O" 
			},
			{
				"x": 0.4595340659,
				"y": -0.2797221653,
				"z": 0.5874578013,
				"element": "C" 
			},
			{
				"x": 0.0946643505,
				"y": -0.2424075088,
				"z": -0.8072429305,
				"element": "C" 
			},
			{
				"x": 1.0793707138,
				"y": -0.4131142662,
				"z": -1.8128578518,
				"element": "C" 
			},
			{
				"x": 0.7392093789,
				"y": -0.3726783108,
				"z": -3.1468731661,
				"element": "C" 
			},
			{
				"x": -0.6034743179,
				"y": -0.163609196,
				"z": -3.5237354329,
				"element": "C" 
			},
			{
				"x": -1.587174087,
				"y": 0.0001045933,
				"z": -2.5717306339,
				"element": "C" 
			},
			{
				"x": -1.2714824197,
				"y": -0.0312501025,
				"z": -1.1877507375,
				"element": "C" 
			},
			{
				"x": -2.2259059796,
				"y": 0.13909479,
				"z": -0.1306830956,
				"element": "C" 
			},
			{
				"x": -1.847046572,
				"y": 0.1169845951,
				"z": 1.1957632305,
				"element": "C" 
			},
			{
				"x": -0.5093269897,
				"y": -0.1035212843,
				"z": 1.5635333616,
				"element": "C" 
			},
			{
				"x": -3.9570688762,
				"y": 0.4150216788,
				"z": -0.4264805075,
				"element": "S" 
			},
			{
				"x": -3.9728238921,
				"y": 2.4337129366,
				"z": -1.1690675897,
				"element": "Cl" 
			},
			{
				"x": -4.6658719656,
				"y": 0.4593620618,
				"z": 0.8481027237,
				"element": "O" 
			},
			{
				"x": -4.4438094627,
				"y": -0.4059764652,
				"z": -1.5311698477,
				"element": "O" 
			},
			{
				"x": 1.4032879412,
				"y": 0.9977823142,
				"z": 3.2665920718,
				"element": "H" 
			},
			{
				"x": 3.0927712934,
				"y": 0.7098411657,
				"z": 3.6912302756,
				"element": "H" 
			},
			{
				"x": 2.6934316634,
				"y": 1.575302345,
				"z": 2.1984613752,
				"element": "H" 
			},
			{
				"x": 3.4574712811,
				"y": -0.7446288071,
				"z": 1.7946928737,
				"element": "H" 
			},
			{
				"x": 0.9677241576,
				"y": -1.6921830895,
				"z": 3.3197232659,
				"element": "H" 
			},
			{
				"x": 2.6642994588,
				"y": -1.9354225036,
				"z": 3.7437010486,
				"element": "H" 
			},
			{
				"x": 2.0035315454,
				"y": -2.6876687436,
				"z": 2.2827776242,
				"element": "H" 
			},
			{
				"x": 2.1054325756,
				"y": -0.5749931308,
				"z": -1.5070076025,
				"element": "H" 
			},
			{
				"x": 1.5028844363,
				"y": -0.503047217,
				"z": -3.9075918435,
				"element": "H" 
			},
			{
				"x": -0.8708564957,
				"y": -0.1341572827,
				"z": -4.575809506,
				"element": "H" 
			},
			{
				"x": -2.6132024452,
				"y": 0.1436396666,
				"z": -2.8823185146,
				"element": "H" 
			},
			{
				"x": -2.5950981839,
				"y": 0.264469734,
				"z": 1.9657238545,
				"element": "H" 
			},
			{
				"x": -0.2623423335,
				"y": -0.1280792668,
				"z": 2.6139529686,
				"element": "H" 
			}
		],
		 "valence_orbital": [ 
			{
				"type": "occ",
				"energy": -0.31439,
				"method": "rhf"
			},
			{
				"type": "occ",
				"energy": -0.30126,
				"method": "rhf"
			},
			{
				"type": "occ",
				"energy": -0.27752,
				"method": "rhf"
			},
			{
				"type": "occ",
				"energy": -0.26483,
				"method": "rhf"
			},
			{
				"type": "occ",
				"energy": -0.22881,
				"method": "rhf"
			},
			{
				"type": "unocc",
				"energy": -0.0821,
				"method": "rhf"
			},
			{
				"type": "unocc",
				"energy": -0.05041,
				"method": "rhf"
			},
			{
				"type": "unocc",
				"energy": -0.02993,
				"method": "rhf"
			},
			{
				"type": "unocc",
				"energy": 0.00727,
				"method": "rhf"
			},
			{
				"type": "unocc",
				"energy": 0.0614,
				"method": "rhf"
			}
		],
		"cosmo_sigma_profile": { 
			"-0.025": 0.0,
			"-0.024": 0.0,
			"-0.023": 0.0,
			"-0.022": 0.0,
			"-0.021": 0.0,
			"-0.02": 0.0,
			"-0.019": 0.0,
			"-0.018": 0.0,
			"-0.017": 0.0,
			"-0.016": 0.0,
			"-0.015": 0.0,
			"-0.014": 0.0,
			"-0.013": 0.0,
			"-0.012": 0.0,
			"-0.011": 0.0,
			"-0.01": 0.0,
			"-0.009": 0.597473587117,
			"-0.008": 3.5816288291,
			"-0.007": 5.41459568876,
			"-0.006": 10.3002225936,
			"-0.005": 19.9370302766,
			"-0.004": 23.2131066546,
			"-0.003": 20.6740671214,
			"-0.002": 22.2557802468,
			"-0.001": 27.71025311,
			"0.0": 32.5845797389,
			"0.001": 26.1544638603,
			"0.002": 25.0837460471,
			"0.003": 25.4691163667,
			"0.004": 21.3742500081,
			"0.005": 7.13793333951,
			"0.006": 3.40397837318,
			"0.007": 4.68922653033,
			"0.008": 8.37692565183,
			"0.009": 6.73671881825,
			"0.01": 0.536654700006,
			"0.011": 0.0,
			"0.012": 0.0,
			"0.013": 0.0,
			"0.014": 0.0,
			"0.015": 0.0,
			"0.016": 0.0,
			"0.017": 0.0,
			"0.018": 0.0,
			"0.019": 0.0,
			"0.02": 0.0,
			"0.021": 0.0,
			"0.022": 0.0,
			"0.023": 0.0,
			"0.024": 0.0,
			"0.025": 0.0
		}
	}
}
