{
	 "smiles": "COC1=CC=C(C=C1)C(=O)C1=CC=CC=C1F", 
	 "Tm": 329.15, 
	 "num_atms": 28, 
	 "gaussian": { 
		 "optdone": 1, 
		 "sigma_profile": "yes", 
		 "theory": "DFT", 
		 "functional": "B3LYP", 
		 "basiset": "6-31G**", 
		 "properties": { 
			 "R2extent": 5577.3664, 
			 "electric_dipole_moment_norm": 4.19645495746, 
			 "electric_quadrupole_moment_norm": 11.7733719936, 
			 "total_energy": -790.390227955, 
			 "HOMO_LUMO_gap": 0.16904, 
			 "cosmo_polarized_energy": -11.22, 
			 "cosmo_cavitation_energy": 32.83, 
			 "cosmo_dispersion_energy": -23.67, 
			 "cosmo_repulsion_energy": 1.8, 
			 "cosmo_total_nonelectrostatic_energy": 10.96, 
			 "SMD_solvation_energy": 7.21 
		},
		"coords": [
			{
				"x": 0.6585165628,
				"y": -3.5222647532,
				"z": 2.5058494995,
				"element": "C" 
			},
			{
				"x": 1.4024713202,
				"y": -2.3142454972,
				"z": 2.4258565912,
				"element": "O" 
			},
			{
				"x": 0.9084379266,
				"y": -1.2950609117,
				"z": 1.6754428587,
				"element": "C" 
			},
			{
				"x": -0.2928549597,
				"y": -1.3469898356,
				"z": 0.9550853495,
				"element": "C" 
			},
			{
				"x": -0.7066720759,
				"y": -0.2320417079,
				"z": 0.2277876639,
				"element": "C" 
			},
			{
				"x": 0.0611562314,
				"y": 0.9384486204,
				"z": 0.1929742338,
				"element": "C" 
			},
			{
				"x": 1.2769190328,
				"y": 0.9645591587,
				"z": 0.9049053513,
				"element": "C" 
			},
			{
				"x": 1.6925752025,
				"y": -0.1273062389,
				"z": 1.644462222,
				"element": "C" 
			},
			{
				"x": -0.2959550301,
				"y": 2.1286207761,
				"z": -0.6235276441,
				"element": "C" 
			},
			{
				"x": 0.5508231952,
				"y": 2.9693196542,
				"z": -0.9109253664,
				"element": "O" 
			},
			{
				"x": -1.6903624664,
				"y": 2.3084825647,
				"z": -1.1708779256,
				"element": "C" 
			},
			{
				"x": -1.8203536053,
				"y": 2.8130447685,
				"z": -2.4757586653,
				"element": "C" 
			},
			{
				"x": -3.0696268552,
				"y": 3.0528741733,
				"z": -3.039768148,
				"element": "C" 
			},
			{
				"x": -4.2265330643,
				"y": 2.8198819254,
				"z": -2.2898417184,
				"element": "C" 
			},
			{
				"x": -4.1281759127,
				"y": 2.352370621,
				"z": -0.980494539,
				"element": "C" 
			},
			{
				"x": -2.8681606208,
				"y": 2.1057376915,
				"z": -0.4451297864,
				"element": "C" 
			},
			{
				"x": -2.8033622118,
				"y": 1.6825958302,
				"z": 0.8368296077,
				"element": "F" 
			},
			{
				"x": 1.2312373055,
				"y": -4.1844064835,
				"z": 3.1565266418,
				"element": "H" 
			},
			{
				"x": -0.3342332972,
				"y": -3.3558955891,
				"z": 2.9420712191,
				"element": "H" 
			},
			{
				"x": 0.5457216803,
				"y": -3.9923320188,
				"z": 1.520971509,
				"element": "H" 
			},
			{
				"x": -0.9047333306,
				"y": -2.2408701257,
				"z": 0.9531959973,
				"element": "H" 
			},
			{
				"x": -1.6320185019,
				"y": -0.2918257648,
				"z": -0.334528587,
				"element": "H" 
			},
			{
				"x": 1.879361841,
				"y": 1.8654166863,
				"z": 0.8589077909,
				"element": "H" 
			},
			{
				"x": 2.6203088227,
				"y": -0.1131441679,
				"z": 2.2069012031,
				"element": "H" 
			},
			{
				"x": -0.9100652001,
				"y": 3.0133336945,
				"z": -3.0311513934,
				"element": "H" 
			},
			{
				"x": -3.1437405093,
				"y": 3.4276285684,
				"z": -4.055754272,
				"element": "H" 
			},
			{
				"x": -5.2056813001,
				"y": 3.011279607,
				"z": -2.7185939038,
				"element": "H" 
			},
			{
				"x": -5.0037001796,
				"y": 2.185488754,
				"z": -0.3623157895,
				"element": "H" 
			}
		],
		 "valence_orbital": [ 
			{
				"type": "occ",
				"energy": -0.26688,
				"method": "rhf"
			},
			{
				"type": "occ",
				"energy": -0.25844,
				"method": "rhf"
			},
			{
				"type": "occ",
				"energy": -0.25134,
				"method": "rhf"
			},
			{
				"type": "occ",
				"energy": -0.24384,
				"method": "rhf"
			},
			{
				"type": "occ",
				"energy": -0.22711,
				"method": "rhf"
			},
			{
				"type": "unocc",
				"energy": -0.05807,
				"method": "rhf"
			},
			{
				"type": "unocc",
				"energy": -0.0119,
				"method": "rhf"
			},
			{
				"type": "unocc",
				"energy": -0.00671,
				"method": "rhf"
			},
			{
				"type": "unocc",
				"energy": -0.00152,
				"method": "rhf"
			},
			{
				"type": "unocc",
				"energy": 0.0597,
				"method": "rhf"
			}
		],
		"cosmo_sigma_profile": { 
			"-0.025": 0.0,
			"-0.024": 0.0,
			"-0.023": 0.0,
			"-0.022": 0.0,
			"-0.021": 0.0,
			"-0.02": 0.0,
			"-0.019": 0.0,
			"-0.018": 0.0,
			"-0.017": 0.0,
			"-0.016": 0.0,
			"-0.015": 0.0,
			"-0.014": 0.0,
			"-0.013": 0.0,
			"-0.012": 0.0,
			"-0.011": 0.0,
			"-0.01": 0.0,
			"-0.009": 0.0,
			"-0.008": 0.532462086821,
			"-0.007": 7.41280923912,
			"-0.006": 20.7049851525,
			"-0.005": 24.0148613666,
			"-0.004": 21.5102424908,
			"-0.003": 18.8953897522,
			"-0.002": 17.4085618476,
			"-0.001": 14.629097913,
			"0.0": 16.677398864,
			"0.001": 18.0168287295,
			"0.002": 22.1093786723,
			"0.003": 25.531672246,
			"0.004": 25.8908386123,
			"0.005": 6.43177628428,
			"0.006": 3.86501757555,
			"0.007": 3.02789535462,
			"0.008": 2.92001618765,
			"0.009": 2.89297885706,
			"0.01": 3.07194631888,
			"0.011": 2.58648417646,
			"0.012": 4.17281320949,
			"0.013": 1.12815839324,
			"0.014": 0.0,
			"0.015": 0.0,
			"0.016": 0.0,
			"0.017": 0.0,
			"0.018": 0.0,
			"0.019": 0.0,
			"0.02": 0.0,
			"0.021": 0.0,
			"0.022": 0.0,
			"0.023": 0.0,
			"0.024": 0.0,
			"0.025": 0.0
		}
	}
}
