{
	 "smiles": "CC(C)OC1=CC=C(CCCO)C=C1", 
	 "Tm": 305.15, 
	 "num_atms": 32, 
	 "gaussian": { 
		 "optdone": 1, 
		 "sigma_profile": "yes", 
		 "theory": "DFT", 
		 "functional": "B3LYP", 
		 "basiset": "6-31G**", 
		 "properties": { 
			 "R2extent": 4679.6071, 
			 "electric_dipole_moment_norm": 2.71258021264, 
			 "electric_quadrupole_moment_norm": 4.66471637294, 
			 "total_energy": -618.572651149, 
			 "HOMO_LUMO_gap": 0.20933, 
			 "cosmo_polarized_energy": -10.1, 
			 "cosmo_cavitation_energy": 34.12, 
			 "cosmo_dispersion_energy": -24.2, 
			 "cosmo_repulsion_energy": 1.96, 
			 "cosmo_total_nonelectrostatic_energy": 11.89, 
			 "SMD_solvation_energy": 5.86 
		},
		"coords": [
			{
				"x": -3.598274785,
				"y": -1.2619496269,
				"z": 2.8258902307,
				"element": "C" 
			},
			{
				"x": -3.7286981892,
				"y": -0.396322105,
				"z": 1.571592099,
				"element": "C" 
			},
			{
				"x": -5.0408510458,
				"y": 0.3794741382,
				"z": 1.5304484371,
				"element": "C" 
			},
			{
				"x": -2.6897972681,
				"y": 0.5968232503,
				"z": 1.5303795166,
				"element": "O" 
			},
			{
				"x": -1.4259657718,
				"y": 0.2657825744,
				"z": 1.1300130777,
				"element": "C" 
			},
			{
				"x": -0.4862164644,
				"y": 1.307901858,
				"z": 1.1852167563,
				"element": "C" 
			},
			{
				"x": 0.8258197751,
				"y": 1.0930856789,
				"z": 0.7851839391,
				"element": "C" 
			},
			{
				"x": 1.2553323849,
				"y": -0.160419981,
				"z": 0.3162952927,
				"element": "C" 
			},
			{
				"x": 2.689185154,
				"y": -0.3769675361,
				"z": -0.1259925036,
				"element": "C" 
			},
			{
				"x": 3.0575778323,
				"y": 0.3044166768,
				"z": -1.4596655323,
				"element": "C" 
			},
			{
				"x": 2.297990191,
				"y": -0.2479464153,
				"z": -2.6590470862,
				"element": "C" 
			},
			{
				"x": 2.7653203679,
				"y": 0.4336379131,
				"z": -3.8184081971,
				"element": "O" 
			},
			{
				"x": 0.3091181604,
				"y": -1.186914148,
				"z": 0.2732376142,
				"element": "C" 
			},
			{
				"x": -1.0178589735,
				"y": -0.99226655,
				"z": 0.672645475,
				"element": "C" 
			},
			{
				"x": -4.3866398768,
				"y": -2.0214967737,
				"z": 2.8503460218,
				"element": "H" 
			},
			{
				"x": -2.6319194489,
				"y": -1.7712930509,
				"z": 2.8638832893,
				"element": "H" 
			},
			{
				"x": -3.6907079367,
				"y": -0.6388691798,
				"z": 3.7210765524,
				"element": "H" 
			},
			{
				"x": -3.6598356372,
				"y": -1.0235496128,
				"z": 0.6722246521,
				"element": "H" 
			},
			{
				"x": -5.1167374156,
				"y": 1.0438197405,
				"z": 2.3969446107,
				"element": "H" 
			},
			{
				"x": -5.0993930414,
				"y": 0.9885376239,
				"z": 0.6244579046,
				"element": "H" 
			},
			{
				"x": -5.8919506944,
				"y": -0.3082517818,
				"z": 1.5452988606,
				"element": "H" 
			},
			{
				"x": -0.8133745791,
				"y": 2.277089451,
				"z": 1.5480034974,
				"element": "H" 
			},
			{
				"x": 1.5354828463,
				"y": 1.9154588334,
				"z": 0.8417562428,
				"element": "H" 
			},
			{
				"x": 2.8852804173,
				"y": -1.4538941156,
				"z": -0.2046689621,
				"element": "H" 
			},
			{
				"x": 3.3692960182,
				"y": -0.0001505556,
				"z": 0.6482513265,
				"element": "H" 
			},
			{
				"x": 2.8688892841,
				"y": 1.3827921955,
				"z": -1.3963991069,
				"element": "H" 
			},
			{
				"x": 4.1312205098,
				"y": 0.1830347504,
				"z": -1.6471531772,
				"element": "H" 
			},
			{
				"x": 1.2166708678,
				"y": -0.1022011398,
				"z": -2.5162408988,
				"element": "H" 
			},
			{
				"x": 2.4731773043,
				"y": -1.3351236524,
				"z": -2.7378621142,
				"element": "H" 
			},
			{
				"x": 2.2431552261,
				"y": 0.1334523694,
				"z": -4.5722219,
				"element": "H" 
			},
			{
				"x": 0.6085263295,
				"y": -2.1733247681,
				"z": -0.0739415678,
				"element": "H" 
			},
			{
				"x": -1.7095215413,
				"y": -1.824866061,
				"z": 0.6252556496,
				"element": "H" 
			}
		],
		 "valence_orbital": [ 
			{
				"type": "occ",
				"energy": -0.31212,
				"method": "rhf"
			},
			{
				"type": "occ",
				"energy": -0.3008,
				"method": "rhf"
			},
			{
				"type": "occ",
				"energy": -0.25845,
				"method": "rhf"
			},
			{
				"type": "occ",
				"energy": -0.24513,
				"method": "rhf"
			},
			{
				"type": "occ",
				"energy": -0.2074,
				"method": "rhf"
			},
			{
				"type": "unocc",
				"energy": 0.00193,
				"method": "rhf"
			},
			{
				"type": "unocc",
				"energy": 0.01734,
				"method": "rhf"
			},
			{
				"type": "unocc",
				"energy": 0.08351,
				"method": "rhf"
			},
			{
				"type": "unocc",
				"energy": 0.09008,
				"method": "rhf"
			},
			{
				"type": "unocc",
				"energy": 0.09439,
				"method": "rhf"
			}
		],
		"cosmo_sigma_profile": { 
			"-0.025": 0.0,
			"-0.024": 0.0,
			"-0.023": 0.0,
			"-0.022": 0.0,
			"-0.021": 0.0,
			"-0.02": 0.0,
			"-0.019": 0.0,
			"-0.018": 0.0,
			"-0.017": 0.0,
			"-0.016": 0.0785012318433,
			"-0.015": 0.967791305133,
			"-0.014": 1.09209177161,
			"-0.013": 1.0578489402,
			"-0.012": 0.374928738461,
			"-0.011": 1.17592016047,
			"-0.01": 0.895505862848,
			"-0.009": 0.694729697821,
			"-0.008": 1.11302911278,
			"-0.007": 0.821152979,
			"-0.006": 3.31838550312,
			"-0.005": 9.42576596822,
			"-0.004": 20.1695854601,
			"-0.003": 37.7061667952,
			"-0.002": 32.1941478175,
			"-0.001": 29.486288964,
			"0.0": 29.0875376241,
			"0.001": 21.3642062483,
			"0.002": 11.0023044928,
			"0.003": 10.706070252,
			"0.004": 11.226649952,
			"0.005": 11.5906339918,
			"0.006": 10.1223786029,
			"0.007": 4.13780908447,
			"0.008": 2.78079935847,
			"0.009": 2.73268142596,
			"0.01": 2.39630683747,
			"0.011": 2.36987104752,
			"0.012": 1.21209388417,
			"0.013": 1.4408156667,
			"0.014": 2.2407176725,
			"0.015": 1.09245316062,
			"0.016": 0.0,
			"0.017": 0.0,
			"0.018": 0.0,
			"0.019": 0.0,
			"0.02": 0.0,
			"0.021": 0.0,
			"0.022": 0.0,
			"0.023": 0.0,
			"0.024": 0.0,
			"0.025": 0.0
		}
	}
}
