{
	 "smiles": "C[C@@H](CCC(O)=O)C1CCC2=C3CC[C@@H]4C[C@H](O)CC[C@]4(C)C3C[C@H](O)[C@]12C", 
	 "Tm": 445.15, 
	 "num_atms": 66, 
	 "gaussian": { 
		 "optdone": 1, 
		 "sigma_profile": "yes", 
		 "theory": "DFT", 
		 "functional": "B3LYP", 
		 "basiset": "6-31G**", 
		 "properties": { 
			 "R2extent": 11758.5209, 
			 "electric_dipole_moment_norm": 2.42679688684, 
			 "electric_quadrupole_moment_norm": 19.3806978541, 
			 "total_energy": -1238.3534659, 
			 "HOMO_LUMO_gap": 0.22968, 
			 "cosmo_polarized_energy": -18.47, 
			 "cosmo_cavitation_energy": 56.35, 
			 "cosmo_dispersion_energy": -37.17, 
			 "cosmo_repulsion_energy": 2.75, 
			 "cosmo_total_nonelectrostatic_energy": 21.93, 
			 "SMD_solvation_energy": 8.81 
		},
		"coords": [
			{
				"x": -0.0275285423,
				"y": -4.1299933667,
				"z": -1.4572463293,
				"element": "C" 
			},
			{
				"x": 0.1387560839,
				"y": -2.6788423113,
				"z": -0.9664181384,
				"element": "C" 
			},
			{
				"x": -1.1194276924,
				"y": -2.1863479956,
				"z": -0.2149907242,
				"element": "C" 
			},
			{
				"x": -2.3806158508,
				"y": -2.0292437979,
				"z": -1.0937847393,
				"element": "C" 
			},
			{
				"x": -3.133426936,
				"y": -3.2991421115,
				"z": -1.4253235156,
				"element": "C" 
			},
			{
				"x": -3.4036470125,
				"y": -4.03677069,
				"z": -0.3169503345,
				"element": "O" 
			},
			{
				"x": -3.5062007914,
				"y": -3.6390210162,
				"z": -2.5279511094,
				"element": "O" 
			},
			{
				"x": 1.4671953985,
				"y": -2.5625579509,
				"z": -0.1546789506,
				"element": "C" 
			},
			{
				"x": 1.3444677612,
				"y": -3.0694810672,
				"z": 1.3195716383,
				"element": "C" 
			},
			{
				"x": 1.2438430515,
				"y": -1.8071227637,
				"z": 2.2328569754,
				"element": "C" 
			},
			{
				"x": 1.4007324801,
				"y": -0.6308543844,
				"z": 1.2839151551,
				"element": "C" 
			},
			{
				"x": 0.9045066815,
				"y": 0.6054727156,
				"z": 1.4469959039,
				"element": "C" 
			},
			{
				"x": 0.345259215,
				"y": 1.0852985028,
				"z": 2.7699162941,
				"element": "C" 
			},
			{
				"x": 0.6123944541,
				"y": 2.5889148771,
				"z": 2.9099244821,
				"element": "C" 
			},
			{
				"x": -0.1650198329,
				"y": 3.4064616292,
				"z": 1.8557740737,
				"element": "C" 
			},
			{
				"x": -1.5869477107,
				"y": 3.694388385,
				"z": 2.393176723,
				"element": "C" 
			},
			{
				"x": -2.5318718403,
				"y": 4.2397184666,
				"z": 1.3332391067,
				"element": "C" 
			},
			{
				"x": -3.7635957305,
				"y": 4.5551282526,
				"z": 1.9842935049,
				"element": "O" 
			},
			{
				"x": -2.7197901819,
				"y": 3.2056484831,
				"z": 0.1994676851,
				"element": "C" 
			},
			{
				"x": -1.580183138,
				"y": 2.1643543326,
				"z": 0.1188004345,
				"element": "C" 
			},
			{
				"x": -0.1713826537,
				"y": 2.7423795983,
				"z": 0.4129794061,
				"element": "C" 
			},
			{
				"x": 0.1549392359,
				"y": 3.840367803,
				"z": -0.6263699594,
				"element": "C" 
			},
			{
				"x": 0.9347586204,
				"y": 1.6260938776,
				"z": 0.3063831387,
				"element": "C" 
			},
			{
				"x": 0.9298455633,
				"y": 0.8686843847,
				"z": -1.0402732131,
				"element": "C" 
			},
			{
				"x": 2.0976632298,
				"y": -0.1150383695,
				"z": -1.111819622,
				"element": "C" 
			},
			{
				"x": 2.1587997822,
				"y": -0.8202153793,
				"z": -2.3535850625,
				"element": "O" 
			},
			{
				"x": 2.1149595408,
				"y": -1.1442568755,
				"z": 0.045155247,
				"element": "C" 
			},
			{
				"x": 3.6181530466,
				"y": -1.3777717264,
				"z": 0.3862482066,
				"element": "C" 
			},
			{
				"x": -0.181318333,
				"y": -4.8246237673,
				"z": -0.6224722984,
				"element": "H" 
			},
			{
				"x": -0.8760532087,
				"y": -4.2344159861,
				"z": -2.1391483945,
				"element": "H" 
			},
			{
				"x": 0.8637230377,
				"y": -4.4565326356,
				"z": -2.0033912114,
				"element": "H" 
			},
			{
				"x": 0.2651243394,
				"y": -2.0536776854,
				"z": -1.8563044935,
				"element": "H" 
			},
			{
				"x": -0.9114543134,
				"y": -1.2105080246,
				"z": 0.2303845299,
				"element": "H" 
			},
			{
				"x": -1.3605732679,
				"y": -2.8574146611,
				"z": 0.616430535,
				"element": "H" 
			},
			{
				"x": -2.1496053716,
				"y": -1.5398834138,
				"z": -2.043754712,
				"element": "H" 
			},
			{
				"x": -3.0970879195,
				"y": -1.3891579528,
				"z": -0.5619044261,
				"element": "H" 
			},
			{
				"x": -3.8992672808,
				"y": -4.8116939508,
				"z": -0.630625987,
				"element": "H" 
			},
			{
				"x": 2.1899066577,
				"y": -3.1818828786,
				"z": -0.6963968254,
				"element": "H" 
			},
			{
				"x": 2.2175404684,
				"y": -3.6692983933,
				"z": 1.5909862003,
				"element": "H" 
			},
			{
				"x": 0.4792204599,
				"y": -3.7248513814,
				"z": 1.4481554187,
				"element": "H" 
			},
			{
				"x": 0.2877640872,
				"y": -1.7637472839,
				"z": 2.7636991279,
				"element": "H" 
			},
			{
				"x": 2.0250509272,
				"y": -1.8202497288,
				"z": 3.0043923232,
				"element": "H" 
			},
			{
				"x": 0.8053435942,
				"y": 0.5383287859,
				"z": 3.5988588176,
				"element": "H" 
			},
			{
				"x": -0.736498453,
				"y": 0.8956778902,
				"z": 2.8459399677,
				"element": "H" 
			},
			{
				"x": 1.6908333977,
				"y": 2.7632276302,
				"z": 2.8101473332,
				"element": "H" 
			},
			{
				"x": 0.3358614313,
				"y": 2.9381677504,
				"z": 3.9118281383,
				"element": "H" 
			},
			{
				"x": 0.3405533315,
				"y": 4.3760258416,
				"z": 1.7571939133,
				"element": "H" 
			},
			{
				"x": -1.5225275101,
				"y": 4.4081946349,
				"z": 3.2216349387,
				"element": "H" 
			},
			{
				"x": -2.0353155633,
				"y": 2.7817572181,
				"z": 2.8075138211,
				"element": "H" 
			},
			{
				"x": -2.0952897775,
				"y": 5.1649239541,
				"z": 0.9215786794,
				"element": "H" 
			},
			{
				"x": -4.36773625,
				"y": 4.9076341507,
				"z": 1.3179481032,
				"element": "H" 
			},
			{
				"x": -2.8355077687,
				"y": 3.7185940294,
				"z": -0.7630332282,
				"element": "H" 
			},
			{
				"x": -3.6623273144,
				"y": 2.6806231197,
				"z": 0.3930398374,
				"element": "H" 
			},
			{
				"x": -1.7849653256,
				"y": 1.3519825571,
				"z": 0.8251883792,
				"element": "H" 
			},
			{
				"x": -1.5965088155,
				"y": 1.7092523034,
				"z": -0.8761569865,
				"element": "H" 
			},
			{
				"x": 1.1837789634,
				"y": 4.197437899,
				"z": -0.5021690494,
				"element": "H" 
			},
			{
				"x": 0.0456669548,
				"y": 3.4818571337,
				"z": -1.6548751091,
				"element": "H" 
			},
			{
				"x": -0.5021180231,
				"y": 4.7071672646,
				"z": -0.5155757053,
				"element": "H" 
			},
			{
				"x": 1.8923215785,
				"y": 2.1714091965,
				"z": 0.3624926145,
				"element": "H" 
			},
			{
				"x": 1.0186489977,
				"y": 1.5698494942,
				"z": -1.8795389213,
				"element": "H" 
			},
			{
				"x": -0.0097396636,
				"y": 0.3260340213,
				"z": -1.1714105966,
				"element": "H" 
			},
			{
				"x": 3.0145242444,
				"y": 0.4894038256,
				"z": -1.0065610408,
				"element": "H" 
			},
			{
				"x": 2.2441362543,
				"y": -0.1664769104,
				"z": -3.0596474639,
				"element": "H" 
			},
			{
				"x": 4.1482612032,
				"y": -1.696113359,
				"z": -0.5178378303,
				"element": "H" 
			},
			{
				"x": 3.7665050741,
				"y": -2.1436406552,
				"z": 1.1508929868,
				"element": "H" 
			},
			{
				"x": 4.0788929256,
				"y": -0.4529315346,
				"z": 0.7486923378,
				"element": "H" 
			}
		],
		 "valence_orbital": [ 
			{
				"type": "occ",
				"energy": -0.27999,
				"method": "rhf"
			},
			{
				"type": "occ",
				"energy": -0.26403,
				"method": "rhf"
			},
			{
				"type": "occ",
				"energy": -0.26012,
				"method": "rhf"
			},
			{
				"type": "occ",
				"energy": -0.25867,
				"method": "rhf"
			},
			{
				"type": "occ",
				"energy": -0.21517,
				"method": "rhf"
			},
			{
				"type": "unocc",
				"energy": 0.01451,
				"method": "rhf"
			},
			{
				"type": "unocc",
				"energy": 0.02076,
				"method": "rhf"
			},
			{
				"type": "unocc",
				"energy": 0.06579,
				"method": "rhf"
			},
			{
				"type": "unocc",
				"energy": 0.07042,
				"method": "rhf"
			},
			{
				"type": "unocc",
				"energy": 0.07445,
				"method": "rhf"
			}
		],
		"cosmo_sigma_profile": { 
			"-0.025": 0.0,
			"-0.024": 0.0,
			"-0.023": 0.0,
			"-0.022": 0.0,
			"-0.021": 0.0,
			"-0.02": 0.0,
			"-0.019": 0.0,
			"-0.018": 0.297548354246,
			"-0.017": 1.02301222926,
			"-0.016": 0.859676025359,
			"-0.015": 1.60404259142,
			"-0.014": 2.94206616274,
			"-0.013": 2.67957868835,
			"-0.012": 2.20789294207,
			"-0.011": 2.61714627429,
			"-0.01": 2.18487435842,
			"-0.009": 2.73958268544,
			"-0.008": 1.6801621915,
			"-0.007": 2.2762912546,
			"-0.006": 5.2095070073,
			"-0.005": 6.08270253618,
			"-0.004": 8.67112079116,
			"-0.003": 31.1911055954,
			"-0.002": 71.1760510964,
			"-0.001": 71.8141071244,
			"0.0": 62.9517775952,
			"0.001": 51.3615126892,
			"0.002": 27.477122706,
			"0.003": 9.11562945745,
			"0.004": 7.98986857667,
			"0.005": 6.73978614015,
			"0.006": 5.80505202295,
			"0.007": 6.33357098313,
			"0.008": 5.32185329477,
			"0.009": 4.78962560324,
			"0.01": 5.19455168363,
			"0.011": 4.84351749845,
			"0.012": 7.27099738869,
			"0.013": 4.28055783352,
			"0.014": 2.75146691832,
			"0.015": 1.48661448399,
			"0.016": 0.0,
			"0.017": 0.0,
			"0.018": 0.0,
			"0.019": 0.0,
			"0.02": 0.0,
			"0.021": 0.0,
			"0.022": 0.0,
			"0.023": 0.0,
			"0.024": 0.0,
			"0.025": 0.0
		}
	}
}
