{
	 "smiles": "ClC1=CC2=C(C=C1Cl)C1=C(O2)C=C(Cl)C(Cl)=C1", 
	 "Tm": 500.15, 
	 "num_atms": 21, 
	 "gaussian": { 
		 "optdone": 1, 
		 "sigma_profile": "yes", 
		 "theory": "DFT", 
		 "functional": "B3LYP", 
		 "basiset": "6-31G**", 
		 "properties": { 
			 "R2extent": 8297.088, 
			 "electric_dipole_moment_norm": 0.617160805625, 
			 "electric_quadrupole_moment_norm": 15.2727165779, 
			 "total_energy": -2375.67883375, 
			 "HOMO_LUMO_gap": 0.17212, 
			 "cosmo_polarized_energy": -6.55, 
			 "cosmo_cavitation_energy": 33.38, 
			 "cosmo_dispersion_energy": -25.33, 
			 "cosmo_repulsion_energy": 1.93, 
			 "cosmo_total_nonelectrostatic_energy": 9.98, 
			 "SMD_solvation_energy": 4.5 
		},
		"coords": [
			{
				"x": 1.0510313811,
				"y": 4.6858426172,
				"z": -2.7075058196,
				"element": "Cl" 
			},
			{
				"x": 0.4735303323,
				"y": 3.2967053414,
				"z": -1.8246224325,
				"element": "C" 
			},
			{
				"x": 1.4136358354,
				"y": 2.3612555857,
				"z": -1.3856093546,
				"element": "C" 
			},
			{
				"x": 0.9327547722,
				"y": 1.2667815019,
				"z": -0.6869981282,
				"element": "C" 
			},
			{
				"x": -0.432277021,
				"y": 1.066752219,
				"z": -0.4098836582,
				"element": "C" 
			},
			{
				"x": -1.3598784894,
				"y": 2.0101945206,
				"z": -0.8550353445,
				"element": "C" 
			},
			{
				"x": -0.9032765802,
				"y": 3.1225083736,
				"z": -1.5612839589,
				"element": "C" 
			},
			{
				"x": -2.0772695588,
				"y": 4.2939113105,
				"z": -2.1114022436,
				"element": "Cl" 
			},
			{
				"x": -0.493669781,
				"y": -0.180093427,
				"z": 0.3289702129,
				"element": "C" 
			},
			{
				"x": 0.8399726835,
				"y": -0.6175630897,
				"z": 0.4296476637,
				"element": "C" 
			},
			{
				"x": 1.7107160752,
				"y": 0.2520902544,
				"z": -0.1825677736,
				"element": "O" 
			},
			{
				"x": 1.2093930958,
				"y": -1.7868740412,
				"z": 1.072612782,
				"element": "C" 
			},
			{
				"x": 0.1856747786,
				"y": -2.5495906685,
				"z": 1.6399532246,
				"element": "C" 
			},
			{
				"x": 0.6220110668,
				"y": -4.0280208344,
				"z": 2.4564015245,
				"element": "Cl" 
			},
			{
				"x": -1.1621757844,
				"y": -2.1356734597,
				"z": 1.5547484044,
				"element": "C" 
			},
			{
				"x": -2.4409033204,
				"y": -3.0913534357,
				"z": 2.2650943503,
				"element": "Cl" 
			},
			{
				"x": -1.5057681295,
				"y": -0.9529067895,
				"z": 0.9008872807,
				"element": "C" 
			},
			{
				"x": 2.469353953,
				"y": 2.4934773132,
				"z": -1.5867454243,
				"element": "H" 
			},
			{
				"x": -2.4212274449,
				"y": 1.8981257788,
				"z": -0.6650900611,
				"element": "H" 
			},
			{
				"x": 2.243040569,
				"y": -2.1029254274,
				"z": 1.1371332384,
				"element": "H" 
			},
			{
				"x": -2.5469684333,
				"y": -0.6558436433,
				"z": 0.8483955175,
				"element": "H" 
			}
		],
		 "valence_orbital": [ 
			{
				"type": "occ",
				"energy": -0.31765,
				"method": "rhf"
			},
			{
				"type": "occ",
				"energy": -0.2902,
				"method": "rhf"
			},
			{
				"type": "occ",
				"energy": -0.27821,
				"method": "rhf"
			},
			{
				"type": "occ",
				"energy": -0.24838,
				"method": "rhf"
			},
			{
				"type": "occ",
				"energy": -0.24093,
				"method": "rhf"
			},
			{
				"type": "unocc",
				"energy": -0.06881,
				"method": "rhf"
			},
			{
				"type": "unocc",
				"energy": -0.03312,
				"method": "rhf"
			},
			{
				"type": "unocc",
				"energy": -0.02058,
				"method": "rhf"
			},
			{
				"type": "unocc",
				"energy": -0.00784,
				"method": "rhf"
			},
			{
				"type": "unocc",
				"energy": -0.00743,
				"method": "rhf"
			}
		],
		"cosmo_sigma_profile": { 
			"-0.025": 0.0,
			"-0.024": 0.0,
			"-0.023": 0.0,
			"-0.022": 0.0,
			"-0.021": 0.0,
			"-0.02": 0.0,
			"-0.019": 0.0,
			"-0.018": 0.0,
			"-0.017": 0.0,
			"-0.016": 0.0,
			"-0.015": 0.0,
			"-0.014": 0.0,
			"-0.013": 0.0,
			"-0.012": 0.0,
			"-0.011": 0.0,
			"-0.01": 0.455644109956,
			"-0.009": 6.51551680388,
			"-0.008": 6.17284363817,
			"-0.007": 7.43969207633,
			"-0.006": 5.18027293196,
			"-0.005": 5.60850857601,
			"-0.004": 7.43767407631,
			"-0.003": 13.329609298,
			"-0.002": 17.7098461385,
			"-0.001": 29.5006785462,
			"0.0": 50.366275355,
			"0.001": 35.8544767613,
			"0.002": 21.3458595,
			"0.003": 30.2465592866,
			"0.004": 29.9709480894,
			"0.005": 9.3531919739,
			"0.006": 2.0221485375,
			"0.007": 1.06297705908,
			"0.008": 0.0229335049682,
			"0.009": 0.0,
			"0.01": 0.0,
			"0.011": 0.0,
			"0.012": 0.0,
			"0.013": 0.0,
			"0.014": 0.0,
			"0.015": 0.0,
			"0.016": 0.0,
			"0.017": 0.0,
			"0.018": 0.0,
			"0.019": 0.0,
			"0.02": 0.0,
			"0.021": 0.0,
			"0.022": 0.0,
			"0.023": 0.0,
			"0.024": 0.0,
			"0.025": 0.0
		}
	}
}
