{
	 "smiles": "C[Si](C)(C)P([Si](C)(C)C)[Si](C)(C)C", 
	 "Tm": 297.15, 
	 "num_atms": 40, 
	 "gaussian": { 
		 "optdone": 1, 
		 "sigma_profile": "yes", 
		 "theory": "DFT", 
		 "functional": "B3LYP", 
		 "basiset": "6-31G**", 
		 "properties": { 
			 "R2extent": 4519.89, 
			 "electric_dipole_moment_norm": 1.35759368369, 
			 "electric_quadrupole_moment_norm": 5.08318884953, 
			 "total_energy": -1569.22567248, 
			 "HOMO_LUMO_gap": 0.24582, 
			 "cosmo_polarized_energy": -5.43, 
			 "cosmo_cavitation_energy": 45.88, 
			 "cosmo_dispersion_energy": -23.52, 
			 "cosmo_repulsion_energy": 2.15, 
			 "cosmo_total_nonelectrostatic_energy": 24.51, 
			 "SMD_solvation_energy": 10.94 
		},
		"coords": [
			{
				"x": 0.4761587125,
				"y": 3.2933623981,
				"z": -0.9629492458,
				"element": "C" 
			},
			{
				"x": 0.6359274718,
				"y": 1.4047662959,
				"z": -1.0057729741,
				"element": "Si" 
			},
			{
				"x": 0.3316697774,
				"y": 0.8361417168,
				"z": -2.7903879479,
				"element": "C" 
			},
			{
				"x": 2.410427338,
				"y": 0.9303520693,
				"z": -0.5227964868,
				"element": "C" 
			},
			{
				"x": -1.0087587554,
				"y": 0.5538111378,
				"z": 0.3257322053,
				"element": "P" 
			},
			{
				"x": -0.2431643529,
				"y": 0.6917515436,
				"z": 2.4698529333,
				"element": "Si" 
			},
			{
				"x": -1.7290967173,
				"y": 0.4305746336,
				"z": 3.6178541833,
				"element": "C" 
			},
			{
				"x": 1.1156197219,
				"y": -0.5497143658,
				"z": 2.938118994,
				"element": "C" 
			},
			{
				"x": 0.4204767308,
				"y": 2.4441684953,
				"z": 2.7681729451,
				"element": "C" 
			},
			{
				"x": -1.16172715,
				"y": -1.6674895411,
				"z": -0.1683907419,
				"element": "Si" 
			},
			{
				"x": -2.0856449632,
				"y": -2.5430378656,
				"z": 1.2388987191,
				"element": "C" 
			},
			{
				"x": 0.4892931948,
				"y": -2.5642665792,
				"z": -0.4458123986,
				"element": "C" 
			},
			{
				"x": -2.2114242103,
				"y": -1.8248808617,
				"z": -1.7392268963,
				"element": "C" 
			},
			{
				"x": -0.5200898387,
				"y": 3.6065828957,
				"z": -1.2909839983,
				"element": "H" 
			},
			{
				"x": 1.2127777649,
				"y": 3.752046041,
				"z": -1.6336533776,
				"element": "H" 
			},
			{
				"x": 0.6391970921,
				"y": 3.7000469606,
				"z": 0.0394308009,
				"element": "H" 
			},
			{
				"x": 0.4972774846,
				"y": -0.2377717517,
				"z": -2.9210374159,
				"element": "H" 
			},
			{
				"x": -0.688638085,
				"y": 1.0632724108,
				"z": -3.1154198358,
				"element": "H" 
			},
			{
				"x": 1.0200528928,
				"y": 1.359801377,
				"z": -3.4646312039,
				"element": "H" 
			},
			{
				"x": 2.6719287798,
				"y": 1.2892058141,
				"z": 0.4778746206,
				"element": "H" 
			},
			{
				"x": 2.5579393216,
				"y": -0.153917738,
				"z": -0.5384409726,
				"element": "H" 
			},
			{
				"x": 3.1226317256,
				"y": 1.3756518119,
				"z": -1.2285518825,
				"element": "H" 
			},
			{
				"x": -1.4238413427,
				"y": 0.5429008166,
				"z": 4.6652544776,
				"element": "H" 
			},
			{
				"x": -2.5124206588,
				"y": 1.1674116004,
				"z": 3.4136771139,
				"element": "H" 
			},
			{
				"x": -2.1702928126,
				"y": -0.5639532804,
				"z": 3.5039786892,
				"element": "H" 
			},
			{
				"x": 2.0017236981,
				"y": -0.438343844,
				"z": 2.3056797879,
				"element": "H" 
			},
			{
				"x": 1.4247375039,
				"y": -0.3921663968,
				"z": 3.9789081275,
				"element": "H" 
			},
			{
				"x": 0.7705612552,
				"y": -1.5850111213,
				"z": 2.8513729342,
				"element": "H" 
			},
			{
				"x": 1.3396060291,
				"y": 2.6440480758,
				"z": 2.2087764282,
				"element": "H" 
			},
			{
				"x": -0.3165250026,
				"y": 3.2046012711,
				"z": 2.4909789649,
				"element": "H" 
			},
			{
				"x": 0.6482946535,
				"y": 2.5739835065,
				"z": 3.8330326736,
				"element": "H" 
			},
			{
				"x": -2.3044460238,
				"y": -3.577124803,
				"z": 0.9465237545,
				"element": "H" 
			},
			{
				"x": -3.0384321951,
				"y": -2.0517271411,
				"z": 1.4603643931,
				"element": "H" 
			},
			{
				"x": -1.5009179164,
				"y": -2.579782428,
				"z": 2.163310351,
				"element": "H" 
			},
			{
				"x": 1.0453940483,
				"y": -2.1452811756,
				"z": -1.2905129161,
				"element": "H" 
			},
			{
				"x": 0.3073403718,
				"y": -3.6237435239,
				"z": -0.6649544073,
				"element": "H" 
			},
			{
				"x": 1.1329991778,
				"y": -2.5114855797,
				"z": 0.4376267804,
				"element": "H" 
			},
			{
				"x": -1.7425468385,
				"y": -1.3400753426,
				"z": -2.6005536103,
				"element": "H" 
			},
			{
				"x": -3.1961776612,
				"y": -1.3688233847,
				"z": -1.5961255326,
				"element": "H" 
			},
			{
				"x": -2.3614902217,
				"y": -2.8816841478,
				"z": -1.9912180329,
				"element": "H" 
			}
		],
		 "valence_orbital": [ 
			{
				"type": "occ",
				"energy": -0.2963,
				"method": "rhf"
			},
			{
				"type": "occ",
				"energy": -0.29295,
				"method": "rhf"
			},
			{
				"type": "occ",
				"energy": -0.26237,
				"method": "rhf"
			},
			{
				"type": "occ",
				"energy": -0.26232,
				"method": "rhf"
			},
			{
				"type": "occ",
				"energy": -0.2072,
				"method": "rhf"
			},
			{
				"type": "unocc",
				"energy": 0.03862,
				"method": "rhf"
			},
			{
				"type": "unocc",
				"energy": 0.03868,
				"method": "rhf"
			},
			{
				"type": "unocc",
				"energy": 0.05203,
				"method": "rhf"
			},
			{
				"type": "unocc",
				"energy": 0.05698,
				"method": "rhf"
			},
			{
				"type": "unocc",
				"energy": 0.06978,
				"method": "rhf"
			}
		],
		"cosmo_sigma_profile": { 
			"-0.025": 0.0,
			"-0.024": 0.0,
			"-0.023": 0.0,
			"-0.022": 0.0,
			"-0.021": 0.0,
			"-0.02": 0.0,
			"-0.019": 0.0,
			"-0.018": 0.0,
			"-0.017": 0.0,
			"-0.016": 0.0,
			"-0.015": 0.0,
			"-0.014": 0.0,
			"-0.013": 0.0,
			"-0.012": 0.0,
			"-0.011": 0.0,
			"-0.01": 0.0,
			"-0.009": 0.0,
			"-0.008": 0.0,
			"-0.007": 0.0,
			"-0.006": 0.0,
			"-0.005": 0.0901695331301,
			"-0.004": 10.5610913027,
			"-0.003": 41.2162291308,
			"-0.002": 56.6174786608,
			"-0.001": 51.1212956749,
			"0.0": 45.9025725178,
			"0.001": 54.9525497409,
			"0.002": 39.9746343612,
			"0.003": 16.2566077067,
			"0.004": 2.83974777338,
			"0.005": 1.77234958464,
			"0.006": 1.9862408813,
			"0.007": 1.09092083332,
			"0.008": 1.05517522411,
			"0.009": 1.44687163804,
			"0.01": 1.09036439559,
			"0.011": 0.991897488589,
			"0.012": 0.351326497169,
			"0.013": 0.396969402776,
			"0.014": 1.38230631306,
			"0.015": 0.631203235535,
			"0.016": 0.749053282038,
			"0.017": 0.47446421259,
			"0.018": 0.0,
			"0.019": 0.0,
			"0.02": 0.0,
			"0.021": 0.0,
			"0.022": 0.0,
			"0.023": 0.0,
			"0.024": 0.0,
			"0.025": 0.0
		}
	}
}
