{
	 "smiles": "OCC1=CC=CN=C1N1CCCC1", 
	 "Tm": 348.15, 
	 "num_atms": 27, 
	 "gaussian": { 
		 "optdone": 1, 
		 "sigma_profile": "yes", 
		 "theory": "DFT", 
		 "functional": "B3LYP", 
		 "basiset": "6-31G**", 
		 "properties": { 
			 "R2extent": 2756.989, 
			 "electric_dipole_moment_norm": 2.83442749422, 
			 "electric_quadrupole_moment_norm": 8.1806333899, 
			 "total_energy": -574.210573451, 
			 "HOMO_LUMO_gap": 0.19081, 
			 "cosmo_polarized_energy": -9.85, 
			 "cosmo_cavitation_energy": 28.21, 
			 "cosmo_dispersion_energy": -21.22, 
			 "cosmo_repulsion_energy": 1.7, 
			 "cosmo_total_nonelectrostatic_energy": 8.68, 
			 "SMD_solvation_energy": 2.58 
		},
		"coords": [
			{
				"x": -2.0759002608,
				"y": 1.6270708922,
				"z": 2.5771958098,
				"element": "O" 
			},
			{
				"x": -2.0014264308,
				"y": 0.7661095076,
				"z": 1.4471962156,
				"element": "C" 
			},
			{
				"x": -0.7218414311,
				"y": 1.046720688,
				"z": 0.6920306181,
				"element": "C" 
			},
			{
				"x": -0.0158598879,
				"y": 2.222388779,
				"z": 0.9333112025,
				"element": "C" 
			},
			{
				"x": 1.2372692594,
				"y": 2.426712136,
				"z": 0.3529926306,
				"element": "C" 
			},
			{
				"x": 1.7511968913,
				"y": 1.4053872602,
				"z": -0.4371091051,
				"element": "C" 
			},
			{
				"x": 1.0851729394,
				"y": 0.280929494,
				"z": -0.7139308859,
				"element": "N" 
			},
			{
				"x": -0.1401991609,
				"y": 0.0998544412,
				"z": -0.1961028803,
				"element": "C" 
			},
			{
				"x": -0.8123677646,
				"y": -1.0820894505,
				"z": -0.5334305787,
				"element": "N" 
			},
			{
				"x": -2.2144451159,
				"y": -1.0211778122,
				"z": -1.0080578492,
				"element": "C" 
			},
			{
				"x": -2.3681695157,
				"y": -2.2262801964,
				"z": -1.9537847628,
				"element": "C" 
			},
			{
				"x": -0.9463151355,
				"y": -2.4455209493,
				"z": -2.4859813741,
				"element": "C" 
			},
			{
				"x": -0.0867649766,
				"y": -2.151523574,
				"z": -1.2531784414,
				"element": "C" 
			},
			{
				"x": -2.9430274136,
				"y": 1.5054816426,
				"z": 2.9814953359,
				"element": "H" 
			},
			{
				"x": -2.0000793227,
				"y": -0.2938469814,
				"z": 1.748787076,
				"element": "H" 
			},
			{
				"x": -2.8805460511,
				"y": 0.914057222,
				"z": 0.7995641013,
				"element": "H" 
			},
			{
				"x": -0.4413496149,
				"y": 2.9495057417,
				"z": 1.615651962,
				"element": "H" 
			},
			{
				"x": 1.8072495847,
				"y": 3.33098875,
				"z": 0.5385848451,
				"element": "H" 
			},
			{
				"x": 2.7441650187,
				"y": 1.4882609649,
				"z": -0.8774671195,
				"element": "H" 
			},
			{
				"x": -2.9362586233,
				"y": -1.0765137847,
				"z": -0.1866408603,
				"element": "H" 
			},
			{
				"x": -2.3924531937,
				"y": -0.0774323161,
				"z": -1.5430423434,
				"element": "H" 
			},
			{
				"x": -2.6965369014,
				"y": -3.1065001924,
				"z": -1.3888973795,
				"element": "H" 
			},
			{
				"x": -3.1101150231,
				"y": -2.0386570862,
				"z": -2.7352584387,
				"element": "H" 
			},
			{
				"x": -0.7204896002,
				"y": -1.7228940912,
				"z": -3.279072875,
				"element": "H" 
			},
			{
				"x": -0.7856500989,
				"y": -3.4504287843,
				"z": -2.8873295208,
				"element": "H" 
			},
			{
				"x": 0.9206511225,
				"y": -1.8156076195,
				"z": -1.4923169178,
				"element": "H" 
			},
			{
				"x": -0.0175092934,
				"y": -3.0404946813,
				"z": -0.6099084644,
				"element": "H" 
			}
		],
		 "valence_orbital": [ 
			{
				"type": "occ",
				"energy": -0.27946,
				"method": "rhf"
			},
			{
				"type": "occ",
				"energy": -0.27648,
				"method": "rhf"
			},
			{
				"type": "occ",
				"energy": -0.25203,
				"method": "rhf"
			},
			{
				"type": "occ",
				"energy": -0.24262,
				"method": "rhf"
			},
			{
				"type": "occ",
				"energy": -0.19481,
				"method": "rhf"
			},
			{
				"type": "unocc",
				"energy": -0.004,
				"method": "rhf"
			},
			{
				"type": "unocc",
				"energy": 0.01115,
				"method": "rhf"
			},
			{
				"type": "unocc",
				"energy": 0.07114,
				"method": "rhf"
			},
			{
				"type": "unocc",
				"energy": 0.08738,
				"method": "rhf"
			},
			{
				"type": "unocc",
				"energy": 0.11101,
				"method": "rhf"
			}
		],
		"cosmo_sigma_profile": { 
			"-0.025": 0.0,
			"-0.024": 0.0,
			"-0.023": 0.0,
			"-0.022": 0.0,
			"-0.021": 0.0,
			"-0.02": 0.0,
			"-0.019": 0.0,
			"-0.018": 0.0,
			"-0.017": 0.0162387331156,
			"-0.016": 0.752016426843,
			"-0.015": 1.08392919036,
			"-0.014": 1.08905175692,
			"-0.013": 0.859091290811,
			"-0.012": 0.959264877793,
			"-0.011": 0.662726479631,
			"-0.01": 0.836369981964,
			"-0.009": 0.753471536185,
			"-0.008": 0.922196103517,
			"-0.007": 1.20836037585,
			"-0.006": 2.81073437727,
			"-0.005": 7.0934953438,
			"-0.004": 18.5252794125,
			"-0.003": 26.4848462991,
			"-0.002": 29.3367532411,
			"-0.001": 24.6809576702,
			"0.0": 19.5658963848,
			"0.001": 13.2649678482,
			"0.002": 9.1871658654,
			"0.003": 11.7266371389,
			"0.004": 14.1964926139,
			"0.005": 9.90184049274,
			"0.006": 4.56248859226,
			"0.007": 4.67882271823,
			"0.008": 3.5178252201,
			"0.009": 3.70950774896,
			"0.01": 3.64668560179,
			"0.011": 2.01060651943,
			"0.012": 1.83035041912,
			"0.013": 1.05172518127,
			"0.014": 0.424548262712,
			"0.015": 0.0177736552812,
			"0.016": 0.0,
			"0.017": 0.0,
			"0.018": 0.0,
			"0.019": 0.0,
			"0.02": 0.0,
			"0.021": 0.0,
			"0.022": 0.0,
			"0.023": 0.0,
			"0.024": 0.0,
			"0.025": 0.0
		}
	}
}
