{
	 "smiles": "C1C2C=CC1C(C2P(C1=CC=CC=C1)C1=CC=CC=C1)P(C1=CC=CC=C1)C1=CC=CC=C1", 
	 "Tm": 395.15, 
	 "num_atms": 61, 
	 "gaussian": { 
		 "optdone": 1, 
		 "sigma_profile": "yes", 
		 "theory": "DFT", 
		 "functional": "B3LYP", 
		 "basiset": "6-31G**", 
		 "properties": { 
			 "R2extent": 15086.0265, 
			 "electric_dipole_moment_norm": 1.65993743557, 
			 "electric_quadrupole_moment_norm": 10.252096587, 
			 "total_energy": -1880.82019066, 
			 "HOMO_LUMO_gap": 0.17717, 
			 "cosmo_polarized_energy": -14.92, 
			 "cosmo_cavitation_energy": 63.33, 
			 "cosmo_dispersion_energy": -39.91, 
			 "cosmo_repulsion_energy": 3.04, 
			 "cosmo_total_nonelectrostatic_energy": 26.47, 
			 "SMD_solvation_energy": 9.48 
		},
		"coords": [
			{
				"x": 0.1537223817,
				"y": 0.7071508187,
				"z": 3.2044364003,
				"element": "C" 
			},
			{
				"x": 0.7589141277,
				"y": -0.5161371613,
				"z": 2.4810331588,
				"element": "C" 
			},
			{
				"x": 2.1909583853,
				"y": -0.0345159212,
				"z": 2.2954267607,
				"element": "C" 
			},
			{
				"x": 2.147730732,
				"y": 1.2911029981,
				"z": 2.1047387889,
				"element": "C" 
			},
			{
				"x": 0.6847697478,
				"y": 1.7111531069,
				"z": 2.1594786452,
				"element": "C" 
			},
			{
				"x": -0.0131832609,
				"y": 1.1622595918,
				"z": 0.8497984841,
				"element": "C" 
			},
			{
				"x": 0.0122212761,
				"y": -0.4068504668,
				"z": 1.094504553,
				"element": "C" 
			},
			{
				"x": 0.7230181099,
				"y": -1.5086942039,
				"z": -0.2827158174,
				"element": "P" 
			},
			{
				"x": 1.3922746248,
				"y": -2.9603357963,
				"z": 0.6665718427,
				"element": "C" 
			},
			{
				"x": 2.7767372032,
				"y": -3.1834015235,
				"z": 0.6164864173,
				"element": "C" 
			},
			{
				"x": 3.358575495,
				"y": -4.2503712212,
				"z": 1.307078366,
				"element": "C" 
			},
			{
				"x": 2.5595812008,
				"y": -5.1150605923,
				"z": 2.0546337148,
				"element": "C" 
			},
			{
				"x": 1.1771785091,
				"y": -4.9122397981,
				"z": 2.1058357799,
				"element": "C" 
			},
			{
				"x": 0.5991925352,
				"y": -3.8467048176,
				"z": 1.4164522416,
				"element": "C" 
			},
			{
				"x": -0.8073694305,
				"y": -2.269773173,
				"z": -1.0037114547,
				"element": "C" 
			},
			{
				"x": -2.0499851373,
				"y": -1.6178631138,
				"z": -1.0318217683,
				"element": "C" 
			},
			{
				"x": -3.148147689,
				"y": -2.1896905557,
				"z": -1.679473809,
				"element": "C" 
			},
			{
				"x": -3.0278005333,
				"y": -3.4240353167,
				"z": -2.315678549,
				"element": "C" 
			},
			{
				"x": -1.7935907825,
				"y": -4.0790390553,
				"z": -2.3097899058,
				"element": "C" 
			},
			{
				"x": -0.6973339877,
				"y": -3.5059912294,
				"z": -1.6683437554,
				"element": "C" 
			},
			{
				"x": 0.8277508227,
				"y": 1.8417216513,
				"z": -0.7034753315,
				"element": "P" 
			},
			{
				"x": -0.4368420115,
				"y": 1.5064192756,
				"z": -2.0290410225,
				"element": "C" 
			},
			{
				"x": -1.7479631089,
				"y": 2.0106855512,
				"z": -2.0233900993,
				"element": "C" 
			},
			{
				"x": -2.6223821839,
				"y": 1.7424890309,
				"z": -3.0766405267,
				"element": "C" 
			},
			{
				"x": -2.1997576959,
				"y": 0.9654801467,
				"z": -4.1584442512,
				"element": "C" 
			},
			{
				"x": -0.8989790762,
				"y": 0.4632290666,
				"z": -4.1819707025,
				"element": "C" 
			},
			{
				"x": -0.0251709031,
				"y": 0.7348506358,
				"z": -3.1268187423,
				"element": "C" 
			},
			{
				"x": 0.5850531258,
				"y": 3.675812247,
				"z": -0.4677024362,
				"element": "C" 
			},
			{
				"x": -0.4413691378,
				"y": 4.2947274348,
				"z": 0.2663203239,
				"element": "C" 
			},
			{
				"x": -0.5247065686,
				"y": 5.6853995796,
				"z": 0.3561425596,
				"element": "C" 
			},
			{
				"x": 0.4155031089,
				"y": 6.4892126239,
				"z": -0.2914570447,
				"element": "C" 
			},
			{
				"x": 1.4429882531,
				"y": 5.8926920518,
				"z": -1.0231286467,
				"element": "C" 
			},
			{
				"x": 1.5284829345,
				"y": 4.5015259936,
				"z": -1.1017007045,
				"element": "C" 
			},
			{
				"x": 0.5880363587,
				"y": 0.8647653831,
				"z": 4.1961324493,
				"element": "H" 
			},
			{
				"x": -0.9396939473,
				"y": 0.6810220801,
				"z": 3.2799467196,
				"element": "H" 
			},
			{
				"x": 0.6368622101,
				"y": -1.4885422874,
				"z": 2.9574865134,
				"element": "H" 
			},
			{
				"x": 3.0576010397,
				"y": -0.6820880505,
				"z": 2.2378759089,
				"element": "H" 
			},
			{
				"x": 2.9735232165,
				"y": 1.9477722702,
				"z": 1.8560109078,
				"element": "H" 
			},
			{
				"x": 0.4984396669,
				"y": 2.7693922983,
				"z": 2.342082865,
				"element": "H" 
			},
			{
				"x": -1.0624718595,
				"y": 1.4810536374,
				"z": 0.8510988376,
				"element": "H" 
			},
			{
				"x": -1.0184592033,
				"y": -0.7369368607,
				"z": 1.2602535671,
				"element": "H" 
			},
			{
				"x": 3.4006747236,
				"y": -2.5165890523,
				"z": 0.0271369772,
				"element": "H" 
			},
			{
				"x": 4.4323960102,
				"y": -4.4074022648,
				"z": 1.254659459,
				"element": "H" 
			},
			{
				"x": 3.0080813921,
				"y": -5.9471245627,
				"z": 2.5902145373,
				"element": "H" 
			},
			{
				"x": 0.5497005048,
				"y": -5.5870262104,
				"z": 2.681909578,
				"element": "H" 
			},
			{
				"x": -0.4775353126,
				"y": -3.7077037491,
				"z": 1.4506317499,
				"element": "H" 
			},
			{
				"x": -2.1709012742,
				"y": -0.6460568979,
				"z": -0.5657472377,
				"element": "H" 
			},
			{
				"x": -4.0982734159,
				"y": -1.6626058312,
				"z": -1.6856951285,
				"element": "H" 
			},
			{
				"x": -3.882789239,
				"y": -3.8695863599,
				"z": -2.8162380459,
				"element": "H" 
			},
			{
				"x": -1.6835888558,
				"y": -5.0397196257,
				"z": -2.8057750813,
				"element": "H" 
			},
			{
				"x": 0.2535373805,
				"y": -4.0314157939,
				"z": -1.6741173065,
				"element": "H" 
			},
			{
				"x": -2.0867447075,
				"y": 2.6362692962,
				"z": -1.2029114095,
				"element": "H" 
			},
			{
				"x": -3.6315603656,
				"y": 2.1455712854,
				"z": -3.0571044755,
				"element": "H" 
			},
			{
				"x": -2.8805555766,
				"y": 0.7578448621,
				"z": -4.9792786392,
				"element": "H" 
			},
			{
				"x": -0.562233582,
				"y": -0.1402233224,
				"z": -5.020171342,
				"element": "H" 
			},
			{
				"x": 0.9863519805,
				"y": 0.3399849852,
				"z": -3.1466304442,
				"element": "H" 
			},
			{
				"x": -1.1854096539,
				"y": 3.6945663302,
				"z": 0.7817424105,
				"element": "H" 
			},
			{
				"x": -1.3258734098,
				"y": 6.1410973923,
				"z": 0.9319955385,
				"element": "H" 
			},
			{
				"x": 0.3498481179,
				"y": 7.5713121332,
				"z": -0.2212401306,
				"element": "H" 
			},
			{
				"x": 2.183358514,
				"y": 6.5086747097,
				"z": -1.5261388477,
				"element": "H" 
			},
			{
				"x": 2.3407082205,
				"y": 4.0441863472,
				"z": -1.6611633995,
				"element": "H" 
			}
		],
		 "valence_orbital": [ 
			{
				"type": "occ",
				"energy": -0.24165,
				"method": "rhf"
			},
			{
				"type": "occ",
				"energy": -0.24114,
				"method": "rhf"
			},
			{
				"type": "occ",
				"energy": -0.23716,
				"method": "rhf"
			},
			{
				"type": "occ",
				"energy": -0.21706,
				"method": "rhf"
			},
			{
				"type": "occ",
				"energy": -0.19795,
				"method": "rhf"
			},
			{
				"type": "unocc",
				"energy": -0.02078,
				"method": "rhf"
			},
			{
				"type": "unocc",
				"energy": -0.01823,
				"method": "rhf"
			},
			{
				"type": "unocc",
				"energy": -0.00668,
				"method": "rhf"
			},
			{
				"type": "unocc",
				"energy": -0.00466,
				"method": "rhf"
			},
			{
				"type": "unocc",
				"energy": -0.00437,
				"method": "rhf"
			}
		],
		"cosmo_sigma_profile": { 
			"-0.025": 0.0,
			"-0.024": 0.0,
			"-0.023": 0.0,
			"-0.022": 0.0,
			"-0.021": 0.0,
			"-0.02": 0.0,
			"-0.019": 0.0,
			"-0.018": 0.0,
			"-0.017": 0.0,
			"-0.016": 0.0,
			"-0.015": 0.0,
			"-0.014": 0.0,
			"-0.013": 0.0,
			"-0.012": 0.0,
			"-0.011": 0.0,
			"-0.01": 0.0121320304363,
			"-0.009": 0.154176456288,
			"-0.008": 0.360316337536,
			"-0.007": 1.23176460532,
			"-0.006": 15.1861977628,
			"-0.005": 38.9960273432,
			"-0.004": 51.8984912996,
			"-0.003": 53.3804619107,
			"-0.002": 40.8888992907,
			"-0.001": 41.2129636926,
			"0.0": 39.0428256322,
			"0.001": 37.8738995994,
			"0.002": 35.1064656102,
			"0.003": 34.5700448449,
			"0.004": 40.1228686235,
			"0.005": 38.6147457574,
			"0.006": 18.3971182034,
			"0.007": 3.03844361347,
			"0.008": 1.67033714463,
			"0.009": 1.73861832143,
			"0.01": 1.78367852118,
			"0.011": 1.53956863063,
			"0.012": 1.2496263722,
			"0.013": 1.55469672697,
			"0.014": 0.624976887445,
			"0.015": 0.524785042937,
			"0.016": 0.00640277988476,
			"0.017": 0.0,
			"0.018": 0.0,
			"0.019": 0.0,
			"0.02": 0.0,
			"0.021": 0.0,
			"0.022": 0.0,
			"0.023": 0.0,
			"0.024": 0.0,
			"0.025": 0.0
		}
	}
}
