{
	 "smiles": "COC1=CC=C(C=C1NC(=O)C(F)(F)C(F)(F)C(F)(F)C(F)(F)C(F)(F)C(F)(F)C(F)(F)C(F)(F)F)C1=CC=CC=C1", 
	 "Tm": 391.15, 
	 "num_atms": 54, 
	 "gaussian": { 
		 "optdone": 1, 
		 "sigma_profile": "yes", 
		 "theory": "DFT", 
		 "functional": "B3LYP", 
		 "basiset": "6-31G**", 
		 "properties": { 
			 "R2extent": 25710.0562, 
			 "electric_dipole_moment_norm": 4.34846207986, 
			 "electric_quadrupole_moment_norm": 15.6168631306, 
			 "total_energy": -2747.97958428, 
			 "HOMO_LUMO_gap": 0.19308, 
			 "cosmo_polarized_energy": -15.81, 
			 "cosmo_cavitation_energy": 63.98, 
			 "cosmo_dispersion_energy": -38.99, 
			 "cosmo_repulsion_energy": 2.58, 
			 "cosmo_total_nonelectrostatic_energy": 27.58, 
			 "SMD_solvation_energy": 16.83 
		},
		"coords": [
			{
				"x": -4.4050207109,
				"y": -1.1660565674,
				"z": -2.954187733,
				"element": "C" 
			},
			{
				"x": -3.1601485225,
				"y": -0.5172261428,
				"z": -3.2139778937,
				"element": "O" 
			},
			{
				"x": -2.076232903,
				"y": -1.028163258,
				"z": -2.5471621075,
				"element": "C" 
			},
			{
				"x": -1.144403887,
				"y": -1.8013293529,
				"z": -3.2447275601,
				"element": "C" 
			},
			{
				"x": -0.0001044834,
				"y": -2.2796809366,
				"z": -2.6115506288,
				"element": "C" 
			},
			{
				"x": 0.2456200788,
				"y": -2.0084823934,
				"z": -1.2550150356,
				"element": "C" 
			},
			{
				"x": -0.6999746505,
				"y": -1.2400873442,
				"z": -0.5621163061,
				"element": "C" 
			},
			{
				"x": -1.8412038145,
				"y": -0.7467162264,
				"z": -1.1919210425,
				"element": "C" 
			},
			{
				"x": -2.7492297763,
				"y": 0.0731447529,
				"z": -0.4492497039,
				"element": "N" 
			},
			{
				"x": -2.7331519777,
				"y": 1.4327256648,
				"z": -0.5466071469,
				"element": "C" 
			},
			{
				"x": -2.0874413028,
				"y": 2.098634802,
				"z": -1.3281001032,
				"element": "O" 
			},
			{
				"x": -3.6323867461,
				"y": 2.1278793739,
				"z": 0.5094163586,
				"element": "C" 
			},
			{
				"x": -4.6950592466,
				"y": 1.3155725775,
				"z": 0.8235366846,
				"element": "F" 
			},
			{
				"x": -4.1129070663,
				"y": 3.2792398113,
				"z": 0.0047637776,
				"element": "F" 
			},
			{
				"x": -2.9580553782,
				"y": 2.4409601327,
				"z": 1.8785227123,
				"element": "C" 
			},
			{
				"x": -2.6865472922,
				"y": 1.2563137986,
				"z": 2.4951806831,
				"element": "F" 
			},
			{
				"x": -3.8754610168,
				"y": 3.0989013962,
				"z": 2.6194072008,
				"element": "F" 
			},
			{
				"x": -1.6546058627,
				"y": 3.3198965531,
				"z": 1.8637633079,
				"element": "C" 
			},
			{
				"x": -1.6793978233,
				"y": 4.133077181,
				"z": 0.7866359544,
				"element": "F" 
			},
			{
				"x": -1.667016719,
				"y": 4.0771074746,
				"z": 2.9844305775,
				"element": "F" 
			},
			{
				"x": -0.3248062585,
				"y": 2.5063111316,
				"z": 1.8848810385,
				"element": "C" 
			},
			{
				"x": -0.4527530879,
				"y": 1.4280706401,
				"z": 1.063922984,
				"element": "F" 
			},
			{
				"x": -0.1183463948,
				"y": 2.064437151,
				"z": 3.1424837088,
				"element": "F" 
			},
			{
				"x": 0.9787810419,
				"y": 3.2163204128,
				"z": 1.3916826791,
				"element": "C" 
			},
			{
				"x": 0.8402111449,
				"y": 3.5324601996,
				"z": 0.0912113858,
				"element": "F" 
			},
			{
				"x": 1.9540779334,
				"y": 2.2747898807,
				"z": 1.518645937,
				"element": "F" 
			},
			{
				"x": 1.4373318686,
				"y": 4.467633134,
				"z": 2.177505152,
				"element": "C" 
			},
			{
				"x": 0.4456018774,
				"y": 5.3898564207,
				"z": 2.1259503897,
				"element": "F" 
			},
			{
				"x": 1.6488820516,
				"y": 4.1162380937,
				"z": 3.4647335651,
				"element": "F" 
			},
			{
				"x": 2.7102864195,
				"y": 5.2002615595,
				"z": 1.650284246,
				"element": "C" 
			},
			{
				"x": 2.9335149208,
				"y": 6.2114601561,
				"z": 2.5221293588,
				"element": "F" 
			},
			{
				"x": 2.4376239114,
				"y": 5.7171637101,
				"z": 0.4335159873,
				"element": "F" 
			},
			{
				"x": 4.0267420717,
				"y": 4.3898362175,
				"z": 1.5397445312,
				"element": "C" 
			},
			{
				"x": 5.0471734985,
				"y": 5.2430885754,
				"z": 1.3970298316,
				"element": "F" 
			},
			{
				"x": 3.9911023796,
				"y": 3.5848910607,
				"z": 0.4714996844,
				"element": "F" 
			},
			{
				"x": 4.2270797037,
				"y": 3.6556786,
				"z": 2.6417489166,
				"element": "F" 
			},
			{
				"x": 1.4796097591,
				"y": -2.476837104,
				"z": -0.5751053953,
				"element": "C" 
			},
			{
				"x": 2.1425550298,
				"y": -1.6543346779,
				"z": 0.3532058917,
				"element": "C" 
			},
			{
				"x": 3.3021902956,
				"y": -2.0922026681,
				"z": 0.9913561567,
				"element": "C" 
			},
			{
				"x": 3.8253480307,
				"y": -3.3567056347,
				"z": 0.7138615815,
				"element": "C" 
			},
			{
				"x": 3.1786450428,
				"y": -4.1814558905,
				"z": -0.2083988523,
				"element": "C" 
			},
			{
				"x": 2.0174875446,
				"y": -3.7460714751,
				"z": -0.8456102762,
				"element": "C" 
			},
			{
				"x": -5.1463213719,
				"y": -0.6696921894,
				"z": -3.5831039458,
				"element": "H" 
			},
			{
				"x": -4.7036735426,
				"y": -1.0671890016,
				"z": -1.9036346391,
				"element": "H" 
			},
			{
				"x": -4.3593446045,
				"y": -2.2307633114,
				"z": -3.2173489761,
				"element": "H" 
			},
			{
				"x": -1.3239101758,
				"y": -1.9946700944,
				"z": -4.2973826518,
				"element": "H" 
			},
			{
				"x": 0.7283652365,
				"y": -2.8449955913,
				"z": -3.1847249234,
				"element": "H" 
			},
			{
				"x": -0.5464687124,
				"y": -1.0072150791,
				"z": 0.4858081968,
				"element": "H" 
			},
			{
				"x": -3.2870965742,
				"y": -0.338656501,
				"z": 0.3007910548,
				"element": "H" 
			},
			{
				"x": 1.7633324425,
				"y": -0.6563409422,
				"z": 0.5555241689,
				"element": "H" 
			},
			{
				"x": 3.804327803,
				"y": -1.4389743515,
				"z": 1.6993279768,
				"element": "H" 
			},
			{
				"x": 4.7297127841,
				"y": -3.6955572692,
				"z": 1.2107287391,
				"element": "H" 
			},
			{
				"x": 3.5736177536,
				"y": -5.169699522,
				"z": -0.4265021877,
				"element": "H" 
			},
			{
				"x": 1.5075492786,
				"y": -4.4047469367,
				"z": -1.54280331,
				"element": "H" 
			}
		],
		 "valence_orbital": [ 
			{
				"type": "occ",
				"energy": -0.27781,
				"method": "rhf"
			},
			{
				"type": "occ",
				"energy": -0.27152,
				"method": "rhf"
			},
			{
				"type": "occ",
				"energy": -0.26154,
				"method": "rhf"
			},
			{
				"type": "occ",
				"energy": -0.25481,
				"method": "rhf"
			},
			{
				"type": "occ",
				"energy": -0.22698,
				"method": "rhf"
			},
			{
				"type": "unocc",
				"energy": -0.0339,
				"method": "rhf"
			},
			{
				"type": "unocc",
				"energy": -0.02633,
				"method": "rhf"
			},
			{
				"type": "unocc",
				"energy": -0.01551,
				"method": "rhf"
			},
			{
				"type": "unocc",
				"energy": -0.00617,
				"method": "rhf"
			},
			{
				"type": "unocc",
				"energy": 0.00862,
				"method": "rhf"
			}
		],
		"cosmo_sigma_profile": { 
			"-0.025": 0.0,
			"-0.024": 0.0,
			"-0.023": 0.0,
			"-0.022": 0.0,
			"-0.021": 0.0,
			"-0.02": 0.0,
			"-0.019": 0.0,
			"-0.018": 0.0,
			"-0.017": 0.0,
			"-0.016": 0.297769841059,
			"-0.015": 0.949338520662,
			"-0.014": 0.800790754906,
			"-0.013": 0.523660870406,
			"-0.012": 1.0312471723,
			"-0.011": 1.07605656341,
			"-0.01": 1.08471390943,
			"-0.009": 1.11199049713,
			"-0.008": 1.84206314822,
			"-0.007": 3.15580609986,
			"-0.006": 14.2389007269,
			"-0.005": 24.474803284,
			"-0.004": 26.9095140423,
			"-0.003": 34.8383409294,
			"-0.002": 37.7280544543,
			"-0.001": 44.4019319606,
			"0.0": 80.3509283179,
			"0.001": 113.246127871,
			"0.002": 39.9966069475,
			"0.003": 22.7782446175,
			"0.004": 18.5591898908,
			"0.005": 13.6097275374,
			"0.006": 7.73188792917,
			"0.007": 2.87021296832,
			"0.008": 3.84231703612,
			"0.009": 4.0511669472,
			"0.01": 5.00988386587,
			"0.011": 5.70711933838,
			"0.012": 1.11348801012,
			"0.013": 0.0,
			"0.014": 0.0,
			"0.015": 0.0,
			"0.016": 0.0,
			"0.017": 0.0,
			"0.018": 0.0,
			"0.019": 0.0,
			"0.02": 0.0,
			"0.021": 0.0,
			"0.022": 0.0,
			"0.023": 0.0,
			"0.024": 0.0,
			"0.025": 0.0
		}
	}
}
