{
	 "smiles": "C1CN1C1=NC(=NC(=N1)N1CC1)N1CC1", 
	 "Tm": 433.15, 
	 "num_atms": 27, 
	 "gaussian": { 
		 "optdone": 1, 
		 "sigma_profile": "yes", 
		 "theory": "DFT", 
		 "functional": "B3LYP", 
		 "basiset": "6-31G**", 
		 "properties": { 
			 "R2extent": 3662.5102, 
			 "electric_dipole_moment_norm": 3.3040158792, 
			 "electric_quadrupole_moment_norm": 14.5331138425, 
			 "total_energy": -678.558452231, 
			 "HOMO_LUMO_gap": 0.20454, 
			 "cosmo_polarized_energy": -16.11, 
			 "cosmo_cavitation_energy": 30.96, 
			 "cosmo_dispersion_energy": -22.34, 
			 "cosmo_repulsion_energy": 1.75, 
			 "cosmo_total_nonelectrostatic_energy": 10.37, 
			 "SMD_solvation_energy": -9.32 
		},
		"coords": [
			{
				"x": -1.2919208391,
				"y": -0.1491433455,
				"z": -2.1091563768,
				"element": "C" 
			},
			{
				"x": 0.09056142,
				"y": 0.1023885036,
				"z": -2.5578885484,
				"element": "C" 
			},
			{
				"x": -0.4490918261,
				"y": 0.833794477,
				"z": -1.3860499426,
				"element": "N" 
			},
			{
				"x": 0.0369018548,
				"y": 0.4268542283,
				"z": -0.1168584899,
				"element": "C" 
			},
			{
				"x": 0.1517889465,
				"y": 1.4014803463,
				"z": 0.7846569627,
				"element": "N" 
			},
			{
				"x": 0.6112860269,
				"y": 1.0173396216,
				"z": 1.9855409609,
				"element": "C" 
			},
			{
				"x": 0.9473758394,
				"y": -0.2326270046,
				"z": 2.3204953635,
				"element": "N" 
			},
			{
				"x": 0.7938449722,
				"y": -1.130509402,
				"z": 1.3438719705,
				"element": "C" 
			},
			{
				"x": 0.3442911457,
				"y": -0.8559071498,
				"z": 0.1112177983,
				"element": "N" 
			},
			{
				"x": 1.1486017587,
				"y": -2.4585485084,
				"z": 1.6917335721,
				"element": "N" 
			},
			{
				"x": 1.7371372952,
				"y": -3.2851686107,
				"z": 0.6106998426,
				"element": "C" 
			},
			{
				"x": 0.354063662,
				"y": -3.5376052851,
				"z": 1.0572536388,
				"element": "C" 
			},
			{
				"x": 0.7703183568,
				"y": 1.9771410378,
				"z": 3.0141492985,
				"element": "N" 
			},
			{
				"x": 1.1628205408,
				"y": 3.3398104704,
				"z": 2.5710403397,
				"element": "C" 
			},
			{
				"x": -0.2176920873,
				"y": 3.0867225143,
				"z": 3.0205637807,
				"element": "C" 
			},
			{
				"x": -2.1351847474,
				"y": 0.2974320613,
				"z": -2.6287580087,
				"element": "H" 
			},
			{
				"x": -1.4832618861,
				"y": -1.0959671171,
				"z": -1.6114579869,
				"element": "H" 
			},
			{
				"x": 0.821789659,
				"y": -0.6765967005,
				"z": -2.3596927799,
				"element": "H" 
			},
			{
				"x": 0.2896680895,
				"y": 0.7386394832,
				"z": -3.4158214474,
				"element": "H" 
			},
			{
				"x": 1.8624591513,
				"y": -2.8132906586,
				"z": -0.36019634,
				"element": "H" 
			},
			{
				"x": 2.553952405,
				"y": -3.9199498657,
				"z": 0.9428894934,
				"element": "H" 
			},
			{
				"x": 0.1271034358,
				"y": -4.3628978683,
				"z": 1.7264804342,
				"element": "H" 
			},
			{
				"x": -0.4434687278,
				"y": -3.2341424091,
				"z": 0.384323354,
				"element": "H" 
			},
			{
				"x": 1.883457204,
				"y": 3.8177268316,
				"z": 3.2288532504,
				"element": "H" 
			},
			{
				"x": 1.3110591384,
				"y": 3.4862950465,
				"z": 1.5045171028,
				"element": "H" 
			},
			{
				"x": -0.9862160722,
				"y": 3.0651343241,
				"z": 2.2525582716,
				"element": "H" 
			},
			{
				"x": -0.539644716,
				"y": 3.3734949796,
				"z": 4.017834486,
				"element": "H" 
			}
		],
		 "valence_orbital": [ 
			{
				"type": "occ",
				"energy": -0.27836,
				"method": "rhf"
			},
			{
				"type": "occ",
				"energy": -0.26797,
				"method": "rhf"
			},
			{
				"type": "occ",
				"energy": -0.26496,
				"method": "rhf"
			},
			{
				"type": "occ",
				"energy": -0.25524,
				"method": "rhf"
			},
			{
				"type": "occ",
				"energy": -0.25003,
				"method": "rhf"
			},
			{
				"type": "unocc",
				"energy": -0.04549,
				"method": "rhf"
			},
			{
				"type": "unocc",
				"energy": -0.03752,
				"method": "rhf"
			},
			{
				"type": "unocc",
				"energy": 0.08318,
				"method": "rhf"
			},
			{
				"type": "unocc",
				"energy": 0.08487,
				"method": "rhf"
			},
			{
				"type": "unocc",
				"energy": 0.11738,
				"method": "rhf"
			}
		],
		"cosmo_sigma_profile": { 
			"-0.025": 0.0,
			"-0.024": 0.0,
			"-0.023": 0.0,
			"-0.022": 0.0,
			"-0.021": 0.0,
			"-0.02": 0.0,
			"-0.019": 0.0,
			"-0.018": 0.0,
			"-0.017": 0.0,
			"-0.016": 0.0,
			"-0.015": 0.0,
			"-0.014": 0.0,
			"-0.013": 0.0,
			"-0.012": 0.0,
			"-0.011": 0.0,
			"-0.01": 0.0,
			"-0.009": 0.0,
			"-0.008": 0.0,
			"-0.007": 4.0609206396,
			"-0.006": 16.8771652105,
			"-0.005": 22.5964456743,
			"-0.004": 25.6226669394,
			"-0.003": 33.2436700007,
			"-0.002": 29.767533181,
			"-0.001": 22.5824306287,
			"0.0": 18.8837375003,
			"0.001": 14.5194118992,
			"0.002": 6.44550470589,
			"0.003": 4.72819235095,
			"0.004": 5.59794814331,
			"0.005": 3.6897272196,
			"0.006": 2.72422347291,
			"0.007": 3.70482081093,
			"0.008": 3.66886971153,
			"0.009": 2.34450886383,
			"0.01": 3.18371140163,
			"0.011": 2.89376947604,
			"0.012": 2.99009700868,
			"0.013": 2.91056605107,
			"0.014": 3.82649965623,
			"0.015": 3.76230967376,
			"0.016": 5.66745712184,
			"0.017": 0.958801875134,
			"0.018": 0.0,
			"0.019": 0.0,
			"0.02": 0.0,
			"0.021": 0.0,
			"0.022": 0.0,
			"0.023": 0.0,
			"0.024": 0.0,
			"0.025": 0.0
		}
	}
}
