{
	 "smiles": "CCOC1=C(CO)C=C(NC(=O)C=C)C=C1", 
	 "Tm": 403.15, 
	 "num_atms": 31, 
	 "gaussian": { 
		 "optdone": 1, 
		 "sigma_profile": "yes", 
		 "theory": "DFT", 
		 "functional": "B3LYP", 
		 "basiset": "6-31G**", 
		 "properties": { 
			 "R2extent": 5589.759, 
			 "electric_dipole_moment_norm": 5.10882345164, 
			 "electric_quadrupole_moment_norm": 15.6469867345, 
			 "total_energy": -746.715099789, 
			 "HOMO_LUMO_gap": 0.17792, 
			 "cosmo_polarized_energy": -16.38, 
			 "cosmo_cavitation_energy": 34.75, 
			 "cosmo_dispersion_energy": -24.46, 
			 "cosmo_repulsion_energy": 1.94, 
			 "cosmo_total_nonelectrostatic_energy": 12.23, 
			 "SMD_solvation_energy": 7.58 
		},
		"coords": [
			{
				"x": -3.0320682933,
				"y": -0.7105574951,
				"z": 1.5706251702,
				"element": "C" 
			},
			{
				"x": -3.2820826249,
				"y": -1.0302219551,
				"z": 0.1010788633,
				"element": "C" 
			},
			{
				"x": -2.8364022633,
				"y": 0.0140112173,
				"z": -0.7743029234,
				"element": "O" 
			},
			{
				"x": -1.5108405347,
				"y": 0.101674827,
				"z": -1.1305720261,
				"element": "C" 
			},
			{
				"x": -1.2006091574,
				"y": 1.1577470757,
				"z": -2.013940938,
				"element": "C" 
			},
			{
				"x": -2.2991298313,
				"y": 2.0860190666,
				"z": -2.4961569598,
				"element": "C" 
			},
			{
				"x": -2.976987391,
				"y": 2.7602952539,
				"z": -1.4467311258,
				"element": "O" 
			},
			{
				"x": 0.1194859854,
				"y": 1.3180975365,
				"z": -2.4216151916,
				"element": "C" 
			},
			{
				"x": 1.1357720959,
				"y": 0.443905246,
				"z": -2.0035652046,
				"element": "C" 
			},
			{
				"x": 2.4530371147,
				"y": 0.6319843042,
				"z": -2.4917003691,
				"element": "N" 
			},
			{
				"x": 3.6719897667,
				"y": 0.5542360099,
				"z": -1.8408319906,
				"element": "C" 
			},
			{
				"x": 4.7124245689,
				"y": 0.5677818262,
				"z": -2.4904035109,
				"element": "O" 
			},
			{
				"x": 3.6534382445,
				"y": 0.5126388052,
				"z": -0.3483861927,
				"element": "C" 
			},
			{
				"x": 4.783979225,
				"y": 0.2889284154,
				"z": 0.3251172126,
				"element": "C" 
			},
			{
				"x": 0.8018021949,
				"y": -0.6128974898,
				"z": -1.1537534096,
				"element": "C" 
			},
			{
				"x": -0.5105877772,
				"y": -0.7715142018,
				"z": -0.6998612468,
				"element": "C" 
			},
			{
				"x": -1.965727339,
				"y": -0.6145916762,
				"z": 1.790758768,
				"element": "H" 
			},
			{
				"x": -3.4413776343,
				"y": -1.5079866392,
				"z": 2.1996812401,
				"element": "H" 
			},
			{
				"x": -3.5222551472,
				"y": 0.2278112028,
				"z": 1.8457532344,
				"element": "H" 
			},
			{
				"x": -2.8254334655,
				"y": -1.9827179153,
				"z": -0.1928388626,
				"element": "H" 
			},
			{
				"x": -4.3550964538,
				"y": -1.1079324576,
				"z": -0.0948346955,
				"element": "H" 
			},
			{
				"x": -3.0062709868,
				"y": 1.5118428956,
				"z": -3.1169586699,
				"element": "H" 
			},
			{
				"x": -1.8647575829,
				"y": 2.8622551196,
				"z": -3.1330101246,
				"element": "H" 
			},
			{
				"x": -3.3754955553,
				"y": 2.0649021443,
				"z": -0.9048797889,
				"element": "H" 
			},
			{
				"x": 0.3737352645,
				"y": 2.1463810987,
				"z": -3.0782737511,
				"element": "H" 
			},
			{
				"x": 2.563715768,
				"y": 0.7884178054,
				"z": -3.4862211499,
				"element": "H" 
			},
			{
				"x": 2.715604052,
				"y": 0.6923803263,
				"z": 0.1670988718,
				"element": "H" 
			},
			{
				"x": 4.8104001892,
				"y": 0.2801613865,
				"z": 1.4101028192,
				"element": "H" 
			},
			{
				"x": 5.7110922183,
				"y": 0.1159832907,
				"z": -0.2129968993,
				"element": "H" 
			},
			{
				"x": 1.5636664868,
				"y": -1.3218073251,
				"z": -0.8475007897,
				"element": "H" 
			},
			{
				"x": -0.7343211368,
				"y": -1.5926276986,
				"z": -0.0297803589,
				"element": "H" 
			}
		],
		 "valence_orbital": [ 
			{
				"type": "occ",
				"energy": -0.27111,
				"method": "rhf"
			},
			{
				"type": "occ",
				"energy": -0.26182,
				"method": "rhf"
			},
			{
				"type": "occ",
				"energy": -0.25904,
				"method": "rhf"
			},
			{
				"type": "occ",
				"energy": -0.24876,
				"method": "rhf"
			},
			{
				"type": "occ",
				"energy": -0.21548,
				"method": "rhf"
			},
			{
				"type": "unocc",
				"energy": -0.03756,
				"method": "rhf"
			},
			{
				"type": "unocc",
				"energy": -0.01702,
				"method": "rhf"
			},
			{
				"type": "unocc",
				"energy": -0.00054,
				"method": "rhf"
			},
			{
				"type": "unocc",
				"energy": 0.07657,
				"method": "rhf"
			},
			{
				"type": "unocc",
				"energy": 0.08147,
				"method": "rhf"
			}
		],
		"cosmo_sigma_profile": { 
			"-0.025": 0.0,
			"-0.024": 0.0,
			"-0.023": 0.0,
			"-0.022": 0.0,
			"-0.021": 0.0,
			"-0.02": 0.0,
			"-0.019": 0.0,
			"-0.018": 0.0,
			"-0.017": 0.0,
			"-0.016": 0.0,
			"-0.015": 0.0411405641123,
			"-0.014": 0.674029871762,
			"-0.013": 0.867257276823,
			"-0.012": 1.11551244888,
			"-0.011": 0.644426814258,
			"-0.01": 1.31145386108,
			"-0.009": 1.893673159,
			"-0.008": 1.92301333495,
			"-0.007": 6.71959742291,
			"-0.006": 13.5016591256,
			"-0.005": 20.1306264554,
			"-0.004": 25.4333404822,
			"-0.003": 28.4315508031,
			"-0.002": 24.648206772,
			"-0.001": 21.556822075,
			"0.0": 20.4184978623,
			"0.001": 19.0585262532,
			"0.002": 15.5436241197,
			"0.003": 14.1657175969,
			"0.004": 14.6144507367,
			"0.005": 7.37282520052,
			"0.006": 2.98897136738,
			"0.007": 2.35419820587,
			"0.008": 3.07559346531,
			"0.009": 3.29286678486,
			"0.01": 2.14568125998,
			"0.011": 3.51766394044,
			"0.012": 2.60623776394,
			"0.013": 6.0564357042,
			"0.014": 7.0163324915,
			"0.015": 1.70827515516,
			"0.016": 0.0,
			"0.017": 0.0,
			"0.018": 0.0,
			"0.019": 0.0,
			"0.02": 0.0,
			"0.021": 0.0,
			"0.022": 0.0,
			"0.023": 0.0,
			"0.024": 0.0,
			"0.025": 0.0
		}
	}
}
