{
	 "smiles": "BrC1=CC2=C(OC3=C(O2)C=CC(Br)=C3)C=C1", 
	 "Tm": 466.15, 
	 "num_atms": 22, 
	 "gaussian": { 
		 "optdone": 1, 
		 "sigma_profile": "yes", 
		 "theory": "DFT", 
		 "functional": "B3LYP", 
		 "basiset": "6-31G**", 
		 "properties": { 
			 "R2extent": 11041.397, 
			 "electric_dipole_moment_norm": 0.0, 
			 "electric_quadrupole_moment_norm": 14.6761543318, 
			 "total_energy": -5754.12918005, 
			 "HOMO_LUMO_gap": 0.17655, 
			 "cosmo_polarized_energy": -5.64, 
			 "cosmo_cavitation_energy": 31.61, 
			 "cosmo_dispersion_energy": -24.71, 
			 "cosmo_repulsion_energy": 1.89, 
			 "cosmo_total_nonelectrostatic_energy": 8.79, 
			 "SMD_solvation_energy": 3.47 
		},
		"coords": [
			{
				"x": 5.8612946953,
				"y": -0.9541750509,
				"z": -0.6057161527,
				"element": "Br" 
			},
			{
				"x": 3.9725207354,
				"y": -0.7008352349,
				"z": -0.4960536707,
				"element": "C" 
			},
			{
				"x": 3.4642161906,
				"y": 0.5976379649,
				"z": -0.4535228611,
				"element": "C" 
			},
			{
				"x": 2.0883547904,
				"y": 0.7813809302,
				"z": -0.3736131591,
				"element": "C" 
			},
			{
				"x": 1.2281359854,
				"y": -0.3222090532,
				"z": -0.3365606319,
				"element": "C" 
			},
			{
				"x": -0.1417889046,
				"y": -0.1745917078,
				"z": -0.2573124002,
				"element": "O" 
			},
			{
				"x": -0.6157797942,
				"y": 1.1187617651,
				"z": -0.216706086,
				"element": "C" 
			},
			{
				"x": 0.244441655,
				"y": 2.2223568039,
				"z": -0.253758795,
				"element": "C" 
			},
			{
				"x": 1.6143694635,
				"y": 2.0747366741,
				"z": -0.3329539824,
				"element": "O" 
			},
			{
				"x": -0.2770307264,
				"y": 3.5095720863,
				"z": -0.2106686429,
				"element": "C" 
			},
			{
				"x": -1.6570549449,
				"y": 3.7087424203,
				"z": -0.1304163173,
				"element": "C" 
			},
			{
				"x": -2.499949228,
				"y": 2.6009845888,
				"z": -0.0943556376,
				"element": "C" 
			},
			{
				"x": -4.3887289027,
				"y": 2.8543074232,
				"z": 0.015247196,
				"element": "Br" 
			},
			{
				"x": -1.9916400778,
				"y": 1.3025065317,
				"z": -0.1368430203,
				"element": "C" 
			},
			{
				"x": 1.7496057351,
				"y": -1.6094289461,
				"z": -0.3796981698,
				"element": "C" 
			},
			{
				"x": 3.1296226846,
				"y": -1.8085969804,
				"z": -0.45999315,
				"element": "C" 
			},
			{
				"x": 4.1125352393,
				"y": 1.4648802227,
				"z": -0.4810728042,
				"element": "H" 
			},
			{
				"x": 0.408945581,
				"y": 4.3494382211,
				"z": -0.2407199581,
				"element": "H" 
			},
			{
				"x": -2.0648617508,
				"y": 4.7115851342,
				"z": -0.0967935991,
				"element": "H" 
			},
			{
				"x": -2.6399676558,
				"y": 0.4352710199,
				"z": -0.1092923151,
				"element": "H" 
			},
			{
				"x": 1.0636222748,
				"y": -2.449289244,
				"z": -0.3496441203,
				"element": "H" 
			},
			{
				"x": 3.5374369548,
				"y": -2.8114355691,
				"z": -0.4936517222,
				"element": "H" 
			}
		],
		 "valence_orbital": [ 
			{
				"type": "occ",
				"energy": -0.29304,
				"method": "rhf"
			},
			{
				"type": "occ",
				"energy": -0.27306,
				"method": "rhf"
			},
			{
				"type": "occ",
				"energy": -0.26709,
				"method": "rhf"
			},
			{
				"type": "occ",
				"energy": -0.24662,
				"method": "rhf"
			},
			{
				"type": "occ",
				"energy": -0.21069,
				"method": "rhf"
			},
			{
				"type": "unocc",
				"energy": -0.03414,
				"method": "rhf"
			},
			{
				"type": "unocc",
				"energy": -0.02374,
				"method": "rhf"
			},
			{
				"type": "unocc",
				"energy": -0.02343,
				"method": "rhf"
			},
			{
				"type": "unocc",
				"energy": -0.00235,
				"method": "rhf"
			},
			{
				"type": "unocc",
				"energy": 0.00062,
				"method": "rhf"
			}
		],
		"cosmo_sigma_profile": { 
			"-0.025": 0.0,
			"-0.024": 0.0,
			"-0.023": 0.0,
			"-0.022": 0.0,
			"-0.021": 0.0,
			"-0.02": 0.0,
			"-0.019": 0.0,
			"-0.018": 0.0,
			"-0.017": 0.0,
			"-0.016": 0.0,
			"-0.015": 0.0,
			"-0.014": 0.0,
			"-0.013": 0.0,
			"-0.012": 0.0,
			"-0.011": 0.0,
			"-0.01": 0.0,
			"-0.009": 0.138210283377,
			"-0.008": 4.84937211355,
			"-0.007": 11.3779098791,
			"-0.006": 10.5250556057,
			"-0.005": 11.0653033933,
			"-0.004": 12.7470343665,
			"-0.003": 14.6728239271,
			"-0.002": 13.7352068246,
			"-0.001": 18.6476607777,
			"0.0": 23.8006574322,
			"0.001": 35.781720553,
			"0.002": 39.5653421987,
			"0.003": 25.7403370818,
			"0.004": 23.5818825704,
			"0.005": 11.7141175797,
			"0.006": 3.02543019497,
			"0.007": 1.56227730322,
			"0.008": 0.0,
			"0.009": 0.0,
			"0.01": 0.0,
			"0.011": 0.0,
			"0.012": 0.0,
			"0.013": 0.0,
			"0.014": 0.0,
			"0.015": 0.0,
			"0.016": 0.0,
			"0.017": 0.0,
			"0.018": 0.0,
			"0.019": 0.0,
			"0.02": 0.0,
			"0.021": 0.0,
			"0.022": 0.0,
			"0.023": 0.0,
			"0.024": 0.0,
			"0.025": 0.0
		}
	}
}
