{
	 "smiles": "CC1=C(C(Cl)=O)C(=NO1)C1=C(Cl)C=CC=C1Cl", 
	 "Tm": 366.65, 
	 "num_atms": 23, 
	 "gaussian": { 
		 "optdone": 1, 
		 "sigma_profile": "yes", 
		 "theory": "DFT", 
		 "functional": "B3LYP", 
		 "basiset": "6-31G**", 
		 "properties": { 
			 "R2extent": 5026.8636, 
			 "electric_dipole_moment_norm": 1.06090656987, 
			 "electric_quadrupole_moment_norm": 22.5149521658, 
			 "total_energy": -2008.51731516, 
			 "HOMO_LUMO_gap": 0.19067, 
			 "cosmo_polarized_energy": -10.14, 
			 "cosmo_cavitation_energy": 34.08, 
			 "cosmo_dispersion_energy": -23.21, 
			 "cosmo_repulsion_energy": 1.81, 
			 "cosmo_total_nonelectrostatic_energy": 12.68, 
			 "SMD_solvation_energy": 5.74 
		},
		"coords": [
			{
				"x": 2.3019716133,
				"y": -2.6180964814,
				"z": 3.434002553,
				"element": "C" 
			},
			{
				"x": 1.2508080247,
				"y": -2.1691747961,
				"z": 2.4843379822,
				"element": "C" 
			},
			{
				"x": 1.2785075217,
				"y": -1.4055124045,
				"z": 1.3319137337,
				"element": "C" 
			},
			{
				"x": 2.5181732904,
				"y": -0.8513637694,
				"z": 0.806531845,
				"element": "C" 
			},
			{
				"x": 2.3523232776,
				"y": 0.1204622897,
				"z": -0.7155988938,
				"element": "Cl" 
			},
			{
				"x": 3.6026606162,
				"y": -0.9927594578,
				"z": 1.299767068,
				"element": "O" 
			},
			{
				"x": -0.0996793267,
				"y": -1.3639518694,
				"z": 0.9172825905,
				"element": "C" 
			},
			{
				"x": -0.8653790646,
				"y": -2.0354839206,
				"z": 1.7420439694,
				"element": "N" 
			},
			{
				"x": -0.0038732538,
				"y": -2.5433081373,
				"z": 2.7323431815,
				"element": "O" 
			},
			{
				"x": -0.7482774165,
				"y": -0.7063473363,
				"z": -0.2460885203,
				"element": "C" 
			},
			{
				"x": -0.9198578441,
				"y": -1.381691452,
				"z": -1.4651300594,
				"element": "C" 
			},
			{
				"x": -0.3063978153,
				"y": -3.0131001586,
				"z": -1.6497819155,
				"element": "Cl" 
			},
			{
				"x": -1.558963884,
				"y": -0.7873062889,
				"z": -2.5509743135,
				"element": "C" 
			},
			{
				"x": -2.0460911625,
				"y": 0.5120100801,
				"z": -2.425676503,
				"element": "C" 
			},
			{
				"x": -1.8973270164,
				"y": 1.2134728565,
				"z": -1.2311052586,
				"element": "C" 
			},
			{
				"x": -1.2550150573,
				"y": 0.6001707016,
				"z": -0.1577405835,
				"element": "C" 
			},
			{
				"x": -1.0705391302,
				"y": 1.5060960275,
				"z": 1.331324677,
				"element": "Cl" 
			},
			{
				"x": 2.8170203505,
				"y": -1.7555715332,
				"z": 3.8664867974,
				"element": "H" 
			},
			{
				"x": 3.0609563658,
				"y": -3.2065593254,
				"z": 2.9106178656,
				"element": "H" 
			},
			{
				"x": 1.8536519946,
				"y": -3.2168934042,
				"z": 4.2285223136,
				"element": "H" 
			},
			{
				"x": -1.6699829201,
				"y": -1.3404308903,
				"z": -3.476170156,
				"element": "H" 
			},
			{
				"x": -2.5456380012,
				"y": 0.9823833048,
				"z": -3.2667686261,
				"element": "H" 
			},
			{
				"x": -2.2728511623,
				"y": 2.2243559652,
				"z": -1.1245397472,
				"element": "H" 
			}
		],
		 "valence_orbital": [ 
			{
				"type": "occ",
				"energy": -0.31326,
				"method": "rhf"
			},
			{
				"type": "occ",
				"energy": -0.29788,
				"method": "rhf"
			},
			{
				"type": "occ",
				"energy": -0.2842,
				"method": "rhf"
			},
			{
				"type": "occ",
				"energy": -0.27235,
				"method": "rhf"
			},
			{
				"type": "occ",
				"energy": -0.26001,
				"method": "rhf"
			},
			{
				"type": "unocc",
				"energy": -0.06934,
				"method": "rhf"
			},
			{
				"type": "unocc",
				"energy": -0.04171,
				"method": "rhf"
			},
			{
				"type": "unocc",
				"energy": -0.03493,
				"method": "rhf"
			},
			{
				"type": "unocc",
				"energy": -0.02806,
				"method": "rhf"
			},
			{
				"type": "unocc",
				"energy": -0.00207,
				"method": "rhf"
			}
		],
		"cosmo_sigma_profile": { 
			"-0.025": 0.0,
			"-0.024": 0.0,
			"-0.023": 0.0,
			"-0.022": 0.0,
			"-0.021": 0.0,
			"-0.02": 0.0,
			"-0.019": 0.0,
			"-0.018": 0.0,
			"-0.017": 0.0,
			"-0.016": 0.0,
			"-0.015": 0.0,
			"-0.014": 0.0,
			"-0.013": 0.0,
			"-0.012": 0.0,
			"-0.011": 0.0,
			"-0.01": 0.0,
			"-0.009": 0.311803148711,
			"-0.008": 5.73142211454,
			"-0.007": 13.4066655857,
			"-0.006": 13.530655142,
			"-0.005": 13.0015699228,
			"-0.004": 17.9528742117,
			"-0.003": 20.4922804363,
			"-0.002": 14.7754782019,
			"-0.001": 19.0784364073,
			"0.0": 24.1948358172,
			"0.001": 29.3618717055,
			"0.002": 32.4504908415,
			"0.003": 24.7212863855,
			"0.004": 21.0441167106,
			"0.005": 8.56033008476,
			"0.006": 6.12686816933,
			"0.007": 3.89396749641,
			"0.008": 4.66038957287,
			"0.009": 3.62806090323,
			"0.01": 1.64133928159,
			"0.011": 1.51783124901,
			"0.012": 0.84792344643,
			"0.013": 0.142978001161,
			"0.014": 0.0,
			"0.015": 0.0,
			"0.016": 0.0,
			"0.017": 0.0,
			"0.018": 0.0,
			"0.019": 0.0,
			"0.02": 0.0,
			"0.021": 0.0,
			"0.022": 0.0,
			"0.023": 0.0,
			"0.024": 0.0,
			"0.025": 0.0
		}
	}
}
