{
	 "smiles": "CC1=CC2=C(C=C1)C=C(C)C=C2", 
	 "Tm": 385.15, 
	 "num_atms": 24, 
	 "gaussian": { 
		 "optdone": 1, 
		 "sigma_profile": "yes", 
		 "theory": "DFT", 
		 "functional": "B3LYP", 
		 "basiset": "6-31G**", 
		 "properties": { 
			 "R2extent": 2765.7343, 
			 "electric_dipole_moment_norm": 0.0, 
			 "electric_quadrupole_moment_norm": 6.85182019029, 
			 "total_energy": -464.537505834, 
			 "HOMO_LUMO_gap": 0.17714, 
			 "cosmo_polarized_energy": -4.51, 
			 "cosmo_cavitation_energy": 26.81, 
			 "cosmo_dispersion_energy": -19.82, 
			 "cosmo_repulsion_energy": 1.56, 
			 "cosmo_total_nonelectrostatic_energy": 8.55, 
			 "SMD_solvation_energy": 4.38 
		},
		"coords": [
			{
				"x": 2.5130752066,
				"y": 4.0539807954,
				"z": -0.2392713076,
				"element": "C" 
			},
			{
				"x": 1.5720828044,
				"y": 2.9050062352,
				"z": -0.51010269,
				"element": "C" 
			},
			{
				"x": 0.7135342855,
				"y": 2.4259853235,
				"z": 0.4585349688,
				"element": "C" 
			},
			{
				"x": -0.1728146828,
				"y": 1.3449346641,
				"z": 0.2054919256,
				"element": "C" 
			},
			{
				"x": -0.1766682038,
				"y": 0.7351229364,
				"z": -1.0881901165,
				"element": "C" 
			},
			{
				"x": 0.713600048,
				"y": 1.2405030631,
				"z": -2.0740843185,
				"element": "C" 
			},
			{
				"x": 1.557951566,
				"y": 2.2889034471,
				"z": -1.7934695879,
				"element": "C" 
			},
			{
				"x": -1.0629611136,
				"y": -0.3459788426,
				"z": -1.3412092713,
				"element": "C" 
			},
			{
				"x": -1.9214934844,
				"y": -0.8250149336,
				"z": -0.3725655271,
				"element": "C" 
			},
			{
				"x": -2.8626157219,
				"y": -1.9738693957,
				"z": -0.6434544321,
				"element": "C" 
			},
			{
				"x": -1.9073951645,
				"y": -0.2088830016,
				"z": 0.9107883438,
				"element": "C" 
			},
			{
				"x": -1.0630794578,
				"y": 0.8395501448,
				"z": 1.191387867,
				"element": "C" 
			},
			{
				"x": 2.4106074805,
				"y": 4.4225743193,
				"z": 0.7850322332,
				"element": "H" 
			},
			{
				"x": 2.3228405787,
				"y": 4.8935410533,
				"z": -0.9186597334,
				"element": "H" 
			},
			{
				"x": 3.5582790466,
				"y": 3.7561809649,
				"z": -0.385809122,
				"element": "H" 
			},
			{
				"x": 0.7064520827,
				"y": 2.8809199691,
				"z": 1.4469864763,
				"element": "H" 
			},
			{
				"x": 0.7176894798,
				"y": 0.783126431,
				"z": -3.0605472503,
				"element": "H" 
			},
			{
				"x": 2.2312252237,
				"y": 2.6600181135,
				"z": -2.5627440512,
				"element": "H" 
			},
			{
				"x": -1.0558104769,
				"y": -0.8009751167,
				"z": -2.3296316943,
				"element": "H" 
			},
			{
				"x": -2.7605313195,
				"y": -2.3421054139,
				"z": -1.6679248057,
				"element": "H" 
			},
			{
				"x": -2.6722095144,
				"y": -2.8136814768,
				"z": 0.0355685079,
				"element": "H" 
			},
			{
				"x": -3.9077503606,
				"y": -1.6760402944,
				"z": -0.4964507517,
				"element": "H" 
			},
			{
				"x": -2.5806510413,
				"y": -0.5800162537,
				"z": 1.680069191,
				"element": "H" 
			},
			{
				"x": -1.0671572611,
				"y": 1.2969172683,
				"z": 2.177855146,
				"element": "H" 
			}
		],
		 "valence_orbital": [ 
			{
				"type": "occ",
				"energy": -0.32065,
				"method": "rhf"
			},
			{
				"type": "occ",
				"energy": -0.30591,
				"method": "rhf"
			},
			{
				"type": "occ",
				"energy": -0.27456,
				"method": "rhf"
			},
			{
				"type": "occ",
				"energy": -0.22863,
				"method": "rhf"
			},
			{
				"type": "occ",
				"energy": -0.20612,
				"method": "rhf"
			},
			{
				"type": "unocc",
				"energy": -0.02898,
				"method": "rhf"
			},
			{
				"type": "unocc",
				"energy": -0.00346,
				"method": "rhf"
			},
			{
				"type": "unocc",
				"energy": 0.04038,
				"method": "rhf"
			},
			{
				"type": "unocc",
				"energy": 0.0933,
				"method": "rhf"
			},
			{
				"type": "unocc",
				"energy": 0.10508,
				"method": "rhf"
			}
		],
		"cosmo_sigma_profile": { 
			"-0.025": 0.0,
			"-0.024": 0.0,
			"-0.023": 0.0,
			"-0.022": 0.0,
			"-0.021": 0.0,
			"-0.02": 0.0,
			"-0.019": 0.0,
			"-0.018": 0.0,
			"-0.017": 0.0,
			"-0.016": 0.0,
			"-0.015": 0.0,
			"-0.014": 0.0,
			"-0.013": 0.0,
			"-0.012": 0.0,
			"-0.011": 0.0,
			"-0.01": 0.0,
			"-0.009": 0.0,
			"-0.008": 0.0,
			"-0.007": 0.0,
			"-0.006": 1.34759454204,
			"-0.005": 14.2070380703,
			"-0.004": 22.841975786,
			"-0.003": 23.3506459058,
			"-0.002": 23.6787219969,
			"-0.001": 19.5727795009,
			"0.0": 21.8450853346,
			"0.001": 16.1324963176,
			"0.002": 10.9415364656,
			"0.003": 10.6902658961,
			"0.004": 14.5608296591,
			"0.005": 23.6860677989,
			"0.006": 9.88890313488,
			"0.007": 0.0102042581985,
			"0.008": 0.0,
			"0.009": 0.0,
			"0.01": 0.0,
			"0.011": 0.0,
			"0.012": 0.0,
			"0.013": 0.0,
			"0.014": 0.0,
			"0.015": 0.0,
			"0.016": 0.0,
			"0.017": 0.0,
			"0.018": 0.0,
			"0.019": 0.0,
			"0.02": 0.0,
			"0.021": 0.0,
			"0.022": 0.0,
			"0.023": 0.0,
			"0.024": 0.0,
			"0.025": 0.0
		}
	}
}
