{
	 "smiles": "COC1=C(CC(NC(=O)OC(C)(C)C)C(O)=O)C=C(Br)C=C1", 
	 "Tm": 405.15, 
	 "num_atms": 42, 
	 "gaussian": { 
		 "optdone": 1, 
		 "sigma_profile": "yes", 
		 "theory": "DFT", 
		 "functional": "B3LYP", 
		 "basiset": "6-31G**", 
		 "properties": { 
			 "R2extent": 9657.2533, 
			 "electric_dipole_moment_norm": 3.56946491788, 
			 "electric_quadrupole_moment_norm": 30.8639393165, 
			 "total_energy": -3585.96966815, 
			 "HOMO_LUMO_gap": 0.2007, 
			 "cosmo_polarized_energy": -19.25, 
			 "cosmo_cavitation_energy": 45.83, 
			 "cosmo_dispersion_energy": -29.79, 
			 "cosmo_repulsion_energy": 2.26, 
			 "cosmo_total_nonelectrostatic_energy": 18.3, 
			 "SMD_solvation_energy": 8.0 
		},
		"coords": [
			{
				"x": 4.2287703505,
				"y": 2.8164346082,
				"z": 0.2943648391,
				"element": "C" 
			},
			{
				"x": 3.6008206245,
				"y": 2.0197386183,
				"z": 1.290525387,
				"element": "O" 
			},
			{
				"x": 3.3292078275,
				"y": 0.7146609176,
				"z": 1.0282711284,
				"element": "C" 
			},
			{
				"x": 2.4877059847,
				"y": 0.0792537343,
				"z": 1.9678103963,
				"element": "C" 
			},
			{
				"x": 1.9275891946,
				"y": 0.8503279847,
				"z": 3.1399106696,
				"element": "C" 
			},
			{
				"x": 0.6773990523,
				"y": 1.7416639445,
				"z": 2.8566311183,
				"element": "C" 
			},
			{
				"x": -0.4653925402,
				"y": 0.985216676,
				"z": 2.3221575581,
				"element": "N" 
			},
			{
				"x": -0.6576091229,
				"y": 0.5278006702,
				"z": 1.0537597975,
				"element": "C" 
			},
			{
				"x": -0.0611510671,
				"y": 0.9485541181,
				"z": 0.0568418168,
				"element": "O" 
			},
			{
				"x": -1.6126335584,
				"y": -0.411949483,
				"z": 1.0422894486,
				"element": "O" 
			},
			{
				"x": -2.1509807894,
				"y": -0.9649509482,
				"z": -0.2242661122,
				"element": "C" 
			},
			{
				"x": -2.7832595698,
				"y": 0.1594620911,
				"z": -1.0490756305,
				"element": "C" 
			},
			{
				"x": -3.216668975,
				"y": -1.9408349004,
				"z": 0.2790465385,
				"element": "C" 
			},
			{
				"x": -1.0469862516,
				"y": -1.7037014611,
				"z": -0.9843845955,
				"element": "C" 
			},
			{
				"x": 1.0517734803,
				"y": 3.0816309309,
				"z": 2.1648529448,
				"element": "C" 
			},
			{
				"x": 0.8440745505,
				"y": 3.2339656402,
				"z": 0.8616061517,
				"element": "O" 
			},
			{
				"x": 1.533420951,
				"y": 3.9544597493,
				"z": 2.8536719581,
				"element": "O" 
			},
			{
				"x": 2.1907067014,
				"y": -1.2717706969,
				"z": 1.7904722804,
				"element": "C" 
			},
			{
				"x": 2.6954573087,
				"y": -1.9723661445,
				"z": 0.6940334471,
				"element": "C" 
			},
			{
				"x": 2.2557163457,
				"y": -3.824119938,
				"z": 0.4794788075,
				"element": "Br" 
			},
			{
				"x": 3.5096739533,
				"y": -1.3425686484,
				"z": -0.2381399584,
				"element": "C" 
			},
			{
				"x": 3.8307974478,
				"y": 0.0068753612,
				"z": -0.0673885411,
				"element": "C" 
			},
			{
				"x": 4.21699177,
				"y": 3.8341308207,
				"z": 0.6842404952,
				"element": "H" 
			},
			{
				"x": 5.2647703456,
				"y": 2.4990151986,
				"z": 0.1214245703,
				"element": "H" 
			},
			{
				"x": 3.6699132705,
				"y": 2.7827237674,
				"z": -0.6477563603,
				"element": "H" 
			},
			{
				"x": 1.6401139418,
				"y": 0.1377764568,
				"z": 3.9208658311,
				"element": "H" 
			},
			{
				"x": 2.6880242319,
				"y": 1.5129663591,
				"z": 3.5632483612,
				"element": "H" 
			},
			{
				"x": 0.339679912,
				"y": 2.0876319801,
				"z": 3.835985049,
				"element": "H" 
			},
			{
				"x": -1.0498448932,
				"y": 0.5338935566,
				"z": 3.0116124291,
				"element": "H" 
			},
			{
				"x": -2.0304898675,
				"y": 0.8685784884,
				"z": -1.3949816067,
				"element": "H" 
			},
			{
				"x": -3.284850908,
				"y": -0.2693466608,
				"z": -1.922302092,
				"element": "H" 
			},
			{
				"x": -3.5325078437,
				"y": 0.6946038976,
				"z": -0.4572216938,
				"element": "H" 
			},
			{
				"x": -3.7045059628,
				"y": -2.4284145596,
				"z": -0.5697798231,
				"element": "H" 
			},
			{
				"x": -2.7665633156,
				"y": -2.713239421,
				"z": 0.9090091279,
				"element": "H" 
			},
			{
				"x": -3.979260645,
				"y": -1.4168809084,
				"z": 0.8625393712,
				"element": "H" 
			},
			{
				"x": -1.4855757608,
				"y": -2.2154434949,
				"z": -1.8472575491,
				"element": "H" 
			},
			{
				"x": -0.5746384125,
				"y": -2.4573775837,
				"z": -0.3477356414,
				"element": "H" 
			},
			{
				"x": -0.2803268977,
				"y": -1.0145103122,
				"z": -1.3381388936,
				"element": "H" 
			},
			{
				"x": 0.5298893996,
				"y": 2.3840169159,
				"z": 0.4445737241,
				"element": "H" 
			},
			{
				"x": 1.5592288414,
				"y": -1.7813958971,
				"z": 2.5107764238,
				"element": "H" 
			},
			{
				"x": 3.8987296803,
				"y": -1.8914347886,
				"z": -1.0881351175,
				"element": "H" 
			},
			{
				"x": 4.4732912156,
				"y": 0.4930233613,
				"z": -0.7918360555,
				"element": "H" 
			}
		],
		 "valence_orbital": [ 
			{
				"type": "occ",
				"energy": -0.28689,
				"method": "rhf"
			},
			{
				"type": "occ",
				"energy": -0.2848,
				"method": "rhf"
			},
			{
				"type": "occ",
				"energy": -0.26155,
				"method": "rhf"
			},
			{
				"type": "occ",
				"energy": -0.24653,
				"method": "rhf"
			},
			{
				"type": "occ",
				"energy": -0.21872,
				"method": "rhf"
			},
			{
				"type": "unocc",
				"energy": -0.01802,
				"method": "rhf"
			},
			{
				"type": "unocc",
				"energy": -0.00398,
				"method": "rhf"
			},
			{
				"type": "unocc",
				"energy": 0.00699,
				"method": "rhf"
			},
			{
				"type": "unocc",
				"energy": 0.02484,
				"method": "rhf"
			},
			{
				"type": "unocc",
				"energy": 0.02793,
				"method": "rhf"
			}
		],
		"cosmo_sigma_profile": { 
			"-0.025": 0.0,
			"-0.024": 0.0,
			"-0.023": 0.0,
			"-0.022": 0.0,
			"-0.021": 0.0,
			"-0.02": 0.0,
			"-0.019": 0.0,
			"-0.018": 0.0,
			"-0.017": 0.0,
			"-0.016": 0.10394246259,
			"-0.015": 0.933671695138,
			"-0.014": 1.43479298624,
			"-0.013": 1.19181686152,
			"-0.012": 1.04022385066,
			"-0.011": 1.29206506986,
			"-0.01": 1.2013068009,
			"-0.009": 1.72083060181,
			"-0.008": 2.7670959381,
			"-0.007": 9.0569662507,
			"-0.006": 14.6105283737,
			"-0.005": 18.773261486,
			"-0.004": 28.77573639,
			"-0.003": 32.1342211331,
			"-0.002": 29.0445328298,
			"-0.001": 31.4413432306,
			"0.0": 38.7746050948,
			"0.001": 25.993937068,
			"0.002": 25.5104764559,
			"0.003": 23.6269786421,
			"0.004": 18.6503409327,
			"0.005": 14.1930715485,
			"0.006": 7.6378400596,
			"0.007": 6.62123580043,
			"0.008": 4.8114869607,
			"0.009": 4.12057643552,
			"0.01": 2.98713033053,
			"0.011": 3.73429183156,
			"0.012": 5.65784505834,
			"0.013": 4.34062942776,
			"0.014": 1.35893275863,
			"0.015": 0.0285247541352,
			"0.016": 0.0,
			"0.017": 0.0,
			"0.018": 0.0,
			"0.019": 0.0,
			"0.02": 0.0,
			"0.021": 0.0,
			"0.022": 0.0,
			"0.023": 0.0,
			"0.024": 0.0,
			"0.025": 0.0
		}
	}
}
