{
	 "smiles": "CC(CCC(O)=O)C1CCC2C3CCC4CC(O)CCC4(C)C3CC(O)C12C", 
	 "Tm": 450.15, 
	 "num_atms": 68, 
	 "gaussian": { 
		 "optdone": 1, 
		 "sigma_profile": "yes", 
		 "theory": "DFT", 
		 "functional": "B3LYP", 
		 "basiset": "6-31G**", 
		 "properties": { 
			 "R2extent": 15427.1326, 
			 "electric_dipole_moment_norm": 1.93062715458, 
			 "electric_quadrupole_moment_norm": 20.1691881522, 
			 "total_energy": -1239.59126983, 
			 "HOMO_LUMO_gap": 0.25901, 
			 "cosmo_polarized_energy": -16.58, 
			 "cosmo_cavitation_energy": 56.2, 
			 "cosmo_dispersion_energy": -39.03, 
			 "cosmo_repulsion_energy": 2.84, 
			 "cosmo_total_nonelectrostatic_energy": 20.01, 
			 "SMD_solvation_energy": 8.5 
		},
		"coords": [
			{
				"x": -3.2845877834,
				"y": -2.5627192845,
				"z": -2.6965827186,
				"element": "C" 
			},
			{
				"x": -3.1689233079,
				"y": -1.6347808099,
				"z": -1.4704227731,
				"element": "C" 
			},
			{
				"x": -3.1800210947,
				"y": -2.4687217719,
				"z": -0.1682206688,
				"element": "C" 
			},
			{
				"x": -4.472042449,
				"y": -3.246612182,
				"z": 0.1120401034,
				"element": "C" 
			},
			{
				"x": -5.6459779314,
				"y": -2.3633774003,
				"z": 0.4771043975,
				"element": "C" 
			},
			{
				"x": -6.8186057519,
				"y": -3.0416429069,
				"z": 0.4205391632,
				"element": "O" 
			},
			{
				"x": -5.5947882333,
				"y": -1.1988909969,
				"z": 0.815187342,
				"element": "O" 
			},
			{
				"x": -1.9025967895,
				"y": -0.7411622844,
				"z": -1.5858850845,
				"element": "C" 
			},
			{
				"x": -1.7622798269,
				"y": -0.0473997017,
				"z": -2.9561664136,
				"element": "C" 
			},
			{
				"x": -0.5987735886,
				"y": 0.9243319847,
				"z": -2.7599543709,
				"element": "C" 
			},
			{
				"x": -0.7543729715,
				"y": 1.4655274441,
				"z": -1.3189631728,
				"element": "C" 
			},
			{
				"x": 0.601498248,
				"y": 1.742061918,
				"z": -0.6373060503,
				"element": "C" 
			},
			{
				"x": 1.3988563833,
				"y": 2.8287979998,
				"z": -1.3817977736,
				"element": "C" 
			},
			{
				"x": 2.7433736953,
				"y": 3.1270467813,
				"z": -0.7065804522,
				"element": "C" 
			},
			{
				"x": 2.5782319754,
				"y": 3.4643933177,
				"z": 0.7830466483,
				"element": "C" 
			},
			{
				"x": 3.9276728949,
				"y": 3.8294180868,
				"z": 1.4350386037,
				"element": "C" 
			},
			{
				"x": 3.8627841868,
				"y": 3.9893848132,
				"z": 2.9779385775,
				"element": "C" 
			},
			{
				"x": 4.4374838214,
				"y": 2.8757438601,
				"z": 3.6743813041,
				"element": "O" 
			},
			{
				"x": 2.4150654585,
				"y": 4.1027106639,
				"z": 3.4481344769,
				"element": "C" 
			},
			{
				"x": 1.5387561307,
				"y": 2.9027057307,
				"z": 3.0276206834,
				"element": "C" 
			},
			{
				"x": 1.7981339916,
				"y": 2.3701526893,
				"z": 1.5726880904,
				"element": "C" 
			},
			{
				"x": 2.6127185579,
				"y": 1.0570443649,
				"z": 1.6596415462,
				"element": "C" 
			},
			{
				"x": 0.429552702,
				"y": 2.1419180319,
				"z": 0.8471516637,
				"element": "C" 
			},
			{
				"x": -0.5342161658,
				"y": 1.1855836154,
				"z": 1.6112050649,
				"element": "C" 
			},
			{
				"x": -1.0816194829,
				"y": -0.0003461608,
				"z": 0.7978727171,
				"element": "C" 
			},
			{
				"x": -0.1104248581,
				"y": -1.0477723396,
				"z": 0.678235363,
				"element": "O" 
			},
			{
				"x": -1.7059036444,
				"y": 0.4442435023,
				"z": -0.560435748,
				"element": "C" 
			},
			{
				"x": -3.0480127301,
				"y": 1.1504801282,
				"z": -0.2645832655,
				"element": "C" 
			},
			{
				"x": -4.1388206884,
				"y": -3.2414416057,
				"z": -2.6131360277,
				"element": "H" 
			},
			{
				"x": -3.4203392999,
				"y": -1.9996349457,
				"z": -3.6231159573,
				"element": "H" 
			},
			{
				"x": -2.3837209165,
				"y": -3.179283014,
				"z": -2.8076385258,
				"element": "H" 
			},
			{
				"x": -4.051836273,
				"y": -0.9828866511,
				"z": -1.4632772334,
				"element": "H" 
			},
			{
				"x": -2.3427832642,
				"y": -3.176661745,
				"z": -0.1923471941,
				"element": "H" 
			},
			{
				"x": -3.0065381155,
				"y": -1.8203647157,
				"z": 0.6906839693,
				"element": "H" 
			},
			{
				"x": -4.7749549147,
				"y": -3.8958843199,
				"z": -0.714627777,
				"element": "H" 
			},
			{
				"x": -4.322603797,
				"y": -3.9198696149,
				"z": 0.967319262,
				"element": "H" 
			},
			{
				"x": -7.5055361256,
				"y": -2.4136678989,
				"z": 0.7014622918,
				"element": "H" 
			},
			{
				"x": -1.0330694732,
				"y": -1.4011852378,
				"z": -1.4638118627,
				"element": "H" 
			},
			{
				"x": -1.5759662693,
				"y": -0.7493292513,
				"z": -3.773636475,
				"element": "H" 
			},
			{
				"x": -2.6845500423,
				"y": 0.4962779968,
				"z": -3.2041383081,
				"element": "H" 
			},
			{
				"x": -0.5730553772,
				"y": 1.7196060721,
				"z": -3.5117019007,
				"element": "H" 
			},
			{
				"x": 0.3483047472,
				"y": 0.3739523875,
				"z": -2.8492137047,
				"element": "H" 
			},
			{
				"x": -1.2795633596,
				"y": 2.4299545093,
				"z": -1.3630432673,
				"element": "H" 
			},
			{
				"x": 1.201622693,
				"y": 0.8203433335,
				"z": -0.702561709,
				"element": "H" 
			},
			{
				"x": 1.5629536768,
				"y": 2.5350795633,
				"z": -2.4247588553,
				"element": "H" 
			},
			{
				"x": 0.7928934883,
				"y": 3.7466728687,
				"z": -1.4095724406,
				"element": "H" 
			},
			{
				"x": 3.4145248508,
				"y": 2.2656289438,
				"z": -0.8231531775,
				"element": "H" 
			},
			{
				"x": 3.2387089684,
				"y": 3.9639847308,
				"z": -1.2163064421,
				"element": "H" 
			},
			{
				"x": 1.9496849587,
				"y": 4.3677121455,
				"z": 0.8234262293,
				"element": "H" 
			},
			{
				"x": 4.2870228146,
				"y": 4.7624412259,
				"z": 0.9827459714,
				"element": "H" 
			},
			{
				"x": 4.6791285487,
				"y": 3.0664474664,
				"z": 1.1922097743,
				"element": "H" 
			},
			{
				"x": 4.4028207499,
				"y": 4.9039283007,
				"z": 3.2693678541,
				"element": "H" 
			},
			{
				"x": 5.354579699,
				"y": 2.7885104593,
				"z": 3.384316424,
				"element": "H" 
			},
			{
				"x": 2.3983517662,
				"y": 4.2096066215,
				"z": 4.5379526784,
				"element": "H" 
			},
			{
				"x": 2.0051895664,
				"y": 5.0333618038,
				"z": 3.0370724983,
				"element": "H" 
			},
			{
				"x": 1.6950619126,
				"y": 2.087964782,
				"z": 3.7409746739,
				"element": "H" 
			},
			{
				"x": 0.4902330674,
				"y": 3.2033186003,
				"z": 3.1345388096,
				"element": "H" 
			},
			{
				"x": 2.9817527078,
				"y": 0.7212092822,
				"z": 0.6851115091,
				"element": "H" 
			},
			{
				"x": 2.0038735212,
				"y": 0.247143057,
				"z": 2.0748662014,
				"element": "H" 
			},
			{
				"x": 3.4726395051,
				"y": 1.1883501291,
				"z": 2.3192360637,
				"element": "H" 
			},
			{
				"x": -0.0556358604,
				"y": 3.1299277909,
				"z": 0.8219378282,
				"element": "H" 
			},
			{
				"x": -1.3880520928,
				"y": 1.7587684219,
				"z": 1.9866906063,
				"element": "H" 
			},
			{
				"x": -0.0530407319,
				"y": 0.7619822263,
				"z": 2.4973447692,
				"element": "H" 
			},
			{
				"x": -1.8694443177,
				"y": -0.456114902,
				"z": 1.4040046015,
				"element": "H" 
			},
			{
				"x": 0.6870987833,
				"y": -0.6824010657,
				"z": 0.2763456967,
				"element": "H" 
			},
			{
				"x": -2.8915463961,
				"y": 2.0580661269,
				"z": 0.3279785289,
				"element": "H" 
			},
			{
				"x": -3.5371625495,
				"y": 1.4624455072,
				"z": -1.1937922279,
				"element": "H" 
			},
			{
				"x": -3.7480075968,
				"y": 0.5098215216,
				"z": 0.2793195916,
				"element": "H" 
			}
		],
		 "valence_orbital": [ 
			{
				"type": "occ",
				"energy": -0.27544,
				"method": "rhf"
			},
			{
				"type": "occ",
				"energy": -0.27331,
				"method": "rhf"
			},
			{
				"type": "occ",
				"energy": -0.26201,
				"method": "rhf"
			},
			{
				"type": "occ",
				"energy": -0.25834,
				"method": "rhf"
			},
			{
				"type": "occ",
				"energy": -0.24774,
				"method": "rhf"
			},
			{
				"type": "unocc",
				"energy": 0.01127,
				"method": "rhf"
			},
			{
				"type": "unocc",
				"energy": 0.06763,
				"method": "rhf"
			},
			{
				"type": "unocc",
				"energy": 0.07181,
				"method": "rhf"
			},
			{
				"type": "unocc",
				"energy": 0.08012,
				"method": "rhf"
			},
			{
				"type": "unocc",
				"energy": 0.08158,
				"method": "rhf"
			}
		],
		"cosmo_sigma_profile": { 
			"-0.025": 0.0,
			"-0.024": 0.0,
			"-0.023": 0.0,
			"-0.022": 0.0,
			"-0.021": 0.0,
			"-0.02": 0.0,
			"-0.019": 0.0,
			"-0.018": 0.329860247956,
			"-0.017": 1.15377984391,
			"-0.016": 0.769109066645,
			"-0.015": 1.05489457756,
			"-0.014": 2.16559423012,
			"-0.013": 1.38639069963,
			"-0.012": 1.543215089,
			"-0.011": 1.74613355201,
			"-0.01": 1.81304343263,
			"-0.009": 3.74192855961,
			"-0.008": 2.17924046951,
			"-0.007": 2.95946985072,
			"-0.006": 6.60841019856,
			"-0.005": 7.62293908762,
			"-0.004": 9.74588778442,
			"-0.003": 23.8438232235,
			"-0.002": 61.4120178118,
			"-0.001": 87.0602951661,
			"0.0": 66.0790775,
			"0.001": 48.4431581688,
			"0.002": 27.2174698677,
			"0.003": 11.252488085,
			"0.004": 7.58890516943,
			"0.005": 6.6573742095,
			"0.006": 4.91802252605,
			"0.007": 6.84062849939,
			"0.008": 5.46652303188,
			"0.009": 5.74598159757,
			"0.01": 5.90766375475,
			"0.011": 4.75881282193,
			"0.012": 4.31621574039,
			"0.013": 2.2879039961,
			"0.014": 2.7729886926,
			"0.015": 1.39859851402,
			"0.016": 0.0181931106682,
			"0.017": 0.0,
			"0.018": 0.0,
			"0.019": 0.0,
			"0.02": 0.0,
			"0.021": 0.0,
			"0.022": 0.0,
			"0.023": 0.0,
			"0.024": 0.0,
			"0.025": 0.0
		}
	}
}
