{
	 "smiles": "NC1=C(C=CC(Br)=C1)N1C=CC=N1", 
	 "Tm": 343.15, 
	 "num_atms": 21, 
	 "gaussian": { 
		 "optdone": 1, 
		 "sigma_profile": "yes", 
		 "theory": "DFT", 
		 "functional": "B3LYP", 
		 "basiset": "6-31G**", 
		 "properties": { 
			 "R2extent": 4719.6553, 
			 "electric_dipole_moment_norm": 2.00134295162, 
			 "electric_quadrupole_moment_norm": 10.3647518417, 
			 "total_energy": -3083.41863096, 
			 "HOMO_LUMO_gap": 0.18008, 
			 "cosmo_polarized_energy": -9.29, 
			 "cosmo_cavitation_energy": 27.34, 
			 "cosmo_dispersion_energy": -20.83, 
			 "cosmo_repulsion_energy": 1.63, 
			 "cosmo_total_nonelectrostatic_energy": 8.13, 
			 "SMD_solvation_energy": 3.41 
		},
		"coords": [
			{
				"x": 0.8172676194,
				"y": 1.7512277712,
				"z": 0.1043186257,
				"element": "N" 
			},
			{
				"x": -0.2175767811,
				"y": 0.8395245351,
				"z": 0.0827201852,
				"element": "C" 
			},
			{
				"x": -0.1821433784,
				"y": -0.3111137352,
				"z": -0.7469213768,
				"element": "C" 
			},
			{
				"x": -1.2594814456,
				"y": -1.1979778284,
				"z": -0.769850672,
				"element": "C" 
			},
			{
				"x": -2.4103104751,
				"y": -0.9693420368,
				"z": -0.0189450377,
				"element": "C" 
			},
			{
				"x": -2.4473189431,
				"y": 0.1686656027,
				"z": 0.7835589427,
				"element": "C" 
			},
			{
				"x": -4.0018287828,
				"y": 0.5174448638,
				"z": 1.8416980554,
				"element": "Br" 
			},
			{
				"x": -1.3798040752,
				"y": 1.0537066178,
				"z": 0.8484654191,
				"element": "C" 
			},
			{
				"x": 0.9382075702,
				"y": -0.5658479323,
				"z": -1.5897297297,
				"element": "N" 
			},
			{
				"x": 0.9186382478,
				"y": -1.1060934669,
				"z": -2.8434755442,
				"element": "C" 
			},
			{
				"x": 2.2301601086,
				"y": -1.228287499,
				"z": -3.2547589661,
				"element": "C" 
			},
			{
				"x": 2.9867419455,
				"y": -0.7231375793,
				"z": -2.1765213438,
				"element": "C" 
			},
			{
				"x": 2.2107034131,
				"y": -0.3270818952,
				"z": -1.1696311967,
				"element": "N" 
			},
			{
				"x": 0.8186841287,
				"y": 2.3929479507,
				"z": 0.8833284679,
				"element": "H" 
			},
			{
				"x": 1.7237631813,
				"y": 1.3672699523,
				"z": -0.1409680393,
				"element": "H" 
			},
			{
				"x": -1.1879201513,
				"y": -2.0941664821,
				"z": -1.3777189467,
				"element": "H" 
			},
			{
				"x": -3.2411631901,
				"y": -1.6627695399,
				"z": -0.0456178347,
				"element": "H" 
			},
			{
				"x": -1.4377831984,
				"y": 1.9287692195,
				"z": 1.4868223498,
				"element": "H" 
			},
			{
				"x": -0.0116229417,
				"y": -1.3339904688,
				"z": -3.3406663637,
				"element": "H" 
			},
			{
				"x": 2.5856839082,
				"y": -1.6102917848,
				"z": -4.1995945546,
				"element": "H" 
			},
			{
				"x": 4.06080324,
				"y": -0.6265562644,
				"z": -2.0906124397,
				"element": "H" 
			}
		],
		 "valence_orbital": [ 
			{
				"type": "occ",
				"energy": -0.28477,
				"method": "rhf"
			},
			{
				"type": "occ",
				"energy": -0.27351,
				"method": "rhf"
			},
			{
				"type": "occ",
				"energy": -0.2565,
				"method": "rhf"
			},
			{
				"type": "occ",
				"energy": -0.23717,
				"method": "rhf"
			},
			{
				"type": "occ",
				"energy": -0.20649,
				"method": "rhf"
			},
			{
				"type": "unocc",
				"energy": -0.02641,
				"method": "rhf"
			},
			{
				"type": "unocc",
				"energy": -0.00107,
				"method": "rhf"
			},
			{
				"type": "unocc",
				"energy": 0.00885,
				"method": "rhf"
			},
			{
				"type": "unocc",
				"energy": 0.0245,
				"method": "rhf"
			},
			{
				"type": "unocc",
				"energy": 0.06195,
				"method": "rhf"
			}
		],
		"cosmo_sigma_profile": { 
			"-0.025": 0.0,
			"-0.024": 0.0,
			"-0.023": 0.0,
			"-0.022": 0.0,
			"-0.021": 0.0,
			"-0.02": 0.0,
			"-0.019": 0.0,
			"-0.018": 0.0,
			"-0.017": 0.0,
			"-0.016": 0.0,
			"-0.015": 0.0,
			"-0.014": 0.0,
			"-0.013": 0.930885611777,
			"-0.012": 1.67443084676,
			"-0.011": 1.70705210415,
			"-0.01": 1.58115620993,
			"-0.009": 3.39033677865,
			"-0.008": 6.10197210102,
			"-0.007": 10.1792880972,
			"-0.006": 10.1436158379,
			"-0.005": 11.151392716,
			"-0.004": 11.0934341289,
			"-0.003": 10.9287940516,
			"-0.002": 11.5926187209,
			"-0.001": 10.9862497335,
			"0.0": 11.0220025928,
			"0.001": 14.5023152355,
			"0.002": 21.452470494,
			"0.003": 28.2035223391,
			"0.004": 28.6326139513,
			"0.005": 16.0066024998,
			"0.006": 1.87391408083,
			"0.007": 2.12925924411,
			"0.008": 1.39020532578,
			"0.009": 1.71525759478,
			"0.01": 1.6391060133,
			"0.011": 1.4718224427,
			"0.012": 1.07582946071,
			"0.013": 0.491092447943,
			"0.014": 0.0,
			"0.015": 0.0,
			"0.016": 0.0,
			"0.017": 0.0,
			"0.018": 0.0,
			"0.019": 0.0,
			"0.02": 0.0,
			"0.021": 0.0,
			"0.022": 0.0,
			"0.023": 0.0,
			"0.024": 0.0,
			"0.025": 0.0
		}
	}
}
