{
	 "smiles": "OC(=O)CNC(=O)C1=NOC(=C1)C1=CC=CC=C1", 
	 "Tm": 482.15, 
	 "num_atms": 28, 
	 "gaussian": { 
		 "optdone": 1, 
		 "sigma_profile": "yes", 
		 "theory": "DFT", 
		 "functional": "B3LYP", 
		 "basiset": "6-31G**", 
		 "properties": { 
			 "R2extent": 7589.4026, 
			 "electric_dipole_moment_norm": 8.86223883339, 
			 "electric_quadrupole_moment_norm": 27.1073955204, 
			 "total_energy": -873.674935271, 
			 "HOMO_LUMO_gap": 0.17872, 
			 "cosmo_polarized_energy": -24.96, 
			 "cosmo_cavitation_energy": 34.1, 
			 "cosmo_dispersion_energy": -24.97, 
			 "cosmo_repulsion_energy": 1.91, 
			 "cosmo_total_nonelectrostatic_energy": 11.03, 
			 "SMD_solvation_energy": 6.66 
		},
		"coords": [
			{
				"x": 4.2738986814,
				"y": 0.2347480891,
				"z": -3.982161189,
				"element": "O" 
			},
			{
				"x": 4.156357876,
				"y": -1.0958133659,
				"z": -3.9061074071,
				"element": "C" 
			},
			{
				"x": 4.2586064731,
				"y": -1.8179196076,
				"z": -4.8692247939,
				"element": "O" 
			},
			{
				"x": 3.9127422697,
				"y": -1.6587075153,
				"z": -2.4901183981,
				"element": "C" 
			},
			{
				"x": 2.7033988594,
				"y": -1.1633152087,
				"z": -1.8350452595,
				"element": "N" 
			},
			{
				"x": 2.6261019932,
				"y": 0.0956577616,
				"z": -1.3282758899,
				"element": "C" 
			},
			{
				"x": 3.5357108202,
				"y": 0.9187263753,
				"z": -1.4661097393,
				"element": "O" 
			},
			{
				"x": 1.3737930206,
				"y": 0.4009149171,
				"z": -0.5750113696,
				"element": "C" 
			},
			{
				"x": 0.9656746408,
				"y": 1.6531562142,
				"z": -0.5003367528,
				"element": "N" 
			},
			{
				"x": -0.1984582781,
				"y": 1.6081783359,
				"z": 0.2461380596,
				"element": "O" 
			},
			{
				"x": -0.4752779434,
				"y": 0.3332910946,
				"z": 0.617584512,
				"element": "C" 
			},
			{
				"x": 0.5002332176,
				"y": -0.4868671558,
				"z": 0.11261542,
				"element": "C" 
			},
			{
				"x": -1.669213709,
				"y": 0.1098048094,
				"z": 1.4287539897,
				"element": "C" 
			},
			{
				"x": -2.4773394125,
				"y": 1.1899790549,
				"z": 1.8227842727,
				"element": "C" 
			},
			{
				"x": -3.6139263803,
				"y": 0.9670358301,
				"z": 2.5962151437,
				"element": "C" 
			},
			{
				"x": -3.9585306256,
				"y": -0.3288052721,
				"z": 2.9864311998,
				"element": "C" 
			},
			{
				"x": -3.1589589415,
				"y": -1.4069381383,
				"z": 2.5981243581,
				"element": "C" 
			},
			{
				"x": -2.0222446556,
				"y": -1.1916551742,
				"z": 1.8243922916,
				"element": "C" 
			},
			{
				"x": 4.1661318798,
				"y": 0.6403421361,
				"z": -3.0881309901,
				"element": "H" 
			},
			{
				"x": 3.8437554884,
				"y": -2.7425184807,
				"z": -2.5740382582,
				"element": "H" 
			},
			{
				"x": 4.7709432304,
				"y": -1.4032604845,
				"z": -1.8578992775,
				"element": "H" 
			},
			{
				"x": 1.8692017787,
				"y": -1.7302620474,
				"z": -1.8731962711,
				"element": "H" 
			},
			{
				"x": 0.6056295348,
				"y": -1.5515429095,
				"z": 0.2497334623,
				"element": "H" 
			},
			{
				"x": -2.2089648004,
				"y": 2.1962232628,
				"z": 1.5207494171,
				"element": "H" 
			},
			{
				"x": -4.2316851843,
				"y": 1.8082891114,
				"z": 2.8954281776,
				"element": "H" 
			},
			{
				"x": -4.8452078409,
				"y": -0.4987203726,
				"z": 3.5897349788,
				"element": "H" 
			},
			{
				"x": -3.4218847588,
				"y": -2.4167902051,
				"z": 2.8980842217,
				"element": "H" 
			},
			{
				"x": -1.4079872335,
				"y": -2.0357310547,
				"z": 1.5258860913,
				"element": "H" 
			}
		],
		 "valence_orbital": [ 
			{
				"type": "occ",
				"energy": -0.3032,
				"method": "rhf"
			},
			{
				"type": "occ",
				"energy": -0.29057,
				"method": "rhf"
			},
			{
				"type": "occ",
				"energy": -0.27615,
				"method": "rhf"
			},
			{
				"type": "occ",
				"energy": -0.2582,
				"method": "rhf"
			},
			{
				"type": "occ",
				"energy": -0.2517,
				"method": "rhf"
			},
			{
				"type": "unocc",
				"energy": -0.07298,
				"method": "rhf"
			},
			{
				"type": "unocc",
				"energy": -0.04902,
				"method": "rhf"
			},
			{
				"type": "unocc",
				"energy": -0.02487,
				"method": "rhf"
			},
			{
				"type": "unocc",
				"energy": 0.00703,
				"method": "rhf"
			},
			{
				"type": "unocc",
				"energy": 0.03011,
				"method": "rhf"
			}
		],
		"cosmo_sigma_profile": { 
			"-0.025": 0.0,
			"-0.024": 0.0,
			"-0.023": 0.0,
			"-0.022": 0.0,
			"-0.021": 0.0,
			"-0.02": 0.0,
			"-0.019": 0.0,
			"-0.018": 0.0,
			"-0.017": 0.205693449363,
			"-0.016": 1.34866044945,
			"-0.015": 1.68887460192,
			"-0.014": 1.26608830186,
			"-0.013": 1.7792780548,
			"-0.012": 2.05066597064,
			"-0.011": 2.03458076716,
			"-0.01": 3.40349568557,
			"-0.009": 5.557772702,
			"-0.008": 7.48550374553,
			"-0.007": 8.59643388127,
			"-0.006": 16.0246527849,
			"-0.005": 20.4108591176,
			"-0.004": 18.7682817484,
			"-0.003": 13.5134005866,
			"-0.002": 13.9316306606,
			"-0.001": 19.4426054412,
			"0.0": 18.8089709828,
			"0.001": 14.8727513483,
			"0.002": 12.5083421624,
			"0.003": 14.4619893814,
			"0.004": 15.6078424368,
			"0.005": 5.88269729841,
			"0.006": 7.94490137133,
			"0.007": 5.33911014997,
			"0.008": 4.31861981966,
			"0.009": 5.89921247461,
			"0.01": 7.74607547048,
			"0.011": 9.4022275782,
			"0.012": 9.17203929926,
			"0.013": 4.41962171124,
			"0.014": 0.110609106177,
			"0.015": 0.0,
			"0.016": 0.0,
			"0.017": 0.0,
			"0.018": 0.0,
			"0.019": 0.0,
			"0.02": 0.0,
			"0.021": 0.0,
			"0.022": 0.0,
			"0.023": 0.0,
			"0.024": 0.0,
			"0.025": 0.0
		}
	}
}
