{
	 "smiles": "[O-][N+](=O)C1=CC=CC=C1C=CC(=O)C1=CC=CC=C1", 
	 "Tm": 399.15, 
	 "num_atms": 30, 
	 "gaussian": { 
		 "optdone": 1, 
		 "sigma_profile": "yes", 
		 "theory": "DFT", 
		 "functional": "B3LYP", 
		 "basiset": "6-31G**", 
		 "properties": { 
			 "R2extent": 6271.7728, 
			 "electric_dipole_moment_norm": 4.42797792903, 
			 "electric_quadrupole_moment_norm": 26.8169343431, 
			 "total_energy": -858.526818376, 
			 "HOMO_LUMO_gap": 0.14779, 
			 "cosmo_polarized_energy": -14.91, 
			 "cosmo_cavitation_energy": 35.93, 
			 "cosmo_dispersion_energy": -25.27, 
			 "cosmo_repulsion_energy": 1.94, 
			 "cosmo_total_nonelectrostatic_energy": 12.61, 
			 "SMD_solvation_energy": 8.68 
		},
		"coords": [
			{
				"x": -1.604895722,
				"y": -0.9784396949,
				"z": -1.1192851514,
				"element": "O" 
			},
			{
				"x": -1.4290557951,
				"y": -0.3370608557,
				"z": -2.1560362261,
				"element": "N" 
			},
			{
				"x": -1.8162250774,
				"y": -0.6962926739,
				"z": -3.2674659882,
				"element": "O" 
			},
			{
				"x": -0.7257010668,
				"y": 0.9560161987,
				"z": -2.0667312482,
				"element": "C" 
			},
			{
				"x": -0.9291719712,
				"y": 1.8364385801,
				"z": -3.1301733174,
				"element": "C" 
			},
			{
				"x": -0.3447154466,
				"y": 3.0975264084,
				"z": -3.1049749404,
				"element": "C" 
			},
			{
				"x": 0.4559633284,
				"y": 3.4603098854,
				"z": -2.0194065593,
				"element": "C" 
			},
			{
				"x": 0.6683721146,
				"y": 2.5654254987,
				"z": -0.9755016558,
				"element": "C" 
			},
			{
				"x": 0.076495015,
				"y": 1.2877687424,
				"z": -0.9522863886,
				"element": "C" 
			},
			{
				"x": 0.3763211106,
				"y": 0.3725054112,
				"z": 0.1633982645,
				"element": "C" 
			},
			{
				"x": 0.5946723432,
				"y": 0.7861405247,
				"z": 1.4262464586,
				"element": "C" 
			},
			{
				"x": 0.8337691238,
				"y": -0.0960233652,
				"z": 2.6003772248,
				"element": "C" 
			},
			{
				"x": 0.5095583002,
				"y": 0.3154929368,
				"z": 3.7106501694,
				"element": "O" 
			},
			{
				"x": 1.4345771745,
				"y": -1.4607169871,
				"z": 2.4444288786,
				"element": "C" 
			},
			{
				"x": 1.111160441,
				"y": -2.4278508892,
				"z": 3.409875926,
				"element": "C" 
			},
			{
				"x": 1.6624355457,
				"y": -3.7035715628,
				"z": 3.3426045631,
				"element": "C" 
			},
			{
				"x": 2.5653871766,
				"y": -4.0228984355,
				"z": 2.3235270017,
				"element": "C" 
			},
			{
				"x": 2.9147299543,
				"y": -3.0605568395,
				"z": 1.3751657209,
				"element": "C" 
			},
			{
				"x": 2.3492484244,
				"y": -1.7859563723,
				"z": 1.4307645349,
				"element": "C" 
			},
			{
				"x": -1.5531543611,
				"y": 1.5152480556,
				"z": -3.9543811508,
				"element": "H" 
			},
			{
				"x": -0.510035193,
				"y": 3.7874990409,
				"z": -3.9259208247,
				"element": "H" 
			},
			{
				"x": 0.9289309826,
				"y": 4.4372768388,
				"z": -1.9920962462,
				"element": "H" 
			},
			{
				"x": 1.3302869191,
				"y": 2.839731132,
				"z": -0.1612879845,
				"element": "H" 
			},
			{
				"x": 0.3965143809,
				"y": -0.6870548602,
				"z": -0.058607846,
				"element": "H" 
			},
			{
				"x": 0.455942018,
				"y": 1.8282889252,
				"z": 1.7041065251,
				"element": "H" 
			},
			{
				"x": 0.4237682268,
				"y": -2.1542456049,
				"z": 4.2033322727,
				"element": "H" 
			},
			{
				"x": 1.3944901484,
				"y": -4.4495365365,
				"z": 4.0851397931,
				"element": "H" 
			},
			{
				"x": 2.9999176832,
				"y": -5.0172516962,
				"z": 2.2738244101,
				"element": "H" 
			},
			{
				"x": 3.63013083,
				"y": -3.2999031547,
				"z": 0.5938219665,
				"element": "H" 
			},
			{
				"x": 2.642683392,
				"y": -1.03560865,
				"z": 0.7044918177,
				"element": "H" 
			}
		],
		 "valence_orbital": [ 
			{
				"type": "occ",
				"energy": -0.28462,
				"method": "rhf"
			},
			{
				"type": "occ",
				"energy": -0.26147,
				"method": "rhf"
			},
			{
				"type": "occ",
				"energy": -0.26104,
				"method": "rhf"
			},
			{
				"type": "occ",
				"energy": -0.2583,
				"method": "rhf"
			},
			{
				"type": "occ",
				"energy": -0.24709,
				"method": "rhf"
			},
			{
				"type": "unocc",
				"energy": -0.0993,
				"method": "rhf"
			},
			{
				"type": "unocc",
				"energy": -0.07332,
				"method": "rhf"
			},
			{
				"type": "unocc",
				"energy": -0.03564,
				"method": "rhf"
			},
			{
				"type": "unocc",
				"energy": -0.01477,
				"method": "rhf"
			},
			{
				"type": "unocc",
				"energy": -0.01013,
				"method": "rhf"
			}
		],
		"cosmo_sigma_profile": { 
			"-0.025": 0.0,
			"-0.024": 0.0,
			"-0.023": 0.0,
			"-0.022": 0.0,
			"-0.021": 0.0,
			"-0.02": 0.0,
			"-0.019": 0.0,
			"-0.018": 0.0,
			"-0.017": 0.0,
			"-0.016": 0.0,
			"-0.015": 0.0,
			"-0.014": 0.0,
			"-0.013": 0.0,
			"-0.012": 0.0,
			"-0.011": 0.0,
			"-0.01": 0.0120592998546,
			"-0.009": 0.54210680186,
			"-0.008": 4.89808746694,
			"-0.007": 13.3566981794,
			"-0.006": 20.4255731803,
			"-0.005": 22.7694976774,
			"-0.004": 20.5799720503,
			"-0.003": 18.7548161055,
			"-0.002": 20.8914567391,
			"-0.001": 21.5749015613,
			"0.0": 22.6738402537,
			"0.001": 22.4574607824,
			"0.002": 21.6338433714,
			"0.003": 13.4114422245,
			"0.004": 15.9240832654,
			"0.005": 6.82020280704,
			"0.006": 6.53874819551,
			"0.007": 9.53493931032,
			"0.008": 7.53369544839,
			"0.009": 5.29018642951,
			"0.01": 4.32225619214,
			"0.011": 2.85274110893,
			"0.012": 4.43175276732,
			"0.013": 2.06653177637,
			"0.014": 0.166668877115,
			"0.015": 0.0,
			"0.016": 0.0,
			"0.017": 0.0,
			"0.018": 0.0,
			"0.019": 0.0,
			"0.02": 0.0,
			"0.021": 0.0,
			"0.022": 0.0,
			"0.023": 0.0,
			"0.024": 0.0,
			"0.025": 0.0
		}
	}
}
