{
	 "smiles": "NC(=O)CN(CC1=CC=CC=C1)C1=CC(N)=CC=C1", 
	 "Tm": 443.15, 
	 "num_atms": 36, 
	 "gaussian": { 
		 "optdone": 1, 
		 "sigma_profile": "yes", 
		 "theory": "DFT", 
		 "functional": "B3LYP", 
		 "basiset": "6-31G**", 
		 "properties": { 
			 "R2extent": 5916.4377, 
			 "electric_dipole_moment_norm": 2.87524168202, 
			 "electric_quadrupole_moment_norm": 15.4010476761, 
			 "total_energy": -821.334118496, 
			 "HOMO_LUMO_gap": 0.17867, 
			 "cosmo_polarized_energy": -18.71, 
			 "cosmo_cavitation_energy": 38.3, 
			 "cosmo_dispersion_energy": -26.66, 
			 "cosmo_repulsion_energy": 2.07, 
			 "cosmo_total_nonelectrostatic_energy": 13.71, 
			 "SMD_solvation_energy": 7.09 
		},
		"coords": [
			{
				"x": 1.9866933166,
				"y": 0.4350758558,
				"z": 1.8679314914,
				"element": "N" 
			},
			{
				"x": 2.8524743478,
				"y": 1.0744200963,
				"z": 1.0295521661,
				"element": "C" 
			},
			{
				"x": 3.9990766458,
				"y": 1.371771342,
				"z": 1.3312843896,
				"element": "O" 
			},
			{
				"x": 2.2631543042,
				"y": 1.4958188007,
				"z": -0.3285291309,
				"element": "C" 
			},
			{
				"x": 1.1144567531,
				"y": 0.7249391241,
				"z": -0.7807930533,
				"element": "N" 
			},
			{
				"x": -0.0266546643,
				"y": 1.4697240053,
				"z": -1.3311326305,
				"element": "C" 
			},
			{
				"x": -1.3367783255,
				"y": 1.3442252719,
				"z": -0.5630741011,
				"element": "C" 
			},
			{
				"x": -1.380209788,
				"y": 1.4794071011,
				"z": 0.8311169889,
				"element": "C" 
			},
			{
				"x": -2.5948626025,
				"y": 1.417077858,
				"z": 1.5142371351,
				"element": "C" 
			},
			{
				"x": -3.7880304067,
				"y": 1.2245769896,
				"z": 0.8134615648,
				"element": "C" 
			},
			{
				"x": -3.7568549052,
				"y": 1.0959079206,
				"z": -0.5751807766,
				"element": "C" 
			},
			{
				"x": -2.5385553634,
				"y": 1.1555879051,
				"z": -1.2555208897,
				"element": "C" 
			},
			{
				"x": 1.3378400835,
				"y": -0.5893769661,
				"z": -1.2479689606,
				"element": "C" 
			},
			{
				"x": 2.6163698035,
				"y": -1.1720615775,
				"z": -1.181551327,
				"element": "C" 
			},
			{
				"x": 2.8421759972,
				"y": -2.4830994114,
				"z": -1.6303489916,
				"element": "C" 
			},
			{
				"x": 4.1355479276,
				"y": -3.0093003307,
				"z": -1.6127011439,
				"element": "N" 
			},
			{
				"x": 1.773958319,
				"y": -3.2310287478,
				"z": -2.1506124331,
				"element": "C" 
			},
			{
				"x": 0.5085761748,
				"y": -2.6552368992,
				"z": -2.2062467951,
				"element": "C" 
			},
			{
				"x": 0.2716940121,
				"y": -1.3558379743,
				"z": -1.7633923746,
				"element": "C" 
			},
			{
				"x": 2.3699848763,
				"y": 0.0570440046,
				"z": 2.7216191664,
				"element": "H" 
			},
			{
				"x": 1.14961863,
				"y": 0.021771061,
				"z": 1.4836666208,
				"element": "H" 
			},
			{
				"x": 3.0968916276,
				"y": 1.4956132733,
				"z": -1.0435831277,
				"element": "H" 
			},
			{
				"x": 1.9537998636,
				"y": 2.5379452615,
				"z": -0.2076486719,
				"element": "H" 
			},
			{
				"x": 0.2566900626,
				"y": 2.5278323025,
				"z": -1.3578818898,
				"element": "H" 
			},
			{
				"x": -0.1934364036,
				"y": 1.1735739727,
				"z": -2.3742874313,
				"element": "H" 
			},
			{
				"x": -0.4592580555,
				"y": 1.6363281391,
				"z": 1.3854985019,
				"element": "H" 
			},
			{
				"x": -2.610748239,
				"y": 1.5234356503,
				"z": 2.5954501929,
				"element": "H" 
			},
			{
				"x": -4.7331258357,
				"y": 1.1752356574,
				"z": 1.3464572772,
				"element": "H" 
			},
			{
				"x": -4.6782628168,
				"y": 0.9436202964,
				"z": -1.1302018525,
				"element": "H" 
			},
			{
				"x": -2.5206525435,
				"y": 1.0509058578,
				"z": -2.3381982374,
				"element": "H" 
			},
			{
				"x": 3.463092713,
				"y": -0.6181086935,
				"z": -0.7930806482,
				"element": "H" 
			},
			{
				"x": 4.7623938139,
				"y": -2.5919853348,
				"z": -0.9383797629,
				"element": "H" 
			},
			{
				"x": 4.1867974952,
				"y": -4.0184265033,
				"z": -1.6030149667,
				"element": "H" 
			},
			{
				"x": 1.9396207181,
				"y": -4.2451963495,
				"z": -2.5034101895,
				"element": "H" 
			},
			{
				"x": -0.3226415089,
				"y": -3.2360294853,
				"z": -2.5974083655,
				"element": "H" 
			},
			{
				"x": -0.7343360269,
				"y": -0.9585494738,
				"z": -1.7875277434,
				"element": "H" 
			}
		],
		 "valence_orbital": [ 
			{
				"type": "occ",
				"energy": -0.25457,
				"method": "rhf"
			},
			{
				"type": "occ",
				"energy": -0.24834,
				"method": "rhf"
			},
			{
				"type": "occ",
				"energy": -0.24702,
				"method": "rhf"
			},
			{
				"type": "occ",
				"energy": -0.2082,
				"method": "rhf"
			},
			{
				"type": "occ",
				"energy": -0.18952,
				"method": "rhf"
			},
			{
				"type": "unocc",
				"energy": -0.01085,
				"method": "rhf"
			},
			{
				"type": "unocc",
				"energy": -0.00665,
				"method": "rhf"
			},
			{
				"type": "unocc",
				"energy": 0.01167,
				"method": "rhf"
			},
			{
				"type": "unocc",
				"energy": 0.02419,
				"method": "rhf"
			},
			{
				"type": "unocc",
				"energy": 0.03148,
				"method": "rhf"
			}
		],
		"cosmo_sigma_profile": { 
			"-0.025": 0.0,
			"-0.024": 0.0,
			"-0.023": 0.0,
			"-0.022": 0.0,
			"-0.021": 0.0,
			"-0.02": 0.0,
			"-0.019": 0.0,
			"-0.018": 0.0,
			"-0.017": 0.0,
			"-0.016": 0.0,
			"-0.015": 0.0,
			"-0.014": 0.602923114257,
			"-0.013": 1.52486546995,
			"-0.012": 2.70673256983,
			"-0.011": 4.42973526745,
			"-0.01": 4.13280135573,
			"-0.009": 5.19458869268,
			"-0.008": 7.52440458772,
			"-0.007": 7.77969571108,
			"-0.006": 11.2020541468,
			"-0.005": 22.0104154353,
			"-0.004": 23.7797271803,
			"-0.003": 27.3379588122,
			"-0.002": 21.0049258565,
			"-0.001": 17.8428419057,
			"0.0": 15.3285769706,
			"0.001": 15.1586065455,
			"0.002": 14.1201518739,
			"0.003": 15.4574659903,
			"0.004": 16.3538577048,
			"0.005": 15.1179414738,
			"0.006": 15.8807994158,
			"0.007": 11.2817633329,
			"0.008": 6.46008633624,
			"0.009": 2.54264740606,
			"0.01": 1.58334336973,
			"0.011": 2.56923830653,
			"0.012": 1.91220005365,
			"0.013": 4.73709662013,
			"0.014": 6.1651593388,
			"0.015": 1.7582986738,
			"0.016": 0.0,
			"0.017": 0.0,
			"0.018": 0.0,
			"0.019": 0.0,
			"0.02": 0.0,
			"0.021": 0.0,
			"0.022": 0.0,
			"0.023": 0.0,
			"0.024": 0.0,
			"0.025": 0.0
		}
	}
}
