{
	 "smiles": "CC1=C(NS(C)(=O)=O)C=C(N)C=C1", 
	 "Tm": 444.15, 
	 "num_atms": 25, 
	 "gaussian": { 
		 "optdone": 1, 
		 "sigma_profile": "yes", 
		 "theory": "DFT", 
		 "functional": "B3LYP", 
		 "basiset": "6-31G**", 
		 "properties": { 
			 "R2extent": 2985.4973, 
			 "electric_dipole_moment_norm": 6.20082682309, 
			 "electric_quadrupole_moment_norm": 15.8520629557, 
			 "total_energy": -970.163514537, 
			 "HOMO_LUMO_gap": 0.19004, 
			 "cosmo_polarized_energy": -21.08, 
			 "cosmo_cavitation_energy": 29.29, 
			 "cosmo_dispersion_energy": -21.51, 
			 "cosmo_repulsion_energy": 1.66, 
			 "cosmo_total_nonelectrostatic_energy": 9.44, 
			 "SMD_solvation_energy": 4.67 
		},
		"coords": [
			{
				"x": -2.4196227611,
				"y": -0.0773330813,
				"z": 0.6562189189,
				"element": "C" 
			},
			{
				"x": -1.4099504734,
				"y": 0.1285119945,
				"z": -0.4448870215,
				"element": "C" 
			},
			{
				"x": -0.0403239342,
				"y": -0.1481798375,
				"z": -0.2821355544,
				"element": "C" 
			},
			{
				"x": 0.4427569835,
				"y": -0.6524702675,
				"z": 0.9745465289,
				"element": "N" 
			},
			{
				"x": 0.8588777526,
				"y": 0.3812359417,
				"z": 2.2511682463,
				"element": "S" 
			},
			{
				"x": 2.1735106309,
				"y": 1.453409994,
				"z": 1.6247010743,
				"element": "C" 
			},
			{
				"x": -0.2862647606,
				"y": 1.244991209,
				"z": 2.5302713338,
				"element": "O" 
			},
			{
				"x": 1.4391072014,
				"y": -0.4953290729,
				"z": 3.2690119262,
				"element": "O" 
			},
			{
				"x": 0.8659723433,
				"y": 0.0019421574,
				"z": -1.3401264966,
				"element": "C" 
			},
			{
				"x": 0.4422554214,
				"y": 0.4383912332,
				"z": -2.6028142222,
				"element": "C" 
			},
			{
				"x": 1.3341658461,
				"y": 0.5149570824,
				"z": -3.6754069322,
				"element": "N" 
			},
			{
				"x": -0.9189889723,
				"y": 0.7412133058,
				"z": -2.7679961337,
				"element": "C" 
			},
			{
				"x": -1.807685014,
				"y": 0.5841567518,
				"z": -1.7100493033,
				"element": "C" 
			},
			{
				"x": -2.204098704,
				"y": -0.9905242361,
				"z": 1.2182629197,
				"element": "H" 
			},
			{
				"x": -2.4017927299,
				"y": 0.7435292551,
				"z": 1.3783965458,
				"element": "H" 
			},
			{
				"x": -3.4277778908,
				"y": -0.1528130341,
				"z": 0.2385990735,
				"element": "H" 
			},
			{
				"x": 1.1390878594,
				"y": -1.3889161453,
				"z": 0.9049596448,
				"element": "H" 
			},
			{
				"x": 2.3955521759,
				"y": 2.1702281979,
				"z": 2.4170681912,
				"element": "H" 
			},
			{
				"x": 3.055061589,
				"y": 0.8497781101,
				"z": 1.404077492,
				"element": "H" 
			},
			{
				"x": 1.8153923881,
				"y": 1.971061922,
				"z": 0.7342028541,
				"element": "H" 
			},
			{
				"x": 1.9143899103,
				"y": -0.2414226031,
				"z": -1.1800263388,
				"element": "H" 
			},
			{
				"x": 1.0591829658,
				"y": 1.1476244596,
				"z": -4.414205466,
				"element": "H" 
			},
			{
				"x": 2.3051851712,
				"y": 0.6359004782,
				"z": -3.422453443,
				"element": "H" 
			},
			{
				"x": -1.2805933059,
				"y": 1.0815607881,
				"z": -3.7351141205,
				"element": "H" 
			},
			{
				"x": -2.8588996927,
				"y": 0.807095397,
				"z": -1.8734697172,
				"element": "H" 
			}
		],
		 "valence_orbital": [ 
			{
				"type": "occ",
				"energy": -0.2992,
				"method": "rhf"
			},
			{
				"type": "occ",
				"energy": -0.2967,
				"method": "rhf"
			},
			{
				"type": "occ",
				"energy": -0.28987,
				"method": "rhf"
			},
			{
				"type": "occ",
				"energy": -0.24818,
				"method": "rhf"
			},
			{
				"type": "occ",
				"energy": -0.20687,
				"method": "rhf"
			},
			{
				"type": "unocc",
				"energy": -0.01683,
				"method": "rhf"
			},
			{
				"type": "unocc",
				"energy": 0.00803,
				"method": "rhf"
			},
			{
				"type": "unocc",
				"energy": 0.06165,
				"method": "rhf"
			},
			{
				"type": "unocc",
				"energy": 0.07181,
				"method": "rhf"
			},
			{
				"type": "unocc",
				"energy": 0.08021,
				"method": "rhf"
			}
		],
		"cosmo_sigma_profile": { 
			"-0.025": 0.0,
			"-0.024": 0.0,
			"-0.023": 0.0,
			"-0.022": 0.0,
			"-0.021": 0.0,
			"-0.02": 0.0,
			"-0.019": 0.0,
			"-0.018": 0.0,
			"-0.017": 0.0,
			"-0.016": 0.0,
			"-0.015": 0.640807416499,
			"-0.014": 1.24219436197,
			"-0.013": 2.07113429135,
			"-0.012": 3.28810731725,
			"-0.011": 4.40925503172,
			"-0.01": 4.77837882007,
			"-0.009": 5.63930451669,
			"-0.008": 8.9282194572,
			"-0.007": 9.39820560725,
			"-0.006": 10.2032153107,
			"-0.005": 11.7150921514,
			"-0.004": 15.8471313839,
			"-0.003": 13.0342706491,
			"-0.002": 10.2953105538,
			"-0.001": 11.4480528901,
			"0.0": 11.1154207695,
			"0.001": 13.6876381783,
			"0.002": 9.12651707716,
			"0.003": 10.2940358321,
			"0.004": 10.7297038392,
			"0.005": 12.3284457184,
			"0.006": 11.0471821829,
			"0.007": 5.99803337017,
			"0.008": 4.90997598094,
			"0.009": 4.5144493022,
			"0.01": 5.52950303416,
			"0.011": 10.9371006384,
			"0.012": 5.90530946348,
			"0.013": 1.28105673858,
			"0.014": 0.481037305784,
			"0.015": 0.209943240946,
			"0.016": 0.0,
			"0.017": 0.0,
			"0.018": 0.0,
			"0.019": 0.0,
			"0.02": 0.0,
			"0.021": 0.0,
			"0.022": 0.0,
			"0.023": 0.0,
			"0.024": 0.0,
			"0.025": 0.0
		}
	}
}
