{
	 "smiles": "CCC(NC(N)=O)C(O)=O", 
	 "Tm": 448.15, 
	 "num_atms": 20, 
	 "gaussian": { 
		 "optdone": 1, 
		 "sigma_profile": "yes", 
		 "theory": "DFT", 
		 "functional": "B3LYP", 
		 "basiset": "6-31G**", 
		 "properties": { 
			 "R2extent": 1701.3225, 
			 "electric_dipole_moment_norm": 4.33064890403, 
			 "electric_quadrupole_moment_norm": 6.90573918708, 
			 "total_energy": -531.778894231, 
			 "HOMO_LUMO_gap": 0.22614, 
			 "cosmo_polarized_energy": -16.58, 
			 "cosmo_cavitation_energy": 23.34, 
			 "cosmo_dispersion_energy": -16.94, 
			 "cosmo_repulsion_energy": 1.41, 
			 "cosmo_total_nonelectrostatic_energy": 7.81, 
			 "SMD_solvation_energy": 5.44 
		},
		"coords": [
			{
				"x": -0.5645997453,
				"y": -2.0474223323,
				"z": 0.7515609522,
				"element": "C" 
			},
			{
				"x": -0.3360796122,
				"y": -0.6913766531,
				"z": 1.4243591462,
				"element": "C" 
			},
			{
				"x": -0.9969511028,
				"y": 0.4758163258,
				"z": 0.6427078968,
				"element": "C" 
			},
			{
				"x": -0.5400051638,
				"y": 0.6473171635,
				"z": -0.7346757775,
				"element": "N" 
			},
			{
				"x": 0.7747904077,
				"y": 0.6003751041,
				"z": -1.2144489541,
				"element": "C" 
			},
			{
				"x": 1.7435035381,
				"y": 1.0543358571,
				"z": -0.3479449589,
				"element": "N" 
			},
			{
				"x": 1.009821074,
				"y": 0.1787195602,
				"z": -2.3402210702,
				"element": "O" 
			},
			{
				"x": -0.8770848365,
				"y": 1.7621509267,
				"z": 1.458248891,
				"element": "C" 
			},
			{
				"x": -1.8881996056,
				"y": 1.8745640826,
				"z": 2.3438550078,
				"element": "O" 
			},
			{
				"x": 0.0158598913,
				"y": 2.583894977,
				"z": 1.3910089884,
				"element": "O" 
			},
			{
				"x": -0.0963370266,
				"y": -2.8466127065,
				"z": 1.3338160696,
				"element": "H" 
			},
			{
				"x": -0.1333015929,
				"y": -2.0717850732,
				"z": -0.2532806071,
				"element": "H" 
			},
			{
				"x": -1.6333095598,
				"y": -2.2777328982,
				"z": 0.6694197361,
				"element": "H" 
			},
			{
				"x": 0.735784963,
				"y": -0.4914025037,
				"z": 1.5144603899,
				"element": "H" 
			},
			{
				"x": -0.7555918203,
				"y": -0.6968355354,
				"z": 2.437350309,
				"element": "H" 
			},
			{
				"x": -2.068423152,
				"y": 0.2628795431,
				"z": 0.5769697232,
				"element": "H" 
			},
			{
				"x": -1.1525826762,
				"y": 0.2405502196,
				"z": -1.4275893249,
				"element": "H" 
			},
			{
				"x": 1.4656824806,
				"y": 1.7767402217,
				"z": 0.3096062093,
				"element": "H" 
			},
			{
				"x": 2.6414833023,
				"y": 1.1685495958,
				"z": -0.7952662458,
				"element": "H" 
			},
			{
				"x": -1.7166597629,
				"y": 2.6791741253,
				"z": 2.863063619,
				"element": "H" 
			}
		],
		 "valence_orbital": [ 
			{
				"type": "occ",
				"energy": -0.33913,
				"method": "rhf"
			},
			{
				"type": "occ",
				"energy": -0.30039,
				"method": "rhf"
			},
			{
				"type": "occ",
				"energy": -0.261,
				"method": "rhf"
			},
			{
				"type": "occ",
				"energy": -0.25769,
				"method": "rhf"
			},
			{
				"type": "occ",
				"energy": -0.23925,
				"method": "rhf"
			},
			{
				"type": "unocc",
				"energy": -0.01311,
				"method": "rhf"
			},
			{
				"type": "unocc",
				"energy": 0.05743,
				"method": "rhf"
			},
			{
				"type": "unocc",
				"energy": 0.06156,
				"method": "rhf"
			},
			{
				"type": "unocc",
				"energy": 0.06879,
				"method": "rhf"
			},
			{
				"type": "unocc",
				"energy": 0.11653,
				"method": "rhf"
			}
		],
		"cosmo_sigma_profile": { 
			"-0.025": 0.0,
			"-0.024": 0.0,
			"-0.023": 0.0,
			"-0.022": 0.0,
			"-0.021": 0.0,
			"-0.02": 0.0,
			"-0.019": 0.322910754882,
			"-0.018": 1.09190500598,
			"-0.017": 0.505243902536,
			"-0.016": 1.61203637964,
			"-0.015": 0.577104589907,
			"-0.014": 0.19884217202,
			"-0.013": 2.36522011218,
			"-0.012": 3.20199496712,
			"-0.011": 2.98161785231,
			"-0.01": 3.13191641694,
			"-0.009": 2.76778266562,
			"-0.008": 4.07951987742,
			"-0.007": 4.73320149914,
			"-0.006": 4.70085873278,
			"-0.005": 4.87585891907,
			"-0.004": 9.98134444982,
			"-0.003": 14.3140910118,
			"-0.002": 15.8576610185,
			"-0.001": 17.7667615652,
			"0.0": 14.62722046,
			"0.001": 11.2594323791,
			"0.002": 4.94997983197,
			"0.003": 6.59620729435,
			"0.004": 6.43277558238,
			"0.005": 4.59359561926,
			"0.006": 6.04004242949,
			"0.007": 5.29024643325,
			"0.008": 4.61965525738,
			"0.009": 3.77617772694,
			"0.01": 2.80829795634,
			"0.011": 2.61400734721,
			"0.012": 1.74403142852,
			"0.013": 1.88839305944,
			"0.014": 5.67099723759,
			"0.015": 4.04494808771,
			"0.016": 0.130379584102,
			"0.017": 0.0,
			"0.018": 0.0,
			"0.019": 0.0,
			"0.02": 0.0,
			"0.021": 0.0,
			"0.022": 0.0,
			"0.023": 0.0,
			"0.024": 0.0,
			"0.025": 0.0
		}
	}
}
