{
	 "smiles": "[O-][N+](=O)C1=CC=C(OC(=O)C2=CC=CC=C2)C=C1", 
	 "Tm": 414.15, 
	 "num_atms": 27, 
	 "gaussian": { 
		 "optdone": 1, 
		 "sigma_profile": "yes", 
		 "theory": "DFT", 
		 "functional": "B3LYP", 
		 "basiset": "6-31G**", 
		 "properties": { 
			 "R2extent": 7143.5022, 
			 "electric_dipole_moment_norm": 6.68331956516, 
			 "electric_quadrupole_moment_norm": 15.0736493839, 
			 "total_energy": -856.364950806, 
			 "HOMO_LUMO_gap": 0.177, 
			 "cosmo_polarized_energy": -11.32, 
			 "cosmo_cavitation_energy": 33.48, 
			 "cosmo_dispersion_energy": -24.32, 
			 "cosmo_repulsion_energy": 1.84, 
			 "cosmo_total_nonelectrostatic_energy": 11.0, 
			 "SMD_solvation_energy": 8.96 
		},
		"coords": [
			{
				"x": -5.4752084971,
				"y": -2.6456216375,
				"z": 0.8742236813,
				"element": "O" 
			},
			{
				"x": -4.4425224525,
				"y": -3.2153549058,
				"z": 0.5218776983,
				"element": "N" 
			},
			{
				"x": -4.3365145784,
				"y": -4.429605052,
				"z": 0.3473259604,
				"element": "O" 
			},
			{
				"x": -3.2515585099,
				"y": -2.3881721848,
				"z": 0.2915037278,
				"element": "C" 
			},
			{
				"x": -2.0660515608,
				"y": -3.0047928599,
				"z": -0.1067171731,
				"element": "C" 
			},
			{
				"x": -0.9435595168,
				"y": -2.2153577268,
				"z": -0.3221806241,
				"element": "C" 
			},
			{
				"x": -1.0198595423,
				"y": -0.8306080305,
				"z": -0.1388816972,
				"element": "C" 
			},
			{
				"x": 0.1346657021,
				"y": -0.1353154808,
				"z": -0.4526993324,
				"element": "O" 
			},
			{
				"x": 0.5301544783,
				"y": 0.9882817371,
				"z": 0.2417047655,
				"element": "C" 
			},
			{
				"x": -0.0759833999,
				"y": 1.4384096039,
				"z": 1.1867776843,
				"element": "O" 
			},
			{
				"x": 1.7857906849,
				"y": 1.5513493592,
				"z": -0.3167568339,
				"element": "C" 
			},
			{
				"x": 2.4369331148,
				"y": 0.9989113925,
				"z": -1.4298257371,
				"element": "C" 
			},
			{
				"x": 3.6106444521,
				"y": 1.5809317498,
				"z": -1.9045238393,
				"element": "C" 
			},
			{
				"x": 4.1388082171,
				"y": 2.7101656957,
				"z": -1.2736851953,
				"element": "C" 
			},
			{
				"x": 3.4920752246,
				"y": 3.261867024,
				"z": -0.1641358292,
				"element": "C" 
			},
			{
				"x": 2.3185688493,
				"y": 2.6858697283,
				"z": 0.3137444863,
				"element": "C" 
			},
			{
				"x": -2.2145964162,
				"y": -0.2171173729,
				"z": 0.2553486019,
				"element": "C" 
			},
			{
				"x": -3.3379856528,
				"y": -1.0090026709,
				"z": 0.4731770837,
				"element": "C" 
			},
			{
				"x": -2.0402213794,
				"y": -4.0789302638,
				"z": -0.2387041472,
				"element": "H" 
			},
			{
				"x": -0.0018259071,
				"y": -2.6536935148,
				"z": -0.6333869946,
				"element": "H" 
			},
			{
				"x": 2.0228805269,
				"y": 0.1229460293,
				"z": -1.9149245137,
				"element": "H" 
			},
			{
				"x": 4.1140088877,
				"y": 1.153862163,
				"z": -2.7666029046,
				"element": "H" 
			},
			{
				"x": 5.0543365714,
				"y": 3.1602168874,
				"z": -1.6467190028,
				"element": "H" 
			},
			{
				"x": 3.9030112356,
				"y": 4.139405169,
				"z": 0.3256528864,
				"element": "H" 
			},
			{
				"x": 1.7985355843,
				"y": 3.0966559908,
				"z": 1.1723758481,
				"element": "H" 
			},
			{
				"x": -2.2611203351,
				"y": 0.8525526837,
				"z": 0.4003475529,
				"element": "H" 
			},
			{
				"x": -4.2803057807,
				"y": -0.5725535134,
				"z": 0.7793838476,
				"element": "H" 
			}
		],
		 "valence_orbital": [ 
			{
				"type": "occ",
				"energy": -0.28873,
				"method": "rhf"
			},
			{
				"type": "occ",
				"energy": -0.28009,
				"method": "rhf"
			},
			{
				"type": "occ",
				"energy": -0.27717,
				"method": "rhf"
			},
			{
				"type": "occ",
				"energy": -0.27229,
				"method": "rhf"
			},
			{
				"type": "occ",
				"energy": -0.26594,
				"method": "rhf"
			},
			{
				"type": "unocc",
				"energy": -0.08894,
				"method": "rhf"
			},
			{
				"type": "unocc",
				"energy": -0.06371,
				"method": "rhf"
			},
			{
				"type": "unocc",
				"energy": -0.02998,
				"method": "rhf"
			},
			{
				"type": "unocc",
				"energy": -0.02133,
				"method": "rhf"
			},
			{
				"type": "unocc",
				"energy": 0.00325,
				"method": "rhf"
			}
		],
		"cosmo_sigma_profile": { 
			"-0.025": 0.0,
			"-0.024": 0.0,
			"-0.023": 0.0,
			"-0.022": 0.0,
			"-0.021": 0.0,
			"-0.02": 0.0,
			"-0.019": 0.0,
			"-0.018": 0.0,
			"-0.017": 0.0,
			"-0.016": 0.0,
			"-0.015": 0.0,
			"-0.014": 0.0,
			"-0.013": 0.0,
			"-0.012": 0.0,
			"-0.011": 0.0,
			"-0.01": 0.0,
			"-0.009": 0.154593674982,
			"-0.008": 3.9700654696,
			"-0.007": 9.47979273163,
			"-0.006": 19.2102170952,
			"-0.005": 17.8773414757,
			"-0.004": 18.5661236852,
			"-0.003": 17.4386683919,
			"-0.002": 17.9023892455,
			"-0.001": 22.9773005085,
			"0.0": 28.9351524272,
			"0.001": 24.6828615183,
			"0.002": 17.7503044676,
			"0.003": 17.5361941076,
			"0.004": 11.0649502066,
			"0.005": 3.86906981645,
			"0.006": 5.70081401505,
			"0.007": 8.88759068971,
			"0.008": 9.68182699178,
			"0.009": 6.88788041376,
			"0.01": 5.78259323084,
			"0.011": 1.96807759999,
			"0.012": 0.0,
			"0.013": 0.0,
			"0.014": 0.0,
			"0.015": 0.0,
			"0.016": 0.0,
			"0.017": 0.0,
			"0.018": 0.0,
			"0.019": 0.0,
			"0.02": 0.0,
			"0.021": 0.0,
			"0.022": 0.0,
			"0.023": 0.0,
			"0.024": 0.0,
			"0.025": 0.0
		}
	}
}
