{
	 "smiles": "OC(=O)C1=C2C=CC=CC2=NC(=C1)C1=CC=C(OC(F)F)C=C1", 
	 "Tm": 498.15, 
	 "num_atms": 34, 
	 "gaussian": { 
		 "optdone": 1, 
		 "sigma_profile": "yes", 
		 "theory": "DFT", 
		 "functional": "B3LYP", 
		 "basiset": "6-31G**", 
		 "properties": { 
			 "R2extent": 14143.505, 
			 "electric_dipole_moment_norm": 3.07800603313, 
			 "electric_quadrupole_moment_norm": 23.2484434068, 
			 "total_energy": -1134.55532438, 
			 "HOMO_LUMO_gap": 0.14708, 
			 "cosmo_polarized_energy": -18.47, 
			 "cosmo_cavitation_energy": 40.22, 
			 "cosmo_dispersion_energy": -29.11, 
			 "cosmo_repulsion_energy": 2.12, 
			 "cosmo_total_nonelectrostatic_energy": 13.23, 
			 "SMD_solvation_energy": 7.75 
		},
		"coords": [
			{
				"x": 0.1575670794,
				"y": 1.766053574,
				"z": 2.4383534887,
				"element": "O" 
			},
			{
				"x": -0.0743831175,
				"y": 2.049272909,
				"z": 1.1290813381,
				"element": "C" 
			},
			{
				"x": -0.3611399123,
				"y": 3.1736860653,
				"z": 0.7956603338,
				"element": "O" 
			},
			{
				"x": 0.0795706128,
				"y": 0.890319615,
				"z": 0.1793904572,
				"element": "C" 
			},
			{
				"x": -0.7536944308,
				"y": 0.7554556872,
				"z": -0.9747901019,
				"element": "C" 
			},
			{
				"x": -1.8124686264,
				"y": 1.6372539572,
				"z": -1.3183090791,
				"element": "C" 
			},
			{
				"x": -2.5706901557,
				"y": 1.404263314,
				"z": -2.4451897818,
				"element": "C" 
			},
			{
				"x": -2.3105304877,
				"y": 0.2887492861,
				"z": -3.2775946608,
				"element": "C" 
			},
			{
				"x": -1.2905221656,
				"y": -0.5820527496,
				"z": -2.9720601956,
				"element": "C" 
			},
			{
				"x": -0.4873898471,
				"y": -0.3738447183,
				"z": -1.8186250655,
				"element": "C" 
			},
			{
				"x": 0.5057302578,
				"y": -1.270005928,
				"z": -1.5723793395,
				"element": "N" 
			},
			{
				"x": 1.2757577818,
				"y": -1.1191760349,
				"z": -0.5059110233,
				"element": "C" 
			},
			{
				"x": 1.0793872141,
				"y": -0.0353974855,
				"z": 0.3992612479,
				"element": "C" 
			},
			{
				"x": 2.3557822178,
				"y": -2.1206241702,
				"z": -0.3027962319,
				"element": "C" 
			},
			{
				"x": 3.0576656439,
				"y": -2.2424692289,
				"z": 0.904872505,
				"element": "C" 
			},
			{
				"x": 4.0704114776,
				"y": -3.1877267448,
				"z": 1.070148122,
				"element": "C" 
			},
			{
				"x": 4.3799517019,
				"y": -4.0430712197,
				"z": 0.0109749133,
				"element": "C" 
			},
			{
				"x": 5.370404085,
				"y": -5.0077406359,
				"z": 0.0700099333,
				"element": "O" 
			},
			{
				"x": 5.6795123177,
				"y": -5.5518391604,
				"z": 1.2930945946,
				"element": "C" 
			},
			{
				"x": 6.3749299937,
				"y": -6.675194722,
				"z": 1.0517096895,
				"element": "F" 
			},
			{
				"x": 6.4862698621,
				"y": -4.7137166759,
				"z": 2.007653994,
				"element": "F" 
			},
			{
				"x": 3.6960343484,
				"y": -3.9422589378,
				"z": -1.2041910885,
				"element": "C" 
			},
			{
				"x": 2.6980117272,
				"y": -2.9909596507,
				"z": -1.3551025821,
				"element": "C" 
			},
			{
				"x": 0.2330729845,
				"y": 0.8085521958,
				"z": 2.5579993885,
				"element": "H" 
			},
			{
				"x": -2.0013104949,
				"y": 2.5020763131,
				"z": -0.6953355077,
				"element": "H" 
			},
			{
				"x": -3.3761189275,
				"y": 2.0865096639,
				"z": -2.7000643,
				"element": "H" 
			},
			{
				"x": -2.9206599862,
				"y": 0.1240092273,
				"z": -4.1608694786,
				"element": "H" 
			},
			{
				"x": -1.0657700126,
				"y": -1.4456420962,
				"z": -3.5889424682,
				"element": "H" 
			},
			{
				"x": 1.75948363,
				"y": 0.0971554166,
				"z": 1.2336045832,
				"element": "H" 
			},
			{
				"x": 2.8228582296,
				"y": -1.6022893554,
				"z": 1.7487228767,
				"element": "H" 
			},
			{
				"x": 4.6240342131,
				"y": -3.2351994476,
				"z": 1.9998077883,
				"element": "H" 
			},
			{
				"x": 4.7912147406,
				"y": -5.7727965807,
				"z": 1.8972385756,
				"element": "H" 
			},
			{
				"x": 3.9600550521,
				"y": -4.6164490437,
				"z": -2.0119973355,
				"element": "H" 
			},
			{
				"x": 2.1562729932,
				"y": -2.9065026383,
				"z": -2.2897255895,
				"element": "H" 
			}
		],
		 "valence_orbital": [ 
			{
				"type": "occ",
				"energy": -0.27891,
				"method": "rhf"
			},
			{
				"type": "occ",
				"energy": -0.27219,
				"method": "rhf"
			},
			{
				"type": "occ",
				"energy": -0.2669,
				"method": "rhf"
			},
			{
				"type": "occ",
				"energy": -0.25136,
				"method": "rhf"
			},
			{
				"type": "occ",
				"energy": -0.23208,
				"method": "rhf"
			},
			{
				"type": "unocc",
				"energy": -0.085,
				"method": "rhf"
			},
			{
				"type": "unocc",
				"energy": -0.05141,
				"method": "rhf"
			},
			{
				"type": "unocc",
				"energy": -0.02073,
				"method": "rhf"
			},
			{
				"type": "unocc",
				"energy": -0.01474,
				"method": "rhf"
			},
			{
				"type": "unocc",
				"energy": 0.00175,
				"method": "rhf"
			}
		],
		"cosmo_sigma_profile": { 
			"-0.025": 0.0,
			"-0.024": 0.0,
			"-0.023": 0.0,
			"-0.022": 0.0,
			"-0.021": 0.0,
			"-0.02": 0.0,
			"-0.019": 0.199211298796,
			"-0.018": 0.775730488937,
			"-0.017": 1.24100280143,
			"-0.016": 1.23040119097,
			"-0.015": 1.13092521608,
			"-0.014": 0.922956168766,
			"-0.013": 0.994719565267,
			"-0.012": 1.62865157082,
			"-0.011": 2.33868779149,
			"-0.01": 4.50056938242,
			"-0.009": 4.19488798292,
			"-0.008": 4.97124030693,
			"-0.007": 9.34018632925,
			"-0.006": 15.3127651028,
			"-0.005": 17.1594678922,
			"-0.004": 16.8450805861,
			"-0.003": 15.7302083925,
			"-0.002": 14.524012068,
			"-0.001": 18.5773663241,
			"0.0": 21.0860719378,
			"0.001": 25.3202005455,
			"0.002": 30.2389900368,
			"0.003": 46.2466485646,
			"0.004": 28.2927660173,
			"0.005": 6.63750724677,
			"0.006": 6.31249423726,
			"0.007": 5.56000297862,
			"0.008": 5.93910020552,
			"0.009": 4.10220076625,
			"0.01": 6.47997733439,
			"0.011": 4.58081204165,
			"0.012": 1.93522017439,
			"0.013": 0.166902210446,
			"0.014": 0.0,
			"0.015": 0.0,
			"0.016": 0.0,
			"0.017": 0.0,
			"0.018": 0.0,
			"0.019": 0.0,
			"0.02": 0.0,
			"0.021": 0.0,
			"0.022": 0.0,
			"0.023": 0.0,
			"0.024": 0.0,
			"0.0": 0.0
		}
	}
}
