{
	 "smiles": "COC(=O)C1CCN(CC1)S(Cl)(=O)=O", 
	 "Tm": 340.15, 
	 "num_atms": 26, 
	 "gaussian": { 
		 "optdone": 1, 
		 "sigma_profile": "yes", 
		 "theory": "DFT", 
		 "functional": "B3LYP", 
		 "basiset": "6-31G**", 
		 "properties": { 
			 "R2extent": 4941.8718, 
			 "electric_dipole_moment_norm": 6.3748957866, 
			 "electric_quadrupole_moment_norm": 13.6096409313, 
			 "total_energy": -1487.94216905, 
			 "HOMO_LUMO_gap": 0.2037, 
			 "cosmo_polarized_energy": -13.72, 
			 "cosmo_cavitation_energy": 31.58, 
			 "cosmo_dispersion_energy": -23.3, 
			 "cosmo_repulsion_energy": 1.79, 
			 "cosmo_total_nonelectrostatic_energy": 10.07, 
			 "SMD_solvation_energy": 3.98 
		},
		"coords": [
			{
				"x": -4.6319412858,
				"y": -0.227613431,
				"z": 0.357057902,
				"element": "C" 
			},
			{
				"x": -3.2982339593,
				"y": -0.3503553676,
				"z": 0.8847899513,
				"element": "O" 
			},
			{
				"x": -2.318447763,
				"y": 0.1701889593,
				"z": 0.1163346287,
				"element": "C" 
			},
			{
				"x": -2.5192247916,
				"y": 0.7154191752,
				"z": -0.9481040147,
				"element": "O" 
			},
			{
				"x": -0.955340672,
				"y": -0.049589627,
				"z": 0.7602109958,
				"element": "C" 
			},
			{
				"x": 0.1636601021,
				"y": 0.699851783,
				"z": 0.0020237766,
				"element": "C" 
			},
			{
				"x": 0.8878050464,
				"y": -0.2096983431,
				"z": -0.9901411338,
				"element": "C" 
			},
			{
				"x": 1.4903760816,
				"y": -1.3859966673,
				"z": -0.3037627003,
				"element": "N" 
			},
			{
				"x": 0.8375867606,
				"y": -1.8494967444,
				"z": 0.9458238643,
				"element": "C" 
			},
			{
				"x": -0.6617506601,
				"y": -1.5748066771,
				"z": 0.8449166188,
				"element": "C" 
			},
			{
				"x": 3.1217716564,
				"y": -1.578480052,
				"z": -0.3842940162,
				"element": "S" 
			},
			{
				"x": 3.8972361636,
				"y": -0.0478458653,
				"z": 0.9412742836,
				"element": "Cl" 
			},
			{
				"x": 3.5857483862,
				"y": -1.197378852,
				"z": -1.7074387054,
				"element": "O" 
			},
			{
				"x": 3.4695393352,
				"y": -2.8366511464,
				"z": 0.2545739125,
				"element": "O" 
			},
			{
				"x": -5.2838567227,
				"y": -0.6943437432,
				"z": 1.0949313185,
				"element": "H" 
			},
			{
				"x": -4.8948061942,
				"y": 0.8242401989,
				"z": 0.2222137826,
				"element": "H" 
			},
			{
				"x": -4.712599002,
				"y": -0.7380901,
				"z": -0.6056366285,
				"element": "H" 
			},
			{
				"x": -1.0236470298,
				"y": 0.3381517348,
				"z": 1.7831603318,
				"element": "H" 
			},
			{
				"x": 0.891333722,
				"y": 1.0997218697,
				"z": 0.7146171081,
				"element": "H" 
			},
			{
				"x": -0.2629613572,
				"y": 1.5427347404,
				"z": -0.5472161395,
				"element": "H" 
			},
			{
				"x": 0.1917850339,
				"y": -0.5870252337,
				"z": -1.7467610504,
				"element": "H" 
			},
			{
				"x": 1.6769346959,
				"y": 0.3255140467,
				"z": -1.5194996636,
				"element": "H" 
			},
			{
				"x": 1.0372684571,
				"y": -2.91661736,
				"z": 1.0540213606,
				"element": "H" 
			},
			{
				"x": 1.2629829054,
				"y": -1.3339553127,
				"z": 1.8186056775,
				"element": "H" 
			},
			{
				"x": -1.0520599273,
				"y": -2.0896800509,
				"z": -0.04042953,
				"element": "H" 
			},
			{
				"x": -1.1671589812,
				"y": -2.0107979343,
				"z": 1.7098280699,
				"element": "H" 
			}
		],
		 "valence_orbital": [ 
			{
				"type": "occ",
				"energy": -0.32539,
				"method": "rhf"
			},
			{
				"type": "occ",
				"energy": -0.31866,
				"method": "rhf"
			},
			{
				"type": "occ",
				"energy": -0.309,
				"method": "rhf"
			},
			{
				"type": "occ",
				"energy": -0.2888,
				"method": "rhf"
			},
			{
				"type": "occ",
				"energy": -0.27988,
				"method": "rhf"
			},
			{
				"type": "unocc",
				"energy": -0.07618,
				"method": "rhf"
			},
			{
				"type": "unocc",
				"energy": -0.00655,
				"method": "rhf"
			},
			{
				"type": "unocc",
				"energy": 0.05401,
				"method": "rhf"
			},
			{
				"type": "unocc",
				"energy": 0.06548,
				"method": "rhf"
			},
			{
				"type": "unocc",
				"energy": 0.07655,
				"method": "rhf"
			}
		],
		"cosmo_sigma_profile": { 
			"-0.025": 0.0,
			"-0.024": 0.0,
			"-0.023": 0.0,
			"-0.022": 0.0,
			"-0.021": 0.0,
			"-0.02": 0.0,
			"-0.019": 0.0,
			"-0.018": 0.0,
			"-0.017": 0.0,
			"-0.016": 0.0,
			"-0.015": 0.0,
			"-0.014": 0.0,
			"-0.013": 0.0,
			"-0.012": 0.0,
			"-0.011": 0.0,
			"-0.01": 0.0,
			"-0.009": 0.0,
			"-0.008": 0.107018802439,
			"-0.007": 4.3367844581,
			"-0.006": 23.8373381925,
			"-0.005": 27.3984917593,
			"-0.004": 25.4780544678,
			"-0.003": 22.9534897198,
			"-0.002": 17.9884614304,
			"-0.001": 13.4480153198,
			"0.0": 11.1819494393,
			"0.001": 11.5278966392,
			"0.002": 12.2905444938,
			"0.003": 12.5826946765,
			"0.004": 15.1942901065,
			"0.005": 10.683004754,
			"0.006": 5.58601357057,
			"0.007": 8.35771739297,
			"0.008": 12.583838537,
			"0.009": 6.89181437919,
			"0.01": 2.07317053397,
			"0.011": 2.89779534098,
			"0.012": 3.21040596436,
			"0.013": 0.0403480254881,
			"0.014": 0.0,
			"0.015": 0.0,
			"0.016": 0.0,
			"0.017": 0.0,
			"0.018": 0.0,
			"0.019": 0.0,
			"0.02": 0.0,
			"0.021": 0.0,
			"0.022": 0.0,
			"0.023": 0.0,
			"0.024": 0.0,
			"0.025": 0.0
		}
	}
}
