{
	 "smiles": "ClC1=NN=CC2=CC=CC=C12", 
	 "Tm": 384.15, 
	 "num_atms": 16, 
	 "gaussian": { 
		 "optdone": 1, 
		 "sigma_profile": "yes", 
		 "theory": "DFT", 
		 "functional": "B3LYP", 
		 "basiset": "6-31G**", 
		 "properties": { 
			 "R2extent": 2715.0177, 
			 "electric_dipole_moment_norm": 5.75369779359, 
			 "electric_quadrupole_moment_norm": 18.2439151377, 
			 "total_energy": -877.524755584, 
			 "HOMO_LUMO_gap": 0.17266, 
			 "cosmo_polarized_energy": -11.73, 
			 "cosmo_cavitation_energy": 22.1, 
			 "cosmo_dispersion_energy": -16.89, 
			 "cosmo_repulsion_energy": 1.32, 
			 "cosmo_total_nonelectrostatic_energy": 6.54, 
			 "SMD_solvation_energy": 1.74 
		},
		"coords": [
			{
				"x": -3.2351921278,
				"y": -1.1506294206,
				"z": 2.0726025256,
				"element": "Cl" 
			},
			{
				"x": -1.5057544242,
				"y": -0.9298227394,
				"z": 2.3162753183,
				"element": "C" 
			},
			{
				"x": -1.0446957683,
				"y": -1.3539782702,
				"z": 3.4575807922,
				"element": "N" 
			},
			{
				"x": 0.2867200514,
				"y": -1.2262056126,
				"z": 3.7395166661,
				"element": "N" 
			},
			{
				"x": 1.0761332575,
				"y": -0.6755236193,
				"z": 2.8483988778,
				"element": "C" 
			},
			{
				"x": 0.648906621,
				"y": -0.1880542092,
				"z": 1.580410201,
				"element": "C" 
			},
			{
				"x": 1.5210740082,
				"y": 0.4025174468,
				"z": 0.6356039406,
				"element": "C" 
			},
			{
				"x": 1.0237135183,
				"y": 0.8488329171,
				"z": -0.5703943759,
				"element": "C" 
			},
			{
				"x": -0.3535224194,
				"y": 0.7197161019,
				"z": -0.8685449873,
				"element": "C" 
			},
			{
				"x": -1.2242774322,
				"y": 0.147302769,
				"z": 0.0363737486,
				"element": "C" 
			},
			{
				"x": -0.7336324348,
				"y": -0.3167034894,
				"z": 1.2788248102,
				"element": "C" 
			},
			{
				"x": 2.1248542442,
				"y": -0.6025425284,
				"z": 3.1320827222,
				"element": "H" 
			},
			{
				"x": 2.5765215691,
				"y": 0.4966928211,
				"z": 0.874800364,
				"element": "H" 
			},
			{
				"x": 1.6878790845,
				"y": 1.3028837218,
				"z": -1.2995218954,
				"element": "H" 
			},
			{
				"x": -0.7272207765,
				"y": 1.0769014242,
				"z": -1.8233368773,
				"element": "H" 
			},
			{
				"x": -2.279106971,
				"y": 0.0479126871,
				"z": -0.1908718307,
				"element": "H" 
			}
		],
		 "valence_orbital": [ 
			{
				"type": "occ",
				"energy": -0.31053,
				"method": "rhf"
			},
			{
				"type": "occ",
				"energy": -0.30289,
				"method": "rhf"
			},
			{
				"type": "occ",
				"energy": -0.29082,
				"method": "rhf"
			},
			{
				"type": "occ",
				"energy": -0.25853,
				"method": "rhf"
			},
			{
				"type": "occ",
				"energy": -0.24766,
				"method": "rhf"
			},
			{
				"type": "unocc",
				"energy": -0.075,
				"method": "rhf"
			},
			{
				"type": "unocc",
				"energy": -0.0572,
				"method": "rhf"
			},
			{
				"type": "unocc",
				"energy": 0.00428,
				"method": "rhf"
			},
			{
				"type": "unocc",
				"energy": 0.02585,
				"method": "rhf"
			},
			{
				"type": "unocc",
				"energy": 0.05639,
				"method": "rhf"
			}
		],
		"cosmo_sigma_profile": { 
			"-0.025": 0.0,
			"-0.024": 0.0,
			"-0.023": 0.0,
			"-0.022": 0.0,
			"-0.021": 0.0,
			"-0.02": 0.0,
			"-0.019": 0.0,
			"-0.018": 0.0,
			"-0.017": 0.0,
			"-0.016": 0.0,
			"-0.015": 0.0,
			"-0.014": 0.0,
			"-0.013": 0.0,
			"-0.012": 0.0,
			"-0.011": 0.0,
			"-0.01": 9.57678207968e-05,
			"-0.009": 2.06119491111,
			"-0.008": 5.96414270983,
			"-0.007": 10.2256268907,
			"-0.006": 10.867729938,
			"-0.005": 8.2365008499,
			"-0.004": 8.23484344136,
			"-0.003": 12.7678561645,
			"-0.002": 15.5868024648,
			"-0.001": 17.2399466845,
			"0.0": 16.7325197547,
			"0.001": 16.3313670372,
			"0.002": 15.73977112,
			"0.003": 7.10960557417,
			"0.004": 6.98861271867,
			"0.005": 3.76524885938,
			"0.006": 2.70889465268,
			"0.007": 2.0957344014,
			"0.008": 2.05626996981,
			"0.009": 2.59591075722,
			"0.01": 2.25424970286,
			"0.011": 2.25711837075,
			"0.012": 1.91082124724,
			"0.013": 3.17971660595,
			"0.014": 2.52682648826,
			"0.015": 1.57091124979,
			"0.016": 0.337818307458,
			"0.017": 0.0,
			"0.018": 0.0,
			"0.019": 0.0,
			"0.02": 0.0,
			"0.021": 0.0,
			"0.022": 0.0,
			"0.023": 0.0,
			"0.024": 0.0,
			"0.025": 0.0
		}
	}
}
