{
	 "smiles": "COC1=C(OC)C=C(C=C1)C(=O)C1=CC=C(C=C1)C1=CC=CC=C1", 
	 "Tm": 381.15, 
	 "num_atms": 42, 
	 "gaussian": { 
		 "optdone": 1, 
		 "sigma_profile": "yes", 
		 "theory": "DFT", 
		 "functional": "B3LYP", 
		 "basiset": "6-31G**", 
		 "properties": { 
			 "R2extent": 13701.4158, 
			 "electric_dipole_moment_norm": 2.37276456059, 
			 "electric_quadrupole_moment_norm": 24.3988942784, 
			 "total_energy": -1036.73631624, 
			 "HOMO_LUMO_gap": 0.15781, 
			 "cosmo_polarized_energy": -13.28, 
			 "cosmo_cavitation_energy": 46.21, 
			 "cosmo_dispersion_energy": -32.95, 
			 "cosmo_repulsion_energy": 2.48, 
			 "cosmo_total_nonelectrostatic_energy": 15.75, 
			 "SMD_solvation_energy": 9.53 
		},
		"coords": [
			{
				"x": -5.9894833984,
				"y": -1.8826817655,
				"z": -1.5134915523,
				"element": "C" 
			},
			{
				"x": -5.1125644087,
				"y": -2.3079517041,
				"z": -0.4647180709,
				"element": "O" 
			},
			{
				"x": -4.0533416746,
				"y": -1.495800196,
				"z": -0.1678740339,
				"element": "C" 
			},
			{
				"x": -4.2208526135,
				"y": -0.1735545321,
				"z": 0.3185361417,
				"element": "C" 
			},
			{
				"x": -5.5077569903,
				"y": 0.263956678,
				"z": 0.4443137338,
				"element": "O" 
			},
			{
				"x": -5.7213303904,
				"y": 1.5596397464,
				"z": 0.9886436167,
				"element": "C" 
			},
			{
				"x": -3.0975472596,
				"y": 0.5755536943,
				"z": 0.6528712768,
				"element": "C" 
			},
			{
				"x": -1.8019804161,
				"y": 0.0444696946,
				"z": 0.5145131305,
				"element": "C" 
			},
			{
				"x": -1.6457454657,
				"y": -1.2721017446,
				"z": 0.0656823584,
				"element": "C" 
			},
			{
				"x": -2.769728938,
				"y": -2.0271180501,
				"z": -0.2716552046,
				"element": "C" 
			},
			{
				"x": -0.6640167318,
				"y": 0.9100862868,
				"z": 0.9579934774,
				"element": "C" 
			},
			{
				"x": -0.8631609562,
				"y": 1.8236850702,
				"z": 1.7552054701,
				"element": "O" 
			},
			{
				"x": 0.7242164264,
				"y": 0.6774412479,
				"z": 0.440066353,
				"element": "C" 
			},
			{
				"x": 1.0003312151,
				"y": 0.1793130206,
				"z": -0.8424713587,
				"element": "C" 
			},
			{
				"x": 2.3142434766,
				"y": 0.0583007713,
				"z": -1.2884802042,
				"element": "C" 
			},
			{
				"x": 3.3963212903,
				"y": 0.4167184041,
				"z": -0.4670974622,
				"element": "C" 
			},
			{
				"x": 3.1110912955,
				"y": 0.9237813869,
				"z": 0.8148473491,
				"element": "C" 
			},
			{
				"x": 1.8010699025,
				"y": 1.0652812065,
				"z": 1.2534065374,
				"element": "C" 
			},
			{
				"x": 4.7958428728,
				"y": 0.2727568016,
				"z": -0.9398884327,
				"element": "C" 
			},
			{
				"x": 5.7731446525,
				"y": 1.2255086228,
				"z": -0.6037406298,
				"element": "C" 
			},
			{
				"x": 7.0872352033,
				"y": 1.0904808601,
				"z": -1.0488662977,
				"element": "C" 
			},
			{
				"x": 7.4536254172,
				"y": -0.0007052692,
				"z": -1.8391624228,
				"element": "C" 
			},
			{
				"x": 6.4939336174,
				"y": -0.9555532563,
				"z": -2.1807449081,
				"element": "C" 
			},
			{
				"x": 5.1796600364,
				"y": -0.8200637008,
				"z": -1.7362758142,
				"element": "C" 
			},
			{
				"x": -5.4338821709,
				"y": -1.7400920988,
				"z": -2.4492164269,
				"element": "H" 
			},
			{
				"x": -6.5128314354,
				"y": -0.9597487219,
				"z": -1.2535041465,
				"element": "H" 
			},
			{
				"x": -6.7104309796,
				"y": -2.6917606609,
				"z": -1.6450675019,
				"element": "H" 
			},
			{
				"x": -5.3128519269,
				"y": 1.6402349329,
				"z": 2.0031655393,
				"element": "H" 
			},
			{
				"x": -5.2763411731,
				"y": 2.340890964,
				"z": 0.3598592651,
				"element": "H" 
			},
			{
				"x": -6.8032385186,
				"y": 1.6951036538,
				"z": 1.0220215895,
				"element": "H" 
			},
			{
				"x": -3.1842183452,
				"y": 1.5786841234,
				"z": 1.0509593407,
				"element": "H" 
			},
			{
				"x": -0.6603522183,
				"y": -1.7181236069,
				"z": -0.0015072764,
				"element": "H" 
			},
			{
				"x": -2.6764212419,
				"y": -3.0523483704,
				"z": -0.614901279,
				"element": "H" 
			},
			{
				"x": 0.1853547691,
				"y": -0.0810900883,
				"z": -1.5093503831,
				"element": "H" 
			},
			{
				"x": 2.5037504635,
				"y": -0.290737129,
				"z": -2.2990268796,
				"element": "H" 
			},
			{
				"x": 3.9290895559,
				"y": 1.1895708851,
				"z": 1.4775934537,
				"element": "H" 
			},
			{
				"x": 1.5852468601,
				"y": 1.4711380765,
				"z": 2.236173846,
				"element": "H" 
			},
			{
				"x": 5.4931721496,
				"y": 2.0916894084,
				"z": -0.0116233906,
				"element": "H" 
			},
			{
				"x": 7.8242645772,
				"y": 1.8435210932,
				"z": -0.784587265,
				"element": "H" 
			},
			{
				"x": 8.4776316959,
				"y": -0.1060677021,
				"z": -2.1854705465,
				"element": "H" 
			},
			{
				"x": 6.7705590585,
				"y": -1.8129523472,
				"z": -2.7878014951,
				"element": "H" 
			},
			{
				"x": 4.4470927175,
				"y": -1.5820556853,
				"z": -1.9855294964,
				"element": "H" 
			}
		],
		 "valence_orbital": [ 
			{
				"type": "occ",
				"energy": -0.25424,
				"method": "rhf"
			},
			{
				"type": "occ",
				"energy": -0.24907,
				"method": "rhf"
			},
			{
				"type": "occ",
				"energy": -0.24054,
				"method": "rhf"
			},
			{
				"type": "occ",
				"energy": -0.2279,
				"method": "rhf"
			},
			{
				"type": "occ",
				"energy": -0.22057,
				"method": "rhf"
			},
			{
				"type": "unocc",
				"energy": -0.06276,
				"method": "rhf"
			},
			{
				"type": "unocc",
				"energy": -0.02369,
				"method": "rhf"
			},
			{
				"type": "unocc",
				"energy": -0.00942,
				"method": "rhf"
			},
			{
				"type": "unocc",
				"energy": -0.00437,
				"method": "rhf"
			},
			{
				"type": "unocc",
				"energy": 0.00465,
				"method": "rhf"
			}
		],
		"cosmo_sigma_profile": { 
			"-0.025": 0.0,
			"-0.024": 0.0,
			"-0.023": 0.0,
			"-0.022": 0.0,
			"-0.021": 0.0,
			"-0.02": 0.0,
			"-0.019": 0.0,
			"-0.018": 0.0,
			"-0.017": 0.0,
			"-0.016": 0.0,
			"-0.015": 0.0,
			"-0.014": 0.0,
			"-0.013": 0.0,
			"-0.012": 0.0,
			"-0.011": 0.0,
			"-0.01": 0.0,
			"-0.009": 0.0,
			"-0.008": 0.0,
			"-0.007": 1.0751700611,
			"-0.006": 21.8203379877,
			"-0.005": 35.899693646,
			"-0.004": 36.9874569493,
			"-0.003": 37.5446357534,
			"-0.002": 29.4298906144,
			"-0.001": 22.9935358728,
			"0.0": 23.88262816,
			"0.001": 23.6250807739,
			"0.002": 29.0647542826,
			"0.003": 32.6265681609,
			"0.004": 26.5731815241,
			"0.005": 15.148288279,
			"0.006": 7.10241908679,
			"0.007": 4.39278708081,
			"0.008": 4.32863032376,
			"0.009": 3.45223687858,
			"0.01": 4.0554956694,
			"0.011": 4.09307560594,
			"0.012": 4.32033729151,
			"0.013": 1.52380442079,
			"0.014": 0.0,
			"0.015": 0.0,
			"0.016": 0.0,
			"0.017": 0.0,
			"0.018": 0.0,
			"0.019": 0.0,
			"0.02": 0.0,
			"0.021": 0.0,
			"0.022": 0.0,
			"0.023": 0.0,
			"0.024": 0.0,
			"0.025": 0.0
		}
	}
}
