{
	 "smiles": "CC1=CC(Br)=CNC1=O", 
	 "Tm": 446.15, 
	 "num_atms": 15, 
	 "gaussian": { 
		 "optdone": 1, 
		 "sigma_profile": "yes", 
		 "theory": "DFT", 
		 "functional": "B3LYP", 
		 "basiset": "6-31G**", 
		 "properties": { 
			 "R2extent": 4990.3275, 
			 "electric_dipole_moment_norm": 1.93586884112, 
			 "electric_quadrupole_moment_norm": 12.2256232209, 
			 "total_energy": -2933.64199012, 
			 "HOMO_LUMO_gap": 0.17095, 
			 "cosmo_polarized_energy": -12.06, 
			 "cosmo_cavitation_energy": 21.52, 
			 "cosmo_dispersion_energy": -16.46, 
			 "cosmo_repulsion_energy": 1.35, 
			 "cosmo_total_nonelectrostatic_energy": 6.41, 
			 "SMD_solvation_energy": 3.59 
		},
		"coords": [
			{
				"x": 0.3201156399,
				"y": -0.9787947488,
				"z": 1.4346590478,
				"element": "C" 
			},
			{
				"x": 1.1029092574,
				"y": 0.1790166413,
				"z": 0.8893522719,
				"element": "C" 
			},
			{
				"x": 2.4015315283,
				"y": 0.443110752,
				"z": 1.228337047,
				"element": "C" 
			},
			{
				"x": 3.1009808346,
				"y": 1.5592460139,
				"z": 0.6798478132,
				"element": "C" 
			},
			{
				"x": 4.9079011409,
				"y": 1.8960571291,
				"z": 1.1744403384,
				"element": "Br" 
			},
			{
				"x": 2.4676921212,
				"y": 2.3821059252,
				"z": -0.1997363669,
				"element": "C" 
			},
			{
				"x": 1.1695932044,
				"y": 2.1169381221,
				"z": -0.5377003291,
				"element": "N" 
			},
			{
				"x": 0.3967699646,
				"y": 1.0472635384,
				"z": -0.0546912977,
				"element": "C" 
			},
			{
				"x": -0.7649991162,
				"y": 0.9046217959,
				"z": -0.4276302865,
				"element": "O" 
			},
			{
				"x": -0.5797357112,
				"y": -0.6251131342,
				"z": 1.9496669071,
				"element": "H" 
			},
			{
				"x": 0.9175068776,
				"y": -1.5743652983,
				"z": 2.1290822863,
				"element": "H" 
			},
			{
				"x": -0.029603756,
				"y": -1.6230323688,
				"z": 0.6205838875,
				"element": "H" 
			},
			{
				"x": 2.9210956137,
				"y": -0.2037433997,
				"z": 1.9288860112,
				"element": "H" 
			},
			{
				"x": 2.9321505085,
				"y": 3.2466350409,
				"z": -0.6564891439,
				"element": "H" 
			},
			{
				"x": 0.6831918921,
				"y": 2.7190539908,
				"z": -1.1907081863,
				"element": "H" 
			}
		],
		 "valence_orbital": [ 
			{
				"type": "occ",
				"energy": -0.3197,
				"method": "rhf"
			},
			{
				"type": "occ",
				"energy": -0.29899,
				"method": "rhf"
			},
			{
				"type": "occ",
				"energy": -0.2865,
				"method": "rhf"
			},
			{
				"type": "occ",
				"energy": -0.25654,
				"method": "rhf"
			},
			{
				"type": "occ",
				"energy": -0.21748,
				"method": "rhf"
			},
			{
				"type": "unocc",
				"energy": -0.04653,
				"method": "rhf"
			},
			{
				"type": "unocc",
				"energy": -0.00548,
				"method": "rhf"
			},
			{
				"type": "unocc",
				"energy": 0.00331,
				"method": "rhf"
			},
			{
				"type": "unocc",
				"energy": 0.07874,
				"method": "rhf"
			},
			{
				"type": "unocc",
				"energy": 0.11447,
				"method": "rhf"
			}
		],
		"cosmo_sigma_profile": { 
			"-0.025": 0.0,
			"-0.024": 0.0,
			"-0.023": 0.0,
			"-0.022": 0.0,
			"-0.021": 0.0,
			"-0.02": 0.0,
			"-0.019": 0.0,
			"-0.018": 0.0,
			"-0.017": 0.155741942474,
			"-0.016": 1.4614761741,
			"-0.015": 1.62633292587,
			"-0.014": 1.21213852348,
			"-0.013": 0.745803789838,
			"-0.012": 1.55619195142,
			"-0.011": 1.56523184839,
			"-0.01": 2.57558148685,
			"-0.009": 2.06035979222,
			"-0.008": 2.43870542106,
			"-0.007": 4.25609874435,
			"-0.006": 4.69351648561,
			"-0.005": 6.14769162841,
			"-0.004": 8.94138363522,
			"-0.003": 10.1344098148,
			"-0.002": 11.5303139876,
			"-0.001": 18.6609997625,
			"0.0": 21.1903162372,
			"0.001": 15.6892288921,
			"0.002": 13.3439905147,
			"0.003": 7.90593443389,
			"0.004": 12.7352324815,
			"0.005": 4.37627645912,
			"0.006": 1.07786480847,
			"0.007": 1.07173380513,
			"0.008": 1.6612768058,
			"0.009": 1.00611916857,
			"0.01": 1.33148364918,
			"0.011": 2.00058942868,
			"0.012": 1.0699918587,
			"0.013": 2.7090424668,
			"0.014": 6.20890201018,
			"0.015": 1.72734952379,
			"0.016": 0.0,
			"0.017": 0.0,
			"0.018": 0.0,
			"0.019": 0.0,
			"0.02": 0.0,
			"0.021": 0.0,
			"0.022": 0.0,
			"0.023": 0.0,
			"0.024": 0.0,
			"0.025": 0.0
		}
	}
}
