{
	 "smiles": "OCC1=C(OCC(O)=O)C=CC(Cl)=C1", 
	 "Tm": 414.15, 
	 "num_atms": 23, 
	 "gaussian": { 
		 "optdone": 1, 
		 "sigma_profile": "yes", 
		 "theory": "DFT", 
		 "functional": "B3LYP", 
		 "basiset": "6-31G**", 
		 "properties": { 
			 "R2extent": 4415.6782, 
			 "electric_dipole_moment_norm": 4.18635847724, 
			 "electric_quadrupole_moment_norm": 13.0498388381, 
			 "total_energy": -1109.45630579, 
			 "HOMO_LUMO_gap": 0.21486, 
			 "cosmo_polarized_energy": -16.26, 
			 "cosmo_cavitation_energy": 29.41, 
			 "cosmo_dispersion_energy": -21.34, 
			 "cosmo_repulsion_energy": 1.71, 
			 "cosmo_total_nonelectrostatic_energy": 9.78, 
			 "SMD_solvation_energy": 6.17 
		},
		"coords": [
			{
				"x": 0.6292590404,
				"y": 1.0336639769,
				"z": -3.3119947804,
				"element": "O" 
			},
			{
				"x": -0.0500735994,
				"y": 0.7515812559,
				"z": -2.0982096302,
				"element": "C" 
			},
			{
				"x": 0.8380975986,
				"y": 0.8511192612,
				"z": -0.8700461659,
				"element": "C" 
			},
			{
				"x": 0.3917694746,
				"y": 0.3765481903,
				"z": 0.3731106554,
				"element": "C" 
			},
			{
				"x": -0.8399815067,
				"y": -0.2591860577,
				"z": 0.395835572,
				"element": "O" 
			},
			{
				"x": -1.766196759,
				"y": 0.1236574974,
				"z": 1.3839552903,
				"element": "C" 
			},
			{
				"x": -2.4448855154,
				"y": 1.4507956393,
				"z": 1.0589116518,
				"element": "C" 
			},
			{
				"x": -3.3056778538,
				"y": 1.7834554235,
				"z": 2.047038176,
				"element": "O" 
			},
			{
				"x": -2.2650521716,
				"y": 2.1209037526,
				"z": 0.0709149377,
				"element": "O" 
			},
			{
				"x": 1.1980274511,
				"y": 0.4724166847,
				"z": 1.507597685,
				"element": "C" 
			},
			{
				"x": 2.4590926067,
				"y": 1.0652821658,
				"z": 1.4240290893,
				"element": "C" 
			},
			{
				"x": 2.8971419632,
				"y": 1.5445282913,
				"z": 0.192898675,
				"element": "C" 
			},
			{
				"x": 4.484996343,
				"y": 2.2952842357,
				"z": 0.0719102668,
				"element": "Cl" 
			},
			{
				"x": 2.1011648568,
				"y": 1.4395988956,
				"z": -0.9469094181,
				"element": "C" 
			},
			{
				"x": 1.2523129012,
				"y": 0.3132061518,
				"z": -3.4749926241,
				"element": "H" 
			},
			{
				"x": -0.5329634266,
				"y": -0.2348177821,
				"z": -2.1226197094,
				"element": "H" 
			},
			{
				"x": -0.8540783539,
				"y": 1.4887350716,
				"z": -2.0107941047,
				"element": "H" 
			},
			{
				"x": -1.327975254,
				"y": 0.1938141974,
				"z": 2.3867484798,
				"element": "H" 
			},
			{
				"x": -2.5340295978,
				"y": -0.6555058288,
				"z": 1.4221649262,
				"element": "H" 
			},
			{
				"x": -3.7177654839,
				"y": 2.6247322897,
				"z": 1.7868023453,
				"element": "H" 
			},
			{
				"x": 0.859955804,
				"y": 0.0703246245,
				"z": 2.4573694436,
				"element": "H" 
			},
			{
				"x": 3.0920644579,
				"y": 1.142521603,
				"z": 2.3007633422,
				"element": "H" 
			},
			{
				"x": 2.4418970247,
				"y": 1.8256404604,
				"z": -1.9004841036,
				"element": "H" 
			}
		],
		 "valence_orbital": [ 
			{
				"type": "occ",
				"energy": -0.30739,
				"method": "rhf"
			},
			{
				"type": "occ",
				"energy": -0.29168,
				"method": "rhf"
			},
			{
				"type": "occ",
				"energy": -0.27503,
				"method": "rhf"
			},
			{
				"type": "occ",
				"energy": -0.25626,
				"method": "rhf"
			},
			{
				"type": "occ",
				"energy": -0.22824,
				"method": "rhf"
			},
			{
				"type": "unocc",
				"energy": -0.01338,
				"method": "rhf"
			},
			{
				"type": "unocc",
				"energy": -0.0106,
				"method": "rhf"
			},
			{
				"type": "unocc",
				"energy": -0.00366,
				"method": "rhf"
			},
			{
				"type": "unocc",
				"energy": 0.03418,
				"method": "rhf"
			},
			{
				"type": "unocc",
				"energy": 0.06163,
				"method": "rhf"
			}
		],
		"cosmo_sigma_profile": { 
			"-0.025": 0.0,
			"-0.024": 0.0,
			"-0.023": 0.0,
			"-0.022": 0.0,
			"-0.021": 0.0,
			"-0.02": 0.0,
			"-0.019": 0.354797451285,
			"-0.018": 0.786181580872,
			"-0.017": 1.06610384973,
			"-0.016": 1.47389468443,
			"-0.015": 1.95986512716,
			"-0.014": 1.55561399738,
			"-0.013": 1.4454682864,
			"-0.012": 1.02180235996,
			"-0.011": 1.71432141905,
			"-0.01": 1.87505238241,
			"-0.009": 4.95438158337,
			"-0.008": 8.63011295283,
			"-0.007": 8.89488589908,
			"-0.006": 10.2951648737,
			"-0.005": 10.3248140172,
			"-0.004": 10.1460958733,
			"-0.003": 10.34746224,
			"-0.002": 10.1144902462,
			"-0.001": 13.3932488787,
			"0.0": 11.2037097715,
			"0.001": 13.6870045313,
			"0.002": 19.7267528105,
			"0.003": 23.0664221331,
			"0.004": 18.0807649302,
			"0.005": 15.2189728397,
			"0.006": 6.89639455167,
			"0.007": 6.45221551192,
			"0.008": 5.3272375642,
			"0.009": 3.86599760174,
			"0.01": 3.95497890674,
			"0.011": 3.29780127582,
			"0.012": 1.22731313616,
			"0.013": 2.05234387868,
			"0.014": 1.44382944862,
			"0.015": 0.0,
			"0.016": 0.0,
			"0.017": 0.0,
			"0.018": 0.0,
			"0.019": 0.0,
			"0.02": 0.0,
			"0.021": 0.0,
			"0.022": 0.0,
			"0.023": 0.0,
			"0.024": 0.0,
			"0.025": 0.0
		}
	}
}
