{
	 "smiles": "CC1=CC(C)=C(O)C(C)=C1", 
	 "Tm": 345.65, 
	 "num_atms": 22, 
	 "gaussian": { 
		 "optdone": 1, 
		 "sigma_profile": "yes", 
		 "theory": "DFT", 
		 "functional": "B3LYP", 
		 "basiset": "6-31G**", 
		 "properties": { 
			 "R2extent": 1608.4738, 
			 "electric_dipole_moment_norm": 1.37066185837, 
			 "electric_quadrupole_moment_norm": 7.33032370295, 
			 "total_energy": -425.431681586, 
			 "HOMO_LUMO_gap": 0.21377, 
			 "cosmo_polarized_energy": -6.92, 
			 "cosmo_cavitation_energy": 24.47, 
			 "cosmo_dispersion_energy": -18.05, 
			 "cosmo_repulsion_energy": 1.46, 
			 "cosmo_total_nonelectrostatic_energy": 7.88, 
			 "SMD_solvation_energy": 4.5 
		},
		"coords": [
			{
				"x": -3.0913021537,
				"y": -1.0478147265,
				"z": -0.6078074554,
				"element": "C" 
			},
			{
				"x": -1.6545757376,
				"y": -0.6249017602,
				"z": -0.4037895159,
				"element": "C" 
			},
			{
				"x": -0.6370663245,
				"y": -1.579380481,
				"z": -0.2672143993,
				"element": "C" 
			},
			{
				"x": 0.7004876323,
				"y": -1.2235611564,
				"z": -0.092451357,
				"element": "C" 
			},
			{
				"x": 1.7911090678,
				"y": -2.2537889589,
				"z": 0.0554460098,
				"element": "C" 
			},
			{
				"x": 1.0213435629,
				"y": 0.1441238399,
				"z": -0.0533249391,
				"element": "C" 
			},
			{
				"x": 2.3481372843,
				"y": 0.4552369527,
				"z": 0.121846186,
				"element": "O" 
			},
			{
				"x": 0.0345640374,
				"y": 1.1318391598,
				"z": -0.1837224297,
				"element": "C" 
			},
			{
				"x": 0.4069371174,
				"y": 2.5956253938,
				"z": -0.1338912406,
				"element": "C" 
			},
			{
				"x": -1.2936316172,
				"y": 0.7229351444,
				"z": -0.3572255045,
				"element": "C" 
			},
			{
				"x": -3.4034450252,
				"y": -1.7873720452,
				"z": 0.1382580238,
				"element": "H" 
			},
			{
				"x": -3.7718553382,
				"y": -0.1944286419,
				"z": -0.5349166897,
				"element": "H" 
			},
			{
				"x": -3.2417051872,
				"y": -1.5048236949,
				"z": -1.5938557211,
				"element": "H" 
			},
			{
				"x": -0.8918599928,
				"y": -2.6371305488,
				"z": -0.2967001426,
				"element": "H" 
			},
			{
				"x": 2.5482151369,
				"y": -2.1475775568,
				"z": -0.7295800937,
				"element": "H" 
			},
			{
				"x": 2.3175441778,
				"y": -2.1422840302,
				"z": 1.0100149526,
				"element": "H" 
			},
			{
				"x": 1.381847171,
				"y": -3.26625583,
				"z": 0.0042134281,
				"element": "H" 
			},
			{
				"x": 2.4517156328,
				"y": 1.4144515896,
				"z": 0.1343624767,
				"element": "H" 
			},
			{
				"x": -0.4777978168,
				"y": 3.2261366341,
				"z": -0.2497140972,
				"element": "H" 
			},
			{
				"x": 1.1055858317,
				"y": 2.8738766508,
				"z": -0.9354633662,
				"element": "H" 
			},
			{
				"x": 0.8749866981,
				"y": 2.872826436,
				"z": 0.8211766121,
				"element": "H" 
			},
			{
				"x": -2.0631341572,
				"y": 1.4856676297,
				"z": -0.4576607371,
				"element": "H" 
			}
		],
		 "valence_orbital": [ 
			{
				"type": "occ",
				"energy": -0.33584,
				"method": "rhf"
			},
			{
				"type": "occ",
				"energy": -0.32233,
				"method": "rhf"
			},
			{
				"type": "occ",
				"energy": -0.31105,
				"method": "rhf"
			},
			{
				"type": "occ",
				"energy": -0.23026,
				"method": "rhf"
			},
			{
				"type": "occ",
				"energy": -0.20278,
				"method": "rhf"
			},
			{
				"type": "unocc",
				"energy": 0.01099,
				"method": "rhf"
			},
			{
				"type": "unocc",
				"energy": 0.02163,
				"method": "rhf"
			},
			{
				"type": "unocc",
				"energy": 0.0678,
				"method": "rhf"
			},
			{
				"type": "unocc",
				"energy": 0.10781,
				"method": "rhf"
			},
			{
				"type": "unocc",
				"energy": 0.12975,
				"method": "rhf"
			}
		],
		"cosmo_sigma_profile": { 
			"-0.025": 0.0,
			"-0.024": 0.0,
			"-0.023": 0.0,
			"-0.022": 0.0,
			"-0.021": 0.0,
			"-0.02": 0.0,
			"-0.019": 0.0,
			"-0.018": 0.0,
			"-0.017": 0.0,
			"-0.016": 0.105906299433,
			"-0.015": 0.717804671174,
			"-0.014": 0.677445508081,
			"-0.013": 1.47912808823,
			"-0.012": 0.533648152401,
			"-0.011": 0.739548433257,
			"-0.01": 1.08322952369,
			"-0.009": 1.58252937982,
			"-0.008": 1.27639988178,
			"-0.007": 1.48481982512,
			"-0.006": 1.66075011358,
			"-0.005": 4.86969258863,
			"-0.004": 15.7999025298,
			"-0.003": 20.0614571346,
			"-0.002": 17.8010294476,
			"-0.001": 21.2673479153,
			"0.0": 24.1610745663,
			"0.001": 17.7028112586,
			"0.002": 9.51932387896,
			"0.003": 9.21083782115,
			"0.004": 8.30405278601,
			"0.005": 8.96776472746,
			"0.006": 8.1213372936,
			"0.007": 7.53182044027,
			"0.008": 2.19655421009,
			"0.009": 1.48091423749,
			"0.01": 2.02464330039,
			"0.011": 1.53208976881,
			"0.012": 0.0871927164706,
			"0.013": 0.0,
			"0.014": 0.0,
			"0.015": 0.0,
			"0.016": 0.0,
			"0.017": 0.0,
			"0.018": 0.0,
			"0.019": 0.0,
			"0.02": 0.0,
			"0.021": 0.0,
			"0.022": 0.0,
			"0.023": 0.0,
			"0.024": 0.0,
			"0.025": 0.0
		}
	}
}
