{
	 "smiles": "CC(=O)C1=C2CCC3=CC=CC(C=C1)=C23", 
	 "Tm": 378.15, 
	 "num_atms": 27, 
	 "gaussian": { 
		 "optdone": 1, 
		 "sigma_profile": "yes", 
		 "theory": "DFT", 
		 "functional": "B3LYP", 
		 "basiset": "6-31G**", 
		 "properties": { 
			 "R2extent": 3541.5872, 
			 "electric_dipole_moment_norm": 2.17589415873, 
			 "electric_quadrupole_moment_norm": 12.3711547974, 
			 "total_energy": -615.969006189, 
			 "HOMO_LUMO_gap": 0.1558, 
			 "cosmo_polarized_energy": -8.17, 
			 "cosmo_cavitation_energy": 29.46, 
			 "cosmo_dispersion_energy": -21.91, 
			 "cosmo_repulsion_energy": 1.68, 
			 "cosmo_total_nonelectrostatic_energy": 9.22, 
			 "SMD_solvation_energy": 4.7 
		},
		"coords": [
			{
				"x": -4.6140405229,
				"y": 1.0877030847,
				"z": -0.8080953806,
				"element": "C" 
			},
			{
				"x": -3.0961324411,
				"y": 1.0829410788,
				"z": -0.9173390359,
				"element": "C" 
			},
			{
				"x": -2.5433201295,
				"y": 1.7588084687,
				"z": -1.7780287754,
				"element": "O" 
			},
			{
				"x": -2.3044007543,
				"y": 0.2509683449,
				"z": 0.03045614,
				"element": "C" 
			},
			{
				"x": -0.9145064096,
				"y": 0.2263406955,
				"z": -0.0449240131,
				"element": "C" 
			},
			{
				"x": 0.0671605922,
				"y": 0.9239652183,
				"z": -0.9641097259,
				"element": "C" 
			},
			{
				"x": 1.4793136484,
				"y": 0.4434341108,
				"z": -0.4893897678,
				"element": "C" 
			},
			{
				"x": 1.2029275506,
				"y": -0.4954615237,
				"z": 0.668960314,
				"element": "C" 
			},
			{
				"x": 2.0310615693,
				"y": -1.2272142547,
				"z": 1.4926380656,
				"element": "C" 
			},
			{
				"x": 1.4487104127,
				"y": -2.0310826801,
				"z": 2.5104763096,
				"element": "C" 
			},
			{
				"x": 0.0799186342,
				"y": -2.10690624,
				"z": 2.7059183847,
				"element": "C" 
			},
			{
				"x": -0.7980264,
				"y": -1.3647369258,
				"z": 1.8733953145,
				"element": "C" 
			},
			{
				"x": -2.2197314164,
				"y": -1.3253366937,
				"z": 1.9332514877,
				"element": "C" 
			},
			{
				"x": -2.9295171828,
				"y": -0.5469953692,
				"z": 1.044237244,
				"element": "C" 
			},
			{
				"x": -0.1945041127,
				"y": -0.57264528,
				"z": 0.868288542,
				"element": "C" 
			},
			{
				"x": -5.0241848515,
				"y": 0.0811258578,
				"z": -0.9463292599,
				"element": "H" 
			},
			{
				"x": -4.9392797219,
				"y": 1.439484948,
				"z": 0.1772859819,
				"element": "H" 
			},
			{
				"x": -5.013580645,
				"y": 1.7490149872,
				"z": -1.5774570081,
				"element": "H" 
			},
			{
				"x": -0.0473073465,
				"y": 2.0106152884,
				"z": -0.9057777763,
				"element": "H" 
			},
			{
				"x": -0.1311691259,
				"y": 0.6731801004,
				"z": -2.010555995,
				"element": "H" 
			},
			{
				"x": 2.0223364644,
				"y": -0.0653186446,
				"z": -1.2942950806,
				"element": "H" 
			},
			{
				"x": 2.1072329915,
				"y": 1.2864206108,
				"z": -0.1784875766,
				"element": "H" 
			},
			{
				"x": 3.1116363802,
				"y": -1.2026202269,
				"z": 1.3810083975,
				"element": "H" 
			},
			{
				"x": 2.1059240165,
				"y": -2.6061838861,
				"z": 3.1573712358,
				"element": "H" 
			},
			{
				"x": -0.3252244737,
				"y": -2.7336544779,
				"z": 3.4957769943,
				"element": "H" 
			},
			{
				"x": -2.7446229484,
				"y": -1.9114368504,
				"z": 2.6828469203,
				"element": "H" 
			},
			{
				"x": -4.0121737779,
				"y": -0.5397097413,
				"z": 1.1172780633,
				"element": "H" 
			}
		],
		 "valence_orbital": [ 
			{
				"type": "occ",
				"energy": -0.31602,
				"method": "rhf"
			},
			{
				"type": "occ",
				"energy": -0.2793,
				"method": "rhf"
			},
			{
				"type": "occ",
				"energy": -0.24709,
				"method": "rhf"
			},
			{
				"type": "occ",
				"energy": -0.23999,
				"method": "rhf"
			},
			{
				"type": "occ",
				"energy": -0.21112,
				"method": "rhf"
			},
			{
				"type": "unocc",
				"energy": -0.05532,
				"method": "rhf"
			},
			{
				"type": "unocc",
				"energy": -0.02935,
				"method": "rhf"
			},
			{
				"type": "unocc",
				"energy": 0.02163,
				"method": "rhf"
			},
			{
				"type": "unocc",
				"energy": 0.03147,
				"method": "rhf"
			},
			{
				"type": "unocc",
				"energy": 0.09585,
				"method": "rhf"
			}
		],
		"cosmo_sigma_profile": { 
			"-0.025": 0.0,
			"-0.024": 0.0,
			"-0.023": 0.0,
			"-0.022": 0.0,
			"-0.021": 0.0,
			"-0.02": 0.0,
			"-0.019": 0.0,
			"-0.018": 0.0,
			"-0.017": 0.0,
			"-0.016": 0.0,
			"-0.015": 0.0,
			"-0.014": 0.0,
			"-0.013": 0.0,
			"-0.012": 0.0,
			"-0.011": 0.0,
			"-0.01": 0.0,
			"-0.009": 0.0,
			"-0.008": 0.0,
			"-0.007": 0.0861789641909,
			"-0.006": 10.0447209479,
			"-0.005": 20.248191326,
			"-0.004": 23.4125459812,
			"-0.003": 25.0790097367,
			"-0.002": 22.1859739589,
			"-0.001": 23.0042109523,
			"0.0": 17.1527764837,
			"0.001": 12.8103438015,
			"0.002": 14.4398145029,
			"0.003": 18.2259739464,
			"0.004": 19.1079451676,
			"0.005": 11.7182196048,
			"0.006": 2.22830115452,
			"0.007": 2.00830339466,
			"0.008": 1.47736410783,
			"0.009": 1.25154035169,
			"0.01": 2.39338181175,
			"0.011": 1.95615629596,
			"0.012": 2.50003305825,
			"0.013": 2.44905080492,
			"0.014": 0.742577818235,
			"0.015": 0.0,
			"0.016": 0.0,
			"0.017": 0.0,
			"0.018": 0.0,
			"0.019": 0.0,
			"0.02": 0.0,
			"0.021": 0.0,
			"0.022": 0.0,
			"0.023": 0.0,
			"0.024": 0.0,
			"0.025": 0.0
		}
	}
}
