{
	 "smiles": "CC(C)OC(=O)N=NC(=O)OC(C)C", 
	 "Tm": 277.15, 
	 "num_atms": 28, 
	 "gaussian": { 
		 "optdone": 1, 
		 "sigma_profile": "yes", 
		 "theory": "DFT", 
		 "functional": "B3LYP", 
		 "basiset": "6-31G**", 
		 "properties": { 
			 "R2extent": 3805.5031, 
			 "electric_dipole_moment_norm": 2.90118477006, 
			 "electric_quadrupole_moment_norm": 15.3480487144, 
			 "total_energy": -723.652459277, 
			 "HOMO_LUMO_gap": 0.14861, 
			 "cosmo_polarized_energy": -9.77, 
			 "cosmo_cavitation_energy": 32.59, 
			 "cosmo_dispersion_energy": -22.21, 
			 "cosmo_repulsion_energy": 1.8, 
			 "cosmo_total_nonelectrostatic_energy": 12.19, 
			 "SMD_solvation_energy": 5.43 
		},
		"coords": [
			{
				"x": -3.2361274976,
				"y": -2.1064699783,
				"z": 1.3750950953,
				"element": "C" 
			},
			{
				"x": -2.0123362804,
				"y": -1.4201852164,
				"z": 1.972188985,
				"element": "C" 
			},
			{
				"x": -0.7369212249,
				"y": -2.2559767582,
				"z": 1.9437623052,
				"element": "C" 
			},
			{
				"x": -1.7974579839,
				"y": -0.1006700422,
				"z": 1.3529857236,
				"element": "O" 
			},
			{
				"x": -1.4372556515,
				"y": -0.0213185542,
				"z": 0.0831021597,
				"element": "C" 
			},
			{
				"x": -1.3386466179,
				"y": -0.8954135435,
				"z": -0.7476755152,
				"element": "O" 
			},
			{
				"x": -1.3310760251,
				"y": 1.3982666749,
				"z": -0.2694390899,
				"element": "N" 
			},
			{
				"x": -0.2865587317,
				"y": 1.828021084,
				"z": -0.7786126858,
				"element": "N" 
			},
			{
				"x": 0.8872934734,
				"y": 0.9494698833,
				"z": -0.8304819476,
				"element": "C" 
			},
			{
				"x": 1.3205872235,
				"y": 0.3668016575,
				"z": 0.1379106762,
				"element": "O" 
			},
			{
				"x": 1.4166107875,
				"y": 1.0345297524,
				"z": -2.0410046182,
				"element": "O" 
			},
			{
				"x": 2.6401007521,
				"y": 0.2593187077,
				"z": -2.287524645,
				"element": "C" 
			},
			{
				"x": 2.6390470056,
				"y": -0.0432838803,
				"z": -3.7774473774,
				"element": "C" 
			},
			{
				"x": 3.8415709162,
				"y": 1.0705021183,
				"z": -1.8185084711,
				"element": "C" 
			},
			{
				"x": -4.1039717808,
				"y": -1.4413925728,
				"z": 1.4048714722,
				"element": "H" 
			},
			{
				"x": -3.0542140189,
				"y": -2.4083362887,
				"z": 0.3421299107,
				"element": "H" 
			},
			{
				"x": -3.4711869566,
				"y": -2.9985523058,
				"z": 1.9648403789,
				"element": "H" 
			},
			{
				"x": -2.2285562988,
				"y": -1.1280772242,
				"z": 3.0035328898,
				"element": "H" 
			},
			{
				"x": -0.5122202566,
				"y": -2.6040793064,
				"z": 0.9342331652,
				"element": "H" 
			},
			{
				"x": 0.1115869135,
				"y": -1.6723299654,
				"z": 2.3103727001,
				"element": "H" 
			},
			{
				"x": -0.8659451629,
				"y": -3.1264127774,
				"z": 2.5951651284,
				"element": "H" 
			},
			{
				"x": 2.5583900667,
				"y": -0.6610401452,
				"z": -1.7023327348,
				"element": "H" 
			},
			{
				"x": 1.7403477513,
				"y": -0.5972277825,
				"z": -4.0607623008,
				"element": "H" 
			},
			{
				"x": 3.5143255475,
				"y": -0.6483214147,
				"z": -4.0326481272,
				"element": "H" 
			},
			{
				"x": 2.6761922648,
				"y": 0.8814447889,
				"z": -4.3613388625,
				"element": "H" 
			},
			{
				"x": 3.8946059844,
				"y": 2.0244277289,
				"z": -2.3522429595,
				"element": "H" 
			},
			{
				"x": 3.7820379754,
				"y": 1.265112751,
				"z": -0.7451224179,
				"element": "H" 
			},
			{
				"x": 4.7634778258,
				"y": 0.5134926093,
				"z": -2.0140488376,
				"element": "H" 
			}
		],
		 "valence_orbital": [ 
			{
				"type": "occ",
				"energy": -0.3235,
				"method": "rhf"
			},
			{
				"type": "occ",
				"energy": -0.31593,
				"method": "rhf"
			},
			{
				"type": "occ",
				"energy": -0.31087,
				"method": "rhf"
			},
			{
				"type": "occ",
				"energy": -0.30314,
				"method": "rhf"
			},
			{
				"type": "occ",
				"energy": -0.24003,
				"method": "rhf"
			},
			{
				"type": "unocc",
				"energy": -0.09142,
				"method": "rhf"
			},
			{
				"type": "unocc",
				"energy": 0.00801,
				"method": "rhf"
			},
			{
				"type": "unocc",
				"energy": 0.03025,
				"method": "rhf"
			},
			{
				"type": "unocc",
				"energy": 0.08689,
				"method": "rhf"
			},
			{
				"type": "unocc",
				"energy": 0.0907,
				"method": "rhf"
			}
		],
		"cosmo_sigma_profile": { 
			"-0.025": 0.0,
			"-0.024": 0.0,
			"-0.023": 0.0,
			"-0.022": 0.0,
			"-0.021": 0.0,
			"-0.02": 0.0,
			"-0.019": 0.0,
			"-0.018": 0.0,
			"-0.017": 0.0,
			"-0.016": 0.0,
			"-0.015": 0.0,
			"-0.014": 0.0,
			"-0.013": 0.0,
			"-0.012": 0.0,
			"-0.011": 0.0,
			"-0.01": 0.0,
			"-0.009": 0.0,
			"-0.008": 0.0,
			"-0.007": 0.648321817984,
			"-0.006": 4.79820753047,
			"-0.005": 20.2355418217,
			"-0.004": 27.9323737015,
			"-0.003": 28.8912616791,
			"-0.002": 28.673380159,
			"-0.001": 34.2255057425,
			"0.0": 26.7377850949,
			"0.001": 10.3512840905,
			"0.002": 8.8323719003,
			"0.003": 10.267106757,
			"0.004": 9.3392137636,
			"0.005": 8.01955930555,
			"0.006": 9.06343869495,
			"0.007": 9.63592422078,
			"0.008": 5.31246779236,
			"0.009": 6.86508002596,
			"0.01": 5.808306618,
			"0.011": 0.39816846783,
			"0.012": 0.0,
			"0.013": 0.0,
			"0.014": 0.0,
			"0.015": 0.0,
			"0.016": 0.0,
			"0.017": 0.0,
			"0.018": 0.0,
			"0.019": 0.0,
			"0.02": 0.0,
			"0.021": 0.0,
			"0.022": 0.0,
			"0.023": 0.0,
			"0.024": 0.0,
			"0.025": 0.0
		}
	}
}
