{
	 "smiles": "CCCC1NN2C(S1)=NN=C2C1=CC=CC(=C1)[N+]([O-])=O", 
	 "Tm": 402.15, 
	 "num_atms": 33, 
	 "gaussian": { 
		 "optdone": 1, 
		 "sigma_profile": "yes", 
		 "theory": "DFT", 
		 "functional": "B3LYP", 
		 "basiset": "6-31G**", 
		 "properties": { 
			 "R2extent": 7367.7003, 
			 "electric_dipole_moment_norm": 2.6324824064, 
			 "electric_quadrupole_moment_norm": 32.7942100364, 
			 "total_energy": -1287.34688532, 
			 "HOMO_LUMO_gap": 0.13843, 
			 "cosmo_polarized_energy": -21.04, 
			 "cosmo_cavitation_energy": 38.92, 
			 "cosmo_dispersion_energy": -27.82, 
			 "cosmo_repulsion_energy": 2.08, 
			 "cosmo_total_nonelectrostatic_energy": 13.17, 
			 "SMD_solvation_energy": 5.86 
		},
		"coords": [
			{
				"x": -3.7552538701,
				"y": -4.038105618,
				"z": 0.0236020218,
				"element": "C" 
			},
			{
				"x": -3.0281671828,
				"y": -3.3248356886,
				"z": -1.1232857646,
				"element": "C" 
			},
			{
				"x": -1.9227448,
				"y": -2.3575899174,
				"z": -0.6739231523,
				"element": "C" 
			},
			{
				"x": -2.4026334836,
				"y": -1.1658379587,
				"z": 0.1554742274,
				"element": "C" 
			},
			{
				"x": -1.2766846281,
				"y": -0.333717247,
				"z": 0.6073598425,
				"element": "N" 
			},
			{
				"x": -1.0515090134,
				"y": 0.5858691773,
				"z": -0.436340138,
				"element": "N" 
			},
			{
				"x": -2.1033734495,
				"y": 0.9033708078,
				"z": -1.2534314631,
				"element": "C" 
			},
			{
				"x": -3.5499506684,
				"y": -0.0096839329,
				"z": -0.8438461084,
				"element": "S" 
			},
			{
				"x": -1.7469765859,
				"y": 1.7830165596,
				"z": -2.1553164263,
				"element": "N" 
			},
			{
				"x": -0.4134049926,
				"y": 2.0644766271,
				"z": -1.9098324114,
				"element": "N" 
			},
			{
				"x": 0.0104684458,
				"y": 1.3361829183,
				"z": -0.8896118212,
				"element": "C" 
			},
			{
				"x": 1.3748815186,
				"y": 1.3472088885,
				"z": -0.3604764537,
				"element": "C" 
			},
			{
				"x": 2.2988937075,
				"y": 2.2578823517,
				"z": -0.9081954338,
				"element": "C" 
			},
			{
				"x": 3.6103171434,
				"y": 2.3013667764,
				"z": -0.4437674601,
				"element": "C" 
			},
			{
				"x": 4.0318096896,
				"y": 1.4443740389,
				"z": 0.5738462318,
				"element": "C" 
			},
			{
				"x": 3.1055113387,
				"y": 0.5497570424,
				"z": 1.1029936197,
				"element": "C" 
			},
			{
				"x": 1.7878758495,
				"y": 0.4805995942,
				"z": 0.6591081205,
				"element": "C" 
			},
			{
				"x": 3.5319040229,
				"y": -0.3632145485,
				"z": 2.178377848,
				"element": "N" 
			},
			{
				"x": 4.7028762103,
				"y": -0.2997174811,
				"z": 2.5495054031,
				"element": "O" 
			},
			{
				"x": 2.6908152166,
				"y": -1.1334146422,
				"z": 2.6417365169,
				"element": "O" 
			},
			{
				"x": -3.0508834952,
				"y": -4.5743838185,
				"z": 0.6697086765,
				"element": "H" 
			},
			{
				"x": -4.3223642548,
				"y": -3.3439193225,
				"z": 0.6541199471,
				"element": "H" 
			},
			{
				"x": -4.4696963587,
				"y": -4.769317379,
				"z": -0.3664437152,
				"element": "H" 
			},
			{
				"x": -3.7508553563,
				"y": -2.7876494387,
				"z": -1.7489071704,
				"element": "H" 
			},
			{
				"x": -2.5643804361,
				"y": -4.0746784928,
				"z": -1.7743758185,
				"element": "H" 
			},
			{
				"x": -1.3793725876,
				"y": -1.9825451654,
				"z": -1.5484041992,
				"element": "H" 
			},
			{
				"x": -1.1928082091,
				"y": -2.8911334114,
				"z": -0.050899159,
				"element": "H" 
			},
			{
				"x": -2.9585049267,
				"y": -1.4867345604,
				"z": 1.0376263806,
				"element": "H" 
			},
			{
				"x": -1.5664452849,
				"y": 0.2120563563,
				"z": 1.4220361461,
				"element": "H" 
			},
			{
				"x": 1.9640596259,
				"y": 2.91977836,
				"z": -1.6992295013,
				"element": "H" 
			},
			{
				"x": 4.3111645134,
				"y": 3.0087154651,
				"z": -0.875281232,
				"element": "H" 
			},
			{
				"x": 5.0440463043,
				"y": 1.4566547768,
				"z": 0.9573083059,
				"element": "H" 
			},
			{
				"x": 1.1153859971,
				"y": -0.2438311174,
				"z": 1.0996641411,
				"element": "H" 
			}
		],
		 "valence_orbital": [ 
			{
				"type": "occ",
				"energy": -0.29009,
				"method": "rhf"
			},
			{
				"type": "occ",
				"energy": -0.28615,
				"method": "rhf"
			},
			{
				"type": "occ",
				"energy": -0.27874,
				"method": "rhf"
			},
			{
				"type": "occ",
				"energy": -0.26407,
				"method": "rhf"
			},
			{
				"type": "occ",
				"energy": -0.23184,
				"method": "rhf"
			},
			{
				"type": "unocc",
				"energy": -0.09341,
				"method": "rhf"
			},
			{
				"type": "unocc",
				"energy": -0.05567,
				"method": "rhf"
			},
			{
				"type": "unocc",
				"energy": -0.01982,
				"method": "rhf"
			},
			{
				"type": "unocc",
				"energy": -0.00951,
				"method": "rhf"
			},
			{
				"type": "unocc",
				"energy": 0.01724,
				"method": "rhf"
			}
		],
		"cosmo_sigma_profile": { 
			"-0.025": 0.0,
			"-0.024": 0.0,
			"-0.023": 0.0,
			"-0.022": 0.0,
			"-0.021": 0.0,
			"-0.02": 0.0,
			"-0.019": 0.0,
			"-0.018": 0.0,
			"-0.017": 0.0,
			"-0.016": 0.22477319923,
			"-0.015": 2.20987680826,
			"-0.014": 1.85480298804,
			"-0.013": 1.77752043986,
			"-0.012": 1.75851151597,
			"-0.011": 2.00878041383,
			"-0.01": 1.70740181746,
			"-0.009": 2.67224909524,
			"-0.008": 5.19192796052,
			"-0.007": 9.96277493329,
			"-0.006": 10.9596154095,
			"-0.005": 11.816515347,
			"-0.004": 17.1549000565,
			"-0.003": 23.6007970629,
			"-0.002": 30.7494096176,
			"-0.001": 31.607641831,
			"0.0": 36.7821756432,
			"0.001": 28.5519822662,
			"0.002": 14.5316118881,
			"0.003": 8.98512762358,
			"0.004": 9.03657224602,
			"0.005": 7.42993498087,
			"0.006": 7.64209572725,
			"0.007": 10.2441011087,
			"0.008": 8.72553067223,
			"0.009": 6.29301578332,
			"0.01": 4.32609503017,
			"0.011": 2.61417457524,
			"0.012": 2.47332772606,
			"0.013": 4.31035312921,
			"0.014": 2.44259015925,
			"0.015": 1.74949787624,
			"0.016": 0.924116067501,
			"0.017": 0.0669612167088,
			"0.018": 0.0,
			"0.019": 0.0,
			"0.02": 0.0,
			"0.021": 0.0,
			"0.022": 0.0,
			"0.023": 0.0,
			"0.024": 0.0,
			"0.025": 0.0
		}
	}
}
