{
	 "smiles": "OC(=O)C1=CC=C(C=C1)C1(CC1)C#N", 
	 "Tm": 493.15, 
	 "num_atms": 23, 
	 "gaussian": { 
		 "optdone": 1, 
		 "sigma_profile": "yes", 
		 "theory": "DFT", 
		 "functional": "B3LYP", 
		 "basiset": "6-31G**", 
		 "properties": { 
			 "R2extent": 3636.677, 
			 "electric_dipole_moment_norm": 5.61735429629, 
			 "electric_quadrupole_moment_norm": 21.4379779252, 
			 "total_energy": -629.753027873, 
			 "HOMO_LUMO_gap": 0.20745, 
			 "cosmo_polarized_energy": -20.61, 
			 "cosmo_cavitation_energy": 28.8, 
			 "cosmo_dispersion_energy": -19.86, 
			 "cosmo_repulsion_energy": 1.57, 
			 "cosmo_total_nonelectrostatic_energy": 10.5, 
			 "SMD_solvation_energy": 7.3 
		},
		"coords": [
			{
				"x": -0.4429623865,
				"y": 3.3293374683,
				"z": -0.6913851801,
				"element": "O" 
			},
			{
				"x": 0.3390069965,
				"y": 2.3566018578,
				"z": -1.2302232153,
				"element": "C" 
			},
			{
				"x": 1.0415958501,
				"y": 2.6039465169,
				"z": -2.1813902604,
				"element": "O" 
			},
			{
				"x": 0.2729556543,
				"y": 1.0001725456,
				"z": -0.5908309918,
				"element": "C" 
			},
			{
				"x": 0.7374947043,
				"y": -0.0905020585,
				"z": -1.3366141714,
				"element": "C" 
			},
			{
				"x": 0.7038275564,
				"y": -1.3747965642,
				"z": -0.8016174597,
				"element": "C" 
			},
			{
				"x": 0.2152409358,
				"y": -1.5949407513,
				"z": 0.492492801,
				"element": "C" 
			},
			{
				"x": -0.2223944585,
				"y": -0.5005215866,
				"z": 1.2489923941,
				"element": "C" 
			},
			{
				"x": -0.1949808939,
				"y": 0.7848676001,
				"z": 0.7134848234,
				"element": "C" 
			},
			{
				"x": 0.192822362,
				"y": -2.9826051408,
				"z": 1.0900572908,
				"element": "C" 
			},
			{
				"x": -0.3307704762,
				"y": -4.1601312488,
				"z": 0.2747870639,
				"element": "C" 
			},
			{
				"x": -1.1467461456,
				"y": -3.6426326914,
				"z": 1.4188270492,
				"element": "C" 
			},
			{
				"x": 1.284926439,
				"y": -3.2579270857,
				"z": 2.0022706197,
				"element": "C" 
			},
			{
				"x": 2.1594896275,
				"y": -3.4727289718,
				"z": 2.7374110589,
				"element": "N" 
			},
			{
				"x": -1.0583964268,
				"y": 2.9507024036,
				"z": -0.0488583192,
				"element": "H" 
			},
			{
				"x": 1.1228780379,
				"y": 0.0925115943,
				"z": -2.3337334332,
				"element": "H" 
			},
			{
				"x": 1.0641554056,
				"y": -2.2142282145,
				"z": -1.3885565307,
				"element": "H" 
			},
			{
				"x": -0.5777753375,
				"y": -0.6574503215,
				"z": 2.2631601137,
				"element": "H" 
			},
			{
				"x": -0.5071517469,
				"y": 1.6169285955,
				"z": 1.3401880712,
				"element": "H" 
			},
			{
				"x": 0.1778702839,
				"y": -5.1112278151,
				"z": 0.388116319,
				"element": "H" 
			},
			{
				"x": -0.6627289536,
				"y": -3.9356735281,
				"z": -0.7335830258,
				"element": "H" 
			},
			{
				"x": -2.0322897735,
				"y": -3.0566804497,
				"z": 1.1948299718,
				"element": "H" 
			},
			{
				"x": -1.2026672544,
				"y": -4.2329221539,
				"z": 2.327075011,
				"element": "H" 
			}
		],
		 "valence_orbital": [ 
			{
				"type": "occ",
				"energy": -0.32202,
				"method": "rhf"
			},
			{
				"type": "occ",
				"energy": -0.30018,
				"method": "rhf"
			},
			{
				"type": "occ",
				"energy": -0.28351,
				"method": "rhf"
			},
			{
				"type": "occ",
				"energy": -0.28306,
				"method": "rhf"
			},
			{
				"type": "occ",
				"energy": -0.27236,
				"method": "rhf"
			},
			{
				"type": "unocc",
				"energy": -0.06491,
				"method": "rhf"
			},
			{
				"type": "unocc",
				"energy": -0.03523,
				"method": "rhf"
			},
			{
				"type": "unocc",
				"energy": 0.02173,
				"method": "rhf"
			},
			{
				"type": "unocc",
				"energy": 0.02472,
				"method": "rhf"
			},
			{
				"type": "unocc",
				"energy": 0.0404,
				"method": "rhf"
			}
		],
		"cosmo_sigma_profile": { 
			"-0.025": 0.0,
			"-0.024": 0.0,
			"-0.023": 0.0,
			"-0.022": 0.0,
			"-0.021": 0.0,
			"-0.02": 0.0,
			"-0.019": 0.25825184535,
			"-0.018": 1.22013835575,
			"-0.017": 0.760783981225,
			"-0.016": 0.831681384786,
			"-0.015": 0.916250208394,
			"-0.014": 1.20599736498,
			"-0.013": 1.2872692294,
			"-0.012": 1.30569375099,
			"-0.011": 0.867296094271,
			"-0.01": 0.937048744701,
			"-0.009": 1.30044939372,
			"-0.008": 1.9413257737,
			"-0.007": 11.1610175794,
			"-0.006": 18.7943240781,
			"-0.005": 17.3858094344,
			"-0.004": 14.8765637499,
			"-0.003": 16.7666952236,
			"-0.002": 16.3855162938,
			"-0.001": 14.2229436656,
			"0.0": 11.9810421948,
			"0.001": 13.0979914925,
			"0.002": 16.8184362625,
			"0.003": 7.66755797348,
			"0.004": 5.07656103504,
			"0.005": 4.1248558502,
			"0.006": 4.86830735652,
			"0.007": 4.38076324914,
			"0.008": 6.43553022597,
			"0.009": 7.29139267599,
			"0.01": 7.47918423325,
			"0.011": 8.91006563656,
			"0.012": 6.83854077096,
			"0.013": 3.3774652632,
			"0.014": 0.41583317978,
			"0.015": 0.0,
			"0.016": 0.0,
			"0.017": 0.0,
			"0.018": 0.0,
			"0.019": 0.0,
			"0.02": 0.0,
			"0.021": 0.0,
			"0.022": 0.0,
			"0.023": 0.0,
			"0.024": 0.0,
			"0.025": 0.0
		}
	}
}
