{
	 "smiles": "CC1CCCCC1NC1=NN=C(S)S1", 
	 "Tm": 407.15, 
	 "num_atms": 29, 
	 "gaussian": { 
		 "optdone": 1, 
		 "sigma_profile": "yes", 
		 "theory": "DFT", 
		 "functional": "B3LYP", 
		 "basiset": "6-31G**", 
		 "properties": { 
			 "R2extent": 5430.5521, 
			 "electric_dipole_moment_norm": 4.6396398718, 
			 "electric_quadrupole_moment_norm": 13.4958320096, 
			 "total_energy": -1312.60676456, 
			 "HOMO_LUMO_gap": 0.19003, 
			 "cosmo_polarized_energy": -14.39, 
			 "cosmo_cavitation_energy": 33.34, 
			 "cosmo_dispersion_energy": -25.15, 
			 "cosmo_repulsion_energy": 1.9, 
			 "cosmo_total_nonelectrostatic_energy": 10.1, 
			 "SMD_solvation_energy": 2.04 
		},
		"coords": [
			{
				"x": 2.2668210419,
				"y": 0.0221276314,
				"z": 2.23792601,
				"element": "C" 
			},
			{
				"x": 1.3030232114,
				"y": 0.1709589619,
				"z": 1.0495206004,
				"element": "C" 
			},
			{
				"x": 2.0241380892,
				"y": 0.5570981204,
				"z": -0.2603263987,
				"element": "C" 
			},
			{
				"x": 2.8475478542,
				"y": -0.5956988305,
				"z": -0.8586932296,
				"element": "C" 
			},
			{
				"x": 1.9795423222,
				"y": -1.8448378485,
				"z": -1.0751161225,
				"element": "C" 
			},
			{
				"x": 1.2603070112,
				"y": -2.2598119066,
				"z": 0.220342031,
				"element": "C" 
			},
			{
				"x": 0.4498449591,
				"y": -1.1119578866,
				"z": 0.8500209931,
				"element": "C" 
			},
			{
				"x": -0.7432846519,
				"y": -0.8613663266,
				"z": 0.0229408887,
				"element": "N" 
			},
			{
				"x": -1.8365523601,
				"y": -0.2288002452,
				"z": 0.5163510879,
				"element": "C" 
			},
			{
				"x": -1.9699599069,
				"y": 0.1260798189,
				"z": 1.7770481555,
				"element": "N" 
			},
			{
				"x": -3.1934832274,
				"y": 0.6645516979,
				"z": 2.0495629193,
				"element": "N" 
			},
			{
				"x": -3.9822572116,
				"y": 0.7459097247,
				"z": 1.0251488282,
				"element": "C" 
			},
			{
				"x": -5.5662232348,
				"y": 1.533153819,
				"z": 1.0807049114,
				"element": "S" 
			},
			{
				"x": -3.2531024903,
				"y": 0.1313918703,
				"z": -0.4788579337,
				"element": "S" 
			},
			{
				"x": 3.0120837676,
				"y": -0.7654443036,
				"z": 2.0863444609,
				"element": "H" 
			},
			{
				"x": 1.7167688812,
				"y": -0.2123903781,
				"z": 3.1553326241,
				"element": "H" 
			},
			{
				"x": 2.8104433596,
				"y": 0.9574558398,
				"z": 2.4077639418,
				"element": "H" 
			},
			{
				"x": 0.6018517251,
				"y": 0.972404008,
				"z": 1.3079019324,
				"element": "H" 
			},
			{
				"x": 2.664225317,
				"y": 1.4295150923,
				"z": -0.0827682387,
				"element": "H" 
			},
			{
				"x": 1.2754609323,
				"y": 0.8767834354,
				"z": -0.9988560031,
				"element": "H" 
			},
			{
				"x": 3.6805367396,
				"y": -0.8476822571,
				"z": -0.1895650181,
				"element": "H" 
			},
			{
				"x": 3.3001641489,
				"y": -0.2804857083,
				"z": -1.8061502364,
				"element": "H" 
			},
			{
				"x": 1.2468467061,
				"y": -1.6432727186,
				"z": -1.8719162713,
				"element": "H" 
			},
			{
				"x": 2.587603057,
				"y": -2.6798111023,
				"z": -1.4417439718,
				"element": "H" 
			},
			{
				"x": 0.5994538449,
				"y": -3.1161156453,
				"z": 0.0445016682,
				"element": "H" 
			},
			{
				"x": 2.0080695391,
				"y": -2.5874995774,
				"z": 0.951604531,
				"element": "H" 
			},
			{
				"x": 0.0674290739,
				"y": -1.427891076,
				"z": 1.8251399757,
				"element": "H" 
			},
			{
				"x": -0.6437381365,
				"y": -0.9101395926,
				"z": -0.9788296406,
				"element": "H" 
			},
			{
				"x": -6.2947603621,
				"y": 0.4635753832,
				"z": 0.6933675049,
				"element": "H" 
			}
		],
		 "valence_orbital": [ 
			{
				"type": "occ",
				"energy": -0.29919,
				"method": "rhf"
			},
			{
				"type": "occ",
				"energy": -0.29085,
				"method": "rhf"
			},
			{
				"type": "occ",
				"energy": -0.26595,
				"method": "rhf"
			},
			{
				"type": "occ",
				"energy": -0.25423,
				"method": "rhf"
			},
			{
				"type": "occ",
				"energy": -0.21913,
				"method": "rhf"
			},
			{
				"type": "unocc",
				"energy": -0.0291,
				"method": "rhf"
			},
			{
				"type": "unocc",
				"energy": -0.01059,
				"method": "rhf"
			},
			{
				"type": "unocc",
				"energy": 0.02481,
				"method": "rhf"
			},
			{
				"type": "unocc",
				"energy": 0.0475,
				"method": "rhf"
			},
			{
				"type": "unocc",
				"energy": 0.05906,
				"method": "rhf"
			}
		],
		"cosmo_sigma_profile": { 
			"-0.025": 0.0,
			"-0.024": 0.0,
			"-0.023": 0.0,
			"-0.022": 0.0,
			"-0.021": 0.0,
			"-0.02": 0.0,
			"-0.019": 0.0,
			"-0.018": 0.0,
			"-0.017": 0.0,
			"-0.016": 0.0,
			"-0.015": 0.350135829913,
			"-0.014": 0.863949672287,
			"-0.013": 1.25558763235,
			"-0.012": 1.7081036203,
			"-0.011": 3.84760606801,
			"-0.01": 3.06863997423,
			"-0.009": 3.5251942693,
			"-0.008": 3.62055304519,
			"-0.007": 3.26283212201,
			"-0.006": 3.20055385714,
			"-0.005": 3.81491229248,
			"-0.004": 6.76628103565,
			"-0.003": 20.1174184271,
			"-0.002": 31.104035374,
			"-0.001": 38.7843387816,
			"0.0": 41.8239894103,
			"0.001": 31.8331480199,
			"0.002": 14.1311628561,
			"0.003": 11.2610960647,
			"0.004": 6.17493461208,
			"0.005": 5.56117469363,
			"0.006": 3.7308340728,
			"0.007": 4.13288818104,
			"0.008": 4.86055467692,
			"0.009": 2.45906277282,
			"0.01": 2.23935306634,
			"0.011": 3.108715092,
			"0.012": 3.3196512209,
			"0.013": 3.0410704638,
			"0.014": 2.00186734674,
			"0.015": 0.766187491518,
			"0.016": 0.0,
			"0.017": 0.0,
			"0.018": 0.0,
			"0.019": 0.0,
			"0.02": 0.0,
			"0.021": 0.0,
			"0.022": 0.0,
			"0.023": 0.0,
			"0.024": 0.0,
			"0.025": 0.0
		}
	}
}
