{
	 "smiles": "COC1=CC(=CC(OC)=C1O)C(=O)NN", 
	 "Tm": 428.65, 
	 "num_atms": 27, 
	 "gaussian": { 
		 "optdone": 1, 
		 "sigma_profile": "yes", 
		 "theory": "DFT", 
		 "functional": "B3LYP", 
		 "basiset": "6-31G**", 
		 "properties": { 
			 "R2extent": 3994.7734, 
			 "electric_dipole_moment_norm": 4.93768670331, 
			 "electric_quadrupole_moment_norm": 9.83975813524, 
			 "total_energy": -760.537460514, 
			 "HOMO_LUMO_gap": 0.18713, 
			 "cosmo_polarized_energy": -17.83, 
			 "cosmo_cavitation_energy": 31.19, 
			 "cosmo_dispersion_energy": -22.83, 
			 "cosmo_repulsion_energy": 1.82, 
			 "cosmo_total_nonelectrostatic_energy": 10.17, 
			 "SMD_solvation_energy": 8.28 
		},
		"coords": [
			{
				"x": 2.8174846348,
				"y": -0.1252422144,
				"z": -2.6117970691,
				"element": "C" 
			},
			{
				"x": 2.5111601909,
				"y": 0.8453458992,
				"z": -1.6052046739,
				"element": "O" 
			},
			{
				"x": 1.5479259645,
				"y": 0.4996337738,
				"z": -0.6946927237,
				"element": "C" 
			},
			{
				"x": 0.4085927676,
				"y": 1.2993390008,
				"z": -0.5897082259,
				"element": "C" 
			},
			{
				"x": -0.5677245019,
				"y": 1.037057695,
				"z": 0.373040557,
				"element": "C" 
			},
			{
				"x": -0.4281795488,
				"y": -0.0693224916,
				"z": 1.2315726619,
				"element": "C" 
			},
			{
				"x": 0.702052403,
				"y": -0.8709670358,
				"z": 1.1240748881,
				"element": "C" 
			},
			{
				"x": 0.979974568,
				"y": -1.9819886738,
				"z": 1.885053483,
				"element": "O" 
			},
			{
				"x": 0.0570610274,
				"y": -2.350658336,
				"z": 2.8993904305,
				"element": "C" 
			},
			{
				"x": 1.706965975,
				"y": -0.5885867062,
				"z": 0.1764215756,
				"element": "C" 
			},
			{
				"x": 2.8184427683,
				"y": -1.3697614622,
				"z": 0.1129016954,
				"element": "O" 
			},
			{
				"x": -1.7514454747,
				"y": 1.9465612339,
				"z": 0.4273432675,
				"element": "C" 
			},
			{
				"x": -2.097330394,
				"y": 2.6556083036,
				"z": -0.5136125879,
				"element": "O" 
			},
			{
				"x": -2.4512825647,
				"y": 1.9533886929,
				"z": 1.6207166138,
				"element": "N" 
			},
			{
				"x": -3.4733551951,
				"y": 2.9145142534,
				"z": 1.811317197,
				"element": "N" 
			},
			{
				"x": 1.9192349348,
				"y": -0.3881091,
				"z": -3.1849433038,
				"element": "H" 
			},
			{
				"x": 3.5398541766,
				"y": 0.3519623552,
				"z": -3.2767990654,
				"element": "H" 
			},
			{
				"x": 3.2555456388,
				"y": -1.0300437882,
				"z": -2.1819609899,
				"element": "H" 
			},
			{
				"x": 0.2874625513,
				"y": 2.1397197737,
				"z": -1.2629438411,
				"element": "H" 
			},
			{
				"x": -1.2118870912,
				"y": -0.3160062207,
				"z": 1.9371962685,
				"element": "H" 
			},
			{
				"x": -0.9231851363,
				"y": -2.6000683888,
				"z": 2.4749641062,
				"element": "H" 
			},
			{
				"x": 0.4749566318,
				"y": -3.233116791,
				"z": 3.3856313845,
				"element": "H" 
			},
			{
				"x": -0.0620908328,
				"y": -1.5496313011,
				"z": 3.6394830154,
				"element": "H" 
			},
			{
				"x": 2.7175348967,
				"y": -2.0548544275,
				"z": 0.7927617746,
				"element": "H" 
			},
			{
				"x": -1.9327662667,
				"y": 1.7557716287,
				"z": 2.4656751027,
				"element": "H" 
			},
			{
				"x": -3.266826668,
				"y": 3.6789170453,
				"z": 1.1644083873,
				"element": "H" 
			},
			{
				"x": -4.3386754553,
				"y": 2.5017372819,
				"z": 1.4644100714,
				"element": "H" 
			}
		],
		 "valence_orbital": [ 
			{
				"type": "occ",
				"energy": -0.27961,
				"method": "rhf"
			},
			{
				"type": "occ",
				"energy": -0.2561,
				"method": "rhf"
			},
			{
				"type": "occ",
				"energy": -0.24841,
				"method": "rhf"
			},
			{
				"type": "occ",
				"energy": -0.23182,
				"method": "rhf"
			},
			{
				"type": "occ",
				"energy": -0.21628,
				"method": "rhf"
			},
			{
				"type": "unocc",
				"energy": -0.02915,
				"method": "rhf"
			},
			{
				"type": "unocc",
				"energy": 0.00417,
				"method": "rhf"
			},
			{
				"type": "unocc",
				"energy": 0.06024,
				"method": "rhf"
			},
			{
				"type": "unocc",
				"energy": 0.06429,
				"method": "rhf"
			},
			{
				"type": "unocc",
				"energy": 0.08144,
				"method": "rhf"
			}
		],
		"cosmo_sigma_profile": { 
			"-0.025": 0.0,
			"-0.024": 0.0,
			"-0.023": 0.0,
			"-0.022": 0.0,
			"-0.021": 0.0,
			"-0.02": 0.0,
			"-0.019": 0.0,
			"-0.018": 0.0,
			"-0.017": 0.0,
			"-0.016": 0.0,
			"-0.015": 0.219938375803,
			"-0.014": 0.985154686913,
			"-0.013": 1.7167559669,
			"-0.012": 1.46613458063,
			"-0.011": 3.19907759852,
			"-0.01": 3.42113463294,
			"-0.009": 4.97936535116,
			"-0.008": 4.40337580553,
			"-0.007": 5.10509498942,
			"-0.006": 12.6007116283,
			"-0.005": 17.1750630811,
			"-0.004": 19.2979509309,
			"-0.003": 20.6470597106,
			"-0.002": 15.2403058719,
			"-0.001": 11.2521103345,
			"0.0": 15.5973753649,
			"0.001": 17.7100988959,
			"0.002": 16.7043170613,
			"0.003": 15.0563792378,
			"0.004": 10.7219625819,
			"0.005": 7.88816414383,
			"0.006": 5.28214836758,
			"0.007": 5.3699428864,
			"0.008": 5.20221541562,
			"0.009": 4.66301772858,
			"0.01": 4.46067731871,
			"0.011": 3.79835206186,
			"0.012": 3.62003723139,
			"0.013": 4.74272592771,
			"0.014": 2.71557054503,
			"0.015": 0.466450170605,
			"0.016": 0.60500875175,
			"0.017": 0.30923089195,
			"0.018": 0.0,
			"0.019": 0.0,
			"0.02": 0.0,
			"0.021": 0.0,
			"0.022": 0.0,
			"0.023": 0.0,
			"0.024": 0.0,
			"0.025": 0.0
		}
	}
}
