{
	 "smiles": "FC(F)(F)COC(=O)NC1=CC=CS1", 
	 "Tm": 332.15, 
	 "num_atms": 20, 
	 "gaussian": { 
		 "optdone": 1, 
		 "sigma_profile": "yes", 
		 "theory": "DFT", 
		 "functional": "B3LYP", 
		 "basiset": "6-31G**", 
		 "properties": { 
			 "R2extent": 4961.4826, 
			 "electric_dipole_moment_norm": 2.3595011104, 
			 "electric_quadrupole_moment_norm": 10.2224465173, 
			 "total_energy": -1173.26797403, 
			 "HOMO_LUMO_gap": 0.19559, 
			 "cosmo_polarized_energy": -11.08, 
			 "cosmo_cavitation_energy": 28.08, 
			 "cosmo_dispersion_energy": -20.16, 
			 "cosmo_repulsion_energy": 1.49, 
			 "cosmo_total_nonelectrostatic_energy": 9.42, 
			 "SMD_solvation_energy": 7.32 
		},
		"coords": [
			{
				"x": -4.5042926234,
				"y": 3.5996203691,
				"z": -1.036224943,
				"element": "F" 
			},
			{
				"x": -3.2964800889,
				"y": 3.1060331031,
				"z": -0.692238473,
				"element": "C" 
			},
			{
				"x": -3.0149086221,
				"y": 3.5078702821,
				"z": 0.5603027473,
				"element": "F" 
			},
			{
				"x": -2.3763626114,
				"y": 3.6452484919,
				"z": -1.5141751026,
				"element": "F" 
			},
			{
				"x": -3.3234079384,
				"y": 1.5907114664,
				"z": -0.7960092056,
				"element": "C" 
			},
			{
				"x": -2.0421817142,
				"y": 1.0776082177,
				"z": -0.4498758145,
				"element": "O" 
			},
			{
				"x": -1.9392302126,
				"y": 0.4763825561,
				"z": 0.7707765086,
				"element": "C" 
			},
			{
				"x": -2.8720030358,
				"y": 0.2212445845,
				"z": 1.5048473233,
				"element": "O" 
			},
			{
				"x": -0.6358003375,
				"y": 0.1785325896,
				"z": 1.0614324836,
				"element": "N" 
			},
			{
				"x": 0.5516444231,
				"y": 0.4247798581,
				"z": 0.3580919861,
				"element": "C" 
			},
			{
				"x": 1.7687794307,
				"y": -0.1143966386,
				"z": 0.6934458808,
				"element": "C" 
			},
			{
				"x": 2.8281661281,
				"y": 0.3567750003,
				"z": -0.1388630962,
				"element": "C" 
			},
			{
				"x": 2.4052450273,
				"y": 1.2411996973,
				"z": -1.087402105,
				"element": "C" 
			},
			{
				"x": 0.6911489921,
				"y": 1.5298060346,
				"z": -0.9922265017,
				"element": "S" 
			},
			{
				"x": -3.5308684823,
				"y": 1.3089563806,
				"z": -1.8299082256,
				"element": "H" 
			},
			{
				"x": -4.0875926393,
				"y": 1.1934475375,
				"z": -0.1260565462,
				"element": "H" 
			},
			{
				"x": -0.5369371084,
				"y": -0.2972179171,
				"z": 1.9474852908,
				"element": "H" 
			},
			{
				"x": 1.9003484459,
				"y": -0.8204914556,
				"z": 1.5062154682,
				"element": "H" 
			},
			{
				"x": 3.8582710025,
				"y": 0.0362998985,
				"z": -0.0339623678,
				"element": "H" 
			},
			{
				"x": 2.9807619646,
				"y": 1.730589944,
				"z": -1.8604553074,
				"element": "H" 
			}
		],
		 "valence_orbital": [ 
			{
				"type": "occ",
				"energy": -0.32702,
				"method": "rhf"
			},
			{
				"type": "occ",
				"energy": -0.31413,
				"method": "rhf"
			},
			{
				"type": "occ",
				"energy": -0.29884,
				"method": "rhf"
			},
			{
				"type": "occ",
				"energy": -0.25576,
				"method": "rhf"
			},
			{
				"type": "occ",
				"energy": -0.21418,
				"method": "rhf"
			},
			{
				"type": "unocc",
				"energy": -0.01859,
				"method": "rhf"
			},
			{
				"type": "unocc",
				"energy": 0.02832,
				"method": "rhf"
			},
			{
				"type": "unocc",
				"energy": 0.04079,
				"method": "rhf"
			},
			{
				"type": "unocc",
				"energy": 0.05573,
				"method": "rhf"
			},
			{
				"type": "unocc",
				"energy": 0.07803,
				"method": "rhf"
			}
		],
		"cosmo_sigma_profile": { 
			"-0.025": 0.0,
			"-0.024": 0.0,
			"-0.023": 0.0,
			"-0.022": 0.0,
			"-0.021": 0.0,
			"-0.02": 0.0,
			"-0.019": 0.0,
			"-0.018": 0.0,
			"-0.017": 0.0733390434768,
			"-0.016": 0.923646410953,
			"-0.015": 1.56328672193,
			"-0.014": 0.532902056162,
			"-0.013": 0.727993414837,
			"-0.012": 1.08788866891,
			"-0.011": 1.59723903508,
			"-0.01": 1.98976675725,
			"-0.009": 4.04928637462,
			"-0.008": 7.01901169062,
			"-0.007": 9.26002838442,
			"-0.006": 8.78723274558,
			"-0.005": 8.89714099851,
			"-0.004": 8.75621901685,
			"-0.003": 10.3855274139,
			"-0.002": 11.0957033001,
			"-0.001": 13.6299869877,
			"0.0": 12.2838751128,
			"0.001": 14.2255602109,
			"0.002": 33.7539485596,
			"0.003": 31.2717099416,
			"0.004": 14.9838601871,
			"0.005": 11.253565544,
			"0.006": 5.89472576111,
			"0.007": 1.14656298101,
			"0.008": 1.03617089236,
			"0.009": 1.50727239194,
			"0.01": 1.90899809171,
			"0.011": 3.2776234724,
			"0.012": 3.92759817218,
			"0.013": 0.214076143357,
			"0.014": 0.0,
			"0.015": 0.0,
			"0.016": 0.0,
			"0.017": 0.0,
			"0.018": 0.0,
			"0.019": 0.0,
			"0.02": 0.0,
			"0.021": 0.0,
			"0.022": 0.0,
			"0.023": 0.0,
			"0.024": 0.0,
			"0.025": 0.0
		}
	}
}
