{
	 "smiles": "CN1C(NC(C)=O)=NC(=O)C1=C/C1=COC2=CC=C(Br)C=C2C1=O", 
	 "Tm": 533.15, 
	 "num_atms": 36, 
	 "gaussian": { 
		 "optdone": 1, 
		 "sigma_profile": "yes", 
		 "theory": "DFT", 
		 "functional": "B3LYP", 
		 "basiset": "6-31G**", 
		 "properties": { 
			 "R2extent": 17952.1436, 
			 "electric_dipole_moment_norm": 2.58851896845, 
			 "electric_quadrupole_moment_norm": 24.9392724527, 
			 "total_energy": -3653.48838469, 
			 "HOMO_LUMO_gap": 0.13668, 
			 "cosmo_polarized_energy": -23.83, 
			 "cosmo_cavitation_energy": 43.81, 
			 "cosmo_dispersion_energy": -31.88, 
			 "cosmo_repulsion_energy": 2.35, 
			 "cosmo_total_nonelectrostatic_energy": 14.28, 
			 "SMD_solvation_energy": 7.14 
		},
		"coords": [
			{
				"x": -0.2267881241,
				"y": 2.8681746916,
				"z": -1.677573775,
				"element": "C" 
			},
			{
				"x": 0.1909530045,
				"y": 2.6214457704,
				"z": -0.3054955817,
				"element": "N" 
			},
			{
				"x": 0.2505850812,
				"y": 3.5404952703,
				"z": 0.7151702775,
				"element": "C" 
			},
			{
				"x": 0.2507666052,
				"y": 4.9069803798,
				"z": 0.4755124144,
				"element": "N" 
			},
			{
				"x": 1.1463719113,
				"y": 5.6946365046,
				"z": -0.2775097412,
				"element": "C" 
			},
			{
				"x": 2.1525399587,
				"y": 5.0007236976,
				"z": -1.1722479006,
				"element": "C" 
			},
			{
				"x": 1.0853379781,
				"y": 6.9027438707,
				"z": -0.1721380518,
				"element": "O" 
			},
			{
				"x": 0.2546596559,
				"y": 3.0534913385,
				"z": 1.9301751655,
				"element": "N" 
			},
			{
				"x": 0.1857083536,
				"y": 1.6669072779,
				"z": 1.7878698643,
				"element": "C" 
			},
			{
				"x": 0.1785746686,
				"y": 0.862799635,
				"z": 2.7120850249,
				"element": "O" 
			},
			{
				"x": 0.1533437419,
				"y": 1.3501000987,
				"z": 0.3141980916,
				"element": "C" 
			},
			{
				"x": 0.0857975121,
				"y": 0.1965951532,
				"z": -0.3934309625,
				"element": "C" 
			},
			{
				"x": 0.0029979106,
				"y": -1.1981465292,
				"z": 0.0017281434,
				"element": "C" 
			},
			{
				"x": 0.0100001686,
				"y": -1.6673445233,
				"z": 1.2867100512,
				"element": "C" 
			},
			{
				"x": -0.0674832208,
				"y": -2.9695874443,
				"z": 1.6205519361,
				"element": "O" 
			},
			{
				"x": -0.1594998782,
				"y": -3.9239616167,
				"z": 0.6429543281,
				"element": "C" 
			},
			{
				"x": -0.2372192695,
				"y": -5.2563164991,
				"z": 1.0599722067,
				"element": "C" 
			},
			{
				"x": -0.3307867448,
				"y": -6.2560386987,
				"z": 0.1026737377,
				"element": "C" 
			},
			{
				"x": -0.3459443958,
				"y": -5.9189238545,
				"z": -1.2609817478,
				"element": "C" 
			},
			{
				"x": -0.4751046143,
				"y": -7.3147552138,
				"z": -2.5559720123,
				"element": "Br" 
			},
			{
				"x": -0.2690159687,
				"y": -4.6000991008,
				"z": -1.6733449532,
				"element": "C" 
			},
			{
				"x": -0.1740385081,
				"y": -3.5788631661,
				"z": -0.7131231173,
				"element": "C" 
			},
			{
				"x": -0.0907696778,
				"y": -2.1614383616,
				"z": -1.1205192909,
				"element": "C" 
			},
			{
				"x": -0.0997324359,
				"y": -1.8174922202,
				"z": -2.3023523973,
				"element": "O" 
			},
			{
				"x": -1.111376977,
				"y": 2.2648450142,
				"z": -1.9041848096,
				"element": "H" 
			},
			{
				"x": -0.4853100456,
				"y": 3.9208143558,
				"z": -1.7897040698,
				"element": "H" 
			},
			{
				"x": 0.5632520414,
				"y": 2.6132560062,
				"z": -2.3907441346,
				"element": "H" 
			},
			{
				"x": -0.1472399997,
				"y": 5.4363634208,
				"z": 1.2447145829,
				"element": "H" 
			},
			{
				"x": 2.4031737655,
				"y": 3.9902580598,
				"z": -0.8452836565,
				"element": "H" 
			},
			{
				"x": 3.0495273862,
				"y": 5.6211574703,
				"z": -1.1889528061,
				"element": "H" 
			},
			{
				"x": 1.7676981465,
				"y": 4.9518519831,
				"z": -2.1957121737,
				"element": "H" 
			},
			{
				"x": 0.0869595245,
				"y": 0.2842308913,
				"z": -1.4782105836,
				"element": "H" 
			},
			{
				"x": 0.078980625,
				"y": -1.0192290995,
				"z": 2.1539328278,
				"element": "H" 
			},
			{
				"x": -0.2230631996,
				"y": -5.4858378046,
				"z": 2.1197805993,
				"element": "H" 
			},
			{
				"x": -0.3921202561,
				"y": -7.2956104397,
				"z": 0.4030293125,
				"element": "H" 
			},
			{
				"x": -0.2792347236,
				"y": -4.3206263176,
				"z": -2.7201767985,
				"element": "H" 
			}
		],
		 "valence_orbital": [ 
			{
				"type": "occ",
				"energy": -0.27167,
				"method": "rhf"
			},
			{
				"type": "occ",
				"energy": -0.26815,
				"method": "rhf"
			},
			{
				"type": "occ",
				"energy": -0.25651,
				"method": "rhf"
			},
			{
				"type": "occ",
				"energy": -0.25495,
				"method": "rhf"
			},
			{
				"type": "occ",
				"energy": -0.22721,
				"method": "rhf"
			},
			{
				"type": "unocc",
				"energy": -0.09053,
				"method": "rhf"
			},
			{
				"type": "unocc",
				"energy": -0.07193,
				"method": "rhf"
			},
			{
				"type": "unocc",
				"energy": -0.03272,
				"method": "rhf"
			},
			{
				"type": "unocc",
				"energy": -0.01913,
				"method": "rhf"
			},
			{
				"type": "unocc",
				"energy": -0.00695,
				"method": "rhf"
			}
		],
		"cosmo_sigma_profile": { 
			"-0.025": 0.0,
			"-0.024": 0.0,
			"-0.023": 0.0,
			"-0.022": 0.0,
			"-0.021": 0.0,
			"-0.02": 0.0,
			"-0.019": 0.0,
			"-0.018": 0.0,
			"-0.017": 0.0,
			"-0.016": 0.155450622905,
			"-0.015": 1.03393813145,
			"-0.014": 0.737724736345,
			"-0.013": 0.457714290664,
			"-0.012": 0.792645720374,
			"-0.011": 0.86424988607,
			"-0.01": 1.17852334281,
			"-0.009": 3.02075527685,
			"-0.008": 6.82263932974,
			"-0.007": 15.2394639104,
			"-0.006": 22.8955860327,
			"-0.005": 25.955229175,
			"-0.004": 29.0735101379,
			"-0.003": 25.5649215488,
			"-0.002": 25.4526685074,
			"-0.001": 29.4444272097,
			"0.0": 32.3625086551,
			"0.001": 26.9672701821,
			"0.002": 14.1761203697,
			"0.003": 13.6348546836,
			"0.004": 16.453248526,
			"0.005": 7.01774647741,
			"0.006": 4.82402998516,
			"0.007": 4.65632964382,
			"0.008": 4.3522444245,
			"0.009": 5.30717447089,
			"0.01": 6.26350575686,
			"0.011": 9.02756602158,
			"0.012": 11.5897575289,
			"0.013": 5.73518135825,
			"0.014": 2.80804513627,
			"0.015": 1.48895652718,
			"0.016": 0.614143406445,
			"0.017": 0.0108229451141,
			"0.018": 0.0,
			"0.019": 0.0,
			"0.02": 0.0,
			"0.021": 0.0,
			"0.022": 0.0,
			"0.023": 0.0,
			"0.024": 0.0,
			"0.025": 0.0
		}
	}
}
