{
	 "smiles": "ClC1=CC=C(NN=C(/C#N)C2=NC3=C(S2)C=CC=C3)C=C1", 
	 "Tm": 461.15, 
	 "num_atms": 30, 
	 "gaussian": { 
		 "optdone": 1, 
		 "sigma_profile": "yes", 
		 "theory": "DFT", 
		 "functional": "B3LYP", 
		 "basiset": "6-31G**", 
		 "properties": { 
			 "R2extent": 11816.2738, 
			 "electric_dipole_moment_norm": 1.15531293163, 
			 "electric_quadrupole_moment_norm": 19.8057844338, 
			 "total_energy": -1654.35943299, 
			 "HOMO_LUMO_gap": 0.12413, 
			 "cosmo_polarized_energy": -14.83, 
			 "cosmo_cavitation_energy": 40.7, 
			 "cosmo_dispersion_energy": -29.63, 
			 "cosmo_repulsion_energy": 2.21, 
			 "cosmo_total_nonelectrostatic_energy": 13.28, 
			 "SMD_solvation_energy": 4.93 
		},
		"coords": [
			{
				"x": -1.7520826461,
				"y": 5.6998224362,
				"z": 2.6934656648,
				"element": "Cl" 
			},
			{
				"x": -0.8891381344,
				"y": 4.3531668741,
				"z": 1.9700475871,
				"element": "C" 
			},
			{
				"x": -1.5731352289,
				"y": 3.170868191,
				"z": 1.6790484985,
				"element": "C" 
			},
			{
				"x": -0.8957773061,
				"y": 2.0996318329,
				"z": 1.1056884282,
				"element": "C" 
			},
			{
				"x": 0.4720191236,
				"y": 2.2175613157,
				"z": 0.8244849729,
				"element": "C" 
			},
			{
				"x": 1.1940310327,
				"y": 1.1615662428,
				"z": 0.2462568818,
				"element": "N" 
			},
			{
				"x": 0.6170857114,
				"y": 0.020243797,
				"z": -0.0538798466,
				"element": "N" 
			},
			{
				"x": 1.3113237342,
				"y": -0.9509924279,
				"z": -0.5936948105,
				"element": "C" 
			},
			{
				"x": 2.7113475285,
				"y": -0.7797003631,
				"z": -0.8640232082,
				"element": "C" 
			},
			{
				"x": 3.8329604563,
				"y": -0.5087262182,
				"z": -1.0290256214,
				"element": "N" 
			},
			{
				"x": 0.6500016064,
				"y": -2.2144427732,
				"z": -0.9204647417,
				"element": "C" 
			},
			{
				"x": -0.606391658,
				"y": -2.4651746063,
				"z": -0.716087546,
				"element": "N" 
			},
			{
				"x": -0.9307820615,
				"y": -3.741990684,
				"z": -1.1282920433,
				"element": "C" 
			},
			{
				"x": 0.137507442,
				"y": -4.4994541436,
				"z": -1.6745470479,
				"element": "C" 
			},
			{
				"x": 1.5992505292,
				"y": -3.536873645,
				"z": -1.6549269667,
				"element": "S" 
			},
			{
				"x": -0.0519100128,
				"y": -5.8062032202,
				"z": -2.1306035013,
				"element": "C" 
			},
			{
				"x": -1.328671524,
				"y": -6.3533805904,
				"z": -2.0349328791,
				"element": "C" 
			},
			{
				"x": -2.3973366835,
				"y": -5.6141062778,
				"z": -1.4955217825,
				"element": "C" 
			},
			{
				"x": -2.210115884,
				"y": -4.3152961226,
				"z": -1.0420731525,
				"element": "C" 
			},
			{
				"x": 1.1524846796,
				"y": 3.4058662376,
				"z": 1.1186758172,
				"element": "C" 
			},
			{
				"x": 0.4718214177,
				"y": 4.4763164775,
				"z": 1.6924730395,
				"element": "C" 
			},
			{
				"x": -2.6314585212,
				"y": 3.0893237639,
				"z": 1.900360777,
				"element": "H" 
			},
			{
				"x": -1.4104275799,
				"y": 1.1752094025,
				"z": 0.8732519261,
				"element": "H" 
			},
			{
				"x": 2.1884005878,
				"y": 1.2997336115,
				"z": 0.0604346584,
				"element": "H" 
			},
			{
				"x": 0.7689605106,
				"y": -6.3806140712,
				"z": -2.5474450565,
				"element": "H" 
			},
			{
				"x": -1.4999323863,
				"y": -7.3675168407,
				"z": -2.3830129216,
				"element": "H" 
			},
			{
				"x": -3.3817939004,
				"y": -6.0678750313,
				"z": -1.4339662816,
				"element": "H" 
			},
			{
				"x": -3.0236989065,
				"y": -3.7323074717,
				"z": -0.623682901,
				"element": "H" 
			},
			{
				"x": 2.213346601,
				"y": 3.4973786636,
				"z": 0.9006254089,
				"element": "H" 
			},
			{
				"x": 0.9944114728,
				"y": 5.3979656409,
				"z": 1.9218666481,
				"element": "H" 
			}
		],
		 "valence_orbital": [ 
			{
				"type": "occ",
				"energy": -0.28376,
				"method": "rhf"
			},
			{
				"type": "occ",
				"energy": -0.27841,
				"method": "rhf"
			},
			{
				"type": "occ",
				"energy": -0.25398,
				"method": "rhf"
			},
			{
				"type": "occ",
				"energy": -0.2416,
				"method": "rhf"
			},
			{
				"type": "occ",
				"energy": -0.21691,
				"method": "rhf"
			},
			{
				"type": "unocc",
				"energy": -0.09278,
				"method": "rhf"
			},
			{
				"type": "unocc",
				"energy": -0.02862,
				"method": "rhf"
			},
			{
				"type": "unocc",
				"energy": -0.02593,
				"method": "rhf"
			},
			{
				"type": "unocc",
				"energy": -0.01633,
				"method": "rhf"
			},
			{
				"type": "unocc",
				"energy": -0.01218,
				"method": "rhf"
			}
		],
		"cosmo_sigma_profile": { 
			"-0.025": 0.0,
			"-0.024": 0.0,
			"-0.023": 0.0,
			"-0.022": 0.0,
			"-0.021": 0.0,
			"-0.02": 0.0,
			"-0.019": 0.0,
			"-0.018": 0.0,
			"-0.017": 0.0,
			"-0.016": 0.0139886407553,
			"-0.015": 1.23999320932,
			"-0.014": 1.74776072563,
			"-0.013": 1.32917114282,
			"-0.012": 1.04902418104,
			"-0.011": 1.41316437685,
			"-0.01": 2.04817508665,
			"-0.009": 1.98146961615,
			"-0.008": 5.19977198679,
			"-0.007": 11.9460038893,
			"-0.006": 16.4449492583,
			"-0.005": 18.621052853,
			"-0.004": 17.8675822667,
			"-0.003": 17.2295383277,
			"-0.002": 18.603515004,
			"-0.001": 23.6966683779,
			"0.0": 28.9320099564,
			"0.001": 30.1616449119,
			"0.002": 35.4923699398,
			"0.003": 35.3234508324,
			"0.004": 23.3524265396,
			"0.005": 12.6130515437,
			"0.006": 4.15758687226,
			"0.007": 4.39919020468,
			"0.008": 3.88843210297,
			"0.009": 4.06619977518,
			"0.01": 3.6243646737,
			"0.011": 3.60409182067,
			"0.012": 1.56544076851,
			"0.013": 1.14465419195,
			"0.014": 1.29003676866,
			"0.015": 0.519925256834,
			"0.016": 0.0,
			"0.017": 0.0,
			"0.018": 0.0,
			"0.019": 0.0,
			"0.02": 0.0,
			"0.021": 0.0,
			"0.022": 0.0,
			"0.023": 0.0,
			"0.024": 0.0,
			"0.025": 0.0
		}
	}
}
