{
	 "smiles": "ClC1=CC=C(OCCBr)C=C1", 
	 "Tm": 311.65, 
	 "num_atms": 19, 
	 "gaussian": { 
		 "optdone": 1, 
		 "sigma_profile": "yes", 
		 "theory": "DFT", 
		 "functional": "B3LYP", 
		 "basiset": "6-31G**", 
		 "properties": { 
			 "R2extent": 5493.7098, 
			 "electric_dipole_moment_norm": 2.96108627703, 
			 "electric_quadrupole_moment_norm": 15.9616653354, 
			 "total_energy": -3416.48617434, 
			 "HOMO_LUMO_gap": 0.20797, 
			 "cosmo_polarized_energy": -9.39, 
			 "cosmo_cavitation_energy": 27.26, 
			 "cosmo_dispersion_energy": -20.52, 
			 "cosmo_repulsion_energy": 1.68, 
			 "cosmo_total_nonelectrostatic_energy": 8.42, 
			 "SMD_solvation_energy": 3.33 
		},
		"coords": [
			{
				"x": -3.2350530258,
				"y": -1.8141601387,
				"z": 1.9126208516,
				"element": "Cl" 
			},
			{
				"x": -2.024449195,
				"y": -0.8241702813,
				"z": 1.1059655056,
				"element": "C" 
			},
			{
				"x": -0.686685259,
				"y": -0.9115885997,
				"z": 1.5006644382,
				"element": "C" 
			},
			{
				"x": 0.2674686986,
				"y": -0.1292003424,
				"z": 0.8624633207,
				"element": "C" 
			},
			{
				"x": -0.1057799938,
				"y": 0.7436869709,
				"z": -0.1698817729,
				"element": "C" 
			},
			{
				"x": 0.910146007,
				"y": 1.4704936978,
				"z": -0.7232615534,
				"element": "O" 
			},
			{
				"x": 0.614333495,
				"y": 2.3402675599,
				"z": -1.8020939941,
				"element": "C" 
			},
			{
				"x": 1.9008757606,
				"y": 2.9971279556,
				"z": -2.2521162819,
				"element": "C" 
			},
			{
				"x": 3.1439297261,
				"y": 1.7168003712,
				"z": -3.0945984347,
				"element": "Br" 
			},
			{
				"x": -1.4472606585,
				"y": 0.8251740653,
				"z": -0.5590940398,
				"element": "C" 
			},
			{
				"x": -2.4068708354,
				"y": 0.0365068715,
				"z": 0.0830767032,
				"element": "C" 
			},
			{
				"x": -0.3980918692,
				"y": -1.5871118444,
				"z": 2.29829987,
				"element": "H" 
			},
			{
				"x": 1.3130071029,
				"y": -0.1800419196,
				"z": 1.1470336594,
				"element": "H" 
			},
			{
				"x": 0.1470127758,
				"y": 1.7938317411,
				"z": -2.6313924638,
				"element": "H" 
			},
			{
				"x": -0.0793432185,
				"y": 3.1326193821,
				"z": -1.4764454031,
				"element": "H" 
			},
			{
				"x": 2.4381678261,
				"y": 3.4307353533,
				"z": -1.4095052956,
				"element": "H" 
			},
			{
				"x": 1.7003738715,
				"y": 3.760819592,
				"z": -3.0028998552,
				"element": "H" 
			},
			{
				"x": -1.7634639611,
				"y": 1.4910174248,
				"z": -1.3530827276,
				"element": "H" 
			},
			{
				"x": -3.4474172473,
				"y": 0.0967921404,
				"z": -0.2162525266,
				"element": "H" 
			}
		],
		 "valence_orbital": [ 
			{
				"type": "occ",
				"energy": -0.30791,
				"method": "rhf"
			},
			{
				"type": "occ",
				"energy": -0.27989,
				"method": "rhf"
			},
			{
				"type": "occ",
				"energy": -0.27708,
				"method": "rhf"
			},
			{
				"type": "occ",
				"energy": -0.26639,
				"method": "rhf"
			},
			{
				"type": "occ",
				"energy": -0.22543,
				"method": "rhf"
			},
			{
				"type": "unocc",
				"energy": -0.01746,
				"method": "rhf"
			},
			{
				"type": "unocc",
				"energy": -0.00496,
				"method": "rhf"
			},
			{
				"type": "unocc",
				"energy": -0.00181,
				"method": "rhf"
			},
			{
				"type": "unocc",
				"energy": 0.0311,
				"method": "rhf"
			},
			{
				"type": "unocc",
				"energy": 0.08427,
				"method": "rhf"
			}
		],
		"cosmo_sigma_profile": { 
			"-0.025": 0.0,
			"-0.024": 0.0,
			"-0.023": 0.0,
			"-0.022": 0.0,
			"-0.021": 0.0,
			"-0.02": 0.0,
			"-0.019": 0.0,
			"-0.018": 0.0,
			"-0.017": 0.0,
			"-0.016": 0.0,
			"-0.015": 0.0,
			"-0.014": 0.0,
			"-0.013": 0.0,
			"-0.012": 0.0,
			"-0.011": 0.0,
			"-0.01": 0.0,
			"-0.009": 0.298222199752,
			"-0.008": 5.73860543985,
			"-0.007": 16.4149102324,
			"-0.006": 18.8300809978,
			"-0.005": 13.5288380621,
			"-0.004": 10.2331982563,
			"-0.003": 8.22684104759,
			"-0.002": 10.5667570789,
			"-0.001": 10.7279934025,
			"0.0": 10.3714573395,
			"0.001": 14.8912125477,
			"0.002": 18.2784617513,
			"0.003": 23.6422464781,
			"0.004": 23.0911234159,
			"0.005": 17.7093777158,
			"0.006": 12.6340484036,
			"0.007": 3.66056278595,
			"0.008": 2.19451969614,
			"0.009": 1.76293901093,
			"0.01": 0.141551062839,
			"0.011": 0.0,
			"0.012": 0.0,
			"0.013": 0.0,
			"0.014": 0.0,
			"0.015": 0.0,
			"0.016": 0.0,
			"0.017": 0.0,
			"0.018": 0.0,
			"0.019": 0.0,
			"0.02": 0.0,
			"0.021": 0.0,
			"0.022": 0.0,
			"0.023": 0.0,
			"0.024": 0.0,
			"0.025": 0.0
		}
	}
}
