{
	 "smiles": "COC1=C(OCC2=CSC(C)=N2)C=CC(=C1)C(O)=O", 
	 "Tm": 446.15, 
	 "num_atms": 32, 
	 "gaussian": { 
		 "optdone": 1, 
		 "sigma_profile": "yes", 
		 "theory": "DFT", 
		 "functional": "B3LYP", 
		 "basiset": "6-31G**", 
		 "properties": { 
			 "R2extent": 6957.6638, 
			 "electric_dipole_moment_norm": 5.33238743247, 
			 "electric_quadrupole_moment_norm": 35.0335291889, 
			 "total_energy": -1257.02747711, 
			 "HOMO_LUMO_gap": 0.1963, 
			 "cosmo_polarized_energy": -19.32, 
			 "cosmo_cavitation_energy": 38.85, 
			 "cosmo_dispersion_energy": -26.9, 
			 "cosmo_repulsion_energy": 2.07, 
			 "cosmo_total_nonelectrostatic_energy": 14.02, 
			 "SMD_solvation_energy": 7.0 
		},
		"coords": [
			{
				"x": 1.1322455941,
				"y": 0.0130824289,
				"z": -4.4561246481,
				"element": "C" 
			},
			{
				"x": 1.6392237933,
				"y": -0.5727873309,
				"z": -3.2472746727,
				"element": "O" 
			},
			{
				"x": 0.6762028106,
				"y": -1.0947896485,
				"z": -2.4134047109,
				"element": "C" 
			},
			{
				"x": -0.209771714,
				"y": -0.263724106,
				"z": -1.6980283443,
				"element": "C" 
			},
			{
				"x": -0.1892125073,
				"y": 1.1000956057,
				"z": -1.8364699598,
				"element": "O" 
			},
			{
				"x": 0.9946668021,
				"y": 1.7807000606,
				"z": -1.3525248572,
				"element": "C" 
			},
			{
				"x": 1.120809455,
				"y": 1.7225668846,
				"z": 0.141064999,
				"element": "C" 
			},
			{
				"x": 2.0980163453,
				"y": 1.0536143161,
				"z": 0.8231832697,
				"element": "C" 
			},
			{
				"x": 1.8699477321,
				"y": 1.23818737,
				"z": 2.5303862537,
				"element": "S" 
			},
			{
				"x": 0.4381655956,
				"y": 2.2213572439,
				"z": 2.1959299278,
				"element": "C" 
			},
			{
				"x": -0.385772117,
				"y": 2.8114099321,
				"z": 3.2993258452,
				"element": "C" 
			},
			{
				"x": 0.1914604715,
				"y": 2.3760312152,
				"z": 0.9293029457,
				"element": "N" 
			},
			{
				"x": -1.1806401781,
				"y": -0.8420857386,
				"z": -0.8749560288,
				"element": "C" 
			},
			{
				"x": -1.2639219659,
				"y": -2.2236544759,
				"z": -0.7401079481,
				"element": "C" 
			},
			{
				"x": -0.3544290777,
				"y": -3.0541530409,
				"z": -1.4080485586,
				"element": "C" 
			},
			{
				"x": 0.6025583846,
				"y": -2.4773861179,
				"z": -2.2557172314,
				"element": "C" 
			},
			{
				"x": -0.4823526697,
				"y": -4.5328805954,
				"z": -1.2138522362,
				"element": "C" 
			},
			{
				"x": 0.6062264779,
				"y": -5.2882612093,
				"z": -1.5285234262,
				"element": "O" 
			},
			{
				"x": -1.4845160891,
				"y": -5.0661169241,
				"z": -0.7980226379,
				"element": "O" 
			},
			{
				"x": 2.0003743779,
				"y": 0.3935133297,
				"z": -4.9975315306,
				"element": "H" 
			},
			{
				"x": 0.6251924472,
				"y": -0.743251993,
				"z": -5.0673900146,
				"element": "H" 
			},
			{
				"x": 0.4400191886,
				"y": 0.8326010651,
				"z": -4.2409032535,
				"element": "H" 
			},
			{
				"x": 1.8869533006,
				"y": 1.3666881128,
				"z": -1.8301893271,
				"element": "H" 
			},
			{
				"x": 0.8543975403,
				"y": 2.8138903489,
				"z": -1.6785988749,
				"element": "H" 
			},
			{
				"x": 2.9174793825,
				"y": 0.47400592,
				"z": 0.4219583824,
				"element": "H" 
			},
			{
				"x": -0.8023666585,
				"y": 2.0344306396,
				"z": 3.9489049778,
				"element": "H" 
			},
			{
				"x": -1.2072176176,
				"y": 3.3749831787,
				"z": 2.8534174229,
				"element": "H" 
			},
			{
				"x": 0.2062385966,
				"y": 3.4865872498,
				"z": 3.926116091,
				"element": "H" 
			},
			{
				"x": -1.8549265986,
				"y": -0.1787546877,
				"z": -0.3436830187,
				"element": "H" 
			},
			{
				"x": -2.0161003001,
				"y": -2.6813919389,
				"z": -0.107419431,
				"element": "H" 
			},
			{
				"x": 1.2860380914,
				"y": -3.0765578699,
				"z": -2.8517243489,
				"element": "H" 
			},
			{
				"x": 1.3717111065,
				"y": -4.7181492246,
				"z": -1.6840950556,
				"element": "H" 
			}
		],
		 "valence_orbital": [ 
			{
				"type": "occ",
				"energy": -0.27931,
				"method": "rhf"
			},
			{
				"type": "occ",
				"energy": -0.26891,
				"method": "rhf"
			},
			{
				"type": "occ",
				"energy": -0.26024,
				"method": "rhf"
			},
			{
				"type": "occ",
				"energy": -0.24936,
				"method": "rhf"
			},
			{
				"type": "occ",
				"energy": -0.24256,
				"method": "rhf"
			},
			{
				"type": "unocc",
				"energy": -0.04626,
				"method": "rhf"
			},
			{
				"type": "unocc",
				"energy": -0.03122,
				"method": "rhf"
			},
			{
				"type": "unocc",
				"energy": -0.01659,
				"method": "rhf"
			},
			{
				"type": "unocc",
				"energy": 0.01163,
				"method": "rhf"
			},
			{
				"type": "unocc",
				"energy": 0.02767,
				"method": "rhf"
			}
		],
		"cosmo_sigma_profile": { 
			"-0.025": 0.0,
			"-0.024": 0.0,
			"-0.023": 0.0,
			"-0.022": 0.0,
			"-0.021": 0.0,
			"-0.02": 0.0,
			"-0.019": 0.155871575502,
			"-0.018": 0.895888627815,
			"-0.017": 0.856940023369,
			"-0.016": 0.974474393842,
			"-0.015": 1.3580077754,
			"-0.014": 0.60542734675,
			"-0.013": 0.968990647407,
			"-0.012": 1.1732137725,
			"-0.011": 1.33505936823,
			"-0.01": 1.04401468126,
			"-0.009": 2.90652361509,
			"-0.008": 3.3735285647,
			"-0.007": 5.93129594937,
			"-0.006": 13.6143786176,
			"-0.005": 21.5243979588,
			"-0.004": 25.2971187851,
			"-0.003": 28.0167582922,
			"-0.002": 26.4141580284,
			"-0.001": 22.0011716549,
			"0.0": 18.9721776683,
			"0.001": 22.5436173793,
			"0.002": 27.6905086181,
			"0.003": 21.55011267,
			"0.004": 8.23137483996,
			"0.005": 5.99622849589,
			"0.006": 5.44729934496,
			"0.007": 6.09200426761,
			"0.008": 4.88668015007,
			"0.009": 6.17197196452,
			"0.01": 8.18635206975,
			"0.011": 7.79883501075,
			"0.012": 5.85365179196,
			"0.013": 2.49180216608,
			"0.014": 1.29029836703,
			"0.015": 0.434927475754,
			"0.016": 0.0082509066759,
			"0.017": 0.0,
			"0.018": 0.0,
			"0.019": 0.0,
			"0.02": 0.0,
			"0.021": 0.0,
			"0.022": 0.0,
			"0.023": 0.0,
			"0.024": 0.0,
			"0.025": 0.0
		}
	}
}
