{
	 "smiles": "CC1=C(SC(NC(=O)C2=C(Cl)C=C(F)C=C2)=C1)C(O)=O", 
	 "Tm": 481.15, 
	 "num_atms": 29, 
	 "gaussian": { 
		 "optdone": 1, 
		 "sigma_profile": "yes", 
		 "theory": "DFT", 
		 "functional": "B3LYP", 
		 "basiset": "6-31G**", 
		 "properties": { 
			 "R2extent": 7504.5387, 
			 "electric_dipole_moment_norm": 3.86872554855, 
			 "electric_quadrupole_moment_norm": 8.69120320554, 
			 "total_energy": -1739.4569991, 
			 "HOMO_LUMO_gap": 0.16418, 
			 "cosmo_polarized_energy": -17.74, 
			 "cosmo_cavitation_energy": 38.47, 
			 "cosmo_dispersion_energy": -26.53, 
			 "cosmo_repulsion_energy": 2.0, 
			 "cosmo_total_nonelectrostatic_energy": 13.94, 
			 "SMD_solvation_energy": 8.29 
		},
		"coords": [
			{
				"x": -0.5429546352,
				"y": 2.9601312331,
				"z": -2.4050547194,
				"element": "C" 
			},
			{
				"x": -0.6700848791,
				"y": 2.7687011492,
				"z": -0.9165450418,
				"element": "C" 
			},
			{
				"x": -0.3729893291,
				"y": 3.7133837105,
				"z": 0.052945483,
				"element": "C" 
			},
			{
				"x": -0.6492333503,
				"y": 3.1063238713,
				"z": 1.6710480183,
				"element": "S" 
			},
			{
				"x": -1.206445927,
				"y": 1.586145909,
				"z": 1.0315665754,
				"element": "C" 
			},
			{
				"x": -1.6358126311,
				"y": 0.5971748003,
				"z": 1.9167773616,
				"element": "N" 
			},
			{
				"x": -1.6095564112,
				"y": -0.7841062876,
				"z": 1.8014979488,
				"element": "C" 
			},
			{
				"x": -2.2809354964,
				"y": -1.4676664441,
				"z": 2.5593680471,
				"element": "O" 
			},
			{
				"x": -0.7792413887,
				"y": -1.4215441387,
				"z": 0.7207549113,
				"element": "C" 
			},
			{
				"x": 0.6095595747,
				"y": -1.2790816029,
				"z": 0.5772467811,
				"element": "C" 
			},
			{
				"x": 1.5380593696,
				"y": -0.2692630796,
				"z": 1.6675375717,
				"element": "Cl" 
			},
			{
				"x": 1.3095800603,
				"y": -1.9721465734,
				"z": -0.4100656873,
				"element": "C" 
			},
			{
				"x": 0.6022683413,
				"y": -2.8187587185,
				"z": -1.2546919471,
				"element": "C" 
			},
			{
				"x": 1.2756461878,
				"y": -3.4793305879,
				"z": -2.2122207491,
				"element": "F" 
			},
			{
				"x": -0.7692488299,
				"y": -3.0133782121,
				"z": -1.1307862193,
				"element": "C" 
			},
			{
				"x": -1.4414519112,
				"y": -2.3219215255,
				"z": -0.1287538465,
				"element": "C" 
			},
			{
				"x": -1.1559998948,
				"y": 1.5593133117,
				"z": -0.3442518107,
				"element": "C" 
			},
			{
				"x": 0.1024348847,
				"y": 5.0900624981,
				"z": -0.0451064353,
				"element": "C" 
			},
			{
				"x": 0.3164192165,
				"y": 5.4989739282,
				"z": -1.3241497585,
				"element": "O" 
			},
			{
				"x": 0.2993946316,
				"y": 5.8210893936,
				"z": 0.9100808444,
				"element": "O" 
			},
			{
				"x": -0.8706582694,
				"y": 2.0617895992,
				"z": -2.9339677593,
				"element": "H" 
			},
			{
				"x": 0.4914407296,
				"y": 3.1728329879,
				"z": -2.6898891429,
				"element": "H" 
			},
			{
				"x": -1.1418727381,
				"y": 3.8071219244,
				"z": -2.7505764854,
				"element": "H" 
			},
			{
				"x": -2.1544625373,
				"y": 0.893459563,
				"z": 2.7361520257,
				"element": "H" 
			},
			{
				"x": 2.3825353452,
				"y": -1.8688141836,
				"z": -0.5150278307,
				"element": "H" 
			},
			{
				"x": -1.2815669005,
				"y": -3.698651523,
				"z": -1.7961717125,
				"element": "H" 
			},
			{
				"x": -2.5062472444,
				"y": -2.4731106182,
				"z": 0.0141879126,
				"element": "H" 
			},
			{
				"x": -1.4743183926,
				"y": 0.7105839868,
				"z": -0.9359365415,
				"element": "H" 
			},
			{
				"x": 0.628642425,
				"y": 6.4160856289,
				"z": -1.2495677936,
				"element": "H" 
			}
		],
		 "valence_orbital": [ 
			{
				"type": "occ",
				"energy": -0.27993,
				"method": "rhf"
			},
			{
				"type": "occ",
				"energy": -0.27302,
				"method": "rhf"
			},
			{
				"type": "occ",
				"energy": -0.26456,
				"method": "rhf"
			},
			{
				"type": "occ",
				"energy": -0.25795,
				"method": "rhf"
			},
			{
				"type": "occ",
				"energy": -0.22874,
				"method": "rhf"
			},
			{
				"type": "unocc",
				"energy": -0.06456,
				"method": "rhf"
			},
			{
				"type": "unocc",
				"energy": -0.04078,
				"method": "rhf"
			},
			{
				"type": "unocc",
				"energy": -0.03619,
				"method": "rhf"
			},
			{
				"type": "unocc",
				"energy": 0.00587,
				"method": "rhf"
			},
			{
				"type": "unocc",
				"energy": 0.00833,
				"method": "rhf"
			}
		],
		"cosmo_sigma_profile": { 
			"-0.025": 0.0,
			"-0.024": 0.0,
			"-0.023": 0.0,
			"-0.022": 0.0,
			"-0.021": 0.0,
			"-0.02": 0.0,
			"-0.019": 0.0451392971605,
			"-0.018": 0.888988042161,
			"-0.017": 0.708169153751,
			"-0.016": 2.00707251176,
			"-0.015": 1.39611330051,
			"-0.014": 1.82044752705,
			"-0.013": 1.55247283585,
			"-0.012": 1.63545168951,
			"-0.011": 1.87382344985,
			"-0.01": 1.88136291913,
			"-0.009": 2.7474319973,
			"-0.008": 6.09775830467,
			"-0.007": 7.71639509143,
			"-0.006": 12.5933822587,
			"-0.005": 12.8698389731,
			"-0.004": 13.7926574533,
			"-0.003": 14.4634413988,
			"-0.002": 18.4624230739,
			"-0.001": 30.9791201476,
			"0.0": 33.263146355,
			"0.001": 29.6355711088,
			"0.002": 28.7705556456,
			"0.003": 29.0281758266,
			"0.004": 16.7622464867,
			"0.005": 5.56099826796,
			"0.006": 5.39598964118,
			"0.007": 2.8554699092,
			"0.008": 2.32122620797,
			"0.009": 2.52103375942,
			"0.01": 4.58124940663,
			"0.011": 6.10165813772,
			"0.012": 10.3550993295,
			"0.013": 1.52975244422,
			"0.014": 0.0,
			"0.015": 0.0,
			"0.016": 0.0,
			"0.017": 0.0,
			"0.018": 0.0,
			"0.019": 0.0,
			"0.02": 0.0,
			"0.021": 0.0,
			"0.022": 0.0,
			"0.023": 0.0,
			"0.024": 0.0,
			"0.025": 0.0
		}
	}
}
