{
	 "smiles": "CC1=CC(C)=NC(C)=C1", 
	 "Tm": 228.65, 
	 "num_atms": 20, 
	 "gaussian": { 
		 "optdone": 1, 
		 "sigma_profile": "yes", 
		 "theory": "DFT", 
		 "functional": "B3LYP", 
		 "basiset": "6-31G**", 
		 "properties": { 
			 "R2extent": 1538.667, 
			 "electric_dipole_moment_norm": 1.9730075342, 
			 "electric_quadrupole_moment_norm": 4.19183383855, 
			 "total_energy": -366.253328855, 
			 "HOMO_LUMO_gap": 0.2293, 
			 "cosmo_polarized_energy": -5.63, 
			 "cosmo_cavitation_energy": 22.99, 
			 "cosmo_dispersion_energy": -16.91, 
			 "cosmo_repulsion_energy": 1.41, 
			 "cosmo_total_nonelectrostatic_energy": 7.49, 
			 "SMD_solvation_energy": 2.98 
		},
		"coords": [
			{
				"x": 1.3700719037,
				"y": -3.0025015525,
				"z": -0.2893715374,
				"element": "C" 
			},
			{
				"x": 1.049116345,
				"y": -1.5920365432,
				"z": 0.1404673701,
				"element": "C" 
			},
			{
				"x": 0.3499673402,
				"y": -0.7174374079,
				"z": -0.6957013425,
				"element": "C" 
			},
			{
				"x": 0.0448748264,
				"y": 0.5742103978,
				"z": -0.2528041679,
				"element": "C" 
			},
			{
				"x": -0.7082980471,
				"y": 1.5418755577,
				"z": -1.1348148847,
				"element": "C" 
			},
			{
				"x": 0.4035985629,
				"y": 1.0196662433,
				"z": 0.9624913772,
				"element": "N" 
			},
			{
				"x": 1.0783885289,
				"y": 0.1910430713,
				"z": 1.7761736749,
				"element": "C" 
			},
			{
				"x": 1.4645524433,
				"y": 0.7363597589,
				"z": 3.1308332075,
				"element": "C" 
			},
			{
				"x": 1.4177551412,
				"y": -1.1133165916,
				"z": 1.4005626174,
				"element": "C" 
			},
			{
				"x": 1.4927159707,
				"y": -3.0720448407,
				"z": -1.3742071115,
				"element": "H" 
			},
			{
				"x": 2.2863187492,
				"y": -3.3665129848,
				"z": 0.1846845346,
				"element": "H" 
			},
			{
				"x": 0.5617987015,
				"y": -3.6885927688,
				"z": -0.0074883283,
				"element": "H" 
			},
			{
				"x": 0.0446910995,
				"y": -1.0359142485,
				"z": -1.6895376172,
				"element": "H" 
			},
			{
				"x": -0.1708550583,
				"y": 1.7281991082,
				"z": -2.0718206926,
				"element": "H" 
			},
			{
				"x": -1.6967731014,
				"y": 1.1505675466,
				"z": -1.4020423622,
				"element": "H" 
			},
			{
				"x": -0.8373853796,
				"y": 2.4900279108,
				"z": -0.6104769803,
				"element": "H" 
			},
			{
				"x": 2.5513873604,
				"y": 0.7190015584,
				"z": 3.2723681025,
				"element": "H" 
			},
			{
				"x": 1.1156056098,
				"y": 1.7660416928,
				"z": 3.2234502829,
				"element": "H" 
			},
			{
				"x": 1.0242078251,
				"y": 0.1418897666,
				"z": 3.9397313236,
				"element": "H" 
			},
			{
				"x": 1.9692611789,
				"y": -1.7494256744,
				"z": 2.0887025339,
				"element": "H" 
			}
		],
		 "valence_orbital": [ 
			{
				"type": "occ",
				"energy": -0.34763,
				"method": "rhf"
			},
			{
				"type": "occ",
				"energy": -0.34031,
				"method": "rhf"
			},
			{
				"type": "occ",
				"energy": -0.26303,
				"method": "rhf"
			},
			{
				"type": "occ",
				"energy": -0.24159,
				"method": "rhf"
			},
			{
				"type": "occ",
				"energy": -0.23655,
				"method": "rhf"
			},
			{
				"type": "unocc",
				"energy": -0.00725,
				"method": "rhf"
			},
			{
				"type": "unocc",
				"energy": -0.0027,
				"method": "rhf"
			},
			{
				"type": "unocc",
				"energy": 0.10367,
				"method": "rhf"
			},
			{
				"type": "unocc",
				"energy": 0.12409,
				"method": "rhf"
			},
			{
				"type": "unocc",
				"energy": 0.12581,
				"method": "rhf"
			}
		],
		"cosmo_sigma_profile": { 
			"-0.025": 0.0,
			"-0.024": 0.0,
			"-0.023": 0.0,
			"-0.022": 0.0,
			"-0.021": 0.0,
			"-0.02": 0.0,
			"-0.019": 0.0,
			"-0.018": 0.0,
			"-0.017": 0.0,
			"-0.016": 0.0,
			"-0.015": 0.0,
			"-0.014": 0.0,
			"-0.013": 0.0,
			"-0.012": 0.0,
			"-0.011": 0.0,
			"-0.01": 0.0,
			"-0.009": 0.0,
			"-0.008": 0.0,
			"-0.007": 0.0,
			"-0.006": 0.644935214562,
			"-0.005": 7.85003341558,
			"-0.004": 20.2489283496,
			"-0.003": 20.6889371622,
			"-0.002": 23.4671901065,
			"-0.001": 22.4686123259,
			"0.0": 25.0497893098,
			"0.001": 14.8779836315,
			"0.002": 7.28792984535,
			"0.003": 9.9087931558,
			"0.004": 11.673079986,
			"0.005": 3.42099389382,
			"0.006": 2.30728001558,
			"0.007": 2.16159441161,
			"0.008": 1.30361881927,
			"0.009": 1.41302606741,
			"0.01": 1.41254890674,
			"0.011": 0.801430226386,
			"0.012": 0.71872962832,
			"0.013": 0.955586690078,
			"0.014": 1.140759689,
			"0.015": 0.832801752587,
			"0.016": 0.482821712422,
			"0.017": 0.013875565989,
			"0.018": 0.0,
			"0.019": 0.0,
			"0.02": 0.0,
			"0.021": 0.0,
			"0.022": 0.0,
			"0.023": 0.0,
			"0.024": 0.0,
			"0.025": 0.0
		}
	}
}
