{
	 "smiles": "COC1=CC=CC(OC)=C1C(C)=O", 
	 "Tm": 342.65, 
	 "num_atms": 25, 
	 "gaussian": { 
		 "optdone": 1, 
		 "sigma_profile": "yes", 
		 "theory": "DFT", 
		 "functional": "B3LYP", 
		 "basiset": "6-31G**", 
		 "properties": { 
			 "R2extent": 2793.3961, 
			 "electric_dipole_moment_norm": 3.49700899198, 
			 "electric_quadrupole_moment_norm": 9.60712031412, 
			 "total_energy": -613.934967752, 
			 "HOMO_LUMO_gap": 0.19799, 
			 "cosmo_polarized_energy": -10.11, 
			 "cosmo_cavitation_energy": 28.4, 
			 "cosmo_dispersion_energy": -20.21, 
			 "cosmo_repulsion_energy": 1.62, 
			 "cosmo_total_nonelectrostatic_energy": 9.8, 
			 "SMD_solvation_energy": 7.15 
		},
		"coords": [
			{
				"x": -3.7921043067,
				"y": -1.9815943137,
				"z": 0.457158472,
				"element": "C" 
			},
			{
				"x": -2.4836096347,
				"y": -1.9023392436,
				"z": 1.0361411161,
				"element": "O" 
			},
			{
				"x": -1.8916553427,
				"y": -0.663069385,
				"z": 0.9641173445,
				"element": "C" 
			},
			{
				"x": -2.1585681447,
				"y": 0.2862104852,
				"z": 1.9568710097,
				"element": "C" 
			},
			{
				"x": -1.5031230859,
				"y": 1.5119574468,
				"z": 1.92086414,
				"element": "C" 
			},
			{
				"x": -0.5802159832,
				"y": 1.8044720733,
				"z": 0.9133341465,
				"element": "C" 
			},
			{
				"x": -0.3083382868,
				"y": 0.8460555994,
				"z": -0.0684491876,
				"element": "C" 
			},
			{
				"x": 0.5673937352,
				"y": 1.041036611,
				"z": -1.1011762599,
				"element": "O" 
			},
			{
				"x": 1.2366154746,
				"y": 2.2896384565,
				"z": -1.1985602139,
				"element": "C" 
			},
			{
				"x": -0.9668197586,
				"y": -0.4011033937,
				"z": -0.0566533457,
				"element": "C" 
			},
			{
				"x": -0.7165711926,
				"y": -1.4448951424,
				"z": -1.1232154389,
				"element": "C" 
			},
			{
				"x": 0.6769474256,
				"y": -2.029460394,
				"z": -1.2119633163,
				"element": "C" 
			},
			{
				"x": -1.6221258251,
				"y": -1.8308631709,
				"z": -1.8406766272,
				"element": "O" 
			},
			{
				"x": -4.145934273,
				"y": -2.9978700306,
				"z": 0.641929383,
				"element": "H" 
			},
			{
				"x": -3.7425496586,
				"y": -1.7949357659,
				"z": -0.6197067658,
				"element": "H" 
			},
			{
				"x": -4.4783197936,
				"y": -1.2680015794,
				"z": 0.9315827547,
				"element": "H" 
			},
			{
				"x": -2.8592882258,
				"y": 0.0391943264,
				"z": 2.7473000736,
				"element": "H" 
			},
			{
				"x": -1.7037575791,
				"y": 2.2550774161,
				"z": 2.6871806247,
				"element": "H" 
			},
			{
				"x": -0.08472616,
				"y": 2.7672367976,
				"z": 0.9026466677,
				"element": "H" 
			},
			{
				"x": 0.5268215347,
				"y": 3.1174159586,
				"z": -1.3181073125,
				"element": "H" 
			},
			{
				"x": 1.8650800779,
				"y": 2.2237972712,
				"z": -2.0877801982,
				"element": "H" 
			},
			{
				"x": 1.8686373369,
				"y": 2.480084228,
				"z": -0.3220154447,
				"element": "H" 
			},
			{
				"x": 0.7467306392,
				"y": -2.6827920982,
				"z": -2.0835220315,
				"element": "H" 
			},
			{
				"x": 1.4287493557,
				"y": -1.2384095271,
				"z": -1.2611096288,
				"element": "H" 
			},
			{
				"x": 0.8702316713,
				"y": -2.6136426256,
				"z": -0.3035899616,
				"element": "H" 
			}
		],
		 "valence_orbital": [ 
			{
				"type": "occ",
				"energy": -0.3172,
				"method": "rhf"
			},
			{
				"type": "occ",
				"energy": -0.26717,
				"method": "rhf"
			},
			{
				"type": "occ",
				"energy": -0.24926,
				"method": "rhf"
			},
			{
				"type": "occ",
				"energy": -0.23645,
				"method": "rhf"
			},
			{
				"type": "occ",
				"energy": -0.22608,
				"method": "rhf"
			},
			{
				"type": "unocc",
				"energy": -0.02809,
				"method": "rhf"
			},
			{
				"type": "unocc",
				"energy": 0.00672,
				"method": "rhf"
			},
			{
				"type": "unocc",
				"energy": 0.01503,
				"method": "rhf"
			},
			{
				"type": "unocc",
				"energy": 0.08661,
				"method": "rhf"
			},
			{
				"type": "unocc",
				"energy": 0.09541,
				"method": "rhf"
			}
		],
		"cosmo_sigma_profile": { 
			"-0.025": 0.0,
			"-0.024": 0.0,
			"-0.023": 0.0,
			"-0.022": 0.0,
			"-0.021": 0.0,
			"-0.02": 0.0,
			"-0.019": 0.0,
			"-0.018": 0.0,
			"-0.017": 0.0,
			"-0.016": 0.0,
			"-0.015": 0.0,
			"-0.014": 0.0,
			"-0.013": 0.0,
			"-0.012": 0.0,
			"-0.011": 0.0,
			"-0.01": 0.0,
			"-0.009": 0.0,
			"-0.008": 0.0,
			"-0.007": 2.07046121251,
			"-0.006": 13.2149290794,
			"-0.005": 20.4035354974,
			"-0.004": 23.7199231904,
			"-0.003": 24.3970013699,
			"-0.002": 21.176258591,
			"-0.001": 17.1215801517,
			"0.0": 14.5484723424,
			"0.001": 11.7938130261,
			"0.002": 12.4553938418,
			"0.003": 13.810068848,
			"0.004": 14.0482006204,
			"0.005": 8.35919371769,
			"0.006": 5.75313668399,
			"0.007": 4.50857546352,
			"0.008": 3.24753086207,
			"0.009": 2.89273715299,
			"0.01": 3.70172588895,
			"0.011": 4.10304768499,
			"0.012": 2.97095310149,
			"0.013": 0.835895100362,
			"0.014": 0.0,
			"0.015": 0.0,
			"0.016": 0.0,
			"0.017": 0.0,
			"0.018": 0.0,
			"0.019": 0.0,
			"0.02": 0.0,
			"0.021": 0.0,
			"0.022": 0.0,
			"0.023": 0.0,
			"0.024": 0.0,
			"0.025": 0.0
		}
	}
}
