{
	 "smiles": "[N-]=[N+]=NC(=O)C1=NOC=N1", 
	 "Tm": 363.15, 
	 "num_atms": 11, 
	 "gaussian": { 
		 "optdone": 1, 
		 "sigma_profile": "yes", 
		 "theory": "DFT", 
		 "functional": "B3LYP", 
		 "basiset": "6-31G**", 
		 "properties": { 
			 "R2extent": 1976.298, 
			 "electric_dipole_moment_norm": 3.06892204365, 
			 "electric_quadrupole_moment_norm": 7.15181043373, 
			 "total_energy": -538.994983735, 
			 "HOMO_LUMO_gap": 0.19987, 
			 "cosmo_polarized_energy": -11.27, 
			 "cosmo_cavitation_energy": 18.99, 
			 "cosmo_dispersion_energy": -13.58, 
			 "cosmo_repulsion_energy": 1.12, 
			 "cosmo_total_nonelectrostatic_energy": 6.53, 
			 "SMD_solvation_energy": 1.53 
		},
		"coords": [
			{
				"x": 2.936258956,
				"y": 3.8027614186,
				"z": -1.7120388435,
				"element": "N" 
			},
			{
				"x": 2.3369599312,
				"y": 2.9232623195,
				"z": -1.3281848335,
				"element": "N" 
			},
			{
				"x": 1.7996831051,
				"y": 1.8960971852,
				"z": -0.8593034445,
				"element": "N" 
			},
			{
				"x": 0.3911440147,
				"y": 1.8473168619,
				"z": -1.011909904,
				"element": "C" 
			},
			{
				"x": -0.288149176,
				"y": 2.6974310127,
				"z": -1.5421751338,
				"element": "O" 
			},
			{
				"x": -0.1639497042,
				"y": 0.5915047625,
				"z": -0.4259315052,
				"element": "C" 
			},
			{
				"x": -1.4568836149,
				"y": 0.3589206712,
				"z": -0.4680166248,
				"element": "N" 
			},
			{
				"x": -1.573403695,
				"y": -0.8743559383,
				"z": 0.1616723952,
				"element": "O" 
			},
			{
				"x": -0.3300732093,
				"y": -1.2452440257,
				"z": 0.5128335673,
				"element": "C" 
			},
			{
				"x": 0.5858142469,
				"y": -0.3918379964,
				"z": 0.1828002878,
				"element": "N" 
			},
			{
				"x": -0.2214008545,
				"y": -2.192856271,
				"z": 1.0217540391,
				"element": "H" 
			}
		],
		 "valence_orbital": [ 
			{
				"type": "occ",
				"energy": -0.36017,
				"method": "rhf"
			},
			{
				"type": "occ",
				"energy": -0.32915,
				"method": "rhf"
			},
			{
				"type": "occ",
				"energy": -0.32225,
				"method": "rhf"
			},
			{
				"type": "occ",
				"energy": -0.30684,
				"method": "rhf"
			},
			{
				"type": "occ",
				"energy": -0.29647,
				"method": "rhf"
			},
			{
				"type": "unocc",
				"energy": -0.0966,
				"method": "rhf"
			},
			{
				"type": "unocc",
				"energy": -0.06179,
				"method": "rhf"
			},
			{
				"type": "unocc",
				"energy": -0.04003,
				"method": "rhf"
			},
			{
				"type": "unocc",
				"energy": -0.00501,
				"method": "rhf"
			},
			{
				"type": "unocc",
				"energy": 0.06911,
				"method": "rhf"
			}
		],
		"cosmo_sigma_profile": { 
			"-0.025": 0.0,
			"-0.024": 0.0,
			"-0.023": 0.0,
			"-0.022": 0.0,
			"-0.021": 0.0,
			"-0.02": 0.0,
			"-0.019": 0.0,
			"-0.018": 0.0,
			"-0.017": 0.0,
			"-0.016": 0.0,
			"-0.015": 0.0,
			"-0.014": 0.854200338415,
			"-0.013": 2.82398982272,
			"-0.012": 1.87599224288,
			"-0.011": 1.51683701521,
			"-0.01": 1.54027821476,
			"-0.009": 2.14907571908,
			"-0.008": 4.51292224966,
			"-0.007": 9.20783782579,
			"-0.006": 11.4830473114,
			"-0.005": 9.21942749715,
			"-0.004": 7.78566042256,
			"-0.003": 8.30216755213,
			"-0.002": 7.07910406701,
			"-0.001": 6.83005004239,
			"0.0": 7.78515884373,
			"0.001": 7.41908086788,
			"0.002": 7.79443992319,
			"0.003": 8.53595746929,
			"0.004": 9.92130733649,
			"0.005": 5.33723592894,
			"0.006": 4.87125334845,
			"0.007": 4.56203358705,
			"0.008": 5.12300960185,
			"0.009": 6.82839878309,
			"0.01": 7.09002443124,
			"0.011": 2.98788908153,
			"0.012": 1.45238515412,
			"0.013": 0.959422001804,
			"0.014": 0.0601234362072,
			"0.015": 0.0,
			"0.016": 0.0,
			"0.017": 0.0,
			"0.018": 0.0,
			"0.019": 0.0,
			"0.02": 0.0,
			"0.021": 0.0,
			"0.022": 0.0,
			"0.023": 0.0,
			"0.024": 0.0,
			"0.025": 0.0
		}
	}
}
