{
	 "smiles": "CC(CCl)(CCl)CCl", 
	 "Tm": 291.15, 
	 "num_atms": 17, 
	 "gaussian": { 
		 "optdone": 1, 
		 "sigma_profile": "yes", 
		 "theory": "DFT", 
		 "functional": "B3LYP", 
		 "basiset": "6-31G**", 
		 "properties": { 
			 "R2extent": 2543.8129, 
			 "electric_dipole_moment_norm": 1.99328802234, 
			 "electric_quadrupole_moment_norm": 11.6240668559, 
			 "total_energy": -1576.55134866, 
			 "HOMO_LUMO_gap": 0.28845, 
			 "cosmo_polarized_energy": -7.72, 
			 "cosmo_cavitation_energy": 23.63, 
			 "cosmo_dispersion_energy": -17.39, 
			 "cosmo_repulsion_energy": 1.43, 
			 "cosmo_total_nonelectrostatic_energy": 7.66, 
			 "SMD_solvation_energy": 3.14 
		},
		"coords": [
			{
				"x": 0.1358461466,
				"y": 2.2837759469,
				"z": -0.3352526447,
				"element": "C" 
			},
			{
				"x": -0.4336384308,
				"y": 1.3011165052,
				"z": 0.7065188657,
				"element": "C" 
			},
			{
				"x": -1.5556492893,
				"y": 0.4371421354,
				"z": 0.0888947853,
				"element": "C" 
			},
			{
				"x": -1.0155566069,
				"y": -0.5644250243,
				"z": -1.3262966858,
				"element": "Cl" 
			},
			{
				"x": -1.1302257675,
				"y": 2.0634166146,
				"z": 1.8556444377,
				"element": "C" 
			},
			{
				"x": -0.0321974803,
				"y": 3.1944797707,
				"z": 2.757072917,
				"element": "Cl" 
			},
			{
				"x": 0.731142444,
				"y": 0.438551204,
				"z": 1.2200993252,
				"element": "C" 
			},
			{
				"x": 0.2453347575,
				"y": -0.7924447453,
				"z": 2.4697737387,
				"element": "Cl" 
			},
			{
				"x": 0.5831093601,
				"y": 1.7455905722,
				"z": -1.173762821,
				"element": "H" 
			},
			{
				"x": 0.8944977083,
				"y": 2.9292708997,
				"z": 0.1126261298,
				"element": "H" 
			},
			{
				"x": -0.6604209896,
				"y": 2.9232633223,
				"z": -0.7309500244,
				"element": "H" 
			},
			{
				"x": -2.3631348281,
				"y": 1.0694694082,
				"z": -0.2841474153,
				"element": "H" 
			},
			{
				"x": -1.9528578664,
				"y": -0.2698353467,
				"z": 0.8172451244,
				"element": "H" 
			},
			{
				"x": -1.5228644057,
				"y": 1.3739587709,
				"z": 2.6030329492,
				"element": "H" 
			},
			{
				"x": -1.9414593521,
				"y": 2.6815984528,
				"z": 1.4673464342,
				"element": "H" 
			},
			{
				"x": 1.486933212,
				"y": 1.0644502706,
				"z": 1.6931977553,
				"element": "H" 
			},
			{
				"x": 1.176141388,
				"y": -0.1248787573,
				"z": 0.4007571287,
				"element": "H" 
			}
		],
		 "valence_orbital": [ 
			{
				"type": "occ",
				"energy": -0.30877,
				"method": "rhf"
			},
			{
				"type": "occ",
				"energy": -0.30588,
				"method": "rhf"
			},
			{
				"type": "occ",
				"energy": -0.30437,
				"method": "rhf"
			},
			{
				"type": "occ",
				"energy": -0.30132,
				"method": "rhf"
			},
			{
				"type": "occ",
				"energy": -0.3003,
				"method": "rhf"
			},
			{
				"type": "unocc",
				"energy": -0.01185,
				"method": "rhf"
			},
			{
				"type": "unocc",
				"energy": 0.01762,
				"method": "rhf"
			},
			{
				"type": "unocc",
				"energy": 0.05153,
				"method": "rhf"
			},
			{
				"type": "unocc",
				"energy": 0.069,
				"method": "rhf"
			},
			{
				"type": "unocc",
				"energy": 0.10746,
				"method": "rhf"
			}
		],
		"cosmo_sigma_profile": { 
			"-0.025": 0.0,
			"-0.024": 0.0,
			"-0.023": 0.0,
			"-0.022": 0.0,
			"-0.021": 0.0,
			"-0.02": 0.0,
			"-0.019": 0.0,
			"-0.018": 0.0,
			"-0.017": 0.0,
			"-0.016": 0.0,
			"-0.015": 0.0,
			"-0.014": 0.0,
			"-0.013": 0.0,
			"-0.012": 0.0,
			"-0.011": 0.0,
			"-0.01": 0.161307200175,
			"-0.009": 1.91058569822,
			"-0.008": 4.93572334106,
			"-0.007": 7.91097892919,
			"-0.006": 10.9701477412,
			"-0.005": 11.5219281731,
			"-0.004": 12.8660733644,
			"-0.003": 11.5066390876,
			"-0.002": 9.28535805197,
			"-0.001": 12.4311506588,
			"0.0": 15.3728877374,
			"0.001": 13.5919308883,
			"0.002": 11.4432440657,
			"0.003": 14.0410861834,
			"0.004": 16.7599889637,
			"0.005": 15.1022850042,
			"0.006": 19.1281278437,
			"0.007": 2.53934449191,
			"0.008": 0.0,
			"0.009": 0.0,
			"0.01": 0.0,
			"0.011": 0.0,
			"0.012": 0.0,
			"0.013": 0.0,
			"0.014": 0.0,
			"0.015": 0.0,
			"0.016": 0.0,
			"0.017": 0.0,
			"0.018": 0.0,
			"0.019": 0.0,
			"0.02": 0.0,
			"0.021": 0.0,
			"0.022": 0.0,
			"0.023": 0.0,
			"0.024": 0.0,
			"0.025": 0.0
		}
	}
}
