{
	 "smiles": "CC1=CC2=NC=C(N2C=C1)C(O)=O", 
	 "Tm": 433.15, 
	 "num_atms": 21, 
	 "gaussian": { 
		 "optdone": 1, 
		 "sigma_profile": "yes", 
		 "theory": "DFT", 
		 "functional": "B3LYP", 
		 "basiset": "6-31G**", 
		 "properties": { 
			 "R2extent": 2563.1509, 
			 "electric_dipole_moment_norm": 3.16657401777, 
			 "electric_quadrupole_moment_norm": 19.4063743512, 
			 "total_energy": -607.743837893, 
			 "HOMO_LUMO_gap": 0.18061, 
			 "cosmo_polarized_energy": -15.79, 
			 "cosmo_cavitation_energy": 25.36, 
			 "cosmo_dispersion_energy": -19.04, 
			 "cosmo_repulsion_energy": 1.47, 
			 "cosmo_total_nonelectrostatic_energy": 7.79, 
			 "SMD_solvation_energy": 4.02 
		},
		"coords": [
			{
				"x": -1.575367292,
				"y": 2.5325174868,
				"z": -2.4781342976,
				"element": "C" 
			},
			{
				"x": -0.9791799078,
				"y": 1.5926592551,
				"z": -1.4618039797,
				"element": "C" 
			},
			{
				"x": 0.0109701665,
				"y": 0.693004319,
				"z": -1.7971740785,
				"element": "C" 
			},
			{
				"x": 0.5455121763,
				"y": -0.1714747977,
				"z": -0.8196527832,
				"element": "C" 
			},
			{
				"x": 1.5012971806,
				"y": -1.108288781,
				"z": -0.9335538962,
				"element": "N" 
			},
			{
				"x": 1.6220914861,
				"y": -1.6346412266,
				"z": 0.3000560914,
				"element": "C" 
			},
			{
				"x": 0.7547488654,
				"y": -1.0535218316,
				"z": 1.2268778105,
				"element": "C" 
			},
			{
				"x": 0.0550896534,
				"y": -0.0986097274,
				"z": 0.4862464413,
				"element": "N" 
			},
			{
				"x": -0.9300495024,
				"y": 0.7890101205,
				"z": 0.8431944964,
				"element": "C" 
			},
			{
				"x": -1.4419879704,
				"y": 1.6229807778,
				"z": -0.111597704,
				"element": "C" 
			},
			{
				"x": 0.5162004495,
				"y": -1.2765485704,
				"z": 2.6485178355,
				"element": "C" 
			},
			{
				"x": 1.2714787604,
				"y": -2.2397945468,
				"z": 3.2429758236,
				"element": "O" 
			},
			{
				"x": -0.2993385784,
				"y": -0.6637868233,
				"z": 3.3116234248,
				"element": "O" 
			},
			{
				"x": -1.1234321075,
				"y": 2.3952723044,
				"z": -3.4633410256,
				"element": "H" 
			},
			{
				"x": -2.6556455197,
				"y": 2.3736826098,
				"z": -2.5747405513,
				"element": "H" 
			},
			{
				"x": -1.4303749956,
				"y": 3.5774363228,
				"z": -2.1803582277,
				"element": "H" 
			},
			{
				"x": 0.4059540456,
				"y": 0.6197193282,
				"z": -2.8041895798,
				"element": "H" 
			},
			{
				"x": 2.3396054401,
				"y": -2.4269143628,
				"z": 0.4867304756,
				"element": "H" 
			},
			{
				"x": -1.2326929606,
				"y": 0.7583347101,
				"z": 1.8804436614,
				"element": "H" 
			},
			{
				"x": -2.2200269284,
				"y": 2.3212422691,
				"z": 0.1784737289,
				"element": "H" 
			},
			{
				"x": 1.876947539,
				"y": -2.647378836,
				"z": 2.6086063341,
				"element": "H" 
			}
		],
		 "valence_orbital": [ 
			{
				"type": "occ",
				"energy": -0.31227,
				"method": "rhf"
			},
			{
				"type": "occ",
				"energy": -0.29265,
				"method": "rhf"
			},
			{
				"type": "occ",
				"energy": -0.27298,
				"method": "rhf"
			},
			{
				"type": "occ",
				"energy": -0.26121,
				"method": "rhf"
			},
			{
				"type": "occ",
				"energy": -0.22574,
				"method": "rhf"
			},
			{
				"type": "unocc",
				"energy": -0.04513,
				"method": "rhf"
			},
			{
				"type": "unocc",
				"energy": -0.03853,
				"method": "rhf"
			},
			{
				"type": "unocc",
				"energy": 0.01533,
				"method": "rhf"
			},
			{
				"type": "unocc",
				"energy": 0.05351,
				"method": "rhf"
			},
			{
				"type": "unocc",
				"energy": 0.09006,
				"method": "rhf"
			}
		],
		"cosmo_sigma_profile": { 
			"-0.025": 0.0,
			"-0.024": 0.0,
			"-0.023": 0.0,
			"-0.022": 0.0,
			"-0.021": 0.0,
			"-0.02": 0.0,
			"-0.019": 0.436791312562,
			"-0.018": 1.41743600363,
			"-0.017": 0.986390524268,
			"-0.016": 0.99780763336,
			"-0.015": 1.06943729566,
			"-0.014": 0.737860859106,
			"-0.013": 1.20113002759,
			"-0.012": 1.38352207988,
			"-0.011": 1.50247638941,
			"-0.01": 1.19319770003,
			"-0.009": 1.76435002607,
			"-0.008": 1.34328434764,
			"-0.007": 6.10377155168,
			"-0.006": 9.09657422351,
			"-0.005": 11.2757160268,
			"-0.004": 12.0374938456,
			"-0.003": 13.0029649396,
			"-0.002": 18.2812074704,
			"-0.001": 22.7478600723,
			"0.0": 16.5962686076,
			"0.001": 13.8397901422,
			"0.002": 15.5248591639,
			"0.003": 5.7251615546,
			"0.004": 4.17547383789,
			"0.005": 3.55408436424,
			"0.006": 3.57899778802,
			"0.007": 4.2409891481,
			"0.008": 3.66979256526,
			"0.009": 3.35182007941,
			"0.01": 6.14173286658,
			"0.011": 5.63898823816,
			"0.012": 3.91700259974,
			"0.013": 3.05008162275,
			"0.014": 1.6181702705,
			"0.015": 0.836958255696,
			"0.016": 0.977326059294,
			"0.017": 0.509943939887,
			"0.018": 0.00783492405526,
			"0.019": 0.0,
			"0.02": 0.0,
			"0.021": 0.0,
			"0.022": 0.0,
			"0.023": 0.0,
			"0.024": 0.0,
			"0.025": 0.0
		}
	}
}
