{
	 "smiles": "CS(=O)(=O)C(Br)C(=O)C1=CC=CC=C1", 
	 "Tm": 364.15, 
	 "num_atms": 23, 
	 "gaussian": { 
		 "optdone": 1, 
		 "sigma_profile": "yes", 
		 "theory": "DFT", 
		 "functional": "B3LYP", 
		 "basiset": "6-31G**", 
		 "properties": { 
			 "R2extent": 4876.0339, 
			 "electric_dipole_moment_norm": 6.72881890156, 
			 "electric_quadrupole_moment_norm": 14.1838703932, 
			 "total_energy": -3543.56363741, 
			 "HOMO_LUMO_gap": 0.18102, 
			 "cosmo_polarized_energy": -19.9, 
			 "cosmo_cavitation_energy": 30.67, 
			 "cosmo_dispersion_energy": -22.57, 
			 "cosmo_repulsion_energy": 1.72, 
			 "cosmo_total_nonelectrostatic_energy": 9.81, 
			 "SMD_solvation_energy": 4.16 
		},
		"coords": [
			{
				"x": -2.9849655558,
				"y": -1.5033703831,
				"z": 1.2757845569,
				"element": "C" 
			},
			{
				"x": -2.9590886515,
				"y": -1.4450832182,
				"z": -0.5295590352,
				"element": "S" 
			},
			{
				"x": -4.1244570903,
				"y": -0.6632088338,
				"z": -0.9651968624,
				"element": "O" 
			},
			{
				"x": -2.7197777411,
				"y": -2.7925350439,
				"z": -1.0443601331,
				"element": "O" 
			},
			{
				"x": -1.4961134751,
				"y": -0.3456292227,
				"z": -0.9126813877,
				"element": "C" 
			},
			{
				"x": -1.1711358046,
				"y": -0.4695337356,
				"z": -2.8443602514,
				"element": "Br" 
			},
			{
				"x": -0.199175544,
				"y": -0.6725989067,
				"z": -0.1600153814,
				"element": "C" 
			},
			{
				"x": -0.0888559978,
				"y": -1.7433447633,
				"z": 0.4154362752,
				"element": "O" 
			},
			{
				"x": 0.8800176701,
				"y": 0.3569788083,
				"z": -0.1143269473,
				"element": "C" 
			},
			{
				"x": 0.7833001591,
				"y": 1.613578488,
				"z": -0.7347666158,
				"element": "C" 
			},
			{
				"x": 1.8216010305,
				"y": 2.5353035614,
				"z": -0.6151186214,
				"element": "C" 
			},
			{
				"x": 2.964752144,
				"y": 2.2119089158,
				"z": 0.1189143142,
				"element": "C" 
			},
			{
				"x": 3.0713481064,
				"y": 0.9611929782,
				"z": 0.7348925199,
				"element": "C" 
			},
			{
				"x": 2.0360746493,
				"y": 0.0399343437,
				"z": 0.6199927506,
				"element": "C" 
			},
			{
				"x": -2.1177838218,
				"y": -2.0591711665,
				"z": 1.6257764297,
				"element": "H" 
			},
			{
				"x": -3.9158953704,
				"y": -2.0172600704,
				"z": 1.5243566294,
				"element": "H" 
			},
			{
				"x": -3.0083871185,
				"y": -0.4864304137,
				"z": 1.6722768359,
				"element": "H" 
			},
			{
				"x": -1.8484195817,
				"y": 0.6689548947,
				"z": -0.7254381119,
				"element": "H" 
			},
			{
				"x": -0.0852220239,
				"y": 1.8730415743,
				"z": -1.3298649607,
				"element": "H" 
			},
			{
				"x": 1.7401868629,
				"y": 3.5035867768,
				"z": -1.0991927648,
				"element": "H" 
			},
			{
				"x": 3.7726504073,
				"y": 2.9322731455,
				"z": 0.2087939565,
				"element": "H" 
			},
			{
				"x": 3.9609456125,
				"y": 0.7079822764,
				"z": 1.3035700502,
				"element": "H" 
			},
			{
				"x": 2.0959011346,
				"y": -0.9347700053,
				"z": 1.0916867545,
				"element": "H" 
			}
		],
		 "valence_orbital": [ 
			{
				"type": "occ",
				"energy": -0.29878,
				"method": "rhf"
			},
			{
				"type": "occ",
				"energy": -0.2917,
				"method": "rhf"
			},
			{
				"type": "occ",
				"energy": -0.28032,
				"method": "rhf"
			},
			{
				"type": "occ",
				"energy": -0.27688,
				"method": "rhf"
			},
			{
				"type": "occ",
				"energy": -0.27418,
				"method": "rhf"
			},
			{
				"type": "unocc",
				"energy": -0.09316,
				"method": "rhf"
			},
			{
				"type": "unocc",
				"energy": -0.03597,
				"method": "rhf"
			},
			{
				"type": "unocc",
				"energy": -0.02668,
				"method": "rhf"
			},
			{
				"type": "unocc",
				"energy": 0.02232,
				"method": "rhf"
			},
			{
				"type": "unocc",
				"energy": 0.04258,
				"method": "rhf"
			}
		],
		"cosmo_sigma_profile": { 
			"-0.025": 0.0,
			"-0.024": 0.0,
			"-0.023": 0.0,
			"-0.022": 0.0,
			"-0.021": 0.0,
			"-0.02": 0.0,
			"-0.019": 0.0,
			"-0.018": 0.0,
			"-0.017": 0.0,
			"-0.016": 0.0,
			"-0.015": 0.153466902284,
			"-0.014": 0.888792448845,
			"-0.013": 1.38086838874,
			"-0.012": 3.20137500854,
			"-0.011": 2.21389873149,
			"-0.01": 3.23255869054,
			"-0.009": 5.49820272612,
			"-0.008": 4.31329904379,
			"-0.007": 10.5189294917,
			"-0.006": 16.6487945031,
			"-0.005": 17.4785135701,
			"-0.004": 16.8013040896,
			"-0.003": 12.0187786076,
			"-0.002": 11.0983818164,
			"-0.001": 12.2494436363,
			"0.0": 12.8043284793,
			"0.001": 17.0596504571,
			"0.002": 19.8484766494,
			"0.003": 22.0722629353,
			"0.004": 8.30982785747,
			"0.005": 4.6855334798,
			"0.006": 3.77863098079,
			"0.007": 4.07193336719,
			"0.008": 5.77628838147,
			"0.009": 6.42743158862,
			"0.01": 11.1152864828,
			"0.011": 12.3397665113,
			"0.012": 2.39375368732,
			"0.013": 0.0,
			"0.014": 0.0,
			"0.015": 0.0,
			"0.016": 0.0,
			"0.017": 0.0,
			"0.018": 0.0,
			"0.019": 0.0,
			"0.02": 0.0,
			"0.021": 0.0,
			"0.022": 0.0,
			"0.023": 0.0,
			"0.024": 0.0,
			"0.025": 0.0
		}
	}
}
