{
	 "smiles": "ClC1=CC=C(C=C1)C(CC=O)=C(C#N)C#N", 
	 "Tm": 373.15, 
	 "num_atms": 23, 
	 "gaussian": { 
		 "optdone": 1, 
		 "sigma_profile": "yes", 
		 "theory": "DFT", 
		 "functional": "B3LYP", 
		 "basiset": "6-31G**", 
		 "properties": { 
			 "R2extent": 4775.2974, 
			 "electric_dipole_moment_norm": 5.76830735485, 
			 "electric_quadrupole_moment_norm": 15.7852531551, 
			 "total_energy": -1106.34051356, 
			 "HOMO_LUMO_gap": 0.15411, 
			 "cosmo_polarized_energy": -17.41, 
			 "cosmo_cavitation_energy": 32.2, 
			 "cosmo_dispersion_energy": -21.39, 
			 "cosmo_repulsion_energy": 1.69, 
			 "cosmo_total_nonelectrostatic_energy": 12.5, 
			 "SMD_solvation_energy": 8.53 
		},
		"coords": [
			{
				"x": 0.2327911685,
				"y": 4.4462683095,
				"z": -1.9366169295,
				"element": "Cl" 
			},
			{
				"x": 0.3975611561,
				"y": 2.8757471989,
				"z": -1.182011963,
				"element": "C" 
			},
			{
				"x": 1.3700394158,
				"y": 2.6827659596,
				"z": -0.200451456,
				"element": "C" 
			},
			{
				"x": 1.4953064285,
				"y": 1.4328616109,
				"z": 0.3979069646,
				"element": "C" 
			},
			{
				"x": 0.6638790041,
				"y": 0.3622834691,
				"z": 0.0200286358,
				"element": "C" 
			},
			{
				"x": -0.2983146806,
				"y": 0.5820808161,
				"z": -0.9844867722,
				"element": "C" 
			},
			{
				"x": -0.4426084028,
				"y": 1.8326785465,
				"z": -1.5756376558,
				"element": "C" 
			},
			{
				"x": 0.8099695738,
				"y": -0.975674753,
				"z": 0.6224251513,
				"element": "C" 
			},
			{
				"x": 0.7288942569,
				"y": -2.1855478442,
				"z": -0.2819885012,
				"element": "C" 
			},
			{
				"x": -0.6610518408,
				"y": -2.8051711943,
				"z": -0.42365027,
				"element": "C" 
			},
			{
				"x": -1.6913568774,
				"y": -2.2892085916,
				"z": -0.0615136599,
				"element": "O" 
			},
			{
				"x": 1.0236954306,
				"y": -1.1713618771,
				"z": 1.9619063449,
				"element": "C" 
			},
			{
				"x": 1.0372699839,
				"y": -0.1213044136,
				"z": 2.9384673055,
				"element": "C" 
			},
			{
				"x": 1.0556426427,
				"y": 0.6967666173,
				"z": 3.7652543907,
				"element": "N" 
			},
			{
				"x": 1.2130550997,
				"y": -2.4913881717,
				"z": 2.492108256,
				"element": "C" 
			},
			{
				"x": 1.3695163622,
				"y": -3.5685356013,
				"z": 2.9037095203,
				"element": "N" 
			},
			{
				"x": 2.0228553088,
				"y": 3.4985760834,
				"z": 0.0881658502,
				"element": "H" 
			},
			{
				"x": 2.2652638171,
				"y": 1.2870163896,
				"z": 1.1466048569,
				"element": "H" 
			},
			{
				"x": -0.9737291273,
				"y": -0.2161545693,
				"z": -1.2700537432,
				"element": "H" 
			},
			{
				"x": -1.2006227013,
				"y": 2.0006451752,
				"z": -2.3322462143,
				"element": "H" 
			},
			{
				"x": 1.3971395265,
				"y": -2.980404848,
				"z": 0.0696106221,
				"element": "H" 
			},
			{
				"x": 1.0647510584,
				"y": -1.9305519507,
				"z": -1.29574652,
				"element": "H" 
			},
			{
				"x": -0.6531466034,
				"y": -3.7968863614,
				"z": -0.9241842131,
				"element": "H" 
			}
		],
		 "valence_orbital": [ 
			{
				"type": "occ",
				"energy": -0.331,
				"method": "rhf"
			},
			{
				"type": "occ",
				"energy": -0.30799,
				"method": "rhf"
			},
			{
				"type": "occ",
				"energy": -0.289,
				"method": "rhf"
			},
			{
				"type": "occ",
				"energy": -0.28626,
				"method": "rhf"
			},
			{
				"type": "occ",
				"energy": -0.26126,
				"method": "rhf"
			},
			{
				"type": "unocc",
				"energy": -0.10715,
				"method": "rhf"
			},
			{
				"type": "unocc",
				"energy": -0.05571,
				"method": "rhf"
			},
			{
				"type": "unocc",
				"energy": -0.04043,
				"method": "rhf"
			},
			{
				"type": "unocc",
				"energy": -0.02581,
				"method": "rhf"
			},
			{
				"type": "unocc",
				"energy": -0.01267,
				"method": "rhf"
			}
		],
		"cosmo_sigma_profile": { 
			"-0.025": 0.0,
			"-0.024": 0.0,
			"-0.023": 0.0,
			"-0.022": 0.0,
			"-0.021": 0.0,
			"-0.02": 0.0,
			"-0.019": 0.0,
			"-0.018": 0.0,
			"-0.017": 0.0,
			"-0.016": 0.0,
			"-0.015": 0.0,
			"-0.014": 0.0,
			"-0.013": 0.0,
			"-0.012": 0.0,
			"-0.011": 0.0,
			"-0.01": 2.1684004332,
			"-0.009": 8.01019693075,
			"-0.008": 15.3554448621,
			"-0.007": 14.858418795,
			"-0.006": 14.0875076664,
			"-0.005": 13.6672677913,
			"-0.004": 13.2277755563,
			"-0.003": 12.6460626261,
			"-0.002": 13.5523288851,
			"-0.001": 14.4510805563,
			"0.0": 18.2692305373,
			"0.001": 23.701479244,
			"0.002": 18.2558770711,
			"0.003": 13.1918885125,
			"0.004": 15.6392262101,
			"0.005": 5.7058656636,
			"0.006": 6.90085238262,
			"0.007": 6.30208365744,
			"0.008": 8.12714537544,
			"0.009": 7.77335815647,
			"0.01": 9.12167221481,
			"0.011": 5.89609349206,
			"0.012": 2.77401847715,
			"0.013": 0.0452456809943,
			"0.014": 0.0,
			"0.015": 0.0,
			"0.016": 0.0,
			"0.017": 0.0,
			"0.018": 0.0,
			"0.019": 0.0,
			"0.02": 0.0,
			"0.021": 0.0,
			"0.022": 0.0,
			"0.023": 0.0,
			"0.024": 0.0,
			"0.025": 0.0
		}
	}
}
