{
	 "smiles": "CC(=O)OC[C@@H](OC(C)=O)[C@@H](O[C@@H]1O[C@H](COC(C)=O)[C@@H](OC(C)=O)[C@H](OC(C)=O)[C@H]1OC(C)=O)[C@H](OC(C)=O)[C@@H](OC(C)=O)C#N", 
	 "Tm": 405.15, 
	 "num_atms": 84, 
	 "gaussian": { 
		 "optdone": 1, 
		 "sigma_profile": "yes", 
		 "theory": "DFT", 
		 "functional": "B3LYP", 
		 "basiset": "6-31G**", 
		 "properties": { 
			 "R2extent": 26244.0819, 
			 "electric_dipole_moment_norm": 3.94911700257, 
			 "electric_quadrupole_moment_norm": 16.6749484101, 
			 "total_energy": -2498.1244005, 
			 "HOMO_LUMO_gap": 0.25263, 
			 "cosmo_polarized_energy": -37.38, 
			 "cosmo_cavitation_energy": 88.99, 
			 "cosmo_dispersion_energy": -47.86, 
			 "cosmo_repulsion_energy": 3.71, 
			 "cosmo_total_nonelectrostatic_energy": 44.84, 
			 "SMD_solvation_energy": 23.44 
		},
		"coords": [
			{
				"x": -3.1830967937,
				"y": -5.0238985518,
				"z": -2.0081646787,
				"element": "C" 
			},
			{
				"x": -1.7228670878,
				"y": -4.701082515,
				"z": -2.2089863765,
				"element": "C" 
			},
			{
				"x": -1.0676368728,
				"y": -4.9731048601,
				"z": -3.1921405679,
				"element": "O" 
			},
			{
				"x": -1.2270955267,
				"y": -4.0492937829,
				"z": -1.1285770716,
				"element": "O" 
			},
			{
				"x": 0.1707439626,
				"y": -3.6910006975,
				"z": -1.141409445,
				"element": "C" 
			},
			{
				"x": 0.2907186912,
				"y": -2.4161068006,
				"z": -0.306876066,
				"element": "C" 
			},
			{
				"x": 1.6835481262,
				"y": -2.151196877,
				"z": -0.0500698584,
				"element": "O" 
			},
			{
				"x": 2.1530126923,
				"y": -2.4530367945,
				"z": 1.2016043179,
				"element": "C" 
			},
			{
				"x": 3.5109598761,
				"y": -1.8561975607,
				"z": 1.4397245044,
				"element": "C" 
			},
			{
				"x": 1.5120699429,
				"y": -3.0990629669,
				"z": 2.0002046862,
				"element": "O" 
			},
			{
				"x": -0.3347879,
				"y": -1.1523899922,
				"z": -0.9126601869,
				"element": "C" 
			},
			{
				"x": -0.2505533255,
				"y": -0.1625003056,
				"z": 0.1021081827,
				"element": "O" 
			},
			{
				"x": -1.2830999856,
				"y": 0.8246849828,
				"z": 0.1695436524,
				"element": "C" 
			},
			{
				"x": -0.7666155443,
				"y": 2.0982463582,
				"z": -0.0786464052,
				"element": "O" 
			},
			{
				"x": -0.209063978,
				"y": 2.8164181764,
				"z": 1.0436630064,
				"element": "C" 
			},
			{
				"x": 0.8691444282,
				"y": 3.7493370471,
				"z": 0.5061704588,
				"element": "C" 
			},
			{
				"x": 0.3425761551,
				"y": 4.6365176044,
				"z": -0.5006579254,
				"element": "O" 
			},
			{
				"x": -0.3023962607,
				"y": 5.7422890806,
				"z": -0.0615708593,
				"element": "C" 
			},
			{
				"x": -0.7728662363,
				"y": 6.5798841157,
				"z": -1.227025674,
				"element": "C" 
			},
			{
				"x": -0.4687477665,
				"y": 6.0100791084,
				"z": 1.1093485878,
				"element": "O" 
			},
			{
				"x": 0.3413472894,
				"y": 1.8303093676,
				"z": 2.0907549289,
				"element": "C" 
			},
			{
				"x": 0.948444565,
				"y": 2.5987349878,
				"z": 3.144038807,
				"element": "O" 
			},
			{
				"x": 2.0557042867,
				"y": 2.0786780315,
				"z": 3.7424873806,
				"element": "C" 
			},
			{
				"x": 2.4666197389,
				"y": 2.9303770832,
				"z": 4.9135334902,
				"element": "C" 
			},
			{
				"x": 2.5996648145,
				"y": 1.0554681241,
				"z": 3.3895185381,
				"element": "O" 
			},
			{
				"x": -0.8206824208,
				"y": 0.998200966,
				"z": 2.6588802486,
				"element": "C" 
			},
			{
				"x": -0.3608836173,
				"y": -0.2671867123,
				"z": 3.1689648904,
				"element": "O" 
			},
			{
				"x": -0.1099704826,
				"y": -0.3556447653,
				"z": 4.505768322,
				"element": "C" 
			},
			{
				"x": 0.2722994297,
				"y": -1.7627321425,
				"z": 4.8808205749,
				"element": "C" 
			},
			{
				"x": -0.2143842152,
				"y": 0.5798604706,
				"z": 5.2692640677,
				"element": "O" 
			},
			{
				"x": -1.8766267964,
				"y": 0.6974547342,
				"z": 1.5790459845,
				"element": "C" 
			},
			{
				"x": -2.9393169153,
				"y": 1.6589414394,
				"z": 1.7493978755,
				"element": "O" 
			},
			{
				"x": -4.1575429147,
				"y": 1.3091506902,
				"z": 1.2515674359,
				"element": "C" 
			},
			{
				"x": -5.1691058069,
				"y": 2.3965168711,
				"z": 1.5086764942,
				"element": "C" 
			},
			{
				"x": -4.3676429526,
				"y": 0.2591556699,
				"z": 0.68609033,
				"element": "O" 
			},
			{
				"x": 0.2426833315,
				"y": -0.5963086655,
				"z": -2.2384244791,
				"element": "C" 
			},
			{
				"x": -0.0966886418,
				"y": -1.4775215681,
				"z": -3.3248684665,
				"element": "O" 
			},
			{
				"x": -1.2779196235,
				"y": -1.2354578232,
				"z": -3.9724570701,
				"element": "C" 
			},
			{
				"x": -1.4319749388,
				"y": -2.157728009,
				"z": -5.1519301614,
				"element": "C" 
			},
			{
				"x": -2.0634605431,
				"y": -0.3891115955,
				"z": -3.611383642,
				"element": "O" 
			},
			{
				"x": 1.7710108147,
				"y": -0.433141647,
				"z": -2.3523149104,
				"element": "C" 
			},
			{
				"x": 2.0286492206,
				"y": 0.1781274323,
				"z": -3.631184629,
				"element": "O" 
			},
			{
				"x": 2.8952711475,
				"y": -0.4837044183,
				"z": -4.4616854681,
				"element": "C" 
			},
			{
				"x": 3.0542115224,
				"y": 0.2770754322,
				"z": -5.7519963416,
				"element": "C" 
			},
			{
				"x": 3.4453505812,
				"y": -1.5176869692,
				"z": -4.1694290037,
				"element": "O" 
			},
			{
				"x": 2.3652157115,
				"y": 0.4424083528,
				"z": -1.3309820036,
				"element": "C" 
			},
			{
				"x": 2.9012221257,
				"y": 1.1471690541,
				"z": -0.5821622323,
				"element": "N" 
			},
			{
				"x": -3.7521380829,
				"y": -4.1056179938,
				"z": -1.8354112606,
				"element": "H" 
			},
			{
				"x": -3.3065750972,
				"y": -5.6536097857,
				"z": -1.1222719847,
				"element": "H" 
			},
			{
				"x": -3.5646598051,
				"y": -5.5409014325,
				"z": -2.887835263,
				"element": "H" 
			},
			{
				"x": 0.5181846213,
				"y": -3.577408687,
				"z": -2.1680113959,
				"element": "H" 
			},
			{
				"x": 0.7393104779,
				"y": -4.4877579622,
				"z": -0.6527282781,
				"element": "H" 
			},
			{
				"x": -0.2050413624,
				"y": -2.586941308,
				"z": 0.6512959786,
				"element": "H" 
			},
			{
				"x": 4.0760569427,
				"y": -1.7512350282,
				"z": 0.5128046776,
				"element": "H" 
			},
			{
				"x": 4.0535339089,
				"y": -2.4718621501,
				"z": 2.1582069682,
				"element": "H" 
			},
			{
				"x": 3.3700992753,
				"y": -0.8584365566,
				"z": 1.872513571,
				"element": "H" 
			},
			{
				"x": -1.3844940769,
				"y": -1.3933515591,
				"z": -1.1259199848,
				"element": "H" 
			},
			{
				"x": -2.0371761457,
				"y": 0.6336259133,
				"z": -0.5998162426,
				"element": "H" 
			},
			{
				"x": -1.0031087166,
				"y": 3.4200436112,
				"z": 1.4991313673,
				"element": "H" 
			},
			{
				"x": 1.2793885212,
				"y": 4.3328845742,
				"z": 1.3317997498,
				"element": "H" 
			},
			{
				"x": 1.6546369543,
				"y": 3.17982688,
				"z": 0.0089321258,
				"element": "H" 
			},
			{
				"x": -1.436565907,
				"y": 5.9904357535,
				"z": -1.8663354826,
				"element": "H" 
			},
			{
				"x": 0.0816673781,
				"y": 6.8838832025,
				"z": -1.8387342138,
				"element": "H" 
			},
			{
				"x": -1.2959657772,
				"y": 7.4599563121,
				"z": -0.8543609694,
				"element": "H" 
			},
			{
				"x": 1.0881917723,
				"y": 1.1757418425,
				"z": 1.6407141536,
				"element": "H" 
			},
			{
				"x": 1.7974361491,
				"y": 2.6939349778,
				"z": 5.7476526293,
				"element": "H" 
			},
			{
				"x": 2.3596240067,
				"y": 3.9931736018,
				"z": 4.686617893,
				"element": "H" 
			},
			{
				"x": 3.4924593438,
				"y": 2.6942908971,
				"z": 5.1958171456,
				"element": "H" 
			},
			{
				"x": -1.2882643749,
				"y": 1.5622338298,
				"z": 3.4698966582,
				"element": "H" 
			},
			{
				"x": 0.7168383146,
				"y": -1.7603794238,
				"z": 5.8759030541,
				"element": "H" 
			},
			{
				"x": -0.6298255183,
				"y": -2.38450646,
				"z": 4.8951524018,
				"element": "H" 
			},
			{
				"x": 0.9516244532,
				"y": -2.1939916419,
				"z": 4.1427009537,
				"element": "H" 
			},
			{
				"x": -2.2733627234,
				"y": -0.3096851337,
				"z": 1.7134104444,
				"element": "H" 
			},
			{
				"x": -6.1412524441,
				"y": 2.083545543,
				"z": 1.1297363976,
				"element": "H" 
			},
			{
				"x": -4.8546358494,
				"y": 3.320023534,
				"z": 1.0134980399,
				"element": "H" 
			},
			{
				"x": -5.2313623574,
				"y": 2.6069044435,
				"z": 2.5801440076,
				"element": "H" 
			},
			{
				"x": -0.2266512187,
				"y": 0.375534106,
				"z": -2.4120416517,
				"element": "H" 
			},
			{
				"x": -2.3992011604,
				"y": -1.9827556495,
				"z": -5.621972322,
				"element": "H" 
			},
			{
				"x": -0.6300439215,
				"y": -1.9703426883,
				"z": -5.8726559311,
				"element": "H" 
			},
			{
				"x": -1.3421123503,
				"y": -3.1988263565,
				"z": -4.8285743782,
				"element": "H" 
			},
			{
				"x": 2.2724654218,
				"y": -1.4026447471,
				"z": -2.3166592962,
				"element": "H" 
			},
			{
				"x": 3.6724106579,
				"y": -0.3006388999,
				"z": -6.4379993771,
				"element": "H" 
			},
			{
				"x": 3.5267145408,
				"y": 1.243454053,
				"z": -5.5509194762,
				"element": "H" 
			},
			{
				"x": 2.0763528427,
				"y": 0.4790112287,
				"z": -6.1972539518,
				"element": "H" 
			}
		],
		 "valence_orbital": [ 
			{
				"type": "occ",
				"energy": -0.28068,
				"method": "rhf"
			},
			{
				"type": "occ",
				"energy": -0.27562,
				"method": "rhf"
			},
			{
				"type": "occ",
				"energy": -0.27181,
				"method": "rhf"
			},
			{
				"type": "occ",
				"energy": -0.27039,
				"method": "rhf"
			},
			{
				"type": "occ",
				"energy": -0.26488,
				"method": "rhf"
			},
			{
				"type": "unocc",
				"energy": -0.01225,
				"method": "rhf"
			},
			{
				"type": "unocc",
				"energy": -0.01102,
				"method": "rhf"
			},
			{
				"type": "unocc",
				"energy": -0.00156,
				"method": "rhf"
			},
			{
				"type": "unocc",
				"energy": -0.00054,
				"method": "rhf"
			},
			{
				"type": "unocc",
				"energy": 0.00049,
				"method": "rhf"
			}
		],
		"cosmo_sigma_profile": { 
			"-0.025": 0.0,
			"-0.024": 0.0,
			"-0.023": 0.0,
			"-0.022": 0.0,
			"-0.021": 0.0,
			"-0.02": 0.0,
			"-0.019": 0.0,
			"-0.018": 0.0,
			"-0.017": 0.0,
			"-0.016": 0.0,
			"-0.015": 0.0,
			"-0.014": 0.0,
			"-0.013": 0.0,
			"-0.012": 0.0,
			"-0.011": 0.0406388382479,
			"-0.01": 0.377518400105,
			"-0.009": 0.455063626644,
			"-0.008": 2.21097815684,
			"-0.007": 21.4186034965,
			"-0.006": 49.9909332709,
			"-0.005": 60.2699325858,
			"-0.004": 70.1658638742,
			"-0.003": 71.8738464971,
			"-0.002": 74.1295640462,
			"-0.001": 53.025545073,
			"0.0": 34.1744370235,
			"0.001": 33.1387150998,
			"0.002": 33.8062114596,
			"0.003": 31.6986527131,
			"0.004": 26.5197143238,
			"0.005": 23.1335834075,
			"0.006": 18.1400942226,
			"0.007": 14.201974927,
			"0.008": 14.9581786444,
			"0.009": 15.2784703785,
			"0.01": 18.586692,
			"0.011": 22.874049666,
			"0.012": 10.9815303357,
			"0.013": 1.39239160611,
			"0.014": 0.0,
			"0.015": 0.0,
			"0.016": 0.0,
			"0.017": 0.0,
			"0.018": 0.0,
			"0.019": 0.0,
			"0.02": 0.0,
			"0.021": 0.0,
			"0.022": 0.0,
			"0.023": 0.0,
			"0.024": 0.0,
			"0.025": 0.0
		}
	}
}
