{
	 "smiles": "CC1=CC=CC2=C1N1C=NN=C1S2", 
	 "Tm": 460.15, 
	 "num_atms": 20, 
	 "gaussian": { 
		 "optdone": 1, 
		 "sigma_profile": "yes", 
		 "theory": "DFT", 
		 "functional": "B3LYP", 
		 "basiset": "6-31G**", 
		 "properties": { 
			 "R2extent": 2543.5578, 
			 "electric_dipole_moment_norm": 6.4626308273, 
			 "electric_quadrupole_moment_norm": 13.3809734246, 
			 "total_energy": -909.590022207, 
			 "HOMO_LUMO_gap": 0.19488, 
			 "cosmo_polarized_energy": -14.85, 
			 "cosmo_cavitation_energy": 25.37, 
			 "cosmo_dispersion_energy": -19.53, 
			 "cosmo_repulsion_energy": 1.43, 
			 "cosmo_total_nonelectrostatic_energy": 7.28, 
			 "SMD_solvation_energy": 2.15 
		},
		"coords": [
			{
				"x": -0.168465323,
				"y": -2.215325983,
				"z": -1.7379328528,
				"element": "C" 
			},
			{
				"x": -0.8424490787,
				"y": -1.6495529831,
				"z": -0.5133435667,
				"element": "C" 
			},
			{
				"x": -1.5718303803,
				"y": -2.4637731684,
				"z": 0.361044072,
				"element": "C" 
			},
			{
				"x": -2.2025752212,
				"y": -1.9546453524,
				"z": 1.5005444584,
				"element": "C" 
			},
			{
				"x": -2.1274690909,
				"y": -0.5980957158,
				"z": 1.8126112292,
				"element": "C" 
			},
			{
				"x": -1.4075649814,
				"y": 0.2338222177,
				"z": 0.9584902166,
				"element": "C" 
			},
			{
				"x": -0.7744726685,
				"y": -0.2874832147,
				"z": -0.1884314391,
				"element": "C" 
			},
			{
				"x": -0.1139964704,
				"y": 0.7354573892,
				"z": -0.8900747536,
				"element": "N" 
			},
			{
				"x": 0.6550484049,
				"y": 0.9545774529,
				"z": -2.0140637689,
				"element": "C" 
			},
			{
				"x": 0.9712695657,
				"y": 2.2244855743,
				"z": -2.1042424854,
				"element": "N" 
			},
			{
				"x": 0.4143627599,
				"y": 2.8991825612,
				"z": -1.0266235625,
				"element": "N" 
			},
			{
				"x": -0.2189324809,
				"y": 1.992901461,
				"z": -0.3301920261,
				"element": "C" 
			},
			{
				"x": -1.1713959556,
				"y": 1.9884799667,
				"z": 1.1463115141,
				"element": "S" 
			},
			{
				"x": -0.3422480005,
				"y": -3.2913586531,
				"z": -1.8090279176,
				"element": "H" 
			},
			{
				"x": 0.9157583624,
				"y": -2.0548475965,
				"z": -1.7136166629,
				"element": "H" 
			},
			{
				"x": -0.5489033616,
				"y": -1.755893876,
				"z": -2.657747922,
				"element": "H" 
			},
			{
				"x": -1.6451947986,
				"y": -3.5246000702,
				"z": 0.1396463208,
				"element": "H" 
			},
			{
				"x": -2.7578128189,
				"y": -2.6233333323,
				"z": 2.1507515132,
				"element": "H" 
			},
			{
				"x": -2.6156080392,
				"y": -0.19967709,
				"z": 2.6958448373,
				"element": "H" 
			},
			{
				"x": 0.946979577,
				"y": 0.1853804125,
				"z": -2.709947204,
				"element": "H" 
			}
		],
		 "valence_orbital": [ 
			{
				"type": "occ",
				"energy": -0.31304,
				"method": "rhf"
			},
			{
				"type": "occ",
				"energy": -0.27658,
				"method": "rhf"
			},
			{
				"type": "occ",
				"energy": -0.26005,
				"method": "rhf"
			},
			{
				"type": "occ",
				"energy": -0.25153,
				"method": "rhf"
			},
			{
				"type": "occ",
				"energy": -0.23099,
				"method": "rhf"
			},
			{
				"type": "unocc",
				"energy": -0.03611,
				"method": "rhf"
			},
			{
				"type": "unocc",
				"energy": -0.02563,
				"method": "rhf"
			},
			{
				"type": "unocc",
				"energy": -0.00602,
				"method": "rhf"
			},
			{
				"type": "unocc",
				"energy": 0.02805,
				"method": "rhf"
			},
			{
				"type": "unocc",
				"energy": 0.03748,
				"method": "rhf"
			}
		],
		"cosmo_sigma_profile": { 
			"-0.025": 0.0,
			"-0.024": 0.0,
			"-0.023": 0.0,
			"-0.022": 0.0,
			"-0.021": 0.0,
			"-0.02": 0.0,
			"-0.019": 0.0,
			"-0.018": 0.0,
			"-0.017": 0.0,
			"-0.016": 0.0,
			"-0.015": 0.0,
			"-0.014": 0.0,
			"-0.013": 0.0,
			"-0.012": 0.0,
			"-0.011": 0.150860069125,
			"-0.01": 1.5566428494,
			"-0.009": 1.49080500248,
			"-0.008": 5.76223785542,
			"-0.007": 8.21804659747,
			"-0.006": 14.3155776943,
			"-0.005": 13.9479185992,
			"-0.004": 13.6928635752,
			"-0.003": 16.4403590178,
			"-0.002": 16.173093008,
			"-0.001": 17.8709574893,
			"0.0": 16.8009185964,
			"0.001": 14.4008768425,
			"0.002": 15.1477554304,
			"0.003": 12.6242442267,
			"0.004": 9.43176952628,
			"0.005": 1.58629577668,
			"0.006": 1.95104786765,
			"0.007": 1.83124923123,
			"0.008": 1.82133301537,
			"0.009": 2.52687189685,
			"0.01": 2.64111788825,
			"0.011": 1.97763452365,
			"0.012": 2.82997691339,
			"0.013": 3.60399265056,
			"0.014": 3.48272385899,
			"0.015": 2.67952345724,
			"0.016": 1.79729643941,
			"0.017": 0.198158327737,
			"0.018": 0.0,
			"0.019": 0.0,
			"0.02": 0.0,
			"0.021": 0.0,
			"0.022": 0.0,
			"0.023": 0.0,
			"0.024": 0.0,
			"0.025": 0.0
		}
	}
}
