{
	 "smiles": "NC1=CC(=CC=C1)C(=O)N1CCCCC1CCO", 
	 "Tm": 403.15, 
	 "num_atms": 38, 
	 "gaussian": { 
		 "optdone": 1, 
		 "sigma_profile": "yes", 
		 "theory": "DFT", 
		 "functional": "B3LYP", 
		 "basiset": "6-31G**", 
		 "properties": { 
			 "R2extent": 6047.6945, 
			 "electric_dipole_moment_norm": 2.50442568666, 
			 "electric_quadrupole_moment_norm": 5.62775839034, 
			 "total_energy": -805.50933204, 
			 "HOMO_LUMO_gap": 0.18099, 
			 "cosmo_polarized_energy": -17.35, 
			 "cosmo_cavitation_energy": 38.51, 
			 "cosmo_dispersion_energy": -27.18, 
			 "cosmo_repulsion_energy": 2.14, 
			 "cosmo_total_nonelectrostatic_energy": 13.47, 
			 "SMD_solvation_energy": 5.37 
		},
		"coords": [
			{
				"x": -1.7431610823,
				"y": -2.8520905642,
				"z": -3.9381260422,
				"element": "N" 
			},
			{
				"x": -1.0122896098,
				"y": -1.8948764537,
				"z": -3.2324597907,
				"element": "C" 
			},
			{
				"x": -1.1823777206,
				"y": -1.7434134523,
				"z": -1.8481095842,
				"element": "C" 
			},
			{
				"x": -0.5091276216,
				"y": -0.7405828748,
				"z": -1.1466267196,
				"element": "C" 
			},
			{
				"x": 0.3777051575,
				"y": 0.1121280808,
				"z": -1.8203959647,
				"element": "C" 
			},
			{
				"x": 0.5618919153,
				"y": -0.0455975002,
				"z": -3.1943172995,
				"element": "C" 
			},
			{
				"x": -0.1279056418,
				"y": -1.0283708175,
				"z": -3.9000990518,
				"element": "C" 
			},
			{
				"x": -0.6887346654,
				"y": -0.7051484583,
				"z": 0.3503489131,
				"element": "C" 
			},
			{
				"x": -0.7947721029,
				"y": -1.7613485101,
				"z": 0.9729880978,
				"element": "O" 
			},
			{
				"x": -0.6565203322,
				"y": 0.5352159419,
				"z": 0.9686593535,
				"element": "N" 
			},
			{
				"x": -1.3842433093,
				"y": 1.6720437381,
				"z": 0.3720027219,
				"element": "C" 
			},
			{
				"x": -2.8534389521,
				"y": 1.6765217204,
				"z": 0.8296226063,
				"element": "C" 
			},
			{
				"x": -2.9744452591,
				"y": 1.6307411072,
				"z": 2.3610553185,
				"element": "C" 
			},
			{
				"x": -2.1151240093,
				"y": 0.506340017,
				"z": 2.9651101058,
				"element": "C" 
			},
			{
				"x": -0.6676596054,
				"y": 0.6129875305,
				"z": 2.4518833645,
				"element": "C" 
			},
			{
				"x": 0.3323431714,
				"y": -0.3315624053,
				"z": 3.1355774091,
				"element": "C" 
			},
			{
				"x": 0.7501631292,
				"y": 0.1696045489,
				"z": 4.5217605129,
				"element": "C" 
			},
			{
				"x": 1.3422547973,
				"y": 1.4666830187,
				"z": 4.5046296291,
				"element": "O" 
			},
			{
				"x": -2.0731776237,
				"y": -3.6307910013,
				"z": -3.3844673626,
				"element": "H" 
			},
			{
				"x": -1.3262275663,
				"y": -3.157567312,
				"z": -4.8066948194,
				"element": "H" 
			},
			{
				"x": -1.8323255627,
				"y": -2.4168262208,
				"z": -1.2970069495,
				"element": "H" 
			},
			{
				"x": 0.932085106,
				"y": 0.8647934107,
				"z": -1.2700572742,
				"element": "H" 
			},
			{
				"x": 1.2571243091,
				"y": 0.6000054081,
				"z": -3.7238744218,
				"element": "H" 
			},
			{
				"x": 0.0181721011,
				"y": -1.134065881,
				"z": -4.9724336314,
				"element": "H" 
			},
			{
				"x": -0.8844713208,
				"y": 2.5969457877,
				"z": 0.6875224452,
				"element": "H" 
			},
			{
				"x": -1.322670817,
				"y": 1.6176952073,
				"z": -0.7141333001,
				"element": "H" 
			},
			{
				"x": -3.3565277565,
				"y": 2.5653552958,
				"z": 0.4291888158,
				"element": "H" 
			},
			{
				"x": -3.3538095659,
				"y": 0.8027614157,
				"z": 0.3914453923,
				"element": "H" 
			},
			{
				"x": -4.0242530977,
				"y": 1.5120705714,
				"z": 2.653382124,
				"element": "H" 
			},
			{
				"x": -2.641995095,
				"y": 2.5927228119,
				"z": 2.7762973789,
				"element": "H" 
			},
			{
				"x": -2.134790354,
				"y": 0.5717499527,
				"z": 4.0592122528,
				"element": "H" 
			},
			{
				"x": -2.5095198262,
				"y": -0.4785575461,
				"z": 2.6891226396,
				"element": "H" 
			},
			{
				"x": -0.3100237909,
				"y": 1.6286482199,
				"z": 2.669644695,
				"element": "H" 
			},
			{
				"x": 1.2294597537,
				"y": -0.4106600019,
				"z": 2.5060478553,
				"element": "H" 
			},
			{
				"x": -0.0737673159,
				"y": -1.3422455437,
				"z": 3.2146139063,
				"element": "H" 
			},
			{
				"x": 1.42609287,
				"y": -0.567334204,
				"z": 4.9824933824,
				"element": "H" 
			},
			{
				"x": -0.1185179568,
				"y": 0.2592010734,
				"z": 5.1827704837,
				"element": "H" 
			},
			{
				"x": 2.1392852504,
				"y": 1.4139238892,
				"z": 3.960622808,
				"element": "H" 
			}
		],
		 "valence_orbital": [ 
			{
				"type": "occ",
				"energy": -0.26474,
				"method": "rhf"
			},
			{
				"type": "occ",
				"energy": -0.25393,
				"method": "rhf"
			},
			{
				"type": "occ",
				"energy": -0.23729,
				"method": "rhf"
			},
			{
				"type": "occ",
				"energy": -0.22471,
				"method": "rhf"
			},
			{
				"type": "occ",
				"energy": -0.20488,
				"method": "rhf"
			},
			{
				"type": "unocc",
				"energy": -0.02389,
				"method": "rhf"
			},
			{
				"type": "unocc",
				"energy": 0.01111,
				"method": "rhf"
			},
			{
				"type": "unocc",
				"energy": 0.05461,
				"method": "rhf"
			},
			{
				"type": "unocc",
				"energy": 0.07777,
				"method": "rhf"
			},
			{
				"type": "unocc",
				"energy": 0.0823,
				"method": "rhf"
			}
		],
		"cosmo_sigma_profile": { 
			"-0.025": 0.0,
			"-0.024": 0.0,
			"-0.023": 0.0,
			"-0.022": 0.0,
			"-0.021": 0.0,
			"-0.02": 0.0,
			"-0.019": 0.0,
			"-0.018": 0.0,
			"-0.017": 0.0,
			"-0.016": 0.0531873679117,
			"-0.015": 0.688541778207,
			"-0.014": 1.02745205469,
			"-0.013": 1.39174584369,
			"-0.012": 3.76369264492,
			"-0.011": 3.14656073453,
			"-0.01": 3.8276439671,
			"-0.009": 4.41318053109,
			"-0.008": 3.89727075049,
			"-0.007": 4.52247879193,
			"-0.006": 5.87643056429,
			"-0.005": 9.5248754175,
			"-0.004": 18.7992686821,
			"-0.003": 30.7910710891,
			"-0.002": 37.3139979017,
			"-0.001": 34.0064663712,
			"0.0": 28.1803093701,
			"0.001": 17.8169778997,
			"0.002": 12.3078639273,
			"0.003": 8.97921475105,
			"0.004": 10.9223844795,
			"0.005": 12.623858342,
			"0.006": 11.4837173181,
			"0.007": 5.06307992117,
			"0.008": 3.17202842104,
			"0.009": 4.79059930637,
			"0.01": 3.00758269001,
			"0.011": 2.81505958634,
			"0.012": 4.76601985476,
			"0.013": 4.14495954644,
			"0.014": 4.88520034659,
			"0.015": 2.01613750211,
			"0.016": 0.0,
			"0.017": 0.0,
			"0.018": 0.0,
			"0.019": 0.0,
			"0.02": 0.0,
			"0.021": 0.0,
			"0.022": 0.0,
			"0.023": 0.0,
			"0.024": 0.0,
			"0.025": 0.0
		}
	}
}
