{
	 "smiles": "CC(C)OC(=O)N[C@H](C(C)C)C(=O)N[C@H](C)C1=NC2=CC=C(F)C=C2S1", 
	 "Tm": 426.15, 
	 "num_atms": 50, 
	 "gaussian": { 
		 "optdone": 1, 
		 "sigma_profile": "yes", 
		 "theory": "DFT", 
		 "functional": "B3LYP", 
		 "basiset": "6-31G**", 
		 "properties": { 
			 "R2extent": 12714.3307, 
			 "electric_dipole_moment_norm": 2.27406179775, 
			 "electric_quadrupole_moment_norm": 14.0264603229, 
			 "total_energy": -1588.40678316, 
			 "HOMO_LUMO_gap": 0.19081, 
			 "cosmo_polarized_energy": -15.76, 
			 "cosmo_cavitation_energy": 54.62, 
			 "cosmo_dispersion_energy": -34.69, 
			 "cosmo_repulsion_energy": 2.56, 
			 "cosmo_total_nonelectrostatic_energy": 22.5, 
			 "SMD_solvation_energy": 9.37 
		},
		"coords": [
			{
				"x": 0.4545412128,
				"y": -3.3201803997,
				"z": 0.4000570208,
				"element": "C" 
			},
			{
				"x": 1.7938353031,
				"y": -2.6002288163,
				"z": 0.4719064232,
				"element": "C" 
			},
			{
				"x": 2.0582418266,
				"y": -1.9366349631,
				"z": 1.8190627432,
				"element": "C" 
			},
			{
				"x": 1.7501607632,
				"y": -1.5864304015,
				"z": -0.5788129111,
				"element": "O" 
			},
			{
				"x": 2.954402864,
				"y": -1.1607253411,
				"z": -1.0599245933,
				"element": "C" 
			},
			{
				"x": 4.0360308299,
				"y": -1.5266418998,
				"z": -0.6345906197,
				"element": "O" 
			},
			{
				"x": 2.7950785663,
				"y": -0.268341347,
				"z": -2.0806025081,
				"element": "N" 
			},
			{
				"x": 1.5442904237,
				"y": 0.1953640061,
				"z": -2.6808925442,
				"element": "C" 
			},
			{
				"x": 1.6843755341,
				"y": 0.3964952344,
				"z": -4.208118695,
				"element": "C" 
			},
			{
				"x": 2.8601395397,
				"y": 1.3048594565,
				"z": -4.6054116574,
				"element": "C" 
			},
			{
				"x": 1.7636628263,
				"y": -0.9585389129,
				"z": -4.9262364951,
				"element": "C" 
			},
			{
				"x": 1.0152651791,
				"y": 1.467023126,
				"z": -1.9658125292,
				"element": "C" 
			},
			{
				"x": 0.9512364648,
				"y": 2.5688769304,
				"z": -2.5058304999,
				"element": "O" 
			},
			{
				"x": 0.6119373978,
				"y": 1.2549163297,
				"z": -0.6826340208,
				"element": "N" 
			},
			{
				"x": 0.1118578052,
				"y": 2.349056735,
				"z": 0.1349945125,
				"element": "C" 
			},
			{
				"x": 1.2528206022,
				"y": 3.1060873526,
				"z": 0.8475863205,
				"element": "C" 
			},
			{
				"x": -0.8928032121,
				"y": 1.8113327632,
				"z": 1.1269054877,
				"element": "C" 
			},
			{
				"x": -0.8932673438,
				"y": 0.6009230707,
				"z": 1.5808641113,
				"element": "N" 
			},
			{
				"x": -1.9012258009,
				"y": 0.4054595674,
				"z": 2.5160098092,
				"element": "C" 
			},
			{
				"x": -2.1638433671,
				"y": -0.7972673001,
				"z": 3.1878679931,
				"element": "C" 
			},
			{
				"x": -3.2065040097,
				"y": -0.8521354876,
				"z": 4.1034933714,
				"element": "C" 
			},
			{
				"x": -3.9771863202,
				"y": 0.2924253335,
				"z": 4.3400687417,
				"element": "C" 
			},
			{
				"x": -4.9840147979,
				"y": 0.2131032215,
				"z": 5.2333493236,
				"element": "F" 
			},
			{
				"x": -3.7540264612,
				"y": 1.5028493221,
				"z": 3.6998049744,
				"element": "C" 
			},
			{
				"x": -2.7019100479,
				"y": 1.5430515506,
				"z": 2.7822544292,
				"element": "C" 
			},
			{
				"x": -2.1461950012,
				"y": 2.8809894782,
				"z": 1.7991450276,
				"element": "S" 
			},
			{
				"x": 0.301980804,
				"y": -3.7661608754,
				"z": -0.5868498724,
				"element": "H" 
			},
			{
				"x": -0.3674574676,
				"y": -2.624114205,
				"z": 0.5965101289,
				"element": "H" 
			},
			{
				"x": 0.4188046647,
				"y": -4.1186479956,
				"z": 1.1477312037,
				"element": "H" 
			},
			{
				"x": 2.6154246003,
				"y": -3.2791331835,
				"z": 0.227305443,
				"element": "H" 
			},
			{
				"x": 3.0309244251,
				"y": -1.4402619272,
				"z": 1.81084395,
				"element": "H" 
			},
			{
				"x": 2.066865303,
				"y": -2.6919755112,
				"z": 2.6121744643,
				"element": "H" 
			},
			{
				"x": 1.2775506482,
				"y": -1.2028383705,
				"z": 2.044728184,
				"element": "H" 
			},
			{
				"x": 3.6613214393,
				"y": 0.1439640993,
				"z": -2.3931825715,
				"element": "H" 
			},
			{
				"x": 0.8075300146,
				"y": -0.5946204054,
				"z": -2.5069176073,
				"element": "H" 
			},
			{
				"x": 0.7642305879,
				"y": 0.9054527939,
				"z": -4.5173944115,
				"element": "H" 
			},
			{
				"x": 3.8300623974,
				"y": 0.8295967568,
				"z": -4.4097708682,
				"element": "H" 
			},
			{
				"x": 2.8128981807,
				"y": 2.2603610436,
				"z": -4.0800605191,
				"element": "H" 
			},
			{
				"x": 2.8270099756,
				"y": 1.5055312088,
				"z": -5.6810202213,
				"element": "H" 
			},
			{
				"x": 1.8352319408,
				"y": -0.8173671757,
				"z": -6.0095173007,
				"element": "H" 
			},
			{
				"x": 2.6445184741,
				"y": -1.5249997986,
				"z": -4.6047182338,
				"element": "H" 
			},
			{
				"x": 0.8790326942,
				"y": -1.5736205122,
				"z": -4.7268608759,
				"element": "H" 
			},
			{
				"x": 0.6715295132,
				"y": 0.3297569338,
				"z": -0.2727920376,
				"element": "H" 
			},
			{
				"x": -0.3862988563,
				"y": 3.0479523425,
				"z": -0.5453973326,
				"element": "H" 
			},
			{
				"x": 1.9390748405,
				"y": 3.5003029939,
				"z": 0.0942888824,
				"element": "H" 
			},
			{
				"x": 0.8629330716,
				"y": 3.9426490563,
				"z": 1.4356727311,
				"element": "H" 
			},
			{
				"x": 1.7990657999,
				"y": 2.433487763,
				"z": 1.5150388426,
				"element": "H" 
			},
			{
				"x": -1.5496550939,
				"y": -1.6682923786,
				"z": 2.9866376747,
				"element": "H" 
			},
			{
				"x": -3.4409000394,
				"y": -1.7625360319,
				"z": 4.643563969,
				"element": "H" 
			},
			{
				"x": -4.3804786948,
				"y": 2.3594247706,
				"z": 3.9194831626,
				"element": "H" 
			}
		],
		 "valence_orbital": [ 
			{
				"type": "occ",
				"energy": -0.27059,
				"method": "rhf"
			},
			{
				"type": "occ",
				"energy": -0.25783,
				"method": "rhf"
			},
			{
				"type": "occ",
				"energy": -0.25229,
				"method": "rhf"
			},
			{
				"type": "occ",
				"energy": -0.24382,
				"method": "rhf"
			},
			{
				"type": "occ",
				"energy": -0.23629,
				"method": "rhf"
			},
			{
				"type": "unocc",
				"energy": -0.04548,
				"method": "rhf"
			},
			{
				"type": "unocc",
				"energy": -0.02519,
				"method": "rhf"
			},
			{
				"type": "unocc",
				"energy": -0.00618,
				"method": "rhf"
			},
			{
				"type": "unocc",
				"energy": 0.01567,
				"method": "rhf"
			},
			{
				"type": "unocc",
				"energy": 0.02224,
				"method": "rhf"
			}
		],
		"cosmo_sigma_profile": { 
			"-0.025": 0.0,
			"-0.024": 0.0,
			"-0.023": 0.0,
			"-0.022": 0.0,
			"-0.021": 0.0,
			"-0.02": 0.0,
			"-0.019": 0.0,
			"-0.018": 0.0,
			"-0.017": 0.0,
			"-0.016": 0.0,
			"-0.015": 0.0,
			"-0.014": 0.0,
			"-0.013": 0.399769139646,
			"-0.012": 0.795212161488,
			"-0.011": 1.05612389209,
			"-0.01": 0.828775368112,
			"-0.009": 1.59960706033,
			"-0.008": 4.95663850803,
			"-0.007": 7.68140495453,
			"-0.006": 10.2178153542,
			"-0.005": 14.3617179721,
			"-0.004": 28.5783340084,
			"-0.003": 38.5632404061,
			"-0.002": 42.7468045187,
			"-0.001": 54.1412707312,
			"0.0": 56.5206209993,
			"0.001": 54.2062019688,
			"0.002": 36.5916429566,
			"0.003": 21.4724681164,
			"0.004": 18.5763658016,
			"0.005": 6.81231402018,
			"0.006": 2.55872357124,
			"0.007": 3.0538544809,
			"0.008": 3.36122452222,
			"0.009": 2.36493207595,
			"0.01": 3.11848802322,
			"0.011": 2.76031106774,
			"0.012": 4.21367428069,
			"0.013": 8.25471458789,
			"0.014": 2.88380660439,
			"0.015": 0.0,
			"0.016": 0.0,
			"0.017": 0.0,
			"0.018": 0.0,
			"0.019": 0.0,
			"0.02": 0.0,
			"0.021": 0.0,
			"0.022": 0.0,
			"0.023": 0.0,
			"0.024": 0.0,
			"0.025": 0.0
		}
	}
}
