{
	 "smiles": "COC(=O)C1=CN=C(NC2CC2)S1", 
	 "Tm": 431.15, 
	 "num_atms": 23, 
	 "gaussian": { 
		 "optdone": 1, 
		 "sigma_profile": "yes", 
		 "theory": "DFT", 
		 "functional": "B3LYP", 
		 "basiset": "6-31G**", 
		 "properties": { 
			 "R2extent": 5825.4516, 
			 "electric_dipole_moment_norm": 2.63057352492, 
			 "electric_quadrupole_moment_norm": 21.4772164656, 
			 "total_energy": -968.98385867, 
			 "HOMO_LUMO_gap": 0.17251, 
			 "cosmo_polarized_energy": -13.33, 
			 "cosmo_cavitation_energy": 29.45, 
			 "cosmo_dispersion_energy": -21.87, 
			 "cosmo_repulsion_energy": 1.72, 
			 "cosmo_total_nonelectrostatic_energy": 9.29, 
			 "SMD_solvation_energy": 4.23 
		},
		"coords": [
			{
				"x": 1.2916993592,
				"y": 0.9998402012,
				"z": 5.3118089879,
				"element": "C" 
			},
			{
				"x": 0.7916682406,
				"y": 0.892221257,
				"z": 3.9711166118,
				"element": "O" 
			},
			{
				"x": -0.3091488746,
				"y": 1.6415919149,
				"z": 3.7101247583,
				"element": "C" 
			},
			{
				"x": -0.8488162856,
				"y": 2.3579018721,
				"z": 4.53487198,
				"element": "O" 
			},
			{
				"x": -0.7551431341,
				"y": 1.4788291974,
				"z": 2.330252963,
				"element": "C" 
			},
			{
				"x": -0.2477872427,
				"y": 0.7099865246,
				"z": 1.3143330156,
				"element": "C" 
			},
			{
				"x": -0.8941627845,
				"y": 0.7518334295,
				"z": 0.1124585836,
				"element": "N" 
			},
			{
				"x": -1.920952654,
				"y": 1.5712517035,
				"z": 0.1821990382,
				"element": "C" 
			},
			{
				"x": -2.7429789777,
				"y": 1.849283052,
				"z": -0.8706043515,
				"element": "N" 
			},
			{
				"x": -2.6653836168,
				"y": 1.0958028158,
				"z": -2.0939841844,
				"element": "C" 
			},
			{
				"x": -1.6323698108,
				"y": 1.4868357082,
				"z": -3.1158121247,
				"element": "C" 
			},
			{
				"x": -3.0890345838,
				"y": 1.7975176076,
				"z": -3.3576159293,
				"element": "C" 
			},
			{
				"x": -2.1664221012,
				"y": 2.3526536826,
				"z": 1.7491257005,
				"element": "S" 
			},
			{
				"x": 1.5748517059,
				"y": 2.0310604369,
				"z": 5.5382187083,
				"element": "H" 
			},
			{
				"x": 0.5373526644,
				"y": 0.6767906599,
				"z": 6.0339436087,
				"element": "H" 
			},
			{
				"x": 2.1636160923,
				"y": 0.3467308806,
				"z": 5.3524987953,
				"element": "H" 
			},
			{
				"x": 0.6252489979,
				"y": 0.0777230819,
				"z": 1.4269227638,
				"element": "H" 
			},
			{
				"x": -3.6315968951,
				"y": 2.278036953,
				"z": -0.6537372037,
				"element": "H" 
			},
			{
				"x": -2.8895442087,
				"y": 0.0342409277,
				"z": -1.9982427097,
				"element": "H" 
			},
			{
				"x": -1.1639589392,
				"y": 0.6900909726,
				"z": -3.6840713733,
				"element": "H" 
			},
			{
				"x": -0.9764755995,
				"y": 2.3112247337,
				"z": -2.8589267665,
				"element": "H" 
			},
			{
				"x": -3.6361120247,
				"y": 1.2207051755,
				"z": -4.0964669905,
				"element": "H" 
			},
			{
				"x": -3.4005493273,
				"y": 2.8346472116,
				"z": -3.2739138815,
				"element": "H" 
			}
		],
		 "valence_orbital": [ 
			{
				"type": "occ",
				"energy": -0.2947,
				"method": "rhf"
			},
			{
				"type": "occ",
				"energy": -0.28541,
				"method": "rhf"
			},
			{
				"type": "occ",
				"energy": -0.27885,
				"method": "rhf"
			},
			{
				"type": "occ",
				"energy": -0.26068,
				"method": "rhf"
			},
			{
				"type": "occ",
				"energy": -0.21341,
				"method": "rhf"
			},
			{
				"type": "unocc",
				"energy": -0.0409,
				"method": "rhf"
			},
			{
				"type": "unocc",
				"energy": 0.00702,
				"method": "rhf"
			},
			{
				"type": "unocc",
				"energy": 0.03463,
				"method": "rhf"
			},
			{
				"type": "unocc",
				"energy": 0.08312,
				"method": "rhf"
			},
			{
				"type": "unocc",
				"energy": 0.09234,
				"method": "rhf"
			}
		],
		"cosmo_sigma_profile": { 
			"-0.025": 0.0,
			"-0.024": 0.0,
			"-0.023": 0.0,
			"-0.022": 0.0,
			"-0.021": 0.0,
			"-0.02": 0.0,
			"-0.019": 0.0,
			"-0.018": 0.0,
			"-0.017": 0.0,
			"-0.016": 0.106694864659,
			"-0.015": 1.38248572789,
			"-0.014": 1.09874298136,
			"-0.013": 1.43695010636,
			"-0.012": 0.925160785272,
			"-0.011": 1.32137340856,
			"-0.01": 1.00066130797,
			"-0.009": 1.49163435539,
			"-0.008": 1.79458720887,
			"-0.007": 2.84775716393,
			"-0.006": 8.91105383222,
			"-0.005": 18.2143772899,
			"-0.004": 20.1902485709,
			"-0.003": 20.390741139,
			"-0.002": 17.4291473639,
			"-0.001": 15.4291470374,
			"0.0": 17.709756012,
			"0.001": 21.0546812358,
			"0.002": 21.5740138658,
			"0.003": 14.2360671874,
			"0.004": 9.99699285133,
			"0.005": 6.13862375201,
			"0.006": 5.43348215541,
			"0.007": 4.18074396651,
			"0.008": 3.05878788752,
			"0.009": 2.61079010707,
			"0.01": 2.93665596061,
			"0.011": 4.08074966611,
			"0.012": 6.17958785395,
			"0.013": 1.96445779461,
			"0.014": 0.786880250716,
			"0.015": 0.329095357601,
			"0.016": 0.0,
			"0.017": 0.0,
			"0.018": 0.0,
			"0.019": 0.0,
			"0.02": 0.0,
			"0.021": 0.0,
			"0.022": 0.0,
			"0.023": 0.0,
			"0.024": 0.0,
			"0.025": 0.0
		}
	}
}
