{
	 "smiles": "N1N=CC=C1C1=CC=NC=C1", 
	 "Tm": 428.15, 
	 "num_atms": 18, 
	 "gaussian": { 
		 "optdone": 1, 
		 "sigma_profile": "yes", 
		 "theory": "DFT", 
		 "functional": "B3LYP", 
		 "basiset": "6-31G**", 
		 "properties": { 
			 "R2extent": 2548.3462, 
			 "electric_dipole_moment_norm": 0.306216034851, 
			 "electric_quadrupole_moment_norm": 16.3163928428, 
			 "total_energy": -473.297835253, 
			 "HOMO_LUMO_gap": 0.18792, 
			 "cosmo_polarized_energy": -12.5, 
			 "cosmo_cavitation_energy": 22.54, 
			 "cosmo_dispersion_energy": -16.85, 
			 "cosmo_repulsion_energy": 1.32, 
			 "cosmo_total_nonelectrostatic_energy": 7.01, 
			 "SMD_solvation_energy": 1.63 
		},
		"coords": [
			{
				"x": -1.4052429271,
				"y": -0.7144551663,
				"z": -2.191369085,
				"element": "N" 
			},
			{
				"x": -2.7197273208,
				"y": -0.706220613,
				"z": -2.4824998901,
				"element": "N" 
			},
			{
				"x": -3.1100440052,
				"y": 0.5355176206,
				"z": -2.1894707789,
				"element": "C" 
			},
			{
				"x": -2.0409633325,
				"y": 1.3291628949,
				"z": -1.7274941631,
				"element": "C" 
			},
			{
				"x": -0.9341396076,
				"y": 0.4874753569,
				"z": -1.7405258007,
				"element": "C" 
			},
			{
				"x": 0.4621070285,
				"y": 0.7094983441,
				"z": -1.3647776441,
				"element": "C" 
			},
			{
				"x": 1.0155986834,
				"y": 1.9996812915,
				"z": -1.3739198023,
				"element": "C" 
			},
			{
				"x": 2.348169821,
				"y": 2.1700606221,
				"z": -1.0082125069,
				"element": "C" 
			},
			{
				"x": 3.162551397,
				"y": 1.1682006002,
				"z": -0.6483919145,
				"element": "N" 
			},
			{
				"x": 2.6320607045,
				"y": -0.0608469875,
				"z": -0.6413578187,
				"element": "C" 
			},
			{
				"x": 1.3095527224,
				"y": -0.3418030281,
				"z": -0.9789434416,
				"element": "C" 
			},
			{
				"x": -0.866674684,
				"y": -1.5406758576,
				"z": -2.4010299613,
				"element": "H" 
			},
			{
				"x": -4.1471747439,
				"y": 0.8138472806,
				"z": -2.3189667338,
				"element": "H" 
			},
			{
				"x": -2.0704321071,
				"y": 2.3565256835,
				"z": -1.3972926991,
				"element": "H" 
			},
			{
				"x": 0.4198019112,
				"y": 2.8538338981,
				"z": -1.6784354649,
				"element": "H" 
			},
			{
				"x": 2.7877804726,
				"y": 3.165972052,
				"z": -1.01171219,
				"element": "H" 
			},
			{
				"x": 3.2973574331,
				"y": -0.8687018576,
				"z": -0.3412377198,
				"element": "H" 
			},
			{
				"x": 0.9452185545,
				"y": -1.3626721346,
				"z": -0.9110623852,
				"element": "H" 
			}
		],
		 "valence_orbital": [ 
			{
				"type": "occ",
				"energy": -0.29505,
				"method": "rhf"
			},
			{
				"type": "occ",
				"energy": -0.27186,
				"method": "rhf"
			},
			{
				"type": "occ",
				"energy": -0.26638,
				"method": "rhf"
			},
			{
				"type": "occ",
				"energy": -0.26032,
				"method": "rhf"
			},
			{
				"type": "occ",
				"energy": -0.23934,
				"method": "rhf"
			},
			{
				"type": "unocc",
				"energy": -0.05142,
				"method": "rhf"
			},
			{
				"type": "unocc",
				"energy": -0.02001,
				"method": "rhf"
			},
			{
				"type": "unocc",
				"energy": 0.03097,
				"method": "rhf"
			},
			{
				"type": "unocc",
				"energy": 0.06419,
				"method": "rhf"
			},
			{
				"type": "unocc",
				"energy": 0.07203,
				"method": "rhf"
			}
		],
		"cosmo_sigma_profile": { 
			"-0.025": 0.0,
			"-0.024": 0.0,
			"-0.023": 0.0,
			"-0.022": 0.0,
			"-0.021": 0.0,
			"-0.02": 0.0,
			"-0.019": 0.0,
			"-0.018": 0.0,
			"-0.017": 0.267942970578,
			"-0.016": 1.39599312693,
			"-0.015": 1.23612706323,
			"-0.014": 1.2414337354,
			"-0.013": 1.10478614903,
			"-0.012": 1.24819166795,
			"-0.011": 1.51705035153,
			"-0.01": 1.09905769836,
			"-0.009": 1.30234231476,
			"-0.008": 2.49641995211,
			"-0.007": 8.82537233012,
			"-0.006": 12.1107385762,
			"-0.005": 11.9057077183,
			"-0.004": 9.94769217013,
			"-0.003": 9.14614736517,
			"-0.002": 7.92335663911,
			"-0.001": 9.4444975098,
			"0.0": 10.8375628556,
			"0.001": 14.570972451,
			"0.002": 19.927807229,
			"0.003": 11.3393690295,
			"0.004": 8.82827880562,
			"0.005": 7.9175576169,
			"0.006": 2.86852717852,
			"0.007": 3.2117800809,
			"0.008": 3.27013003469,
			"0.009": 2.00766447715,
			"0.01": 2.54630475844,
			"0.011": 2.15934712675,
			"0.012": 2.12679884408,
			"0.013": 1.79522796921,
			"0.014": 2.51330292899,
			"0.015": 1.98091623314,
			"0.016": 1.13644351142,
			"0.017": 0.346834771501,
			"0.018": 0.0,
			"0.019": 0.0,
			"0.02": 0.0,
			"0.021": 0.0,
			"0.022": 0.0,
			"0.023": 0.0,
			"0.024": 0.0,
			"0.025": 0.0
		}
	}
}
