{
	 "smiles": "OC(=O)COC1=CC=C(OC2=NC=CC=C2)C=C1", 
	 "Tm": 428.15, 
	 "num_atms": 29, 
	 "gaussian": { 
		 "optdone": 1, 
		 "sigma_profile": "yes", 
		 "theory": "DFT", 
		 "functional": "B3LYP", 
		 "basiset": "6-31G**", 
		 "properties": { 
			 "R2extent": 8490.7764, 
			 "electric_dipole_moment_norm": 5.86559208691, 
			 "electric_quadrupole_moment_norm": 18.2579016623, 
			 "total_energy": -857.645715048, 
			 "HOMO_LUMO_gap": 0.19261, 
			 "cosmo_polarized_energy": -16.48, 
			 "cosmo_cavitation_energy": 34.89, 
			 "cosmo_dispersion_energy": -25.41, 
			 "cosmo_repulsion_energy": 1.97, 
			 "cosmo_total_nonelectrostatic_energy": 11.45, 
			 "SMD_solvation_energy": 7.04 
		},
		"coords": [
			{
				"x": 1.3177634084,
				"y": 5.5372030051,
				"z": -0.1457366846,
				"element": "O" 
			},
			{
				"x": 0.1908145542,
				"y": 5.1558872043,
				"z": -0.7680633684,
				"element": "C" 
			},
			{
				"x": -0.3371048393,
				"y": 5.806230771,
				"z": -1.6346353626,
				"element": "O" 
			},
			{
				"x": -0.3970800684,
				"y": 3.8206455694,
				"z": -0.3070099591,
				"element": "C" 
			},
			{
				"x": 0.4221644425,
				"y": 3.289788687,
				"z": 0.7246089864,
				"element": "O" 
			},
			{
				"x": 0.0961569716,
				"y": 2.0756414673,
				"z": 1.2897988057,
				"element": "C" 
			},
			{
				"x": 0.9558405556,
				"y": 1.6175422871,
				"z": 2.2930889551,
				"element": "C" 
			},
			{
				"x": 0.7069712627,
				"y": 0.3989048551,
				"z": 2.9150913845,
				"element": "C" 
			},
			{
				"x": -0.402579698,
				"y": -0.3604902959,
				"z": 2.5417672214,
				"element": "C" 
			},
			{
				"x": -0.6508829351,
				"y": -1.5142648598,
				"z": 3.2750636171,
				"element": "O" 
			},
			{
				"x": -0.8190000321,
				"y": -2.726412016,
				"z": 2.6633352438,
				"element": "C" 
			},
			{
				"x": -0.6277494733,
				"y": -2.8434565666,
				"z": 1.3584743322,
				"element": "N" 
			},
			{
				"x": -0.7862578498,
				"y": -4.0636964549,
				"z": 0.8195796714,
				"element": "C" 
			},
			{
				"x": -1.1348674122,
				"y": -5.1914638399,
				"z": 1.5536007286,
				"element": "C" 
			},
			{
				"x": -1.3330119634,
				"y": -5.0405980031,
				"z": 2.9321635855,
				"element": "C" 
			},
			{
				"x": -1.1763238761,
				"y": -3.7890283179,
				"z": 3.5090805303,
				"element": "C" 
			},
			{
				"x": -1.265957548,
				"y": 0.0966347269,
				"z": 1.5497974237,
				"element": "C" 
			},
			{
				"x": -1.0164400048,
				"y": 1.3162573047,
				"z": 0.9169177571,
				"element": "C" 
			},
			{
				"x": 1.5433246387,
				"y": 4.8515700216,
				"z": 0.5084641855,
				"element": "H" 
			},
			{
				"x": -1.4214385722,
				"y": 3.99956028,
				"z": 0.0427255879,
				"element": "H" 
			},
			{
				"x": -0.441154338,
				"y": 3.1481777552,
				"z": -1.1728591291,
				"element": "H" 
			},
			{
				"x": 1.8127605883,
				"y": 2.2216899682,
				"z": 2.5721644858,
				"element": "H" 
			},
			{
				"x": 1.3630395865,
				"y": 0.0282329963,
				"z": 3.6953542729,
				"element": "H" 
			},
			{
				"x": -0.6216165034,
				"y": -4.1295557955,
				"z": -0.2541781739,
				"element": "H" 
			},
			{
				"x": -1.2490184719,
				"y": -6.1538148619,
				"z": 1.0667312534,
				"element": "H" 
			},
			{
				"x": -1.6077267205,
				"y": -5.8922194301,
				"z": 3.5478095748,
				"element": "H" 
			},
			{
				"x": -1.3165541399,
				"y": -3.612186352,
				"z": 4.569221916,
				"element": "H" 
			},
			{
				"x": -2.1258901799,
				"y": -0.4962305427,
				"z": 1.2630176044,
				"element": "H" 
			},
			{
				"x": -1.6953813821,
				"y": 1.656550437,
				"z": 0.1442255542,
				"element": "H" 
			}
		],
		 "valence_orbital": [ 
			{
				"type": "occ",
				"energy": -0.27603,
				"method": "rhf"
			},
			{
				"type": "occ",
				"energy": -0.27514,
				"method": "rhf"
			},
			{
				"type": "occ",
				"energy": -0.26359,
				"method": "rhf"
			},
			{
				"type": "occ",
				"energy": -0.25197,
				"method": "rhf"
			},
			{
				"type": "occ",
				"energy": -0.22337,
				"method": "rhf"
			},
			{
				"type": "unocc",
				"energy": -0.03076,
				"method": "rhf"
			},
			{
				"type": "unocc",
				"energy": -0.01607,
				"method": "rhf"
			},
			{
				"type": "unocc",
				"energy": -0.0116,
				"method": "rhf"
			},
			{
				"type": "unocc",
				"energy": 0.0054,
				"method": "rhf"
			},
			{
				"type": "unocc",
				"energy": 0.01198,
				"method": "rhf"
			}
		],
		"cosmo_sigma_profile": { 
			"-0.025": 0.0,
			"-0.024": 0.0,
			"-0.023": 0.0,
			"-0.022": 0.0,
			"-0.021": 0.0,
			"-0.02": 0.0,
			"-0.019": 0.0,
			"-0.018": 0.0,
			"-0.017": 0.0,
			"-0.016": 0.0,
			"-0.015": 0.141393538294,
			"-0.014": 0.887116896978,
			"-0.013": 0.584269602581,
			"-0.012": 0.463695809899,
			"-0.011": 0.421904387941,
			"-0.01": 0.756063635141,
			"-0.009": 2.46713446896,
			"-0.008": 11.1382409092,
			"-0.007": 15.7695706957,
			"-0.006": 20.6686784514,
			"-0.005": 19.5881126372,
			"-0.004": 18.0197766365,
			"-0.003": 13.7142501766,
			"-0.002": 13.0177416342,
			"-0.001": 12.687584683,
			"0.0": 14.459209571,
			"0.001": 19.7728022515,
			"0.002": 24.2130479974,
			"0.003": 25.6823035783,
			"0.004": 15.6634737363,
			"0.005": 8.09476506146,
			"0.006": 6.00590947894,
			"0.007": 4.77608964257,
			"0.008": 5.23350217664,
			"0.009": 6.18088030506,
			"0.01": 5.62008256694,
			"0.011": 5.64449710363,
			"0.012": 5.70258750931,
			"0.013": 2.13324935371,
			"0.014": 0.427599932854,
			"0.015": 0.0047449037557,
			"0.016": 0.0,
			"0.017": 0.0,
			"0.018": 0.0,
			"0.019": 0.0,
			"0.02": 0.0,
			"0.021": 0.0,
			"0.022": 0.0,
			"0.023": 0.0,
			"0.024": 0.0,
			"0.025": 0.0
		}
	}
}
