{
	 "smiles": "CC1=CC(C(=O)CCl)=C(C)N1C1=CC=C(Cl)C=C1", 
	 "Tm": 361.65, 
	 "num_atms": 31, 
	 "gaussian": { 
		 "optdone": 1, 
		 "sigma_profile": "yes", 
		 "theory": "DFT", 
		 "functional": "B3LYP", 
		 "basiset": "6-31G**", 
		 "properties": { 
			 "R2extent": 7920.0877, 
			 "electric_dipole_moment_norm": 4.62098836289, 
			 "electric_quadrupole_moment_norm": 30.0646857986, 
			 "total_energy": -1591.6874842, 
			 "HOMO_LUMO_gap": 0.16743, 
			 "cosmo_polarized_energy": -13.73, 
			 "cosmo_cavitation_energy": 38.4, 
			 "cosmo_dispersion_energy": -26.5, 
			 "cosmo_repulsion_energy": 2.07, 
			 "cosmo_total_nonelectrostatic_energy": 13.97, 
			 "SMD_solvation_energy": 6.66 
		},
		"coords": [
			{
				"x": 2.195915656,
				"y": -2.2371711378,
				"z": -1.5283732996,
				"element": "C" 
			},
			{
				"x": 0.97831525,
				"y": -1.4262452384,
				"z": -1.8351570795,
				"element": "C" 
			},
			{
				"x": 0.414548302,
				"y": -1.081397107,
				"z": -3.0303871775,
				"element": "C" 
			},
			{
				"x": -0.7469771621,
				"y": -0.2819767609,
				"z": -2.772126993,
				"element": "C" 
			},
			{
				"x": -1.5512604802,
				"y": 0.2651848363,
				"z": -3.8664129714,
				"element": "C" 
			},
			{
				"x": -1.2289620023,
				"y": 0.1071732359,
				"z": -5.0385103518,
				"element": "O" 
			},
			{
				"x": -2.8199484954,
				"y": 1.0800913522,
				"z": -3.5890133835,
				"element": "C" 
			},
			{
				"x": -4.2226629122,
				"y": -0.0014661989,
				"z": -3.1643953767,
				"element": "Cl" 
			},
			{
				"x": -0.8645228267,
				"y": -0.1510255945,
				"z": -1.3843259009,
				"element": "C" 
			},
			{
				"x": -1.8553200333,
				"y": 0.5663291967,
				"z": -0.5181778944,
				"element": "C" 
			},
			{
				"x": 0.1905948828,
				"y": -0.8490681378,
				"z": -0.8276468386,
				"element": "N" 
			},
			{
				"x": 0.463640064,
				"y": -0.975963624,
				"z": 0.5716836921,
				"element": "C" 
			},
			{
				"x": 1.1454986546,
				"y": 0.039925074,
				"z": 1.2484176049,
				"element": "C" 
			},
			{
				"x": 1.426052125,
				"y": -0.0868042629,
				"z": 2.6082893728,
				"element": "C" 
			},
			{
				"x": 1.0232686868,
				"y": -1.2406942595,
				"z": 3.2814931416,
				"element": "C" 
			},
			{
				"x": 1.3761661929,
				"y": -1.4074181677,
				"z": 4.9917599223,
				"element": "Cl" 
			},
			{
				"x": 0.3442900097,
				"y": -2.263902801,
				"z": 2.6189989449,
				"element": "C" 
			},
			{
				"x": 0.0646723693,
				"y": -2.1258804051,
				"z": 1.2599693931,
				"element": "C" 
			},
			{
				"x": 1.9647639781,
				"y": -3.1431603388,
				"z": -0.9556819875,
				"element": "H" 
			},
			{
				"x": 2.9369912246,
				"y": -1.671583572,
				"z": -0.9509824223,
				"element": "H" 
			},
			{
				"x": 2.6650329893,
				"y": -2.5456459849,
				"z": -2.4652473967,
				"element": "H" 
			},
			{
				"x": 0.7672311818,
				"y": -1.3533036714,
				"z": -4.0140965271,
				"element": "H" 
			},
			{
				"x": -2.7092706654,
				"y": 1.7878393121,
				"z": -2.766920056,
				"element": "H" 
			},
			{
				"x": -3.0934865653,
				"y": 1.5960760838,
				"z": -4.5073930343,
				"element": "H" 
			},
			{
				"x": -2.8778987226,
				"y": 0.3823835554,
				"z": -0.8548237342,
				"element": "H" 
			},
			{
				"x": -1.7823868216,
				"y": 0.2301303734,
				"z": 0.5182202996,
				"element": "H" 
			},
			{
				"x": -1.6901070012,
				"y": 1.6514988893,
				"z": -0.5172148538,
				"element": "H" 
			},
			{
				"x": 1.4566057723,
				"y": 0.9269448542,
				"z": 0.705930726,
				"element": "H" 
			},
			{
				"x": 1.9535871577,
				"y": 0.6970764434,
				"z": 3.1398940824,
				"element": "H" 
			},
			{
				"x": 0.036775774,
				"y": -3.1518938593,
				"z": 3.1595988596,
				"element": "H" 
			},
			{
				"x": -0.4691465826,
				"y": -2.9072520849,
				"z": 0.7286312395,
				"element": "H" 
			}
		],
		 "valence_orbital": [ 
			{
				"type": "occ",
				"energy": -0.28721,
				"method": "rhf"
			},
			{
				"type": "occ",
				"energy": -0.26849,
				"method": "rhf"
			},
			{
				"type": "occ",
				"energy": -0.24815,
				"method": "rhf"
			},
			{
				"type": "occ",
				"energy": -0.24267,
				"method": "rhf"
			},
			{
				"type": "occ",
				"energy": -0.21382,
				"method": "rhf"
			},
			{
				"type": "unocc",
				"energy": -0.04639,
				"method": "rhf"
			},
			{
				"type": "unocc",
				"energy": -0.03918,
				"method": "rhf"
			},
			{
				"type": "unocc",
				"energy": -0.03692,
				"method": "rhf"
			},
			{
				"type": "unocc",
				"energy": 0.01305,
				"method": "rhf"
			},
			{
				"type": "unocc",
				"energy": 0.02177,
				"method": "rhf"
			}
		],
		"cosmo_sigma_profile": { 
			"-0.025": 0.0,
			"-0.024": 0.0,
			"-0.023": 0.0,
			"-0.022": 0.0,
			"-0.021": 0.0,
			"-0.02": 0.0,
			"-0.019": 0.0,
			"-0.018": 0.0,
			"-0.017": 0.0,
			"-0.016": 0.0,
			"-0.015": 0.0,
			"-0.014": 0.0,
			"-0.013": 0.0,
			"-0.012": 0.0,
			"-0.011": 0.0,
			"-0.01": 0.0,
			"-0.009": 0.0,
			"-0.008": 6.38990592678,
			"-0.007": 12.7852844386,
			"-0.006": 14.915468339,
			"-0.005": 17.320300667,
			"-0.004": 21.1031925057,
			"-0.003": 24.8817999818,
			"-0.002": 25.6370219327,
			"-0.001": 27.4139506407,
			"0.0": 24.9433792686,
			"0.001": 23.4579379958,
			"0.002": 25.6685289347,
			"0.003": 18.8400843849,
			"0.004": 23.1107660055,
			"0.005": 16.206119458,
			"0.006": 10.5807688449,
			"0.007": 2.31281881732,
			"0.008": 1.3859876672,
			"0.009": 1.95729578381,
			"0.01": 1.80976242626,
			"0.011": 2.7566898342,
			"0.012": 4.29320975847,
			"0.013": 2.79309392025,
			"0.014": 0.196299454809,
			"0.015": 0.0,
			"0.016": 0.0,
			"0.017": 0.0,
			"0.018": 0.0,
			"0.019": 0.0,
			"0.02": 0.0,
			"0.021": 0.0,
			"0.022": 0.0,
			"0.023": 0.0,
			"0.024": 0.0,
			"0.025": 0.0
		}
	}
}
