{
	 "smiles": "CN1C2=C(C=C(Cl)C=C2)C(=NCC1=O)C1=CC=CC=C1F", 
	 "Tm": 569.15, 
	 "num_atms": 33, 
	 "gaussian": { 
		 "optdone": 1, 
		 "sigma_profile": "yes", 
		 "theory": "DFT", 
		 "functional": "B3LYP", 
		 "basiset": "6-31G**", 
		 "properties": { 
			 "R2extent": 7492.5891, 
			 "electric_dipole_moment_norm": 3.76212770916, 
			 "electric_quadrupole_moment_norm": 23.0812280642, 
			 "total_energy": -1361.68443387, 
			 "HOMO_LUMO_gap": 0.17208, 
			 "cosmo_polarized_energy": -14.73, 
			 "cosmo_cavitation_energy": 38.81, 
			 "cosmo_dispersion_energy": -27.13, 
			 "cosmo_repulsion_energy": 2.06, 
			 "cosmo_total_nonelectrostatic_energy": 13.74, 
			 "SMD_solvation_energy": 4.78 
		},
		"coords": [
			{
				"x": 3.3218642931,
				"y": 0.0146978975,
				"z": 1.1277068461,
				"element": "C" 
			},
			{
				"x": 2.5158322153,
				"y": -0.5432592034,
				"z": 0.036463866,
				"element": "N" 
			},
			{
				"x": 1.9515437448,
				"y": 0.3314417957,
				"z": -0.9209516171,
				"element": "C" 
			},
			{
				"x": 0.6792247955,
				"y": 0.1022508732,
				"z": -1.5027288964,
				"element": "C" 
			},
			{
				"x": 0.1636166257,
				"y": 1.0450158294,
				"z": -2.4094394303,
				"element": "C" 
			},
			{
				"x": 0.8818467426,
				"y": 2.1856158673,
				"z": -2.7376832103,
				"element": "C" 
			},
			{
				"x": 0.216706857,
				"y": 3.3364352362,
				"z": -3.8844646674,
				"element": "Cl" 
			},
			{
				"x": 2.1276561811,
				"y": 2.4288014048,
				"z": -2.1572745549,
				"element": "C" 
			},
			{
				"x": 2.6482526276,
				"y": 1.5064972008,
				"z": -1.2592032922,
				"element": "C" 
			},
			{
				"x": -0.1374075695,
				"y": -1.1029232672,
				"z": -1.1806272884,
				"element": "C" 
			},
			{
				"x": 0.3352818906,
				"y": -2.2902899569,
				"z": -1.0599635787,
				"element": "N" 
			},
			{
				"x": 1.7592656976,
				"y": -2.4918236257,
				"z": -1.2796527493,
				"element": "C" 
			},
			{
				"x": 2.566680286,
				"y": -1.9298802198,
				"z": -0.1134632655,
				"element": "C" 
			},
			{
				"x": 3.2031985351,
				"y": -2.6303455519,
				"z": 0.6538681097,
				"element": "O" 
			},
			{
				"x": -1.6057983217,
				"y": -0.9141701935,
				"z": -0.98231594,
				"element": "C" 
			},
			{
				"x": -2.1020446312,
				"y": 0.1698258991,
				"z": -0.2382086442,
				"element": "C" 
			},
			{
				"x": -3.4653410004,
				"y": 0.3276384671,
				"z": 0.0018169751,
				"element": "C" 
			},
			{
				"x": -4.3722847044,
				"y": -0.5982492114,
				"z": -0.5179789297,
				"element": "C" 
			},
			{
				"x": -3.9122453619,
				"y": -1.6751928842,
				"z": -1.2744868436,
				"element": "C" 
			},
			{
				"x": -2.5466581711,
				"y": -1.8212758076,
				"z": -1.4931988391,
				"element": "C" 
			},
			{
				"x": -2.1435380691,
				"y": -2.8539951634,
				"z": -2.2519757278,
				"element": "F" 
			},
			{
				"x": 2.8839146464,
				"y": 0.9595562576,
				"z": 1.453649917,
				"element": "H" 
			},
			{
				"x": 4.3644250706,
				"y": 0.1793000831,
				"z": 0.8305133971,
				"element": "H" 
			},
			{
				"x": 3.3183400949,
				"y": -0.7043267842,
				"z": 1.9458500193,
				"element": "H" 
			},
			{
				"x": -0.8112321975,
				"y": 0.8753625326,
				"z": -2.8513458617,
				"element": "H" 
			},
			{
				"x": 2.6850758444,
				"y": 3.3232284206,
				"z": -2.4121973814,
				"element": "H" 
			},
			{
				"x": 3.6213766778,
				"y": 1.6941431133,
				"z": -0.8204902544,
				"element": "H" 
			},
			{
				"x": 2.102504711,
				"y": -2.0252316034,
				"z": -2.2161652234,
				"element": "H" 
			},
			{
				"x": 1.969257211,
				"y": -3.5607455003,
				"z": -1.3196032372,
				"element": "H" 
			},
			{
				"x": -1.3967625626,
				"y": 0.8888289089,
				"z": 0.1667460724,
				"element": "H" 
			},
			{
				"x": -3.8173945302,
				"y": 1.1681708494,
				"z": 0.5912923945,
				"element": "H" 
			},
			{
				"x": -5.4372356134,
				"y": -0.4826543494,
				"z": -0.3405427744,
				"element": "H" 
			},
			{
				"x": -4.5895220152,
				"y": -2.4054473142,
				"z": -1.7039453897,
				"element": "H" 
			}
		],
		 "valence_orbital": [ 
			{
				"type": "occ",
				"energy": -0.2707,
				"method": "rhf"
			},
			{
				"type": "occ",
				"energy": -0.25708,
				"method": "rhf"
			},
			{
				"type": "occ",
				"energy": -0.25331,
				"method": "rhf"
			},
			{
				"type": "occ",
				"energy": -0.24401,
				"method": "rhf"
			},
			{
				"type": "occ",
				"energy": -0.23323,
				"method": "rhf"
			},
			{
				"type": "unocc",
				"energy": -0.06115,
				"method": "rhf"
			},
			{
				"type": "unocc",
				"energy": -0.03375,
				"method": "rhf"
			},
			{
				"type": "unocc",
				"energy": -0.02898,
				"method": "rhf"
			},
			{
				"type": "unocc",
				"energy": -0.00567,
				"method": "rhf"
			},
			{
				"type": "unocc",
				"energy": 0.01201,
				"method": "rhf"
			}
		],
		"cosmo_sigma_profile": { 
			"-0.025": 0.0,
			"-0.024": 0.0,
			"-0.023": 0.0,
			"-0.022": 0.0,
			"-0.021": 0.0,
			"-0.02": 0.0,
			"-0.019": 0.0,
			"-0.018": 0.0,
			"-0.017": 0.0,
			"-0.016": 0.0,
			"-0.015": 0.0,
			"-0.014": 0.0,
			"-0.013": 0.0,
			"-0.012": 0.0,
			"-0.011": 0.0,
			"-0.01": 0.0,
			"-0.009": 0.0326921031775,
			"-0.008": 3.36581735494,
			"-0.007": 11.238376153,
			"-0.006": 21.0071816189,
			"-0.005": 24.465252169,
			"-0.004": 23.9317635656,
			"-0.003": 23.4950251438,
			"-0.002": 23.2489106557,
			"-0.001": 19.9349384044,
			"0.0": 25.0989256349,
			"0.001": 26.5541524201,
			"0.002": 23.6369562014,
			"0.003": 23.1519377385,
			"0.004": 25.0824525227,
			"0.005": 9.84790851642,
			"0.006": 3.3895624845,
			"0.007": 3.49222008705,
			"0.008": 3.29923748822,
			"0.009": 2.32784791048,
			"0.01": 2.44056094698,
			"0.011": 3.61151006723,
			"0.012": 5.37820541928,
			"0.013": 4.13145805944,
			"0.014": 0.903664141292,
			"0.015": 0.463257427147,
			"0.016": 0.0,
			"0.017": 0.0,
			"0.018": 0.0,
			"0.019": 0.0,
			"0.02": 0.0,
			"0.021": 0.0,
			"0.022": 0.0,
			"0.023": 0.0,
			"0.024": 0.0,
			"0.025": 0.0
		}
	}
}
