{
	 "smiles": "OC[C@H]1O[C@@H](OC2=C(CO)C=CC=C2)[C@H](O)[C@@H](O)[C@@H]1O", 
	 "Tm": 472.15, 
	 "num_atms": 38, 
	 "gaussian": { 
		 "optdone": 1, 
		 "sigma_profile": "yes", 
		 "theory": "DFT", 
		 "functional": "B3LYP", 
		 "basiset": "6-31G**", 
		 "properties": { 
			 "R2extent": 6311.7186, 
			 "electric_dipole_moment_norm": 3.89325595871, 
			 "electric_quadrupole_moment_norm": 13.8474393351, 
			 "total_energy": -1032.74033332, 
			 "HOMO_LUMO_gap": 0.23173, 
			 "cosmo_polarized_energy": -23.2, 
			 "cosmo_cavitation_energy": 38.42, 
			 "cosmo_dispersion_energy": -27.37, 
			 "cosmo_repulsion_energy": 2.07, 
			 "cosmo_total_nonelectrostatic_energy": 13.12, 
			 "SMD_solvation_energy": 5.96 
		},
		"coords": [
			{
				"x": 0.5440827644,
				"y": -1.6202152643,
				"z": -1.9820689283,
				"element": "O" 
			},
			{
				"x": 1.1494085965,
				"y": -0.3365856618,
				"z": -1.9754690409,
				"element": "C" 
			},
			{
				"x": 0.0461810585,
				"y": 0.7189801766,
				"z": -1.9106785974,
				"element": "C" 
			},
			{
				"x": -0.734898601,
				"y": 0.6574740907,
				"z": -0.7089475238,
				"element": "O" 
			},
			{
				"x": -0.190087835,
				"y": 1.1679382732,
				"z": 0.488695904,
				"element": "C" 
			},
			{
				"x": 0.6797542224,
				"y": 0.2584534807,
				"z": 1.1488902122,
				"element": "O" 
			},
			{
				"x": 0.0678974106,
				"y": -0.7290890029,
				"z": 1.9209518307,
				"element": "C" 
			},
			{
				"x": -0.0106787018,
				"y": -0.5319323561,
				"z": 3.3087193131,
				"element": "C" 
			},
			{
				"x": 0.4679331135,
				"y": 0.7592911025,
				"z": 3.9441674463,
				"element": "C" 
			},
			{
				"x": -0.4194943445,
				"y": 1.8464723355,
				"z": 3.704234097,
				"element": "O" 
			},
			{
				"x": -0.5692036767,
				"y": -1.5581540899,
				"z": 4.0778658968,
				"element": "C" 
			},
			{
				"x": -1.0377236592,
				"y": -2.734958176,
				"z": 3.4900152569,
				"element": "C" 
			},
			{
				"x": -0.9537270962,
				"y": -2.9002578967,
				"z": 2.1072296352,
				"element": "C" 
			},
			{
				"x": -0.3961525521,
				"y": -1.8948605743,
				"z": 1.3139613616,
				"element": "C" 
			},
			{
				"x": 0.6109724011,
				"y": 2.4601365844,
				"z": 0.2719384194,
				"element": "C" 
			},
			{
				"x": 0.3625229997,
				"y": 3.3230586098,
				"z": 1.3737248612,
				"element": "O" 
			},
			{
				"x": 0.2074889541,
				"y": 3.0952187125,
				"z": -1.0478654675,
				"element": "C" 
			},
			{
				"x": 0.882677225,
				"y": 4.3381347554,
				"z": -1.15391043,
				"element": "O" 
			},
			{
				"x": 0.6063949424,
				"y": 2.1439407555,
				"z": -2.1743256339,
				"element": "C" 
			},
			{
				"x": 0.2411752617,
				"y": 2.6798198847,
				"z": -3.4446644082,
				"element": "O" 
			},
			{
				"x": 1.2331725854,
				"y": -2.2798460755,
				"z": -1.8359171277,
				"element": "H" 
			},
			{
				"x": 1.8290807425,
				"y": -0.2112280001,
				"z": -1.1221597573,
				"element": "H" 
			},
			{
				"x": 1.721155266,
				"y": -0.1624639987,
				"z": -2.9018675993,
				"element": "H" 
			},
			{
				"x": -0.6751668791,
				"y": 0.4793257721,
				"z": -2.7002554502,
				"element": "H" 
			},
			{
				"x": -1.0543671414,
				"y": 1.3731994534,
				"z": 1.1268657439,
				"element": "H" 
			},
			{
				"x": 0.529931797,
				"y": 0.6112445615,
				"z": 5.0294777251,
				"element": "H" 
			},
			{
				"x": 1.4797582052,
				"y": 0.990643562,
				"z": 3.5869562599,
				"element": "H" 
			},
			{
				"x": -0.0441449908,
				"y": 2.4139582091,
				"z": 3.0119289214,
				"element": "H" 
			},
			{
				"x": -0.640206069,
				"y": -1.4252773889,
				"z": 5.154736765,
				"element": "H" 
			},
			{
				"x": -1.4685443376,
				"y": -3.5164899832,
				"z": 4.109273367,
				"element": "H" 
			},
			{
				"x": -1.3204072991,
				"y": -3.810882407,
				"z": 1.6417326547,
				"element": "H" 
			},
			{
				"x": -0.3151885874,
				"y": -1.9931592703,
				"z": 0.2362899025,
				"element": "H" 
			},
			{
				"x": 1.6814510951,
				"y": 2.2078654827,
				"z": 0.2251714119,
				"element": "H" 
			},
			{
				"x": 0.7579151707,
				"y": 4.1799267326,
				"z": 1.1576177759,
				"element": "H" 
			},
			{
				"x": -0.8853793342,
				"y": 3.2419108137,
				"z": -1.0591514478,
				"element": "H" 
			},
			{
				"x": 0.7968929972,
				"y": 4.6242836047,
				"z": -2.0749302264,
				"element": "H" 
			},
			{
				"x": 1.7028675783,
				"y": 2.1209657839,
				"z": -2.2008717565,
				"element": "H" 
			},
			{
				"x": -0.7242432819,
				"y": 2.6527574084,
				"z": -3.5119613667,
				"element": "H" 
			}
		],
		 "valence_orbital": [ 
			{
				"type": "occ",
				"energy": -0.28162,
				"method": "rhf"
			},
			{
				"type": "occ",
				"energy": -0.26878,
				"method": "rhf"
			},
			{
				"type": "occ",
				"energy": -0.25042,
				"method": "rhf"
			},
			{
				"type": "occ",
				"energy": -0.23821,
				"method": "rhf"
			},
			{
				"type": "occ",
				"energy": -0.22815,
				"method": "rhf"
			},
			{
				"type": "unocc",
				"energy": 0.00358,
				"method": "rhf"
			},
			{
				"type": "unocc",
				"energy": 0.00905,
				"method": "rhf"
			},
			{
				"type": "unocc",
				"energy": 0.04728,
				"method": "rhf"
			},
			{
				"type": "unocc",
				"energy": 0.06392,
				"method": "rhf"
			},
			{
				"type": "unocc",
				"energy": 0.06743,
				"method": "rhf"
			}
		],
		"cosmo_sigma_profile": { 
			"-0.025": 0.0,
			"-0.024": 0.0,
			"-0.023": 0.0,
			"-0.022": 0.0,
			"-0.021": 0.0,
			"-0.02": 0.0,
			"-0.019": 0.0,
			"-0.018": 0.0,
			"-0.017": 0.156623349863,
			"-0.016": 1.82372602262,
			"-0.015": 2.16489471292,
			"-0.014": 2.49246855612,
			"-0.013": 4.27505028849,
			"-0.012": 3.42392025563,
			"-0.011": 2.88211889733,
			"-0.01": 2.95333202554,
			"-0.009": 3.18280082951,
			"-0.008": 4.32862564702,
			"-0.007": 6.69649739876,
			"-0.006": 12.3257434715,
			"-0.005": 20.2027744468,
			"-0.004": 24.1546338857,
			"-0.003": 23.2835722636,
			"-0.002": 19.9332656089,
			"-0.001": 17.2846144681,
			"0.0": 14.1329413596,
			"0.001": 15.264570973,
			"0.002": 14.7172892627,
			"0.003": 14.5325138918,
			"0.004": 17.2157494786,
			"0.005": 16.6560457187,
			"0.006": 11.3322669357,
			"0.007": 6.61279304133,
			"0.008": 5.92680855619,
			"0.009": 6.36918071329,
			"0.01": 5.82719168573,
			"0.011": 6.67607057177,
			"0.012": 4.40033575486,
			"0.013": 4.22763577219,
			"0.014": 2.26434829237,
			"0.015": 1.88724568303,
			"0.016": 0.13767712483,
			"0.017": 0.0,
			"0.018": 0.0,
			"0.019": 0.0,
			"0.02": 0.0,
			"0.021": 0.0,
			"0.022": 0.0,
			"0.023": 0.0,
			"0.024": 0.0,
			"0.025": 0.0
		}
	}
}
