{
	 "smiles": "CCCCCCNC(=O)COC(=O)C1=CC=CC=C1", 
	 "Tm": 403.15, 
	 "num_atms": 40, 
	 "gaussian": { 
		 "optdone": 1, 
		 "sigma_profile": "yes", 
		 "theory": "DFT", 
		 "functional": "B3LYP", 
		 "basiset": "6-31G**", 
		 "properties": { 
			 "R2extent": 7561.5273, 
			 "electric_dipole_moment_norm": 5.16714205146, 
			 "electric_quadrupole_moment_norm": 11.7672776367, 
			 "total_energy": -864.724551027, 
			 "HOMO_LUMO_gap": 0.19021, 
			 "cosmo_polarized_energy": -14.54, 
			 "cosmo_cavitation_energy": 42.93, 
			 "cosmo_dispersion_energy": -28.69, 
			 "cosmo_repulsion_energy": 2.28, 
			 "cosmo_total_nonelectrostatic_energy": 16.52, 
			 "SMD_solvation_energy": 7.78 
		},
		"coords": [
			{
				"x": 0.1425346423,
				"y": -0.6678553702,
				"z": -4.6985349281,
				"element": "C" 
			},
			{
				"x": -0.4162441549,
				"y": 0.4303504698,
				"z": -3.7854862524,
				"element": "C" 
			},
			{
				"x": -1.3379665021,
				"y": -0.0732389614,
				"z": -2.6611605353,
				"element": "C" 
			},
			{
				"x": -0.6228921425,
				"y": -0.9217469402,
				"z": -1.5983276572,
				"element": "C" 
			},
			{
				"x": -1.5473550135,
				"y": -1.494262753,
				"z": -0.5113072572,
				"element": "C" 
			},
			{
				"x": -2.2576793745,
				"y": -0.4520516932,
				"z": 0.3688760637,
				"element": "C" 
			},
			{
				"x": -1.3350037778,
				"y": 0.4157916458,
				"z": 1.0903581365,
				"element": "N" 
			},
			{
				"x": -1.1709613005,
				"y": 1.7293595043,
				"z": 0.7907341295,
				"element": "C" 
			},
			{
				"x": -1.835197108,
				"y": 2.3544480144,
				"z": -0.0279989877,
				"element": "O" 
			},
			{
				"x": -0.0881587708,
				"y": 2.4656844251,
				"z": 1.5850866062,
				"element": "C" 
			},
			{
				"x": 0.753434987,
				"y": 1.6065583864,
				"z": 2.3760913386,
				"element": "O" 
			},
			{
				"x": 1.8740098617,
				"y": 1.1266270427,
				"z": 1.7603830038,
				"element": "C" 
			},
			{
				"x": 2.1493202468,
				"y": 1.3705417872,
				"z": 0.6036788496,
				"element": "O" 
			},
			{
				"x": 2.6933169387,
				"y": 0.2762748573,
				"z": 2.6659997757,
				"element": "C" 
			},
			{
				"x": 2.355488399,
				"y": 0.063915561,
				"z": 4.0107169787,
				"element": "C" 
			},
			{
				"x": 3.1635837954,
				"y": -0.7434949445,
				"z": 4.8094136972,
				"element": "C" 
			},
			{
				"x": 4.3073943745,
				"y": -1.3399069769,
				"z": 4.2727598507,
				"element": "C" 
			},
			{
				"x": 4.6468549839,
				"y": -1.1280525301,
				"z": 2.9335022876,
				"element": "C" 
			},
			{
				"x": 3.8434416768,
				"y": -0.3221039623,
				"z": 2.1314355324,
				"element": "C" 
			},
			{
				"x": -0.6665424148,
				"y": -1.2458754515,
				"z": -5.161110772,
				"element": "H" 
			},
			{
				"x": 0.7463755624,
				"y": -0.2395374467,
				"z": -5.5056791534,
				"element": "H" 
			},
			{
				"x": 0.7808241016,
				"y": -1.3711630188,
				"z": -4.1535277253,
				"element": "H" 
			},
			{
				"x": 0.413662384,
				"y": 0.9962732795,
				"z": -3.3413393376,
				"element": "H" 
			},
			{
				"x": -0.9763169128,
				"y": 1.1484656654,
				"z": -4.3977591948,
				"element": "H" 
			},
			{
				"x": -2.1584930262,
				"y": -0.6590753035,
				"z": -3.1029090798,
				"element": "H" 
			},
			{
				"x": -1.7963078976,
				"y": 0.7969434431,
				"z": -2.1779062646,
				"element": "H" 
			},
			{
				"x": 0.1656337072,
				"y": -0.3198189304,
				"z": -1.1271240322,
				"element": "H" 
			},
			{
				"x": -0.1131960163,
				"y": -1.7663408714,
				"z": -2.0781122549,
				"element": "H" 
			},
			{
				"x": -2.3240535691,
				"y": -2.1178543761,
				"z": -0.9749735034,
				"element": "H" 
			},
			{
				"x": -0.9675127032,
				"y": -2.166492976,
				"z": 0.1368720756,
				"element": "H" 
			},
			{
				"x": -2.8898957274,
				"y": 0.2077953926,
				"z": -0.2280807174,
				"element": "H" 
			},
			{
				"x": -2.9049110954,
				"y": -0.9629645803,
				"z": 1.0925993494,
				"element": "H" 
			},
			{
				"x": -0.7192592152,
				"y": 0.0137924506,
				"z": 1.7823455749,
				"element": "H" 
			},
			{
				"x": -0.5692200557,
				"y": 3.1454139424,
				"z": 2.2920768201,
				"element": "H" 
			},
			{
				"x": 0.5108466183,
				"y": 3.0359961747,
				"z": 0.8746283501,
				"element": "H" 
			},
			{
				"x": 1.4696254045,
				"y": 0.5342342862,
				"z": 4.4218099437,
				"element": "H" 
			},
			{
				"x": 2.9027809204,
				"y": -0.9061573459,
				"z": 5.8509254352,
				"element": "H" 
			},
			{
				"x": 4.9347988032,
				"y": -1.9683835304,
				"z": 4.8983716877,
				"element": "H" 
			},
			{
				"x": 5.5365830909,
				"y": -1.5908879802,
				"z": 2.5172940388,
				"element": "H" 
			},
			{
				"x": 4.0863562799,
				"y": -0.1412003854,
				"z": 1.0898781278,
				"element": "H" 
			}
		],
		 "valence_orbital": [ 
			{
				"type": "occ",
				"energy": -0.28712,
				"method": "rhf"
			},
			{
				"type": "occ",
				"energy": -0.27043,
				"method": "rhf"
			},
			{
				"type": "occ",
				"energy": -0.26787,
				"method": "rhf"
			},
			{
				"type": "occ",
				"energy": -0.25129,
				"method": "rhf"
			},
			{
				"type": "occ",
				"energy": -0.24755,
				"method": "rhf"
			},
			{
				"type": "unocc",
				"energy": -0.05734,
				"method": "rhf"
			},
			{
				"type": "unocc",
				"energy": -0.01746,
				"method": "rhf"
			},
			{
				"type": "unocc",
				"energy": 0.0281,
				"method": "rhf"
			},
			{
				"type": "unocc",
				"energy": 0.0467,
				"method": "rhf"
			},
			{
				"type": "unocc",
				"energy": 0.07707,
				"method": "rhf"
			}
		],
		"cosmo_sigma_profile": { 
			"-0.025": 0.0,
			"-0.024": 0.0,
			"-0.023": 0.0,
			"-0.022": 0.0,
			"-0.021": 0.0,
			"-0.02": 0.0,
			"-0.019": 0.0,
			"-0.018": 0.0,
			"-0.017": 0.0,
			"-0.016": 0.0,
			"-0.015": 0.0,
			"-0.014": 0.0,
			"-0.013": 0.223827028701,
			"-0.012": 0.849625651649,
			"-0.011": 1.1066019623,
			"-0.01": 1.1394310559,
			"-0.009": 1.44545964735,
			"-0.008": 3.77779188264,
			"-0.007": 5.05285391365,
			"-0.006": 14.0647771658,
			"-0.005": 17.7291323764,
			"-0.004": 20.4844062096,
			"-0.003": 22.8506417092,
			"-0.002": 33.6352987542,
			"-0.001": 36.3585078712,
			"0.0": 40.996440748,
			"0.001": 42.10038294,
			"0.002": 28.1204239947,
			"0.003": 17.4289406421,
			"0.004": 15.3158172025,
			"0.005": 4.37697818723,
			"0.006": 3.57482675564,
			"0.007": 2.90106746732,
			"0.008": 3.12160079863,
			"0.009": 2.81413967937,
			"0.01": 3.51814035877,
			"0.011": 4.0535639521,
			"0.012": 2.85644006054,
			"0.013": 3.10901292737,
			"0.014": 3.69182071387,
			"0.015": 0.550675726307,
			"0.016": 0.0,
			"0.017": 0.0,
			"0.018": 0.0,
			"0.019": 0.0,
			"0.02": 0.0,
			"0.021": 0.0,
			"0.022": 0.0,
			"0.023": 0.0,
			"0.024": 0.0,
			"0.025": 0.0
		}
	}
}
