{
	 "smiles": "NS(=O)(=O)C1=C(Cl)C=C(NCC2=CC=CO2)C(=C1)C(=O)OCOC(=O)C1=CC=CC=C1", 
	 "Tm": 452.5, 
	 "num_atms": 48, 
	 "gaussian": { 
		 "optdone": 1, 
		 "sigma_profile": "yes", 
		 "theory": "DFT", 
		 "functional": "B3LYP", 
		 "basiset": "6-31G**", 
		 "properties": { 
			 "R2extent": 21571.2296, 
			 "electric_dipole_moment_norm": 9.56700900439, 
			 "electric_quadrupole_moment_norm": 55.837886, 
			 "total_energy": -2266.75155997, 
			 "HOMO_LUMO_gap": 0.16141, 
			 "cosmo_polarized_energy": -28.16, 
			 "cosmo_cavitation_energy": 57.15, 
			 "cosmo_dispersion_energy": -39.26, 
			 "cosmo_repulsion_energy": 2.86, 
			 "cosmo_total_nonelectrostatic_energy": 20.75, 
			 "SMD_solvation_energy": 10.41 
		},
		"coords": [
			{
				"x": -5.695372732,
				"y": 1.8863320429,
				"z": 4.8606890896,
				"element": "N" 
			},
			{
				"x": -5.301326629,
				"y": 0.2601088327,
				"z": 4.7540142745,
				"element": "S" 
			},
			{
				"x": -6.1516054245,
				"y": -0.2842713977,
				"z": 3.6970393615,
				"element": "O" 
			},
			{
				"x": -5.3222255357,
				"y": -0.2583699662,
				"z": 6.1177920803,
				"element": "O" 
			},
			{
				"x": -3.6117009192,
				"y": 0.1611168248,
				"z": 4.1332326478,
				"element": "C" 
			},
			{
				"x": -2.4800074155,
				"y": 0.6794542891,
				"z": 4.7894835627,
				"element": "C" 
			},
			{
				"x": -2.6228240292,
				"y": 1.6009253096,
				"z": 6.2776202119,
				"element": "Cl" 
			},
			{
				"x": -1.2080766537,
				"y": 0.509217523,
				"z": 4.2760948853,
				"element": "C" 
			},
			{
				"x": -0.9833400199,
				"y": -0.2091423732,
				"z": 3.0728501203,
				"element": "C" 
			},
			{
				"x": 0.2843494768,
				"y": -0.3804381733,
				"z": 2.6213723188,
				"element": "N" 
			},
			{
				"x": 1.4646979117,
				"y": 0.2550754166,
				"z": 3.1935630363,
				"element": "C" 
			},
			{
				"x": 2.6759239762,
				"y": -0.1509498653,
				"z": 2.4230829127,
				"element": "C" 
			},
			{
				"x": 3.9073194671,
				"y": -0.6240407645,
				"z": 2.763942554,
				"element": "C" 
			},
			{
				"x": 4.6163198162,
				"y": -0.8301106721,
				"z": 1.5322348486,
				"element": "C" 
			},
			{
				"x": 3.7594612628,
				"y": -0.4780554566,
				"z": 0.5359448497,
				"element": "C" 
			},
			{
				"x": 2.5749632564,
				"y": -0.0514598208,
				"z": 1.0625331085,
				"element": "O" 
			},
			{
				"x": -2.1331910964,
				"y": -0.7286905186,
				"z": 2.3906252146,
				"element": "C" 
			},
			{
				"x": -3.4031187737,
				"y": -0.5300381234,
				"z": 2.9457222646,
				"element": "C" 
			},
			{
				"x": -2.1345309688,
				"y": -1.4693490915,
				"z": 1.1062192722,
				"element": "C" 
			},
			{
				"x": -3.1280879703,
				"y": -1.8600303861,
				"z": 0.5335685639,
				"element": "O" 
			},
			{
				"x": -0.8694384495,
				"y": -1.6933077061,
				"z": 0.599107333,
				"element": "O" 
			},
			{
				"x": -0.7905776967,
				"y": -2.3342716202,
				"z": -0.6699698597,
				"element": "C" 
			},
			{
				"x": -0.8775520352,
				"y": -1.3762244737,
				"z": -1.7091661615,
				"element": "O" 
			},
			{
				"x": 0.2936914988,
				"y": -0.8007567344,
				"z": -2.1248782028,
				"element": "C" 
			},
			{
				"x": 1.3792988792,
				"y": -1.1173281225,
				"z": -1.6824070208,
				"element": "O" 
			},
			{
				"x": 0.0647467664,
				"y": 0.2248415143,
				"z": -3.174215466,
				"element": "C" 
			},
			{
				"x": 1.1871480623,
				"y": 0.8583546273,
				"z": -3.7273387859,
				"element": "C" 
			},
			{
				"x": 1.0252904299,
				"y": 1.826782775,
				"z": -4.7138771808,
				"element": "C" 
			},
			{
				"x": -0.2575109085,
				"y": 2.168410771,
				"z": -5.1519057183,
				"element": "C" 
			},
			{
				"x": -1.3778643303,
				"y": 1.5401996696,
				"z": -4.6023193335,
				"element": "C" 
			},
			{
				"x": -1.2218708627,
				"y": 0.568949139,
				"z": -3.615119742,
				"element": "C" 
			},
			{
				"x": -5.1355890648,
				"y": 2.382246137,
				"z": 5.547429884,
				"element": "H" 
			},
			{
				"x": -5.7191708218,
				"y": 2.340412438,
				"z": 3.9531516543,
				"element": "H" 
			},
			{
				"x": -0.3728098851,
				"y": 0.9328595925,
				"z": 4.8171063705,
				"element": "H" 
			},
			{
				"x": 0.3938791422,
				"y": -0.8173483759,
				"z": 1.7163860118,
				"element": "H" 
			},
			{
				"x": 1.3460447452,
				"y": 1.3513514585,
				"z": 3.1865026361,
				"element": "H" 
			},
			{
				"x": 1.6077757193,
				"y": -0.0465418583,
				"z": 4.2386588782,
				"element": "H" 
			},
			{
				"x": 4.2665037989,
				"y": -0.8123886173,
				"z": 3.7657327647,
				"element": "H" 
			},
			{
				"x": 5.6228815709,
				"y": -1.2039347684,
				"z": 1.4129892817,
				"element": "H" 
			},
			{
				"x": 3.8046318539,
				"y": -0.4931335631,
				"z": -0.5410093552,
				"element": "H" 
			},
			{
				"x": -4.2593882968,
				"y": -0.936136346,
				"z": 2.4192688578,
				"element": "H" 
			},
			{
				"x": -1.6377551742,
				"y": -3.0033824167,
				"z": -0.8005490002,
				"element": "H" 
			},
			{
				"x": 0.1756139474,
				"y": -2.8342607771,
				"z": -0.6905176747,
				"element": "H" 
			},
			{
				"x": 2.1725534664,
				"y": 0.5767453094,
				"z": -3.3724835027,
				"element": "H" 
			},
			{
				"x": 1.8953462533,
				"y": 2.3154761048,
				"z": -5.1418949297,
				"element": "H" 
			},
			{
				"x": -0.3837348856,
				"y": 2.9244626936,
				"z": -5.9216151941,
				"element": "H" 
			},
			{
				"x": -2.3735553475,
				"y": 1.8072543277,
				"z": -4.9432100952,
				"element": "H" 
			},
			{
				"x": -2.0858153746,
				"y": 0.0777851927,
				"z": -3.1829816267,
				"element": "H" 
			}
		],
		 "valence_orbital": [ 
			{
				"type": "occ",
				"energy": -0.27232,
				"method": "rhf"
			},
			{
				"type": "occ",
				"energy": -0.27153,
				"method": "rhf"
			},
			{
				"type": "occ",
				"energy": -0.26997,
				"method": "rhf"
			},
			{
				"type": "occ",
				"energy": -0.23525,
				"method": "rhf"
			},
			{
				"type": "occ",
				"energy": -0.22726,
				"method": "rhf"
			},
			{
				"type": "unocc",
				"energy": -0.06585,
				"method": "rhf"
			},
			{
				"type": "unocc",
				"energy": -0.06214,
				"method": "rhf"
			},
			{
				"type": "unocc",
				"energy": -0.02612,
				"method": "rhf"
			},
			{
				"type": "unocc",
				"energy": -0.01895,
				"method": "rhf"
			},
			{
				"type": "unocc",
				"energy": 0.00087,
				"method": "rhf"
			}
		],
		"cosmo_sigma_profile": { 
			"-0.025": 0.0,
			"-0.024": 0.0,
			"-0.023": 0.0,
			"-0.022": 0.0,
			"-0.021": 0.0,
			"-0.02": 0.0,
			"-0.019": 0.0,
			"-0.018": 0.0,
			"-0.017": 0.0,
			"-0.016": 0.396051194154,
			"-0.015": 1.43460450146,
			"-0.014": 1.48502916108,
			"-0.013": 1.72881917777,
			"-0.012": 2.77169737155,
			"-0.011": 2.38904947085,
			"-0.01": 1.74693606694,
			"-0.009": 3.45385852625,
			"-0.008": 8.7581815024,
			"-0.007": 18.1037732884,
			"-0.006": 27.3191747095,
			"-0.005": 25.691188997,
			"-0.004": 27.4463804546,
			"-0.003": 28.4823604628,
			"-0.002": 29.8418436671,
			"-0.001": 32.875751581,
			"0.0": 42.6351457307,
			"0.001": 35.2973206811,
			"0.002": 28.5243246407,
			"0.003": 33.8053546759,
			"0.004": 23.7491132687,
			"0.005": 16.7923681023,
			"0.006": 10.9240088975,
			"0.007": 9.66039680003,
			"0.008": 9.5540741251,
			"0.009": 6.60084223853,
			"0.01": 13.370720334,
			"0.011": 13.5162311927,
			"0.012": 2.8774343475,
			"0.013": 0.0431542141327,
			"0.014": 0.0,
			"0.015": 0.0,
			"0.016": 0.0,
			"0.017": 0.0,
			"0.018": 0.0,
			"0.019": 0.0,
			"0.02": 0.0,
			"0.021": 0.0,
			"0.022": 0.0,
			"0.023": 0.0,
			"0.024": 0.0,
			"0.025": 0.0
		}
	}
}
