{
	 "smiles": "O=S1(=O)CCN(CC2=CC=CC=C2)CC1", 
	 "Tm": 358.65, 
	 "num_atms": 30, 
	 "gaussian": { 
		 "optdone": 1, 
		 "sigma_profile": "yes", 
		 "theory": "DFT", 
		 "functional": "B3LYP", 
		 "basiset": "6-31G**", 
		 "properties": { 
			 "R2extent": 3984.9283, 
			 "electric_dipole_moment_norm": 5.19013654348, 
			 "electric_quadrupole_moment_norm": 20.7599455218, 
			 "total_energy": -1031.51949951, 
			 "HOMO_LUMO_gap": 0.20752, 
			 "cosmo_polarized_energy": -17.26, 
			 "cosmo_cavitation_energy": 32.55, 
			 "cosmo_dispersion_energy": -23.53, 
			 "cosmo_repulsion_energy": 1.78, 
			 "cosmo_total_nonelectrostatic_energy": 10.79, 
			 "SMD_solvation_energy": 1.82 
		},
		"coords": [
			{
				"x": -2.2052490244,
				"y": -2.5762199534,
				"z": 1.5390278614,
				"element": "O" 
			},
			{
				"x": -2.5447443283,
				"y": -1.1507923579,
				"z": 1.3944376752,
				"element": "S" 
			},
			{
				"x": -3.6222205312,
				"y": -0.5491175619,
				"z": 2.1981323516,
				"element": "O" 
			},
			{
				"x": -1.0277895641,
				"y": -0.158748099,
				"z": 1.6239760743,
				"element": "C" 
			},
			{
				"x": -1.0599574026,
				"y": 1.0409203144,
				"z": 0.6648462874,
				"element": "C" 
			},
			{
				"x": -0.9735541,
				"y": 0.6988411307,
				"z": -0.7619419694,
				"element": "N" 
			},
			{
				"x": 0.3294354672,
				"y": 0.9348230663,
				"z": -1.4027159547,
				"element": "C" 
			},
			{
				"x": 1.4939630147,
				"y": 0.0607149995,
				"z": -0.953107714,
				"element": "C" 
			},
			{
				"x": 1.743109589,
				"y": -1.1799706521,
				"z": -1.5589753987,
				"element": "C" 
			},
			{
				"x": 2.7839461547,
				"y": -1.9990997498,
				"z": -1.1180667547,
				"element": "C" 
			},
			{
				"x": 3.6020413926,
				"y": -1.585678602,
				"z": -0.0654079023,
				"element": "C" 
			},
			{
				"x": 3.3794379507,
				"y": -0.3451123579,
				"z": 0.5354391463,
				"element": "C" 
			},
			{
				"x": 2.3365559196,
				"y": 0.4694167824,
				"z": 0.0916710674,
				"element": "C" 
			},
			{
				"x": -1.5862121014,
				"y": -0.5793687153,
				"z": -1.1302323923,
				"element": "C" 
			},
			{
				"x": -2.8903725531,
				"y": -0.8148558802,
				"z": -0.3709848453,
				"element": "C" 
			},
			{
				"x": -0.1724121005,
				"y": -0.8139662538,
				"z": 1.4501728873,
				"element": "H" 
			},
			{
				"x": -1.0494665443,
				"y": 0.1536521584,
				"z": 2.6715345055,
				"element": "H" 
			},
			{
				"x": -1.9835058047,
				"y": 1.6053560075,
				"z": 0.8543633638,
				"element": "H" 
			},
			{
				"x": -0.2369368393,
				"y": 1.7145246581,
				"z": 0.9162170391,
				"element": "H" 
			},
			{
				"x": 0.5841100146,
				"y": 1.9886621297,
				"z": -1.2433452667,
				"element": "H" 
			},
			{
				"x": 0.1779712443,
				"y": 0.8087869947,
				"z": -2.4819550975,
				"element": "H" 
			},
			{
				"x": 1.1263164241,
				"y": -1.5010490254,
				"z": -2.394867558,
				"element": "H" 
			},
			{
				"x": 2.9594953618,
				"y": -2.9562388487,
				"z": -1.6007734981,
				"element": "H" 
			},
			{
				"x": 4.413916336,
				"y": -2.2204947873,
				"z": 0.2771050598,
				"element": "H" 
			},
			{
				"x": 4.0229226113,
				"y": -0.0077884479,
				"z": 1.3431213291,
				"element": "H" 
			},
			{
				"x": 2.1858142914,
				"y": 1.4432941069,
				"z": 0.5521867283,
				"element": "H" 
			},
			{
				"x": -1.8009337969,
				"y": -0.5633158262,
				"z": -2.2065708078,
				"element": "H" 
			},
			{
				"x": -0.9236285069,
				"y": -1.445080469,
				"z": -0.9569406098,
				"element": "H" 
			},
			{
				"x": -3.4117866589,
				"y": -1.7050622075,
				"z": -0.7305790121,
				"element": "H" 
			},
			{
				"x": -3.5577659154,
				"y": 0.0481674468,
				"z": -0.4181665952,
				"element": "H" 
			}
		],
		 "valence_orbital": [ 
			{
				"type": "occ",
				"energy": -0.28827,
				"method": "rhf"
			},
			{
				"type": "occ",
				"energy": -0.27498,
				"method": "rhf"
			},
			{
				"type": "occ",
				"energy": -0.261,
				"method": "rhf"
			},
			{
				"type": "occ",
				"energy": -0.25785,
				"method": "rhf"
			},
			{
				"type": "occ",
				"energy": -0.22297,
				"method": "rhf"
			},
			{
				"type": "unocc",
				"energy": -0.01545,
				"method": "rhf"
			},
			{
				"type": "unocc",
				"energy": -0.01397,
				"method": "rhf"
			},
			{
				"type": "unocc",
				"energy": 0.05549,
				"method": "rhf"
			},
			{
				"type": "unocc",
				"energy": 0.06802,
				"method": "rhf"
			},
			{
				"type": "unocc",
				"energy": 0.07834,
				"method": "rhf"
			}
		],
		"cosmo_sigma_profile": { 
			"-0.025": 0.0,
			"-0.024": 0.0,
			"-0.023": 0.0,
			"-0.022": 0.0,
			"-0.021": 0.0,
			"-0.02": 0.0,
			"-0.019": 0.0,
			"-0.018": 0.0,
			"-0.017": 0.0,
			"-0.016": 0.0,
			"-0.015": 0.0,
			"-0.014": 0.0,
			"-0.013": 0.0,
			"-0.012": 0.0,
			"-0.011": 0.0,
			"-0.01": 0.0,
			"-0.009": 0.407527047712,
			"-0.008": 5.05939887685,
			"-0.007": 9.06275739951,
			"-0.006": 15.4422158512,
			"-0.005": 30.3840870084,
			"-0.004": 29.6119675911,
			"-0.003": 26.1991808937,
			"-0.002": 18.0141139154,
			"-0.001": 16.4082184164,
			"0.0": 11.2826063497,
			"0.001": 9.34999354165,
			"0.002": 10.0918052455,
			"0.003": 9.55940752447,
			"0.004": 10.0690072975,
			"0.005": 9.95482878643,
			"0.006": 7.68543511175,
			"0.007": 2.11177949385,
			"0.008": 2.96407482367,
			"0.009": 3.07909106935,
			"0.01": 3.85232849499,
			"0.011": 8.49703245997,
			"0.012": 12.5566550618,
			"0.013": 3.99295608318,
			"0.014": 0.281875690012,
			"0.015": 0.0,
			"0.016": 0.0,
			"0.017": 0.0,
			"0.018": 0.0,
			"0.019": 0.0,
			"0.02": 0.0,
			"0.021": 0.0,
			"0.022": 0.0,
			"0.023": 0.0,
			"0.024": 0.0,
			"0.025": 0.0
		}
	}
}
