{
	 "smiles": "ClC1=NOC(=N1)C1=CC=CS1", 
	 "Tm": 311.15, 
	 "num_atms": 14, 
	 "gaussian": { 
		 "optdone": 1, 
		 "sigma_profile": "yes", 
		 "theory": "DFT", 
		 "functional": "B3LYP", 
		 "basiset": "6-31G**", 
		 "properties": { 
			 "R2extent": 2985.0675, 
			 "electric_dipole_moment_norm": 4.15930518717, 
			 "electric_quadrupole_moment_norm": 5.27005169709, 
			 "total_energy": -1273.48697546, 
			 "HOMO_LUMO_gap": 0.17204, 
			 "cosmo_polarized_energy": -7.27, 
			 "cosmo_cavitation_energy": 23.17, 
			 "cosmo_dispersion_energy": -18.11, 
			 "cosmo_repulsion_energy": 1.4, 
			 "cosmo_total_nonelectrostatic_energy": 6.46, 
			 "SMD_solvation_energy": 1.72 
		},
		"coords": [
			{
				"x": -2.0184444751,
				"y": 3.2543517907,
				"z": -2.7254110866,
				"element": "Cl" 
			},
			{
				"x": -1.665194131,
				"y": 1.7394795372,
				"z": -1.9994708124,
				"element": "C" 
			},
			{
				"x": -2.2513974031,
				"y": 0.642093216,
				"z": -2.4126172162,
				"element": "N" 
			},
			{
				"x": -1.6814872134,
				"y": -0.327644393,
				"z": -1.5634046088,
				"element": "O" 
			},
			{
				"x": -0.8241300847,
				"y": 0.3217188942,
				"z": -0.7478827865,
				"element": "C" 
			},
			{
				"x": -0.7747319238,
				"y": 1.6118026821,
				"z": -0.9754813505,
				"element": "N" 
			},
			{
				"x": -0.0941040335,
				"y": -0.4362091514,
				"z": 0.2344308533,
				"element": "C" 
			},
			{
				"x": -0.1514121004,
				"y": -1.7944466072,
				"z": 0.4685332234,
				"element": "C" 
			},
			{
				"x": 0.7093930565,
				"y": -2.2028784317,
				"z": 1.5203734262,
				"element": "C" 
			},
			{
				"x": 1.4048691813,
				"y": -1.1535559137,
				"z": 2.0674190115,
				"element": "C" 
			},
			{
				"x": 1.0262331914,
				"y": 0.3537399698,
				"z": 1.3135949132,
				"element": "S" 
			},
			{
				"x": -0.7898671952,
				"y": -2.4609704681,
				"z": -0.0988480902,
				"element": "H" 
			},
			{
				"x": 0.8094068351,
				"y": -3.2277634169,
				"z": 1.8570842301,
				"element": "H" 
			},
			{
				"x": 2.122766296,
				"y": -1.1812177078,
				"z": 2.8758802935,
				"element": "H" 
			}
		],
		 "valence_orbital": [ 
			{
				"type": "occ",
				"energy": -0.33552,
				"method": "rhf"
			},
			{
				"type": "occ",
				"energy": -0.31658,
				"method": "rhf"
			},
			{
				"type": "occ",
				"energy": -0.30188,
				"method": "rhf"
			},
			{
				"type": "occ",
				"energy": -0.27749,
				"method": "rhf"
			},
			{
				"type": "occ",
				"energy": -0.24996,
				"method": "rhf"
			},
			{
				"type": "unocc",
				"energy": -0.07792,
				"method": "rhf"
			},
			{
				"type": "unocc",
				"energy": -0.00662,
				"method": "rhf"
			},
			{
				"type": "unocc",
				"energy": 0.00525,
				"method": "rhf"
			},
			{
				"type": "unocc",
				"energy": 0.02152,
				"method": "rhf"
			},
			{
				"type": "unocc",
				"energy": 0.02873,
				"method": "rhf"
			}
		],
		"cosmo_sigma_profile": { 
			"-0.025": 0.0,
			"-0.024": 0.0,
			"-0.023": 0.0,
			"-0.022": 0.0,
			"-0.021": 0.0,
			"-0.02": 0.0,
			"-0.019": 0.0,
			"-0.018": 0.0,
			"-0.017": 0.0,
			"-0.016": 0.0,
			"-0.015": 0.0,
			"-0.014": 0.0,
			"-0.013": 0.0,
			"-0.012": 0.0,
			"-0.011": 0.0,
			"-0.01": 1.34310154251,
			"-0.009": 2.93047086783,
			"-0.008": 4.5464496788,
			"-0.007": 6.05644846498,
			"-0.006": 6.13223100845,
			"-0.005": 9.30722638471,
			"-0.004": 9.93492692116,
			"-0.003": 12.5982057211,
			"-0.002": 13.325981762,
			"-0.001": 14.1763076346,
			"0.0": 16.1366317431,
			"0.001": 24.8700138675,
			"0.002": 30.5836745789,
			"0.003": 12.386224833,
			"0.004": 5.84841740204,
			"0.005": 6.58277331802,
			"0.006": 2.5859354526,
			"0.007": 2.92852899312,
			"0.008": 2.9920583471,
			"0.009": 2.47641975291,
			"0.01": 2.13719095892,
			"0.011": 1.9953088107,
			"0.012": 1.01146435688,
			"0.013": 0.0,
			"0.014": 0.0,
			"0.015": 0.0,
			"0.016": 0.0,
			"0.017": 0.0,
			"0.018": 0.0,
			"0.019": 0.0,
			"0.02": 0.0,
			"0.021": 0.0,
			"0.022": 0.0,
			"0.023": 0.0,
			"0.024": 0.0,
			"0.025": 0.0
		}
	}
}
