{
	 "smiles": "C1CCC(CC1)NC1=NC2=C(S1)C=CC=C2", 
	 "Tm": 374.15, 
	 "num_atms": 32, 
	 "gaussian": { 
		 "optdone": 1, 
		 "sigma_profile": "yes", 
		 "theory": "DFT", 
		 "functional": "B3LYP", 
		 "basiset": "6-31G**", 
		 "properties": { 
			 "R2extent": 5994.3487, 
			 "electric_dipole_moment_norm": 2.9955017543, 
			 "electric_quadrupole_moment_norm": 9.23252508526, 
			 "total_energy": -1012.75071754, 
			 "HOMO_LUMO_gap": 0.1939, 
			 "cosmo_polarized_energy": -9.01, 
			 "cosmo_cavitation_energy": 34.76, 
			 "cosmo_dispersion_energy": -26.1, 
			 "cosmo_repulsion_energy": 1.99, 
			 "cosmo_total_nonelectrostatic_energy": 10.64, 
			 "SMD_solvation_energy": 2.12 
		},
		"coords": [
			{
				"x": -2.2103454694,
				"y": -2.8798397961,
				"z": 2.6584098481,
				"element": "C" 
			},
			{
				"x": -1.7007719538,
				"y": -1.4329251984,
				"z": 2.5800797354,
				"element": "C" 
			},
			{
				"x": -1.4975981846,
				"y": -0.9864704401,
				"z": 1.1235942545,
				"element": "C" 
			},
			{
				"x": -0.5598205979,
				"y": -1.9457553102,
				"z": 0.3630756769,
				"element": "C" 
			},
			{
				"x": -1.0700388419,
				"y": -3.3931077167,
				"z": 0.4424685139,
				"element": "C" 
			},
			{
				"x": -1.2826703925,
				"y": -3.8393317944,
				"z": 1.8975408613,
				"element": "C" 
			},
			{
				"x": -0.3751096005,
				"y": -1.5711921447,
				"z": -1.037732842,
				"element": "N" 
			},
			{
				"x": 0.4359417149,
				"y": -0.5723074265,
				"z": -1.4859961067,
				"element": "C" 
			},
			{
				"x": 0.3376938077,
				"y": -0.047049036,
				"z": -2.6710559317,
				"element": "N" 
			},
			{
				"x": 1.3355884945,
				"y": 0.8900356045,
				"z": -2.8810765201,
				"element": "C" 
			},
			{
				"x": 2.2287668879,
				"y": 1.0979821474,
				"z": -1.8010125346,
				"element": "C" 
			},
			{
				"x": 1.7768795638,
				"y": 0.0425885644,
				"z": -0.4622883643,
				"element": "S" 
			},
			{
				"x": 3.2714954108,
				"y": 2.0187261261,
				"z": -1.8721570211,
				"element": "C" 
			},
			{
				"x": 3.4285857713,
				"y": 2.7467935104,
				"z": -3.052928056,
				"element": "C" 
			},
			{
				"x": 2.5551821602,
				"y": 2.5521823718,
				"z": -4.1328123959,
				"element": "C" 
			},
			{
				"x": 1.5122893487,
				"y": 1.632363444,
				"z": -4.0568542283,
				"element": "C" 
			},
			{
				"x": -2.3034273164,
				"y": -3.1944953455,
				"z": 3.7043624495,
				"element": "H" 
			},
			{
				"x": -3.2193603109,
				"y": -2.9319900265,
				"z": 2.2253596673,
				"element": "H" 
			},
			{
				"x": -2.3968973014,
				"y": -0.7531495604,
				"z": 3.0845854877,
				"element": "H" 
			},
			{
				"x": -0.7460536377,
				"y": -1.3544459851,
				"z": 3.1192884707,
				"element": "H" 
			},
			{
				"x": -1.0944273329,
				"y": 0.0313792941,
				"z": 1.0819149614,
				"element": "H" 
			},
			{
				"x": -2.4665724802,
				"y": -0.966262946,
				"z": 0.6045596018,
				"element": "H" 
			},
			{
				"x": 0.4318450152,
				"y": -1.9138203574,
				"z": 0.8349189133,
				"element": "H" 
			},
			{
				"x": -0.3660440276,
				"y": -4.0562070761,
				"z": -0.071810187,
				"element": "H" 
			},
			{
				"x": -2.0248421908,
				"y": -3.4592936351,
				"z": -0.1009680998,
				"element": "H" 
			},
			{
				"x": -0.3093653288,
				"y": -3.8818907175,
				"z": 2.4063114597,
				"element": "H" 
			},
			{
				"x": -1.6858803993,
				"y": -4.8582702127,
				"z": 1.9164340634,
				"element": "H" 
			},
			{
				"x": -1.1500389083,
				"y": -1.7508519859,
				"z": -1.665120272,
				"element": "H" 
			},
			{
				"x": 3.9468000324,
				"y": 2.1678423402,
				"z": -1.0353079342,
				"element": "H" 
			},
			{
				"x": 4.2354342119,
				"y": 3.4690829003,
				"z": -3.1319870533,
				"element": "H" 
			},
			{
				"x": 2.6940241746,
				"y": 3.1280907534,
				"z": -5.0432434554,
				"element": "H" 
			},
			{
				"x": 0.8320376809,
				"y": 1.4756896547,
				"z": -4.8876529628,
				"element": "H" 
			}
		],
		 "valence_orbital": [ 
			{
				"type": "occ",
				"energy": -0.2906,
				"method": "rhf"
			},
			{
				"type": "occ",
				"energy": -0.27463,
				"method": "rhf"
			},
			{
				"type": "occ",
				"energy": -0.26655,
				"method": "rhf"
			},
			{
				"type": "occ",
				"energy": -0.22375,
				"method": "rhf"
			},
			{
				"type": "occ",
				"energy": -0.19861,
				"method": "rhf"
			},
			{
				"type": "unocc",
				"energy": -0.00471,
				"method": "rhf"
			},
			{
				"type": "unocc",
				"energy": 0.00677,
				"method": "rhf"
			},
			{
				"type": "unocc",
				"energy": 0.01271,
				"method": "rhf"
			},
			{
				"type": "unocc",
				"energy": 0.05522,
				"method": "rhf"
			},
			{
				"type": "unocc",
				"energy": 0.07041,
				"method": "rhf"
			}
		],
		"cosmo_sigma_profile": { 
			"-0.025": 0.0,
			"-0.024": 0.0,
			"-0.023": 0.0,
			"-0.022": 0.0,
			"-0.021": 0.0,
			"-0.02": 0.0,
			"-0.019": 0.0,
			"-0.018": 0.0,
			"-0.017": 0.0,
			"-0.016": 0.0,
			"-0.015": 0.0,
			"-0.014": 0.0827939974124,
			"-0.013": 0.801323303055,
			"-0.012": 0.901006554483,
			"-0.011": 1.12250843108,
			"-0.01": 0.992529589108,
			"-0.009": 1.18752229213,
			"-0.008": 1.53481724507,
			"-0.007": 1.78245205997,
			"-0.006": 6.58616753911,
			"-0.005": 10.9109236581,
			"-0.004": 14.5369171907,
			"-0.003": 23.6004931817,
			"-0.002": 35.7323706406,
			"-0.001": 34.5267625442,
			"0.0": 35.5610922932,
			"0.001": 25.5132279384,
			"0.002": 14.09645893,
			"0.003": 14.4202583824,
			"0.004": 15.9367147976,
			"0.005": 15.2218558456,
			"0.006": 9.25596164507,
			"0.007": 1.83550296368,
			"0.008": 1.80073113386,
			"0.009": 1.19602955242,
			"0.01": 1.11738469375,
			"0.011": 1.11956284101,
			"0.012": 1.0310463142,
			"0.013": 0.913492990922,
			"0.014": 0.96917876074,
			"0.015": 0.740908847026,
			"0.016": 0.286764735421,
			"0.017": 0.0,
			"0.018": 0.0,
			"0.019": 0.0,
			"0.02": 0.0,
			"0.021": 0.0,
			"0.022": 0.0,
			"0.023": 0.0,
			"0.024": 0.0,
			"0.025": 0.0
		}
	}
}
