{
	 "smiles": "NC1=NN=C(N1)SCC1=CC=CC=C1", 
	 "Tm": 373.15, 
	 "num_atms": 24, 
	 "gaussian": { 
		 "optdone": 1, 
		 "sigma_profile": "yes", 
		 "theory": "DFT", 
		 "functional": "B3LYP", 
		 "basiset": "6-31G**", 
		 "properties": { 
			 "R2extent": 4939.1154, 
			 "electric_dipole_moment_norm": 3.80418319354, 
			 "electric_quadrupole_moment_norm": 24.0067803953, 
			 "total_energy": -966.156028579, 
			 "HOMO_LUMO_gap": 0.1919, 
			 "cosmo_polarized_energy": -21.37, 
			 "cosmo_cavitation_energy": 30.03, 
			 "cosmo_dispersion_energy": -22.25, 
			 "cosmo_repulsion_energy": 1.73, 
			 "cosmo_total_nonelectrostatic_energy": 9.51, 
			 "SMD_solvation_energy": 2.85 
		},
		"coords": [
			{
				"x": 3.6410668379,
				"y": 2.3863243202,
				"z": 3.235041753,
				"element": "N" 
			},
			{
				"x": 3.30367748,
				"y": 1.8163611627,
				"z": 2.0126308736,
				"element": "C" 
			},
			{
				"x": 4.0831656851,
				"y": 1.1063832387,
				"z": 1.2365106798,
				"element": "N" 
			},
			{
				"x": 3.3696155263,
				"y": 0.8386931398,
				"z": 0.0689463197,
				"element": "N" 
			},
			{
				"x": 2.1825891007,
				"y": 1.3742872903,
				"z": 0.1993442684,
				"element": "C" 
			},
			{
				"x": 2.079749634,
				"y": 2.0104108278,
				"z": 1.4178341713,
				"element": "N" 
			},
			{
				"x": 0.8476864148,
				"y": 1.3619119128,
				"z": -0.9521536078,
				"element": "S" 
			},
			{
				"x": 1.4136195211,
				"y": -0.0145516687,
				"z": -2.0711816313,
				"element": "C" 
			},
			{
				"x": 1.0925027304,
				"y": -1.4003953637,
				"z": -1.5793924144,
				"element": "C" 
			},
			{
				"x": 2.0297773696,
				"y": -2.1238640322,
				"z": -0.8280433481,
				"element": "C" 
			},
			{
				"x": 1.7309694504,
				"y": -3.4121544956,
				"z": -0.3819068994,
				"element": "C" 
			},
			{
				"x": 0.4972976204,
				"y": -3.9933928778,
				"z": -0.6806613518,
				"element": "C" 
			},
			{
				"x": -0.4406297782,
				"y": -3.2796040669,
				"z": -1.43035487,
				"element": "C" 
			},
			{
				"x": -0.1432679487,
				"y": -1.9922743403,
				"z": -1.8758247457,
				"element": "C" 
			},
			{
				"x": 4.6033308653,
				"y": 2.1573305154,
				"z": 3.4592252071,
				"element": "H" 
			},
			{
				"x": 3.0333757136,
				"y": 2.1037309415,
				"z": 3.9978314326,
				"element": "H" 
			},
			{
				"x": 1.3136282358,
				"y": 2.5729506834,
				"z": 1.7556610762,
				"element": "H" 
			},
			{
				"x": 0.9021233042,
				"y": 0.2071836126,
				"z": -3.0111155818,
				"element": "H" 
			},
			{
				"x": 2.4851072148,
				"y": 0.1357473144,
				"z": -2.2091196781,
				"element": "H" 
			},
			{
				"x": 2.9836280998,
				"y": -1.6632977373,
				"z": -0.5902210038,
				"element": "H" 
			},
			{
				"x": 2.4661712093,
				"y": -3.9636732011,
				"z": 0.1974870348,
				"element": "H" 
			},
			{
				"x": 0.2684798275,
				"y": -4.9977241381,
				"z": -0.3353947017,
				"element": "H" 
			},
			{
				"x": -1.400831008,
				"y": -3.7269672342,
				"z": -1.6716695729,
				"element": "H" 
			},
			{
				"x": -0.8757331062,
				"y": -1.4409158037,
				"z": -2.4611734097,
				"element": "H" 
			}
		],
		 "valence_orbital": [ 
			{
				"type": "occ",
				"energy": -0.27189,
				"method": "rhf"
			},
			{
				"type": "occ",
				"energy": -0.25257,
				"method": "rhf"
			},
			{
				"type": "occ",
				"energy": -0.24591,
				"method": "rhf"
			},
			{
				"type": "occ",
				"energy": -0.23989,
				"method": "rhf"
			},
			{
				"type": "occ",
				"energy": -0.20755,
				"method": "rhf"
			},
			{
				"type": "unocc",
				"energy": -0.01565,
				"method": "rhf"
			},
			{
				"type": "unocc",
				"energy": 0.00242,
				"method": "rhf"
			},
			{
				"type": "unocc",
				"energy": 0.02484,
				"method": "rhf"
			},
			{
				"type": "unocc",
				"energy": 0.0339,
				"method": "rhf"
			},
			{
				"type": "unocc",
				"energy": 0.05293,
				"method": "rhf"
			}
		],
		"cosmo_sigma_profile": { 
			"-0.025": 0.0,
			"-0.024": 0.0,
			"-0.023": 0.0,
			"-0.022": 0.0,
			"-0.021": 0.0,
			"-0.02": 0.0,
			"-0.019": 0.0,
			"-0.018": 0.336519264779,
			"-0.017": 1.74330207404,
			"-0.016": 1.35870441724,
			"-0.015": 0.744034058551,
			"-0.014": 3.02671787664,
			"-0.013": 4.42932402532,
			"-0.012": 3.41070315982,
			"-0.011": 4.42459769674,
			"-0.01": 2.90090439853,
			"-0.009": 2.90774232151,
			"-0.008": 3.46659596244,
			"-0.007": 5.42508127228,
			"-0.006": 9.27028717359,
			"-0.005": 13.5902729993,
			"-0.004": 14.7489513872,
			"-0.003": 15.3545882164,
			"-0.002": 12.7027614464,
			"-0.001": 11.1420639773,
			"0.0": 14.587731481,
			"0.001": 12.3510021009,
			"0.002": 13.2910956742,
			"0.003": 14.8177814261,
			"0.004": 16.5766045802,
			"0.005": 16.0919900206,
			"0.006": 12.4960276756,
			"0.007": 6.52118797485,
			"0.008": 2.95629432107,
			"0.009": 1.69629158808,
			"0.01": 2.42685203166,
			"0.011": 2.53797059787,
			"0.012": 2.85844808295,
			"0.013": 3.18851452802,
			"0.014": 3.17753404955,
			"0.015": 2.42471052053,
			"0.016": 1.24154305829,
			"0.017": 1.18648378894,
			"0.018": 0.0805895905575,
			"0.019": 0.0,
			"0.02": 0.0,
			"0.021": 0.0,
			"0.022": 0.0,
			"0.023": 0.0,
			"0.024": 0.0,
			"0.025": 0.0
		}
	}
}
