{
	 "smiles": "CC12CCCC1C1CCC3CC(=O)CCC3(C)C1CC2", 
	 "Tm": 375.15, 
	 "num_atms": 50, 
	 "gaussian": { 
		 "optdone": 1, 
		 "sigma_profile": "yes", 
		 "theory": "DFT", 
		 "functional": "B3LYP", 
		 "basiset": "6-31G**", 
		 "properties": { 
			 "R2extent": 5829.3817, 
			 "electric_dipole_moment_norm": 3.43028162401, 
			 "electric_quadrupole_moment_norm": 19.6434215818, 
			 "total_energy": -817.347961077, 
			 "HOMO_LUMO_gap": 0.22227, 
			 "cosmo_polarized_energy": -7.57, 
			 "cosmo_cavitation_energy": 42.0, 
			 "cosmo_dispersion_energy": -29.69, 
			 "cosmo_repulsion_energy": 2.2, 
			 "cosmo_total_nonelectrostatic_energy": 14.51, 
			 "SMD_solvation_energy": 5.96 
		},
		"coords": [
			{
				"x": -1.0778045629,
				"y": -2.9989035948,
				"z": 2.3822224172,
				"element": "C" 
			},
			{
				"x": -0.6417835299,
				"y": -1.6745628698,
				"z": 1.7214872006,
				"element": "C" 
			},
			{
				"x": -0.3741493124,
				"y": -0.6171569754,
				"z": 2.8222279889,
				"element": "C" 
			},
			{
				"x": 1.0366023184,
				"y": -0.9367300005,
				"z": 3.3712340682,
				"element": "C" 
			},
			{
				"x": 1.7346720784,
				"y": -1.7991799841,
				"z": 2.2781709039,
				"element": "C" 
			},
			{
				"x": 0.7665905863,
				"y": -1.8430762055,
				"z": 1.0639244783,
				"element": "C" 
			},
			{
				"x": 1.0982157696,
				"y": -0.7549466115,
				"z": 0.0079442035,
				"element": "C" 
			},
			{
				"x": 2.4208538855,
				"y": -1.0380531457,
				"z": -0.7168092124,
				"element": "C" 
			},
			{
				"x": 2.8510006777,
				"y": 0.1266749563,
				"z": -1.6371074859,
				"element": "C" 
			},
			{
				"x": 1.6799503013,
				"y": 0.9991208744,
				"z": -2.1654432579,
				"element": "C" 
			},
			{
				"x": 1.4989632137,
				"y": 2.2917326267,
				"z": -1.327578527,
				"element": "C" 
			},
			{
				"x": 0.4150958599,
				"y": 3.1957125436,
				"z": -1.8884312993,
				"element": "C" 
			},
			{
				"x": 0.5963854173,
				"y": 4.3791607552,
				"z": -2.1082767984,
				"element": "O" 
			},
			{
				"x": -0.91218027,
				"y": 2.5053366591,
				"z": -2.1484366576,
				"element": "C" 
			},
			{
				"x": -0.7334168643,
				"y": 1.1634477267,
				"z": -2.8874769158,
				"element": "C" 
			},
			{
				"x": 0.3550202415,
				"y": 0.1961244021,
				"z": -2.3399674288,
				"element": "C" 
			},
			{
				"x": 0.5705519186,
				"y": -0.8525318562,
				"z": -3.4621318927,
				"element": "C" 
			},
			{
				"x": -0.0544143596,
				"y": -0.5966666627,
				"z": -1.0208540402,
				"element": "C" 
			},
			{
				"x": -1.3167432509,
				"y": -0.1506577133,
				"z": -0.2597355988,
				"element": "C" 
			},
			{
				"x": -1.7400985424,
				"y": -1.2459018955,
				"z": 0.7279055328,
				"element": "C" 
			},
			{
				"x": -1.1584185172,
				"y": -3.8005515076,
				"z": 1.6391369385,
				"element": "H" 
			},
			{
				"x": -0.3763302917,
				"y": -3.3306439238,
				"z": 3.153898289,
				"element": "H" 
			},
			{
				"x": -2.059073473,
				"y": -2.8855019105,
				"z": 2.8577167049,
				"element": "H" 
			},
			{
				"x": -1.1467167073,
				"y": -0.638571908,
				"z": 3.5990080979,
				"element": "H" 
			},
			{
				"x": -0.3926978794,
				"y": 0.3902730079,
				"z": 2.3918364608,
				"element": "H" 
			},
			{
				"x": 1.5970120575,
				"y": -0.021867906,
				"z": 3.5869828489,
				"element": "H" 
			},
			{
				"x": 0.9751290558,
				"y": -1.487825336,
				"z": 4.3149163811,
				"element": "H" 
			},
			{
				"x": 2.7137142436,
				"y": -1.3936862475,
				"z": 2.0082972061,
				"element": "H" 
			},
			{
				"x": 1.9194707068,
				"y": -2.8117407395,
				"z": 2.6503050861,
				"element": "H" 
			},
			{
				"x": 0.8255366028,
				"y": -2.8163814254,
				"z": 0.5558043165,
				"element": "H" 
			},
			{
				"x": 1.2103276142,
				"y": 0.1960057059,
				"z": 0.5488040662,
				"element": "H" 
			},
			{
				"x": 3.2226345755,
				"y": -1.2443670025,
				"z": -0.0007733348,
				"element": "H" 
			},
			{
				"x": 2.3009430544,
				"y": -1.9618543408,
				"z": -1.2979472087,
				"element": "H" 
			},
			{
				"x": 3.5492033492,
				"y": 0.7788496771,
				"z": -1.0992374816,
				"element": "H" 
			},
			{
				"x": 3.4169717494,
				"y": -0.2769301367,
				"z": -2.4837635686,
				"element": "H" 
			},
			{
				"x": 1.9610549125,
				"y": 1.3436502877,
				"z": -3.1707404399,
				"element": "H" 
			},
			{
				"x": 1.2247016402,
				"y": 2.0447478003,
				"z": -0.2937415911,
				"element": "H" 
			},
			{
				"x": 2.4327302428,
				"y": 2.8606781723,
				"z": -1.2900991953,
				"element": "H" 
			},
			{
				"x": -1.5507425314,
				"y": 3.1861735045,
				"z": -2.718467995,
				"element": "H" 
			},
			{
				"x": -1.3925456795,
				"y": 2.3481700199,
				"z": -1.1752980581,
				"element": "H" 
			},
			{
				"x": -1.6974858707,
				"y": 0.6467925143,
				"z": -2.953185174,
				"element": "H" 
			},
			{
				"x": -0.4564329709,
				"y": 1.3983530283,
				"z": -3.9234612312,
				"element": "H" 
			},
			{
				"x": 1.2989624562,
				"y": -1.6177293465,
				"z": -3.1827848637,
				"element": "H" 
			},
			{
				"x": 0.9221931172,
				"y": -0.3773953906,
				"z": -4.3848243124,
				"element": "H" 
			},
			{
				"x": -0.3704576487,
				"y": -1.3661710831,
				"z": -3.6903182829,
				"element": "H" 
			},
			{
				"x": -0.2802788739,
				"y": -1.6171927533,
				"z": -1.3669403178,
				"element": "H" 
			},
			{
				"x": -2.1513374122,
				"y": 0.0419843386,
				"z": -0.9415703987,
				"element": "H" 
			},
			{
				"x": -1.129763808,
				"y": 0.7864027129,
				"z": 0.2796751417,
				"element": "H" 
			},
			{
				"x": -2.0521067918,
				"y": -2.1250072237,
				"z": 0.1462569926,
				"element": "H" 
			},
			{
				"x": -2.6275084986,
				"y": -0.9265056172,
				"z": 1.2906472449,
				"element": "H" 
			}
		],
		 "valence_orbital": [ 
			{
				"type": "occ",
				"energy": -0.3032,
				"method": "rhf"
			},
			{
				"type": "occ",
				"energy": -0.29441,
				"method": "rhf"
			},
			{
				"type": "occ",
				"energy": -0.27748,
				"method": "rhf"
			},
			{
				"type": "occ",
				"energy": -0.27366,
				"method": "rhf"
			},
			{
				"type": "occ",
				"energy": -0.2302,
				"method": "rhf"
			},
			{
				"type": "unocc",
				"energy": -0.00793,
				"method": "rhf"
			},
			{
				"type": "unocc",
				"energy": 0.06781,
				"method": "rhf"
			},
			{
				"type": "unocc",
				"energy": 0.0695,
				"method": "rhf"
			},
			{
				"type": "unocc",
				"energy": 0.07913,
				"method": "rhf"
			},
			{
				"type": "unocc",
				"energy": 0.08633,
				"method": "rhf"
			}
		],
		"cosmo_sigma_profile": { 
			"-0.025": 0.0,
			"-0.024": 0.0,
			"-0.023": 0.0,
			"-0.022": 0.0,
			"-0.021": 0.0,
			"-0.02": 0.0,
			"-0.019": 0.0,
			"-0.018": 0.0,
			"-0.017": 0.0,
			"-0.016": 0.0,
			"-0.015": 0.0,
			"-0.014": 0.0,
			"-0.013": 0.0,
			"-0.012": 0.0,
			"-0.011": 0.0,
			"-0.01": 0.0,
			"-0.009": 0.0,
			"-0.008": 0.0,
			"-0.007": 0.0,
			"-0.006": 0.209339848685,
			"-0.005": 4.25864015777,
			"-0.004": 12.9786287419,
			"-0.003": 28.2437389531,
			"-0.002": 53.1491868432,
			"-0.001": 69.5686001111,
			"0.0": 57.765429417,
			"0.001": 42.0084671011,
			"0.002": 26.1711545459,
			"0.003": 3.70059071017,
			"0.004": 1.21682652055,
			"0.005": 1.2562324741,
			"0.006": 1.71257440005,
			"0.007": 1.57664049951,
			"0.008": 0.993426599197,
			"0.009": 1.94068983,
			"0.01": 2.15717008125,
			"0.011": 2.03670052908,
			"0.012": 4.63588308858,
			"0.013": 3.7915786983,
			"0.014": 1.49851990738,
			"0.015": 0.0,
			"0.016": 0.0,
			"0.017": 0.0,
			"0.018": 0.0,
			"0.019": 0.0,
			"0.02": 0.0,
			"0.021": 0.0,
			"0.022": 0.0,
			"0.023": 0.0,
			"0.024": 0.0,
			"0.025": 0.0
		}
	}
}
