{
	 "smiles": "COC(=C/C(O)=O)C(=O)C(C)=C", 
	 "Tm": 356.15, 
	 "num_atms": 22, 
	 "gaussian": { 
		 "optdone": 1, 
		 "sigma_profile": "yes", 
		 "theory": "DFT", 
		 "functional": "B3LYP", 
		 "basiset": "6-31G**", 
		 "properties": { 
			 "R2extent": 2610.9255, 
			 "electric_dipole_moment_norm": 4.69400291649, 
			 "electric_quadrupole_moment_norm": 8.73343578725, 
			 "total_energy": -611.72112881, 
			 "HOMO_LUMO_gap": 0.17353, 
			 "cosmo_polarized_energy": -14.38, 
			 "cosmo_cavitation_energy": 27.19, 
			 "cosmo_dispersion_energy": -18.54, 
			 "cosmo_repulsion_energy": 1.52, 
			 "cosmo_total_nonelectrostatic_energy": 10.17, 
			 "SMD_solvation_energy": 8.38 
		},
		"coords": [
			{
				"x": -2.5904222548,
				"y": -1.6388234819,
				"z": -0.5324316395,
				"element": "C" 
			},
			{
				"x": -1.6608667386,
				"y": -0.7998491033,
				"z": 0.1672408122,
				"element": "O" 
			},
			{
				"x": -0.6079063854,
				"y": -0.3327273887,
				"z": -0.5507700173,
				"element": "C" 
			},
			{
				"x": -0.2284494365,
				"y": 0.9614881534,
				"z": -0.539104834,
				"element": "C" 
			},
			{
				"x": -0.8646071331,
				"y": 2.110935005,
				"z": 0.1300406807,
				"element": "C" 
			},
			{
				"x": -2.0146738412,
				"y": 1.837967246,
				"z": 0.7916631102,
				"element": "O" 
			},
			{
				"x": -0.3973903912,
				"y": 3.2342842232,
				"z": 0.083498333,
				"element": "O" 
			},
			{
				"x": 0.2493320239,
				"y": -1.3268084733,
				"z": -1.3202285255,
				"element": "C" 
			},
			{
				"x": 0.6758415315,
				"y": -1.0210640469,
				"z": -2.423066584,
				"element": "O" 
			},
			{
				"x": 0.5764634857,
				"y": -2.6507717163,
				"z": -0.6775855498,
				"element": "C" 
			},
			{
				"x": 0.5807754427,
				"y": -2.7772176219,
				"z": 0.8274073532,
				"element": "C" 
			},
			{
				"x": 0.9026966089,
				"y": -3.6577122176,
				"z": -1.500494546,
				"element": "C" 
			},
			{
				"x": -3.3239456502,
				"y": -1.9557338128,
				"z": 0.209468125,
				"element": "H" 
			},
			{
				"x": -3.0921840682,
				"y": -1.073185514,
				"z": -1.3247981946,
				"element": "H" 
			},
			{
				"x": -2.1028876034,
				"y": -2.5206427957,
				"z": -0.9630647664,
				"element": "H" 
			},
			{
				"x": 0.666637256,
				"y": 1.2207683875,
				"z": -1.0906697783,
				"element": "H" 
			},
			{
				"x": -2.2990698134,
				"y": 2.6923158414,
				"z": 1.1581681691,
				"element": "H" 
			},
			{
				"x": 0.910722015,
				"y": -3.7753376139,
				"z": 1.1259350406,
				"element": "H" 
			},
			{
				"x": 1.2653466307,
				"y": -2.0472719064,
				"z": 1.2758571885,
				"element": "H" 
			},
			{
				"x": -0.4041446573,
				"y": -2.5873189324,
				"z": 1.2615839262,
				"element": "H" 
			},
			{
				"x": 1.1696183291,
				"y": -4.6391924763,
				"z": -1.1196728072,
				"element": "H" 
			},
			{
				"x": 0.9139146499,
				"y": -3.5102017551,
				"z": -2.5753754963,
				"element": "H" 
			}
		],
		 "valence_orbital": [ 
			{
				"type": "occ",
				"energy": -0.31274,
				"method": "rhf"
			},
			{
				"type": "occ",
				"energy": -0.27861,
				"method": "rhf"
			},
			{
				"type": "occ",
				"energy": -0.27374,
				"method": "rhf"
			},
			{
				"type": "occ",
				"energy": -0.25993,
				"method": "rhf"
			},
			{
				"type": "occ",
				"energy": -0.25623,
				"method": "rhf"
			},
			{
				"type": "unocc",
				"energy": -0.0827,
				"method": "rhf"
			},
			{
				"type": "unocc",
				"energy": -0.03309,
				"method": "rhf"
			},
			{
				"type": "unocc",
				"energy": 0.04584,
				"method": "rhf"
			},
			{
				"type": "unocc",
				"energy": 0.0812,
				"method": "rhf"
			},
			{
				"type": "unocc",
				"energy": 0.09017,
				"method": "rhf"
			}
		],
		"cosmo_sigma_profile": { 
			"-0.025": 0.0,
			"-0.024": 0.0,
			"-0.023": 0.0,
			"-0.022": 0.0,
			"-0.021": 0.0,
			"-0.02": 0.0,
			"-0.019": 0.0,
			"-0.018": 0.649499301566,
			"-0.017": 0.781117912795,
			"-0.016": 1.01251731161,
			"-0.015": 0.961302938046,
			"-0.014": 0.208359459501,
			"-0.013": 0.337216972406,
			"-0.012": 0.559402313605,
			"-0.011": 1.02673641158,
			"-0.01": 1.15166721385,
			"-0.009": 0.703430949103,
			"-0.008": 0.375849143823,
			"-0.007": 4.28473351773,
			"-0.006": 12.5336615526,
			"-0.005": 20.2469077493,
			"-0.004": 19.8851878699,
			"-0.003": 18.6958320295,
			"-0.002": 18.2416018032,
			"-0.001": 19.1671619937,
			"0.0": 16.9358596887,
			"0.001": 9.95456157515,
			"0.002": 8.1565462644,
			"0.003": 6.60663321186,
			"0.004": 5.71787845837,
			"0.005": 5.21216090247,
			"0.006": 4.16654760977,
			"0.007": 4.18043653363,
			"0.008": 4.81848097258,
			"0.009": 5.92089292841,
			"0.01": 6.08270604405,
			"0.011": 7.9597925914,
			"0.012": 7.45691005871,
			"0.013": 1.60389450964,
			"0.014": 0.0,
			"0.015": 0.0,
			"0.016": 0.0,
			"0.017": 0.0,
			"0.018": 0.0,
			"0.019": 0.0,
			"0.02": 0.0,
			"0.021": 0.0,
			"0.022": 0.0,
			"0.023": 0.0,
			"0.024": 0.0,
			"0.025": 0.0
		}
	}
}
