{
	 "smiles": "CC1=CC(=O)NC(=N1)C1=CC(Cl)=NC=C1", 
	 "Tm": 543.15, 
	 "num_atms": 23, 
	 "gaussian": { 
		 "optdone": 1, 
		 "sigma_profile": "yes", 
		 "theory": "DFT", 
		 "functional": "B3LYP", 
		 "basiset": "6-31G**", 
		 "properties": { 
			 "R2extent": 4995.7791, 
			 "electric_dipole_moment_norm": 0.854964151295, 
			 "electric_quadrupole_moment_norm": 25.1991398504, 
			 "total_energy": -1085.57505166, 
			 "HOMO_LUMO_gap": 0.15819, 
			 "cosmo_polarized_energy": -16.4, 
			 "cosmo_cavitation_energy": 30.02, 
			 "cosmo_dispersion_energy": -22.24, 
			 "cosmo_repulsion_energy": 1.74, 
			 "cosmo_total_nonelectrostatic_energy": 9.53, 
			 "SMD_solvation_energy": 3.19 
		},
		"coords": [
			{
				"x": -2.4988839981,
				"y": -0.1352791439,
				"z": -2.9632330111,
				"element": "C" 
			},
			{
				"x": -2.3923287056,
				"y": -0.2651721755,
				"z": -1.4699914184,
				"element": "C" 
			},
			{
				"x": -3.2692847584,
				"y": -1.0120943498,
				"z": -0.7316193936,
				"element": "C" 
			},
			{
				"x": -3.1453869964,
				"y": -1.1001972901,
				"z": 0.7071811588,
				"element": "C" 
			},
			{
				"x": -3.8575426139,
				"y": -1.7054920489,
				"z": 1.4946801855,
				"element": "O" 
			},
			{
				"x": -2.0369372458,
				"y": -0.3534446838,
				"z": 1.1868108108,
				"element": "N" 
			},
			{
				"x": -1.1897289487,
				"y": 0.3567842841,
				"z": 0.3895907951,
				"element": "C" 
			},
			{
				"x": -1.3374787928,
				"y": 0.424301546,
				"z": -0.9058803007,
				"element": "N" 
			},
			{
				"x": -0.0573196084,
				"y": 1.080396167,
				"z": 1.0266863156,
				"element": "C" 
			},
			{
				"x": 0.5854995133,
				"y": 2.0909992612,
				"z": 0.3051069952,
				"element": "C" 
			},
			{
				"x": 1.6413485243,
				"y": 2.7587985691,
				"z": 0.9249357678,
				"element": "C" 
			},
			{
				"x": 2.454991964,
				"y": 4.040772192,
				"z": 0.0379448454,
				"element": "Cl" 
			},
			{
				"x": 2.088073603,
				"y": 2.5064693182,
				"z": 2.1444308081,
				"element": "N" 
			},
			{
				"x": 1.4747678358,
				"y": 1.5283358036,
				"z": 2.8235202937,
				"element": "C" 
			},
			{
				"x": 0.4073552552,
				"y": 0.7907022429,
				"z": 2.318296124,
				"element": "C" 
			},
			{
				"x": -3.3475647944,
				"y": -0.6958246054,
				"z": -3.3601995504,
				"element": "H" 
			},
			{
				"x": -2.6062691531,
				"y": 0.91883049,
				"z": -3.2404814625,
				"element": "H" 
			},
			{
				"x": -1.5795014701,
				"y": -0.4955585835,
				"z": -3.4368313457,
				"element": "H" 
			},
			{
				"x": -4.090019408,
				"y": -1.5501910895,
				"z": -1.1902284803,
				"element": "H" 
			},
			{
				"x": -1.9395914361,
				"y": -0.3489768174,
				"z": 2.194750717,
				"element": "H" 
			},
			{
				"x": 0.2632943697,
				"y": 2.3329873023,
				"z": -0.6988791763,
				"element": "H" 
			},
			{
				"x": 1.8620220269,
				"y": 1.324982697,
				"z": 3.8190415972,
				"element": "H" 
			},
			{
				"x": -0.0146151626,
				"y": -0.0067290855,
				"z": 2.9209677247,
				"element": "H" 
			}
		],
		 "valence_orbital": [ 
			{
				"type": "occ",
				"energy": -0.29531,
				"method": "rhf"
			},
			{
				"type": "occ",
				"energy": -0.29001,
				"method": "rhf"
			},
			{
				"type": "occ",
				"energy": -0.27457,
				"method": "rhf"
			},
			{
				"type": "occ",
				"energy": -0.26652,
				"method": "rhf"
			},
			{
				"type": "occ",
				"energy": -0.2468,
				"method": "rhf"
			},
			{
				"type": "unocc",
				"energy": -0.08861,
				"method": "rhf"
			},
			{
				"type": "unocc",
				"energy": -0.04241,
				"method": "rhf"
			},
			{
				"type": "unocc",
				"energy": -0.0286,
				"method": "rhf"
			},
			{
				"type": "unocc",
				"energy": 0.00776,
				"method": "rhf"
			},
			{
				"type": "unocc",
				"energy": 0.02713,
				"method": "rhf"
			}
		],
		"cosmo_sigma_profile": { 
			"-0.025": 0.0,
			"-0.024": 0.0,
			"-0.023": 0.0,
			"-0.022": 0.0,
			"-0.021": 0.0,
			"-0.02": 0.0,
			"-0.019": 0.0,
			"-0.018": 0.00833407051244,
			"-0.017": 0.701067320261,
			"-0.016": 1.10107365668,
			"-0.015": 1.34719982125,
			"-0.014": 0.910035747071,
			"-0.013": 1.61340062821,
			"-0.012": 1.08116152106,
			"-0.011": 1.09711222579,
			"-0.01": 1.79785402183,
			"-0.009": 1.73825326499,
			"-0.008": 4.23109625219,
			"-0.007": 7.39876664466,
			"-0.006": 8.89426089594,
			"-0.005": 12.0658565693,
			"-0.004": 13.5429452069,
			"-0.003": 16.8923621303,
			"-0.002": 22.0791952062,
			"-0.001": 30.3330992828,
			"0.0": 24.3214387977,
			"0.001": 14.7758454716,
			"0.002": 11.8743475646,
			"0.003": 10.1927240982,
			"0.004": 13.5705367535,
			"0.005": 6.93777348945,
			"0.006": 4.96620970472,
			"0.007": 3.88786807225,
			"0.008": 2.27762744045,
			"0.009": 3.58596830733,
			"0.01": 4.17277879285,
			"0.011": 2.00155564665,
			"0.012": 3.26140365574,
			"0.013": 6.65818107206,
			"0.014": 4.112292354,
			"0.015": 0.40262425793,
			"0.016": 0.0,
			"0.017": 0.0,
			"0.018": 0.0,
			"0.019": 0.0,
			"0.02": 0.0,
			"0.021": 0.0,
			"0.022": 0.0,
			"0.023": 0.0,
			"0.024": 0.0,
			"0.025": 0.0
		}
	}
}
