{
	 "smiles": "CC1CCCC1", 
	 "Tm": 131.15, 
	 "num_atms": 18, 
	 "gaussian": { 
		 "optdone": 1, 
		 "sigma_profile": "yes", 
		 "theory": "DFT", 
		 "functional": "B3LYP", 
		 "basiset": "6-31G**", 
		 "properties": { 
			 "R2extent": 810.5127, 
			 "electric_dipole_moment_norm": 0.0672515427332, 
			 "electric_quadrupole_moment_norm": 0.862489599937, 
			 "total_energy": -235.885071305, 
			 "HOMO_LUMO_gap": 0.38884, 
			 "cosmo_polarized_energy": -0.47, 
			 "cosmo_cavitation_energy": 18.62, 
			 "cosmo_dispersion_energy": -14.23, 
			 "cosmo_repulsion_energy": 1.23, 
			 "cosmo_total_nonelectrostatic_energy": 5.63, 
			 "SMD_solvation_energy": 2.71 
		},
		"coords": [
			{
				"x": 2.5352455876,
				"y": -0.2099593974,
				"z": 1.3007708541,
				"element": "C" 
			},
			{
				"x": 1.351499859,
				"y": -0.0901495379,
				"z": 0.3414465259,
				"element": "C" 
			},
			{
				"x": 1.5935423753,
				"y": 0.8291964606,
				"z": -0.870901426,
				"element": "C" 
			},
			{
				"x": 0.1844213635,
				"y": 1.1088855966,
				"z": -1.442631977,
				"element": "C" 
			},
			{
				"x": -0.8022682406,
				"y": 0.9069282058,
				"z": -0.250233939,
				"element": "C" 
			},
			{
				"x": 0.0786252257,
				"y": 0.5188130365,
				"z": 0.9597977781,
				"element": "C" 
			},
			{
				"x": 2.2979537908,
				"y": -0.8579925448,
				"z": 2.1518767276,
				"element": "H" 
			},
			{
				"x": 2.8150222567,
				"y": 0.7730732096,
				"z": 1.6990596873,
				"element": "H" 
			},
			{
				"x": 3.4158622163,
				"y": -0.6288644839,
				"z": 0.8010989775,
				"element": "H" 
			},
			{
				"x": 1.1010022307,
				"y": -1.0937557031,
				"z": -0.0359763644,
				"element": "H" 
			},
			{
				"x": 2.2758390842,
				"y": 0.3939404291,
				"z": -1.6090947811,
				"element": "H" 
			},
			{
				"x": 2.053649974,
				"y": 1.7634329316,
				"z": -0.5204927079,
				"element": "H" 
			},
			{
				"x": -0.0464115535,
				"y": 0.4043932213,
				"z": -2.2490120494,
				"element": "H" 
			},
			{
				"x": 0.1125427749,
				"y": 2.111576485,
				"z": -1.8753055829,
				"element": "H" 
			},
			{
				"x": -1.5123989826,
				"y": 0.1045379166,
				"z": -0.4776887201,
				"element": "H" 
			},
			{
				"x": -1.3984561548,
				"y": 1.8023461146,
				"z": -0.0488859808,
				"element": "H" 
			},
			{
				"x": 0.3563978597,
				"y": 1.4156793173,
				"z": 1.530541805,
				"element": "H" 
			},
			{
				"x": -0.4261696669,
				"y": -0.1596812573,
				"z": 1.6560311731,
				"element": "H" 
			}
		],
		 "valence_orbital": [ 
			{
				"type": "occ",
				"energy": -0.32674,
				"method": "rhf"
			},
			{
				"type": "occ",
				"energy": -0.32291,
				"method": "rhf"
			},
			{
				"type": "occ",
				"energy": -0.30917,
				"method": "rhf"
			},
			{
				"type": "occ",
				"energy": -0.30915,
				"method": "rhf"
			},
			{
				"type": "occ",
				"energy": -0.3047,
				"method": "rhf"
			},
			{
				"type": "unocc",
				"energy": 0.08414,
				"method": "rhf"
			},
			{
				"type": "unocc",
				"energy": 0.10436,
				"method": "rhf"
			},
			{
				"type": "unocc",
				"energy": 0.11755,
				"method": "rhf"
			},
			{
				"type": "unocc",
				"energy": 0.14745,
				"method": "rhf"
			},
			{
				"type": "unocc",
				"energy": 0.15459,
				"method": "rhf"
			}
		],
		"cosmo_sigma_profile": { 
			"-0.025": 0.0,
			"-0.024": 0.0,
			"-0.023": 0.0,
			"-0.022": 0.0,
			"-0.021": 0.0,
			"-0.02": 0.0,
			"-0.019": 0.0,
			"-0.018": 0.0,
			"-0.017": 0.0,
			"-0.016": 0.0,
			"-0.015": 0.0,
			"-0.014": 0.0,
			"-0.013": 0.0,
			"-0.012": 0.0,
			"-0.011": 0.0,
			"-0.01": 0.0,
			"-0.009": 0.0,
			"-0.008": 0.0,
			"-0.007": 0.0,
			"-0.006": 0.0,
			"-0.005": 0.0,
			"-0.004": 0.0,
			"-0.003": 2.15097050463,
			"-0.002": 19.2331374716,
			"-0.001": 30.3209323825,
			"0.0": 38.8937137807,
			"0.001": 29.1695283498,
			"0.002": 21.4732867839,
			"0.003": 1.59538327484,
			"0.004": 0.0,
			"0.005": 0.0,
			"0.006": 0.0,
			"0.007": 0.0,
			"0.008": 0.0,
			"0.009": 0.0,
			"0.01": 0.0,
			"0.011": 0.0,
			"0.012": 0.0,
			"0.013": 0.0,
			"0.014": 0.0,
			"0.015": 0.0,
			"0.016": 0.0,
			"0.017": 0.0,
			"0.018": 0.0,
			"0.019": 0.0,
			"0.02": 0.0,
			"0.021": 0.0,
			"0.022": 0.0,
			"0.023": 0.0,
			"0.024": 0.0,
			"0.025": 0.0
		}
	}
}
