{
	 "smiles": "CCCCC1=C(C)N=C(NC(=O)NS(=O)(=O)C2=CC=CS2)N=C1O", 
	 "Tm": 473.15, 
	 "num_atms": 42, 
	 "gaussian": { 
		 "optdone": 1, 
		 "sigma_profile": "yes", 
		 "theory": "DFT", 
		 "functional": "B3LYP", 
		 "basiset": "6-31G**", 
		 "properties": { 
			 "R2extent": 12925.4612, 
			 "electric_dipole_moment_norm": 9.31506065412, 
			 "electric_quadrupole_moment_norm": 48.2523045812, 
			 "total_energy": -1860.58268428, 
			 "HOMO_LUMO_gap": 0.18204, 
			 "cosmo_polarized_energy": -26.43, 
			 "cosmo_cavitation_energy": 49.11, 
			 "cosmo_dispersion_energy": -34.07, 
			 "cosmo_repulsion_energy": 2.52, 
			 "cosmo_total_nonelectrostatic_energy": 17.56, 
			 "SMD_solvation_energy": 6.48 
		},
		"coords": [
			{
				"x": -0.2612904035,
				"y": 2.0607960346,
				"z": -4.9590733117,
				"element": "C" 
			},
			{
				"x": -1.0796481512,
				"y": 1.1215056914,
				"z": -4.0669347502,
				"element": "C" 
			},
			{
				"x": -1.4273028277,
				"y": 1.7438801901,
				"z": -2.7092417534,
				"element": "C" 
			},
			{
				"x": -2.243545781,
				"y": 0.8282774971,
				"z": -1.7679319951,
				"element": "C" 
			},
			{
				"x": -1.507978217,
				"y": -0.4036756,
				"z": -1.2889470128,
				"element": "C" 
			},
			{
				"x": -1.7478151099,
				"y": -1.7141951944,
				"z": -1.7351929618,
				"element": "C" 
			},
			{
				"x": -2.8089228298,
				"y": -2.0311801163,
				"z": -2.7587559849,
				"element": "C" 
			},
			{
				"x": -1.0578997634,
				"y": -2.7751866908,
				"z": -1.2758176427,
				"element": "N" 
			},
			{
				"x": -0.1229747377,
				"y": -2.5388157738,
				"z": -0.3549268247,
				"element": "C" 
			},
			{
				"x": 0.5723976196,
				"y": -3.658411657,
				"z": 0.0748883566,
				"element": "N" 
			},
			{
				"x": 1.6330255369,
				"y": -3.8276258658,
				"z": 0.9804621729,
				"element": "C" 
			},
			{
				"x": 2.1896597654,
				"y": -4.90042552,
				"z": 1.0875751976,
				"element": "O" 
			},
			{
				"x": 1.9232147091,
				"y": -2.6923187376,
				"z": 1.726299673,
				"element": "N" 
			},
			{
				"x": 3.3880930726,
				"y": -2.531343972,
				"z": 2.5899856681,
				"element": "S" 
			},
			{
				"x": 4.4978502765,
				"y": -2.3832809478,
				"z": 1.6505291321,
				"element": "O" 
			},
			{
				"x": 3.4211383887,
				"y": -3.5097572665,
				"z": 3.6686475369,
				"element": "O" 
			},
			{
				"x": 3.0555969317,
				"y": -0.9407943015,
				"z": 3.3091105891,
				"element": "C" 
			},
			{
				"x": 2.6425151735,
				"y": -0.7316229568,
				"z": 4.5983674052,
				"element": "C" 
			},
			{
				"x": 2.4880626007,
				"y": 0.653552974,
				"z": 4.8968863035,
				"element": "C" 
			},
			{
				"x": 2.7864998818,
				"y": 1.4597432483,
				"z": 3.8310698704,
				"element": "C" 
			},
			{
				"x": 3.2869759945,
				"y": 0.5538059889,
				"z": 2.4397377732,
				"element": "S" 
			},
			{
				"x": 0.1846529248,
				"y": -1.3388687203,
				"z": 0.1621443877,
				"element": "N" 
			},
			{
				"x": -0.5046320844,
				"y": -0.3000784293,
				"z": -0.3121437834,
				"element": "C" 
			},
			{
				"x": -0.2101552936,
				"y": 0.9121556932,
				"z": 0.1931634847,
				"element": "O" 
			},
			{
				"x": -0.8051644512,
				"y": 2.9906976459,
				"z": -5.1606177775,
				"element": "H" 
			},
			{
				"x": -0.0291718756,
				"y": 1.5957606077,
				"z": -5.9224990142,
				"element": "H" 
			},
			{
				"x": 0.6880272818,
				"y": 2.330449299,
				"z": -4.4826909426,
				"element": "H" 
			},
			{
				"x": -2.0069670221,
				"y": 0.842551936,
				"z": -4.5866848623,
				"element": "H" 
			},
			{
				"x": -0.520351669,
				"y": 0.1897291504,
				"z": -3.9116907187,
				"element": "H" 
			},
			{
				"x": -0.5064748928,
				"y": 2.0490646701,
				"z": -2.1978476541,
				"element": "H" 
			},
			{
				"x": -2.0057447717,
				"y": 2.6628361458,
				"z": -2.872928306,
				"element": "H" 
			},
			{
				"x": -2.5396125862,
				"y": 1.4163566476,
				"z": -0.8915068819,
				"element": "H" 
			},
			{
				"x": -3.1703410226,
				"y": 0.5304812857,
				"z": -2.268306493,
				"element": "H" 
			},
			{
				"x": -3.8035307412,
				"y": -1.7465385512,
				"z": -2.3978897228,
				"element": "H" 
			},
			{
				"x": -2.8029181123,
				"y": -3.102363505,
				"z": -2.9612468626,
				"element": "H" 
			},
			{
				"x": -2.6363385377,
				"y": -1.4901395757,
				"z": -3.6941371891,
				"element": "H" 
			},
			{
				"x": 0.3215738226,
				"y": -4.5137886518,
				"z": -0.4038513541,
				"element": "H" 
			},
			{
				"x": 1.4827234673,
				"y": -1.8229137787,
				"z": 1.3999862158,
				"element": "H" 
			},
			{
				"x": 2.4664838566,
				"y": -1.5451454265,
				"z": 5.2914672885,
				"element": "H" 
			},
			{
				"x": 2.1729698637,
				"y": 1.0323098373,
				"z": 5.8620225878,
				"element": "H" 
			},
			{
				"x": 2.7639458349,
				"y": 2.5403738985,
				"z": 3.7835754826,
				"element": "H" 
			},
			{
				"x": 0.5059738786,
				"y": 0.7962427972,
				"z": 0.8389446742,
				"element": "H" 
			}
		],
		 "valence_orbital": [ 
			{
				"type": "occ",
				"energy": -0.2822,
				"method": "rhf"
			},
			{
				"type": "occ",
				"energy": -0.27722,
				"method": "rhf"
			},
			{
				"type": "occ",
				"energy": -0.27432,
				"method": "rhf"
			},
			{
				"type": "occ",
				"energy": -0.26869,
				"method": "rhf"
			},
			{
				"type": "occ",
				"energy": -0.2429,
				"method": "rhf"
			},
			{
				"type": "unocc",
				"energy": -0.06086,
				"method": "rhf"
			},
			{
				"type": "unocc",
				"energy": -0.04298,
				"method": "rhf"
			},
			{
				"type": "unocc",
				"energy": -0.02723,
				"method": "rhf"
			},
			{
				"type": "unocc",
				"energy": -0.00181,
				"method": "rhf"
			},
			{
				"type": "unocc",
				"energy": 0.02633,
				"method": "rhf"
			}
		],
		"cosmo_sigma_profile": { 
			"-0.025": 0.0,
			"-0.024": 0.0,
			"-0.023": 0.0,
			"-0.022": 0.0,
			"-0.021": 0.0,
			"-0.02": 0.0,
			"-0.019": 0.0,
			"-0.018": 0.0,
			"-0.017": 0.0,
			"-0.016": 0.00221428284192,
			"-0.015": 0.395343821791,
			"-0.014": 0.822035732226,
			"-0.013": 0.573222663682,
			"-0.012": 0.94034961096,
			"-0.011": 1.72066969415,
			"-0.01": 5.6218651583,
			"-0.009": 7.58805677886,
			"-0.008": 9.17342624908,
			"-0.007": 8.66461850652,
			"-0.006": 10.8521297857,
			"-0.005": 13.1525495019,
			"-0.004": 19.7065015864,
			"-0.003": 27.4525690884,
			"-0.002": 43.2709743076,
			"-0.001": 52.9924952282,
			"0.0": 45.496131864,
			"0.001": 34.5822447102,
			"0.002": 21.6475836201,
			"0.003": 11.6425972368,
			"0.004": 6.6917340893,
			"0.005": 7.01546771282,
			"0.006": 7.438994054,
			"0.007": 8.16683739644,
			"0.008": 6.37894599631,
			"0.009": 11.0704712165,
			"0.01": 12.815810225,
			"0.011": 8.69569765371,
			"0.012": 6.65563501958,
			"0.013": 0.649120370698,
			"0.014": 0.0,
			"0.015": 0.0,
			"0.016": 0.0,
			"0.017": 0.0,
			"0.018": 0.0,
			"0.019": 0.0,
			"0.02": 0.0,
			"0.021": 0.0,
			"0.022": 0.0,
			"0.023": 0.0,
			"0.024": 0.0,
			"0.025": 0.0
		}
	}
}
