{
	 "smiles": "N#CC1=CC=C(CN2CCNCC2)C=C1", 
	 "Tm": 488.15, 
	 "num_atms": 30, 
	 "gaussian": { 
		 "optdone": 1, 
		 "sigma_profile": "yes", 
		 "theory": "DFT", 
		 "functional": "B3LYP", 
		 "basiset": "6-31G**", 
		 "properties": { 
			 "R2extent": 4926.2171, 
			 "electric_dipole_moment_norm": 4.93017257304, 
			 "electric_quadrupole_moment_norm": 34.5551446838, 
			 "total_energy": -630.534793492, 
			 "HOMO_LUMO_gap": 0.17399, 
			 "cosmo_polarized_energy": -12.09, 
			 "cosmo_cavitation_energy": 32.86, 
			 "cosmo_dispersion_energy": -22.99, 
			 "cosmo_repulsion_energy": 1.8, 
			 "cosmo_total_nonelectrostatic_energy": 11.67, 
			 "SMD_solvation_energy": 2.95 
		},
		"coords": [
			{
				"x": 2.8114640121,
				"y": 6.0637511589,
				"z": -0.0505222945,
				"element": "N" 
			},
			{
				"x": 2.0974802422,
				"y": 5.1470296911,
				"z": -0.110465586,
				"element": "C" 
			},
			{
				"x": 1.2173135369,
				"y": 4.0174405703,
				"z": -0.184002594,
				"element": "C" 
			},
			{
				"x": 0.6986963252,
				"y": 3.6060031899,
				"z": -1.4222749712,
				"element": "C" 
			},
			{
				"x": -0.1511887863,
				"y": 2.5050434874,
				"z": -1.4842683042,
				"element": "C" 
			},
			{
				"x": -0.506249036,
				"y": 1.800923285,
				"z": -0.3270862848,
				"element": "C" 
			},
			{
				"x": -1.4822054053,
				"y": 0.6404490023,
				"z": -0.3962676381,
				"element": "C" 
			},
			{
				"x": -1.1407189865,
				"y": -0.4575713151,
				"z": 0.4982324709,
				"element": "N" 
			},
			{
				"x": 0.0513606109,
				"y": -1.2014306023,
				"z": 0.086517838,
				"element": "C" 
			},
			{
				"x": 0.5217123164,
				"y": -2.0915325939,
				"z": 1.2697336374,
				"element": "C" 
			},
			{
				"x": -0.5585769943,
				"y": -2.433193244,
				"z": 2.2043799083,
				"element": "N" 
			},
			{
				"x": -1.8116451468,
				"y": -2.6329464904,
				"z": 1.4809809076,
				"element": "C" 
			},
			{
				"x": -2.2727315343,
				"y": -1.3718457349,
				"z": 0.6947264912,
				"element": "C" 
			},
			{
				"x": 0.0184849262,
				"y": 2.2180754137,
				"z": 0.904767214,
				"element": "C" 
			},
			{
				"x": 0.8723735427,
				"y": 3.312302748,
				"z": 0.9827086224,
				"element": "C" 
			},
			{
				"x": 0.9699100653,
				"y": 4.1453294783,
				"z": -2.3237551858,
				"element": "H" 
			},
			{
				"x": -0.5434099524,
				"y": 2.1870939786,
				"z": -2.446725105,
				"element": "H" 
			},
			{
				"x": -1.584492544,
				"y": 0.3099978756,
				"z": -1.44824842,
				"element": "H" 
			},
			{
				"x": -2.4752993162,
				"y": 1.0054104411,
				"z": -0.0982044198,
				"element": "H" 
			},
			{
				"x": 0.8363543136,
				"y": -0.4923373206,
				"z": -0.1917789966,
				"element": "H" 
			},
			{
				"x": -0.1541851932,
				"y": -1.8169313436,
				"z": -0.8113154003,
				"element": "H" 
			},
			{
				"x": 1.3066534174,
				"y": -1.5827362018,
				"z": 1.8376945893,
				"element": "H" 
			},
			{
				"x": 0.9599827889,
				"y": -3.0174282102,
				"z": 0.8750288629,
				"element": "H" 
			},
			{
				"x": -0.6833496319,
				"y": -1.6499942365,
				"z": 2.8410098162,
				"element": "H" 
			},
			{
				"x": -1.6628733443,
				"y": -3.4709472055,
				"z": 0.7894305246,
				"element": "H" 
			},
			{
				"x": -2.591986159,
				"y": -2.9429267238,
				"z": 2.1833113561,
				"element": "H" 
			},
			{
				"x": -3.05032295,
				"y": -0.8303209616,
				"z": 1.2483868071,
				"element": "H" 
			},
			{
				"x": -2.7209139415,
				"y": -1.6811815731,
				"z": -0.270293313,
				"element": "H" 
			},
			{
				"x": -0.2452588749,
				"y": 1.6617135017,
				"z": 1.7981821974,
				"element": "H" 
			},
			{
				"x": 1.275921699,
				"y": 3.6301599356,
				"z": 1.9385172696,
				"element": "H" 
			}
		],
		 "valence_orbital": [ 
			{
				"type": "occ",
				"energy": -0.32694,
				"method": "rhf"
			},
			{
				"type": "occ",
				"energy": -0.27381,
				"method": "rhf"
			},
			{
				"type": "occ",
				"energy": -0.25884,
				"method": "rhf"
			},
			{
				"type": "occ",
				"energy": -0.22847,
				"method": "rhf"
			},
			{
				"type": "occ",
				"energy": -0.22403,
				"method": "rhf"
			},
			{
				"type": "unocc",
				"energy": -0.05004,
				"method": "rhf"
			},
			{
				"type": "unocc",
				"energy": -0.02347,
				"method": "rhf"
			},
			{
				"type": "unocc",
				"energy": 0.03931,
				"method": "rhf"
			},
			{
				"type": "unocc",
				"energy": 0.0639,
				"method": "rhf"
			},
			{
				"type": "unocc",
				"energy": 0.07519,
				"method": "rhf"
			}
		],
		"cosmo_sigma_profile": { 
			"-0.025": 0.0,
			"-0.024": 0.0,
			"-0.023": 0.0,
			"-0.022": 0.0,
			"-0.021": 0.0,
			"-0.02": 0.0,
			"-0.019": 0.0,
			"-0.018": 0.0,
			"-0.017": 0.0,
			"-0.016": 0.0,
			"-0.015": 0.0,
			"-0.014": 0.0,
			"-0.013": 0.0,
			"-0.012": 0.0,
			"-0.011": 0.0,
			"-0.01": 0.0,
			"-0.009": 0.668233765462,
			"-0.008": 2.96106107915,
			"-0.007": 5.50735670006,
			"-0.006": 9.12866839583,
			"-0.005": 13.3547635792,
			"-0.004": 17.9943753255,
			"-0.003": 28.72621092,
			"-0.002": 37.4119270714,
			"-0.001": 36.1589470233,
			"0.0": 21.6223132177,
			"0.001": 13.8488069161,
			"0.002": 15.422550829,
			"0.003": 13.258970729,
			"0.004": 5.19480003991,
			"0.005": 4.38970695273,
			"0.006": 3.98784995869,
			"0.007": 4.12406565883,
			"0.008": 4.40919434443,
			"0.009": 4.80913316522,
			"0.01": 3.72194984088,
			"0.011": 3.23209855117,
			"0.012": 3.31019855688,
			"0.013": 2.49585988185,
			"0.014": 0.589353781355,
			"0.015": 0.650565573007,
			"0.016": 0.846962596759,
			"0.017": 0.499651622862,
			"0.018": 0.508707392504,
			"0.019": 0.339791129004,
			"0.02": 0.010356173203,
			"0.021": 0.0,
			"0.022": 0.0,
			"0.023": 0.0,
			"0.024": 0.0,
			"0.025": 0.0
		}
	}
}
