{
	 "smiles": "C(CC1SCCCS1)C1SCCCS1", 
	 "Tm": 406.65, 
	 "num_atms": 32, 
	 "gaussian": { 
		 "optdone": 1, 
		 "sigma_profile": "yes", 
		 "theory": "DFT", 
		 "functional": "B3LYP", 
		 "basiset": "6-31G**", 
		 "properties": { 
			 "R2extent": 5628.3054, 
			 "electric_dipole_moment_norm": 3.02430873093, 
			 "electric_quadrupole_moment_norm": 11.9576265617, 
			 "total_energy": -1984.66206665, 
			 "HOMO_LUMO_gap": 0.23077, 
			 "cosmo_polarized_energy": -11.95, 
			 "cosmo_cavitation_energy": 36.24, 
			 "cosmo_dispersion_energy": -27.41, 
			 "cosmo_repulsion_energy": 1.98, 
			 "cosmo_total_nonelectrostatic_energy": 10.81, 
			 "SMD_solvation_energy": 2.83 
		},
		"coords": [
			{
				"x": 0.9977246869,
				"y": -1.0012965871,
				"z": -0.0521987041,
				"element": "C" 
			},
			{
				"x": 2.1844864308,
				"y": -0.2040275261,
				"z": 0.4953007578,
				"element": "C" 
			},
			{
				"x": 2.7191253941,
				"y": 0.9373385782,
				"z": -0.3899777417,
				"element": "C" 
			},
			{
				"x": 1.5574502482,
				"y": 2.3575047348,
				"z": -0.6135553917,
				"element": "S" 
			},
			{
				"x": 0.6095289863,
				"y": 1.9372982522,
				"z": -2.1318002376,
				"element": "C" 
			},
			{
				"x": 1.4719566012,
				"y": 1.6258459673,
				"z": -3.355216745,
				"element": "C" 
			},
			{
				"x": 2.2758448227,
				"y": 0.3339597384,
				"z": -3.2069707914,
				"element": "C" 
			},
			{
				"x": 3.5927847879,
				"y": 0.3993883551,
				"z": -1.9266635362,
				"element": "S" 
			},
			{
				"x": 0.5608034633,
				"y": -2.1591542387,
				"z": 0.8623180133,
				"element": "C" 
			},
			{
				"x": -0.6702040934,
				"y": -3.2681091624,
				"z": 0.0005193758,
				"element": "S" 
			},
			{
				"x": -2.2375000067,
				"y": -2.8377929945,
				"z": 0.8613891075,
				"element": "C" 
			},
			{
				"x": -2.4323002605,
				"y": -1.332207858,
				"z": 1.0540628769,
				"element": "C" 
			},
			{
				"x": -1.5212724716,
				"y": -0.7069715434,
				"z": 2.1368885367,
				"element": "C" 
			},
			{
				"x": 0.0010546471,
				"y": -1.6670415615,
				"z": 2.5351581963,
				"element": "S" 
			},
			{
				"x": 1.2618434632,
				"y": -1.441769089,
				"z": -1.0200664343,
				"element": "H" 
			},
			{
				"x": 0.1447490085,
				"y": -0.3378623535,
				"z": -0.2276834258,
				"element": "H" 
			},
			{
				"x": 1.9109817509,
				"y": 0.2314075057,
				"z": 1.4630320876,
				"element": "H" 
			},
			{
				"x": 3.0236266512,
				"y": -0.8877776885,
				"z": 0.6824621636,
				"element": "H" 
			},
			{
				"x": 3.5351047288,
				"y": 1.4104842417,
				"z": 0.165862531,
				"element": "H" 
			},
			{
				"x": 0.0078270801,
				"y": 2.8343324832,
				"z": -2.3060692163,
				"element": "H" 
			},
			{
				"x": -0.0822570171,
				"y": 1.1128812308,
				"z": -1.9310713574,
				"element": "H" 
			},
			{
				"x": 0.8054344018,
				"y": 1.5150190196,
				"z": -4.221750603,
				"element": "H" 
			},
			{
				"x": 2.1455942313,
				"y": 2.4642287772,
				"z": -3.5611481994,
				"element": "H" 
			},
			{
				"x": 2.8313826129,
				"y": 0.1213794037,
				"z": -4.1251923097,
				"element": "H" 
			},
			{
				"x": 1.6098711885,
				"y": -0.5154935691,
				"z": -3.0246555796,
				"element": "H" 
			},
			{
				"x": 1.423677345,
				"y": -2.8009828328,
				"z": 1.0655877882,
				"element": "H" 
			},
			{
				"x": -2.2830059099,
				"y": -3.3657143762,
				"z": 1.8177576503,
				"element": "H" 
			},
			{
				"x": -3.0164027723,
				"y": -3.2454278207,
				"z": 0.2107996315,
				"element": "H" 
			},
			{
				"x": -3.4764736584,
				"y": -1.1401988313,
				"z": 1.331918049,
				"element": "H" 
			},
			{
				"x": -2.267581075,
				"y": -0.8333669942,
				"z": 0.093539946,
				"element": "H" 
			},
			{
				"x": -1.2481668684,
				"y": 0.316849532,
				"z": 1.8683930718,
				"element": "H" 
			},
			{
				"x": -2.0404883975,
				"y": -0.662122793,
				"z": 3.0987304901,
				"element": "H" 
			}
		],
		 "valence_orbital": [ 
			{
				"type": "occ",
				"energy": -0.29235,
				"method": "rhf"
			},
			{
				"type": "occ",
				"energy": -0.23244,
				"method": "rhf"
			},
			{
				"type": "occ",
				"energy": -0.2279,
				"method": "rhf"
			},
			{
				"type": "occ",
				"energy": -0.22198,
				"method": "rhf"
			},
			{
				"type": "occ",
				"energy": -0.21972,
				"method": "rhf"
			},
			{
				"type": "unocc",
				"energy": 0.01105,
				"method": "rhf"
			},
			{
				"type": "unocc",
				"energy": 0.01577,
				"method": "rhf"
			},
			{
				"type": "unocc",
				"energy": 0.03837,
				"method": "rhf"
			},
			{
				"type": "unocc",
				"energy": 0.04528,
				"method": "rhf"
			},
			{
				"type": "unocc",
				"energy": 0.05428,
				"method": "rhf"
			}
		],
		"cosmo_sigma_profile": { 
			"-0.025": 0.0,
			"-0.024": 0.0,
			"-0.023": 0.0,
			"-0.022": 0.0,
			"-0.021": 0.0,
			"-0.02": 0.0,
			"-0.019": 0.0,
			"-0.018": 0.0,
			"-0.017": 0.0,
			"-0.016": 0.0,
			"-0.015": 0.0,
			"-0.014": 0.0,
			"-0.013": 0.0,
			"-0.012": 0.0,
			"-0.011": 0.0,
			"-0.01": 0.0,
			"-0.009": 0.0,
			"-0.008": 0.247910918179,
			"-0.007": 3.92345328516,
			"-0.006": 12.9739719692,
			"-0.005": 24.0512995158,
			"-0.004": 37.4624446668,
			"-0.003": 37.1284666358,
			"-0.002": 32.112888965,
			"-0.001": 22.3699130793,
			"0.0": 12.396548827,
			"0.001": 11.6050635435,
			"0.002": 10.5503003377,
			"0.003": 10.0919223859,
			"0.004": 10.0272797466,
			"0.005": 13.1257060014,
			"0.006": 13.9068872266,
			"0.007": 10.8755122969,
			"0.008": 10.2025386376,
			"0.009": 7.96496194964,
			"0.01": 5.67742344788,
			"0.011": 2.76596551404,
			"0.012": 0.148192141031,
			"0.013": 0.0,
			"0.014": 0.0,
			"0.015": 0.0,
			"0.016": 0.0,
			"0.017": 0.0,
			"0.018": 0.0,
			"0.019": 0.0,
			"0.02": 0.0,
			"0.021": 0.0,
			"0.022": 0.0,
			"0.023": 0.0,
			"0.024": 0.0,
			"0.025": 0.0
		}
	}
}
