{
	 "smiles": "CC(C)(C)C1=CC=C(C=C1)C(=O)CCl", 
	 "Tm": 309.15, 
	 "num_atms": 29, 
	 "gaussian": { 
		 "optdone": 1, 
		 "sigma_profile": "yes", 
		 "theory": "DFT", 
		 "functional": "B3LYP", 
		 "basiset": "6-31G**", 
		 "properties": { 
			 "R2extent": 4984.3246, 
			 "electric_dipole_moment_norm": 3.69004756338, 
			 "electric_quadrupole_moment_norm": 10.4053119434, 
			 "total_energy": -1001.7473603, 
			 "HOMO_LUMO_gap": 0.18446, 
			 "cosmo_polarized_energy": -8.69, 
			 "cosmo_cavitation_energy": 32.78, 
			 "cosmo_dispersion_energy": -23.26, 
			 "cosmo_repulsion_energy": 1.83, 
			 "cosmo_total_nonelectrostatic_energy": 11.35, 
			 "SMD_solvation_energy": 5.98 
		},
		"coords": [
			{
				"x": 0.3564008247,
				"y": -1.295019463,
				"z": -2.8434468773,
				"element": "C" 
			},
			{
				"x": 0.2272231871,
				"y": -1.9704995754,
				"z": -1.4649771894,
				"element": "C" 
			},
			{
				"x": -0.9673056048,
				"y": -2.9535411341,
				"z": -1.5177956076,
				"element": "C" 
			},
			{
				"x": 1.5299969558,
				"y": -2.7594180296,
				"z": -1.1888294599,
				"element": "C" 
			},
			{
				"x": -0.0011085349,
				"y": -0.9537414048,
				"z": -0.3333333087,
				"element": "C" 
			},
			{
				"x": -0.081757116,
				"y": 0.430443262,
				"z": -0.5573146642,
				"element": "C" 
			},
			{
				"x": -0.2887829949,
				"y": 1.3224020459,
				"z": 0.4901854903,
				"element": "C" 
			},
			{
				"x": -0.4262633667,
				"y": 0.8645157528,
				"z": 1.8080147752,
				"element": "C" 
			},
			{
				"x": -0.3495595206,
				"y": -0.5174194701,
				"z": 2.0452002254,
				"element": "C" 
			},
			{
				"x": -0.1401648964,
				"y": -1.4015701102,
				"z": 0.9928999079,
				"element": "C" 
			},
			{
				"x": -0.6174192491,
				"y": 1.874168255,
				"z": 2.8846103006,
				"element": "C" 
			},
			{
				"x": -0.6166937406,
				"y": 3.0736562206,
				"z": 2.6553629583,
				"element": "O" 
			},
			{
				"x": -0.7790430016,
				"y": 1.4191667042,
				"z": 4.3395722557,
				"element": "C" 
			},
			{
				"x": -2.3771990709,
				"y": 0.6030443658,
				"z": 4.6220225571,
				"element": "Cl" 
			},
			{
				"x": 0.5175110772,
				"y": -2.057723326,
				"z": -3.6118614891,
				"element": "H" 
			},
			{
				"x": 1.2052134699,
				"y": -0.6044882754,
				"z": -2.8822415158,
				"element": "H" 
			},
			{
				"x": -0.5489316649,
				"y": -0.7418522044,
				"z": -3.1138014295,
				"element": "H" 
			},
			{
				"x": -0.8173928215,
				"y": -3.6876470115,
				"z": -2.3171720763,
				"element": "H" 
			},
			{
				"x": -1.9040259975,
				"y": -2.4225052029,
				"z": -1.7156679124,
				"element": "H" 
			},
			{
				"x": -1.086529025,
				"y": -3.5031829175,
				"z": -0.5795827664,
				"element": "H" 
			},
			{
				"x": 1.7040080689,
				"y": -3.4920883748,
				"z": -1.984609974,
				"element": "H" 
			},
			{
				"x": 2.3944926912,
				"y": -2.0886260867,
				"z": -1.1502359831,
				"element": "H" 
			},
			{
				"x": 1.4856348872,
				"y": -3.3030395822,
				"z": -0.2406006068,
				"element": "H" 
			},
			{
				"x": 0.0183340263,
				"y": 0.8264784793,
				"z": -1.5609540293,
				"element": "H" 
			},
			{
				"x": -0.3453750435,
				"y": 2.3904449527,
				"z": 0.3078666608,
				"element": "H" 
			},
			{
				"x": -0.4670283789,
				"y": -0.9133353971,
				"z": 3.0483077545,
				"element": "H" 
			},
			{
				"x": -0.087534843,
				"y": -2.4635310314,
				"z": 1.2118128582,
				"element": "H" 
			},
			{
				"x": -0.7547638605,
				"y": 2.3044267804,
				"z": 4.971988056,
				"element": "H" 
			},
			{
				"x": -0.003336457,
				"y": 0.7130817783,
				"z": 4.6418810897,
				"element": "H" 
			}
		],
		 "valence_orbital": [ 
			{
				"type": "occ",
				"energy": -0.31487,
				"method": "rhf"
			},
			{
				"type": "occ",
				"energy": -0.30397,
				"method": "rhf"
			},
			{
				"type": "occ",
				"energy": -0.26176,
				"method": "rhf"
			},
			{
				"type": "occ",
				"energy": -0.25798,
				"method": "rhf"
			},
			{
				"type": "occ",
				"energy": -0.25315,
				"method": "rhf"
			},
			{
				"type": "unocc",
				"energy": -0.06869,
				"method": "rhf"
			},
			{
				"type": "unocc",
				"energy": -0.01166,
				"method": "rhf"
			},
			{
				"type": "unocc",
				"energy": 0.00428,
				"method": "rhf"
			},
			{
				"type": "unocc",
				"energy": 0.05383,
				"method": "rhf"
			},
			{
				"type": "unocc",
				"energy": 0.07385,
				"method": "rhf"
			}
		],
		"cosmo_sigma_profile": { 
			"-0.025": 0.0,
			"-0.024": 0.0,
			"-0.023": 0.0,
			"-0.022": 0.0,
			"-0.021": 0.0,
			"-0.02": 0.0,
			"-0.019": 0.0,
			"-0.018": 0.0,
			"-0.017": 0.0,
			"-0.016": 0.0,
			"-0.015": 0.0,
			"-0.014": 0.0,
			"-0.013": 0.0,
			"-0.012": 0.0,
			"-0.011": 0.0,
			"-0.01": 0.0653469022981,
			"-0.009": 2.65639938851,
			"-0.008": 4.27148890323,
			"-0.007": 4.73716517424,
			"-0.006": 9.09035388849,
			"-0.005": 11.9729768186,
			"-0.004": 12.4935770672,
			"-0.003": 25.0639932994,
			"-0.002": 27.3585900224,
			"-0.001": 23.4262321077,
			"0.0": 23.9701818001,
			"0.001": 33.3510365093,
			"0.002": 17.7887768756,
			"0.003": 15.2175329703,
			"0.004": 20.0557030129,
			"0.005": 10.650267119,
			"0.006": 4.09163169664,
			"0.007": 1.68072480151,
			"0.008": 2.23536449852,
			"0.009": 1.72798546108,
			"0.01": 2.26277406252,
			"0.011": 4.32033896937,
			"0.012": 1.54532248987,
			"0.013": 0.0609967662975,
			"0.014": 0.0,
			"0.015": 0.0,
			"0.016": 0.0,
			"0.017": 0.0,
			"0.018": 0.0,
			"0.019": 0.0,
			"0.02": 0.0,
			"0.021": 0.0,
			"0.022": 0.0,
			"0.023": 0.0,
			"0.024": 0.0,
			"0.025": 0.0
		}
	}
}
