{
	 "smiles": "OC(=O)C1CCN2C=CN=C2C1", 
	 "Tm": 505.15, 
	 "num_atms": 22, 
	 "gaussian": { 
		 "optdone": 1, 
		 "sigma_profile": "yes", 
		 "theory": "DFT", 
		 "functional": "B3LYP", 
		 "basiset": "6-31G**", 
		 "properties": { 
			 "R2extent": 2239.9171, 
			 "electric_dipole_moment_norm": 5.09567010216, 
			 "electric_quadrupole_moment_norm": 12.562446663, 
			 "total_energy": -570.844476748, 
			 "HOMO_LUMO_gap": 0.20696, 
			 "cosmo_polarized_energy": -17.39, 
			 "cosmo_cavitation_energy": 24.69, 
			 "cosmo_dispersion_energy": -18.3, 
			 "cosmo_repulsion_energy": 1.45, 
			 "cosmo_total_nonelectrostatic_energy": 7.84, 
			 "SMD_solvation_energy": 3.22 
		},
		"coords": [
			{
				"x": 1.4161508523,
				"y": -2.0311529121,
				"z": -1.7618063647,
				"element": "O" 
			},
			{
				"x": 0.3581764255,
				"y": -2.2209904282,
				"z": -0.9311765139,
				"element": "C" 
			},
			{
				"x": 0.1402661669,
				"y": -3.2866311882,
				"z": -0.4016418727,
				"element": "O" 
			},
			{
				"x": -0.5140764549,
				"y": -0.973112131,
				"z": -0.8140625027,
				"element": "C" 
			},
			{
				"x": 0.2912176504,
				"y": 0.3427263707,
				"z": -0.8252695986,
				"element": "C" 
			},
			{
				"x": 1.2019426434,
				"y": 0.45736288,
				"z": 0.4001341248,
				"element": "C" 
			},
			{
				"x": 0.4572460801,
				"y": 0.1320574174,
				"z": 1.6132735991,
				"element": "N" 
			},
			{
				"x": 0.8242921268,
				"y": 0.399923978,
				"z": 2.9191930433,
				"element": "C" 
			},
			{
				"x": -0.1504731822,
				"y": -0.1738843012,
				"z": 3.6960358755,
				"element": "C" 
			},
			{
				"x": -1.099303336,
				"y": -0.790641458,
				"z": 2.9131157812,
				"element": "N" 
			},
			{
				"x": -0.705674983,
				"y": -0.5970540116,
				"z": 1.6691860524,
				"element": "C" 
			},
			{
				"x": -1.4225889541,
				"y": -1.0422558693,
				"z": 0.4277146527,
				"element": "C" 
			},
			{
				"x": 1.87715264,
				"y": -2.8861250032,
				"z": -1.8054347854,
				"element": "H" 
			},
			{
				"x": -1.1445298801,
				"y": -0.9926280522,
				"z": -1.7136898185,
				"element": "H" 
			},
			{
				"x": 0.8987380693,
				"y": 0.4182498897,
				"z": -1.7297272786,
				"element": "H" 
			},
			{
				"x": -0.4201848554,
				"y": 1.1764266055,
				"z": -0.831605906,
				"element": "H" 
			},
			{
				"x": 2.057118785,
				"y": -0.2229023259,
				"z": 0.2988628446,
				"element": "H" 
			},
			{
				"x": 1.59889404,
				"y": 1.473778671,
				"z": 0.4888848212,
				"element": "H" 
			},
			{
				"x": 1.7190166599,
				"y": 0.9553166996,
				"z": 3.1570319449,
				"element": "H" 
			},
			{
				"x": -0.2228198193,
				"y": -0.1750903493,
				"z": 4.77516164,
				"element": "H" 
			},
			{
				"x": -2.296778456,
				"y": -0.3995835905,
				"z": 0.2613767581,
				"element": "H" 
			},
			{
				"x": -1.7926822184,
				"y": -2.0591908911,
				"z": 0.5735435034,
				"element": "H" 
			}
		],
		 "valence_orbital": [ 
			{
				"type": "occ",
				"energy": -0.32821,
				"method": "rhf"
			},
			{
				"type": "occ",
				"energy": -0.283,
				"method": "rhf"
			},
			{
				"type": "occ",
				"energy": -0.25752,
				"method": "rhf"
			},
			{
				"type": "occ",
				"energy": -0.25206,
				"method": "rhf"
			},
			{
				"type": "occ",
				"energy": -0.21111,
				"method": "rhf"
			},
			{
				"type": "unocc",
				"energy": -0.00415,
				"method": "rhf"
			},
			{
				"type": "unocc",
				"energy": 0.03452,
				"method": "rhf"
			},
			{
				"type": "unocc",
				"energy": 0.06458,
				"method": "rhf"
			},
			{
				"type": "unocc",
				"energy": 0.0727,
				"method": "rhf"
			},
			{
				"type": "unocc",
				"energy": 0.0904,
				"method": "rhf"
			}
		],
		"cosmo_sigma_profile": { 
			"-0.025": 0.0,
			"-0.024": 0.0,
			"-0.023": 0.0,
			"-0.022": 0.0,
			"-0.021": 0.0,
			"-0.02": 0.0,
			"-0.019": 0.078204036536,
			"-0.018": 0.757837911465,
			"-0.017": 1.35379227185,
			"-0.016": 0.46298759371,
			"-0.015": 0.758652640706,
			"-0.014": 0.620664382864,
			"-0.013": 0.300701840685,
			"-0.012": 0.549668979248,
			"-0.011": 1.20457344888,
			"-0.01": 0.587082548428,
			"-0.009": 0.728088989202,
			"-0.008": 2.1969294072,
			"-0.007": 7.43907608437,
			"-0.006": 11.755026304,
			"-0.005": 20.7571085924,
			"-0.004": 20.8409441519,
			"-0.003": 18.1346102028,
			"-0.002": 13.1480834479,
			"-0.001": 9.33962655699,
			"0.0": 6.73297925575,
			"0.001": 6.45181876482,
			"0.002": 6.65896770238,
			"0.003": 6.92755349077,
			"0.004": 7.448516576,
			"0.005": 7.27990803062,
			"0.006": 8.40140094209,
			"0.007": 6.04689926642,
			"0.008": 3.84729768948,
			"0.009": 3.77415360216,
			"0.01": 3.20611913767,
			"0.011": 5.78622157591,
			"0.012": 3.88229631428,
			"0.013": 1.59626093354,
			"0.014": 1.13330941126,
			"0.015": 1.2420892989,
			"0.016": 0.826902406156,
			"0.017": 0.821664436158,
			"0.018": 1.29536055935,
			"0.019": 0.337575691141,
			"0.02": 0.0,
			"0.021": 0.0,
			"0.022": 0.0,
			"0.023": 0.0,
			"0.024": 0.0,
			"0.025": 0.0
		}
	}
}
