{
	 "smiles": "CCOC(=O)C(=CC1=CC=C(O1)C1=CC=C(C)C=C1)C#N", 
	 "Tm": 397.15, 
	 "num_atms": 36, 
	 "gaussian": { 
		 "optdone": 1, 
		 "sigma_profile": "yes", 
		 "theory": "DFT", 
		 "functional": "B3LYP", 
		 "basiset": "6-31G**", 
		 "properties": { 
			 "R2extent": 9842.1001, 
			 "electric_dipole_moment_norm": 3.3212895342, 
			 "electric_quadrupole_moment_norm": 21.1753942306, 
			 "total_energy": -937.260231124, 
			 "HOMO_LUMO_gap": 0.12172, 
			 "cosmo_polarized_energy": -15.75, 
			 "cosmo_cavitation_energy": 42.66, 
			 "cosmo_dispersion_energy": -29.38, 
			 "cosmo_repulsion_energy": 2.24, 
			 "cosmo_total_nonelectrostatic_energy": 15.53, 
			 "SMD_solvation_energy": 9.85 
		},
		"coords": [
			{
				"x": -2.3831915586,
				"y": 5.9923139572,
				"z": 1.1845075989,
				"element": "C" 
			},
			{
				"x": -2.5417607639,
				"y": 4.8425789242,
				"z": 2.1605260995,
				"element": "C" 
			},
			{
				"x": -1.9816152852,
				"y": 3.6646946977,
				"z": 1.5348060381,
				"element": "O" 
			},
			{
				"x": -2.0319079142,
				"y": 2.5323483289,
				"z": 2.2581358756,
				"element": "C" 
			},
			{
				"x": -2.5098584816,
				"y": 2.4549226575,
				"z": 3.3751583476,
				"element": "O" 
			},
			{
				"x": -1.4305866305,
				"y": 1.3812409684,
				"z": 1.5257285965,
				"element": "C" 
			},
			{
				"x": -1.4246549726,
				"y": 0.1714082342,
				"z": 2.1655790611,
				"element": "C" 
			},
			{
				"x": -0.9271940389,
				"y": -1.0772879302,
				"z": 1.7203201219,
				"element": "C" 
			},
			{
				"x": -0.9020921169,
				"y": -2.3190033005,
				"z": 2.3344904458,
				"element": "C" 
			},
			{
				"x": -0.2870027455,
				"y": -3.2122306497,
				"z": 1.433141136,
				"element": "C" 
			},
			{
				"x": 0.0382666998,
				"y": -2.4773715599,
				"z": 0.3044757938,
				"element": "C" 
			},
			{
				"x": -0.3498849735,
				"y": -1.1882041219,
				"z": 0.4813823299,
				"element": "O" 
			},
			{
				"x": 0.6774875868,
				"y": -2.8072970951,
				"z": -0.9578492685,
				"element": "C" 
			},
			{
				"x": 0.8772355591,
				"y": -1.8193935482,
				"z": -1.9408215903,
				"element": "C" 
			},
			{
				"x": 1.4930281445,
				"y": -2.1465679947,
				"z": -3.1441420748,
				"element": "C" 
			},
			{
				"x": 1.9263546134,
				"y": -3.4527103841,
				"z": -3.4143055766,
				"element": "C" 
			},
			{
				"x": 2.5643483277,
				"y": -3.8024961878,
				"z": -4.7364175467,
				"element": "C" 
			},
			{
				"x": 1.7266579481,
				"y": -4.4299831704,
				"z": -2.4274576794,
				"element": "C" 
			},
			{
				"x": 1.1129742461,
				"y": -4.1187678865,
				"z": -1.2199991518,
				"element": "C" 
			},
			{
				"x": -0.9003051052,
				"y": 1.5918624768,
				"z": 0.2180415975,
				"element": "C" 
			},
			{
				"x": -0.467826417,
				"y": 1.7653204196,
				"z": -0.8495268284,
				"element": "N" 
			},
			{
				"x": -2.795991834,
				"y": 6.9071776876,
				"z": 1.6209926193,
				"element": "H" 
			},
			{
				"x": -1.3285955654,
				"y": 6.1648634912,
				"z": 0.9525362262,
				"element": "H" 
			},
			{
				"x": -2.9111883733,
				"y": 5.7862481654,
				"z": 0.2493559297,
				"element": "H" 
			},
			{
				"x": -2.014940301,
				"y": 5.0234041639,
				"z": 3.1028476917,
				"element": "H" 
			},
			{
				"x": -3.5911176666,
				"y": 4.6460224462,
				"z": 2.4022397103,
				"element": "H" 
			},
			{
				"x": -1.8665837638,
				"y": 0.1745291034,
				"z": 3.1586291268,
				"element": "H" 
			},
			{
				"x": -1.2868222153,
				"y": -2.5410883037,
				"z": 3.3200443964,
				"element": "H" 
			},
			{
				"x": -0.1025063769,
				"y": -4.2649564196,
				"z": 1.5862289447,
				"element": "H" 
			},
			{
				"x": 0.5523608571,
				"y": -0.8005759239,
				"z": -1.7553024942,
				"element": "H" 
			},
			{
				"x": 1.6419528522,
				"y": -1.3696043618,
				"z": -3.8894755843,
				"element": "H" 
			},
			{
				"x": 1.8053889051,
				"y": -4.0830225666,
				"z": -5.4778994865,
				"element": "H" 
			},
			{
				"x": 3.2516505274,
				"y": -4.6481616209,
				"z": -4.6392920007,
				"element": "H" 
			},
			{
				"x": 3.1211546528,
				"y": -2.9555629329,
				"z": -5.1482101165,
				"element": "H" 
			},
			{
				"x": 2.0592945385,
				"y": -5.4487752377,
				"z": -2.6092050353,
				"element": "H" 
			},
			{
				"x": 0.9748716413,
				"y": -4.8967745262,
				"z": -0.4750632533,
				"element": "H" 
			}
		],
		 "valence_orbital": [ 
			{
				"type": "occ",
				"energy": -0.29847,
				"method": "rhf"
			},
			{
				"type": "occ",
				"energy": -0.27437,
				"method": "rhf"
			},
			{
				"type": "occ",
				"energy": -0.26376,
				"method": "rhf"
			},
			{
				"type": "occ",
				"energy": -0.25871,
				"method": "rhf"
			},
			{
				"type": "occ",
				"energy": -0.21031,
				"method": "rhf"
			},
			{
				"type": "unocc",
				"energy": -0.08859,
				"method": "rhf"
			},
			{
				"type": "unocc",
				"energy": -0.02663,
				"method": "rhf"
			},
			{
				"type": "unocc",
				"energy": -0.00826,
				"method": "rhf"
			},
			{
				"type": "unocc",
				"energy": 0.02888,
				"method": "rhf"
			},
			{
				"type": "unocc",
				"energy": 0.03973,
				"method": "rhf"
			}
		],
		"cosmo_sigma_profile": { 
			"-0.025": 0.0,
			"-0.024": 0.0,
			"-0.023": 0.0,
			"-0.022": 0.0,
			"-0.021": 0.0,
			"-0.02": 0.0,
			"-0.019": 0.0,
			"-0.018": 0.0,
			"-0.017": 0.0,
			"-0.016": 0.0,
			"-0.015": 0.0,
			"-0.014": 0.0,
			"-0.013": 0.0,
			"-0.012": 0.0,
			"-0.011": 0.0,
			"-0.01": 0.363139618307,
			"-0.009": 5.65912538124,
			"-0.008": 5.39413461248,
			"-0.007": 5.72102230094,
			"-0.006": 9.91557513481,
			"-0.005": 19.8416479928,
			"-0.004": 29.9085438491,
			"-0.003": 28.0582942643,
			"-0.002": 29.6813464659,
			"-0.001": 39.1976370903,
			"0.0": 39.0130334899,
			"0.001": 25.9721815796,
			"0.002": 19.3664680158,
			"0.003": 16.5587696509,
			"0.004": 16.9219722558,
			"0.005": 11.8421282501,
			"0.006": 4.68015216324,
			"0.007": 4.82469060429,
			"0.008": 6.66964488774,
			"0.009": 4.97918440046,
			"0.01": 4.42279253779,
			"0.011": 5.74900770931,
			"0.012": 5.42854863475,
			"0.013": 1.55584212135,
			"0.014": 0.222515944875,
			"0.015": 0.0,
			"0.016": 0.0,
			"0.017": 0.0,
			"0.018": 0.0,
			"0.019": 0.0,
			"0.02": 0.0,
			"0.021": 0.0,
			"0.022": 0.0,
			"0.023": 0.0,
			"0.024": 0.0,
			"0.025": 0.0
		}
	}
}
