{
	 "smiles": "CCOC(=O)C1=C(N)N(N=C1SC)C(=O)CC1=CC=CC=C1", 
	 "Tm": 393.15, 
	 "num_atms": 39, 
	 "gaussian": { 
		 "optdone": 1, 
		 "sigma_profile": "yes", 
		 "theory": "DFT", 
		 "functional": "B3LYP", 
		 "basiset": "6-31G**", 
		 "properties": { 
			 "R2extent": 9139.8108, 
			 "electric_dipole_moment_norm": 1.4221704047, 
			 "electric_quadrupole_moment_norm": 4.34250438687, 
			 "total_energy": -1369.98595102, 
			 "HOMO_LUMO_gap": 0.17394, 
			 "cosmo_polarized_energy": -12.73, 
			 "cosmo_cavitation_energy": 44.81, 
			 "cosmo_dispersion_energy": -31.22, 
			 "cosmo_repulsion_energy": 2.36, 
			 "cosmo_total_nonelectrostatic_energy": 15.95, 
			 "SMD_solvation_energy": 8.48 
		},
		"coords": [
			{
				"x": -0.1969128398,
				"y": 1.8263816755,
				"z": -5.2414525768,
				"element": "C" 
			},
			{
				"x": -0.6814093244,
				"y": 0.4419324257,
				"z": -4.8379718951,
				"element": "C" 
			},
			{
				"x": -0.7041768886,
				"y": 0.2908455659,
				"z": -3.3990882497,
				"element": "O" 
			},
			{
				"x": 0.4490328506,
				"y": -0.0851657304,
				"z": -2.8045295896,
				"element": "C" 
			},
			{
				"x": 1.4888539237,
				"y": -0.3084530319,
				"z": -3.4231995898,
				"element": "O" 
			},
			{
				"x": 0.3342587109,
				"y": -0.2026713998,
				"z": -1.3672126749,
				"element": "C" 
			},
			{
				"x": 1.4142739019,
				"y": -0.5870103561,
				"z": -0.5654086277,
				"element": "C" 
			},
			{
				"x": 2.6639854723,
				"y": -0.89746671,
				"z": -0.9241266231,
				"element": "N" 
			},
			{
				"x": 0.9502546734,
				"y": -0.5939645894,
				"z": 0.740750864,
				"element": "N" 
			},
			{
				"x": -0.400886534,
				"y": -0.224500445,
				"z": 0.8076788124,
				"element": "N" 
			},
			{
				"x": -0.747705367,
				"y": 0.0018222079,
				"z": -0.4428533913,
				"element": "C" 
			},
			{
				"x": -2.3795736852,
				"y": 0.4955802353,
				"z": -0.8780722979,
				"element": "S" 
			},
			{
				"x": -3.147356779,
				"y": 0.5478748986,
				"z": 0.7773523349,
				"element": "C" 
			},
			{
				"x": 1.691042182,
				"y": -0.9206635387,
				"z": 1.8767165817,
				"element": "C" 
			},
			{
				"x": 2.8651379737,
				"y": -1.2552053906,
				"z": 1.7719698541,
				"element": "O" 
			},
			{
				"x": 0.9812628793,
				"y": -0.8052323466,
				"z": 3.2130260615,
				"element": "C" 
			},
			{
				"x": 1.2060711903,
				"y": 0.5694222404,
				"z": 3.8290058952,
				"element": "C" 
			},
			{
				"x": 0.1598925525,
				"y": 1.4946110002,
				"z": 3.9158199536,
				"element": "C" 
			},
			{
				"x": 0.3714693094,
				"y": 2.7510926401,
				"z": 4.4866384757,
				"element": "C" 
			},
			{
				"x": 1.633721455,
				"y": 3.0982254374,
				"z": 4.9700905077,
				"element": "C" 
			},
			{
				"x": 2.6847417935,
				"y": 2.1826933064,
				"z": 4.8788937358,
				"element": "C" 
			},
			{
				"x": 2.4725887666,
				"y": 0.9264851162,
				"z": 4.3113464549,
				"element": "C" 
			},
			{
				"x": -0.808198615,
				"y": 2.6037397104,
				"z": -4.7739072203,
				"element": "H" 
			},
			{
				"x": -0.2650294006,
				"y": 1.9413661662,
				"z": -6.3285406919,
				"element": "H" 
			},
			{
				"x": 0.8453123831,
				"y": 1.9690722434,
				"z": -4.9458700885,
				"element": "H" 
			},
			{
				"x": -0.0466155369,
				"y": -0.3386423266,
				"z": -5.2635019211,
				"element": "H" 
			},
			{
				"x": -1.7172382859,
				"y": 0.2749227605,
				"z": -5.1420392391,
				"element": "H" 
			},
			{
				"x": 2.8631320424,
				"y": -0.8474262627,
				"z": -1.9159586642,
				"element": "H" 
			},
			{
				"x": 3.3271819768,
				"y": -1.1589676741,
				"z": -0.208929143,
				"element": "H" 
			},
			{
				"x": -2.6588625916,
				"y": 1.2934437977,
				"z": 1.4062508472,
				"element": "H" 
			},
			{
				"x": -3.0961668109,
				"y": -0.4294291289,
				"z": 1.2588974659,
				"element": "H" 
			},
			{
				"x": -4.1896555078,
				"y": 0.8273814613,
				"z": 0.6111011835,
				"element": "H" 
			},
			{
				"x": 1.4213472934,
				"y": -1.5789577683,
				"z": 3.8485417754,
				"element": "H" 
			},
			{
				"x": -0.0845344696,
				"y": -0.9979029551,
				"z": 3.0915181765,
				"element": "H" 
			},
			{
				"x": -0.8195769397,
				"y": 1.2275265751,
				"z": 3.5305806163,
				"element": "H" 
			},
			{
				"x": -0.450501303,
				"y": 3.4584793051,
				"z": 4.5519695325,
				"element": "H" 
			},
			{
				"x": 1.798199715,
				"y": 4.0753760365,
				"z": 5.4150839688,
				"element": "H" 
			},
			{
				"x": 3.6705341626,
				"y": 2.4459069836,
				"z": 5.251873049,
				"element": "H" 
			},
			{
				"x": 3.2917056705,
				"y": 0.216977865,
				"z": 4.2333563374,
				"element": "H" 
			}
		],
		 "valence_orbital": [ 
			{
				"type": "occ",
				"energy": -0.27283,
				"method": "rhf"
			},
			{
				"type": "occ",
				"energy": -0.25036,
				"method": "rhf"
			},
			{
				"type": "occ",
				"energy": -0.24387,
				"method": "rhf"
			},
			{
				"type": "occ",
				"energy": -0.22835,
				"method": "rhf"
			},
			{
				"type": "occ",
				"energy": -0.2165,
				"method": "rhf"
			},
			{
				"type": "unocc",
				"energy": -0.04256,
				"method": "rhf"
			},
			{
				"type": "unocc",
				"energy": -0.00721,
				"method": "rhf"
			},
			{
				"type": "unocc",
				"energy": -0.00336,
				"method": "rhf"
			},
			{
				"type": "unocc",
				"energy": 0.00184,
				"method": "rhf"
			},
			{
				"type": "unocc",
				"energy": 0.03652,
				"method": "rhf"
			}
		],
		"cosmo_sigma_profile": { 
			"-0.025": 0.0,
			"-0.024": 0.0,
			"-0.023": 0.0,
			"-0.022": 0.0,
			"-0.021": 0.0,
			"-0.02": 0.0,
			"-0.019": 0.0,
			"-0.018": 0.0,
			"-0.017": 0.0,
			"-0.016": 0.0,
			"-0.015": 0.0,
			"-0.014": 0.0,
			"-0.013": 0.0514510569665,
			"-0.012": 0.693942210879,
			"-0.011": 1.03175733404,
			"-0.01": 2.038971751,
			"-0.009": 1.31494849345,
			"-0.008": 1.8407199127,
			"-0.007": 3.68585013881,
			"-0.006": 10.7313332145,
			"-0.005": 23.406678621,
			"-0.004": 36.1367432041,
			"-0.003": 34.9213407693,
			"-0.002": 32.1987930561,
			"-0.001": 32.0423809622,
			"0.0": 30.3964624708,
			"0.001": 25.5862086797,
			"0.002": 22.6671972756,
			"0.003": 19.8819734061,
			"0.004": 19.6551196781,
			"0.005": 19.3968030779,
			"0.006": 13.7070701409,
			"0.007": 9.23608272229,
			"0.008": 5.57372023559,
			"0.009": 3.59902178288,
			"0.01": 2.96382078301,
			"0.011": 3.27910964957,
			"0.012": 2.02090176129,
			"0.013": 0.181632308262,
			"0.014": 0.0,
			"0.015": 0.0,
			"0.016": 0.0,
			"0.017": 0.0,
			"0.018": 0.0,
			"0.019": 0.0,
			"0.02": 0.0,
			"0.021": 0.0,
			"0.022": 0.0,
			"0.023": 0.0,
			"0.024": 0.0,
			"0.025": 0.0
		}
	}
}
