{
	 "smiles": "CCC1CCC(C)(C)C2=C1C=C(C(=O)CBr)C(CC)=C2", 
	 "Tm": 346.15, 
	 "num_atms": 45, 
	 "gaussian": { 
		 "optdone": 1, 
		 "sigma_profile": "yes", 
		 "theory": "DFT", 
		 "functional": "B3LYP", 
		 "basiset": "6-31G**", 
		 "properties": { 
			 "R2extent": 8970.0909, 
			 "electric_dipole_moment_norm": 3.63666865551, 
			 "electric_quadrupole_moment_norm": 9.60546036169, 
			 "total_energy": -3347.63964641, 
			 "HOMO_LUMO_gap": 0.17134, 
			 "cosmo_polarized_energy": -8.12, 
			 "cosmo_cavitation_energy": 44.76, 
			 "cosmo_dispersion_energy": -30.67, 
			 "cosmo_repulsion_energy": 2.36, 
			 "cosmo_total_nonelectrostatic_energy": 16.44, 
			 "SMD_solvation_energy": 6.34 
		},
		"coords": [
			{
				"x": 1.8269298507,
				"y": -1.9267993718,
				"z": -2.5040213799,
				"element": "C" 
			},
			{
				"x": 1.3275701677,
				"y": -0.511242777,
				"z": -2.8268126966,
				"element": "C" 
			},
			{
				"x": 0.11162643,
				"y": -0.0478141666,
				"z": -1.9995644681,
				"element": "C" 
			},
			{
				"x": -0.6718505954,
				"y": 1.0681072076,
				"z": -2.7208125764,
				"element": "C" 
			},
			{
				"x": -1.9851348004,
				"y": 1.4438740568,
				"z": -2.006270828,
				"element": "C" 
			},
			{
				"x": -2.033354219,
				"y": 1.1773289589,
				"z": -0.4618189113,
				"element": "C" 
			},
			{
				"x": -2.9022649021,
				"y": 2.2797363011,
				"z": 0.1770404405,
				"element": "C" 
			},
			{
				"x": -2.727694816,
				"y": -0.182771172,
				"z": -0.1756813755,
				"element": "C" 
			},
			{
				"x": -0.6192703579,
				"y": 1.1144454119,
				"z": 0.1249471981,
				"element": "C" 
			},
			{
				"x": 0.409783068,
				"y": 0.4667165941,
				"z": -0.5952293497,
				"element": "C" 
			},
			{
				"x": 1.6708529041,
				"y": 0.3957517073,
				"z": -0.0091439987,
				"element": "C" 
			},
			{
				"x": 1.9643764536,
				"y": 0.9240653714,
				"z": 1.2619647529,
				"element": "C" 
			},
			{
				"x": 3.3506308589,
				"y": 0.8187838132,
				"z": 1.7891895822,
				"element": "C" 
			},
			{
				"x": 3.7166494537,
				"y": 1.3314751888,
				"z": 2.8392560858,
				"element": "O" 
			},
			{
				"x": 4.4260587279,
				"y": 0.0700033427,
				"z": 0.9915953301,
				"element": "C" 
			},
			{
				"x": 4.1739885348,
				"y": -1.8938694214,
				"z": 1.0900910469,
				"element": "Br" 
			},
			{
				"x": 0.9300299552,
				"y": 1.5675146667,
				"z": 1.9943570378,
				"element": "C" 
			},
			{
				"x": 1.1473161457,
				"y": 2.1615967412,
				"z": 3.3764963979,
				"element": "C" 
			},
			{
				"x": -0.0841368677,
				"y": 2.758267506,
				"z": 4.064424681,
				"element": "C" 
			},
			{
				"x": -0.3291453928,
				"y": 1.6393522885,
				"z": 1.3896657564,
				"element": "C" 
			},
			{
				"x": 2.667384274,
				"y": -2.2001758032,
				"z": -3.1505570645,
				"element": "H" 
			},
			{
				"x": 2.1597465198,
				"y": -2.0357777469,
				"z": -1.4678485956,
				"element": "H" 
			},
			{
				"x": 1.0310688101,
				"y": -2.6617788716,
				"z": -2.6703640864,
				"element": "H" 
			},
			{
				"x": 2.1437067655,
				"y": 0.2170518337,
				"z": -2.7308616014,
				"element": "H" 
			},
			{
				"x": 1.0366059284,
				"y": -0.4869360914,
				"z": -3.8844041691,
				"element": "H" 
			},
			{
				"x": -0.5578485449,
				"y": -0.9172519733,
				"z": -1.9165751828,
				"element": "H" 
			},
			{
				"x": -0.8887509975,
				"y": 0.7641604466,
				"z": -3.7514196676,
				"element": "H" 
			},
			{
				"x": -0.0167435572,
				"y": 1.946028362,
				"z": -2.7873743912,
				"element": "H" 
			},
			{
				"x": -2.1867359782,
				"y": 2.5055170952,
				"z": -2.1856537654,
				"element": "H" 
			},
			{
				"x": -2.8211404466,
				"y": 0.8994151621,
				"z": -2.4612695421,
				"element": "H" 
			},
			{
				"x": -2.4170057869,
				"y": 3.2594533632,
				"z": 0.11715074,
				"element": "H" 
			},
			{
				"x": -3.8569172242,
				"y": 2.3449581949,
				"z": -0.3558158741,
				"element": "H" 
			},
			{
				"x": -3.1338658804,
				"y": 2.0740517557,
				"z": 1.2266891008,
				"element": "H" 
			},
			{
				"x": -3.7521189895,
				"y": -0.1720245146,
				"z": -0.5655090015,
				"element": "H" 
			},
			{
				"x": -2.2043638181,
				"y": -1.0249505207,
				"z": -0.6352153607,
				"element": "H" 
			},
			{
				"x": -2.7752596992,
				"y": -0.3700033224,
				"z": 0.9018858298,
				"element": "H" 
			},
			{
				"x": 2.4602772723,
				"y": -0.0978377505,
				"z": -0.557388108,
				"element": "H" 
			},
			{
				"x": 5.3847695009,
				"y": 0.2676546148,
				"z": 1.4635794407,
				"element": "H" 
			},
			{
				"x": 4.4558772661,
				"y": 0.319705955,
				"z": -0.0680259702,
				"element": "H" 
			},
			{
				"x": 1.587455112,
				"y": 1.393046038,
				"z": 4.0211175621,
				"element": "H" 
			},
			{
				"x": 1.932891304,
				"y": 2.9221382967,
				"z": 3.3102302336,
				"element": "H" 
			},
			{
				"x": -0.5063752451,
				"y": 3.5995413771,
				"z": 3.504224928,
				"element": "H" 
			},
			{
				"x": 0.1972552816,
				"y": 3.1338287939,
				"z": 5.0528567882,
				"element": "H" 
			},
			{
				"x": -0.8774305786,
				"y": 2.0167719874,
				"z": 4.2087115901,
				"element": "H" 
			},
			{
				"x": -1.1231418873,
				"y": 2.1319910708,
				"z": 1.933563442,
				"element": "H" 
			}
		],
		 "valence_orbital": [ 
			{
				"type": "occ",
				"energy": -0.28672,
				"method": "rhf"
			},
			{
				"type": "occ",
				"energy": -0.27873,
				"method": "rhf"
			},
			{
				"type": "occ",
				"energy": -0.24962,
				"method": "rhf"
			},
			{
				"type": "occ",
				"energy": -0.24592,
				"method": "rhf"
			},
			{
				"type": "occ",
				"energy": -0.23662,
				"method": "rhf"
			},
			{
				"type": "unocc",
				"energy": -0.06528,
				"method": "rhf"
			},
			{
				"type": "unocc",
				"energy": -0.00805,
				"method": "rhf"
			},
			{
				"type": "unocc",
				"energy": -0.00094,
				"method": "rhf"
			},
			{
				"type": "unocc",
				"energy": 0.05155,
				"method": "rhf"
			},
			{
				"type": "unocc",
				"energy": 0.07747,
				"method": "rhf"
			}
		],
		"cosmo_sigma_profile": { 
			"-0.025": 0.0,
			"-0.024": 0.0,
			"-0.023": 0.0,
			"-0.022": 0.0,
			"-0.021": 0.0,
			"-0.02": 0.0,
			"-0.019": 0.0,
			"-0.018": 0.0,
			"-0.017": 0.0,
			"-0.016": 0.0,
			"-0.015": 0.0,
			"-0.014": 0.0,
			"-0.013": 0.0,
			"-0.012": 0.0,
			"-0.011": 0.0,
			"-0.01": 0.0124352704129,
			"-0.009": 1.61364717381,
			"-0.008": 3.44919848801,
			"-0.007": 3.88069725374,
			"-0.006": 4.10820139818,
			"-0.005": 5.82552994968,
			"-0.004": 9.45605812323,
			"-0.003": 32.3035654164,
			"-0.002": 52.4760470759,
			"-0.001": 54.7232108066,
			"0.0": 49.2483491658,
			"0.001": 50.3840380272,
			"0.002": 24.1849581418,
			"0.003": 13.5643331752,
			"0.004": 16.600392192,
			"0.005": 14.823032611,
			"0.006": 3.41343954217,
			"0.007": 1.75049429814,
			"0.008": 1.68248224703,
			"0.009": 1.22271949988,
			"0.01": 2.29049250864,
			"0.011": 2.15063602104,
			"0.012": 2.47347342541,
			"0.013": 0.358300447842,
			"0.014": 0.0,
			"0.015": 0.0,
			"0.016": 0.0,
			"0.017": 0.0,
			"0.018": 0.0,
			"0.019": 0.0,
			"0.02": 0.0,
			"0.021": 0.0,
			"0.022": 0.0,
			"0.023": 0.0,
			"0.024": 0.0,
			"0.025": 0.0
		}
	}
}
