{
	 "smiles": "OC(=O)C1CCN(CC1)S(=O)(=O)C1=C2N=S=NC2=CC=C1", 
	 "Tm": 506.15, 
	 "num_atms": 34, 
	 "gaussian": { 
		 "optdone": 1, 
		 "sigma_profile": "yes", 
		 "theory": "DFT", 
		 "functional": "B3LYP", 
		 "basiset": "6-31G**", 
		 "properties": { 
			 "R2extent": 6706.5927, 
			 "electric_dipole_moment_norm": 2.69312787665, 
			 "electric_quadrupole_moment_norm": 27.7274679004, 
			 "total_energy": -1726.5448402, 
			 "HOMO_LUMO_gap": 0.14293, 
			 "cosmo_polarized_energy": -21.22, 
			 "cosmo_cavitation_energy": 38.12, 
			 "cosmo_dispersion_energy": -27.79, 
			 "cosmo_repulsion_energy": 1.99, 
			 "cosmo_total_nonelectrostatic_energy": 12.31, 
			 "SMD_solvation_energy": 3.49 
		},
		"coords": [
			{
				"x": 1.4006697175,
				"y": 1.4696652087,
				"z": 1.6101505193,
				"element": "O" 
			},
			{
				"x": 1.8082349686,
				"y": 0.995382141,
				"z": 2.8079261158,
				"element": "C" 
			},
			{
				"x": 2.4750603896,
				"y": 1.6754636083,
				"z": 3.5523467474,
				"element": "O" 
			},
			{
				"x": 1.3798957282,
				"y": -0.4378970663,
				"z": 3.1579429521,
				"element": "C" 
			},
			{
				"x": 2.226154453,
				"y": -1.4929478547,
				"z": 2.4094944157,
				"element": "C" 
			},
			{
				"x": 1.9907807016,
				"y": -1.5106955616,
				"z": 0.8835548438,
				"element": "C" 
			},
			{
				"x": 0.6012002065,
				"y": -1.0398665037,
				"z": 0.5821954082,
				"element": "N" 
			},
			{
				"x": -0.3852657011,
				"y": -1.4870158451,
				"z": 1.5987805459,
				"element": "C" 
			},
			{
				"x": -0.1315248713,
				"y": -0.7089285625,
				"z": 2.9038868521,
				"element": "C" 
			},
			{
				"x": 0.1196543933,
				"y": -1.2609811429,
				"z": -1.0651986142,
				"element": "S" 
			},
			{
				"x": 1.1944751056,
				"y": -1.959168457,
				"z": -1.7688972645,
				"element": "O" 
			},
			{
				"x": -1.2511424265,
				"y": -1.7841140851,
				"z": -1.0658591211,
				"element": "O" 
			},
			{
				"x": 0.0218304383,
				"y": 0.42280039,
				"z": -1.6845224431,
				"element": "C" 
			},
			{
				"x": 1.1657405618,
				"y": 1.277625378,
				"z": -1.7503799784,
				"element": "C" 
			},
			{
				"x": 2.4076696528,
				"y": 1.0092495484,
				"z": -1.3370927153,
				"element": "N" 
			},
			{
				"x": 3.2908569242,
				"y": 2.3629354165,
				"z": -1.6204952022,
				"element": "S" 
			},
			{
				"x": 2.1445199503,
				"y": 3.3256668249,
				"z": -2.2830282187,
				"element": "N" 
			},
			{
				"x": 1.0109367768,
				"y": 2.6127946052,
				"z": -2.2966020269,
				"element": "C" 
			},
			{
				"x": -0.2533240881,
				"y": 3.0575277505,
				"z": -2.7789079332,
				"element": "C" 
			},
			{
				"x": -1.3176171391,
				"y": 2.1967319291,
				"z": -2.7040633975,
				"element": "C" 
			},
			{
				"x": -1.1827424176,
				"y": 0.8832436937,
				"z": -2.1565910587,
				"element": "C" 
			},
			{
				"x": 0.9683265983,
				"y": 0.7466931927,
				"z": 1.1011048303,
				"element": "H" 
			},
			{
				"x": 1.5950856886,
				"y": -0.5249707323,
				"z": 4.2249036724,
				"element": "H" 
			},
			{
				"x": 1.978449156,
				"y": -2.4728637167,
				"z": 2.8323837773,
				"element": "H" 
			},
			{
				"x": 3.291671008,
				"y": -1.3324203081,
				"z": 2.5998127077,
				"element": "H" 
			},
			{
				"x": 2.676832016,
				"y": -0.8391759378,
				"z": 0.3661186524,
				"element": "H" 
			},
			{
				"x": 2.1492163597,
				"y": -2.5194452473,
				"z": 0.4892435064,
				"element": "H" 
			},
			{
				"x": -1.3903953292,
				"y": -1.3033344966,
				"z": 1.2216991075,
				"element": "H" 
			},
			{
				"x": -0.2946642361,
				"y": -2.5696878064,
				"z": 1.7577285383,
				"element": "H" 
			},
			{
				"x": -0.6834361919,
				"y": 0.2362801924,
				"z": 2.8842492589,
				"element": "H" 
			},
			{
				"x": -0.5416139907,
				"y": -1.2931687403,
				"z": 3.7341403257,
				"element": "H" 
			},
			{
				"x": -0.3459765877,
				"y": 4.0579258956,
				"z": -3.186589833,
				"element": "H" 
			},
			{
				"x": -2.2935473524,
				"y": 2.5073535125,
				"z": -3.062809426,
				"element": "H" 
			},
			{
				"x": -2.0453104634,
				"y": 0.2275427768,
				"z": -2.1095255443,
				"element": "H" 
			}
		],
		 "valence_orbital": [ 
			{
				"type": "occ",
				"energy": -0.30122,
				"method": "rhf"
			},
			{
				"type": "occ",
				"energy": -0.28627,
				"method": "rhf"
			},
			{
				"type": "occ",
				"energy": -0.28366,
				"method": "rhf"
			},
			{
				"type": "occ",
				"energy": -0.26604,
				"method": "rhf"
			},
			{
				"type": "occ",
				"energy": -0.25293,
				"method": "rhf"
			},
			{
				"type": "unocc",
				"energy": -0.11,
				"method": "rhf"
			},
			{
				"type": "unocc",
				"energy": -0.03019,
				"method": "rhf"
			},
			{
				"type": "unocc",
				"energy": -0.01552,
				"method": "rhf"
			},
			{
				"type": "unocc",
				"energy": -0.00428,
				"method": "rhf"
			},
			{
				"type": "unocc",
				"energy": 0.01635,
				"method": "rhf"
			}
		],
		"cosmo_sigma_profile": { 
			"-0.025": 0.0,
			"-0.024": 0.0,
			"-0.023": 0.0,
			"-0.022": 0.0,
			"-0.021": 0.0,
			"-0.02": 0.0,
			"-0.019": 0.0,
			"-0.018": 0.0,
			"-0.017": 0.0,
			"-0.016": 0.0,
			"-0.015": 0.0,
			"-0.014": 0.0,
			"-0.013": 0.0,
			"-0.012": 0.0,
			"-0.011": 0.0,
			"-0.01": 0.0,
			"-0.009": 1.55385379388,
			"-0.008": 7.05637558936,
			"-0.007": 9.31051186903,
			"-0.006": 18.5797753633,
			"-0.005": 36.8089425435,
			"-0.004": 30.0422035304,
			"-0.003": 30.6984824649,
			"-0.002": 28.5320210655,
			"-0.001": 20.8140487094,
			"0.0": 16.4053401542,
			"0.001": 11.0349637514,
			"0.002": 9.47956363419,
			"0.003": 7.20907147448,
			"0.004": 7.13142587468,
			"0.005": 6.87487998928,
			"0.006": 6.60168758167,
			"0.007": 7.09457961165,
			"0.008": 7.01820053669,
			"0.009": 10.4830748708,
			"0.01": 13.7965220164,
			"0.011": 7.99097057644,
			"0.012": 6.44280045738,
			"0.013": 4.26911771459,
			"0.014": 0.935770565919,
			"0.015": 0.0,
			"0.016": 0.0,
			"0.017": 0.0,
			"0.018": 0.0,
			"0.019": 0.0,
			"0.02": 0.0,
			"0.021": 0.0,
			"0.022": 0.0,
			"0.023": 0.0,
			"0.024": 0.0,
			"0.0": 0.0
		}
	}
}
