{
	 "smiles": "CC(=C)C(=O)OCC=C", 
	 "Tm": 208.15, 
	 "num_atms": 19, 
	 "gaussian": { 
		 "optdone": 1, 
		 "sigma_profile": "yes", 
		 "theory": "DFT", 
		 "functional": "B3LYP", 
		 "basiset": "6-31G**", 
		 "properties": { 
			 "R2extent": 1995.911, 
			 "electric_dipole_moment_norm": 1.71800593131, 
			 "electric_quadrupole_moment_norm": 7.87837927368, 
			 "total_energy": -423.186651947, 
			 "HOMO_LUMO_gap": 0.22741, 
			 "cosmo_polarized_energy": -6.52, 
			 "cosmo_cavitation_energy": 23.55, 
			 "cosmo_dispersion_energy": -16.39, 
			 "cosmo_repulsion_energy": 1.36, 
			 "cosmo_total_nonelectrostatic_energy": 8.51, 
			 "SMD_solvation_energy": 6.64 
		},
		"coords": [
			{
				"x": 0.1457543247,
				"y": 0.2547781982,
				"z": -3.8414905087,
				"element": "C" 
			},
			{
				"x": 1.2974424291,
				"y": 0.6876761754,
				"z": -2.9721690802,
				"element": "C" 
			},
			{
				"x": 2.5171740248,
				"y": 0.9833932638,
				"z": -3.437568735,
				"element": "C" 
			},
			{
				"x": 1.0893499586,
				"y": 0.8010414197,
				"z": -1.4921561076,
				"element": "C" 
			},
			{
				"x": 1.9370249912,
				"y": 1.1344765147,
				"z": -0.6859163272,
				"element": "O" 
			},
			{
				"x": -0.1818015662,
				"y": 0.4841236115,
				"z": -1.1475083547,
				"element": "O" 
			},
			{
				"x": -0.5044012159,
				"y": 0.5794297067,
				"z": 0.2651009141,
				"element": "C" 
			},
			{
				"x": -0.0836620872,
				"y": -0.6487618248,
				"z": 1.0165697137,
				"element": "C" 
			},
			{
				"x": -0.9364339018,
				"y": -1.453891428,
				"z": 1.6491287179,
				"element": "C" 
			},
			{
				"x": -0.7001516887,
				"y": 0.9440903271,
				"z": -3.7499072245,
				"element": "H" 
			},
			{
				"x": -0.2241550362,
				"y": -0.732272981,
				"z": -3.5452190721,
				"element": "H" 
			},
			{
				"x": 0.448996719,
				"y": 0.2131588173,
				"z": -4.890747138,
				"element": "H" 
			},
			{
				"x": 3.3051005975,
				"y": 1.2886724963,
				"z": -2.7576142921,
				"element": "H" 
			},
			{
				"x": 2.7480436093,
				"y": 0.9268963789,
				"z": -4.496956214,
				"element": "H" 
			},
			{
				"x": -0.010672438,
				"y": 1.4690995657,
				"z": 0.6678325205,
				"element": "H" 
			},
			{
				"x": -1.5881761152,
				"y": 0.711031451,
				"z": 0.2945829393,
				"element": "H" 
			},
			{
				"x": 0.986175937,
				"y": -0.8436836209,
				"z": 1.0385258344,
				"element": "H" 
			},
			{
				"x": -0.5960473837,
				"y": -2.3203287246,
				"z": 2.2082749153,
				"element": "H" 
			},
			{
				"x": -2.0088611584,
				"y": -1.271829347,
				"z": 1.638837499,
				"element": "H" 
			}
		],
		 "valence_orbital": [ 
			{
				"type": "occ",
				"energy": -0.35099,
				"method": "rhf"
			},
			{
				"type": "occ",
				"energy": -0.29948,
				"method": "rhf"
			},
			{
				"type": "occ",
				"energy": -0.27288,
				"method": "rhf"
			},
			{
				"type": "occ",
				"energy": -0.26666,
				"method": "rhf"
			},
			{
				"type": "occ",
				"energy": -0.26525,
				"method": "rhf"
			},
			{
				"type": "unocc",
				"energy": -0.03784,
				"method": "rhf"
			},
			{
				"type": "unocc",
				"energy": 0.00445,
				"method": "rhf"
			},
			{
				"type": "unocc",
				"energy": 0.08321,
				"method": "rhf"
			},
			{
				"type": "unocc",
				"energy": 0.11281,
				"method": "rhf"
			},
			{
				"type": "unocc",
				"energy": 0.11722,
				"method": "rhf"
			}
		],
		"cosmo_sigma_profile": { 
			"-0.025": 0.0,
			"-0.024": 0.0,
			"-0.023": 0.0,
			"-0.022": 0.0,
			"-0.021": 0.0,
			"-0.02": 0.0,
			"-0.019": 0.0,
			"-0.018": 0.0,
			"-0.017": 0.0,
			"-0.016": 0.0,
			"-0.015": 0.0,
			"-0.014": 0.0,
			"-0.013": 0.0,
			"-0.012": 0.0,
			"-0.011": 0.0,
			"-0.01": 0.0,
			"-0.009": 0.0,
			"-0.008": 0.0,
			"-0.007": 0.976372875966,
			"-0.006": 7.89838109797,
			"-0.005": 13.7440456538,
			"-0.004": 16.7231347939,
			"-0.003": 19.4656716689,
			"-0.002": 21.5959098102,
			"-0.001": 17.9339751681,
			"0.0": 17.9872680393,
			"0.001": 13.1691644282,
			"0.002": 10.8139478616,
			"0.003": 11.276802021,
			"0.004": 8.6854897037,
			"0.005": 5.72473558334,
			"0.006": 5.79725940315,
			"0.007": 3.01780876964,
			"0.008": 1.86919129082,
			"0.009": 1.34350104336,
			"0.01": 1.5266307403,
			"0.011": 2.72754230276,
			"0.012": 3.74355554305,
			"0.013": 0.373131833122,
			"0.014": 0.0,
			"0.015": 0.0,
			"0.016": 0.0,
			"0.017": 0.0,
			"0.018": 0.0,
			"0.019": 0.0,
			"0.02": 0.0,
			"0.021": 0.0,
			"0.022": 0.0,
			"0.023": 0.0,
			"0.024": 0.0,
			"0.025": 0.0
		}
	}
}
