{
	 "smiles": "COC1=C(OC)C=C2C(=O)CC2=C1", 
	 "Tm": 414.15, 
	 "num_atms": 23, 
	 "gaussian": { 
		 "optdone": 1, 
		 "sigma_profile": "yes", 
		 "theory": "DFT", 
		 "functional": "B3LYP", 
		 "basiset": "6-31G**", 
		 "properties": { 
			 "R2extent": 3612.5803, 
			 "electric_dipole_moment_norm": 5.53343508049, 
			 "electric_quadrupole_moment_norm": 19.5661468688, 
			 "total_energy": -612.688930221, 
			 "HOMO_LUMO_gap": 0.17881, 
			 "cosmo_polarized_energy": -11.73, 
			 "cosmo_cavitation_energy": 27.27, 
			 "cosmo_dispersion_energy": -19.81, 
			 "cosmo_repulsion_energy": 1.59, 
			 "cosmo_total_nonelectrostatic_energy": 9.05, 
			 "SMD_solvation_energy": 6.7 
		},
		"coords": [
			{
				"x": 1.1098611404,
				"y": -0.9421972506,
				"z": 1.5942506219,
				"element": "C" 
			},
			{
				"x": 0.6412915875,
				"y": -1.5855559347,
				"z": 0.4162352185,
				"element": "O" 
			},
			{
				"x": 0.2722815521,
				"y": -0.8167868694,
				"z": -0.6410571241,
				"element": "C" 
			},
			{
				"x": -0.1442660285,
				"y": -1.5540309472,
				"z": -1.7953171536,
				"element": "C" 
			},
			{
				"x": -0.0970602469,
				"y": -2.9254647935,
				"z": -1.7824556685,
				"element": "O" 
			},
			{
				"x": -1.1083543798,
				"y": -3.5771182127,
				"z": -1.0090292576,
				"element": "C" 
			},
			{
				"x": -0.5292939916,
				"y": -0.902501025,
				"z": -2.9624010261,
				"element": "C" 
			},
			{
				"x": -0.4906817326,
				"y": 0.4939959052,
				"z": -2.9415741506,
				"element": "C" 
			},
			{
				"x": -0.7298287669,
				"y": 1.7492375973,
				"z": -3.7104904152,
				"element": "C" 
			},
			{
				"x": -1.103648929,
				"y": 2.0470921082,
				"z": -4.8176973977,
				"element": "O" 
			},
			{
				"x": -0.2854266886,
				"y": 2.5878454796,
				"z": -2.4480893603,
				"element": "C" 
			},
			{
				"x": -0.0950954874,
				"y": 1.2141699997,
				"z": -1.8119911696,
				"element": "C" 
			},
			{
				"x": 0.2962827379,
				"y": 0.5889549696,
				"z": -0.6359184135,
				"element": "C" 
			},
			{
				"x": 2.0031591679,
				"y": -0.3390922079,
				"z": 1.3919303562,
				"element": "H" 
			},
			{
				"x": 0.3364473862,
				"y": -0.3050964498,
				"z": 2.0408255522,
				"element": "H" 
			},
			{
				"x": 1.3645728132,
				"y": -1.7426628116,
				"z": 2.2897506552,
				"element": "H" 
			},
			{
				"x": -1.0250724817,
				"y": -3.3279803028,
				"z": 0.0532297647,
				"element": "H" 
			},
			{
				"x": -0.9497932704,
				"y": -4.6488039665,
				"z": -1.144170557,
				"element": "H" 
			},
			{
				"x": -2.1099036945,
				"y": -3.3115654157,
				"z": -1.3714402059,
				"element": "H" 
			},
			{
				"x": -0.8269026373,
				"y": -1.4885332054,
				"z": -3.825402832,
				"element": "H" 
			},
			{
				"x": -1.0706244404,
				"y": 3.2235373344,
				"z": -2.0232957233,
				"element": "H" 
			},
			{
				"x": 0.6174966536,
				"y": 3.1906523439,
				"z": -2.5975353586,
				"element": "H" 
			},
			{
				"x": 0.6121597366,
				"y": 1.1419036548,
				"z": 0.240543645,
				"element": "H" 
			}
		],
		 "valence_orbital": [ 
			{
				"type": "occ",
				"energy": -0.3239,
				"method": "rhf"
			},
			{
				"type": "occ",
				"energy": -0.28128,
				"method": "rhf"
			},
			{
				"type": "occ",
				"energy": -0.25678,
				"method": "rhf"
			},
			{
				"type": "occ",
				"energy": -0.24009,
				"method": "rhf"
			},
			{
				"type": "occ",
				"energy": -0.22606,
				"method": "rhf"
			},
			{
				"type": "unocc",
				"energy": -0.04725,
				"method": "rhf"
			},
			{
				"type": "unocc",
				"energy": -0.00954,
				"method": "rhf"
			},
			{
				"type": "unocc",
				"energy": 0.05525,
				"method": "rhf"
			},
			{
				"type": "unocc",
				"energy": 0.07985,
				"method": "rhf"
			},
			{
				"type": "unocc",
				"energy": 0.08818,
				"method": "rhf"
			}
		],
		"cosmo_sigma_profile": { 
			"-0.025": 0.0,
			"-0.024": 0.0,
			"-0.023": 0.0,
			"-0.022": 0.0,
			"-0.021": 0.0,
			"-0.02": 0.0,
			"-0.019": 0.0,
			"-0.018": 0.0,
			"-0.017": 0.0,
			"-0.016": 0.0,
			"-0.015": 0.0,
			"-0.014": 0.0,
			"-0.013": 0.0,
			"-0.012": 0.0,
			"-0.011": 0.0,
			"-0.01": 0.0,
			"-0.009": 0.0,
			"-0.008": 0.809640617832,
			"-0.007": 5.12864633839,
			"-0.006": 13.8961001763,
			"-0.005": 19.6416745085,
			"-0.004": 22.198035213,
			"-0.003": 22.7543350906,
			"-0.002": 20.1831457344,
			"-0.001": 17.6001578523,
			"0.0": 12.6472095457,
			"0.001": 13.3086772289,
			"0.002": 16.3337365929,
			"0.003": 11.6113108951,
			"0.004": 4.16520009201,
			"0.005": 3.84804189235,
			"0.006": 3.35183219123,
			"0.007": 3.3190893822,
			"0.008": 4.57577648827,
			"0.009": 2.65947674324,
			"0.01": 4.53207898882,
			"0.011": 7.53761525673,
			"0.012": 5.65774228408,
			"0.013": 1.69709477304,
			"0.014": 0.0,
			"0.015": 0.0,
			"0.016": 0.0,
			"0.017": 0.0,
			"0.018": 0.0,
			"0.019": 0.0,
			"0.02": 0.0,
			"0.021": 0.0,
			"0.022": 0.0,
			"0.023": 0.0,
			"0.024": 0.0,
			"0.025": 0.0
		}
	}
}
