{
	 "smiles": "COC(=O)C1=COC(=N1)C1=CC(=CC=C1)C#N", 
	 "Tm": 457.15, 
	 "num_atms": 25, 
	 "gaussian": { 
		 "optdone": 1, 
		 "sigma_profile": "yes", 
		 "theory": "DFT", 
		 "functional": "B3LYP", 
		 "basiset": "6-31G**", 
		 "properties": { 
			 "R2extent": 5556.5217, 
			 "electric_dipole_moment_norm": 3.98926951835, 
			 "electric_quadrupole_moment_norm": 31.7372843577, 
			 "total_energy": -797.250952689, 
			 "HOMO_LUMO_gap": 0.17725, 
			 "cosmo_polarized_energy": -15.73, 
			 "cosmo_cavitation_energy": 32.79, 
			 "cosmo_dispersion_energy": -23.21, 
			 "cosmo_repulsion_energy": 1.79, 
			 "cosmo_total_nonelectrostatic_energy": 11.37, 
			 "SMD_solvation_energy": 8.12 
		},
		"coords": [
			{
				"x": -4.5643168496,
				"y": -1.4277024758,
				"z": 1.650283969,
				"element": "C" 
			},
			{
				"x": -3.2652199908,
				"y": -1.0701417327,
				"z": 1.1492839455,
				"element": "O" 
			},
			{
				"x": -2.7931119893,
				"y": -1.8635836081,
				"z": 0.1754144396,
				"element": "C" 
			},
			{
				"x": -3.3831961831,
				"y": -2.824341313,
				"z": -0.2817199381,
				"element": "O" 
			},
			{
				"x": -1.4565446445,
				"y": -1.4454873742,
				"z": -0.296764637,
				"element": "C" 
			},
			{
				"x": -0.7448365349,
				"y": -2.0726581139,
				"z": -1.2769643723,
				"element": "C" 
			},
			{
				"x": 0.4277201606,
				"y": -1.4040145225,
				"z": -1.4324058534,
				"element": "O" 
			},
			{
				"x": 0.3720083473,
				"y": -0.3797644936,
				"z": -0.5192787453,
				"element": "C" 
			},
			{
				"x": -0.7267149232,
				"y": -0.3659054633,
				"z": 0.1755183405,
				"element": "N" 
			},
			{
				"x": 1.5053734663,
				"y": 0.5374129208,
				"z": -0.4371849077,
				"element": "C" 
			},
			{
				"x": 1.4579999445,
				"y": 1.5857024786,
				"z": 0.4912945075,
				"element": "C" 
			},
			{
				"x": 2.5333169792,
				"y": 2.4769488586,
				"z": 0.5871617019,
				"element": "C" 
			},
			{
				"x": 3.6586151031,
				"y": 2.3244235413,
				"z": -0.2431851241,
				"element": "C" 
			},
			{
				"x": 3.6965660147,
				"y": 1.2796534997,
				"z": -1.1627793852,
				"element": "C" 
			},
			{
				"x": 2.6296693877,
				"y": 0.3880407572,
				"z": -1.2642089799,
				"element": "C" 
			},
			{
				"x": 2.4884948866,
				"y": 3.5522073304,
				"z": 1.5371412439,
				"element": "C" 
			},
			{
				"x": 2.4600674466,
				"y": 4.4259363737,
				"z": 2.3040732697,
				"element": "N" 
			},
			{
				"x": -5.3081131349,
				"y": -1.3900430307,
				"z": 0.8504937001,
				"element": "H" 
			},
			{
				"x": -4.5494140801,
				"y": -2.4361637344,
				"z": 2.0711226413,
				"element": "H" 
			},
			{
				"x": -4.7913295488,
				"y": -0.6924898405,
				"z": 2.4215029859,
				"element": "H" 
			},
			{
				"x": -0.9229972493,
				"y": -2.9313388336,
				"z": -1.9026388353,
				"element": "H" 
			},
			{
				"x": 0.5876570513,
				"y": 1.6969522188,
				"z": 1.1277466523,
				"element": "H" 
			},
			{
				"x": 4.4853600522,
				"y": 3.0214108202,
				"z": -0.1593932553,
				"element": "H" 
			},
			{
				"x": 4.5628830399,
				"y": 1.1585689742,
				"z": -1.8051857607,
				"element": "H" 
			},
			{
				"x": 2.6626632486,
				"y": -0.424523237,
				"z": -1.9816276029,
				"element": "H" 
			}
		],
		 "valence_orbital": [ 
			{
				"type": "occ",
				"energy": -0.30866,
				"method": "rhf"
			},
			{
				"type": "occ",
				"energy": -0.30456,
				"method": "rhf"
			},
			{
				"type": "occ",
				"energy": -0.28404,
				"method": "rhf"
			},
			{
				"type": "occ",
				"energy": -0.27745,
				"method": "rhf"
			},
			{
				"type": "occ",
				"energy": -0.24906,
				"method": "rhf"
			},
			{
				"type": "unocc",
				"energy": -0.07181,
				"method": "rhf"
			},
			{
				"type": "unocc",
				"energy": -0.05345,
				"method": "rhf"
			},
			{
				"type": "unocc",
				"energy": -0.04233,
				"method": "rhf"
			},
			{
				"type": "unocc",
				"energy": 0.02043,
				"method": "rhf"
			},
			{
				"type": "unocc",
				"energy": 0.03185,
				"method": "rhf"
			}
		],
		"cosmo_sigma_profile": { 
			"-0.025": 0.0,
			"-0.024": 0.0,
			"-0.023": 0.0,
			"-0.022": 0.0,
			"-0.021": 0.0,
			"-0.02": 0.0,
			"-0.019": 0.0,
			"-0.018": 0.0,
			"-0.017": 0.0,
			"-0.016": 0.0,
			"-0.015": 0.0,
			"-0.014": 0.0,
			"-0.013": 0.0,
			"-0.012": 0.645829810394,
			"-0.011": 1.32616108545,
			"-0.01": 1.70599606042,
			"-0.009": 1.92099760657,
			"-0.008": 6.20295299982,
			"-0.007": 12.1361798203,
			"-0.006": 14.1746519487,
			"-0.005": 15.0380994374,
			"-0.004": 19.3521848055,
			"-0.003": 23.1546448348,
			"-0.002": 24.8837377217,
			"-0.001": 25.135654061,
			"0.0": 23.0422237833,
			"0.001": 18.3336950512,
			"0.002": 9.43152075861,
			"0.003": 9.03064982803,
			"0.004": 6.18716172542,
			"0.005": 6.12327676407,
			"0.006": 4.51445312192,
			"0.007": 5.89362106379,
			"0.008": 7.29002852435,
			"0.009": 6.42078727019,
			"0.01": 5.98573419512,
			"0.011": 8.06663758942,
			"0.012": 6.95326478387,
			"0.013": 2.22329115349,
			"0.014": 0.542598419862,
			"0.015": 0.00580265143865,
			"0.016": 0.0,
			"0.017": 0.0,
			"0.018": 0.0,
			"0.019": 0.0,
			"0.02": 0.0,
			"0.021": 0.0,
			"0.022": 0.0,
			"0.023": 0.0,
			"0.024": 0.0,
			"0.025": 0.0
		}
	}
}
