{
	 "smiles": "COC(=O)C1=CC=C(CS(C)(=O)=O)C=C1", 
	 "Tm": 438.15, 
	 "num_atms": 27, 
	 "gaussian": { 
		 "optdone": 1, 
		 "sigma_profile": "yes", 
		 "theory": "DFT", 
		 "functional": "B3LYP", 
		 "basiset": "6-31G**", 
		 "properties": { 
			 "R2extent": 6032.4016, 
			 "electric_dipole_moment_norm": 3.10805987233, 
			 "electric_quadrupole_moment_norm": 28.1900262183, 
			 "total_energy": -1087.33462187, 
			 "HOMO_LUMO_gap": 0.20078, 
			 "cosmo_polarized_energy": -19.39, 
			 "cosmo_cavitation_energy": 32.76, 
			 "cosmo_dispersion_energy": -23.7, 
			 "cosmo_repulsion_energy": 1.81, 
			 "cosmo_total_nonelectrostatic_energy": 10.86, 
			 "SMD_solvation_energy": 6.77 
		},
		"coords": [
			{
				"x": -1.8575813211,
				"y": 4.1435748866,
				"z": -1.438436581,
				"element": "C" 
			},
			{
				"x": -1.7930234125,
				"y": 2.7139681839,
				"z": -1.3144671673,
				"element": "O" 
			},
			{
				"x": -0.5729512863,
				"y": 2.1719875383,
				"z": -1.5234994182,
				"element": "C" 
			},
			{
				"x": 0.4109135899,
				"y": 2.8313497683,
				"z": -1.7981466868,
				"element": "O" 
			},
			{
				"x": -0.5766242495,
				"y": 0.6875780451,
				"z": -1.3780666804,
				"element": "C" 
			},
			{
				"x": 0.6315424712,
				"y": 0.0091000865,
				"z": -1.5788599011,
				"element": "C" 
			},
			{
				"x": 0.6822093216,
				"y": -1.3759949948,
				"z": -1.4558997691,
				"element": "C" 
			},
			{
				"x": -0.4707436326,
				"y": -2.1085733072,
				"z": -1.1355808348,
				"element": "C" 
			},
			{
				"x": -0.4050784991,
				"y": -3.6052380599,
				"z": -1.0093914251,
				"element": "C" 
			},
			{
				"x": -0.6254788818,
				"y": -4.2549845534,
				"z": 0.6968393242,
				"element": "S" 
			},
			{
				"x": 0.7002416044,
				"y": -3.4774680871,
				"z": 1.6473238187,
				"element": "C" 
			},
			{
				"x": -1.9081274171,
				"y": -3.7532014674,
				"z": 1.2158757831,
				"element": "O" 
			},
			{
				"x": -0.3605924606,
				"y": -5.7004577129,
				"z": 0.6326016524,
				"element": "O" 
			},
			{
				"x": -1.6790123487,
				"y": -1.4227182603,
				"z": -0.9345768691,
				"element": "C" 
			},
			{
				"x": -1.7321950895,
				"y": -0.037060391,
				"z": -1.0536561015,
				"element": "C" 
			},
			{
				"x": -2.895888855,
				"y": 4.4089890136,
				"z": -1.2406485288,
				"element": "H" 
			},
			{
				"x": -1.1933563279,
				"y": 4.6224327057,
				"z": -0.7147250524,
				"element": "H" 
			},
			{
				"x": -1.5653912919,
				"y": 4.4556325075,
				"z": -2.4441754007,
				"element": "H" 
			},
			{
				"x": 1.5154900175,
				"y": 0.5843598797,
				"z": -1.832172461,
				"element": "H" 
			},
			{
				"x": 1.6220553849,
				"y": -1.8966694094,
				"z": -1.6211887195,
				"element": "H" 
			},
			{
				"x": 0.5432067542,
				"y": -4.0152717428,
				"z": -1.3652807484,
				"element": "H" 
			},
			{
				"x": -1.2166598655,
				"y": -4.1076970138,
				"z": -1.5455342929,
				"element": "H" 
			},
			{
				"x": 0.5934011571,
				"y": -2.3934850352,
				"z": 1.599155748,
				"element": "H" 
			},
			{
				"x": 0.5742256548,
				"y": -3.8274198069,
				"z": 2.673450594,
				"element": "H" 
			},
			{
				"x": 1.6649713407,
				"y": -3.802047045,
				"z": 1.2545046829,
				"element": "H" 
			},
			{
				"x": -2.5705772393,
				"y": -1.9799469348,
				"z": -0.6670963512,
				"element": "H" 
			},
			{
				"x": -2.6669751178,
				"y": 0.4885612068,
				"z": -0.8975486143,
				"element": "H" 
			}
		],
		 "valence_orbital": [ 
			{
				"type": "occ",
				"energy": -0.29935,
				"method": "rhf"
			},
			{
				"type": "occ",
				"energy": -0.29611,
				"method": "rhf"
			},
			{
				"type": "occ",
				"energy": -0.28107,
				"method": "rhf"
			},
			{
				"type": "occ",
				"energy": -0.27099,
				"method": "rhf"
			},
			{
				"type": "occ",
				"energy": -0.26168,
				"method": "rhf"
			},
			{
				"type": "unocc",
				"energy": -0.0609,
				"method": "rhf"
			},
			{
				"type": "unocc",
				"energy": -0.02185,
				"method": "rhf"
			},
			{
				"type": "unocc",
				"energy": 0.03363,
				"method": "rhf"
			},
			{
				"type": "unocc",
				"energy": 0.06316,
				"method": "rhf"
			},
			{
				"type": "unocc",
				"energy": 0.06615,
				"method": "rhf"
			}
		],
		"cosmo_sigma_profile": { 
			"-0.025": 0.0,
			"-0.024": 0.0,
			"-0.023": 0.0,
			"-0.022": 0.0,
			"-0.021": 0.0,
			"-0.02": 0.0,
			"-0.019": 0.0,
			"-0.018": 0.0,
			"-0.017": 0.0,
			"-0.016": 0.0,
			"-0.015": 0.0,
			"-0.014": 0.0,
			"-0.013": 0.0,
			"-0.012": 0.0236963221653,
			"-0.011": 0.582036438207,
			"-0.01": 1.7609244534,
			"-0.009": 7.21975722873,
			"-0.008": 9.07190854098,
			"-0.007": 10.1755192687,
			"-0.006": 18.1230372059,
			"-0.005": 22.6814681866,
			"-0.004": 22.4372836232,
			"-0.003": 21.6962574912,
			"-0.002": 14.5830820062,
			"-0.001": 12.1457999201,
			"0.0": 12.9367076195,
			"0.001": 14.9130903327,
			"0.002": 14.508830632,
			"0.003": 15.3874352848,
			"0.004": 5.18304740988,
			"0.005": 6.31629527143,
			"0.006": 4.33318268886,
			"0.007": 3.62054019888,
			"0.008": 4.35119357358,
			"0.009": 5.40323790684,
			"0.01": 4.80078248541,
			"0.011": 12.2515167,
			"0.012": 14.0541753353,
			"0.013": 1.77991993645,
			"0.014": 0.0,
			"0.015": 0.0,
			"0.016": 0.0,
			"0.017": 0.0,
			"0.018": 0.0,
			"0.019": 0.0,
			"0.02": 0.0,
			"0.021": 0.0,
			"0.022": 0.0,
			"0.023": 0.0,
			"0.024": 0.0,
			"0.025": 0.0
		}
	}
}
