{
	 "smiles": "CCOC(=O)N1C=CN(C)C1=S", 
	 "Tm": 397.15, 
	 "num_atms": 22, 
	 "gaussian": { 
		 "optdone": 1, 
		 "sigma_profile": "yes", 
		 "theory": "DFT", 
		 "functional": "B3LYP", 
		 "basiset": "6-31G**", 
		 "properties": { 
			 "R2extent": 2802.6883, 
			 "electric_dipole_moment_norm": 6.24259902525, 
			 "electric_quadrupole_moment_norm": 16.7427997459, 
			 "total_energy": -930.921125157, 
			 "HOMO_LUMO_gap": 0.16831, 
			 "cosmo_polarized_energy": -19.47, 
			 "cosmo_cavitation_energy": 27.7, 
			 "cosmo_dispersion_energy": -20.48, 
			 "cosmo_repulsion_energy": 1.6, 
			 "cosmo_total_nonelectrostatic_energy": 8.81, 
			 "SMD_solvation_energy": 6.17 
		},
		"coords": [
			{
				"x": 3.1295356953,
				"y": -2.2837814933,
				"z": 0.3812490165,
				"element": "C" 
			},
			{
				"x": 3.2282785258,
				"y": -0.9016558286,
				"z": -0.2439200211,
				"element": "C" 
			},
			{
				"x": 2.1498930676,
				"y": -0.0399661988,
				"z": 0.2035587391,
				"element": "O" 
			},
			{
				"x": 0.9885008179,
				"y": -0.1610451185,
				"z": -0.4791485613,
				"element": "C" 
			},
			{
				"x": 0.7949967447,
				"y": -0.897968785,
				"z": -1.4111577399,
				"element": "O" 
			},
			{
				"x": 0.0409346971,
				"y": 0.7238515376,
				"z": 0.0776465751,
				"element": "N" 
			},
			{
				"x": 0.3066385355,
				"y": 1.5885850862,
				"z": 1.1555780183,
				"element": "C" 
			},
			{
				"x": -0.8268125215,
				"y": 2.2717908736,
				"z": 1.4017909128,
				"element": "C" 
			},
			{
				"x": -1.7932779386,
				"y": 1.8480334267,
				"z": 0.4977469913,
				"element": "N" 
			},
			{
				"x": -3.1608205265,
				"y": 2.3325361014,
				"z": 0.423028935,
				"element": "C" 
			},
			{
				"x": -1.2950884863,
				"y": 0.880986,
				"z": -0.3475584371,
				"element": "C" 
			},
			{
				"x": -2.1511185294,
				"y": 0.1279177714,
				"z": -1.5582020813,
				"element": "S" 
			},
			{
				"x": 3.9947659397,
				"y": -2.8849401208,
				"z": 0.0829219019,
				"element": "H" 
			},
			{
				"x": 2.2250795725,
				"y": -2.7948685195,
				"z": 0.0430279673,
				"element": "H" 
			},
			{
				"x": 3.1163351904,
				"y": -2.2193797788,
				"z": 1.473248458,
				"element": "H" 
			},
			{
				"x": 3.2011882191,
				"y": -0.9556966018,
				"z": -1.3343671852,
				"element": "H" 
			},
			{
				"x": 4.1331561291,
				"y": -0.3779649159,
				"z": 0.0723956815,
				"element": "H" 
			},
			{
				"x": 1.273254029,
				"y": 1.6191366988,
				"z": 1.623696173,
				"element": "H" 
			},
			{
				"x": -1.0354679681,
				"y": 3.0269396239,
				"z": 2.1430498353,
				"element": "H" 
			},
			{
				"x": -3.300860763,
				"y": 3.0921982517,
				"z": 1.1939762019,
				"element": "H" 
			},
			{
				"x": -3.3555723297,
				"y": 2.7604488656,
				"z": -0.5637076459,
				"element": "H" 
			},
			{
				"x": -3.8620381009,
				"y": 1.508443124,
				"z": 0.5779462648,
				"element": "H" 
			}
		],
		 "valence_orbital": [ 
			{
				"type": "occ",
				"energy": -0.30714,
				"method": "rhf"
			},
			{
				"type": "occ",
				"energy": -0.29412,
				"method": "rhf"
			},
			{
				"type": "occ",
				"energy": -0.28826,
				"method": "rhf"
			},
			{
				"type": "occ",
				"energy": -0.19674,
				"method": "rhf"
			},
			{
				"type": "occ",
				"energy": -0.19572,
				"method": "rhf"
			},
			{
				"type": "unocc",
				"energy": -0.02741,
				"method": "rhf"
			},
			{
				"type": "unocc",
				"energy": 0.02079,
				"method": "rhf"
			},
			{
				"type": "unocc",
				"energy": 0.0663,
				"method": "rhf"
			},
			{
				"type": "unocc",
				"energy": 0.08276,
				"method": "rhf"
			},
			{
				"type": "unocc",
				"energy": 0.10022,
				"method": "rhf"
			}
		],
		"cosmo_sigma_profile": { 
			"-0.025": 0.0,
			"-0.024": 0.0,
			"-0.023": 0.0,
			"-0.022": 0.0,
			"-0.021": 0.0,
			"-0.02": 0.0,
			"-0.019": 0.0,
			"-0.018": 0.0,
			"-0.017": 0.0,
			"-0.016": 0.0,
			"-0.015": 0.0,
			"-0.014": 0.0,
			"-0.013": 0.0,
			"-0.012": 0.0,
			"-0.011": 0.978255742706,
			"-0.01": 3.36533368856,
			"-0.009": 3.61687344555,
			"-0.008": 4.38701312111,
			"-0.007": 4.59374610798,
			"-0.006": 10.2604261902,
			"-0.005": 15.281415551,
			"-0.004": 24.7593352208,
			"-0.003": 24.9545097821,
			"-0.002": 20.0924334731,
			"-0.001": 18.465769618,
			"0.0": 14.3126065886,
			"0.001": 10.0252683344,
			"0.002": 8.09322017827,
			"0.003": 7.00644473823,
			"0.004": 4.18068774676,
			"0.005": 4.87385322517,
			"0.006": 3.86438279565,
			"0.007": 4.32105280111,
			"0.008": 4.93051284972,
			"0.009": 6.34284832783,
			"0.01": 9.14816635593,
			"0.011": 5.7789093802,
			"0.012": 2.61107307375,
			"0.013": 1.7446346784,
			"0.014": 2.20554009346,
			"0.015": 1.3390105222,
			"0.016": 1.08586798124,
			"0.017": 0.114961027923,
			"0.018": 0.0,
			"0.019": 0.0,
			"0.02": 0.0,
			"0.021": 0.0,
			"0.022": 0.0,
			"0.023": 0.0,
			"0.024": 0.0,
			"0.025": 0.0
		}
	}
}
