{
	 "smiles": "CC1=C(Br)N2C=CC=CC2=N1", 
	 "Tm": 346.65, 
	 "num_atms": 18, 
	 "gaussian": { 
		 "optdone": 1, 
		 "sigma_profile": "yes", 
		 "theory": "DFT", 
		 "functional": "B3LYP", 
		 "basiset": "6-31G**", 
		 "properties": { 
			 "R2extent": 2507.4437, 
			 "electric_dipole_moment_norm": 2.2221823035, 
			 "electric_quadrupole_moment_norm": 11.1138513244, 
			 "total_energy": -2989.97309133, 
			 "HOMO_LUMO_gap": 0.17121, 
			 "cosmo_polarized_energy": -7.33, 
			 "cosmo_cavitation_energy": 24.14, 
			 "cosmo_dispersion_energy": -18.41, 
			 "cosmo_repulsion_energy": 1.46, 
			 "cosmo_total_nonelectrostatic_energy": 7.19, 
			 "SMD_solvation_energy": 1.67 
		},
		"coords": [
			{
				"x": -2.3310922187,
				"y": 2.5363038913,
				"z": -0.104352402,
				"element": "C" 
			},
			{
				"x": -1.86356551,
				"y": 1.1204993018,
				"z": -0.2175821824,
				"element": "C" 
			},
			{
				"x": -0.651249625,
				"y": 0.593296511,
				"z": 0.199174437,
				"element": "C" 
			},
			{
				"x": 0.8168832871,
				"y": 1.410132298,
				"z": 1.0331311365,
				"element": "Br" 
			},
			{
				"x": -0.6662892293,
				"y": -0.7501685669,
				"z": -0.1110761768,
				"element": "N" 
			},
			{
				"x": 0.2591801206,
				"y": -1.7484403444,
				"z": 0.0723040733,
				"element": "C" 
			},
			{
				"x": -0.0431691964,
				"y": -3.0142139144,
				"z": -0.3473696926,
				"element": "C" 
			},
			{
				"x": -1.295338646,
				"y": -3.2926701801,
				"z": -0.9636357067,
				"element": "C" 
			},
			{
				"x": -2.2184913089,
				"y": -2.2895450356,
				"z": -1.1449459297,
				"element": "C" 
			},
			{
				"x": -1.9187669088,
				"y": -0.9779840057,
				"z": -0.7161572283,
				"element": "C" 
			},
			{
				"x": -2.6339521962,
				"y": 0.1446984847,
				"z": -0.7786006514,
				"element": "N" 
			},
			{
				"x": -1.6662088595,
				"y": 3.2226852659,
				"z": -0.6400713651,
				"element": "H" 
			},
			{
				"x": -3.3330195044,
				"y": 2.6170096861,
				"z": -0.529008537,
				"element": "H" 
			},
			{
				"x": -2.3646310166,
				"y": 2.8657165196,
				"z": 0.9399395777,
				"element": "H" 
			},
			{
				"x": 1.1880787598,
				"y": -1.461002898,
				"z": 0.5477470688,
				"element": "H" 
			},
			{
				"x": 0.6878481278,
				"y": -3.8012807328,
				"z": -0.2021831588,
				"element": "H" 
			},
			{
				"x": -1.5171825149,
				"y": -4.3032620473,
				"z": -1.2899919098,
				"element": "H" 
			},
			{
				"x": -3.1825335606,
				"y": -2.4610742333,
				"z": -1.6097213527,
				"element": "H" 
			}
		],
		 "valence_orbital": [ 
			{
				"type": "occ",
				"energy": -0.31094,
				"method": "rhf"
			},
			{
				"type": "occ",
				"energy": -0.30615,
				"method": "rhf"
			},
			{
				"type": "occ",
				"energy": -0.27051,
				"method": "rhf"
			},
			{
				"type": "occ",
				"energy": -0.24184,
				"method": "rhf"
			},
			{
				"type": "occ",
				"energy": -0.20652,
				"method": "rhf"
			},
			{
				"type": "unocc",
				"energy": -0.03531,
				"method": "rhf"
			},
			{
				"type": "unocc",
				"energy": -0.00231,
				"method": "rhf"
			},
			{
				"type": "unocc",
				"energy": 0.00982,
				"method": "rhf"
			},
			{
				"type": "unocc",
				"energy": 0.06138,
				"method": "rhf"
			},
			{
				"type": "unocc",
				"energy": 0.09016,
				"method": "rhf"
			}
		],
		"cosmo_sigma_profile": { 
			"-0.025": 0.0,
			"-0.024": 0.0,
			"-0.023": 0.0,
			"-0.022": 0.0,
			"-0.021": 0.0,
			"-0.02": 0.0,
			"-0.019": 0.0,
			"-0.018": 0.0,
			"-0.017": 0.0,
			"-0.016": 0.0,
			"-0.015": 0.0,
			"-0.014": 0.0,
			"-0.013": 0.0,
			"-0.012": 0.0,
			"-0.011": 0.0,
			"-0.01": 0.0,
			"-0.009": 0.3114700252,
			"-0.008": 2.0317581979,
			"-0.007": 6.75700806105,
			"-0.006": 8.24116953947,
			"-0.005": 11.5358757346,
			"-0.004": 14.1522542345,
			"-0.003": 13.1705219335,
			"-0.002": 15.5165004083,
			"-0.001": 20.1763306051,
			"0.0": 20.6005585475,
			"0.001": 17.6849387657,
			"0.002": 22.5683550645,
			"0.003": 18.9093136461,
			"0.004": 9.11905405431,
			"0.005": 2.56762133235,
			"0.006": 1.40562281361,
			"0.007": 1.82217213692,
			"0.008": 1.34973713568,
			"0.009": 1.08499714572,
			"0.01": 1.10163664521,
			"0.011": 1.17434340642,
			"0.012": 1.32033008493,
			"0.013": 1.00154054139,
			"0.014": 1.06529813525,
			"0.015": 0.700791627751,
			"0.016": 0.921431673403,
			"0.017": 0.846329183229,
			"0.018": 0.085322811434,
			"0.019": 0.0,
			"0.02": 0.0,
			"0.021": 0.0,
			"0.022": 0.0,
			"0.023": 0.0,
			"0.024": 0.0,
			"0.025": 0.0
		}
	}
}
