{
	 "smiles": "C[Si](C)(C)OC1=CC=CC=C1", 
	 "Tm": 218.15, 
	 "num_atms": 25, 
	 "gaussian": { 
		 "optdone": 1, 
		 "sigma_profile": "yes", 
		 "theory": "DFT", 
		 "functional": "B3LYP", 
		 "basiset": "6-31G**", 
		 "properties": { 
			 "R2extent": 3082.3604, 
			 "electric_dipole_moment_norm": 1.36506290331, 
			 "electric_quadrupole_moment_norm": 4.45138968975, 
			 "total_energy": -716.195882072, 
			 "HOMO_LUMO_gap": 0.21998, 
			 "cosmo_polarized_energy": -5.27, 
			 "cosmo_cavitation_energy": 29.23, 
			 "cosmo_dispersion_energy": -18.73, 
			 "cosmo_repulsion_energy": 1.64, 
			 "cosmo_total_nonelectrostatic_energy": 12.14, 
			 "SMD_solvation_energy": 6.65 
		},
		"coords": [
			{
				"x": 1.9457560577,
				"y": -0.9813095128,
				"z": 0.7963522625,
				"element": "C" 
			},
			{
				"x": 0.7312779569,
				"y": 0.4258584251,
				"z": 1.0623644228,
				"element": "Si" 
			},
			{
				"x": 1.6426736591,
				"y": 1.9968231768,
				"z": 1.5690583227,
				"element": "C" 
			},
			{
				"x": -0.5656655164,
				"y": -0.0543878491,
				"z": 2.3440106028,
				"element": "C" 
			},
			{
				"x": 0.0168887347,
				"y": 0.6197499029,
				"z": -0.4586181575,
				"element": "O" 
			},
			{
				"x": -0.9388106465,
				"y": 1.4633116495,
				"z": -0.9434201929,
				"element": "C" 
			},
			{
				"x": -1.5756276542,
				"y": 2.4425335562,
				"z": -0.168730411,
				"element": "C" 
			},
			{
				"x": -2.5448928019,
				"y": 3.2651734195,
				"z": -0.7469473069,
				"element": "C" 
			},
			{
				"x": -2.8899881808,
				"y": 3.125610943,
				"z": -2.0910320773,
				"element": "C" 
			},
			{
				"x": -2.252392171,
				"y": 2.1478670702,
				"z": -2.8599109398,
				"element": "C" 
			},
			{
				"x": -1.2843717997,
				"y": 1.3215818963,
				"z": -2.2946737678,
				"element": "C" 
			},
			{
				"x": 1.4299091147,
				"y": -1.8902774199,
				"z": 0.4705641362,
				"element": "H" 
			},
			{
				"x": 2.4871830699,
				"y": -1.2152100485,
				"z": 1.7199331933,
				"element": "H" 
			},
			{
				"x": 2.6845219643,
				"y": -0.7240128141,
				"z": 0.0305126012,
				"element": "H" 
			},
			{
				"x": 2.3863688416,
				"y": 2.2743116483,
				"z": 0.8145059828,
				"element": "H" 
			},
			{
				"x": 0.9717378708,
				"y": 2.8510062614,
				"z": 1.7017928674,
				"element": "H" 
			},
			{
				"x": 2.1726231912,
				"y": 1.8417091674,
				"z": 2.5161563827,
				"element": "H" 
			},
			{
				"x": -1.0949889897,
				"y": -0.9631355132,
				"z": 2.0383459193,
				"element": "H" 
			},
			{
				"x": -1.314889846,
				"y": 0.727602089,
				"z": 2.5009846364,
				"element": "H" 
			},
			{
				"x": -0.090171253,
				"y": -0.2564449542,
				"z": 3.31094702,
				"element": "H" 
			},
			{
				"x": -1.3193915577,
				"y": 2.5649028849,
				"z": 0.8782538536,
				"element": "H" 
			},
			{
				"x": -3.031276806,
				"y": 4.0204653624,
				"z": -0.1355612475,
				"element": "H" 
			},
			{
				"x": -3.6443423597,
				"y": 3.7684249157,
				"z": -2.534100612,
				"element": "H" 
			},
			{
				"x": -2.5098700508,
				"y": 2.0263806122,
				"z": -3.9085476524,
				"element": "H" 
			},
			{
				"x": -0.7810608276,
				"y": 0.5582651309,
				"z": -2.8792398385,
				"element": "H" 
			}
		],
		 "valence_orbital": [ 
			{
				"type": "occ",
				"energy": -0.31965,
				"method": "rhf"
			},
			{
				"type": "occ",
				"energy": -0.297,
				"method": "rhf"
			},
			{
				"type": "occ",
				"energy": -0.29011,
				"method": "rhf"
			},
			{
				"type": "occ",
				"energy": -0.24454,
				"method": "rhf"
			},
			{
				"type": "occ",
				"energy": -0.21574,
				"method": "rhf"
			},
			{
				"type": "unocc",
				"energy": 0.00424,
				"method": "rhf"
			},
			{
				"type": "unocc",
				"energy": 0.01667,
				"method": "rhf"
			},
			{
				"type": "unocc",
				"energy": 0.06816,
				"method": "rhf"
			},
			{
				"type": "unocc",
				"energy": 0.07997,
				"method": "rhf"
			},
			{
				"type": "unocc",
				"energy": 0.09262,
				"method": "rhf"
			}
		],
		"cosmo_sigma_profile": { 
			"-0.025": 0.0,
			"-0.024": 0.0,
			"-0.023": 0.0,
			"-0.022": 0.0,
			"-0.021": 0.0,
			"-0.02": 0.0,
			"-0.019": 0.0,
			"-0.018": 0.0,
			"-0.017": 0.0,
			"-0.016": 0.0,
			"-0.015": 0.0,
			"-0.014": 0.0,
			"-0.013": 0.0,
			"-0.012": 0.0,
			"-0.011": 0.0,
			"-0.01": 0.0,
			"-0.009": 0.0,
			"-0.008": 0.0,
			"-0.007": 0.157671080959,
			"-0.006": 4.65306287693,
			"-0.005": 11.1925756937,
			"-0.004": 21.85904127,
			"-0.003": 27.2543238771,
			"-0.002": 22.3672294139,
			"-0.001": 23.1436503166,
			"0.0": 21.3401220766,
			"0.001": 27.1351164976,
			"0.002": 15.117278386,
			"0.003": 12.161632875,
			"0.004": 11.1076658305,
			"0.005": 10.8690512588,
			"0.006": 11.0148512514,
			"0.007": 3.46159573376,
			"0.008": 1.11485219114,
			"0.009": 1.53398961852,
			"0.01": 1.31505627133,
			"0.011": 0.284789038058,
			"0.012": 0.0,
			"0.013": 0.0,
			"0.014": 0.0,
			"0.015": 0.0,
			"0.016": 0.0,
			"0.017": 0.0,
			"0.018": 0.0,
			"0.019": 0.0,
			"0.02": 0.0,
			"0.021": 0.0,
			"0.022": 0.0,
			"0.023": 0.0,
			"0.024": 0.0,
			"0.025": 0.0
		}
	}
}
