{
	 "smiles": "OC(=O)C1=C(Cl)C(Cl)=C(Cl)S1", 
	 "Tm": 500.15, 
	 "num_atms": 12, 
	 "gaussian": { 
		 "optdone": 1, 
		 "sigma_profile": "yes", 
		 "theory": "DFT", 
		 "functional": "B3LYP", 
		 "basiset": "6-31G**", 
		 "properties": { 
			 "R2extent": 4290.2366, 
			 "electric_dipole_moment_norm": 2.96096563641, 
			 "electric_quadrupole_moment_norm": 12.564903382, 
			 "total_energy": -2120.32135863, 
			 "HOMO_LUMO_gap": 0.17879, 
			 "cosmo_polarized_energy": -9.1, 
			 "cosmo_cavitation_energy": 24.04, 
			 "cosmo_dispersion_energy": -18.89, 
			 "cosmo_repulsion_energy": 1.47, 
			 "cosmo_total_nonelectrostatic_energy": 6.62, 
			 "SMD_solvation_energy": 4.4 
		},
		"coords": [
			{
				"x": -1.628187988,
				"y": -2.9410348461,
				"z": 0.8439554652,
				"element": "O" 
			},
			{
				"x": -1.5670715214,
				"y": -1.6917467435,
				"z": 0.3507112403,
				"element": "C" 
			},
			{
				"x": -2.4149701078,
				"y": -0.8688071098,
				"z": 0.6184866136,
				"element": "O" 
			},
			{
				"x": -0.4294892823,
				"y": -1.3349338822,
				"z": -0.5388181915,
				"element": "C" 
			},
			{
				"x": 0.6653217651,
				"y": -2.0141278474,
				"z": -1.0244967138,
				"element": "C" 
			},
			{
				"x": 1.0360768837,
				"y": -3.6782240634,
				"z": -0.6696294584,
				"element": "Cl" 
			},
			{
				"x": 1.5060619223,
				"y": -1.2271844105,
				"z": -1.8714564285,
				"element": "C" 
			},
			{
				"x": 2.9448675377,
				"y": -1.8166376235,
				"z": -2.6195346372,
				"element": "Cl" 
			},
			{
				"x": 1.0203857001,
				"y": 0.0515655572,
				"z": -2.010023937,
				"element": "C" 
			},
			{
				"x": 1.7198125323,
				"y": 1.316893911,
				"z": -2.9358101938,
				"element": "Cl" 
			},
			{
				"x": -0.4463502032,
				"y": 0.3089713662,
				"z": -1.1229013518,
				"element": "S" 
			},
			{
				"x": -0.8816572386,
				"y": -3.4843343081,
				"z": 0.5421175928,
				"element": "H" 
			}
		],
		 "valence_orbital": [ 
			{
				"type": "occ",
				"energy": -0.34544,
				"method": "rhf"
			},
			{
				"type": "occ",
				"energy": -0.32942,
				"method": "rhf"
			},
			{
				"type": "occ",
				"energy": -0.29729,
				"method": "rhf"
			},
			{
				"type": "occ",
				"energy": -0.28287,
				"method": "rhf"
			},
			{
				"type": "occ",
				"energy": -0.26612,
				"method": "rhf"
			},
			{
				"type": "unocc",
				"energy": -0.08733,
				"method": "rhf"
			},
			{
				"type": "unocc",
				"energy": -0.03894,
				"method": "rhf"
			},
			{
				"type": "unocc",
				"energy": -0.01848,
				"method": "rhf"
			},
			{
				"type": "unocc",
				"energy": -0.00907,
				"method": "rhf"
			},
			{
				"type": "unocc",
				"energy": 0.00978,
				"method": "rhf"
			}
		],
		"cosmo_sigma_profile": { 
			"-0.025": 0.0,
			"-0.024": 0.0,
			"-0.023": 0.0,
			"-0.022": 0.0,
			"-0.021": 0.0,
			"-0.02": 0.0,
			"-0.019": 0.0,
			"-0.018": 0.0,
			"-0.017": 0.0,
			"-0.016": 0.0,
			"-0.015": 0.0,
			"-0.014": 0.122743934743,
			"-0.013": 0.787583392253,
			"-0.012": 1.39144470518,
			"-0.011": 2.06230366041,
			"-0.01": 2.00906319548,
			"-0.009": 1.32763218883,
			"-0.008": 1.40868513756,
			"-0.007": 1.84463477231,
			"-0.006": 3.02647610527,
			"-0.005": 7.31997944717,
			"-0.004": 12.5447689156,
			"-0.003": 20.6855275462,
			"-0.002": 26.3542858136,
			"-0.001": 17.3840361527,
			"0.0": 19.2185357291,
			"0.001": 22.7565063281,
			"0.002": 24.4630364024,
			"0.003": 10.1128393784,
			"0.004": 2.20307817221,
			"0.005": 2.0859411892,
			"0.006": 3.19663825855,
			"0.007": 2.16105924507,
			"0.008": 3.4607055695,
			"0.009": 4.80162223978,
			"0.01": 4.30139151538,
			"0.011": 4.58228850539,
			"0.012": 1.7621069915,
			"0.013": 0.122160148128,
			"0.014": 0.0,
			"0.015": 0.0,
			"0.016": 0.0,
			"0.017": 0.0,
			"0.018": 0.0,
			"0.019": 0.0,
			"0.02": 0.0,
			"0.021": 0.0,
			"0.022": 0.0,
			"0.023": 0.0,
			"0.024": 0.0,
			"0.025": 0.0
		}
	}
}
