{
	 "smiles": "ClC1=C(CCC(=O)C2=CC=CC=C2)C=CC=C1", 
	 "Tm": 320.15, 
	 "num_atms": 30, 
	 "gaussian": { 
		 "optdone": 1, 
		 "sigma_profile": "yes", 
		 "theory": "DFT", 
		 "functional": "B3LYP", 
		 "basiset": "6-31G**", 
		 "properties": { 
			 "R2extent": 5457.5964, 
			 "electric_dipole_moment_norm": 3.35778177373, 
			 "electric_quadrupole_moment_norm": 13.7168378244, 
			 "total_energy": -1114.85457522, 
			 "HOMO_LUMO_gap": 0.18252, 
			 "cosmo_polarized_energy": -11.08, 
			 "cosmo_cavitation_energy": 35.51, 
			 "cosmo_dispersion_energy": -24.61, 
			 "cosmo_repulsion_energy": 1.9, 
			 "cosmo_total_nonelectrostatic_energy": 12.8, 
			 "SMD_solvation_energy": 5.88 
		},
		"coords": [
			{
				"x": 0.2457151828,
				"y": -4.1731552176,
				"z": 1.1329630458,
				"element": "Cl" 
			},
			{
				"x": -0.3943147467,
				"y": -3.2329679325,
				"z": -0.2196037343,
				"element": "C" 
			},
			{
				"x": -0.6228230987,
				"y": -1.8559928844,
				"z": -0.0762923891,
				"element": "C" 
			},
			{
				"x": -0.3321193676,
				"y": -1.1037175923,
				"z": 1.2031625323,
				"element": "C" 
			},
			{
				"x": 1.1573161492,
				"y": -0.6894886267,
				"z": 1.3675987914,
				"element": "C" 
			},
			{
				"x": 1.6187454319,
				"y": 0.3098452557,
				"z": 0.3134566287,
				"element": "C" 
			},
			{
				"x": 2.2905908572,
				"y": -0.0663421747,
				"z": -0.6357995587,
				"element": "O" 
			},
			{
				"x": 1.2169652873,
				"y": 1.7538828916,
				"z": 0.4298420434,
				"element": "C" 
			},
			{
				"x": 1.5464653149,
				"y": 2.6110346916,
				"z": -0.6334118271,
				"element": "C" 
			},
			{
				"x": 1.2071304559,
				"y": 3.959411616,
				"z": -0.5878062409,
				"element": "C" 
			},
			{
				"x": 0.5337481406,
				"y": 4.4738427112,
				"z": 0.5248135408,
				"element": "C" 
			},
			{
				"x": 0.2032883387,
				"y": 3.6332996569,
				"z": 1.5890572899,
				"element": "C" 
			},
			{
				"x": 0.5419174969,
				"y": 2.2804563886,
				"z": 1.5424681045,
				"element": "C" 
			},
			{
				"x": -1.1402747152,
				"y": -1.1822435465,
				"z": -1.1928399236,
				"element": "C" 
			},
			{
				"x": -1.4132482092,
				"y": -1.8405456142,
				"z": -2.3902657045,
				"element": "C" 
			},
			{
				"x": -1.1736723501,
				"y": -3.2103223924,
				"z": -2.4980876457,
				"element": "C" 
			},
			{
				"x": -0.6628061651,
				"y": -3.9121788,
				"z": -1.4073782401,
				"element": "C" 
			},
			{
				"x": -0.9648993288,
				"y": -0.2111322413,
				"z": 1.2381745833,
				"element": "H" 
			},
			{
				"x": -0.6030872334,
				"y": -1.7215349919,
				"z": 2.0644203026,
				"element": "H" 
			},
			{
				"x": 1.2971714168,
				"y": -0.2791709119,
				"z": 2.3739344451,
				"element": "H" 
			},
			{
				"x": 1.7960477414,
				"y": -1.5698639896,
				"z": 1.2715267119,
				"element": "H" 
			},
			{
				"x": 2.0726831487,
				"y": 2.1883938564,
				"z": -1.4827631092,
				"element": "H" 
			},
			{
				"x": 1.46651142,
				"y": 4.6125283473,
				"z": -1.416068273,
				"element": "H" 
			},
			{
				"x": 0.2693914135,
				"y": 5.526869245,
				"z": 0.5622906617,
				"element": "H" 
			},
			{
				"x": -0.3159546836,
				"y": 4.0305539207,
				"z": 2.4563243795,
				"element": "H" 
			},
			{
				"x": 0.2828151831,
				"y": 1.6430672593,
				"z": 2.3814747932,
				"element": "H" 
			},
			{
				"x": -1.3293302106,
				"y": -0.115076825,
				"z": -1.1112404536,
				"element": "H" 
			},
			{
				"x": -1.8121985916,
				"y": -1.2857321622,
				"z": -3.2339303867,
				"element": "H" 
			},
			{
				"x": -1.3829455652,
				"y": -3.7363854863,
				"z": -3.424594834,
				"element": "H" 
			},
			{
				"x": -0.4720287132,
				"y": -4.9778344508,
				"z": -1.4694255337,
				"element": "H" 
			}
		],
		 "valence_orbital": [ 
			{
				"type": "occ",
				"energy": -0.26332,
				"method": "rhf"
			},
			{
				"type": "occ",
				"energy": -0.25962,
				"method": "rhf"
			},
			{
				"type": "occ",
				"energy": -0.2554,
				"method": "rhf"
			},
			{
				"type": "occ",
				"energy": -0.24541,
				"method": "rhf"
			},
			{
				"type": "occ",
				"energy": -0.23973,
				"method": "rhf"
			},
			{
				"type": "unocc",
				"energy": -0.05721,
				"method": "rhf"
			},
			{
				"type": "unocc",
				"energy": -0.01239,
				"method": "rhf"
			},
			{
				"type": "unocc",
				"energy": -0.01014,
				"method": "rhf"
			},
			{
				"type": "unocc",
				"energy": -0.00893,
				"method": "rhf"
			},
			{
				"type": "unocc",
				"energy": 0.03201,
				"method": "rhf"
			}
		],
		"cosmo_sigma_profile": { 
			"-0.025": 0.0,
			"-0.024": 0.0,
			"-0.023": 0.0,
			"-0.022": 0.0,
			"-0.021": 0.0,
			"-0.02": 0.0,
			"-0.019": 0.0,
			"-0.018": 0.0,
			"-0.017": 0.0,
			"-0.016": 0.0,
			"-0.015": 0.0,
			"-0.014": 0.0,
			"-0.013": 0.0,
			"-0.012": 0.0,
			"-0.011": 0.0,
			"-0.01": 0.0,
			"-0.009": 0.000550968691173,
			"-0.008": 1.1528935771,
			"-0.007": 5.49448387317,
			"-0.006": 17.6951250146,
			"-0.005": 23.5887654952,
			"-0.004": 26.8645757157,
			"-0.003": 22.638548317,
			"-0.002": 20.8324737505,
			"-0.001": 18.5880450518,
			"0.0": 18.324901808,
			"0.001": 21.2672997925,
			"0.002": 22.8481894404,
			"0.003": 24.9705281482,
			"0.004": 28.6483746428,
			"0.005": 13.7885583029,
			"0.006": 3.40839847193,
			"0.007": 2.01600677703,
			"0.008": 1.85458050328,
			"0.009": 1.92015409682,
			"0.01": 1.95963649437,
			"0.011": 2.90593345282,
			"0.012": 3.59243938999,
			"0.013": 1.39620060641,
			"0.014": 0.109591579638,
			"0.015": 0.0,
			"0.016": 0.0,
			"0.017": 0.0,
			"0.018": 0.0,
			"0.019": 0.0,
			"0.02": 0.0,
			"0.021": 0.0,
			"0.022": 0.0,
			"0.023": 0.0,
			"0.024": 0.0,
			"0.025": 0.0
		}
	}
}
