{
	 "smiles": "CC1=CC(C)=C(C)C(=C1C)S(N)(=O)=O", 
	 "Tm": 423.15, 
	 "num_atms": 29, 
	 "gaussian": { 
		 "optdone": 1, 
		 "sigma_profile": "yes", 
		 "theory": "DFT", 
		 "functional": "B3LYP", 
		 "basiset": "6-31G**", 
		 "properties": { 
			 "R2extent": 3336.9011, 
			 "electric_dipole_moment_norm": 3.66520037242, 
			 "electric_quadrupole_moment_norm": 13.0050797053, 
			 "total_energy": -993.437629023, 
			 "HOMO_LUMO_gap": 0.20738, 
			 "cosmo_polarized_energy": -13.59, 
			 "cosmo_cavitation_energy": 31.08, 
			 "cosmo_dispersion_energy": -23.33, 
			 "cosmo_repulsion_energy": 1.76, 
			 "cosmo_total_nonelectrostatic_energy": 9.51, 
			 "SMD_solvation_energy": 5.01 
		},
		"coords": [
			{
				"x": 0.6930652885,
				"y": 2.2479178026,
				"z": 2.9702552298,
				"element": "C" 
			},
			{
				"x": 0.372101582,
				"y": 1.238598316,
				"z": 1.8883509175,
				"element": "C" 
			},
			{
				"x": -0.7184728487,
				"y": 0.3904365346,
				"z": 2.0711272797,
				"element": "C" 
			},
			{
				"x": -1.11757679,
				"y": -0.5497166484,
				"z": 1.1221242768,
				"element": "C" 
			},
			{
				"x": -2.3368473845,
				"y": -1.4019323749,
				"z": 1.3959442859,
				"element": "C" 
			},
			{
				"x": -0.3708984618,
				"y": -0.6828326081,
				"z": -0.0637190453,
				"element": "C" 
			},
			{
				"x": -0.8404151812,
				"y": -1.6802890491,
				"z": -1.1018193482,
				"element": "C" 
			},
			{
				"x": 0.7798170389,
				"y": 0.1263169598,
				"z": -0.2161426924,
				"element": "C" 
			},
			{
				"x": 1.1462046647,
				"y": 1.130059185,
				"z": 0.7115599386,
				"element": "C" 
			},
			{
				"x": 2.2917317684,
				"y": 2.1032971832,
				"z": 0.5117271246,
				"element": "C" 
			},
			{
				"x": 1.811434868,
				"y": -0.1518989287,
				"z": -1.6884743801,
				"element": "S" 
			},
			{
				"x": 2.0659604359,
				"y": -1.8359078226,
				"z": -1.6589401663,
				"element": "N" 
			},
			{
				"x": 3.1346206671,
				"y": 0.4505239182,
				"z": -1.4946873899,
				"element": "O" 
			},
			{
				"x": 1.0295832394,
				"y": 0.1488969836,
				"z": -2.8954869917,
				"element": "O" 
			},
			{
				"x": 0.55373601,
				"y": 3.2797793882,
				"z": 2.6267272273,
				"element": "H" 
			},
			{
				"x": 1.727070297,
				"y": 2.1628230149,
				"z": 3.3208731395,
				"element": "H" 
			},
			{
				"x": 0.0378041866,
				"y": 2.1004851294,
				"z": 3.8326724452,
				"element": "H" 
			},
			{
				"x": -1.2953047512,
				"y": 0.4775704468,
				"z": 2.9890487105,
				"element": "H" 
			},
			{
				"x": -3.15591696,
				"y": -1.1825755883,
				"z": 0.7002762932,
				"element": "H" 
			},
			{
				"x": -2.1194280297,
				"y": -2.4717783647,
				"z": 1.306436784,
				"element": "H" 
			},
			{
				"x": -2.7102572341,
				"y": -1.2217656941,
				"z": 2.4073325024,
				"element": "H" 
			},
			{
				"x": -0.5824304902,
				"y": -1.3726566587,
				"z": -2.114705671,
				"element": "H" 
			},
			{
				"x": -0.4068911078,
				"y": -2.6704981433,
				"z": -0.9227268199,
				"element": "H" 
			},
			{
				"x": -1.9266566558,
				"y": -1.7822953024,
				"z": -1.0626535151,
				"element": "H" 
			},
			{
				"x": 2.1688640581,
				"y": 2.9673019141,
				"z": 1.1648855059,
				"element": "H" 
			},
			{
				"x": 2.3565298782,
				"y": 2.4625088729,
				"z": -0.5143507014,
				"element": "H" 
			},
			{
				"x": 3.2588593294,
				"y": 1.6431912878,
				"z": 0.7361684967,
				"element": "H" 
			},
			{
				"x": 1.7721803945,
				"y": -2.2248717133,
				"z": -2.5514448256,
				"element": "H" 
			},
			{
				"x": 3.0596321882,
				"y": -1.9926880403,
				"z": -1.5084586108,
				"element": "H" 
			}
		],
		 "valence_orbital": [ 
			{
				"type": "occ",
				"energy": -0.30439,
				"method": "rhf"
			},
			{
				"type": "occ",
				"energy": -0.29792,
				"method": "rhf"
			},
			{
				"type": "occ",
				"energy": -0.28478,
				"method": "rhf"
			},
			{
				"type": "occ",
				"energy": -0.24973,
				"method": "rhf"
			},
			{
				"type": "occ",
				"energy": -0.23349,
				"method": "rhf"
			},
			{
				"type": "unocc",
				"energy": -0.02611,
				"method": "rhf"
			},
			{
				"type": "unocc",
				"energy": -0.00667,
				"method": "rhf"
			},
			{
				"type": "unocc",
				"energy": 0.06045,
				"method": "rhf"
			},
			{
				"type": "unocc",
				"energy": 0.07656,
				"method": "rhf"
			},
			{
				"type": "unocc",
				"energy": 0.08643,
				"method": "rhf"
			}
		],
		"cosmo_sigma_profile": { 
			"-0.025": 0.0,
			"-0.024": 0.0,
			"-0.023": 0.0,
			"-0.022": 0.0,
			"-0.021": 0.0,
			"-0.02": 0.0,
			"-0.019": 0.0,
			"-0.018": 0.0,
			"-0.017": 0.0,
			"-0.016": 0.0,
			"-0.015": 0.269334350394,
			"-0.014": 1.57841476488,
			"-0.013": 2.52973284281,
			"-0.012": 2.60872259042,
			"-0.011": 1.93977953297,
			"-0.01": 2.66966813046,
			"-0.009": 0.741136649205,
			"-0.008": 1.63422962886,
			"-0.007": 2.45025065569,
			"-0.006": 3.31446925497,
			"-0.005": 10.5528752795,
			"-0.004": 20.5318904358,
			"-0.003": 22.5559425086,
			"-0.002": 26.4514298269,
			"-0.001": 25.7041799189,
			"0.0": 29.0957567373,
			"0.001": 15.4013485095,
			"0.002": 9.63570510287,
			"0.003": 10.4296552986,
			"0.004": 13.161707782,
			"0.005": 6.98456343643,
			"0.006": 3.49636880741,
			"0.007": 3.09831449883,
			"0.008": 3.27325811306,
			"0.009": 5.33936763379,
			"0.01": 5.35138230428,
			"0.011": 8.17190802385,
			"0.012": 5.07383489647,
			"0.013": 0.0448402091738,
			"0.014": 0.0,
			"0.015": 0.0,
			"0.016": 0.0,
			"0.017": 0.0,
			"0.018": 0.0,
			"0.019": 0.0,
			"0.02": 0.0,
			"0.021": 0.0,
			"0.022": 0.0,
			"0.023": 0.0,
			"0.024": 0.0,
			"0.025": 0.0
		}
	}
}
