{
	 "smiles": "CC1=CN=C(NS(=O)(=O)C2=CC=C(N)C=C2)N=C1", 
	 "Tm": 535.15, 
	 "num_atms": 30, 
	 "gaussian": { 
		 "optdone": 1, 
		 "sigma_profile": "yes", 
		 "theory": "DFT", 
		 "functional": "B3LYP", 
		 "basiset": "6-31G**", 
		 "properties": { 
			 "R2extent": 6312.7566, 
			 "electric_dipole_moment_norm": 7.36648698159, 
			 "electric_quadrupole_moment_norm": 28.3420024005, 
			 "total_energy": -1193.98722211, 
			 "HOMO_LUMO_gap": 0.17697, 
			 "cosmo_polarized_energy": -22.27, 
			 "cosmo_cavitation_energy": 36.06, 
			 "cosmo_dispersion_energy": -26.39, 
			 "cosmo_repulsion_energy": 2.01, 
			 "cosmo_total_nonelectrostatic_energy": 11.68, 
			 "SMD_solvation_energy": 3.59 
		},
		"coords": [
			{
				"x": -2.701555488,
				"y": 4.4593570176,
				"z": -0.1571073263,
				"element": "C" 
			},
			{
				"x": -2.0824132764,
				"y": 3.0875034861,
				"z": -0.2121695934,
				"element": "C" 
			},
			{
				"x": -2.783828706,
				"y": 1.9258811922,
				"z": 0.1318781168,
				"element": "C" 
			},
			{
				"x": -2.265071232,
				"y": 0.7000405945,
				"z": 0.0567414234,
				"element": "N" 
			},
			{
				"x": -0.992149309,
				"y": 0.6309564488,
				"z": -0.3639327784,
				"element": "C" 
			},
			{
				"x": -0.4553875202,
				"y": -0.6504436782,
				"z": -0.4034777101,
				"element": "N" 
			},
			{
				"x": 0.8252727668,
				"y": -1.175909725,
				"z": -1.4163123016,
				"element": "S" 
			},
			{
				"x": 0.7561827304,
				"y": -0.4813059983,
				"z": -2.6994028566,
				"element": "O" 
			},
			{
				"x": 0.6929597309,
				"y": -2.6329339994,
				"z": -1.3222273001,
				"element": "O" 
			},
			{
				"x": 2.306197868,
				"y": -0.6793918549,
				"z": -0.5747604728,
				"element": "C" 
			},
			{
				"x": 2.9122957575,
				"y": 0.5417853286,
				"z": -0.8845086879,
				"element": "C" 
			},
			{
				"x": 4.0830111061,
				"y": 0.908237779,
				"z": -0.2357799314,
				"element": "C" 
			},
			{
				"x": 4.6669882004,
				"y": 0.0622422083,
				"z": 0.728625029,
				"element": "C" 
			},
			{
				"x": 5.8608794862,
				"y": 0.4073914807,
				"z": 1.337369707,
				"element": "N" 
			},
			{
				"x": 4.0430441457,
				"y": -1.1675457567,
				"z": 1.0214638031,
				"element": "C" 
			},
			{
				"x": 2.8726796321,
				"y": -1.5366820755,
				"z": 0.3739874298,
				"element": "C" 
			},
			{
				"x": -0.2020259106,
				"y": 1.6580379223,
				"z": -0.6941097658,
				"element": "N" 
			},
			{
				"x": -0.7645220249,
				"y": 2.866699339,
				"z": -0.6207637237,
				"element": "C" 
			},
			{
				"x": -3.2853335603,
				"y": 4.6737559313,
				"z": -1.0605038241,
				"element": "H" 
			},
			{
				"x": -1.9357147325,
				"y": 5.2359747836,
				"z": -0.0715739116,
				"element": "H" 
			},
			{
				"x": -3.3774203893,
				"y": 4.5591636562,
				"z": 0.6980809704,
				"element": "H" 
			},
			{
				"x": -3.8141685298,
				"y": 1.9869751926,
				"z": 0.4829020929,
				"element": "H" 
			},
			{
				"x": -1.1166142687,
				"y": -1.3987854156,
				"z": -0.2248146432,
				"element": "H" 
			},
			{
				"x": 2.457450374,
				"y": 1.1914497354,
				"z": -1.6220587966,
				"element": "H" 
			},
			{
				"x": 4.5615341265,
				"y": 1.8536727077,
				"z": -0.4773599986,
				"element": "H" 
			},
			{
				"x": 6.1122299977,
				"y": 1.3847256526,
				"z": 1.3279419165,
				"element": "H" 
			},
			{
				"x": 6.0830544755,
				"y": -0.0588884419,
				"z": 2.2043756635,
				"element": "H" 
			},
			{
				"x": 4.4913609421,
				"y": -1.8354151322,
				"z": 1.7521853347,
				"element": "H" 
			},
			{
				"x": 2.402315581,
				"y": -2.4903968567,
				"z": 0.5867636307,
				"element": "H" 
			},
			{
				"x": -0.1258519732,
				"y": 3.7069484779,
				"z": -0.8934514955,
				"element": "H" 
			}
		],
		 "valence_orbital": [ 
			{
				"type": "occ",
				"energy": -0.29242,
				"method": "rhf"
			},
			{
				"type": "occ",
				"energy": -0.263,
				"method": "rhf"
			},
			{
				"type": "occ",
				"energy": -0.25286,
				"method": "rhf"
			},
			{
				"type": "occ",
				"energy": -0.2413,
				"method": "rhf"
			},
			{
				"type": "occ",
				"energy": -0.21784,
				"method": "rhf"
			},
			{
				"type": "unocc",
				"energy": -0.04087,
				"method": "rhf"
			},
			{
				"type": "unocc",
				"energy": -0.01884,
				"method": "rhf"
			},
			{
				"type": "unocc",
				"energy": -0.01356,
				"method": "rhf"
			},
			{
				"type": "unocc",
				"energy": -0.00955,
				"method": "rhf"
			},
			{
				"type": "unocc",
				"energy": 0.06011,
				"method": "rhf"
			}
		],
		"cosmo_sigma_profile": { 
			"-0.025": 0.0,
			"-0.024": 0.0,
			"-0.023": 0.0,
			"-0.022": 0.0,
			"-0.021": 0.0,
			"-0.02": 0.0,
			"-0.019": 0.0,
			"-0.018": 0.0,
			"-0.017": 0.0,
			"-0.016": 0.0,
			"-0.015": 0.193289590943,
			"-0.014": 1.2003227975,
			"-0.013": 3.49456228314,
			"-0.012": 3.56966597698,
			"-0.011": 3.70526472114,
			"-0.01": 4.73985983074,
			"-0.009": 3.14025152199,
			"-0.008": 5.07158899357,
			"-0.007": 9.93661602846,
			"-0.006": 13.7543293656,
			"-0.005": 18.5324244532,
			"-0.004": 17.4835887165,
			"-0.003": 14.2854557963,
			"-0.002": 18.2338688034,
			"-0.001": 24.1676658963,
			"0.0": 21.3292431819,
			"0.001": 14.4496832168,
			"0.002": 14.429002731,
			"0.003": 17.551082336,
			"0.004": 18.3320599716,
			"0.005": 8.15757099933,
			"0.006": 7.34831549755,
			"0.007": 7.3052629517,
			"0.008": 5.9972352766,
			"0.009": 5.22592034185,
			"0.01": 10.9771012027,
			"0.011": 11.5456594608,
			"0.012": 2.51493675825,
			"0.013": 0.889491311534,
			"0.014": 0.209580087682,
			"0.015": 0.0,
			"0.016": 0.0,
			"0.017": 0.0,
			"0.018": 0.0,
			"0.019": 0.0,
			"0.02": 0.0,
			"0.021": 0.0,
			"0.022": 0.0,
			"0.023": 0.0,
			"0.024": 0.0,
			"0.025": 0.0
		}
	}
}
