{
	 "smiles": "BrC1=NC=CN1C(C1=CC=CC=C1)(C1=CC=CC=C1)C1=CC=CC=C1", 
	 "Tm": 478.15, 
	 "num_atms": 42, 
	 "gaussian": { 
		 "optdone": 1, 
		 "sigma_profile": "yes", 
		 "theory": "DFT", 
		 "functional": "B3LYP", 
		 "basiset": "6-31G**", 
		 "properties": { 
			 "R2extent": 8792.8389, 
			 "electric_dipole_moment_norm": 4.52637335071, 
			 "electric_quadrupole_moment_norm": 19.5581426713, 
			 "total_energy": -3529.4579153, 
			 "HOMO_LUMO_gap": 0.19289, 
			 "cosmo_polarized_energy": -12.08, 
			 "cosmo_cavitation_energy": 44.94, 
			 "cosmo_dispersion_energy": -30.4, 
			 "cosmo_repulsion_energy": 2.3, 
			 "cosmo_total_nonelectrostatic_energy": 16.84, 
			 "SMD_solvation_energy": 5.31 
		},
		"coords": [
			{
				"x": -0.6730311171,
				"y": 3.9476091826,
				"z": -0.2688454813,
				"element": "Br" 
			},
			{
				"x": -1.9495804231,
				"y": 2.5784353898,
				"z": -0.501969288,
				"element": "C" 
			},
			{
				"x": -3.1648828693,
				"y": 2.8386291682,
				"z": -0.9080618057,
				"element": "N" 
			},
			{
				"x": -3.7923796256,
				"y": 1.6157160149,
				"z": -0.946062723,
				"element": "C" 
			},
			{
				"x": -2.9367996517,
				"y": 0.6200099488,
				"z": -0.5627119148,
				"element": "C" 
			},
			{
				"x": -1.7192390077,
				"y": 1.2327565938,
				"z": -0.2777479896,
				"element": "N" 
			},
			{
				"x": -0.4868722371,
				"y": 0.5683092256,
				"z": 0.2734632717,
				"element": "C" 
			},
			{
				"x": -0.1668920901,
				"y": 1.2808738311,
				"z": 1.6153379052,
				"element": "C" 
			},
			{
				"x": 1.1191578207,
				"y": 1.6781208052,
				"z": 1.9952180131,
				"element": "C" 
			},
			{
				"x": 1.3430179089,
				"y": 2.2940472972,
				"z": 3.2295021176,
				"element": "C" 
			},
			{
				"x": 0.2865267832,
				"y": 2.5284103476,
				"z": 4.1065700012,
				"element": "C" 
			},
			{
				"x": -1.0041849858,
				"y": 2.146916984,
				"z": 3.7347725635,
				"element": "C" 
			},
			{
				"x": -1.2264334728,
				"y": 1.5337671599,
				"z": 2.5037069048,
				"element": "C" 
			},
			{
				"x": 0.6684106055,
				"y": 0.6131431488,
				"z": -0.758171186,
				"element": "C" 
			},
			{
				"x": 1.8566379929,
				"y": -0.0821350978,
				"z": -0.4708217387,
				"element": "C" 
			},
			{
				"x": 2.9130443861,
				"y": -0.1105755467,
				"z": -1.3782129709,
				"element": "C" 
			},
			{
				"x": 2.7979675375,
				"y": 0.5360940272,
				"z": -2.610919184,
				"element": "C" 
			},
			{
				"x": 1.6131477785,
				"y": 1.1982492698,
				"z": -2.9219294347,
				"element": "C" 
			},
			{
				"x": 0.5575492345,
				"y": 1.2356429546,
				"z": -2.0055064537,
				"element": "C" 
			},
			{
				"x": -0.8014013826,
				"y": -0.9424166831,
				"z": 0.5011206346,
				"element": "C" 
			},
			{
				"x": -0.9092030199,
				"y": -1.5170170185,
				"z": 1.7720333475,
				"element": "C" 
			},
			{
				"x": -1.1705639405,
				"y": -2.8835017478,
				"z": 1.9210285354,
				"element": "C" 
			},
			{
				"x": -1.3323674883,
				"y": -3.6986248433,
				"z": 0.8043055036,
				"element": "C" 
			},
			{
				"x": -1.2187063184,
				"y": -3.1390016336,
				"z": -0.4715046374,
				"element": "C" 
			},
			{
				"x": -0.9453416656,
				"y": -1.7820573467,
				"z": -0.619014628,
				"element": "C" 
			},
			{
				"x": -4.8265898803,
				"y": 1.5248906936,
				"z": -1.2474203324,
				"element": "H" 
			},
			{
				"x": -3.0757719458,
				"y": -0.4412154998,
				"z": -0.4621975892,
				"element": "H" 
			},
			{
				"x": 1.9557704316,
				"y": 1.5370812672,
				"z": 1.323442089,
				"element": "H" 
			},
			{
				"x": 2.350903638,
				"y": 2.6003110616,
				"z": 3.4948836939,
				"element": "H" 
			},
			{
				"x": 0.462346656,
				"y": 3.011221494,
				"z": 5.0634144634,
				"element": "H" 
			},
			{
				"x": -1.8429658358,
				"y": 2.332767464,
				"z": 4.3993886245,
				"element": "H" 
			},
			{
				"x": -2.2381705507,
				"y": 1.2557361586,
				"z": 2.2253213604,
				"element": "H" 
			},
			{
				"x": 1.9474533867,
				"y": -0.625524538,
				"z": 0.4642553939,
				"element": "H" 
			},
			{
				"x": 3.8207562215,
				"y": -0.6514495233,
				"z": -1.1262631183,
				"element": "H" 
			},
			{
				"x": 3.6175896955,
				"y": 0.510729763,
				"z": -3.3230158415,
				"element": "H" 
			},
			{
				"x": 1.4981927997,
				"y": 1.6912242122,
				"z": -3.8828989045,
				"element": "H" 
			},
			{
				"x": -0.3550662055,
				"y": 1.7462591894,
				"z": -2.2841231139,
				"element": "H" 
			},
			{
				"x": -0.7830125748,
				"y": -0.9080280774,
				"z": 2.6578438586,
				"element": "H" 
			},
			{
				"x": -1.2442525672,
				"y": -3.3040641348,
				"z": 2.9198271593,
				"element": "H" 
			},
			{
				"x": -1.5364865668,
				"y": -4.7588686991,
				"z": 0.9219412605,
				"element": "H" 
			},
			{
				"x": -1.3322096765,
				"y": -3.7617813925,
				"z": -1.3541809674,
				"element": "H" 
			},
			{
				"x": -0.839867778,
				"y": -1.3661908702,
				"z": -1.6156973987,
				"element": "H" 
			}
		],
		 "valence_orbital": [ 
			{
				"type": "occ",
				"energy": -0.2529,
				"method": "rhf"
			},
			{
				"type": "occ",
				"energy": -0.25184,
				"method": "rhf"
			},
			{
				"type": "occ",
				"energy": -0.24643,
				"method": "rhf"
			},
			{
				"type": "occ",
				"energy": -0.24108,
				"method": "rhf"
			},
			{
				"type": "occ",
				"energy": -0.21807,
				"method": "rhf"
			},
			{
				"type": "unocc",
				"energy": -0.02518,
				"method": "rhf"
			},
			{
				"type": "unocc",
				"energy": -0.01832,
				"method": "rhf"
			},
			{
				"type": "unocc",
				"energy": -0.01241,
				"method": "rhf"
			},
			{
				"type": "unocc",
				"energy": -0.00942,
				"method": "rhf"
			},
			{
				"type": "unocc",
				"energy": -0.00218,
				"method": "rhf"
			}
		],
		"cosmo_sigma_profile": { 
			"-0.025": 0.0,
			"-0.024": 0.0,
			"-0.023": 0.0,
			"-0.022": 0.0,
			"-0.021": 0.0,
			"-0.02": 0.0,
			"-0.019": 0.0,
			"-0.018": 0.0,
			"-0.017": 0.0,
			"-0.016": 0.0,
			"-0.015": 0.0,
			"-0.014": 0.0,
			"-0.013": 0.0,
			"-0.012": 0.0,
			"-0.011": 0.0,
			"-0.01": 0.0,
			"-0.009": 0.0,
			"-0.008": 0.142252827373,
			"-0.007": 2.40908188786,
			"-0.006": 17.8001926649,
			"-0.005": 30.5677382357,
			"-0.004": 37.4210338,
			"-0.003": 34.7231358827,
			"-0.002": 28.2324201208,
			"-0.001": 28.3568734277,
			"0.0": 22.6002469896,
			"0.001": 26.3317135517,
			"0.002": 25.562696836,
			"0.003": 30.3844246172,
			"0.004": 33.8387896471,
			"0.005": 25.3297172159,
			"0.006": 6.42043964263,
			"0.007": 1.9698768716,
			"0.008": 1.78988984147,
			"0.009": 1.63081517077,
			"0.01": 1.32071108545,
			"0.011": 1.28730798046,
			"0.012": 1.39237600884,
			"0.013": 0.96293472364,
			"0.014": 1.09777590915,
			"0.015": 0.9556802279,
			"0.016": 1.05067968526,
			"0.017": 0.169915875311,
			"0.018": 0.0,
			"0.019": 0.0,
			"0.02": 0.0,
			"0.021": 0.0,
			"0.022": 0.0,
			"0.023": 0.0,
			"0.024": 0.0,
			"0.025": 0.0
		}
	}
}
