{
	 "smiles": "CC1=C(C)C(=NN)N=C(N1)C1=CN=CC=C1", 
	 "Tm": 468.15, 
	 "num_atms": 29, 
	 "gaussian": { 
		 "optdone": 1, 
		 "sigma_profile": "yes", 
		 "theory": "DFT", 
		 "functional": "B3LYP", 
		 "basiset": "6-31G**", 
		 "properties": { 
			 "R2extent": 5067.0919, 
			 "electric_dipole_moment_norm": 5.47012230028, 
			 "electric_quadrupole_moment_norm": 17.173121078, 
			 "total_energy": -700.731681162, 
			 "HOMO_LUMO_gap": 0.11163, 
			 "cosmo_polarized_energy": -20.92, 
			 "cosmo_cavitation_energy": 32.58, 
			 "cosmo_dispersion_energy": -23.9, 
			 "cosmo_repulsion_energy": 1.86, 
			 "cosmo_total_nonelectrostatic_energy": 10.55, 
			 "SMD_solvation_energy": 3.18 
		},
		"coords": [
			{
				"x": 1.4516098826,
				"y": -2.1781892283,
				"z": -1.7647892611,
				"element": "C" 
			},
			{
				"x": 0.8407102629,
				"y": -1.0430758722,
				"z": -0.99605922,
				"element": "C" 
			},
			{
				"x": -0.4726087093,
				"y": -0.7644833882,
				"z": -0.8190228524,
				"element": "C" 
			},
			{
				"x": -1.6075973734,
				"y": -1.5744750894,
				"z": -1.3762085025,
				"element": "C" 
			},
			{
				"x": -0.8317840122,
				"y": 0.4132780895,
				"z": -0.0105329182,
				"element": "C" 
			},
			{
				"x": -2.0852877771,
				"y": 0.6706185373,
				"z": 0.199889965,
				"element": "N" 
			},
			{
				"x": -2.3781795332,
				"y": 1.7197752452,
				"z": 1.0470304562,
				"element": "N" 
			},
			{
				"x": 0.1793633044,
				"y": 1.2365347276,
				"z": 0.515070033,
				"element": "N" 
			},
			{
				"x": 1.4153816165,
				"y": 0.9228953793,
				"z": 0.3080778532,
				"element": "C" 
			},
			{
				"x": 1.7968336529,
				"y": -0.2054043345,
				"z": -0.3829780079,
				"element": "N" 
			},
			{
				"x": 2.5003814818,
				"y": 1.7859235458,
				"z": 0.8360789633,
				"element": "C" 
			},
			{
				"x": 2.257215616,
				"y": 3.1527721312,
				"z": 1.0557050528,
				"element": "C" 
			},
			{
				"x": 3.1685818889,
				"y": 4.0068038324,
				"z": 1.5246665533,
				"element": "N" 
			},
			{
				"x": 4.3862578978,
				"y": 3.5208576849,
				"z": 1.8052130754,
				"element": "C" 
			},
			{
				"x": 4.7379594136,
				"y": 2.1823464726,
				"z": 1.6331496253,
				"element": "C" 
			},
			{
				"x": 3.7781464114,
				"y": 1.3006334094,
				"z": 1.1410387061,
				"element": "C" 
			},
			{
				"x": 2.1273209947,
				"y": -1.8032126927,
				"z": -2.5457588542,
				"element": "H" 
			},
			{
				"x": 2.0446620793,
				"y": -2.8235060121,
				"z": -1.1039247285,
				"element": "H" 
			},
			{
				"x": 0.6981638579,
				"y": -2.796009016,
				"z": -2.2502216008,
				"element": "H" 
			},
			{
				"x": -2.2563928241,
				"y": -1.9137073894,
				"z": -0.5620549926,
				"element": "H" 
			},
			{
				"x": -1.2766262694,
				"y": -2.4420904031,
				"z": -1.9490313041,
				"element": "H" 
			},
			{
				"x": -2.237137155,
				"y": -0.9479088157,
				"z": -2.0170209062,
				"element": "H" 
			},
			{
				"x": -3.260008439,
				"y": 2.1337123103,
				"z": 0.7722154056,
				"element": "H" 
			},
			{
				"x": -1.6293301119,
				"y": 2.407557328,
				"z": 1.1175038297,
				"element": "H" 
			},
			{
				"x": 2.7550760072,
				"y": -0.2793656396,
				"z": -0.689595724,
				"element": "H" 
			},
			{
				"x": 1.2725099939,
				"y": 3.5526568196,
				"z": 0.8307594036,
				"element": "H" 
			},
			{
				"x": 5.1114805567,
				"y": 4.2359998909,
				"z": 2.1890275943,
				"element": "H" 
			},
			{
				"x": 5.7347693324,
				"y": 1.83791464,
				"z": 1.8893966822,
				"element": "H" 
			},
			{
				"x": 4.0134279535,
				"y": 0.2451478374,
				"z": 1.0327756735,
				"element": "H" 
			}
		],
		 "valence_orbital": [ 
			{
				"type": "occ",
				"energy": -0.26948,
				"method": "rhf"
			},
			{
				"type": "occ",
				"energy": -0.25936,
				"method": "rhf"
			},
			{
				"type": "occ",
				"energy": -0.25001,
				"method": "rhf"
			},
			{
				"type": "occ",
				"energy": -0.24528,
				"method": "rhf"
			},
			{
				"type": "occ",
				"energy": -0.1655,
				"method": "rhf"
			},
			{
				"type": "unocc",
				"energy": -0.05387,
				"method": "rhf"
			},
			{
				"type": "unocc",
				"energy": -0.03154,
				"method": "rhf"
			},
			{
				"type": "unocc",
				"energy": 0.00443,
				"method": "rhf"
			},
			{
				"type": "unocc",
				"energy": 0.0252,
				"method": "rhf"
			},
			{
				"type": "unocc",
				"energy": 0.0632,
				"method": "rhf"
			}
		],
		"cosmo_sigma_profile": { 
			"-0.025": 0.0,
			"-0.024": 0.0,
			"-0.023": 0.0,
			"-0.022": 0.0,
			"-0.021": 0.0,
			"-0.02": 0.0,
			"-0.019": 0.0,
			"-0.018": 0.0,
			"-0.017": 0.0,
			"-0.016": 0.257385478828,
			"-0.015": 0.94625083866,
			"-0.014": 1.03508009626,
			"-0.013": 1.63332553248,
			"-0.012": 1.17461072284,
			"-0.011": 2.69840144649,
			"-0.01": 2.92493403397,
			"-0.009": 2.97265058666,
			"-0.008": 4.95988370856,
			"-0.007": 9.39466026971,
			"-0.006": 13.8151023391,
			"-0.005": 15.1898558915,
			"-0.004": 13.3197806139,
			"-0.003": 16.9629242576,
			"-0.002": 18.139058402,
			"-0.001": 21.6505493191,
			"0.0": 21.8924718167,
			"0.001": 24.9957159112,
			"0.002": 20.1897403411,
			"0.003": 11.1598839607,
			"0.004": 8.0013347235,
			"0.005": 6.33198570364,
			"0.006": 3.99718026045,
			"0.007": 4.94931110165,
			"0.008": 4.44937854457,
			"0.009": 3.77887241741,
			"0.01": 4.96433294737,
			"0.011": 2.81591385901,
			"0.012": 3.01909883249,
			"0.013": 2.66081117797,
			"0.014": 3.09427581639,
			"0.015": 3.5010627421,
			"0.016": 1.80999069153,
			"0.017": 0.627339516543,
			"0.018": 0.021040144103,
			"0.019": 0.0,
			"0.02": 0.0,
			"0.021": 0.0,
			"0.022": 0.0,
			"0.023": 0.0,
			"0.024": 0.0,
			"0.025": 0.0
		}
	}
}
