{
	 "smiles": "SC1=NCC(=O)N1C1=CC=CC=C1", 
	 "Tm": 527.15, 
	 "num_atms": 21, 
	 "gaussian": { 
		 "optdone": 1, 
		 "sigma_profile": "yes", 
		 "theory": "DFT", 
		 "functional": "B3LYP", 
		 "basiset": "6-31G**", 
		 "properties": { 
			 "R2extent": 3013.4183, 
			 "electric_dipole_moment_norm": 2.00406924781, 
			 "electric_quadrupole_moment_norm": 8.85830396069, 
			 "total_energy": -930.688895631, 
			 "HOMO_LUMO_gap": 0.21397, 
			 "cosmo_polarized_energy": -11.43, 
			 "cosmo_cavitation_energy": 26.97, 
			 "cosmo_dispersion_energy": -20.06, 
			 "cosmo_repulsion_energy": 1.56, 
			 "cosmo_total_nonelectrostatic_energy": 8.47, 
			 "SMD_solvation_energy": 1.63 
		},
		"coords": [
			{
				"x": -0.5431175741,
				"y": -2.6315678244,
				"z": 1.2176894709,
				"element": "S" 
			},
			{
				"x": -1.7796790992,
				"y": -1.4653017643,
				"z": 0.7087332346,
				"element": "C" 
			},
			{
				"x": -2.9848040005,
				"y": -1.7755094976,
				"z": 0.4072642078,
				"element": "N" 
			},
			{
				"x": -3.6320156632,
				"y": -0.5292826217,
				"z": 0.0017493907,
				"element": "C" 
			},
			{
				"x": -2.5733218374,
				"y": 0.5687638503,
				"z": 0.0942989,
				"element": "C" 
			},
			{
				"x": -2.6463708833,
				"y": 1.7468539429,
				"z": -0.1743375427,
				"element": "O" 
			},
			{
				"x": -1.4338513995,
				"y": -0.1065989936,
				"z": 0.5801049381,
				"element": "N" 
			},
			{
				"x": -0.1822685029,
				"y": 0.5174625004,
				"z": 0.8626892876,
				"element": "C" 
			},
			{
				"x": 0.3993025612,
				"y": 0.3894286015,
				"z": 2.1291360044,
				"element": "C" 
			},
			{
				"x": 1.6240014003,
				"y": 1.0042503849,
				"z": 2.3907424356,
				"element": "C" 
			},
			{
				"x": 2.2516870639,
				"y": 1.7681688601,
				"z": 1.4058539839,
				"element": "C" 
			},
			{
				"x": 1.6530345241,
				"y": 1.9136357636,
				"z": 0.1523035036,
				"element": "C" 
			},
			{
				"x": 0.4402508255,
				"y": 1.2862561572,
				"z": -0.1267530141,
				"element": "C" 
			},
			{
				"x": -1.3869268781,
				"y": -3.6695584075,
				"z": 1.058914388,
				"element": "H" 
			},
			{
				"x": -4.0234597423,
				"y": -0.6003514151,
				"z": -1.0198113281,
				"element": "H" 
			},
			{
				"x": -4.4801191088,
				"y": -0.2906605768,
				"z": 0.6549386179,
				"element": "H" 
			},
			{
				"x": -0.1074232003,
				"y": -0.1792532722,
				"z": 2.9017036765,
				"element": "H" 
			},
			{
				"x": 2.0779163538,
				"y": 0.8962633656,
				"z": 3.3711645317,
				"element": "H" 
			},
			{
				"x": 3.2003465892,
				"y": 2.253098526,
				"z": 1.6154788071,
				"element": "H" 
			},
			{
				"x": 2.1338437809,
				"y": 2.5127060027,
				"z": -0.6151112477,
				"element": "H" 
			},
			{
				"x": -0.0304252092,
				"y": 1.3934964178,
				"z": -1.0970522457,
				"element": "H" 
			}
		],
		 "valence_orbital": [ 
			{
				"type": "occ",
				"energy": -0.2915,
				"method": "rhf"
			},
			{
				"type": "occ",
				"energy": -0.26498,
				"method": "rhf"
			},
			{
				"type": "occ",
				"energy": -0.26324,
				"method": "rhf"
			},
			{
				"type": "occ",
				"energy": -0.25151,
				"method": "rhf"
			},
			{
				"type": "occ",
				"energy": -0.23736,
				"method": "rhf"
			},
			{
				"type": "unocc",
				"energy": -0.02339,
				"method": "rhf"
			},
			{
				"type": "unocc",
				"energy": -0.01811,
				"method": "rhf"
			},
			{
				"type": "unocc",
				"energy": -0.01573,
				"method": "rhf"
			},
			{
				"type": "unocc",
				"energy": 0.01221,
				"method": "rhf"
			},
			{
				"type": "unocc",
				"energy": 0.04013,
				"method": "rhf"
			}
		],
		"cosmo_sigma_profile": { 
			"-0.025": 0.0,
			"-0.024": 0.0,
			"-0.023": 0.0,
			"-0.022": 0.0,
			"-0.021": 0.0,
			"-0.02": 0.0,
			"-0.019": 0.0,
			"-0.018": 0.0,
			"-0.017": 0.0,
			"-0.016": 0.0,
			"-0.015": 0.0,
			"-0.014": 0.0,
			"-0.013": 0.0011849723439,
			"-0.012": 0.915521139408,
			"-0.011": 1.49807718222,
			"-0.01": 1.43086388123,
			"-0.009": 0.918780942935,
			"-0.008": 4.75624847796,
			"-0.007": 9.03101435168,
			"-0.006": 16.5342960626,
			"-0.005": 19.8554787336,
			"-0.004": 17.4470836188,
			"-0.003": 13.0292964147,
			"-0.002": 11.805339654,
			"-0.001": 10.5582053064,
			"0.0": 11.309683455,
			"0.001": 13.131571963,
			"0.002": 17.9478046393,
			"0.003": 14.8352753763,
			"0.004": 15.5304978212,
			"0.005": 8.1259650467,
			"0.006": 4.37342497587,
			"0.007": 2.4975918492,
			"0.008": 2.7933657825,
			"0.009": 3.47685088462,
			"0.01": 3.10066284288,
			"0.011": 4.79528649082,
			"0.012": 5.3428261017,
			"0.013": 1.56037791906,
			"0.014": 0.883182215975,
			"0.015": 0.914260068988,
			"0.016": 0.214760305937,
			"0.017": 0.0,
			"0.018": 0.0,
			"0.019": 0.0,
			"0.02": 0.0,
			"0.021": 0.0,
			"0.022": 0.0,
			"0.023": 0.0,
			"0.024": 0.0,
			"0.025": 0.0
		}
	}
}
