{
	 "smiles": "[O-][N+](=O)C1=CC2=C(OCCOCCOC3=C(OCCOCCO2)C=CC=C3)C=C1", 
	 "Tm": 465.15, 
	 "num_atms": 52, 
	 "gaussian": { 
		 "optdone": 1, 
		 "sigma_profile": "yes", 
		 "theory": "DFT", 
		 "functional": "B3LYP", 
		 "basiset": "6-31G**", 
		 "properties": { 
			 "R2extent": 15708.7691, 
			 "electric_dipole_moment_norm": 6.85559822481, 
			 "electric_quadrupole_moment_norm": 26.08335915, 
			 "total_energy": -1432.35185201, 
			 "HOMO_LUMO_gap": 0.13986, 
			 "cosmo_polarized_energy": -18.73, 
			 "cosmo_cavitation_energy": 54.59, 
			 "cosmo_dispersion_energy": -36.49, 
			 "cosmo_repulsion_energy": 2.71, 
			 "cosmo_total_nonelectrostatic_energy": 20.8, 
			 "SMD_solvation_energy": 11.61 
		},
		"coords": [
			{
				"x": -4.3452379308,
				"y": 4.1285428273,
				"z": 3.6558756926,
				"element": "O" 
			},
			{
				"x": -4.5234753671,
				"y": 4.2993566129,
				"z": 2.4485259157,
				"element": "N" 
			},
			{
				"x": -5.3469600943,
				"y": 5.0786833497,
				"z": 1.9686998032,
				"element": "O" 
			},
			{
				"x": -3.6959000187,
				"y": 3.5206537426,
				"z": 1.5179427932,
				"element": "C" 
			},
			{
				"x": -2.762958,
				"y": 2.6279242663,
				"z": 2.0531455974,
				"element": "C" 
			},
			{
				"x": -1.9715304262,
				"y": 1.8829875207,
				"z": 1.1818070612,
				"element": "C" 
			},
			{
				"x": -2.1242272892,
				"y": 2.0535318199,
				"z": -0.2179227742,
				"element": "C" 
			},
			{
				"x": -1.3910069241,
				"y": 1.2880572091,
				"z": -1.0812991679,
				"element": "O" 
			},
			{
				"x": -0.0354365975,
				"y": 1.7178846507,
				"z": -1.3102292442,
				"element": "C" 
			},
			{
				"x": 0.6630567594,
				"y": 0.5723226915,
				"z": -2.0259803417,
				"element": "C" 
			},
			{
				"x": 1.8690112839,
				"y": 1.0923633982,
				"z": -2.5743296477,
				"element": "O" 
			},
			{
				"x": 2.6328348237,
				"y": 0.1489869656,
				"z": -3.3014848534,
				"element": "C" 
			},
			{
				"x": 3.6959405141,
				"y": -0.5464992994,
				"z": -2.4626327178,
				"element": "C" 
			},
			{
				"x": 3.0426402623,
				"y": -1.3098430654,
				"z": -1.4540740768,
				"element": "O" 
			},
			{
				"x": 3.8016209902,
				"y": -1.9155649343,
				"z": -0.4938906187,
				"element": "C" 
			},
			{
				"x": 3.1441761056,
				"y": -2.2308035863,
				"z": 0.7142791806,
				"element": "C" 
			},
			{
				"x": 1.8488328489,
				"y": -1.796185702,
				"z": 0.8866719097,
				"element": "O" 
			},
			{
				"x": 0.8284076056,
				"y": -2.8007034681,
				"z": 0.9673033762,
				"element": "C" 
			},
			{
				"x": -0.4778041248,
				"y": -2.132561521,
				"z": 1.3663626823,
				"element": "C" 
			},
			{
				"x": -0.5185905805,
				"y": -1.7600376606,
				"z": 2.7413799099,
				"element": "O" 
			},
			{
				"x": 0.0630056616,
				"y": -0.5096180897,
				"z": 3.0862757389,
				"element": "C" 
			},
			{
				"x": -0.9057469829,
				"y": 0.6560262553,
				"z": 2.9541140721,
				"element": "C" 
			},
			{
				"x": -1.0407350952,
				"y": 0.9724640299,
				"z": 1.5638023736,
				"element": "O" 
			},
			{
				"x": 3.8335113288,
				"y": -2.8915489099,
				"z": 1.7287928838,
				"element": "C" 
			},
			{
				"x": 5.1773816141,
				"y": -3.2376560038,
				"z": 1.5655974364,
				"element": "C" 
			},
			{
				"x": 5.8337479454,
				"y": -2.9049763286,
				"z": 0.382831132,
				"element": "C" 
			},
			{
				"x": 5.1531738899,
				"y": -2.2421103599,
				"z": -0.6426288696,
				"element": "C" 
			},
			{
				"x": -3.0692532416,
				"y": 2.9490639682,
				"z": -0.7129705621,
				"element": "C" 
			},
			{
				"x": -3.8720389102,
				"y": 3.6944838002,
				"z": 0.1506486659,
				"element": "C" 
			},
			{
				"x": -2.6857552129,
				"y": 2.5392353962,
				"z": 3.1274711466,
				"element": "H" 
			},
			{
				"x": 0.4602197517,
				"y": 1.949628316,
				"z": -0.3621496219,
				"element": "H" 
			},
			{
				"x": -0.0308114934,
				"y": 2.6140021918,
				"z": -1.944142612,
				"element": "H" 
			},
			{
				"x": 0.8637055741,
				"y": -0.2475391448,
				"z": -1.3292644311,
				"element": "H" 
			},
			{
				"x": 0.0030843865,
				"y": 0.2024156119,
				"z": -2.826744744,
				"element": "H" 
			},
			{
				"x": 3.1449966892,
				"y": 0.6953155515,
				"z": -4.1034031992,
				"element": "H" 
			},
			{
				"x": 1.982988632,
				"y": -0.6044916968,
				"z": -3.7704693463,
				"element": "H" 
			},
			{
				"x": 4.3603341596,
				"y": 0.1941151181,
				"z": -1.9977952232,
				"element": "H" 
			},
			{
				"x": 4.2988283413,
				"y": -1.1898787783,
				"z": -3.1216597534,
				"element": "H" 
			},
			{
				"x": 1.0952526951,
				"y": -3.5637181625,
				"z": 1.709440118,
				"element": "H" 
			},
			{
				"x": 0.713217794,
				"y": -3.2904556714,
				"z": -0.0110760448,
				"element": "H" 
			},
			{
				"x": -0.6808658733,
				"y": -1.2784764581,
				"z": 0.7110350095,
				"element": "H" 
			},
			{
				"x": -1.2847307115,
				"y": -2.862395708,
				"z": 1.2340564782,
				"element": "H" 
			},
			{
				"x": 0.9689353999,
				"y": -0.3108303717,
				"z": 2.5047817654,
				"element": "H" 
			},
			{
				"x": 0.3431600725,
				"y": -0.5894786194,
				"z": 4.1431758791,
				"element": "H" 
			},
			{
				"x": -1.8807388917,
				"y": 0.3786196746,
				"z": 3.3739515169,
				"element": "H" 
			},
			{
				"x": -0.5204155752,
				"y": 1.5303699868,
				"z": 3.4986530309,
				"element": "H" 
			},
			{
				"x": 3.3127836845,
				"y": -3.1070725861,
				"z": 2.6571238163,
				"element": "H" 
			},
			{
				"x": 5.7064133896,
				"y": -3.7476356348,
				"z": 2.3645345227,
				"element": "H" 
			},
			{
				"x": 6.8815232142,
				"y": -3.1567078318,
				"z": 0.2487636543,
				"element": "H" 
			},
			{
				"x": 5.6751926756,
				"y": -1.9936350628,
				"z": -1.5597353043,
				"element": "H" 
			},
			{
				"x": -3.170509476,
				"y": 3.0419581149,
				"z": -1.7890630064,
				"element": "H" 
			},
			{
				"x": -4.6124492763,
				"y": 4.3945315854,
				"z": -0.2130970015,
				"element": "H" 
			}
		],
		 "valence_orbital": [ 
			{
				"type": "occ",
				"energy": -0.25993,
				"method": "rhf"
			},
			{
				"type": "occ",
				"energy": -0.2581,
				"method": "rhf"
			},
			{
				"type": "occ",
				"energy": -0.24696,
				"method": "rhf"
			},
			{
				"type": "occ",
				"energy": -0.23817,
				"method": "rhf"
			},
			{
				"type": "occ",
				"energy": -0.22212,
				"method": "rhf"
			},
			{
				"type": "unocc",
				"energy": -0.08226,
				"method": "rhf"
			},
			{
				"type": "unocc",
				"energy": -0.01337,
				"method": "rhf"
			},
			{
				"type": "unocc",
				"energy": -0.00602,
				"method": "rhf"
			},
			{
				"type": "unocc",
				"energy": 0.00472,
				"method": "rhf"
			},
			{
				"type": "unocc",
				"energy": 0.01102,
				"method": "rhf"
			}
		],
		"cosmo_sigma_profile": { 
			"-0.025": 0.0,
			"-0.024": 0.0,
			"-0.023": 0.0,
			"-0.022": 0.0,
			"-0.021": 0.0,
			"-0.02": 0.0,
			"-0.019": 0.0,
			"-0.018": 0.0,
			"-0.017": 0.0,
			"-0.016": 0.0,
			"-0.015": 0.0,
			"-0.014": 0.0,
			"-0.013": 0.0,
			"-0.012": 0.0,
			"-0.011": 0.0,
			"-0.01": 0.0,
			"-0.009": 0.0,
			"-0.008": 1.75627895439,
			"-0.007": 8.62654206796,
			"-0.006": 25.7156282102,
			"-0.005": 45.9515401534,
			"-0.004": 45.9158890182,
			"-0.003": 36.4093439016,
			"-0.002": 30.0060742017,
			"-0.001": 29.4196845317,
			"0.0": 28.5327336929,
			"0.001": 28.6883318518,
			"0.002": 24.534615235,
			"0.003": 22.7404496834,
			"0.004": 21.1494798606,
			"0.005": 17.9936964045,
			"0.006": 16.6156180859,
			"0.007": 12.9050550851,
			"0.008": 13.6512630241,
			"0.009": 8.76547814439,
			"0.01": 6.16665089568,
			"0.011": 2.48876889127,
			"0.012": 2.14438394701,
			"0.013": 1.51478011695,
			"0.014": 0.142948749253,
			"0.015": 0.0,
			"0.016": 0.0,
			"0.017": 0.0,
			"0.018": 0.0,
			"0.019": 0.0,
			"0.02": 0.0,
			"0.021": 0.0,
			"0.022": 0.0,
			"0.023": 0.0,
			"0.024": 0.0,
			"0.025": 0.0
		}
	}
}
