{
	 "smiles": "CC1=CC=C(S)C=C1", 
	 "Tm": 316.15, 
	 "num_atms": 16, 
	 "gaussian": { 
		 "optdone": 1, 
		 "sigma_profile": "yes", 
		 "theory": "DFT", 
		 "functional": "B3LYP", 
		 "basiset": "6-31G**", 
		 "properties": { 
			 "R2extent": 1800.408, 
			 "electric_dipole_moment_norm": 1.55542873189, 
			 "electric_quadrupole_moment_norm": 7.85645688463, 
			 "total_energy": -669.757167115, 
			 "HOMO_LUMO_gap": 0.20783, 
			 "cosmo_polarized_energy": -5.59, 
			 "cosmo_cavitation_energy": 21.04, 
			 "cosmo_dispersion_energy": -16.19, 
			 "cosmo_repulsion_energy": 1.29, 
			 "cosmo_total_nonelectrostatic_energy": 6.14, 
			 "SMD_solvation_energy": 3.19 
		},
		"coords": [
			{
				"x": 1.0661049348,
				"y": -1.3032079881,
				"z": -1.3915347841,
				"element": "C" 
			},
			{
				"x": 0.6766706238,
				"y": -0.3995248924,
				"z": -0.245541889,
				"element": "C" 
			},
			{
				"x": -0.35099861,
				"y": 0.5433474012,
				"z": -0.3845702542,
				"element": "C" 
			},
			{
				"x": -0.6984434331,
				"y": 1.4003006203,
				"z": 0.656815032,
				"element": "C" 
			},
			{
				"x": -0.0198568829,
				"y": 1.3329062682,
				"z": 1.8808176204,
				"element": "C" 
			},
			{
				"x": -0.519786433,
				"y": 2.4566145783,
				"z": 3.1796674336,
				"element": "S" 
			},
			{
				"x": 1.0056850269,
				"y": 0.3941663283,
				"z": 2.0371128775,
				"element": "C" 
			},
			{
				"x": 1.3426985268,
				"y": -0.4564536211,
				"z": 0.9840890195,
				"element": "C" 
			},
			{
				"x": 1.752474319,
				"y": -0.798252056,
				"z": -2.0831114511,
				"element": "H" 
			},
			{
				"x": 0.1918470559,
				"y": -1.6120495262,
				"z": -1.9734242446,
				"element": "H" 
			},
			{
				"x": 1.5697626216,
				"y": -2.206662232,
				"z": -1.0352300309,
				"element": "H" 
			},
			{
				"x": -0.8925973135,
				"y": 0.6098039911,
				"z": -1.3251958486,
				"element": "H" 
			},
			{
				"x": -1.5005278952,
				"y": 2.1197934092,
				"z": 0.5181268792,
				"element": "H" 
			},
			{
				"x": 0.3835704411,
				"y": 2.0581230141,
				"z": 4.095159426,
				"element": "H" 
			},
			{
				"x": 1.5423011913,
				"y": 0.3186574474,
				"z": 2.9787334983,
				"element": "H" 
			},
			{
				"x": 2.1410958265,
				"y": -1.1806627424,
				"z": 1.127386716,
				"element": "H" 
			}
		],
		 "valence_orbital": [ 
			{
				"type": "occ",
				"energy": -0.34252,
				"method": "rhf"
			},
			{
				"type": "occ",
				"energy": -0.3316,
				"method": "rhf"
			},
			{
				"type": "occ",
				"energy": -0.28718,
				"method": "rhf"
			},
			{
				"type": "occ",
				"energy": -0.25293,
				"method": "rhf"
			},
			{
				"type": "occ",
				"energy": -0.21211,
				"method": "rhf"
			},
			{
				"type": "unocc",
				"energy": -0.00428,
				"method": "rhf"
			},
			{
				"type": "unocc",
				"energy": -0.00014,
				"method": "rhf"
			},
			{
				"type": "unocc",
				"energy": 0.01782,
				"method": "rhf"
			},
			{
				"type": "unocc",
				"energy": 0.07228,
				"method": "rhf"
			},
			{
				"type": "unocc",
				"energy": 0.11027,
				"method": "rhf"
			}
		],
		"cosmo_sigma_profile": { 
			"-0.025": 0.0,
			"-0.024": 0.0,
			"-0.023": 0.0,
			"-0.022": 0.0,
			"-0.021": 0.0,
			"-0.02": 0.0,
			"-0.019": 0.0,
			"-0.018": 0.0,
			"-0.017": 0.0,
			"-0.016": 0.0,
			"-0.015": 0.0,
			"-0.014": 0.0,
			"-0.013": 0.0,
			"-0.012": 0.0,
			"-0.011": 0.250566973266,
			"-0.01": 2.24631536862,
			"-0.009": 2.53182223225,
			"-0.008": 1.78738614081,
			"-0.007": 2.85575798027,
			"-0.006": 5.64855199554,
			"-0.005": 9.82227599509,
			"-0.004": 15.4927332394,
			"-0.003": 14.2551990088,
			"-0.002": 12.677177187,
			"-0.001": 12.1377645111,
			"0.0": 14.9462777327,
			"0.001": 11.5848637942,
			"0.002": 8.72919296044,
			"0.003": 10.4541497425,
			"0.004": 10.980224063,
			"0.005": 14.3906249555,
			"0.006": 11.2951884883,
			"0.007": 2.93807232958,
			"0.008": 2.30771048557,
			"0.009": 2.18940399888,
			"0.01": 0.13952168516,
			"0.011": 0.0,
			"0.012": 0.0,
			"0.013": 0.0,
			"0.014": 0.0,
			"0.015": 0.0,
			"0.016": 0.0,
			"0.017": 0.0,
			"0.018": 0.0,
			"0.019": 0.0,
			"0.02": 0.0,
			"0.021": 0.0,
			"0.022": 0.0,
			"0.023": 0.0,
			"0.024": 0.0,
			"0.025": 0.0
		}
	}
}
