{
	 "smiles": "CCCCCCC(C)CCC", 
	 "Tm": 195.65, 
	 "num_atms": 35, 
	 "gaussian": { 
		 "optdone": 1, 
		 "sigma_profile": "yes", 
		 "theory": "DFT", 
		 "functional": "B3LYP", 
		 "basiset": "6-31G**", 
		 "properties": { 
			 "R2extent": 3970.5166, 
			 "electric_dipole_moment_norm": 0.116021765199, 
			 "electric_quadrupole_moment_norm": 0.340376526805, 
			 "total_energy": -433.667503304, 
			 "HOMO_LUMO_gap": 0.37565, 
			 "cosmo_polarized_energy": -0.8, 
			 "cosmo_cavitation_energy": 34.05, 
			 "cosmo_dispersion_energy": -23.83, 
			 "cosmo_repulsion_energy": 1.97, 
			 "cosmo_total_nonelectrostatic_energy": 12.18, 
			 "SMD_solvation_energy": 5.09 
		},
		"coords": [
			{
				"x": -0.4301836775,
				"y": 4.7980665053,
				"z": -2.9590810955,
				"element": "C" 
			},
			{
				"x": -1.6855446171,
				"y": 4.2228538212,
				"z": -2.2920970814,
				"element": "C" 
			},
			{
				"x": -1.7546843815,
				"y": 2.6865412474,
				"z": -2.2806400345,
				"element": "C" 
			},
			{
				"x": -0.6818228808,
				"y": 2.0007816578,
				"z": -1.4233705265,
				"element": "C" 
			},
			{
				"x": -0.8105012942,
				"y": 0.4692171055,
				"z": -1.4131892137,
				"element": "C" 
			},
			{
				"x": 0.2406115065,
				"y": -0.2706314739,
				"z": -0.551343026,
				"element": "C" 
			},
			{
				"x": -0.2241911083,
				"y": -0.6916127634,
				"z": 0.8590511499,
				"element": "C" 
			},
			{
				"x": -0.6954406068,
				"y": 0.4965959685,
				"z": 1.7117866376,
				"element": "C" 
			},
			{
				"x": 0.854277576,
				"y": -1.4870635801,
				"z": 1.6287645105,
				"element": "C" 
			},
			{
				"x": 1.3352386241,
				"y": -2.8054338038,
				"z": 0.9770661549,
				"element": "C" 
			},
			{
				"x": 2.6529965711,
				"y": -2.6979357196,
				"z": 0.197672371,
				"element": "C" 
			},
			{
				"x": -0.3383035442,
				"y": 4.4475479954,
				"z": -3.9939231935,
				"element": "H" 
			},
			{
				"x": -0.462200167,
				"y": 5.8924681202,
				"z": -2.9817002228,
				"element": "H" 
			},
			{
				"x": 0.4835788072,
				"y": 4.5085810796,
				"z": -2.4301135466,
				"element": "H" 
			},
			{
				"x": -1.7537632086,
				"y": 4.5945434486,
				"z": -1.260285902,
				"element": "H" 
			},
			{
				"x": -2.5718416731,
				"y": 4.6097210599,
				"z": -2.8113250413,
				"element": "H" 
			},
			{
				"x": -1.6864918256,
				"y": 2.3144217273,
				"z": -3.3134713962,
				"element": "H" 
			},
			{
				"x": -2.7449682559,
				"y": 2.3810671197,
				"z": -1.9153803403,
				"element": "H" 
			},
			{
				"x": 0.31787364,
				"y": 2.263010206,
				"z": -1.7941221617,
				"element": "H" 
			},
			{
				"x": -0.7357665859,
				"y": 2.3921385054,
				"z": -0.3992780436,
				"element": "H" 
			},
			{
				"x": -1.8209018308,
				"y": 0.187797934,
				"z": -1.0836468694,
				"element": "H" 
			},
			{
				"x": -0.7339187923,
				"y": 0.1193711488,
				"z": -2.4510416149,
				"element": "H" 
			},
			{
				"x": 0.5519010803,
				"y": -1.174818964,
				"z": -1.0853242126,
				"element": "H" 
			},
			{
				"x": 1.1438517165,
				"y": 0.350931436,
				"z": -0.4617713348,
				"element": "H" 
			},
			{
				"x": -1.0864989624,
				"y": -1.3643973238,
				"z": 0.7247673631,
				"element": "H" 
			},
			{
				"x": -1.0212660956,
				"y": 0.1605660009,
				"z": 2.7026070637,
				"element": "H" 
			},
			{
				"x": -1.536798017,
				"y": 1.0233931811,
				"z": 1.2521753648,
				"element": "H" 
			},
			{
				"x": 0.1141012175,
				"y": 1.2222384692,
				"z": 1.8587649815,
				"element": "H" 
			},
			{
				"x": 1.7193942394,
				"y": -0.832518754,
				"z": 1.8113293546,
				"element": "H" 
			},
			{
				"x": 0.4421247402,
				"y": -1.7125228023,
				"z": 2.6205751498,
				"element": "H" 
			},
			{
				"x": 1.4663581906,
				"y": -3.5614357926,
				"z": 1.7609820494,
				"element": "H" 
			},
			{
				"x": 0.5472462726,
				"y": -3.198176894,
				"z": 0.3200295776,
				"element": "H" 
			},
			{
				"x": 2.9391099714,
				"y": -3.6644731173,
				"z": -0.231427223,
				"element": "H" 
			},
			{
				"x": 3.467581853,
				"y": -2.3742369228,
				"z": 0.8557629226,
				"element": "H" 
			},
			{
				"x": 2.5898415184,
				"y": -1.9763958265,
				"z": -0.6225025708,
				"element": "H" 
			}
		],
		 "valence_orbital": [ 
			{
				"type": "occ",
				"energy": -0.3141,
				"method": "rhf"
			},
			{
				"type": "occ",
				"energy": -0.31211,
				"method": "rhf"
			},
			{
				"type": "occ",
				"energy": -0.30687,
				"method": "rhf"
			},
			{
				"type": "occ",
				"energy": -0.29729,
				"method": "rhf"
			},
			{
				"type": "occ",
				"energy": -0.28966,
				"method": "rhf"
			},
			{
				"type": "unocc",
				"energy": 0.08599,
				"method": "rhf"
			},
			{
				"type": "unocc",
				"energy": 0.09197,
				"method": "rhf"
			},
			{
				"type": "unocc",
				"energy": 0.10659,
				"method": "rhf"
			},
			{
				"type": "unocc",
				"energy": 0.11284,
				"method": "rhf"
			},
			{
				"type": "unocc",
				"energy": 0.11521,
				"method": "rhf"
			}
		],
		"cosmo_sigma_profile": { 
			"-0.025": 0.0,
			"-0.024": 0.0,
			"-0.023": 0.0,
			"-0.022": 0.0,
			"-0.021": 0.0,
			"-0.02": 0.0,
			"-0.019": 0.0,
			"-0.018": 0.0,
			"-0.017": 0.0,
			"-0.016": 0.0,
			"-0.015": 0.0,
			"-0.014": 0.0,
			"-0.013": 0.0,
			"-0.012": 0.0,
			"-0.011": 0.0,
			"-0.01": 0.0,
			"-0.009": 0.0,
			"-0.008": 0.0,
			"-0.007": 0.0,
			"-0.006": 0.0,
			"-0.005": 0.0,
			"-0.004": 0.0,
			"-0.003": 2.50023302614,
			"-0.002": 28.8334126269,
			"-0.001": 65.1755051457,
			"0.0": 69.3918479945,
			"0.001": 58.6900282807,
			"0.002": 33.4528146244,
			"0.003": 1.76396904764,
			"0.004": 0.0,
			"0.005": 0.0,
			"0.006": 0.0,
			"0.007": 0.0,
			"0.008": 0.0,
			"0.009": 0.0,
			"0.01": 0.0,
			"0.011": 0.0,
			"0.012": 0.0,
			"0.013": 0.0,
			"0.014": 0.0,
			"0.015": 0.0,
			"0.016": 0.0,
			"0.017": 0.0,
			"0.018": 0.0,
			"0.019": 0.0,
			"0.02": 0.0,
			"0.021": 0.0,
			"0.022": 0.0,
			"0.023": 0.0,
			"0.024": 0.0,
			"0.025": 0.0
		}
	}
}
