{
	 "smiles": "CCCCCOC(=O)C1=C(C)NC(=O)NC1C1=CC2=C(OCO2)C=C1", 
	 "Tm": 417.15, 
	 "num_atms": 47, 
	 "gaussian": { 
		 "optdone": 1, 
		 "sigma_profile": "yes", 
		 "theory": "DFT", 
		 "functional": "B3LYP", 
		 "basiset": "6-31G**", 
		 "properties": { 
			 "R2extent": 10874.0676, 
			 "electric_dipole_moment_norm": 2.54696125805, 
			 "electric_quadrupole_moment_norm": 21.1620224397, 
			 "total_energy": -1184.81971075, 
			 "HOMO_LUMO_gap": 0.17122, 
			 "cosmo_polarized_energy": -19.29, 
			 "cosmo_cavitation_energy": 49.49, 
			 "cosmo_dispersion_energy": -33.29, 
			 "cosmo_repulsion_energy": 2.59, 
			 "cosmo_total_nonelectrostatic_energy": 18.8, 
			 "SMD_solvation_energy": 9.66 
		},
		"coords": [
			{
				"x": 4.8977781676,
				"y": 1.4908167634,
				"z": -0.5097904429,
				"element": "C" 
			},
			{
				"x": 5.1042766757,
				"y": 0.4024122785,
				"z": -1.5697035905,
				"element": "C" 
			},
			{
				"x": 4.6134645205,
				"y": -0.9952309766,
				"z": -1.148493354,
				"element": "C" 
			},
			{
				"x": 3.1069456854,
				"y": -1.1258585801,
				"z": -0.8626965336,
				"element": "C" 
			},
			{
				"x": 2.2372379579,
				"y": -0.8893252642,
				"z": -2.0952876075,
				"element": "C" 
			},
			{
				"x": 0.8333583186,
				"y": -0.9869679395,
				"z": -1.7695623756,
				"element": "O" 
			},
			{
				"x": 0.285962703,
				"y": -2.2330986353,
				"z": -1.7836913024,
				"element": "C" 
			},
			{
				"x": 0.9348837198,
				"y": -3.2196190868,
				"z": -2.0992674952,
				"element": "O" 
			},
			{
				"x": -1.1336747871,
				"y": -2.1817706175,
				"z": -1.387070728,
				"element": "C" 
			},
			{
				"x": -1.9423204513,
				"y": -3.2794798783,
				"z": -1.416584518,
				"element": "C" 
			},
			{
				"x": -1.5679949669,
				"y": -4.6808999472,
				"z": -1.8131957324,
				"element": "C" 
			},
			{
				"x": -3.2734257715,
				"y": -3.1504372186,
				"z": -1.0546046077,
				"element": "N" 
			},
			{
				"x": -3.9573585195,
				"y": -1.9359642584,
				"z": -0.9148248729,
				"element": "C" 
			},
			{
				"x": -5.1680714752,
				"y": -1.9046615769,
				"z": -0.752036512,
				"element": "O" 
			},
			{
				"x": -3.1519303157,
				"y": -0.8405667605,
				"z": -1.0258779758,
				"element": "N" 
			},
			{
				"x": -1.6850457049,
				"y": -0.8451239083,
				"z": -0.8984002796,
				"element": "C" 
			},
			{
				"x": -1.2387564801,
				"y": -0.4816423106,
				"z": 0.5206148598,
				"element": "C" 
			},
			{
				"x": -1.4720245236,
				"y": -1.3752954293,
				"z": 1.5907389966,
				"element": "C" 
			},
			{
				"x": -1.0858985483,
				"y": -0.9682708265,
				"z": 2.8491824051,
				"element": "C" 
			},
			{
				"x": -0.4831741148,
				"y": 0.2688925793,
				"z": 3.078308029,
				"element": "C" 
			},
			{
				"x": -0.184400446,
				"y": 0.3984340323,
				"z": 4.4126047492,
				"element": "O" 
			},
			{
				"x": -0.7568198993,
				"y": -0.748608999,
				"z": 5.0530221323,
				"element": "C" 
			},
			{
				"x": -1.1845439845,
				"y": -1.6585519652,
				"z": 4.0339019369,
				"element": "O" 
			},
			{
				"x": -0.2397329158,
				"y": 1.1567397108,
				"z": 2.0510535214,
				"element": "C" 
			},
			{
				"x": -0.6344794183,
				"y": 0.7541116555,
				"z": 0.7604809379,
				"element": "C" 
			},
			{
				"x": 5.3831047459,
				"y": 1.2180897175,
				"z": 0.4345793019,
				"element": "H" 
			},
			{
				"x": 3.8371440484,
				"y": 1.6609686686,
				"z": -0.2969187081,
				"element": "H" 
			},
			{
				"x": 5.3226093081,
				"y": 2.4451571684,
				"z": -0.8378287228,
				"element": "H" 
			},
			{
				"x": 6.1740559337,
				"y": 0.3311817467,
				"z": -1.803488359,
				"element": "H" 
			},
			{
				"x": 4.6186004923,
				"y": 0.707132597,
				"z": -2.5060815387,
				"element": "H" 
			},
			{
				"x": 4.8903158411,
				"y": -1.7187897006,
				"z": -1.9270728633,
				"element": "H" 
			},
			{
				"x": 5.1598212408,
				"y": -1.3007022453,
				"z": -0.2465420867,
				"element": "H" 
			},
			{
				"x": 2.9016413987,
				"y": -2.1363385601,
				"z": -0.4943728081,
				"element": "H" 
			},
			{
				"x": 2.7981251425,
				"y": -0.4313326466,
				"z": -0.0730053869,
				"element": "H" 
			},
			{
				"x": 2.4726293612,
				"y": -1.6104432131,
				"z": -2.8825438579,
				"element": "H" 
			},
			{
				"x": 2.3521271181,
				"y": 0.1242723374,
				"z": -2.4866541795,
				"element": "H" 
			},
			{
				"x": -2.1331372579,
				"y": -4.9751296779,
				"z": -2.7061530953,
				"element": "H" 
			},
			{
				"x": -0.5045667882,
				"y": -4.7617691015,
				"z": -2.0165510809,
				"element": "H" 
			},
			{
				"x": -1.8420232637,
				"y": -5.3745708858,
				"z": -1.0089439505,
				"element": "H" 
			},
			{
				"x": -3.8824257343,
				"y": -3.9547967605,
				"z": -1.1019645491,
				"element": "H" 
			},
			{
				"x": -3.6285029923,
				"y": 0.0250705036,
				"z": -0.8132313933,
				"element": "H" 
			},
			{
				"x": -1.3114013985,
				"y": -0.0610739854,
				"z": -1.5616908193,
				"element": "H" 
			},
			{
				"x": -1.932605391,
				"y": -2.3442412294,
				"z": 1.4344288412,
				"element": "H" 
			},
			{
				"x": -0.0000473402,
				"y": -1.231414736,
				"z": 5.6794082487,
				"element": "H" 
			},
			{
				"x": -1.6220812784,
				"y": -0.4380850484,
				"z": 5.6558566402,
				"element": "H" 
			},
			{
				"x": 0.2338460968,
				"y": 2.1150425688,
				"z": 2.2319573051,
				"element": "H" 
			},
			{
				"x": -0.4554847089,
				"y": 1.4242396418,
				"z": -0.0754065779,
				"element": "H" 
			}
		],
		 "valence_orbital": [ 
			{
				"type": "occ",
				"energy": -0.26457,
				"method": "rhf"
			},
			{
				"type": "occ",
				"energy": -0.25804,
				"method": "rhf"
			},
			{
				"type": "occ",
				"energy": -0.24506,
				"method": "rhf"
			},
			{
				"type": "occ",
				"energy": -0.22563,
				"method": "rhf"
			},
			{
				"type": "occ",
				"energy": -0.20924,
				"method": "rhf"
			},
			{
				"type": "unocc",
				"energy": -0.03802,
				"method": "rhf"
			},
			{
				"type": "unocc",
				"energy": -0.00629,
				"method": "rhf"
			},
			{
				"type": "unocc",
				"energy": 0.00857,
				"method": "rhf"
			},
			{
				"type": "unocc",
				"energy": 0.06068,
				"method": "rhf"
			},
			{
				"type": "unocc",
				"energy": 0.07353,
				"method": "rhf"
			}
		],
		"cosmo_sigma_profile": { 
			"-0.025": 0.0,
			"-0.024": 0.0,
			"-0.023": 0.0,
			"-0.022": 0.0,
			"-0.021": 0.0,
			"-0.02": 0.0,
			"-0.019": 0.0,
			"-0.018": 0.0,
			"-0.017": 0.0,
			"-0.016": 0.0576386889216,
			"-0.015": 0.801401013744,
			"-0.014": 1.48741725774,
			"-0.013": 2.28144412147,
			"-0.012": 2.19094646443,
			"-0.011": 1.33660017275,
			"-0.01": 2.55638823814,
			"-0.009": 2.17468426898,
			"-0.008": 4.10833605049,
			"-0.007": 11.5976158411,
			"-0.006": 17.3735721779,
			"-0.005": 16.9596028478,
			"-0.004": 19.8049004368,
			"-0.003": 28.5721032664,
			"-0.002": 36.9872633916,
			"-0.001": 42.056745374,
			"0.0": 43.0155897944,
			"0.001": 35.9552130061,
			"0.002": 25.0016969546,
			"0.003": 20.8684564747,
			"0.004": 16.7234914759,
			"0.005": 11.0530632947,
			"0.006": 6.3151999133,
			"0.007": 5.62553645571,
			"0.008": 5.50562308859,
			"0.009": 6.42151937173,
			"0.01": 4.02972097133,
			"0.011": 3.09352162427,
			"0.012": 4.9488927695,
			"0.013": 5.76167806037,
			"0.014": 4.95445432828,
			"0.015": 0.184255941398,
			"0.016": 0.0,
			"0.017": 0.0,
			"0.018": 0.0,
			"0.019": 0.0,
			"0.02": 0.0,
			"0.021": 0.0,
			"0.022": 0.0,
			"0.023": 0.0,
			"0.024": 0.0,
			"0.025": 0.0
		}
	}
}
