{
	 "smiles": "COC1=CC=C(NCC(=O)NC2=CC=C(OC)C=C2)C=C1", 
	 "Tm": 405.15, 
	 "num_atms": 39, 
	 "gaussian": { 
		 "optdone": 1, 
		 "sigma_profile": "yes", 
		 "theory": "DFT", 
		 "functional": "B3LYP", 
		 "basiset": "6-31G**", 
		 "properties": { 
			 "R2extent": 10328.5996, 
			 "electric_dipole_moment_norm": 3.61102225139, 
			 "electric_quadrupole_moment_norm": 18.760405429, 
			 "total_energy": -955.718154134, 
			 "HOMO_LUMO_gap": 0.18755, 
			 "cosmo_polarized_energy": -18.78, 
			 "cosmo_cavitation_energy": 42.91, 
			 "cosmo_dispersion_energy": -30.7, 
			 "cosmo_repulsion_energy": 2.36, 
			 "cosmo_total_nonelectrostatic_energy": 14.56, 
			 "SMD_solvation_energy": 8.75 
		},
		"coords": [
			{
				"x": 3.5683906023,
				"y": -1.2291037497,
				"z": 4.0618804481,
				"element": "C" 
			},
			{
				"x": 3.2170844635,
				"y": 0.1414962028,
				"z": 3.9901962243,
				"element": "O" 
			},
			{
				"x": 2.1454879737,
				"y": 0.4880432664,
				"z": 3.2114602161,
				"element": "C" 
			},
			{
				"x": 1.3657797882,
				"y": -0.4056452189,
				"z": 2.4746767797,
				"element": "C" 
			},
			{
				"x": 0.2885128257,
				"y": 0.0589700887,
				"z": 1.7106320124,
				"element": "C" 
			},
			{
				"x": -0.0293261563,
				"y": 1.4206543948,
				"z": 1.6711291742,
				"element": "C" 
			},
			{
				"x": -1.0828827217,
				"y": 1.9288444263,
				"z": 0.874651873,
				"element": "N" 
			},
			{
				"x": -2.196145491,
				"y": 1.0630890366,
				"z": 0.5075315927,
				"element": "C" 
			},
			{
				"x": -2.0073692564,
				"y": 0.2817830989,
				"z": -0.8069309842,
				"element": "C" 
			},
			{
				"x": -2.7411412625,
				"y": -0.6648954847,
				"z": -1.0676913263,
				"element": "O" 
			},
			{
				"x": -1.0164427355,
				"y": 0.7797673605,
				"z": -1.6000156218,
				"element": "N" 
			},
			{
				"x": -0.5882543429,
				"y": 0.3400626604,
				"z": -2.8705187042,
				"element": "C" 
			},
			{
				"x": 0.4974998448,
				"y": 0.9961166018,
				"z": -3.4597653626,
				"element": "C" 
			},
			{
				"x": 0.9744582816,
				"y": 0.6207783627,
				"z": -4.7167419881,
				"element": "C" 
			},
			{
				"x": 0.3602676227,
				"y": -0.4310616915,
				"z": -5.4043288465,
				"element": "C" 
			},
			{
				"x": 0.7401142836,
				"y": -0.8853943596,
				"z": -6.6376919368,
				"element": "O" 
			},
			{
				"x": 1.8358478024,
				"y": -0.2509887734,
				"z": -7.2727481975,
				"element": "C" 
			},
			{
				"x": -0.7274102389,
				"y": -1.0904187728,
				"z": -4.8152501183,
				"element": "C" 
			},
			{
				"x": -1.2033838828,
				"y": -0.7169371867,
				"z": -3.565125683,
				"element": "C" 
			},
			{
				"x": 0.7650382859,
				"y": 2.3117532732,
				"z": 2.4160358811,
				"element": "C" 
			},
			{
				"x": 1.833009301,
				"y": 1.855215078,
				"z": 3.1735964045,
				"element": "C" 
			},
			{
				"x": 4.4332484414,
				"y": -1.2865666082,
				"z": 4.7249798685,
				"element": "H" 
			},
			{
				"x": 2.754321029,
				"y": -1.8367927213,
				"z": 4.4793206065,
				"element": "H" 
			},
			{
				"x": 3.8428723662,
				"y": -1.6312154747,
				"z": 3.0774138287,
				"element": "H" 
			},
			{
				"x": 1.5786714503,
				"y": -1.4680658373,
				"z": 2.4793441013,
				"element": "H" 
			},
			{
				"x": -0.2915798122,
				"y": -0.6599618342,
				"z": 1.1421959978,
				"element": "H" 
			},
			{
				"x": -1.3813171831,
				"y": 2.8443422456,
				"z": 1.1837006218,
				"element": "H" 
			},
			{
				"x": -2.4367816383,
				"y": 0.3224457008,
				"z": 1.281037321,
				"element": "H" 
			},
			{
				"x": -3.0892639829,
				"y": 1.6821924807,
				"z": 0.3714762461,
				"element": "H" 
			},
			{
				"x": -0.5123015161,
				"y": 1.5535301047,
				"z": -1.1788646944,
				"element": "H" 
			},
			{
				"x": 0.9836416242,
				"y": 1.8136212937,
				"z": -2.9322763293,
				"element": "H" 
			},
			{
				"x": 1.8178344727,
				"y": 1.1530042857,
				"z": -5.1402016569,
				"element": "H" 
			},
			{
				"x": 1.9686328405,
				"y": -0.7599164922,
				"z": -8.2289605239,
				"element": "H" 
			},
			{
				"x": 1.6393520772,
				"y": 0.8138055945,
				"z": -7.4569532275,
				"element": "H" 
			},
			{
				"x": 2.7584357011,
				"y": -0.3456133225,
				"z": -6.684383244,
				"element": "H" 
			},
			{
				"x": -1.193327433,
				"y": -1.9047268799,
				"z": -5.3608049644,
				"element": "H" 
			},
			{
				"x": -2.0416934041,
				"y": -1.2290437353,
				"z": -3.1133599581,
				"element": "H" 
			},
			{
				"x": 0.5380493765,
				"y": 3.3756064188,
				"z": 2.3990233188,
				"element": "H" 
			},
			{
				"x": 2.4412706028,
				"y": 2.5433261673,
				"z": 3.7516308513,
				"element": "H" 
			}
		],
		 "valence_orbital": [ 
			{
				"type": "occ",
				"energy": -0.25238,
				"method": "rhf"
			},
			{
				"type": "occ",
				"energy": -0.24661,
				"method": "rhf"
			},
			{
				"type": "occ",
				"energy": -0.24355,
				"method": "rhf"
			},
			{
				"type": "occ",
				"energy": -0.19631,
				"method": "rhf"
			},
			{
				"type": "occ",
				"energy": -0.19337,
				"method": "rhf"
			},
			{
				"type": "unocc",
				"energy": -0.00582,
				"method": "rhf"
			},
			{
				"type": "unocc",
				"energy": 0.00083,
				"method": "rhf"
			},
			{
				"type": "unocc",
				"energy": 0.0034,
				"method": "rhf"
			},
			{
				"type": "unocc",
				"energy": 0.02269,
				"method": "rhf"
			},
			{
				"type": "unocc",
				"energy": 0.05375,
				"method": "rhf"
			}
		],
		"cosmo_sigma_profile": { 
			"-0.025": 0.0,
			"-0.024": 0.0,
			"-0.023": 0.0,
			"-0.022": 0.0,
			"-0.021": 0.0,
			"-0.02": 0.0,
			"-0.019": 0.0,
			"-0.018": 0.0,
			"-0.017": 0.0,
			"-0.016": 0.0,
			"-0.015": 0.0,
			"-0.014": 0.0277700967284,
			"-0.013": 1.28333812443,
			"-0.012": 1.78483542675,
			"-0.011": 2.04521689485,
			"-0.01": 3.11817888873,
			"-0.009": 3.23372240737,
			"-0.008": 3.54004180968,
			"-0.007": 6.37981848868,
			"-0.006": 15.4803528074,
			"-0.005": 32.427989409,
			"-0.004": 33.0046513391,
			"-0.003": 34.5948819842,
			"-0.002": 22.4833878132,
			"-0.001": 16.9853013833,
			"0.0": 14.450968289,
			"0.001": 16.3103118725,
			"0.002": 16.8399305552,
			"0.003": 20.6438121735,
			"0.004": 23.9393503799,
			"0.005": 24.4498413227,
			"0.006": 16.6705206521,
			"0.007": 6.01359320948,
			"0.008": 4.48969749819,
			"0.009": 3.92145874477,
			"0.01": 4.41222775457,
			"0.011": 4.07716352537,
			"0.012": 2.12131988847,
			"0.013": 3.2606609854,
			"0.014": 2.50252558822,
			"0.015": 0.374890667372,
			"0.016": 0.0,
			"0.017": 0.0,
			"0.018": 0.0,
			"0.019": 0.0,
			"0.02": 0.0,
			"0.021": 0.0,
			"0.022": 0.0,
			"0.023": 0.0,
			"0.024": 0.0,
			"0.025": 0.0
		}
	}
}
