{
	 "smiles": "OC(=O)CCC(=O)C1=CC=C(C=C1)S(Cl)(=O)=O", 
	 "Tm": 400.15, 
	 "num_atms": 26, 
	 "gaussian": { 
		 "optdone": 1, 
		 "sigma_profile": "yes", 
		 "theory": "DFT", 
		 "functional": "B3LYP", 
		 "basiset": "6-31G**", 
		 "properties": { 
			 "R2extent": 8031.4247, 
			 "electric_dipole_moment_norm": 5.36449379905, 
			 "electric_quadrupole_moment_norm": 12.69582791, 
			 "total_energy": -1620.93728553, 
			 "HOMO_LUMO_gap": 0.17147, 
			 "cosmo_polarized_energy": -18.75, 
			 "cosmo_cavitation_energy": 35.14, 
			 "cosmo_dispersion_energy": -25.52, 
			 "cosmo_repulsion_energy": 1.95, 
			 "cosmo_total_nonelectrostatic_energy": 11.58, 
			 "SMD_solvation_energy": 6.09 
		},
		"coords": [
			{
				"x": -0.7132227846,
				"y": -3.4920533752,
				"z": -4.8237490775,
				"element": "O" 
			},
			{
				"x": -0.2871316599,
				"y": -2.41808898,
				"z": -4.1244464129,
				"element": "C" 
			},
			{
				"x": 0.8739406736,
				"y": -2.246048384,
				"z": -3.8224723594,
				"element": "O" 
			},
			{
				"x": -1.4241524557,
				"y": -1.4655499163,
				"z": -3.8145251291,
				"element": "C" 
			},
			{
				"x": -1.0186805514,
				"y": -0.4294480653,
				"z": -2.7716451919,
				"element": "C" 
			},
			{
				"x": -0.8758792035,
				"y": -1.0404934648,
				"z": -1.3830493127,
				"element": "C" 
			},
			{
				"x": -1.169440109,
				"y": -2.2062126458,
				"z": -1.1749040266,
				"element": "O" 
			},
			{
				"x": -0.3827024709,
				"y": -0.1753114356,
				"z": -0.2527568085,
				"element": "C" 
			},
			{
				"x": -0.0481090848,
				"y": 1.1763012637,
				"z": -0.4224346734,
				"element": "C" 
			},
			{
				"x": 0.3950081305,
				"y": 1.9367648172,
				"z": 0.6581034249,
				"element": "C" 
			},
			{
				"x": 0.4981530819,
				"y": 1.3195445413,
				"z": 1.9038541362,
				"element": "C" 
			},
			{
				"x": 0.1788506897,
				"y": -0.0251013375,
				"z": 2.1046140562,
				"element": "C" 
			},
			{
				"x": -0.2629263547,
				"y": -0.7665498266,
				"z": 1.0148221819,
				"element": "C" 
			},
			{
				"x": 1.0857829383,
				"y": 2.2845056343,
				"z": 3.2932740423,
				"element": "S" 
			},
			{
				"x": -0.7520402754,
				"y": 3.0379988843,
				"z": 4.0707368739,
				"element": "Cl" 
			},
			{
				"x": 1.8236516419,
				"y": 3.4399009644,
				"z": 2.7993259664,
				"element": "O" 
			},
			{
				"x": 1.6224173113,
				"y": 1.3889804926,
				"z": 4.3093610005,
				"element": "O" 
			},
			{
				"x": 0.0733963625,
				"y": -4.0376212577,
				"z": -4.9928528491,
				"element": "H" 
			},
			{
				"x": -1.7084272596,
				"y": -0.9740110869,
				"z": -4.752561792,
				"element": "H" 
			},
			{
				"x": -2.286381248,
				"y": -2.0494939748,
				"z": -3.4838989181,
				"element": "H" 
			},
			{
				"x": -0.0665291217,
				"y": 0.0317075022,
				"z": -3.0555156505,
				"element": "H" 
			},
			{
				"x": -1.7620755054,
				"y": 0.3766947829,
				"z": -2.7220259404,
				"element": "H" 
			},
			{
				"x": -0.1250392677,
				"y": 1.6465744218,
				"z": -1.3963349483,
				"element": "H" 
			},
			{
				"x": 0.6649388247,
				"y": 2.9799244986,
				"z": 0.5398456842,
				"element": "H" 
			},
			{
				"x": 0.2849984829,
				"y": -0.47233815,
				"z": 3.0864987031,
				"element": "H" 
			},
			{
				"x": -0.5206007849,
				"y": -1.814675903,
				"z": 1.1194370208,
				"element": "H" 
			}
		],
		 "valence_orbital": [ 
			{
				"type": "occ",
				"energy": -0.31818,
				"method": "rhf"
			},
			{
				"type": "occ",
				"energy": -0.29783,
				"method": "rhf"
			},
			{
				"type": "occ",
				"energy": -0.29456,
				"method": "rhf"
			},
			{
				"type": "occ",
				"energy": -0.28606,
				"method": "rhf"
			},
			{
				"type": "occ",
				"energy": -0.27696,
				"method": "rhf"
			},
			{
				"type": "unocc",
				"energy": -0.10549,
				"method": "rhf"
			},
			{
				"type": "unocc",
				"energy": -0.07328,
				"method": "rhf"
			},
			{
				"type": "unocc",
				"energy": -0.04515,
				"method": "rhf"
			},
			{
				"type": "unocc",
				"energy": -0.00459,
				"method": "rhf"
			},
			{
				"type": "unocc",
				"energy": 0.00301,
				"method": "rhf"
			}
		],
		"cosmo_sigma_profile": { 
			"-0.025": 0.0,
			"-0.024": 0.0,
			"-0.023": 0.0,
			"-0.022": 0.0,
			"-0.021": 0.0,
			"-0.02": 0.0,
			"-0.019": 0.0525996910749,
			"-0.018": 0.65073759371,
			"-0.017": 1.06239917989,
			"-0.016": 0.89336250866,
			"-0.015": 0.655180089987,
			"-0.014": 0.709564861073,
			"-0.013": 0.786645458033,
			"-0.012": 0.689028663018,
			"-0.011": 0.692266257977,
			"-0.01": 0.929510432266,
			"-0.009": 2.91339392428,
			"-0.008": 10.1178194378,
			"-0.007": 16.4000851172,
			"-0.006": 14.9563845881,
			"-0.005": 15.9676128919,
			"-0.004": 15.6340305461,
			"-0.003": 15.831915015,
			"-0.002": 16.0547992309,
			"-0.001": 20.2950940867,
			"0.0": 25.060550457,
			"0.001": 14.8959031011,
			"0.002": 13.7168331228,
			"0.003": 19.4570390214,
			"0.004": 10.7199765791,
			"0.005": 8.91231712225,
			"0.006": 7.55535402906,
			"0.007": 11.8005410775,
			"0.008": 13.4746796881,
			"0.009": 7.92465232795,
			"0.01": 5.46577045852,
			"0.011": 5.61564543707,
			"0.012": 3.26788756824,
			"0.013": 0.113327991529,
			"0.014": 0.0,
			"0.015": 0.0,
			"0.016": 0.0,
			"0.017": 0.0,
			"0.018": 0.0,
			"0.019": 0.0,
			"0.02": 0.0,
			"0.021": 0.0,
			"0.022": 0.0,
			"0.023": 0.0,
			"0.024": 0.0,
			"0.025": 0.0
		}
	}
}
