{
	 "smiles": "CCCCC(C(O)=O)C(O)=O", 
	 "Tm": 377.15, 
	 "num_atms": 23, 
	 "gaussian": { 
		 "optdone": 1, 
		 "sigma_profile": "yes", 
		 "theory": "DFT", 
		 "functional": "B3LYP", 
		 "basiset": "6-31G**", 
		 "properties": { 
			 "R2extent": 2856.2659, 
			 "electric_dipole_moment_norm": 5.03838513613, 
			 "electric_quadrupole_moment_norm": 13.1571262877, 
			 "total_energy": -574.913806535, 
			 "HOMO_LUMO_gap": 0.23772, 
			 "cosmo_polarized_energy": -14.52, 
			 "cosmo_cavitation_energy": 26.59, 
			 "cosmo_dispersion_energy": -18.91, 
			 "cosmo_repulsion_energy": 1.57, 
			 "cosmo_total_nonelectrostatic_energy": 9.26, 
			 "SMD_solvation_energy": 6.62 
		},
		"coords": [
			{
				"x": 0.6913820441,
				"y": 4.0134228734,
				"z": 1.2766846747,
				"element": "C" 
			},
			{
				"x": 0.6320166944,
				"y": 2.8104271015,
				"z": 0.3302037604,
				"element": "C" 
			},
			{
				"x": 0.7191252688,
				"y": 1.4656299664,
				"z": 1.0648471905,
				"element": "C" 
			},
			{
				"x": 0.6573393917,
				"y": 0.2713418589,
				"z": 0.1053220541,
				"element": "C" 
			},
			{
				"x": 0.6567886622,
				"y": -1.1242799213,
				"z": 0.8035772976,
				"element": "C" 
			},
			{
				"x": 0.3682828895,
				"y": -2.1929883533,
				"z": -0.2740866956,
				"element": "C" 
			},
			{
				"x": 1.4262434151,
				"y": -2.733808683,
				"z": -0.8932489427,
				"element": "O" 
			},
			{
				"x": -0.768483617,
				"y": -2.4594350327,
				"z": -0.5819154421,
				"element": "O" 
			},
			{
				"x": 1.9585569185,
				"y": -1.3412616142,
				"z": 1.5387114475,
				"element": "C" 
			},
			{
				"x": 1.8881232658,
				"y": -1.050672808,
				"z": 2.8451445387,
				"element": "O" 
			},
			{
				"x": 2.9968365787,
				"y": -1.7192901912,
				"z": 1.0131364656,
				"element": "O" 
			},
			{
				"x": 0.6259523063,
				"y": 4.9566145288,
				"z": 0.7252102409,
				"element": "H" 
			},
			{
				"x": -0.1333871357,
				"y": 3.9917053128,
				"z": 1.9978447553,
				"element": "H" 
			},
			{
				"x": 1.6279652689,
				"y": 4.0252260804,
				"z": 1.8456754603,
				"element": "H" 
			},
			{
				"x": 1.4489350926,
				"y": 2.8774228224,
				"z": -0.4008072996,
				"element": "H" 
			},
			{
				"x": -0.2993389452,
				"y": 2.8450098061,
				"z": -0.2503962495,
				"element": "H" 
			},
			{
				"x": -0.1019506727,
				"y": 1.3912943998,
				"z": 1.7907183472,
				"element": "H" 
			},
			{
				"x": 1.6464533456,
				"y": 1.4347875172,
				"z": 1.6515571528,
				"element": "H" 
			},
			{
				"x": -0.2628867628,
				"y": 0.3188574178,
				"z": -0.4867785463,
				"element": "H" 
			},
			{
				"x": 1.4954089915,
				"y": 0.3074636379,
				"z": -0.6015000399,
				"element": "H" 
			},
			{
				"x": -0.170822914,
				"y": -1.1606616607,
				"z": 1.5146719208,
				"element": "H" 
			},
			{
				"x": 2.2506601682,
				"y": -2.4349648729,
				"z": -0.4487041453,
				"element": "H" 
			},
			{
				"x": 2.7751997452,
				"y": -1.198940186,
				"z": 3.2180320545,
				"element": "H" 
			}
		],
		 "valence_orbital": [ 
			{
				"type": "occ",
				"energy": -0.33794,
				"method": "rhf"
			},
			{
				"type": "occ",
				"energy": -0.33686,
				"method": "rhf"
			},
			{
				"type": "occ",
				"energy": -0.31352,
				"method": "rhf"
			},
			{
				"type": "occ",
				"energy": -0.30633,
				"method": "rhf"
			},
			{
				"type": "occ",
				"energy": -0.26719,
				"method": "rhf"
			},
			{
				"type": "unocc",
				"energy": -0.02947,
				"method": "rhf"
			},
			{
				"type": "unocc",
				"energy": 0.01368,
				"method": "rhf"
			},
			{
				"type": "unocc",
				"energy": 0.05244,
				"method": "rhf"
			},
			{
				"type": "unocc",
				"energy": 0.08185,
				"method": "rhf"
			},
			{
				"type": "unocc",
				"energy": 0.10163,
				"method": "rhf"
			}
		],
		"cosmo_sigma_profile": { 
			"-0.025": 0.0,
			"-0.024": 0.0,
			"-0.023": 0.0,
			"-0.022": 0.0,
			"-0.021": 0.0,
			"-0.02": 0.0778143574929,
			"-0.019": 0.83459073125,
			"-0.018": 1.03505699141,
			"-0.017": 1.25057860978,
			"-0.016": 0.431643603075,
			"-0.015": 0.556870955816,
			"-0.014": 0.803908363173,
			"-0.013": 0.801421112888,
			"-0.012": 0.98058680493,
			"-0.011": 0.389693936016,
			"-0.01": 0.831025915697,
			"-0.009": 2.09188859593,
			"-0.008": 3.11348451532,
			"-0.007": 5.48004876464,
			"-0.006": 5.17070101392,
			"-0.005": 8.63108234594,
			"-0.004": 12.8280530301,
			"-0.003": 20.4822653691,
			"-0.002": 23.4658594306,
			"-0.001": 20.8941246135,
			"0.0": 19.8465449292,
			"0.001": 16.2999252341,
			"0.002": 9.33961258785,
			"0.003": 4.50616439802,
			"0.004": 2.84002503027,
			"0.005": 3.64475961402,
			"0.006": 5.8083974041,
			"0.007": 4.82843082064,
			"0.008": 5.10898237659,
			"0.009": 4.65404048031,
			"0.01": 6.52292625279,
			"0.011": 6.00640340003,
			"0.012": 5.55385333342,
			"0.013": 1.97443287661,
			"0.014": 0.0410273346052,
			"0.015": 0.0,
			"0.016": 0.0,
			"0.017": 0.0,
			"0.018": 0.0,
			"0.019": 0.0,
			"0.02": 0.0,
			"0.021": 0.0,
			"0.022": 0.0,
			"0.023": 0.0,
			"0.024": 0.0,
			"0.025": 0.0
		}
	}
}
