{
	 "smiles": "CS(=O)(=O)N1CCC(CN)CC1", 
	 "Tm": 337.15, 
	 "num_atms": 28, 
	 "gaussian": { 
		 "optdone": 1, 
		 "sigma_profile": "yes", 
		 "theory": "DFT", 
		 "functional": "B3LYP", 
		 "basiset": "6-31G**", 
		 "properties": { 
			 "R2extent": 3359.8526, 
			 "electric_dipole_moment_norm": 3.95923004762, 
			 "electric_quadrupole_moment_norm": 8.95997345197, 
			 "total_energy": -934.456407811, 
			 "HOMO_LUMO_gap": 0.29136, 
			 "cosmo_polarized_energy": -16.21, 
			 "cosmo_cavitation_energy": 29.48, 
			 "cosmo_dispersion_energy": -21.68, 
			 "cosmo_repulsion_energy": 1.68, 
			 "cosmo_total_nonelectrostatic_energy": 9.48, 
			 "SMD_solvation_energy": 1.94 
		},
		"coords": [
			{
				"x": -4.4093607156,
				"y": -1.3141911557,
				"z": 1.3268913308,
				"element": "C" 
			},
			{
				"x": -3.1680240802,
				"y": -0.0960359513,
				"z": 0.8560648578,
				"element": "S" 
			},
			{
				"x": -2.7507084131,
				"y": 0.586754179,
				"z": 2.0901246293,
				"element": "O" 
			},
			{
				"x": -3.6932102629,
				"y": 0.6721488028,
				"z": -0.2786807277,
				"element": "O" 
			},
			{
				"x": -1.9229891464,
				"y": -1.0763547,
				"z": 0.2626724521,
				"element": "N" 
			},
			{
				"x": -0.8965684912,
				"y": -1.5368256472,
				"z": 1.2290294072,
				"element": "C" 
			},
			{
				"x": 0.4986665084,
				"y": -0.9514044127,
				"z": 0.9164264171,
				"element": "C" 
			},
			{
				"x": 0.3846686136,
				"y": 0.4738261674,
				"z": 0.3544223606,
				"element": "C" 
			},
			{
				"x": 1.7563158949,
				"y": 1.1683598618,
				"z": 0.253581078,
				"element": "C" 
			},
			{
				"x": 1.7602084426,
				"y": 2.5560934343,
				"z": -0.2124208426,
				"element": "N" 
			},
			{
				"x": -0.3564023093,
				"y": 0.430022595,
				"z": -1.0052585352,
				"element": "C" 
			},
			{
				"x": -1.3786227379,
				"y": -0.7257547304,
				"z": -1.063522312,
				"element": "C" 
			},
			{
				"x": -3.9813654101,
				"y": -1.9880703161,
				"z": 2.0704498573,
				"element": "H" 
			},
			{
				"x": -5.251541138,
				"y": -0.7672226967,
				"z": 1.754669471,
				"element": "H" 
			},
			{
				"x": -4.7148401806,
				"y": -1.8614424503,
				"z": 0.4352298247,
				"element": "H" 
			},
			{
				"x": -0.8673828882,
				"y": -2.6338501194,
				"z": 1.2119399915,
				"element": "H" 
			},
			{
				"x": -1.2065763703,
				"y": -1.2233747686,
				"z": 2.2279889249,
				"element": "H" 
			},
			{
				"x": 1.0250415084,
				"y": -1.5897310987,
				"z": 0.1941372146,
				"element": "H" 
			},
			{
				"x": 1.0987859878,
				"y": -0.9639515739,
				"z": 1.8336088188,
				"element": "H" 
			},
			{
				"x": -0.2301426544,
				"y": 1.0526461485,
				"z": 1.0587615716,
				"element": "H" 
			},
			{
				"x": 2.405559439,
				"y": 0.5884214434,
				"z": -0.4173199657,
				"element": "H" 
			},
			{
				"x": 2.2380801015,
				"y": 1.1466231287,
				"z": 1.2398036995,
				"element": "H" 
			},
			{
				"x": 1.1577718774,
				"y": 3.1221002963,
				"z": 0.3817769136,
				"element": "H" 
			},
			{
				"x": 1.3703261734,
				"y": 2.6142883083,
				"z": -1.1499811428,
				"element": "H" 
			},
			{
				"x": 0.3666454721,
				"y": 0.294860738,
				"z": -1.8223948223,
				"element": "H" 
			},
			{
				"x": -0.8691376129,
				"y": 1.380038159,
				"z": -1.1836495291,
				"element": "H" 
			},
			{
				"x": -2.2074678194,
				"y": -0.4920773967,
				"z": -1.7309843303,
				"element": "H" 
			},
			{
				"x": -0.9055297887,
				"y": -1.6408962449,
				"z": -1.4374666128,
				"element": "H" 
			}
		],
		 "valence_orbital": [ 
			{
				"type": "occ",
				"energy": -0.30965,
				"method": "rhf"
			},
			{
				"type": "occ",
				"energy": -0.30213,
				"method": "rhf"
			},
			{
				"type": "occ",
				"energy": -0.29515,
				"method": "rhf"
			},
			{
				"type": "occ",
				"energy": -0.24855,
				"method": "rhf"
			},
			{
				"type": "occ",
				"energy": -0.2287,
				"method": "rhf"
			},
			{
				"type": "unocc",
				"energy": 0.06266,
				"method": "rhf"
			},
			{
				"type": "unocc",
				"energy": 0.0669,
				"method": "rhf"
			},
			{
				"type": "unocc",
				"energy": 0.08274,
				"method": "rhf"
			},
			{
				"type": "unocc",
				"energy": 0.08849,
				"method": "rhf"
			},
			{
				"type": "unocc",
				"energy": 0.09234,
				"method": "rhf"
			}
		],
		"cosmo_sigma_profile": { 
			"-0.025": 0.0,
			"-0.024": 0.0,
			"-0.023": 0.0,
			"-0.022": 0.0,
			"-0.021": 0.0,
			"-0.02": 0.0,
			"-0.019": 0.0,
			"-0.018": 0.0,
			"-0.017": 0.0,
			"-0.016": 0.0,
			"-0.015": 0.0,
			"-0.014": 0.0,
			"-0.013": 0.0,
			"-0.012": 0.0,
			"-0.011": 0.0,
			"-0.01": 0.0370213134225,
			"-0.009": 1.77217067503,
			"-0.008": 8.29625747704,
			"-0.007": 8.24326273568,
			"-0.006": 8.77662305594,
			"-0.005": 12.645592384,
			"-0.004": 23.3106106975,
			"-0.003": 33.6845282599,
			"-0.002": 29.5814635104,
			"-0.001": 20.1224670794,
			"0.0": 11.5596668742,
			"0.001": 6.70118385152,
			"0.002": 5.25512842753,
			"0.003": 4.99471392138,
			"0.004": 4.33128019703,
			"0.005": 4.62482316506,
			"0.006": 3.59922316642,
			"0.007": 3.56164372074,
			"0.008": 3.12423259265,
			"0.009": 4.82073891817,
			"0.01": 5.52461476586,
			"0.011": 9.2136056928,
			"0.012": 8.08228925892,
			"0.013": 1.83233802833,
			"0.014": 0.430483847062,
			"0.015": 0.938071529504,
			"0.016": 0.558187620503,
			"0.017": 0.275331892843,
			"0.018": 0.806843912306,
			"0.019": 0.822888348854,
			"0.02": 0.373252876377,
			"0.021": 0.0115194156226,
			"0.022": 0.0,
			"0.023": 0.0,
			"0.024": 0.0,
			"0.025": 0.0
		}
	}
}
