{
	 "smiles": "[O-][N+](=O)C1=C(Br)C=CC=N1", 
	 "Tm": 377.15, 
	 "num_atms": 13, 
	 "gaussian": { 
		 "optdone": 1, 
		 "sigma_profile": "yes", 
		 "theory": "DFT", 
		 "functional": "B3LYP", 
		 "basiset": "6-31G**", 
		 "properties": { 
			 "R2extent": 4168.8282, 
			 "electric_dipole_moment_norm": 5.45784142221, 
			 "electric_quadrupole_moment_norm": 15.8381123418, 
			 "total_energy": -3023.56739289, 
			 "HOMO_LUMO_gap": 0.19831, 
			 "cosmo_polarized_energy": -9.6, 
			 "cosmo_cavitation_energy": 21.26, 
			 "cosmo_dispersion_energy": -15.67, 
			 "cosmo_repulsion_energy": 1.28, 
			 "cosmo_total_nonelectrostatic_energy": 6.86, 
			 "SMD_solvation_energy": 3.9 
		},
		"coords": [
			{
				"x": -4.3112380112,
				"y": 1.0691893685,
				"z": 0.9470557473,
				"element": "O" 
			},
			{
				"x": -3.7350513641,
				"y": 0.9227422749,
				"z": -0.1228211709,
				"element": "N" 
			},
			{
				"x": -4.1934568851,
				"y": 1.1183825505,
				"z": -1.2407074554,
				"element": "O" 
			},
			{
				"x": -2.3196120178,
				"y": 0.4732050991,
				"z": -0.056774522,
				"element": "C" 
			},
			{
				"x": -2.0074522238,
				"y": -0.8857579928,
				"z": -0.0707361992,
				"element": "C" 
			},
			{
				"x": -3.3461344181,
				"y": -2.2230020217,
				"z": -0.1723741452,
				"element": "Br" 
			},
			{
				"x": -0.657826651,
				"y": -1.2294676312,
				"z": -0.0060434511,
				"element": "C" 
			},
			{
				"x": 0.2914716359,
				"y": -0.2112709617,
				"z": 0.0680658778,
				"element": "C" 
			},
			{
				"x": -0.1440449011,
				"y": 1.1139231349,
				"z": 0.0747697393,
				"element": "C" 
			},
			{
				"x": -1.4374762916,
				"y": 1.4518119951,
				"z": 0.0128520168,
				"element": "N" 
			},
			{
				"x": -0.365550655,
				"y": -2.2735565007,
				"z": -0.0139811738,
				"element": "H" 
			},
			{
				"x": 1.3496533291,
				"y": -0.4445027374,
				"z": 0.1196547414,
				"element": "H" 
			},
			{
				"x": 0.5629184538,
				"y": 1.9372034225,
				"z": 0.1315399951,
				"element": "H" 
			}
		],
		 "valence_orbital": [ 
			{
				"type": "occ",
				"energy": -0.31951,
				"method": "rhf"
			},
			{
				"type": "occ",
				"energy": -0.31731,
				"method": "rhf"
			},
			{
				"type": "occ",
				"energy": -0.30076,
				"method": "rhf"
			},
			{
				"type": "occ",
				"energy": -0.29111,
				"method": "rhf"
			},
			{
				"type": "occ",
				"energy": -0.27453,
				"method": "rhf"
			},
			{
				"type": "unocc",
				"energy": -0.07622,
				"method": "rhf"
			},
			{
				"type": "unocc",
				"energy": -0.06332,
				"method": "rhf"
			},
			{
				"type": "unocc",
				"energy": -0.05147,
				"method": "rhf"
			},
			{
				"type": "unocc",
				"energy": -0.02122,
				"method": "rhf"
			},
			{
				"type": "unocc",
				"energy": 0.08694,
				"method": "rhf"
			}
		],
		"cosmo_sigma_profile": { 
			"-0.025": 0.0,
			"-0.024": 0.0,
			"-0.023": 0.0,
			"-0.022": 0.0,
			"-0.021": 0.0,
			"-0.02": 0.0,
			"-0.019": 0.0,
			"-0.018": 0.0,
			"-0.017": 0.0,
			"-0.016": 0.0,
			"-0.015": 0.0,
			"-0.014": 0.0,
			"-0.013": 0.0,
			"-0.012": 0.0,
			"-0.011": 0.0,
			"-0.01": 0.576703509687,
			"-0.009": 4.68118306132,
			"-0.008": 7.87459999633,
			"-0.007": 7.11737932623,
			"-0.006": 5.95365009512,
			"-0.005": 6.71850440593,
			"-0.004": 6.24070613735,
			"-0.003": 10.9183516528,
			"-0.002": 16.6712025049,
			"-0.001": 16.9992353158,
			"0.0": 14.5425114346,
			"0.001": 11.5902526107,
			"0.002": 14.0114568035,
			"0.003": 10.5151271842,
			"0.004": 5.16727252413,
			"0.005": 5.06861879019,
			"0.006": 11.2091074561,
			"0.007": 10.5732117314,
			"0.008": 5.12980488005,
			"0.009": 1.57373765388,
			"0.01": 0.980837695526,
			"0.011": 0.544745079311,
			"0.012": 0.466535778873,
			"0.013": 0.0,
			"0.014": 0.0,
			"0.015": 0.0,
			"0.016": 0.0,
			"0.017": 0.0,
			"0.018": 0.0,
			"0.019": 0.0,
			"0.02": 0.0,
			"0.021": 0.0,
			"0.022": 0.0,
			"0.023": 0.0,
			"0.024": 0.0,
			"0.025": 0.0
		}
	}
}
