{
	 "smiles": "COC1=CC=C(Cl)C=C1[N+]([O-])=O", 
	 "Tm": 371.15, 
	 "num_atms": 18, 
	 "gaussian": { 
		 "optdone": 1, 
		 "sigma_profile": "yes", 
		 "theory": "DFT", 
		 "functional": "B3LYP", 
		 "basiset": "6-31G**", 
		 "properties": { 
			 "R2extent": 2996.1505, 
			 "electric_dipole_moment_norm": 5.50164908005, 
			 "electric_quadrupole_moment_norm": 8.90321624078, 
			 "total_energy": -1010.85127003, 
			 "HOMO_LUMO_gap": 0.15995, 
			 "cosmo_polarized_energy": -11.62, 
			 "cosmo_cavitation_energy": 24.94, 
			 "cosmo_dispersion_energy": -18.48, 
			 "cosmo_repulsion_energy": 1.48, 
			 "cosmo_total_nonelectrostatic_energy": 7.94, 
			 "SMD_solvation_energy": 7.16 
		},
		"coords": [
			{
				"x": 0.5206285919,
				"y": 1.8085255268,
				"z": 2.5324672091,
				"element": "C" 
			},
			{
				"x": -0.0882830816,
				"y": 0.8713638019,
				"z": 1.6498126577,
				"element": "O" 
			},
			{
				"x": 0.0317187367,
				"y": 1.0532946878,
				"z": 0.3214784031,
				"element": "C" 
			},
			{
				"x": 0.743406378,
				"y": 2.1169362473,
				"z": -0.2590821308,
				"element": "C" 
			},
			{
				"x": 0.810062809,
				"y": 2.2769059605,
				"z": -1.6403087413,
				"element": "C" 
			},
			{
				"x": 0.1487002522,
				"y": 1.3801154119,
				"z": -2.478495594,
				"element": "C" 
			},
			{
				"x": 0.2281078572,
				"y": 1.584742656,
				"z": -4.2177713927,
				"element": "Cl" 
			},
			{
				"x": -0.5740361145,
				"y": 0.3242538899,
				"z": -1.9393753222,
				"element": "C" 
			},
			{
				"x": -0.6201124118,
				"y": 0.1547037172,
				"z": -0.5565245073,
				"element": "C" 
			},
			{
				"x": -1.377653731,
				"y": -1.0077662755,
				"z": -0.0681358369,
				"element": "N" 
			},
			{
				"x": -2.2580301659,
				"y": -1.4493507226,
				"z": -0.810309476,
				"element": "O" 
			},
			{
				"x": -1.0783869211,
				"y": -1.4820470259,
				"z": 1.0229766114,
				"element": "O" 
			},
			{
				"x": 0.1179423558,
				"y": 2.8181556969,
				"z": 2.3875377841,
				"element": "H" 
			},
			{
				"x": 1.6098737262,
				"y": 1.8258689078,
				"z": 2.4088988601,
				"element": "H" 
			},
			{
				"x": 0.2769432197,
				"y": 1.4609042063,
				"z": 3.5362691253,
				"element": "H" 
			},
			{
				"x": 1.2531661586,
				"y": 2.8327330065,
				"z": 0.3728742505,
				"element": "H" 
			},
			{
				"x": 1.3723328482,
				"y": 3.1019407287,
				"z": -2.0636143098,
				"element": "H" 
			},
			{
				"x": -1.1084805076,
				"y": -0.3781804214,
				"z": -2.5653975901,
				"element": "H" 
			}
		],
		 "valence_orbital": [ 
			{
				"type": "occ",
				"energy": -0.30504,
				"method": "rhf"
			},
			{
				"type": "occ",
				"energy": -0.30369,
				"method": "rhf"
			},
			{
				"type": "occ",
				"energy": -0.29549,
				"method": "rhf"
			},
			{
				"type": "occ",
				"energy": -0.2794,
				"method": "rhf"
			},
			{
				"type": "occ",
				"energy": -0.24573,
				"method": "rhf"
			},
			{
				"type": "unocc",
				"energy": -0.08578,
				"method": "rhf"
			},
			{
				"type": "unocc",
				"energy": -0.0259,
				"method": "rhf"
			},
			{
				"type": "unocc",
				"energy": -0.01099,
				"method": "rhf"
			},
			{
				"type": "unocc",
				"energy": 0.01562,
				"method": "rhf"
			},
			{
				"type": "unocc",
				"energy": 0.07541,
				"method": "rhf"
			}
		],
		"cosmo_sigma_profile": { 
			"-0.025": 0.0,
			"-0.024": 0.0,
			"-0.023": 0.0,
			"-0.022": 0.0,
			"-0.021": 0.0,
			"-0.02": 0.0,
			"-0.019": 0.0,
			"-0.018": 0.0,
			"-0.017": 0.0,
			"-0.016": 0.0,
			"-0.015": 0.0,
			"-0.014": 0.0,
			"-0.013": 0.0,
			"-0.012": 0.0,
			"-0.011": 0.0,
			"-0.01": 0.0,
			"-0.009": 1.20170043254,
			"-0.008": 6.52734788948,
			"-0.007": 10.7106178803,
			"-0.006": 14.2652290192,
			"-0.005": 13.1550804074,
			"-0.004": 12.9217657801,
			"-0.003": 11.8490249788,
			"-0.002": 10.7928902213,
			"-0.001": 16.401779981,
			"0.0": 18.017648197,
			"0.001": 15.9781838733,
			"0.002": 9.91562721037,
			"0.003": 9.98518822054,
			"0.004": 12.4455654888,
			"0.005": 5.11732658817,
			"0.006": 3.80080349041,
			"0.007": 6.64630804019,
			"0.008": 9.52279155218,
			"0.009": 6.80384649872,
			"0.01": 4.22577822065,
			"0.011": 1.547241492,
			"0.012": 0.537140159688,
			"0.013": 0.0,
			"0.014": 0.0,
			"0.015": 0.0,
			"0.016": 0.0,
			"0.017": 0.0,
			"0.018": 0.0,
			"0.019": 0.0,
			"0.02": 0.0,
			"0.021": 0.0,
			"0.022": 0.0,
			"0.023": 0.0,
			"0.024": 0.0,
			"0.025": 0.0
		}
	}
}
