{
	 "smiles": "CC(=O)C1=CC=C(Br)S1", 
	 "Tm": 367.95, 
	 "num_atms": 14, 
	 "gaussian": { 
		 "optdone": 1, 
		 "sigma_profile": "yes", 
		 "theory": "DFT", 
		 "functional": "B3LYP", 
		 "basiset": "6-31G**", 
		 "properties": { 
			 "R2extent": 4568.306, 
			 "electric_dipole_moment_norm": 1.6032773029, 
			 "electric_quadrupole_moment_norm": 7.32490642875, 
			 "total_energy": -3276.44762678, 
			 "HOMO_LUMO_gap": 0.17204, 
			 "cosmo_polarized_energy": -6.94, 
			 "cosmo_cavitation_energy": 22.53, 
			 "cosmo_dispersion_energy": -17.41, 
			 "cosmo_repulsion_energy": 1.38, 
			 "cosmo_total_nonelectrostatic_energy": 6.49, 
			 "SMD_solvation_energy": 3.31 
		},
		"coords": [
			{
				"x": -1.7247167751,
				"y": -0.8612412573,
				"z": 1.2030650036,
				"element": "C" 
			},
			{
				"x": -0.3290325825,
				"y": -0.4884238533,
				"z": 0.7392297357,
				"element": "C" 
			},
			{
				"x": 0.5731222508,
				"y": -0.2554356904,
				"z": 1.530239438,
				"element": "O" 
			},
			{
				"x": -0.0658694434,
				"y": -0.408705798,
				"z": -0.7165118452,
				"element": "C" 
			},
			{
				"x": 1.1449806718,
				"y": -0.0847183356,
				"z": -1.2875020801,
				"element": "C" 
			},
			{
				"x": 1.1273606967,
				"y": -0.079420703,
				"z": -2.7056565475,
				"element": "C" 
			},
			{
				"x": -0.1111113839,
				"y": -0.4032721785,
				"z": -3.2004712778,
				"element": "C" 
			},
			{
				"x": -0.598442144,
				"y": -0.5190989181,
				"z": -5.016152511,
				"element": "Br" 
			},
			{
				"x": -1.2721667633,
				"y": -0.7189651206,
				"z": -1.951721593,
				"element": "S" 
			},
			{
				"x": -2.0111324205,
				"y": -1.8480806209,
				"z": 0.8215663079,
				"element": "H" 
			},
			{
				"x": -2.4633050858,
				"y": -0.1406075735,
				"z": 0.8334729418,
				"element": "H" 
			},
			{
				"x": -1.7454905897,
				"y": -0.8743517391,
				"z": 2.2930803502,
				"element": "H" 
			},
			{
				"x": 2.011904749,
				"y": 0.1401538556,
				"z": -0.6776984682,
				"element": "H" 
			},
			{
				"x": 1.9771988199,
				"y": 0.1496679329,
				"z": -3.3360394543,
				"element": "H" 
			}
		],
		 "valence_orbital": [ 
			{
				"type": "occ",
				"energy": -0.32414,
				"method": "rhf"
			},
			{
				"type": "occ",
				"energy": -0.30847,
				"method": "rhf"
			},
			{
				"type": "occ",
				"energy": -0.27578,
				"method": "rhf"
			},
			{
				"type": "occ",
				"energy": -0.25754,
				"method": "rhf"
			},
			{
				"type": "occ",
				"energy": -0.24305,
				"method": "rhf"
			},
			{
				"type": "unocc",
				"energy": -0.07101,
				"method": "rhf"
			},
			{
				"type": "unocc",
				"energy": -0.01518,
				"method": "rhf"
			},
			{
				"type": "unocc",
				"energy": 0.00903,
				"method": "rhf"
			},
			{
				"type": "unocc",
				"energy": 0.0108,
				"method": "rhf"
			},
			{
				"type": "unocc",
				"energy": 0.07007,
				"method": "rhf"
			}
		],
		"cosmo_sigma_profile": { 
			"-0.025": 0.0,
			"-0.024": 0.0,
			"-0.023": 0.0,
			"-0.022": 0.0,
			"-0.021": 0.0,
			"-0.02": 0.0,
			"-0.019": 0.0,
			"-0.018": 0.0,
			"-0.017": 0.0,
			"-0.016": 0.0,
			"-0.015": 0.0,
			"-0.014": 0.0,
			"-0.013": 0.0,
			"-0.012": 0.0,
			"-0.011": 0.0,
			"-0.01": 0.0,
			"-0.009": 0.362502925838,
			"-0.008": 2.63834571128,
			"-0.007": 4.24897254377,
			"-0.006": 11.9198165886,
			"-0.005": 11.4660979991,
			"-0.004": 11.150617637,
			"-0.003": 11.4364249283,
			"-0.002": 15.4544619823,
			"-0.001": 16.8396823949,
			"0.0": 17.0348418303,
			"0.001": 22.694974005,
			"0.002": 23.3953866748,
			"0.003": 15.89397482,
			"0.004": 2.41326715867,
			"0.005": 1.98105244201,
			"0.006": 1.338210517,
			"0.007": 1.64760217664,
			"0.008": 1.7355310536,
			"0.009": 1.72648676165,
			"0.01": 2.16246429085,
			"0.011": 3.25383740894,
			"0.012": 4.21488339998,
			"0.013": 1.06807608166,
			"0.014": 0.00251972084969,
			"0.015": 0.0,
			"0.016": 0.0,
			"0.017": 0.0,
			"0.018": 0.0,
			"0.019": 0.0,
			"0.02": 0.0,
			"0.021": 0.0,
			"0.022": 0.0,
			"0.023": 0.0,
			"0.024": 0.0,
			"0.025": 0.0
		}
	}
}
