{
	 "smiles": "CC1=CC=CC(C)=C1Br", 
	 "Tm": 263.15, 
	 "num_atms": 18, 
	 "gaussian": { 
		 "optdone": 1, 
		 "sigma_profile": "yes", 
		 "theory": "DFT", 
		 "functional": "B3LYP", 
		 "basiset": "6-31G**", 
		 "properties": { 
			 "R2extent": 2058.936, 
			 "electric_dipole_moment_norm": 1.29269303781, 
			 "electric_quadrupole_moment_norm": 5.37081754671, 
			 "total_energy": -2881.69547834, 
			 "HOMO_LUMO_gap": 0.22651, 
			 "cosmo_polarized_energy": -3.34, 
			 "cosmo_cavitation_energy": 22.87, 
			 "cosmo_dispersion_energy": -17.31, 
			 "cosmo_repulsion_energy": 1.39, 
			 "cosmo_total_nonelectrostatic_energy": 6.95, 
			 "SMD_solvation_energy": 3.03 
		},
		"coords": [
			{
				"x": -2.1301493007,
				"y": -2.2735284678,
				"z": 0.5170085207,
				"element": "C" 
			},
			{
				"x": -0.899879083,
				"y": -1.7594773264,
				"z": -0.186337462,
				"element": "C" 
			},
			{
				"x": 0.1435746429,
				"y": -2.6343588429,
				"z": -0.517322739,
				"element": "C" 
			},
			{
				"x": 1.288711678,
				"y": -2.1811247818,
				"z": -1.1669292453,
				"element": "C" 
			},
			{
				"x": 1.4104138166,
				"y": -0.834423082,
				"z": -1.49909322,
				"element": "C" 
			},
			{
				"x": 0.3984172273,
				"y": 0.085146259,
				"z": -1.1924743595,
				"element": "C" 
			},
			{
				"x": 0.5527909856,
				"y": 1.538409916,
				"z": -1.5622069817,
				"element": "C" 
			},
			{
				"x": -0.7396491564,
				"y": -0.4103160896,
				"z": -0.5377168581,
				"element": "C" 
			},
			{
				"x": -2.1517638764,
				"y": 0.8224923429,
				"z": -0.0996975345,
				"element": "Br" 
			},
			{
				"x": -3.0339104559,
				"y": -2.0886720628,
				"z": -0.0732807596,
				"element": "H" 
			},
			{
				"x": -2.0496604694,
				"y": -3.3486805995,
				"z": 0.6956421525,
				"element": "H" 
			},
			{
				"x": -2.2771927144,
				"y": -1.7738747208,
				"z": 1.4803952704,
				"element": "H" 
			},
			{
				"x": 0.0456558823,
				"y": -3.6846767346,
				"z": -0.2568398054,
				"element": "H" 
			},
			{
				"x": 2.0853308936,
				"y": -2.8765944053,
				"z": -1.4140426226,
				"element": "H" 
			},
			{
				"x": 2.3027949008,
				"y": -0.4777063989,
				"z": -2.0060618629,
				"element": "H" 
			},
			{
				"x": 1.5093850977,
				"y": 1.7080902547,
				"z": -2.0626811843,
				"element": "H" 
			},
			{
				"x": 0.5073833145,
				"y": 2.1823347894,
				"z": -0.6775063168,
				"element": "H" 
			},
			{
				"x": -0.2495533829,
				"y": 1.8674599503,
				"z": -2.2310549918,
				"element": "H" 
			}
		],
		 "valence_orbital": [ 
			{
				"type": "occ",
				"energy": -0.33829,
				"method": "rhf"
			},
			{
				"type": "occ",
				"energy": -0.30734,
				"method": "rhf"
			},
			{
				"type": "occ",
				"energy": -0.28054,
				"method": "rhf"
			},
			{
				"type": "occ",
				"energy": -0.24373,
				"method": "rhf"
			},
			{
				"type": "occ",
				"energy": -0.23534,
				"method": "rhf"
			},
			{
				"type": "unocc",
				"energy": -0.00883,
				"method": "rhf"
			},
			{
				"type": "unocc",
				"energy": -0.0019,
				"method": "rhf"
			},
			{
				"type": "unocc",
				"energy": 0.01457,
				"method": "rhf"
			},
			{
				"type": "unocc",
				"energy": 0.10121,
				"method": "rhf"
			},
			{
				"type": "unocc",
				"energy": 0.12368,
				"method": "rhf"
			}
		],
		"cosmo_sigma_profile": { 
			"-0.025": 0.0,
			"-0.024": 0.0,
			"-0.023": 0.0,
			"-0.022": 0.0,
			"-0.021": 0.0,
			"-0.02": 0.0,
			"-0.019": 0.0,
			"-0.018": 0.0,
			"-0.017": 0.0,
			"-0.016": 0.0,
			"-0.015": 0.0,
			"-0.014": 0.0,
			"-0.013": 0.0,
			"-0.012": 0.0,
			"-0.011": 0.0,
			"-0.01": 0.0,
			"-0.009": 0.0,
			"-0.008": 0.0,
			"-0.007": 0.025065995379,
			"-0.006": 4.36940758016,
			"-0.005": 10.2670593428,
			"-0.004": 15.4346910666,
			"-0.003": 15.3124502313,
			"-0.002": 17.2082551741,
			"-0.001": 20.7380832819,
			"0.0": 22.6957215053,
			"0.001": 14.7549226746,
			"0.002": 14.7735543658,
			"0.003": 16.0548516134,
			"0.004": 17.507793362,
			"0.005": 13.2794911776,
			"0.006": 1.82637520025,
			"0.007": 0.0,
			"0.008": 0.0,
			"0.009": 0.0,
			"0.01": 0.0,
			"0.011": 0.0,
			"0.012": 0.0,
			"0.013": 0.0,
			"0.014": 0.0,
			"0.015": 0.0,
			"0.016": 0.0,
			"0.017": 0.0,
			"0.018": 0.0,
			"0.019": 0.0,
			"0.02": 0.0,
			"0.021": 0.0,
			"0.022": 0.0,
			"0.023": 0.0,
			"0.024": 0.0,
			"0.025": 0.0
		}
	}
}
