{
	 "smiles": "OC1=CC=C(C=C1)C1(OS(=O)(=O)C2=CC=CC=C12)C1=CC=C(O)C=C1", 
	 "Tm": 573.15, 
	 "num_atms": 39, 
	 "gaussian": { 
		 "optdone": 1, 
		 "sigma_profile": "yes", 
		 "theory": "DFT", 
		 "functional": "B3LYP", 
		 "basiset": "6-31G**", 
		 "properties": { 
			 "R2extent": 9617.3617, 
			 "electric_dipole_moment_norm": 8.07592700128, 
			 "electric_quadrupole_moment_norm": 26.1707034309, 
			 "total_energy": -1506.68008753, 
			 "HOMO_LUMO_gap": 0.18362, 
			 "cosmo_polarized_energy": -26.43, 
			 "cosmo_cavitation_energy": 44.49, 
			 "cosmo_dispersion_energy": -30.7, 
			 "cosmo_repulsion_energy": 2.29, 
			 "cosmo_total_nonelectrostatic_energy": 16.09, 
			 "SMD_solvation_energy": 6.95 
		},
		"coords": [
			{
				"x": 4.5967071718,
				"y": -2.3867540267,
				"z": -1.8685309005,
				"element": "O" 
			},
			{
				"x": 3.5895111836,
				"y": -1.5365440972,
				"z": -1.5167090121,
				"element": "C" 
			},
			{
				"x": 3.8663758319,
				"y": -0.163734335,
				"z": -1.5361089014,
				"element": "C" 
			},
			{
				"x": 2.8789918067,
				"y": 0.749279438,
				"z": -1.1868716603,
				"element": "C" 
			},
			{
				"x": 1.5935033468,
				"y": 0.3188327055,
				"z": -0.822287601,
				"element": "C" 
			},
			{
				"x": 1.3278582566,
				"y": -1.0543164691,
				"z": -0.8090268067,
				"element": "C" 
			},
			{
				"x": 2.3157919268,
				"y": -1.9792258312,
				"z": -1.1493324439,
				"element": "C" 
			},
			{
				"x": 0.5394316284,
				"y": 1.3294010365,
				"z": -0.3608928018,
				"element": "C" 
			},
			{
				"x": 0.7888960407,
				"y": 2.5669583127,
				"z": -1.130841092,
				"element": "O" 
			},
			{
				"x": 0.8173233452,
				"y": 3.9547880616,
				"z": -0.2345863509,
				"element": "S" 
			},
			{
				"x": -0.4640526555,
				"y": 4.6449833174,
				"z": -0.3356462576,
				"element": "O" 
			},
			{
				"x": 2.0494706176,
				"y": 4.6626582871,
				"z": -0.5674144585,
				"element": "O" 
			},
			{
				"x": 0.9525826355,
				"y": 3.0770519931,
				"z": 1.3046160361,
				"element": "C" 
			},
			{
				"x": 1.2006962273,
				"y": 3.6353947765,
				"z": 2.5559569259,
				"element": "C" 
			},
			{
				"x": 1.2787187444,
				"y": 2.7677624403,
				"z": 3.6442985844,
				"element": "C" 
			},
			{
				"x": 1.1178899768,
				"y": 1.3878252904,
				"z": 3.4605591687,
				"element": "C" 
			},
			{
				"x": 0.8759406578,
				"y": 0.8528381044,
				"z": 2.1942738461,
				"element": "C" 
			},
			{
				"x": 0.7832672685,
				"y": 1.7157140152,
				"z": 1.0999598969,
				"element": "C" 
			},
			{
				"x": -0.8944248579,
				"y": 0.8939318197,
				"z": -0.658910959,
				"element": "C" 
			},
			{
				"x": -1.2380028454,
				"y": 0.6027267819,
				"z": -1.9913866008,
				"element": "C" 
			},
			{
				"x": -2.5313872796,
				"y": 0.2439874659,
				"z": -2.3408402866,
				"element": "C" 
			},
			{
				"x": -3.5232363954,
				"y": 0.1659505146,
				"z": -1.3529740497,
				"element": "C" 
			},
			{
				"x": -4.7761291154,
				"y": -0.196486181,
				"z": -1.750018711,
				"element": "O" 
			},
			{
				"x": -3.2000002041,
				"y": 0.4545629173,
				"z": -0.0256874571,
				"element": "C" 
			},
			{
				"x": -1.8955143097,
				"y": 0.8212376261,
				"z": 0.3121986646,
				"element": "C" 
			},
			{
				"x": 4.2753942132,
				"y": -3.2967871203,
				"z": -1.8256169838,
				"element": "H" 
			},
			{
				"x": 4.8568617905,
				"y": 0.1673761491,
				"z": -1.8298618989,
				"element": "H" 
			},
			{
				"x": 3.1003835774,
				"y": 1.8106323347,
				"z": -1.2117661374,
				"element": "H" 
			},
			{
				"x": 0.3386499845,
				"y": -1.4124510854,
				"z": -0.543557848,
				"element": "H" 
			},
			{
				"x": 2.0889674123,
				"y": -3.0433134598,
				"z": -1.1386841842,
				"element": "H" 
			},
			{
				"x": 1.3376990985,
				"y": 4.7052460861,
				"z": 2.6741150423,
				"element": "H" 
			},
			{
				"x": 1.4751705722,
				"y": 3.1625615688,
				"z": 4.6361176492,
				"element": "H" 
			},
			{
				"x": 1.1931988703,
				"y": 0.7220801198,
				"z": 4.3151071236,
				"element": "H" 
			},
			{
				"x": 0.7760404062,
				"y": -0.2191107099,
				"z": 2.057415907,
				"element": "H" 
			},
			{
				"x": -0.4775143014,
				"y": 0.6700006314,
				"z": -2.7626411208,
				"element": "H" 
			},
			{
				"x": -2.7971424492,
				"y": 0.0260000698,
				"z": -3.3697791696,
				"element": "H" 
			},
			{
				"x": -5.368970883,
				"y": -0.182625042,
				"z": -0.9872791957,
				"element": "H" 
			},
			{
				"x": -3.9647646754,
				"y": 0.4029939817,
				"z": 0.7463371859,
				"element": "H" 
			},
			{
				"x": -1.6736826197,
				"y": 1.0547725117,
				"z": 1.3473968585,
				"element": "H" 
			}
		],
		 "valence_orbital": [ 
			{
				"type": "occ",
				"energy": -0.27235,
				"method": "rhf"
			},
			{
				"type": "occ",
				"energy": -0.26211,
				"method": "rhf"
			},
			{
				"type": "occ",
				"energy": -0.25731,
				"method": "rhf"
			},
			{
				"type": "occ",
				"energy": -0.22996,
				"method": "rhf"
			},
			{
				"type": "occ",
				"energy": -0.22656,
				"method": "rhf"
			},
			{
				"type": "unocc",
				"energy": -0.04294,
				"method": "rhf"
			},
			{
				"type": "unocc",
				"energy": -0.03536,
				"method": "rhf"
			},
			{
				"type": "unocc",
				"energy": -0.01771,
				"method": "rhf"
			},
			{
				"type": "unocc",
				"energy": -0.00931,
				"method": "rhf"
			},
			{
				"type": "unocc",
				"energy": -0.00192,
				"method": "rhf"
			}
		],
		"cosmo_sigma_profile": { 
			"-0.025": 0.0,
			"-0.024": 0.0,
			"-0.023": 0.0,
			"-0.022": 0.0,
			"-0.021": 0.0,
			"-0.02": 0.0,
			"-0.019": 0.0291174219513,
			"-0.018": 1.38223390197,
			"-0.017": 1.99488102267,
			"-0.016": 2.61283456204,
			"-0.015": 2.31868080432,
			"-0.014": 1.49810171003,
			"-0.013": 1.53653428773,
			"-0.012": 1.72349056287,
			"-0.011": 2.43033820123,
			"-0.01": 2.55840157623,
			"-0.009": 4.24993495995,
			"-0.008": 5.79419431503,
			"-0.007": 12.5779543071,
			"-0.006": 19.5141679491,
			"-0.005": 22.2431041202,
			"-0.004": 21.2184948228,
			"-0.003": 18.0680457178,
			"-0.002": 19.3170124189,
			"-0.001": 17.4244137267,
			"0.0": 19.7574107201,
			"0.001": 26.7685030476,
			"0.002": 26.5250511701,
			"0.003": 24.8666019542,
			"0.004": 25.513512213,
			"0.005": 17.6146617586,
			"0.006": 8.5128245823,
			"0.007": 7.13788447157,
			"0.008": 7.46190674671,
			"0.009": 10.5550665144,
			"0.01": 16.6032706834,
			"0.011": 6.48303418249,
			"0.012": 0.420948689872,
			"0.013": 0.0,
			"0.014": 0.0,
			"0.015": 0.0,
			"0.016": 0.0,
			"0.017": 0.0,
			"0.018": 0.0,
			"0.019": 0.0,
			"0.02": 0.0,
			"0.021": 0.0,
			"0.022": 0.0,
			"0.023": 0.0,
			"0.024": 0.0,
			"0.025": 0.0
		}
	}
}
