{
	 "smiles": "BrC1=CC2=C(OCCOCCOCCOCCOCCO2)C=C1", 
	 "Tm": 354.15, 
	 "num_atms": 46, 
	 "gaussian": { 
		 "optdone": 1, 
		 "sigma_profile": "yes", 
		 "theory": "DFT", 
		 "functional": "B3LYP", 
		 "basiset": "6-31G**", 
		 "properties": { 
			 "R2extent": 16558.1099, 
			 "electric_dipole_moment_norm": 5.81941901396, 
			 "electric_quadrupole_moment_norm": 22.4189063507, 
			 "total_energy": -3646.22197031, 
			 "HOMO_LUMO_gap": 0.20716, 
			 "cosmo_polarized_energy": -23.2, 
			 "cosmo_cavitation_energy": 49.97, 
			 "cosmo_dispersion_energy": -34.1, 
			 "cosmo_repulsion_energy": 2.62, 
			 "cosmo_total_nonelectrostatic_energy": 18.49, 
			 "SMD_solvation_energy": 7.01 
		},
		"coords": [
			{
				"x": 4.7967572124,
				"y": -1.7557470738,
				"z": 5.8222097715,
				"element": "Br" 
			},
			{
				"x": 3.2605679895,
				"y": -1.7261187835,
				"z": 4.6800243768,
				"element": "C" 
			},
			{
				"x": 3.2185252542,
				"y": -0.8270338288,
				"z": 3.6149719517,
				"element": "C" 
			},
			{
				"x": 2.110043395,
				"y": -0.7921269182,
				"z": 2.7703964055,
				"element": "C" 
			},
			{
				"x": 1.0293336402,
				"y": -1.6782296136,
				"z": 2.9990698443,
				"element": "C" 
			},
			{
				"x": -0.0020176689,
				"y": -1.6125541068,
				"z": 2.109648856,
				"element": "O" 
			},
			{
				"x": -1.1696186972,
				"y": -2.3842300792,
				"z": 2.3558412443,
				"element": "C" 
			},
			{
				"x": -2.2220233293,
				"y": -1.9970717923,
				"z": 1.3346427215,
				"element": "C" 
			},
			{
				"x": -2.6702840233,
				"y": -0.6847580471,
				"z": 1.6150967736,
				"element": "O" 
			},
			{
				"x": -3.933297131,
				"y": -0.3526228415,
				"z": 1.0682949031,
				"element": "C" 
			},
			{
				"x": -3.9731338111,
				"y": -0.1757816548,
				"z": -0.4452853259,
				"element": "C" 
			},
			{
				"x": -3.1969237135,
				"y": 0.9433103642,
				"z": -0.8071596956,
				"element": "O" 
			},
			{
				"x": -3.2216801695,
				"y": 1.217295489,
				"z": -2.1946772981,
				"element": "C" 
			},
			{
				"x": -2.2181666391,
				"y": 2.3147717378,
				"z": -2.4924099429,
				"element": "C" 
			},
			{
				"x": -0.9206825965,
				"y": 1.7702423032,
				"z": -2.3931804912,
				"element": "O" 
			},
			{
				"x": 0.1113136257,
				"y": 2.7237968954,
				"z": -2.2719710691,
				"element": "C" 
			},
			{
				"x": 1.4066135775,
				"y": 1.9829312744,
				"z": -1.9515170243,
				"element": "C" 
			},
			{
				"x": 1.3383499826,
				"y": 1.2162479999,
				"z": -0.7671107165,
				"element": "O" 
			},
			{
				"x": 1.4413609575,
				"y": 1.955412027,
				"z": 0.432896534,
				"element": "C" 
			},
			{
				"x": 1.1100462055,
				"y": 1.046241155,
				"z": 1.5966274707,
				"element": "C" 
			},
			{
				"x": 2.1522190766,
				"y": 0.0617622616,
				"z": 1.7047706478,
				"element": "O" 
			},
			{
				"x": 1.0871648146,
				"y": -2.5592993186,
				"z": 4.0823902874,
				"element": "C" 
			},
			{
				"x": 2.2017745458,
				"y": -2.5893761384,
				"z": 4.9268761204,
				"element": "C" 
			},
			{
				"x": 4.0369334641,
				"y": -0.1456292135,
				"z": 3.4166938743,
				"element": "H" 
			},
			{
				"x": -1.5536301678,
				"y": -2.1900886878,
				"z": 3.3659740009,
				"element": "H" 
			},
			{
				"x": -0.945003778,
				"y": -3.4570283829,
				"z": 2.263008607,
				"element": "H" 
			},
			{
				"x": -1.796866573,
				"y": -2.0739936175,
				"z": 0.3238822655,
				"element": "H" 
			},
			{
				"x": -3.0528859887,
				"y": -2.7189141813,
				"z": 1.4126965533,
				"element": "H" 
			},
			{
				"x": -4.2187396416,
				"y": 0.5934434718,
				"z": 1.5382169289,
				"element": "H" 
			},
			{
				"x": -4.6830652825,
				"y": -1.1146063729,
				"z": 1.3440334337,
				"element": "H" 
			},
			{
				"x": -5.0297253811,
				"y": -0.0394305121,
				"z": -0.7409935608,
				"element": "H" 
			},
			{
				"x": -3.6136215578,
				"y": -1.0835638145,
				"z": -0.9587861376,
				"element": "H" 
			},
			{
				"x": -2.9581703393,
				"y": 0.320878685,
				"z": -2.7783076311,
				"element": "H" 
			},
			{
				"x": -4.2287393361,
				"y": 1.5411145609,
				"z": -2.510944705,
				"element": "H" 
			},
			{
				"x": -2.4054070506,
				"y": 2.722219888,
				"z": -3.5012471495,
				"element": "H" 
			},
			{
				"x": -2.3602638355,
				"y": 3.1335983978,
				"z": -1.7691118015,
				"element": "H" 
			},
			{
				"x": -0.1315396616,
				"y": 3.4533067301,
				"z": -1.4815938782,
				"element": "H" 
			},
			{
				"x": 0.2496790539,
				"y": 3.2977366965,
				"z": -3.2061129696,
				"element": "H" 
			},
			{
				"x": 2.2361514657,
				"y": 2.7094547619,
				"z": -1.9179829678,
				"element": "H" 
			},
			{
				"x": 1.6133678753,
				"y": 1.2704169409,
				"z": -2.7563894964,
				"element": "H" 
			},
			{
				"x": 2.4565078885,
				"y": 2.3703313176,
				"z": 0.5486904683,
				"element": "H" 
			},
			{
				"x": 0.7291843153,
				"y": 2.7954302751,
				"z": 0.4603012776,
				"element": "H" 
			},
			{
				"x": 0.1394930175,
				"y": 0.5715317719,
				"z": 1.4341646218,
				"element": "H" 
			},
			{
				"x": 1.0706021804,
				"y": 1.6408435158,
				"z": 2.5206502843,
				"element": "H" 
			},
			{
				"x": 0.2712516643,
				"y": -3.2463705018,
				"z": 4.2722734243,
				"element": "H" 
			},
			{
				"x": 2.2371451713,
				"y": -3.2833430402,
				"z": 5.7583382125,
				"element": "H" 
			}
		],
		 "valence_orbital": [ 
			{
				"type": "occ",
				"energy": -0.25825,
				"method": "rhf"
			},
			{
				"type": "occ",
				"energy": -0.25119,
				"method": "rhf"
			},
			{
				"type": "occ",
				"energy": -0.24684,
				"method": "rhf"
			},
			{
				"type": "occ",
				"energy": -0.23651,
				"method": "rhf"
			},
			{
				"type": "occ",
				"energy": -0.20748,
				"method": "rhf"
			},
			{
				"type": "unocc",
				"energy": -0.00032,
				"method": "rhf"
			},
			{
				"type": "unocc",
				"energy": 0.00764,
				"method": "rhf"
			},
			{
				"type": "unocc",
				"energy": 0.01719,
				"method": "rhf"
			},
			{
				"type": "unocc",
				"energy": 0.07481,
				"method": "rhf"
			},
			{
				"type": "unocc",
				"energy": 0.08232,
				"method": "rhf"
			}
		],
		"cosmo_sigma_profile": { 
			"-0.025": 0.0,
			"-0.024": 0.0,
			"-0.023": 0.0,
			"-0.022": 0.0,
			"-0.021": 0.0,
			"-0.02": 0.0,
			"-0.019": 0.0,
			"-0.018": 0.0,
			"-0.017": 0.0,
			"-0.016": 0.0,
			"-0.015": 0.0,
			"-0.014": 0.0,
			"-0.013": 0.0,
			"-0.012": 0.0,
			"-0.011": 0.0,
			"-0.01": 0.0,
			"-0.009": 0.0,
			"-0.008": 0.239018205783,
			"-0.007": 5.33343172299,
			"-0.006": 15.4278571578,
			"-0.005": 39.2893030228,
			"-0.004": 66.7027044108,
			"-0.003": 48.9998594098,
			"-0.002": 31.2472119868,
			"-0.001": 18.1167608642,
			"0.0": 15.5465267621,
			"0.001": 15.7494359233,
			"0.002": 19.9224753454,
			"0.003": 25.685787585,
			"0.004": 23.0143501126,
			"0.005": 16.1396690831,
			"0.006": 6.88262004973,
			"0.007": 6.71342594469,
			"0.008": 6.04470499687,
			"0.009": 5.63510522901,
			"0.01": 7.11907743093,
			"0.011": 4.89878271555,
			"0.012": 6.57873399842,
			"0.013": 4.59090670569,
			"0.014": 3.1530077139,
			"0.015": 1.24260211404,
			"0.016": 0.15827728362,
			"0.017": 0.0,
			"0.018": 0.0,
			"0.019": 0.0,
			"0.02": 0.0,
			"0.021": 0.0,
			"0.022": 0.0,
			"0.023": 0.0,
			"0.024": 0.0,
			"0.025": 0.0
		}
	}
}
