{
	 "smiles": "C=CC1=CC=C2C=CC=CC2=C1", 
	 "Tm": 338.65, 
	 "num_atms": 22, 
	 "gaussian": { 
		 "optdone": 1, 
		 "sigma_profile": "yes", 
		 "theory": "DFT", 
		 "functional": "B3LYP", 
		 "basiset": "6-31G**", 
		 "properties": { 
			 "R2extent": 2967.1407, 
			 "electric_dipole_moment_norm": 0.169104494322, 
			 "electric_quadrupole_moment_norm": 7.82054013032, 
			 "total_energy": -463.297526332, 
			 "HOMO_LUMO_gap": 0.15961, 
			 "cosmo_polarized_energy": -5.25, 
			 "cosmo_cavitation_energy": 25.66, 
			 "cosmo_dispersion_energy": -18.84, 
			 "cosmo_repulsion_energy": 1.45, 
			 "cosmo_total_nonelectrostatic_energy": 8.27, 
			 "SMD_solvation_energy": 4.7 
		},
		"coords": [
			{
				"x": -2.3224623799,
				"y": -1.5803408571,
				"z": -0.9224890603,
				"element": "C" 
			},
			{
				"x": -1.5392937979,
				"y": -2.1555626049,
				"z": -0.0013508409,
				"element": "C" 
			},
			{
				"x": -0.3841283754,
				"y": -1.5599461612,
				"z": 0.6914501203,
				"element": "C" 
			},
			{
				"x": 0.1808182206,
				"y": -2.2625559035,
				"z": 1.7965305723,
				"element": "C" 
			},
			{
				"x": 1.2522940014,
				"y": -1.7604448419,
				"z": 2.495056421,
				"element": "C" 
			},
			{
				"x": 1.8410479052,
				"y": -0.519590346,
				"z": 2.1340409028,
				"element": "C" 
			},
			{
				"x": 2.9497697377,
				"y": 0.0325544794,
				"z": 2.8291959472,
				"element": "C" 
			},
			{
				"x": 3.4951772752,
				"y": 1.2365433681,
				"z": 2.4436354423,
				"element": "C" 
			},
			{
				"x": 2.9554493346,
				"y": 1.9448683846,
				"z": 1.3404201322,
				"element": "C" 
			},
			{
				"x": 1.8820413686,
				"y": 1.4365080603,
				"z": 0.6456940289,
				"element": "C" 
			},
			{
				"x": 1.2923336749,
				"y": 0.1960602306,
				"z": 1.018800567,
				"element": "C" 
			},
			{
				"x": 0.1875743938,
				"y": -0.3513378198,
				"z": 0.3221119113,
				"element": "C" 
			},
			{
				"x": -3.1485442335,
				"y": -2.1236161836,
				"z": -1.3694062031,
				"element": "H" 
			},
			{
				"x": -2.1793915338,
				"y": -0.5576477211,
				"z": -1.2593415452,
				"element": "H" 
			},
			{
				"x": -1.7676085748,
				"y": -3.1786576763,
				"z": 0.2967277514,
				"element": "H" 
			},
			{
				"x": -0.2566254893,
				"y": -3.2140413296,
				"z": 2.0883200337,
				"element": "H" 
			},
			{
				"x": 1.6645888365,
				"y": -2.3120013202,
				"z": 3.3362229317,
				"element": "H" 
			},
			{
				"x": 3.361847447,
				"y": -0.5137036263,
				"z": 3.6740048928,
				"element": "H" 
			},
			{
				"x": 4.3427499018,
				"y": 1.6488592583,
				"z": 2.9834462927,
				"element": "H" 
			},
			{
				"x": 3.3948441242,
				"y": 2.8934584085,
				"z": 1.0454561003,
				"element": "H" 
			},
			{
				"x": 1.4670665036,
				"y": 1.9783944397,
				"z": -0.2004616458,
				"element": "H" 
			},
			{
				"x": -0.2037483405,
				"y": 0.1985997622,
				"z": -0.5295647526,
				"element": "H" 
			}
		],
		 "valence_orbital": [ 
			{
				"type": "occ",
				"energy": -0.32758,
				"method": "rhf"
			},
			{
				"type": "occ",
				"energy": -0.29088,
				"method": "rhf"
			},
			{
				"type": "occ",
				"energy": -0.27329,
				"method": "rhf"
			},
			{
				"type": "occ",
				"energy": -0.23105,
				"method": "rhf"
			},
			{
				"type": "occ",
				"energy": -0.20772,
				"method": "rhf"
			},
			{
				"type": "unocc",
				"energy": -0.04811,
				"method": "rhf"
			},
			{
				"type": "unocc",
				"energy": -0.01818,
				"method": "rhf"
			},
			{
				"type": "unocc",
				"energy": 0.0238,
				"method": "rhf"
			},
			{
				"type": "unocc",
				"energy": 0.04986,
				"method": "rhf"
			},
			{
				"type": "unocc",
				"energy": 0.09772,
				"method": "rhf"
			}
		],
		"cosmo_sigma_profile": { 
			"-0.025": 0.0,
			"-0.024": 0.0,
			"-0.023": 0.0,
			"-0.022": 0.0,
			"-0.021": 0.0,
			"-0.02": 0.0,
			"-0.019": 0.0,
			"-0.018": 0.0,
			"-0.017": 0.0,
			"-0.016": 0.0,
			"-0.015": 0.0,
			"-0.014": 0.0,
			"-0.013": 0.0,
			"-0.012": 0.0,
			"-0.011": 0.0,
			"-0.01": 0.0,
			"-0.009": 0.0,
			"-0.008": 0.0,
			"-0.007": 0.595810364211,
			"-0.006": 13.4973399214,
			"-0.005": 20.4313509928,
			"-0.004": 18.1603263305,
			"-0.003": 17.6393766631,
			"-0.002": 12.4684497482,
			"-0.001": 12.0958218773,
			"0.0": 12.7588217967,
			"0.001": 11.915697658,
			"0.002": 13.1233481374,
			"0.003": 16.1011858877,
			"0.004": 30.2514795495,
			"0.005": 21.0271065052,
			"0.006": 5.04073686863,
			"0.007": 0.776732310367,
			"0.008": 0.0,
			"0.009": 0.0,
			"0.01": 0.0,
			"0.011": 0.0,
			"0.012": 0.0,
			"0.013": 0.0,
			"0.014": 0.0,
			"0.015": 0.0,
			"0.016": 0.0,
			"0.017": 0.0,
			"0.018": 0.0,
			"0.019": 0.0,
			"0.02": 0.0,
			"0.021": 0.0,
			"0.022": 0.0,
			"0.023": 0.0,
			"0.024": 0.0,
			"0.025": 0.0
		}
	}
}
