{
	 "smiles": "CC(C)(CC1=CC=CC=C1)C(O)=O", 
	 "Tm": 323.15, 
	 "num_atms": 27, 
	 "gaussian": { 
		 "optdone": 1, 
		 "sigma_profile": "yes", 
		 "theory": "DFT", 
		 "functional": "B3LYP", 
		 "basiset": "6-31G**", 
		 "properties": { 
			 "R2extent": 2859.8838, 
			 "electric_dipole_moment_norm": 1.57897290984, 
			 "electric_quadrupole_moment_norm": 7.79016956812, 
			 "total_energy": -578.084401115, 
			 "HOMO_LUMO_gap": 0.23554, 
			 "cosmo_polarized_energy": -9.41, 
			 "cosmo_cavitation_energy": 29.33, 
			 "cosmo_dispersion_energy": -20.54, 
			 "cosmo_repulsion_energy": 1.62, 
			 "cosmo_total_nonelectrostatic_energy": 10.41, 
			 "SMD_solvation_energy": 6.01 
		},
		"coords": [
			{
				"x": 0.5153100926,
				"y": -1.0436489116,
				"z": 1.7137933149,
				"element": "C" 
			},
			{
				"x": 0.3721684432,
				"y": -1.2509365601,
				"z": 0.1993689079,
				"element": "C" 
			},
			{
				"x": -1.0279920529,
				"y": -1.8118325264,
				"z": -0.131350673,
				"element": "C" 
			},
			{
				"x": 0.6531921525,
				"y": 0.0755655636,
				"z": -0.5936383118,
				"element": "C" 
			},
			{
				"x": -0.2782716636,
				"y": 1.2311924552,
				"z": -0.2931394106,
				"element": "C" 
			},
			{
				"x": 0.0168444838,
				"y": 2.1545249986,
				"z": 0.7210901912,
				"element": "C" 
			},
			{
				"x": -0.8394969675,
				"y": 3.2218149482,
				"z": 0.9949020486,
				"element": "C" 
			},
			{
				"x": -2.0101562174,
				"y": 3.389662193,
				"z": 0.2531565711,
				"element": "C" 
			},
			{
				"x": -2.3126975368,
				"y": 2.4861094858,
				"z": -0.7668495475,
				"element": "C" 
			},
			{
				"x": -1.4526612125,
				"y": 1.4206436524,
				"z": -1.0371311327,
				"element": "C" 
			},
			{
				"x": 1.4274749894,
				"y": -2.2641380075,
				"z": -0.2524111258,
				"element": "C" 
			},
			{
				"x": 1.3275498524,
				"y": -2.5623208909,
				"z": -1.5749072281,
				"element": "O" 
			},
			{
				"x": 2.2802640323,
				"y": -2.7665462733,
				"z": 0.4473192241,
				"element": "O" 
			},
			{
				"x": -0.2284174614,
				"y": -0.3263048034,
				"z": 2.0694445208,
				"element": "H" 
			},
			{
				"x": 1.5113744522,
				"y": -0.6737232379,
				"z": 1.9717938034,
				"element": "H" 
			},
			{
				"x": 0.3705164574,
				"y": -1.9873325966,
				"z": 2.2464160345,
				"element": "H" 
			},
			{
				"x": -1.1951698844,
				"y": -2.7615405134,
				"z": 0.3876359074,
				"element": "H" 
			},
			{
				"x": -1.7993572901,
				"y": -1.1097940891,
				"z": 0.1961117657,
				"element": "H" 
			},
			{
				"x": -1.1477806455,
				"y": -1.9855656018,
				"z": -1.2037322118,
				"element": "H" 
			},
			{
				"x": 0.6107588603,
				"y": -0.157156242,
				"z": -1.6619218676,
				"element": "H" 
			},
			{
				"x": 1.6842252093,
				"y": 0.381057854,
				"z": -0.377284033,
				"element": "H" 
			},
			{
				"x": 0.9321300548,
				"y": 2.0397434922,
				"z": 1.2960037325,
				"element": "H" 
			},
			{
				"x": -0.5882715782,
				"y": 3.9258072992,
				"z": 1.7833841155,
				"element": "H" 
			},
			{
				"x": -2.6759546326,
				"y": 4.222006786,
				"z": 0.4623208661,
				"element": "H" 
			},
			{
				"x": -3.2150593501,
				"y": 2.613907282,
				"z": -1.35835443,
				"element": "H" 
			},
			{
				"x": -1.689523868,
				"y": 0.7308319107,
				"z": -1.8430966639,
				"element": "H" 
			},
			{
				"x": 2.0391012806,
				"y": -3.1989276671,
				"z": -1.7563243678,
				"element": "H" 
			}
		],
		 "valence_orbital": [ 
			{
				"type": "occ",
				"energy": -0.33201,
				"method": "rhf"
			},
			{
				"type": "occ",
				"energy": -0.31659,
				"method": "rhf"
			},
			{
				"type": "occ",
				"energy": -0.26928,
				"method": "rhf"
			},
			{
				"type": "occ",
				"energy": -0.25001,
				"method": "rhf"
			},
			{
				"type": "occ",
				"energy": -0.24235,
				"method": "rhf"
			},
			{
				"type": "unocc",
				"energy": -0.00681,
				"method": "rhf"
			},
			{
				"type": "unocc",
				"energy": -0.00231,
				"method": "rhf"
			},
			{
				"type": "unocc",
				"energy": 0.01402,
				"method": "rhf"
			},
			{
				"type": "unocc",
				"energy": 0.07277,
				"method": "rhf"
			},
			{
				"type": "unocc",
				"energy": 0.08744,
				"method": "rhf"
			}
		],
		"cosmo_sigma_profile": { 
			"-0.025": 0.0,
			"-0.024": 0.0,
			"-0.023": 0.0,
			"-0.022": 0.0,
			"-0.021": 0.0,
			"-0.02": 0.0,
			"-0.019": 0.0,
			"-0.018": 0.404169691198,
			"-0.017": 1.03474985438,
			"-0.016": 1.06021353473,
			"-0.015": 0.318097433302,
			"-0.014": 0.826395872367,
			"-0.013": 0.618856860291,
			"-0.012": 0.521215294716,
			"-0.011": 1.14613753244,
			"-0.01": 0.769353361143,
			"-0.009": 0.509958776325,
			"-0.008": 0.249379921224,
			"-0.007": 0.827444705046,
			"-0.006": 3.15961247798,
			"-0.005": 12.0570758536,
			"-0.004": 22.4067124743,
			"-0.003": 25.9620897561,
			"-0.002": 21.452393622,
			"-0.001": 20.786144086,
			"0.0": 23.375409229,
			"0.001": 20.1314656283,
			"0.002": 12.2323792745,
			"0.003": 10.3752464413,
			"0.004": 10.4624551021,
			"0.005": 10.236337493,
			"0.006": 9.91462396651,
			"0.007": 3.75686586139,
			"0.008": 2.59428646015,
			"0.009": 2.16956669409,
			"0.01": 1.73750328097,
			"0.011": 3.32040493744,
			"0.012": 4.77143812299,
			"0.013": 0.789554388085,
			"0.014": 0.0,
			"0.015": 0.0,
			"0.016": 0.0,
			"0.017": 0.0,
			"0.018": 0.0,
			"0.019": 0.0,
			"0.02": 0.0,
			"0.021": 0.0,
			"0.022": 0.0,
			"0.023": 0.0,
			"0.024": 0.0,
			"0.025": 0.0
		}
	}
}
